/*--------------------------------*- C++ -*----------------------------------*\
| =========                 |                                                 |
| \\      /  F ield         | OpenFOAM: The Open Source CFD Toolbox           |
|  \\    /   O peration     | Version:  v2006                                 |
|   \\  /    A nd           | Website:  www.openfoam.com                      |
|    \\/     M anipulation  |                                                 |
\*---------------------------------------------------------------------------*/
FoamFile
{
    version     2.0;
    format      ascii;
    class       volScalarField;
    location    "82";
    object      nut;
}
// * * * * * * * * * * * * * * * * * * * * * * * * * * * * * * * * * * * * * //

dimensions      [0 2 -1 0 0 0 0];


internalField   nonuniform List<scalar> 
78750
(
6.06176e-09
6.12582e-07
9.76515e-07
1.30601e-06
1.61219e-06
1.89037e-06
2.13652e-06
2.34952e-06
2.53044e-06
2.6812e-06
2.80382e-06
2.90018e-06
2.97193e-06
3.02059e-06
3.0476e-06
3.05445e-06
3.0418e-06
3.01031e-06
2.96094e-06
2.89458e-06
2.81193e-06
2.71477e-06
2.6015e-06
2.47258e-06
2.3284e-06
2.16908e-06
1.99457e-06
1.80467e-06
1.59812e-06
1.37323e-06
1.12664e-06
8.55639e-07
5.73165e-07
3.2684e-07
6.86928e-09
3.18643e-09
2.10094e-06
4.19243e-06
6.52533e-06
9.22791e-06
1.19052e-05
1.40255e-05
1.54249e-05
1.63023e-05
1.69047e-05
1.73952e-05
1.78685e-05
1.83783e-05
1.89595e-05
1.96517e-05
2.0442e-05
2.05782e-05
2.01663e-05
1.96677e-05
1.90925e-05
1.84498e-05
1.77478e-05
1.69877e-05
1.61745e-05
1.5311e-05
1.43972e-05
1.34322e-05
1.24194e-05
1.03893e-05
8.15353e-06
5.76751e-06
3.72637e-06
2.74051e-06
1.88748e-06
2.63058e-08
3.83793e-09
2.03732e-06
3.93838e-06
6.05494e-06
8.58912e-06
1.16126e-05
1.49415e-05
1.80901e-05
2.052e-05
2.19886e-05
2.25914e-05
2.25726e-05
2.21745e-05
2.15812e-05
2.09131e-05
2.0239e-05
1.95803e-05
1.89253e-05
1.82624e-05
1.75951e-05
1.69342e-05
1.62934e-05
1.56896e-05
1.51279e-05
1.45789e-05
1.39707e-05
1.3188e-05
1.20816e-05
1.04993e-05
8.38794e-06
6.10456e-06
4.52938e-06
4.54676e-06
2.11799e-06
4.20888e-08
7.4667e-09
1.76131e-06
3.71907e-06
6.24087e-06
9.51464e-06
1.34501e-05
1.74745e-05
2.08306e-05
2.31079e-05
2.4299e-05
2.45667e-05
2.41328e-05
2.32372e-05
2.20924e-05
2.08551e-05
1.96207e-05
1.8436e-05
1.73167e-05
1.62635e-05
1.52771e-05
1.43686e-05
1.35631e-05
1.28884e-05
1.23648e-05
1.19866e-05
1.16912e-05
1.13307e-05
1.06712e-05
9.47943e-06
7.75376e-06
5.99489e-06
5.10333e-06
6.23999e-06
2.02991e-06
5.44637e-08
1.11894e-08
1.78704e-06
3.99931e-06
7.20724e-06
1.17034e-05
1.70891e-05
2.2097e-05
2.56487e-05
2.70374e-05
2.75024e-05
2.70615e-05
2.55493e-05
2.37064e-05
2.18447e-05
2.01234e-05
1.85963e-05
1.72549e-05
1.60636e-05
1.4982e-05
1.39787e-05
1.30421e-05
1.21913e-05
1.14667e-05
1.09013e-05
1.05016e-05
1.02238e-05
9.9342e-06
9.40319e-06
8.42271e-06
7.06978e-06
5.86727e-06
5.67527e-06
7.5519e-06
1.94873e-06
6.35826e-08
1.5836e-08
1.80033e-06
4.20385e-06
8.01461e-06
1.36358e-05
2.00773e-05
2.51929e-05
2.80367e-05
2.88517e-05
2.81279e-05
2.64043e-05
2.42091e-05
2.1965e-05
1.99157e-05
1.81478e-05
1.66611e-05
1.54115e-05
1.43417e-05
1.33972e-05
1.25367e-05
1.17404e-05
1.10135e-05
1.03788e-05
9.8562e-06
9.44796e-06
9.12029e-06
8.77271e-06
8.24033e-06
7.40467e-06
6.39769e-06
5.69395e-06
6.12682e-06
8.10298e-06
1.8973e-06
7.01679e-08
1.98942e-08
1.84711e-06
4.43209e-06
8.75348e-06
1.52719e-05
2.23769e-05
2.73842e-05
2.96537e-05
2.96977e-05
2.81534e-05
2.57089e-05
2.30075e-05
2.04834e-05
1.83265e-05
1.65632e-05
1.51416e-05
1.39878e-05
1.30301e-05
1.22071e-05
1.14734e-05
1.08075e-05
1.02122e-05
9.68874e-06
9.22669e-06
8.81259e-06
8.41528e-06
7.96648e-06
7.37756e-06
6.62797e-06
5.88639e-06
5.57482e-06
6.51692e-06
8.03002e-06
1.84968e-06
7.55226e-08
2.39251e-08
1.88688e-06
4.59058e-06
9.26969e-06
1.64398e-05
2.39293e-05
2.86699e-05
3.03509e-05
2.97214e-05
2.75643e-05
2.46798e-05
2.17392e-05
1.91301e-05
1.69767e-05
1.52548e-05
1.38889e-05
1.27996e-05
1.19177e-05
1.1188e-05
1.05735e-05
1.00573e-05
9.62832e-06
9.24747e-06
8.86583e-06
8.44687e-06
7.96594e-06
7.40006e-06
6.73927e-06
6.03878e-06
5.48108e-06
5.44653e-06
6.75273e-06
7.70075e-06
1.81115e-06
8.04378e-08
2.73222e-08
1.92091e-06
4.70582e-06
9.6243e-06
1.72117e-05
2.48781e-05
2.93768e-05
3.06479e-05
2.95712e-05
2.70256e-05
2.38866e-05
2.08298e-05
1.81953e-05
1.60552e-05
1.43564e-05
1.30133e-05
1.19457e-05
1.10902e-05
1.04008e-05
9.85413e-06
9.44863e-06
9.16537e-06
8.9303e-06
8.65383e-06
8.26472e-06
7.73097e-06
7.06797e-06
6.33755e-06
5.65437e-06
5.20879e-06
5.35624e-06
6.90587e-06
7.29942e-06
1.77677e-06
8.5519e-08
3.07411e-08
1.95115e-06
4.7951e-06
9.89443e-06
1.77984e-05
2.55643e-05
2.98324e-05
3.07605e-05
2.93403e-05
2.65267e-05
2.3236e-05
2.01254e-05
1.74905e-05
1.53682e-05
1.36846e-05
1.23487e-05
1.1285e-05
1.04371e-05
9.7678e-06
9.26729e-06
8.94834e-06
8.78165e-06
8.6703e-06
8.49352e-06
8.14679e-06
7.58619e-06
6.85454e-06
6.06997e-06
5.39185e-06
5.01558e-06
5.28191e-06
6.98775e-06
6.91778e-06
1.74702e-06
9.07577e-08
3.39109e-08
1.9767e-06
4.86251e-06
1.00889e-05
1.82047e-05
2.60036e-05
3.00819e-05
3.07613e-05
2.91073e-05
2.61265e-05
2.27547e-05
1.96268e-05
1.70021e-05
1.48925e-05
1.32141e-05
1.18731e-05
1.07945e-05
9.93028e-06
9.25435e-06
8.76972e-06
8.50393e-06
8.42068e-06
8.41105e-06
8.33155e-06
8.04613e-06
7.49201e-06
6.72618e-06
5.90625e-06
5.22686e-06
4.89236e-06
5.23854e-06
7.05074e-06
6.57851e-06
1.7219e-06
9.60906e-08
3.71852e-08
2.00105e-06
4.92619e-06
1.02741e-05
1.85854e-05
2.63971e-05
3.02919e-05
3.07479e-05
2.88969e-05
2.57875e-05
2.23636e-05
1.92338e-05
1.66251e-05
1.45293e-05
1.2855e-05
1.15082e-05
1.04172e-05
9.53576e-06
8.84514e-06
8.3621e-06
8.12568e-06
8.0942e-06
8.15449e-06
8.1509e-06
7.92523e-06
7.39666e-06
6.62618e-06
5.79519e-06
5.12073e-06
4.81701e-06
5.22397e-06
7.11721e-06
6.28407e-06
1.70136e-06
1.01339e-07
4.0437e-08
2.02376e-06
4.98318e-06
1.04341e-05
1.89001e-05
2.67002e-05
3.04325e-05
3.07089e-05
2.87128e-05
2.55215e-05
2.20759e-05
1.89571e-05
1.63656e-05
1.4279e-05
1.2602e-05
1.12417e-05
1.01296e-05
9.2239e-06
8.51074e-06
8.01595e-06
7.78945e-06
7.78647e-06
7.89303e-06
7.94849e-06
7.78043e-06
7.29214e-06
6.54094e-06
5.71916e-06
5.05809e-06
4.78224e-06
5.24184e-06
7.20496e-06
6.0372e-06
1.68606e-06
1.06446e-07
4.37653e-08
2.04603e-06
5.04145e-06
1.06009e-05
1.92242e-05
2.70046e-05
3.0575e-05
3.06819e-05
2.85567e-05
2.53006e-05
2.18466e-05
1.87464e-05
1.61757e-05
1.41002e-05
1.24218e-05
1.10488e-05
9.91575e-06
8.98454e-06
8.24635e-06
7.73412e-06
7.50429e-06
7.51117e-06
7.64279e-06
7.73753e-06
7.61589e-06
7.17068e-06
6.45315e-06
5.65746e-06
5.02116e-06
4.77701e-06
5.28935e-06
7.31846e-06
5.8306e-06
1.67543e-06
1.11335e-07
4.71381e-08
2.06791e-06
5.09802e-06
1.0759e-05
1.95209e-05
2.72697e-05
3.06921e-05
3.06572e-05
2.84357e-05
2.51431e-05
2.1697e-05
1.86206e-05
1.60692e-05
1.40004e-05
1.23153e-05
1.09243e-05
9.7649e-06
8.80269e-06
8.03303e-06
7.49448e-06
7.25006e-06
7.25345e-06
7.39516e-06
7.51622e-06
7.43468e-06
7.036e-06
6.36347e-06
5.60687e-06
5.00467e-06
4.79704e-06
5.365e-06
7.45785e-06
5.66331e-06
1.66958e-06
1.16029e-07
5.05454e-08
2.08958e-06
5.15636e-06
1.09245e-05
1.98282e-05
2.75413e-05
3.08182e-05
3.06494e-05
2.83424e-05
2.50238e-05
2.15935e-05
1.85461e-05
1.60176e-05
1.39584e-05
1.22687e-05
1.08607e-05
9.67458e-06
8.67935e-06
7.87458e-06
7.30316e-06
7.0347e-06
7.02399e-06
7.16319e-06
7.29646e-06
7.24446e-06
6.88929e-06
6.26665e-06
5.55818e-06
4.99887e-06
4.83463e-06
5.46396e-06
7.61954e-06
5.52912e-06
1.66787e-06
1.20519e-07
5.40032e-08
2.11127e-06
5.2147e-06
1.10876e-05
2.01232e-05
2.77947e-05
3.09376e-05
3.06557e-05
2.82862e-05
2.49591e-05
2.1553e-05
1.85359e-05
1.60284e-05
1.3976e-05
1.22789e-05
1.08509e-05
9.63457e-06
8.60212e-06
7.75703e-06
7.14516e-06
6.84262e-06
6.8079e-06
6.93572e-06
7.07417e-06
7.04686e-06
6.73512e-06
6.16677e-06
5.51288e-06
5.00262e-06
4.88697e-06
5.58257e-06
7.79795e-06
5.42316e-06
1.66965e-06
1.24841e-07
5.74724e-08
2.13293e-06
5.27476e-06
1.12572e-05
2.04278e-05
2.80555e-05
3.10681e-05
3.06799e-05
2.82552e-05
2.49259e-05
2.15485e-05
1.85656e-05
1.60831e-05
1.40417e-05
1.23409e-05
1.08954e-05
9.64933e-06
8.57819e-06
7.68873e-06
7.03002e-06
6.68382e-06
6.61467e-06
6.72029e-06
6.85394e-06
6.8444e-06
6.57325e-06
6.06069e-06
5.4659e-06
5.01034e-06
4.94911e-06
5.71705e-06
7.99025e-06
5.34284e-06
1.67477e-06
1.29003e-07
6.09832e-08
2.1546e-06
5.33536e-06
1.1428e-05
2.07294e-05
2.83103e-05
3.12016e-05
3.07217e-05
2.82562e-05
2.49335e-05
2.15878e-05
1.86385e-05
1.61801e-05
1.41491e-05
1.24449e-05
1.0982e-05
9.70607e-06
8.59472e-06
7.6575e-06
6.94648e-06
6.54821e-06
6.43626e-06
6.512e-06
6.63457e-06
6.63898e-06
6.40757e-06
5.95233e-06
5.41937e-06
5.02172e-06
5.01869e-06
5.8631e-06
8.18942e-06
5.28108e-06
1.68209e-06
1.33026e-07
6.44972e-08
2.17619e-06
5.39739e-06
1.1605e-05
2.10408e-05
2.8574e-05
3.13477e-05
3.07811e-05
2.82789e-05
2.49655e-05
2.16535e-05
1.87411e-05
1.63109e-05
1.42956e-05
1.25929e-05
1.11166e-05
9.81313e-06
8.66137e-06
7.67339e-06
6.90403e-06
6.44449e-06
6.27994e-06
6.31609e-06
6.41888e-06
6.43085e-06
6.23611e-06
5.83831e-06
5.3696e-06
5.03351e-06
5.09281e-06
6.01838e-06
8.39475e-06
5.23793e-06
1.69183e-06
1.36922e-07
6.80399e-08
2.19755e-06
5.45986e-06
1.17854e-05
2.13569e-05
2.88413e-05
3.15035e-05
3.08582e-05
2.83251e-05
2.50229e-05
2.17442e-05
1.88678e-05
1.64664e-05
1.44685e-05
1.27699e-05
1.12836e-05
9.95515e-06
8.76408e-06
7.72433e-06
6.89326e-06
6.36608e-06
6.1421e-06
6.13202e-06
6.20908e-06
6.22407e-06
6.06343e-06
5.72236e-06
5.31849e-06
5.04565e-06
5.17014e-06
6.17998e-06
8.60062e-06
5.20697e-06
1.7029e-06
1.40697e-07
7.15852e-08
2.2186e-06
5.52298e-06
1.19712e-05
2.16841e-05
2.9123e-05
3.16773e-05
3.09538e-05
2.83885e-05
2.50969e-05
2.18526e-05
1.90157e-05
1.66478e-05
1.46729e-05
1.29841e-05
1.14926e-05
1.01425e-05
8.91314e-06
7.81979e-06
6.92222e-06
6.3192e-06
6.02729e-06
5.9626e-06
6.00615e-06
6.01787e-06
5.88728e-06
5.60135e-06
5.26278e-06
5.055e-06
5.2475e-06
6.34514e-06
8.80687e-06
5.18857e-06
1.71554e-06
1.44364e-07
7.51449e-08
2.23908e-06
5.5857e-06
1.21594e-05
2.20169e-05
2.94084e-05
3.18577e-05
3.10606e-05
2.84616e-05
2.51791e-05
2.19692e-05
1.91728e-05
1.68408e-05
1.48924e-05
1.32183e-05
1.1727e-05
1.03602e-05
9.09597e-06
7.94992e-06
6.98399e-06
6.30034e-06
5.93499e-06
5.80997e-06
5.81436e-06
5.81755e-06
5.71284e-06
5.47945e-06
5.2052e-06
5.06294e-06
5.32512e-06
6.51285e-06
9.01048e-06
5.17834e-06
1.729e-06
1.47918e-07
7.87073e-08
2.25915e-06
5.64803e-06
1.23478e-05
2.23458e-05
2.96776e-05
3.20235e-05
3.11614e-05
2.85364e-05
2.52683e-05
2.20967e-05
1.93447e-05
1.70531e-05
1.51365e-05
1.34827e-05
1.19972e-05
1.06185e-05
9.32212e-06
8.12329e-06
7.08565e-06
6.31488e-06
5.86869e-06
5.67594e-06
5.63404e-06
5.62217e-06
5.538e-06
5.35368e-06
5.14239e-06
5.06607e-06
5.39958e-06
6.67914e-06
9.20844e-06
5.17565e-06
1.74324e-06
1.51373e-07
8.22693e-08
2.27864e-06
5.70991e-06
1.25362e-05
2.2668e-05
2.9935e-05
3.21781e-05
3.12531e-05
2.86128e-05
2.53578e-05
2.22222e-05
1.95154e-05
1.72671e-05
1.5387e-05
1.37595e-05
1.22869e-05
1.09034e-05
9.58069e-06
8.33244e-06
7.22331e-06
6.36262e-06
5.83054e-06
5.56459e-06
5.47053e-06
5.43752e-06
5.36819e-06
5.2285e-06
5.07758e-06
5.06641e-06
5.47204e-06
6.84603e-06
9.40647e-06
5.17932e-06
1.75808e-06
1.54727e-07
8.58377e-08
2.29775e-06
5.77202e-06
1.27274e-05
2.29819e-05
3.01774e-05
3.23176e-05
3.13311e-05
2.86782e-05
2.54426e-05
2.23499e-05
1.96937e-05
1.74935e-05
1.56546e-05
1.4059e-05
1.26051e-05
1.12225e-05
9.87841e-06
8.5834e-06
7.40241e-06
6.44839e-06
5.82408e-06
5.47813e-06
5.32489e-06
5.26358e-06
5.20231e-06
5.10189e-06
5.00813e-06
5.06115e-06
5.53982e-06
7.01047e-06
9.60187e-06
5.18992e-06
1.77333e-06
1.57991e-07
8.9387e-08
2.31581e-06
5.83243e-06
1.29178e-05
2.32868e-05
3.04047e-05
3.2441e-05
3.13938e-05
2.87306e-05
2.55186e-05
2.24698e-05
1.98648e-05
1.77151e-05
1.5922e-05
1.43644e-05
1.29369e-05
1.15635e-05
1.02057e-05
8.8699e-06
7.62036e-06
6.57366e-06
5.853e-06
5.42174e-06
5.20312e-06
5.1065e-06
5.04601e-06
4.97849e-06
4.93747e-06
5.05241e-06
5.60384e-06
7.17321e-06
9.7934e-06
5.2069e-06
1.78921e-06
1.61167e-07
9.29456e-08
2.33335e-06
5.89162e-06
1.31054e-05
2.35826e-05
3.06167e-05
3.25486e-05
3.1442e-05
2.87714e-05
2.55928e-05
2.25894e-05
2.00371e-05
1.79415e-05
1.61988e-05
1.46844e-05
1.3289e-05
1.19313e-05
1.05663e-05
9.19499e-06
7.88014e-06
6.74158e-06
5.91975e-06
5.3973e-06
5.10674e-06
4.96731e-06
4.8996e-06
4.85773e-06
4.86427e-06
5.0386e-06
5.66337e-06
7.33553e-06
9.98238e-06
5.23007e-06
1.80578e-06
1.64268e-07
9.64787e-08
2.35011e-06
5.94949e-06
1.32911e-05
2.38698e-05
3.08127e-05
3.26375e-05
3.14694e-05
2.87899e-05
2.56438e-05
2.26889e-05
2.01941e-05
1.81575e-05
1.64704e-05
1.50054e-05
1.36494e-05
1.23156e-05
1.09518e-05
9.55258e-06
8.17802e-06
6.95096e-06
6.02565e-06
5.40808e-06
5.04036e-06
4.85135e-06
4.76842e-06
4.74436e-06
4.79243e-06
5.02285e-06
5.72064e-06
7.49752e-06
1.01688e-05
5.25733e-06
1.82279e-06
1.67288e-07
1.00031e-07
2.36655e-06
6.00687e-06
1.3476e-05
2.41496e-05
3.09945e-05
3.27107e-05
3.14821e-05
2.8796e-05
2.56856e-05
2.27827e-05
2.03483e-05
1.83735e-05
1.67452e-05
1.53334e-05
1.40218e-05
1.27181e-05
1.13626e-05
9.94223e-06
8.51319e-06
7.20055e-06
6.16993e-06
5.45393e-06
5.00441e-06
4.75945e-06
4.65344e-06
4.63908e-06
4.72209e-06
5.00458e-06
5.77398e-06
7.65615e-06
1.03519e-05
5.28866e-06
1.84021e-06
1.70234e-07
1.03557e-07
2.38238e-06
6.06325e-06
1.36589e-05
2.44196e-05
3.11586e-05
3.27626e-05
3.14706e-05
2.87764e-05
2.57021e-05
2.28541e-05
2.04841e-05
1.85754e-05
1.70106e-05
1.56575e-05
1.43968e-05
1.31307e-05
1.17916e-05
1.03579e-05
8.88088e-06
7.48682e-06
6.35152e-06
5.53573e-06
5.00134e-06
4.69527e-06
4.55898e-06
4.54629e-06
4.65714e-06
4.98689e-06
5.8257e-06
7.81291e-06
1.05315e-05
5.3223e-06
1.85779e-06
1.73096e-07
1.07118e-07
2.39826e-06
6.12019e-06
1.38426e-05
2.46831e-05
3.13086e-05
3.2798e-05
3.14422e-05
2.87413e-05
2.57057e-05
2.29159e-05
2.06127e-05
1.87721e-05
1.72732e-05
1.59819e-05
1.47761e-05
1.35529e-05
1.22368e-05
1.07969e-05
9.27811e-06
7.8069e-06
6.56821e-06
5.65196e-06
5.03031e-06
4.65877e-06
4.48573e-06
4.46705e-06
4.59864e-06
4.97038e-06
5.8755e-06
7.96683e-06
1.07078e-05
5.35833e-06
1.87547e-06
1.75874e-07
1.10656e-07
2.41382e-06
6.1769e-06
1.40237e-05
2.49344e-05
3.14385e-05
3.28099e-05
3.13878e-05
2.86788e-05
2.56826e-05
2.29552e-05
2.07217e-05
1.89523e-05
1.75232e-05
1.62984e-05
1.51529e-05
1.39788e-05
1.26924e-05
1.12535e-05
9.69947e-06
8.15632e-06
6.81744e-06
5.80171e-06
5.09188e-06
4.65176e-06
4.43655e-06
4.40481e-06
4.55004e-06
4.9583e-06
5.92695e-06
8.1202e-06
1.08807e-05
5.39537e-06
1.89307e-06
1.78555e-07
1.14215e-07
2.42956e-06
6.23551e-06
1.42047e-05
2.51787e-05
3.15542e-05
3.28038e-05
3.13145e-05
2.85993e-05
2.56447e-05
2.29833e-05
2.08204e-05
1.91234e-05
1.77662e-05
1.66105e-05
1.55284e-05
1.44071e-05
1.31555e-05
1.17235e-05
1.01405e-05
8.53076e-06
7.09549e-06
5.98199e-06
5.18392e-06
4.67312e-06
4.41129e-06
4.36029e-06
4.51267e-06
4.95254e-06
5.98248e-06
8.27387e-06
1.10511e-05
5.43346e-06
1.91051e-06
1.81134e-07
1.17714e-07
2.44397e-06
6.29139e-06
1.4381e-05
2.54116e-05
3.1651e-05
3.27756e-05
3.12167e-05
2.84911e-05
2.5576e-05
2.29828e-05
2.0896e-05
1.92764e-05
1.79952e-05
1.69124e-05
1.58977e-05
1.48338e-05
1.36219e-05
1.22022e-05
1.05959e-05
8.92497e-06
7.39824e-06
6.1899e-06
5.30476e-06
4.72246e-06
4.41096e-06
4.33575e-06
4.48968e-06
4.95651e-06
6.04485e-06
8.43182e-06
1.12204e-05
5.47196e-06
1.92769e-06
1.83596e-07
1.2125e-07
2.45846e-06
6.34838e-06
1.45609e-05
2.56409e-05
3.17362e-05
3.27332e-05
3.11042e-05
2.83711e-05
2.54976e-05
2.29712e-05
2.09573e-05
1.94156e-05
1.8213e-05
1.72056e-05
1.6261e-05
1.52574e-05
1.40891e-05
1.26864e-05
1.10618e-05
9.33489e-06
7.72163e-06
6.4216e-06
5.45105e-06
4.79718e-06
4.43391e-06
4.33057e-06
4.48127e-06
4.97071e-06
6.11436e-06
8.59449e-06
1.13888e-05
5.51105e-06
1.94461e-06
1.85938e-07
1.24731e-07
2.47194e-06
6.40304e-06
1.47357e-05
2.58553e-05
3.18009e-05
3.26675e-05
3.09657e-05
2.82232e-05
2.53914e-05
2.29351e-05
2.09999e-05
1.95379e-05
1.84152e-05
1.74866e-05
1.66156e-05
1.56759e-05
1.45548e-05
1.3173e-05
1.15347e-05
9.75681e-06
8.06238e-06
6.67437e-06
5.6207e-06
4.89595e-06
4.47974e-06
4.34534e-06
4.48887e-06
4.99716e-06
6.19352e-06
8.76479e-06
1.1557e-05
5.55025e-06
1.96122e-06
1.88149e-07
1.28212e-07
2.48526e-06
6.45788e-06
1.49112e-05
2.60636e-05
3.18535e-05
3.25879e-05
3.08134e-05
2.80622e-05
2.52724e-05
2.28856e-05
2.10288e-05
1.96484e-05
1.86063e-05
1.7756e-05
1.69599e-05
1.60865e-05
1.50152e-05
1.3658e-05
1.20103e-05
1.01865e-05
8.41662e-06
6.94472e-06
5.81068e-06
5.01633e-06
4.54675e-06
4.37913e-06
4.51224e-06
5.03606e-06
6.2827e-06
8.94311e-06
1.17258e-05
5.58998e-06
1.97756e-06
1.9023e-07
1.31635e-07
2.49772e-06
6.51066e-06
1.50817e-05
2.62572e-05
3.18866e-05
3.24864e-05
3.06371e-05
2.78765e-05
2.51296e-05
2.28142e-05
2.10388e-05
1.97424e-05
1.87837e-05
1.80139e-05
1.72935e-05
1.64883e-05
1.54697e-05
1.41397e-05
1.24861e-05
1.06208e-05
8.78103e-06
7.22969e-06
6.01854e-06
5.15649e-06
4.6339e-06
4.43181e-06
4.55205e-06
5.08873e-06
6.38375e-06
9.13152e-06
1.18959e-05
5.63014e-06
1.99363e-06
1.92184e-07
1.35028e-07
2.50988e-06
6.56281e-06
1.52505e-05
2.64421e-05
3.19071e-05
3.23713e-05
3.0447e-05
2.76775e-05
2.49735e-05
2.27294e-05
2.10352e-05
1.9823e-05
1.89479e-05
1.82592e-05
1.76152e-05
1.6878e-05
1.59136e-05
1.46138e-05
1.29578e-05
1.10558e-05
9.15185e-06
7.52586e-06
6.24114e-06
5.3137e-06
4.73898e-06
4.50185e-06
4.60748e-06
5.15486e-06
6.49655e-06
9.32953e-06
1.20672e-05
5.67117e-06
2.00952e-06
1.94022e-07
1.38338e-07
2.52112e-06
6.61258e-06
1.54136e-05
2.66125e-05
3.19092e-05
3.22359e-05
3.02352e-05
2.74571e-05
2.47972e-05
2.26259e-05
2.10153e-05
1.98892e-05
1.90992e-05
1.84929e-05
1.79264e-05
1.72581e-05
1.63478e-05
1.50793e-05
1.34235e-05
1.14887e-05
9.526e-06
7.83032e-06
6.47586e-06
5.48563e-06
4.86012e-06
4.58792e-06
4.67779e-06
5.23425e-06
6.62119e-06
9.53704e-06
1.22387e-05
5.71277e-06
2.0252e-06
1.95754e-07
1.41599e-07
2.532e-06
6.66142e-06
1.55741e-05
2.67733e-05
3.18989e-05
3.2087e-05
3.00099e-05
2.72234e-05
2.46079e-05
2.25094e-05
2.09823e-05
1.99423e-05
1.92373e-05
1.87133e-05
1.82245e-05
1.76254e-05
1.67698e-05
1.55337e-05
1.38806e-05
1.1917e-05
9.90092e-06
8.1406e-06
6.72023e-06
5.66988e-06
4.99509e-06
4.68818e-06
4.76169e-06
5.32612e-06
6.75736e-06
9.75388e-06
1.24109e-05
5.75529e-06
2.04074e-06
1.97389e-07
1.44765e-07
2.542e-06
6.70777e-06
1.57283e-05
2.69197e-05
3.18713e-05
3.19195e-05
2.97654e-05
2.69715e-05
2.44018e-05
2.23775e-05
2.09358e-05
1.99831e-05
1.9364e-05
1.89227e-05
1.85114e-05
1.79814e-05
1.71803e-05
1.59764e-05
1.43279e-05
1.23391e-05
1.02748e-05
8.45506e-06
6.97275e-06
5.86502e-06
5.14253e-06
4.80141e-06
4.85813e-06
5.42968e-06
6.90437e-06
9.97929e-06
1.25835e-05
5.79854e-06
2.05613e-06
1.98934e-07
1.47871e-07
2.55161e-06
6.7531e-06
1.58799e-05
2.70569e-05
3.18317e-05
3.17387e-05
2.95074e-05
2.67068e-05
2.41835e-05
2.22336e-05
2.08774e-05
2.00122e-05
1.94789e-05
1.912e-05
1.8786e-05
1.83246e-05
1.75777e-05
1.64064e-05
1.47629e-05
1.27526e-05
1.06456e-05
8.77184e-06
7.23162e-06
6.06932e-06
5.3009e-06
4.92639e-06
4.9663e-06
5.5445e-06
7.06207e-06
1.02131e-05
1.27569e-05
5.84268e-06
2.07139e-06
2.00397e-07
1.50875e-07
2.56042e-06
6.79605e-06
1.60252e-05
2.71804e-05
3.17761e-05
3.15407e-05
2.92321e-05
2.64263e-05
2.39511e-05
2.2077e-05
2.08075e-05
2.00306e-05
1.95834e-05
1.93069e-05
1.90496e-05
1.86559e-05
1.79623e-05
1.68234e-05
1.51864e-05
1.3157e-05
1.10128e-05
9.09028e-06
7.49614e-06
6.28197e-06
5.46924e-06
5.06205e-06
5.08519e-06
5.66968e-06
7.2296e-06
1.04545e-05
1.29309e-05
5.88769e-06
2.08655e-06
2.01786e-07
1.53809e-07
2.56882e-06
6.8379e-06
1.61677e-05
2.72947e-05
3.17085e-05
3.13292e-05
2.89434e-05
2.61337e-05
2.37078e-05
2.19099e-05
2.07274e-05
2.00389e-05
1.96777e-05
1.94831e-05
1.93018e-05
1.89747e-05
1.83333e-05
1.72263e-05
1.55968e-05
1.35519e-05
1.13755e-05
9.40928e-06
7.76511e-06
6.50188e-06
5.64667e-06
5.20776e-06
5.21435e-06
5.80488e-06
7.4068e-06
1.0703e-05
1.31057e-05
5.93364e-06
2.10161e-06
2.0311e-07
1.56643e-07
2.57652e-06
6.87765e-06
1.63046e-05
2.73962e-05
3.16257e-05
3.11014e-05
2.86392e-05
2.58276e-05
2.3453e-05
2.17325e-05
2.0638e-05
2.00382e-05
1.97629e-05
1.965e-05
1.95439e-05
1.92822e-05
1.86916e-05
1.76155e-05
1.59943e-05
1.39369e-05
1.17335e-05
9.72825e-06
8.03773e-06
6.72806e-06
5.83209e-06
5.36241e-06
5.35281e-06
5.94956e-06
7.59281e-06
1.09578e-05
1.32811e-05
5.98061e-06
2.11662e-06
2.0438e-07
1.594e-07
2.58383e-06
6.91628e-06
1.64386e-05
2.74885e-05
3.15308e-05
3.08601e-05
2.83223e-05
2.55111e-05
2.31893e-05
2.15469e-05
2.05404e-05
2.00291e-05
1.98393e-05
1.98073e-05
1.97754e-05
1.95777e-05
1.90362e-05
1.79901e-05
1.6378e-05
1.43117e-05
1.2087e-05
1.00472e-05
8.31366e-06
6.95999e-06
6.02491e-06
5.52555e-06
5.50063e-06
6.10447e-06
7.78775e-06
1.12185e-05
1.3457e-05
6.02845e-06
2.13157e-06
2.05602e-07
1.62061e-07
2.59053e-06
6.95309e-06
1.65675e-05
2.75688e-05
3.14215e-05
3.06035e-05
2.79917e-05
2.51838e-05
2.2917e-05
2.13537e-05
2.04357e-05
2.00128e-05
1.99082e-05
1.99564e-05
1.99977e-05
1.98624e-05
1.93682e-05
1.83508e-05
1.67483e-05
1.46763e-05
1.24359e-05
1.03659e-05
8.59266e-06
7.19722e-06
6.22453e-06
5.69653e-06
5.65704e-06
6.26845e-06
7.99112e-06
1.14844e-05
1.36336e-05
6.07735e-06
2.14651e-06
2.0678e-07
1.64641e-07
2.59685e-06
6.98885e-06
1.66935e-05
2.76397e-05
3.12998e-05
3.03339e-05
2.76499e-05
2.48485e-05
2.26387e-05
2.1155e-05
2.03253e-05
1.99902e-05
1.99697e-05
2.00971e-05
2.02102e-05
2.01356e-05
1.9687e-05
1.86969e-05
1.71045e-05
1.503e-05
1.27796e-05
1.0684e-05
8.87457e-06
7.43975e-06
6.43093e-06
5.87516e-06
5.82168e-06
6.44103e-06
8.20277e-06
1.17555e-05
1.38106e-05
6.12714e-06
2.16143e-06
2.07914e-07
1.67125e-07
2.60262e-06
7.02292e-06
1.68149e-05
2.76993e-05
3.11644e-05
3.00499e-05
2.72964e-05
2.45051e-05
2.23548e-05
2.09516e-05
2.02103e-05
1.99624e-05
2.00252e-05
2.02306e-05
2.0414e-05
2.03984e-05
1.99932e-05
1.9029e-05
1.7447e-05
1.53729e-05
1.31176e-05
1.10008e-05
9.15863e-06
7.6869e-06
6.64374e-06
6.06131e-06
5.99447e-06
6.62206e-06
8.42245e-06
1.20314e-05
1.39885e-05
6.17808e-06
2.17639e-06
2.09014e-07
1.69524e-07
2.60799e-06
7.05586e-06
1.69331e-05
2.77492e-05
3.10167e-05
2.97535e-05
2.69334e-05
2.4156e-05
2.20675e-05
2.07454e-05
2.00921e-05
1.99303e-05
2.00749e-05
2.03568e-05
2.06088e-05
2.06502e-05
2.02866e-05
1.9347e-05
1.77757e-05
1.5705e-05
1.34499e-05
1.13164e-05
9.44487e-06
7.93875e-06
6.86268e-06
6.25455e-06
6.17501e-06
6.81127e-06
8.65014e-06
1.23121e-05
1.41675e-05
6.23024e-06
2.19142e-06
2.10085e-07
1.71826e-07
2.61286e-06
7.08724e-06
1.70469e-05
2.77883e-05
3.08556e-05
2.94437e-05
2.65606e-05
2.38015e-05
2.17775e-05
2.05375e-05
1.9972e-05
1.98954e-05
2.01204e-05
2.04769e-05
2.07956e-05
2.08918e-05
2.05674e-05
1.96509e-05
1.80905e-05
1.6026e-05
1.37758e-05
1.163e-05
9.73272e-06
8.19473e-06
7.08739e-06
6.45476e-06
6.36325e-06
7.00859e-06
8.88558e-06
1.25973e-05
1.4348e-05
6.28384e-06
2.2066e-06
2.11136e-07
1.74039e-07
2.6173e-06
7.1173e-06
1.71572e-05
2.78177e-05
3.06821e-05
2.91213e-05
2.61789e-05
2.34427e-05
2.1486e-05
2.03291e-05
1.98511e-05
1.98582e-05
2.01618e-05
2.05911e-05
2.09744e-05
2.11232e-05
2.0836e-05
1.99411e-05
1.8392e-05
1.63365e-05
1.40959e-05
1.1942e-05
1.00224e-05
8.45493e-06
7.31795e-06
6.66152e-06
6.55862e-06
7.21358e-06
9.12865e-06
1.2887e-05
1.45299e-05
6.33874e-06
2.2219e-06
2.12171e-07
1.76156e-07
2.62124e-06
7.14584e-06
1.72633e-05
2.78364e-05
3.0495e-05
2.87858e-05
2.57885e-05
2.308e-05
2.1194e-05
2.01218e-05
1.97309e-05
1.98204e-05
2.02006e-05
2.07005e-05
2.11459e-05
2.13447e-05
2.10921e-05
2.0217e-05
1.86793e-05
1.66353e-05
1.44086e-05
1.2251e-05
1.0313e-05
8.71909e-06
7.55435e-06
6.8751e-06
6.76147e-06
7.42639e-06
9.37919e-06
1.31809e-05
1.47138e-05
6.39509e-06
2.23739e-06
2.13196e-07
1.78189e-07
2.62477e-06
7.17314e-06
1.73661e-05
2.78454e-05
3.02947e-05
2.84372e-05
2.53894e-05
2.27137e-05
2.09015e-05
1.99169e-05
1.96124e-05
1.97824e-05
2.02375e-05
2.0806e-05
2.13114e-05
2.15576e-05
2.13371e-05
2.04802e-05
1.89539e-05
1.69239e-05
1.47148e-05
1.25573e-05
1.06044e-05
8.98685e-06
7.79628e-06
7.09555e-06
6.97181e-06
7.64725e-06
9.63772e-06
1.348e-05
1.49004e-05
6.4531e-06
2.25313e-06
2.14222e-07
1.80135e-07
2.62786e-06
7.19911e-06
1.74654e-05
2.78438e-05
3.008e-05
2.80749e-05
2.49821e-05
2.23443e-05
2.06088e-05
1.97135e-05
1.9495e-05
1.97446e-05
2.02733e-05
2.09087e-05
2.14716e-05
2.17623e-05
2.1571e-05
2.07303e-05
1.92155e-05
1.72017e-05
1.50133e-05
1.28596e-05
1.08956e-05
9.25759e-06
8.04359e-06
7.3228e-06
7.1896e-06
7.87612e-06
9.90399e-06
1.37837e-05
1.50898e-05
6.51286e-06
2.26915e-06
2.1526e-07
1.82009e-07
2.63056e-06
7.22404e-06
1.7562e-05
2.78318e-05
2.98504e-05
2.76986e-05
2.45665e-05
2.19722e-05
2.03162e-05
1.95113e-05
1.93789e-05
1.97079e-05
2.03095e-05
2.10103e-05
2.16286e-05
2.19611e-05
2.17962e-05
2.09699e-05
1.94667e-05
1.74714e-05
1.53053e-05
1.31579e-05
1.11858e-05
9.53048e-06
8.29556e-06
7.55661e-06
7.41551e-06
8.11398e-06
1.01793e-05
1.40933e-05
1.52829e-05
6.57461e-06
2.2856e-06
2.16318e-07
1.83808e-07
2.63286e-06
7.24781e-06
1.76551e-05
2.78082e-05
2.96053e-05
2.73086e-05
2.41438e-05
2.15984e-05
2.00246e-05
1.93109e-05
1.92646e-05
1.96724e-05
2.0346e-05
2.11108e-05
2.17822e-05
2.21537e-05
2.20126e-05
2.11992e-05
1.97085e-05
1.77347e-05
1.55911e-05
1.34515e-05
1.14741e-05
9.80447e-06
8.5513e-06
7.79613e-06
7.64828e-06
8.35927e-06
1.04624e-05
1.44077e-05
1.54779e-05
6.63785e-06
2.3024e-06
2.17397e-07
1.85548e-07
2.63484e-06
7.2708e-06
1.77459e-05
2.77732e-05
2.93439e-05
2.69047e-05
2.37143e-05
2.12235e-05
1.97343e-05
1.91123e-05
1.91521e-05
1.96384e-05
2.03834e-05
2.12112e-05
2.19341e-05
2.23422e-05
2.22224e-05
2.14207e-05
1.99438e-05
1.79945e-05
1.58722e-05
1.37405e-05
1.17595e-05
1.00782e-05
8.80965e-06
8.04082e-06
7.88849e-06
8.61401e-06
1.0755e-05
1.47282e-05
1.56754e-05
6.70275e-06
2.31963e-06
2.18497e-07
1.87218e-07
2.6364e-06
7.2925e-06
1.78327e-05
2.77253e-05
2.90662e-05
2.64883e-05
2.32801e-05
2.08492e-05
1.94466e-05
1.89164e-05
1.90415e-05
1.96055e-05
2.04209e-05
2.13104e-05
2.20829e-05
2.25253e-05
2.24246e-05
2.16339e-05
2.01721e-05
1.82505e-05
1.61488e-05
1.4025e-05
1.20418e-05
1.03511e-05
9.06962e-06
8.28938e-06
8.13449e-06
8.87621e-06
1.1056e-05
1.50541e-05
1.58747e-05
6.76909e-06
2.33724e-06
2.19621e-07
1.88831e-07
2.63757e-06
7.31314e-06
1.79161e-05
2.76643e-05
2.87719e-05
2.60595e-05
2.28416e-05
2.04761e-05
1.9162e-05
1.87237e-05
1.89333e-05
1.95742e-05
2.04592e-05
2.14094e-05
2.223e-05
2.27046e-05
2.26208e-05
2.18396e-05
2.03935e-05
1.85012e-05
1.64197e-05
1.43043e-05
1.23204e-05
1.06226e-05
9.33064e-06
8.54155e-06
8.38656e-06
9.14687e-06
1.13667e-05
1.53865e-05
1.6076e-05
6.83674e-06
2.35526e-06
2.20772e-07
1.90376e-07
2.63821e-06
7.33204e-06
1.7994e-05
2.75892e-05
2.84612e-05
2.562e-05
2.24009e-05
2.0106e-05
1.88819e-05
1.8535e-05
1.88281e-05
1.95443e-05
2.04975e-05
2.15068e-05
2.23739e-05
2.28787e-05
2.28101e-05
2.20376e-05
2.06076e-05
1.87457e-05
1.66845e-05
1.45781e-05
1.25948e-05
1.08917e-05
9.59172e-06
8.79616e-06
8.64354e-06
9.42499e-06
1.16866e-05
1.57249e-05
1.62785e-05
6.90547e-06
2.37365e-06
2.21946e-07
1.91861e-07
2.63832e-06
7.34938e-06
1.80675e-05
2.75001e-05
2.81337e-05
2.51692e-05
2.1958e-05
1.97391e-05
1.8607e-05
1.83517e-05
1.87273e-05
1.95175e-05
2.05373e-05
2.16042e-05
2.25157e-05
2.30488e-05
2.29933e-05
2.22285e-05
2.08148e-05
1.89835e-05
1.69426e-05
1.48458e-05
1.28646e-05
1.11584e-05
9.85261e-06
9.05316e-06
8.90561e-06
9.71101e-06
1.20162e-05
1.60705e-05
1.64828e-05
6.97565e-06
2.39248e-06
2.23155e-07
1.9328e-07
2.63777e-06
7.36445e-06
1.81344e-05
2.73961e-05
2.77892e-05
2.47077e-05
2.15133e-05
1.93759e-05
1.8338e-05
1.81743e-05
1.86316e-05
1.94945e-05
2.05791e-05
2.17015e-05
2.26554e-05
2.32146e-05
2.31709e-05
2.24132e-05
2.10162e-05
1.92155e-05
1.71946e-05
1.5108e-05
1.31301e-05
1.14223e-05
1.01127e-05
9.3116e-06
9.17161e-06
1.00036e-05
1.23538e-05
1.64211e-05
1.66873e-05
7.04667e-06
2.41166e-06
2.24396e-07
1.94644e-07
2.63662e-06
7.37767e-06
1.81963e-05
2.72772e-05
2.74262e-05
2.42339e-05
2.10656e-05
1.90159e-05
1.80752e-05
1.80045e-05
1.85435e-05
1.94782e-05
2.06259e-05
2.18015e-05
2.27953e-05
2.33782e-05
2.33443e-05
2.25934e-05
2.12138e-05
1.94424e-05
1.74409e-05
1.53648e-05
1.33912e-05
1.16835e-05
1.03723e-05
9.57188e-06
9.4422e-06
1.03038e-05
1.27009e-05
1.67778e-05
1.68923e-05
7.11853e-06
2.43122e-06
2.25668e-07
1.95959e-07
2.63482e-06
7.38877e-06
1.82526e-05
2.71428e-05
2.70436e-05
2.37467e-05
2.06139e-05
1.86582e-05
1.78182e-05
1.78422e-05
1.84635e-05
1.94695e-05
2.06792e-05
2.1906e-05
2.29371e-05
2.35412e-05
2.35159e-05
2.2772e-05
2.14113e-05
1.96668e-05
1.76833e-05
1.56175e-05
1.3649e-05
1.19427e-05
1.06313e-05
9.83345e-06
9.71638e-06
1.06103e-05
1.30557e-05
1.71388e-05
1.70967e-05
7.19092e-06
2.45107e-06
2.26965e-07
1.97237e-07
2.63248e-06
7.39828e-06
1.83045e-05
2.69921e-05
2.66391e-05
2.3244e-05
2.01564e-05
1.83016e-05
1.75675e-05
1.76886e-05
1.83935e-05
1.94714e-05
2.07424e-05
2.20185e-05
2.3084e-05
2.37064e-05
2.36877e-05
2.29511e-05
2.16107e-05
1.98897e-05
1.79215e-05
1.58656e-05
1.39032e-05
1.22e-05
1.08905e-05
1.00975e-05
9.99554e-06
1.09245e-05
1.34196e-05
1.75052e-05
1.7301e-05
7.26388e-06
2.47127e-06
2.28291e-07
1.98495e-07
2.62968e-06
7.40645e-06
1.83528e-05
2.68246e-05
2.62111e-05
2.27243e-05
1.96912e-05
1.79441e-05
1.7323e-05
1.75431e-05
1.83329e-05
1.94843e-05
2.08174e-05
2.21419e-05
2.32393e-05
2.38768e-05
2.38627e-05
2.31333e-05
2.18143e-05
2.01128e-05
1.81572e-05
1.61101e-05
1.41542e-05
1.24553e-05
1.11494e-05
1.03634e-05
1.02794e-05
1.12456e-05
1.37916e-05
1.78755e-05
1.75041e-05
7.337e-06
2.49169e-06
2.29635e-07
1.99744e-07
2.62652e-06
7.41368e-06
1.83981e-05
2.6639e-05
2.5758e-05
2.21873e-05
1.92184e-05
1.7584e-05
1.70791e-05
1.74017e-05
1.82807e-05
1.95093e-05
2.09064e-05
2.2279e-05
2.3406e-05
2.40551e-05
2.40425e-05
2.33189e-05
2.20209e-05
2.03355e-05
1.83902e-05
1.63511e-05
1.44021e-05
1.27089e-05
1.14087e-05
1.06325e-05
1.05699e-05
1.15747e-05
1.41725e-05
1.82504e-05
1.77062e-05
7.41031e-06
2.51237e-06
2.30999e-07