/*--------------------------------*- C++ -*----------------------------------*\
| =========                 |                                                 |
| \\      /  F ield         | OpenFOAM: The Open Source CFD Toolbox           |
|  \\    /   O peration     | Version:  v2006                                 |
|   \\  /    A nd           | Website:  www.openfoam.com                      |
|    \\/     M anipulation  |                                                 |
\*---------------------------------------------------------------------------*/
FoamFile
{
    version     2.0;
    format      ascii;
    class       volScalarField;
    location    "82";
    object      omega;
}
// * * * * * * * * * * * * * * * * * * * * * * * * * * * * * * * * * * * * * //

dimensions      [0 0 -1 0 0 0 0];


internalField   nonuniform List<scalar> 
78750
(
352.377
13.593
13.6367
13.6758
13.7119
13.7446
13.7735
13.7985
13.8198
13.8376
13.8521
13.8637
13.8724
13.8784
13.882
13.8832
13.8822
13.879
13.8737
13.8665
13.8574
13.8467
13.8341
13.8197
13.8036
13.7858
13.7664
13.7453
13.7226
13.6984
13.6734
13.6505
13.6371
13.6448
356.752
517.054
4.17723
4.2904
4.3949
4.48742
4.56604
4.63118
4.68427
4.72663
4.75936
4.7834
4.79959
4.80873
4.81153
4.80866
4.80086
4.78886
4.77316
4.75415
4.73225
4.70785
4.68128
4.65261
4.62208
4.58983
4.5559
4.52031
4.48326
4.44444
4.40267
4.35629
4.30382
4.24972
4.20875
524.036
517.058
4.20524
4.34006
4.46249
4.56938
4.65855
4.72996
4.78542
4.82751
4.85864
4.8806
4.89462
4.9016
4.90223
4.89712
4.88688
4.87215
4.85361
4.83193
4.80779
4.78186
4.75473
4.72681
4.69829
4.66907
4.63881
4.607
4.57301
4.53594
4.49419
4.44535
4.3884
4.33055
4.28477
524.533
517.074
4.26504
4.43627
4.58429
4.70539
4.79941
4.86978
4.92129
4.95815
4.98331
4.99867
5.00548
5.0046
4.99672
4.98249
4.96263
4.93796
4.90942
4.87802
4.84489
4.81122
4.77825
4.74704
4.71815
4.69139
4.66593
4.64046
4.61342
4.58293
4.54653
4.50138
4.44704
4.39214
4.34562
524.949
517.091
4.31878
4.51864
4.68391
4.81108
4.90338
4.96844
5.01377
5.04465
5.064
5.07341
5.07387
5.06593
5.05008
5.02694
4.99738
4.96246
4.9235
4.88193
4.83938
4.79767
4.75881
4.7246
4.69595
4.67264
4.65351
4.63662
4.6195
4.59924
4.57242
4.53565
4.48861
4.43959
4.39357
525.329
517.111
4.37209
4.5959
4.77408
4.90461
4.99509
5.05712
5.09968
5.12783
5.14412
5.14976
5.14529
5.13101
5.10739
5.07517
5.03547
4.98974
4.93967
4.88713
4.83426
4.78354
4.73771
4.69908
4.66857
4.64598
4.63017
4.61916
4.61011
4.59946
4.58292
4.55626
4.51841
4.4757
4.43018
525.667
517.129
4.41493
4.65675
4.8445
4.97765
5.0674
5.12792
5.1688
5.19492
5.20854
5.21056
5.20126
5.18082
5.14978
5.1091
5.06024
5.00499
4.94541
4.88382
4.82283
4.76558
4.71538
4.67429
4.64277
4.62051
4.60662
4.59942
4.59626
4.59339
4.58596
4.56887
4.5399
4.50293
4.45824
525.992
517.147
4.45594
4.7145
4.91122
5.04722
5.13696
5.1967
5.23648
5.26103
5.27234
5.27105
5.25725
5.23112
5.19332
5.14507
5.08811
5.02455
4.95679
4.88752
4.81991
4.75777
4.70458
4.66154
4.62853
4.6052
4.59097
4.58475
4.58445
4.5866
4.58611
4.57701
4.55569
4.52379
4.48063
526.297
517.162
4.4898
4.76215
4.96675
5.10599
5.19672
5.25661
5.29598
5.31949
5.32894
5.32479
5.30704
5.27589
5.23215
5.17731
5.11338
5.04276
4.96819
4.89275
4.82025
4.75523
4.70086
4.65717
4.6235
4.5993
4.58419
4.57755
4.57802
4.58272
4.58669
4.58347
4.56819
4.54075
4.50011
526.583
517.177
4.52361
4.80961
5.02186
5.16414
5.25567
5.31551
5.35431
5.37663
5.38414
5.37715
5.35556
5.31964
5.27035
5.2094
5.13908
5.06208
4.98148
4.9008
4.8245
4.75783
4.70314
4.65947
4.62565
4.6009
4.58483
4.57716
4.57714
4.58258
4.58899
4.58971
4.57902
4.55554
4.51815
526.849
517.191
4.55435
4.85256
5.07182
5.21722
5.30994
5.37012
5.40863
5.43002
5.43582
5.42622
5.40109
5.36075
5.3063
5.23968
5.16342
5.0805
4.99438
4.90903
4.82962
4.76212
4.70784
4.665
4.63189
4.6074
4.59099
4.5825
4.58159
4.58672
4.59402
4.59706
4.58967
4.5696
4.53573
527.094
517.205
4.58515
4.89512
5.12087
5.26894
5.36255
5.42287
5.461
5.4814
5.48551
5.47339
5.44487
5.40033
5.34101
5.26904
5.18716
5.09867
5.00731
4.91756
4.83532
4.76719
4.71352
4.67185
4.63997
4.61639
4.60034
4.59159
4.59
4.59448
4.60181
4.60601
4.60088
4.58364
4.55311
527.32
517.22
4.6148
4.93575
5.16759
5.31827
5.41287
5.47347
5.51133
5.53088
5.53343
5.51895
5.48725
5.43876
5.37485
5.29781
5.21061
5.1168
5.02045
4.92644
4.8414
4.77261
4.71959
4.67927
4.64898
4.62683
4.61176
4.60338
4.60155
4.60547
4.61242
4.61704
4.61334
4.5983
4.57059
527.529
517.234
4.644
4.97526
5.21262
5.36554
5.46096
5.5218
5.55944
5.57823
5.57936
5.56272
5.52809
5.47596
5.4078
5.32604
5.23384
5.13495
5.03376
4.93558
4.84768
4.77799
4.72544
4.68646
4.65794
4.63758
4.624
4.61658
4.61508
4.61878
4.62533
4.62996
4.62711
4.61367
4.58812
527.724
517.249
4.67269
5.01378
5.25639
5.4115
5.5078
5.56895
5.60646
5.62458
5.62442
5.60578
5.56845
5.51296
5.44087
5.35473
5.25783
5.15411
5.04822
4.94581
4.85478
4.78379
4.73139
4.69359
4.66684
4.64845
4.63672
4.63076
4.63012
4.63404
4.64038
4.64485
4.64239
4.62998
4.60583
527.907
517.264
4.70066
5.05092
5.29832
5.45538
5.55251
5.61403
5.6515
5.6691
5.66783
5.64744
5.60771
5.5492
5.47358
5.38344
5.2822
5.17392
5.06345
4.95683
4.86243
4.78975
4.73718
4.70035
4.6753
4.65899
4.64936
4.64524
4.64593
4.65055
4.65698
4.66132
4.65899
4.64714
4.62367
528.08
517.279
4.72833
5.08741
5.33941
5.4984
5.5964
5.65835
5.69586
5.71303
5.71077
5.6888
5.64689
5.58568
5.50687
5.4131
5.30785
5.19525
5.08032
4.9694
4.87126
4.79628
4.74306
4.70689
4.68343
4.66923
4.66188
4.65991
4.66235
4.66806
4.6749
4.67917
4.67679
4.66506
4.64163
528.244
517.294
4.75528
5.12264
5.37892
5.53971
5.6386
5.70106
5.73871
5.75557
5.75249
5.72914
5.68535
5.62177
5.54016
5.44319
5.33432
5.21772
5.09854
4.98332
4.88118
4.80335
4.74895
4.71306
4.69097
4.67885
4.67392
4.67436
4.67892
4.68616
4.69378
4.69819
4.69568
4.68376
4.65975
528.401
517.31
4.78192
5.15729
5.41773
5.58034
5.68018
5.74321
5.78105
5.79765
5.79382
5.76923
5.72375
5.65809
5.57402
5.47423
5.3621
5.24183
5.11858
4.99903
4.89259
4.81126
4.75506
4.71898
4.698
4.68789
4.68547
4.68857
4.69554
4.70463
4.71331
4.71801
4.71531
4.70292
4.67787
528.553
517.325
4.80792
5.19087
5.4553
5.61974
5.7206
5.78428
5.82237
5.83877
5.83428
5.8086
5.76166
5.69423
5.60809
5.50589
5.39096
5.26742
5.1404
5.01661
4.90565
4.82019
4.76154
4.7247
4.70445
4.69619
4.69632
4.70226
4.71195
4.72327
4.73336
4.73858
4.73573
4.72267
4.69611
528.698
517.34
4.83351
5.22379
5.49216
5.65855
5.7606
5.82499
5.86328
5.87941
5.87425
5.84755
5.79931
5.73036
5.64247
5.53823
5.42089
5.29445
5.16395
5.03602
4.92038
4.83023
4.7685
4.73035
4.71042
4.70381
4.70649
4.71541
4.72806
4.74187
4.75363
4.75953
4.75653
4.74265
4.71426
528.839
517.356
4.85848
5.25572
5.528
5.69654
5.80012
5.86531
5.90364
5.91938
5.91353
5.88592
5.8366
5.76642
5.67716
5.57131
5.45201
5.3231
5.18947
5.05759
4.93716
4.84174
4.77623
4.7361
4.71598
4.7107
4.71584
4.72784
4.74368
4.76029
4.77403
4.78083
4.77777
4.76297
4.73242
528.976
517.371
4.88288
5.28674
5.56285
5.73382
5.83913
5.90517
5.9435
5.9586
5.95202
5.92359
5.87337
5.80223
5.71191
5.60481
5.48394
5.35298
5.21657
5.08097
4.95576
4.85465
4.78479
4.74207
4.72125
4.71699
4.72446
4.73959
4.75879
4.77843
4.79436
4.80224
4.79918
4.78339
4.75045
529.11
517.386
4.90668
5.31678
5.59652
5.76997
5.8766
5.94352
5.98225
5.99694
5.9898
5.96073
5.90984
5.83803
5.74699
5.63905
5.51707
5.38451
5.24574
5.10671
4.97675
4.86956
4.79468
4.74862
4.72644
4.72271
4.73227
4.75051
4.77321
4.79611
4.8145
4.82363
4.82061
4.80383
4.76835
529.239
517.402
4.92985
5.34583
5.629
5.8047
5.91267
5.98056
6.01987
6.0346
6.02672
5.99701
5.9456
5.87334
5.78187
5.67344
5.55075
5.41703
5.27635
5.13429
4.9998
4.88642
4.80602
4.756
4.7318
4.72811
4.73947
4.76074
4.78702
4.81334
4.83435
4.84495
4.84236
4.82432
4.78611
529.366
517.417
4.95251
5.37411
5.66075
5.83829
5.94741
6.01623
6.05614
6.07104
6.06268
6.03264
5.98098
5.90856
5.817
5.70845
5.58547
5.45106
5.30895
5.1643
5.02557
4.90595
4.81949
4.76473
4.73772
4.73338
4.7461
4.7702
4.80007
4.82997
4.85387
4.8662
4.86428
4.84487
4.80365
529.491
517.432
4.97432
5.40113
5.69118
5.87027
5.98054
6.05037
6.09104
6.1063
6.0977
6.06738
6.01554
5.94311
5.85168
5.74332
5.62043
5.48578
5.34277
5.19607
5.05364
4.92813
4.83531
4.77523
4.74466
4.73896
4.7525
4.77914
4.81252
4.84604
4.87293
4.88724
4.8862
4.86567
4.82109
529.612
517.448
4.99562
5.42725
5.72044
5.90102
6.01242
6.08327
6.12477
6.14057
6.13216
6.10148
6.0496
5.97739
5.88639
5.77855
5.65614
5.52169
5.37827
5.2301
5.08453
4.95359
4.85412
4.7881
4.75314
4.74524
4.75891
4.78763
4.82433
4.86153
4.89166
4.90846
4.90823
4.88662
4.83848
529.732
517.463
5.01614
5.45216
5.74824
5.93017
6.04266
6.11453
6.15687
6.17323
6.16504
6.13422
6.08251
6.01074
5.9204
5.81336
5.69175
5.55791
5.4146
5.26557
5.11755
4.9819
4.87585
4.80359
4.76362
4.75273
4.76579
4.79607
4.8358
4.8766
4.91013
4.92967
4.93031
4.90759
4.85575
529.85
517.478
5.03626
5.47636
5.77509
5.95826
6.0718
6.14469
6.18793
6.20494
6.1971
6.16626
6.11487
6.04372
5.95424
5.84824
5.72773
5.59486
5.4521
5.30275
5.15291
5.0132
4.90074
4.82205
4.77652
4.76186
4.7735
4.80469
4.84705
4.89133
4.92833
4.95077
4.95235
4.92855
4.87289
529.966
517.493
5.05564
5.49939
5.80049
5.98475
6.09926
6.17315
6.21728
6.23498
6.22758
6.19688
6.14595
6.07556
5.98712
5.88238
5.76323
5.63167
5.4899
5.34078
5.18982
5.04682
4.92846
4.84348
4.79214
4.7731
4.78256
4.81394
4.85843
4.90592
4.94633
4.9717
4.97426
4.94938
4.88983
530.081
517.508
5.07478
5.52192
5.82511
6.01029
6.1257
6.20057
6.2456
6.26404
6.25716
6.22672
6.17635
6.10683
6.01955
5.91623
5.79866
5.66868
5.52824
5.37982
5.22832
5.08274
4.95904
4.86803
4.81072
4.78679
4.79333
4.82417
4.87021
4.92056
4.9642
4.99248
4.99602
4.97005
4.90656
530.196
517.524
5.09326
5.54344
5.84832
6.03423
6.15045
6.22624
6.27216
6.29137
6.28512
6.25514
6.20535
6.13677
6.05079
5.94904
5.83325
5.7051
5.56633
5.41906
5.26764
5.12024
4.99199
4.89548
4.83235
4.80324
4.80626
4.83582
4.88274
4.93547
4.98214
5.01311
5.01758
4.9905
4.923
530.31
517.539
5.11153
5.5648
5.87084
6.05728
6.17421
6.25088
6.29766
6.31764
6.31205
6.28267
6.23346
6.1659
6.08131
5.98126
5.86738
5.74124
5.60438
5.4586
5.30774
5.1592
5.02717
4.92574
4.85707
4.82265
4.82164
4.84922
4.89634
4.95098
5.00054
5.03375
5.03896
5.01069
4.93913
530.423
517.554
5.12878
5.58481
5.89179
6.07866
6.19626
6.27377
6.32139
6.34212
6.33721
6.3085
6.26002
6.19359
6.11051
6.01229
5.90047
5.7765
5.64176
5.49779
5.34795
5.19893
5.06399
4.95839
4.88466
4.84503
4.8397
4.86473
4.91141
4.96742
5.01947
5.05451
5.0602
5.0306
4.95488
530.537
517.569
5.14585
5.60437
5.91201
6.09917
6.21736
6.29568
6.34412
6.36559
6.36133
6.33327
6.28553
6.22033
6.13886
6.04255
5.93288
5.8112
5.67875
5.53679
5.38833
5.23937
5.10229
4.99322
4.91495
4.87031
4.86047
4.88247
4.92811
4.98491
5.03898
5.07543
5.08133
5.05023
4.97026
530.65
517.583
5.16198
5.62253
5.93065
6.11802
6.23678
6.31587
6.36511
6.38733
6.38377
6.35643
6.30953
6.24559
6.1658
6.07152
5.9641
5.84483
5.71481
5.57511
5.42837
5.28001
5.14158
5.0298
4.94763
4.89833
4.88396
4.90258
4.94662
5.00362
5.05917
5.09659
5.10237
5.06957
4.98522
530.764
517.598
5.17772
5.6401
5.94852
6.136
6.25524
6.33505
6.38505
6.40797
6.40509
6.37848
6.33248
6.26986
6.19177
6.09953
5.99444
5.87765
5.75015
5.61285
5.46809
5.32078
5.18169
5.0679
4.98245
4.92891
4.91009
4.92506
4.967
5.02362
5.08007
5.11797
5.12332
5.08861
4.99976
530.877
517.613
5.19257
5.65637
5.9649
6.15241
6.27209
6.3526
6.40334
6.42696
6.42477
6.39893
6.35391
6.29269
6.21637
6.12621
6.02348
5.90926
5.7844
5.64965
5.50711
5.36126
5.2222
5.1071
5.01905
4.96177
4.93872
4.9499
4.98932
5.04499
5.10176
5.13964
5.14419
5.10734
5.01388
530.99
517.627
5.20694
5.67196
5.98046
6.16792
6.28799
6.36913
6.42056
6.44484
6.44331
6.41825
6.37424
6.31445
6.23993
6.15188
6.0515
5.93984
5.81767
5.68557
5.54543
5.40136
5.26288
5.14712
5.0571
4.9966
4.96959
4.97694
5.01351
5.06771
5.12423
5.16159
5.165
5.12579
5.02759
531.103
517.641
5.2204
5.68632
5.99463
6.18198
6.30239
6.38414
6.43623
6.46117
6.4603
6.43605
6.39313
6.33483
6.26216
6.17626
6.07828
5.9692
5.84973
5.72037
5.58277
5.44076
5.30339
5.18756
5.09618
5.033
5.00238
5.00595
5.0394
5.09167
5.14739
5.18377
5.18572
5.14393
5.0409
531.214
517.655
5.23334
5.69997
6.00799
6.19515
6.31585
6.39815
6.45086
6.4764
6.47617
6.45271
6.41091
6.35412
6.2833
6.19956
6.10398
5.99748
5.88072
5.75411
5.61916
5.47943
5.34357
5.22821
5.13601
5.07065
5.03677
5.03666
5.06683
5.11679
5.17122
5.20619
5.20636
5.16179
5.05385
531.325
517.668
5.24542
5.71248
6.02007
6.20699
6.32793
6.41076
6.46406
6.49019
6.4906
6.46797
6.42735
6.37212
6.3032
6.22164
6.12847
6.02456
5.91051
5.78666
5.65446
5.51719
5.38321
5.26882
5.17631
5.10925
5.07246
5.0688
5.09557
5.14287
5.19558
5.22874
5.22687
5.17935
5.06644
531.434
517.682
5.25699
5.72431
6.03137
6.21798
6.33912
6.42241
6.47625
6.50293
6.50394
6.48213
6.44271
6.38905
6.32202
6.24264
6.15187
6.05054
5.93919
5.8181
5.68864
5.55402
5.42223
5.30923
5.21688
5.14857
5.10923
5.10219
5.12548
5.16985
5.22045
5.25144
5.24727
5.19663
5.0787
531.542
517.694
5.26775
5.73509
6.0415
6.22777
6.34905
6.43278
6.48713
6.51433
6.51595
6.49497
6.45681
6.40477
6.33967
6.26247
6.17411
6.07534
5.96669
5.84839
5.72173
5.58983
5.46055
5.34932
5.25754
5.18837
5.1468
5.13656
5.15634
5.19755
5.24568
5.27419
5.2675
5.21362
5.09063
531.648
517.707
5.27801
5.74523
6.0509
6.23674
6.35813
6.44224
6.49704
6.52472
6.5269
6.50675
6.46987
6.41945
6.35627
6.28126
6.19528
6.09907
5.9931
5.87757
5.75376
5.6247
5.49818
5.38905
5.29817
5.22853
5.18506
5.1718
5.18806
5.22588
5.27124
5.29698
5.28758
5.23033
5.10226
531.753
517.719
5.28754
5.75443
6.05926
6.24463
6.36608
6.45053
6.50576
6.53388
6.53662
6.51731
6.48176
6.43299
6.37176
6.29893
6.21534
6.12168
6.01838
5.90563
5.78469
5.65858
5.53506
5.42828
5.3386
5.26879
5.22372
5.20764
5.2204
5.25474
5.29703
5.31976
5.30748
5.24677
5.11361
531.856
517.731
5.29658
5.763
6.0669
6.25175
6.37321
6.45796
6.51356
6.54209
6.54534
6.52686
6.49265
6.44554
6.38625
6.3156
6.23438
6.14323
6.04259
5.93262
5.8146
5.69157
5.57129
5.46708
5.37884
5.30912
5.26269
5.24398
5.25334
5.28421
5.32305
5.34251
5.3272
5.26295
5.12471
531.957
517.742
5.30497
5.77073
6.07361
6.25789
6.37933
6.46433
6.52028
6.54918
6.55295
6.53531
6.50247
6.45705
6.3997
6.33122
6.25236
6.16373
6.06572
5.95854
5.84346
5.72361
5.60683
5.50537
5.41878
5.34938
5.30183
5.28068
5.28672
5.31409
5.34926
5.36523
5.34675
5.27889
5.13558
532.057
517.753
5.31287
5.77784
6.07962
6.26328
6.38465
6.46987
6.52612
6.55536
6.55961
6.54281
6.51137
6.46763
6.41222
6.34589
6.26936
6.18321
6.08783
5.98342
5.87133
5.75477
5.6417
5.54318
5.45844
5.38957
5.3411
5.31766
5.32045
5.34427
5.37558
5.38788
5.36613
5.29459
5.14622
532.155
517.764
5.32016
5.78417
6.08476
6.26776
6.38903
6.47445
6.53098
6.56054
6.56527
6.54932
6.51932
6.47727
6.42379
6.35961
6.2854
6.20171
6.10893
6.00729
5.8982
5.785
5.67582
5.5804
5.49768
5.42955
5.38039
5.35484
5.35447
5.37468
5.40199
5.41049
5.38535
5.31009
5.15668
532.251
517.774
5.32696
5.78989
6.08922
6.27151
6.39265
6.47823
6.53501
6.56487
6.57007
6.55497
6.52642
6.48607
6.43451
6.37244
6.30052
6.21928
6.12908
6.03021
5.92414
5.81439
5.70927
5.61708
5.53653
5.46932
5.41963
5.39214
5.38868
5.40526
5.42845
5.43303
5.40443
5.32541
5.16698
532.345
517.784
5.33319
5.79489
6.09288
6.27443
6.39542
6.48114
6.53815
6.5683
6.57398
6.55976
6.5327
6.49404
6.44438
6.3844
6.31474
6.2359
6.14827
6.05215
5.94913
5.84288
5.74197
5.65312
5.57489
5.50876
5.45873
5.42947
5.42303
5.43598
5.45497
5.45553
5.4234
5.34058
5.17714
532.438
517.793
5.33894
5.79928
6.09587
6.27664
6.39744
6.48328
6.54051
6.57094
6.57711
6.56381
6.53824
6.50126
6.45347
6.39556
6.32812
6.25167
6.16658
6.07321
5.97325
5.87059
5.774
5.68861
5.61281
5.54789
5.49768
5.46676
5.45743
5.46676
5.48149
5.47799
5.44228
5.35564
5.18721
532.529
517.802
5.34417
5.80302
6.09813
6.27809
6.39867
6.48461
6.54205
6.57278
6.57948
6.56715
6.54309
6.50776
6.46181
6.40591
6.34066
6.26655
6.18397
6.09333
5.99645
5.89742
5.80526
5.72343
5.65019
5.58666
5.53643
5.50399
5.49186
5.49759
5.50802
5.50041
5.46109
5.37061
5.19721
532.618
517.811
5.34895
5.8062
6.09975
6.27885
6.39919
6.4852
6.54283
6.57386
6.58116
6.56996
6.54733
6.5136
6.46945
6.41554
6.35245
6.28065
6.20056
6.11264
6.01885
5.92352
5.83587
5.75766
5.68708
5.62505
5.57496
5.54117
5.52633
5.52848
5.5346
5.52283
5.47988
5.38555
5.20719
532.706
517.82
5.35326
5.80878
6.1007
6.2789
6.39897
6.48502
6.54281
6.57413
6.58205
6.57207
6.55084
6.51873
6.47638
6.42444
6.36347
6.29396
6.21633
6.13111
6.04043
5.94887
5.86574
5.79121
5.72336
5.66299
5.61322
5.57825
5.56079
5.55942
5.56121
5.54528
5.49866
5.40048
5.21718
532.792
517.828
5.35718
5.81082
6.10103
6.27827
6.39804
6.48412
6.54205
6.57365
6.5822
6.57349
6.55371
6.52324
6.4827
6.43273
6.37389
6.30663
6.23144
6.14893
6.06139
5.97368
5.89503
5.82415
5.75908
5.70045
5.65116
5.61519
5.59532
5.59051
5.58799
5.56787
5.51758
5.41551
5.22728
532.877
517.836
5.36067
5.81231
6.10072
6.27697
6.3964
6.48247
6.54053
6.57239
6.5816
6.5742
6.5559
6.52708
6.48836
6.44036
6.38363
6.31863
6.24588
6.1661
6.08177
5.99808
5.92379
5.85647
5.79417
5.73736
5.68868
5.65189
5.62974
5.62155
5.6148
5.59055
5.53658
5.43063
5.23749
532.96
517.844
5.36381
5.8133
6.09981
6.275
6.39408
6.48012
6.53828
6.57041
6.58029
6.57424
6.55746
6.53032
6.49345
6.44743
6.39281
6.33009
6.2598
6.1828
6.10179
6.0223
5.95217
5.88828
5.82867
5.77368
5.72573
5.68831
5.66409
5.65271
5.64177
5.61342
5.55577
5.44593
5.24785
533.042
517.851
5.36653
5.81372
6.09825
6.27236
6.39105
6.47706
6.5353
6.5677
6.57827
6.57362
6.55838
6.53294
6.49791
6.45388
6.40139
6.34093
6.27314
6.19898
6.1214
6.0463
5.98018
5.91958
5.86257
5.8094
5.76223
5.72431
5.69818
5.68377
5.66878
5.6364
5.57513
5.46139
5.25838
533.122
517.858
5.36888
5.81361
6.09607
6.26907
6.38737
6.47333
6.53166
6.56432
6.57561
6.5724
6.55873
6.535
6.50183
6.45979
6.40942
6.35125
6.28596
6.21467
6.14059
6.06998
6.00778
5.95037
5.8959
5.84451
5.79819
5.75991
5.73206
5.7148
5.69592
5.65958
5.59472
5.4771
5.26909
533.201
517.865
5.37078
5.81291
6.09324
6.2651
6.38301
6.46893
6.52736
6.56032
6.57236
6.57062
6.55853
6.53651
6.50518
6.46513
6.41688
6.361
6.29823
6.22985
6.15932
6.09325
6.03489
5.98062
5.92861
5.87899
5.83355
5.79499
5.7656
5.74569
5.7231
5.68293
5.61451
5.49301
5.27999
533.279
517.872
5.37227
5.81163
6.08977
6.26049
6.37801
6.46392
6.52247
6.55577
6.56862
6.5684
6.5579
6.53758
6.50808
6.46999
6.42386
6.37026
6.31001
6.24455
6.17762
6.11609
6.06151
6.0103
5.96073
5.91286
5.86833
5.82962
5.79885
5.77649
5.75037
5.70652
5.63461
5.50923
5.29113
533.356
517.878
5.37328
5.80973
6.08562
6.2552
6.37236
6.45827
6.517
6.55069
6.56441
6.56578
6.55689
6.53826
6.51056
6.47442
6.43038
6.37905
6.32135
6.25884
6.19557
6.13855
6.08767
6.03947
5.99227
5.94611
5.90249
5.86369
5.83168
5.80707
5.77762
5.73022
5.65491
5.52566
5.30245
533.432
517.884
5.37388
5.80728
6.08085
6.24926
6.36606
6.45202
6.51097
6.54515
6.55985
6.56288
6.55562
6.53867
6.51275
6.47852
6.43654
6.38748
6.33232
6.27282
6.21328
6.16069
6.11344
6.06817
6.02329
5.97882
5.93613
5.89732
5.86421
5.83754
5.80492
5.75413
5.67549
5.54239
5.31402
533.508
517.89
5.37408
5.80426
6.07545
6.24266
6.35909
6.44512
6.50436
6.53914
6.55495
6.55972
6.55413
6.53887
6.51471
6.48237
6.44244
6.39564
6.34307
6.28664
6.23097
6.18265
6.1389
6.09648
6.05384
6.011
5.96922
5.93042
5.89631
5.86774
5.83215
5.77811
5.69625
5.55934
5.32578
533.584
517.896
5.37393
5.80076
6.06946
6.2354
6.35145
6.43755
6.49714
6.53268
6.54981
6.55639
6.5525
6.53893
6.51653
6.48605
6.44816
6.40363
6.35367
6.30043
6.24879
6.20456
6.16415
6.12446
6.08401
6.04278
6.00191
5.96318
5.92816
5.89784
5.85942
5.80228
5.71727
5.57657
5.33776
533.659
517.902
5.37352
5.79683
6.0629
6.22751
6.34311
6.42925
6.48923
6.5257
6.54456
6.55286
6.55069
6.53886
6.51826
6.48966
6.4538
6.41155
6.36425
6.31427
6.26683
6.22647
6.18924
6.15215
6.1138
6.07411
6.03414
5.99549
5.95972
5.92771
5.88664
5.82652
5.73845
5.59399
5.34991
533.734
517.908
5.37287
5.79249
6.0558
6.21895
6.33404
6.42017
6.48052
6.51794
6.53864
6.54884
6.54857
6.53862
6.5199
6.49324
6.45942
6.41946
6.37484
6.3282
6.28503
6.2484
6.21421
6.17963
6.14328
6.1051
6.06602
6.02755
5.99127
5.95754
5.91389
5.85092
5.75986
5.61166
5.36227
533.809
517.913
5.37206
5.7878
6.04817
6.20975
6.32423
6.41029
6.471
6.50947
6.53217
6.54443
6.5462
6.53826
6.5215
6.49682
6.46509
6.42742
6.3855
6.34222
6.30333
6.2703
6.23904
6.20687
6.17247
6.13574
6.09757
6.05936
6.0227
5.9873
5.94113
5.87541
5.78142
5.62949
5.37475
533.884
517.919
5.3711
5.78277
6.04002
6.19988
6.31364
6.39954
6.46055
6.5001
6.52494
6.53942
6.54341
6.53763
6.52299
6.50039
6.47081
6.43548
6.3963
6.35644
6.32178
6.29222
6.26379
6.23394
6.20141
6.16612
6.12884
6.09094
6.05401
6.01702
5.96844
5.90003
5.80317
5.64754
5.38741
533.96
517.925
5.37001
5.7774
6.03134
6.18936
6.30229
6.38792
6.44919
6.48986
6.51696
6.53379
6.54016
6.5367
6.52431
6.50391
6.47658
6.44368
6.40731
6.37092
6.34038
6.31416
6.28845
6.26083
6.23013
6.19623
6.15986
6.12231
6.08516
6.04665
5.99573
5.92472
5.82503
5.66569
5.40014
534.036
517.931
5.3688
5.77172
6.02216
6.17818
6.29015
6.3754
6.43684
6.47865
6.50812
6.52744
6.53632
6.53535
6.52537
6.50734
6.48239
6.45205
6.41861
6.38584
6.35927
6.33622
6.31308
6.28758
6.25863
6.22609
6.19063
6.15346
6.11618
6.07623
6.02306
5.94953
5.84705
5.68401
5.413
534.112
517.937
5.36748
5.76571
6.01247
6.16634
6.27722
6.36196
6.42352
6.46648
6.4984
6.52031
6.53185
6.5335
6.52608
6.51057
6.48818
6.46057
6.43026
6.4013
6.37851
6.35845
6.33774
6.31425
6.28696
6.25573
6.22116
6.18438
6.14701
6.1057
6.05036
5.97437
5.86913
5.70238
5.4259
534.189
517.943
5.36612
5.75937
6.00225
6.15383
6.2635
6.34761
6.40921
6.45332
6.48774
6.51233
6.52662
6.53104
6.52633
6.51351
6.49385
6.46915
6.44218
6.41727
6.39808
6.38084
6.3624
6.34081
6.3151
6.28513
6.25144
6.2151
6.1777
6.13513
6.07771
5.99934
5.89137
5.72092
5.43891
534.266
517.949
5.36456
5.75263
5.99148
6.14066
6.24899
6.33235
6.39393
6.4392
6.47616
6.50346
6.52058
6.52786
6.52601
6.51603
6.49927
6.47769
6.45427
6.43357
6.41789
6.40338
6.38711
6.36731
6.3431
6.31433
6.2815
6.24559
6.2082
6.16443
6.10502
6.02432
5.91366
5.73949
5.45195
534.343
517.955
5.36276
5.74547
5.98015
6.12682
6.23369
6.31619
6.37771
6.42422
6.46363
6.49361
6.51361
6.52386
6.52499
6.51799
6.50429
6.486
6.46633
6.44995
6.43771
6.42584
6.41168
6.39361
6.37083
6.34324
6.31126
6.27583
6.23854
6.19365
6.13234
6.0494
5.93608
5.75819
5.46509
534.421
517.96
5.36065
5.73782
5.96822
6.11229
6.2176
6.29913
6.36064
6.40869
6.45021
6.48277
6.50567
6.51896
6.52319
6.51933
6.50887
6.49406
6.47834
6.46636
6.45752
6.44826
6.43616
6.41976
6.39837
6.37191
6.34076
6.30582
6.26867
6.22273
6.15958
6.07445
5.9585
5.7769
5.47823
534.499
517.966
5.35816
5.72964
5.95568
6.09707
6.20069
6.28112
6.34249
6.39205
6.43568
6.47084
6.49668
6.5131
6.52053
6.51994
6.51288
6.50174
6.49018
6.48256
6.47707
6.47038
6.46031
6.44556
6.42554
6.40018
6.36988
6.33546
6.29852
6.25165
6.18679
6.09956
5.98101
5.79571
5.49144
534.578
517.971
5.35532
5.72097
5.94254
6.08115
6.18299
6.26224
6.32348
6.37459
6.42031
6.45806
6.48683
6.50641
6.51712
6.51992
6.51643
6.50919
6.50205
6.49872
6.4965
6.49233
6.48424
6.47111
6.45242
6.42816
6.3987
6.36484
6.32814
6.28034
6.21383
6.12456
6.00347
5.81447
5.50463
534.655
517.977
5.3522
5.71185
5.92879
6.06447
6.1644
6.24237
6.30349
6.35626
6.40414
6.44449
6.4762
6.49891
6.51292
6.51919
6.5194
6.51626
6.51378
6.51461
6.51557
6.51388
6.50777
6.49624
6.47888
6.45569
6.42703
6.39368
6.35736
6.30881
6.24077
6.14955
6.02596
5.83329
5.51787
534.734
517.982
5.34895
5.7024
5.91446
6.047
6.1448
6.22137
6.28244
6.33705
6.38727
6.43033
6.46501
6.49088
6.50821
6.51798
6.52201
6.52313
6.52548
6.53033
6.53439
6.5351
6.53091
6.52096
6.5049
6.48278
6.455
6.42246
6.38625
6.33692
6.26742
6.17434
6.04831
5.85199
5.53102
534.812
517.987
5.34574
5.69269
5.89955
6.02865
6.12404
6.19901
6.26005
6.31674
6.36954
6.41551
6.45326
6.48231
6.50296
6.51627
6.52416
6.52966
6.5369
6.54568
6.55276
6.55587
6.55362
6.54527
6.53055
6.50956
6.48278
6.45119
6.415
6.36484
6.29391
6.19903
6.07059
5.87065
5.54415
534.892
517.993
5.34263
5.68275
5.88405
6.00935
6.10195
6.17503
6.23601
6.29498
6.35069
6.39988
6.44096
6.47335
6.49741
6.5143
6.52612
6.53608
6.54813
6.56069
6.57071
6.57616
6.57582
6.56906
6.55569
6.53587
6.51012
6.47953
6.44335
6.39237
6.32007
6.22343
6.09264
5.88911
5.55711
534.969
517.999
5.33954
5.67247
5.86791
5.98908
6.07848
6.14928
6.21001
6.27134
6.3302
6.38296
6.42767
6.46365
6.49129
6.51191
6.5278
6.54236
6.55908
6.57529
6.58817
6.59594
6.59752
6.59239
6.58042
6.56181
6.53716
6.50761
6.47144
6.41963
6.34599
6.24764
6.11452
5.90742
5.56993
535.048
518.005
5.33627
5.66169
5.85106
5.96784
6.05366
6.12176
6.18197
6.24554
6.30767
6.36431
6.41304
6.45295
6.48446
6.50904
6.5292
6.54855
6.56973
6.58939
6.60503
6.61506
6.61854
6.61504
6.60449
6.58714
6.56361
6.53514
6.49901
6.44642
6.37148
6.27148
6.13608
5.92545
5.5825
535.125
518.011
5.33247
5.6502
5.83344
5.9457
6.02762
6.09266
6.15201
6.21733
6.28263
6.34332
6.39638
6.4406
6.47634
6.50522
6.52998
6.55437
6.57987
6.6029
6.62124
6.63351
6.63891
6.63708
6.62799
6.61195
6.5896
6.56223
6.52617
6.47283
6.39663
6.29502
6.15737
5.94323
5.59486
535.204
518.017
5.32794
5.63792
5.81508
5.92275
6.00058
6.06236
6.12087
6.18708
6.25513
6.31979
6.37734
6.42614
6.46644
6.49996
6.52963
6.55929
6.58905
6.6154
6.63643
6.65097
6.65833
6.65822
6.65066
6.63598
6.61487
6.58865
6.55269
6.49865
6.42128
6.31812
6.17828
5.96068
5.60694
535.28
518.022
5.3226
5.62482
5.79597
5.89899
5.97255
6.03077
6.088
6.15476
6.22525
6.29372
6.35579
6.40934
6.45447
6.49294
6.52785
6.56294
6.59699
6.62672
6.65053
6.66742
6.67682
6.67851
6.67255
6.6593
6.63948
6.61448
6.57866
6.52398
6.44549
6.34084
6.19885
5.97783
5.61877
535.358
518.026
5.3167
5.6111
5.77619
5.87447
5.94365
5.99831
6.05424
6.12125
6.19377
6.26568
6.33205
6.39032
6.44036
6.48398
6.52438
6.56493
6.60327
6.63644
6.66311
6.68246
6.69402
6.69762
6.69338
6.68166
6.66322
6.63947
6.60385
6.54861
6.46909
6.36304
6.21898
5.99462
5.63034
535.433
518.03
5.31064
5.59703
5.75574
5.84895
5.91348
5.96461
6.01945
6.08685
6.16128
6.23637
6.30678
6.36961
6.42456
6.47344
6.51954
6.56543
6.608
6.64465
6.67428
6.6962
6.71004
6.71569
6.71327
6.70318
6.68618
6.66377
6.62841
6.57266
6.49218
6.38478
6.23871
6.01105
5.64163
535.509
518.035
5.30483
5.58285
5.73471
5.8223
5.88171
5.92922
5.98334
6.05153
6.12805
6.20623
6.28045
6.34761
6.40734
6.46145
6.51333
6.56429
6.61096
6.65106
6.68369
6.70828
6.72452
6.73232
6.73183
6.72346
6.70805
6.68703
6.65203
6.5959
6.51457
6.40593
6.25792
6.02706
5.65261
535.583
518.04
5.29961
5.56878
5.71315
5.79439
5.84794
5.89154
5.94529
6.01493
6.0941
6.1756
6.25359
6.32491
6.38924
6.44851
6.50608
6.56181
6.61242
6.65592
6.69157
6.71891
6.73766
6.74776
6.74937
6.74296
6.72948
6.70961
6.67492
6.61844
6.53633
6.42651
6.27663
6.04263
5.66323
535.658
518.047
5.29496
5.55481
5.69113
5.76522
5.81195
5.85101
5.9044
5.97607
6.05861
6.14392
6.22587
6.30136
6.3702
6.43451
6.49756
6.55778
6.61215
6.65897
6.69766
6.7278
6.74916
6.76169
6.76557
6.7613
6.74991
6.73122
6.69685
6.64009
6.55729
6.4464
6.29473
6.05769
5.67342
535.73
518.054
5.2908
5.54109
5.66893
5.73514
5.774
5.80766
5.86033
5.93442
6.02097
6.11069
6.19699
6.27682
6.35024
6.41959
6.48785
6.55231
6.61031
6.66039
6.70213
6.73515
6.75922
6.77431
6.7806
6.77861
6.76942
6.75196
6.71797
6.66098
6.57758
6.46567
6.3123
6.07227
5.6832
535.803
518.061
5.28696
5.5276
5.64666
5.70434
5.73436
5.76163
5.81298
5.88934
5.98023
6.0749
6.16607
6.25063
6.32887
6.40339
6.47659
6.54506
6.60655
6.65985
6.70463
6.74058
6.76746
6.78523
6.79407
6.7945
6.78763
6.77149
6.73795
6.68083
6.59691
6.4841
6.32911
6.08619
5.69241
535.872
518.069
5.28352
5.5146
5.62465
5.67318
5.69342
5.71335
5.76262
5.8409
5.93617
6.03611
6.13257
6.22227
6.30567
6.38563
6.46357
6.53595
6.6009
6.65742
6.70529
6.74424
6.77404
6.79462
6.80613
6.8091
6.80465
6.78992
6.75695
6.69981
6.6155
6.50188
6.34537
6.09963
5.70117
535.944
518.077
5.28083
5.50242
5.60314
5.64181
5.6513
5.66319
5.70964
5.78942
5.8889
5.99418
6.09615
6.19125
6.28006
6.36563
6.44822
6.52446
6.59287
6.65267
6.70371
6.74575
6.77857
6.80207
6.81638
6.822
6.82004
6.8068
6.77449
6.71746
6.63287
6.51856
6.36063
6.1122
5.7092
536.011
518.085
5.27932
5.49141
5.58239
5.61035
5.60792
5.61084
5.65415
5.73528
5.83891
5.94949
6.05701
6.15763
6.25199
6.34328
6.43048
6.51062
6.58258
6.64574
6.70005
6.7453
6.78125
6.8078
6.82504
6.83344
6.8341
6.82247
6.79099
6.73421
6.64948
6.53462
6.37539
6.12435
5.71682
536.081
518.095
5.27926
5.48174
5.56256
5.57891
5.56327
5.55628
5.59604
5.67848
5.78631
5.90219
6.01523
6.12134
6.22127
6.3182
6.40996
6.49405
6.56963
6.63625
6.69394
6.74251
6.78171
6.81141
6.83168
6.84295
6.84626
6.83632
6.80574
6.74932
6.66457
6.54926
6.38884
6.13531
5.72344
536.146
518.107
5.28069
5.47354
5.5439
5.5478
5.5175
5.49933
5.53472
5.6186
5.73096
5.85235
5.97099
6.08262
6.18812
6.29055
6.38683
6.4749
6.5542
6.62441
6.68561
6.73761
6.78019
6.81318
6.83662
6.8509
6.85703
6.84893
6.81942
6.76354
6.67895
6.56334
6.40186
6.14593
5.72969
536.214
518.119
5.28322
5.46664
5.52661
5.51754
5.47125
5.44015
5.4697
5.55464
5.67179
5.79914
5.92368
6.04099
6.15213
6.2599
6.36066
6.45277
6.53589
6.6098
6.67463
6.7302
6.77627
6.81264
6.83933
6.85666
6.86559
6.85937
6.831
6.77574
6.69139
6.5756
6.41317
6.15498
5.73462
536.277
518.132
5.2864
5.46095
5.511
5.48892
5.42557
5.37939
5.40104
5.48602
5.60799
5.74169
5.87258
5.99591
6.11292
6.226
6.33133
6.42763
6.51475
6.59255
6.66119
6.72051
6.77024
6.81016
6.84024
6.86077
6.87272
6.86858
6.84156
6.78713
6.70322
6.5874
6.42418
6.16381
5.73925
536.344
518.145
5.28981
5.45624
5.49715
5.46257
5.38185
5.31879
5.32991
5.41293
5.53895
5.67907
5.81667
5.94638
6.06954
6.18805
6.29813
6.39884
6.4902
6.5721
6.64474
6.70796
6.76147
6.80506
6.83866
6.86258
6.87732
6.87522
6.84958
6.79606
6.71269
6.59696
6.43305
6.17067
5.74223
536.405
518.157
5.29335
5.45241
5.48497
5.43857
5.34062
5.25938
5.25749
5.33623
5.46498
5.61118
5.75564
5.89202
6.02163
6.1458
6.26096
6.36644
6.46235
6.54867
6.62561