/*--------------------------------*- C++ -*----------------------------------*\
| =========                 |                                                 |
| \\      /  F ield         | OpenFOAM: The Open Source CFD Toolbox           |
|  \\    /   O peration     | Version:  v2006                                 |
|   \\  /    A nd           | Website:  www.openfoam.com                      |
|    \\/     M anipulation  |                                                 |
\*---------------------------------------------------------------------------*/
FoamFile
{
    version     2.0;
    format      ascii;
    class       surfaceScalarField;
    location    "82";
    object      phi;
}
// * * * * * * * * * * * * * * * * * * * * * * * * * * * * * * * * * * * * * //

dimensions      [1 0 -1 0 0 0 0];
oriented        oriented;


internalField   nonuniform List<scalar> 
228225
(
-1.8287e-06
2.52729e-08
1.52119e-07
-1.76673e-06
-3.02549e-07
2.40922e-07
-1.42247e-06
-6.2101e-07
2.76743e-07
-7.9924e-07
-9.13637e-07
2.9064e-07
6.5479e-08
-1.16022e-06
2.95775e-07
1.11901e-06
-1.35056e-06
2.97358e-07
2.30737e-06
-1.48501e-06
2.97017e-07
3.58e-06
-1.56769e-06
2.9546e-07
4.89246e-06
-1.60495e-06
2.929e-07
6.20673e-06
-1.6032e-06
2.89353e-07
7.49047e-06
-1.56808e-06
2.84782e-07
8.71618e-06
-1.50441e-06
2.79151e-07
9.86052e-06
-1.41633e-06
2.72448e-07
1.09038e-05
-1.30752e-06
2.64682e-07
1.18299e-05
-1.18147e-06
2.55886e-07
1.26258e-05
-1.04159e-06
2.46117e-07
1.32811e-05
-8.90357e-07
2.3549e-07
1.37871e-05
-7.29702e-07
2.24141e-07
1.41375e-05
-5.62211e-07
2.12225e-07
1.43287e-05
-3.90789e-07
1.99917e-07
1.43603e-05
-2.1865e-07
1.8742e-07
1.42375e-05
-5.18247e-08
1.74945e-07
1.39492e-05
1.25851e-07
1.62728e-07
1.35017e-05
2.96725e-07
1.5102e-07
1.29044e-05
4.57422e-07
1.4007e-07
1.21668e-05
6.07562e-07
1.30085e-07
1.12999e-05
7.45769e-07
1.21202e-07
1.03154e-05
8.70868e-07
1.13471e-07
9.22442e-06
9.8401e-07
1.06766e-07
8.03105e-06
1.09228e-06
1.0074e-07
6.71748e-06
1.21837e-06
9.46806e-08
5.2157e-06
1.41365e-06
8.73804e-08
3.42521e-06
1.71233e-06
7.71734e-08
1.42663e-06
1.93592e-06
6.14249e-08
1.39103e-06
3.40592e-08
3.45837e-09
-9.04555e-08
1.11996e-07
1.29037e-07
-6.29525e-07
2.01733e-07
3.95616e-07
-1.1351e-06
2.47149e-07
8.1544e-07
-1.60216e-06
2.68807e-07
1.38028e-06
-2.00246e-06
2.77424e-07
2.069e-06
-2.31873e-06
2.79427e-07
2.85273e-06
-2.54705e-06
2.78355e-07
3.70171e-06
-2.69249e-06
2.75927e-07
4.58758e-06
-2.76359e-06
2.72898e-07
5.48435e-06
-2.76938e-06
2.69561e-07
6.36854e-06
-2.71811e-06
2.65993e-07
7.21917e-06
-2.61701e-06
2.62154e-07
8.01765e-06
-2.47253e-06
2.57946e-07
8.74779e-06
-2.29064e-06
2.53237e-07
9.39585e-06
-2.07712e-06
2.47858e-07
9.95068e-06
-1.83774e-06
2.41622e-07
1.04035e-05
-1.57744e-06
2.34537e-07
1.07475e-05
-1.30003e-06
2.26747e-07
1.09767e-05
-1.00944e-06
2.18301e-07
1.10869e-05
-7.09845e-07
2.09205e-07
1.10746e-05
-4.05407e-07
1.99515e-07
1.09346e-05
-1.00895e-07
1.89339e-07
1.06798e-05
2.02105e-07
1.7889e-07
1.03116e-05
4.96882e-07
1.68399e-07
9.8321e-06
7.78994e-07
1.58161e-07
9.24643e-06
1.0449e-06
1.4852e-07
8.56028e-06
1.29222e-06
1.39814e-07
7.77742e-06
1.52145e-06
1.32305e-07
6.89488e-06
1.74018e-06
1.26294e-07
5.8973e-06
1.96803e-06
1.21654e-07
4.75341e-06
2.24489e-06
1.17081e-07
3.43577e-06
2.62115e-06
1.09715e-07
2.00318e-06
3.04874e-06
9.56065e-08
6.90094e-07
3.1765e-06
7.17542e-08
2.04524e-06
3.48501e-08
2.01603e-07
-3.71666e-07
7.92716e-08
6.04782e-07
-1.18216e-06
1.49552e-07
1.17387e-06
-1.89035e-06
1.85958e-07
1.85778e-06
-2.4903e-06
2.0394e-07
2.60824e-06
-2.96488e-06
2.11719e-07
3.38611e-06
-3.31098e-06
2.14171e-07
4.16388e-06
-3.53912e-06
2.14075e-07
4.92406e-06
-3.66584e-06
2.12961e-07
5.65579e-06
-3.70715e-06
2.11641e-07
6.35149e-06
-3.67579e-06
2.1054e-07
7.00453e-06
-3.58118e-06
2.09881e-07
7.60804e-06
-3.43043e-06
2.09773e-07
8.15469e-06
-3.22955e-06
2.10231e-07
8.63695e-06
-2.9842e-06
2.11188e-07
9.04736e-06
-2.70013e-06
2.12505e-07
9.37877e-06
-2.3832e-06
2.13976e-07
9.62528e-06
-2.03933e-06
2.15338e-07
9.78304e-06
-1.67412e-06
2.16299e-07
9.84962e-06
-1.29264e-06
2.16621e-07
9.82341e-06
-8.99554e-07
2.15948e-07
9.70344e-06
-4.9935e-07
2.13966e-07
9.49013e-06
-9.7917e-08
2.10411e-07
9.18196e-06
3.05262e-07
2.05097e-07
8.78088e-06
7.0009e-07
1.97964e-07
8.28963e-06
1.08119e-06
1.89147e-07
7.71236e-06
1.4432e-06
1.79032e-07
7.05353e-06
1.78283e-06
1.68261e-07
6.31514e-06
2.10218e-06
1.57648e-07
5.49369e-06
2.4136e-06
1.4796e-07
4.57694e-06
2.74529e-06
1.39354e-07
3.5491e-06
3.14198e-06
1.30541e-07
2.4266e-06
3.62505e-06
1.18324e-07
1.32099e-06
4.05451e-06
9.95026e-08
4.1219e-07
4.01248e-06
7.23692e-08
2.42284e-06
3.39177e-08
1.89372e-07
-6.29779e-07
6.82232e-08
6.69424e-07
-1.78977e-06
1.27972e-07
1.3526e-06
-2.72855e-06
1.54844e-07
2.14573e-06
-3.44908e-06
1.65332e-07
2.97075e-06
-3.95799e-06
1.6797e-07
3.77568e-06
-4.283e-06
1.6705e-07
4.5346e-06
-4.46254e-06
1.64447e-07
5.23833e-06
-4.53056e-06
1.60902e-07
5.88507e-06
-4.51081e-06
1.56823e-07
6.47482e-06
-4.41818e-06
1.52573e-07
7.00735e-06
-4.26237e-06
1.48638e-07
7.48099e-06
-4.04963e-06
1.4553e-07
7.89261e-06
-3.78488e-06
1.43678e-07
8.23853e-06
-3.47356e-06
1.43402e-07
8.51519e-06
-3.12174e-06
1.44903e-07
8.71976e-06
-2.73607e-06
1.48257e-07
8.8504e-06
-2.32342e-06
1.53417e-07
8.90633e-06
-1.89027e-06
1.60201e-07
8.88774e-06
-1.44238e-06
1.68304e-07
8.79537e-06
-9.84485e-07
1.77279e-07
8.62998e-06
-5.20517e-07
1.86543e-07
8.39256e-06
-5.58942e-08
1.95379e-07
8.08146e-06
4.13378e-07
2.0298e-07
7.69708e-06
8.75958e-07
2.08504e-07
7.23881e-06
1.32826e-06
2.11201e-07
6.70676e-06
1.76465e-06
2.10599e-07
6.10141e-06
2.18146e-06
2.06691e-07
5.42184e-06
2.58171e-06
1.99993e-07
4.66324e-06
2.98084e-06
1.91276e-07
3.81708e-06
3.4105e-06
1.80813e-07
2.8837e-06
3.90777e-06
1.67409e-07
1.90774e-06
4.45237e-06
1.48443e-07
1.00169e-06
4.83763e-06
1.22703e-07
2.94103e-07
4.63071e-06
8.90688e-08
2.67509e-06
4.13435e-08
1.98226e-07
-8.73749e-07
4.56367e-08
6.58764e-07
-2.33206e-06
8.15329e-08
1.26877e-06
-3.43414e-06
9.55631e-08
1.93543e-06
-4.21588e-06
1.00071e-07
2.59461e-06
-4.71732e-06
1.00038e-07
3.21712e-06
-5.00254e-06
9.69269e-08
3.79835e-06
-5.13483e-06
9.09961e-08
4.34247e-06
-5.1574e-06
8.26505e-08
4.85315e-06
-5.09433e-06
7.27953e-08
5.33052e-06
-4.95803e-06
6.24451e-08
5.77131e-06
-4.75566e-06
5.24501e-08
6.16979e-06
-4.49171e-06
4.35512e-08
6.51883e-06
-4.17034e-06
3.63716e-08
6.8113e-06
-3.79752e-06
3.14367e-08
7.0413e-06
-3.38098e-06
2.9206e-08
7.20493e-06
-2.92978e-06
3.00357e-08
7.30065e-06
-2.45332e-06
3.41415e-08
7.32913e-06
-1.96038e-06
4.15844e-08
7.29276e-06
-1.45837e-06
5.23191e-08
7.19491e-06
-9.52841e-07
6.61657e-08
7.03897e-06
-4.47396e-07
8.27659e-08
6.82484e-06
5.66193e-08
1.01577e-07
6.56146e-06
5.54925e-07
1.21788e-07
6.24615e-06
1.04895e-06
1.42264e-07
5.87722e-06
1.53552e-06
1.61625e-07
5.45142e-06
2.01201e-06
1.784e-07
4.96376e-06
2.47775e-06
1.91299e-07
4.4072e-06
2.93872e-06
1.99478e-07
3.77257e-06
3.41291e-06
2.02466e-07
3.053e-06
3.93043e-06
1.99521e-07
2.26038e-06
4.51138e-06
1.88898e-07
1.45407e-06
5.09e-06
1.68567e-07
7.3328e-07
5.41925e-06
1.3907e-07
1.98482e-07
5.06568e-06
9.96804e-08
2.82972e-06
4.34936e-08
1.65645e-07
-1.0718e-06
3.22401e-08
5.53055e-07
-2.77916e-06
5.94262e-08
1.05961e-06
-4.01367e-06
7.30755e-08
1.60459e-06
-4.84128e-06
8.04359e-08
2.13991e-06
-5.3361e-06
8.33124e-08
2.64946e-06
-5.5941e-06
8.1872e-08
3.1339e-06
-5.69574e-06
7.63745e-08
3.59662e-06
-5.6877e-06
6.75477e-08
4.03835e-06
-5.59239e-06
5.63044e-08
4.45666e-06
-5.41989e-06
4.35081e-08
4.8458e-06
-5.17472e-06
2.98462e-08
5.19811e-06
-4.85997e-06
1.58688e-08
5.50653e-06
-4.48019e-06
1.36705e-09
5.76085e-06
-4.04293e-06
-8.96883e-09
5.95647e-06
-3.5585e-06
-1.81483e-08
6.09082e-06
-3.03905e-06
-2.51323e-08
6.16368e-06
-2.4971e-06
-2.91335e-08
6.177e-06
-1.94418e-06
-2.95837e-08
6.13443e-06
-1.3898e-06
-2.6069e-08
6.04065e-06
-8.40818e-07
-1.83222e-08
5.90079e-06
-3.01298e-07
-6.3005e-09
5.71938e-06
2.27163e-07
1.08008e-08
5.49748e-06
7.44777e-07
3.19874e-08
5.23727e-06
1.2528e-06
5.62909e-08
4.93718e-06
1.75296e-06
8.25875e-08
4.59225e-06
2.24759e-06
1.0928e-07
4.19392e-06
2.74148e-06
1.34527e-07
3.73057e-06
3.24556e-06
1.56427e-07
3.1901e-06
3.78031e-06
1.72986e-07
2.56774e-06
4.3709e-06
1.818e-07
1.88352e-06
5.01567e-06
1.79839e-07
1.20132e-06
5.60774e-06
1.64389e-07
6.00039e-07
5.88442e-06
1.36074e-07
1.61915e-07
5.4085e-06
9.52292e-08
2.95322e-06
3.81286e-08
1.48275e-07
-1.24101e-06
2.0914e-08
4.75817e-07
-3.14713e-06
4.02719e-08
8.91519e-07
-4.48183e-06
5.23007e-08
1.33332e-06
-5.34337e-06
6.02108e-08
1.76713e-06
-5.83404e-06
6.40829e-08
2.18407e-06
-6.07476e-06
6.36753e-08
2.5859e-06
-6.15691e-06
5.92873e-08
2.9744e-06
-6.12795e-06
5.16871e-08
3.34851e-06
-6.00826e-06
4.17052e-08
3.70439e-06
-5.80578e-06
2.9973e-08
4.03588e-06
-5.52318e-06
1.69353e-08
4.33576e-06
-5.16257e-06
2.67708e-09
4.5952e-06
-4.72891e-06
-1.07635e-08
4.8079e-06
-4.23139e-06
-2.42754e-08
4.96935e-06
-3.68303e-06
-3.69771e-08
5.07733e-06
-3.09901e-06
-4.80715e-08
5.13191e-06
-2.49486e-06
-5.68671e-08
5.1353e-06
-1.88494e-06
-6.26916e-08
5.09142e-06
-1.28109e-06
-6.48944e-08
5.00535e-06
-6.91893e-07
-6.29182e-08
4.88213e-06
-1.21868e-07
-5.62781e-08
4.72823e-06
4.25542e-07
-4.45496e-08
4.54705e-06
9.53431e-07
-2.75458e-08
4.33957e-06
1.4656e-06
-5.39013e-09
4.10369e-06
1.96811e-06
2.06596e-08
3.83244e-06
2.46899e-06
4.97755e-08
3.5146e-06
2.97922e-06
8.00362e-08
3.13578e-06
3.51513e-06
1.09168e-07
2.68272e-06
4.09892e-06
1.34365e-07
2.15287e-06
4.74864e-06
1.52023e-07
1.57019e-06
5.44043e-06
1.57858e-07
9.95105e-07
6.03465e-06
1.48164e-07
4.90689e-07
6.26591e-06
1.22943e-07
1.30926e-07
5.68459e-06
8.36371e-08
3.05316e-06
3.07265e-08
1.13875e-07
-1.37036e-06
1.55466e-08
3.74893e-07
-3.4426e-06
3.42182e-08
7.1414e-07
-4.87014e-06
4.8829e-08
1.08206e-06
-5.77104e-06
5.96848e-08
1.45085e-06
-6.26867e-06
6.58555e-08
1.8122e-06
-6.50319e-06
6.70655e-08
2.16574e-06
-6.57441e-06
6.39003e-08
2.51105e-06
-6.5307e-06
5.7358e-08
2.84564e-06
-6.39127e-06
4.83284e-08
3.16488e-06
-6.1625e-06
3.74095e-08
3.4625e-06
-5.8458e-06
2.4964e-08
3.73159e-06
-5.44288e-06
1.1188e-08
3.9656e-06
-4.95935e-06
-3.60695e-09
4.15922e-06
-4.40613e-06
-1.89237e-08
4.3085e-06
-3.79827e-06
-3.41065e-08
4.41112e-06
-3.15323e-06
-4.84625e-08
4.46649e-06
-2.48897e-06
-6.13345e-08
4.47588e-06
-1.82227e-06
-7.21253e-08
4.44224e-06
-1.16735e-06
-8.01628e-08
4.37001e-06
-5.35032e-07
-8.46896e-08
4.26528e-06
6.77597e-08
-8.49633e-08
4.13278e-06
6.38237e-07
-8.02688e-08
3.97778e-06
1.17827e-06
-6.99123e-08
3.80244e-06
1.69432e-06
-5.34552e-08
3.60463e-06
2.19677e-06
-3.0919e-08
3.37651e-06
2.69942e-06
-2.3755e-09
3.10784e-06
3.21975e-06
2.80726e-08
2.78278e-06
3.77945e-06
6.06774e-08
2.38803e-06
4.4021e-06
9.1504e-08
1.92221e-06
5.09843e-06
1.15962e-07
1.40906e-06
5.82487e-06
1.28665e-07
9.01472e-07
6.41734e-06
1.24916e-07
4.51356e-07
6.61203e-06
1.04045e-07
1.26174e-07
5.94123e-06
6.85248e-08
3.15619e-06
2.29139e-08
1.03331e-07
-1.48672e-06
1.28914e-08
3.35063e-07
-3.70593e-06
3.15545e-08
6.34624e-07
-5.21696e-06
4.71812e-08
9.60057e-07
-6.15567e-06
5.91018e-08
1.28755e-06
-6.66275e-06
6.64901e-08
1.60969e-06
-6.89469e-06
6.92937e-08
1.9254e-06
-6.95829e-06
6.81227e-08
2.2335e-06
-6.90272e-06
6.38634e-08
2.53126e-06
-6.74634e-06
5.7269e-08
2.8143e-06
-6.4944e-06
4.88246e-08
3.07711e-06
-6.14743e-06
3.87625e-08
3.31394e-06
-5.70693e-06
2.71802e-08
3.51957e-06
-5.17932e-06
1.42805e-08
3.68931e-06
-4.57682e-06
8.9375e-10
3.8214e-06
-3.91603e-06
-1.43729e-08
3.91351e-06
-3.21607e-06
-2.93268e-08
3.96479e-06
-2.49659e-06
-4.37186e-08
3.97577e-06
-1.77625e-06
-5.7065e-08
3.94855e-06
-1.07135e-06
-6.88416e-08
3.88657e-06
-3.94797e-07
-7.83311e-08
3.79463e-06
2.44321e-07
-8.46985e-08
3.67833e-06
8.41538e-07
-8.70724e-08
3.54262e-06
1.39846e-06
-8.45538e-08
3.39003e-06
1.92303e-06
-7.61894e-08
3.21898e-06
2.42898e-06
-6.12308e-08
3.02273e-06
2.93502e-06
-3.94246e-08
2.78911e-06
3.46436e-06
-1.10526e-08
2.50432e-06
4.04368e-06
2.04981e-08
2.1558e-06
4.69775e-06
5.28063e-08
1.74215e-06
5.43093e-06
8.11027e-08
1.28459e-06
6.18355e-06
9.88769e-08
8.28172e-07
6.77339e-06
1.0043e-07
4.18369e-07
6.93745e-06
8.44699e-08
1.19379e-07
6.18599e-06
5.4257e-08
3.2586e-06
1.67815e-08
8.68902e-08
-1.58601e-06
1.22104e-08
2.90368e-07
-3.94152e-06
3.21706e-08
5.59126e-07
-5.53521e-06
4.944e-08
8.55075e-07
-6.51444e-06
6.26823e-08
1.156e-06
-7.03482e-06
7.10209e-08
1.45417e-06
-7.2675e-06
7.45656e-08
1.74747e-06
-7.32582e-06
7.41891e-08
2.03388e-06
-7.26011e-06
7.09641e-08
2.31015e-06
-7.08835e-06
6.57003e-08
2.57187e-06
-6.81503e-06
5.88636e-08
2.81392e-06
-6.44014e-06
5.06075e-08
3.03131e-06
-5.96532e-06
4.09361e-08
3.21975e-06
-5.39773e-06
2.99096e-08
3.37589e-06
-4.75073e-06
1.77223e-08
3.4972e-06
-4.04224e-06
4.84848e-09
3.58275e-06
-3.29247e-06
-9.20275e-09
3.63194e-06
-2.52223e-06
-2.36011e-08
3.64466e-06
-1.75147e-06
-3.7559e-08
3.6222e-06
-9.98185e-07
-5.07831e-08
3.56725e-06
-2.77198e-07
-6.27352e-08
3.48391e-06
4.00226e-07
-7.26466e-08
3.37721e-06
1.02781e-06
-7.96471e-08
3.25201e-06
1.60642e-06
-8.28323e-08
3.11126e-06
2.14492e-06
-8.12007e-08
2.95427e-06
2.65956e-06
-7.36489e-08
2.77552e-06
3.17295e-06
-5.92314e-08
2.56434e-06
3.71303e-06
-3.75483e-08
2.30627e-06
4.31067e-06
-8.97123e-09
1.99052e-06
4.99179e-06
2.16682e-08
1.61537e-06
5.75538e-06
5.06969e-08
1.19862e-06
6.52887e-06
7.14764e-08
7.78695e-07
7.11607e-06
7.73636e-08
3.96947e-07
7.25298e-06
6.63622e-08
1.15033e-07
6.42597e-06
4.20057e-08
3.3612e-06
1.22773e-08
8.36007e-08
-1.68237e-06
1.26501e-08
2.75585e-07
-4.16796e-06
3.4339e-08
5.27378e-07
-5.83989e-06
5.28136e-08
8.03483e-07
-6.85739e-06
6.67853e-08
1.08333e-06
-7.39049e-06
7.5758e-08
1.3599e-06
-7.62421e-06
8.00653e-08
1.63124e-06
-7.67785e-06
8.06321e-08
1.89537e-06
-7.60281e-06
7.8516e-08
2.14921e-06
-7.41675e-06
7.45089e-08
2.38866e-06
-7.1236e-06
6.90792e-08
2.60914e-06
-6.72308e-06
6.23979e-08
2.80637e-06
-6.21706e-06
5.44638e-08
2.97681e-06
-5.61351e-06
4.52873e-08
3.11789e-06
-4.9268e-06
3.49325e-08
3.22789e-06
-4.17583e-06
2.35317e-08
3.30572e-06
-3.3817e-06
1.13532e-08
3.35009e-06
-2.56601e-06
-6.56428e-10
3.36305e-06
-1.74945e-06
-1.50605e-08
3.34445e-06
-9.51089e-07
-2.85659e-08
3.29602e-06
-1.87289e-07
-4.155e-08
3.22087e-06
5.28726e-07
-5.34311e-08
3.12314e-06
1.18888e-06
-6.34077e-08
3.007e-06
1.7931e-06
-7.06004e-08
2.87533e-06
2.35059e-06
-7.40665e-08
2.72817e-06
2.87934e-06
-7.26882e-08
2.56136e-06
3.40494e-06
-6.52322e-08
2.36602e-06
3.959e-06
-5.0669e-08
2.12971e-06
4.5757e-06
-2.87598e-08
1.83949e-06
5.28185e-06
1.55238e-10
1.4966e-06
6.07208e-06
2.62119e-08
1.11464e-06
6.86311e-06
4.78223e-08
7.2676e-07
7.44729e-06
5.68181e-08
3.71277e-07
7.55829e-06
5.03708e-08
1.07641e-07
6.65801e-06
3.17255e-08
3.45989e-06
8.87405e-09
7.68027e-08
-1.77293e-06
1.36089e-08
2.56753e-07
-4.38468e-06
3.6622e-08
4.94336e-07
-6.13319e-06
5.56851e-08
7.55152e-07
-7.18809e-06
6.98812e-08
1.01944e-06
-7.73382e-06
7.89988e-08
1.28044e-06
-7.96884e-06
8.35663e-08
1.53598e-06
-8.0181e-06
8.46229e-08
1.78393e-06
-7.93408e-06
8.32457e-08
2.02118e-06
-7.73426e-06
8.01954e-08
2.24385e-06
-7.42223e-06
7.59091e-08
2.44779e-06
-6.9976e-06
7.05478e-08
2.62926e-06
-6.46268e-06
6.41084e-08
2.78538e-06
-5.82623e-06
5.65728e-08
2.91415e-06
-5.10357e-06
4.7945e-08
3.01438e-06
-4.31437e-06
3.82572e-08
3.08537e-06
-3.48036e-06
2.75991e-08
3.12678e-06
-2.62365e-06
1.61624e-08
3.13847e-06
-1.76559e-06
4.38295e-09
3.12142e-06
-9.25795e-07
-8.31821e-09
3.07701e-06
-1.2175e-07
-2.1206e-08
3.00747e-06
6.31722e-07
-3.35288e-08
2.91607e-06
1.32494e-06
-4.47408e-08
2.80624e-06
1.95695e-06
-5.40909e-08
2.68049e-06
2.53701e-06
-6.0751e-08
2.53919e-06
3.08428e-06
-6.37131e-08
2.37929e-06
3.62653e-06
-6.1741e-08
2.19366e-06
4.19813e-06
-5.3533e-08
1.97189e-06
4.83568e-06
-3.8227e-08
1.70368e-06
5.56637e-06
-1.62844e-08
1.38638e-06
6.38097e-06
8.49151e-09
1.03376e-06
7.18699e-06
2.88768e-08
6.7462e-07
7.76709e-06
3.95782e-08
3.44249e-07
7.85203e-06
3.6893e-08
9.93467e-08
6.87975e-06
2.33555e-08
3.5529e-06
6.31444e-09
7.48108e-08
-1.86263e-06
1.481e-08
2.47602e-07
-4.59692e-06
3.93435e-08
4.73615e-07
-6.41835e-06
5.90346e-08
7.19963e-07
-7.50794e-06
7.3417e-08
9.68328e-07
-8.06487e-06
8.26237e-08
1.21277e-06
-8.30071e-06
8.73732e-08
1.45141e-06
-8.34557e-06
8.87729e-08
1.68221e-06
-8.25284e-06
8.79067e-08
1.90224e-06
-8.03987e-06
8.55268e-08
2.10789e-06
-7.71001e-06
8.20705e-08
2.29548e-06
-7.26295e-06
7.7712e-08
2.46184e-06
-6.70155e-06
7.24627e-08
2.60466e-06
-6.0354e-06
6.62957e-08
2.72247e-06
-5.28062e-06
5.91751e-08
2.81447e-06
-4.45749e-06
5.10616e-08
2.88023e-06
-3.58812e-06
4.19418e-08
2.91955e-06
-2.6949e-06
3.18653e-08
2.93234e-06
-1.79942e-06
2.09718e-08
2.91874e-06
-9.21787e-07
9.5103e-09
2.87924e-06
-8.02601e-08
-2.06631e-09
2.81648e-06
7.09082e-07
-1.46796e-08
2.73248e-06
1.43521e-06
-2.63508e-08
2.62985e-06
2.09631e-06
-3.6809e-08
2.51061e-06
2.70155e-06
-4.53736e-08
2.37513e-06
3.27088e-06
-5.11815e-08
2.22109e-06
3.83367e-06
-5.31405e-08
2.04284e-06
4.42631e-06
-4.99587e-08
1.83196e-06
5.08704e-06
-4.04737e-08
1.57999e-06
5.84287e-06
-2.44879e-08
1.28395e-06
6.68073e-06
-3.59778e-09
9.56724e-07
7.49982e-06
1.46037e-08
6.23933e-07
8.07443e-06
2.57327e-08
3.1765e-07
8.13275e-06
2.58813e-08
9.11789e-08
7.08984e-06
1.6647e-08
3.63975e-06
4.37089e-09
7.10319e-08
-1.94964e-06
1.59366e-08
2.35944e-07
-4.80322e-06
4.12784e-08
4.51425e-07
-6.69484e-06
6.0882e-08
6.85459e-07
-7.81702e-06
7.49448e-08
9.2061e-07
-8.38403e-06
8.39418e-08
1.15137e-06
-8.62025e-06
8.87421e-08
1.37591e-06
-8.66062e-06
9.04595e-08
1.59221e-06
-8.55931e-06
9.01214e-08
1.79748e-06
-8.33362e-06
8.84281e-08
1.98842e-06
-7.9868e-06
8.57934e-08
2.16179e-06
-7.51878e-06
8.23947e-08
2.31498e-06
-6.93306e-06
7.82572e-08
2.44622e-06
-6.24005e-06
7.33537e-08
2.55451e-06
-5.4566e-06
6.76305e-08
2.63938e-06
-4.60342e-06
6.1012e-08
2.7006e-06
-3.70282e-06
5.34253e-08
2.73801e-06
-2.77721e-06
4.48352e-08
2.75145e-06
-1.8482e-06
3.52738e-08
2.74087e-06
-9.36134e-07
2.48435e-08
2.7066e-06
-5.98362e-08
1.37633e-08
2.64947e-06
7.63566e-07
2.55906e-09
2.57178e-06
1.52196e-06
-9.1342e-09
2.47538e-06
2.21275e-06
-2.01121e-08
2.36175e-06
2.84488e-06
-2.97605e-08
2.23112e-06
3.43885e-06
-3.73912e-08
2.08159e-06
4.02524e-06
-4.20798e-08
1.90864e-06
4.6419e-06
-4.2664e-08
1.7056e-06
5.32804e-06
-3.79283e-08
1.46595e-06
6.10984e-06
-2.72473e-08
1.18832e-06
6.97019e-06
-1.16663e-08
8.83146e-07
7.80058e-06
4.67212e-09
5.74664e-07
8.36814e-06
1.51252e-08
2.91496e-07
8.39915e-06
1.71599e-08
8.31347e-08
7.28715e-06
1.13636e-08
3.72007e-06
2.90649e-09
6.86926e-08
-2.0354e-06
1.69541e-08
2.27062e-07
-5.00479e-06
4.31124e-08
4.32639e-07
-6.96324e-06
6.27412e-08
6.54485e-07
-8.11551e-06
7.65638e-08
8.76307e-07
-8.69128e-06
8.53479e-08
1.09327e-06
-8.92739e-06
9.0104e-08
1.30376e-06
-8.96316e-06
9.19826e-08
1.50588e-06
-8.85347e-06
9.19934e-08
1.69697e-06
-8.61558e-06
9.08095e-08
1.87404e-06
-8.25275e-06
8.88302e-08
2.03428e-06
-7.76532e-06
8.62385e-08
2.1756e-06
-7.15749e-06
8.30679e-08
2.29672e-06
-6.44052e-06
7.9288e-08
2.39709e-06
-5.63184e-06
7.48252e-08
2.47653e-06
-4.75249e-06
6.95676e-08
2.535e-06
-3.82475e-06
6.33895e-08
2.57235e-06
-2.87081e-06
5.61867e-08
2.58825e-06
-1.91208e-06
4.7912e-08
2.5823e-06
-9.68846e-07
3.85905e-08
2.5543e-06
-6.0274e-08
2.83535e-08
2.50464e-06
7.95663e-07
1.74771e-08
2.43432e-06
1.58579e-06
6.40757e-09
2.3447e-06
2.30676e-06
-4.47115e-09
2.23706e-06
2.96726e-06
-1.48101e-08
2.11134e-06
3.58811e-06
-2.36051e-08
1.96591e-06
4.20079e-06
-3.01611e-08
1.79713e-06
4.84416e-06
-3.34903e-08
1.59983e-06
5.55783e-06
-3.24561e-08
1.36939e-06
6.36663e-06
-2.62338e-08
1.10596e-06
7.24906e-06
-1.52518e-08
8.19452e-07
8.08923e-06
-1.85323e-09
5.32094e-07
8.6484e-06
7.49345e-09
2.69341e-07
8.65176e-06
1.05713e-08
7.66326e-08
7.47285e-06
7.37424e-09
3.79498e-06
1.85982e-09
6.58936e-08
-2.11914e-06
1.76995e-08
2.17884e-07
-5.2009e-06
4.40713e-08
4.14491e-07
-7.22313e-06
6.32304e-08
6.25622e-07
-8.40319e-06
7.64797e-08
8.35848e-07
-8.98648e-06
8.48948e-08
1.04078e-06
-9.22198e-06
8.95805e-08
1.23894e-06
-9.25304e-06
9.16485e-08
1.42849e-06
-9.13511e-06
9.2039e-08
1.60695e-06
-8.88547e-06
9.1377e-08
1.77162e-06
-8.50751e-06
9.00432e-08
1.9201e-06
-8.00207e-06
8.82255e-08
2.05075e-06
-7.37416e-06
8.59711e-08
2.16275e-06
-6.63583e-06
8.32554e-08
2.25591e-06
-5.80507e-06
7.99991e-08
2.3304e-06
-4.90311e-06
7.60716e-08
2.38634e-06
-3.95207e-06
7.13093e-08
2.42363e-06
-2.97372e-06
6.55481e-08
2.44182e-06
-1.989e-06
5.86616e-08
2.44019e-06
-1.01788e-06
5.05897e-08
2.41806e-06
-7.96012e-08
4.13808e-08
2.37516e-06
8.07243e-07
3.1233e-08
2.31189e-06
1.62849e-06
2.04947e-08
2.22899e-06
2.37994e-06
9.63959e-09
2.12681e-06
3.06991e-06
-5.51339e-10
2.00578e-06
3.71944e-06
-1.03648e-08
1.86418e-06
4.3606e-06
-1.82555e-08
1.69902e-06
5.03293e-06
-2.36102e-08
1.50637e-06
5.77595e-06
-2.5426e-08
1.28331e-06
6.61264e-06
-2.28286e-08
1.03156e-06
7.51684e-06
-1.58208e-08
7.61801e-07
8.36547e-06
-6.139e-09
4.93174e-07
8.91509e-06
2.36381e-09
2.48938e-07
8.89068e-06
5.77448e-09
7.06054e-08
7.64713e-06
4.43863e-09
3.86461e-06
1.13196e-09
6.36366e-08
-2.20117e-06
1.8284e-08
2.0972e-07
-5.39185e-06
4.47601e-08
3.97876e-07
-7.47485e-06
6.34795e-08
5.98949e-07
-8.68055e-06
7.6204e-08
7.98381e-07
-9.27023e-06
8.4248e-08
9.92214e-07
-9.50468e-06
8.88003e-08
1.17908e-06
-9.53093e-06
9.09631e-08
1.3572e-06
-9.40493e-06
9.16322e-08
1.52428e-06
-9.144e-06
9.13955e-08
1.67786e-06
-8.75176e-06
9.06161e-08
1.81593e-06
-8.22968e-06
8.94842e-08
1.93724e-06
-7.58359e-06
8.8054e-08
2.04138e-06
-6.82633e-06
8.62996e-08
2.12855e-06
-5.97643e-06
8.41349e-08
2.1992e-06
-5.05523e-06
8.14154e-08
2.25368e-06
-4.08456e-06
7.7952e-08
2.29196e-06
-3.0856e-06
7.35379e-08
2.31345e-06
-2.07855e-06
6.79851e-08
2.31712e-06
-1.08279e-06
6.11598e-08
2.30173e-06
-1.17325e-07
5.30301e-08
2.26629e-06
7.98887e-07
4.37175e-08
2.2104e-06
1.65078e-06
3.35121e-08
2.13421e-06
2.4332e-06
2.28413e-08
2.03795e-06
3.15389e-06
1.22151e-08
1.92125e-06
3.83385e-06
2.22356e-09
1.78289e-06
4.50555e-06
-6.61455e-09
1.62045e-06
5.20887e-06
-1.34969e-08
1.43109e-06
5.98289e-06
-1.75188e-08
1.21342e-06
6.84829e-06
-1.78362e-08
9.70691e-07
7.77401e-06
-1.41908e-08
7.14208e-07
8.63e-06
-7.68318e-09
4.613e-07
9.16926e-06
-8.01155e-10
2.32587e-07
9.11733e-06
2.56222e-09
6.59957e-08
7.81169e-06
2.45139e-09
3.93008e-06
6.96104e-10
6.15582e-08
-2.28144e-06
1.86184e-08
2.02527e-07
-5.5777e-06
4.47617e-08
3.8336e-07
-7.71849e-06
6.27168e-08
5.75651e-07
-8.9476e-06
7.47094e-08
7.65577e-07
-9.54249e-06
8.22863e-08
9.49563e-07
-9.77539e-06
8.66754e-08
1.12635e-06
-9.79669e-06
8.89198e-08
1.29425e-06
-9.66273e-06
8.98472e-08
1.4511e-06
-9.39091e-06
9.00025e-08
1.59472e-06
-8.98517e-06
8.97318e-08
1.72337e-06
-8.44762e-06
8.92311e-08
1.83615e-06
-7.78498e-06
8.8566e-08
1.93296e-06
-7.0109e-06
8.7717e-08
2.01432e-06
-6.14444e-06
8.65987e-08
2.08099e-06
-5.20701e-06
8.50597e-08
2.13358e-06
-4.2201e-06
8.28913e-08
2.1722e-06
-3.20415e-06
7.98492e-08
2.19631e-06
-2.17842e-06
7.5687e-08
2.20464e-06
-1.1614e-06
7.01941e-08
2.19551e-06
-1.71527e-07
6.32517e-08
2.16721e-06
7.72201e-07
5.48957e-08
2.11859e-06
1.65397e-06
4.53524e-08
2.04909e-06
2.4676e-06
3.50165e-08
1.95847e-06
3.22006e-06
2.43858e-08
1.84624e-06
3.93203e-06
1.4005e-08
1.71121e-06
4.63609e-06
4.45772e-09
1.55148e-06
5.37219e-06
-3.58299e-09
1.36516e-06
6.17861e-06
-9.32876e-09
1.15214e-06
7.07344e-06
-1.19769e-08
9.17054e-07
8.02047e-06
-1.11213e-08
6.71859e-07
8.88295e-06
-7.38e-09
4.32931e-07
9.41132e-06
-2.65987e-09
2.17874e-07
9.33227e-06
6.23012e-10
6.17646e-08
7.96702e-06
1.21362e-09
3.99156e-06
4.77401e-10
5.95204e-08
-2.35986e-06
1.88021e-08
1.95706e-07
-5.75846e-06
4.44792e-08
3.69855e-07
-7.95438e-06
6.16503e-08
5.54245e-07
-9.205e-06
7.2925e-08
7.35718e-07
-9.80407e-06
8.0033e-08
9.1103e-07
-1.0035e-05
8.42308e-08
1.079e-06
-1.00512e-05
8.65129e-08
1.238e-06
-9.90944e-06
8.76468e-08
1.38601e-06
-9.62712e-06
8.81371e-08
1.52102e-06
-9.20855e-06
8.8311e-08
1.64158e-06
-8.6566e-06
8.83656e-08
1.74703e-06
-7.97886e-06
8.83739e-08
1.83757e-06
-7.18983e-06
8.83202e-08
1.91403e-06
-6.30908e-06
8.81225e-08
1.97743e-06
-5.35811e-06
8.76302e-08
2.02866e-06
-4.35803e-06
8.66292e-08
2.06802e-06
-3.32844e-06
8.48559e-08
2.09499e-06
-2.28749e-06
8.20236e-08
2.10815e-06
-1.25251e-06
7.78583e-08
2.10539e-06
-2.41004e-07
7.21556e-08
2.0843e-06
7.28344e-07
6.48548e-08
2.0429e-06
1.63918e-06
5.60984e-08
1.97994e-06
2.48425e-06
4.62303e-08
1.89467e-06
3.26952e-06
3.57313e-08
1.78642e-06
4.01508e-06
2.51442e-08
1.65416e-06
4.75329e-06
1.50418e-08
1.49647e-06
5.52384e-06
6.04825e-09
1.31235e-06
6.36395e-06
-1.14529e-09
1.10274e-06
7.28879e-06
-5.58676e-09
8.73586e-07
8.25693e-06
-7.0393e-09
6.37439e-07
9.12519e-06
-5.70452e-09
4.0975e-07
9.6424e-06
-2.89734e-09
2.06079e-07
9.53683e-06
-3.67914e-10
5.84945e-08
8.11443e-06
6.1603e-10
4.04976e-06
4.85493e-10
5.80307e-08
-2.43677e-06
1.8778e-08
1.90427e-07
-5.93462e-06
4.36835e-08
3.59012e-07
-8.18291e-06
5.98629e-08
5.36604e-07
-9.45296e-06
7.0292e-08
7.1064e-07
-1.0055e-05
7.68685e-08
8.78206e-07
-1.02835e-05
8.08428e-08
1.03824e-06
-1.02945e-05
8.31332e-08
1.18922e-06
-1.01449e-05
8.4438e-08
1.32922e-06
-9.85239e-06
8.52206e-08
1.45642e-06
-9.42159e-06
8.57907e-08
1.5695e-06
-8.85609e-06
8.63477e-08
1.66805e-06
-8.16444e-06
8.69739e-08
1.7525e-06
-7.36199e-06
8.76602e-08
1.82392e-06
-6.46888e-06
8.833e-08
1.88363e-06
-5.50672e-06
8.88362e-08
1.93281e-06
-4.49623e-06
8.89624e-08
1.97202e-06
-3.45614e-06
8.84315e-08
2.00091e-06
-2.40337e-06
8.69253e-08
2.01803e-06
-1.35382e-06
8.41152e-08
2.02096e-06
-3.23734e-07
7.97169e-08
2.00669e-06
6.68956e-07
7.35707e-08
1.97241e-06
1.60764e-06
6.57235e-08
1.9161e-06
2.48402e-06
5.64529e-08
1.83643e-06
3.30289e-06
4.62125e-08
1.73247e-06
4.08343e-06
3.55462e-08
1.60326e-06
4.85744e-06
2.50321e-08
1.4478e-06
5.66403e-06
1.52852e-08
1.26584e-06
6.53901e-06
6.97858e-09
1.05965e-06
7.49442e-06
7.27837e-10
8.35846e-07
8.48351e-06
-2.49408e-09
6.07556e-07
9.35699e-06
-3.10707e-09
3.89492e-07
9.86296e-06
-2.00048e-09
1.95735e-07
9.73159e-06
-4.75102e-10
5.56162e-08
8.2544e-06
5.94723e-10
4.10482e-06
7.40592e-10
5.64093e-08
-2.51191e-06
1.86287e-08
1.85132e-07
-6.10608e-06
4.26386e-08
3.48704e-07
-8.40435e-06
5.77819e-08
5.20377e-07
-9.69207e-06
6.73574e-08
6.88019e-07
-1.02962e-05
7.34033e-08
8.48927e-07
-1.05216e-05
7.715e-08
1.00216e-06
-1.05272e-05
7.94356e-08
1.14628e-06
-1.037e-05
8.08883e-08
1.27948e-06
-1.00676e-05
8.19296e-08
1.40003e-06
-9.62504e-06
8.28493e-08
1.50677e-06
-9.04674e-06
8.38461e-08
1.59946e-06
-8.34219e-06
8.50088e-08
1.67871e-06
-7.52765e-06
8.6334e-08
1.74583e-06
-6.62382e-06
8.77526e-08
1.8024e-06
-5.65248e-06
8.91274e-08
1.84982e-06
-4.63397e-06
9.02503e-08
1.88893e-06
-3.58616e-06
9.08457e-08
1.91954e-06
-2.52464e-06
9.05815e-08
1.94024e-06
-1.4637e-06
8.90906e-08
1.9484e-06
-4.18003e-07
8.60186e-08
1.94047e-06
5.95687e-07
8.1105e-08
1.91289e-06
1.56085e-06
7.4286e-08
1.86283e-06
2.46824e-06
6.57503e-08
1.7884e-06
3.32134e-06
5.5905e-08
1.68836e-06
4.13813e-06
4.52877e-08
1.56178e-06
4.9495e-06
3.44894e-08
1.40809e-06
5.7936e-06
2.41338e-08
1.22773e-06
6.70456e-06
1.48912e-08
1.02383e-06
7.69105e-06
7.44958e-09
8.04287e-07
8.70097e-06
2.35974e-09
5.82686e-07
9.57926e-06
-2.60869e-10
3.72702e-07
1.0074e-05
-6.01715e-10
1.87246e-07
9.91764e-06
-6.46403e-11
5.32931e-08
8.38787e-06
9.21628e-10
4.15724e-06
1.05725e-09
5.54367e-08
-2.58577e-06
1.83094e-08
1.81501e-07
-6.27341e-06
4.11942e-08
3.41058e-07
-8.61912e-06
5.5152e-08
5.07749e-07
-9.92261e-06
6.37866e-08
6.69843e-07
-1.05276e-05
6.92591e-08
8.2488e-07
-1.07495e-05
7.27524e-08
9.72044e-07
-1.07494e-05
7.5008e-08
1.11e-06
-1.05846e-05
7.65813e-08
1.23704e-06
-1.02725e-05
7.78524e-08
1.35147e-06
-9.81861e-06
7.90919e-08
1.45223e-06
-9.22805e-06
8.04974e-08
1.53921e-06
-8.51138e-06
8.21639e-08
1.61323e-06
-7.6858e-06
8.40925e-08
1.67577e-06
-6.77263e-06
8.62193e-08
1.72867e-06
-5.79385e-06
8.84142e-08
1.77361e-06
-4.76947e-06
9.04772e-08
1.81174e-06
-3.7165e-06
9.21383e-08
1.84313e-06
-2.64917e-06
9.30607e-08
1.86654e-06
-1.58004e-06
9.28539e-08
1.87922e-06
-5.21878e-07
9.11093e-08
1.8772e-06
5.10148e-07
8.74764e-08
1.85617e-06
1.50002e-06
8.1778e-08
1.81253e-06
2.4377e-06
7.40991e-08
1.74367e-06
3.32534e-06
6.47813e-08
1.64797e-06
4.17944e-06
5.43422e-08
1.52446e-06
5.02959e-06
4.33847e-08
1.3729e-06
5.91263e-06
3.25524e-08
1.19439e-06
6.86062e-06
2.25279e-08
9.92897e-07
7.8787e-06
1.40103e-08
7.77129e-07
8.90942e-06
7.60523e-09
5.60984e-07
9.79224e-06
3.5716e-09
3.57911e-07
1.0276e-05
1.58724e-09
1.79515e-07
1.00954e-05
1.18911e-09
5.10873e-08
8.51512e-06
1.62083e-09
4.20705e-06
1.46318e-09
5.42492e-08
-2.65801e-06
1.78872e-08
1.77596e-07
-6.43639e-06
3.95248e-08
3.33454e-07
-8.8273e-06
5.22366e-08
4.9584e-07
-1.0145e-05
5.99096e-08
6.53354e-07
-1.075e-05
6.48076e-08
8.03765e-07
-1.0968e-05
6.80457e-08
9.46161e-07
-1.09621e-05
7.02585e-08
1.07914e-06
-1.07895e-05
7.19275e-08
1.20107e-06
-1.04679e-05
7.33938e-08
1.31036e-06
-1.00029e-05
7.4909e-08
1.40606e-06
-9.40047e-06
7.6669e-08
1.48818e-06
-8.67233e-06
7.87731e-08
1.55766e-06
-7.83657e-06
8.12265e-08
1.61619e-06
-6.91519e-06
8.39713e-08
1.66576e-06
-5.93037e-06
8.68869e-08
1.70831e-06
-4.90187e-06
8.97863e-08
1.74523e-06
-3.84591e-06
9.2412e-08
1.7769e-06
-2.77536e-06
9.44336e-08
1.80227e-06
-1.70094e-06
9.54507e-08
1.81863e-06
-6.33337e-07
9.50156e-08
1.82169e-06
4.14298e-07
9.26988e-08
1.80653e-06
1.42687e-06
8.8209e-08
1.76878e-06
2.39385e-06
8.15126e-08
1.70515e-06
3.31603e-06
7.28638e-08
1.61355e-06
4.20824e-06
6.27413e-08
1.49294e-06
5.09841e-06
5.1752e-08
1.34335e-06
6.02167e-06
4.05652e-08
1.16646e-06
7.0077e-06
2.98913e-08
9.67012e-07
8.05787e-06
2.04538e-08
7.54445e-07
9.10937e-06
1.28989e-08
5.42964e-07
9.99656e-06
7.5673e-09
3.4555e-07
1.04697e-05
4.2864e-09
1.73078e-07
1.02655e-05
2.82295e-09
4.92625e-08
8.63675e-06
2.61418e-09
4.25454e-06
1.95126e-09
5.35734e-08
-2.72901e-06
1.73225e-08
1.74987e-07
-6.59542e-06
3.75276e-08
3.27902e-07
-9.02918e-06
4.88818e-08