/*--------------------------------*- C++ -*----------------------------------*\
| =========                 |                                                 |
| \\      /  F ield         | OpenFOAM: The Open Source CFD Toolbox           |
|  \\    /   O peration     | Version:  v2006                                 |
|   \\  /    A nd           | Website:  www.openfoam.com                      |
|    \\/     M anipulation  |                                                 |
\*---------------------------------------------------------------------------*/
FoamFile
{
    version     2.0;
    format      ascii;
    class       volScalarField;
    location    "62";
    object      alphat;
}
// * * * * * * * * * * * * * * * * * * * * * * * * * * * * * * * * * * * * * //

dimensions      [1 -1 -1 0 0 0 0];


internalField   nonuniform List<scalar> 
78750
(
1.21708e-08
9.22137e-07
1.33153e-06
1.68047e-06
1.99815e-06
2.27838e-06
2.5146e-06
2.7066e-06
2.85872e-06
2.9747e-06
3.05856e-06
3.11395e-06
3.14373e-06
3.15023e-06
3.1353e-06
3.09999e-06
3.04589e-06
2.97465e-06
2.88802e-06
2.78762e-06
2.67561e-06
2.5529e-06
2.41873e-06
2.27459e-06
2.12094e-06
1.9579e-06
1.78535e-06
1.60325e-06
1.4114e-06
1.20882e-06
9.94442e-07
7.68192e-07
5.36981e-07
3.29391e-07
7.98364e-09
3.97675e-09
2.15404e-06
4.25297e-06
6.72708e-06
1.00684e-05
1.43311e-05
1.82325e-05
1.9644e-05
2.07105e-05
2.09957e-05
2.08843e-05
2.09099e-05
2.10883e-05
2.14038e-05
2.17106e-05
2.1221e-05
2.06014e-05
1.98708e-05
1.90488e-05
1.81551e-05
1.72086e-05
1.6224e-05
1.52133e-05
1.41913e-05
1.31657e-05
1.21395e-05
1.11108e-05
1.0074e-05
9.02446e-06
7.25434e-06
4.77797e-06
2.93991e-06
2.24435e-06
1.68405e-06
3.04954e-08
3.3936e-09
2.33564e-06
4.47987e-06
6.83645e-06
9.69149e-06
1.34715e-05
1.84317e-05
2.16713e-05
2.29066e-05
2.3826e-05
2.44593e-05
2.48337e-05
2.49734e-05
2.49015e-05
2.33509e-05
2.19042e-05
2.06768e-05
1.95916e-05
1.86145e-05
1.77277e-05
1.69238e-05
1.61988e-05
1.55482e-05
1.49455e-05
1.43231e-05
1.35802e-05
1.25831e-05
1.11661e-05
9.19921e-06
6.81444e-06
4.63204e-06
3.37599e-06
3.70776e-06
1.8821e-06
4.72528e-08
6.77205e-09
2.0011e-06
4.21154e-06
6.96982e-06
1.05205e-05
1.50227e-05
2.01903e-05
2.49602e-05
2.6934e-05
2.7703e-05
2.81792e-05
2.8341e-05
2.66038e-05
2.46765e-05
2.28372e-05
2.11332e-05
1.95804e-05
1.81757e-05
1.69091e-05
1.5778e-05
1.47962e-05
1.39888e-05
1.33628e-05
1.28932e-05
1.25076e-05
1.20585e-05
1.13325e-05
1.01119e-05
8.31836e-06
6.22997e-06
4.48752e-06
3.73081e-06
5.05033e-06
1.8607e-06
6.06875e-08
1.00494e-08
2.08955e-06
4.61229e-06
8.06817e-06
1.27676e-05
1.8669e-05
2.48246e-05
2.8586e-05
2.95537e-05
3.01809e-05
3.05069e-05
3.05661e-05
2.83434e-05
2.57478e-05
2.33642e-05
2.12627e-05
1.94205e-05
1.77875e-05
1.63197e-05
1.49959e-05
1.38254e-05
1.28488e-05
1.21121e-05
1.16145e-05
1.12849e-05
1.09614e-05
1.03877e-05
9.31093e-06
7.69742e-06
5.90427e-06
4.53695e-06
4.2307e-06
6.31155e-06
1.82666e-06
7.19583e-08
1.45413e-08
2.09082e-06
4.78446e-06
8.78517e-06
1.44978e-05
2.14636e-05
2.78856e-05
3.13147e-05
3.21961e-05
3.27301e-05
3.21824e-05
2.97213e-05
2.70127e-05
2.44543e-05
2.21791e-05
2.02036e-05
1.84836e-05
1.69574e-05
1.55704e-05
1.42903e-05
1.31185e-05
1.20922e-05
1.12656e-05
1.06645e-05
1.02509e-05
9.89519e-06
9.36654e-06
8.42311e-06
7.04122e-06
5.56678e-06
4.54532e-06
4.64573e-06
7.05183e-06
1.82685e-06
8.11367e-08
1.83595e-08
2.14637e-06
5.03689e-06
9.57242e-06
1.62696e-05
2.42212e-05
3.08567e-05
3.34564e-05
3.42837e-05
3.4732e-05
3.2366e-05
2.93513e-05
2.6331e-05
2.36064e-05
2.12736e-05
1.9307e-05
1.76344e-05
1.61774e-05
1.48691e-05
1.36645e-05
1.25528e-05
1.15667e-05
1.07522e-05
1.01202e-05
9.63562e-06
9.19566e-06
8.61956e-06
7.72796e-06
6.53145e-06
5.33751e-06
4.62535e-06
5.11583e-06
7.38576e-06
1.82691e-06
8.90799e-08
2.25825e-08
2.18592e-06
5.2018e-06
1.01134e-05
1.75101e-05
2.60011e-05
3.24876e-05
3.55818e-05
3.61627e-05
3.45493e-05
3.17286e-05
2.84808e-05
2.53512e-05
2.26043e-05
2.0296e-05
1.8378e-05
1.67683e-05
1.53857e-05
1.41617e-05
1.30474e-05
1.20248e-05
1.11146e-05
1.03454e-05
9.70841e-06
9.16179e-06
8.62289e-06
7.96659e-06
7.09012e-06
6.04398e-06
5.09213e-06
4.651e-06
5.48559e-06
7.44446e-06
1.83517e-06
9.6014e-08
2.61226e-08
2.22977e-06
5.35035e-06
1.05582e-05
1.85135e-05
2.74439e-05
3.38371e-05
3.66638e-05
3.65941e-05
3.45069e-05
3.13164e-05
2.78355e-05
2.45941e-05
2.18117e-05
1.95064e-05
1.76088e-05
1.60309e-05
1.46915e-05
1.35229e-05
1.24782e-05
1.15424e-05
1.07341e-05
1.00567e-05
9.46704e-06
8.9041e-06
8.29354e-06
7.55721e-06
6.6648e-06
5.71068e-06
4.93362e-06
4.70983e-06
5.84638e-06
7.35174e-06
1.84295e-06
1.02544e-07
2.98256e-08
2.2635e-06
5.453e-06
1.08738e-05
1.92291e-05
2.8393e-05
3.45929e-05
3.70568e-05
3.66248e-05
3.42391e-05
3.08461e-05
2.72598e-05
2.39794e-05
2.11917e-05
1.88933e-05
1.70063e-05
1.54414e-05
1.41204e-05
1.29801e-05
1.19791e-05
1.11072e-05
1.03823e-05
9.78779e-06
9.25213e-06
8.69259e-06
8.03581e-06
7.23997e-06
6.33335e-06
5.44573e-06
4.80033e-06
4.74947e-06
6.13613e-06
7.22291e-06
1.8533e-06
1.08862e-07
3.32116e-08
2.29693e-06
5.54559e-06
1.11401e-05
1.98196e-05
2.91741e-05
3.52329e-05
3.74114e-05
3.6674e-05
3.40293e-05
3.04655e-05
2.67969e-05
2.34917e-05
2.07045e-05
1.84119e-05
1.65281e-05
1.4963e-05
1.36421e-05
1.25084e-05
1.15286e-05
1.07019e-05
1.00516e-05
9.54168e-06
9.07533e-06
8.54658e-06
7.87476e-06
7.04248e-06
6.12406e-06
5.28002e-06
4.72896e-06
4.81533e-06
6.41631e-06
7.07168e-06
1.86347e-06
1.15109e-07
3.67295e-08
2.32513e-06
5.61938e-06
1.13571e-05
2.02984e-05
2.97599e-05
3.56438e-05
3.7568e-05
3.65987e-05
3.37851e-05
3.01302e-05
2.64323e-05
2.31295e-05
2.03527e-05
1.80664e-05
1.6181e-05
1.46078e-05
1.32758e-05
1.21334e-05
1.11544e-05
1.03463e-05
9.7392e-06
9.28616e-06
8.87486e-06
8.38196e-06
7.71749e-06
6.87649e-06
5.96307e-06
5.15918e-06
4.68376e-06
4.8836e-06
6.66801e-06
6.93242e-06
1.87463e-06
1.2124e-07
4.01671e-08
2.35296e-06
5.69109e-06
1.15613e-05
2.07374e-05
3.02869e-05
3.60152e-05
3.77143e-05
3.65365e-05
3.35737e-05
2.98449e-05
2.61314e-05
2.28405e-05
2.00794e-05
1.7801e-05
1.59127e-05
1.43274e-05
1.29777e-05
1.18173e-05
1.08277e-05
1.00256e-05
9.44848e-06
9.04051e-06
8.67837e-06
8.22561e-06
7.58346e-06
6.75273e-06
5.85602e-06
5.09009e-06
4.67779e-06
4.97653e-06
6.92638e-06
6.79868e-06
1.88602e-06
1.27259e-07
4.37378e-08
2.37908e-06
5.75796e-06
1.17534e-05
2.11416e-05
3.07394e-05
3.62967e-05
3.77875e-05
3.64387e-05
3.3372e-05
2.9609e-05
2.5906e-05
2.26406e-05
1.99004e-05
1.76306e-05
1.57377e-05
1.41365e-05
1.27633e-05
1.15763e-05
1.05631e-05
9.74843e-06
9.17782e-06
8.79212e-06
8.46253e-06
8.04487e-06
7.43358e-06
6.63017e-06
5.76523e-06
5.04279e-06
4.69031e-06
5.0808e-06
7.18308e-06
6.6812e-06
1.8982e-06
1.33102e-07
4.72959e-08
2.40446e-06
5.8237e-06
1.19408e-05
2.15292e-05
3.11646e-05
3.65607e-05
3.78601e-05
3.63569e-05
3.32018e-05
2.94172e-05
2.57333e-05
2.24984e-05
1.97817e-05
1.75214e-05
1.56233e-05
1.40045e-05
1.26047e-05
1.13864e-05
1.03432e-05
9.50702e-06
8.93129e-06
8.55529e-06
8.2478e-06
7.86082e-06
7.28453e-06
6.51874e-06
5.69546e-06
5.0207e-06
4.72681e-06
5.20619e-06
7.45251e-06
6.57484e-06
1.91085e-06
1.38779e-07
5.09831e-08
2.42992e-06
5.8905e-06
1.21308e-05
2.19116e-05
3.15601e-05
3.67854e-05
3.79042e-05
3.627e-05
3.30543e-05
2.92713e-05
2.56218e-05
2.24252e-05
1.97356e-05
1.74857e-05
1.55818e-05
1.39433e-05
1.25131e-05
1.12579e-05
1.01763e-05
9.30626e-06
8.70954e-06
8.32716e-06
8.02799e-06
7.66369e-06
7.12268e-06
6.40172e-06
5.62903e-06
5.0079e-06
4.77478e-06
5.34348e-06
7.72752e-06
6.48499e-06
1.92447e-06
1.44266e-07
5.46577e-08
2.45446e-06
5.9557e-06
1.23159e-05
2.22797e-05
3.19356e-05
3.70017e-05
3.79565e-05
3.6207e-05
3.29434e-05
2.91703e-05
2.55593e-05
2.24031e-05
1.97414e-05
1.75026e-05
1.55929e-05
1.39337e-05
1.24708e-05
1.11748e-05
1.00493e-05
9.13786e-06
8.51034e-06
8.11158e-06
7.81205e-06
7.46523e-06
6.95947e-06
6.28775e-06
5.57122e-06
5.00764e-06
4.83725e-06
5.49675e-06
8.01204e-06
6.40695e-06
1.93865e-06
1.49585e-07
5.84523e-08
2.47972e-06
6.0238e-06
1.25087e-05
2.2654e-05
3.23005e-05
3.72014e-05
3.80005e-05
3.61523e-05
3.28589e-05
2.91102e-05
2.55465e-05
2.24358e-05
1.98054e-05
1.75799e-05
1.56657e-05
1.39855e-05
1.24876e-05
1.11471e-05
9.97131e-06
9.00879e-06
8.33759e-06
7.90979e-06
7.59891e-06
7.26205e-06
6.78905e-06
6.16863e-06
5.51249e-06
5.0104e-06
4.9057e-06
5.65847e-06
8.29927e-06
6.34432e-06
1.95381e-06
1.54739e-07
6.22253e-08
2.50406e-06
6.09036e-06
1.26975e-05
2.30171e-05
3.26517e-05
3.73998e-05
3.80585e-05
3.61246e-05
3.281e-05
2.90892e-05
2.55738e-05
2.25087e-05
1.99104e-05
1.76998e-05
1.57825e-05
1.40819e-05
1.25486e-05
1.11609e-05
9.93049e-06
8.91046e-06
8.18685e-06
7.72163e-06
7.39236e-06
7.0608e-06
6.61902e-06
6.05105e-06
5.45769e-06
5.01949e-06
4.98274e-06
5.83129e-06
8.59047e-06
6.29261e-06
1.96953e-06
1.59745e-07
6.61065e-08
2.52921e-06
6.15999e-06
1.28949e-05
2.33902e-05
3.30013e-05
3.75935e-05
3.81192e-05
3.61116e-05
3.27877e-05
2.91029e-05
2.56404e-05
2.26244e-05
2.00615e-05
1.78694e-05
1.59523e-05
1.42337e-05
1.26654e-05
1.12282e-05
9.93818e-06
8.8523e-06
8.06434e-06
7.55025e-06
7.1928e-06
6.85945e-06
6.44516e-06
5.92906e-06
5.39981e-06
5.02758e-06
5.06114e-06
6.0079e-06
8.879e-06
6.2539e-06
1.98606e-06
1.64615e-07
6.99626e-08
2.55349e-06
6.22845e-06
1.30904e-05
2.37575e-05
3.33441e-05
3.77913e-05
3.81959e-05
3.61235e-05
3.2794e-05
2.91451e-05
2.57342e-05
2.27669e-05
2.02407e-05
1.80698e-05
1.61566e-05
1.44234e-05
1.28221e-05
1.1335e-05
9.98235e-06
8.82591e-06
7.96622e-06
7.3959e-06
7.00383e-06
6.66374e-06
6.27396e-06
5.80854e-06
5.34358e-06
5.03838e-06
5.14408e-06
6.19143e-06
9.16671e-06
6.22439e-06
2.00309e-06
1.6936e-07
7.39145e-08
2.57834e-06
6.29947e-06
1.32946e-05
2.41373e-05
3.3692e-05
3.79936e-05
3.82834e-05
3.61541e-05
3.28252e-05
2.92157e-05
2.58584e-05
2.29419e-05
2.04559e-05
1.83106e-05
1.64059e-05
1.46623e-05
1.30304e-05
1.14932e-05
1.00743e-05
8.84044e-06
7.8985e-06
7.26175e-06
6.82617e-06
6.47229e-06
6.1021e-06
5.68465e-06
5.2831e-06
5.04542e-06
5.22471e-06
6.37442e-06
9.44736e-06
6.20515e-06
2.02071e-06
1.73993e-07
7.78402e-08
2.6022e-06
6.36934e-06
1.3499e-05
2.45177e-05
3.40417e-05
3.82062e-05
3.83882e-05
3.62048e-05
3.28752e-05
2.93021e-05
2.59964e-05
2.31311e-05
2.06876e-05
1.8572e-05
1.66813e-05
1.49328e-05
1.32746e-05
1.16895e-05
1.02037e-05
8.88879e-06
7.8588e-06
7.1492e-06
6.66403e-06
6.29094e-06
5.93589e-06
5.56324e-06
5.2234e-06
5.05299e-06
5.30696e-06
6.56101e-06
9.72429e-06
6.19324e-06
2.03872e-06
1.78518e-07
8.18512e-08
2.62618e-06
6.4406e-06
1.37104e-05
2.49122e-05
3.44059e-05
3.84358e-05
3.85112e-05
3.62746e-05
3.29448e-05
2.94085e-05
2.61558e-05
2.33439e-05
2.09466e-05
1.88655e-05
1.6994e-05
1.52458e-05
1.35654e-05
1.19339e-05
1.03795e-05
8.97846e-06
7.85207e-06
7.06076e-06
6.51793e-06
6.11854e-06
5.77266e-06
5.44031e-06
5.15947e-06
5.05537e-06
5.38438e-06
6.74333e-06
9.99018e-06
6.18849e-06
2.05701e-06
1.82947e-07
8.58357e-08
2.64896e-06
6.51004e-06
1.39207e-05
2.53055e-05
3.47678e-05
3.86669e-05
3.86461e-05
3.63535e-05
3.30192e-05
2.95176e-05
2.63176e-05
2.35611e-05
2.12134e-05
1.91718e-05
1.73258e-05
1.55847e-05
1.38884e-05
1.2215e-05
1.05935e-05
9.10476e-06
7.87776e-06
6.99903e-06
6.39253e-06
5.96082e-06
5.61837e-06
5.32144e-06
5.09631e-06
5.05709e-06
5.46142e-06
6.92727e-06
1.02543e-05
6.18879e-06
2.07542e-06
1.87281e-07
8.98962e-08
2.67163e-06
6.57994e-06
1.41349e-05
2.57019e-05
3.5111e-05
3.88773e-05
3.87653e-05
3.64342e-05
3.31023e-05
2.96384e-05
2.64936e-05
2.37948e-05
2.14999e-05
1.9502e-05
1.76869e-05
1.59587e-05
1.42518e-05
1.25401e-05
1.08522e-05
9.27313e-06
7.93989e-06
6.96627e-06
6.28871e-06
5.81747e-06
5.47151e-06
5.20393e-06
5.03014e-06
5.05356e-06
5.5331e-06
7.10794e-06
1.05144e-05
6.19883e-06
2.09422e-06
1.91527e-07
9.39301e-08
2.69317e-06
6.64779e-06
1.43444e-05
2.6084e-05
3.54352e-05
3.90717e-05
3.88717e-05
3.65067e-05
3.31791e-05
2.97533e-05
2.66643e-05
2.40254e-05
2.17871e-05
1.98383e-05
1.80608e-05
1.6353e-05
1.46431e-05
1.28994e-05
1.11489e-05
9.48027e-06
8.03921e-06
6.96559e-06
6.21101e-06
5.69383e-06
5.33763e-06
5.0931e-06
4.96586e-06
5.04919e-06
5.60323e-06
7.28826e-06
1.07718e-05
6.21543e-06
2.11353e-06
1.95682e-07
9.80402e-08
2.7148e-06
6.71714e-06
1.45589e-05
2.64637e-05
3.57452e-05
3.925e-05
3.89644e-05
3.65708e-05
3.3258e-05
2.98737e-05
2.68417e-05
2.42643e-05
2.20853e-05
2.01897e-05
1.84548e-05
1.67736e-05
1.50669e-05
1.32966e-05
1.14869e-05
9.72936e-06
8.17856e-06
6.99862e-06
6.16041e-06
5.59023e-06
5.21628e-06
4.98756e-06
4.90107e-06
5.04092e-06
5.66932e-06
7.46907e-06
1.1024e-05
6.23796e-06
2.13329e-06
1.99747e-07
1.02124e-07
2.73519e-06
6.78533e-06
1.47756e-05
2.68295e-05
3.60335e-05
3.94065e-05
3.90364e-05
3.66155e-05
3.33243e-05
2.99816e-05
2.70068e-05
2.44935e-05
2.23782e-05
2.05412e-05
1.88555e-05
1.72084e-05
1.5513e-05
1.37234e-05
1.18599e-05
1.00163e-05
8.35661e-06
7.06637e-06
6.13959e-06
5.51057e-06
5.11212e-06
4.89221e-06
4.84066e-06
5.03366e-06
5.73645e-06
7.65441e-06
1.12747e-05
6.2647e-06
2.15337e-06
2.03706e-07
1.06266e-07
2.75492e-06
6.8519e-06
1.49897e-05
2.71884e-05
3.63059e-05
3.9546e-05
3.90931e-05
3.66477e-05
3.33804e-05
3.00833e-05
2.71696e-05
2.47237e-05
2.26748e-05
2.08996e-05
1.92677e-05
1.76603e-05
1.59828e-05
1.41804e-05
1.22682e-05
1.03415e-05
8.57341e-06
7.16881e-06
6.14854e-06
5.45485e-06
5.02494e-06
4.80643e-06
4.78334e-06
5.02533e-06
5.80133e-06
7.83896e-06
1.15212e-05
6.29533e-06
2.17362e-06
2.07554e-07
1.10384e-07
2.77383e-06
6.9173e-06
1.52017e-05
2.75362e-05
3.65588e-05
3.96644e-05
3.91282e-05
3.66581e-05
3.34161e-05
3.01676e-05
2.73175e-05
2.4941e-05
2.29616e-05
2.12528e-05
1.96804e-05
1.81198e-05
1.64679e-05
1.46604e-05
1.27057e-05
1.07e-05
8.82539e-06
7.30489e-06
6.1882e-06
5.4255e-06
4.95832e-06
4.73449e-06
4.73367e-06
5.0204e-06
5.86819e-06
8.02664e-06
1.17653e-05
6.32831e-06
2.19388e-06
2.11269e-07
1.14556e-07
2.79237e-06
6.98224e-06
1.54139e-05
2.78782e-05
3.67963e-05
3.97653e-05
3.91463e-05
3.66532e-05
3.3439e-05
3.02444e-05
2.74592e-05
2.51527e-05
2.32446e-05
2.1605e-05
2.0096e-05
1.85872e-05
1.69671e-05
1.51613e-05
1.31706e-05
1.10902e-05
9.1111e-06
7.47355e-06
6.25777e-06
5.42207e-06
4.91199e-06
4.67612e-06
4.69104e-06
5.01765e-06
5.93484e-06
8.21396e-06
1.2005e-05
6.36355e-06
2.21406e-06
2.14844e-07
1.18703e-07
2.8103e-06
7.04638e-06
1.56243e-05
2.82091e-05
3.7014e-05
3.98442e-05
3.91409e-05
3.66234e-05
3.34369e-05
3.03018e-05
2.75825e-05
2.53475e-05
2.35139e-05
2.19478e-05
2.05071e-05
1.90558e-05
1.7474e-05
1.56768e-05
1.36564e-05
1.15064e-05
9.42621e-06
7.67278e-06
6.35713e-06
5.44584e-06
4.88837e-06
4.63454e-06
4.65913e-06
5.02079e-06
6.0048e-06
8.40463e-06
1.22414e-05
6.39985e-06
2.234e-06
2.1826e-07
1.22903e-07
2.82823e-06
7.11103e-06
1.5836e-05
2.8534e-05
3.72162e-05
3.99052e-05
3.91172e-05
3.65759e-05
3.34176e-05
3.0342e-05
2.76907e-05
2.55301e-05
2.37737e-05
2.22837e-05
2.09144e-05
1.95246e-05
1.79861e-05
1.62035e-05
1.41597e-05
1.19457e-05
9.7682e-06
7.90072e-06
6.48506e-06
5.49611e-06
4.88725e-06
4.60986e-06
4.63793e-06
5.02945e-06
6.07762e-06
8.59601e-06
1.24734e-05
6.43744e-06
2.25367e-06
2.21512e-07
1.27067e-07
2.84588e-06
7.1755e-06
1.6046e-05
2.88471e-05
3.73973e-05
3.99431e-05
3.90702e-05
3.65051e-05
3.33754e-05
3.03606e-05
2.77797e-05
2.5696e-05
2.40193e-05
2.26084e-05
2.13139e-05
1.99896e-05
1.84991e-05
1.67364e-05
1.46748e-05
1.2402e-05
1.01318e-05
8.154e-06
6.63983e-06
5.57254e-06
4.90944e-06
4.60393e-06
4.63035e-06
5.04775e-06
6.15878e-06
8.79239e-06
1.27024e-05
6.47556e-06
2.27296e-06
2.24585e-07
1.31247e-07
2.86362e-06
7.24046e-06
1.62545e-05
2.9151e-05
3.75635e-05
3.99625e-05
3.90015e-05
3.64123e-05
3.33125e-05
3.03609e-05
2.7853e-05
2.58482e-05
2.4253e-05
2.29229e-05
2.17054e-05
2.04492e-05
1.90103e-05
1.7272e-05
1.51979e-05
1.28718e-05
1.05141e-05
8.43005e-06
6.81948e-06
5.6738e-06
4.95417e-06
4.61642e-06
4.63624e-06
5.0752e-06
6.24637e-06
8.99261e-06
1.29282e-05
6.51469e-06
2.2919e-06
2.27476e-07
1.3539e-07
2.88114e-06
7.30705e-06
1.64627e-05
2.94473e-05
3.77125e-05
3.99628e-05
3.89145e-05
3.63014e-05
3.32304e-05
3.03386e-05
2.79026e-05
2.59796e-05
2.447e-05
2.32239e-05
2.2086e-05
2.09007e-05
1.95165e-05
1.78065e-05
1.57242e-05
1.33496e-05
1.09095e-05
8.72465e-06
7.0212e-06
5.79852e-06
5.0216e-06
4.64878e-06
4.65791e-06
5.11435e-06
6.34271e-06
9.19942e-06
1.31521e-05
6.55443e-06
2.31043e-06
2.30173e-07
1.39535e-07
2.89799e-06
7.37291e-06
1.66704e-05
2.97351e-05
3.78457e-05
3.99459e-05
3.88091e-05
3.61716e-05
3.31306e-05
3.03023e-05
2.79413e-05
2.60983e-05
2.4672e-05
2.35116e-05
2.24557e-05
2.13433e-05
2.00164e-05
1.83379e-05
1.62517e-05
1.38337e-05
1.13163e-05
9.03566e-06
7.24252e-06
5.94421e-06
5.10959e-06
4.69964e-06
4.69477e-06
5.16499e-06
6.44742e-06
9.41205e-06
1.33744e-05
6.59546e-06
2.32864e-06
2.32685e-07
1.43616e-07
2.91433e-06
7.43784e-06
1.6876e-05
3.00109e-05
3.79603e-05
3.99092e-05
3.86833e-05
3.6021e-05
3.3009e-05
3.02433e-05
2.79588e-05
2.62002e-05
2.48602e-05
2.37842e-05
2.28119e-05
2.17754e-05
2.05077e-05
1.88634e-05
1.67768e-05
1.43198e-05
1.17309e-05
9.36052e-06
7.48186e-06
6.10987e-06
5.21756e-06
4.76888e-06
4.74732e-06
5.22827e-06
6.56221e-06
9.63238e-06
1.35954e-05
6.63741e-06
2.34651e-06
2.3501e-07
1.47664e-07
2.93001e-06
7.50157e-06
1.70796e-05
3.02773e-05
3.80601e-05
3.98566e-05
3.85412e-05
3.58541e-05
3.28718e-05
3.01696e-05
2.79626e-05
2.62885e-05
2.50357e-05
2.40454e-05
2.31536e-05
2.21931e-05
2.09879e-05
1.93806e-05
1.72973e-05
1.48061e-05
1.21513e-05
9.69747e-06
7.73766e-06
6.29426e-06
5.34453e-06
4.85567e-06
4.81481e-06
5.30349e-06
6.68627e-06
9.85934e-06
1.38151e-05
6.68076e-06
2.36412e-06
2.37155e-07
1.51632e-07
2.94509e-06
7.5641e-06
1.72799e-05
3.05306e-05
3.81417e-05
3.97849e-05
3.83789e-05
3.56663e-05
3.27132e-05
3.00747e-05
2.79468e-05
2.63594e-05
2.51956e-05
2.42931e-05
2.34846e-05
2.25979e-05
2.14549e-05
1.98868e-05
1.78094e-05
1.52883e-05
1.25738e-05
1.00437e-05
8.00814e-06
6.49652e-06
5.49049e-06
4.96078e-06
4.89855e-06
5.39225e-06
6.82143e-06
1.00948e-05
1.40349e-05
6.72556e-06
2.3815e-06
2.3913e-07
1.55544e-07
2.95963e-06
7.62544e-06
1.74778e-05
3.07738e-05
3.82089e-05
3.9698e-05
3.82007e-05
3.54625e-05
3.2539e-05
2.99646e-05
2.79165e-05
2.64161e-05
2.53412e-05
2.45263e-05
2.38015e-05
2.299e-05
2.19067e-05
2.03787e-05
1.83105e-05
1.57637e-05
1.29955e-05
1.03963e-05
8.29054e-06
6.71428e-06
5.65369e-06
5.08319e-06
4.99825e-06
5.49481e-06
6.96807e-06
1.0339e-05
1.42565e-05
6.77264e-06
2.39881e-06
2.40957e-07
1.59342e-07
2.97334e-06
7.68467e-06
1.76703e-05
3.10029e-05
3.82585e-05
3.95924e-05
3.80026e-05
3.52381e-05
3.23442e-05
2.98347e-05
2.7868e-05
2.64562e-05
2.54714e-05
2.4745e-05
2.41041e-05
2.33682e-05
2.23459e-05
2.08554e-05
1.87976e-05
1.62297e-05
1.34139e-05
1.0753e-05
8.58278e-06
6.94566e-06
5.8326e-06
5.22193e-06
5.11366e-06
5.61154e-06
7.12704e-06
1.05924e-05
1.44787e-05
6.82179e-06
2.41607e-06
2.42657e-07
1.63058e-07
2.98651e-06
7.74262e-06
1.786e-05
3.12216e-05
3.8294e-05
3.94717e-05
3.77886e-05
3.49979e-05
3.21341e-05
2.96899e-05
2.78054e-05
2.64825e-05
2.55877e-05
2.49492e-05
2.43916e-05
2.37306e-05
2.27689e-05
2.13172e-05
1.92699e-05
1.66842e-05
1.38269e-05
1.11117e-05
8.88278e-06
7.18861e-06
6.02533e-06
5.37538e-06
5.24351e-06
5.74164e-06
7.29781e-06
1.08545e-05
1.47019e-05
6.87323e-06
2.43335e-06
2.44245e-07
1.66646e-07
2.99883e-06
7.79825e-06
1.80437e-05
3.14256e-05
3.83121e-05
3.93326e-05
3.75552e-05
3.47381e-05
3.1905e-05
2.95271e-05
2.77263e-05
2.64936e-05
2.56895e-05
2.51392e-05
2.46646e-05
2.40778e-05
2.31758e-05
2.17625e-05
1.97269e-05
1.71261e-05
1.4233e-05
1.1471e-05
9.1889e-06
7.44153e-06
6.23041e-06
5.54244e-06
5.38724e-06
5.88519e-06
7.48125e-06
1.11265e-05
1.49263e-05
6.92673e-06
2.45065e-06
2.45734e-07
1.70136e-07
3.01059e-06
7.85244e-06
1.8224e-05
3.16187e-05
3.83158e-05
3.91777e-05
3.73053e-05
3.44623e-05
3.16608e-05
2.935e-05
2.76338e-05
2.64916e-05
2.57779e-05
2.53149e-05
2.49222e-05
2.44081e-05
2.35646e-05
2.21891e-05
2.01662e-05
1.75535e-05
1.46312e-05
1.18299e-05
9.50016e-06
7.7032e-06
6.44651e-06
5.72177e-06
5.5437e-06
6.04135e-06
7.67671e-06
1.14079e-05
1.51522e-05
6.98257e-06
2.46804e-06
2.47142e-07
1.7349e-07
3.02151e-06
7.90425e-06
1.8398e-05
3.17971e-05
3.83022e-05
3.90046e-05
3.70365e-05
3.41681e-05
3.13994e-05
2.91571e-05
2.7527e-05
2.64762e-05
2.58532e-05
2.54773e-05
2.51656e-05
2.47229e-05
2.39361e-05
2.25972e-05
2.05874e-05
1.79655e-05
1.50182e-05
1.21855e-05
9.8145e-06
7.9721e-06
6.67237e-06
5.91236e-06
5.71222e-06
6.20993e-06
7.88463e-06
1.16992e-05
1.538e-05
7.04058e-06
2.48557e-06
2.48483e-07
1.76738e-07
3.03189e-06
7.95458e-06
1.85683e-05
3.19641e-05
3.82737e-05
3.88151e-05
3.67509e-05
3.38582e-05
3.11238e-05
2.8951e-05
2.74079e-05
2.64488e-05
2.59161e-05
2.56264e-05
2.53943e-05
2.50211e-05
2.4289e-05
2.29854e-05
2.09891e-05
1.83613e-05
1.53957e-05
1.25388e-05
1.01318e-05
8.24762e-06
6.90717e-06
6.11323e-06
5.89178e-06
6.38999e-06
8.1042e-06
1.19998e-05
1.56097e-05
7.10092e-06
2.50327e-06
2.49769e-07
1.79847e-07
3.04142e-06
8.00245e-06
1.87321e-05
3.21163e-05
3.8228e-05
3.86073e-05
3.64468e-05
3.35312e-05
3.0833e-05
2.87313e-05
2.72767e-05
2.64099e-05
2.59674e-05
2.57631e-05
2.56092e-05
2.53036e-05
2.46241e-05
2.33541e-05
2.13712e-05
1.87403e-05
1.57618e-05
1.28879e-05
1.04506e-05
8.52863e-06
7.15003e-06
6.32379e-06
6.08203e-06
6.58146e-06
8.33556e-06
1.23099e-05
1.58413e-05
7.16337e-06
2.52117e-06
2.5101e-07
1.82842e-07
3.05038e-06
8.04869e-06
1.88917e-05
3.22569e-05
3.81673e-05
3.83829e-05
3.61261e-05
3.31892e-05
3.05293e-05
2.85004e-05
2.71352e-05
2.63609e-05
2.6008e-05
2.58879e-05
2.58103e-05
2.557e-05
2.49406e-05
2.37023e-05
2.17329e-05
1.91018e-05
1.61165e-05
1.3233e-05
1.07709e-05
8.81474e-06
7.40033e-06
6.54326e-06
6.28219e-06
6.78362e-06
8.57847e-06
1.26294e-05
1.60755e-05
7.22817e-06
2.53932e-06
2.52216e-07
1.85702e-07
3.05855e-06
8.09263e-06
1.90454e-05
3.23834e-05
3.80897e-05
3.81403e-05
3.57875e-05
3.28317e-05
3.02126e-05
2.82582e-05
2.6984e-05
2.63027e-05
2.6039e-05
2.60019e-05
2.59988e-05
2.58211e-05
2.5239e-05
2.40301e-05
2.20738e-05
1.94451e-05
1.64585e-05
1.35729e-05
1.10918e-05
9.10554e-06
7.65788e-06
6.77153e-06
6.49231e-06
6.99733e-06
8.83272e-06
1.2958e-05
1.63118e-05
7.29488e-06
2.55779e-06
2.5339e-07
1.8845e-07
3.06616e-06
8.13497e-06
1.91948e-05
3.24984e-05
3.79969e-05
3.78807e-05
3.54326e-05
3.24603e-05
2.98846e-05
2.80067e-05
2.68244e-05
2.62363e-05
2.60611e-05
2.61056e-05
2.61747e-05
2.60568e-05
2.55187e-05
2.43368e-05
2.2393e-05
1.97694e-05
1.67873e-05
1.39067e-05
1.14124e-05
9.40025e-06
7.92213e-06
7.00839e-06
6.71255e-06
7.2227e-06
9.09908e-06
1.32965e-05
1.65512e-05
7.36386e-06
2.57663e-06
2.54542e-07
1.91071e-07
3.07304e-06
8.1752e-06
1.93389e-05
3.25998e-05
3.78871e-05
3.76028e-05
3.50604e-05
3.20748e-05
2.95458e-05
2.77464e-05
2.66574e-05
2.61627e-05
2.60756e-05
2.62004e-05
2.63396e-05
2.62784e-05
2.57808e-05
2.46228e-05
2.26905e-05
2.00741e-05
1.7102e-05
1.42336e-05
1.17321e-05
9.69834e-06
8.19272e-06
7.25368e-06
6.94281e-06
7.45948e-06
9.3775e-06
1.36446e-05
1.67934e-05
7.43494e-06
2.59582e-06
2.55683e-07
1.93583e-07
3.07938e-06
8.2139e-06
1.9479e-05
3.26899e-05
3.7762e-05
3.73078e-05
3.46724e-05
3.16769e-05
2.91978e-05
2.7479e-05
2.64842e-05
2.60832e-05
2.60833e-05
2.62868e-05
2.64938e-05
2.64864e-05
2.60257e-05
2.48884e-05
2.29664e-05
2.03591e-05
1.74022e-05
1.45524e-05
1.20493e-05
9.99843e-06
8.46861e-06
7.50668e-06
7.18286e-06
7.70799e-06
9.66901e-06
1.40036e-05
1.70395e-05
7.50858e-06
2.61547e-06
2.56825e-07
1.95975e-07
3.08505e-06
8.25062e-06
1.9614e-05
3.27669e-05
3.76199e-05
3.69943e-05
3.42679e-05
3.12666e-05
2.8841e-05
2.7205e-05
2.63058e-05
2.59986e-05
2.60855e-05
2.63664e-05
2.6639e-05
2.66822e-05
2.62548e-05
2.5135e-05
2.3222e-05
2.06257e-05
1.76888e-05
1.48633e-05
1.23641e-05
1.03003e-05
8.74944e-06
7.76676e-06
7.43181e-06
7.9672e-06
9.97257e-06
1.43723e-05
1.72887e-05
7.58443e-06
2.63554e-06
2.57978e-07
1.98259e-07
3.09014e-06
8.28565e-06
1.97447e-05
3.28318e-05
3.74617e-05
3.66633e-05
3.3848e-05
3.08453e-05
2.84769e-05
2.69259e-05
2.61233e-05
2.59099e-05
2.60827e-05
2.64395e-05
2.67754e-05
2.68661e-05
2.64686e-05
2.53634e-05
2.34583e-05
2.08748e-05
1.79628e-05
1.51659e-05
1.2675e-05
1.06027e-05
9.03422e-06
8.0335e-06
7.68961e-06
8.23746e-06
1.0289e-05
1.47519e-05
1.75416e-05
7.66257e-06
2.65607e-06
2.59149e-07
2.00427e-07
3.09456e-06
8.31864e-06
1.987e-05
3.28833e-05
3.7286e-05
3.63135e-05
3.34122e-05
3.04132e-05
2.81062e-05
2.66426e-05
2.59376e-05
2.58182e-05
2.60761e-05
2.65073e-05
2.69042e-05
2.70393e-05
2.66683e-05
2.5575e-05
2.36774e-05
2.11096e-05
1.82281e-05
1.54622e-05
1.29829e-05
1.09056e-05
9.32278e-06
8.30661e-06
7.95572e-06
8.51805e-06
1.06174e-05
1.51414e-05
1.77983e-05
7.74301e-06
2.67709e-06
2.6035e-07
2.02491e-07
3.09839e-06
8.34981e-06
1.99905e-05
3.2922e-05
3.70934e-05
3.59456e-05
3.29618e-05
2.99716e-05
2.77302e-05
2.63561e-05
2.57498e-05
2.57241e-05
2.60663e-05
2.65703e-05
2.70258e-05
2.72022e-05
2.68543e-05
2.57705e-05
2.38801e-05
2.13316e-05
1.84867e-05
1.57527e-05
1.32871e-05
1.12082e-05
9.61444e-06
8.58571e-06
8.23031e-06
8.80962e-06
1.09589e-05
1.55417e-05
1.80592e-05
7.82587e-06
2.69866e-06
2.61596e-07
2.0445e-07
3.10155e-06
8.37892e-06
2.01055e-05
3.29468e-05
3.68823e-05
3.55586e-05
3.24964e-05
2.95211e-05
2.73496e-05
2.60676e-05
2.55607e-05
2.56286e-05
2.60541e-05
2.66292e-05
2.71409e-05
2.73557e-05
2.70276e-05
2.59509e-05
2.4068e-05
2.1542e-05
1.87392e-05
1.6038e-05
1.35877e-05
1.15099e-05
9.90828e-06
8.87004e-06
8.51295e-06
9.11157e-06
1.13127e-05
1.59521e-05
1.83238e-05
7.91115e-06
2.72082e-06
2.62896e-07
2.06317e-07
3.10412e-06
8.40623e-06
2.02158e-05
3.29582e-05
3.66531e-05
3.5153e-05
3.20169e-05
2.90627e-05
2.69657e-05
2.5778e-05
2.53715e-05
2.55327e-05
2.60403e-05
2.66847e-05
2.72502e-05
2.75003e-05
2.71887e-05
2.61167e-05
2.42407e-05
2.17393e-05
1.89826e-05
1.63159e-05
1.38833e-05
1.18096e-05
1.02035e-05
9.15892e-06
8.80317e-06
9.42426e-06
1.16796e-05
1.63729e-05
1.85912e-05
7.99846e-06
2.74354e-06
2.64251e-07
2.08095e-07
3.10605e-06
8.4315e-06
2.03206e-05
3.2955e-05
3.64045e-05
3.47278e-05
3.15232e-05
2.85967e-05
2.65791e-05
2.54887e-05
2.51834e-05
2.54375e-05
2.6026e-05
2.6738e-05
2.73548e-05
2.76372e-05
2.73393e-05
2.62696e-05
2.44e-05
2.19247e-05
1.92165e-05
1.65856e-05
1.41728e-05
1.21061e-05
1.04988e-05
9.45108e-06
9.09986e-06
9.74661e-06
1.20582e-05
1.68028e-05
1.88598e-05
8.08727e-06
2.76675e-06
2.65653e-07
2.09796e-07
3.10738e-06
8.45496e-06
2.04205e-05
3.29379e-05
3.61366e-05
3.42832e-05
3.10156e-05
2.81236e-05
2.61906e-05
2.52007e-05
2.49976e-05
2.53438e-05
2.6012e-05
2.67897e-05
2.74555e-05
2.77672e-05
2.74799e-05
2.64102e-05
2.45462e-05
2.2098e-05
1.944e-05
1.68464e-05
1.44556e-05
1.23987e-05
1.07933e-05
9.7459e-06
9.40259e-06
1.00788e-05
1.245e-05
1.72426e-05
1.91291e-05
8.1772e-06
2.79042e-06
2.67101e-07
2.11421e-07
3.10805e-06
8.47626e-06
2.05147e-05
3.29056e-05
3.58483e-05
3.38184e-05
3.04939e-05
2.76431e-05
2.57999e-05
2.49161e-05
2.4815e-05
2.5252e-05
2.59986e-05
2.68405e-05
2.75533e-05
2.78917e-05
2.7612e-05
2.65404e-05
2.46815e-05
2.22612e-05
1.9654e-05
1.70985e-05
1.47312e-05
1.26867e-05
1.10864e-05
1.00425e-05
9.71067e-06
1.04202e-05
1.28541e-05
1.76912e-05
1.93988e-05
8.26826e-06
2.81457e-06
2.68601e-07
2.12981e-07
3.10813e-06
8.49575e-06
2.0604e-05
3.2859e-05
3.55397e-05
3.33337e-05
2.99587e-05
2.71559e-05
2.54066e-05
2.46319e-05
2.46333e-05
2.51612e-05
2.5986e-05
2.68913e-05
2.7649e-05
2.80113e-05
2.77365e-05
2.66611e-05
2.48071e-05
2.2416e-05
1.98594e-05
1.73421e-05
1.49997e-05
1.29697e-05
1.13774e-05
1.03406e-05
1.00241e-05
1.07714e-05
1.32717e-05
1.81504e-05
1.96685e-05
8.35991e-06
2.83912e-06
2.7014e-07
2.14485e-07
3.10759e-06
8.5133e-06
2.06883e-05
3.27972e-05
3.52098e-05
3.28285e-05
2.94104e-05
2.66625e-05
2.50108e-05
2.43468e-05
2.44518e-05
2.50713e-05
2.59746e-05
2.69428e-05
2.7744e-05
2.81279e-05
2.78556e-05
2.67749e-05
2.49264e-05
2.25661e-05
2.00581e-05
1.75782e-05
1.52612e-05
1.32474e-05
1.16657e-05
1.06392e-05
1.03417e-05
1.11311e-05
1.37011e-05
1.8618e-05
1.99378e-05
8.45235e-06
2.86409e-06
2.71733e-07
2.15944e-07
3.10649e-06
8.52915e-06
2.07679e-05
3.27203e-05
3.48585e-05
3.23036e-05
2.885e-05
2.6164e-05
2.4614e-05
2.40628e-05
2.42722e-05
2.49837e-05
2.59653e-05
2.69954e-05
2.78384e-05
2.82417e-05
2.79699e-05
2.68838e-05
2.50426e-05
2.27161e-05
2.02533e-05
1.78083e-05
1.55163e-05
1.35202e-05
1.19514e-05
1.09382e-05
1.06637e-05
1.14997e-05
1.41429e-05
1.90944e-05
2.02063e-05
8.54521e-06
2.88946e-06
2.73382e-07
2.17364e-07
3.10485e-06
8.54324e-06
2.08426e-05
3.26275e-05
3.4485e-05
3.17586e-05
2.82779e-05
2.56607e-05
2.42157e-05
2.37784e-05
2.4093e-05
2.48971e-05
2.59575e-05
2.70494e-05
2.79331e-05
2.8354e-05
2.80813e-05
2.69897e-05
2.51584e-05
2.2869e-05
2.04471e-05
1.80338e-05
1.57659e-05
1.37879e-05
1.2234e-05
1.12369e-05
1.0989e-05
1.18759e-05
1.45951e-05
1.95767e-05
2.04722e-05
8.63781e-06
2.91506e-06
2.75073e-07
2.18751e-07
3.10265e-06
8.55556e-06
2.09122e-05
3.25188e-05
3.40895e-05
3.11947e-05
2.76956e-05
2.5154e-05
2.38174e-05
2.34954e-05
2.39155e-05
2.48123e-05
2.59515e-05
2.71048e-05
2.80281e-05
2.84649e-05
2.81897e-05
2.70928e-05
2.52738e-05
2.30243e-05
2.06402e-05
1.8256e-05
1.60109e-05
1.40515e-05
1.2514e-05
1.15356e-05
1.13179e-05
1.22602e-05
1.50587e-05
2.00656e-05
2.07358e-05
8.73013e-06
2.9409e-06
2.76804e-07
2.20102e-07
3.09986e-06
8.56588e-06
2.09762e-05
3.23931e-05
3.36713e-05
3.06122e-05
2.7104e-05
2.46446e-05
2.34192e-05
2.32132e-05
2.37392e-05
2.4729e-05
2.5947e-05
2.71613e-05
2.81232e-05
2.85743e-05
2.82953e-05
2.71931e-05
2.53879e-05
2.31796e-05
2.08318e-05
1.84752e-05
1.62522e-05
1.43115e-05
1.27916e-05
1.18341e-05
1.16498e-05
1.26513e-05
1.55311e-05
2.05581e-05
2.09956e-05
8.82181e-06
2.96689e-06
2.78572e-07
2.21423e-07
3.09645e-06
8.5741e-06
2.10342e-05
3.22504e-05
3.32306e-05
3.00117e-05
2.65041e-05
2.41335e-05
2.3022e-05
2.29325e-05
2.35642e-05
2.46467e-05
2.59433e-05
2.72184e-05
2.8218e-05
2.86822e-05
2.83986e-05
2.7291e-05
2.55006e-05
2.3334e-05
2.10211e-05
1.86913e-05
1.64902e-05
1.45688e-05
1.30676e-05
1.21329e-05
1.19847e-05
1.30499e-05
1.60132e-05
2.10543e-05
2.1252e-05
8.91279e-06
2.99303e-06
2.80381e-07
2.22709e-07
3.0924e-06