/*--------------------------------*- C++ -*----------------------------------*\
| =========                 |                                                 |
| \\      /  F ield         | OpenFOAM: The Open Source CFD Toolbox           |
|  \\    /   O peration     | Version:  v2006                                 |
|   \\  /    A nd           | Website:  www.openfoam.com                      |
|    \\/     M anipulation  |                                                 |
\*---------------------------------------------------------------------------*/
FoamFile
{
    version     2.0;
    format      ascii;
    class       volScalarField;
    location    "62";
    object      omega;
}
// * * * * * * * * * * * * * * * * * * * * * * * * * * * * * * * * * * * * * //

dimensions      [0 0 -1 0 0 0 0];


internalField   nonuniform List<scalar> 
78750
(
352.756
13.6259
13.6671
13.7016
13.7328
13.7601
13.7831
13.8019
13.8169
13.8284
13.8369
13.8427
13.8459
13.847
13.846
13.8431
13.8383
13.8319
13.824
13.8148
13.8045
13.7932
13.7809
13.7676
13.7534
13.7384
13.7226
13.7061
13.6887
13.6709
13.6535
13.6397
13.636
13.6512
357.054
517.593
4.16859
4.27189
4.36925
4.45574
4.52735
4.58398
4.62829
4.66207
4.68636
4.70215
4.71016
4.71114
4.70592
4.69532
4.6801
4.66081
4.6381
4.61264
4.58506
4.55598
4.52587
4.49513
4.46422
4.43338
4.4027
4.37215
4.3416
4.31099
4.28006
4.24801
4.21531
4.18767
4.17737
524.564
517.592
4.17883
4.29246
4.39893
4.49496
4.57702
4.64268
4.69377
4.73344
4.76323
4.78395
4.79638
4.80124
4.79926
4.79106
4.777
4.75763
4.7336
4.70567
4.67469
4.64161
4.60736
4.57276
4.53836
4.50445
4.47109
4.43818
4.40544
4.37237
4.33821
4.30265
4.2678
4.24154
4.23514
525.152
517.605
4.23049
4.37761
4.50866
4.61958
4.70845
4.77629
4.82631
4.86277
4.88846
4.90463
4.91226
4.9123
4.90531
4.89175
4.87217
4.84724
4.81772
4.78446
4.74844
4.71078
4.67268
4.63517
4.59872
4.56329
4.52856
4.49409
4.45938
4.42378
4.38666
4.34837
4.31242
4.28776
4.28341
525.613
517.617
4.2762
4.44985
4.5982
4.71704
4.80656
4.87115
4.91723
4.94985
4.97131
4.98278
4.98537
4.98002
4.96714
4.94718
4.9208
4.88887
4.85241
4.81262
4.77085
4.72871
4.68801
4.65026
4.61584
4.58408
4.55381
4.52372
4.49261
4.45944
4.42363
4.38617
4.35162
4.32923
4.32593
526.02
517.634
4.32471
4.5228
4.686
4.8109
4.90088
4.96387
5.00793
5.03816
5.05682
5.06524
5.06445
5.05483
5.03669
5.01056
4.97723
4.93775
4.89337
4.84555
4.79595
4.74662
4.70005
4.65855
4.62287
4.5923
4.56522
4.53962
4.51346
4.48497
4.45313
4.41894
4.3872
4.36675
4.36302
526.349
517.648
4.36347
4.58041
4.75504
4.88462
4.97521
5.03739
5.08041
5.10922
5.12587
5.13184
5.12776
5.11384
5.0904
5.05807
5.01783
4.97097
4.919
4.86363
4.80688
4.75125
4.6999
4.65557
4.619
4.58941
4.56515
4.54398
4.52338
4.50095
4.47509
4.44628
4.41889
4.40065
4.39609
526.65
517.663
4.40314
4.63806
4.82323
4.9571
5.0486
5.11066
5.15286
5.18029
5.19545
5.19939
5.19242
5.17467
5.14648
5.1086
5.06215
5.0086
4.94966
4.88727
4.82371
4.76188
4.70544
4.65743
4.61845
4.5878
4.56406
4.54515
4.52853
4.51148
4.4918
4.46913
4.44671
4.43081
4.42531
526.914
517.677
4.43585
4.68556
4.87979
5.01783
5.11075
5.1732
5.21531
5.24225
5.25632
5.25838
5.24864
5.22721
5.19447
5.15131
5.09902
5.03927
4.97398
4.90535
4.836
4.76929
4.70945
4.65928
4.6189
4.58748
4.56383
4.54624
4.53247
4.51986
4.50583
4.48912
4.47165
4.45811
4.45194
527.161
517.69
4.46876
4.7329
4.9358
5.07779
5.17216
5.23508
5.27718
5.3036
5.31657
5.31684
5.30456
5.27978
5.24298
5.19511
5.13763
5.07235
5.00139
4.92715
4.85255
4.7814
4.71841
4.66609
4.62408
4.59141
4.567
4.54955
4.53726
4.52777
4.51835
4.50697
4.49412
4.48296
4.47658
527.385
517.703
4.49855
4.7756
4.98635
5.13211
5.228
5.29152
5.33368
5.35965
5.37157
5.37012
5.35534
5.3273
5.28652
5.23411
5.17165
5.10114
5.02491
4.94559
4.86644
4.79179
4.72689
4.6736
4.63099
4.59786
4.57312
4.55571
4.54431
4.537
4.53115
4.52417
4.51529
4.50635
4.50008
527.597
517.716
4.52829
4.81781
5.03598
5.18521
5.28252
5.34661
5.38885
5.41442
5.42538
5.42231
5.40521
5.37417
5.32975
5.27316
5.20613
5.13079
5.04964
4.96553
4.88205
4.804
4.73715
4.6829
4.63983
4.60644
4.58154
4.56416
4.55334
4.54756
4.54445
4.54105
4.53556
4.52867
4.52269
527.794
517.729
4.55665
4.85774
5.08273
5.23513
5.33373
5.39835
5.44066
5.46581
5.47582
5.47116
5.4518
5.41782
5.36988
5.30927
5.23786
5.15792
5.07211
4.9835
4.89602
4.815
4.74673
4.69207
4.64912
4.61609
4.59159
4.57466
4.56452
4.56002
4.55904
4.55847
4.55572
4.55053
4.54479
527.982
517.742
4.58499
4.89716
5.12852
5.28379
5.38357
5.44871
5.49111
5.51591
5.52504
5.51891
5.49746
5.46078
5.40959
5.34526
5.26976
5.18549
5.09524
5.00226
4.91078
4.82662
4.75667
4.70144
4.65867
4.6262
4.60242
4.58628
4.57706
4.57383
4.57466
4.5764
4.57588
4.57209
4.5664
528.159
517.755
4.61232
4.93484
5.17209
5.32999
5.43089
5.49654
5.53905
5.56355
5.57187
5.56438
5.54095
5.50174
5.44751
5.37971
5.3004
5.21206
5.11761
5.02045
4.92511
4.83787
4.76626
4.71055
4.6681
4.63647
4.6138
4.59886
4.5909
4.58906
4.59156
4.5952
4.5964
4.59361
4.58767
528.33
517.769
4.63974
4.97222
5.21497
5.37526
5.47715
5.5433
5.58596
5.61021
5.61781
5.60906
5.58382
5.54228
5.48526
5.41427
5.33142
5.23928
5.14082
5.03957
4.94033
4.84977
4.77613
4.71963
4.67737
4.64662
4.62522
4.61178
4.60539
4.60518
4.60936
4.61468
4.61725
4.61512
4.60861
528.494
517.782
4.66616
5.00794
5.25583
5.41836
5.52126
5.58796
5.63084
5.65494
5.66193
5.65207
5.62522
5.58158
5.52204
5.44816
5.36208
5.26642
5.1642
5.05904
4.95593
4.86195
4.78604
4.72858
4.68644
4.6566
4.63668
4.62501
4.62052
4.62216
4.62807
4.63489
4.6385
4.63669
4.62926
528.653
517.796
4.69275
5.04357
5.29631
5.4609
5.56473
5.63197
5.6751
5.69907
5.70552
5.69465
5.66632
5.62078
5.55896
5.48245
5.39344
5.29451
5.18872
5.07978
4.97279
4.87513
4.79647
4.73764
4.69532
4.66629
4.64788
4.63817
4.63582
4.63957
4.64736
4.65564
4.66009
4.65832
4.64964
528.805
517.81
4.71837
5.07765
5.33495
5.50153
5.60634
5.6742
5.71767
5.74163
5.74766
5.73593
5.70632
5.65911
5.59528
5.51647
5.42483
5.32293
5.21383
5.10126
4.99045
4.88898
4.80722
4.74667
4.70397
4.67565
4.65882
4.65125
4.65131
4.65741
4.6672
4.67688
4.68198
4.68
4.66978
528.953
517.824
4.74419
5.11174
5.37344
5.54191
5.64767
5.71615
5.75997
5.78395
5.78959
5.77707
5.74628
5.69757
5.63197
5.55111
5.45714
5.35257
5.24041
5.1244
5.00979
4.90427
4.81884
4.75604
4.71251
4.68465
4.66932
4.66398
4.66663
4.67531
4.68727
4.69841
4.70406
4.70169
4.68969
529.097
517.838
4.76909
5.14441
5.41028
5.58065
5.68746
5.75667
5.80092
5.82497
5.8303
5.81709
5.78529
5.73529
5.66816
5.58556
5.48957
5.38266
5.26776
5.1485
5.03015
4.92052
4.83105
4.7656
4.7209
4.6933
4.67941
4.67639
4.68184
4.69331
4.7076
4.72022
4.72632
4.7234
4.70939
529.236
517.852
4.79414
5.1771
5.44709
5.61937
5.72727
5.79724
5.84191
5.86601
5.87101
5.85713
5.82439
5.77325
5.70481
5.62074
5.52304
5.41411
5.29676
5.17449
5.0525
4.93859
4.84454
4.77582
4.7294
4.70165
4.689
4.68827
4.69662
4.71108
4.72787
4.74207
4.74861
4.74504
4.72886
529.372
517.866
4.81829
5.20844
5.48242
5.65673
5.76594
5.8368
5.88188
5.90597
5.91062
5.89612
5.86255
5.81046
5.74096
5.65568
5.5566
5.446
5.32655
5.20155
5.07609
4.95791
4.85899
4.78658
4.73804
4.7098
4.69821
4.69977
4.71114
4.72873
4.74818
4.76401
4.77099
4.76667
4.74815
529.505
517.881
4.84245
5.23965
5.51764
5.69418
5.80504
5.87692
5.92218
5.94605
5.95023
5.93509
5.90078
5.84789
5.77755
5.69135
5.5912
5.47926
5.35803
5.2306
5.10183
4.97933
4.87513
4.79843
4.74713
4.71789
4.70702
4.71071
4.7251
4.74596
4.76821
4.78577
4.79317
4.78813
4.7672
529.634
517.895
4.86569
5.26944
5.55129
5.73022
5.84299
5.91594
5.96161
5.98502
5.98864
5.97292
5.93801
5.88451
5.81357
5.72673
5.62583
5.51289
5.39024
5.26072
5.12896
5.00229
4.89271
4.81135
4.75683
4.72614
4.71566
4.72133
4.73875
4.76297
4.78811
4.8075
4.81556
4.80947
4.78603
529.761
517.91
4.88885
5.29895
5.58458
5.76609
5.88018
5.95408
6.00033
6.02375
6.02682
6.01059
5.9752
5.92128
5.84995
5.76273
5.66136
5.54775
5.42402
5.29276
5.15827
5.02757
4.91242
4.82592
4.76755
4.73479
4.7242
4.73155
4.75189
4.7795
4.80768
4.82911
4.83812
4.83102
4.80468
529.886
517.925
4.9111
5.32704
5.61613
5.80003
5.91556
5.99053
6.03749
6.06113
6.06374
6.04709
6.01136
5.95718
5.88567
5.79831
5.69677
5.58282
5.45839
5.32579
5.18899
5.05462
4.93412
4.84221
4.77953
4.74416
4.73299
4.74168
4.7648
4.79578
4.82703
4.85056
4.86079
4.8528
4.82324
530.01
517.939
4.93331
5.35496
5.64745
5.83347
5.95024
6.02621
6.07391
6.09793
6.10037
6.08334
6.04734
5.99305
5.92155
5.83429
5.73283
5.61884
5.49405
5.36049
5.22176
5.08405
4.95839
4.86075
4.79322
4.7546
4.74222
4.75179
4.77739
4.81167
4.84612
4.87221
4.88351
4.87464
4.84169
530.132
517.954
4.9546
5.38157
5.67762
5.86519
5.98307
6.06007
6.10861
6.13318
6.13577
6.11833
6.08217
6.02792
5.95663
5.86969
5.76859
5.65487
5.53006
5.39595
5.25577
5.11523
4.98488
4.88145
4.80879
4.76641
4.75226
4.76223
4.79002
4.82748
4.86522
4.89413
4.90641
4.89655
4.86002
530.253
517.969
4.97558
5.40751
5.70686
5.89598
6.01501
6.09306
6.14246
6.16761
6.17041
6.15273
6.11657
6.06253
5.99163
5.90521
5.80468
5.69148
5.56697
5.43267
5.29144
5.14851
5.0139
4.90465
4.82655
4.77989
4.76335
4.77313
4.8027
4.84316
4.88419
4.91605
4.9293
4.91841
4.87816
530.373
517.984
4.99575
5.43221
5.73459
5.9251
6.04523
6.12432
6.17463
6.20046
6.20361
6.18585
6.14981
6.09608
6.02571
5.93997
5.84024
5.72782
5.60392
5.46981
5.328
5.18322
5.04491
4.9301
4.84654
4.79528
4.77584
4.78489
4.81581
4.859
4.90325
4.93804
4.95222
4.9402
4.89607
530.491
517.998
5.01565
5.45634
5.76155
5.95335
6.07452
6.15464
6.20588
6.23242
6.23605
6.2184
6.18249
6.12915
6.0594
5.97451
5.87575
5.76433
5.64131
5.50771
5.36571
5.21956
5.07806
4.95796
4.86894
4.81281
4.78994
4.79767
4.8294
4.87499
4.9223
4.95996
4.97502
4.96181
4.91368
530.609
518.013
5.03479
5.47928
5.78703
5.97998
6.10213
6.18326
6.23542
6.26273
6.26693
6.24967
6.21387
6.16099
6.092
6.0081
5.9105
5.80029
5.6784
5.54564
5.40388
5.25686
5.11277
4.9879
4.89368
4.83262
4.80596
4.81181
4.84383
4.89139
4.94148
4.98187
4.9977
4.98321
4.93094
530.726
518.028
5.05371
5.50175
5.81181
6.00576
6.1288
6.2109
6.26396
6.29201
6.29678
6.27991
6.24434
6.19204
6.12395
6.04118
5.94487
5.83604
5.71548
5.58382
5.44262
5.29519
5.14906
5.01994
4.92085
4.85486
4.82408
4.82752
4.85921
4.90825
4.96087
5.00367
5.02015
5.00431
4.9478
530.842
518.043
5.07194
5.52314
5.83519
6.02997
6.15384
6.23686
6.29081
6.31964
6.32504
6.30864
6.27342
6.22182
6.15472
6.07319
5.97831
5.871
5.75196
5.62163
5.48133
5.33394
5.18636
5.05368
4.95021
4.87948
4.84444
4.84502
4.87584
4.92591
4.98087
5.02554
5.04241
5.02507
4.96421
530.957
518.058
5.08992
5.54412
5.85787
6.0533
6.17789
6.26177
6.31657
6.34616
6.35218
6.33632
6.3015
6.25068
6.18467
6.10448
6.01111
5.90544
5.78805
5.65924
5.5201
5.37311
5.22462
5.08901
4.98169
4.90651
4.86712
4.86445
4.89385
4.94443
5.00135
5.04746
5.06445
5.04545
4.98014
531.07
518.073
5.10727
5.56442
5.87923
6.07508
6.2003
6.28503
6.3407
6.37106
6.37774
6.36243
6.32814
6.27822
6.21341
6.13465
6.04291
5.93897
5.82336
5.69623
5.55848
5.41224
5.26334
5.12551
5.01496
4.93575
4.89213
4.88597
4.91345
4.964
5.02236
5.06946
5.08626
5.06543
4.99555
531.183
518.087
5.12411
5.58394
5.89961
6.09582
6.22166
6.30721
6.36372
6.39486
6.40221
6.38751
6.35378
6.30476
6.2412
6.16398
6.07393
5.97182
5.85809
5.73277
5.59659
5.4514
5.30252
5.16306
5.04986
4.96705
4.91936
4.90954
4.9347
4.98466
5.04392
5.09153
5.10784
5.08499
5.01044
531.293
518.102
5.1402
5.60228
5.91859
6.11504
6.24144
6.32778
6.38513
6.41704
6.4251
6.41105
6.378
6.33
6.26774
6.19207
6.10386
6.00365
5.89189
5.76851
5.63409
5.49021
5.3418
5.20136
5.08613
5.0002
4.94868
4.93512
4.95758
5.00644
5.06604
5.1137
5.12919
5.10413
5.02481
531.403
518.116
5.15568
5.61978
5.93657
6.1332
6.26012
6.34723
6.40539
6.43807
6.44683
6.43347
6.40114
6.3542
6.2933
6.21922
6.13277
6.0346
5.92489
5.80355
5.67104
5.52873
5.38116
5.24033
5.12366
5.03511
4.98002
4.96268
4.98209
5.02932
5.08869
5.13591
5.15029
5.12284
5.03867
531.511
518.13
5.17038
5.63613
5.9532
6.14992
6.27731
6.36515
6.42409
6.45752
6.467
6.45436
6.42285
6.37706
6.31758
6.24516
6.16056
6.06435
5.9568
5.83759
5.70712
5.56659
5.42024
5.27963
5.16218
5.07158
5.0133
4.99224
5.00832
5.05339
5.11193
5.1582
5.17115
5.14112
5.05201
531.617
518.144
5.18447
5.65163
5.96885
6.16558
6.29339
6.38192
6.44163
6.47579
6.48598
6.47408
6.44342
6.39881
6.34079
6.27007
6.18735
6.09315
5.9877
5.87073
5.74239
5.60381
5.459
5.31913
5.20145
5.10936
5.04832
5.02368
5.03625
5.07869
5.13581
5.18062
5.19178
5.15898
5.06488
531.722
518.157
5.1977
5.66597
5.98317
6.17985
6.30804
6.39723
6.45766
6.49255
6.50345
6.49233
6.46259
6.41922
6.36271
6.29372
6.21291
6.12077
6.01746
5.90267
5.7766
5.64014
5.49715
5.35853
5.24118
5.14813
5.08478
5.0568
5.06576
5.10518
5.16031
5.20316
5.21222
5.17646
5.07732
531.825
518.171
5.21032
5.67949
5.99654
6.19309
6.32161
6.41141
6.47254
6.50812
6.51972
6.50937
6.4806
6.4385
6.38351
6.31627
6.23739
6.14732
6.04619
5.93363
5.80981
5.6756
5.53467
5.39775
5.2812
5.18767
5.12242
5.09134
5.09667
5.13276
5.1854
5.22585
5.23249
5.1936
5.08937
531.926
518.183
5.2221
5.6919
6.00866
6.20502
6.33382
6.42419
6.48599
6.52225
6.53454
6.525
6.49724
6.45645
6.40302
6.33755
6.26063
6.17264
6.0737
5.96341
5.84191
5.71004
5.57141
5.43659
5.32127
5.22772
5.16099
5.1271
5.12883
5.16134
5.21106
5.24869
5.25263
5.21043
5.10106
532.026
518.196
5.23327
5.70351
6.01986
6.21595
6.34498
6.43588
6.4983
6.5352
6.54817
6.53942
6.51272
6.47325
6.42139
6.3577
6.28272
6.19683
6.10007
5.99207
5.87293
5.74349
5.60737
5.47501
5.36131
5.26812
5.20027
5.16384
5.16205
5.1908
5.23724
5.27168
5.27266
5.22699
5.11245
532.125
518.208
5.24364
5.71406
6.02987
6.22564
6.35486
6.44626
6.50928
6.5468
6.56043
6.55249
6.52689
6.48878
6.43852
6.37661
6.30359
6.21978
6.12522
6.0195
5.90275
5.77581
5.64231
5.51281
5.40108
5.30864
5.24004
5.20134
5.19614
5.22104
5.2639
5.29482
5.2926
5.24332
5.12358
532.222
518.219
5.25341
5.72384
6.03901
6.23439
6.36374
6.45558
6.51915
6.55726
6.57153
6.5644
6.53992
6.50318
6.45451
6.39439
6.32331
6.24157
6.1492
6.04578
5.93144
5.80708
5.6764
5.55004
5.44059
5.3492
5.28016
5.23944
5.23094
5.2519
5.29095
5.3181
5.31248
5.25947
5.1345
532.317
518.23
5.26241
5.73263
6.04705
6.24199
6.37144
6.46369
6.52778
6.56644
6.58134
6.57503
6.55171
6.51637
6.4693
6.41097
6.34183
6.26216
6.17198
6.07086
5.95896
5.83724
5.70952
5.58658
5.47969
5.38964
5.32046
5.27799
5.26633
5.28332
5.31835
5.3415
5.33231
5.27545
5.14523
532.411
518.241
5.27082
5.74068
6.05424
6.24868
6.37817
6.47078
6.53535
6.57454
6.59005
6.58455
6.56241
6.52846
6.48299
6.42643
6.35922
6.28161
6.1936
6.09477
5.98533
5.86632
5.74171
5.62245
5.51836
5.42991
5.36084
5.31684
5.30216
5.31516
5.34606
5.36503
5.35212
5.29132
5.15583
532.504
518.251
5.27852
5.74781
6.06042
6.25431
6.38381
6.47675
6.54177
6.58146
6.59756
6.59288
6.57196
6.53942
6.49555
6.44075
6.37545
6.29987
6.21401
6.11748
6.01051
5.89427
5.77291
5.6576
5.55654
5.46994
5.40123
5.35591
5.33836
5.34748
5.37402
5.38865
5.37192
5.3071
5.16633
532.595
518.261
5.28567
5.75424
6.0658
6.25907
6.38853
6.48176
6.54719
6.58734
6.60402
6.60015
6.58047
6.54935
6.50706
6.45401
6.39058
6.31701
6.23328
6.13902
6.03454
5.92112
5.80313
5.69198
5.59418
5.50965
5.44155
5.39516
5.37491
5.38027
5.40228
5.41242
5.39175
5.32284
5.1768
532.685
518.271
5.29216
5.75983
6.07024
6.26285
6.39224
6.48572
6.55153
6.59213
6.60938
6.60633
6.58792
6.55824
6.51753
6.46621
6.40464
6.33304
6.2514
6.15939
6.05739
5.94683
5.83233
5.72555
5.63121
5.54897
5.48171
5.43448
5.41174
5.41341
5.43079
5.43632
5.41162
5.33856
5.18723
532.773
518.28
5.29813
5.76475
6.07392
6.26582
6.39508
6.48878
6.55494
6.59596
6.61375
6.61153
6.59441
6.56617
6.52704
6.47743
6.41768
6.34802
6.26844
6.17864
6.07911
5.97144
5.86053
5.75827
5.66755
5.5878
5.5216
5.47378
5.44876
5.44689
5.4596
5.46042
5.43161
5.35434
5.19769
532.86
518.288
5.30351
5.76891
6.07674
6.26787
6.39698
6.49086
6.55735
6.59877
6.6171
6.61572
6.59993
6.57314
6.5356
6.48769
6.42975
6.362
6.28444
6.19684
6.09977
5.99502
5.88781
5.79018
5.7032
5.62609
5.56114
5.51292
5.48583
5.48053
5.48861
5.48469
5.45171
5.37018
5.2082
532.945
518.297
5.30839
5.77244
6.07884
6.26915
6.39806
6.4921
6.55888
6.60067
6.61953
6.61901
6.60456
6.57924
6.54328
6.49705
6.4409
6.37504
6.29949
6.21406
6.11945
6.01767
5.9143
5.82133
5.73814
5.66379
5.60027
5.55187
5.5229
5.51434
5.51782
5.50916
5.47198
5.38615
5.21881
533.029
518.305
5.31272
5.77525
6.08013
6.26957
6.39826
6.49242
6.55948
6.60164
6.62103
6.62137
6.60832
6.58448
6.5501
6.50555
6.45117
6.38719
6.31363
6.23038
6.13828
6.03957
5.94025
5.85186
5.77246
5.70091
5.63896
5.59056
5.55989
5.5482
5.54717
5.53379
5.49242
5.40227
5.22954
533.111
518.312
5.31657
5.77744
6.08072
6.26925
6.39768
6.49194
6.55925
6.60176
6.62168
6.62291
6.61127
6.58893
6.55613
6.51325
6.46063
6.3985
6.32694
6.24589
6.15634
6.06085
5.96587
5.88192
5.80621
5.73749
5.67721
5.62899
5.5968
5.58216
5.5767
5.55865
5.51308
5.41859
5.24044
533.192
518.32
5.31991
5.77897
6.08056
6.26813
6.39626
6.49061
6.55816
6.60101
6.62148
6.62362
6.61343
6.59259
6.56137
6.52014
6.46927
6.40899
6.33942
6.26059
6.17367
6.08154
5.99115
5.91152
5.83942
5.77349
5.71493
5.66705
5.63358
5.61614
5.60638
5.58373
5.534
5.43516
5.25156
533.271
518.327
5.32281
5.77992
6.07973
6.2663
6.39411
6.48852
6.5563
6.5995
6.62052
6.6236
6.61489
6.59556
6.5659
6.52631
6.47716
6.4187
6.35111
6.2745
6.19024
6.10156
6.01593
5.94056
5.87203
5.80889
5.75213
5.70472
5.67016
5.65014
5.63623
5.60908
5.55522
5.45202
5.26293
533.349
518.333
5.32526
5.78027
6.07822
6.26372
6.39119
6.48564
6.55365
6.5972
6.61883
6.62288
6.61569
6.59786
6.56975
6.53178
6.48433
6.42768
6.36205
6.28765
6.20607
6.1209
6.0401
5.96896
5.90396
5.84361
5.78869
5.74187
5.7064
5.68403
5.66612
5.63463
5.57671
5.46917
5.27454
533.426
518.34
5.32732
5.78009
6.07609
6.26049
6.38757
6.48204
6.55026
6.5942
6.61648
6.62159
6.61591
6.59957
6.57298
6.5366
6.49084
6.43598
6.37228
6.3001
6.22121
6.13959
6.06366
5.99672
5.93522
5.87765
5.82462
5.7785
5.74229
5.71776
5.69611
5.66039
5.5985
5.48662
5.2864
533.502
518.346
5.32896
5.77935
6.07331
6.25656
6.38322
6.47768
6.54611
6.59045
6.61347
6.61986
6.61559
6.60068
6.5756
6.54081
6.49671
6.44363
6.38187
6.3119
6.23572
6.15769
6.08661
6.0238
5.96576
5.91096
5.85985
5.81454
5.77775
5.75128
5.72609
5.68632
5.62054
5.50436
5.29851
533.577
518.352
5.33024
5.77812
6.06995
6.25199
6.37819
6.47261
6.54122
6.58594
6.60974
6.6175
6.61462
6.60117
6.57761
6.54442
6.502
6.4507
6.39088
6.32313
6.24971
6.17535
6.10906
6.05031
5.99567
5.94359
5.89441
5.84999
5.81279
5.7846
5.7561
5.71247
5.64288
5.5224
5.31087
533.652
518.358
5.33116
5.77639
6.066
6.24678
6.37248
6.46683
6.53558
6.58068
6.60525
6.6144
6.61297
6.60102
6.57903
6.54746
6.50674
6.45724
6.39938
6.3339
6.26329
6.19272
6.13109
6.07627
6.02492
5.97551
5.92827
5.8848
5.84733
5.81764
5.78606
5.73875
5.66547
5.54073
5.32349
533.726
518.363
5.33178
5.7742
6.06151
6.24096
6.36613
6.46037
6.52925
6.57472
6.6001
6.61071
6.61075
6.60033
6.57992
6.55001
6.51101
6.46334
6.40749
6.34435
6.2767
6.21014
6.15294
6.10185
6.05365
6.00682
5.96147
5.91901
5.88141
5.85043
5.81598
5.76519
5.68835
5.55937
5.33637
533.799
518.369
5.33209
5.77157
6.05647
6.23454
6.35912
6.45322
6.52219
6.56801
6.5942
6.60631
6.60788
6.59903
6.58025
6.55202
6.51478
6.46898
6.41521
6.35452
6.28998
6.22769
6.17469
6.12713
6.0819
6.03752
5.99402
5.95257
5.91494
5.88287
5.84577
5.7917
5.71141
5.57825
5.34947
533.872
518.374
5.33212
5.76852
6.05092
6.22755
6.35151
6.44543
6.51447
6.56064
6.58768
6.60132
6.60444
6.5972
6.58007
6.55355
6.51811
6.47423
6.42261
6.36446
6.3032
6.24537
6.19642
6.15222
6.10981
6.06775
6.02601
5.98557
5.94801
5.91501
5.87548
5.81832
5.73471
5.59741
5.36281
533.945
518.379
5.33186
5.76502
6.04483
6.21997
6.34326
6.43698
6.50606
6.55257
6.58047
6.59569
6.60041
6.59479
6.57934
6.55457
6.52096
6.47904
6.42961
6.37409
6.31622
6.26298
6.21798
6.17706
6.13736
6.09751
6.05744
6.018
5.98057
5.94678
5.905
5.84495
5.75814
5.61676
5.37634
534.018
518.385
5.3313
5.76109
6.03823
6.21183
6.33442
6.4279
6.49701
6.54387
6.57266
6.5895
6.59583
6.59187
6.57813
6.55513
6.52337
6.48345
6.43627
6.38345
6.32908
6.28049
6.23939
6.20167
6.16461
6.1269
6.08843
6.04993
6.0126
5.97821
5.93438
5.87161
5.78173
5.63633
5.39008
534.09
518.39
5.33045
5.75673
6.03111
6.20312
6.32497
6.41819
6.48731
6.53454
6.56425
6.58275
6.59072
6.58843
6.57641
6.5552
6.52533
6.48744
6.44256
6.39253
6.34177
6.29782
6.26056
6.22598
6.1915
6.15588
6.11897
6.08143
6.0445
6.00935
5.96359
5.89826
5.80542
5.65607
5.40398
534.163
518.395
5.32936
5.75199
6.02353
6.19387
6.31493
6.40786
6.47699
6.52462
6.55532
6.57551
6.58513
6.58452
6.57424
6.55485
6.5269
6.4911
6.44859
6.40143
6.35443
6.31505
6.28155
6.25004
6.21809
6.18451
6.14915
6.11265
6.07627
6.04032
5.99266
5.92489
5.82921
5.67596
5.41805
534.235
518.4
5.32802
5.74687
6.01546
6.18407
6.3043
6.39689
6.46604
6.51414
6.54596
6.56782
6.57906
6.58013
6.57161
6.55407
6.52809
6.49444
6.45441
6.41028
6.36723
6.33228
6.30238
6.27385
6.24434
6.21277
6.17897
6.14356
6.10783
6.07113
6.02165
5.95154
5.85309
5.69599
5.43225
534.308
518.404
5.3265
5.74144
6.00698
6.17377
6.29307
6.38526
6.4544
6.50309
6.53637
6.55969
6.57251
6.57527
6.56854
6.5529
6.52894
6.49753
6.46009
6.41917
6.38033
6.34959
6.32315
6.29747
6.27035
6.24072
6.20847
6.17416
6.13913
6.10171
6.0505
5.97815
5.87701
5.71609
5.44654
534.381
518.409
5.32481
5.7357
5.99807
6.16295
6.28125
6.37295
6.442
6.49121
6.52595
6.55084
6.56536
6.56989
6.56503
6.55134
6.52948
6.50039
6.46566
6.42813
6.39372
6.36702
6.34386
6.3209
6.29607
6.26836
6.23764
6.20448
6.17022
6.13216
6.07928
6.00477
5.90099
5.7363
5.46092
534.453
518.414
5.32302
5.72973
5.98881
6.15167
6.26886
6.35999
6.4289
6.47867
6.51496
6.54149
6.55775
6.56412
6.56115
6.54944
6.52971
6.50301
6.47109
6.43709
6.40727
6.38449
6.36452
6.34417
6.32154
6.29567
6.26645
6.23443
6.20097
6.16232
6.10787
6.0313
5.92496
5.75652
5.47535
534.526
518.419
5.32113
5.72354
5.9792
6.13991
6.25587
6.3463
6.41499
6.4653
6.5032
6.53148
6.5496
6.55789
6.5569
6.54725
6.5297
6.50543
6.4764
6.44605
6.42086
6.40192
6.38504
6.36725
6.34676
6.32271
6.29498
6.26412
6.23151
6.19233
6.13637
6.0578
5.94895
5.77678
5.48981
534.599
518.424
5.31921
5.71721
5.96931
6.12774
6.24234
6.33194
6.4003
6.45113
6.49069
6.52083
6.54091
6.55122
6.55229
6.54475
6.52945
6.5077
6.48166
6.45507
6.4345
6.4193
6.40542
6.3901
6.37167
6.34935
6.32307
6.29336
6.26163
6.222
6.16463
6.08417
5.97286
5.79701
5.50426
534.673
518.43
5.31728
5.71076
5.95916
6.11516
6.22824
6.31684
6.38477
6.43611
6.47741
6.50951
6.53168
6.54412
6.54734
6.54201
6.52905
6.50991
6.48697
6.4643
6.44825
6.43666
6.42571
6.41279
6.39638
6.37578
6.35092
6.32237
6.29155
6.25148
6.19276
6.11047
5.99675
5.81723
5.5187
534.745
518.435
5.31542
5.70427
5.94881
6.10222
6.2136
6.30102
6.36836
6.42016
6.46324
6.49741
6.52179
6.5365
6.54201
6.53901
6.52852
6.51212
6.49246
6.47393
6.46219
6.45405
6.44587
6.43524
6.42076
6.40179
6.3783
6.35087
6.32098
6.28057
6.22061
6.13658
6.02051
5.83736
5.53309
534.819
518.44
5.31367
5.69779
5.93833
6.08898
6.19846
6.28449
6.3511
6.40331
6.44821
6.4845
6.51121
6.52833
6.53627
6.53574
6.52786
6.51439
6.49822
6.48406
6.47645
6.47158
6.46604
6.45761
6.445
6.42763
6.4055
6.3792
6.35021
6.30945
6.24828
6.16256
6.04419
5.85743
5.54743
534.892
518.446
5.31204
5.69135
5.92773
6.07544
6.18282
6.26724
6.33296
6.38552
6.43223
6.47071
6.49984
6.51949
6.53
6.53211
6.52701
6.51665
6.50419
6.49461
6.49094
6.48917
6.48613
6.47978
6.46893
6.45307
6.43222
6.40697
6.37897
6.33796
6.27567
6.18834
6.06771
5.87737
5.56167
534.966
518.451
5.31056
5.68499
5.91706
6.06165
6.1667
6.24927
6.31395
6.36687
6.4153
6.45595
6.48759
6.50991
6.52315
6.52805
6.5259
6.51883
6.51028
6.50543
6.50561
6.50685
6.50622
6.50186
6.4927
6.4783
6.45872
6.43471
6.40746
6.36615
6.30279
6.21392
6.09107
5.89718
5.5758
535.039
518.457
5.30924
5.67871
5.90634
6.04763
6.1501
6.23053
6.29406
6.34756
6.39737
6.44013
6.47434
6.49946
6.51559
6.52345
6.52444
6.52086
6.51643
6.51634
6.52028
6.52445
6.52615
6.52372
6.51621
6.50326
6.48504
6.46245
6.43573
6.39404
6.32963
6.23925
6.11423
5.91681
5.5898
535.113
518.463
5.30806
5.67253
5.8956
6.03341
6.13303
6.21098
6.27301
6.3269
6.37813
6.42312
6.46005
6.48812
6.50729
6.5183
6.52262
6.52276
6.5227
6.52738
6.53503
6.54206
6.54606
6.54551
6.53962
6.52811
6.51125
6.49008
6.4638
6.42167
6.35619
6.26434
6.13717
5.93626
5.60364
535.185
518.469
5.30706
5.66648
5.88485
6.01899
6.1155
6.19068
6.25101
6.3052
6.35779
6.40504
6.44476
6.47588
6.49824
6.51255
6.52041
6.52451
6.52909
6.53842
6.54965
6.55949
6.56574
6.56707
6.56279
6.55273
6.53725
6.51752
6.49163
6.449
6.38246
6.28915
6.15985
5.95548
5.6173
535.259
518.475
5.30628
5.66058
5.87409
6.00436
6.09746
6.16951
6.22786
6.28222
6.33619
6.38576
6.42839
6.46271
6.48842
6.50623
6.51785
6.5262
6.53575
6.54957
6.56427
6.57683
6.5853
6.58848
6.5858
6.57717
6.56306
6.54474
6.5192
6.47606
6.40845
6.3137
6.18231
5.97448
5.63079
535.33
518.482
5.30574
5.65482
5.86332
5.98949
6.07889
6.14747
6.20359
6.25804
6.31338
6.36534
6.41097
6.44859
6.47776
6.4992
6.51478
6.52762
6.54235
6.56054
6.57862
6.59387
6.60452
6.60956
6.60849
6.60132
6.5886
6.57168
6.54646
6.50278
6.43411
6.33793
6.20444
5.99318
5.64402
535.404
518.488
5.30547
5.64918
5.85247
5.97433
6.0597
6.12442
6.17804
6.23247
6.28921
6.34368
6.39246
6.43353
6.46631
6.49156
6.51127
6.52881
6.54887
6.57133
6.59273
6.61061
6.62344
6.63032
6.63088
6.62518
6.61384
6.59832
6.57341
6.52918
6.45947
6.36188
6.22632
6.01164
5.65704
535.474
518.495
5.30548
5.64359
5.84148
5.95882
6.03983
6.10031
6.15115
6.20544
6.26357
6.32066
6.37274
6.4174
6.45393
6.48313
6.50715
6.52959
6.55497
6.58162
6.6063
6.62683
6.64186
6.65063
6.65283
6.64863
6.6387
6.62459
6.59997
6.55519
6.48443
6.38545
6.24781
6.02974
5.66976
535.547
518.502
5.30552
5.6379
5.83027
5.94288
6.01922
6.07508
6.12282
6.17683
6.23638
6.2962
6.35176
6.40022
6.44071
6.47405
6.5026
6.53016
6.56075
6.59146
6.61935
6.64249
6.65971
6.67037
6.67427
6.67161
6.66312
6.65042
6.6261
6.58079
6.50903
6.40869
6.26902
6.04757
5.68225
535.616
518.509
5.30554
5.63204
5.81874
5.92645
5.99781
6.04868
6.09301
6.14652
6.20745
6.27011
6.32929
6.38173
6.42636
6.46409
6.49744
6.53042
6.56605
6.6007
6.63174
6.65749
6.67693
6.68954
6.69517
6.69407
6.68704
6.67579
6.65176
6.60593
6.53318
6.43149
6.28979
6.06499
5.69439
535.688
518.516
5.30546
5.62592
5.80681
5.90944
5.97556
6.0211
6.06177
6.11455
6.17684
6.24238
6.30531
6.36188
6.41087
6.45322
6.49163
6.53028
6.57077
6.60922
6.64333
6.67165
6.69331
6.70788
6.71527
6.7158
6.71035
6.7005
6.67683
6.63055
6.55689
6.45392
6.31024
6.08214
5.70629
535.755
518.522
5.3052
5.61943
5.7944
5.89178
5.95238
5.99233
6.02913
6.08096
6.14444
6.21285
6.27961
6.34044
6.39395
6.44113
6.48485
6.52935
6.57461
6.61683
6.65403
6.68497
6.70891
6.72552
6.73478
6.7371
6.73352
6.7248
6.70134
6.65459
6.58004
6.4758
6.33017
6.0988
5.71778
535.825
518.529
5.30478
5.61258
5.78146
5.87337
5.92816
5.96231
5.99523
6.04579
6.11035
6.18163
6.25227
6.31749
6.37565
6.4278
6.47701
6.52737
6.57729
6.62325
6.66354
6.69714
6.72344
6.74218
6.75342
6.75768
6.75612
6.74849
6.72525
6.67807
6.6027
6.49729
6.34978
6.11519
5.72903
535.89
518.536
5.30418
5.60534
5.76792
5.85412
5.90272
5.93077
5.95984
6.00884
6.07441
6.14859
6.22321
6.29292
6.35589
6.41321
6.46812
6.52426
6.57877
6.62845
6.67189
6.70824
6.73698
6.75796
6.7713
6.7776
6.77811
6.77154
6.74847
6.70084
6.62467
6.5181
6.36874
6.13097
5.73976
535.959
518.543
5.3035
5.59777
5.75383
5.83399
5.87598
5.8975
5.92247
5.96995
6.03664
6.11385
6.19255
6.26685
6.33475
6.3974
6.45819
6.51986
6.57879
6.63214
6.67875
6.7179
6.7492
6.77252
6.78809
6.79653
6.79921
6.79379
6.77096
6.72298
6.64611
6.53849
6.38736
6.1465
5.75025
536.022
518.551
5.30275
5.58988
5.73918
5.81294
5.84783
5.86243
5.88311
5.92903
5.99691
6.07725
6.16016
6.23922
6.31222
6.3804
6.44728
6.51425
6.57746
6.63444
6.68425
6.72628
6.76022
6.786
6.80389
6.81456
6.81944
6.81515
6.79255
6.74423
6.66668
6.55803
6.40517
6.16125
5.76006
536.089
518.558
5.30203
5.58182
5.72407
5.79105
5.81822
5.82532
5.84146
5.88584
5.95508
6.03872
6.12596
6.20985
6.28806
6.36189
6.43494
6.50702
6.57443
6.63502
6.68805
6.73303
6.7697
6.79804
6.81836
6.83138
6.83856
6.83552
6.81327
6.76474
6.68664
6.57709
6.4226
6.17572
5.7696
536.149
518.566
5.30141
5.57365
5.7086
5.76835
5.78722
5.78615
5.79732
5.8402
5.91097
5.99809
6.08982
6.17869
6.26223
6.34184
6.42107
6.49817
6.56975
6.63398
6.69031
6.73833
6.77784
6.80885
6.83168
6.84711
6.85659
6.85478
6.83288
6.78416
6.70555
6.59513
6.43907
6.18927
5.77835
536.215
518.574
5.30099
5.56553
5.69292
5.74501
5.75489
5.74514
5.75081
5.792
5.86437
5.95514
6.05151
6.14549
6.23446
6.31994
6.40524
6.48724
6.56297
6.63089
6.69059
6.74176
6.78422
6.81801
6.84349
6.86144
6.87334
6.8729
6.85149
6.80272
6.72375
6.61259
6.45508
6.20246
5.78673
536.272
518.583
5.30083
5.55757
5.6772
5.72117
5.72128
5.70199
5.70169
5.74099
5.81507
5.90974
6.01103
6.11032
6.2049
6.29639
6.38755
6.47435
6.55423
6.6259
6.68908
6.74352
6.78906
6.82576
6.85399
6.87452
6.88884
6.88972
6.86881
6.82003
6.74073
6.6289
6.46997
6.2146
5.7942
536.337
518.592
5.30105
5.54996
5.66169
5.69712
5.68672
5.65705
5.65006
5.68704
5.76279
5.86154
5.96798
6.07283
6.17323
6.27091
6.36768
6.45915
6.54315
6.61861
6.68536
6.74318
6.79193
6.83166
6.86272
6.88592
6.90282
6.90522
6.88496
6.83632
6.75685
6.64447
6.48427
6.22625
5.8012
536.391
518.601
5.30176
5.54285
5.64655
5.67303
5.65135
5.61041
5.59598
5.6303
5.70755
5.81048
5.9223
6.03295
6.13937
6.24341
6.34564
6.44174
6.52989
6.60921
6.67963
6.74095
6.79304
6.83595
6.87006
6.89624
6.91544
6.91927
6.89968
6.85123
6.77166
6.65879
6.49736
6.23677
5.80718
536.455
518.611
5.30305
5.53641
5.63203
5.64922
5.61549
5.56227
5.53943
5.57041
5.64895
5.75615
5.87353
5.99018
6.10282
6.21332
6.32095
6.42168
6.51404
6.59732
6.67152
6.73648
6.79207
6.83835
6.8757
6.90506
6.92658
6.93187
6.91305
6.86492
6.78538
6.67217
6.50965
6.2466
5.81254
536.506
518.621
5.30504
5.53075
5.61829
5.62591
5.57942
5.51292
5.48074
5.50773
5.58729
5.6986
5.82161
5.94441
6.06341
6.18047
6.29358
6.39907
6.49578
6.58317
6.6613