/*--------------------------------*- C++ -*----------------------------------*\
| =========                 |                                                 |
| \\      /  F ield         | OpenFOAM: The Open Source CFD Toolbox           |
|  \\    /   O peration     | Version:  v2006                                 |
|   \\  /    A nd           | Website:  www.openfoam.com                      |
|    \\/     M anipulation  |                                                 |
\*---------------------------------------------------------------------------*/
FoamFile
{
    version     2.0;
    format      ascii;
    class       volScalarField;
    location    "62";
    object      T;
}
// * * * * * * * * * * * * * * * * * * * * * * * * * * * * * * * * * * * * * //

dimensions      [0 0 0 1 0 0 0];


internalField   nonuniform List<scalar> 
78750
(
300.086
300.221
300.307
300.367
300.414
300.453
300.486
300.515
300.54
300.561
300.579
300.595
300.608
300.618
300.627
300.633
300.637
300.64
300.64
300.64
300.638
300.636
300.633
300.63
300.627
300.625
300.624
300.625
300.63
300.644
300.692
300.842
301.226
301.981
303.081
300.065
300.188
300.3
300.402
300.493
300.571
300.636
300.692
300.741
300.783
300.819
300.849
300.874
300.893
300.907
300.916
300.92
300.92
300.916
300.907
300.895
300.88
300.863
300.843
300.823
300.803
300.785
300.771
300.768
300.79
300.872
301.089
301.546
302.319
303.388
300.068
300.197
300.314
300.422
300.52
300.606
300.68
300.743
300.798
300.847
300.89
300.929
300.962
300.99
301.014
301.034
301.048
301.058
301.062
301.06
301.053
301.04
301.021
300.998
300.972
300.945
300.92
300.903
300.904
300.944
301.068
301.346
301.85
302.63
303.695
300.076
300.221
300.353
300.473
300.578
300.669
300.746
300.811
300.866
300.916
300.959
300.998
301.031
301.061
301.087
301.109
301.127
301.141
301.149
301.153
301.152
301.145
301.131
301.111
301.087
301.06
301.034
301.017
301.023
301.079
301.232
301.549
302.078
302.864
303.934
300.086
300.251
300.401
300.535
300.651
300.747
300.826
300.892
300.949
301
301.045
301.084
301.118
301.148
301.173
301.194
301.211
301.223
301.231
301.234
301.232
301.225
301.212
301.194
301.172
301.147
301.125
301.114
301.132
301.208
301.392
301.743
302.288
303.074
304.147
300.095
300.276
300.44
300.583
300.704
300.802
300.881
300.948
301.006
301.057
301.102
301.142
301.178
301.209
301.236
301.258
301.275
301.287
301.294
301.297
301.295
301.288
301.276
301.26
301.24
301.218
301.2
301.196
301.225
301.318
301.526
301.901
302.456
303.243
304.319
300.102
300.296
300.472
300.625
300.752
300.852
300.934
301.002
301.062
301.115
301.162
301.204
301.241
301.274
301.301
301.322
301.338
301.348
301.354
301.354
301.35
301.341
301.328
301.312
301.293
301.275
301.263
301.268
301.31
301.423
301.654
302.048
302.611
303.4
304.477
300.109
300.315
300.502
300.662
300.793
300.896
300.978
301.048
301.109
301.163
301.213
301.257
301.297
301.33
301.358
301.38
301.395
301.405
301.408
301.406
301.4
301.389
301.375
301.358
301.34
301.324
301.317
301.33
301.385
301.515
301.766
302.174
302.745
303.538
304.616
300.114
300.331
300.525
300.692
300.827
300.933
301.018
301.089
301.153
301.21
301.261
301.308
301.349
301.384
301.413
301.435
301.45
301.458
301.46
301.456
301.447
301.434
301.418
301.399
301.382
301.368
301.366
301.388
301.455
301.602
301.87
302.291
302.868
303.667
304.745
300.119
300.345
300.548
300.721
300.86
300.968
301.055
301.128
301.194
301.253
301.307
301.355
301.398
301.435
301.465
301.487
301.502
301.509
301.51
301.504
301.493
301.478
301.459
301.44
301.422
301.41
301.412
301.441
301.519
301.68
301.962
302.394
302.978
303.783
304.862
300.123
300.358
300.568
300.746
300.889
300.999
301.089
301.165
301.232
301.293
301.349
301.4
301.445
301.483
301.514
301.537
301.552
301.559
301.558
301.551
301.539
301.521
301.501
301.48
301.462
301.451
301.457
301.492
301.58
301.753
302.049
302.489
303.081
303.892
304.972
300.128
300.37
300.587
300.771
300.917
301.03
301.121
301.199
301.269
301.332
301.39
301.443
301.489
301.529
301.561
301.584
301.6
301.607
301.606
301.597
301.583
301.564
301.542
301.52
301.502
301.492
301.5
301.541
301.637
301.821
302.128
302.577
303.175
303.992
305.073
300.132
300.382
300.605
300.794
300.944
301.059
301.152
301.232
301.304
301.37
301.43
301.484
301.532
301.573
301.606
301.63
301.646
301.653
301.652
301.643
301.627
301.607
301.584
301.561
301.542
301.533
301.544
301.59
301.693
301.887
302.205
302.66
303.264
304.087
305.169
300.136
300.393
300.623
300.817
300.969
301.087
301.182
301.264
301.338
301.405
301.467
301.524
301.573
301.616
301.65
301.675
301.691
301.698
301.696
301.687
301.67
301.649
301.625
301.601
301.582
301.574
301.587
301.638
301.748
301.951
302.277
302.739
303.348
304.177
305.26
300.14
300.404
300.64
300.838
300.994
301.114
301.211
301.295
301.371
301.44
301.504
301.562
301.613
301.657
301.692
301.718
301.734
301.741
301.74
301.73
301.713
301.691
301.666
301.641
301.622
301.615
301.631
301.686
301.803
302.014
302.348
302.816
303.429
304.263
305.348
300.143
300.415
300.656
300.859
301.018
301.14
301.239
301.325
301.402
301.474
301.539
301.599
301.651
301.696
301.732
301.759
301.776
301.784
301.782
301.772
301.755
301.732
301.707
301.682
301.663
301.657
301.675
301.734
301.857
302.075
302.418
302.89
303.507
304.346
305.431
300.147
300.425
300.672
300.88
301.041
301.165
301.266
301.354
301.433
301.506
301.573
301.635
301.689
301.735
301.772
301.799
301.817
301.825
301.824
301.814
301.796
301.773
301.747
301.722
301.703
301.699
301.719
301.782
301.911
302.137
302.486
302.962
303.582
304.426
305.512
300.15
300.435
300.688
300.9
301.064
301.189
301.292
301.382
301.463
301.538
301.607
301.669
301.725
301.772
301.81
301.839
301.857
301.866
301.865
301.855
301.837
301.814
301.788
301.763
301.744
301.741
301.764
301.83
301.965
302.197
302.552
303.032
303.655
304.502
305.59
300.154
300.445
300.704
300.919
301.085
301.213
301.318
301.409
301.492
301.568
301.639
301.703
301.76
301.808
301.847
301.877
301.896
301.906
301.905
301.896
301.878
301.855
301.828
301.803
301.785
301.783
301.808
301.879
302.019
302.257
302.618
303.1
303.726
304.577
305.665
300.157
300.455
300.719
300.938
301.107
301.236
301.342
301.435
301.52
301.598
301.67
301.736
301.794
301.843
301.884
301.914
301.934
301.944
301.945
301.936
301.919
301.895
301.869
301.844
301.827
301.825
301.853
301.927
302.072
302.317
302.683
303.167
303.795
304.649
305.738
300.161
300.465
300.733
300.956
301.128
301.259
301.367
301.461
301.547
301.627
301.701
301.768
301.827
301.878
301.919
301.95
301.972
301.983
301.984
301.975
301.959
301.936
301.91
301.885
301.868
301.868
301.898
301.976
302.126
302.376
302.746
303.233
303.863
304.72
305.809
300.164
300.474
300.748
300.975
301.148
301.281
301.39
301.487
301.574
301.656
301.731
301.799
301.86
301.912
301.954
301.986
302.008
302.02
302.022
302.014
301.999
301.976
301.95
301.926
301.91
301.911
301.943
302.024
302.179
302.434
302.809
303.297
303.928
304.788
305.878
300.167
300.483
300.762
300.992
301.168
301.303
301.414
301.511
301.601
301.684
301.76
301.83
301.892
301.944
301.988
302.021
302.044
302.057
302.06
302.053
302.038
302.016
301.991
301.967
301.952
301.954
301.988
302.073
302.232
302.491
302.87
303.36
303.992
304.855
305.946
300.171
300.493
300.777
301.01
301.188
301.324
301.436
301.536
301.627
301.711
301.789
301.86
301.923
301.977
302.021
302.055
302.079
302.093
302.097
302.091
302.077
302.057
302.032
302.009
301.994
301.998
302.034
302.121
302.284
302.548
302.931
303.422
304.055
304.92
306.012
300.174
300.502
300.79
301.027
301.207
301.345
301.459
301.56
301.652
301.738
301.818
301.89
301.954
302.009
302.054
302.089
302.114
302.129
302.134
302.129
302.116
302.096
302.073
302.05
302.036
302.041
302.079
302.17
302.337
302.605
302.991
303.483
304.117
304.984
306.076
300.177
300.511
300.804
301.045
301.226
301.366
301.481
301.584
301.678
301.765
301.846
301.919
301.984
302.04
302.086
302.122
302.148
302.164
302.17
302.167
302.155
302.136
302.114
302.092
302.079
302.085
302.125
302.218
302.389
302.661
303.05
303.542
304.177
305.046
306.14
300.18
300.519
300.818
301.061
301.245
301.386
301.503
301.607
301.703
301.792
301.874
301.948
302.014
302.071
302.118
302.155
302.182
302.199
302.206
302.204
302.193
302.176
302.154
302.134
302.122
302.129
302.171
302.267
302.441
302.717
303.109
303.602
304.237
305.108
306.203
300.183
300.528
300.831
301.078
301.264
301.406
301.525
301.631
301.728
301.818
301.901
301.977
302.044
302.102
302.15
302.188
302.215
302.233
302.241
302.24
302.231
302.215
302.195
302.175
302.165
302.174
302.217
302.316
302.494
302.773
303.167
303.661
304.297
305.17
306.265
300.186
300.537
300.845
301.095
301.283
301.427
301.547
301.654
301.753
301.844
301.929
302.006
302.074
302.133
302.181
302.22
302.248
302.267
302.276
302.277
302.269
302.254
302.235
302.217
302.208
302.218
302.264
302.365
302.546
302.829
303.226
303.72
304.356
305.231
306.327
300.189
300.546
300.858
301.112
301.301
301.447
301.568
301.677
301.777
301.871
301.956
302.035
302.104
302.163
302.213
302.252
302.281
302.301
302.311
302.312
302.306
302.293
302.275
302.259
302.251
302.263
302.311
302.415
302.599
302.885
303.284
303.778
304.415
305.291
306.388
300.192
300.554
300.872
301.128
301.32
301.467
301.59
301.7
301.802
301.897
301.984
302.063
302.133
302.193
302.244
302.284
302.314
302.334
302.345
302.348
302.343
302.331
302.315
302.3
302.294
302.308
302.358
302.465
302.652
302.942
303.343
303.837
304.474
305.352
306.45
300.195
300.563
300.885
301.144
301.338
301.487
301.612
301.724
301.827
301.923
302.011
302.091
302.163
302.224
302.274
302.315
302.346
302.367
302.379
302.383
302.379
302.369
302.355
302.342
302.337
302.353
302.405
302.515
302.705
302.999
303.401
303.896
304.533
305.412
306.51
300.198
300.572
300.898
301.161
301.356
301.507
301.633
301.747
301.851
301.949
302.039
302.12
302.192
302.254
302.305
302.347
302.378
302.4
302.413
302.418
302.416
302.407
302.395
302.383
302.381
302.399
302.453
302.566
302.759
303.056
303.46
303.955
304.591
305.472
306.571
300.202
300.581
300.912
301.177
301.375
301.526
301.655
301.77
301.876
301.975
302.066
302.148
302.221
302.284
302.336
302.378
302.41
302.433
302.447
302.453
302.452
302.445
302.434
302.425
302.424
302.444
302.501
302.617
302.814
303.113
303.519
304.014
304.65
305.531
306.631
300.205
300.589
300.925
301.194
301.393
301.546
301.676
301.793
301.901
302.001
302.093
302.177
302.251
302.314
302.367
302.409
302.442
302.465
302.48
302.487
302.487
302.482
302.473
302.466
302.467
302.49
302.55
302.668
302.868
303.171
303.579
304.073
304.709
305.591
306.691
300.208
300.598
300.938
301.21
301.411
301.566
301.698
301.816
301.926
302.027
302.121
302.205
302.28
302.344
302.397
302.44
302.473
302.498
302.513
302.521
302.523
302.519
302.512
302.507
302.511
302.536
302.598
302.72
302.923
303.229
303.638
304.132
304.768
305.651
306.751
300.211
300.607
300.952
301.227
301.43
301.586
301.719
301.839
301.951
302.054
302.148
302.234
302.309
302.374
302.428
302.471
302.505
302.53
302.546
302.555
302.558
302.556
302.551
302.548
302.554
302.581
302.647
302.772
302.979
303.287
303.698
304.191
304.827
305.71
306.81
300.214
300.616
300.965
301.243
301.448
301.606
301.741
301.863
301.975
302.08
302.176
302.263
302.339
302.404
302.459
302.503
302.537
302.562
302.579
302.589
302.593
302.592
302.589
302.588
302.597
302.627
302.696
302.824
303.035
303.346
303.758
304.251
304.885
305.769
306.869
300.217
300.624
300.979
301.259
301.466
301.626
301.762
301.886
302
302.106
302.204
302.291
302.368
302.434
302.489
302.534
302.568
302.594
302.612
302.623
302.628
302.629
302.628
302.629
302.64
302.673
302.745
302.877
303.09
303.404
303.818
304.31
304.944
305.827
306.927
300.22
300.633
300.992
301.276
301.484
301.646
301.784
301.909
302.025
302.133
302.231
302.32
302.398
302.464
302.52
302.565
302.6
302.626
302.645
302.656
302.663
302.665
302.666
302.669
302.683
302.719
302.794
302.929
303.146
303.463
303.877
304.369
305.002
305.885
306.985
300.223
300.642
301.006
301.292
301.503
301.666
301.805
301.932
302.05
302.159
302.259
302.349
302.427
302.494
302.55
302.595
302.631
302.658
302.677
302.69
302.697
302.701
302.703
302.709
302.726
302.765
302.844
302.982
303.203
303.522
303.937
304.427
305.06
305.943
307.042
300.226
300.651
301.019
301.309
301.521
301.685
301.827
301.956
302.075
302.186
302.287
302.377
302.457
302.524
302.581
302.626
302.662
302.69
302.709
302.723
302.732
302.737
302.741
302.749
302.769
302.811
302.893
303.035
303.259
303.581
303.996
304.486
305.117
306
307.099
300.229
300.66
301.033
301.325
301.539
301.705
301.848
301.979
302.1
302.212
302.315
302.406
302.486
302.554
302.611
302.657
302.693
302.721
302.742
302.756
302.766
302.772
302.779
302.789
302.811
302.857
302.942
303.087
303.315
303.639
304.055
304.543
305.174
306.056
307.155
300.233
300.669
301.046
301.341
301.557
301.725
301.87
302.002
302.125
302.239
302.342
302.435
302.516
302.585
302.642
302.688
302.725
302.753
302.774
302.789
302.8
302.808
302.816
302.829
302.854
302.902
302.991
303.14
303.371
303.697
304.114
304.601
305.23
306.112
307.21
300.236
300.677
301.059
301.358
301.575
301.745
301.892
302.026
302.15
302.265
302.37
302.464
302.545
302.615
302.672
302.719
302.756
302.784
302.806
302.822
302.834
302.843
302.853
302.868
302.896
302.948
303.04
303.193
303.426
303.755
304.172
304.658
305.285
306.167
307.265
300.239
300.686
301.073
301.374
301.593
301.765
301.913
302.049
302.175
302.292
302.398
302.493
302.575
302.645
302.703
302.749
302.787
302.816
302.838
302.855
302.868
302.878
302.89
302.907
302.938
302.993
303.089
303.245
303.482
303.813
304.229
304.714
305.34
306.221
307.318
300.242
300.695
301.086
301.39
301.611
301.784
301.935
302.073
302.201
302.319
302.426
302.522
302.605
302.675
302.733
302.78
302.818
302.847
302.87
302.887
302.901
302.913
302.927
302.947
302.98
303.038
303.137
303.297
303.537
303.87
304.286
304.77
305.395
306.275
307.372
300.245
300.704
301.099
301.406
301.629
301.804
301.956
302.096
302.226
302.346
302.455
302.551
302.634
302.705
302.763
302.811
302.849
302.879
302.902
302.92
302.935
302.948
302.964
302.985
303.021
303.083
303.186
303.349
303.592
303.926
304.343
304.825
305.448
306.328
307.424
300.248
300.712
301.113
301.422
301.647
301.824
301.978
302.12
302.251
302.373
302.483
302.58
302.664
302.735
302.794
302.842
302.88
302.91
302.934
302.952
302.968
302.983
303
303.024
303.063
303.127
303.234
303.4
303.646
303.982
304.399
304.879
305.501
306.38
307.475
300.251
300.721
301.126
301.438
301.666
301.844
302
302.143
302.277
302.4
302.511
302.61
302.694
302.766
302.824
302.872
302.911
302.941
302.965
302.985
303.001
303.018
303.036
303.063
303.104
303.172
303.281
303.451
303.7
304.038
304.454
304.933
305.554
306.431
307.526
300.254
300.73
301.139
301.455
301.684
301.864
302.022
302.167
302.303
302.427
302.54
302.639
302.724
302.796
302.855
302.903
302.941
302.972
302.997
303.017
303.035
303.052
303.072
303.101
303.145
303.216
303.329
303.502
303.753
304.093
304.508
304.986
305.605
306.482
307.576
300.257
300.739
301.153
301.471
301.702
301.884
302.044
302.191
302.329
302.455
302.569
302.669
302.754
302.826
302.885
302.933
302.972
303.003
303.028
303.049
303.068
303.086
303.108
303.139
303.185
303.259
303.376
303.552
303.806
304.147
304.562
305.038
305.656
306.532
307.626
300.26
300.748
301.166
301.487
301.72
301.904
302.066
302.216
302.355
302.483
302.598
302.698
302.784
302.857
302.916
302.964
303.003
303.034
303.06
303.081
303.101
303.12
303.144
303.177
303.226
303.303
303.422
303.602
303.859
304.201
304.615
305.089
305.706
306.581
307.674
300.263
300.756
301.179
301.503
301.738
301.924
302.088
302.24
302.381
302.511
302.627
302.728
302.815
302.887
302.947
302.995
303.034
303.065
303.091
303.113
303.133
303.154
303.18
303.214
303.266
303.346
303.469
303.651
303.911
304.254
304.668
305.14
305.755
306.629
307.721
300.267
300.765
301.193
301.52
301.757
301.945
302.111
302.264
302.408
302.539
302.656
302.758
302.845
302.918
302.977
303.025
303.064
303.096
303.122
303.145
303.166
303.188
303.215
303.252
303.306
303.389
303.514
303.7
303.962
304.306
304.719
305.19
305.803
306.676
307.768
300.27
300.774
301.206
301.536
301.775
301.965
302.133
302.289
302.434
302.567
302.686
302.789
302.876
302.948
303.008
303.056
303.095
303.127
303.154
303.177
303.199
303.222
303.25
303.289
303.346
303.431
303.56
303.749
304.013
304.358
304.77
305.239
305.85
306.722
307.814
300.273
300.783
301.22
301.553
301.794
301.986
302.156
302.314
302.461
302.596
302.715
302.819
302.906
302.979
303.039
303.087
303.126
303.158
303.185
303.209
303.231
303.256
303.285
303.326
303.385
303.473
303.605
303.796
304.063
304.409
304.82
305.287
305.897
306.768
307.858
300.276
300.792
301.234
301.57
301.813
302.007
302.179
302.34
302.489
302.625
302.745
302.85
302.937
303.01
303.069
303.118
303.157
303.189
303.216
303.24
303.264
303.289
303.32
303.363
303.424
303.515
303.649
303.844
304.112
304.459
304.869
305.334
305.942
306.812
307.902
300.279
300.801
301.247
301.586
301.832
302.028
302.203
302.365
302.516
302.654
302.776
302.88
302.968
303.041
303.1
303.148
303.187
303.22
303.247
303.272
303.296
303.323
303.355
303.399
303.463
303.556
303.694
303.89
304.161
304.508
304.916
305.38
305.987
306.855
307.945
300.282
300.81
301.261
301.603
301.851
302.049
302.226
302.391
302.544
302.683
302.806
302.911
302.999
303.072
303.131
303.179
303.218
303.251
303.278
303.304
303.329
303.356
303.39
303.436
303.501
303.597
303.737
303.937
304.209
304.556
304.964
305.425
306.03
306.898
307.987
300.285
300.819
301.275
301.62
301.87
302.07
302.25
302.417
302.573
302.713
302.837
302.942
303.031
303.103
303.162
303.21
303.249
303.282
303.31
303.335
303.361
303.39
303.425
303.472
303.54
303.638
303.78
303.982
304.256
304.604
305.01
305.469
306.073
306.94
308.029
300.289
300.828
301.289
301.637
301.889
302.092
302.274
302.444
302.601
302.743
302.868
302.974
303.062
303.134
303.193
303.241
303.28
303.312
303.341
303.367
303.393
303.423
303.459
303.509
303.578
303.679
303.824
304.027
304.302
304.651
305.055
305.513
306.115
306.981
308.069
300.292
300.838
301.303
301.655
301.909
302.114
302.298
302.471
302.63
302.774
302.899
303.006
303.094
303.166
303.224
303.272
303.311
303.343
303.372
303.398
303.426
303.456
303.494
303.545
303.616
303.719
303.866
304.072
304.349
304.697
305.1
305.556
306.156
307.021
308.109
300.295
300.847
301.318
301.672
301.929
302.136
302.323
302.498
302.66
302.805
302.931
303.038
303.126
303.197
303.255
303.303
303.342
303.374
303.403
303.43
303.458
303.489
303.528
303.581
303.654
303.759
303.909
304.117
304.394
304.742
305.144
305.598
306.197
307.062
308.149
300.299
300.857
301.332
301.69
301.949
302.159
302.349
302.526
302.69
302.836
302.963
303.07
303.158
303.229
303.287
303.334
303.372
303.405
303.434
303.462
303.49
303.523
303.563
303.617
303.692
303.799
303.951
304.161
304.44
304.787
305.187
305.639
306.237
307.101
308.188
300.302
300.866
301.347
301.708
301.969
302.182
302.374
302.554
302.72
302.868
302.996
303.102
303.19
303.261
303.318
303.365
303.403
303.436
303.465
303.493
303.522
303.556
303.597
303.653
303.73
303.839
303.993
304.205
304.485
304.832
305.23
305.68
306.277
307.14
308.227
300.305
300.876
301.362
301.726
301.99
302.205
302.4
302.583
302.751
302.9
303.028
303.135
303.222
303.293
303.35
303.396
303.435
303.467
303.497
303.525
303.555
303.589
303.632
303.689
303.768
303.879
304.035
304.248
304.529
304.876
305.272
305.72
306.316
307.178
308.266
300.309
300.886
301.377
301.745
302.011
302.229
302.427
302.613
302.783
302.933
303.062
303.168
303.255
303.325
303.382
303.428
303.466
303.498
303.528
303.557
303.587
303.622
303.666
303.725
303.806
303.919
304.077
304.292
304.574
304.92
305.314
305.761
306.355
307.217
308.304
300.312
300.896
301.392
301.763
302.032
302.253
302.454
302.643
302.815
302.967
303.095
303.202
303.288
303.358
303.414
303.459
303.497
303.53
303.559
303.588
303.619
303.656
303.701
303.761
303.843
303.959
304.118
304.335
304.618
304.963
305.355
305.8
306.393
307.255
308.342
300.316
300.906
301.408
301.782
302.054
302.277
302.482
302.673
302.847
303
303.13
303.236
303.322
303.391
303.446
303.491
303.528
303.561
303.591
303.62
303.652
303.689
303.735
303.797
303.881
303.998
304.16
304.379
304.662
305.007
305.397
305.84
306.432
307.293
308.38
300.319
300.917
301.424
301.802
302.076
302.302
302.51
302.704
302.881
303.035
303.164
303.27
303.355
303.423
303.478
303.523
303.56
303.592
303.622
303.652
303.684
303.722
303.77
303.833
303.919
304.038
304.202
304.422
304.705
305.049
305.438
305.879
306.47
307.33
308.418
300.323
300.927
301.44
301.821
302.099
302.328
302.539
302.736
302.915
303.07
303.199
303.305
303.389
303.457
303.511
303.554
303.591
303.624
303.654
303.684
303.717
303.756
303.804
303.869
303.957
304.078
304.243
304.465
304.749
305.092
305.478
305.918
306.508
307.368
308.456
300.327
300.938
301.456
301.842
302.122
302.354
302.569
302.769
302.949
303.105
303.235
303.34
303.423
303.49
303.543
303.587
303.623
303.655
303.685
303.716
303.749
303.789
303.839
303.905
303.995
304.117
304.285
304.508
304.792
305.134
305.519
305.956
306.545
307.405
308.494
300.331
300.948
301.473
301.862
302.145
302.381
302.599
302.802
302.985
303.141
303.271
303.375
303.458
303.524
303.576
303.619
303.655
303.687
303.717
303.748
303.782
303.823
303.874
303.941
304.033
304.157
304.326
304.551
304.836
305.177
305.559
305.995
306.583
307.443
308.532
300.334
300.96
301.49
301.883
302.169
302.409
302.63
302.836
303.021
303.178
303.307
303.411
303.493
303.557
303.609
303.651
303.687
303.719
303.749
303.78
303.815
303.856
303.908
303.977
304.07
304.197
304.368
304.593
304.879
305.219
305.599
306.033
306.621
307.481
308.569
300.338
300.971
301.507
301.904
302.194
302.437
302.662
302.872
303.058
303.216
303.345
303.447
303.528
303.592
303.642
303.684
303.719
303.751
303.781
303.812
303.848
303.89
303.943
304.014
304.109
304.237
304.41
304.636
304.922
305.261
305.639
306.072
306.659
307.519
308.608
300.342
300.983
301.525
301.926
302.219
302.466
302.695
302.908
303.096
303.254
303.382
303.484
303.564
303.626
303.676
303.717
303.751
303.783
303.813
303.845
303.881
303.924
303.978
304.05
304.147
304.277
304.451
304.679
304.965
305.303
305.679
306.111
306.697
307.556
308.645
300.347
300.994
301.543
301.949
302.246
302.496
302.729
302.945
303.135
303.293
303.421
303.521
303.6
303.661
303.71
303.749
303.784
303.815
303.845
303.877
303.914
303.958
304.013
304.087
304.185
304.317
304.493
304.723
305.009
305.345
305.72
306.149
306.735
307.594
308.684
300.351
301.007
301.562
301.972
302.272
302.527
302.764
302.983
303.174
303.333
303.46
303.559
303.636
303.696
303.744
303.783
303.816
303.847
303.878
303.91
303.947
303.992
304.049
304.124
304.223
304.357
304.535
304.765
305.052
305.387
305.759
306.188
306.773
307.632
308.722
300.355
301.019
301.582
301.996
302.3
302.559
302.8
303.022
303.215
303.374
303.5
303.598
303.673
303.732
303.778
303.816
303.849
303.88
303.91
303.943
303.98
304.026
304.084
304.16
304.262
304.398
304.578
304.809
305.095
305.429
305.8
306.227
306.811
307.67
308.76
300.36
301.032
301.602
302.02
302.328
302.591
302.837
303.063
303.257
303.416
303.541
303.637
303.71
303.767
303.813
303.85
303.882
303.912
303.943
303.976
304.014
304.06
304.12
304.197
304.301
304.438
304.619
304.852
305.138
305.471
305.839
306.265
306.849
307.708
308.798
300.364
301.046
301.622
302.046
302.358
302.625
302.876
303.104
303.3
303.458
303.582
303.676
303.748
303.804
303.848
303.884
303.916
303.945
303.976
304.009
304.047
304.095
304.155
304.235
304.34
304.479
304.662
304.896
305.182
305.513
305.88
306.304
306.888
307.747
308.837
300.369
301.06
301.644
302.072
302.388
302.66
302.916
303.147
303.344
303.502
303.624
303.716
303.786
303.84
303.883
303.918
303.949
303.978
304.009
304.042
304.081
304.129
304.191
304.272
304.379
304.52
304.704
304.939
305.224
305.554
305.919
306.342
306.926
307.784
308.875
300.374
301.074
301.666
302.099
302.42
302.697
302.956
303.191
303.388
303.546
303.666
303.757
303.825
303.877
303.918
303.952
303.983
304.012
304.042
304.075
304.115
304.164
304.227
304.309
304.418
304.561
304.747
304.982
305.268
305.597
305.959
306.382
306.965
307.823
308.914
300.379
301.089
301.688
302.127
302.452
302.734
302.999
303.236
303.434
303.59
303.709
303.798
303.864
303.915
303.954
303.987
304.017
304.045
304.075
304.109
304.149
304.199
304.263
304.347
304.457
304.602
304.789
305.025
305.311
305.638
305.999
306.42
307.002
307.861
308.951
300.385
301.104
301.712
302.156
302.486
302.773
303.042
303.282
303.481
303.636
303.753
303.84
303.904
303.952
303.99
304.022
304.051
304.079
304.109
304.143
304.183
304.234
304.299
304.385
304.497
304.644
304.832
305.069
305.354
305.68
306.039
306.459
307.041
307.9
308.99
300.39
301.12
301.736
302.186
302.521
302.813
303.087
303.33
303.529
303.683
303.797
303.882
303.944
303.99
304.027
304.058
304.085
304.113
304.143
304.177
304.218
304.269
304.336
304.422
304.536
304.684
304.875
305.112
305.397
305.721
306.078
306.497
307.079
307.937
309.028
300.396
301.137
301.761
302.217
302.557
302.855
303.134
303.379
303.578
303.73
303.843
303.924
303.984
304.029
304.064
304.093
304.12
304.147
304.177
304.211
304.252
304.305
304.372
304.461
304.576
304.726
304.918
305.156
305.44
305.763
306.119
306.536
307.118
307.976
309.067
300.402
301.154
301.788
302.249
302.594
302.898
303.182
303.429
303.628
303.779
303.889
303.968
304.025
304.067
304.101
304.129
304.155
304.182
304.211
304.245
304.287
304.34
304.409
304.499
304.616
304.767
304.96
305.199
305.483
305.804
306.158
306.574
307.156
308.014
309.104
300.408
301.172
301.815
302.283
302.633
302.943
303.232
303.481
303.679
303.828
303.935
304.012
304.066
304.107
304.138
304.165
304.191
304.217
304.245
304.28
304.322
304.376
304.446
304.538
304.656
304.81
305.004
305.243
305.526
305.846
306.198
306.614
307.195
308.053
309.142
300.415
301.19
301.843
302.317
302.674
302.99
303.283
303.534
303.732
303.878
303.983
304.056
304.108
304.146
304.176
304.202
304.226
304.251
304.28
304.314
304.357
304.412
304.483
304.576
304.696
304.851
305.046
305.286
305.568
305.886
306.236
306.651
307.232
308.09
309.179
300.421
301.21
301.873
302.353
302.716
303.038
303.336
303.589
303.786
303.93
304.031
304.101
304.15
304.186
304.215
304.239
304.262
304.287
304.315
304.35
304.393
304.449
304.521
304.615
304.737
304.893
305.09
305.33
305.612
305.928
306.277
306.691
307.271
308.128
309.218
300.428
301.229
301.903
302.39
302.759
303.088
303.39
303.645
303.84
303.982
304.08
304.147
304.193
304.227
304.253
304.276
304.298
304.322
304.35
304.385
304.428
304.485
304.558
304.653
304.777
304.935
305.132
305.372
305.653
305.968
306.315
306.727
307.308
308.165
309.253
300.435
301.25
301.934
302.429
302.804
303.139
303.446
303.702
303.896
304.035
304.129
304.193
304.237
304.268
304.292
304.314
304.335
304.359
304.386
304.421
304.465
304.522
304.596
304.693
304.818
304.977
305.176
305.416
305.696
306.009
306.355
306.767
307.347
308.203
309.291
300.443
301.271
301.966
302.468
302.85
303.192
303.504
303.761
303.953
304.089
304.18
304.24
304.281
304.309
304.332
304.352
304.372
304.395
304.422
304.456
304.501
304.558
304.634
304.732
304.858
305.018
305.218
305.458
305.737
306.048
306.392
306.803
307.383
308.238
309.326
300.45
301.293
301.999
302.509
302.898
303.247
303.563
303.821
304.012
304.144
304.231
304.288
304.325
304.351
304.372
304.391
304.41
304.432
304.459
304.493
304.538
304.596
304.672
304.771
304.899
305.061
305.261
305.502
305.78
306.089
306.432
306.842
307.421
308.277
309.364
300.458
301.315
302.033
302.551
302.947
303.304
303.624
303.883
304.071
304.2
304.283
304.336
304.37
304.394
304.412
304.429
304.448
304.469
304.495
304.529
304.574
304.633
304.71
304.81
304.939
305.102
305.303
305.543
305.82
306.128
306.468
306.877
307.456
308.311
309.398
300.466
301.338
302.068
302.594
302.998
303.363
303.688
303.946
304.133
304.257
304.336
304.385
304.416
304.437
304.454
304.469
304.486
304.506
304.532
304.567
304.612
304.671
304.749
304.851
304.981
305.145
305.346
305.586
305.862
306.168
306.508
306.916
307.495
308.349
309.435
300.475
301.362
302.104
302.639
303.051
303.423
303.753
304.012
304.195
304.315
304.39
304.435
304.462
304.481
304.495
304.509
304.525
304.544
304.57
304.604
304.649
304.709
304.787
304.89
305.021
305.185
305.387
305.627
305.901
306.206
306.543
306.951
307.529
308.383
309.468
300.483
301.387
302.142
302.685
303.106
303.486
303.82
304.079
304.259
304.375
304.445
304.485
304.509
304.525
304.537
304.549
304.564
304.583
304.608
304.642
304.687
304.748
304.827
304.931
305.063
305.229
305.431
305.67
305.943
306.246
306.582
306.989
307.567
308.42
309.505
300.492
301.412
302.18
302.732
303.162
303.55
303.889
304.148
304.325
304.436
304.501
304.537
304.557
304.57
304.58
304.59
304.604
304.621
304.646
304.68
304.725
304.786
304.866
304.97
305.103
305.269
305.471
305.71
305.982
306.283
306.617
307.023
307.601
308.453
309.538
300.501
301.438
302.219
302.781
303.22
303.617
303.96
304.219
304.392
304.498
304.558
304.589
304.606
304.615
304.623
304.632
304.644
304.661
304.685
304.719
304.764
304.826
304.907
305.012
305.146
305.313
305.515
305.753
306.024
306.323
306.656
307.061
307.639
308.491
309.575
300.511
301.465
302.259
302.831
303.279
303.685
304.033
304.291
304.461
304.562
304.616
304.642
304.655
304.661
304.667
304.674
304.685
304.701
304.724
304.757
304.803
304.864
304.946
305.052
305.186
305.353
305.555
305.792
306.062
306.359
306.691
307.095
307.672
308.523
309.606
300.52
301.492
302.301
302.882
303.34
303.756
304.107
304.365
304.531
304.627
304.675
304.697
304.705
304.709
304.712
304.717
304.726
304.742
304.764
304.797
304.843
304.905
304.987
305.094
305.229
305.397
305.599
305.836
306.104
306.4
306.73
307.133
307.711
308.561
309.644
300.53
301.52
302.343
302.935
303.403
303.828
304.184
304.441
304.603
304.693
304.735
304.752
304.756
304.756
304.757
304.76
304.768
304.782
304.804
304.837
304.882
304.945
305.027
305.134
305.27
305.437
305.639
305.875
306.141
306.435
306.763
307.166
307.743
308.593
309.675
300.54
301.549
302.386
302.99
303.468
303.902
304.263
304.519
304.677
304.761
304.797
304.808
304.808
304.805
304.803
304.804
304.811
304.824
304.846
304.878