/*--------------------------------*- C++ -*----------------------------------*\
| =========                 |                                                 |
| \\      /  F ield         | OpenFOAM: The Open Source CFD Toolbox           |
|  \\    /   O peration     | Version:  v2006                                 |
|   \\  /    A nd           | Website:  www.openfoam.com                      |
|    \\/     M anipulation  |                                                 |
\*---------------------------------------------------------------------------*/
FoamFile
{
    version     2.0;
    format      ascii;
    class       volVectorField;
    location    "62";
    object      U;
}
// * * * * * * * * * * * * * * * * * * * * * * * * * * * * * * * * * * * * * //

dimensions      [0 1 -1 0 0 0 0];


internalField   nonuniform List<vector> 
78750
(
(-0.00503096 -0.000539955 0.00376306)
(-0.00549028 -0.00451262 0.00630852)
(-0.00508749 -0.00687601 0.00696783)
(-0.00363303 -0.00859261 0.00699422)
(-0.00227681 -0.00991108 0.00681069)
(-0.000539368 -0.0108492 0.00657171)
(0.00152123 -0.0114113 0.00633024)
(0.00377594 -0.0116212 0.00610638)
(0.00610563 -0.0115346 0.00590002)
(0.00843634 -0.0112027 0.00570851)
(0.0107078 -0.0106767 0.00552508)
(0.0128709 -0.0100008 0.00534251)
(0.0148873 -0.00920778 0.00515554)
(0.0167269 -0.00832094 0.00496075)
(0.0183652 -0.00735661 0.00475659)
(0.0197812 -0.00632523 0.004544)
(0.020958 -0.0052416 0.00432304)
(0.0218825 -0.00412146 0.00409401)
(0.0225467 -0.0029804 0.0038575)
(0.0229479 -0.00183352 0.00361422)
(0.0230877 -0.000695948 0.00336468)
(0.0229741 0.00041753 0.00311009)
(0.0226045 0.00149027 0.00285192)
(0.0219727 0.00251118 0.00259088)
(0.0210966 0.00347039 0.00232839)
(0.0199991 0.00435698 0.00206532)
(0.0187013 0.00515905 0.00180184)
(0.0172254 0.00586425 0.00153809)
(0.0155892 0.00646073 0.00127366)
(0.0138065 0.00694691 0.00100749)
(0.0118751 0.0074089 0.000741308)
(0.00971478 0.00818709 0.00049346)
(0.00710934 0.00975678 0.0003189)
(0.00400388 0.0113311 0.000276176)
(0.000988921 0.00833497 0.000290349)
(-0.000184359 0.00167576 0.0024894)
(-7.83315e-05 -0.00431175 0.00422275)
(-0.000131938 -0.0102294 0.00476585)
(7.55046e-05 -0.0157351 0.00464208)
(0.000503627 -0.0203967 0.00419445)
(0.00113774 -0.0239155 0.00366594)
(0.00196652 -0.0261987 0.00320256)
(0.00298218 -0.0273906 0.00285164)
(0.00412411 -0.0277008 0.00260089)
(0.0053355 -0.0273098 0.00242622)
(0.00658729 -0.0263579 0.00230539)
(0.00783673 -0.0249655 0.00221448)
(0.0090497 -0.0232222 0.00213586)
(0.0101974 -0.0211938 0.00205823)
(0.0112507 -0.0189284 0.00197665)
(0.0121942 -0.01646 0.00189193)
(0.0130067 -0.0138257 0.00180351)
(0.0136652 -0.0110756 0.00170587)
(0.0141584 -0.0082553 0.00159532)
(0.0144774 -0.00540836 0.00146912)
(0.0146138 -0.00257547 0.0013257)
(0.0145651 0.000205297 0.00116569)
(0.0143498 0.00289698 0.000991191)
(0.0139836 0.00546751 0.00080279)
(0.0134701 0.00789086 0.00060194)
(0.0128158 0.0101455 0.000390209)
(0.01203 0.0122165 0.000168472)
(0.0111177 0.0141046 -6.27191e-05)
(0.010083 0.0158573 -0.000299374)
(0.00892013 0.0176516 -0.000523512)
(0.0075694 0.0199276 -0.000698586)
(0.00592818 0.0233862 -0.000771723)
(0.00397612 0.0279555 -0.000682243)
(0.00193412 0.0301715 -0.000418268)
(0.00019689 0.0202432 -3.49399e-05)
(5.0204e-05 -0.000670768 0.001633)
(0.000597909 -0.00604154 0.00306355)
(0.0011914 -0.0114521 0.00378336)
(0.00192652 -0.0166615 0.00409601)
(0.00273949 -0.0214167 0.00416167)
(0.00358084 -0.0254664 0.00407459)
(0.00441232 -0.0285497 0.00391145)
(0.00524526 -0.0305999 0.00374102)
(0.00609655 -0.0317186 0.00359982)
(0.00694406 -0.032028 0.00348696)
(0.00776979 -0.0316245 0.0033958)
(0.00856695 -0.030586 0.00332362)
(0.00932156 -0.0289815 0.00326895)
(0.0100153 -0.0268803 0.00322645)
(0.0106388 -0.0243259 0.00319814)
(0.0111765 -0.0213687 0.00318031)
(0.0116061 -0.0180966 0.00315837)
(0.0119206 -0.0145871 0.00312078)
(0.0121135 -0.0109123 0.00305745)
(0.0121796 -0.00714064 0.00295894)
(0.0121155 -0.00333949 0.00281637)
(0.0119228 0.000425035 0.00262214)
(0.0116021 0.00408947 0.00237097)
(0.0111573 0.00759478 0.00206253)
(0.0106013 0.0108967 0.00170224)
(0.00994831 0.0139753 0.00130123)
(0.00921123 0.0168446 0.000874785)
(0.00839772 0.0195731 0.00044053)
(0.00750412 0.0223248 1.7481e-05)
(0.00650716 0.0254329 -0.000371437)
(0.00535335 0.0294331 -0.000691196)
(0.0039829 0.0346836 -0.000878815)
(0.00250839 0.0398965 -0.000851691)
(0.0011215 0.040406 -0.00058516)
(9.82788e-05 0.02503 -0.000108693)
(1.21539e-05 -0.00445998 0.00149859)
(0.000531828 -0.0141395 0.00298696)
(0.00130221 -0.0224274 0.0037109)
(0.00228903 -0.0293416 0.00397592)
(0.00337642 -0.0347854 0.00398012)
(0.00447091 -0.0387415 0.0038539)
(0.00551211 -0.0413174 0.00368019)
(0.00646866 -0.0426977 0.00350725)
(0.00735585 -0.0430898 0.00336147)
(0.00818234 -0.0426524 0.00324882)
(0.00893445 -0.0415067 0.00316389)
(0.00960791 -0.0397462 0.00310247)
(0.0102099 -0.0374154 0.0030728)
(0.010739 -0.0345445 0.00307791)
(0.0111821 -0.0312017 0.0031099)
(0.0115327 -0.0274539 0.00316379)
(0.0117885 -0.0233675 0.00323515)
(0.0119464 -0.0190091 0.00331867)
(0.0120026 -0.0144442 0.00340681)
(0.0119534 -0.009738 0.00348826)
(0.0117953 -0.00495944 0.00354671)
(0.0115258 -0.000185827 0.00356026)
(0.0111417 0.00449516 0.00350316)
(0.0106412 0.00899429 0.00335131)
(0.0100304 0.0132321 0.00308918)
(0.00932043 0.0171645 0.00271609)
(0.00852435 0.0208141 0.00224771)
(0.00765249 0.0243046 0.00171162)
(0.00670568 0.0279035 0.0011404)
(0.00566953 0.0320639 0.000569776)
(0.00451726 0.0373295 5.03789e-05)
(0.00322842 0.0436718 -0.000330929)
(0.00196917 0.0488852 -0.000464324)
(0.000862375 0.0477991 -0.000331664)
(7.57181e-05 0.0283023 6.76978e-06)
(4.26192e-05 -0.00657135 0.00115236)
(0.000535266 -0.0187064 0.00227097)
(0.00126487 -0.0284446 0.00275396)
(0.00214642 -0.0359833 0.00288824)
(0.0030728 -0.0414345 0.00285206)
(0.00397267 -0.0450342 0.00274885)
(0.00480789 -0.0471136 0.00263441)
(0.00558082 -0.048016 0.00253566)
(0.00631042 -0.0479899 0.00245796)
(0.00699682 -0.0471782 0.00239747)
(0.0076318 -0.0456819 0.00234963)
(0.00820768 -0.0435794 0.00231094)
(0.00872661 -0.0409047 0.00228286)
(0.00918479 -0.0376674 0.00227368)
(0.00956825 -0.0339277 0.00228514)
(0.00987099 -0.0297597 0.00232014)
(0.01009 -0.0252398 0.00238323)
(0.0102234 -0.0204403 0.00247971)
(0.0102705 -0.0154251 0.00261373)
(0.0102313 -0.0102504 0.0027862)
(0.0101043 -0.00496863 0.00299091)
(0.00988269 0.00036217 0.00321051)
(0.00956905 0.00566554 0.00341352)
(0.00916686 0.010846 0.00355514)
(0.00866955 0.0158062 0.00358696)
(0.00807591 0.020479 0.00347114)
(0.00739004 0.0248775 0.00319221)
(0.00661652 0.0291465 0.00275876)
(0.00575498 0.0336035 0.00219709)
(0.00479823 0.038734 0.00154974)
(0.00373798 0.0449655 0.000891066)
(0.00258327 0.0518255 0.00034638)
(0.00152657 0.0565038 5.92744e-05)
(0.00064558 0.0537497 2.81951e-05)
(4.21555e-05 0.0307626 0.000145526)
(2.4736e-05 -0.00897601 0.000907282)
(0.000440233 -0.0241827 0.00180073)
(0.00107634 -0.035762 0.00220008)
(0.00185221 -0.0441688 0.00233769)
(0.00266833 -0.0497937 0.00234451)
(0.00346356 -0.0531877 0.00229306)
(0.00421434 -0.0549356 0.0022225)
(0.00492748 -0.0554867 0.00215007)
(0.0056164 -0.0550961 0.0020786)
(0.00627372 -0.0538997 0.00200844)
(0.00688555 -0.0519897 0.00194189)
(0.00745225 -0.0494039 0.00187935)
(0.00796631 -0.0461675 0.0018186)
(0.00841099 -0.0423416 0.00176004)
(0.0087783 -0.0380029 0.00170719)
(0.00906342 -0.03324 0.00166594)
(0.00926328 -0.0281444 0.00164461)
(0.00937677 -0.0228013 0.00165391)
(0.00940482 -0.0172834 0.00170645)
(0.00934999 -0.011648 0.00181466)
(0.00921591 -0.00593962 0.00198844)
(0.00900783 -0.000198136 0.00222964)
(0.00872464 0.00553035 0.00252501)
(0.00836231 0.0111825 0.00284118)
(0.00791994 0.0166833 0.00312427)
(0.00739417 0.0219763 0.00331039)
(0.00678116 0.0270789 0.0033432)
(0.006077 0.0321465 0.00318761)
(0.00527655 0.0375156 0.00283334)
(0.00437527 0.043657 0.00229909)
(0.0033762 0.0508394 0.00165424)
(0.00230783 0.0581775 0.00104179)
(0.0013582 0.0624587 0.000632518)
(0.000576175 0.0583782 0.000422788)
(4.43011e-05 0.0326104 0.000274026)
(3.83372e-05 -0.0106733 0.000664374)
(0.000416885 -0.0279306 0.00133756)
(0.000977995 -0.0406207 0.00165996)
(0.00164301 -0.04945 0.0017924)
(0.00232971 -0.0550509 0.00182206)
(0.00299259 -0.0582221 0.00180049)
(0.00361987 -0.0597064 0.00175739)
(0.00422603 -0.0599975 0.00170585)
(0.00481992 -0.0593373 0.00165098)
(0.00538479 -0.0578565 0.00159336)
(0.00591797 -0.055622 0.00153107)
(0.00641963 -0.0526466 0.00146355)
(0.00687476 -0.0489729 0.00139146)
(0.00727371 -0.0446653 0.00131648)
(0.00760835 -0.0398144 0.00124131)
(0.00787205 -0.034528 0.00117036)
(0.00806028 -0.0289184 0.00111046)
(0.0081709 -0.0230908 0.0010712)
(0.00820413 -0.0171348 0.00106499)
(0.00816214 -0.011119 0.00110668)
(0.00804816 -0.00509057 0.00121182)
(0.0078652 0.000918393 0.00139305)
(0.00761766 0.00687841 0.0016541)
(0.0073082 0.0127571 0.00198175)
(0.00693429 0.0185215 0.00234017)
(0.00649 0.0241584 0.00267224)
(0.00596691 0.0297205 0.00291054)
(0.00535512 0.0353876 0.00299272)
(0.00464514 0.0414985 0.00287276)
(0.00383278 0.0484621 0.00253363)
(0.00292722 0.0563388 0.00201598)
(0.0019744 0.0638612 0.00144756)
(0.00114388 0.0676314 0.00099418)
(0.000470524 0.0622802 0.00066013)
(2.91129e-05 0.0341313 0.000320698)
(2.43677e-05 -0.0123337 0.00052339)
(0.000331323 -0.0317146 0.00109539)
(0.000801486 -0.0456334 0.00140999)
(0.00137361 -0.0550247 0.00157307)
(0.00197498 -0.0607479 0.00164115)
(0.00256442 -0.0638373 0.00165387)
(0.0031361 -0.0651781 0.00163728)
(0.00369703 -0.0652949 0.00160236)
(0.00424631 -0.0644346 0.00155697)
(0.00477752 -0.0627057 0.00150369)
(0.00528574 -0.0601515 0.00143897)
(0.00576068 -0.0567986 0.00136383)
(0.00619295 -0.0526878 0.00127928)
(0.0065732 -0.0478908 0.00118636)
(0.00689333 -0.0425121 0.00108689)
(0.00714703 -0.0366776 0.000984372)
(0.00732992 -0.03052 0.000884553)
(0.0074397 -0.0241646 0.000796135)
(0.00747629 -0.0177204 0.00073125)
(0.0074416 -0.0112725 0.000705316)
(0.0073392 -0.00487887 0.000735982)
(0.00717393 0.00142555 0.000840734)
(0.00695002 0.00762203 0.00103217)
(0.00667031 0.0137048 0.00131105)
(0.00633491 0.0196845 0.00165899)
(0.00593887 0.0256021 0.00203463)
(0.00547217 0.0315631 0.00237709)
(0.00492153 0.0377832 0.00261596)
(0.00427433 0.0446018 0.00268321)
(0.00352562 0.0523517 0.00253062)
(0.00268645 0.0608804 0.00216377)
(0.00181271 0.0685861 0.00167914)
(0.001054 0.0719704 0.00122195)
(0.000435361 0.0655524 0.000807053)
(3.21757e-05 0.035408 0.000339604)
(2.82837e-05 -0.0135811 0.000411198)
(0.00030543 -0.0345507 0.000907618)
(0.000727364 -0.0493914 0.00121552)
(0.00123791 -0.0592148 0.00139594)
(0.00177265 -0.0650464 0.00148499)
(0.00229648 -0.0680928 0.00151624)
(0.00280704 -0.0693356 0.00151489)
(0.00331009 -0.0693208 0.00149292)
(0.00380399 -0.0682925 0.00145559)
(0.00428343 -0.0663488 0.00140472)
(0.00474198 -0.0635235 0.00134238)
(0.00517208 -0.0598366 0.00126983)
(0.00556503 -0.0553302 0.00118761)
(0.0059124 -0.0500851 0.0010959)
(0.00620709 -0.0442201 0.000995212)
(0.00644335 -0.037877 0.000887059)
(0.00661689 -0.031206 0.000774746)
(0.00672498 -0.0243518 0.000664333)
(0.00676674 -0.0174421 0.000565496)
(0.00674308 -0.0105782 0.00049182)
(0.00665652 -0.00383253 0.000460626)
(0.00651118 0.00274953 0.000491543)
(0.00631191 0.00914863 0.000602719)
(0.00606239 0.0153765 0.000804879)
(0.00576326 0.0214822 0.00109427)
(0.00541014 0.0275622 0.00144676)
(0.00499301 0.0337824 0.00181593)
(0.00449765 0.0404051 0.00213646)
(0.00391026 0.0477734 0.00233207)
(0.00322515 0.0561392 0.00233305)
(0.0024532 0.0651447 0.00211262)
(0.00165616 0.0729076 0.00173049)
(0.000963272 0.0759036 0.001303)
(0.000395101 0.068498 0.000853864)
(2.87215e-05 0.036582 0.000327154)
(2.03645e-05 -0.0147945 0.000359652)
(0.000261852 -0.0373925 0.000835312)
(0.000641596 -0.0532298 0.0011555)
(0.00111003 -0.0635587 0.00135566)
(0.00160568 -0.0695604 0.00146174)
(0.00209445 -0.0726139 0.00150543)
(0.0025741 -0.0737971 0.00151242)
(0.00304884 -0.0736804 0.00149574)
(0.00351513 -0.0725069 0.00146131)
(0.00396673 -0.0703682 0.00141246)
(0.00439723 -0.0672917 0.00135133)
(0.00479951 -0.0632949 0.00127926)
(0.00516587 -0.0584217 0.0011968)
(0.00548936 -0.0527602 0.00110399)
(0.00576428 -0.046439 0.00100086)
(0.00598606 -0.0396123 0.000888149)
(0.00615109 -0.0324438 0.000767963)
(0.00625669 -0.0250931 0.00064459)
(0.00630134 -0.0177043 0.000525378)
(0.00628529 -0.0103953 0.000421454)
(0.0062106 -0.00325524 0.000348137)
(0.00608023 0.00365656 0.000324219)
(0.00589838 0.0103153 0.000369235)
(0.00566913 0.0167424 0.000498825)
(0.00539355 0.0230162 0.000718776)
(0.00506788 0.0292801 0.00101888)
(0.00468271 0.0357555 0.00136814)
(0.00422413 0.0427516 0.00171267)
(0.00367828 0.0506194 0.00197819)
(0.0030389 0.0595396 0.00208419)
(0.00231536 0.0689728 0.00197949)
(0.00157157 0.0767997 0.00169019)
(0.000920563 0.079481 0.00130466)
(0.000379738 0.0712075 0.000851335)
(2.99712e-05 0.0376906 0.000307414)
(2.17538e-05 -0.0158255 0.000327976)
(0.000250084 -0.0398259 0.00079537)
(0.000608105 -0.0565308 0.00112508)
(0.00104774 -0.0673085 0.00133725)
(0.00151059 -0.0734712 0.00145324)
(0.00196563 -0.0765428 0.0015046)
(0.00241221 -0.07768 0.00151752)
(0.00285427 -0.077473 0.00150566)
(0.00328776 -0.0761644 0.00147557)
(0.0037065 -0.0738409 0.00143106)
(0.00410448 -0.0705257 0.0013747)
(0.00447519 -0.0662356 0.00130813)
(0.00481192 -0.0610187 0.00123189)
(0.0051089 -0.054971 0.00114559)
(0.00536158 -0.0482308 0.00104839)
(0.0055664 -0.0409623 0.000939761)
(0.0057205 -0.0333389 0.000820147)
(0.00582163 -0.0255304 0.000691882)
(0.00586828 -0.0176924 0.000560111)
(0.00585969 -0.00995644 0.000433769)
(0.00579667 -0.00242685 0.000326366)
(0.00568152 0.00482118 0.000255621)
(0.00551723 0.0117524 0.000241565)
(0.00530723 0.018392 0.0003029)
(0.00505308 0.024839 0.000451924)
(0.00475147 0.031275 0.000688864)
(0.00439376 0.0379703 0.00099598)
(0.00396697 0.0452767 0.00133191)
(0.00345788 0.0535545 0.00162922)
(0.00285989 0.0629215 0.00180391)
(0.00218064 0.0726794 0.00178802)
(0.00148495 0.0805129 0.00157984)
(0.000871778 0.0828826 0.00124301)
(0.000357718 0.0737841 0.00080812)
(2.74185e-05 0.0387597 0.000279108)
(1.82019e-05 -0.0168468 0.000318008)
(0.000231204 -0.0422703 0.000789837)
(0.00056989 -0.0598686 0.00112769)
(0.000988327 -0.0711129 0.00134558)
(0.00142879 -0.0774487 0.00146469)
(0.00186125 -0.080549 0.00151799)
(0.00228566 -0.0816493 0.00153224)
(0.00270541 -0.0813599 0.00152143)
(0.00311579 -0.0799249 0.00149251)
(0.0035106 -0.077428 0.00144973)
(0.00388412 -0.0738899 0.00139616)
(0.0042304 -0.0693285 0.00133378)
(0.00454359 -0.0637963 0.00126329)
(0.00481902 -0.0573962 0.00118421)
(0.00505321 -0.0502743 0.00109529)
(0.00524356 -0.0426018 0.000995176)
(0.00538795 -0.0345592 0.00088313)
(0.00548456 -0.0263233 0.000759847)
(0.00553202 -0.018058 0.000628409)
(0.00552937 -0.00990477 0.000495321)
(0.00547649 -0.00198047 0.000371436)
(0.00537436 0.00562582 0.000272109)
(0.00522509 0.0128684 0.00021607)
(0.00503138 0.0197718 0.000222774)
(0.00479428 0.0264484 0.000308357)
(0.00451092 0.0331073 0.000480635)
(0.00417359 0.0400566 0.000732923)
(0.00377045 0.0476829 0.00103634)
(0.00328926 0.0563536 0.00133339)
(0.00272343 0.0661315 0.00154247)
(0.00207909 0.0761805 0.00158614)
(0.00142117 0.0840182 0.00144161)
(0.000837034 0.086104 0.00115202)
(0.000342691 0.076233 0.00074764)
(2.6529e-05 0.0397815 0.000250443)
(1.87134e-05 -0.0177955 0.000317989)
(0.000226476 -0.0445445 0.000800935)
(0.000554306 -0.0629691 0.00114667)
(0.000956364 -0.0746394 0.00136784)
(0.00137643 -0.0811305 0.0014878)
(0.00178676 -0.0842544 0.00154155)
(0.00218854 -0.0853168 0.00155655)
(0.002585 -0.0849454 0.00154708)
(0.00297125 -0.0833851 0.00152044)
(0.00334125 -0.0807174 0.00148124)
(0.00368964 -0.0769621 0.00143287)
(0.00401105 -0.0721399 0.00137747)
(0.00430047 -0.0663093 0.00131567)
(0.00455422 -0.0595813 0.00124654)
(0.0047698 -0.052109 0.00116807)
(0.00494545 -0.0440693 0.00107784)
(0.00507974 -0.0356468 0.000973792)
(0.00517124 -0.0270221 0.000855187)
(0.00521866 -0.0183637 0.000723591)
(0.00522075 -0.00982003 0.000583952)
(0.00517674 -0.0015177 0.000445511)
(0.0050867 0.00644136 0.000322085)
(0.00495167 0.0140007 0.000231313)
(0.00477315 0.0211826 0.000192655)
(0.00455152 0.0281086 0.000224168)
(0.00428422 0.0350093 0.000338311)
(0.00396438 0.042222 0.000536176)
(0.00358139 0.0501595 0.000799089)
(0.00312426 0.0591912 0.00107963)
(0.00258679 0.0693273 0.00130174)
(0.00197424 0.0796091 0.0013841)
(0.0013517 0.0874137 0.0012891)
(0.000796105 0.0892077 0.00104361)
(0.000323278 0.0785804 0.000676386)
(2.4137e-05 0.0407583 0.000221047)
(1.70342e-05 -0.0187435 0.00032316)
(0.000216632 -0.0468208 0.000814652)
(0.000531562 -0.066067 0.00116127)
(0.000917144 -0.078153 0.00137869)
(0.00131833 -0.084791 0.00149418)
(0.00170895 -0.0879356 0.0015448)
(0.00209089 -0.08896 0.00155808)
(0.00246704 -0.0885082 0.00154818)
(0.00283225 -0.0868261 0.00152255)
(0.00318068 -0.0839943 0.00148616)
(0.00350731 -0.0800333 0.00144285)
(0.00380736 -0.0749678 0.00139512)
(0.00407664 -0.0688631 0.00134381)
(0.00431232 -0.0618374 0.00128787)
(0.00451272 -0.0540499 0.00122475)
(0.00467676 -0.0456812 0.00115103)
(0.00480349 -0.0369177 0.00106323)
(0.00489181 -0.0279416 0.000958813)
(0.00494044 -0.0189226 0.000837276)
(0.00494793 -0.0100129 0.000701387)
(0.00491294 -0.00134554 0.000558254)
(0.00483466 0.00696749 0.000419857)
(0.00471313 0.0148599 0.000302682)
(0.0045488 0.0223498 0.000226113)
(0.00434134 0.0295644 0.000209649)
(0.00408805 0.0367492 0.000269231)
(0.00378269 0.044263 0.000411958)
(0.00341591 0.0525368 0.000627662)
(0.00297818 0.0619355 0.000878559)
(0.00246418 0.0724167 0.00109592)
(0.00187898 0.0829088 0.00119861)
(0.00128784 0.0906677 0.00113938)
(0.000758346 0.0921733 0.000932386)
(0.000305754 0.0808136 0.000603971)
(2.24597e-05 0.0416823 0.000193893)
(1.7054e-05 -0.0196525 0.000332213)
(0.000212696 -0.048996 0.000835311)
(0.000518964 -0.0690149 0.00118366)
(0.000891242 -0.0814832 0.00139727)
(0.00127572 -0.0882511 0.00150795)
(0.00164817 -0.0914095 0.00155507)
(0.00201139 -0.0923938 0.00156641)
(0.00236809 -0.0918615 0.00155613)
(0.00271305 -0.0900594 0.00153183)
(0.00304069 -0.0870677 0.00149881)
(0.00334638 -0.0829087 0.00146121)
(0.0036259 -0.0776126 0.00142178)
(0.00387586 -0.0712524 0.00138136)
(0.00409422 -0.0639538 0.00133868)
(0.00428006 -0.055881 0.00129063)
(0.00443293 -0.0472171 0.00123292)
(0.00455236 -0.0381487 0.00116089)
(0.0046375 -0.0288566 0.00107054)
(0.00468709 -0.01951 0.000959669)
(0.00469941 -0.0102619 0.000829234)
(0.00467256 -0.00124953 0.000684468)
(0.00460491 0.00740712 0.000535657)
(0.0044955 0.0156328 0.000398083)
(0.00434385 0.0234412 0.000290725)
(0.00414893 0.0309626 0.000233798)
(0.00390783 0.0384537 0.000245484)
(0.00361475 0.0462888 0.000337159)
(0.00326146 0.0549096 0.000505332)
(0.00283998 0.0646693 0.00072076)
(0.00234622 0.0754711 0.000922666)
(0.00178573 0.0861371 0.00103294)
(0.00122402 0.0938218 0.000998831)
(0.000719958 0.0950285 0.000824861)
(0.000287898 0.0829469 0.00053449)
(2.06509e-05 0.0425584 0.000169576)
(1.59037e-05 -0.0205616 0.000341709)
(0.000205245 -0.0511653 0.00085106)
(0.000500671 -0.0719411 0.0011942)
(0.000858329 -0.0847722 0.0013982)
(0.00122568 -0.0916556 0.00150032)
(0.00158024 -0.0948208 0.00154175)
(0.00192547 -0.0957617 0.00154988)
(0.00226382 -0.0951478 0.00153845)
(0.00258997 -0.0932268 0.00151514)
(0.00289857 -0.0900795 0.00148553)
(0.00318537 -0.0857315 0.00145417)
(0.00344667 -0.0802195 0.0014242)
(0.00367977 -0.0736249 0.00139671)
(0.00388336 -0.0660801 0.00137037)
(0.00405712 -0.0577538 0.00134168)
(0.00420115 -0.04883 0.00130552)
(0.00431535 -0.0394938 0.00125588)
(0.00439908 -0.0299225 0.00118695)
(0.00445107 -0.0202819 0.0010944)
(0.00446931 -0.0107231 0.000976807)
(0.00445133 -0.00138479 0.000837106)
(0.00439465 0.00760759 0.000683678)
(0.00429734 0.0161709 0.000530658)
(0.00415795 0.024314 0.000396843)
(0.00397479 0.0321678 0.000303292)
(0.00374474 0.0399962 0.000270189)
(0.00346237 0.0481839 0.000312393)
(0.0031205 0.0571767 0.000431902)
(0.00271275 0.0673099 0.000607007)
(0.0022365 0.0784287 0.000784911)
(0.00169823 0.0892531 0.000892249)
(0.00116367 0.0968513 0.000873854)
(0.000683696 0.0977583 0.000726962)
(0.000271404 0.0849742 0.000471794)
(1.9201e-05 0.0433855 0.000149113)
(1.55535e-05 -0.0214388 0.000351775)
(0.000200713 -0.0532472 0.000867306)
(0.000487694 -0.0747365 0.00120542)
(0.000833207 -0.0879023 0.00140017)
(0.00118584 -0.0948878 0.00149393)
(0.00152477 -0.0980553 0.00152966)
(0.00185403 -0.0989523 0.00153441)
(0.00217585 -0.0982584 0.00152162)
(0.00248491 -0.0962224 0.00149903)
(0.00277611 -0.0929261 0.00147247)
(0.00304555 -0.0883992 0.00144678)
(0.00329008 -0.0826861 0.00142539)
(0.00350761 -0.0758765 0.00140959)
(0.00369745 -0.0681098 0.0013981)
(0.0038599 -0.0595584 0.00138726)
(0.00399554 -0.0504063 0.00137148)
(0.00410467 -0.0408354 0.00134393)
(0.0041869 -0.031018 0.00129742)
(0.00424097 -0.0211142 0.00122574)
(0.00426464 -0.0112711 0.00112509)
(0.00425487 -0.00162582 0.000995843)
(0.00420834 0.00769225 0.000843959)
(0.0041221 0.016593 0.000681878)
(0.00399376 0.0250795 0.000527774)
(0.00382091 0.0332815 0.000403228)
(0.00360021 0.041467 0.000330067)
(0.00332661 0.0500266 0.000326077)
(0.00299395 0.0594043 0.00039792)
(0.00259742 0.0699119 0.000530606)
(0.00213602 0.0813332 0.000679159)
(0.00161752 0.0922907 0.000776075)
(0.00110773 0.0997824 0.000766109)
(0.000650179 0.100384 0.000641012)
(0.000256434 0.0869101 0.000417537)
(1.80125e-05 0.0441703 0.000132849)
(1.46993e-05 -0.0223151 0.000361017)
(0.000194601 -0.0553196 0.000877983)
(0.000472175 -0.0775056 0.0012058)
(0.000805055 -0.0909864 0.00138718)
(0.00114302 -0.0980594 0.00147008)
(0.00146676 -0.101221 0.00149872)
(0.00178078 -0.10207 0.00149931)
(0.00208702 -0.101295 0.00148476)
(0.00238016 -0.0991435 0.00146272)
(0.00265536 -0.0957012 0.00143927)
(0.00290908 -0.0910027 0.00141959)
(0.00313858 -0.0851007 0.00140743)
(0.00334231 -0.0780934 0.00140433)
(0.00352011 -0.0701274 0.00140916)
(0.00367273 -0.0613782 0.00141819)
(0.0038012 -0.0520291 0.00142547)
(0.00390619 -0.0422576 0.00142336)
(0.00398758 -0.0322292 0.00140339)
(0.00404419 -0.0220959 0.0013574)
(0.00407358 -0.0119977 0.00127917)
(0.00407223 -0.00206777 0.00116622)
(0.00403599 0.00756408 0.00102175)
(0.00396087 0.016802 0.000856122)
(0.00384344 0.0256426 0.000686626)
(0.00368058 0.0342122 0.000535215)
(0.00346869 0.0427797 0.000425239)
(0.00320304 0.0517368 0.000377155)
(0.00287851 0.0615209 0.000401805)
(0.00249181 0.0724146 0.000490322)
(0.0020436 0.084138 0.000605277)
(0.00154307 0.0952187 0.00068567)
(0.00105602 0.102598 0.000677813)
(0.00061933 0.102896 0.000569268)
(0.000242905 0.0887547 0.000373078)
(1.70407e-05 0.0449147 0.000120904)
(1.41498e-05 -0.0231619 0.000368937)
(0.000189818 -0.0573103 0.000884997)
(0.000459662 -0.0801528 0.00120159)
(0.000781847 -0.0939231 0.0013696)
(0.00110721 -0.101072 0.00144186)
(0.00141783 -0.104226 0.00146348)
(0.00171861 -0.105027 0.0014598)
(0.00201123 -0.104171 0.00144318)
(0.00229037 -0.10191 0.00142123)
(0.00255144 -0.0983286 0.00140019)
(0.0027912 -0.0934688 0.00138547)
(0.00300731 -0.0873915 0.00138108)
(0.00319866 -0.0802041 0.00138884)
(0.00336552 -0.0720595 0.00140784)
(0.00350907 -0.0631364 0.00143455)
(0.00363074 -0.0536173 0.00146304)
(0.0037316 -0.0436745 0.00148539)
(0.00381184 -0.0334653 0.0014923)
(0.00387044 -0.0231321 0.00147411)
(0.00390488 -0.0128054 0.00142226)
(0.00391123 -0.00261132 0.00133125)
(0.00388451 0.0073221 0.00120097)
(0.00381969 0.0168946 0.00103894)
(0.00371227 0.0260955 0.000860814)
(0.00355835 0.0350459 0.000688391)
(0.00335403 0.0440119 0.000546251)
(0.00309495 0.0533826 0.000457326)
(0.00277696 0.0635837 0.00043638)
(0.00239832 0.0748645 0.000480322)
(0.00196129 0.0868791 0.000559093)
(0.00147659 0.0980646 0.000618628)
(0.00100987 0.105319 0.000608001)
(0.000591955 0.105314 0.000511487)
(0.000231111 0.0905203 0.00033824)
(1.63153e-05 0.0456242 0.00011301)
(1.34921e-05 -0.0240063 0.000375387)
(0.000184869 -0.0592899 0.00088669)
(0.000447183 -0.082774 0.00118844)
(0.000759096 -0.0968169 0.00134041)
(0.00107246 -0.10403 0.00140049)
(0.00137074 -0.107167 0.00141429)
(0.0016592 -0.107916 0.0014059)
(0.00193925 -0.106979 0.00138699)
(0.00220559 -0.104607 0.00136504)
(0.00245383 -0.10089 0.0013464)
(0.00268099 -0.0958748 0.0013367)
(0.00288505 -0.0896321 0.00134019)
(0.00306527 -0.0822781 0.0013589)
(0.00322223 -0.0739727 0.00139218)
(0.00335748 -0.0648978 0.00143668)
(0.00347279 -0.0552345 0.00148657)
(0.00356963 -0.04515 0.0015338)
(0.00364855 -0.0347923 0.00156853)
(0.00370877 -0.0242919 0.00157994)
(0.00374782 -0.0137673 0.00155744)
(0.00376146 -0.00333414 0.00149268)
(0.00374403 0.00688525 0.00138206)
(0.00368944 0.0167884 0.00122974)
(0.00359207 0.026357 0.00104906)
(0.00344712 0.0357043 0.000861058)
(0.00325034 0.0450902 0.000691141)
(0.00299759 0.0548966 0.000564479)
(0.00268568 0.065533 0.000499561)
(0.00231431 0.0772115 0.000498837)
(0.0018873 0.0895186 0.000539471)
(0.00141691 0.100804 0.000574609)
(0.000968504 0.107934 0.000556956)
(0.000567572 0.107633 0.000468095)
(0.000220781 0.09221 0.00031311)
(1.57665e-05 0.0463015 0.000108878)
(1.29519e-05 -0.0248242 0.000379535)
(0.000180559 -0.0611953 0.000882462)
(0.000436391 -0.0852837 0.00116754)
(0.000739506 -0.0995751 0.00130295)
(0.00104255 -0.10684 0.00135085)
(0.00133017 -0.109958 0.0013568)
(0.00160795 -0.110656 0.00134356)
(0.00187705 -0.109638 0.00132207)
(0.00213219 -0.10716 0.00129964)
(0.00236922 -0.103313 0.00128269)
(0.00258536 -0.0981509 0.00127699)
(0.00277886 -0.0917536 0.00128696)
(0.00294924 -0.0842464 0.00131489)
(0.00309738 -0.0757959 0.0013604)
(0.00322505 -0.0665873 0.00142053)
(0.00333439 -0.0568009 0.00148976)
(0.00342721 -0.0465986 0.00156026)
(0.00350444 -0.0361188 0.00162204)
(0.0035656 -0.0254793 0.00166352)
(0.00360834 -0.0147843 0.00167249)
(0.0036283 -0.00413609 0.00163788)
(0.00361918 0.00635183 0.0015525)
(0.00357399 0.0165773 0.00141659)
(0.00348595 0.0265145 0.00124038)
(0.00334934 0.0362675 0.00104339)
(0.00315944 0.0460864 0.000851266)
(0.00291233 0.0563417 0.000691104)
(0.00260566 0.0674222 0.000584934)
(0.00224048 0.0794988 0.000540597)
(0.00182212 0.0920899 0.000542385)
(0.00136432 0.103462 0.00055085)
(0.00093211 0.110462 0.000522957)
(0.000546201 0.109869 0.000437995)
(0.000211829 0.0938325 0.000296875)
(1.53745e-05 0.0469499 0.000108064)
(1.24496e-05 -0.0256391 0.000381652)
(0.000176708 -0.0630891 0.000872805)
(0.000426847 -0.087769 0.00113873)
(0.000722145 -0.102294 0.00125605)
(0.00101589 -0.109601 0.00129095)
(0.00129386 -0.112693 0.00128866)
(0.00156196 -0.113335 0.00127034)
(0.00182117 -0.112236 0.00124613)
(0.00206625 -0.109652 0.00122312)
(0.00229324 -0.105678 0.00120773)
(0.00249955 -0.100374 0.00120585)
(0.00268357 -0.0938298 0.00122201)
(0.00284503 -0.0861799 0.00125869)
(0.00298501 -0.0775979 0.00131579)
(0.00310554 -0.0682725 0.00139064)
(0.00320902 -0.0583835 0.00147811)
(0.00329762 -0.0480874 0.00157068)
(0.00337267 -0.0375129 0.00165852)
(0.00343405 -0.0267638 0.0017297)
(0.00347968 -0.015928 0.00177088)
(0.00350519 -0.00509128 0.00176873)
(0.00350385 0.00564598 0.00171257)
(0.00346778 0.0161851 0.00159848)
(0.00338904 0.0264935 0.00143289)
(0.00326091 0.0366639 0.00123301)
(0.00307807 0.0469335 0.00102408)
(0.00283667 0.0576569 0.000834667)
(0.00253512 0.0691975 0.000690126)
(0.00217571 0.0816824 0.000603535)
(0.00176513 0.0945607 0.000566232)
(0.00131853 0.10602 0.000546309)
(0.00090062 0.112894 0.000505436)
(0.000527918 0.112019 0.000420836)
(0.000204347 0.0953923 0.000289161)
(1.51935e-05 0.0475724 0.000110262)
(1.20481e-05 -0.0264307 0.00038087)
(0.000173418 -0.0649168 0.000856024)
(0.000418701 -0.0901538 0.00110061)
(0.000707358 -0.104889 0.00119909)
(0.000993158 -0.112226 0.00122089)
(0.00126284 -0.115288 0.00121029)
(0.00152259 -0.115873 0.00118672)
(0.00177322 -0.114694 0.00115949)
(0.00200961 -0.112007 0.00113543)
(0.00222792 -0.10791 0.00112091)
(0.00242569 -0.10247 0.00112188)
(0.00260144 -0.095787 0.00114298)
(0.00275505 -0.0880035 0.00118689)
(0.00288777 -0.0793007 0.0012538)
(0.0030018 -0.0698713 0.0013414)
(0.00309979 -0.059895 0.00144504)
(0.00318419 -0.0495237 0.0015577)
(0.0032567 -0.0388764 0.00166993)
(0.00331757 -0.0280431 0.00176985)
(0.00336505 -0.0170938 0.00184346)
(0.00339489 -0.00609546 0.00187563)
(0.00340012 0.00486838 0.00185247)
(0.00337213 0.015706 0.00176569)
(0.00330193 0.0263799 0.00161732)
(0.00318173 0.0369709 0.00142138)
(0.00300556 0.0477001 0.00120192)
(0.00276951 0.0589019 0.000988479)
(0.00247267 0.07091 0.00080944)
(0.00211844 0.0838038 0.000682956)
(0.00171473 0.0969629 0.000607324)
(0.00127805 0.108499 0.000558249)
(0.000872727 0.115247 0.000502437)
(0.000511615 0.114095 0.000415227)
(0.000197591 0.0968947 0.000288987)
(1.49906e-05 0.0481708 0.000115026)
(1.17738e-05 -0.0272197 0.000377745)
(0.000170827 -0.0667336 0.000833829)
(0.000412138 -0.092516 0.00105534)
(0.000695217 -0.107449 0.00113422)
(0.000974221 -0.114805 0.00114269)
(0.00123682 -0.11783 0.00112371)
(0.00148946 -0.118355 0.00109483)
(0.00173274 -0.117096 0.00106444)
(0.00196158 -0.114307 0.00103912)
(0.00217233 -0.11009 0.00102519)
(0.00236256 -0.104519 0.00102862)
(0.0025309 -0.097702 0.00105413)
(0.00267735 -0.0897928 0.00110455)
(0.00280331 -0.0809794 0.00118027)
(0.00291115 -0.0714585 0.00127932)
(0.00300371 -0.0614101 0.00139747)
(0.00308374 -0.0509816 0.00152826)
(0.00315324 -0.040283 0.0016628)
(0.00321288 -0.0293898 0.00178963)
(0.00326131 -0.0183534 0.00189456)
(0.0032945 -0.00721943 0.00196128)
(0.00330541 0.00394902 0.00197317)
(0.00328487 0.0150713 0.0019177)
(0.00322288 0.026107 0.00179203)
(0.00311056 0.0371246 0.00160621)
(0.00294112 0.0483265 0.00138225)
(0.00271048 0.0600226 0.00115)
(0.00241822 0.0725125 0.000940489)
(0.00206875 0.0858252 0.000776744)
(0.00167111 0.09927 0.000663907)
(0.0012431 0.110887 0.000585341)
(0.000848759 0.117516 0.000513013)