/*--------------------------------*- C++ -*----------------------------------*\
| =========                 |                                                 |
| \\      /  F ield         | OpenFOAM: The Open Source CFD Toolbox           |
|  \\    /   O peration     | Version:  v2006                                 |
|   \\  /    A nd           | Website:  www.openfoam.com                      |
|    \\/     M anipulation  |                                                 |
\*---------------------------------------------------------------------------*/
FoamFile
{
    version     2.0;
    format      ascii;
    class       surfaceScalarField;
    location    "83";
    object      phi;
}
// * * * * * * * * * * * * * * * * * * * * * * * * * * * * * * * * * * * * * //

dimensions      [1 0 -1 0 0 0 0];
oriented        oriented;


internalField   nonuniform List<scalar> 
228225
(
1.18783e-07
-1.5579e-07
5.50646e-08
3.32905e-07
-3.54928e-07
1.40706e-07
6.53316e-07
-5.21831e-07
2.01286e-07
1.09678e-06
-6.84106e-07
2.40503e-07
1.67429e-06
-8.41465e-07
2.63819e-07
2.38268e-06
-9.8525e-07
2.76757e-07
3.20637e-06
-1.10722e-06
2.83448e-07
4.12218e-06
-1.20236e-06
2.86502e-07
5.10345e-06
-1.26867e-06
2.87385e-07
6.12275e-06
-1.30615e-06
2.8685e-07
7.15343e-06
-1.31588e-06
2.8524e-07
8.17036e-06
-1.29953e-06
2.82679e-07
9.15034e-06
-1.25905e-06
2.79182e-07
1.00724e-05
-1.19667e-06
2.74714e-07
1.09175e-05
-1.11411e-06
2.69257e-07
1.16679e-05
-1.01296e-06
2.62773e-07
1.23082e-05
-8.95292e-07
2.55251e-07
1.28249e-05
-7.63152e-07
2.46707e-07
1.32068e-05
-6.18704e-07
2.37201e-07
1.34447e-05
-4.64364e-07
2.26839e-07
1.35323e-05
-3.02968e-07
2.15766e-07
1.3467e-05
-1.38402e-07
2.04181e-07
1.32507e-05
2.44495e-08
1.9232e-07
1.28686e-05
2.02099e-07
1.80479e-07
1.23319e-05
3.68228e-07
1.6902e-07
1.16492e-05
5.2499e-07
1.58311e-07
1.08308e-05
6.70165e-07
1.48704e-07
9.88843e-06
8.02448e-07
1.40511e-07
8.8325e-06
9.22484e-07
1.3396e-07
7.66758e-06
1.03629e-06
1.29099e-07
6.37774e-06
1.16471e-06
1.25515e-07
4.9042e-06
1.35242e-06
1.21366e-07
3.17142e-06
1.6215e-06
1.11214e-07
1.28807e-06
1.79726e-06
8.53304e-08
1.24998e-06
3.62828e-08
1.08457e-07
-3.17102e-07
5.30477e-08
4.20398e-07
-7.96607e-07
1.29613e-07
9.11634e-07
-1.19371e-06
1.80497e-07
1.55659e-06
-1.54228e-06
2.13044e-07
2.32356e-06
-1.84152e-06
2.32876e-07
3.1774e-06
-2.08384e-06
2.44498e-07
4.08427e-06
-2.26553e-06
2.51157e-07
5.01453e-06
-2.38787e-06
2.54957e-07
5.9433e-06
-2.4549e-06
2.5715e-07
6.84995e-06
-2.47153e-06
2.58426e-07
7.71723e-06
-2.44259e-06
2.59131e-07
8.5305e-06
-2.3725e-06
2.59408e-07
9.27723e-06
-2.26531e-06
2.5925e-07
9.94683e-06
-2.12502e-06
2.58497e-07
1.05305e-05
-1.95508e-06
2.57091e-07
1.10202e-05
-1.75788e-06
2.5503e-07
1.14086e-05
-1.53602e-06
2.52194e-07
1.1689e-05
-1.29211e-06
2.48464e-07
1.18553e-05
-1.02887e-06
2.43733e-07
1.19024e-05
-7.49246e-07
2.37857e-07
1.18254e-05
-4.56614e-07
2.30709e-07
1.16199e-05
-1.54971e-07
2.22194e-07
1.12812e-05
1.51112e-07
2.12293e-07
1.08264e-05
4.5601e-07
2.01123e-07
1.02533e-05
7.52851e-07
1.88844e-07
9.56823e-06
1.03473e-06
1.7578e-07
8.78021e-06
1.29616e-06
1.62502e-07
7.89809e-06
1.53521e-06
1.49845e-07
6.92637e-06
1.75606e-06
1.38622e-07
5.85842e-06
1.97534e-06
1.29308e-07
4.67101e-06
2.23081e-06
1.21618e-07
3.34179e-06
2.56836e-06
1.13374e-07
1.92818e-06
2.93556e-06
9.92034e-08
6.53697e-07
2.99854e-06
7.21746e-08
1.87293e-06
2.87525e-08
1.34296e-07
-5.02815e-07
5.14675e-08
5.51323e-07
-1.3309e-06
1.17309e-07
1.20681e-06
-2.00546e-06
1.56283e-07
2.03013e-06
-2.54389e-06
1.78299e-07
2.94713e-06
-2.9487e-06
1.90167e-07
3.89641e-06
-3.22967e-06
1.96529e-07
4.83525e-06
-3.40461e-06
2.00208e-07
5.73668e-06
-3.4921e-06
2.0275e-07
6.58413e-06
-3.50733e-06
2.04923e-07
7.36718e-06
-3.4617e-06
2.07077e-07
8.07894e-06
-3.36376e-06
2.09361e-07
8.71443e-06
-3.21988e-06
2.11837e-07
9.26952e-06
-3.03498e-06
2.14523e-07
9.74017e-06
-2.81314e-06
2.17416e-07
1.01226e-05
-2.55804e-06
2.20481e-07
1.0414e-05
-2.27299e-06
2.23678e-07
1.06121e-05
-1.96122e-06
2.26936e-07
1.07157e-05
-1.6259e-06
2.3012e-07
1.07238e-05
-1.2702e-06
2.33133e-07
1.06362e-05
-8.973e-07
2.35629e-07
1.0453e-05
-5.10666e-07
2.37223e-07
1.01766e-05
-1.1608e-07
2.3745e-07
9.80175e-06
2.90244e-07
2.3577e-07
9.32984e-06
6.96341e-07
2.31651e-07
8.76383e-06
1.09435e-06
2.24653e-07
8.10818e-06
1.47601e-06
2.14569e-07
7.36958e-06
1.83341e-06
2.01586e-07
6.55503e-06
2.16366e-06
1.86375e-07
5.66678e-06
2.47461e-06
1.6997e-07
4.69746e-06
2.79151e-06
1.5338e-07
3.63407e-06
3.15747e-06
1.36833e-07
2.49012e-06
3.59316e-06
1.19007e-07
1.36513e-06
3.96282e-06
9.71686e-08
4.30673e-07
3.86402e-06
6.77626e-08
2.27428e-06
2.72431e-08
1.86481e-07
-7.36699e-07
4.73719e-08
6.7457e-07
-1.91883e-06
9.99787e-08
1.37265e-06
-2.82962e-06
1.26203e-07
2.18428e-06
-3.49386e-06
1.38448e-07
3.02712e-06
-3.93529e-06
1.43843e-07
3.84967e-06
-4.19828e-06
1.46138e-07
4.62826e-06
-4.3301e-06
1.46982e-07
5.35455e-06
-4.36531e-06
1.46985e-07
6.02604e-06
-4.32515e-06
1.46415e-07
6.64128e-06
-4.22233e-06
1.45461e-07
7.1986e-06
-4.06538e-06
1.44381e-07
7.69524e-06
-3.85995e-06
1.43516e-07
8.12686e-06
-3.60973e-06
1.4321e-07
8.48821e-06
-3.31822e-06
1.43803e-07
8.77386e-06
-2.98922e-06
1.45609e-07
8.97921e-06
-2.62717e-06
1.48889e-07
9.10138e-06
-2.23714e-06
1.53824e-07
9.13954e-06
-1.82448e-06
1.60482e-07
9.09491e-06
-1.39432e-06
1.68819e-07
8.97018e-06
-9.51106e-07
1.78607e-07
8.76848e-06
-4.98335e-07
1.89432e-07
8.49068e-06
-3.88512e-08
2.00649e-07
8.14427e-06
4.25338e-07
2.11393e-07
7.73005e-06
8.90113e-07
2.20544e-07
7.24759e-06
1.35008e-06
2.26837e-07
6.69696e-06
1.79771e-06
2.29062e-07
6.07854e-06
2.22559e-06
2.26385e-07
5.39184e-06
2.63188e-06
2.18646e-07
4.63267e-06
3.02759e-06
2.06354e-07
3.79248e-06
3.44167e-06
1.90155e-07
2.86937e-06
3.91052e-06
1.70065e-07
1.90256e-06
4.41431e-06
1.45438e-07
9.98206e-07
4.75035e-06
1.16198e-07
2.90178e-07
4.49007e-06
8.07514e-08
2.52906e-06
3.33242e-08
1.78788e-07
-9.4957e-07
3.4125e-08
6.2153e-07
-2.42946e-06
6.79365e-08
1.21976e-06
-3.51161e-06
8.38244e-08
1.87873e-06
-4.2445e-06
9.17224e-08
2.53405e-06
-4.68622e-06
9.56693e-08
3.15837e-06
-4.9194e-06
9.68331e-08
3.74716e-06
-5.01424e-06
9.53554e-08
4.30271e-06
-5.01221e-06
9.1379e-08
4.82673e-06
-4.93458e-06
8.54225e-08
5.3183e-06
-4.79207e-06
7.81832e-08
5.77358e-06
-4.59095e-06
7.03089e-08
6.18632e-06
-4.33512e-06
6.24445e-08
6.5485e-06
-4.02716e-06
5.52644e-08
6.8516e-06
-3.67071e-06
4.94052e-08
7.08812e-06
-3.27121e-06
4.54841e-08
7.25289e-06
-2.83599e-06
4.40666e-08
7.34368e-06
-2.37353e-06
4.56226e-08
7.36132e-06
-1.89255e-06
5.0451e-08
7.30909e-06
-1.40082e-06
5.87649e-08
7.19183e-06
-9.04387e-07
7.0575e-08
7.015e-06
-4.07155e-07
8.56833e-08
6.78332e-06
8.92007e-08
1.03685e-07
6.50224e-06
5.82616e-07
1.23856e-07
6.17357e-06
1.07378e-06
1.45068e-07
5.79744e-06
1.56052e-06
1.65762e-07
5.37162e-06
2.03957e-06
1.84033e-07
4.89137e-06
2.50801e-06
1.97928e-07
4.34904e-06
2.96842e-06
2.05879e-07
3.73399e-06
3.4358e-06
2.06914e-07
3.03629e-06
3.9391e-06
2.00305e-07
2.26256e-06
4.49907e-06
1.85101e-07
1.4661e-06
5.04968e-06
1.60787e-07
7.4355e-07
5.34333e-06
1.28899e-07
2.02604e-07
4.94083e-06
8.89645e-08
2.69432e-06
3.53167e-08
1.60655e-07
-1.13554e-06
2.54189e-08
5.36875e-07
-2.85831e-06
5.26548e-08
1.0281e-06
-4.07115e-06
6.83687e-08
1.55766e-06
-4.85238e-06
7.83879e-08
2.08156e-06
-5.2942e-06
8.41416e-08
2.58628e-06
-5.50984e-06
8.57817e-08
3.07181e-06
-5.58317e-06
8.34686e-08
3.53943e-06
-5.55747e-06
7.76914e-08
3.98828e-06
-5.4525e-06
6.91314e-08
4.41508e-06
-5.2773e-06
5.84922e-08
4.81356e-06
-5.03579e-06
4.64119e-08
5.17489e-06
-4.72987e-06
3.34847e-08
5.48946e-06
-4.36203e-06
2.03669e-08
5.7486e-06
-3.9374e-06
7.61083e-09
5.94535e-06
-3.46451e-06
-3.38329e-09
6.07545e-06
-2.95473e-06
-1.13032e-08
6.13961e-06
-2.42067e-06
-1.69616e-08
6.14111e-06
-1.87464e-06
-1.93537e-08
6.08528e-06
-1.32705e-06
-1.78772e-08
5.97852e-06
-7.85441e-07
-1.21331e-08
5.82765e-06
-2.54133e-07
-2.09714e-09
5.63812e-06
2.65467e-07
1.33143e-08
5.41348e-06
7.74273e-07
3.30392e-08
5.15625e-06
1.27449e-06
5.65724e-08
4.86549e-06
1.7686e-06
8.27341e-08
4.53645e-06
2.25896e-06
1.09707e-07
4.16002e-06
2.74925e-06
1.35251e-07
3.72286e-06
3.24863e-06
1.57e-07
3.20968e-06
3.77642e-06
1.72594e-07
2.61074e-06
4.35851e-06
1.7953e-07
1.9396e-06
4.99499e-06
1.75103e-07
1.25537e-06
5.57617e-06
1.57393e-07
6.38429e-07
5.83188e-06
1.27693e-07
1.78212e-07
5.31305e-06
8.68044e-08
2.83848e-06
3.2059e-08
1.35063e-07
-1.28794e-06
1.7418e-08
4.4444e-07
-3.20553e-06
3.79005e-08
8.43796e-07
-4.52224e-06
5.1788e-08
1.27403e-06
-5.34431e-06
6.17383e-08
1.70298e-06
-5.79082e-06
6.77154e-08
2.12142e-06
-5.99776e-06
6.95094e-08
2.52899e-06
-6.05807e-06
6.73631e-08
2.92546e-06
-6.01579e-06
6.18795e-08
3.30865e-06
-5.88937e-06
5.37211e-08
3.67413e-06
-5.68616e-06
4.34181e-08
4.01531e-06
-5.40832e-06
3.13964e-08
4.32402e-06
-5.05653e-06
1.79838e-08
4.59205e-06
-4.63337e-06
3.34821e-09
4.81079e-06
-4.1458e-06
-1.02993e-08
4.97534e-06
-3.6053e-06
-2.37184e-08
5.0835e-06
-3.0268e-06
-3.60494e-08
5.13592e-06
-2.42654e-06
-4.64979e-08
5.1356e-06
-1.81998e-06
-5.42943e-08
5.08729e-06
-1.22003e-06
-5.86693e-08
4.99679e-06
-6.35969e-07
-5.89247e-08
4.86953e-06
-7.23342e-08
-5.44858e-08
4.71329e-06
4.66651e-07
-4.49036e-08
4.53207e-06
9.85375e-07
-2.98395e-08
4.32791e-06
1.48792e-06
-9.2243e-09
4.09946e-06
1.98094e-06
1.61507e-08
3.84066e-06
2.47273e-06
4.50742e-08
3.54012e-06
2.97425e-06
7.5588e-08
3.18181e-06
3.50184e-06
1.05133e-07
2.7487e-06
4.07891e-06
1.3063e-07
2.2324e-06
4.7265e-06
1.48268e-07
1.65055e-06
5.42299e-06
1.5369e-07
1.06119e-06
6.02177e-06
1.43393e-07
5.32602e-07
6.24206e-06
1.17709e-07
1.46732e-07
5.61927e-06
7.84834e-08
2.95637e-06
2.68873e-08
1.06747e-07
-1.40883e-06
1.41831e-08
3.56729e-07
-3.49051e-06
3.50783e-08
6.85968e-07
-4.90323e-06
5.18195e-08
1.04752e-06
-5.77049e-06
6.46837e-08
1.41472e-06
-6.23083e-06
7.28468e-08
1.7786e-06
-6.43769e-06
7.60921e-08
2.13722e-06
-6.49155e-06
7.48952e-08
2.48907e-06
-6.43768e-06
7.00807e-08
2.83113e-06
-6.29381e-06
6.24241e-08
3.1585e-06
-6.06598e-06
5.24894e-08
3.46466e-06
-5.75501e-06
4.05797e-08
3.74216e-06
-5.36093e-06
2.69462e-08
3.98381e-06
-4.88697e-06
1.19959e-08
4.18362e-06
-4.34186e-06
-3.68378e-09
4.33757e-06
-3.73968e-06
-1.95211e-08
4.44369e-06
-3.09806e-06
-3.48025e-08
4.50203e-06
-2.43592e-06
-4.89054e-08
4.51466e-06
-1.77129e-06
-6.12669e-08
4.48523e-06
-1.11936e-06
-7.11915e-08
4.41859e-06
-4.91427e-07
-7.78433e-08
4.32119e-06
1.05493e-07
-8.03796e-08
4.19686e-06
6.69056e-07
-7.80308e-08
4.05114e-06
1.20125e-06
-7.01052e-08
3.88627e-06
1.7088e-06
-5.5967e-08
3.70041e-06
2.2022e-06
-3.53628e-08
3.4864e-06
2.69534e-06
-8.56019e-09
3.23236e-06
3.20614e-06
2.21721e-08
2.92123e-06
3.75776e-06
5.5234e-08
2.53582e-06
4.37707e-06
8.72381e-08
2.06914e-06
5.07982e-06
1.13285e-07
1.54002e-06
5.82441e-06
1.27504e-07
1.00175e-06
6.43488e-06
1.24743e-07
5.1303e-07
6.62592e-06
1.04153e-07
1.48864e-07
5.91394e-06
6.83359e-08
3.08142e-06
2.18608e-08
9.88691e-08
-1.51991e-06
1.22425e-08
3.26174e-07
-3.75017e-06
3.24065e-08
6.24076e-07
-5.25026e-06
4.91817e-08
9.51433e-07
-6.15999e-06
6.219e-08
1.28441e-06
-6.63455e-06
7.07849e-08
1.6145e-06
-6.84272e-06
7.49865e-08
1.93925e-06
-6.89158e-06
7.53082e-08
2.2567e-06
-6.82755e-06
7.2456e-08
2.56377e-06
-6.66788e-06
6.70445e-08
2.85598e-06
-6.41764e-06
5.9492e-08
3.12776e-06
-6.07671e-06
4.99603e-08
3.37307e-06
-5.64476e-06
3.85617e-08
3.5863e-06
-5.12573e-06
2.55717e-08
3.76287e-06
-4.5298e-06
1.14079e-08
3.89955e-06
-3.87288e-06
-3.42687e-09
3.99513e-06
-3.17449e-06
-1.91034e-08
4.04902e-06
-2.45542e-06
-3.43324e-08
4.06232e-06
-1.73577e-06
-4.87758e-08
4.03778e-06
-1.03285e-06
-6.19135e-08
3.97939e-06
-3.60007e-07
-7.29766e-08
3.89221e-06
2.73779e-07
-8.10577e-08
3.78202e-06
8.64498e-07
-8.52053e-08
3.65369e-06
1.41415e-06
-8.45139e-08
3.50983e-06
1.9308e-06
-7.8099e-08
3.34896e-06
2.42815e-06
-6.50366e-08
3.16411e-06
2.925e-06
-4.47724e-08
2.94227e-06
3.44542e-06
-1.74031e-08
2.66647e-06
4.01859e-06
1.49749e-08
2.32046e-06
4.67419e-06
4.88669e-08
1.89771e-06
5.42268e-06
7.97947e-08
1.41628e-06
6.20515e-06
1.00483e-07
9.23987e-07
6.82249e-06
1.04261e-07
4.73778e-07
6.98633e-06
8.90894e-08
1.38122e-07
6.19047e-06
5.79587e-08
3.19999e-06
1.76136e-08
8.40475e-08
-1.61636e-06
1.2469e-08
2.84928e-07
-3.98543e-06
3.44144e-08
5.53763e-07
-5.57207e-06
5.30201e-08
8.52804e-07
-6.52643e-06
6.74479e-08
1.15958e-06
-7.01829e-06
7.7006e-08
1.46537e-06
-7.23031e-06
8.18393e-08
1.7671e-06
-7.27598e-06
8.27082e-08
2.06229e-06
-7.20325e-06
8.0551e-08
2.34759e-06
-7.02925e-06
7.61024e-08
2.61857e-06
-6.75839e-06
6.98098e-08
2.87011e-06
-6.39002e-06
6.18221e-08
3.097e-06
-5.92381e-06
5.2189e-08
3.2947e-06
-5.36443e-06
4.10494e-08
3.45967e-06
-4.72332e-06
2.85905e-08
3.58945e-06
-4.01772e-06
1.50983e-08
3.68212e-06
-3.26846e-06
1.36116e-09
3.73839e-06
-2.49757e-06
-1.40737e-08
3.75818e-06
-1.72648e-06
-2.90154e-08
3.74308e-06
-9.74228e-07
-4.34713e-08
3.69609e-06
-2.56073e-07
-5.68873e-08
3.62138e-06
4.16973e-07
-6.84241e-08
3.52391e-06
1.03915e-06
-7.71277e-08
3.40836e-06
1.61175e-06
-8.20042e-08
3.27753e-06
2.14377e-06
-8.20796e-08
3.13055e-06
2.65142e-06
-7.62486e-08
2.96136e-06
3.15756e-06
-6.33369e-08
2.75801e-06
3.69136e-06
-4.25598e-08
2.50367e-06
4.28695e-06
-1.40043e-08
2.18285e-06
4.97611e-06
1.88582e-08
1.7901e-06
5.76421e-06
5.11193e-08
1.3418e-06
6.57749e-06
7.57239e-08
8.80658e-07
7.19853e-06
8.4672e-08
4.55071e-07
7.33647e-06
7.47226e-08
1.34627e-07
6.46098e-06
4.87553e-08
3.31822e-06
1.44554e-08
8.4348e-08
-1.71325e-06
1.261e-08
2.79801e-07
-4.21596e-06
3.5123e-08
5.3719e-07
-5.88337e-06
5.39408e-08
8.20566e-07
-6.87814e-06
6.83702e-08
1.10903e-06
-7.38483e-06
7.81098e-08
1.39486e-06
-7.5996e-06
8.34856e-08
1.67537e-06
-7.6417e-06
8.52275e-08
1.9483e-06
-7.56032e-06
8.41829e-08
2.21056e-06
-7.37251e-06
8.1029e-08
2.45817e-06
-7.08216e-06
7.62035e-08
2.68661e-06
-6.68829e-06
6.98738e-08
2.89154e-06
-6.19078e-06
6.20858e-08
3.0693e-06
-5.59508e-06
5.29298e-08
3.21721e-06
-4.91368e-06
4.24955e-08
3.3335e-06
-4.16486e-06
3.08998e-08
3.41711e-06
-3.37037e-06
1.8339e-08
3.46751e-06
-2.55316e-06
5.253e-09
3.48542e-06
-1.7355e-06
-8.84372e-09
3.47204e-06
-9.37555e-07
-2.32362e-08
3.42947e-06
-1.7616e-07
-3.72948e-08
3.36121e-06
5.35715e-07
-5.0424e-08
3.27152e-06
1.19066e-06
-6.17662e-08
3.16445e-06
1.78922e-06
-7.03515e-08
3.04256e-06
2.34091e-06
-7.51949e-08
2.90532e-06
2.8639e-06
-7.51921e-08
2.74758e-06
3.3843e-06
-6.89658e-08
2.55871e-06
3.93538e-06
-5.51196e-08
2.32345e-06
4.55512e-06
-3.29112e-08
2.02567e-06
5.27653e-06
-2.68964e-09
1.66213e-06
6.10004e-06
2.75969e-08
1.24708e-06
6.93876e-06
5.35418e-08
8.18747e-07
7.56035e-06
6.60674e-08
4.22009e-07
7.67171e-06
6.07737e-08
1.24116e-07
6.71771e-06
3.99924e-08
3.42878e-06
1.16166e-08
7.76406e-08
-1.80453e-06
1.36928e-08
2.61613e-07
-4.43742e-06
3.75331e-08
5.05527e-07
-6.18425e-06
5.7016e-08
7.74106e-07
-7.21842e-06
7.17347e-08
1.04723e-06
-7.73953e-06
8.16068e-08
1.3175e-06
-7.95697e-06
8.71273e-08
1.58219e-06
-7.99553e-06
8.9167e-08
1.83893e-06
-7.90568e-06
8.86504e-08
2.08466e-06
-7.70446e-06
8.62677e-08
2.31559e-06
-7.3955e-06
8.24444e-08
2.5277e-06
-6.9777e-06
7.73476e-08
2.71729e-06
-6.45134e-06
7.10161e-08
2.88145e-06
-5.82269e-06
6.34952e-08
3.01818e-06
-5.10517e-06
5.48057e-08
3.12623e-06
-4.31782e-06
4.49646e-08
3.20485e-06
-3.48296e-06
3.40246e-08
3.25367e-06
-2.62405e-06
2.21244e-08
3.27264e-06
-1.76396e-06
9.55245e-09
3.26227e-06
-9.23615e-07
-3.51589e-09
3.2248e-06
-1.21098e-07
-1.75321e-08
3.16262e-06
6.29014e-07
-3.10583e-08
3.07926e-06
1.31766e-06
-4.35787e-08
2.97816e-06
1.94463e-06
-5.42493e-08
2.86154e-06
2.51976e-06
-6.21752e-08
2.72909e-06
3.06275e-06
-6.63504e-08
2.57657e-06
3.6023e-06
-6.54373e-08
2.39493e-06
4.17486e-06
-5.78186e-08
2.17091e-06
4.82126e-06
-4.21253e-08
1.89093e-06
5.57479e-06
-1.83221e-08
1.54995e-06
6.43086e-06
1.00209e-08
1.1627e-06
7.2908e-06
3.49693e-08
7.63274e-07
7.90993e-06
4.9403e-08
3.92797e-07
7.99356e-06
4.79015e-08
1.15224e-07
6.96214e-06
3.19646e-08
3.53294e-06
9.12817e-09
7.81898e-08
-1.89703e-06
1.4359e-08
2.58138e-07
-4.65605e-06
3.87337e-08
4.92706e-07
-6.47693e-06
5.81477e-08
7.479e-07
-7.54618e-06
7.26037e-08
1.00516e-06
-8.0791e-06
8.23416e-08
1.25822e-06
-8.29797e-06
8.79755e-08
1.50487e-06
-8.3325e-06
9.03614e-08
1.743e-06
-8.23415e-06
9.03839e-08
1.96978e-06
-8.01991e-06
8.87095e-08
2.18178e-06
-7.69323e-06
8.57615e-08
2.37548e-06
-7.25308e-06
8.17297e-08
2.54782e-06
-6.70031e-06
7.66724e-08
2.69655e-06
-6.04201e-06
7.0625e-08
2.8203e-06
-5.29244e-06
6.35749e-08
2.91826e-06
-4.47121e-06
5.54754e-08
2.99002e-06
-3.60096e-06
4.62823e-08
3.03533e-06
-2.7053e-06
3.60017e-08
3.05408e-06
-1.80738e-06
2.47292e-08
3.0465e-06
-9.28636e-07
1.26607e-08
3.01293e-06
-8.8037e-08
5.66966e-10
2.9568e-06
6.984e-07
-1.32038e-08
2.88026e-06
1.42029e-06
-2.60328e-08
2.78595e-06
2.07669e-06
-3.76836e-08
2.67556e-06
2.67763e-06
-4.74132e-08
2.5487e-06
3.24401e-06
-5.43495e-08
2.40174e-06
3.80658e-06
-5.72861e-08
2.22697e-06
4.40431e-06
-5.46455e-08
2.01315e-06
5.07986e-06
-4.4786e-08
1.74891e-06
5.86597e-06
-2.69906e-08
1.42958e-06
6.75266e-06
-2.59037e-09
1.06987e-06
7.6304e-06
1.98615e-08
7.00369e-07
8.24426e-06
3.47329e-08
3.58418e-07
8.29871e-06
3.6081e-08
1.04158e-07
7.19074e-06
2.44872e-08
3.62837e-06
6.80407e-09
7.40911e-08
-1.98637e-06
1.53014e-08
2.46207e-07
-4.86842e-06
4.0295e-08
4.70621e-07
-6.76093e-06
5.96286e-08
7.13845e-07
-7.86314e-06
7.37836e-08
9.58105e-07
-8.4066e-06
8.32787e-08
1.19758e-06
-8.62627e-06
8.88676e-08
1.43015e-06
-8.65648e-06
9.14447e-08
1.65373e-06
-8.54956e-06
9.1878e-08
1.8656e-06
-8.32255e-06
9.08038e-08
2.06264e-06
-7.97884e-06
8.86229e-08
2.24176e-06
-7.51769e-06
8.5529e-08
2.40051e-06
-6.9406e-06
8.15855e-08
2.53728e-06
-6.25555e-06
7.68143e-08
2.6512e-06
-5.47749e-06
7.118e-08
2.74188e-06
-4.62644e-06
6.45988e-08
2.80909e-06
-3.72508e-06
5.69695e-08
2.85258e-06
-2.79695e-06
4.82171e-08
2.87205e-06
-1.86513e-06
3.8334e-08
2.86741e-06
-9.51326e-07
2.73936e-08
2.83904e-06
-7.52094e-08
1.55977e-08
2.78804e-06
7.46033e-07
3.4311e-09
2.71683e-06
1.50079e-06
-9.22855e-09
2.62742e-06
2.18743e-06
-2.12811e-08
2.52109e-06
2.81607e-06
-3.205e-08
2.39736e-06
3.40858e-06
-4.07933e-08
2.25309e-06
3.99738e-06
-4.64722e-08
2.08177e-06
4.62333e-06
-4.76692e-08
1.87418e-06
5.33018e-06
-4.27237e-08
1.62129e-06
6.1493e-06
-3.0499e-08
1.32068e-06
7.06498e-06
-1.18235e-08
9.85007e-07
7.95749e-06
8.34869e-09
6.42895e-07
8.56351e-06
2.24388e-08
3.27574e-07
8.58763e-06
2.56987e-08
9.46772e-08
7.40466e-06
1.78319e-08
3.71639e-06
4.77129e-09
7.3382e-08
-2.07558e-06
1.58802e-08
2.40279e-07
-5.07632e-06
4.10429e-08
4.55029e-07
-7.03565e-06
6.00111e-08
6.85443e-07
-8.16721e-06
7.36907e-08
9.15171e-07
-8.71915e-06
8.28533e-08
1.13929e-06
-8.93869e-06
8.83358e-08
1.35607e-06
-8.96425e-06
9.10287e-08
1.56361e-06
-8.84883e-06
9.17749e-08
1.75938e-06
-8.60947e-06
9.11881e-08
1.94056e-06
-8.24963e-06
8.96605e-08
2.10451e-06
-7.76899e-06
8.73936e-08
2.24931e-06
-7.16981e-06
8.44613e-08
2.37388e-06
-6.46096e-06
8.08825e-08
2.47787e-06
-5.65804e-06
7.66049e-08
2.56127e-06
-4.7813e-06
7.15122e-08
2.6241e-06
-3.8533e-06
6.54509e-08
2.66614e-06
-2.89721e-06
5.82724e-08
2.68696e-06
-1.93578e-06
4.98788e-08
2.68606e-06
-9.90624e-07
4.02532e-08
2.66324e-06
-8.18344e-08
2.95051e-08
2.61902e-06
7.72392e-07
1.7913e-08
2.55458e-06
1.55934e-06
5.94959e-09
2.47144e-06
2.27665e-06
-6.01283e-09
2.37051e-06
2.93441e-06
-1.73543e-08
2.25115e-06
3.55523e-06
-2.72339e-08
2.11051e-06
4.17288e-06
-3.48074e-08
1.94312e-06
4.82961e-06
-3.88533e-08
1.74154e-06
5.5696e-06
-3.78331e-08
1.49908e-06
6.42217e-06
-3.0434e-08
1.2153e-06
7.36551e-06
-1.68441e-08
9.02037e-07
8.2702e-06
3.42563e-10
5.86319e-07
8.86631e-06
1.252e-08
2.97082e-07
8.85933e-06
1.68671e-08
8.52391e-08
7.60332e-06
1.20725e-08
3.79675e-06
3.03065e-09
7.00311e-08
-2.16201e-06
1.64621e-08
2.29935e-07
-5.27783e-06
4.16536e-08
4.35331e-07
-7.30113e-06
6.01206e-08
6.54756e-07
-8.45982e-06
7.32172e-08
8.72647e-07
-9.01897e-06
8.19703e-08
1.08449e-06
-9.2378e-06
8.73054e-08
1.28865e-06
-9.25847e-06
9.00985e-08
1.48326e-06
-9.13455e-06
9.11462e-08
1.66596e-06
-8.88315e-06
9.10243e-08
1.83419e-06
-8.50791e-06
9.01068e-08
1.98571e-06
-8.00906e-06
8.85989e-08
2.11907e-06
-7.3897e-06
8.65796e-08
2.23369e-06
-6.65959e-06
8.40625e-08
2.32963e-06
-5.83492e-06
8.0989e-08
2.40723e-06
-4.93608e-06
7.72299e-08
2.46672e-06
-3.98534e-06
7.2603e-08
2.50795e-06
-3.00528e-06
6.691e-08
2.5303e-06
-2.01806e-06
5.99811e-08
2.53293e-06
-1.04491e-06
5.17148e-08
2.51506e-06
-1.06043e-07
4.213e-08
2.47649e-06
7.79605e-07
3.14158e-08
2.41774e-06
1.59822e-06
1.99327e-08
2.33964e-06
2.34662e-06
8.1781e-09
2.24267e-06
3.03473e-06
-3.28258e-09
2.12621e-06
3.68568e-06
-1.39323e-08
1.98772e-06
4.33429e-06
-2.2861e-08
1.82264e-06
5.02379e-06
-2.90564e-08
1.62515e-06
5.79827e-06
-3.11533e-08
1.39071e-06
6.68441e-06
-2.78194e-08
1.12086e-06
7.65407e-06
-1.87847e-08
8.28428e-07
8.56861e-06
-6.16542e-09
5.36316e-07
9.1531e-06
4.95399e-09
2.70596e-07
9.11472e-06
9.69828e-09
7.73371e-08
7.78818e-06
7.32807e-09
3.87064e-06
1.63918e-09
6.84959e-08
-2.24726e-06
1.68059e-08
2.22815e-07
-5.47388e-06
4.17702e-08
4.19181e-07
-7.55706e-06
5.9614e-08
6.27301e-07
-8.73997e-06
7.20728e-08
8.32763e-07
-9.30477e-06
8.03741e-08
1.03171e-06
-9.52221e-06
8.54945e-08
1.22274e-06
-9.53776e-06
8.82973e-08
1.40412e-06
-9.40543e-06
8.95483e-08
1.57364e-06
-9.14242e-06
8.97954e-08
1.72901e-06
-8.75262e-06
8.9399e-08
1.86832e-06
-8.23688e-06
8.85679e-08
1.99052e-06
-7.59924e-06
8.73872e-08
2.09545e-06
-6.85033e-06
8.58674e-08
2.18355e-06
-6.00691e-06
8.39422e-08
2.25553e-06
-5.08948e-06
8.14666e-08
2.31189e-06
-4.11987e-06
7.8233e-08
2.35259e-06
-3.11993e-06
7.40012e-08
2.37697e-06
-2.11092e-06
6.8539e-08
2.38386e-06
-1.1134e-06
6.16673e-08
2.37189e-06
-1.47338e-07
5.33189e-08
2.34007e-06
7.67887e-07
4.35983e-08
2.28807e-06
1.61748e-06
3.27996e-08
2.21606e-06
2.39732e-06
2.13689e-08
2.12411e-06
3.11691e-06
9.83704e-09
2.0114e-06
3.79966e-06
-1.20853e-09
1.87573e-06
4.48111e-06
-1.10906e-08
1.71337e-06
5.2051e-06
-1.88992e-08
1.51997e-06
6.01516e-06
-2.34433e-08
1.29296e-06
6.93489e-06
-2.34549e-08
1.03569e-06
7.92967e-06
-1.83764e-08
7.6156e-07
8.85215e-06
-9.55806e-09
4.90907e-07
9.42385e-06
-4.16041e-10
2.46647e-07
9.35421e-06
4.18761e-09
7.02208e-08
7.95995e-06
3.62605e-09
3.93851e-06
6.00552e-10
6.56183e-08
-2.32991e-06
1.70753e-08
2.13732e-07
-5.66357e-06
4.16278e-08
4.0178e-07
-7.80376e-06
5.86976e-08
6.00235e-07
-9.0088e-06
7.04155e-08
7.95406e-07
-9.57811e-06
7.82167e-08
9.8378e-07
-9.79365e-06
8.31165e-08
1.16405e-06
-9.80391e-06
8.59351e-08
1.33453e-06
-9.66325e-06
8.73844e-08
1.49316e-06
-9.38898e-06
8.79749e-08
1.63785e-06
-8.98531e-06
8.80511e-08
1.76701e-06
-8.45381e-06
8.78237e-08
1.87991e-06
-7.79946e-06
8.73845e-08
1.9767e-06
-7.03381e-06
8.67451e-08
2.05817e-06
-6.17417e-06
8.58404e-08
2.12531e-06
-5.24109e-06
8.45241e-08
2.17887e-06
-4.25596e-06
8.25783e-08
2.21899e-06
-3.23973e-06
7.97353e-08
2.24499e-06
-2.21259e-06
7.57127e-08
2.25549e-06
-1.1941e-06
7.02586e-08
2.24866e-06
-2.03664e-07
6.3215e-08
2.22277e-06
7.39245e-07
5.45905e-08
2.1767e-06
1.619e-06
4.46015e-08
2.10997e-06
2.43046e-06
3.36468e-08
2.02221e-06
3.1825e-06
2.22335e-08
1.91254e-06
3.89848e-06
1.09172e-08
1.77921e-06
4.61434e-06
1.8215e-10
1.61894e-06
5.37414e-06
-8.69887e-09
1.42881e-06
6.22051e-06
-1.51542e-08
1.20799e-06
7.17363e-06
-1.78806e-08
9.61448e-07
8.19235e-06
-1.61556e-08
7.03071e-07
9.12113e-06
-1.07101e-08
4.51551e-07
9.67927e-06
-4.17558e-09
2.261e-07
9.57885e-06
2.68856e-10
6.42194e-08
8.11991e-06
9.50893e-10
4.00116e-06
-1.22275e-10
6.38545e-08
-2.41089e-06
1.71873e-08
2.06831e-07
-5.84767e-06
4.11648e-08
3.87185e-07
-8.04147e-06
5.73906e-08
5.76324e-07
-9.26624e-06
6.83426e-08
7.61421e-07
-9.83879e-06
7.56213e-08
9.39429e-07
-1.00519e-05
8.02587e-08
1.10919e-06
-1.00567e-05
8.30374e-08
1.26914e-06
-9.90777e-06
8.46249e-08
1.41733e-06
-9.62261e-06
8.54993e-08
1.55185e-06
-9.20577e-06
8.59891e-08
1.67137e-06
-8.65957e-06
8.63048e-08
1.77541e-06
-7.98999e-06
8.65421e-08
1.86442e-06
-7.20948e-06
8.67126e-08
1.93951e-06
-6.33595e-06
8.67508e-08
2.00196e-06
-5.38999e-06
8.65094e-08
2.05281e-06
-4.39252e-06
8.57645e-08
2.09242e-06
-3.36352e-06
8.42315e-08
2.12021e-06
-2.32191e-06
8.15927e-08
2.13461e-06
-1.28599e-06
7.75373e-08
2.13337e-06
-2.742e-07
7.18249e-08
2.11404e-06
6.94266e-07
6.43672e-08
2.07463e-06
1.60318e-06
5.52923e-08
2.01389e-06
2.44632e-06
4.49399e-08
1.93098e-06
3.23168e-06
3.37891e-08
1.8249e-06
3.98225e-06
2.2381e-08
1.69404e-06
4.73399e-06
1.12954e-08
1.53634e-06
5.53084e-06
1.08612e-09
1.34956e-06
6.4141e-06
-6.73021e-09
1.13448e-06
7.40038e-06
-1.16051e-08
8.97494e-07
8.44201e-06
-1.26486e-08
6.52864e-07
9.37579e-06
-1.00983e-08
4.17684e-07
9.92001e-06
-5.79088e-09
2.08622e-07
9.78964e-06
-2.21767e-09
5.92189e-08
8.26918e-06
-7.82936e-10
4.0592e-06
-4.69223e-10
6.15087e-08
-2.48954e-06
1.72014e-08
1.99369e-07
-6.0259e-06
4.04207e-08
3.72868e-07
-8.27058e-06
5.56654e-08
5.54071e-07
-9.51316e-06
6.57665e-08
7.3074e-07
-1.00879e-05
7.24896e-08
9.00107e-07
-1.02981e-05
7.68629e-08
1.06111e-06
-1.02972e-05
7.96039e-08
1.21226e-06
-1.01402e-05
8.13204e-08
1.3517e-06
-9.84445e-06
8.24528e-08
1.47768e-06
-9.41501e-06
8.33125e-08
1.58904e-06
-8.85498e-06
8.41099e-08
1.68552e-06
-8.17135e-06
8.49462e-08
1.76778e-06
-7.37752e-06
8.58358e-08
1.83717e-06
-6.492e-06
8.67186e-08
1.89526e-06
-5.53548e-06
8.74529e-08
1.94336e-06
-4.52837e-06
8.78172e-08
1.98205e-06
-3.48968e-06
8.75196e-08
2.01092e-06
-2.43695e-06
8.62177e-08
2.02838e-06
-1.38695e-06
8.3552e-08
2.03187e-06
-3.56839e-07
7.92048e-08
2.01831e-06
6.34887e-07
7.29883e-08
1.98493e-06
1.57168e-06
6.49302e-08
1.92974e-06
2.44627e-06
5.52978e-08
1.85139e-06
3.26557e-06
4.45341e-08
1.74869e-06
4.05185e-06
3.31695e-08
1.62026e-06
4.84073e-06
2.17761e-08
1.46455e-06
5.67565e-06
1.09958e-08
1.28098e-06
6.59629e-06
1.48007e-09
1.0711e-06
7.61541e-06
-5.05883e-09
8.42521e-07
8.67899e-06
-8.33952e-09
6.09828e-07
9.61674e-06
-8.27906e-09
3.88735e-07
1.0147e-05
-6.0409e-09
1.93725e-07
9.98763e-06
-3.41851e-09
5.49606e-08
8.40873e-06
-1.66331e-09
4.11313e-06
-5.72689e-10
5.98583e-08
-2.56644e-06
1.70975e-08
1.93443e-07
-6.19888e-06
3.94362e-08
3.60835e-07
-8.49157e-06
5.36475e-08
5.34793e-07
-9.74995e-06
6.28809e-08
7.03679e-07
-1.03258e-05
6.90364e-08
8.65017e-07
-1.05325e-05
7.31236e-08
1.0179e-06
-1.05259e-05
7.57976e-08
1.16093e-06
-1.03608e-05
7.76108e-08
1.29235e-06
-1.00548e-05
7.89666e-08
1.4105e-06
-9.61325e-06
8.01581e-08
1.51433e-06
-9.04014e-06
8.1393e-08
1.60375e-06
-8.34348e-06
8.27753e-08
1.67966e-06
-7.53769e-06
8.43205e-08
1.74363e-06
-6.64188e-06
8.59719e-08
1.7975e-06
-5.67688e-06
8.75936e-08
1.84287e-06
-4.66265e-06
8.89702e-08
1.88061e-06
-3.61718e-06
8.98112e-08
1.91049e-06
-2.55654e-06
8.97636e-08
1.93095e-06
-1.49579e-06
8.84352e-08
1.93918e-06
-4.50469e-07
8.54461e-08
1.93155e-06
5.62058e-07
8.05147e-08
1.90446e-06
1.52526e-06
7.35618e-08
1.85516e-06
2.43087e-06
6.47653e-08
1.7817e-06
3.28457e-06
5.45171e-08
1.68271e-06
4.10759e-06
4.33304e-08
1.55695e-06
4.9348e-06
3.17745e-08
1.40344e-06
5.80878e-06
2.0482e-08
1.22239e-06
6.76726e-06
1.01973e-08
1.01723e-06
7.81903e-06
1.66458e-09
7.96069e-07
8.90375e-06
-3.49861e-09
5.73641e-07
9.84467e-06
-5.48193e-09
3.64516e-07
1.03611e-05
-5.10452e-09
1.81377e-07
1.01739e-05
-3.5244e-09
5.14738e-08
8.53962e-06
-1.81326e-09
4.16349e-06
-4.51347e-10
5.80963e-08
-2.64137e-06
1.68851e-08
1.87745e-07
-6.36665e-06
3.81737e-08
3.49839e-07
-8.70486e-06
5.12385e-08
5.17698e-07
-9.9773e-06
5.95409e-08
6.80099e-07
-1.05532e-05
6.51037e-08
8.34779e-07
-1.0756e-05
6.88958e-08
9.80916e-07
-1.07434e-05
7.14913e-08
1.11719e-06
-1.05704e-05
7.33799e-08
1.2419e-06
-1.02544e-05
7.49274e-08
1.35341e-06
-9.80111e-06
7.64084e-08
1.45078e-06
-9.21547e-06
7.80289e-08
1.53403e-06
-8.50657e-06
7.98969e-08
1.60421e-06
-7.68984e-06
8.20309e-08
1.66311e-06
-6.7851e-06
8.43797e-08
1.71278e-06
-5.81331e-06
8.68157e-08
1.75509e-06
-4.79405e-06
8.91328e-08
1.79124e-06
-3.74432e-06
9.10469e-08
1.82125e-06
-2.6787e-06
9.22013e-08
1.84373e-06
-1.6104e-06
9.21814e-08
1.85577e-06
-5.53019e-07
9.05549e-08
1.8533e-06
4.77624e-07
8.69527e-08
1.83201e-06
1.46541e-06
8.11858e-08
1.78836e-06
2.40125e-06
7.33315e-08
1.7198e-06
3.28949e-06
6.37167e-08
1.62463e-06
4.15001e-06
5.28307e-08
1.5017e-06
5.01658e-06
4.12428e-08
1.35053e-06
5.93049e-06
2.95851e-08
1.17211e-06
6.92723e-06
1.85919e-08
9.70687e-07
8.01149e-06
9.10425e-09
7.55951e-07
9.11674e-06
1.86497e-09
5.42475e-07
1.00603e-05
-2.04947e-09
3.43642e-07
1.0563e-05
-3.2519e-09
1.707e-07
1.03492e-05
-2.75124e-09
4.84249e-08
8.66249e-06
-1.38374e-09
4.21054e-06
-1.62062e-10
5.66792e-08
-2.71457e-06
1.65795e-08
1.82857e-07
-6.5295e-06
3.67251e-08
3.40187e-07
-8.91074e-06
4.86069e-08
5.02609e-07
-1.01956e-05
5.5971e-08
6.59338e-07
-1.07709e-05
6.09398e-08
8.08364e-07
-1.09694e-05
6.44277e-08
9.48775e-07
-1.09507e-05
6.69247e-08
1.07918e-06
-1.07696e-05
6.88597e-08
1.19798e-06
-1.04436e-05
7.05639e-08
1.30358e-06
-9.97895e-06
7.2294e-08
1.39513e-06
-9.3812e-06
7.42524e-08
1.47277e-06
-8.66069e-06
7.65493e-08
1.5377e-06
-7.83391e-06
7.92038e-08
1.59186e-06
-6.92136e-06
8.21692e-08
1.63752e-06
-5.94424e-06
8.53265e-08
1.67681e-06
-4.92176e-06
8.84819e-08
1.71119e-06
-3.87002e-06
9.13644e-08
1.74102e-06
-2.8021e-06
9.36246e-08
1.7651e-06
-1.72927e-06
9.48397e-08
1.78054e-06
-6.62948e-07
9.45401e-08
1.78292e-06
3.83012e-07
9.22809e-08
1.76728e-06
1.39333e-06
8.77639e-08
1.72932e-06
2.35832e-06
8.09541e-08
1.66581e-06
3.28097e-06
7.20964e-08
1.57468e-06
4.17958e-06
6.16423e-08
1.45482e-06
5.08639e-06
5.01575e-08
1.30612e-06
6.04104e-06
3.8281e-08
1.13029e-06
7.07646e-06
2.67455e-08
9.32431e-07
8.19312e-06
1.63903e-08
7.2277e-07
9.31849e-06
8.0671e-09
5.16543e-07
1.02643e-05
2.29583e-09
3.26494e-07
1.07538e-05
-8.16582e-10
1.62042e-07
1.05147e-05
-1.32638e-09
4.61145e-08
8.7782e-06
-5.56283e-10
4.25466e-06
4.85574e-10
5.53476e-08
-2.78603e-06
1.61624e-08
1.78495e-07