/*--------------------------------*- C++ -*----------------------------------*\
| =========                 |                                                 |
| \\      /  F ield         | OpenFOAM: The Open Source CFD Toolbox           |
|  \\    /   O peration     | Version:  v2006                                 |
|   \\  /    A nd           | Website:  www.openfoam.com                      |
|    \\/     M anipulation  |                                                 |
\*---------------------------------------------------------------------------*/
FoamFile
{
    version     2.0;
    format      ascii;
    class       volScalarField;
    location    "83";
    object      T;
}
// * * * * * * * * * * * * * * * * * * * * * * * * * * * * * * * * * * * * * //

dimensions      [0 0 0 1 0 0 0];


internalField   nonuniform List<scalar> 
78750
(
300.049
300.145
300.233
300.312
300.381
300.441
300.493
300.539
300.579
300.615
300.647
300.674
300.699
300.721
300.739
300.755
300.768
300.779
300.786
300.791
300.793
300.792
300.788
300.781
300.771
300.758
300.743
300.725
300.706
300.693
300.707
300.814
301.134
301.777
302.699
300.065
300.187
300.294
300.391
300.479
300.559
300.631
300.697
300.756
300.809
300.856
300.899
300.937
300.97
300.999
301.024
301.045
301.062
301.074
301.082
301.085
301.083
301.075
301.061
301.04
301.014
300.982
300.948
300.916
300.9
300.933
301.083
301.45
302.099
302.999
300.07
300.204
300.326
300.438
300.539
300.629
300.708
300.778
300.84
300.895
300.943
300.986
301.024
301.058
301.088
301.114
301.136
301.155
301.171
301.182
301.19
301.193
301.191
301.182
301.167
301.144
301.115
301.083
301.057
301.056
301.12
301.318
301.721
302.378
303.283
300.084
300.247
300.398
300.534
300.653
300.755
300.841
300.914
300.977
301.032
301.08
301.123
301.16
301.192
301.219
301.243
301.262
301.277
301.288
301.294
301.298
301.296
301.291
301.28
301.264
301.241
301.214
301.187
301.17
301.187
301.281
301.518
301.944
302.605
303.519
300.097
300.284
300.457
300.609
300.736
300.84
300.926
300.998
301.06
301.115
301.163
301.206
301.244
301.276
301.304
301.326
301.344
301.357
301.366
301.37
301.371
301.367
301.359
301.347
301.331
301.31
301.288
301.27
301.269
301.312
301.442
301.717
302.161
302.826
303.746
300.107
300.314
300.502
300.666
300.799
300.905
300.991
301.064
301.128
301.185
301.235
301.279
301.318
301.352
301.379
301.4
301.415
301.424
301.428
301.428
301.424
301.417
301.406
301.393
301.377
301.36
301.344
301.336
301.352
301.419
301.58
301.885
302.344
303.015
303.94
300.116
300.338
300.541
300.713
300.851
300.96
301.048
301.123
301.189
301.248
301.3
301.347
301.388
301.422
301.449
301.469
301.481
301.487
301.487
301.482
301.472
301.46
301.446
301.43
301.414
301.4
301.39
301.395
301.429
301.522
301.715
302.045
302.519
303.199
304.127
300.123
300.358
300.571
300.751
300.893
301.003
301.093
301.17
301.238
301.299
301.355
301.404
301.447
301.482
301.509
301.528
301.539
301.542
301.538
301.529
301.515
301.499
301.481
301.463
301.447
301.434
301.431
301.446
301.497
301.613
301.832
302.183
302.672
303.364
304.295
300.128
300.374
300.595
300.782
300.929
301.042
301.135
301.214
301.285
301.349
301.407
301.459
301.504
301.541
301.569
301.587
301.597
301.598
301.591
301.578
301.56
301.539
301.517
301.496
301.479
301.468
301.47
301.496
301.562
301.699
301.942
302.311
302.815
303.519
304.453
300.134
300.39
300.619
300.812
300.963
301.079
301.173
301.255
301.328
301.395
301.455
301.509
301.556
301.594
301.623
301.641
301.65
301.65
301.641
301.625
301.604
301.58
301.555
301.531
301.513
301.503
301.51
301.543
301.623
301.778
302.041
302.427
302.945
303.661
304.598
300.138
300.402
300.639
300.838
300.992
301.112
301.209
301.293
301.369
301.438
301.501
301.557
301.606
301.645
301.675
301.694
301.703
301.701
301.691
301.673
301.649
301.622
301.594
301.568
301.549
301.54
301.55
301.591
301.683
301.854
302.134
302.536
303.066
303.794
304.735
300.143
300.416
300.661
300.865
301.023
301.144
301.244
301.33
301.408
301.479
301.544
301.603
301.653
301.694
301.724
301.744
301.753
301.75
301.739
301.719
301.693
301.664
301.634
301.606
301.586
301.579
301.592
301.639
301.742
301.927
302.223
302.638
303.18
303.919
304.863
300.147
300.428
300.679
300.888
301.05
301.174
301.276
301.365
301.445
301.519
301.586
301.646
301.698
301.741
301.772
301.792
301.801
301.798
301.785
301.764
301.737
301.705
301.674
301.645
301.625
301.618
301.635
301.689
301.802
302
302.31
302.736
303.289
304.037
304.983
300.151
300.44
300.698
300.913
301.077
301.204
301.308
301.399
301.481
301.557
301.626
301.688
301.742
301.785
301.818
301.838
301.847
301.844
301.831
301.809
301.78
301.747
301.714
301.685
301.664
301.659
301.68
301.74
301.862
302.072
302.394
302.829
303.392
304.149
305.096
300.155
300.452
300.716
300.935
301.103
301.232
301.338
301.431
301.516
301.594
301.665
301.729
301.784
301.829
301.862
301.883
301.892
301.889
301.875
301.852
301.822
301.788
301.754
301.724
301.704
301.701
301.725
301.791
301.922
302.143
302.476
302.92
303.49
304.255
305.203
300.159
300.463
300.734
300.957
301.128
301.259
301.367
301.463
301.549
301.629
301.702
301.768
301.824
301.87
301.905
301.926
301.936
301.933
301.919
301.895
301.864
301.829
301.794
301.764
301.745
301.744
301.771
301.843
301.982
302.213
302.556
303.007
303.584
304.355
305.304
300.163
300.474
300.751
300.979
301.152
301.285
301.396
301.493
301.582
301.664
301.739
301.806
301.864
301.911
301.946
301.969
301.978
301.976
301.961
301.937
301.906
301.87
301.835
301.805
301.786
301.786
301.818
301.895
302.042
302.282
302.634
303.091
303.673
304.449
305.398
300.167
300.485
300.768
301
301.176
301.311
301.423
301.523
301.613
301.697
301.774
301.842
301.902
301.95
301.986
302.01
302.02
302.018
302.004
301.979
301.947
301.911
301.875
301.845
301.827
301.83
301.864
301.948
302.102
302.35
302.71
303.172
303.758
304.538
305.488
300.171
300.496
300.784
301.02
301.199
301.336
301.45
301.551
301.644
301.729
301.808
301.878
301.939
301.988
302.025
302.05
302.061
302.059
302.046
302.021
301.989
301.952
301.916
301.886
301.869
301.873
301.911
302
302.16
302.417
302.784
303.249
303.839
304.623
305.573
300.174
300.507
300.8
301.04
301.221
301.36
301.476
301.579
301.674
301.761
301.841
301.913
301.975
302.025
302.064
302.089
302.101
302.1
302.087
302.063
302.031
301.994
301.958
301.928
301.911
301.917
301.958
302.052
302.219
302.482
302.855
303.324
303.916
304.703
305.653
300.178
300.517
300.816
301.06
301.243
301.384
301.502
301.607
301.703
301.792
301.874
301.947
302.01
302.062
302.101
302.128
302.141
302.141
302.128
302.104
302.072
302.036
301.999
301.969
301.954
301.961
302.005
302.103
302.276
302.546
302.924
303.395
303.99
304.78
305.729
300.182
300.527
300.832
301.079
301.265
301.408
301.527
301.634
301.732
301.822
301.906
301.98
302.045
302.098
302.138
302.165
302.18
302.18
302.169
302.146
302.114
302.078
302.041
302.012
301.996
302.006
302.053
302.154
302.333
302.608
302.99
303.464
304.061
304.853
305.802
300.185
300.537
300.847
301.098
301.286
301.431
301.552
301.66
301.76
301.852
301.937
302.013
302.079
302.133
302.174
302.203
302.218
302.22
302.209
302.187
302.156
302.12
302.084
302.054
302.04
302.05
302.1
302.205
302.388
302.669
303.055
303.531
304.129
304.923
305.872
300.189
300.547
300.862
301.117
301.307
301.454
301.577
301.687
301.788
301.882
301.968
302.045
302.112
302.167
302.21
302.239
302.255
302.259
302.249
302.228
302.198
302.162
302.127
302.097
302.083
302.095
302.147
302.256
302.444
302.729
303.119
303.595
304.195
304.99
305.94
300.192
300.557
300.877
301.136
301.328
301.476
301.601
301.713
301.816
301.911
301.999
302.077
302.145
302.201
302.245
302.275
302.293
302.297
302.289
302.269
302.24
302.205
302.17
302.141
302.127
302.141
302.194
302.307
302.498
302.788
303.181
303.658
304.258
305.056
306.005
300.196
300.567
300.892
301.154
301.348
301.498
301.625
301.738
301.843
301.94
302.029
302.109
302.178
302.235
302.28
302.311
302.329
302.335
302.328
302.309
302.282
302.248
302.213
302.185
302.172
302.186
302.242
302.357
302.553
302.846
303.241
303.719
304.32
305.119
306.068
300.199
300.576
300.907
301.172
301.369
301.52
301.648
301.764
301.87
301.969
302.059
302.14
302.21
302.269
302.314
302.346
302.366
302.372
302.367
302.35
302.323
302.29
302.256
302.229
302.216
302.232
302.289
302.408
302.606
302.903
303.301
303.779
304.38
305.18
306.13
300.202
300.586
300.922
301.19
301.389
301.542
301.672
301.789
301.897
301.997
302.089
302.171
302.243
302.302
302.348
302.381
302.402
302.409
302.405
302.39
302.364
302.333
302.3
302.273
302.261
302.278
302.337
302.458
302.66
302.96
303.359
303.838
304.439
305.24
306.19
300.206
300.596
300.936
301.208
301.409
301.564
301.695
301.814
301.924
302.026
302.119
302.202
302.274
302.334
302.382
302.416
302.437
302.446
302.443
302.429
302.406
302.375
302.344
302.317
302.307
302.324
302.385
302.508
302.713
303.016
303.417
303.896
304.497
305.299
306.249
300.209
300.605
300.951
301.226
301.428
301.585
301.718
301.839
301.95
302.054
302.148
302.233
302.306
302.367
302.415
302.45
302.472
302.483
302.481
302.468
302.446
302.418
302.387
302.362
302.352
302.371
302.433
302.558
302.766
303.072
303.474
303.952
304.554
305.357
306.307
300.212
300.614
300.965
301.243
301.448
301.606
301.742
301.864
301.977
302.082
302.178
302.264
302.338
302.4
302.448
302.484
302.507
302.519
302.518
302.507
302.487
302.46
302.431
302.407
302.398
302.417
302.481
302.609
302.819
303.127
303.531
304.008
304.61
305.413
306.364
300.216
300.624
300.979
301.261
301.467
301.628
301.765
301.889
302.003
302.11
302.208
302.295
302.37
302.432
302.481
302.518
302.542
302.554
302.555
302.546
302.527
302.502
302.474
302.452
302.444
302.464
302.529
302.659
302.871
303.182
303.586
304.064
304.665
305.468
306.419
300.219
300.633
300.993
301.278
301.487
301.649
301.787
301.913
302.03
302.138
302.237
302.325
302.401
302.464
302.515
302.552
302.577
302.59
302.592
302.584
302.567
302.544
302.518
302.496
302.49
302.511
302.578
302.709
302.923
303.236
303.641
304.118
304.719
305.523
306.474
300.222
300.642
301.008
301.295
301.506
301.67
301.81
301.938
302.056
302.166
302.267
302.356
302.433
302.497
302.548
302.585
302.611
302.625
302.629
302.622
302.607
302.585
302.561
302.541
302.536
302.558
302.626
302.759
302.975
303.29
303.696
304.172
304.772
305.577
306.528
300.226
300.652
301.022
301.312
301.525
301.691
301.833
301.963
302.083
302.194
302.296
302.386
302.464
302.529
302.581
302.619
302.646
302.661
302.665
302.66
302.646
302.627
302.604
302.586
302.582
302.605
302.674
302.809
303.027
303.343
303.75
304.226
304.825
305.63
306.581
300.229
300.661
301.036
301.329
301.544
301.712
301.856
301.987
302.109
302.223
302.326
302.417
302.496
302.561
302.613
302.653
302.68
302.696
302.701
302.698
302.686
302.667
302.647
302.63
302.628
302.653
302.723
302.859
303.079
303.396
303.804
304.279
304.877
305.683
306.635
300.232
300.67
301.049
301.346
301.563
301.733
301.879
302.012
302.136
302.251
302.355
302.448
302.528
302.594
302.646
302.686
302.714
302.731
302.737
302.735
302.724
302.708
302.689
302.675
302.674
302.7
302.772
302.909
303.131
303.45
303.857
304.331
304.93
305.735
306.688
300.235
300.679
301.063
301.363
301.583
301.753
301.901
302.037
302.162
302.279
302.385
302.479
302.559
302.626
302.679
302.72
302.748
302.765
302.773
302.772
302.763
302.749
302.732
302.719
302.72
302.748
302.821
302.959
303.183
303.503
303.911
304.384
304.982
305.788
306.741
300.238
300.688
301.077
301.38
301.601
301.774
301.924
302.061
302.189
302.307
302.415
302.51
302.591
302.659
302.712
302.753
302.782
302.8
302.809
302.809
302.801
302.789
302.774
302.763
302.766
302.795
302.87
303.01
303.235
303.556
303.964
304.437
305.034
305.84
306.794
300.242
300.697
301.091
301.397
301.621
301.795
301.947
302.086
302.216
302.336
302.445
302.541
302.623
302.691
302.745
302.786
302.816
302.835
302.844
302.845
302.839
302.829
302.816
302.807
302.812
302.843
302.92
303.061
303.287
303.61
304.018
304.49
305.086
305.893
306.848
300.245
300.706
301.105
301.414
301.64
301.816
301.97
302.111
302.243
302.365
302.475
302.572
302.655
302.724
302.778
302.82
302.85
302.869
302.879
302.882
302.877
302.868
302.858
302.851
302.858
302.892
302.97
303.113
303.341
303.664
304.073
304.544
305.139
305.947
306.902
300.248
300.716
301.119
301.431
301.659
301.837
301.993
302.136
302.27
302.394
302.505
302.604
302.687
302.756
302.811
302.853
302.884
302.904
302.915
302.918
302.915
302.908
302.899
302.895
302.904
302.94
303.02
303.165
303.395
303.72
304.128
304.598
305.193
306.001
306.957
300.251
300.725
301.133
301.448
301.678
301.858
302.016
302.162
302.297
302.423
302.536
302.635
302.719
302.789
302.844
302.887
302.917
302.938
302.95
302.954
302.953
302.947
302.941
302.939
302.951
302.989
303.071
303.218
303.45
303.776
304.184
304.653
305.247
306.056
307.012
300.255
300.734
301.147
301.466
301.697
301.879
302.039
302.187
302.325
302.452
302.566
302.667
302.752
302.822
302.878
302.92
302.951
302.972
302.985
302.99
302.99
302.986
302.982
302.983
302.997
303.038
303.123
303.272
303.506
303.833
304.241
304.709
305.302
306.111
307.068
300.258
300.743
301.161
301.483
301.716
301.901
302.063
302.212
302.352
302.481
302.597
302.699
302.784
302.855
302.911
302.954
302.985
303.007
303.02
303.026
303.028
303.025
303.023
303.026
303.043
303.087
303.175
303.327
303.562
303.89
304.298
304.765
305.358
306.167
307.125
300.261
300.753
301.175
301.5
301.735
301.922
302.086
302.238
302.38
302.511
302.628
302.73
302.817
302.888
302.944
302.987
303.019
303.041
303.055
303.062
303.065
303.064
303.064
303.07
303.09
303.137
303.227
303.382
303.62
303.949
304.356
304.822
305.414
306.224
307.182
300.265
300.762
301.19
301.517
301.755
301.943
302.11
302.264
302.408
302.541
302.659
302.763
302.85
302.921
302.977
303.02
303.052
303.075
303.09
303.098
303.102
303.103
303.105
303.113
303.136
303.186
303.28
303.438
303.677
304.008
304.415
304.88
305.471
306.281
307.239
300.268
300.771
301.204
301.535
301.774
301.965
302.134
302.29
302.436
302.571
302.691
302.795
302.882
302.954
303.01
303.054
303.086
303.109
303.124
303.134
303.139
303.141
303.145
303.156
303.182
303.235
303.333
303.494
303.736
304.068
304.474
304.938
305.528
306.338
307.297
300.271
300.781
301.218
301.552
301.794
301.986
302.157
302.316
302.465
302.601
302.722
302.827
302.915
302.987
303.044
303.087
303.12
303.143
303.159
303.169
303.175
303.18
303.186
303.199
303.228
303.285
303.386
303.55
303.795
304.128
304.534
304.996
305.586
306.395
307.354
300.274
300.79
301.232
301.569
301.813
302.008
302.181
302.343
302.493
302.631
302.754
302.86
302.948
303.02
303.077
303.121
303.153
303.177
303.193
303.204
303.212
303.218
303.226
303.242
303.274
303.334
303.439
303.606
303.854
304.188
304.594
305.054
305.643
306.452
307.411
300.278
300.8
301.247
301.587
301.833
302.03
302.206
302.369
302.522
302.662
302.786
302.892
302.981
303.053
303.11
303.154
303.187
303.211
303.228
303.24
303.248
303.256
303.266
303.285
303.32
303.383
303.492
303.662
303.913
304.249
304.653
305.113
305.7
306.509
307.467
300.281
300.809
301.261
301.604
301.853
302.052
302.23
302.396
302.551
302.693
302.818
302.925
303.014
303.087
303.143
303.187
303.22
303.245
303.262
303.275
303.285
303.294
303.306
303.327
303.365
303.433
303.544
303.719
303.972
304.309
304.713
305.171
305.757
306.565
307.524
300.285
300.819
301.276
301.622
301.873
302.074
302.255
302.423
302.581
302.724
302.85
302.958
303.048
303.12
303.177
303.221
303.254
303.279
303.297
303.31
303.321
303.332
303.346
303.37
303.411
303.481
303.597
303.775
304.03
304.369
304.772
305.228
305.814
306.621
307.579
300.288
300.828
301.291
301.64
301.893
302.097
302.28
302.451
302.61
302.755
302.883
302.992
303.081
303.153
303.21
303.254
303.287
303.312
303.331
303.345
303.357
303.369
303.386
303.412
303.456
303.53
303.649
303.83
304.089
304.428
304.831
305.286
305.87
306.677
307.634
300.291
300.838
301.305
301.658
301.913
302.119
302.305
302.479
302.64
302.787
302.916
303.025
303.115
303.187
303.244
303.287
303.321
303.346
303.365
303.38
303.393
303.407
303.425
303.454
303.501
303.578
303.701
303.886
304.147
304.487
304.889
305.342
305.925
306.731
307.688
300.295
300.848
301.32
301.676
301.933
302.142
302.33
302.507
302.671
302.819
302.949
303.058
303.148
303.22
303.277
303.321
303.354
303.379
303.399
303.415
303.429
303.444
303.464
303.495
303.545
303.626
303.753
303.941
304.204
304.546
304.946
305.398
305.98
306.785
307.741
300.298
300.858
301.335
301.694
301.954
302.165
302.356
302.535
302.701
302.851
302.982
303.092
303.182
303.254
303.31
303.354
303.387
303.413
303.433
303.449
303.465
303.481
303.503
303.537
303.59
303.674
303.804
303.995
304.261
304.603
305.003
305.453
306.034
306.838
307.793
300.302
300.868
301.35
301.712
301.975
302.188
302.382
302.563
302.732
302.884
303.016
303.126
303.216
303.288
303.344
303.387
303.421
303.447
303.467
303.484
303.5
303.518
303.542
303.578
303.634
303.721
303.855
304.049
304.318
304.661
305.059
305.507
306.087
306.89
307.845
300.305
300.878
301.365
301.731
301.995
302.211
302.408
302.592
302.763
302.917
303.049
303.16
303.25
303.321
303.377
303.421
303.454
303.48
303.501
303.519
303.536
303.555
303.581
303.619
303.678
303.768
303.905
304.103
304.373
304.717
305.114
305.561
306.139
306.942
307.896
300.309
300.888
301.381
301.749
302.016
302.235
302.434
302.622
302.795
302.95
303.083
303.194
303.284
303.355
303.411
303.454
303.487
303.513
303.535
303.553
303.571
303.592
303.62
303.66
303.721
303.815
303.955
304.156
304.428
304.773
305.169
305.614
306.191
306.992
307.945
300.312
300.898
301.396
301.768
302.038
302.259
302.461
302.651
302.827
302.983
303.117
303.228
303.318
303.389
303.444
303.487
303.521
303.547
303.568
303.587
303.606
303.629
303.658
303.7
303.765
303.861
304.004
304.208
304.483
304.827
305.222
305.665
306.241
307.042
307.994
300.316
300.908
301.411
301.787
302.059
302.283
302.489
302.682
302.859
303.017
303.152
303.263
303.352
303.423
303.478
303.521
303.554
303.58
303.602
303.622
303.642
303.665
303.696
303.741
303.808
303.907
304.053
304.26
304.537
304.881
305.275
305.716
306.291
307.09
308.042
300.319
300.918
301.427
301.806
302.081
302.308
302.517
302.713
302.893
303.052
303.187
303.298
303.387
303.457
303.511
303.554
303.587
303.613
303.636
303.656
303.677
303.701
303.734
303.781
303.85
303.953
304.102
304.311
304.589
304.934
305.326
305.766
306.339
307.138
308.089
300.323
300.929
301.443
301.826
302.103
302.333
302.545
302.744
302.926
303.087
303.222
303.333
303.421
303.491
303.545
303.587
303.62
303.647
303.669
303.69
303.712
303.738
303.772
303.821
303.892
303.998
304.15
304.361
304.641
304.987
305.377
305.815
306.387
307.184
308.134
300.327
300.94
301.46
301.846
302.126
302.359
302.574
302.776
302.961
303.122
303.258
303.369
303.457
303.525
303.579
303.621
303.654
303.68
303.703
303.724
303.747
303.774
303.809
303.86
303.934
304.042
304.197
304.411
304.692
305.038
305.427
305.863
306.434
307.23
308.179
300.331
300.951
301.476
301.866
302.15
302.386
302.604
302.81
302.996
303.159
303.295
303.405
303.492
303.56
303.613
303.654
303.687
303.713
303.736
303.758
303.782
303.81
303.847
303.899
303.976
304.086
304.243
304.46
304.743
305.088
305.475
305.91
306.479
307.275
308.223
300.335
300.962
301.493
301.887
302.173
302.413
302.635
302.844
303.032
303.196
303.332
303.441
303.528
303.595
303.647
303.688
303.72
303.747
303.77
303.792
303.816
303.845
303.884
303.938
304.017
304.13
304.289
304.508
304.792
305.137
305.523
305.956
306.524
307.318
308.266
300.339
300.973
301.511
301.908
302.198
302.441
302.667
302.878
303.069
303.234
303.37
303.479
303.564
303.631
303.682
303.722
303.754
303.78
303.804
303.827
303.851
303.881
303.921
303.977
304.058
304.173
304.335
304.556
304.841
305.186
305.57
306.001
306.568
307.361
308.308
300.343
300.985
301.529
301.93
302.223
302.469
302.699
302.914
303.107
303.272
303.408
303.516
303.601
303.666
303.717
303.756
303.788
303.814
303.838
303.861
303.886
303.917
303.958
304.016
304.098
304.216
304.38
304.602
304.889
305.233
305.616
306.045
306.611
307.403
308.349
300.347
300.997
301.547
301.952
302.248
302.499
302.732
302.951
303.146
303.312
303.447
303.554
303.638
303.702
303.752
303.791
303.822
303.848
303.872
303.895
303.921
303.953
303.995
304.055
304.139
304.258
304.425
304.649
304.936
305.28
305.661
306.089
306.653
307.444
308.39
300.351
301.009
301.566
301.975
302.274
302.528
302.766
302.988
303.185
303.351
303.486
303.593
303.675
303.738
303.787
303.825
303.856
303.882
303.906
303.929
303.956
303.989
304.032
304.093
304.179
304.301
304.469
304.695
304.982
305.325
305.704
306.131
306.694
307.484
308.429
300.356
301.022
301.585
301.998
302.301
302.559
302.801
303.026
303.225
303.392
303.526
303.631
303.713
303.775
303.823
303.86
303.89
303.916
303.94
303.964
303.991
304.025
304.07
304.132
304.219
304.343
304.513
304.74
305.028
305.37
305.748
306.173
306.735
307.524
308.468
300.36
301.035
301.604
302.021
302.328
302.59
302.836
303.065
303.265
303.433
303.566
303.671
303.75
303.811
303.858
303.895
303.925
303.95
303.974
303.998
304.026
304.061
304.107
304.17
304.259
304.384
304.556
304.785
305.073
305.414
305.79
306.213
306.774
307.563
308.507
300.365
301.048
301.624
302.045
302.356
302.622
302.873
303.104
303.306
303.474
303.607
303.71
303.788
303.848
303.894
303.93
303.959
303.985
304.009
304.033
304.061
304.097
304.144
304.209
304.3
304.426
304.6
304.829
305.118
305.458
305.832
306.254
306.814
307.601
308.545
300.369
301.061
301.644
302.07
302.384
302.655
302.91
303.144
303.348
303.516
303.648
303.75
303.827
303.885
303.93
303.965
303.994
304.019
304.043
304.068
304.097
304.133
304.181
304.247
304.339
304.468
304.643
304.873
305.162
305.501
305.873
306.293
306.852
307.639
308.583
300.374
301.074
301.664
302.094
302.413
302.688
302.948
303.186
303.391
303.558
303.689
303.789
303.865
303.923
303.966
304.001
304.029
304.054
304.078
304.103
304.132
304.169
304.218
304.286
304.38
304.509
304.686
304.917
305.206
305.544
305.914
306.333
306.89
307.677
308.62
300.379
301.088
301.685
302.12
302.442
302.722
302.987
303.228
303.434
303.601
303.731
303.83
303.904
303.96
304.003
304.037
304.064
304.089
304.113
304.138
304.168
304.206
304.256
304.324
304.42
304.551
304.728
304.96
305.249
305.586
305.954
306.371
306.928
307.714
308.657
300.383
301.102
301.706
302.146
302.472
302.758
303.027
303.271
303.479
303.645
303.773
303.87
303.943
303.998
304.039
304.072
304.1
304.124
304.148
304.174
304.204
304.242
304.293
304.363
304.46
304.593
304.771
305.004
305.293
305.628
305.994
306.41
306.966
307.752
308.695
300.388
301.116
301.728
302.172
302.504
302.795
303.069
303.316
303.524
303.69
303.817
303.912
303.983
304.036
304.076
304.108
304.135
304.159
304.183
304.209
304.24
304.279
304.331
304.402
304.5
304.634
304.814
305.047
305.336
305.669
306.034
306.448
307.003
307.789
308.732
300.394
301.131
301.75
302.2
302.536
302.832
303.112
303.362
303.571
303.736
303.861
303.954
304.023
304.074
304.114
304.145
304.171
304.195
304.219
304.245
304.276
304.316
304.369
304.442
304.541
304.676
304.857
305.091
305.379
305.711
306.074
306.487
307.041
307.826
308.77
300.399
301.146
301.773
302.228
302.569
302.871
303.156
303.409
303.619
303.782
303.905
303.997
304.063
304.113
304.151
304.181
304.207
304.231
304.255
304.281
304.313
304.353
304.407
304.481
304.581
304.718
304.9
305.134
305.422
305.753
306.113
306.525
307.078
307.863
308.807
300.404
301.161
301.796
302.256
302.602
302.91
303.2
303.456
303.667
303.829
303.951
304.04
304.104
304.153
304.189
304.218
304.243
304.267
304.291
304.317
304.349
304.391
304.446
304.521
304.623
304.761
304.944
305.178
305.465
305.794
306.153
306.563
307.117
307.901
308.845
300.41
301.176
301.819
302.284
302.636
302.95
303.245
303.504
303.714
303.876
303.996
304.083
304.146
304.192
304.227
304.256
304.28
304.303
304.327
304.354
304.386
304.428
304.484
304.56
304.664
304.803
304.987
305.222
305.508
305.836
306.193
306.601
307.154
307.938
308.883
300.415
301.192
301.843
302.313
302.67
302.99
303.29
303.552
303.762
303.923
304.041
304.126
304.187
304.232
304.266
304.293
304.317
304.34
304.363
304.39
304.423
304.466
304.523
304.601
304.705
304.846
305.031
305.266
305.552
305.878
306.233
306.64
307.193
307.977
308.921
300.42
301.207
301.866
302.342
302.704
303.031
303.336
303.6
303.81
303.97
304.086
304.169
304.228
304.272
304.304
304.331
304.354
304.376
304.4
304.427
304.461
304.504
304.562
304.641
304.747
304.889
305.075
305.31
305.595
305.92
306.273
306.679
307.23
308.014
308.959
300.426
301.222
301.89
302.371
302.74
303.073
303.383
303.649
303.859
304.017
304.131
304.212
304.27
304.311
304.343
304.369
304.391
304.413
304.437
304.464
304.498
304.543
304.602
304.682
304.789
304.932
305.119
305.355
305.639
305.962
306.313
306.718
307.269
308.053
308.998
300.431
301.238
301.914
302.402
302.777
303.117
303.432
303.699
303.909
304.065
304.177
304.256
304.311
304.352
304.382
304.407
304.429
304.45
304.474
304.502
304.536
304.581
304.641
304.722
304.831
304.975
305.163
305.399
305.683
306.004
306.353
306.757
307.307
308.091
309.036
300.437
301.254
301.94
302.434
302.816
303.163
303.483
303.753
303.961
304.115
304.224
304.3
304.353
304.392
304.421
304.445
304.466
304.488
304.511
304.539
304.574
304.62
304.681
304.764
304.874
305.019
305.208
305.444
305.727
306.046
306.394
306.797
307.347
308.13
309.076
300.443
301.272
301.966
302.468
302.857
303.212
303.537
303.808
304.015
304.166
304.272
304.345
304.396
304.433
304.461
304.484
304.504
304.525
304.549
304.577
304.613
304.659
304.721
304.805
304.916
305.063
305.253
305.489
305.771
306.088
306.434
306.836
307.385
308.169
309.114
300.449
301.29
301.994
302.503
302.9
303.263
303.593
303.865
304.071
304.219
304.321
304.391
304.44
304.475
304.501
304.523
304.543
304.563
304.587
304.615
304.651
304.699
304.762
304.847
304.959
305.108
305.298
305.535
305.815
306.131
306.475
306.876
307.425
308.208
309.154
300.455
301.308
302.023
302.54
302.944
303.316
303.651
303.924
304.128
304.272
304.371
304.438
304.484
304.517
304.541
304.562
304.581
304.602
304.625
304.654
304.69
304.738
304.803
304.889
305.003
305.152
305.343
305.58
305.859
306.173
306.516
306.915
307.464
308.247
309.193
300.462
301.328
302.053
302.578
302.99
303.37
303.71
303.984
304.186
304.327
304.422
304.486
304.529
304.559
304.583
304.602
304.621
304.641
304.664
304.692
304.73
304.779
304.844
304.931
305.047
305.197
305.389
305.626
305.904
306.217
306.557
306.956
307.505
308.288
309.234
300.469
301.348
302.084
302.616
303.037
303.425
303.771
304.045
304.245
304.382
304.474
304.534
304.574
304.603
304.624
304.642
304.66
304.68
304.703
304.732
304.769
304.819
304.885
304.974
305.09
305.242
305.435
305.671
305.949
306.259
306.598
306.996
307.544
308.327
309.273
300.476
301.368
302.115
302.657
303.086
303.483
303.833
304.107
304.304
304.438
304.526
304.583
304.62
304.646
304.666
304.683
304.7
304.719
304.742
304.771
304.809
304.86
304.927
305.017
305.135
305.288
305.481
305.718
305.994
306.303
306.641
307.037
307.585
308.368
309.314
300.483
301.39
302.149
302.699
303.138
303.543
303.897
304.171
304.365
304.495
304.579
304.632
304.667
304.69
304.709
304.724
304.741
304.759
304.782
304.811
304.85
304.901
304.969
305.06
305.18
305.334
305.528
305.764
306.039
306.346
306.682
307.078
307.625
308.408
309.354
300.491
301.412
302.184
302.743
303.192
303.607
303.965
304.238
304.429
304.554
304.633
304.682
304.714
304.735
304.752
304.766
304.782
304.799
304.822
304.851
304.891
304.943
305.012
305.105
305.225
305.38
305.575
305.811
306.085
306.391
306.725
307.12
307.667
308.45
309.396
300.5
301.436
302.22
302.79
303.248
303.672
304.034
304.307
304.494
304.614
304.688
304.733
304.761
304.78
304.795
304.808
304.823
304.84
304.863
304.892
304.932
304.985
305.055
305.149
305.27
305.427
305.622
305.857
306.13
306.434
306.766
307.161
307.708
308.49
309.436
300.508
301.461
302.258
302.837
303.305
303.739
304.105
304.377
304.56
304.675
304.744
304.785
304.81
304.826
304.839
304.851
304.865
304.882
304.904
304.933
304.973
305.027
305.099
305.194
305.317
305.474
305.67
305.905
306.177
306.479
306.81
307.203
307.75
308.532
309.478
300.517
301.487
302.296
302.886
303.364
303.806
304.176
304.446
304.626
304.737
304.801
304.838
304.859
304.873
304.884
304.894
304.907
304.923
304.945
304.975
305.015
305.07
305.142
305.238
305.362
305.521
305.717
305.952
306.222
306.522
306.852
307.244
307.791
308.573
309.518
300.527
301.513
302.335
302.935
303.423
303.873
304.247
304.516
304.693
304.798
304.858
304.891
304.909
304.92
304.929
304.938
304.95
304.966
304.987
305.017
305.058
305.113
305.187
305.284
305.41
305.569
305.765
306
306.269
306.568
306.896
307.288
307.834
308.615
309.56
300.536
301.539
302.375
302.985
303.483
303.942
304.318
304.587
304.759
304.861
304.916
304.945
304.959
304.968
304.975
304.983
304.993
305.008
305.029
305.059
305.1
305.156
305.231
305.329
305.456
305.615
305.812
306.046
306.314
306.611
306.938
307.329
307.875
308.656
309.6
300.545
301.566
302.415
303.037
303.545
304.012
304.391
304.658
304.827
304.923
304.974
304.999
305.01
305.017
305.022
305.028
305.037
305.051
305.072
305.102
305.144
305.2
305.276
305.375
305.503
305.664
305.861
306.095
306.362
306.657
306.982
307.372
307.918
308.699
309.643
300.555
301.593
302.458
303.09
303.61
304.085
304.467
304.733
304.897
304.988
305.033
305.054
305.062
305.066
305.068
305.073
305.081
305.095
305.115
305.145
305.187
305.244
305.32
305.42
305.549
305.711
305.908
306.141
306.406
306.7
307.023
307.413
307.959
308.739
309.683
300.565
301.623
302.502
303.147
303.678
304.163
304.548
304.81
304.969
305.054
305.094
305.11
305.115
305.115
305.116
305.119
305.126
305.139
305.159
305.189
305.231
305.289
305.366
305.467
305.597
305.76
305.957
306.19
306.454
306.746
307.068
307.457
308.003
308.782
309.726
300.576
301.653
302.548
303.207
303.75
304.244
304.631
304.892
305.044
305.123
305.157
305.167
305.168
305.166
305.165
305.166
305.172
305.183
305.203
305.232
305.274
305.333
305.411
305.513
305.643
305.806
306.003
306.235
306.498
306.788
307.109
307.498
308.043
308.822
309.765
300.587
301.686
302.597
303.268
303.824
304.328
304.718
304.976
305.123
305.194
305.221
305.227
305.223
305.218
305.214
305.214
305.218
305.229
305.248