/*--------------------------------*- C++ -*----------------------------------*\
| =========                 |                                                 |
| \\      /  F ield         | OpenFOAM: The Open Source CFD Toolbox           |
|  \\    /   O peration     | Version:  v2006                                 |
|   \\  /    A nd           | Website:  www.openfoam.com                      |
|    \\/     M anipulation  |                                                 |
\*---------------------------------------------------------------------------*/
FoamFile
{
    version     2.0;
    format      ascii;
    class       volVectorField;
    location    "83";
    object      U;
}
// * * * * * * * * * * * * * * * * * * * * * * * * * * * * * * * * * * * * * //

dimensions      [0 1 -1 0 0 0 0];


internalField   nonuniform List<vector> 
78750
(
(5.69989e-05 -0.000770223 0.00154326)
(0.000335544 -0.00174228 0.00397769)
(0.000766186 -0.00260976 0.00562419)
(0.00139302 -0.0035311 0.00659288)
(0.00223645 -0.00449396 0.00708008)
(0.00330162 -0.00542915 0.007272)
(0.00457179 -0.00626863 0.00730182)
(0.00601367 -0.00696529 0.00725009)
(0.00758537 -0.00749387 0.00716028)
(0.00924205 -0.00784546 0.00705392)
(0.0109392 -0.00802158 0.00694072)
(0.0126344 -0.00802963 0.0068245)
(0.014288 -0.00788012 0.00670625)
(0.0158638 -0.00758475 0.00658561)
(0.0173278 -0.00715117 0.00646349)
(0.0186507 -0.00659286 0.00633941)
(0.0198049 -0.00592392 0.00621329)
(0.0207665 -0.00515851 0.00608543)
(0.0215148 -0.00431113 0.00595649)
(0.0220328 -0.00339691 0.00582749)
(0.0223076 -0.00243184 0.00569977)
(0.022331 -0.00143284 0.00557479)
(0.022101 -0.000417925 0.00545396)
(0.0216127 0.000590608 0.00533975)
(0.0208591 0.00157549 0.00523382)
(0.019852 0.0025201 0.00513833)
(0.0186098 0.0034068 0.0050549)
(0.0171521 0.00421748 0.00498427)
(0.0154994 0.00493938 0.00492679)
(0.0136694 0.00557635 0.00488119)
(0.0116628 0.00620926 0.00483506)
(0.00941212 0.00712842 0.0047224)
(0.00674276 0.00870371 0.00432868)
(0.00367777 0.0101055 0.00327024)
(0.000890472 0.00725781 0.00132201)
(5.92352e-06 -0.00253229 0.00132445)
(0.000375829 -0.0060811 0.00318373)
(0.001041 -0.00902302 0.00427857)
(0.00198341 -0.0117796 0.00487441)
(0.00315967 -0.0143686 0.00516004)
(0.00451008 -0.0166723 0.00526073)
(0.00597404 -0.0185792 0.00525768)
(0.00749889 -0.0200281 0.00520036)
(0.00904049 -0.021001 0.00511695)
(0.0105619 -0.021507 0.00502264)
(0.0120319 -0.0215691 0.0049252)
(0.0134252 -0.0212162 0.00482822)
(0.0147206 -0.020481 0.00473186)
(0.0158921 -0.019404 0.00463046)
(0.0169283 -0.0180182 0.00452544)
(0.0178207 -0.0163435 0.00442351)
(0.0185509 -0.0144092 0.00432556)
(0.0191073 -0.0122456 0.00423263)
(0.01948 -0.00988534 0.00414572)
(0.0196599 -0.00736405 0.00406539)
(0.0196384 -0.00472111 0.00399192)
(0.0194077 -0.00200025 0.00392548)
(0.0189601 0.000750362 0.00386671)
(0.0183042 0.00347576 0.00381776)
(0.0174512 0.00611975 0.00377967)
(0.0164092 0.0086242 0.00375275)
(0.0151929 0.0109435 0.00373992)
(0.0138122 0.0130637 0.00375063)
(0.0122783 0.0150099 0.00379204)
(0.0106031 0.0169061 0.00386212)
(0.00876273 0.019104 0.00394303)
(0.00668082 0.0221967 0.00395282)
(0.00436822 0.0261037 0.00366498)
(0.0020719 0.0277172 0.00276414)
(0.000241947 0.0181564 0.00110193)
(5.30046e-07 -0.00436121 0.00123897)
(0.000481211 -0.0113392 0.00286409)
(0.00138382 -0.0171617 0.00377619)
(0.00262596 -0.0221072 0.00424741)
(0.00408342 -0.0261419 0.00446798)
(0.00564074 -0.0292144 0.00455652)
(0.00721032 -0.0313496 0.00458094)
(0.00873591 -0.0326329 0.00457617)
(0.0101839 -0.033169 0.00455777)
(0.0115336 -0.0330563 0.00453118)
(0.012771 -0.0323785 0.0044974)
(0.0138865 -0.0312039 0.00445606)
(0.0148725 -0.0295887 0.00440676)
(0.0157222 -0.0275802 0.00434976)
(0.0164296 -0.025221 0.0042857)
(0.0169887 -0.0225451 0.00421745)
(0.0173954 -0.0195822 0.00414929)
(0.0176469 -0.0163596 0.00408638)
(0.0177412 -0.0129047 0.00403374)
(0.0176775 -0.00924719 0.00399471)
(0.0174557 -0.00542227 0.00397047)
(0.0170775 -0.00147448 0.0039588)
(0.0165413 0.00253942 0.00395385)
(0.0158433 0.00654813 0.00394659)
(0.0149852 0.0104624 0.00392687)
(0.0139732 0.014186 0.00388698)
(0.0128176 0.0176394 0.00382637)
(0.0115321 0.0207936 0.00375366)
(0.0101288 0.0237181 0.00368432)
(0.00860838 0.026657 0.00363455)
(0.00693831 0.0300909 0.00360176)
(0.0050672 0.0344459 0.00351315)
(0.00315895 0.0386718 0.00318358)
(0.0014062 0.03855 0.00236867)
(0.00014716 0.0233541 0.000941359)
(3.79888e-05 -0.00692462 0.00113148)
(0.000633396 -0.018265 0.00244521)
(0.0016386 -0.0273125 0.00305858)
(0.00291459 -0.0342517 0.00329602)
(0.00430216 -0.0391647 0.00335816)
(0.00568681 -0.0423125 0.00334874)
(0.00701044 -0.0440596 0.00331405)
(0.0082531 -0.0447292 0.00327108)
(0.0094087 -0.0445499 0.00322495)
(0.0104737 -0.0436743 0.00317435)
(0.0114449 -0.0422064 0.00311748)
(0.0123181 -0.0402182 0.00305479)
(0.013088 -0.0377627 0.00298701)
(0.0137465 -0.0348832 0.00291653)
(0.0142844 -0.0316187 0.00284779)
(0.0146932 -0.0280082 0.00278723)
(0.0149664 -0.0240927 0.00274309)
(0.0151007 -0.0199143 0.0027248)
(0.0150963 -0.0155149 0.00274189)
(0.0149569 -0.0109333 0.00280385)
(0.0146872 -0.0062043 0.00291754)
(0.0142911 -0.001361 0.00308468)
(0.0137755 0.0035569 0.00329885)
(0.0131468 0.00849379 0.00354157)
(0.012406 0.0133699 0.00378236)
(0.0115517 0.0180826 0.00398385)
(0.010584 0.0225324 0.00411301)
(0.00950577 0.0266807 0.00415367)
(0.00831809 0.0306289 0.00411175)
(0.00701025 0.0346926 0.00400695)
(0.00555078 0.0393553 0.00384801)
(0.00391876 0.0446761 0.00359297)
(0.002358 0.0487265 0.00314025)
(0.000996949 0.0468091 0.00230645)
(7.21102e-05 0.0269631 0.000929309)
(4.44428e-05 -0.00931072 0.000834961)
(0.0006026 -0.0240569 0.00169766)
(0.00148727 -0.0351232 0.0020622)
(0.00255266 -0.0428727 0.00220844)
(0.00365327 -0.0477348 0.00226694)
(0.00471072 -0.0504204 0.00228659)
(0.00570884 -0.0516056 0.002284)
(0.00665113 -0.05173 0.00226229)
(0.00754357 -0.0510353 0.00222164)
(0.00838737 -0.0496487 0.00216083)
(0.00917219 -0.0476553 0.00207561)
(0.00989113 -0.0451095 0.00196481)
(0.0105357 -0.0420399 0.00183129)
(0.01109 -0.0384805 0.00167947)
(0.0115402 -0.0344759 0.00151671)
(0.0118752 -0.0300853 0.00135355)
(0.0120885 -0.0253801 0.00120364)
(0.0121791 -0.020437 0.0010832)
(0.0121505 -0.0153281 0.00101128)
(0.0120097 -0.010113 0.00100804)
(0.0117656 -0.00483425 0.00109338)
(0.011427 0.000481832 0.00128446)
(0.0110025 0.00581725 0.00159059)
(0.0104982 0.0111485 0.00200593)
(0.00991603 0.0164338 0.00250224)
(0.00925369 0.0216089 0.00302686)
(0.00850568 0.0266096 0.00351204)
(0.007664 0.0314337 0.00389492)
(0.00671656 0.0362249 0.00413508)
(0.00564275 0.0413134 0.0042135)
(0.00441487 0.0470348 0.00411405)
(0.00304511 0.0529231 0.00380868)
(0.00178719 0.0564452 0.00327362)
(0.000724201 0.0527799 0.002381)
(3.65847e-05 0.0292588 0.00094366)
(4.75242e-05 -0.0116169 0.000605692)
(0.000531279 -0.0295177 0.00124854)
(0.00126603 -0.0423631 0.0015647)
(0.00213234 -0.0508309 0.00173258)
(0.00301466 -0.0557578 0.00181857)
(0.00386152 -0.0582509 0.00185117)
(0.00467405 -0.0591844 0.00184654)
(0.00546104 -0.0590348 0.00181104)
(0.00622055 -0.05803 0.00174608)
(0.00694677 -0.0562802 0.00165307)
(0.00763167 -0.0538391 0.00153237)
(0.00826355 -0.0507363 0.00138304)
(0.00882673 -0.0470002 0.00120618)
(0.00930542 -0.0426774 0.0010047)
(0.00968597 -0.0378445 0.000783949)
(0.00995874 -0.0326048 0.000552257)
(0.0101204 -0.0270752 0.000321537)
(0.0101744 -0.0213722 0.000107747)
(0.0101283 -0.0155969 -7.02621e-05)
(0.00999224 -0.00982411 -0.000190112)
(0.00977744 -0.00409904 -0.00022659)
(0.0094945 0.00155994 -0.00015342)
(0.0091512 0.00715445 5.31402e-05)
(0.00875273 0.0126926 0.000407932)
(0.00830046 0.0181768 0.000907591)
(0.00778989 0.0235993 0.00152148)
(0.00720989 0.0289606 0.00219019)
(0.00654328 0.0343229 0.00283691)
(0.00576773 0.039879 0.00338435)
(0.00485717 0.0459468 0.00375986)
(0.00378961 0.0526645 0.00388903)
(0.00260401 0.0590616 0.00370846)
(0.00153306 0.0622237 0.00321112)
(0.000628958 0.0572257 0.00231922)
(4.18531e-05 0.0309415 0.000876677)
(4.37585e-05 -0.0133741 0.000413895)
(0.000441972 -0.0334741 0.000879418)
(0.00104047 -0.0474324 0.00115063)
(0.00174668 -0.0562633 0.00132485)
(0.002467 -0.0611441 0.00142747)
(0.00316323 -0.0634582 0.00147517)
(0.00384064 -0.0641823 0.00148255)
(0.00450515 -0.063796 0.00145675)
(0.00515171 -0.0625086 0.00140027)
(0.00577296 -0.0604094 0.00131343)
(0.00636002 -0.057531 0.00119579)
(0.00690113 -0.0538857 0.00104681)
(0.00738217 -0.0494998 0.00086621)
(0.00778864 -0.0444401 0.000654878)
(0.0081087 -0.0388184 0.000415786)
(0.00833608 -0.0327833 0.000154857)
(0.00846954 -0.0264985 -0.000118144)
(0.00851223 -0.02012 -0.000388711)
(0.00847076 -0.0137787 -0.000637206)
(0.00835403 -0.00756715 -0.000839524)
(0.00817184 -0.00153638 -0.000968212)
(0.00793533 0.00430074 -0.000994319)
(0.0076547 0.00996211 -0.000890317)
(0.00733569 0.0154885 -0.000634365)
(0.00697905 0.0209327 -0.000216793)
(0.00657889 0.0263547 0.000351853)
(0.00612116 0.0318367 0.00103525)
(0.00558386 0.0375212 0.001772)
(0.00493949 0.0436476 0.00248028)
(0.00416023 0.0504818 0.00305767)
(0.00322944 0.0579098 0.00338196)
(0.00220813 0.0645067 0.00334692)
(0.00129242 0.067213 0.00293463)
(0.000521801 0.0609563 0.00210123)
(3.12949e-05 0.0323783 0.000754709)
(3.18249e-05 -0.0149344 0.000311264)
(0.000348792 -0.0371174 0.000740111)
(0.000837357 -0.0522759 0.00105219)
(0.00142849 -0.0616658 0.00127626)
(0.00204108 -0.0667114 0.00141407)
(0.00264106 -0.0690207 0.0014836)
(0.00323322 -0.0696696 0.00150516)
(0.00382079 -0.0691533 0.0014896)
(0.00439658 -0.0676718 0.00144146)
(0.00495238 -0.0652978 0.0013625)
(0.00547913 -0.0620466 0.00125304)
(0.00596541 -0.0579206 0.00111233)
(0.00639851 -0.052951 0.000938998)
(0.00676688 -0.0472245 0.000731697)
(0.00706191 -0.0408846 0.000489856)
(0.00727854 -0.0341139 0.000214789)
(0.00741519 -0.0271093 -8.84993e-05)
(0.00747368 -0.0200578 -0.000409389)
(0.00745866 -0.0131158 -0.000730532)
(0.00737745 -0.00639776 -0.00102745)
(0.00723955 2.82537e-05 -0.00126957)
(0.00705403 0.00614083 -0.00142286)
(0.00682918 0.0119628 -0.00145339)
(0.00657176 0.0175578 -0.00133184)
(0.00628281 0.0230221 -0.00103847)
(0.00595533 0.0284801 -0.00056909)
(0.00557377 0.0340939 5.91876e-05)
(0.00511446 0.0400862 0.000803002)
(0.00454824 0.0467412 0.00158724)
(0.00384752 0.054272 0.0022963)
(0.00299868 0.0623363 0.00277527)
(0.00207234 0.0691427 0.00287893)
(0.00123485 0.071543 0.00257169)
(0.000514378 0.0642664 0.00183292)
(4.24484e-05 0.0337349 0.000631265)
(3.20412e-05 -0.0161172 0.000255449)
(0.00031851 -0.0398664 0.000661991)
(0.000762222 -0.0559339 0.000981606)
(0.00129948 -0.0657553 0.00121278)
(0.00185497 -0.0709371 0.00135305)
(0.00239833 -0.0732489 0.0014229)
(0.00293477 -0.0738339 0.00144451)
(0.00346612 -0.0731972 0.00143013)
(0.00398458 -0.0715313 0.0013856)
(0.00448239 -0.0688963 0.00131387)
(0.00495163 -0.0652947 0.00121613)
(0.00538263 -0.060724 0.00109216)
(0.00576512 -0.0552236 0.000940363)
(0.00609018 -0.0488997 0.000758165)
(0.00635123 -0.0419204 0.000542692)
(0.00654455 -0.0344939 0.000291969)
(0.0066687 -0.0268436 6.51112e-06)
(0.00672423 -0.0191826 -0.000308716)
(0.00671408 -0.0116921 -0.000642296)
(0.0066438 -0.00450877 -0.000974934)
(0.00652116 0.00228043 -0.00127926)
(0.00635552 0.00864123 -0.00152155)
(0.00615636 0.0145982 -0.00166529)
(0.0059306 0.0202353 -0.00167537)
(0.00567975 0.0256891 -0.00152243)
(0.00539723 0.0311434 -0.00118758)
(0.00506675 0.036834 -0.000668503)
(0.00466352 0.0430551 1.19624e-05)
(0.00415862 0.0501252 0.000792209)
(0.00352543 0.0581965 0.00155545)
(0.00275131 0.0667182 0.00212901)
(0.00191107 0.0736115 0.00233991)
(0.00114447 0.075694 0.00213729)
(0.000476495 0.0674516 0.00151667)
(3.78469e-05 0.0351023 0.000499982)
(2.31159e-05 -0.01732 0.000253543)
(0.000272965 -0.0427635 0.000692286)
(0.000670434 -0.0598729 0.00104678)
(0.00116006 -0.0702243 0.00130192)
(0.00167027 -0.0756031 0.00145613)
(0.00217185 -0.0779533 0.00153505)
(0.00266941 -0.0784979 0.00156432)
(0.00316351 -0.0777602 0.00155795)
(0.00364565 -0.0759304 0.00152269)
(0.00410801 -0.0730604 0.00146215)
(0.00454301 -0.0691445 0.00137804)
(0.00494188 -0.0641779 0.00127021)
(0.00529598 -0.0582071 0.0011366)
(0.00559821 -0.0513513 0.00097351)
(0.00584357 -0.0437947 0.000776385)
(0.00602872 -0.035762 0.000541199)
(0.00615242 -0.0274914 0.000266105)
(0.00621527 -0.0192164 -4.68018e-05)
(0.00621867 -0.0111409 -0.000389492)
(0.00616602 -0.00342527 -0.000746334)
(0.00606336 0.00381827 -0.00109336)
(0.00591858 0.0105355 -0.00139939)
(0.00574034 0.0167446 -0.00162901)
(0.00553568 0.0225408 -0.00174638)
(0.00530685 0.028092 -0.00171823)
(0.00504862 0.0336318 -0.00151681)
(0.00474626 0.0394592 -0.00112492)
(0.00437584 0.0459305 -0.000546609)
(0.00390913 0.0533938 0.000173805)
(0.00332091 0.0619473 0.000928396)
(0.00259897 0.0708661 0.00154077)
(0.00181831 0.0778428 0.00182267)
(0.00109789 0.0796574 0.00171231)
(0.000460276 0.0705282 0.00121509)
(3.86507e-05 0.0364468 0.000386692)
(2.57339e-05 -0.0183198 0.000254177)
(0.000270365 -0.0451594 0.000705175)
(0.000654482 -0.0631291 0.0010638)
(0.00112151 -0.0739272 0.00131428)
(0.00160281 -0.0794837 0.00146148)
(0.00207245 -0.0818774 0.00153487)
(0.0025361 -0.0823923 0.00156088)
(0.00299432 -0.0815655 0.00155403)
(0.00343901 -0.079586 0.0015218)
(0.003863 -0.076499 0.00146876)
(0.00425949 -0.0722943 0.00139751)
(0.00462086 -0.0669688 0.00130861)
(0.00493992 -0.0605784 0.00120011)
(0.00521115 -0.0532562 0.00106765)
(0.00543097 -0.0452001 0.000905162)
(0.0055972 -0.0366475 0.00070618)
(0.00570859 -0.0278493 0.000465646)
(0.0057651 -0.0190485 0.000181847)
(0.00576839 -0.0104639 -0.000141573)
(0.00572105 -0.00227448 -0.000493521)
(0.00562766 0.0053859 -0.000853982)
(0.00549484 0.0124444 -0.00119456)
(0.0053301 0.0189117 -0.00148128)
(0.00513977 0.0248914 -0.00167827)
(0.00492621 0.0305758 -0.00175039)
(0.00468522 0.0362386 -0.00166484)
(0.00440404 0.0422294 -0.0013947)
(0.00406092 0.0489532 -0.000929536)
(0.00362859 0.0567769 -0.000297139)
(0.0030831 0.0657429 0.000408635)
(0.00241342 0.0749729 0.00101798)
(0.00169304 0.0819766 0.00133922)
(0.0010226 0.0835063 0.00130511)
(0.000424791 0.0734998 0.000927763)
(3.34089e-05 0.0377434 0.000282836)
(2.09428e-05 -0.0194031 0.000280335)
(0.000250904 -0.0477819 0.000767313)
(0.000614404 -0.0666931 0.00114294)
(0.00105763 -0.0779582 0.00139779)
(0.00151353 -0.083682 0.00154442)
(0.00195754 -0.0861042 0.00161718)
(0.00239549 -0.0865769 0.00164418)
(0.0028274 -0.0856527 0.00164047)
(0.0032451 -0.08352 0.00161399)
(0.00364167 -0.0802201 0.00156975)
(0.00401079 -0.0757402 0.00151075)
(0.00434575 -0.0700799 0.0014377)
(0.00464058 -0.0633028 0.00134849)
(0.00489105 -0.0555519 0.0012382)
(0.00509462 -0.0470346 0.0010999)
(0.00524983 -0.0379962 0.000926012)
(0.00535579 -0.0286955 0.000710075)
(0.00541203 -0.0193851 0.000448573)
(0.00541889 -0.0102947 0.000142735)
(0.00537846 -0.00161948 -0.00019956)
(0.00529451 0.00648572 -0.000562097)
(0.00517217 0.0139293 -0.000920185)
(0.00501769 0.0207127 -0.00124292)
(0.00483659 0.0269437 -0.00149643)
(0.00463114 0.0328338 -0.00164613)
(0.00439803 0.0386892 -0.00165749)
(0.00412656 0.0449004 -0.00149816)
(0.00379816 0.05191 -0.00114751)
(0.0033891 0.0600948 -0.000618847)
(0.00287657 0.0694444 1.03951e-05)
(0.0022496 0.0789446 0.000584579)
(0.00158063 0.0859527 0.000918014)
(0.000954592 0.0871957 0.000942378)
(0.000393475 0.0763307 0.000673763)
(3.02149e-05 0.038964 0.000195271)
(2.28971e-05 -0.0203786 0.000294349)
(0.000250387 -0.0501093 0.000793161)
(0.000603047 -0.0698314 0.00116455)
(0.00102672 -0.0814974 0.00140785)
(0.00145753 -0.0873701 0.0015437)
(0.0018741 -0.0898223 0.00160934)
(0.00228313 -0.0902601 0.00163273)
(0.0026848 -0.0892481 0.00162883)
(0.00307141 -0.0869745 0.00160597)
(0.00343661 -0.0834777 0.0015698)
(0.00377471 -0.0787453 0.00152413)
(0.00407991 -0.0727825 0.00147028)
(0.00434741 -0.0656631 0.00140629)
(0.00457411 -0.0575404 0.00132672)
(0.00475841 -0.0486296 0.00122331)
(0.0048995 -0.0391809 0.00108645)
(0.00499686 -0.0294565 0.00090711)
(0.00505015 -0.0197128 0.000679077)
(0.00505928 -0.0101861 0.000400941)
(0.00502465 -0.0010825 7.79726e-05)
(0.00494923 0.00742708 -0.000276129)
(0.00483771 0.0152346 -0.000639123)
(0.00469471 0.0223334 -0.000982208)
(0.00452448 0.0288346 -0.00127337)
(0.00432868 0.0349642 -0.00147947)
(0.00410446 0.0410537 -0.00156632)
(0.00384267 0.0475245 -0.00149963)
(0.00352763 0.0548448 -0.00125292)
(0.00313924 0.0633902 -0.000828401)
(0.00265711 0.0730941 -0.000287389)
(0.00207178 0.0828167 0.000232633)
(0.0014543 0.0897892 0.000558856)
(0.000875303 0.0907232 0.000625727)
(0.000355929 0.079003 0.000452087)
(2.55472e-05 0.0400972 0.000120506)
(2.01011e-05 -0.0214079 0.000319398)
(0.000238422 -0.0525631 0.00084119)
(0.000576181 -0.0731238 0.00121516)
(0.000981005 -0.0851802 0.00145149)
(0.00139061 -0.0911784 0.00157931)
(0.00178516 -0.0936413 0.00163953)
(0.00217159 -0.0940309 0.00166053)
(0.00254974 -0.0929225 0.00165724)
(0.00291202 -0.0905045 0.00163817)
(0.00325248 -0.0868139 0.00160939)
(0.003566 -0.0818399 0.00157514)
(0.00384767 -0.075594 0.00153709)
(0.00409376 -0.0681588 0.00149345)
(0.00430223 -0.0596957 0.00143861)
(0.00447225 -0.050425 0.00136378)
(0.00460348 -0.0405989 0.00125824)
(0.00469558 -0.0304807 0.00111128)
(0.00474803 -0.0203289 0.000914464)
(0.00476043 -0.0103847 0.000663997)
(0.00473274 -0.000863961 0.000362711)
(0.00466613 0.00804769 2.1732e-05)
(0.00456356 0.0162282 -0.000339085)
(0.00442916 0.0236633 -0.000693203)
(0.00426636 0.0304656 -0.00101057)
(0.0040764 0.0368736 -0.00125963)
(0.00385668 0.0432398 -0.00140728)
(0.00359938 0.0500103 -0.00141913)
(0.00329149 0.0576703 -0.00126574)
(0.00291676 0.066585 -0.000941272)
(0.00245875 0.0766267 -0.000492534)
(0.00190979 0.0865398 -3.76502e-05)
(0.00133835 0.0934499 0.000267626)
(0.000802901 0.0940627 0.000362984)
(0.000322878 0.081503 0.000268913)
(2.24063e-05 0.0411396 6.11699e-05)
(2.08821e-05 -0.0223732 0.000333635)
(0.000234745 -0.0548308 0.000860399)
(0.000560188 -0.0761383 0.00122312)
(0.000945553 -0.0885355 0.00144351)
(0.00133173 -0.0946428 0.00155853)
(0.0017016 -0.0971147 0.00161084)
(0.00206256 -0.0974594 0.001628)
(0.00241445 -0.0962605 0.00162453)
(0.00275012 -0.0937067 0.00160912)
(0.00306407 -0.0898353 0.00158831)
(0.00335176 -0.0846396 0.00156697)
(0.00360909 -0.0781393 0.00154736)
(0.00383329 -0.0704273 0.00152795)
(0.00402325 -0.0616729 0.001503)
(0.00417888 -0.0520998 0.00146295)
(0.00430038 -0.0419595 0.00139561)
(0.00438766 -0.0315125 0.00128808)
(0.00444013 -0.0210146 0.00112917)
(0.00445691 -0.0107075 0.000912195)
(0.0044372 -0.000813375 0.000637435)
(0.00438109 0.00847044 0.000314047)
(0.00429005 0.017009 -3.97104e-05)
(0.00416669 0.0247804 -0.000398688)
(0.00401361 0.0318976 -0.000734093)
(0.00383166 0.0386083 -0.00101567)
(0.0036183 0.0452815 -0.00121168)
(0.00336673 0.0523813 -0.0012887)
(0.00306622 0.0604015 -0.00121634)
(0.00270411 0.0696888 -0.000983336)
(0.00226787 0.0800506 -0.000624119)
(0.00175231 0.0901212 -0.00023781)
(0.00122407 0.0969404 3.86589e-05)
(0.000731128 0.0972182 0.000151451)
(0.000290359 0.0838355 0.000121965)
(1.91651e-05 0.0420966 1.53002e-05)
(1.89255e-05 -0.0233542 0.000351305)
(0.00022461 -0.0571268 0.00088621)
(0.000536475 -0.079175 0.00124004)
(0.000904446 -0.0918927 0.00144621)
(0.00127121 -0.0980886 0.00154927)
(0.00162117 -0.100556 0.0015939)
(0.00196183 -0.100847 0.00160709)
(0.00229271 -0.0995542 0.00160294)
(0.00260689 -0.0968653 0.00159018)
(0.00289925 -0.0928192 0.00157568)
(0.00316578 -0.087414 0.00156474)
(0.00340314 -0.0806785 0.00156008)
(0.00360943 -0.0727148 0.0015606)
(0.00378431 -0.0636988 0.00156085)
(0.00392836 -0.0538564 0.00155129)
(0.00404223 -0.043437 0.00151918)
(0.00412606 -0.0326961 0.00145017)
(0.00417921 -0.0218848 0.00133072)
(0.00420036 -0.011243 0.00115092)
(0.00418791 -0.000996168 0.000907572)
(0.00414086 0.00864842 0.00060678)
(0.00405948 0.0175433 0.000264719)
(0.00394519 0.0256584 -9.46009e-05)
(0.00379965 0.0331062 -0.000442989)
(0.00362331 0.040142 -0.000750772)
(0.00341388 0.0471487 -0.000987215)
(0.00316551 0.0546037 -0.00111999)
(0.00286949 0.0630032 -0.00111871)
(0.00251634 0.0726679 -0.00096843)
(0.00209751 0.0833368 -0.000693253)
(0.0016116 0.0935382 -0.000374832)
(0.00112251 0.100246 -0.00013149)
(0.000668018 0.100183 -1.01916e-05)
(0.000262692 0.0860029 1.05718e-05)
(1.69522e-05 0.0429736 -1.72849e-05)
(1.8897e-05 -0.024292 0.000361493)
(0.000218896 -0.0592976 0.000892823)
(0.000518626 -0.0820238 0.00122941)
(0.00086902 -0.0950261 0.00141651)
(0.0012155 -0.101297 0.00150548)
(0.00154458 -0.103756 0.00154157)
(0.00186399 -0.103996 0.00155046)
(0.00217315 -0.102612 0.0015456)
(0.00246545 -0.0997943 0.00153574)
(0.0027362 -0.0955843 0.00152808)
(0.00298184 -0.0899868 0.00152835)
(0.00319967 -0.0830404 0.00153975)
(0.00338851 -0.0748573 0.00156157)
(0.00354871 -0.0656201 0.00158859)
(0.00368148 -0.0555555 0.0016112)
(0.003788 -0.0449089 0.00161614)
(0.00386876 -0.0339278 0.00158783)
(0.00392321 -0.0228548 0.00151057)
(0.00394974 -0.0119237 0.00137146)
(0.00394597 -0.0013593 0.00116376)
(0.00390973 0.00862424 0.000890174)
(0.00383985 0.0178677 0.000564414)
(0.00373644 0.0263308 0.000209297)
(0.0036002 0.0341228 -0.00014732)
(0.00343107 0.0415035 -0.000475916)
(0.00322686 0.0488656 -0.000746272)
(0.00298262 0.0566958 -0.000926975)
(0.0026915 0.0654866 -0.000987928)
(0.00234685 0.0755283 -0.000911558)
(0.00194371 0.0864886 -0.0007134)
(0.00148428 0.0967963 -0.000459502)
(0.00103015 0.103376 -0.000250701)
(0.000610682 0.10297 -0.000127633)
(0.000237885 0.0880213 -6.94371e-05)
(1.49809e-05 0.0437808 -3.85699e-05)
(1.7422e-05 -0.0252224 0.000371197)
(0.000209997 -0.0614413 0.000897495)
(0.000497674 -0.0848227 0.00121642)
(0.000832675 -0.0980861 0.00138459)
(0.00116217 -0.104415 0.00145947)
(0.00147406 -0.106857 0.00148675)
(0.00177609 -0.10704 0.00149079)
(0.00206743 -0.105564 0.00148435)
(0.0023417 -0.10262 0.0014761)
(0.00259454 -0.0982528 0.00147344)
(0.00282282 -0.0924744 0.00148244)
(0.00302439 -0.0853335 0.00150677)
(0.00319863 -0.0769523 0.00154623)
(0.00334647 -0.0675193 0.00159619)
(0.00346961 -0.0572624 0.00164751)
(0.00356971 -0.0464223 0.00168705)
(0.00364762 -0.0352378 0.00169861)
(0.00370294 -0.0239407 0.00166479)
(0.00373391 -0.0127557 0.00156973)
(0.00373764 -0.00190336 0.00140274)
(0.00371086 0.00839908 0.00116229)
(0.00365113 0.0179822 0.000858704)
(0.00355724 0.0267953 0.000513016)
(0.00342894 0.034942 0.000152743)
(0.00326577 0.0426837 -0.000192292)
(0.00306581 0.0504199 -0.000491757)
(0.00282483 0.0586425 -0.000714622)
(0.00253748 0.067836 -0.000830859)
(0.00219971 0.0782547 -0.00082074)
(0.00180971 0.0894945 -0.000692595)
(0.00137304 0.0998891 -0.00049883)
(0.000949504 0.106329 -0.00032453)
(0.000561093 0.105583 -0.00020503)
(0.000216889 0.089898 -0.000120903)
(1.3545e-05 0.0445238 -4.94942e-05)
(1.70311e-05 -0.0261211 0.000375817)
(0.000203897 -0.063496 0.000889801)
(0.000480949 -0.0874886 0.00118648)
(0.000801288 -0.100987 0.00133349)
(0.00111423 -0.107362 0.00139355)
(0.00140929 -0.109784 0.00141188)
(0.00169431 -0.109909 0.00141111)
(0.00196832 -0.108344 0.00140321)
(0.00222521 -0.105279 0.00139672)
(0.00246093 -0.100764 0.00139919)
(0.00267271 -0.0948189 0.00141699)
(0.00285881 -0.0875031 0.00145412)
(0.00301914 -0.0789488 0.00151081)
(0.00315512 -0.069351 0.00158288)
(0.00326896 -0.0589379 0.00166166)
(0.00336282 -0.0479446 0.00173427)
(0.00343799 -0.0365996 0.00178432)
(0.00349435 -0.0251214 0.00179335)
(0.00353013 -0.013722 0.00174318)
(0.00354195 -0.00261366 0.00161955)
(0.00352557 0.00798703 0.0014165)
(0.00347714 0.0179023 0.00114029)
(0.00339401 0.0270692 0.000809402)
(0.00327482 0.0355828 0.000450512)
(0.00311858 0.0437024 9.3745e-05)
(0.00292344 0.05183 -0.000230063)
(0.00268627 0.0604584 -0.000489699)
(0.00240322 0.0700607 -0.000654943)
(0.00207216 0.0808529 -0.000704016)
(0.00169403 0.0923586 -0.000638983)
(0.00127735 0.102823 -0.000500415)
(0.000880172 0.109116 -0.000359613)
(0.000518608 0.108038 -0.000247791)
(0.000199259 0.0916506 -0.000147821)
(1.25185e-05 0.0452125 -5.17812e-05)
(1.59524e-05 -0.027002 0.000378106)
(0.000196561 -0.0654998 0.000876168)
(0.000463711 -0.0900745 0.00114891)
(0.000771391 -0.103783 0.00127422)
(0.00107039 -0.110191 0.00131922)
(0.00135139 -0.112584 0.00132823)
(0.00162226 -0.112649 0.00132205)
(0.00188181 -0.110994 0.00131181)
(0.00212417 -0.107811 0.00130584)
(0.00234555 -0.103154 0.00131179)
(0.00254342 -0.0970505 0.00133624)
(0.0027164 -0.089572 0.0013836)
(0.00286476 -0.0808608 0.00145463)
(0.00299032 -0.0711184 0.00154583)
(0.00309572 -0.0605742 0.00164923)
(0.00318356 -0.0494582 0.00175256)
(0.00325559 -0.0379878 0.00183962)
(0.00331205 -0.0263671 0.00189128)
(0.00335129 -0.0147926 0.00188746)
(0.00336973 -0.00346393 0.00181045)
(0.00336234 0.00740781 0.00164964)
(0.00332404 0.0176397 0.00140654)
(0.0032508 0.027157 0.0010962)
(0.00314015 0.036044 0.000743909)
(0.00299047 0.0445542 0.000379979)
(0.00279992 0.0530881 3.6079e-05)
(0.00256605 0.0621354 -0.000255832)
(0.00228679 0.072153 -0.000464752)
(0.00196196 0.0833166 -0.000566904)
(0.00159442 0.095078 -0.000558776)
(0.00119524 0.105599 -0.000470657)
(0.000820793 0.111743 -0.000362013)
(0.000482304 0.110342 -0.000261161)
(0.00018432 0.0932867 -0.000154048)
(1.17194e-05 0.0458511 -4.69253e-05)
(1.54709e-05 -0.0278588 0.000376798)
(0.000191056 -0.0674375 0.000854562)
(0.000449643 -0.0925621 0.00110131)
(0.000745851 -0.106461 0.0012044)
(0.001032 -0.112891 0.00123446)
(0.00129999 -0.115251 0.00123436)
(0.00155771 -0.115255 0.0012229)
(0.00180391 -0.113512 0.00121035)
(0.00203291 -0.110216 0.0012048)
(0.00224113 -0.105424 0.00121387)
(0.00242619 -0.0991731 0.00124435)
(0.002587 -0.0915462 0.00130091)
(0.00272415 -0.0826963 0.00138474)
(0.00283984 -0.0728316 0.00149291)
(0.00293715 -0.0621824 0.00161817)
(0.00301912 -0.0509734 0.00174898)
(0.003088 -0.0394107 0.00186974)
(0.00314443 -0.0276826 0.0019613)
(0.00318701 -0.0159677 0.00200243)
(0.00321202 -0.00444959 0.00197268)
(0.00321374 0.00667037 0.00185703)
(0.00318592 0.0172071 0.00165179)
(0.00312309 0.0270742 0.0013677)
(0.00302156 0.0363428 0.00102773)
(0.00287903 0.0452567 0.000661878)
(0.0026936 0.0542108 0.000302636)
(0.00246339 0.0636877 -1.69133e-05)
(0.00218753 0.0741251 -0.000264496)
(0.00186807 0.0856557 -0.000414014)
(0.00150999 0.0976618 -0.000456987)
(0.00112607 0.10823 -0.000414779)
(0.00077101 0.114225 -0.000336777)
(0.000452052 0.112512 -0.000249563)
(0.000172051 0.0948221 -0.000142879)
(1.11955e-05 0.0464474 -3.62532e-05)
(1.47883e-05 -0.028695 0.000372495)
(0.000185481 -0.0693176 0.000825835)
(0.000436441 -0.0949619 0.00104467)
(0.000722896 -0.109029 0.001125)
(0.000998287 -0.115466 0.00114001)
(0.00125546 -0.117787 0.00113055)
(0.00150232 -0.117728 0.00111332)
(0.00173742 -0.115897 0.00109765)
(0.00195527 -0.11249 0.00109137)
(0.00215242 -0.107566 0.00110209)
(0.0023266 -0.101173 0.00113678)
(0.00247687 -0.0934064 0.00120043)
(0.00260409 -0.0844292 0.00129476)
(0.00271075 -0.0744577 0.00141749)
(0.00280026 -0.0637238 0.00156215)
(0.00287611 -0.0524476 0.00171808)
(0.002941 -0.0408244 0.00187041)
(0.00299612 -0.0290255 0.0020003)
(0.00304044 -0.0172097 0.00208582)
(0.00307036 -0.00554056 0.00210427)
(0.00307973 0.0057955 0.00203653)
(0.00306134 0.0166157 0.00187357)
(0.00300835 0.0268235 0.00162113)
(0.00291578 0.0364756 0.00129906)
(0.00278051 0.0458026 0.000936445)
(0.00260049 0.0551893 0.000566499)
(0.00237428 0.0651066 0.000223689)
(0.00210203 0.0759698 -5.80138e-05)
(0.00178719 0.0878667 -0.000249918)
(0.001437 0.10011 -0.000338776)
(0.00106643 0.110716 -0.000338282)
(0.000728157 0.116565 -0.000289407)
(0.000425954 0.114553 -0.000217983)
(0.000161412 0.0962618 -0.000118094)
(1.0737e-05 0.0470041 -2.12867e-05)
(1.43842e-05 -0.0295123 0.000365606)
(0.0001808 -0.0711457 0.000792057)
(0.000424938 -0.0972842 0.000982514)
(0.000702652 -0.111502 0.00104061)
(0.000968541 -0.117939 0.00104128)
(0.00121642 -0.120216 0.00102296)
(0.00145408 -0.120092 0.00100011)
(0.00167968 -0.118175 0.000981151)
(0.0018878 -0.114659 0.000973684)
(0.00207513 -0.109609 0.000985315)
(0.00223954 -0.103082 0.00102309)
(0.00238028 -0.0951834 0.00109228)
(0.00249843 -0.0860906 0.00119494)
(0.00259673 -0.0760265 0.00132939)
(0.00267891 -0.0652251 0.00148996)
(0.00274882 -0.0539022 0.00166699)
(0.00280963 -0.0422426 0.00184665)
(0.00286302 -0.0304012 0.00201092)
(0.00290845 -0.0185155 0.00213789)
(0.00294255 -0.00672648 0.00220336)
(0.00295894 0.00479883 0.0021847)
(0.00294957 0.0158842 0.00206751)
(0.00290632 0.0264248 0.00185191)
(0.00282291 0.0364621 0.00155363)
(0.00269526 0.0462106 0.00120003)
(0.00252102 0.0560406 0.000824608)
(0.00229916 0.0664073 0.000463286)
(0.00203075 0.0776999 0.000152034)
(0.00172042 0.0899608 -7.763e-05)
(0.00137676 0.102435 -0.000207846)
(0.00101692 0.113074 -0.000245366)
(0.00069269 0.118778 -0.000224134)
(0.000404616 0.116479 -0.00017024)
(0.000153031 0.0976184 -8.24801e-05)
(1.0692e-05 0.0475267 -3.09308e-06)
(1.39903e-05 -0.0303081 0.000355742)
(0.000176506 -0.0729146 0.000751558)
(0.000414764 -0.0995183 0.000911992)
(0.000685134 -0.113868 0.000947441)
(0.000943213 -0.120296 0.000933729)
(0.00118362 -0.122527 0.000906414)
(0.00141398 -0.122336 0.000877589)
(0.00163193 -0.120329 0.000854738)
(0.00183201 -0.116704 0.000845199)
(0.00201103 -0.111528 0.000856609)
(0.00216704 -0.104868 0.000896126)
(0.00229943 -0.0968437 0.000969238)
(0.00240941 -0.087643 0.00107843)
(0.00249989 -0.0774972 0.00122259)
(0.00257485 -0.0666433 0.00139682)
(0.00263845 -0.0552938 0.00159242)
(0.00269432 -0.0436236 0.00179667)
(0.00274468 -0.0317711 0.00199251)
(0.00278957 -0.0198518 0.00215851)
(0.00282607 -0.00798124 0.00226965)
(0.00284785 0.00369784 0.00230049)
(0.00284632 0.0150211 0.00223158)
(0.00281219 0.0258784 0.00205713)
(0.00273785 0.0362965 0.00178798)
(0.00261813 0.046471 0.0014489)
(0.00245019 0.0567534 0.00107319)
(0.00223323 0.0675785 0.000698144)
(0.00196911 0.0793061 0.000361924)
(0.00166355 0.0919314 9.9036e-05)