/*--------------------------------*- C++ -*----------------------------------*\
| =========                 |                                                 |
| \\      /  F ield         | OpenFOAM: The Open Source CFD Toolbox           |
|  \\    /   O peration     | Version:  v2006                                 |
|   \\  /    A nd           | Website:  www.openfoam.com                      |
|    \\/     M anipulation  |                                                 |
\*---------------------------------------------------------------------------*/
FoamFile
{
    version     2.0;
    format      ascii;
    class       volScalarField;
    location    "40";
    object      nut;
}
// * * * * * * * * * * * * * * * * * * * * * * * * * * * * * * * * * * * * * //

dimensions      [0 2 -1 0 0 0 0];


internalField   nonuniform List<scalar> 
78750
(
2.89087e-08
9.91702e-07
1.08046e-06
1.11141e-06
1.10836e-06
1.08374e-06
1.04816e-06
1.00939e-06
9.72107e-07
9.3875e-07
9.10278e-07
8.86821e-07
8.67979e-07
8.53015e-07
8.41014e-07
8.30983e-07
8.21936e-07
8.12959e-07
8.03241e-07
7.9209e-07
7.78935e-07
7.63311e-07
7.44856e-07
7.23292e-07
6.98386e-07
6.69856e-07
6.37499e-07
6.00394e-07
5.56638e-07
5.02575e-07
4.32815e-07
3.44437e-07
2.45245e-07
1.52996e-07
3.16069e-09
2.4188e-09
1.69948e-06
3.98908e-06
6.30308e-06
7.16842e-06
7.68585e-06
7.96454e-06
8.09853e-06
8.15463e-06
8.17228e-06
8.17106e-06
8.15893e-06
8.13776e-06
8.10661e-06
8.06349e-06
8.0063e-06
7.93329e-06
7.84324e-06
7.73535e-06
7.60906e-06
7.46369e-06
7.29824e-06
7.11132e-06
6.90108e-06
6.66505e-06
6.39933e-06
6.09829e-06
5.75249e-06
5.34792e-06
4.86757e-06
3.47608e-06
2.07274e-06
1.59031e-06
1.64582e-06
1.22606e-08
3.88084e-09
2.63051e-06
4.26575e-06
5.40896e-06
6.13346e-06
6.57201e-06
6.85594e-06
7.0776e-06
7.28538e-06
7.50112e-06
7.72698e-06
7.95667e-06
8.18077e-06
8.38951e-06
8.57403e-06
8.72695e-06
8.84242e-06
8.9161e-06
8.94489e-06
8.92678e-06
8.86068e-06
8.74631e-06
8.58422e-06
8.37587e-06
8.12352e-06
7.82949e-06
7.49431e-06
7.11529e-06
6.1654e-06
4.25742e-06
2.93163e-06
2.25319e-06
2.46005e-06
1.76196e-06
1.97307e-08
2.04544e-09
1.54705e-06
2.60849e-06
3.40459e-06
3.94185e-06
4.28527e-06
4.53644e-06
4.80236e-06
5.15851e-06
5.61792e-06
6.15329e-06
6.72794e-06
7.30699e-06
7.86169e-06
8.37044e-06
8.81816e-06
9.19515e-06
9.49572e-06
9.71702e-06
9.85808e-06
9.91905e-06
9.90077e-06
9.80468e-06
9.63314e-06
9.39041e-06
9.08446e-06
8.06214e-06
6.42293e-06
4.92107e-06
3.68239e-06
2.80336e-06
2.41287e-06
3.06975e-06
1.88591e-06
2.57566e-08
9.00013e-10
8.84146e-07
1.56902e-06
2.14545e-06
2.61518e-06
3.01667e-06
3.41603e-06
3.88122e-06
4.44954e-06
5.11891e-06
5.86037e-06
6.63381e-06
7.39918e-06
8.12263e-06
8.77886e-06
9.35091e-06
9.82891e-06
1.02082e-05
1.04875e-05
1.06675e-05
1.07496e-05
1.07355e-05
1.06265e-05
1.04251e-05
1.01367e-05
8.48579e-06
6.5635e-06
5.00658e-06
3.83033e-06
3.00359e-06
2.5165e-06
2.49606e-06
3.87335e-06
1.75339e-06
3.32392e-08
4.71541e-10
6.03173e-07
1.12724e-06
1.64146e-06
2.16702e-06
2.73603e-06
3.38021e-06
4.02963e-06
4.77266e-06
5.84054e-06
6.74793e-06
7.6353e-06
8.47021e-06
9.22787e-06
9.89173e-06
1.04526e-05
1.09072e-05
1.12561e-05
1.15023e-05
1.16495e-05
1.17011e-05
1.16596e-05
1.15258e-05
1.13002e-05
1.09847e-05
8.74585e-06
6.5483e-06
4.81978e-06
3.57394e-06
2.7625e-06
2.34422e-06
2.43921e-06
4.18388e-06
1.78723e-06
3.90893e-08
5.78079e-10
7.30972e-07
1.4173e-06
2.16497e-06
2.993e-06
3.75171e-06
4.50795e-06
5.51113e-06
6.87522e-06
8.05512e-06
9.01112e-06
9.87849e-06
1.06409e-05
1.12891e-05
1.182e-05
1.22346e-05
1.2537e-05
1.2733e-05
1.28287e-05
1.28299e-05
1.27412e-05
1.25658e-05
1.23056e-05
1.19625e-05
1.07098e-05
8.18951e-06
6.02979e-06
4.38475e-06
3.2459e-06
2.54821e-06
2.24878e-06
2.51088e-06
4.79406e-06
1.72121e-06
4.57314e-08
9.82915e-10
8.99548e-07
1.85445e-06
2.81855e-06
3.81074e-06
4.93412e-06
6.33314e-06
8.08903e-06
9.18517e-06
1.01823e-05
1.10676e-05
1.18337e-05
1.24786e-05
1.30038e-05
1.34138e-05
1.37143e-05
1.39119e-05
1.4013e-05
1.40234e-05
1.3948e-05
1.37895e-05
1.35496e-05
1.32283e-05
1.2826e-05
1.0743e-05
8.14145e-06
5.94108e-06
4.26619e-06
3.12163e-06
2.43807e-06
2.17116e-06
2.50788e-06
5.12888e-06
1.71213e-06
5.11994e-08
1.59525e-09
9.21036e-07
1.95361e-06
3.14367e-06
4.52488e-06
6.21079e-06
8.30875e-06
9.88937e-06
1.09831e-05
1.1949e-05
1.27825e-05
1.34828e-05
1.40524e-05
1.44959e-05
1.48196e-05
1.50308e-05
1.51371e-05
1.51459e-05
1.50638e-05
1.48964e-05
1.46474e-05
1.43193e-05
1.39136e-05
1.27175e-05
1.00599e-05
7.56995e-06
5.51214e-06
3.97245e-06
2.94227e-06
2.34777e-06
2.15896e-06
2.61854e-06
5.63507e-06
1.67552e-06
5.69453e-08
2.33543e-09
9.58352e-07
2.08878e-06
3.50867e-06
5.27549e-06
7.50141e-06
1.0203e-05
1.16906e-05
1.28101e-05
1.3772e-05
1.45776e-05
1.52313e-05
1.57403e-05
1.61132e-05
1.63599e-05
1.64904e-05
1.65148e-05
1.64422e-05
1.62804e-05
1.60356e-05
1.5712e-05
1.53121e-05
1.48375e-05
1.26637e-05
9.98027e-06
7.49426e-06
5.42033e-06
3.8759e-06
2.85718e-06
2.28548e-06
2.13179e-06
2.6695e-06
5.94979e-06
1.6637e-06
6.22773e-08
3.21704e-09
1.03464e-06
2.29497e-06
3.95784e-06
6.10383e-06
8.8307e-06
1.20425e-05
1.35563e-05
1.46674e-05
1.55938e-05
1.63439e-05
1.69278e-05
1.73573e-05
1.76446e-05
1.78021e-05
1.78418e-05
1.7775e-05
1.76117e-05
1.73606e-05
1.70283e-05
1.66202e-05
1.61401e-05
1.44834e-05
1.19819e-05
9.43917e-06
7.10555e-06
5.16258e-06
3.72744e-06
2.7854e-06
2.26717e-06
2.16444e-06
2.80561e-06
6.30007e-06
1.64718e-06
6.77831e-08
4.12945e-09
1.11528e-06
2.4924e-06
4.34809e-06
6.77305e-06
9.83355e-06
1.33473e-05
1.52056e-05
1.63097e-05
1.72141e-05
1.79309e-05
1.8473e-05
1.88543e-05
1.90883e-05
1.91886e-05
1.91682e-05
1.90388e-05
1.88111e-05
1.84943e-05
1.8096e-05
1.76221e-05
1.62837e-05
1.40778e-05
1.16466e-05
9.19486e-06
6.92007e-06
5.02261e-06
3.63141e-06
2.7279e-06
2.24427e-06
2.18226e-06
2.91232e-06
6.52754e-06
1.64119e-06
7.31424e-08
5.03785e-09
1.17132e-06
2.62065e-06
4.59498e-06
7.20336e-06
1.05087e-05
1.43058e-05
1.69117e-05
1.80342e-05
1.89364e-05
1.96329e-05
2.01394e-05
2.0472e-05
2.0647e-05
2.06798e-05
2.05854e-05
2.03771e-05
2.0067e-05
1.96655e-05
1.90888e-05
1.74562e-05
1.55448e-05
1.34209e-05
1.1135e-05
8.81567e-06
6.65707e-06
4.86221e-06
3.55202e-06
2.70239e-06
2.25658e-06
2.23609e-06
3.06341e-06
6.69943e-06
1.63738e-06
7.87392e-08
6.05754e-09
1.22637e-06
2.74713e-06
4.84671e-06
7.66422e-06
1.12611e-05
1.53792e-05
1.87558e-05
1.98742e-05
2.075e-05
2.14029e-05
2.18527e-05
2.21196e-05
2.22227e-05
2.21799e-05
2.20077e-05
2.17205e-05
2.13319e-05
2.01186e-05
1.86146e-05
1.69558e-05
1.5113e-05
1.30609e-05
1.08386e-05
8.57505e-06
6.47101e-06
4.73542e-06
3.48056e-06
2.67505e-06
2.26558e-06
2.28774e-06
3.21274e-06
6.80353e-06
1.63811e-06
8.43123e-08
7.19919e-09
1.28742e-06
2.88155e-06
5.10307e-06
8.11992e-06
1.19858e-05
1.63747e-05
2.04766e-05
2.16936e-05
2.25309e-05
2.3133e-05
2.35235e-05
2.37245e-05
2.3757e-05
2.36396e-05
2.33898e-05
2.22221e-05
2.08203e-05
1.93789e-05
1.78844e-05
1.62763e-05
1.44959e-05
1.25198e-05
1.03897e-05
8.23049e-06
6.23472e-06
4.60082e-06
3.42168e-06
2.66599e-06
2.29275e-06
2.35829e-06
3.38827e-06
6.84865e-06
1.64096e-06
8.99415e-08
8.4858e-09
1.3465e-06
3.00654e-06
5.33527e-06
8.5271e-06
1.26228e-05
1.71892e-05
2.13451e-05
2.34814e-05
2.42823e-05
2.48404e-05
2.5181e-05
2.53275e-05
2.53011e-05
2.4441e-05
2.30563e-05
2.16267e-05
2.02158e-05
1.88073e-05
1.73489e-05
1.57747e-05
1.40275e-05
1.20867e-05
1.00014e-05
7.90504e-06
5.99194e-06
4.4507e-06
3.34926e-06
2.64989e-06
2.31877e-06
2.4323e-06
3.57278e-06
6.84695e-06
1.64616e-06
9.54408e-08
9.81253e-09
1.39175e-06
3.09702e-06
5.50122e-06
8.82696e-06
1.31157e-05
1.78532e-05
2.20856e-05
2.51479e-05
2.59917e-05
2.65159e-05
2.68165e-05
2.66464e-05
2.54543e-05
2.40407e-05
2.25658e-05
2.11037e-05
1.9678e-05
1.82673e-05
1.68184e-05
1.52648e-05
1.35472e-05
1.16454e-05
9.61155e-06
7.58361e-06
5.75577e-06
4.30676e-06
3.28127e-06
2.63794e-06
2.35044e-06
2.51555e-06
3.77433e-06
6.80375e-06
1.65298e-06
1.00946e-07
1.13202e-08
1.43361e-06
3.18164e-06
5.66328e-06
9.13174e-06
1.36224e-05
1.85204e-05
2.27627e-05
2.57144e-05
2.7341e-05
2.78466e-05
2.7494e-05
2.65477e-05
2.52433e-05
2.37646e-05
2.22398e-05
2.07421e-05
1.92921e-05
1.78653e-05
1.64091e-05
1.48572e-05
1.31502e-05
1.12686e-05
9.2684e-06
7.29245e-06
5.536e-06
4.16844e-06
3.21343e-06
2.62486e-06
2.38188e-06
2.60086e-06
3.98251e-06
6.74022e-06
1.66153e-06
1.06347e-07
1.28778e-08
1.46557e-06
3.24382e-06
5.78518e-06
9.37427e-06
1.40461e-05
1.90949e-05
2.33592e-05
2.62164e-05
2.76961e-05
2.80526e-05
2.75721e-05
2.65235e-05
2.51393e-05
2.35994e-05
2.20273e-05
2.04905e-05
1.90039e-05
1.7542e-05
1.60562e-05
1.44846e-05
1.27716e-05
1.09013e-05
8.93246e-06
7.00906e-06
5.3238e-06
4.03499e-06
3.14772e-06
2.61308e-06
2.41602e-06
2.69286e-06
4.20619e-06
6.65621e-06
1.67083e-06
1.11684e-07
1.45995e-08
1.49019e-06
3.29367e-06
5.89719e-06
9.62214e-06
1.44965e-05
1.96984e-05
2.39672e-05
2.67209e-05
2.80598e-05
2.8282e-05
2.76939e-05
2.65705e-05
2.51401e-05
2.35744e-05
2.19858e-05
2.04298e-05
1.89138e-05
1.74121e-05
1.588e-05
1.42623e-05
1.25116e-05
1.06208e-05
8.65641e-06
6.76555e-06
5.13692e-06
3.91533e-06
3.08813e-06
2.60294e-06
2.44991e-06
2.78504e-06
4.43311e-06
6.57043e-06
1.68132e-06
1.16876e-07
1.63783e-08
1.50661e-06
3.33029e-06
5.99569e-06
9.86345e-06
1.49528e-05
2.03162e-05
2.45947e-05
2.72542e-05
2.84654e-05
2.85655e-05
2.78808e-05
2.66938e-05
2.52302e-05
2.36522e-05
2.20592e-05
2.04926e-05
1.89511e-05
1.74072e-05
1.58193e-05
1.41389e-05
1.23293e-05
1.03961e-05
8.41725e-06
6.54499e-06
4.96396e-06
3.80339e-06
3.03285e-06
2.59598e-06
2.48779e-06
2.88471e-06
4.67652e-06
6.47532e-06
1.69189e-06
1.21925e-07
1.83417e-08
1.52215e-06
3.37026e-06
6.11167e-06
1.01465e-05
1.54654e-05
2.09631e-05
2.52016e-05
2.77322e-05
2.88044e-05
2.87902e-05
2.80294e-05
2.68062e-05
2.53394e-05
2.3779e-05
2.22085e-05
2.06546e-05
1.91071e-05
1.75338e-05
1.58933e-05
1.4143e-05
1.22582e-05
1.02613e-05
8.24594e-06
6.37267e-06
4.82272e-06
3.70969e-06
2.98653e-06
2.59238e-06
2.52636e-06
2.98513e-06
4.92351e-06
6.38566e-06
1.70308e-06
1.2677e-07
2.03698e-08
1.53605e-06
3.40949e-06
6.23012e-06
1.04346e-05
1.5973e-05
2.1575e-05
2.57475e-05
2.81405e-05
2.90766e-05
2.89572e-05
2.81327e-05
2.68864e-05
2.54296e-05
2.38999e-05
2.23651e-05
2.08389e-05
1.93023e-05
1.77167e-05
1.60363e-05
1.42204e-05
1.22553e-05
1.01823e-05
8.11551e-06
6.22784e-06
4.69932e-06
3.62706e-06
2.9474e-06
2.59434e-06
2.57078e-06
3.09456e-06
5.18797e-06
6.29159e-06
1.71386e-06
1.31403e-07
2.25661e-08
1.55181e-06
3.45495e-06
6.36422e-06
1.07509e-05
1.65022e-05
2.21645e-05
2.6225e-05
2.84587e-05
2.92581e-05
2.90467e-05
2.81783e-05
2.69303e-05
2.55022e-05
2.40181e-05
2.25314e-05
2.1045e-05
1.9533e-05
1.79499e-05
1.62444e-05
1.43739e-05
1.23321e-05
1.01781e-05
8.04833e-06
6.13115e-06
4.60836e-06
3.56322e-06
2.91758e-06
2.60017e-06
2.61687e-06
3.20647e-06
5.45809e-06
6.20466e-06
1.72484e-06
1.35783e-07
2.48171e-08
1.56743e-06
3.50124e-06
6.5011e-06
1.10703e-05
1.70217e-05
2.27195e-05
2.66582e-05
2.87386e-05
2.94128e-05
2.91215e-05
2.822e-05
2.6978e-05
2.55831e-05
2.41445e-05
2.27036e-05
2.12564e-05
1.9771e-05
1.81952e-05
1.64715e-05
1.45544e-05
1.24422e-05
1.02094e-05
8.01434e-06
6.0623e-06
4.53877e-06
3.51395e-06
2.89715e-06
2.61252e-06
2.66904e-06
3.32728e-06
5.74347e-06
6.11669e-06
1.73519e-06
1.39895e-07
2.72125e-08
1.58475e-06
3.55249e-06
6.65038e-06
1.14127e-05
1.75596e-05
2.32662e-05
2.70661e-05
2.89925e-05
2.95496e-05
2.91903e-05
2.82678e-05
2.70425e-05
2.56886e-05
2.43003e-05
2.29076e-05
2.15004e-05
2.00421e-05
1.84748e-05
1.67356e-05
1.47762e-05
1.25986e-05
1.02901e-05
8.0286e-06
6.03532e-06
4.5006e-06
3.4845e-06
2.88708e-06
2.62921e-06
2.72294e-06
3.45037e-06
6.03184e-06
6.03846e-06
1.74577e-06
1.4374e-07
2.96381e-08
1.60177e-06
3.60391e-06
6.80111e-06
1.17565e-05
1.80876e-05
2.37886e-05
2.74517e-05
2.92344e-05
2.96844e-05
2.92645e-05
2.8326e-05
2.712e-05
2.58084e-05
2.44711e-05
2.31273e-05
2.17611e-05
2.03304e-05
1.87719e-05
1.70173e-05
1.50159e-05
1.27739e-05
1.03922e-05
8.06683e-06
6.03329e-06
4.48571e-06
3.47342e-06
2.88956e-06
2.65367e-06
2.78213e-06
3.57943e-06
6.32648e-06
5.96508e-06
1.75603e-06
1.47335e-07
3.21702e-08
1.6201e-06
3.65895e-06
6.96042e-06
1.21139e-05
1.86175e-05
2.42885e-05
2.78047e-05
2.94455e-05
2.9795e-05
2.93224e-05
2.83749e-05
2.71941e-05
2.59296e-05
2.46478e-05
2.33579e-05
2.20385e-05
2.06415e-05
1.90974e-05
1.73323e-05
1.52925e-05
1.29885e-05
1.05343e-05
8.14394e-06
6.06645e-06
4.49965e-06
3.48309e-06
2.90486e-06
2.68447e-06
2.84341e-06
3.70855e-06
6.61573e-06
5.90552e-06
1.76687e-06
1.50734e-07
3.47113e-08
1.63831e-06
3.71394e-06
7.11884e-06
1.24644e-05
1.91209e-05
2.47463e-05
2.81188e-05
2.96274e-05
2.98848e-05
2.93651e-05
2.84112e-05
2.72561e-05
2.60377e-05
2.48111e-05
2.35776e-05
2.23093e-05
2.09518e-05
1.9428e-05
1.76572e-05
1.55823e-05
1.32178e-05
1.06925e-05
8.23929e-06
6.12017e-06
4.5353e-06
3.51247e-06
2.9356e-06
2.72567e-06
2.91093e-06
3.84166e-06
6.90333e-06
5.85576e-06
1.77788e-06
1.53973e-07
3.73281e-08
1.65725e-06
3.7705e-06
7.27991e-06
1.28152e-05
1.96079e-05
2.51702e-05
2.83976e-05
2.97797e-05
2.99521e-05
2.93908e-05
2.84342e-05
2.73062e-05
2.61339e-05
2.49627e-05
2.37881e-05
2.25761e-05
2.12654e-05
1.97707e-05
1.80031e-05
1.58996e-05
1.34774e-05
1.08796e-05
8.36012e-06
6.19607e-06
4.5906e-06
3.55891e-06
2.98009e-06
2.77645e-06
2.98386e-06
3.97684e-06
7.18537e-06
5.8188e-06
1.78945e-06
1.57074e-07
3.99406e-08
1.67573e-06
3.82592e-06
7.43732e-06
1.31539e-05
2.00649e-05
2.55565e-05
2.86468e-05
2.99127e-05
3.00074e-05
2.9408e-05
2.84483e-05
2.73451e-05
2.62157e-05
2.50976e-05
2.39812e-05
2.28271e-05
2.15672e-05
2.01079e-05
1.83504e-05
1.62241e-05
1.3747e-05
1.10763e-05
8.4889e-06
6.27978e-06
4.65581e-06
3.6175e-06
3.03785e-06
2.8398e-06
3.0676e-06
4.12204e-06
7.47469e-06
5.7886e-06
1.80086e-06
1.59986e-07
4.26088e-08
1.69462e-06
3.88206e-06
7.59521e-06
1.34891e-05
2.05036e-05
2.59146e-05
2.88709e-05
3.0027e-05
3.00491e-05
2.94144e-05
2.8452e-05
2.73723e-05
2.62837e-05
2.52173e-05
2.41593e-05
2.30657e-05
2.18621e-05
2.04459e-05
1.87079e-05
1.65672e-05
1.40392e-05
1.12934e-05
8.63124e-06
6.37038e-06
4.72489e-06
3.68074e-06
3.10294e-06
2.91269e-06
3.16214e-06
4.28113e-06
7.78191e-06
5.76731e-06
1.81246e-06
1.62629e-07
4.52504e-08
1.71285e-06
3.93631e-06
7.74764e-06
1.38101e-05
2.09142e-05
2.62429e-05
2.90736e-05
3.01274e-05
3.00805e-05
2.94101e-05
2.84424e-05
2.73823e-05
2.63308e-05
2.53131e-05
2.43121e-05
2.32799e-05
2.21359e-05
2.07692e-05
1.90594e-05
1.69144e-05
1.43435e-05
1.1525e-05
8.7841e-06
6.46488e-06
4.79359e-06
3.74343e-06
3.17117e-06
2.99391e-06
3.27056e-06
4.46273e-06
8.11761e-06
5.74791e-06
1.82392e-06
1.64897e-07
4.79026e-08
1.73105e-06
3.98997e-06
7.89802e-06
1.41257e-05
2.13108e-05
2.65541e-05
2.92624e-05
3.02157e-05
3.00991e-05
2.93906e-05
2.84142e-05
2.73705e-05
2.63532e-05
2.53823e-05
2.44382e-05
2.34691e-05
2.23893e-05
2.10798e-05
1.94099e-05
1.72746e-05
1.4674e-05
1.1789e-05
8.96557e-06
6.57656e-06
4.8672e-06
3.80369e-06
3.23655e-06
3.07693e-06
3.38814e-06
4.66431e-06
8.47552e-06
5.731e-06
1.8354e-06
1.66751e-07
5.04813e-08
1.74836e-06
4.04066e-06
8.04094e-06
1.44269e-05
2.16864e-05
2.68483e-05
2.94401e-05
3.02918e-05
3.01004e-05
2.93474e-05
2.83568e-05
2.73251e-05
2.63387e-05
2.54125e-05
2.45242e-05
2.36191e-05
2.26068e-05
2.13616e-05
1.97438e-05
1.76363e-05
1.50271e-05
1.20927e-05
9.19127e-06
6.72325e-06
4.95972e-06
3.86819e-06
3.29884e-06
3.15756e-06
3.50964e-06
4.88022e-06
8.84261e-06
5.7183e-06
1.84729e-06
1.68285e-07
5.30081e-08
1.76511e-06
4.08885e-06
8.17808e-06
1.47192e-05
2.20493e-05
2.71285e-05
2.96012e-05
3.03487e-05
3.00737e-05
2.92697e-05
2.82609e-05
2.7239e-05
2.62831e-05
2.54018e-05
2.45698e-05
2.37303e-05
2.27892e-05
2.16154e-05
2.00618e-05
1.80018e-05
1.541e-05
1.24514e-05
9.4852e-06
6.93253e-06
5.09467e-06
3.95137e-06
3.36202e-06
3.2311e-06
3.62413e-06
5.09208e-06
9.19163e-06
5.71959e-06
1.86091e-06
1.69743e-07
5.54183e-08
1.78034e-06
4.1322e-06
8.30401e-06
1.499e-05
2.23788e-05
2.73633e-05
2.97146e-05
3.03578e-05
3.00019e-05
2.91468e-05
2.81195e-05
2.7105e-05
2.61752e-05
2.5337e-05
2.4563e-05
2.37925e-05
2.29271e-05
2.18305e-05
2.03514e-05
1.83559e-05
1.58077e-05
1.28569e-05
9.85176e-06
7.22168e-06
5.29582e-06
4.0747e-06
3.43896e-06
3.29968e-06
3.72382e-06
5.28226e-06
9.49914e-06
5.74104e-06
1.87716e-06
1.71441e-07
5.7795e-08
1.79486e-06
4.17322e-06
8.42576e-06
1.52536e-05
2.26882e-05
2.7567e-05
2.97914e-05
3.03288e-05
2.98956e-05
2.89878e-05
2.79402e-05
2.69325e-05
2.60296e-05
2.52344e-05
2.45157e-05
2.381e-05
2.3018e-05
2.20027e-05
2.06083e-05
1.86915e-05
1.62073e-05
1.32933e-05
1.0281e-05
7.59406e-06
5.57904e-06
4.25943e-06
3.54777e-06
3.37217e-06
3.80542e-06
5.43263e-06
9.74915e-06
5.78907e-06
1.89674e-06
1.73647e-07
6.01256e-08
1.80808e-06
4.21109e-06
8.54306e-06
1.55086e-05
2.29678e-05
2.77324e-05
2.98275e-05
3.02573e-05
2.97459e-05
2.87869e-05
2.77198e-05
2.67182e-05
2.58401e-05
2.50856e-05
2.44218e-05
2.37834e-05
2.30683e-05
2.21349e-05
2.08223e-05
1.89864e-05
1.65777e-05
1.37211e-05
1.07335e-05
8.02439e-06
5.93969e-06
4.5178e-06
3.70842e-06
3.46717e-06
3.88021e-06
5.54492e-06
9.94904e-06
5.86171e-06
1.91918e-06
1.76459e-07
6.25172e-08
1.82079e-06
4.2484e-06
8.66104e-06
1.57613e-05
2.32276e-05
2.78655e-05
2.98269e-05
3.01494e-05
2.95631e-05
2.85588e-05
2.74747e-05
2.64792e-05
2.56249e-05
2.4909e-05
2.42963e-05
2.372e-05
2.30776e-05
2.22251e-05
2.09957e-05
1.92365e-05
1.68938e-05
1.40973e-05
1.11578e-05
8.4662e-06
6.34857e-06
4.84339e-06
3.9322e-06
3.60448e-06
3.96881e-06
5.63863e-06
1.01222e-05
5.95379e-06
1.94347e-06
1.79754e-07
6.49745e-08
1.83288e-06
4.28491e-06
8.77706e-06
1.60029e-05
2.34593e-05
2.7964e-05
2.97921e-05
3.00097e-05
2.93514e-05
2.8307e-05
2.72052e-05
2.62133e-05
2.53799e-05
2.46996e-05
2.41347e-05
2.36174e-05
2.30442e-05
2.22687e-05
2.11174e-05
1.94277e-05
1.71399e-05
1.4389e-05
1.14979e-05
8.8561e-06
6.75119e-06
5.20485e-06
4.21383e-06
3.79938e-06
4.10104e-06
5.75894e-06
1.03177e-05
6.05095e-06
1.96753e-06
1.8314e-07
6.75696e-08
1.84552e-06
4.32407e-06
8.89892e-06
1.6246e-05
2.36755e-05
2.80371e-05
2.97294e-05
2.98418e-05
2.91122e-05
2.80287e-05
2.69114e-05
2.59248e-05
2.51125e-05
2.44656e-05
2.39438e-05
2.34787e-05
2.29674e-05
2.22619e-05
2.1182e-05
1.95522e-05
1.73039e-05
1.45801e-05
1.17274e-05
9.14643e-06
7.0909e-06
5.55437e-06
4.52726e-06
4.05065e-06
4.29894e-06
5.95434e-06
1.05929e-05
6.13837e-06
1.98959e-06
1.86106e-07
7.02505e-08
1.85827e-06
4.36429e-06
9.02146e-06
1.6479e-05
2.38655e-05
2.80798e-05
2.96373e-05
2.96464e-05
2.88474e-05
2.77264e-05
2.65941e-05
2.56117e-05
2.48184e-05
2.42009e-05
2.37162e-05
2.3296e-05
2.28391e-05
2.21978e-05
2.11851e-05
1.96106e-05
1.73908e-05
1.46746e-05
1.18402e-05
9.31637e-06
7.32936e-06
5.84649e-06
4.83558e-06
4.34155e-06
4.57114e-06
6.2648e-06
1.0994e-05
6.20152e-06
2.0085e-06
1.88197e-07
7.29873e-08
1.87146e-06
4.40652e-06
9.14889e-06
1.67075e-05
2.40393e-05
2.81019e-05
2.95228e-05
2.94269e-05
2.85579e-05
2.73998e-05
2.6252e-05
2.5273e-05
2.44968e-05
2.39038e-05
2.34481e-05
2.30628e-05
2.26512e-05
2.20687e-05
2.11245e-05
1.96115e-05
1.74243e-05
1.47081e-05
1.18717e-05
9.38448e-06
7.46105e-06
6.05539e-06
5.10702e-06
4.64684e-06
4.91018e-06
6.70727e-06
1.15261e-05
6.23691e-06
2.02461e-06
1.89228e-07
7.56671e-08
1.88414e-06
4.44697e-06
9.2706e-06
1.69203e-05
2.41886e-05
2.80983e-05
2.9382e-05
2.91801e-05
2.82401e-05
2.70447e-05
2.58821e-05
2.49056e-05
2.41425e-05
2.35667e-05
2.313e-05
2.27687e-05
2.23929e-05
2.18654e-05
2.09964e-05
1.95644e-05
1.74349e-05
1.47332e-05
1.18863e-05
9.4081e-06
7.52041e-06
6.18638e-06
5.32551e-06
4.94567e-06
5.29714e-06
7.26556e-06
1.21319e-05
6.25159e-06
2.03937e-06
1.89422e-07
7.82429e-08
1.89609e-06
4.48485e-06
9.38597e-06
1.71219e-05
2.43219e-05
2.80771e-05
2.92216e-05
2.89117e-05
2.79002e-05
2.66679e-05
2.54907e-05
2.45152e-05
2.37607e-05
2.31943e-05
2.2766e-05
2.24166e-05
2.20662e-05
2.159e-05
2.0806e-05
1.94841e-05
1.74567e-05
1.48087e-05
1.19607e-05
9.46427e-06
7.5672e-06
6.26992e-06
5.49119e-06
5.21788e-06
5.70575e-06
7.89746e-06
1.27293e-05
6.26855e-06
2.05625e-06
1.89465e-07
8.06614e-08
1.90737e-06
4.52043e-06
9.49532e-06
1.73113e-05
2.44385e-05
2.80385e-05
2.90423e-05
2.86236e-05
2.75414e-05
2.62737e-05
2.50835e-05
2.41082e-05
2.33583e-05
2.27938e-05
2.23633e-05
2.20137e-05
2.16783e-05
2.12491e-05
2.05594e-05
1.93789e-05
1.75086e-05
1.49745e-05
1.21583e-05
9.62694e-06
7.67008e-06
6.353e-06
5.61911e-06
5.44636e-06
6.09075e-06
8.52936e-06
1.32533e-05
6.30785e-06
2.07794e-06
1.90081e-07
8.29506e-08
1.91782e-06
4.55311e-06
9.59874e-06
1.74916e-05
2.45433e-05
2.79879e-05
2.88517e-05
2.83263e-05
2.71766e-05
2.58769e-05
2.46768e-05
2.37007e-05
2.29509e-05
2.23804e-05
2.19368e-05
2.15743e-05
2.12417e-05
2.08521e-05
2.026e-05
1.92447e-05
1.75831e-05
1.52349e-05
1.25092e-05
9.94569e-06
7.88715e-06
6.48629e-06
5.73716e-06
5.6279e-06
6.4157e-06
9.08307e-06
1.36833e-05
6.37562e-06
2.1047e-06
1.91669e-07
8.51323e-08
1.9273e-06
4.58336e-06
9.6981e-06
1.76649e-05
2.46379e-05
2.79282e-05
2.86547e-05
2.80268e-05
2.68147e-05
2.54874e-05
2.42802e-05
2.33038e-05
2.25511e-05
2.19676e-05
2.15e-05
2.11113e-05
2.07676e-05
2.04059e-05
1.99067e-05
1.9066e-05
1.76485e-05
1.5551e-05
1.29889e-05
1.04256e-05
8.25043e-06
6.71412e-06
5.88388e-06
5.77874e-06
6.66445e-06
9.51502e-06
1.4034e-05
6.46564e-06
2.13472e-06
1.942e-07
8.72952e-08
1.93652e-06
4.61336e-06
9.7986e-06
1.78392e-05
2.47295e-05
2.78661e-05
2.8459e-05
2.77341e-05
2.64653e-05
2.51147e-05
2.3903e-05
2.29268e-05
2.21684e-05
2.1565e-05
2.10622e-05
2.06321e-05
2.02605e-05
1.99108e-05
1.94915e-05
1.88211e-05
1.76624e-05
1.58619e-05
1.35341e-05
1.10289e-05
8.75636e-06
7.06034e-06
6.09592e-06
5.93124e-06
6.85143e-06
9.82594e-06
1.43322e-05
6.56699e-06
2.16531e-06
1.97361e-07
8.94658e-08
1.9453e-06
4.64294e-06
9.9e-06
1.80132e-05
2.48169e-05
2.78015e-05
2.8266e-05
2.74506e-05
2.61311e-05
2.47616e-05
2.35483e-05
2.25731e-05
2.1807e-05
2.11773e-05
2.06277e-05
2.01397e-05
1.97207e-05
1.93626e-05
1.90042e-05
1.8489e-05
1.75865e-05
1.6107e-05
1.40694e-05
1.16916e-05
9.37064e-06
7.52386e-06
6.39848e-06
6.12514e-06
7.01967e-06
1.00602e-05
1.4606e-05
6.66627e-06
2.19355e-06
2.00674e-07
9.16913e-08
1.95417e-06
4.67386e-06
1.00065e-05
1.81935e-05
2.49062e-05
2.77403e-05
2.80813e-05
2.71815e-05
2.58167e-05
2.4432e-05
2.32194e-05
2.22464e-05
2.14708e-05
2.08089e-05
2.02006e-05
1.96371e-05
1.91488e-05
1.87587e-05
1.84378e-05
1.80567e-05
1.73968e-05
1.62443e-05
1.45303e-05
1.23425e-05
1.00376e-05
8.0782e-06
6.79588e-06
6.39161e-06
7.22395e-06
1.02929e-05
1.48886e-05
6.75562e-06
2.21809e-06
2.03649e-07
9.39556e-08
1.96308e-06
4.70588e-06
1.01168e-05
1.83769e-05
2.49946e-05
2.76807e-05
2.79036e-05
2.69254e-05
2.55205e-05
2.41243e-05
2.29153e-05
2.19463e-05
2.11609e-05
2.04627e-05
1.97858e-05
1.91299e-05
1.85495e-05
1.8102e-05
1.7793e-05
1.75215e-05
1.70853e-05
1.62553e-05
1.4877e-05
1.29258e-05
1.07023e-05
8.68553e-06
7.27548e-06
6.74555e-06
7.50823e-06
1.05956e-05
1.5204e-05
6.83146e-06
2.23887e-06
2.05967e-07
9.62583e-08
1.97229e-06
4.73965e-06
1.02321e-05
1.85655e-05
2.50848e-05
2.76255e-05
2.77355e-05
2.66845e-05
2.52443e-05
2.38402e-05
2.26374e-05
2.16747e-05
2.08806e-05
2.01441e-05
1.93912e-05
1.86277e-05
1.79335e-05
1.74027e-05
1.70783e-05
1.68902e-05
1.66549e-05
1.61337e-05
1.50881e-05
1.34035e-05
1.13193e-05
9.30763e-06
7.81714e-06
7.18994e-06
7.90183e-06
1.10222e-05
1.55693e-05
6.89806e-06
2.25747e-06
2.07553e-07
9.85458e-08
1.9816e-06
4.7744e-06
1.03499e-05
1.87546e-05
2.51732e-05
2.75723e-05
2.7575e-05
2.64568e-05
2.49861e-05
2.35777e-05
2.23844e-05
2.14317e-05
2.06324e-05
1.98596e-05
1.90276e-05
1.81455e-05
1.73178e-05
1.66786e-05
1.63116e-05
1.61793e-05
1.61194e-05
1.5886e-05
1.51614e-05
1.37584e-05
1.18578e-05
9.91095e-06
8.39625e-06
7.71713e-06
8.41909e-06
1.1607e-05
1.59879e-05
6.96016e-06
2.27569e-06
2.08427e-07
1.00791e-07
1.99111e-06
4.81016e-06
1.0469e-05
1.89427e-05
2.52591e-05
2.75212e-05
2.74223e-05
2.62428e-05
2.47465e-05
2.33373e-05
2.21568e-05
2.12182e-05
2.04191e-05
1.96153e-05
1.87063e-05
1.76995e-05
1.67223e-05
1.5951e-05
1.55138e-05
1.54091e-05
1.54974e-05
1.55265e-05
1.51069e-05
1.39911e-05
1.23057e-05
1.04749e-05
8.99258e-06
8.31552e-06
9.06243e-06
1.23611e-05
1.64456e-05
7.02483e-06
2.29572e-06
2.08854e-07
1.02951e-07
2.00056e-06
4.84664e-06
1.05869e-05
1.91254e-05
2.53389e-05
2.74696e-05
2.72759e-05
2.60416e-05
2.45249e-05
2.31187e-05
2.19545e-05
2.1035e-05
2.02434e-05
1.94181e-05
1.84396e-05
1.73081e-05
1.61697e-05
1.52445e-05
1.47096e-05
1.46032e-05
1.48121e-05
1.50765e-05
1.49457e-05
1.41188e-05
1.26709e-05
1.09966e-05
9.59803e-06
8.97806e-06
9.82671e-06
1.32698e-05
1.69267e-05
7.10327e-06
2.32006e-06
2.09226e-07
1.05019e-07
2.00955e-06
4.88223e-06
1.07032e-05
1.93025e-05
2.54126e-05
2.74181e-05
2.7137e-05
2.58548e-05
2.43228e-05
2.29233e-05
2.17788e-05
2.08835e-05
2.01081e-05
1.92741e-05
1.82399e-05
1.69903e-05
1.56841e-05
1.45847e-05
1.39233e-05
1.37834e-05
1.40824e-05
1.45517e-05
1.46947e-05
1.41596e-05
1.29676e-05
1.14811e-05
1.02069e-05
9.69174e-06
1.06949e-05
1.43003e-05
1.74178e-05
7.20347e-06
2.35033e-06
2.09916e-07
1.06981e-07
2.01778e-06
4.91618e-06
1.08158e-05
1.94696e-05
2.54762e-05
2.73639e-05
2.70039e-05
2.5681e-05
2.41394e-05
2.27505e-05
2.16291e-05
2.07635e-05
2.00139e-05
1.91866e-05
1.81155e-05
1.67619e-05
1.52873e-05
1.39965e-05
1.3179e-05
1.297e-05
1.33232e-05
1.39631e-05
1.43638e-05
1.41242e-05
1.3206e-05
1.19355e-05
1.08227e-05
1.04563e-05
1.16534e-05
1.54172e-05
1.79152e-05
7.32865e-06
2.38701e-06
2.11166e-07
1.08869e-07
2.02573e-06
4.94955e-06
1.09255e-05
1.96265e-05
2.55299e-05
2.73084e-05
2.68784e-05
2.55224e-05
2.39765e-05
2.2602e-05
2.15073e-05
2.06763e-05
1.99621e-05
1.91581e-05
1.80728e-05
1.66357e-05
1.49984e-05
1.35014e-05
1.24969e-05
1.21783e-05
1.25425e-05
1.33138e-05
1.39533e-05
1.40125e-05
1.33866e-05
1.23594e-05
1.14423e-05
1.12649e-05
1.26852e-05
1.65852e-05
1.84145e-05
7.47396e-06
2.42894e-06
2.13028e-07
1.10688e-07
2.0331e-06
4.98161e-06
1.10307e-05
1.977e-05
2.55704e-05
2.72482e-05
2.67573e-05
2.53757e-05
2.38311e-05
2.24752e-05
2.14107e-05
2.06195e-05
1.995e-05
1.91869e-05
1.81141e-05
1.66216e-05
1.4836e-05
1.31228e-05
1.18996e-05
1.14261e-05
1.17491e-05
1.26046e-05
1.34566e-05
1.38144e-05
1.35005e-05
1.27459e-05
1.20586e-05
1.21066e-05
1.37742e-05
1.77779e-05
1.89061e-05
7.62989e-06
2.47401e-06
2.15393e-07
1.12443e-07
2.04012e-06
5.01282e-06
1.11313e-05
1.98998e-05
2.55986e-05
2.71844e-05
2.66408e-05
2.52399e-05
2.37011e-05
2.23674e-05
2.13365e-05
2.05893e-05
1.99729e-05
1.92672e-05
1.82355e-05
1.67233e-05
1.48149e-05
1.2884e-05
1.1413e-05
1.07362e-05
1.0958e-05
1.18403e-05
1.28661e-05
1.35139e-05
1.35296e-05
1.30795e-05
1.26592e-05
1.29696e-05
1.49046e-05
1.89722e-05
1.93755e-05
7.78583e-06
2.52034e-06
2.18086e-07
1.14104e-07
2.04664e-06
5.04238e-06
1.12247e-05
2.00122e-05
2.56112e-05
2.71131e-05
2.6524e-05
2.51094e-05
2.35807e-05
2.22729e-05
2.12792e-05
2.05799e-05
2.00232e-05
1.93899e-05
1.84285e-05
1.69395e-05
1.49474e-05
1.281e-05
1.10673e-05
1.01379e-05
1.01924e-05
1.10333e-05
1.21797e-05
1.30954e-05
1.34506e-05
1.33347e-05
1.32203e-05
1.38332e-05
1.60541e-05
2.01414e-05
1.98005e-05
7.93026e-06
2.56573e-06
2.20902e-07
1.15641e-07
2.05263e-06
5.06989e-06
1.13099e-05
2.01076e-05
2.56095e-05
2.70342e-05
2.64047e-05
2.49803e-05
2.34648e-05
2.21861e-05
2.12333e-05
2.05843e-05
2.00919e-05
1.95428e-05
1.86788e-05
1.72603e-05
1.52387e-05
1.29251e-05
1.08987e-05
9.66918e-06
9.48567e-06
1.02062e-05
1.14028e-05
1.25469e-05
1.32426e-05
1.34899e-05
1.37215e-05
1.46741e-05
1.71931e-05
2.1253e-05
2.01623e-05
8.05598e-06
2.60833e-06
2.2371e-07
1.17003e-07
2.05791e-06
5.09447e-06
1.1385e-05
2.01851e-05
2.55931e-05
2.69449e-05
2.62779e-05
2.48459e-05
2.33462e-05
2.20993e-05
2.11901e-05
2.0594e-05
2.01692e-05
1.97119e-05
1.89669e-05
1.76657e-05
1.56822e-05
1.32465e-05
1.09443e-05
9.37644e-06
8.88468e-06
9.39902e-06
1.05578e-05
1.18685e-05
1.2889e-05
1.35236e-05
1.41422e-05
1.54608e-05
1.82798e-05
2.22661e-05
2.04466e-05
8.15923e-06
2.64695e-06
2.26465e-07
1.18169e-07
2.06238e-06
5.11562e-06
1.14496e-05
2.02466e-05
2.55634e-05
2.68445e-05
2.61404e-05
2.47014e-05
2.3219e-05
2.2006e-05
2.11428e-05
2.06011e-05
2.02448e-05
1.98823e-05
1.92695e-05
1.81247e-05
1.62515e-05
1.37734e-05
1.12336e-05
9.30749e-06
8.44497e-06
8.66662e-06
9.68613e-06
1.10746e-05
1.2377e-05
1.34042e-05
1.4439e-05
1.61479e-05
1.92622e-05
2.31425e-05
2.06525e-05
8.24177e-06
2.68164e-06
2.29279e-07
1.19139e-07
2.06592e-06
5.13301e-06
1.1504e-05
2.02938e-05
2.55216e-05
2.67312e-05
2.59883e-05
2.45418e-05
2.30775e-05
2.19003e-05
2.10849e-05
2.05988e-05
2.03108e-05
2.00419e-05
1.95649e-05
1.86016e-05
1.69046e-05
1.44779e-05
1.1772e-05
9.49969e-06
8.22492e-06
8.07659e-06
8.85094e-06
1.02038e-05
1.17088e-05
1.31044e-05
1.45663e-05
1.66783e-05
2.00788e-05
2.38466e-05
2.07876e-05
8.30749e-06
2.71285e-06
2.32299e-07
1.19949e-07
2.06871e-06
5.14738e-06
1.1551e-05
2.03318e-05
2.54702e-05
2.66054e-05
2.58205e-05
2.43652e-05
2.29195e-05
2.17792e-05
2.1013e-05
2.05831e-05
2.03617e-05
2.01815e-05
1.9835e-05
1.90604e-05
1.75853e-05
1.53068e-05
1.25393e-05
9.97194e-06
8.27212e-06
7.69671e-06
8.12942e-06
9.31919e-06
1.09096e-05
1.26085e-05
1.44819e-05
1.69992e-05
2.06831e-05
2.43668e-05
2.08645e-05
8.35963e-06
2.74108e-06
2.35645e-07
1.20643e-07
2.07084e-06
5.1593e-06
1.15931e-05
2.03635e-05
2.541e-05
2.64658e-05
2.56348e-05
2.41688e-05
2.27416e-05
2.16393e-05
2.09234e-05
2.05497e-05
2.03923e-05
2.02937e-05
2.00655e-05
1.94704e-05
1.82362e-05
1.61834e-05
1.34751e-05
1.07083e-05
8.61294e-06
7.58274e-06
7.59931e-06
8.50616e-06
1.00379e-05
1.19275e-05
1.41571e-05
1.7064e-05
2.10377e-05
2.47012e-05
2.08901e-05
8.39649e-06
2.76561e-06
2.39316e-07
1.213e-07
2.0727e-06
5.17046e-06
1.16351e-05
2.03953e-05
2.53443e-05
2.63135e-05
2.54311e-05
2.3952e-05
2.2543e-05
2.14788e-05
2.08136e-05
2.04953e-05
2.03982e-05
2.03716e-05
2.02451e-05
1.98086e-05
1.8808e-05
1.70236e-05
1.44867e-05
1.16493e-05
9.23666e-06
7.76419e-06
7.32357e-06
7.85142e-06
9.182e-06
1.11121e-05
1.35958e-05
1.68518e-05
2.11308e-05
2.48674e-05
2.08772e-05
8.41787e-06
2.78628e-06