/*--------------------------------*- C++ -*----------------------------------*\
| =========                 |                                                 |
| \\      /  F ield         | OpenFOAM: The Open Source CFD Toolbox           |
|  \\    /   O peration     | Version:  v2006                                 |
|   \\  /    A nd           | Website:  www.openfoam.com                      |
|    \\/     M anipulation  |                                                 |
\*---------------------------------------------------------------------------*/
FoamFile
{
    version     2.0;
    format      ascii;
    class       volVectorField;
    location    "40";
    object      U;
}
// * * * * * * * * * * * * * * * * * * * * * * * * * * * * * * * * * * * * * //

dimensions      [0 1 -1 0 0 0 0];


internalField   nonuniform List<vector> 
78750
(
(-0.0109089 -0.00572384 0.000542957)
(-0.0115976 -0.0119307 0.0005472)
(-0.00956795 -0.0125517 0.000318083)
(-0.00778297 -0.0121272 0.000120753)
(-0.00643766 -0.0113562 -4.35194e-06)
(-0.00515594 -0.010464 -5.98608e-05)
(-0.00394691 -0.00957301 -7.14765e-05)
(-0.00283008 -0.00873851 -6.04105e-05)
(-0.00180273 -0.00797846 -4.10812e-05)
(-0.000850521 -0.00729545 -2.21656e-05)
(4.27712e-05 -0.00668533 -8.08435e-06)
(0.000887926 -0.00614087 -8.33142e-07)
(0.00168906 -0.0056527 -4.13125e-07)
(0.00244985 -0.0052107 -5.53336e-06)
(0.00317259 -0.00480531 -1.42865e-05)
(0.00385706 -0.00442795 -2.44129e-05)
(0.00450114 -0.00407122 -3.34248e-05)
(0.00510142 -0.00372916 -3.87013e-05)
(0.0056537 -0.00339739 -3.75598e-05)
(0.00615327 -0.00307327 -2.73084e-05)
(0.00659533 -0.00275603 -5.29134e-06)
(0.00697523 -0.00244682 3.10479e-05)
(0.00728887 -0.0021488 8.40731e-05)
(0.00753287 -0.00186711 0.000155815)
(0.00770447 -0.00160837 0.00024779)
(0.0078003 -0.00137889 0.000360783)
(0.00781969 -0.00118015 0.000493957)
(0.00776023 -0.00100138 0.000644205)
(0.00760771 -0.000796619 0.00080333)
(0.00733059 -0.000447703 0.000951926)
(0.00685305 0.000282259 0.0010476)
(0.00602256 0.00175174 0.00101664)
(0.00463845 0.0041403 0.000787047)
(0.00270424 0.00647864 0.00040568)
(0.000665316 0.0054036 0.000152698)
(-0.000474053 0.0016604 0.000933756)
(-0.00128744 -0.00458356 -0.00027792)
(-0.00266036 -0.00776801 -0.00182661)
(-0.00378695 -0.00882604 -0.00318399)
(-0.00462945 -0.00850142 -0.00412145)
(-0.00521067 -0.0075518 -0.0046473)
(-0.00555157 -0.00651469 -0.00485593)
(-0.00567952 -0.00562417 -0.00485504)
(-0.00562399 -0.00495197 -0.00473417)
(-0.00540959 -0.00448539 -0.00455508)
(-0.00505626 -0.00417872 -0.00435619)
(-0.004581 -0.00397881 -0.00415965)
(-0.00400005 -0.00383642 -0.00397686)
(-0.00332985 -0.00371064 -0.00381232)
(-0.00258709 -0.00356997 -0.00366625)
(-0.00178858 -0.00339156 -0.00353636)
(-0.000951179 -0.00316014 -0.00341887)
(-9.15946e-05 -0.00286682 -0.0033092)
(0.000773681 -0.00250797 -0.0032022)
(0.00162843 -0.00208439 -0.00309235)
(0.00245669 -0.00160059 -0.00297373)
(0.00324261 -0.00106419 -0.00284006)
(0.00397037 -0.000485211 -0.00268473)
(0.00462414 0.000125034 -0.00250088)
(0.00518831 0.000756453 -0.00228167)
(0.00564474 0.00140582 -0.00202114)
(0.00596662 0.00208869 -0.00171518)
(0.00612403 0.00285833 -0.00136199)
(0.00608162 0.00384072 -0.000969039)
(0.00579693 0.00528064 -0.000557138)
(0.00521829 0.00760248 -0.000153158)
(0.00425639 0.0113124 0.000179971)
(0.00290617 0.0160858 0.000343557)
(0.00144113 0.0190773 0.000337159)
(0.000171189 0.013606 0.000276927)
(2.67775e-06 0.00498165 0.000964751)
(-0.000444534 0.00701922 0.00112777)
(-0.00156119 0.00734735 0.000939246)
(-0.00286075 0.00655252 0.000615516)
(-0.00410881 0.00507355 0.000305167)
(-0.00518052 0.00327409 9.79919e-05)
(-0.00601639 0.00140238 1.78339e-05)
(-0.00659653 -0.000409945 4.1075e-05)
(-0.0069043 -0.00210329 0.000128126)
(-0.00695237 -0.00365182 0.00023915)
(-0.00677442 -0.00503311 0.000349013)
(-0.00640408 -0.00622503 0.000443838)
(-0.00587339 -0.00720832 0.000517305)
(-0.00521277 -0.00796909 0.000567727)
(-0.00445052 -0.00849967 0.000596002)
(-0.00361248 -0.00879807 0.000604511)
(-0.0027221 -0.00886681 0.000596541)
(-0.00180067 -0.00871194 0.000576056)
(-0.0008677 -0.00834173 0.000547652)
(5.85027e-05 -0.00776566 0.000516709)
(0.000960252 -0.00699364 0.000489633)
(0.00181995 -0.00603525 0.000474142)
(0.00261929 -0.00489867 0.000479734)
(0.00333829 -0.00358902 0.000518005)
(0.00395462 -0.00210506 0.000602816)
(0.00444597 -0.000433081 0.000749511)
(0.00478653 0.00146278 0.000972849)
(0.00494352 0.00365549 0.00128376)
(0.00488968 0.00630621 0.00168515)
(0.0045875 0.00973462 0.00215487)
(0.00398917 0.0142962 0.00257988)
(0.00308632 0.0199185 0.00275016)
(0.00199597 0.0252488 0.00251754)
(0.000931128 0.0268178 0.00190431)
(0.000117782 0.01727 0.000930666)
(1.27401e-05 0.00338882 0.000898003)
(0.000152293 0.00586689 0.00149639)
(0.000136608 0.00714124 0.00175201)
(2.54842e-05 0.00731279 0.00182723)
(-0.000176708 0.00652036 0.00183272)
(-0.000438374 0.00494856 0.00184119)
(-0.000708102 0.00280111 0.00188471)
(-0.000936357 0.000290851 0.00196191)
(-0.00109556 -0.00237279 0.00205417)
(-0.00117735 -0.0050064 0.00213684)
(-0.00116178 -0.00746096 0.00219379)
(-0.00104443 -0.00963339 0.00221764)
(-0.000830566 -0.0114623 0.00220805)
(-0.00053032 -0.0129183 0.00216881)
(-0.000156167 -0.0139939 0.0021053)
(0.000279458 -0.0146957 0.00202291)
(0.000763141 -0.0150382 0.00192613)
(0.00128117 -0.0150395 0.00181861)
(0.0018214 -0.0147181 0.00170324)
(0.00237206 -0.0140908 0.0015825)
(0.00292126 -0.0131712 0.00145894)
(0.00345669 -0.0119679 0.00133585)
(0.00396509 -0.0104839 0.00121799)
(0.00443184 -0.00871484 0.00111265)
(0.00483964 -0.00664639 0.00103086)
(0.0051605 -0.00424776 0.000990116)
(0.00536516 -0.00144199 0.00101657)
(0.00541136 0.00191472 0.00114572)
(0.00524082 0.00600205 0.00141467)
(0.00480598 0.0110423 0.00183963)
(0.00408001 0.0172314 0.00235824)
(0.00307737 0.0242613 0.00276599)
(0.00195863 0.0302858 0.00278766)
(0.000913611 0.0314485 0.00226621)
(0.000129217 0.0196917 0.00110492)
(1.32891e-05 0.00167179 0.000896697)
(0.000217669 0.00284337 0.00176226)
(0.000445324 0.00361952 0.00227398)
(0.000688862 0.00375201 0.00257133)
(0.00091977 0.00315934 0.00275272)
(0.00113016 0.00187787 0.00288027)
(0.00132508 1.3469e-05 0.00298188)
(0.00150878 -0.00228454 0.00305989)
(0.00168492 -0.00484464 0.0031038)
(0.00185923 -0.00748452 0.00310367)
(0.00203887 -0.0100336 0.0030577)
(0.00222734 -0.0123556 0.00297208)
(0.00242641 -0.0143555 0.00285774)
(0.00263679 -0.015977 0.0027266)
(0.00285827 -0.0171945 0.002589)
(0.00308978 -0.0180045 0.00245257)
(0.00332965 -0.0184176 0.00232214)
(0.00357566 -0.0184513 0.0022003)
(0.00382514 -0.0181249 0.00208807)
(0.00407499 -0.0174555 0.00198565)
(0.00432152 -0.0164549 0.001893)
(0.00456026 -0.0151266 0.00181036)
(0.0047857 -0.013464 0.00173891)
(0.00499055 -0.0114469 0.00168173)
(0.00516498 -0.00903428 0.00164646)
(0.00529196 -0.00609377 0.00164953)
(0.00534527 -0.00241955 0.00170626)
(0.0052795 0.00217043 0.00182994)
(0.00504613 0.00785809 0.00204058)
(0.00459513 0.0147919 0.00235327)
(0.00388094 0.0228724 0.0027287)
(0.00289058 0.031228 0.00300962)
(0.00181616 0.0373553 0.00295832)
(0.000822919 0.0373389 0.00239072)
(9.78236e-05 0.0224098 0.00112858)
(-1.30735e-05 0.000308561 0.000907396)
(0.000101218 -0.000140365 0.00190089)
(0.000292049 -0.000495939 0.00251088)
(0.000572887 -0.00111939 0.00286802)
(0.00093185 -0.00218706 0.0030638)
(0.00134947 -0.0037365 0.00315534)
(0.00180256 -0.00571144 0.00317344)
(0.00227473 -0.00800537 0.00313229)
(0.00275166 -0.0104859 0.00303867)
(0.00321267 -0.0129732 0.00290214)
(0.0036415 -0.0152939 0.00273842)
(0.00402996 -0.0173341 0.00256295)
(0.00437295 -0.0190234 0.00238781)
(0.00467022 -0.0203259 0.0022211)
(0.00492458 -0.0212316 0.00206693)
(0.00514035 -0.0217476 0.00192609)
(0.00532219 -0.0218907 0.00179723)
(0.00547439 -0.0216817 0.00167795)
(0.0056004 -0.021141 0.00156588)
(0.00570259 -0.0202849 0.00145933)
(0.00578216 -0.0191233 0.00135781)
(0.00583907 -0.0176567 0.00126232)
(0.00587202 -0.0158734 0.00117563)
(0.00587782 -0.0137469 0.00110267)
(0.00584993 -0.0112251 0.00105226)
(0.00577891 -0.0081297 0.00104263)
(0.0056437 -0.00417767 0.00109595)
(0.00541536 0.000889168 0.00122993)
(0.00505754 0.00735885 0.00146827)
(0.00452564 0.0154484 0.00182734)
(0.0037779 0.0249816 0.00226956)
(0.0027929 0.0347372 0.0026392)
(0.00175365 0.0415641 0.0026848)
(0.000797771 0.0412078 0.00220964)
(9.96223e-05 0.0243239 0.00103241)
(-1.39605e-05 -0.000646741 0.000893941)
(7.15873e-05 -0.00264284 0.00195349)
(0.000245026 -0.00442072 0.0025974)
(0.000530565 -0.00628345 0.00294166)
(0.00092116 -0.00835578 0.00307848)
(0.00139835 -0.0106456 0.0030775)
(0.00193824 -0.0130969 0.00298719)
(0.00250826 -0.0155955 0.00284259)
(0.00307081 -0.0179751 0.00267445)
(0.0035952 -0.0200902 0.00250688)
(0.00406704 -0.0218653 0.0023553)
(0.00447937 -0.0232672 0.00222696)
(0.00483005 -0.0242846 0.00212311)
(0.00512276 -0.0249229 0.00204124)
(0.00536363 -0.0251985 0.00197648)
(0.00555955 -0.0251327 0.00192297)
(0.00571708 -0.0247476 0.0018749)
(0.00584183 -0.0240633 0.00182718)
(0.00593804 -0.0230953 0.00177582)
(0.00600844 -0.0218532 0.00171815)
(0.0060542 -0.020339 0.0016528)
(0.00607499 -0.0185453 0.0015798)
(0.006069 -0.0164531 0.00150091)
(0.00603374 -0.0140262 0.00142053)
(0.00595999 -0.0111634 0.00134975)
(0.00583738 -0.00763581 0.00130361)
(0.0056425 -0.00314558 0.00129742)
(0.00535128 0.00260918 0.00134811)
(0.00493507 0.00996641 0.00148291)
(0.00435948 0.0191305 0.0017246)
(0.00358854 0.029765 0.00204864)
(0.00260161 0.0402748 0.00232599)
(0.00160419 0.0470256 0.00234093)
(0.000708835 0.0457237 0.0019149)
(7.14828e-05 0.026357 0.00087544)
(-7.21965e-06 -0.00155255 0.000736387)
(0.000101851 -0.00501427 0.00160142)
(0.000310153 -0.00809479 0.00208982)
(0.000625312 -0.0110583 0.00231157)
(0.00103311 -0.0139941 0.00236033)
(0.00150896 -0.0168759 0.00230799)
(0.00202005 -0.0196012 0.00220772)
(0.00252726 -0.0220267 0.0020988)
(0.00300569 -0.024076 0.00200415)
(0.00344444 -0.0257389 0.00193161)
(0.00383592 -0.0270152 0.00187972)
(0.00418038 -0.0279153 0.00184332)
(0.00448062 -0.0284575 0.00181556)
(0.0047406 -0.028663 0.00178976)
(0.00496467 -0.0285538 0.00176043)
(0.00515683 -0.0281501 0.00172376)
(0.00532047 -0.0274695 0.00167768)
(0.00545808 -0.0265256 0.00162165)
(0.00557121 -0.0253274 0.00155637)
(0.00566048 -0.0238779 0.00148336)
(0.00572565 -0.0221733 0.0014046)
(0.00576571 -0.0202009 0.00132227)
(0.00577884 -0.0179365 0.0012386)
(0.00576021 -0.0153378 0.00115664)
(0.0057 -0.01226 0.00108524)
(0.00558534 -0.00843993 0.00103571)
(0.00539376 -0.00357997 0.00101789)
(0.00510332 0.00267542 0.00104757)
(0.00468747 0.0107271 0.0011535)
(0.00411768 0.020814 0.00136492)
(0.00336806 0.0325232 0.0016663)
(0.00242314 0.0439601 0.00193721)
(0.0014877 0.0509785 0.00197282)
(0.000655385 0.0491286 0.00161712)
(6.48779e-05 0.0279073 0.000728641)
(1.98154e-06 -0.00251306 0.000590205)
(0.000143453 -0.00746939 0.00128101)
(0.000394318 -0.0117684 0.00168374)
(0.000744579 -0.0156663 0.0019002)
(0.00116675 -0.0192282 0.00201067)
(0.00162979 -0.022414 0.00206895)
(0.00209715 -0.0251326 0.00210634)
(0.00254714 -0.0273475 0.0021414)
(0.0029703 -0.0290958 0.00217849)
(0.00336267 -0.030412 0.00221508)
(0.00372127 -0.0313226 0.00224578)
(0.00404648 -0.0318539 0.00226587)
(0.00433944 -0.0320324 0.00227194)
(0.00460141 -0.0318829 0.00226206)
(0.00483369 -0.0314285 0.00223557)
(0.00503739 -0.0306898 0.00219282)
(0.00521341 -0.0296845 0.00213488)
(0.00536232 -0.0284266 0.0020633)
(0.00548436 -0.0269254 0.00197998)
(0.00557941 -0.0251842 0.00188708)
(0.00564706 -0.0231992 0.00178693)
(0.00568668 -0.0209572 0.00168201)
(0.00569725 -0.0184327 0.00157514)
(0.00567153 -0.0155483 0.00147222)
(0.00560251 -0.0121045 0.00138056)
(0.00547404 -0.00782381 0.00130605)
(0.00526818 -0.00240859 0.00125023)
(0.00496403 0.00452707 0.00121968)
(0.00453577 0.0133845 0.00123223)
(0.00395724 0.0243395 0.00131509)
(0.00320739 0.0368208 0.0014736)
(0.00227745 0.0486608 0.00163128)
(0.00138465 0.0554289 0.00162801)
(0.00060334 0.0527149 0.00132404)
(5.19847e-05 0.0294581 0.000592018)
(2.54593e-06 -0.00342976 0.000525098)
(0.000144862 -0.00977687 0.00116949)
(0.000393053 -0.015129 0.00159193)
(0.000728673 -0.019757 0.00187498)
(0.00112023 -0.0237428 0.00207043)
(0.00153872 -0.0270836 0.00220592)
(0.00195344 -0.0297495 0.00229627)
(0.00235429 -0.0318057 0.0023572)
(0.00273854 -0.0333481 0.0023956)
(0.00310041 -0.0344293 0.00241312)
(0.00343785 -0.0350894 0.00241106)
(0.00375058 -0.0353637 0.00239116)
(0.00403855 -0.0352838 0.00235543)
(0.00430183 -0.0348781 0.00230587)
(0.0045405 -0.034172 0.00224441)
(0.00475454 -0.0331879 0.00217282)
(0.00494376 -0.0319448 0.0020927)
(0.00510771 -0.0304576 0.00200551)
(0.00524567 -0.0287363 0.00191257)
(0.0053568 -0.0267849 0.00181515)
(0.00544032 -0.0245999 0.00171444)
(0.00549539 -0.0221682 0.00161164)
(0.0055167 -0.0194618 0.00150837)
(0.00549721 -0.0163601 0.00140933)
(0.00542779 -0.0126414 0.00132122)
(0.00529337 -0.00804954 0.00124891)
(0.00508055 -0.00224571 0.00119702)
(0.00477158 0.00521073 0.00117307)
(0.00434455 0.0147658 0.00118881)
(0.00377807 0.0265831 0.0012563)
(0.00305426 0.0399555 0.00136792)
(0.00216335 0.0524157 0.00146047)
(0.00131732 0.0591843 0.00141907)
(0.000577351 0.0558267 0.00113793)
(5.0062e-05 0.030828 0.000505592)
(3.41702e-06 -0.00427159 0.000523257)
(0.000138111 -0.0118915 0.00120594)
(0.000366848 -0.0181773 0.0016809)
(0.000670058 -0.0234295 0.00201347)
(0.00101997 -0.0277664 0.00224184)
(0.00139346 -0.0312376 0.00238988)
(0.00176607 -0.0338805 0.00247672)
(0.00213209 -0.0358337 0.00252501)
(0.0024917 -0.0372286 0.00254904)
(0.0028369 -0.0381309 0.00255373)
(0.00316537 -0.0385885 0.00254247)
(0.0034762 -0.0386416 0.00251773)
(0.00376836 -0.0383256 0.00248131)
(0.00404078 -0.0376715 0.00243451)
(0.00429241 -0.0367076 0.00237834)
(0.00452216 -0.0354586 0.00231368)
(0.00472892 -0.033946 0.00224138)
(0.00491146 -0.0321869 0.00216226)
(0.00506853 -0.0301937 0.00207719)
(0.00519908 -0.0279723 0.00198701)
(0.00530223 -0.0255217 0.00189252)
(0.00537417 -0.0228303 0.00179463)
(0.00540771 -0.0198271 0.00169588)
(0.0053963 -0.0163554 0.00159905)
(0.00532756 -0.0122167 0.00150675)
(0.00518987 -0.00715854 0.00141982)
(0.00496973 -0.000822406 0.00133991)
(0.00464965 0.00724539 0.00127238)
(0.00421022 0.0174809 0.00122978)
(0.003635 0.029994 0.00122893)
(0.00291337 0.0439483 0.00127009)
(0.00204341 0.0566482 0.00130342)
(0.00123581 0.0631341 0.00123682)
(0.000537741 0.0589814 0.000979915)
(4.16045e-05 0.0321825 0.000433479)
(5.55932e-07 -0.00500468 0.000531543)
(0.000117668 -0.0137194 0.00124734)
(0.000318211 -0.0207924 0.00174939)
(0.000588354 -0.0265697 0.00209865)
(0.000906233 -0.0312164 0.00233359)
(0.00125343 -0.0348369 0.00248157)
(0.00160945 -0.0375274 0.00256474)
(0.00196611 -0.0394617 0.00260578)
(0.00232364 -0.0407917 0.00262328)
(0.00267248 -0.0415972 0.00262256)
(0.00300803 -0.041931 0.00260647)
(0.00332835 -0.0418371 0.00257713)
(0.0036314 -0.0413542 0.00253613)
(0.00391512 -0.0405172 0.00248483)
(0.00417767 -0.0393575 0.0024245)
(0.00441742 -0.0379036 0.00235636)
(0.00463291 -0.03618 0.00228163)
(0.00482294 -0.034207 0.00220146)
(0.00498668 -0.0319995 0.00211695)
(0.0051237 -0.0295661 0.00202907)
(0.00522982 -0.0269073 0.00193888)
(0.0052998 -0.023987 0.00184657)
(0.00532722 -0.0207021 0.00175411)
(0.00530409 -0.0169094 0.00166426)
(0.00522237 -0.0124265 0.00157924)
(0.00507394 -0.00697755 0.00150095)
(0.0048468 -0.000168817 0.00143082)
(0.00452405 0.00848774 0.00137037)
(0.00408721 0.0194375 0.00132307)
(0.00352183 0.0327363 0.00129415)
(0.00281838 0.047391 0.00128056)
(0.00197628 0.0604467 0.00124972)
(0.00119968 0.0667643 0.001144)
(0.000526673 0.0619118 0.000890818)
(4.28789e-05 0.0334527 0.000394167)
(1.43748e-06 -0.00568227 0.000542089)
(0.000120838 -0.0154281 0.00128913)
(0.000326803 -0.0232802 0.00181808)
(0.000607052 -0.0296287 0.00218995)
(0.000940075 -0.0346686 0.00244371)
(0.00130608 -0.0385346 0.00260698)
(0.00168415 -0.0413584 0.00270137)
(0.00206037 -0.0433268 0.00274799)
(0.00243521 -0.0446177 0.00276894)
(0.00280106 -0.0453332 0.00277082)
(0.00315097 -0.0455329 0.00275612)
(0.00348312 -0.0452664 0.00272689)
(0.00379567 -0.0445783 0.0026848)
(0.00408661 -0.0435094 0.00263144)
(0.00435407 -0.0420969 0.00256837)
(0.00459645 -0.0403746 0.00249721)
(0.00481242 -0.0383721 0.00241954)
(0.00500117 -0.0361144 0.00233684)
(0.00516068 -0.0336212 0.00225073)
(0.0052872 -0.0309065 0.00216103)
(0.00537653 -0.027939 0.00206939)
(0.00542347 -0.0246506 0.00197731)
(0.00542236 -0.0209687 0.00188465)
(0.00536831 -0.016773 0.00179267)
(0.00525652 -0.0118707 0.00170245)
(0.00507895 -0.00596927 0.00161454)
(0.00482314 0.00134188 0.00152945)
(0.00447356 0.0105598 0.00144942)
(0.0040149 0.0221213 0.00137989)
(0.0034366 0.0360349 0.00132633)
(0.00273312 0.0511854 0.00128293)
(0.00190826 0.0644077 0.00121918)
(0.00115667 0.070463 0.00109219)
(0.000507376 0.0648627 0.00084079)
(3.98492e-05 0.0347332 0.000370922)
(-5.72025e-07 -0.00637124 0.000561021)
(0.000117026 -0.0171964 0.00134761)
(0.000324762 -0.0258843 0.00191305)
(0.000610077 -0.0328531 0.00231886)
(0.000948692 -0.0383109 0.00260243)
(0.00131784 -0.0424184 0.00279001)
(0.00169729 -0.045352 0.00290285)
(0.00207031 -0.0473257 0.00296065)
(0.00243908 -0.0485541 0.00298705)
(0.00280021 -0.0491628 0.00299088)
(0.00314554 -0.0492189 0.00297446)
(0.00347393 -0.0487787 0.00293988)
(0.0037841 -0.0478924 0.00288902)
(0.00407425 -0.0466058 0.00282383)
(0.00434262 -0.0449606 0.00274642)
(0.00458779 -0.0429943 0.00265904)
(0.00480732 -0.0407396 0.00256439)
(0.00499754 -0.038227 0.00246317)
(0.00515441 -0.0354653 0.00235674)
(0.00527317 -0.0324382 0.00224785)
(0.00535007 -0.029126 0.00213789)
(0.0053812 -0.0254928 0.00202966)
(0.00536481 -0.0214654 0.00192615)
(0.00529802 -0.0169142 0.00183034)
(0.00517545 -0.0116305 0.00174445)
(0.00498837 -0.00529889 0.00166884)
(0.00472448 0.00251589 0.00160087)
(0.00436902 0.0123253 0.00153544)
(0.00390804 0.0245512 0.00146827)
(0.00333292 0.0391325 0.00139818)
(0.00264028 0.054809 0.00132131)
(0.00183864 0.0682056 0.00121926)
(0.00111314 0.0740217 0.00106656)
(0.000487118 0.0676969 0.00080937)
(3.74599e-05 0.0359612 0.000353716)
(-6.02496e-07 -0.00705802 0.000601023)
(0.000119557 -0.0189891 0.00145812)
(0.000331065 -0.0285447 0.00208268)
(0.000619686 -0.0361585 0.0025382)
(0.000959634 -0.0420466 0.00286194)
(0.00132723 -0.0464002 0.00308094)
(0.00170466 -0.0494486 0.00321799)
(0.00207539 -0.0514386 0.00329257)
(0.00244127 -0.0526198 0.00332644)
(0.0028034 -0.0531361 0.00333539)
(0.00315169 -0.0530613 0.0033219)
(0.00348448 -0.0524566 0.00328802)
(0.0038006 -0.0513765 0.00323565)
(0.00409834 -0.0498707 0.00316676)
(0.00437511 -0.0479845 0.0030836)
(0.0046262 -0.045761 0.00298678)
(0.00484758 -0.0432252 0.00287655)
(0.00503479 -0.0403835 0.0027547)
(0.00518321 -0.0372497 0.00262253)
(0.00528972 -0.0338368 0.00248276)
(0.00535292 -0.0301382 0.00233877)
(0.00537202 -0.0261169 0.00219403)
(0.00534515 -0.0216944 0.00205241)
(0.00526846 -0.0167336 0.00191826)
(0.00513549 -0.0110156 0.00179631)
(0.0049366 -0.00421331 0.00169104)
(0.00465928 0.00411791 0.00160504)
(0.00428991 0.0144912 0.00153681)
(0.00381742 0.0273128 0.00147927)
(0.00323712 0.042464 0.00142031)
(0.00254919 0.058558 0.0013437)
(0.00176803 0.0720301 0.00122915)
(0.00106688 0.0775639 0.00106178)
(0.000464137 0.0704852 0.000797619)
(3.47544e-05 0.0371566 0.000345069)
(-2.89644e-06 -0.00777409 0.000649432)
(0.000112188 -0.020872 0.0015845)
(0.000316717 -0.0313372 0.00226778)
(0.000598385 -0.0396187 0.00276775)
(0.000932375 -0.0459457 0.00312421)
(0.00129474 -0.0505463 0.00336666)
(0.00166752 -0.0537076 0.00352098)
(0.00203868 -0.0557312 0.00360897)
(0.00240408 -0.0568775 0.00364801)
(0.00276552 -0.057307 0.00365915)
(0.0031164 -0.0571082 0.00364737)
(0.00345256 -0.0563478 0.00361496)
(0.00377286 -0.0550848 0.0035641)
(0.00407321 -0.0533735 0.00349667)
(0.00434925 -0.0512553 0.00341169)
(0.00459653 -0.0487506 0.00330953)
(0.0048101 -0.0458829 0.00319026)
(0.00498525 -0.0426893 0.0030557)
(0.00512028 -0.0392013 0.00290928)
(0.00521477 -0.0354349 0.00275443)
(0.00526826 -0.0313819 0.0025941)
(0.00527984 -0.0270015 0.00243122)
(0.00524745 -0.0222067 0.00226893)
(0.00516709 -0.0168478 0.00211074)
(0.00503196 -0.0106893 0.0019607)
(0.00483181 -0.0033878 0.00182348)
(0.00455345 0.00550919 0.00170381)
(0.00418302 0.0165055 0.0016047)
(0.00371036 0.0299714 0.00152388)
(0.00313306 0.0457119 0.00145003)
(0.00245467 0.0622079 0.00136219)
(0.00169686 0.0757231 0.00123577)
(0.00102099 0.0809675 0.00105744)
(0.000441726 0.0731404 0.000788207)
(3.28838e-05 0.0382865 0.00033868)
(-2.80771e-06 -0.0084814 0.000696998)
(0.000116067 -0.0227419 0.00170725)
(0.000325864 -0.0341299 0.00244245)
(0.000614236 -0.0431061 0.00297554)
(0.000955731 -0.0499042 0.00335)
(0.00132497 -0.0547811 0.00360017)
(0.00170299 -0.058076 0.00375731)
(0.00208011 -0.0601422 0.00384747)
(0.00244906 -0.0612554 0.003888)
(0.00281101 -0.0616018 0.00389553)
(0.00316451 -0.061282 0.00388194)
(0.00350258 -0.0603678 0.00385027)
(0.00382105 -0.058922 0.00380048)
(0.00411739 -0.0569842 0.00373248)
(0.00438796 -0.0545805 0.00364561)
(0.00462676 -0.0517522 0.00353938)
(0.00483009 -0.048543 0.00341578)
(0.00499598 -0.0449951 0.00327735)
(0.00512298 -0.0411442 0.00312672)
(0.00520973 -0.0370085 0.00296623)
(0.00525516 -0.0325814 0.00279832)
(0.00525808 -0.0278202 0.00262568)
(0.00521641 -0.0226319 0.00245122)
(0.00512627 -0.0168552 0.00227802)
(0.00498108 -0.0102394 0.0021095)
(0.00477086 -0.00242658 0.0019499)
(0.00448297 0.00704154 0.00180481)
(0.00410447 0.018656 0.0016802)
(0.0036266 0.0327476 0.00157805)
(0.00304892 0.0490404 0.00148931)
(0.00237716 0.0658839 0.001391)
(0.00163956 0.0793852 0.00125534)
(0.000984896 0.0843193 0.00106838)
(0.000424527 0.0757317 0.000793579)
(3.22365e-05 0.039384 0.000340659)
(-3.7953e-06 -0.00924847 0.000734241)
(0.000116931 -0.0247668 0.00180035)
(0.000329288 -0.037138 0.00256435)
(0.00062064 -0.046833 0.00310269)
(0.000964281 -0.0540944 0.00346555)
(0.00133355 -0.0592201 0.0036963)
(0.00170898 -0.0626145 0.00383427)
(0.00208121 -0.0646887 0.00391063)
(0.00244697 -0.0657532 0.00394539)
(0.0028032 -0.0660032 0.0039491)
(0.00314711 -0.0655544 0.00393257)
(0.00347541 -0.0644798 0.00390069)
(0.00378437 -0.0628297 0.00385444)
(0.00407049 -0.0606469 0.0037923)
(0.00432967 -0.0579728 0.0037152)
(0.00455893 -0.0548508 0.00362359)
(0.00475548 -0.0513271 0.00351756)
(0.00491688 -0.0474481 0.00339728)
(0.00504098 -0.0432523 0.00326311)
(0.00512591 -0.0387609 0.0031158)
(0.00517011 -0.0339688 0.00295702)
(0.00517191 -0.0288316 0.00278942)
(0.00512883 -0.0232499 0.00261615)
(0.00503678 -0.0170505 0.00244042)
(0.0048891 -0.00996642 0.0022651)
(0.00467588 -0.00162377 0.0020931)
(0.00438486 0.00843996 0.0019285)
(0.00400391 0.0206981 0.00177774)
(0.00352561 0.0354329 0.00164699)
(0.00295139 0.052279 0.00153355)
(0.00228929 0.0694539 0.00141812)
(0.00157422 0.0829213 0.00127211)
(0.000942623 0.0875447 0.001078)
(0.000403285 0.0782089 0.000798455)
(3.03012e-05 0.0404288 0.000341756)
(-2.7857e-06 -0.0100168 0.000757122)
(0.000125437 -0.0267802 0.00185207)
(0.000346974 -0.0401156 0.00261366)
(0.000647388 -0.0505079 0.00312316)
(0.000998107 -0.0582117 0.00344236)
(0.00137126 -0.0635692 0.0036271)
(0.00174739 -0.0670516 0.00372478)
(0.00211797 -0.0691266 0.00376965)
(0.00248009 -0.0701356 0.00378255)
(0.00283107 -0.0702872 0.00377519)
(0.00316761 -0.0697044 0.00375377)
(0.00348646 -0.0684638 0.00372208)
(0.00378459 -0.0666192 0.00368262)
(0.00405901 -0.0642145 0.00363671)
(0.00430693 -0.0612923 0.00358417)
(0.00452569 -0.057898 0.0035236)
(0.00471291 -0.0540804 0.00345283)
(0.00486658 -0.0498884 0.00336929)
(0.00498463 -0.0453613 0.00327034)
(0.00506522 -0.0405219 0.00315419)
(0.00510641 -0.0353657 0.00302067)
(0.00510596 -0.0298471 0.0028715)
(0.00506075 -0.0238612 0.00270999)
(0.00496612 -0.0172251 0.00254036)
(0.00481499 -0.00965744 0.00236694)
(0.00459743 -0.000770932 0.00219366)
(0.00430169 0.00989935 0.00202432)
(0.00391677 0.0228068 0.00186381)
(0.00343679 0.0381803 0.00171756)
(0.00286491 0.0555587 0.00158524)
(0.00221096 0.0730245 0.0014524)
(0.00151632 0.0864122 0.00129425)
(0.000905273 0.090704 0.00109205)
(0.000384466 0.0806099 0.00080652)
(2.90207e-05 0.0414322 0.000343896)
(-1.70254e-06 -0.0108467 0.000756053)
(0.000135576 -0.028931 0.00183692)
(0.000369238 -0.0432606 0.00255686)
(0.000682123 -0.0543403 0.00300583)
(0.0010425 -0.0624474 0.00326077)
(0.00142065 -0.0679854 0.00338922)
(0.00179716 -0.0715081 0.00344305)
(0.00216461 -0.0735458 0.00345574)
(0.00252085 -0.0744707 0.003446)
(0.00286347 -0.0745036 0.00342418)
(0.00318936 -0.0737724 0.00339648)
(0.00349556 -0.0723569 0.00336692)
(0.00377931 -0.0703135 0.00333795)
(0.00403812 -0.067689 0.00331069)
(0.00426982 -0.0645292 0.00328486)
(0.00447263 -0.0608823 0.0032588)
(0.00464522 -0.0567992 0.0032295)
(0.00478631 -0.0523278 0.0031926)
(0.00489448 -0.0475061 0.00314293)
(0.00496813 -0.0423547 0.00307571)
(0.00500524 -0.0368666 0.00298764)
(0.00500308 -0.0309914 0.00287756)
(0.00495783 -0.0246175 0.00274661)
(0.00486394 -0.0175511 0.00259795)
(0.00471353 -0.00949817 0.00243607)
(0.0044961 -6.03337e-05 0.00226624)
(0.00419988 0.0112258 0.00209422)
(0.00381464 0.0247899 0.00192654)
(0.00333605 0.0408053 0.00176948)
(0.00276914 0.0587134 0.0016239)
(0.00212565 0.0764629 0.00147799)
(0.00145299 0.0897662 0.00131013)
(0.000863941 0.0937323 0.00110075)
(0.000363282 0.0828975 0.000809288)
(2.70145e-05 0.0423816 0.000342089)
(6.295e-07 -0.0116868 0.000734684)
(0.000149899 -0.0310772 0.00176855)
(0.000399266 -0.0463622 0.00242713)
(0.000727258 -0.0580762 0.002811)
(0.00109838 -0.0665301 0.00300922)
(0.00148138 -0.0721996 0.00309469)
(0.00185757 -0.0757265 0.00311837)
(0.00222105 -0.0777023 0.00311026)
(0.00257059 -0.0785268 0.00308603)
(0.00290403 -0.0784301 0.00305424)
(0.00321845 -0.0775444 0.00302029)
(0.00351117 -0.0759523 0.00298809)
(0.00377985 -0.0737133 0.00296051)
(0.00402248 -0.0708777 0.0029395)
(0.00423756 -0.0674949 0.00292586)
(0.00442405 -0.0636165 0.00291896)
(0.00458138 -0.0592948 0.0029164)
(0.00470896 -0.0545755 0.00291377)
(0.00480604 -0.0494934 0.00290511)
(0.00487142 -0.0440647 0.00288397)
(0.00490318 -0.0382765 0.00284447)
(0.00489832 -0.0320712 0.00278227)
(0.00485241 -0.0253275 0.0026952)
(0.0047591 -0.01784 0.00258347)
(0.00460962 -0.00930146 0.00244953)
(0.00439277 0.0006949 0.00229789)
(0.00409666 0.0126064 0.00213496)
(0.00371174 0.0268321 0.0019687)
(0.00323497 0.0434819 0.00180693)
(0.00267313 0.0618942 0.00165227)
(0.00203997 0.0798845 0.00149573)
(0.001389 0.0930587 0.00131942)
(0.000821726 0.0966765 0.00110339)
(0.000341405 0.0850932 0.000806351)
(2.48607e-05 0.0432809 0.000336918)
(2.46183e-06 -0.0125775 0.000697669)
(0.000161237 -0.033329 0.00166403)
(0.00042307 -0.049574 0.00225813)
(0.000762349 -0.0618872 0.00258819)
(0.00114023 -0.0706322 0.00274783)
(0.00152453 -0.0763787 0.00280852)
(0.00189784 -0.0798688 0.00281696)
(0.00225594 -0.0817549 0.002799)
(0.00259833 -0.0824591 0.00276765)
(0.00292288 -0.082218 0.00273014)
(0.00322671 -0.0811665 0.00269133)
(0.00350729 -0.0793898 0.0026551)
(0.0037625 -0.0769509 0.00262467)
(0.00399064 -0.0739047 0.00260265)
(0.00419062 -0.0703052 0.00259087)
(0.00436197 -0.0662082 0.00258996)
(0.00450465 -0.0616669 0.00259876)
(0.00461869 -0.0567256 0.00261402)
(0.00470403 -0.0514152 0.00263069)
(0.00476012 -0.0457459 0.00264243)
(0.00478544 -0.0396958 0.00264238)
(0.00477711 -0.0331964 0.00262397)
(0.00473036 -0.0261138 0.00258176)
(0.00463818 -0.0182281 0.00251202)
(0.00449088 -0.00921854 0.00241341)
(0.00427645 0.00132927 0.00228767)
(0.00398259 0.0138639 0.00214045)
(0.00360009 0.028751 0.00198115)
(0.00312716 0.0460337 0.00181996)
(0.00257229 0.0649457 0.00166157)
(0.00195117 0.0831692 0.00149906)
(0.00132286 0.0962106 0.00131732)
(0.000778281 0.0994847 0.00109617)
(0.000319144 0.0871716 0.000794843)
(2.26929e-05 0.0441232 0.000327096)
(4.76398e-06 -0.0134621 0.000657278)
(0.00017219 -0.0355371 0.00155621)
(0.000444551 -0.0526866 0.00209711)
(0.000792367 -0.0655385 0.00238999)
(0.00117431 -0.0745228 0.00252631)
(0.00155793 -0.080312 0.00257316)
(0.00192732 -0.0837478 0.00257325)
(0.00227981 -0.0855367 0.00254959)
(0.00261538 -0.0861176 0.00251361)
(0.0029318 -0.0857309 0.00247184)
(0.00322618 -0.0845135 0.00242887)
(0.00349608 -0.0825531 0.00238842)
(0.00373955 -0.0799163 0.00235373)
(0.00395516 -0.0766626 0.00232755)
(0.00414208 -0.0728516 0.00231208)
(0.00430018 -0.0685437 0.00230863)
(0.00442974 -0.0637933 0.00231716)
(0.00453117 -0.0586445 0.00233594)
(0.00460491 -0.0531257 0.0023617)
(0.00465094 -0.0472409 0.00238978)
(0.00466828 -0.0409581 0.00241432)
(0.00465444 -0.0341951 0.0024286)
(0.00460475 -0.0268013 0.00242547)
(0.0045119 -0.0185389 0.00239793)
(0.00436559 -0.00907072 0.00233993)
(0.00415307 0.00202465 0.00224808)
(0.00386157 0.015183 0.00212415)
(0.00348202 0.0307286 0.00197664)
(0.00301356 0.0486297 0.00181792)
(0.00246625 0.0680091 0.00165644)
(0.00185788 0.086419 0.00148888)
(0.001253 0.0992832 0.00130314)
(0.000732085 0.102192 0.0010783)
(0.000295425 0.0891454 0.000774786)
(2.01849e-05 0.0449105 0.00031356)
(6.43366e-06 -0.0143741 0.000617405)
(0.000179856 -0.0377951 0.00145277)
(0.000459244 -0.0558394 0.0019468)
(0.000812059 -0.0691977 0.00220634)
(0.00119494 -0.0783804 0.00231907)
(0.00157543 -0.0841782 0.00234949)
(0.0019392 -0.0875378 0.00233834)
(0.00228494 -0.0892156 0.00230688)
(0.00261287 -0.0896631 0.00226549)
(0.00292058 -0.0891227 0.00222022)
(0.0032052 -0.087733 0.00217537)
(0.00346444 -0.0855845 0.0021344)
(0.00369659 -0.0827478 0.00210017)
(0.00390047 -0.0792875 0.00207502)
(0.00407558 -0.0752682 0.0020607)
(0.00422198 -0.0707547 0.00205814)
(0.00434009 -0.0658028 0.00206733)
(0.00443058 -0.0604572 0.0020873)
(0.00449412 -0.0547442 0.00211619)
(0.004531 -0.0486627 0.00215121)
(0.00454066 -0.042171 0.00218847)
(0.00452098 -0.0351728 0.00222283)
(0.0044676 -0.0274986 0.00224767)
(0.00437328 -0.0188896 0.00225481)