/*--------------------------------*- C++ -*----------------------------------*\
| =========                 |                                                 |
| \\      /  F ield         | OpenFOAM: The Open Source CFD Toolbox           |
|  \\    /   O peration     | Version:  v2006                                 |
|   \\  /    A nd           | Website:  www.openfoam.com                      |
|    \\/     M anipulation  |                                                 |
\*---------------------------------------------------------------------------*/
FoamFile
{
    version     2.0;
    format      ascii;
    class       volScalarField;
    location    "64";
    object      alphat;
}
// * * * * * * * * * * * * * * * * * * * * * * * * * * * * * * * * * * * * * //

dimensions      [1 -1 -1 0 0 0 0];


internalField   nonuniform List<scalar> 
78750
(
1.75105e-09
3.35994e-07
6.33033e-07
9.31887e-07
1.22772e-06
1.51647e-06
1.79436e-06
2.05783e-06
2.30368e-06
2.52924e-06
2.73239e-06
2.91124e-06
3.06527e-06
3.19421e-06
3.29787e-06
3.37608e-06
3.4287e-06
3.4556e-06
3.45667e-06
3.43185e-06
3.38117e-06
3.30508e-06
3.20321e-06
3.07544e-06
2.92302e-06
2.7474e-06
2.55049e-06
2.33427e-06
2.10025e-06
1.84887e-06
1.57757e-06
1.27978e-06
9.4734e-07
5.78487e-07
7.40285e-09
3.46575e-09
2.74987e-06
5.77756e-06
8.19401e-06
1.00607e-05
1.17239e-05
1.33488e-05
1.49837e-05
1.66387e-05
1.83333e-05
2.00617e-05
2.09729e-05
2.15691e-05
2.20052e-05
2.22893e-05
2.24287e-05
2.24296e-05
2.22972e-05
2.20359e-05
2.16493e-05
2.11394e-05
2.05072e-05
1.97507e-05
1.88685e-05
1.78619e-05
1.6734e-05
1.54937e-05
1.38387e-05
1.15167e-05
9.08064e-06
6.57229e-06
4.51344e-06
3.53798e-06
1.9973e-06
2.17776e-08
5.65447e-09
2.26508e-06
4.95159e-06
7.98018e-06
1.11102e-05
1.41618e-05
1.69906e-05
1.95013e-05
2.16766e-05
2.35394e-05
2.44187e-05
2.4913e-05
2.52126e-05
2.53367e-05
2.53026e-05
2.51254e-05
2.48192e-05
2.43974e-05
2.38735e-05
2.32619e-05
2.22645e-05
2.06704e-05
1.90976e-05
1.76909e-05
1.6499e-05
1.54644e-05
1.44302e-05
1.31593e-05
1.1404e-05
9.0877e-06
6.65139e-06
5.06833e-06
5.14004e-06
1.89161e-06
3.52825e-08
9.34789e-09
2.25755e-06
5.13311e-06
9.05966e-06
1.39179e-05
1.89199e-05
2.31595e-05
2.63142e-05
2.75376e-05
2.83031e-05
2.87934e-05
2.9039e-05
2.9066e-05
2.88977e-05
2.85565e-05
2.72088e-05
2.55746e-05
2.38129e-05
2.20031e-05
2.02114e-05
1.84989e-05
1.69423e-05
1.56236e-05
1.45884e-05
1.38318e-05
1.32732e-05
1.27116e-05
1.18245e-05
1.0311e-05
8.22974e-06
6.25545e-06
5.37506e-06
6.38807e-06
1.76591e-06
4.71557e-08
1.3171e-08
2.22424e-06
5.24166e-06
9.82809e-06
1.5968e-05
2.22016e-05
2.69588e-05
2.9009e-05
2.99405e-05
3.0546e-05
3.08652e-05
3.09312e-05
3.00046e-05
2.82253e-05
2.62404e-05
2.42181e-05
2.22417e-05
2.03578e-05
1.85868e-05
1.69371e-05
1.5425e-05
1.40891e-05
1.29876e-05
1.21658e-05
1.16245e-05
1.12877e-05
1.09525e-05
1.02923e-05
9.04922e-06
7.39055e-06
6.00264e-06
5.81077e-06
6.97079e-06
1.69286e-06
5.65422e-08
1.74695e-08
2.24178e-06
5.41134e-06
1.05774e-05
1.78835e-05
2.52395e-05
3.04429e-05
3.18689e-05
3.27345e-05
3.3256e-05
3.33009e-05
3.14533e-05
2.91646e-05
2.67607e-05
2.44249e-05
2.22646e-05
2.03187e-05
1.85772e-05
1.70054e-05
1.55657e-05
1.42406e-05
1.30475e-05
1.20269e-05
1.12122e-05
1.06093e-05
1.0163e-05
9.71214e-06
9.00473e-06
7.88362e-06
6.56519e-06
5.6519e-06
6.02124e-06
7.14462e-06
1.69014e-06
6.47313e-08
2.13588e-08
2.27874e-06
5.59211e-06
1.12286e-05
1.94177e-05
2.74518e-05
3.26539e-05
3.38587e-05
3.46544e-05
3.49494e-05
3.29795e-05
3.03543e-05
2.75217e-05
2.47747e-05
2.22889e-05
2.01281e-05
1.82792e-05
1.66921e-05
1.53082e-05
1.40775e-05
1.29769e-05
1.20145e-05
1.12005e-05
1.05271e-05
9.97303e-06
9.48042e-06
8.92457e-06
8.14646e-06
7.10747e-06
6.05649e-06
5.51712e-06
6.35936e-06
7.02165e-06
1.69141e-06
7.24516e-08
2.52535e-08
2.30617e-06
5.68635e-06
1.15755e-05
2.03213e-05
2.88435e-05
3.41604e-05
3.60277e-05
3.66043e-05
3.51115e-05
3.25743e-05
2.95429e-05
2.64547e-05
2.3602e-05
2.11182e-05
1.90194e-05
1.72609e-05
1.57754e-05
1.44945e-05
1.33653e-05
1.23631e-05
1.14939e-05
1.07539e-05
1.01118e-05
9.52691e-06
8.94004e-06
8.263e-06
7.41783e-06
6.44696e-06
5.59909e-06
5.33363e-06
6.53415e-06
6.95382e-06
1.71356e-06
8.01111e-08
2.85974e-08
2.33446e-06
5.77321e-06
1.18635e-05
2.10299e-05
2.9866e-05
3.51283e-05
3.71544e-05
3.68267e-05
3.48425e-05
3.18698e-05
2.85213e-05
2.52639e-05
2.23621e-05
1.99021e-05
1.78628e-05
1.61798e-05
1.47806e-05
1.35981e-05
1.25834e-05
1.17194e-05
1.10095e-05
1.04184e-05
9.8786e-06
9.3193e-06
8.67469e-06
7.89364e-06
6.97812e-06
6.04257e-06
5.33766e-06
5.28587e-06
6.79867e-06
6.80105e-06
1.7321e-06
8.7876e-08
3.22612e-08
2.35884e-06
5.82611e-06
1.20307e-05
2.14598e-05
3.04916e-05
3.57049e-05
3.75266e-05
3.69233e-05
3.46564e-05
3.14539e-05
2.79614e-05
2.46401e-05
2.17265e-05
1.92782e-05
1.72561e-05
1.55884e-05
1.4202e-05
1.3034e-05
1.20428e-05
1.12197e-05
1.05734e-05
1.00568e-05
9.57982e-06
9.04668e-06
8.3782e-06
7.54384e-06
6.59984e-06
5.70676e-06
5.1141e-06
5.22563e-06
6.98821e-06
6.6998e-06
1.75523e-06
9.57014e-08
3.5455e-08
2.3786e-06
5.86933e-06
1.2164e-05
2.17965e-05
3.0974e-05
3.6125e-05
3.77372e-05
3.68516e-05
3.43044e-05
3.08901e-05
2.72829e-05
2.393e-05
2.10332e-05
1.86195e-05
1.66328e-05
1.49953e-05
1.36344e-05
1.2492e-05
1.15348e-05
1.07651e-05
1.01958e-05
9.76342e-06
9.35696e-06
8.85814e-06
8.179e-06
7.30903e-06
6.34921e-06
5.4941e-06
4.99308e-06
5.24664e-06
7.241e-06
6.56e-06
1.77437e-06
1.03424e-07
3.91891e-08
2.40049e-06
5.9136e-06
1.22956e-05
2.21033e-05
3.13525e-05
3.63996e-05
3.78347e-05
3.67606e-05
3.40573e-05
3.05454e-05
2.68981e-05
2.35425e-05
2.06569e-05
1.82527e-05
1.62669e-05
1.46214e-05
1.32464e-05
1.20887e-05
1.11221e-05
1.03568e-05
9.81231e-06
9.4201e-06
9.05935e-06
8.59626e-06
7.93215e-06
7.06548e-06
6.12258e-06
5.31683e-06
4.89808e-06
5.27353e-06
7.46982e-06
6.44706e-06
1.79392e-06
1.10977e-07
4.2561e-08
2.41842e-06
5.95185e-06
1.24071e-05
2.23548e-05
3.16625e-05
3.66187e-05
3.78807e-05
3.6609e-05
3.37395e-05
3.01293e-05
2.64533e-05
2.31139e-05
2.02606e-05
1.78857e-05
1.59183e-05
1.4279e-05
1.29006e-05
1.17347e-05
1.07626e-05
1.00045e-05
9.48604e-06
9.13024e-06
8.80663e-06
8.37174e-06
7.72297e-06
6.86879e-06
5.95366e-06
5.2007e-06
4.8599e-06
5.35296e-06
7.74237e-06
6.32012e-06
1.81083e-06
1.18214e-07
4.64624e-08
2.43968e-06
5.99922e-06
1.25458e-05
2.26453e-05
3.19646e-05
3.67851e-05
3.78802e-05
3.64626e-05
3.34993e-05
2.98546e-05
2.61869e-05
2.28732e-05
2.00435e-05
1.76801e-05
1.57101e-05
1.40559e-05
1.26539e-05
1.14599e-05
1.04609e-05
9.68376e-06
9.16195e-06
8.81767e-06
8.51621e-06
8.10806e-06
7.48717e-06
6.66611e-06
5.79667e-06
5.10414e-06
4.83935e-06
5.44318e-06
8.00789e-06
6.2126e-06
1.82747e-06
1.25127e-07
5.0094e-08
2.45833e-06
6.04356e-06
1.26731e-05
2.29014e-05
3.22287e-05
3.69303e-05
3.78673e-05
3.63025e-05
3.32415e-05
2.95633e-05
2.59114e-05
2.26354e-05
1.98422e-05
1.75028e-05
1.55409e-05
1.38799e-05
1.24594e-05
1.12399e-05
1.0214e-05
9.4164e-06
8.88783e-06
8.54795e-06
8.2591e-06
7.86963e-06
7.27431e-06
6.49014e-06
5.67176e-06
5.04205e-06
4.85295e-06
5.56827e-06
8.29751e-06
6.10617e-06
1.84274e-06
1.31648e-07
5.4155e-08
2.47995e-06
6.0967e-06
1.28271e-05
2.32004e-05
3.25061e-05
3.70587e-05
3.78422e-05
3.61636e-05
3.30498e-05
2.93745e-05
2.57568e-05
2.25206e-05
1.97567e-05
1.74297e-05
1.54634e-05
1.37835e-05
1.23331e-05
1.10765e-05
1.00114e-05
9.17732e-06
8.62424e-06
8.27366e-06
7.98776e-06
7.61511e-06
7.0515e-06
6.31451e-06
5.55572e-06
4.99249e-06
4.87888e-06
5.70369e-06
8.58153e-06
6.01683e-06
1.85787e-06
1.37798e-07
5.8015e-08
2.49991e-06
6.1483e-06
1.29746e-05
2.34775e-05
3.27607e-05
3.71799e-05
3.78212e-05
3.60335e-05
3.28689e-05
2.91993e-05
2.56211e-05
2.2432e-05
1.97055e-05
1.7399e-05
1.54348e-05
1.37404e-05
1.22617e-05
1.09677e-05
9.86053e-06
8.98548e-06
8.40161e-06
8.03258e-06
7.74144e-06
7.37938e-06
6.84532e-06
6.15688e-06
5.45974e-06
4.96385e-06
4.92609e-06
5.86194e-06
8.87345e-06
5.93588e-06
1.87248e-06
1.43564e-07
6.21977e-08
2.52223e-06
6.20722e-06
1.31441e-05
2.37905e-05
3.30324e-05
3.73014e-05
3.78066e-05
3.59332e-05
3.27449e-05
2.91006e-05
2.55698e-05
2.24269e-05
1.97327e-05
1.74402e-05
1.54718e-05
1.37566e-05
1.22436e-05
1.09058e-05
9.74895e-06
8.82246e-06
8.19538e-06
7.7976e-06
7.49452e-06
7.14098e-06
6.63869e-06
6.00293e-06
5.37063e-06
4.9432e-06
4.98123e-06
6.02737e-06
9.15563e-06
5.86963e-06
1.8871e-06
1.48976e-07
6.6231e-08
2.5435e-06
6.26546e-06
1.33104e-05
2.40902e-05
3.32914e-05
3.74244e-05
3.78054e-05
3.58532e-05
3.26449e-05
2.90281e-05
2.55477e-05
2.24555e-05
1.97993e-05
1.75268e-05
1.55591e-05
1.3826e-05
1.22792e-05
1.08955e-05
9.68516e-06
8.70162e-06
8.02359e-06
7.58904e-06
7.26697e-06
6.91721e-06
6.44481e-06
5.86169e-06
5.29444e-06
4.93543e-06
5.04971e-06
6.20746e-06
9.43564e-06
5.81427e-06
1.90179e-06
1.54053e-07
7.04981e-08
2.56654e-06
6.3297e-06
1.34954e-05
2.44201e-05
3.35683e-05
3.75565e-05
3.78195e-05
3.58037e-05
3.25903e-05
2.901e-05
2.55822e-05
2.25394e-05
1.9919e-05
1.76646e-05
1.56963e-05
1.39442e-05
1.23621e-05
1.09294e-05
9.66085e-06
8.61321e-06
7.87426e-06
7.39439e-06
7.04718e-06
6.69797e-06
6.25479e-06
5.72477e-06
5.22278e-06
4.93192e-06
5.12217e-06
6.39074e-06
9.70225e-06
5.77097e-06
1.9166e-06
1.58822e-07
7.46564e-08
2.58887e-06
6.39386e-06
1.368e-05
2.47446e-05
3.38416e-05
3.76972e-05
3.78529e-05
3.57796e-05
3.25631e-05
2.90196e-05
2.56457e-05
2.26554e-05
2.00755e-05
1.78448e-05
1.58807e-05
1.41132e-05
1.24965e-05
1.1013e-05
9.68164e-06
8.56408e-06
7.75597e-06
7.22305e-06
6.84443e-06
6.49148e-06
6.07513e-06
5.59692e-06
5.15922e-06
4.93583e-06
5.20225e-06
6.58243e-06
9.96149e-06
5.73772e-06
1.93163e-06
1.63315e-07
7.89776e-08
2.6123e-06
6.4625e-06
1.38804e-05
2.50959e-05
3.41345e-05
3.78535e-05
3.79062e-05
3.57827e-05
3.25688e-05
2.90641e-05
2.57439e-05
2.28059e-05
2.02674e-05
1.80624e-05
1.61057e-05
1.43257e-05
1.26762e-05
1.11414e-05
9.74417e-06
8.55108e-06
7.66483e-06
7.07071e-06
6.65423e-06
6.29305e-06
5.90072e-06
5.47256e-06
5.09799e-06
4.94147e-06
5.28397e-06
6.77493e-06
1.02068e-05
5.71438e-06
1.94701e-06
1.67556e-07
8.32198e-08
2.635e-06
6.5309e-06
1.40824e-05
2.54496e-05
3.44348e-05
3.80276e-05
3.79835e-05
3.58108e-05
3.25973e-05
2.91297e-05
2.58637e-05
2.29808e-05
2.04885e-05
1.83151e-05
1.63717e-05
1.4584e-05
1.29045e-05
1.1318e-05
9.85158e-06
8.57705e-06
7.60482e-06
6.94204e-06
6.48145e-06
6.10715e-06
5.73518e-06
5.3543e-06
5.04083e-06
4.94985e-06
5.36806e-06
6.97035e-06
1.04452e-05
5.69825e-06
1.96234e-06
1.71568e-07
8.75693e-08
2.65804e-06
6.60167e-06
1.42957e-05
2.58274e-05
3.47622e-05
3.82281e-05
3.80848e-05
3.5859e-05
3.26439e-05
2.92128e-05
2.60013e-05
2.31751e-05
2.07322e-05
1.8595e-05
1.66708e-05
1.48815e-05
1.31768e-05
1.1541e-05
1.0004e-05
8.64339e-06
7.57721e-06
6.8377e-06
6.32592e-06
5.93256e-06
5.57612e-06
5.2389e-06
4.98424e-06
4.95804e-06
5.45284e-06
7.16875e-06
1.06805e-05
5.6929e-06
1.97813e-06
1.75375e-07
9.18591e-08
2.68025e-06
6.67124e-06
1.45074e-05
2.61993e-05
3.50717e-05
3.8416e-05
3.81878e-05
3.59146e-05
3.27e-05
2.93066e-05
2.61515e-05
2.33851e-05
2.09958e-05
1.89006e-05
1.7002e-05
1.52175e-05
1.34927e-05
1.181e-05
1.02018e-05
8.751e-06
7.5843e-06
6.7611e-06
6.19161e-06
5.77319e-06
5.42687e-06
5.12875e-06
4.92967e-06
4.96639e-06
5.53708e-06
7.36692e-06
1.09098e-05
5.69755e-06
1.99474e-06
1.78998e-07
9.62129e-08
2.70251e-06
6.74174e-06
1.4723e-05
2.65725e-05
3.53732e-05
3.85947e-05
3.8284e-05
3.59788e-05
3.27658e-05
2.94083e-05
2.63094e-05
2.36045e-05
2.12726e-05
1.92247e-05
1.73588e-05
1.55868e-05
1.3849e-05
1.21243e-05
1.04461e-05
8.90246e-06
7.6291e-06
6.71476e-06
6.08024e-06
5.6298e-06
5.28706e-06
5.02252e-06
4.87516e-06
4.97312e-06
5.62109e-06
7.57064e-06
1.11357e-05
5.711e-06
2.01217e-06
1.82449e-07
1.00523e-07
2.72418e-06
6.81188e-06
1.49375e-05
2.69333e-05
3.56574e-05
3.87589e-05
3.83687e-05
3.60336e-05
3.28275e-05
2.95102e-05
2.64705e-05
2.38301e-05
2.15595e-05
1.95643e-05
1.77375e-05
1.59853e-05
1.42416e-05
1.24804e-05
1.07346e-05
9.09709e-06
7.71338e-06
6.70168e-06
5.99547e-06
5.50614e-06
5.16012e-06
4.92301e-06
4.82296e-06
4.98017e-06
5.70632e-06
7.77876e-06
1.13592e-05
5.73097e-06
2.03017e-06
1.85733e-07
1.04865e-07
2.74555e-06
6.88305e-06
1.51596e-05
2.729e-05
3.59303e-05
3.8911e-05
3.8443e-05
3.60823e-05
3.28925e-05
2.96155e-05
2.66334e-05
2.40582e-05
2.1852e-05
1.99147e-05
1.81338e-05
1.64095e-05
1.46683e-05
1.28778e-05
1.10686e-05
9.33763e-06
7.84069e-06
6.72474e-06
5.93961e-06
5.40381e-06
5.04684e-06
4.8302e-06
4.77227e-06
4.98595e-06
5.78997e-06
7.98666e-06
1.15788e-05
5.75661e-06
2.04862e-06
1.88856e-07
1.09156e-07
2.76561e-06
6.95081e-06
1.53738e-05
2.76312e-05
3.61837e-05
3.90456e-05
3.85021e-05
3.61172e-05
3.29485e-05
2.97129e-05
2.67905e-05
2.42838e-05
2.2146e-05
2.02713e-05
1.85423e-05
1.6853e-05
1.51223e-05
1.331e-05
1.1443e-05
9.62149e-06
8.01143e-06
6.78598e-06
5.91555e-06
5.32614e-06
4.95056e-06
4.74714e-06
4.72577e-06
4.9928e-06
5.87409e-06
8.19608e-06
1.17954e-05
5.78669e-06
2.06737e-06
1.9182e-07
1.13455e-07
2.78546e-06
7.01853e-06
1.55884e-05
2.7967e-05
3.64255e-05
3.91679e-05
3.85493e-05
3.61412e-05
3.29943e-05
2.98029e-05
2.69428e-05
2.45072e-05
2.24408e-05
2.06328e-05
1.89614e-05
1.73144e-05
1.56024e-05
1.37764e-05
1.18581e-05
9.9496e-06
8.22717e-06
6.88715e-06
5.92505e-06
5.27464e-06
4.87236e-06
4.67426e-06
4.68298e-06
4.99913e-06
5.95578e-06
8.40279e-06
1.20072e-05
5.82038e-06
2.08628e-06
1.9463e-07
1.17705e-07
2.80436e-06
7.08404e-06
1.5798e-05
2.82897e-05
3.66494e-05
3.92729e-05
3.85801e-05
3.61496e-05
3.30262e-05
2.9882e-05
2.70864e-05
2.47235e-05
2.27308e-05
2.09932e-05
1.93845e-05
1.77863e-05
1.61009e-05
1.42696e-05
1.23073e-05
1.03169e-05
8.48459e-06
7.02731e-06
5.96897e-06
5.25144e-06
4.81508e-06
4.61468e-06
4.64706e-06
5.00803e-06
6.03793e-06
8.60952e-06
1.22158e-05
5.85713e-06
2.10529e-06
1.97292e-07
1.21942e-07
2.82297e-06
7.14908e-06
1.60064e-05
2.86046e-05
3.686e-05
3.93635e-05
3.85962e-05
3.61434e-05
3.30447e-05
2.99525e-05
2.72226e-05
2.49332e-05
2.30166e-05
2.1353e-05
1.98119e-05
1.82688e-05
1.66174e-05
1.47887e-05
1.27897e-05
1.07224e-05
8.78246e-06
7.20577e-06
6.04707e-06
5.2568e-06
4.77922e-06
4.56875e-06
4.61772e-06
5.01823e-06
6.11858e-06
8.81262e-06
1.24203e-05
5.89671e-06
2.12436e-06
1.99819e-07
1.2613e-07
2.84102e-06
7.21279e-06
1.6211e-05
2.89076e-05
3.70535e-05
3.94363e-05
3.85936e-05
3.61176e-05
3.3044e-05
3.00085e-05
2.7345e-05
2.51301e-05
2.32921e-05
2.17062e-05
2.02373e-05
1.87551e-05
1.71447e-05
1.53264e-05
1.32983e-05
1.11603e-05
9.11637e-06
7.42042e-06
6.15908e-06
5.29166e-06
4.76665e-06
4.53892e-06
4.59775e-06
5.03313e-06
6.20211e-06
9.01467e-06
1.26218e-05
5.93858e-06
2.14343e-06
2.02221e-07
1.30295e-07
2.85897e-06
7.27636e-06
1.64136e-05
2.92009e-05
3.72322e-05
3.94927e-05
3.85736e-05
3.60741e-05
3.30252e-05
3.00465e-05
2.74518e-05
2.53149e-05
2.35589e-05
2.20544e-05
2.06618e-05
1.92455e-05
1.76823e-05
1.58817e-05
1.38317e-05
1.16288e-05
9.48442e-06
7.66986e-06
6.30408e-06
5.35567e-06
4.77751e-06
4.52568e-06
4.58772e-06
5.05269e-06
6.28669e-06
9.21438e-06
1.28214e-05
5.98312e-06
2.16254e-06
2.04515e-07
1.34406e-07
2.87677e-06
7.33979e-06
1.66125e-05
2.94816e-05
3.73928e-05
3.95296e-05
3.85332e-05
3.60096e-05
3.2986e-05
3.00653e-05
2.75414e-05
2.54843e-05
2.38126e-05
2.23921e-05
2.10794e-05
1.97336e-05
1.82234e-05
1.64473e-05
1.43828e-05
1.21219e-05
9.88206e-06
7.95155e-06
6.48113e-06
5.44902e-06
4.81292e-06
4.53085e-06
4.58979e-06
5.079e-06
6.37397e-06
9.41358e-06
1.30201e-05
6.02997e-06
2.18167e-06
2.06714e-07
1.38466e-07
2.89445e-06
7.40432e-06
1.68063e-05
2.975e-05
3.75372e-05
3.95473e-05
3.84713e-05
3.59234e-05
3.29266e-05
3.00661e-05
2.7615e-05
2.564e-05
2.40549e-05
2.27211e-05
2.14913e-05
2.02197e-05
1.87673e-05
1.70215e-05
1.4949e-05
1.26362e-05
1.03061e-05
8.26294e-06
6.68846e-06
5.57074e-06
4.8726e-06
4.55464e-06
4.6043e-06
5.11214e-06
6.46345e-06
9.6114e-06
1.32189e-05
6.07957e-06
2.2009e-06
2.08836e-07
1.42442e-07
2.91061e-06
7.4648e-06
1.69956e-05
3.00097e-05
3.7666e-05
3.9547e-05
3.83907e-05
3.58177e-05
3.28445e-05
3.00413e-05
2.76649e-05
2.57763e-05
2.42811e-05
2.30361e-05
2.18919e-05
2.0698e-05
1.93076e-05
1.75976e-05
1.55234e-05
1.31654e-05
1.0751e-05
8.60012e-06
6.92367e-06
5.71978e-06
4.95676e-06
4.59825e-06
4.63312e-06
5.15419e-06
6.5572e-06
9.80982e-06
1.34185e-05
6.13136e-06
2.22017e-06
2.10891e-07
1.4638e-07
2.92641e-06
7.52492e-06
1.71836e-05
3.02596e-05
3.77793e-05
3.95289e-05
3.82901e-05
3.56914e-05
3.27447e-05
3.00024e-05
2.77009e-05
2.58953e-05
2.44902e-05
2.33373e-05
2.22814e-05
2.11679e-05
1.98429e-05
1.8173e-05
1.61025e-05
1.37053e-05
1.12128e-05
8.95951e-06
7.18387e-06
5.89409e-06
5.06418e-06
4.66129e-06
4.67644e-06
5.20567e-06
6.65575e-06
1.00092e-05
1.362e-05
6.18583e-06
2.23959e-06
2.12894e-07
1.50248e-07
2.94134e-06
7.58288e-06
1.73675e-05
3.04972e-05
3.78741e-05
3.94898e-05
3.81671e-05
3.55419e-05
3.26204e-05
2.99387e-05
2.77152e-05
2.59974e-05
2.46829e-05
2.36215e-05
2.26561e-05
2.16257e-05
2.03691e-05
1.8743e-05
1.66808e-05
1.42503e-05
1.16861e-05
9.3368e-06
7.46594e-06
6.09174e-06
5.19411e-06
4.74404e-06
4.7354e-06
5.26831e-06
6.76126e-06
1.02118e-05
1.3824e-05
6.24239e-06
2.2591e-06
2.14853e-07
1.54065e-07
2.9556e-06
7.63933e-06
1.75481e-05
3.07239e-05
3.79524e-05
3.94316e-05
3.80234e-05
3.53715e-05
3.24764e-05
2.98567e-05
2.77122e-05
2.6083e-05
2.4861e-05
2.38917e-05
2.30156e-05
2.20696e-05
2.0884e-05
1.93047e-05
1.72552e-05
1.47967e-05
1.2167e-05
9.72827e-06
7.76657e-06
6.31007e-06
5.34474e-06
4.84566e-06
4.81001e-06
5.34272e-06
6.87461e-06
1.04186e-05
1.40312e-05
6.30154e-06
2.27881e-06
2.16781e-07
1.57812e-07
2.96908e-06
7.69387e-06
1.77243e-05
3.09374e-05
3.80115e-05
3.93517e-05
3.78561e-05
3.51769e-05
3.23084e-05
2.97514e-05
2.76876e-05
2.61488e-05
2.50211e-05
2.41459e-05
2.33604e-05
2.24976e-05
2.13838e-05
1.9854e-05
1.78205e-05
1.53389e-05
1.26503e-05
1.01295e-05
8.08236e-06
6.54663e-06
5.51457e-06
4.96562e-06
4.90069e-06
5.43014e-06
6.99792e-06
1.06321e-05
1.42417e-05
6.36267e-06
2.29865e-06
2.18683e-07
1.61513e-07
2.98196e-06
7.74698e-06
1.78971e-05
3.11395e-05
3.80537e-05
3.9252e-05
3.76677e-05
3.49611e-05
3.212e-05
2.96266e-05
2.7645e-05
2.61975e-05
2.51644e-05
2.43839e-05
2.36898e-05
2.29108e-05
2.18675e-05
2.03879e-05
1.83733e-05
1.58733e-05
1.31323e-05
1.0537e-05
8.41001e-06
6.79866e-06
5.70153e-06
5.10265e-06
5.007e-06
5.53098e-06
7.13236e-06
1.08542e-05
1.44568e-05
6.42623e-06
2.31874e-06
2.20568e-07
1.65142e-07
2.99404e-06
7.7981e-06
1.80652e-05
3.13282e-05
3.80767e-05
3.91303e-05
3.74555e-05
3.47213e-05
3.19082e-05
2.94797e-05
2.75815e-05
2.62266e-05
2.52892e-05
2.46037e-05
2.40013e-05
2.33067e-05
2.2334e-05
2.09032e-05
1.89089e-05
1.63945e-05
1.36076e-05
1.09461e-05
8.74604e-06
7.06354e-06
5.90382e-06
5.25574e-06
5.12872e-06
5.64585e-06
7.27954e-06
1.10872e-05
1.46762e-05
6.49159e-06
2.339e-06
2.22435e-07
1.68717e-07
3.0055e-06
7.84773e-06
1.823e-05
3.15054e-05
3.80826e-05
3.89888e-05
3.72223e-05
3.44608e-05
3.16768e-05
2.9314e-05
2.75005e-05
2.62387e-05
2.5397e-05
2.48062e-05
2.4295e-05
2.3684e-05
2.27815e-05
2.13995e-05
1.94254e-05
1.68999e-05
1.40733e-05
1.13538e-05
9.08725e-06
7.3384e-06
6.11913e-06
5.42337e-06
5.26524e-06
5.77506e-06
7.44064e-06
1.13328e-05
1.4901e-05
6.55909e-06
2.35951e-06
2.2429e-07
1.72217e-07
3.01622e-06
7.89548e-06
1.83902e-05
3.16692e-05
3.80698e-05
3.88258e-05
3.69663e-05
3.4178e-05
3.14241e-05
2.91281e-05
2.74006e-05
2.62328e-05
2.54869e-05
2.49906e-05
2.45696e-05
2.4041e-05
2.3207e-05
2.18726e-05
1.99188e-05
1.73847e-05
1.45249e-05
1.17562e-05
9.43072e-06
7.62093e-06
6.34562e-06
5.60416e-06
5.4158e-06
5.91867e-06
7.61677e-06
1.1593e-05
1.51305e-05
6.62805e-06
2.38018e-06
2.26128e-07
1.75662e-07
3.02636e-06
7.94188e-06
1.85471e-05
3.18216e-05
3.80403e-05
3.86438e-05
3.66906e-05
3.38761e-05
3.11537e-05
2.89258e-05
2.7285e-05
2.62113e-05
2.55609e-05
2.51582e-05
2.48261e-05
2.43779e-05
2.36103e-05
2.23215e-05
2.03871e-05
1.78461e-05
1.49598e-05
1.21507e-05
9.77365e-06
7.90869e-06
6.58134e-06
5.79674e-06
5.57966e-06
6.07667e-06
7.80875e-06
1.18691e-05
1.53653e-05
6.69873e-06
2.40108e-06
2.2795e-07
1.79029e-07
3.03582e-06
7.98653e-06
1.86995e-05
3.19608e-05
3.79928e-05
3.84414e-05
3.63937e-05
3.35542e-05
3.08649e-05
2.87061e-05
2.71532e-05
2.61741e-05
2.56187e-05
2.53086e-05
2.50638e-05
2.46938e-05
2.39898e-05
2.2744e-05
2.08279e-05
1.82813e-05
1.53721e-05
1.25324e-05
1.01128e-05
8.19938e-06
6.82461e-06
5.99985e-06
5.75606e-06
6.249e-06
8.0175e-06
1.21629e-05
1.56042e-05
6.77044e-06
2.42212e-06
2.29748e-07
1.82333e-07
3.04474e-06
8.02983e-06
1.88484e-05
3.20885e-05
3.79295e-05
3.82212e-05
3.60788e-05
3.32158e-05
3.05612e-05
2.84729e-05
2.70085e-05
2.61238e-05
2.56627e-05
2.54437e-05
2.52841e-05
2.49895e-05
2.43458e-05
2.31396e-05
2.12399e-05
1.86891e-05
1.57626e-05
1.28998e-05
1.04455e-05
8.49036e-06
7.07335e-06
6.21204e-06
5.94403e-06
6.43517e-06
8.24316e-06
1.24749e-05
1.58473e-05
6.84329e-06
2.44334e-06
2.31521e-07
1.85549e-07
3.05299e-06
8.07137e-06
1.89927e-05
3.22032e-05
3.78488e-05
3.79816e-05
3.57445e-05
3.28595e-05
3.02418e-05
2.82252e-05
2.68503e-05
2.60601e-05
2.56926e-05
2.55633e-05
2.54868e-05
2.52648e-05
2.4678e-05
2.35079e-05
2.16222e-05
1.90679e-05
1.6129e-05
1.32514e-05
1.07705e-05
8.78019e-06
7.32616e-06
6.43227e-06
6.14315e-06
6.63548e-06
8.48652e-06
1.28056e-05
1.60931e-05
6.91663e-06
2.46462e-06
2.33261e-07
1.88692e-07
3.06072e-06
8.11152e-06
1.91332e-05
3.23065e-05
3.77529e-05
3.77252e-05
3.53938e-05
3.2489e-05
2.99102e-05
2.79666e-05
2.66818e-05
2.59858e-05
2.57106e-05
2.56692e-05
2.56734e-05
2.55206e-05
2.49867e-05
2.3849e-05
2.1975e-05
1.94177e-05
1.64708e-05
1.35858e-05
1.10849e-05
9.06647e-06
7.58116e-06
6.65894e-06
6.35179e-06
6.84817e-06
8.74678e-06
1.31549e-05
1.63415e-05
6.99088e-06
2.48608e-06
2.34979e-07
1.91738e-07
3.06778e-06
8.14982e-06
1.92689e-05
3.2397e-05
3.76405e-05
3.74505e-05
3.50252e-05
3.2103e-05
2.95654e-05
2.76965e-05
2.65028e-05
2.59009e-05
2.57173e-05
2.57622e-05
2.58446e-05
2.5758e-05
2.52733e-05
2.41642e-05
2.22994e-05
1.97396e-05
1.67887e-05
1.39032e-05
1.13895e-05
9.34867e-06
7.83722e-06
6.8911e-06
6.57006e-06
7.07522e-06
9.0241e-06
1.35217e-05
1.65912e-05
7.06571e-06
2.50766e-06
2.36677e-07
1.94703e-07
3.07435e-06
8.18677e-06
1.94008e-05
3.24765e-05
3.75137e-05
3.71599e-05
3.46417e-05
3.17048e-05
2.92109e-05
2.7418e-05
2.63159e-05
2.58079e-05
2.57146e-05
2.58436e-05
2.60014e-05
2.59775e-05
2.5538e-05
2.44538e-05
2.2596e-05
2.00342e-05
1.70833e-05
1.42037e-05
1.16832e-05
9.62591e-06
8.09354e-06
7.12817e-06
6.79754e-06
7.31593e-06
9.31854e-06
1.39053e-05
1.68425e-05
7.14144e-06
2.52941e-06
2.38367e-07
1.97566e-07
3.08027e-06
8.22187e-06
1.95278e-05
3.25436e-05
3.73707e-05
3.68517e-05
3.42418e-05
3.12933e-05
2.8846e-05
2.71308e-05
2.61213e-05
2.57071e-05
2.57032e-05
2.59149e-05
2.61456e-05
2.61811e-05
2.5783e-05
2.47202e-05
2.28674e-05
2.03043e-05
1.73571e-05
1.44889e-05
1.1967e-05
9.89796e-06
8.34915e-06
7.36884e-06
7.03279e-06
7.56869e-06
9.62909e-06
1.43044e-05
1.70947e-05
7.21796e-06
2.5513e-06
2.40055e-07
2.00344e-07
3.08574e-06
8.2557e-06
1.96514e-05
3.26002e-05
3.72138e-05
3.65281e-05
3.38281e-05
3.08714e-05
2.84736e-05
2.68376e-05
2.59214e-05
2.56006e-05
2.56848e-05
2.5977e-05
2.62778e-05
2.63691e-05
2.60085e-05
2.49636e-05
2.3114e-05
2.05507e-05
1.76111e-05
1.47594e-05
1.22408e-05
1.01647e-05
8.6039e-06
7.61267e-06
7.27522e-06
7.83287e-06
9.95517e-06
1.4718e-05
1.73475e-05
7.29528e-06
2.57337e-06
2.41749e-07
2.03021e-07
3.09059e-06
8.28777e-06
1.97703e-05
3.26447e-05
3.70414e-05
3.61877e-05
3.33996e-05
3.04386e-05
2.80934e-05
2.65386e-05
2.57165e-05
2.5489e-05
2.56604e-05
2.60314e-05
2.63999e-05
2.65436e-05
2.62168e-05
2.51866e-05
2.3339e-05
2.0777e-05
1.78489e-05
1.50178e-05
1.25065e-05
1.04267e-05
8.85724e-06
7.85852e-06
7.52351e-06
8.10722e-06
1.02956e-05
1.51447e-05
1.7601e-05
7.37373e-06
2.59574e-06
2.43458e-07
2.05616e-07
3.09504e-06
8.31875e-06
1.98862e-05
3.26793e-05
3.68552e-05
3.58324e-05
3.29586e-05
2.99973e-05
2.7708e-05
2.6236e-05
2.55085e-05
2.53738e-05
2.56312e-05
2.6079e-05
2.65122e-05
2.67049e-05
2.64079e-05
2.53894e-05
2.35429e-05
2.09844e-05
1.80726e-05
1.52654e-05
1.27643e-05
1.06843e-05
9.10942e-06
8.10663e-06
7.77725e-06
8.3909e-06
1.06494e-05
1.55829e-05
1.78542e-05
7.45307e-06
2.61855e-06
2.45185e-07
2.08114e-07
3.09891e-06
8.34813e-06
1.99979e-05
3.27023e-05
3.66537e-05
3.54609e-05
3.25044e-05
2.95475e-05
2.73175e-05
2.59302e-05
2.5298e-05
2.5256e-05
2.55984e-05
2.61213e-05
2.66167e-05
2.68548e-05
2.65841e-05
2.55745e-05
2.37288e-05
2.1177e-05
1.82871e-05
1.55052e-05
1.30162e-05
1.0938e-05
9.36026e-06
8.35614e-06
8.0356e-06
8.68316e-06
1.10159e-05
1.60314e-05
1.81069e-05
7.53323e-06
2.6418e-06
2.46931e-07
2.10532e-07
3.10242e-06
8.37659e-06
2.0107e-05
3.27155e-05
3.64386e-05
3.50751e-05
3.20392e-05
2.90914e-05
2.69243e-05
2.56232e-05
2.50867e-05
2.51367e-05
2.55628e-05
2.61588e-05
2.67135e-05
2.69937e-05
2.67454e-05
2.57419e-05
2.38972e-05
2.13561e-05
1.84944e-05
1.5739e-05
1.32632e-05
1.11886e-05
9.61028e-06
8.60733e-06
8.29848e-06
8.98299e-06
1.13933e-05
1.64881e-05
1.83576e-05
7.61362e-06
2.66521e-06
2.48689e-07
2.12857e-07
3.10543e-06
8.40367e-06
2.02123e-05
3.27174e-05
3.62083e-05
3.46738e-05
3.15625e-05
2.86292e-05
2.65287e-05
2.53157e-05
2.48755e-05
2.50172e-05
2.55258e-05
2.6193e-05
2.68046e-05
2.71234e-05
2.68939e-05
2.58939e-05
2.405e-05
2.1523e-05
1.86951e-05
1.59669e-05
1.35054e-05
1.1436e-05
9.85905e-06
8.85967e-06
8.5655e-06
9.29092e-06
1.17823e-05
1.69525e-05
1.86055e-05
7.69385e-06
2.68866e-06
2.50452e-07
2.15104e-07
3.10811e-06
8.42998e-06
2.03154e-05
3.27095e-05
3.59643e-05
3.42586e-05
3.10764e-05
2.81631e-05
2.61329e-05
2.50096e-05
2.4666e-05
2.48986e-05
2.54882e-05
2.62246e-05
2.68903e-05
2.72444e-05
2.70302e-05
2.6031e-05
2.41876e-05
2.16773e-05
1.88877e-05
1.61887e-05
1.37431e-05
1.16808e-05
1.01071e-05
9.11335e-06
8.83637e-06
9.60583e-06
1.21806e-05
1.74226e-05
1.88496e-05
7.7736e-06
2.7121e-06
2.52217e-07
2.17261e-07
3.11034e-06
8.45516e-06
2.04152e-05
3.26905e-05
3.57051e-05
3.38285e-05
3.05806e-05
2.76933e-05
2.57375e-05
2.4706e-05
2.44594e-05
2.47823e-05
2.54517e-05
2.62553e-05
2.69724e-05
2.73586e-05
2.71563e-05
2.61553e-05
2.43117e-05
2.18197e-05
1.90714e-05
1.64034e-05
1.39757e-05
1.19224e-05
1.0354e-05
9.36803e-06
9.11098e-06
9.9283e-06
1.25897e-05
1.78975e-05
1.90886e-05
7.8522e-06
2.73539e-06
2.53966e-07
2.19339e-07
3.11228e-06
8.47969e-06
2.0513e-05
3.26617e-05
3.54317e-05
3.33847e-05
3.00765e-05
2.72213e-05
2.53441e-05
2.44066e-05
2.42574e-05
2.46697e-05
2.54171e-05
2.62857e-05
2.70517e-05
2.74667e-05
2.72731e-05
2.6268e-05
2.44236e-05
2.19515e-05
1.92467e-05
1.66112e-05
1.42032e-05
1.2161e-05
1.06001e-05
9.62403e-06
9.38936e-06
1.02578e-05
1.30085e-05
1.83765e-05
1.93221e-05
7.92934e-06
2.75848e-06
2.55696e-07
2.21331e-07
3.11383e-06
8.50334e-06
2.06083e-05
3.2622e-05
3.51428e-05
3.29261e-05
2.95636e-05
2.67471e-05
2.49532e-05
2.41127e-05
2.40615e-05
2.4562e-05
2.5386e-05
2.63178e-05
2.713e-05
2.7571e-05
2.73829e-05
2.63715e-05
2.4526e-05
2.2075e-05
1.94146e-05
1.68123e-05
1.44253e-05
1.23961e-05
1.08447e-05
9.88111e-06
9.67174e-06
1.05948e-05
1.34376e-05
1.88602e-05
1.95505e-05
8.00546e-06
2.78141e-06
2.57416e-07
2.23244e-07
3.11513e-06
8.52656e-06
2.07022e-05
3.25723e-05
3.48388e-05
3.24534e-05
2.90431e-05
2.62715e-05
2.45653e-05
2.38273e-05
2.38731e-05
2.446e-05
2.5359e-05
2.63523e-05
2.72084e-05
2.76722e-05
2.74869e-05
2.64676e-05
2.46213e-05
2.21931e-05
1.95773e-05
1.70085e-05
1.46432e-05
1.26282e-05
1.10881e-05
1.0139e-05
9.95759e-06
1.09387e-05
1.38756e-05
1.93459e-05
1.97728e-05
8.08007e-06
2.80409e-06
2.59123e-07
2.25073e-07
3.11612e-06
8.54916e-06
2.07942e-05
3.25114e-05
3.45182e-05
3.19655e-05
2.85147e-05
2.57947e-05
2.41795e-05
2.35454e-05
2.36891e-05
2.43632e-05
2.53375e-05
2.63912e-05
2.72892e-05
2.77732e-05
2.7588e-05
2.65596e-05
2.47136e-05
2.23105e-05
1.97378e-05
1.72012e-05
1.48577e-05
1.28578e-05
1.13306e-05
1.0398e-05
1.02473e-05
1.12897e-05
1.43225e-05
1.98334e-05
1.99898e-05
8.15351e-06
2.82659e-06
2.60816e-07
2.26826e-07
3.1169e-06
8.57148e-06
2.08852e-05
3.244e-05
3.41812e-05
3.1463e-05
2.79794e-05
2.5318e-05
2.37981e-05
2.32701e-05
2.35124e-05
2.42738e-05
2.53225e-05
2.64354e-05
2.73732e-05
2.78747e-05
2.76876e-05
2.66501e-05
2.48069e-05
2.24326e-05
1.99001e-05
1.73933e-05
1.50706e-05
1.3086e-05
1.15725e-05
1.06581e-05
1.05405e-05
1.16473e-05
1.47772e-05
2.03206e-05
2.02011e-05
8.22559e-06
2.84885e-06
2.62493e-07
2.28497e-07
3.11739e-06
8.59334e-06
2.09746e-05
3.23567e-05
3.38262e-05
3.0945e-05
2.74369e-05
2.48411e-05
2.34202e-05
2.30001e-05
2.33422e-05
2.41914e-05
2.53149e-05
2.64864e-05
2.74624e-05
2.7979e-05
2.77879e-05
2.67411e-05
2.49034e-05
2.25619e-05
2.00657e-05
1.75859e-05
1.52827e-05
1.33135e-05
1.18145e-05
1.09195e-05
1.08368e-05
1.20111e-05
1.52392e-05
2.08071e-05
2.04075e-05
8.29658e-06
2.87094e-06
2.64162e-07
2.30093e-07
3.11766e-06
8.61493e-06
2.1063e-05
3.22615e-05
3.34528e-05
3.04117e-05
2.68882e-05
2.43653e-05
2.30472e-05
2.27368e-05
2.31795e-05
2.4117e-05
2.53153e-05
2.65447e-05
2.75573e-05
2.80869e-05
2.789e-05
2.68337e-05
2.50039e-05
2.26979e-05
2.02353e-05
1.77799e-05
1.54951e-05
1.3541e-05
1.20571e-05
1.11831e-05
1.11383e-05
1.23809e-05
1.57072e-05
2.12915e-05
2.06089e-05
8.36638e-06
2.89281e-06
2.65821e-07
2.31612e-07
3.11766e-06
8.63608e-06
2.11498e-05
3.21528e-05
3.30594e-05
2.98624e-05
2.63333e-05
2.38904e-05
2.26789e-05
2.248e-05
2.30245e-05
2.40511e-05
2.53245e-05
2.66116e-05
2.76596e-05
2.82002e-05
2.79953e-05
2.69289e-05
2.51077e-05
2.28382e-05
2.0407e-05
1.79744e-05
1.57074e-05
1.37688e-05
1.23012e-05
1.14504e-05
1.14464e-05
1.27576e-05
1.61813e-05
2.17735e-05
2.08061e-05
8.43519e-06
2.91452e-06
2.67477e-07
2.33061e-07
3.11742e-06
8.65689e-06
2.12351e-05
3.203e-05
3.26453e-05
2.92976e-05
2.57732e-05
2.34175e-05
2.23159e-05
2.22301e-05
2.28771e-05
2.39934e-05
2.53425e-05
2.66871e-05
2.77696e-05
2.83196e-05
2.81056e-05
2.70285e-05
2.52165e-05
2.29832e-05
2.05811e-05
1.81696e-05
1.59198e-05
1.39969e-05
1.25468e-05
1.1721e-05
1.17602e-05
1.31413e-05
1.66612e-05
2.22527e-05
2.09993e-05
8.50293e-06
2.93601e-06
2.69124e-07
2.34437e-07
3.11685e-06