/*--------------------------------*- C++ -*----------------------------------*\
| =========                 |                                                 |
| \\      /  F ield         | OpenFOAM: The Open Source CFD Toolbox           |
|  \\    /   O peration     | Version:  v2006                                 |
|   \\  /    A nd           | Website:  www.openfoam.com                      |
|    \\/     M anipulation  |                                                 |
\*---------------------------------------------------------------------------*/
FoamFile
{
    version     2.0;
    format      ascii;
    class       volScalarField;
    location    "64";
    object      k;
}
// * * * * * * * * * * * * * * * * * * * * * * * * * * * * * * * * * * * * * //

dimensions      [0 2 -2 0 0 0 0];


internalField   nonuniform List<scalar> 
78750
(
5.12515e-07
3.78411e-06
7.1478e-06
1.05488e-05
1.39316e-05
1.72485e-05
2.04546e-05
2.35066e-05
2.63654e-05
2.89977e-05
3.1376e-05
3.34759e-05
3.52893e-05
3.68109e-05
3.80369e-05
3.89639e-05
3.95892e-05
3.99105e-05
3.99261e-05
3.96352e-05
3.90385e-05
3.81418e-05
3.69415e-05
3.54376e-05
3.36461e-05
3.15861e-05
2.92818e-05
2.67583e-05
2.40355e-05
2.11216e-05
1.79913e-05
1.45755e-05
1.07849e-05
6.59301e-06
2.20543e-06
1.48856e-06
1.24532e-05
2.25388e-05
3.19223e-05
4.07185e-05
4.88966e-05
5.63677e-05
6.30569e-05
6.89219e-05
7.39466e-05
7.81313e-05
8.15329e-05
8.42066e-05
8.61788e-05
8.74741e-05
8.81173e-05
8.81329e-05
8.75444e-05
8.63742e-05
8.46433e-05
8.23694e-05
7.95673e-05
7.62404e-05
7.23988e-05
6.80666e-05
6.32771e-05
5.80899e-05
5.25842e-05
4.67974e-05
4.07246e-05
3.43277e-05
2.75816e-05
2.0785e-05
1.45594e-05
9.53763e-06
2.42873e-06
1.77834e-05
3.2313e-05
4.57317e-05
5.76877e-05
6.79963e-05
7.66494e-05
8.37488e-05
8.94377e-05
9.3858e-05
9.7165e-05
9.94869e-05
0.00010091
0.000101513
0.000101373
0.000100561
9.91462e-05
9.71981e-05
9.47863e-05
9.19865e-05
8.88623e-05
8.54393e-05
8.17149e-05
7.7676e-05
7.32908e-05
6.85243e-05
6.33616e-05
5.78175e-05
5.19141e-05
4.5638e-05
3.895e-05
3.19734e-05
2.53478e-05
1.96349e-05
1.54798e-05
4.01545e-06
2.58332e-05
4.61053e-05
6.40249e-05
7.88934e-05
9.06693e-05
9.97763e-05
0.000106711
0.000111912
0.000115651
0.000118075
0.000119309
0.00011947
0.00011867
0.000117023
0.000114636
0.000111589
0.000107975
0.000103898
9.94758e-05
9.48439e-05
9.01399e-05
8.54736e-05
8.08841e-05
7.63083e-05
7.16152e-05
6.6666e-05
6.13567e-05
5.56123e-05
4.93647e-05
4.26172e-05
3.5687e-05
2.94637e-05
2.43362e-05
2.07209e-05
5.65807e-06
3.18918e-05
5.57931e-05
7.61048e-05
9.20209e-05
0.000103889
0.000112617
0.000119052
0.000123686
0.00012674
0.000128375
0.000128741
0.000127973
0.000126168
0.000123398
0.000119747
0.000115318
0.000110243
0.000104686
9.88478e-05
9.29755e-05
8.73483e-05
8.22011e-05
7.76144e-05
7.34946e-05
6.96226e-05
6.57232e-05
6.15311e-05
5.68212e-05
5.14287e-05
4.53546e-05
3.90228e-05
3.33585e-05
2.85886e-05
2.48835e-05
7.50507e-06
3.80857e-05
6.56042e-05
8.84234e-05
0.000105669
0.000118069
0.000126942
0.000133355
0.00013782
0.000140549
0.00014173
0.000141526
0.000140019
0.00013727
0.000133355
0.000128383
0.000122503
0.000115906
0.000108819
0.000101508
9.42894e-05
8.75314e-05
8.15446e-05
7.64367e-05
7.21302e-05
6.84182e-05
6.50036e-05
6.1546e-05
5.77081e-05
5.32113e-05
4.79744e-05
4.23755e-05
3.72269e-05
3.26114e-05
2.85235e-05
9.17647e-06
4.31686e-05
7.33798e-05
9.78928e-05
0.000115885
0.000128483
0.000137333
0.000143604
0.000147814
0.000150189
0.000150939
0.000150165
0.000147914
0.000144236
0.000139225
0.000133028
0.000125847
0.000117935
0.000109586
0.000101144
9.30232e-05
8.56827e-05
7.94171e-05
7.42576e-05
7.00954e-05
6.67306e-05
6.38786e-05
6.11853e-05
5.82598e-05
5.47391e-05
5.04422e-05
4.5647e-05
4.09833e-05
3.64402e-05
3.19655e-05
1.08503e-05
4.81206e-05
8.10114e-05
0.000107394
0.000126447
0.00013958
0.000148704
0.000155051
0.000159191
0.000161426
0.000161911
0.000160703
0.000157837
0.000153372
0.000147425
0.00014018
0.000131883
0.000122831
0.000113357
0.000103847
9.47678e-05
8.6642e-05
7.97721e-05
7.41612e-05
6.97028e-05
6.62298e-05
6.3505e-05
6.12076e-05
5.89398e-05
5.62724e-05
5.28922e-05
4.88941e-05
4.46998e-05
4.02125e-05
3.53831e-05
1.22875e-05
5.22531e-05
8.73369e-05
0.000115211
0.000135068
0.000148577
0.000157868
0.000164238
0.000168303
0.000170352
0.000170506
0.000168808
0.000165288
0.00016002
0.000153151
0.000144909
0.000135588
0.000125534
0.000115135
0.00010484
9.51973e-05
8.67763e-05
7.9765e-05
7.40813e-05
6.95926e-05
6.61497e-05
6.35666e-05
6.15863e-05
5.98524e-05
5.7917e-05
5.53606e-05
5.2096e-05
4.83374e-05
4.39184e-05
3.88533e-05
1.38624e-05
5.67369e-05
9.41751e-05
0.000123677
0.000144463
0.00015845
0.000167981
0.000174444
0.000178479
0.000180372
0.000180234
0.000178096
0.000173988
0.000167995
0.00016029
0.000151135
0.000140862
0.000129853
0.000118535
0.000107404
9.70718e-05
8.81689e-05
8.0836e-05
7.49312e-05
7.02902e-05
6.67605e-05
6.41874e-05
6.23713e-05
6.10119e-05
5.96701e-05
5.78415e-05
5.52529e-05
5.19187e-05
4.75969e-05
4.23532e-05
1.52353e-05
6.04824e-05
9.98653e-05
0.000130727
0.000152299
0.000166698
0.000176438
0.000182978
0.000186974
0.000188706
0.000188272
0.00018569
0.000180994
0.000174285
0.000165769
0.000155744
0.000144586
0.000132718
0.000120615
0.000108834
9.80699e-05
8.8984e-05
8.1604e-05
7.57163e-05
7.11164e-05
6.76444e-05
6.51644e-05
6.35261e-05
6.24876e-05
6.1638e-05
6.042e-05
5.84086e-05
5.54453e-05
5.12091e-05
4.58125e-05
1.68406e-05
6.47934e-05
0.000106341
0.000138657
0.000161029
0.000175831
0.000185768
0.000192371
0.000196313
0.000197868
0.000197125
0.000194097
0.000188821
0.000181414
0.000172108
0.000161233
0.000149197
0.000136463
0.00012354
0.000111035
9.97135e-05
9.02993e-05
8.27612e-05
7.6825e-05
7.2239e-05
6.88175e-05
6.64272e-05
6.4947e-05
6.41816e-05
6.37499e-05
6.30586e-05
6.15515e-05
5.89205e-05
5.47581e-05
4.91997e-05
1.82903e-05
6.84719e-05
0.000111816
0.000145364
0.000168439
0.000183617
0.000193752
0.000200434
0.000204344
0.000205749
0.000204725
0.000201279
0.000195452
0.000187383
0.000177328
0.000165654
0.000152803
0.000139275
0.00012562
0.000112506
0.000100777
9.1201e-05
8.3659e-05
7.78105e-05
7.33607e-05
7.00971e-05
6.78823e-05
6.6613e-05
6.61266e-05
6.60665e-05
6.58164e-05
6.47204e-05
6.23522e-05
5.82134e-05
5.24506e-05
1.99678e-05
7.26614e-05
0.00011799
0.000152832
0.000176593
0.000192112
0.000202417
0.000209151
0.000213004
0.000214237
0.000212915
0.000209042
0.000202667
0.000193946
0.000183159
0.000170697
0.000157034
0.000142697
0.000128273
0.000114474
0.000102216
9.23511e-05
8.47129e-05
7.89009e-05
7.45705e-05
7.14737e-05
6.94576e-05
6.84218e-05
6.82197e-05
6.85069e-05
6.86448e-05
6.78942e-05
6.57341e-05
6.15735e-05
5.55598e-05
2.15294e-05
7.63487e-05
0.000123359
0.000159313
0.000183691
0.000199544
0.000210034
0.000216848
0.000220679
0.000221777
0.000220196
0.000215939
0.000209062
0.000199739
0.000188274
0.000175085
0.000160672
0.000145594
0.000130467
0.000116057
0.000103351
9.32762e-05
8.5611e-05
7.98998e-05
7.57521e-05
7.28862e-05
7.11297e-05
7.03762e-05
7.04813e-05
7.11007e-05
7.15723e-05
7.1093e-05
6.9072e-05
6.4825e-05
5.84979e-05
2.32757e-05
8.04175e-05
0.000129239
0.000166345
0.000191319
0.000207474
0.000218125
0.000225
0.000228792
0.000229741
0.000227895
0.000223255
0.000215887
0.000205981
0.00019386
0.000179962
0.000164808
0.000148978
0.000133116
0.00011803
0.000104765
9.4364e-05
8.65857e-05
8.09227e-05
7.69369e-05
7.43078e-05
7.2835e-05
7.23942e-05
7.28283e-05
7.37786e-05
7.45528e-05
7.42935e-05
7.23575e-05
6.7969e-05
6.12726e-05
2.49357e-05
8.41025e-05
0.000134502
0.000172624
0.000198147
0.000214608
0.000225442
0.000232408
0.000236195
0.000237034
0.000234964
0.000229987
0.00022218
0.000211746
0.000199029
0.000184485
0.000168652
0.000152129
0.000135587
0.000119868
0.000106078
9.53683e-05
8.74897e-05
8.18899e-05
7.80879e-05
7.57265e-05
7.45752e-05
7.44843e-05
7.52724e-05
7.65532e-05
7.75985e-05
7.75062e-05
7.55972e-05
7.10055e-05
6.38783e-05
2.67347e-05
8.80511e-05
0.000140112
0.000179269
0.000205324
0.000222069
0.000233072
0.000240117
0.000243891
0.000244614
0.000242321
0.000237015
0.000228785
0.000217849
0.000204564
0.000189398
0.000172899
0.000155681
0.000138439
0.00012204
0.000107636
9.65092e-05
8.84462e-05
8.28542e-05
7.92091e-05
7.71134e-05
7.63001e-05
7.65849e-05
7.77495e-05
7.9367e-05
8.06649e-05
8.07028e-05
7.87773e-05
7.39344e-05
6.63272e-05
2.84695e-05
9.17124e-05
0.000145261
0.000185359
0.000211921
0.000228962
0.000240157
0.00024731
0.0002511
0.000251741
0.000249261
0.00024367
0.000235067
0.000223684
0.000209891
0.000194165
0.000177059
0.000159201
0.000141299
0.000124248
0.000109234
9.76647e-05
8.93894e-05
8.37853e-05
8.02912e-05
7.84705e-05
7.80172e-05
7.87056e-05
8.02706e-05
8.22332e-05
8.37686e-05
8.39028e-05
8.19162e-05
7.67696e-05
6.86276e-05
3.0305e-05
9.55467e-05
0.000150631
0.000191682
0.000218742
0.000236068
0.000247448
0.000254701
0.000258501
0.000259055
0.00025639
0.000250524
0.000241568
0.000229767
0.000215499
0.000199244
0.000181558
0.000163074
0.000144508
0.000126775
0.000111088
9.89717e-05
9.03958e-05
8.47149e-05
8.13335e-05
7.97748e-05
7.96882e-05
8.07982e-05
8.27823e-05
8.50984e-05
8.68618e-05
8.70691e-05
8.49927e-05
7.95075e-05
7.07919e-05
3.20939e-05
9.91662e-05
0.000155662
0.000197607
0.00022516
0.000242792
0.000254381
0.000261756
0.000265585
0.000266073
0.00026325
0.000257145
0.000247881
0.000235716
0.000221034
0.000204312
0.000186108
0.000167051
0.000147857
0.000129456
0.000113087
0.000100371
9.14388e-05
8.56356e-05
8.23395e-05
8.10353e-05
8.13251e-05
8.28763e-05
8.52993e-05
8.7979e-05
8.99658e-05
9.02286e-05
8.80287e-05
8.21644e-05
7.28333e-05
3.3953e-05
0.000102886
0.000160818
0.000203669
0.000231724
0.000249671
0.000261468
0.000268953
0.000272795
0.000273203
0.000270219
0.000263884
0.000254336
0.000241841
0.000226783
0.000209638
0.000190956
0.000171355
0.000151546
0.000132464
0.000115369
0.000101956
9.25733e-05
8.65717e-05
8.33088e-05
8.22335e-05
8.28974e-05
8.49035e-05
8.77853e-05
9.08429e-05
9.30492e-05
9.33455e-05
9.10133e-05
8.4745e-05
7.47627e-05
3.57783e-05
0.000106435
0.000165708
0.000209439
0.000238026
0.000256334
0.000268366
0.00027596
0.000279802
0.00028013
0.000276999
0.000270466
0.000260677
0.000247904
0.000232532
0.000215028
0.000195931
0.000175844
0.00015546
0.000135713
0.000117876
0.000103704
9.37993e-05
8.75331e-05
8.42551e-05
8.33831e-05
8.44163e-05
8.6886e-05
9.0238e-05
9.36783e-05
9.61066e-05
9.6464e-05
9.39441e-05
8.72466e-05
7.65905e-05
3.76498e-05
0.00011002
0.000170632
0.000215254
0.000244418
0.000263172
0.000275452
0.000283092
0.000286873
0.000287093
0.000283812
0.000277095
0.000267095
0.000254085
0.000238446
0.000220635
0.000201174
0.000180644
0.000159717
0.000139315
0.000120709
0.000105698
9.51751e-05
8.85551e-05
8.51917e-05
8.44793e-05
8.58656e-05
8.88052e-05
9.26485e-05
9.65002e-05
9.91802e-05
9.96235e-05
9.68717e-05
8.96905e-05
7.83268e-05
3.94958e-05
0.00011346
0.000175321
0.000220799
0.00025057
0.000269704
0.000282234
0.000290004
0.000293738
0.000293867
0.000290463
0.000283597
0.000273429
0.000260235
0.000244386
0.000226331
0.00020657
0.00018566
0.000164242
0.000143215
0.00012384
0.000107941
9.67255e-05
8.96707e-05
8.61511e-05
8.55487e-05
8.72632e-05
9.06681e-05
9.5008e-05
9.92748e-05
0.000102209
0.000102781
9.98337e-05
9.21033e-05
7.99817e-05
4.13696e-05
0.000116896
0.000179981
0.000226288
0.00025665
0.000276143
0.000288926
0.000296852
0.000300624
0.00030063
0.000297099
0.0002901
0.000279795
0.000266455
0.000250445
0.000232199
0.000212196
0.000190961
0.000169102
0.000147484
0.000127342
0.000110506
9.85137e-05
9.09291e-05
8.71653e-05
8.66063e-05
8.861e-05
9.24679e-05
9.73145e-05
0.000102031
0.000105303
0.000105964
0.000102809
9.44882e-05
8.15597e-05
4.32246e-05
0.000120216
0.000184459
0.000231561
0.000262466
0.000282298
0.000295333
0.000303427
0.00030726
0.00030719
0.000303571
0.000296479
0.000286078
0.000272639
0.000256522
0.000238144
0.000217961
0.000196469
0.000174232
0.000152075
0.000131197
0.000113414
0.000100581
9.23811e-05
8.82843e-05
8.76942e-05
8.9938e-05
9.42277e-05
9.95858e-05
0.00010478
0.000108428
0.000109169
0.00010579
9.68438e-05
8.3064e-05
4.50934e-05
0.0001235
0.000188882
0.000236825
0.000268175
0.000288317
0.000301602
0.000309881
0.000313813
0.000313727
0.000310008
0.000302828
0.000292354
0.000278852
0.000262671
0.000244212
0.000223908
0.00020222
0.000179669
0.000157032
0.000135458
0.000116735
0.000102994
9.40874e-05
8.95576e-05
8.88466e-05
9.12655e-05
9.59527e-05
0.000101817
0.000107505
0.00011155
0.000112375
0.000108763
9.91648e-05
8.44959e-05
4.69408e-05
0.000126649
0.000193075
0.000241798
0.000273586
0.000294045
0.000307592
0.00031607
0.000320124
0.000320068
0.000316266
0.000309032
0.000298526
0.000285006
0.00026881
0.000250323
0.000229956
0.000208137
0.000185343
0.000162299
0.000140096
0.000120478
0.00010579
9.61019e-05
9.10437e-05
9.01174e-05
9.26368e-05
9.76771e-05
0.000104033
0.000110221
0.000114673
0.000115582
0.000111725
0.00010145
8.58575e-05
4.87916e-05
0.000129749
0.000197181
0.000246652
0.000278853
0.000299616
0.000313421
0.000322103
0.000326289
0.00032628
0.000322422
0.000315165
0.000304658
0.000291154
0.000274982
0.000256512
0.000236134
0.000214243
0.000191274
0.000167894
0.000145134
0.000124682
0.000109018
9.84813e-05
9.27978e-05
9.15511e-05
9.40795e-05
9.9409e-05
0.000106223
0.000112904
0.000117766
0.000118763
0.000114658
0.000103693
8.71502e-05
5.06215e-05
0.000132734
0.000201095
0.000251266
0.000283858
0.000304921
0.000318989
0.000327886
0.000332226
0.000332291
0.000328414
0.00032116
0.00031068
0.000297224
0.000281114
0.000262705
0.000242366
0.000220462
0.000197385
0.000173748
0.000150512
0.000129306
0.000112673
0.000101253
9.48682e-05
9.32041e-05
9.56481e-05
0.000101197
0.00010843
0.000115584
0.000120847
0.000121925
0.000117565
0.000105893
8.83774e-05
5.24458e-05
0.000135659
0.000204904
0.000255737
0.000288698
0.000310048
0.000324373
0.000333487
0.000337991
0.000338158
0.000334303
0.000327062
0.000316627
0.000303247
0.000287233
0.000268927
0.000248674
0.000226811
0.000203687
0.000179864
0.000156232
0.000134346
0.000116767
0.00010444
9.72904e-05
9.51135e-05
9.73705e-05
0.000103051
0.000110644
0.00011825
0.000123892
0.000125051
0.000120435
0.000108048
8.95436e-05
5.42489e-05
0.000138488
0.000208553
0.000259997
0.000293299
0.000314924
0.000329503
0.000338837
0.000343516
0.000343806
0.000340025
0.000332797
0.000322428
0.000309155
0.000293275
0.000275112
0.00025499
0.000233219
0.00021011
0.000186171
0.000162224
0.000139745
0.000121273
0.000108048
0.000100094
9.73243e-05
9.92959e-05
0.000105019
0.000112913
0.000120962
0.000126926
0.000128144
0.000123265
0.000110158
9.06543e-05
5.60429e-05
0.000141262
0.000212106
0.000264115
0.000297727
0.00031961
0.000334435
0.000343986
0.000348839
0.000349257
0.000345557
0.000338373
0.000328103
0.000314972
0.000299261
0.000281278
0.000261329
0.000239697
0.000216656
0.000192667
0.000168481
0.000145491
0.000126187
0.000112087
0.000103302
9.98677e-05
0.000101457
0.000107128
0.000115255
0.000123706
0.00012995
0.000131206
0.000126055
0.000112224
9.17164e-05
5.78133e-05
0.000143959
0.00021554
0.000268044
0.000301928
0.000324053
0.000339116
0.000348883
0.000353918
0.000354476
0.000350876
0.000343759
0.000333611
0.000320646
0.000305133
0.000287363
0.000267623
0.000246174
0.000223255
0.00019928
0.000174933
0.000151522
0.000131472
0.000116546
0.000106929
0.000102777
0.000103897
0.00010942
0.000117699
0.000126493
0.000132972
0.00013424
0.000128809
0.000114251
9.27364e-05
5.95618e-05
0.000146597
0.000218929
0.000271826
0.000305947
0.000328295
0.000343585
0.000353565
0.00035878
0.000359483
0.000355994
0.000348963
0.000338962
0.000326189
0.000310902
0.000293375
0.000273879
0.000252651
0.000229899
0.000205996
0.000181561
0.000157815
0.000137108
0.000121415
0.00011098
0.000106073
0.000106641
0.000111918
0.000120261
0.00012933
0.000135997
0.000137252
0.000131529
0.000116243
9.37218e-05
6.12746e-05
0.000149103
0.000222113
0.000275386
0.000309729
0.000332292
0.000347805
0.000357993
0.000363387
0.000364235
0.000360869
0.000353948
0.000344117
0.000331559
0.00031652
0.000299262
0.000280038
0.000259066
0.000236524
0.000212746
0.000188293
0.000164303
0.000143043
0.000126662
0.000115448
0.000109771
0.000109724
0.000114661
0.000122971
0.000132234
0.000139032
0.000140245
0.000134218
0.000118202
9.46773e-05
6.29713e-05
0.000151549
0.000225198
0.000278794
0.000313328
0.00033609
0.000351818
0.000362211
0.000367786
0.000368785
0.000365545
0.000358738
0.000349084
0.000336765
0.000321998
0.000305034
0.000286108
0.000265421
0.000243125
0.000219519
0.000195109
0.000170957
0.000149244
0.00013226
0.000120315
0.000113871
0.000113159
0.000117671
0.000125852
0.000135225
0.000142094
0.00014323
0.000136885
0.000120136
9.56096e-05
6.46377e-05
0.000153893
0.000228109
0.000281988
0.000316694
0.000339643
0.000355577
0.000366169
0.000371921
0.000373074
0.000369972
0.000363302
0.000353843
0.000341765
0.000327289
0.000310643
0.000292039
0.000271663
0.000249647
0.000226255
0.000201946
0.000177712
0.000155654
0.000138162
0.000125556
0.000118368
0.00011696
0.000120971
0.000128929
0.000138319
0.000145192
0.000146213
0.000139533
0.000122047
9.65225e-05
6.6282e-05
0.000156155
0.000230892
0.000285019
0.000319875
0.000342997
0.000359127
0.000369911
0.000375835
0.00037714
0.000374178
0.000367655
0.000358405
0.000346586
0.000332406
0.000316087
0.000297829
0.000277789
0.000256079
0.000232939
0.000208783
0.00018454
0.000162235
0.000144329
0.000131137
0.000123243
0.000121127
0.000124578
0.000132222
0.000141538
0.000148347
0.000149211
0.000142173
0.000123944
9.7422e-05
6.78969e-05
0.000158317
0.000233516
0.000287849
0.000322831
0.000346111
0.000362425
0.000373391
0.000379483
0.000380938
0.000378122
0.000371758
0.00036273
0.000351185
0.000337316
0.000321333
0.000303429
0.000283749
0.000262373
0.000239518
0.000215564
0.000191383
0.000168935
0.000150713
0.000137018
0.000128469
0.000125652
0.000128497
0.000135746
0.000144896
0.000151567
0.000152229
0.000144809
0.000125828
9.83101e-05
6.94918e-05
0.000160401
0.000236013
0.000290518
0.000325605
0.000349028
0.000365514
0.000376652
0.000382902
0.000384502
0.000381831
0.000375634
0.000366835
0.000355571
0.000342025
0.000326392
0.00030885
0.000289535
0.000268517
0.000245978
0.000222267
0.000198213
0.000175715
0.000157273
0.00014316
0.000134019
0.00013052
0.00013273
0.000139516
0.000148415
0.000154875
0.000155285
0.000147454
0.000127707
9.91912e-05
7.10555e-05
0.000162385
0.000238354
0.000292991
0.000328161
0.00035171
0.000368354
0.000379654
0.000386053
0.000387793
0.000385268
0.000379246
0.000370684
0.00035971
0.000346495
0.000331221
0.000314054
0.000295117
0.000274465
0.00025227
0.000228842
0.000204975
0.000182523
0.000163958
0.000149519
0.000139855
0.000135707
0.000137268
0.000143531
0.0001521
0.000158275
0.000158385
0.000150111
0.000129583
0.000100065
7.25966e-05
0.00016429
0.00024057
0.000295308
0.000330538
0.000354198
0.000370988
0.000382436
0.000388975
0.000390848
0.000388464
0.00038262
0.000374299
0.000363617
0.000350736
0.000335827
0.000319043
0.000300493
0.00028022
0.000258384
0.000235275
0.00021165
0.000189331
0.000170732
0.000156053
0.000145942
0.000141191
0.000142102
0.0001478
0.000155967
0.000161788
0.000161544
0.000152793
0.000131462
0.000100934
7.41053e-05
0.000166096
0.000242634
0.000297435
0.000332704
0.000356459
0.000373379
0.000384964
0.000391632
0.00039363
0.000391387
0.000385727
0.00037765
0.000367264
0.00035472
0.000340178
0.00032378
0.000305624
0.000285742
0.000264281
0.000241521
0.000218192
0.000196094
0.000177551
0.00016272
0.000152237
0.000146933
0.000147208
0.000152309
0.000160013
0.000165411
0.000164763
0.000155498
0.000133342
0.000101796
7.55904e-05
0.000167824
0.000244576
0.00029941
0.000334697
0.000358531
0.000375569
0.000387278
0.000394063
0.000396178
0.000394071
0.000388596
0.000380763
0.000370672
0.000358464
0.000344288
0.000328276
0.000310516
0.00029103
0.000269956
0.000247566
0.000224589
0.000202788
0.000184384
0.000169486
0.000158708
0.000152908
0.000152568
0.000157053
0.000164244
0.000169157
0.000168054
0.000158236
0.000135229
0.000102652
7.70418e-05
0.000169455
0.000246371
0.000301203
0.000336486
0.000360383
0.000377525
0.000389346
0.000396238
0.000398461
0.000396488
0.000391202
0.000383616
0.00037382
0.000361945
0.000348133
0.000332505
0.000315141
0.000296053
0.000275375
0.000253373
0.000230773
0.00020936
0.000191184
0.000176307
0.000165315
0.00015908
0.000158154
0.000162014
0.000168649
0.000173022
0.000171415
0.000161006
0.00013712
0.000103497
7.84662e-05
0.000171008
0.000248046
0.000302848
0.00033811
0.000362055
0.000379287
0.000391207
0.000398195
0.000400519
0.000398674
0.000393578
0.000386238
0.000376734
0.00036519
0.000351736
0.000336486
0.000319512
0.000300822
0.000280544
0.000258948
0.000236764
0.000215798
0.000197922
0.000183145
0.00017202
0.000165416
0.000163941
0.000167174
0.00017322
0.000177005
0.000174851
0.000163812
0.000139017
0.000104333
7.98532e-05
0.000172464
0.000249578
0.000304317
0.000339538
0.000363517
0.000380827
0.000392834
0.000399908
0.000402324
0.000400605
0.000395704
0.00038861
0.000379398
0.000368181
0.000355081
0.000340205
0.000323617
0.000305321
0.000285446
0.000264268
0.000242534
0.000222077
0.000204573
0.00018997
0.000178788
0.000171884
0.000169903
0.00017252
0.000177949
0.000181098
0.000178354
0.000166648
0.000140914
0.000105154
8.12084e-05
0.000173841
0.000250993
0.000305645
0.000340808
0.000364808
0.000382182
0.000394266
0.000401415
0.000403916
0.000402319
0.000397613
0.000390766
0.000381842
0.000370947
0.000358195
0.000343684
0.000327475
0.000309568
0.000290094
0.000269341
0.000248081
0.000228184
0.000211101
0.000196745
0.000185581
0.000178443
0.000175999
0.000178002
0.000182809
0.000185293
0.000181926
0.000169517
0.000142818
0.000105966
8.25221e-05
0.000175122
0.00025227
0.000306806
0.000341894
0.000365901
0.000383328
0.000395477
0.000402691
0.00040527
0.000403794
0.00039929
0.00039269
0.000384053
0.000373478
0.000361069
0.000346919
0.000331082
0.000313559
0.000294486
0.000274165
0.000253402
0.000234113
0.000217504
0.000203448
0.000192367
0.000185061
0.000182212
0.000183656
0.000187795
0.000189578
0.000185554
0.000172414
0.000144724
0.00010677
8.38007e-05
0.000176327
0.000253437
0.000307834
0.000342832
0.000366833
0.000384301
0.000396503
0.000403774
0.000406423
0.000405067
0.000400765
0.000394413
0.000386062
0.0003758
0.000363729
0.000349932
0.00033446
0.000317315
0.000298639
0.000278755
0.000258507
0.000239866
0.000223773
0.000210067
0.000199128
0.000191721
0.000188528
0.000189455
0.000192904
0.000193951
0.000189241
0.00017534
0.000146637
0.000107571
8.50356e-05
0.000177439
0.000254472
0.000308705
0.000343596
0.00036758
0.000385079
0.000397325
0.000404642
0.000407358
0.000406119
0.000402027
0.000395926
0.000387858
0.000377909
0.000366171
0.000352723
0.000337612
0.000320841
0.000302562
0.00028312
0.000263406
0.000245445
0.0002299
0.000216582
0.000205834
0.000198384
0.000194904
0.000195353
0.000198109
0.000198398
0.000192978
0.000178291
0.000148557
0.000108371
8.62342e-05
0.000178479
0.000255404
0.000309452
0.000344223
0.000368177
0.000385696
0.000397976
0.000405331
0.000408106
0.000406985
0.000403105
0.000397254
0.000389469
0.000379828
0.000368417
0.000355312
0.000340557
0.000324155
0.000306272
0.000287279
0.000268118
0.000250863
0.000235893
0.000222996
0.000212482
0.000205038
0.00020132
0.000201327
0.000203393
0.000202912
0.000196763
0.000181269
0.000150487
0.000109174
8.73892e-05
0.000179431
0.000256212
0.000310052
0.000344689
0.000368603
0.000386132
0.000398438
0.000405825
0.000408655
0.000407651
0.000403989
0.00039839
0.000390888
0.000381553
0.000370468
0.000357703
0.000343301
0.000327269
0.000309785
0.000291251
0.000272664
0.000256136
0.000241756
0.000229301
0.000219049
0.000211649
0.000207742
0.000207346
0.000208738
0.000207483
0.000200595
0.000184279
0.000152436
0.000109985
8.85089e-05
0.000180317
0.000256925
0.000310537
0.000345026
0.00036889
0.000386421
0.000398743
0.000406153
0.000409033
0.000408146
0.000404705
0.00039936
0.000392136
0.000383104
0.00037234
0.000359911
0.000345859
0.000330197
0.000313118
0.000295059
0.000277078
0.000261284
0.000247505
0.000235505
0.00022554
0.000218221
0.000214156
0.000213388
0.000214122
0.0002121
0.000204469
0.000187323
0.000154415
0.000110804
8.95867e-05
0.000181119
0.000257522
0.000310884
0.000345214
0.000369019
0.000386543
0.000398874
0.000406303
0.00040923
0.000408462
0.000405249
0.000400158
0.000393214
0.000384482
0.000374036
0.00036194
0.00034824
0.000332952
0.000316292
0.000298732
0.000281405
0.00026634
0.000253157
0.000241615
0.000231948
0.000224731
0.000220539
0.000219433
0.000219535
0.000216756
0.000208384
0.000190402
0.000156426
0.000111632
9.06303e-05
0.000181858
0.000258028
0.000311123
0.000345282
0.000369019
0.000386528
0.000398862
0.000406303
0.000409275
0.000408626
0.000405644
0.000400807
0.000394139
0.000385702
0.000375569
0.000363803
0.000350452
0.000335545
0.000319317
0.000302291
0.000285675
0.000271326
0.00025873
0.000247643
0.00023828
0.000231181
0.000226888
0.00022546
0.00022495
0.000221433
0.000212326
0.000193505
0.000158455
0.000112466
9.16338e-05
0.00018252
0.000258425
0.000311233
0.000345211
0.000368872
0.000386361
0.000398693
0.000406142
0.000409159
0.000408634
0.000405889
0.000401309
0.000394915
0.000386769
0.000376944
0.000365505
0.000352502
0.000337979
0.000322198
0.000305734
0.000289882
0.000276243
0.000264226
0.00025359
0.000244532
0.000237562
0.000233188
0.000231468
0.000230369
0.000226127
0.000216293
0.00019663
0.000160496
0.000113302
9.26035e-05
0.00018312
0.000258736
0.00031124
0.000345026
0.000368604
0.000386068
0.000398392
0.000405848
0.00040891
0.000408511
0.000406008
0.000401683
0.000395559
0.000387699
0.000378176
0.000367057
0.000354399
0.00034026
0.000324934
0.000309055
0.000294007
0.000281078
0.000269643
0.000259457
0.000250707
0.000243872
0.000239431
0.000237441
0.000235762
0.000230822
0.000220272
0.000199768
0.000162546
0.000114139
9.35347e-05
0.000183647
0.000258943
0.000311126
0.000344711
0.000368201
0.000385634
0.000397949
0.000405412
0.000408524
0.000408259
0.000406004
0.000401935
0.000396078
0.000388499
0.000379272
0.000368468
0.000356152
0.000342396
0.000327531
0.000312252
0.000298032
0.000285817
0.000274966
0.000265235
0.000256796
0.000250105
0.00024561
0.000243372
0.000241143
0.00023551
0.000224257
0.000202913
0.000164598
0.000114968
9.4432e-05
0.000184114
0.000259068
0.000310913
0.000344288
0.000367683
0.000385081
0.000397384
0.000404856
0.000408026
0.000407904
0.000405902
0.000402086
0.00039649
0.000389186
0.000380249
0.000369754
0.000357774
0.000344401
0.000330001
0.000315335
0.000301958
0.000290459
0.000280195
0.000270923
0.000262801
0.000256259
0.000251719
0.00024925
0.000246488
0.000240189
0.000228238
0.000206058
0.000166649
0.00011579
9.52919e-05
0.000184513
0.000259096
0.000310587
0.000343742
0.000367036
0.000384396
0.000396687
0.000404173
0.000407415
0.000407458
0.00040571
0.000402142
0.000396803
0.000389768
0.000381118
0.000370928
0.000359283
0.000346291
0.00033236
0.000318319
0.00030579
0.000295005
0.000285325
0.000276513
0.000268714
0.000262331
0.000257762
0.000255078
0.000251802
0.000244855
0.000232219
0.000209202
0.000168694
0.000116607
9.61182e-05
0.000184856
0.000259046
0.000310165
0.000343091
0.000366279
0.000383595
0.00039587
0.000403375
0.00040671
0.000406969
0.000405445
0.000402113
0.000397027
0.000390261
0.000381895
0.00037201
0.000360697
0.000348091
0.000334638
0.000321238
0.000309555
0.000299473
0.000290368
0.00028201
0.000274532
0.000268313
0.000263723
0.00026084
0.000257067
0.000249491
0.000236183
0.000212333
0.000170728
0.000117418
9.69083e-05
0.000185137
0.000258907
0.000309637
0.000342323
0.000365398
0.000382666
0.000394923
0.000402443
0.000405872
0.000406355
0.000405069
0.000401989
0.000397165
0.000390673
0.000382594
0.000373015
0.00036204
0.000349827
0.000336867
0.000324137
0.000313278
0.000303879
0.000295334
0.00028742
0.000280261
0.000274209
0.000269607
0.000266542
0.000262289
0.000254103
0.000240134
0.000215456
0.000172758
0.000118223
9.76655e-05
0.000185363
0.00025869
0.000309013
0.00034145
0.000364406
0.000381623
0.00039386
0.000401402
0.000404936
0.000405661
0.000404623
0.000401797
0.000397236
0.000391019
0.00038323
0.000373962
0.000363333
0.000351528
0.00033909
0.000327074
0.000317005
0.000308258
0.000300247
0.000292757
0.000285904
0.000280016
0.000275411
0.000272174
0.000267458
0.00025868
0.000244065
0.000218565
0.000174779
0.00011902
9.83875e-05
0.00018553
0.000258387
0.000308284
0.00034046
0.00036329
0.000380452
0.000392668
0.000400232
0.000403882
0.000404864
0.000404087
0.000401527
0.00039724
0.000391305
0.00038381
0.000374859
0.000364585
0.000353207
0.000341323
0.000330072
0.000320756
0.000312627
0.000305123
0.000298037
0.000291474
0.000285737
0.000281121
0.000277732
0.000272573
0.000263227
0.000247978
0.000221664
0.000176794
0.000119813
9.90772e-05
0.000185644
0.000258006
0.000307456
0.00033936
0.000362058
0.000379162
0.000391356
0.00039895
0.000402728
0.000403984
0.00040348
0.000401196
0.000397188
0.00039154
0.000384344
0.000375715
0.000365805
0.000354869
0.000343566
0.00033312
0.000324527
0.000316989
0.000309968
0.000303265
0.000296978
0.00029139
0.000286795
0.000283223
0.000277631
0.000267734
0.000251868
0.000224749
0.000178803
0.000120602
9.97339e-05
0.000185702
0.000257539
0.000306521
0.000338139
0.000360698
0.000377739
0.000389912
0.000397541
0.000401461
0.00040301
0.000402796
0.0004008
0.000397083
0.000391728
0.000384838
0.000376535
0.000366996
0.000356513
0.000345809
0.000336189
0.0003283
0.000321335
0.00031478
0.000308449
0.000302433
0.000297003
0.000292458
0.000288675
0.000282646
0.00027221
0.00025574
0.000227825
0.000180807
0.000121389
0.00010036
0.000185706
0.000256991
0.000305482
0.000336801
0.000359213
0.000376188
0.00038834
0.000396012
0.000400088
0.000401949
0.000402039
0.000400344
0.000396926
0.000391876
0.000385299
0.000377331
0.000368172
0.000358152
0.000348062
0.000339273
0.000332071
0.000325661
0.000319558
0.000313587
0.000307838
0.00030257
0.000298087
0.000294085
0.000287619
0.000276656
0.000259592
0.000230889
0.000182806