/*--------------------------------*- C++ -*----------------------------------*\
| =========                 |                                                 |
| \\      /  F ield         | OpenFOAM: The Open Source CFD Toolbox           |
|  \\    /   O peration     | Version:  v2006                                 |
|   \\  /    A nd           | Website:  www.openfoam.com                      |
|    \\/     M anipulation  |                                                 |
\*---------------------------------------------------------------------------*/
FoamFile
{
    version     2.0;
    format      ascii;
    class       surfaceScalarField;
    location    "64";
    object      phi;
}
// * * * * * * * * * * * * * * * * * * * * * * * * * * * * * * * * * * * * * //

dimensions      [1 0 -1 0 0 0 0];
oriented        oriented;


internalField   nonuniform List<scalar> 
228225
(
1.89011e-07
-1.88557e-07
2.52185e-08
5.27918e-07
-4.12108e-07
7.28913e-08
9.72808e-07
-5.58957e-07
1.13708e-07
1.49921e-06
-6.72819e-07
1.46059e-07
2.09868e-06
-7.69836e-07
1.70004e-07
2.76532e-06
-8.53766e-07
1.86775e-07
3.49086e-06
-9.2384e-07
1.97936e-07
4.26378e-06
-9.78209e-07
2.04928e-07
5.06986e-06
-1.01531e-06
2.08875e-07
5.89322e-06
-1.03428e-06
2.10572e-07
6.71716e-06
-1.03481e-06
2.10538e-07
7.52479e-06
-1.01704e-06
2.09108e-07
8.29968e-06
-9.81622e-07
2.06451e-07
9.02634e-06
-9.29558e-07
2.02643e-07
9.69032e-06
-8.61921e-07
1.97712e-07
1.02783e-05
-7.7981e-07
1.91659e-07
1.0778e-05
-6.84382e-07
1.84478e-07
1.11786e-05
-5.76899e-07
1.76169e-07
1.14705e-05
-4.58785e-07
1.66748e-07
1.16459e-05
-3.31727e-07
1.56298e-07
1.16988e-05
-1.97879e-07
1.44938e-07
1.16272e-05
-6.11502e-08
1.32768e-07
1.14231e-05
8.42983e-08
1.19925e-07
1.10832e-05
2.3338e-07
1.06635e-07
1.06133e-05
3.76912e-07
9.32148e-08
1.00203e-05
5.13149e-07
8.00608e-08
9.31376e-06
6.39169e-07
6.76403e-08
8.50476e-06
7.52873e-07
5.64694e-08
7.60312e-06
8.55211e-07
4.68159e-08
6.61071e-06
9.53842e-07
3.90036e-08
5.50739e-06
1.07053e-06
3.32882e-08
4.23504e-06
1.24357e-06
2.93526e-08
2.73171e-06
1.47868e-06
2.52039e-08
1.10417e-06
1.61063e-06
1.73008e-08
1.099e-06
5.26192e-09
1.16023e-07
-3.35678e-07
3.11863e-08
4.42486e-07
-8.20473e-07
8.18611e-08
9.4311e-07
-1.18041e-06
1.20733e-07
1.58148e-06
-1.46128e-06
1.49961e-07
2.3213e-06
-1.6813e-06
1.71484e-07
3.12831e-06
-1.84812e-06
1.87142e-07
3.97197e-06
-1.96623e-06
1.98517e-07
4.8262e-06
-2.03951e-06
2.06835e-07
5.66925e-06
-2.07158e-06
2.12956e-07
6.48342e-06
-2.06614e-06
2.1741e-07
7.25459e-06
-2.02673e-06
2.20469e-07
7.97131e-06
-1.95642e-06
2.22342e-07
8.62368e-06
-1.85751e-06
2.23196e-07
9.20288e-06
-1.73214e-06
2.23063e-07
9.70109e-06
-1.58239e-06
2.2192e-07
1.01114e-05
-1.41013e-06
2.19699e-07
1.04275e-05
-1.21717e-06
2.16297e-07
1.06442e-05
-1.00546e-06
2.11582e-07
1.07569e-05
-7.77196e-07
2.05402e-07
1.07624e-05
-5.3514e-07
1.97579e-07
1.06584e-05
-2.81974e-07
1.87919e-07
1.04406e-05
-1.98332e-08
1.76233e-07
1.01134e-05
2.49054e-07
1.62389e-07
9.68103e-06
5.19343e-07
1.4634e-07
9.14495e-06
7.84863e-07
1.28172e-07
8.51145e-06
1.0386e-06
1.08186e-07
7.78974e-06
1.27422e-06
8.68985e-08
6.98903e-06
1.48888e-06
6.503e-08
6.11375e-06
1.68739e-06
4.34911e-08
5.15765e-06
1.88711e-06
2.3273e-08
4.10064e-06
2.12257e-06
5.40525e-09
2.92462e-06
2.42651e-06
-6.55282e-09
1.68238e-06
2.73287e-06
-1.17405e-08
5.67679e-07
2.73626e-06
-1.10036e-08
1.67155e-06
-5.24268e-09
1.16757e-07
-4.8972e-07
3.71648e-08
4.68837e-07
-1.26284e-06
9.04933e-08
1.02022e-06
-1.85873e-06
1.27117e-07
1.7145e-06
-2.30725e-06
1.51833e-07
2.4926e-06
-2.6276e-06
1.68315e-07
3.30589e-06
-2.84078e-06
1.79481e-07
4.11982e-06
-2.96748e-06
1.87395e-07
4.91116e-06
-3.02416e-06
1.93385e-07
5.6643e-06
-3.02289e-06
1.98245e-07
6.36804e-06
-2.97214e-06
2.02331e-07
7.01386e-06
-2.8784e-06
2.05917e-07
7.59461e-06
-2.74632e-06
2.09212e-07
8.10443e-06
-2.57959e-06
2.12313e-07
8.5386e-06
-2.38153e-06
2.15264e-07
8.89375e-06
-2.15559e-06
2.18064e-07
9.16709e-06
-1.90415e-06
2.20681e-07
9.35568e-06
-1.62878e-06
2.23004e-07
9.45704e-06
-1.33171e-06
2.24848e-07
9.46923e-06
-1.01539e-06
2.2596e-07
9.39087e-06
-6.82738e-07
2.259e-07
9.22128e-06
-3.3668e-07
2.24234e-07
8.96558e-06
1.52792e-08
2.20538e-07
8.61153e-06
3.88838e-07
2.14225e-07
8.16716e-06
7.59096e-07
2.04614e-07
7.63795e-06
1.12305e-06
1.91064e-07
7.0325e-06
1.47099e-06
1.73169e-07
6.36143e-06
1.79454e-06
1.50936e-07
5.63403e-06
2.09166e-06
1.2486e-07
4.85382e-06
2.37205e-06
9.58458e-08
4.01445e-06
2.66169e-06
6.51098e-08
3.10389e-06
2.99881e-06
3.45944e-08
2.13259e-06
3.3901e-06
7.85019e-09
1.17634e-06
3.69663e-06
-7.6205e-09
3.74312e-07
3.54829e-06
-1.04066e-08
2.04912e-06
-3.97398e-09
1.52987e-07
-6.81034e-07
3.8327e-08
5.46901e-07
-1.74343e-06
8.67634e-08
1.10873e-06
-2.5365e-06
1.16044e-07
1.76615e-06
-3.09831e-06
1.33741e-07
2.45756e-06
-3.46358e-06
1.4466e-07
3.14385e-06
-3.67884e-06
1.51839e-07
3.80553e-06
-3.78609e-06
1.56975e-07
4.43414e-06
-3.81365e-06
1.60918e-07
5.02502e-06
-3.77784e-06
1.64102e-07
5.57385e-06
-3.68773e-06
1.66791e-07
6.07637e-06
-3.55002e-06
1.69124e-07
6.52896e-06
-3.37016e-06
1.71271e-07
6.92838e-06
-3.15239e-06
1.73405e-07
7.27067e-06
-2.89945e-06
1.75661e-07
7.55129e-06
-2.61429e-06
1.78101e-07
7.76602e-06
-2.29971e-06
1.80871e-07
7.91099e-06
-1.95786e-06
1.8414e-07
7.98299e-06
-1.59162e-06
1.87944e-07
7.97947e-06
-1.20405e-06
1.92211e-07
7.89811e-06
-7.98113e-07
1.9677e-07
7.73686e-06
-3.76652e-07
2.01265e-07
7.48962e-06
5.74368e-08
2.05133e-07
7.17091e-06
5.00034e-07
2.07581e-07
6.77788e-06
9.44715e-07
2.07481e-07
6.31519e-06
1.3823e-06
2.03545e-07
5.78969e-06
1.80205e-06
1.94571e-07
5.20924e-06
2.1954e-06
1.79755e-07
4.57996e-06
2.56222e-06
1.5892e-07
3.90283e-06
2.91697e-06
1.32435e-07
3.17324e-06
3.29045e-06
1.01052e-07
2.39051e-06
3.7151e-06
6.65932e-08
1.58435e-06
4.1624e-06
3.38542e-08
8.32694e-07
4.43785e-06
1.0169e-08
2.44059e-07
4.13666e-06
-3.24041e-10
2.2918e-06
4.83955e-10
1.38736e-07
-8.54022e-07
3.43822e-08
4.91107e-07
-2.16976e-06
7.39398e-08
9.79311e-07
-3.12129e-06
9.65972e-08
1.532e-06
-3.76134e-06
1.10379e-07
2.09782e-06
-4.14861e-06
1.19248e-07
2.65119e-06
-4.35728e-06
1.25111e-07
3.18337e-06
-4.44702e-06
1.28792e-07
3.69169e-06
-4.45269e-06
1.30761e-07
4.17311e-06
-4.3905e-06
1.31274e-07
4.62467e-06
-4.26996e-06
1.30703e-07
5.04374e-06
-4.09856e-06
1.29485e-07
5.42673e-06
-3.88119e-06
1.28051e-07
5.76801e-06
-3.62044e-06
1.26777e-07
6.06107e-06
-3.31857e-06
1.26078e-07
6.29856e-06
-2.97811e-06
1.26327e-07
6.474e-06
-2.60296e-06
1.27815e-07
6.58329e-06
-2.19794e-06
1.30791e-07
6.62462e-06
-1.76834e-06
1.354e-07
6.59835e-06
-1.31946e-06
1.4169e-07
6.50665e-06
-8.55944e-07
1.49547e-07
6.35288e-06
-3.81515e-07
1.58663e-07
6.14099e-06
1.00879e-07
1.68484e-07
5.87481e-06
5.8813e-07
1.78135e-07
5.55737e-06
1.07585e-06
1.86364e-07
5.19087e-06
1.55732e-06
1.91569e-07
4.77676e-06
2.02426e-06
1.92007e-07
4.31549e-06
2.47062e-06
1.8617e-07
3.80558e-06
2.89917e-06
1.73111e-07
3.24284e-06
3.32742e-06
1.52431e-07
2.62314e-06
3.78605e-06
1.24216e-07
1.95415e-06
4.29399e-06
9.01104e-08
1.27625e-06
4.78457e-06
5.55534e-08
6.58475e-07
5.02632e-06
2.88545e-08
1.87836e-07
4.59236e-06
1.41826e-08
2.47177e-06
6.81684e-09
1.31886e-07
-1.01371e-06
2.78991e-08
4.46907e-07
-2.54508e-06
6.03543e-08
8.67922e-07
-3.62225e-06
8.00078e-08
1.33401e-06
-4.32015e-06
9.27915e-08
1.80613e-06
-4.72173e-06
1.01055e-07
2.26811e-06
-4.92495e-06
1.05745e-07
2.71591e-06
-5.00207e-06
1.07302e-07
3.14812e-06
-4.99104e-06
1.06199e-07
3.5625e-06
-4.90779e-06
1.02951e-07
3.95703e-06
-4.76258e-06
9.81354e-08
4.32848e-06
-4.56227e-06
9.23256e-08
4.67061e-06
-4.30928e-06
8.60176e-08
4.97528e-06
-4.00478e-06
7.97185e-08
5.23428e-06
-3.65145e-06
7.39399e-08
5.44061e-06
-3.25361e-06
6.92197e-08
5.58904e-06
-2.8174e-06
6.60689e-08
5.6766e-06
-2.35042e-06
6.49845e-08
5.70276e-06
-1.86084e-06
6.63926e-08
5.6693e-06
-1.35653e-06
7.05984e-08
5.57983e-06
-8.44163e-07
7.77451e-08
5.43926e-06
-3.2868e-07
8.77924e-08
5.25316e-06
1.86608e-07
1.00424e-07
5.02694e-06
6.99454e-07
1.14956e-07
4.76479e-06
1.20784e-06
1.30232e-07
4.46845e-06
1.70916e-06
1.44572e-07
4.13637e-06
2.20054e-06
1.55885e-07
3.76347e-06
2.68163e-06
1.61988e-07
3.34171e-06
3.16005e-06
1.60962e-07
2.86211e-06
3.6559e-06
1.512e-07
2.32019e-06
4.19627e-06
1.31735e-07
1.72839e-06
4.78221e-06
1.03521e-07
1.13085e-06
5.3104e-06
7.14412e-08
5.86958e-07
5.52596e-06
4.37301e-08
1.71623e-07
4.98228e-06
2.45983e-08
2.6324e-06
9.86585e-09
1.08325e-07
-1.1447e-06
2.26929e-08
3.68914e-07
-2.85567e-06
5.01048e-08
7.17923e-07
-4.03913e-06
6.79441e-08
1.10598e-06
-4.78843e-06
8.02712e-08
1.50224e-06
-5.20629e-06
8.83355e-08
1.89409e-06
-5.40946e-06
9.26827e-08
2.27797e-06
-5.47969e-06
9.37599e-08
2.65203e-06
-5.45722e-06
9.21233e-08
3.01471e-06
-5.35884e-06
8.83908e-08
3.36344e-06
-5.19434e-06
8.30509e-08
3.69287e-06
-4.96818e-06
7.64981e-08
3.99599e-06
-4.68146e-06
6.90767e-08
4.26595e-06
-4.33588e-06
6.1168e-08
4.49601e-06
-3.93472e-06
5.32349e-08
4.68043e-06
-3.48383e-06
4.58341e-08
4.8151e-06
-2.99153e-06
3.94844e-08
4.89797e-06
-2.4679e-06
3.46464e-08
4.92899e-06
-1.92362e-06
3.17934e-08
4.9098e-06
-1.36871e-06
3.14114e-08
4.84331e-06
-8.11572e-07
3.3935e-08
4.73333e-06
-2.58349e-07
3.96899e-08
4.58439e-06
2.86773e-07
4.88217e-08
4.40105e-06
8.21648e-07
6.11908e-08
4.18667e-06
1.34603e-06
7.62363e-08
3.94236e-06
1.86075e-06
9.27754e-08
3.66565e-06
2.36833e-06
1.08971e-07
3.34984e-06
2.875e-06
1.22486e-07
2.98484e-06
3.39438e-06
1.30727e-07
2.56033e-06
3.94939e-06
1.3105e-07
2.07286e-06
4.56241e-06
1.21305e-07
1.53804e-06
5.21566e-06
1.01217e-07
1.0007e-06
5.77292e-06
7.44652e-08
5.14382e-07
5.96329e-06
4.83783e-08
1.4886e-07
5.31942e-06
2.74952e-08
2.77035e-06
9.73741e-09
9.35516e-08
-1.25719e-06
1.89629e-08
3.18256e-07
-3.12457e-06
4.4252e-08
6.21317e-07
-4.40461e-06
6.24809e-08
9.61702e-07
-5.20469e-06
7.59313e-08
1.31302e-06
-5.64257e-06
8.50164e-08
1.66378e-06
-5.85017e-06
8.99902e-08
2.0101e-06
-5.91723e-06
9.12714e-08
2.34982e-06
-5.88638e-06
8.94792e-08
2.6813e-06
-5.77565e-06
8.53729e-08
3.00078e-06
-5.5933e-06
7.95117e-08
3.30262e-06
-5.34223e-06
7.22502e-08
3.58088e-06
-5.02358e-06
6.39047e-08
3.82929e-06
-4.63906e-06
5.48262e-08
4.04198e-06
-4.19285e-06
4.54855e-08
4.21417e-06
-3.69236e-06
3.63993e-08
4.34256e-06
-3.14794e-06
2.80757e-08
4.4255e-06
-2.5718e-06
2.0996e-08
4.46308e-06
-1.97669e-06
1.55545e-08
4.45686e-06
-1.37459e-06
1.21425e-08
4.40958e-06
-7.75462e-07
1.12208e-08
4.32484e-06
-1.86784e-07
1.32251e-08
4.2065e-06
3.86659e-07
1.8503e-08
4.05819e-06
9.42741e-07
2.72575e-08
3.88244e-06
1.48239e-06
3.94346e-08
3.67904e-06
2.00968e-06
5.45033e-08
3.44397e-06
2.53216e-06
7.12883e-08
3.16882e-06
3.0623e-06
8.78895e-08
2.84183e-06
3.61966e-06
1.01719e-07
2.45169e-06
4.22991e-06
1.09615e-07
1.99532e-06
4.91033e-06
1.08375e-07
1.48961e-06
5.62489e-06
9.62724e-08
9.78467e-07
6.20832e-06
7.53214e-08
5.11294e-07
6.37818e-06
5.15977e-08
1.53398e-07
5.64648e-06
2.98957e-08
2.91253e-06
9.99402e-09
8.43461e-08
-1.35813e-06
1.66438e-08
2.88002e-07
-3.36881e-06
4.06123e-08
5.6373e-07
-4.73906e-06
5.87647e-08
8.74646e-07
-5.58792e-06
7.23648e-08
1.19674e-06
-6.04621e-06
8.15883e-08
1.51933e-06
-6.2595e-06
8.67827e-08
1.8385e-06
-6.32486e-06
8.84934e-08
2.15191e-06
-6.28711e-06
8.7355e-08
2.45705e-06
-6.16476e-06
8.40009e-08
2.75023e-06
-5.96532e-06
7.88743e-08
3.02697e-06
-5.6912e-06
7.22671e-08
3.28215e-06
-5.34311e-06
6.43839e-08
3.51053e-06
-4.92288e-06
5.54817e-08
3.70728e-06
-4.43549e-06
4.59151e-08
3.86852e-06
-3.88965e-06
3.60922e-08
3.99141e-06
-3.29725e-06
2.64576e-08
4.07427e-06
-2.67211e-06
1.74892e-08
4.11657e-06
-2.02861e-06
9.65626e-09
4.11897e-06
-1.38033e-06
3.38433e-09
4.0832e-06
-7.38769e-07
-8.70063e-10
4.01193e-06
-1.12755e-07
-2.72043e-09
3.90869e-06
4.91444e-07
-1.50063e-09
3.77706e-06
1.07138e-06
3.04611e-09
3.61957e-06
1.62874e-06
1.11839e-08
3.43613e-06
2.17015e-06
2.30055e-08
3.22279e-06
2.70759e-06
3.79292e-08
2.97106e-06
3.25937e-06
5.46827e-08
2.66886e-06
3.85077e-06
7.10915e-08
2.30456e-06
4.51019e-06
8.39702e-08
1.87533e-06
5.24995e-06
8.94869e-08
1.39831e-06
6.01697e-06
8.46742e-08
9.16028e-07
6.62028e-06
6.98366e-08
4.75583e-07
6.76839e-06
4.95031e-08
1.413e-07
5.95121e-06
2.85666e-08
3.04372e-06
8.85011e-09
7.57521e-08
-1.45e-06
1.61841e-08
2.61689e-07
-3.5955e-06
4.07938e-08
5.16204e-07
-5.05346e-06
5.99286e-08
8.05292e-07
-5.95139e-06
7.44222e-08
1.10634e-06
-6.43159e-06
8.43739e-08
1.40888e-06
-6.65216e-06
9.01508e-08
1.7088e-06
-6.71711e-06
9.23729e-08
2.0035e-06
-6.67356e-06
9.17833e-08
2.29015e-06
-6.54042e-06
8.90539e-08
2.56512e-06
-6.32493e-06
8.46787e-08
2.82416e-06
-6.02911e-06
7.89112e-08
3.06266e-06
-5.65347e-06
7.18976e-08
3.27619e-06
-5.2002e-06
6.38361e-08
3.46089e-06
-4.67511e-06
5.49739e-08
3.61379e-06
-4.08808e-06
4.5588e-08
3.73279e-06
-3.45221e-06
3.60019e-08
3.81665e-06
-2.78251e-06
2.65923e-08
3.86484e-06
-2.0945e-06
1.77581e-08
3.87758e-06
-1.40288e-06
9.86865e-09
3.85578e-06
-7.20299e-07
3.38162e-09
3.80133e-06
-5.69413e-08
-1.31214e-09
3.71648e-06
5.80211e-07
-3.86509e-09
3.60376e-06
1.18753e-06
-3.39146e-09
3.46464e-06
1.76723e-06
6.75907e-10
3.29916e-06
2.32783e-06
7.83403e-09
3.10301e-06
2.88484e-06
1.89306e-08
2.86776e-06
3.46142e-06
3.32065e-08
2.58159e-06
4.0878e-06
4.91196e-08
2.23328e-06
4.79456e-06
6.3863e-08
1.82045e-06
5.58917e-06
7.3445e-08
1.36038e-06
6.4027e-06
7.40218e-08
8.941e-07
7.02165e-06
6.4356e-08
4.66472e-07
7.14785e-06
4.73767e-08
1.40028e-07
6.24895e-06
2.76675e-08
3.17416e-06
8.28196e-09
7.50906e-08
-1.5405e-06
1.54674e-08
2.56714e-07
-3.8168e-06
3.9746e-08
5.02941e-07
-5.35845e-06
5.88227e-08
7.80645e-07
-6.30232e-06
7.32618e-08
1.06826e-06
-6.80237e-06
8.31901e-08
1.35617e-06
-7.02909e-06
8.90599e-08
1.64059e-06
-7.09306e-06
9.15508e-08
1.91906e-06
-7.04342e-06
9.14156e-08
2.1888e-06
-6.89943e-06
8.92991e-08
2.44639e-06
-6.66815e-06
8.56566e-08
2.68792e-06
-6.35133e-06
8.07162e-08
2.90934e-06
-5.94945e-06
7.46016e-08
3.10684e-06
-5.46514e-06
6.74697e-08
3.27728e-06
-4.90501e-06
5.95045e-08
3.41827e-06
-4.27994e-06
5.09138e-08
3.52819e-06
-3.60401e-06
4.19324e-08
3.60604e-06
-2.89315e-06
3.28368e-08
3.65137e-06
-2.16372e-06
2.39408e-08
3.66426e-06
-1.43127e-06
1.55507e-08
3.64535e-06
-7.09376e-07
8.04075e-09
3.5956e-06
-9.10822e-09
1.9698e-09
3.51757e-06
6.60953e-07
-2.66605e-09
3.4132e-06
1.29699e-06
-5.03967e-09
3.28367e-06
1.90125e-06
-4.44863e-09
3.12777e-06
2.48381e-06
-4.46151e-11
2.94252e-06
3.06314e-06
6.96602e-09
2.71945e-06
3.66648e-06
1.80112e-08
2.44713e-06
4.32811e-06
3.19701e-08
2.11489e-06
5.08008e-06
4.66242e-08
1.72093e-06
5.92468e-06
5.82393e-08
1.28258e-06
6.77812e-06
6.25641e-08
8.39377e-07
7.40706e-06
5.71925e-08
4.34212e-07
7.50862e-06
4.35578e-08
1.28502e-07
6.52787e-06
2.57138e-08
3.29385e-06
7.47251e-09
7.07778e-08
-1.62733e-06
1.60857e-08
2.43935e-07
-4.03148e-06
4.1573e-08
4.79459e-07
-5.6554e-06
6.14675e-08
7.44853e-07
-6.64405e-06
7.63785e-08
1.0193e-06
-7.16338e-06
8.6597e-08
1.29364e-06
-7.3961e-06
9.27022e-08
1.56423e-06
-7.45907e-06
9.54588e-08
1.82857e-06
-7.40341e-06
9.56799e-08
2.08393e-06
-7.24879e-06
9.40361e-08
2.32699e-06
-7.00216e-06
9.09874e-08
2.55413e-06
-6.6652e-06
8.67621e-08
2.76178e-06
-6.23853e-06
8.14713e-08
2.94678e-06
-5.72533e-06
7.52433e-08
3.10663e-06
-5.13303e-06
6.821e-08
3.2396e-06
-4.47336e-06
6.0502e-08
3.34453e-06
-3.76115e-06
5.2266e-08
3.42067e-06
-3.01293e-06
4.36841e-08
3.4676e-06
-2.24557e-06
3.49813e-08
3.48515e-06
-1.47515e-06
2.63962e-08
3.47347e-06
-7.15873e-07
1.8231e-08
3.43355e-06
1.99691e-08
1.08984e-08
3.36564e-06
7.24023e-07
4.8939e-09
3.27127e-06
1.39057e-06
8.41402e-10
3.15155e-06
2.02238e-06
-1.36544e-09
3.00506e-06
2.63071e-06
-3.81189e-10
2.82837e-06
3.23646e-06
3.38707e-09
2.61372e-06
3.87018e-06
1.09407e-08
2.35052e-06
4.56924e-06
2.20179e-08
2.02918e-06
5.36624e-06
3.50589e-08
1.64891e-06
6.25786e-06
4.68522e-08
1.22735e-06
7.14612e-06
5.31517e-08
8.02423e-07
7.78054e-06
5.08048e-08
4.14476e-07
7.8557e-06
3.99834e-08
1.22608e-07
6.79462e-06
2.40158e-08
3.40816e-06
6.95113e-09
7.19637e-08
-1.71528e-06
1.60265e-08
2.43828e-07
-4.24469e-06
4.13735e-08
4.74173e-07
-5.94669e-06
6.09804e-08
7.3096e-07
-6.97635e-06
7.55614e-08
9.94409e-07
-7.51234e-06
8.55487e-08
1.25631e-06
-7.74956e-06
9.15956e-08
1.51351e-06
-7.81072e-06
9.44893e-08
1.76371e-06
-7.7486e-06
9.50321e-08
2.00428e-06
-7.58318e-06
9.38661e-08
2.2321e-06
-7.32137e-06
9.14259e-08
2.44385e-06
-6.96484e-06
8.79345e-08
2.63636e-06
-6.51451e-06
8.35032e-08
2.807e-06
-5.97417e-06
7.82457e-08
2.95382e-06
-5.35207e-06
7.22614e-08
3.07559e-06
-4.66071e-06
6.56351e-08
3.17155e-06
-3.91551e-06
5.84519e-08
3.24127e-06
-3.13341e-06
5.08178e-08
3.28445e-06
-2.33157e-06
4.28742e-08
3.3009e-06
-1.52633e-06
3.47841e-08
3.2906e-06
-7.32291e-07
2.67735e-08
3.25343e-06
3.803e-08
1.91702e-08
3.19073e-06
7.74398e-07
1.23803e-08
3.10293e-06
1.47154e-06
6.88065e-09
2.9902e-06
2.13195e-06
3.20303e-09
2.85117e-06
2.76795e-06
1.82681e-09
2.68199e-06
3.40251e-06
3.14325e-09
2.47545e-06
4.06891e-06
7.78637e-09
2.22185e-06
4.80678e-06
1.59945e-08
1.91284e-06
5.64825e-06
2.68545e-08
1.54886e-06
6.58378e-06
3.7785e-08
1.14795e-06
7.50175e-06
4.48408e-08
7.46373e-07
8.13692e-06
4.45187e-08
3.81948e-07
8.18321e-06
3.602e-08
1.1136e-07
7.04216e-06
2.19164e-08
3.51188e-06
6.27121e-09
6.90036e-08
-1.80103e-06
1.67989e-08
2.3486e-07
-4.45361e-06
4.31069e-08
4.57045e-07
-6.23197e-06
6.31395e-08
7.03744e-07
-7.30083e-06
7.7813e-08
9.55874e-07
-7.8522e-06
8.77642e-08
1.20581e-06
-8.09324e-06
9.3781e-08
1.45061e-06
-8.15221e-06
9.67252e-08
1.68806e-06
-8.08345e-06
9.74371e-08
1.9156e-06
-7.90725e-06
9.65677e-08
2.13028e-06
-7.63055e-06
9.45502e-08
2.32906e-06
-7.25519e-06
9.161e-08
2.50926e-06
-6.78251e-06
8.78557e-08
2.66876e-06
-6.217e-06
8.3384e-08
2.80616e-06
-5.5677e-06
7.82668e-08
2.92068e-06
-4.84772e-06
7.25489e-08
3.01186e-06
-4.0729e-06
6.62642e-08
3.0794e-06
-3.26035e-06
5.9458e-08
3.12297e-06
-2.42728e-06
5.22067e-08
3.14215e-06
-1.59006e-06
4.46153e-08
3.13652e-06
-7.63452e-07
3.68508e-08
3.10592e-06
3.9514e-08
2.91752e-08
3.05013e-06
8.08321e-07
2.19301e-08
2.96944e-06
1.53674e-06
1.55298e-08
2.86358e-06
2.22741e-06
1.04556e-08
2.73083e-06
2.89348e-06
7.24341e-09
2.56724e-06
3.55968e-06
6.44937e-09
2.36609e-06
4.26142e-06
8.61779e-09
2.11885e-06
5.03983e-06
1.41109e-08
1.81874e-06
5.9257e-06
2.2497e-08
1.46769e-06
6.90271e-06
3.18265e-08
1.08426e-06
7.84607e-06
3.86346e-08
7.02854e-07
8.47825e-06
3.93836e-08
3.583e-07
8.49424e-06
3.26025e-08
1.04099e-07
7.2751e-06
2.01232e-08
3.60884e-06
5.77446e-09
6.97536e-08
-1.88771e-06
1.6978e-08
2.33615e-07
-4.66054e-06
4.31167e-08
4.50002e-07
-6.51098e-06
6.26599e-08
6.87727e-07
-7.61532e-06
7.68002e-08
9.28811e-07
-8.17962e-06
8.63702e-08
1.16654e-06
-8.42316e-06
9.22278e-08
1.39841e-06
-8.47928e-06
9.52292e-08
1.62239e-06
-8.40358e-06
9.61822e-08
1.83607e-06
-8.21659e-06
9.57023e-08
2.03671e-06
-7.92535e-06
9.42002e-08
2.22157e-06
-7.53191e-06
9.19008e-08
2.38836e-06
-7.03817e-06
8.89168e-08
2.53542e-06
-6.44935e-06
8.53342e-08
2.66183e-06
-5.77526e-06
8.12074e-08
2.76718e-06
-5.02957e-06
7.65533e-08
2.85136e-06
-4.22839e-06
7.13643e-08
2.91427e-06
-3.38883e-06
6.56312e-08
2.95565e-06
-2.52796e-06
5.93644e-08
2.975e-06
-1.66196e-06
5.26034e-08
2.97165e-06
-8.05495e-07
4.54491e-08
2.94481e-06
2.8327e-08
3.80969e-08
2.8942e-06
8.28156e-07
3.08321e-08
2.81936e-06
1.58761e-06
2.40242e-08
2.71952e-06
2.30917e-06
1.81183e-08
2.59269e-06
3.00672e-06
1.3631e-08
2.43486e-06
3.70638e-06
1.11435e-08
2.23975e-06
4.44526e-06
1.12517e-08
1.99985e-06
5.26526e-06
1.43967e-08
1.70993e-06
6.19502e-06
2.04219e-08
1.37349e-06
7.21094e-06
2.78942e-08
1.0096e-06
8.17559e-06
3.38837e-08
6.50736e-07
8.80137e-06
3.50382e-08
3.289e-07
8.78566e-06
2.94833e-08
9.43814e-08
7.49008e-06
1.84082e-08
3.69657e-06
5.30019e-09
6.6998e-08
-1.97229e-06
1.76284e-08
2.25136e-07
-4.86291e-06
4.4279e-08
4.3369e-07
-6.78332e-06
6.38292e-08
6.61824e-07
-7.92116e-06
7.77461e-08
8.92267e-07
-8.49708e-06
8.70594e-08
1.11884e-06
-8.74243e-06
9.27363e-08
1.33925e-06
-8.79533e-06
9.5684e-08
1.55152e-06
-8.71254e-06
9.67258e-08
1.75333e-06
-8.51483e-06
9.64713e-08
1.94211e-06
-8.20941e-06
9.53225e-08
2.11545e-06
-7.79871e-06
9.35038e-08
2.27143e-06
-7.28523e-06
9.11271e-08
2.40887e-06
-6.675e-06
8.8268e-08
2.52723e-06
-5.97853e-06
8.49626e-08
2.62647e-06
-5.20995e-06
8.12064e-08
2.70669e-06
-4.38551e-06
7.69617e-08
2.76791e-06
-3.52216e-06
7.21786e-08
2.80979e-06
-2.6366e-06
6.68179e-08
2.83164e-06
-1.7446e-06
6.08642e-08
2.83242e-06
-8.60574e-07
5.43578e-08
2.81134e-06
2.04824e-09
4.74274e-08
2.76653e-06
8.32726e-07
4.02971e-08
2.69745e-06
1.62346e-06
3.32903e-08
2.60287e-06
2.37699e-06
2.68161e-08
2.48058e-06
3.10769e-06
2.13613e-08
2.32669e-06
3.84279e-06
1.74897e-08
2.13552e-06
4.6206e-06
1.5814e-08
1.90071e-06
5.48314e-06
1.68458e-08
1.61867e-06
6.45627e-06
2.06185e-08
1.29447e-06
7.50873e-06
2.60989e-08
9.4763e-07
8.49106e-06
3.08715e-08
6.08545e-07
9.10785e-06
3.18937e-08
3.06248e-07
9.05994e-06
2.71012e-08
8.75277e-08
7.69055e-06
1.71364e-08
3.77775e-06
5.03001e-09
6.70181e-08
-2.05708e-06
1.78153e-08
2.22241e-07
-5.06224e-06
4.41451e-08
4.2447e-07
-7.04855e-06
6.30391e-08
6.43608e-07
-8.21655e-06
7.62911e-08
8.63434e-07
-8.802e-06
8.51323e-08
1.07855e-06
-9.04809e-06
9.05843e-08
1.287e-06
-9.09727e-06
9.35292e-08
1.48699e-06
-9.00722e-06
9.47459e-08
1.67632e-06
-8.79893e-06
9.48069e-08
1.85266e-06
-8.47979e-06
9.40939e-08
2.01386e-06
-8.05268e-06
9.28316e-08
2.15835e-06
-7.52081e-06
9.11351e-08
2.28531e-06
-6.89098e-06
8.90736e-08
2.39458e-06
-6.17441e-06
8.66721e-08
2.48643e-06
-5.38565e-06
8.39067e-08
2.56125e-06
-4.54099e-06
8.0714e-08
2.61924e-06
-3.65709e-06
7.7008e-08
2.66013e-06
-2.75013e-06
7.27014e-08
2.68315e-06
-1.83528e-06
6.77242e-08
2.68701e-06
-9.26426e-07
6.2055e-08
2.66973e-06
-3.63635e-08
5.57567e-08
2.63034e-06
8.23175e-07
4.89955e-08
2.56696e-06
1.64485e-06
4.2047e-08
2.47787e-06
2.43084e-06
3.52899e-08
2.36059e-06
3.19582e-06
2.91876e-08
2.21132e-06
3.96779e-06
2.42808e-08
2.02493e-06
4.78581e-06
2.11705e-08
1.79616e-06
5.69143e-06
2.04042e-08
1.52299e-06
6.70711e-06
2.21562e-08
1.21194e-06
7.79377e-06
2.57077e-08
8.8284e-07
8.79057e-06
2.91026e-08
5.64036e-07
9.39629e-06
2.96616e-08
2.81872e-07
9.31593e-06
2.52849e-08
7.98008e-08
7.87536e-06
1.6178e-08
3.85139e-06
4.87625e-09
6.4413e-08
-2.13971e-06
1.82598e-08
2.14137e-07
-5.25658e-06
4.46513e-08
4.089e-07
-7.30647e-06
6.31908e-08
6.19078e-07
-8.50266e-06
7.59745e-08
8.2914e-07
-9.09644e-06
8.44153e-08
1.03414e-06
-9.34266e-06
8.96104e-08
1.23229e-06
-9.38784e-06
9.2461e-08
1.42182e-06
-9.29045e-06
9.37367e-08
1.60067e-06
-9.07172e-06
9.39907e-08
1.76665e-06
-8.73931e-06
9.35907e-08
1.91788e-06
-8.29662e-06
9.27592e-08
2.05312e-06
-7.7476e-06
9.16112e-08
2.17186e-06
-7.09987e-06
9.02095e-08
2.27426e-06
-6.36532e-06
8.85705e-08
2.36086e-06
-5.55884e-06
8.6659e-08
2.43224e-06
-4.69669e-06
8.43945e-08
2.4887e-06
-3.79515e-06
8.16651e-08
2.53001e-06
-2.86972e-06
7.83474e-08
2.55525e-06
-1.93478e-06
7.43252e-08
2.56285e-06
-1.00348e-06
6.95189e-08
2.55074e-06
-8.81095e-08
6.39232e-08
2.51665e-06
7.99689e-07
5.76351e-08
2.45846e-06
1.65222e-06
5.08768e-08
2.374e-06
2.47136e-06
4.39914e-08
2.2606e-06
3.27185e-06
3.74204e-08
2.11462e-06
4.08211e-06
3.16857e-08
1.93157e-06
4.94147e-06
2.73705e-08
1.70737e-06
5.89052e-06
2.50325e-08
1.4415e-06
6.94787e-06
2.49448e-08
1.14182e-06
8.0665e-06
2.66422e-08
8.2838e-07
9.07496e-06
2.85713e-08
5.27392e-07
9.66818e-06
2.84261e-08
2.62582e-07
9.55569e-06
2.4174e-08
7.40977e-08
8.04712e-06
1.56716e-08
3.91932e-06
4.91719e-09
6.39236e-08
-2.22192e-06
1.83422e-08
2.10358e-07
-5.44716e-06
4.41898e-08
3.98961e-07
-7.55694e-06
6.19078e-08
6.00827e-07
-8.77841e-06
7.39228e-08
8.01352e-07
-9.37876e-06
8.18338e-08
9.96217e-07
-9.62425e-06
8.67681e-08
1.18389e-06
-9.66505e-06
8.95819e-08
1.36274e-06
-9.56025e-06
9.09906e-08
1.53084e-06
-9.33127e-06
9.15077e-08
1.68618e-06
-8.98608e-06
9.14805e-08
1.82713e-06
-8.52864e-06
9.11298e-08
1.95269e-06
-7.96367e-06
9.05726e-08
2.06263e-06
-7.29962e-06
8.98677e-08
2.15738e-06
-6.54903e-06
8.90257e-08
2.23775e-06
-5.72715e-06
8.80026e-08
2.30459e-06
-4.85016e-06
8.67043e-08
2.35839e-06
-3.93388e-06
8.49981e-08
2.39904e-06
-2.99303e-06
8.27294e-08
2.42561e-06
-2.04102e-06
7.97401e-08
2.43633e-06
-1.09003e-06
7.58971e-08
2.42874e-06
-1.5158e-07
7.113e-08
2.40001e-06
7.63017e-07
6.54663e-08
2.34735e-06
1.64587e-06
5.90683e-08
2.26808e-06
2.49845e-06
5.22387e-08
2.15925e-06
3.33533e-06
4.53971e-08
2.01734e-06
4.18499e-06
3.9052e-08
1.83844e-06
5.08659e-06
3.37746e-08
1.61955e-06
6.07922e-06
3.01232e-08
1.36155e-06
7.17728e-06
2.84314e-08
1.0735e-06
8.32584e-06
2.84315e-08
7.75492e-07
9.34361e-06
2.89176e-08
4.91728e-07
9.92335e-06
2.79456e-08
2.43643e-07
9.77932e-06
2.36172e-08
6.83419e-08
8.20588e-06
1.55231e-08
3.98135e-06
5.10596e-09
6.16006e-08
-2.30203e-06
1.85521e-08
2.03139e-07
-5.6327e-06
4.40463e-08
3.85131e-07
-7.79999e-06
6.11028e-08
5.79146e-07
-9.04484e-06
7.2456e-08
7.71189e-07
-9.65062e-06
7.98697e-08
9.57316e-07
-9.89485e-06
8.45113e-08
1.13611e-06
-9.93101e-06
8.72208e-08
1.306e-06
-9.81877e-06
8.86803e-08
1.46514e-06
-9.57973e-06
8.93739e-08
1.61169e-06
-9.2222e-06
8.96307e-08
1.7442e-06
-8.75076e-06
8.96675e-08
1.8619e-06
-8.17089e-06
8.9601e-08
1.96477e-06
-7.49191e-06
8.94857e-08
2.05348e-06
-6.727e-06
8.9329e-08
2.12904e-06
-5.89173e-06
8.90833e-08
2.19251e-06
-5.0022e-06
8.86481e-08
2.24454e-06
-4.07372e-06
8.78782e-08
2.28513e-06
-3.12015e-06
8.6597e-08
2.31333e-06
-2.15376e-06
8.46119e-08
2.32721e-06
-1.18558e-06
8.17402e-08
2.32397e-06
-2.26112e-07
7.78463e-08
2.30022e-06
7.13948e-07
7.28838e-08
2.25257e-06
1.62663e-06
6.69455e-08
2.17784e-06
2.51295e-06
6.02838e-08
2.07285e-06
3.38707e-06
5.32907e-08
1.93425e-06
4.27716e-06
4.6463e-08
1.75873e-06
5.22175e-06
4.03678e-08
1.54431e-06
6.25802e-06
3.55724e-08
1.29317e-06
7.39582e-06
3.24651e-08
1.01538e-06
8.57244e-06
3.09298e-08
7.30988e-07
9.59754e-06
3.00401e-08
4.62273e-07
1.01633e-05
2.81772e-08
2.28541e-07
9.98863e-06
2.36291e-08
6.40349e-08
8.35362e-06
1.58007e-08
4.0387e-06
5.52095e-09
6.08587e-08
-2.38131e-06
1.84697e-08
1.99218e-07
-5.81417e-06
4.31565e-08
3.75752e-07
-8.0357e-06
5.92197e-08
5.6265e-07
-9.3014e-06
6.97099e-08
7.46653e-07
-9.91113e-06
7.65519e-08
9.24299e-07
-1.01534e-05
8.0912e-08
1.09436e-06
-1.01846e-05
8.35642e-08
1.25539e-06
-1.00649e-05
8.51282e-08
1.40566e-06
-9.81599e-06
8.60464e-08
1.54346e-06
-9.44657e-06
8.66264e-08
1.66749e-06
-8.96181e-06
8.70806e-08
1.77714e-06
-8.36801e-06
8.75266e-08
1.87261e-06
-7.67532e-06
8.80156e-08
1.95475e-06
-6.89762e-06
8.85525e-08
2.02481e-06
-6.05081e-06
8.90875e-08
2.08408e-06
-5.15092e-06
8.95165e-08
2.13348e-06
-4.21274e-06
8.96862e-08
2.17318e-06
-3.24918e-06
8.94046e-08
2.20232e-06
-2.27128e-06
8.84522e-08
2.21889e-06
-1.28869e-06
8.66036e-08
2.21979e-06
-3.106e-07
8.36618e-08
2.20111e-06
6.53186e-07
7.95059e-08
2.1588e-06
1.59484e-06
7.4153e-08
2.08912e-06
2.5149e-06
6.77963e-08
1.98858e-06
3.42687e-06
6.07928e-08
1.85391e-06
4.35825e-06
5.36253e-08
1.68231e-06
5.3465e-06
4.68595e-08
1.47278e-06
6.42643e-06
4.10757e-08
1.22867e-06
7.60311e-06
3.67121e-08
9.60933e-07
8.80615e-06
3.37878e-08
6.89449e-07
9.837e-06
3.16195e-08
4.34742e-07
1.03885e-05
2.88662e-08
2.14342e-07
1.01843e-05
2.39808e-08
5.99102e-08
8.49088e-06
1.62316e-08
4.09152e-06
5.9556e-09
5.89501e-08
-2.45865e-06
1.8428e-08
1.93267e-07
-5.99082e-06
4.23806e-08
3.64365e-07
-8.26428e-06
5.7528e-08
5.44831e-07
-9.54903e-06
6.72104e-08
7.21889e-07
-1.01616e-05
7.34881e-08
8.92362e-07
-1.04013e-05
7.75305e-08
1.05513e-06
-1.04274e-05
8.00662e-08
1.20883e-06
-1.03002e-05
8.16672e-08
1.3518e-06
-1.00416e-05
8.27406e-08
1.48242e-06
-9.6607e-06
8.35729e-08
1.5995e-06
-9.16319e-06
8.43714e-08
1.70256e-06
-8.55625e-06
8.52518e-08
1.79191e-06
-7.85087e-06
8.62627e-08
1.86859e-06
-7.06163e-06
8.74078e-08
1.93403e-06
-6.20481e-06
8.86381e-08
1.98971e-06
-5.29637e-06
8.98498e-08
2.03676e-06
-4.3506e-06
9.08877e-08
2.07555e-06
-3.37944e-06
9.15509e-08
2.10534e-06
-2.39261e-06
9.16e-08
2.12414e-06
-1.39818e-06
9.07729e-08
2.12861e-06
-4.03827e-07
8.88159e-08
2.11444e-06
5.81897e-07
8.55323e-08
2.07695e-06
1.55154e-06
8.0857e-08
2.01183e-06
2.50515e-06
7.49129e-08
1.9153e-06
3.45544e-06
6.80117e-08
1.78411e-06
4.42887e-06
6.0617e-08
1.61596e-06
5.46137e-06
5.32943e-08
1.41074e-06
6.58498e-06
4.66414e-08
1.17285e-06
7.79976e-06
4.11468e-08
9.13983e-07
9.02785e-06
3.69489e-08
6.53834e-07
1.00632e-05
3.35718e-08
4.11389e-07
1.06005e-05
2.99122e-08
2.02509e-07
1.03679e-05
2.45829e-08
5.65923e-08
8.61913e-06
1.67693e-08
4.14063e-06
6.3892e-09
5.81939e-08
-2.53494e-06
1.81485e-08
1.89756e-07
-6.16337e-06
4.10283e-08
3.56368e-07
-8.48587e-06
5.50294e-08
5.31127e-07
-9.78752e-06
6.37748e-08
7.01789e-07
-1.04017e-05
6.94488e-08
8.65468e-07
-1.06381e-05
7.31867e-08
1.02126e-06
-1.06588e-05
7.56363e-08
1.16794e-06
-1.05241e-05
7.7304e-08
1.30394e-06
-1.02561e-05
7.85553e-08
1.42767e-06
-9.86402e-06
7.96544e-08
1.53798e-06
-9.35425e-06
8.0803e-08
1.6345e-06
-8.73481e-06
8.21169e-08
1.71767e-06
-8.01761e-06
8.36418e-08
1.78867e-06
-7.21794e-06
8.53807e-08
1.84912e-06
-6.35246e-06
8.7285e-08
1.9007e-06
-5.43714e-06
8.92532e-08
1.94481e-06
-4.48575e-06
9.11316e-08
1.98203e-06
-3.50932e-06
9.27168e-08
2.01187e-06
-2.51613e-06
9.3758e-08
2.03238e-06
-1.51258e-06
9.39664e-08
2.04012e-06
-5.04544e-07
9.30396e-08
2.03037e-06
5.01007e-07
9.0709e-08
1.99785e-06
1.4973e-06
8.68225e-08
1.93766e-06
2.48398e-06
8.14216e-08
1.84558e-06
3.47282e-06
7.47606e-08
1.71832e-06
4.48889e-06
6.72748e-08
1.55399e-06
5.5662e-06
5.95276e-08
1.35323e-06
6.73358e-06
5.21367e-08
1.12139e-06
7.98587e-06
4.56418e-08
8.70866e-07
9.2379e-06
4.02911e-08
6.21173e-07
1.02768e-05
3.57883e-08
3.90025e-07
1.07999e-05
3.12324e-08
1.91672e-07
1.05401e-05
2.53874e-08
5.35014e-08
8.73902e-06
1.74019e-08
4.18623e-06
6.82806e-09
5.67372e-08
-2.60948e-06
1.78577e-08
1.85127e-07
-6.33138e-06
3.96735e-08
3.47456e-07
-8.70071e-06
5.25603e-08
5.17213e-07
-1.00176e-05
6.03951e-08
6.82522e-07
-1.06324e-05