/*--------------------------------*- C++ -*----------------------------------*\
| =========                 |                                                 |
| \\      /  F ield         | OpenFOAM: The Open Source CFD Toolbox           |
|  \\    /   O peration     | Version:  v2006                                 |
|   \\  /    A nd           | Website:  www.openfoam.com                      |
|    \\/     M anipulation  |                                                 |
\*---------------------------------------------------------------------------*/
FoamFile
{
    version     2.0;
    format      ascii;
    class       volScalarField;
    location    "64";
    object      T;
}
// * * * * * * * * * * * * * * * * * * * * * * * * * * * * * * * * * * * * * //

dimensions      [0 0 0 1 0 0 0];


internalField   nonuniform List<scalar> 
78750
(
300.045
300.133
300.215
300.29
300.356
300.415
300.467
300.513
300.554
300.59
300.622
300.651
300.677
300.7
300.721
300.74
300.756
300.77
300.782
300.792
300.8
300.805
300.807
300.806
300.802
300.795
300.785
300.771
300.756
300.744
300.76
300.857
301.133
301.675
302.466
300.055
300.158
300.25
300.332
300.405
300.473
300.535
300.591
300.643
300.69
300.733
300.772
300.807
300.84
300.869
300.896
300.919
300.94
300.957
300.97
300.98
300.986
300.987
300.982
300.972
300.956
300.934
300.909
300.886
300.877
300.914
301.055
301.377
301.936
302.724
300.062
300.183
300.295
300.396
300.486
300.567
300.638
300.701
300.757
300.806
300.851
300.89
300.925
300.957
300.984
301.008
301.029
301.046
301.06
301.07
301.077
301.08
301.079
301.073
301.06
301.042
301.019
300.994
300.977
300.984
301.052
301.239
301.599
302.177
302.98
300.077
300.227
300.366
300.489
300.596
300.686
300.763
300.828
300.886
300.937
300.983
301.023
301.059
301.09
301.116
301.138
301.156
301.17
301.18
301.186
301.188
301.186
301.178
301.166
301.147
301.123
301.097
301.072
301.061
301.084
301.181
301.405
301.793
302.384
303.2
300.087
300.256
300.411
300.546
300.659
300.752
300.829
300.895
300.953
301.006
301.052
301.092
301.128
301.159
301.186
301.209
301.227
301.242
301.252
301.258
301.259
301.256
301.247
301.233
301.213
301.189
301.164
301.146
301.147
301.192
301.321
301.579
301.99
302.596
303.423
300.096
300.282
300.451
300.598
300.719
300.815
300.894
300.963
301.023
301.076
301.123
301.164
301.201
301.233
301.26
301.281
301.298
301.31
301.317
301.319
301.317
301.31
301.299
301.284
301.265
301.243
301.222
301.211
301.224
301.288
301.442
301.726
302.154
302.772
303.607
300.104
300.304
300.485
300.64
300.765
300.864
300.945
301.014
301.076
301.131
301.179
301.223
301.261
301.295
301.323
301.345
301.362
301.372
301.377
301.376
301.371
301.361
301.347
301.33
301.311
301.291
301.276
301.275
301.303
301.388
301.568
301.874
302.319
302.949
303.789
300.109
300.32
300.511
300.673
300.803
300.905
300.988
301.06
301.123
301.179
301.23
301.276
301.316
301.351
301.379
301.401
301.416
301.425
301.428
301.425
301.417
301.405
301.39
301.372
301.353
301.336
301.326
301.332
301.373
301.475
301.675
302
302.459
303.1
303.945
300.115
300.336
300.535
300.704
300.838
300.943
301.028
301.102
301.167
301.226
301.279
301.327
301.37
301.406
301.436
301.458
301.473
301.48
301.481
301.476
301.465
301.45
301.432
301.413
301.393
301.378
301.373
301.389
301.443
301.563
301.782
302.124
302.596
303.248
304.096
300.12
300.349
300.556
300.731
300.869
300.977
301.064
301.14
301.207
301.268
301.323
301.373
301.417
301.455
301.486
301.508
301.523
301.531
301.53
301.524
301.511
301.494
301.474
301.453
301.434
301.421
301.419
301.442
301.506
301.641
301.878
302.234
302.718
303.379
304.232
300.124
300.361
300.575
300.756
300.898
301.009
301.099
301.177
301.246
301.309
301.367
301.419
301.465
301.504
301.536
301.559
301.574
301.581
301.579
301.571
301.557
301.538
301.516
301.494
301.474
301.462
301.465
301.494
301.57
301.72
301.973
302.342
302.836
303.507
304.362
300.128
300.374
300.594
300.78
300.926
301.039
301.132
301.212
301.283
301.348
301.408
301.462
301.509
301.55
301.582
301.606
301.622
301.628
301.626
301.617
301.602
301.581
301.558
301.535
301.515
301.504
301.51
301.546
301.631
301.794
302.061
302.442
302.945
303.624
304.482
300.132
300.385
300.612
300.803
300.952
301.068
301.163
301.245
301.319
301.386
301.448
301.503
301.553
301.595
301.628
301.653
301.668
301.675
301.672
301.662
301.645
301.624
301.599
301.575
301.556
301.547
301.556
301.598
301.693
301.868
302.149
302.54
303.051
303.738
304.598
300.136
300.396
300.63
300.826
300.979
301.097
301.193
301.277
301.353
301.422
301.486
301.543
301.594
301.637
301.672
301.697
301.713
301.719
301.717
301.706
301.688
301.666
301.64
301.616
301.597
301.589
301.602
301.65
301.754
301.94
302.233
302.633
303.152
303.845
304.707
300.14
300.407
300.646
300.847
301.003
301.123
301.222
301.308
301.386
301.457
301.523
301.582
301.634
301.679
301.714
301.74
301.757
301.763
301.76
301.749
301.731
301.707
301.681
301.657
301.638
301.632
301.648
301.702
301.815
302.012
302.316
302.724
303.249
303.948
304.81
300.143
300.418
300.663
300.868
301.027
301.15
301.251
301.339
301.418
301.491
301.559
301.619
301.673
301.719
301.755
301.782
301.799
301.806
301.803
301.791
301.772
301.748
301.722
301.697
301.679
301.675
301.695
301.755
301.876
302.083
302.397
302.811
303.341
304.045
304.908
300.147
300.428
300.679
300.888
301.05
301.175
301.278
301.368
301.449
301.524
301.593
301.656
301.711
301.757
301.795
301.823
301.84
301.847
301.844
301.833
301.814
301.789
301.762
301.738
301.72
301.718
301.742
301.808
301.936
302.153
302.476
302.896
303.43
304.138
305.002
300.151
300.438
300.695
300.909
301.073
301.2
301.304
301.396
301.48
301.556
301.627
301.691
301.747
301.795
301.834
301.862
301.88
301.888
301.885
301.874
301.855
301.83
301.803
301.778
301.762
301.762
301.789
301.86
301.996
302.222
302.552
302.977
303.515
304.226
305.09
300.154
300.448
300.71
300.928
301.095
301.224
301.33
301.424
301.509
301.587
301.659
301.725
301.783
301.832
301.871
301.901
301.919
301.928
301.926
301.914
301.895
301.87
301.844
301.819
301.804
301.805
301.836
301.912
302.056
302.289
302.627
303.056
303.597
304.311
305.175
300.158
300.458
300.726
300.947
301.117
301.247
301.355
301.451
301.538
301.618
301.692
301.758
301.817
301.868
301.908
301.938
301.958
301.967
301.965
301.954
301.936
301.911
301.884
301.86
301.845
301.849
301.883
301.965
302.115
302.356
302.7
303.132
303.674
304.391
305.255
300.161
300.468
300.74
300.966
301.137
301.27
301.38
301.477
301.565
301.647
301.723
301.791
301.851
301.902
301.944
301.975
301.995
302.005
302.004
301.994
301.976
301.951
301.925
301.901
301.888
301.893
301.93
302.016
302.173
302.421
302.77
303.205
303.749
304.468
305.331
300.164
300.477
300.755
300.984
301.158
301.293
301.404
301.503
301.593
301.676
301.753
301.823
301.884
301.937
301.979
302.011
302.032
302.043
302.043
302.033
302.015
301.992
301.966
301.943
301.93
301.937
301.977
302.068
302.23
302.484
302.838
303.275
303.821
304.541
305.404
300.168
300.487
300.77
301.002
301.179
301.314
301.428
301.528
301.62
301.705
301.783
301.854
301.917
301.97
302.013
302.046
302.068
302.08
302.081
302.072
302.055
302.032
302.006
301.984
301.972
301.981
302.025
302.119
302.287
302.546
302.905
303.343
303.89
304.612
305.475
300.171
300.496
300.784
301.02
301.199
301.336
301.451
301.553
301.646
301.733
301.812
301.885
301.948
302.003
302.047
302.081
302.104
302.116
302.118
302.111
302.094
302.072
302.047
302.026
302.015
302.026
302.072
302.171
302.343
302.607
302.97
303.409
303.957
304.68
305.543
300.174
300.505
300.798
301.038
301.218
301.357
301.474
301.577
301.672
301.76
301.841
301.915
301.98
302.035
302.08
302.115
302.139
302.152
302.155
302.149
302.134
302.112
302.088
302.068
302.058
302.07
302.119
302.221
302.398
302.667
303.033
303.473
304.022
304.746
305.609
300.177
300.515
300.812
301.055
301.238
301.379
301.497
301.602
301.698
301.788
301.87
301.945
302.011
302.067
302.113
302.149
302.174
302.188
302.192
302.186
302.172
302.152
302.129
302.11
302.101
302.115
302.166
302.272
302.453
302.726
303.095
303.536
304.085
304.811
305.673
300.181
300.524
300.826
301.072
301.257
301.399
301.519
301.626
301.724
301.815
301.899
301.974
302.041
302.099
302.146
302.182
302.208
302.223
302.228
302.224
302.211
302.192
302.17
302.152
302.144
302.16
302.214
302.323
302.508
302.785
303.156
303.597
304.147
304.873
305.736
300.184
300.533
300.84
301.089
301.276
301.42
301.541
301.65
301.749
301.842
301.927
302.004
302.072
302.13
302.178
302.215
302.241
302.258
302.264
302.261
302.249
302.231
302.211
302.194
302.188
302.205
302.261
302.373
302.562
302.843
303.216
303.658
304.207
304.934
305.796
300.187
300.542
300.854
301.106
301.295
301.441
301.563
301.673
301.775
301.868
301.955
302.033
302.102
302.161
302.209
302.247
302.275
302.292
302.299
302.297
302.287
302.271
302.252
302.236
302.231
302.25
302.308
302.424
302.616
302.9
303.275
303.717
304.266
304.994
305.856
300.19
300.55
300.867
301.123
301.314
301.461
301.585
301.697
301.8
301.895
301.982
302.062
302.132
302.192
302.241
302.28
302.308
302.326
302.334
302.334
302.325
302.31
302.292
302.277
302.275
302.295
302.356
302.474
302.67
302.957
303.334
303.775
304.325
305.052
305.915
300.193
300.559
300.881
301.14
301.332
301.481
301.607
301.72
301.825
301.921
302.01
302.091
302.161
302.222
302.272
302.312
302.341
302.36
302.369
302.369
302.362
302.349
302.333
302.319
302.318
302.341
302.403
302.524
302.723
303.013
303.391
303.833
304.382
305.11
305.972
300.196
300.568
300.894
301.156
301.351
301.501
301.629
301.744
301.849
301.948
302.038
302.119
302.191
302.253
302.303
302.343
302.373
302.393
302.403
302.405
302.399
302.387
302.373
302.361
302.361
302.386
302.451
302.574
302.776
303.069
303.448
303.889
304.438
305.166
306.028
300.199
300.577
300.908
301.173
301.369
301.521
301.65
301.767
301.874
301.974
302.065
302.148
302.221
302.283
302.334
302.375
302.405
302.426
302.437
302.44
302.436
302.425
302.413
302.403
302.405
302.431
302.498
302.624
302.829
303.125
303.505
303.945
304.493
305.221
306.083
300.202
300.586
300.921
301.189
301.387
301.541
301.672
301.79
301.899
302
302.093
302.176
302.25
302.313
302.365
302.407
302.438
302.459
302.471
302.475
302.472
302.463
302.452
302.444
302.448
302.476
302.545
302.674
302.881
303.179
303.56
304
304.547
305.276
306.137
300.205
300.594
300.934
301.205
301.406
301.561
301.693
301.813
301.924
302.026
302.12
302.205
302.279
302.343
302.396
302.438
302.47
302.492
302.505
302.51
302.508
302.501
302.492
302.485
302.491
302.521
302.592
302.724
302.934
303.234
303.615
304.054
304.601
305.329
306.19
300.208
300.603
300.948
301.222
301.424
301.581
301.715
301.836
301.949
302.052
302.148
302.234
302.309
302.373
302.427
302.469
302.502
302.524
302.539
302.545
302.544
302.539
302.531
302.526
302.534
302.566
302.639
302.773
302.985
303.287
303.669
304.108
304.653
305.381
306.242
300.211
300.612
300.961
301.238
301.442
301.601
301.736
301.86
301.973
302.079
302.175
302.262
302.338
302.404
302.457
302.501
302.533
302.557
302.572
302.579
302.58
302.576
302.57
302.567
302.577
302.611
302.686
302.822
303.036
303.34
303.723
304.161
304.705
305.433
306.293
300.215
300.62
300.974
301.254
301.46
301.62
301.758
301.883
301.998
302.105
302.203
302.291
302.368
302.434
302.488
302.532
302.565
302.589
302.605
302.613
302.616
302.613
302.609
302.608
302.619
302.655
302.733
302.871
303.087
303.393
303.776
304.212
304.756
305.484
306.344
300.218
300.629
300.987
301.27
301.478
301.64
301.779
301.906
302.023
302.131
302.231
302.32
302.397
302.464
302.519
302.563
302.597
302.622
302.638
302.648
302.651
302.65
302.647
302.649
302.662
302.7
302.779
302.919
303.138
303.445
303.828
304.264
304.807
305.534
306.394
300.221
300.637
301
301.286
301.496
301.66
301.801
301.929
302.048
302.158
302.258
302.348
302.427
302.494
302.55
302.594
302.629
302.654
302.671
302.682
302.686
302.687
302.686
302.689
302.704
302.744
302.826
302.968
303.188
303.497
303.88
304.315
304.857
305.584
306.444
300.224
300.646
301.014
301.302
301.514
301.68
301.823
301.952
302.073
302.184
302.286
302.377
302.457
302.524
302.58
302.625
302.66
302.686
302.704
302.715
302.721
302.723
302.724
302.729
302.746
302.789
302.872
303.016
303.238
303.548
303.932
304.365
304.906
305.633
306.494
300.227
300.655
301.027
301.319
301.533
301.7
301.844
301.976
302.098
302.211
302.314
302.406
302.487
302.555
302.611
302.657
302.692
302.718
302.737
302.749
302.756
302.759
302.762
302.769
302.789
302.833
302.918
303.064
303.289
303.6
303.983
304.416
304.956
305.683
306.544
300.23
300.663
301.04
301.335
301.551
301.719
301.866
301.999
302.123
302.238
302.342
302.435
302.516
302.585
302.642
302.688
302.724
302.751
302.77
302.783
302.791
302.796
302.8
302.809
302.831
302.877
302.965
303.113
303.339
303.651
304.035
304.466
305.005
305.732
306.594
300.233
300.672
301.053
301.351
301.569
301.739
301.887
302.023
302.149
302.265
302.37
302.465
302.546
302.616
302.673
302.719
302.755
302.783
302.803
302.817
302.826
302.832
302.838
302.849
302.873
302.922
303.012
303.162
303.39
303.703
304.086
304.517
305.055
305.782
306.644
300.236
300.681
301.066
301.367
301.587
301.759
301.909
302.046
302.174
302.292
302.399
302.494
302.576
302.646
302.704
302.751
302.787
302.815
302.835
302.85
302.86
302.868
302.876
302.889
302.915
302.966
303.059
303.211
303.44
303.755
304.138
304.567
305.105
305.832
306.694
300.239
300.689
301.08
301.383
301.605
301.779
301.931
302.07
302.199
302.319
302.427
302.523
302.607
302.677
302.735
302.782
302.819
302.847
302.868
302.884
302.895
302.904
302.913
302.929
302.957
303.011
303.106
303.26
303.492
303.807
304.19
304.618
305.155
305.882
306.745
300.242
300.698
301.093
301.399
301.623
301.799
301.953
302.094
302.225
302.346
302.456
302.553
302.637
302.708
302.766
302.813
302.85
302.879
302.901
302.917
302.929
302.94
302.951
302.968
302.999
303.056
303.153
303.31
303.543
303.86
304.242
304.669
305.205
305.933
306.796
300.245
300.707
301.106
301.415
301.641
301.819
301.974
302.118
302.251
302.373
302.484
302.583
302.667
302.738
302.797
302.844
302.882
302.911
302.933
302.95
302.964
302.976
302.989
303.008
303.042
303.101
303.201
303.36
303.596
303.913
304.295
304.721
305.256
305.984
306.848
300.248
300.715
301.119
301.431
301.659
301.839
301.996
302.142
302.277
302.401
302.513
302.612
302.698
302.769
302.828
302.876
302.913
302.943
302.966
302.984
302.998
303.011
303.026
303.048
303.084
303.146
303.249
303.411
303.648
303.967
304.348
304.773
305.307
306.035
306.9
300.251
300.724
301.132
301.448
301.677
301.859
302.018
302.166
302.302
302.429
302.542
302.642
302.728
302.8
302.859
302.907
302.945
302.975
302.998
303.017
303.032
303.047
303.064
303.088
303.126
303.191
303.297
303.462
303.702
304.021
304.402
304.825
305.359
306.087
306.952
300.254
300.733
301.146
301.464
301.695
301.879
302.04
302.19
302.329
302.456
302.571
302.672
302.759
302.831
302.89
302.938
302.977
303.007
303.031
303.05
303.067
303.083
303.101
303.127
303.169
303.237
303.346
303.514
303.756
304.076
304.456
304.878
305.411
306.139
307.005
300.257
300.742
301.159
301.48
301.713
301.899
302.063
302.214
302.355
302.484
302.6
302.702
302.789
302.862
302.921
302.969
303.008
303.039
303.063
303.083
303.101
303.118
303.138
303.167
303.211
303.282
303.395
303.566
303.81
304.131
304.511
304.932
305.463
306.192
307.058
300.26
300.75
301.172
301.496
301.732
301.919
302.085
302.238
302.381
302.512
302.63
302.732
302.82
302.893
302.952
303.001
303.039
303.07
303.095
303.116
303.135
303.153
303.176
303.207
303.254
303.328
303.444
303.618
303.864
304.187
304.566
304.985
305.516
306.244
307.11
300.263
300.759
301.185
301.512
301.75
301.939
302.107
302.263
302.408
302.541
302.659
302.763
302.851
302.924
302.983
303.032
303.071
303.102
303.127
303.149
303.169
303.189
303.213
303.246
303.296
303.373
303.493
303.67
303.919
304.243
304.62
305.038
305.569
306.297
307.163
300.266
300.768
301.199
301.529
301.768
301.96
302.13
302.288
302.435
302.569
302.689
302.793
302.881
302.955
303.015
303.063
303.102
303.133
303.159
303.182
303.202
303.224
303.25
303.285
303.338
303.419
303.541
303.722
303.974
304.298
304.675
305.092
305.621
306.349
307.215
300.27
300.777
301.212
301.545
301.787
301.98
302.153
302.313
302.462
302.598
302.719
302.824
302.912
302.986
303.046
303.094
303.133
303.165
303.191
303.214
303.236
303.259
303.287
303.324
303.38
303.464
303.59
303.774
304.028
304.354
304.73
305.145
305.673
306.401
307.267
300.273
300.785
301.226
301.561
301.805
302.001
302.176
302.338
302.489
302.627
302.749
302.855
302.943
303.017
303.077
303.125
303.164
303.196
303.223
303.247
303.27
303.294
303.323
303.363
303.422
303.509
303.639
303.826
304.083
304.409
304.784
305.198
305.725
306.452
307.318
300.276
300.794
301.239
301.578
301.824
302.022
302.199
302.364
302.517
302.656
302.779
302.886
302.975
303.048
303.108
303.156
303.196
303.228
303.255
303.279
303.303
303.329
303.36
303.402
303.464
303.554
303.687
303.878
304.137
304.464
304.838
305.25
305.777
306.503
307.369
300.279
300.803
301.253
301.595
301.843
302.043
302.222
302.389
302.545
302.686
302.81
302.917
303.006
303.079
303.139
303.188
303.227
303.259
303.287
303.312
303.336
303.363
303.397
303.441
303.505
303.599
303.735
303.929
304.19
304.519
304.892
305.302
305.827
306.554
307.419
300.282
300.812
301.267
301.612
301.862
302.064
302.246
302.416
302.573
302.716
302.841
302.948
303.037
303.111
303.17
303.219
303.258
303.291
303.319
303.344
303.37
303.398
303.433
303.48
303.547
303.643
303.783
303.98
304.244
304.573
304.945
305.354
305.878
306.604
307.469
300.285
300.822
301.281
301.629
301.882
302.086
302.27
302.442
302.602
302.746
302.872
302.98
303.069
303.142
303.202
303.25
303.289
303.322
303.35
303.377
303.403
303.433
303.469
303.518
303.588
303.688
303.831
304.031
304.297
304.627
304.997
305.405
305.928
306.653
307.518
300.289
300.831
301.295
301.646
301.901
302.108
302.295
302.469
302.631
302.776
302.904
303.011
303.101
303.174
303.233
303.281
303.32
303.353
303.382
303.409
303.436
303.467
303.506
303.557
303.629
303.732
303.879
304.082
304.35
304.68
305.049
305.455
305.978
306.703
307.567
300.292
300.84
301.309
301.664
301.921
302.13
302.32
302.497
302.66
302.808
302.935
303.044
303.133
303.206
303.264
303.312
303.351
303.384
303.413
303.441
303.469
303.501
303.542
303.595
303.67
303.776
303.926
304.132
304.402
304.733
305.1
305.505
306.027
306.751
307.615
300.295
300.85
301.324
301.682
301.941
302.153
302.345
302.525
302.69
302.839
302.968
303.076
303.165
303.238
303.296
303.343
303.382
303.415
303.445
303.473
303.502
303.536
303.578
303.633
303.711
303.82
303.973
304.182
304.454
304.785
305.151
305.554
306.075
306.799
307.662
300.299
300.859
301.339
301.7
301.962
302.176
302.371
302.553
302.721
302.871
303
303.109
303.198
303.27
303.328
303.375
303.414
303.447
303.476
303.505
303.535
303.57
303.613
303.671
303.752
303.864
304.02
304.232
304.506
304.837
305.201
305.603
306.123
306.846
307.709
300.302
300.869
301.354
301.718
301.983
302.2
302.397
302.582
302.752
302.904
303.033
303.142
303.23
303.302
303.359
303.406
303.445
303.478
303.508
303.537
303.568
303.604
303.649
303.709
303.792
303.907
304.066
304.281
304.557
304.888
305.251
305.651
306.17
306.893
307.755
300.306
300.879
301.37
301.737
302.005
302.224
302.425
302.612
302.784
302.937
303.067
303.175
303.263
303.334
303.391
303.438
303.476
303.509
303.539
303.569
303.601
303.638
303.685
303.747
303.832
303.95
304.112
304.33
304.607
304.938
305.3
305.698
306.217
306.938
307.8
300.309
300.89
301.385
301.757
302.027
302.249
302.452
302.643
302.817
302.97
303.101
303.209
303.297
303.367
303.423
303.469
303.507
303.54
303.571
303.601
303.633
303.672
303.72
303.784
303.872
303.993
304.158
304.378
304.657
304.988
305.348
305.745
306.263
306.983
307.844
300.313
300.9
301.402
301.776
302.049
302.274
302.481
302.674
302.85
303.005
303.136
303.243
303.33
303.4
303.456
303.501
303.539
303.572
303.602
303.633
303.666
303.705
303.755
303.822
303.912
304.035
304.203
304.426
304.706
305.037
305.395
305.791
306.308
307.027
307.888
300.317
300.911
301.418
301.797
302.072
302.3
302.51
302.706
302.884
303.04
303.171
303.278
303.364
303.433
303.488
303.533
303.57
303.603
303.634
303.665
303.699
303.739
303.79
303.859
303.951
304.078
304.248
304.473
304.755
305.085
305.442
305.836
306.352
307.071
307.93
300.321
300.922
301.435
301.817
302.096
302.327
302.54
302.738
302.919
303.075
303.206
303.313
303.398
303.466
303.521
303.565
303.602
303.634
303.665
303.696
303.731
303.773
303.825
303.895
303.99
304.119
304.292
304.519
304.802
305.132
305.487
305.88
306.395
307.113
307.972
300.324
300.934
301.453
301.838
302.12
302.354
302.57
302.772
302.954
303.112
303.243
303.349
303.433
303.5
303.553
303.597
303.633
303.666
303.697
303.728
303.764
303.806
303.86
303.932
304.029
304.161
304.336
304.565
304.85
305.179
305.532
305.924
306.438
307.154
308.013
300.329
300.946
301.47
301.86
302.145
302.382
302.602
302.806
302.99
303.148
303.279
303.384
303.468
303.534
303.586
303.629
303.665
303.698
303.728
303.76
303.796
303.84
303.895
303.969
304.068
304.201
304.38
304.611
304.896
305.224
305.576
305.966
306.479
307.195
308.052
300.333
300.958
301.489
301.882
302.17
302.411
302.634
302.841
303.027
303.186
303.316
303.421
303.503
303.568
303.62
303.662
303.697
303.729
303.76
303.792
303.829
303.873
303.93
304.005
304.106
304.242
304.423
304.655
304.941
305.269
305.619
306.008
306.52
307.235
308.091
300.337
300.97
301.507
301.905
302.196
302.44
302.667
302.877
303.065
303.224
303.354
303.458
303.539
303.602
303.653
303.694
303.729
303.761
303.792
303.824
303.862
303.907
303.965
304.041
304.144
304.282
304.465
304.699
304.986
305.313
305.661
306.048
306.559
307.273
308.129
300.341
300.982
301.526
301.928
302.222
302.47
302.701
302.914
303.103
303.263
303.392
303.495
303.575
303.637
303.687
303.727
303.762
303.793
303.824
303.857
303.894
303.94
303.999
304.078
304.182
304.323
304.507
304.743
305.03
305.356
305.702
306.088
306.598
307.312
308.167
300.346
300.995
301.546
301.951
302.249
302.501
302.735
302.952
303.143
303.302
303.431
303.532
303.611
303.672
303.721
303.76
303.794
303.825
303.856
303.889
303.927
303.974
304.034
304.114
304.22
304.362
304.549
304.786
305.073
305.398
305.742
306.127
306.636
307.348
308.203
300.35
301.008
301.565
301.976
302.277
302.533
302.771
302.991
303.183
303.343
303.47
303.57
303.648
303.707
303.755
303.794
303.827
303.858
303.888
303.921
303.96
304.007
304.069
304.15
304.258
304.402
304.59
304.829
305.116
305.439
305.782
306.165
306.674
307.385
308.239
300.355
301.021
301.585
302
302.305
302.565
302.808
303.03
303.224
303.384
303.51
303.609
303.685
303.743
303.789
303.827
303.86
303.89
303.921
303.954
303.993
304.041
304.103
304.186
304.295
304.441
304.631
304.87
305.157
305.48
305.821
306.202
306.71
307.421
308.274
300.36
301.035
301.606
302.025
302.334
302.598
302.845
303.071
303.266
303.425
303.551
303.648
303.722
303.779
303.824
303.861
303.893
303.923
303.953
303.987
304.026
304.075
304.138
304.222
304.333
304.48
304.672
304.912
305.199
305.52
305.859
306.239
306.746
307.456
308.309
300.364
301.049
301.627
302.051
302.364
302.632
302.884
303.112
303.308
303.468
303.592
303.687
303.76
303.815
303.859
303.895
303.926
303.956
303.986
304.019
304.059
304.109
304.173
304.257
304.37
304.519
304.711
304.952
305.239
305.559
305.896
306.275
306.781
307.491
308.343
300.369
301.063
301.648
302.077
302.394
302.667
302.923
303.155
303.352
303.511
303.634
303.727
303.798
303.852
303.894
303.929
303.96
303.989
304.019
304.053
304.093
304.143
304.208
304.294
304.408
304.558
304.752
304.993
305.28
305.598
305.933
306.311
306.816
307.525
308.377
300.374
301.077
301.67
302.104
302.425
302.703
302.963
303.198
303.396
303.554
303.676
303.767
303.836
303.889
303.93
303.964
303.994
304.022
304.052
304.086
304.126
304.177
304.243
304.33
304.445
304.596
304.791
305.033
305.319
305.635
305.969
306.345
306.85
307.558
308.41
300.379
301.091
301.692
302.131
302.457
302.74
303.005
303.242
303.441
303.598
303.718
303.808
303.875
303.926
303.966
303.999
304.028
304.056
304.086
304.119
304.16
304.211
304.278
304.366
304.483
304.635
304.831
305.074
305.359
305.674
306.005
306.38
306.885
307.592
308.444
300.385
301.106
301.715
302.159
302.489
302.778
303.048
303.288
303.487
303.643
303.762
303.849
303.914
303.964
304.002
304.034
304.062
304.09
304.119
304.153
304.194
304.246
304.313
304.402
304.52
304.674
304.87
305.113
305.397
305.71
306.04
306.414
306.918
307.625
308.476
300.39
301.122
301.738
302.188
302.523
302.817
303.092
303.335
303.534
303.689
303.805
303.891
303.954
304.001
304.038
304.069
304.097
304.124
304.153
304.187
304.228
304.28
304.349
304.439
304.558
304.713
304.91
305.153
305.437
305.748
306.076
306.449
306.952
307.659
308.51
300.395
301.137
301.762
302.217
302.558
302.858
303.137
303.383
303.583
303.736
303.85
303.933
303.994
304.04
304.075
304.105
304.132
304.159
304.188
304.221
304.262
304.315
304.384
304.475
304.595
304.751
304.949
305.192
305.475
305.784
306.11
306.482
306.984
307.691
308.542
300.401
301.153
301.787
302.248
302.594
302.9
303.185
303.432
303.632
303.784
303.895
303.976
304.035
304.078
304.113
304.141
304.167
304.193
304.222
304.256
304.297
304.351
304.421
304.513
304.634
304.791
304.989
305.232
305.514
305.821
306.146
306.516
307.018
307.724
308.576
300.407
301.17
301.813
302.28
302.632
302.944
303.233
303.483
303.683
303.833
303.942
304.02
304.076
304.118
304.15
304.178
304.203
304.228
304.257
304.29
304.332
304.386
304.457
304.55
304.671
304.829
305.029
305.271
305.552
305.857
306.18
306.549
307.051
307.756
308.607
300.413
301.187
301.839
302.312
302.67
302.989
303.284
303.536
303.735
303.882
303.989
304.064
304.118
304.157
304.188
304.214
304.239
304.264
304.292
304.326
304.368
304.422
304.494
304.587
304.71
304.869
305.069
305.311
305.591
305.894
306.215
306.584
307.085
307.79
308.641
300.419
301.205
301.867
302.346
302.711
303.036
303.336
303.59
303.788
303.933
304.036
304.109
304.16
304.197
304.227
304.252
304.275
304.3
304.327
304.361
304.403
304.458
304.53
304.625
304.749
304.908
305.108
305.35
305.628
305.93
306.249
306.616
307.117
307.822
308.673
300.425
301.223
301.895
302.382
302.753
303.085
303.39
303.646
303.842
303.985
304.085
304.154
304.203
304.238
304.266
304.289
304.312
304.336
304.363
304.397
304.44
304.495
304.568
304.663
304.788
304.949
305.149
305.391
305.668
305.967
306.285
306.651
307.151
307.856
308.708
300.432
301.242
301.924
302.418
302.796
303.136
303.446
303.703
303.898
304.038
304.134
304.2
304.246
304.279
304.305
304.327
304.349
304.372
304.4
304.433
304.476
304.532
304.605
304.702
304.827
304.988
305.189
305.43
305.705
306.003
306.319
306.684
307.184
307.889
308.74
300.439
301.262
301.955
302.456
302.841
303.189
303.504
303.761
303.955
304.091
304.184
304.247
304.29
304.321
304.345
304.366
304.387
304.409
304.436
304.47
304.513
304.569
304.644
304.741
304.868
305.029
305.231
305.471
305.745
306.041
306.355
306.719
307.219
307.923
308.775
300.446
301.283
301.986
302.495
302.888
303.244
303.563
303.822
304.013
304.146
304.235
304.294
304.334
304.363
304.385
304.405
304.424
304.447
304.473
304.507
304.55
304.607
304.682
304.78
304.907
305.07
305.271
305.511
305.783
306.077
306.389
306.752
307.251
307.956
308.808
300.453
301.304
302.019
302.536
302.937
303.3
303.625
303.884
304.073
304.202
304.287
304.343
304.379
304.405
304.426
304.444
304.463
304.484
304.511
304.544
304.588
304.646
304.721
304.82
304.949
305.112
305.313
305.552
305.823
306.115
306.426
306.788
307.287
307.992
308.843
300.461
301.326
302.053
302.579
302.988
303.359
303.688
303.948
304.134
304.259
304.34
304.392
304.425
304.448
304.467
304.484
304.502
304.523
304.549
304.582
304.626
304.684
304.76
304.86
304.989
305.153
305.354
305.592
305.861
306.151
306.46
306.822
307.32
308.025
308.876
300.469
301.349
302.088
302.622
303.04
303.42
303.754
304.013
304.197
304.318
304.394
304.441
304.471
304.492
304.509
304.524
304.541
304.561
304.587
304.621
304.665
304.724
304.801
304.902
305.032
305.196
305.397
305.635
305.903
306.19
306.498
306.859
307.357
308.061
308.913
300.477
301.373
302.124
302.668
303.094
303.483
303.821
304.08
304.261
304.377
304.448
304.492
304.518
304.536
304.551
304.565
304.581
304.6
304.626
304.659
304.704
304.763
304.841
304.942
305.073
305.238
305.439
305.675
305.941
306.227
306.533
306.893
307.391
308.095
308.947
300.486
301.397
302.161
302.714
303.149
303.547
303.889
304.149
304.325
304.437
304.504
304.543
304.566
304.581
304.594
304.606
304.621
304.64
304.665
304.699
304.744
304.804
304.882
304.985
305.117
305.282
305.483
305.719
305.983
306.267
306.571
306.931
307.429
308.133
308.985
300.495
301.423
302.199
302.761
303.206
303.612
303.959
304.218
304.391
304.498
304.56
304.594
304.614
304.627
304.637
304.648
304.662
304.68
304.705
304.738
304.783
304.844
304.923
305.026
305.159
305.324
305.525
305.76
306.022
306.304
306.607
306.965
307.463
308.167
309.019
300.504
301.448
302.238
302.81
303.264
303.678
304.03
304.288
304.458
304.56
304.617
304.647
304.663
304.673
304.681
304.691
304.703
304.721
304.745
304.779
304.825
304.885
304.966
305.07
305.204
305.37
305.571
305.805
306.065
306.345
306.647
307.004
307.502
308.206
309.058
300.513
301.475
302.278
302.86
303.323
303.746
304.102
304.36
304.526
304.623
304.674
304.7
304.712
304.719
304.725
304.733
304.745
304.762
304.786
304.819
304.865
304.926
305.007
305.112
305.246
305.413
305.613
305.846
306.105
306.383
306.682
307.039
307.537
308.24
309.092
300.523
301.502
302.318
302.91
303.383
303.815
304.175
304.433
304.595
304.687
304.733
304.754
304.762
304.767
304.771
304.777
304.787
304.804
304.827
304.861
304.907
304.969
305.051
305.157
305.292
305.459
305.66
305.892
306.149
306.425
306.723
307.08
307.577
308.281
309.133
300.532
301.529
302.36
302.962
303.444
303.885
304.249
304.507
304.666
304.752
304.793
304.808
304.813
304.814
304.816
304.821
304.83
304.845
304.868
304.902
304.948
305.011
305.093
305.2
305.335
305.502
305.702
305.933
306.188
306.462
306.759
307.115
307.612
308.315
309.167
300.542
301.557
302.402
303.015
303.507
303.957
304.326
304.583
304.738
304.819
304.854
304.864
304.865
304.863
304.862
304.865
304.873
304.888
304.911
304.944