/*--------------------------------*- C++ -*----------------------------------*\
| =========                 |                                                 |
| \\      /  F ield         | OpenFOAM: The Open Source CFD Toolbox           |
|  \\    /   O peration     | Version:  v2006                                 |
|   \\  /    A nd           | Website:  www.openfoam.com                      |
|    \\/     M anipulation  |                                                 |
\*---------------------------------------------------------------------------*/
FoamFile
{
    version     2.0;
    format      ascii;
    class       volScalarField;
    location    "86";
    object      nut;
}
// * * * * * * * * * * * * * * * * * * * * * * * * * * * * * * * * * * * * * //

dimensions      [0 2 -1 0 0 0 0];


internalField   nonuniform List<scalar> 
78750
(
3.83626e-09
3.44963e-07
5.80337e-07
8.12111e-07
1.03644e-06
1.24837e-06
1.445e-06
1.62463e-06
1.78624e-06
1.92932e-06
2.05373e-06
2.15958e-06
2.24717e-06
2.31696e-06
2.36948e-06
2.40438e-06
2.42216e-06
2.42345e-06
2.4088e-06
2.37858e-06
2.33358e-06
2.27298e-06
2.19685e-06
2.10507e-06
1.99723e-06
1.8727e-06
1.73074e-06
1.56984e-06
1.38879e-06
1.18636e-06
9.60552e-07
7.12437e-07
4.61364e-07
2.54809e-07
5.21398e-09
2.96403e-09
1.71517e-06
4.35561e-06
7.24375e-06
9.64763e-06
1.12496e-05
1.23489e-05
1.32132e-05
1.39773e-05
1.47091e-05
1.54468e-05
1.62136e-05
1.70305e-05
1.79273e-05
1.8868e-05
1.89882e-05
1.88285e-05
1.85873e-05
1.82737e-05
1.7896e-05
1.74612e-05
1.69726e-05
1.64335e-05
1.58455e-05
1.52075e-05
1.45165e-05
1.37709e-05
1.23541e-05
1.04312e-05
8.44164e-06
6.29879e-06
4.30316e-06
3.15728e-06
2.10559e-06
2.26573e-08
4.76941e-09
1.9376e-06
4.23915e-06
7.07517e-06
1.03113e-05
1.35467e-05
1.62805e-05
1.82708e-05
1.95924e-05
2.04323e-05
2.09493e-05
2.12472e-05
2.1389e-05
2.14144e-05
2.13474e-05
2.11893e-05
2.09277e-05
2.05639e-05
2.01089e-05
1.95709e-05
1.89569e-05
1.82822e-05
1.75604e-05
1.67893e-05
1.59581e-05
1.50425e-05
1.39942e-05
1.27408e-05
1.11832e-05
9.24144e-06
7.10276e-06
5.50434e-06
5.30914e-06
2.30242e-06
3.85363e-08
8.34102e-09
1.82695e-06
4.11411e-06
7.26216e-06
1.12323e-05
1.53798e-05
1.88204e-05
2.11842e-05
2.25882e-05
2.32606e-05
2.33941e-05
2.31364e-05
2.26005e-05
2.18738e-05
2.10239e-05
2.01034e-05
1.91506e-05
1.81928e-05
1.72498e-05
1.63388e-05
1.54789e-05
1.4694e-05
1.40082e-05
1.34342e-05
1.29613e-05
1.25411e-05
1.20675e-05
1.13702e-05
1.02652e-05
8.72143e-06
7.12237e-06
6.32184e-06
7.21485e-06
2.13077e-06
5.00801e-08
1.23327e-08
1.8238e-06
4.2615e-06
7.96955e-06
1.30129e-05
1.8322e-05
2.24767e-05
2.5047e-05
2.62446e-05
2.63807e-05
2.57561e-05
2.46431e-05
2.32667e-05
2.17959e-05
2.03425e-05
1.89682e-05
1.76971e-05
1.65284e-05
1.54494e-05
1.44472e-05
1.35195e-05
1.2681e-05
1.19574e-05
1.13705e-05
1.09265e-05
1.05963e-05
1.02842e-05
9.81545e-06
9.01372e-06
7.91083e-06
6.94664e-06
6.96778e-06
8.22686e-06
2.00317e-06
5.80381e-08
1.66862e-08
1.85142e-06
4.46392e-06
8.74758e-06
1.4875e-05
2.11619e-05
2.55561e-05
2.77595e-05
2.82534e-05
2.75326e-05
2.60368e-05
2.41448e-05
2.21511e-05
2.02504e-05
1.85429e-05
1.70583e-05
1.57822e-05
1.46784e-05
1.37064e-05
1.28337e-05
1.20436e-05
1.13374e-05
1.07224e-05
1.02019e-05
9.77509e-06
9.42236e-06
9.07644e-06
8.61781e-06
7.9543e-06
7.19026e-06
6.76402e-06
7.50472e-06
8.34748e-06
1.90657e-06
6.33766e-08
2.08438e-08
1.88671e-06
4.6356e-06
9.34946e-06
1.62558e-05
2.30958e-05
2.74555e-05
2.92698e-05
2.91714e-05
2.77513e-05
2.55687e-05
2.31119e-05
2.073e-05
1.8615e-05
1.68277e-05
1.53518e-05
1.41379e-05
1.31272e-05
1.22658e-05
1.15136e-05
1.08532e-05
1.02852e-05
9.79743e-06
9.36618e-06
8.97234e-06
8.593e-06
8.18559e-06
7.69461e-06
7.1154e-06
6.60282e-06
6.57774e-06
7.85342e-06
7.93333e-06
1.83096e-06
6.73874e-08
2.45581e-08
1.92387e-06
4.77324e-06
9.80398e-06
1.73157e-05
2.45634e-05
2.88062e-05
3.0179e-05
2.94811e-05
2.74396e-05
2.47401e-05
2.19382e-05
1.93805e-05
1.72106e-05
1.54388e-05
1.40156e-05
1.28758e-05
1.19571e-05
1.12069e-05
1.05908e-05
1.00936e-05
9.69647e-06
9.34848e-06
8.99356e-06
8.59533e-06
8.13925e-06
7.62208e-06
7.05546e-06
6.5033e-06
6.14506e-06
6.37926e-06
7.99303e-06
7.42345e-06
1.77335e-06
7.11566e-08
2.79846e-08
1.9522e-06
4.8582e-06
1.00787e-05
1.79533e-05
2.53757e-05
2.94447e-05
3.04775e-05
2.93762e-05
2.69541e-05
2.39707e-05
2.10071e-05
1.83864e-05
1.62097e-05
1.44521e-05
1.30473e-05
1.19279e-05
1.10362e-05
1.03296e-05
9.78837e-06
9.41419e-06
9.17762e-06
8.99366e-06
8.76487e-06
8.41638e-06
7.92228e-06
7.313e-06
6.66576e-06
6.10259e-06
5.82013e-06
6.19963e-06
7.99197e-06
6.96027e-06
1.72889e-06
7.53366e-08
3.11394e-08
1.97814e-06
4.92597e-06
1.02857e-05
1.84341e-05
2.59911e-05
2.99191e-05
3.06664e-05
2.92328e-05
2.65203e-05
2.33472e-05
2.02986e-05
1.76626e-05
1.5501e-05
1.37653e-05
1.23783e-05
1.12706e-05
1.03914e-05
9.70809e-06
9.21497e-06
8.92719e-06
8.80469e-06
8.7452e-06
8.62351e-06
8.33007e-06
7.82005e-06
7.14226e-06
6.42487e-06
5.83643e-06
5.58652e-06
6.04443e-06
7.92495e-06
6.57144e-06
1.69407e-06
7.99082e-08
3.42927e-08
1.99933e-06
4.97254e-06
1.04256e-05
1.87534e-05
2.63536e-05
3.0129e-05
3.06549e-05
2.89998e-05
2.61167e-05
2.28495e-05
1.97721e-05
1.71415e-05
1.4993e-05
1.32644e-05
1.18749e-05
1.07572e-05
9.86452e-06
9.17589e-06
8.70163e-06
8.46951e-06
8.43336e-06
8.48229e-06
8.47016e-06
8.25409e-06
7.76384e-06
7.054e-06
6.28761e-06
5.67138e-06
5.43099e-06
5.93185e-06
7.8594e-06
6.25331e-06
1.66759e-06
8.4767e-08
3.74075e-08
2.02034e-06
5.02038e-06
1.05644e-05
1.90553e-05
2.66917e-05
3.03333e-05
3.0662e-05
2.88116e-05
2.57872e-05
2.24538e-05
1.93684e-05
1.67569e-05
1.46303e-05
1.29144e-05
1.15254e-05
1.03973e-05
9.48835e-06
8.78369e-06
8.30644e-06
8.09702e-06
8.107e-06
8.22437e-06
8.29287e-06
8.14679e-06
7.69267e-06
6.98114e-06
6.19443e-06
5.56444e-06
5.33191e-06
5.86665e-06
7.8315e-06
5.98947e-06
1.64794e-06
8.96841e-08
4.06284e-08
2.03952e-06
5.06197e-06
1.06841e-05
1.93057e-05
2.69402e-05
3.04432e-05
3.06049e-05
2.86107e-05
2.5498e-05
2.21356e-05
1.90593e-05
1.64691e-05
1.4359e-05
1.26482e-05
1.12523e-05
1.01078e-05
9.17695e-06
8.45102e-06
7.96202e-06
7.75858e-06
7.79286e-06
7.95508e-06
8.08513e-06
8.00323e-06
7.597e-06
6.90811e-06
6.12629e-06
5.49871e-06
5.27981e-06
5.84997e-06
7.85218e-06
5.77361e-06
1.63463e-06
9.4559e-08
4.38928e-08
2.05966e-06
5.10966e-06
1.08198e-05
1.95767e-05
2.72051e-05
3.05725e-05
3.05748e-05
2.84485e-05
2.52625e-05
2.18857e-05
1.88295e-05
1.62673e-05
1.4178e-05
1.24749e-05
1.1073e-05
9.91125e-06
8.95549e-06
8.20205e-06
7.69068e-06
7.47808e-06
7.51575e-06
7.697e-06
7.86311e-06
7.82852e-06
7.4691e-06
6.81707e-06
6.06115e-06
5.45454e-06
5.26127e-06
5.87571e-06
7.92043e-06
5.59809e-06
1.62699e-06
9.93109e-08
4.72397e-08
2.07876e-06
5.15471e-06
1.09475e-05
1.98239e-05
2.74289e-05
3.06637e-05
3.05283e-05
2.8301e-05
2.50703e-05
2.16959e-05
1.86643e-05
1.6128e-05
1.40547e-05
1.23545e-05
1.09432e-05
9.76176e-06
8.77918e-06
7.99572e-06
7.45649e-06
7.22534e-06
7.25511e-06
7.44168e-06
7.62973e-06
7.63286e-06
7.32001e-06
6.71454e-06
5.99946e-06
5.42801e-06
5.27146e-06
5.93984e-06
8.02884e-06
5.45622e-06
1.62407e-06
1.03929e-07
5.06483e-08
2.09905e-06
5.20548e-06
1.10906e-05
2.00931e-05
2.76697e-05
3.07723e-05
3.05065e-05
2.81905e-05
2.49283e-05
2.15669e-05
1.85666e-05
1.60595e-05
1.40038e-05
1.2307e-05
1.08854e-05
9.68215e-06
8.66902e-06
7.85008e-06
7.27428e-06
7.01294e-06
7.02141e-06
7.19825e-06
7.39228e-06
7.42037e-06
7.14973e-06
6.59591e-06
5.93263e-06
5.40829e-06
5.29912e-06
6.03136e-06
8.16639e-06
5.34463e-06
1.62539e-06
1.08415e-07
5.40972e-08
2.1185e-06
5.25479e-06
1.12298e-05
2.03489e-05
2.78888e-05
3.08662e-05
3.04874e-05
2.81029e-05
2.48249e-05
2.14836e-05
1.85149e-05
1.60348e-05
1.39942e-05
1.2299e-05
1.08661e-05
9.63986e-06
8.59485e-06
7.73835e-06
7.12183e-06
6.82371e-06
6.80345e-06
6.96258e-06
7.15472e-06
7.20144e-06
6.9705e-06
6.47125e-06
5.86666e-06
5.39775e-06
5.34445e-06
6.14918e-06
8.32756e-06
5.25709e-06
1.63007e-06
1.12776e-07
5.7613e-08
2.13908e-06
5.30878e-06
1.13819e-05
2.06235e-05
2.81232e-05
3.09778e-05
3.04945e-05
2.80533e-05
2.47698e-05
2.14553e-05
1.8522e-05
1.60706e-05
1.40462e-05
1.23532e-05
1.09084e-05
9.65728e-06
8.57698e-06
7.67725e-06
7.01202e-06
6.66604e-06
6.60541e-06
6.73495e-06
6.91427e-06
6.97194e-06
6.77798e-06
6.33527e-06
5.79453e-06
5.38741e-06
5.39655e-06
6.28045e-06
8.49991e-06
5.19071e-06
1.6375e-06
1.17028e-07
6.11379e-08
2.15894e-06
5.36226e-06
1.15341e-05
2.08942e-05
2.83491e-05
3.10868e-05
3.05104e-05
2.80235e-05
2.47413e-05
2.14555e-05
1.8557e-05
1.61339e-05
1.41263e-05
1.24369e-05
1.09819e-05
9.70768e-06
8.59261e-06
7.6486e-06
6.93192e-06
6.53252e-06
6.42539e-06
6.51893e-06
6.67913e-06
6.74257e-06
6.58295e-06
6.19722e-06
5.72309e-06
5.38201e-06
5.4591e-06
6.42844e-06
8.68337e-06
5.141e-06
1.64722e-06
1.21173e-07
6.4733e-08
2.17967e-06
5.41952e-06
1.16979e-05
2.1183e-05
2.85913e-05
3.12156e-05
3.05541e-05
2.80302e-05
2.47556e-05
2.15018e-05
1.86398e-05
1.62465e-05
1.42572e-05
1.25729e-05
1.11088e-05
9.81111e-06
8.65915e-06
7.66642e-06
6.8911e-06
6.42793e-06
6.26392e-06
6.31166e-06
6.44427e-06
6.50743e-06
6.37931e-06
6.05062e-06
5.64515e-06
5.37329e-06
5.52211e-06
6.58103e-06
8.8681e-06
5.10641e-06
1.65875e-06
1.25228e-07
6.83184e-08
2.19963e-06
5.47671e-06
1.18651e-05
2.14765e-05
2.88352e-05
3.13492e-05
3.06071e-05
2.80487e-05
2.47818e-05
2.15595e-05
1.87345e-05
1.63728e-05
1.44053e-05
1.27304e-05
1.12619e-05
9.94491e-06
8.75852e-06
7.71747e-06
6.88184e-06
6.35033e-06
6.12407e-06
6.12035e-06
6.21971e-06
6.27754e-06
6.17722e-06
5.90376e-06
5.56693e-06
5.36578e-06
5.58929e-06
6.74127e-06
9.05345e-06
5.08165e-06
1.67145e-06
1.29183e-07
7.19778e-08
2.22006e-06
5.53657e-06
1.20427e-05
2.17895e-05
2.9101e-05
3.1508e-05
3.06886e-05
2.80984e-05
2.4841e-05
2.16515e-05
1.88648e-05
1.65367e-05
1.45933e-05
1.29303e-05
1.14597e-05
1.01247e-05
8.90354e-06
7.81154e-06
6.91031e-06
6.30175e-06
6.00472e-06
5.9417e-06
6.0009e-06
6.04787e-06
5.97159e-06
5.75139e-06
5.48287e-06
5.35357e-06
5.65425e-06
6.90265e-06
9.2378e-06
5.06898e-06
1.68564e-06
1.33057e-07
7.56165e-08
2.23951e-06
5.59568e-06
1.2223e-05
2.21085e-05
2.93691e-05
3.16702e-05
3.07743e-05
2.81477e-05
2.4897e-05
2.17407e-05
1.89949e-05
1.67046e-05
1.47907e-05
1.31461e-05
1.16801e-05
1.03331e-05
9.08141e-06
7.94009e-06
6.97223e-06
6.28286e-06
5.91046e-06
5.78324e-06
5.79726e-06
5.82829e-06
5.7713e-06
5.60057e-06
5.39794e-06
5.33956e-06
5.7178e-06
7.06339e-06
9.41443e-06
5.06044e-06
1.69997e-06
1.36826e-07
7.93284e-08
2.25919e-06
5.65607e-06
1.24072e-05
2.24283e-05
2.96251e-05
3.1822e-05
3.08618e-05
2.82093e-05
2.4972e-05
2.18523e-05
1.91495e-05
1.68989e-05
1.50171e-05
1.33942e-05
1.19363e-05
1.05806e-05
9.30031e-06
8.10937e-06
7.07172e-06
6.29526e-06
5.84061e-06
5.64269e-06
5.60559e-06
5.61528e-06
5.57284e-06
5.44788e-06
5.30896e-06
5.32109e-06
5.77826e-06
7.22368e-06
9.58974e-06
5.06155e-06
1.71548e-06
1.40513e-07
8.30119e-08
2.27807e-06
5.71606e-06
1.2592e-05
2.27402e-05
2.98664e-05
3.1958e-05
3.09333e-05
2.82644e-05
2.50388e-05
2.19543e-05
1.92968e-05
1.70907e-05
1.52473e-05
1.36534e-05
1.22115e-05
1.08545e-05
9.55166e-06
8.31455e-06
7.20756e-06
6.34185e-06
5.80059e-06
5.52733e-06
5.43421e-06
5.41721e-06
5.38368e-06
5.29922e-06
5.21997e-06
5.30014e-06
5.83508e-06
7.37936e-06
9.75378e-06
5.06391e-06
1.73069e-06
1.44087e-07
8.67651e-08
2.297e-06
5.77772e-06
1.27841e-05
2.30489e-05
3.00973e-05
3.20838e-05
3.0998e-05
2.83173e-05
2.511e-05
2.2066e-05
1.9457e-05
1.7298e-05
1.54957e-05
1.39344e-05
1.25131e-05
1.11597e-05
9.8387e-06
8.55816e-06
7.38195e-06
6.42426e-06
5.79087e-06
5.43662e-06
5.28186e-06
5.23244e-06
5.202e-06
5.15278e-06
5.12928e-06
5.27536e-06
5.88781e-06
7.53257e-06
9.91663e-06
5.07236e-06
1.74638e-06
1.47563e-07
9.04745e-08
2.31461e-06
5.83676e-06
1.29718e-05
2.33453e-05
3.03096e-05
3.21899e-05
3.10427e-05
2.83516e-05
2.51671e-05
2.21655e-05
1.96069e-05
1.74987e-05
1.57435e-05
1.4222e-05
1.28291e-05
1.14874e-05
1.01555e-05
8.83691e-06
7.59449e-06
6.54569e-06
5.81664e-06
5.37704e-06
5.1557e-06
5.06812e-06
5.03429e-06
5.01395e-06
5.0411e-06
5.24985e-06
5.93851e-06
7.68435e-06
1.00765e-05
5.0829e-06
1.76182e-06
1.50915e-07
9.42492e-08
2.33241e-06
5.89684e-06
1.31624e-05
2.36395e-05
3.05128e-05
3.22865e-05
3.10799e-05
2.83814e-05
2.52286e-05
2.2269e-05
1.97604e-05
1.77048e-05
1.59996e-05
1.45219e-05
1.31625e-05
1.18384e-05
1.05017e-05
9.15027e-06
7.84508e-06
6.70653e-06
5.87782e-06
5.3482e-06
5.05531e-06
4.92384e-06
4.88006e-06
4.88199e-06
4.95423e-06
5.22203e-06
5.98587e-06
7.83519e-06
1.0233e-05
5.09861e-06
1.77741e-06
1.5415e-07
9.79783e-08
2.34921e-06
5.95502e-06
1.3349e-05
2.39214e-05
3.0697e-05
3.2362e-05
3.10944e-05
2.83869e-05
2.52649e-05
2.23512e-05
1.98982e-05
1.79011e-05
1.6252e-05
1.48246e-05
1.35058e-05
1.2207e-05
1.08731e-05
9.49533e-06
8.13204e-06
6.90665e-06
5.97617e-06
5.35338e-06
4.98502e-06
4.80453e-06
4.7444e-06
4.7618e-06
4.87349e-06
5.19705e-06
6.03624e-06
7.99265e-06
1.03903e-05
5.11906e-06
1.79339e-06
1.57252e-07
1.01764e-07
2.3663e-06
6.01452e-06
1.3539e-05
2.42019e-05
3.08732e-05
3.24285e-05
3.11008e-05
2.83863e-05
2.52972e-05
2.2431e-05
2.00346e-05
1.8097e-05
1.65057e-05
1.51317e-05
1.38581e-05
1.25907e-05
1.12665e-05
9.869e-06
8.45262e-06
7.14317e-06
6.1094e-06
5.39083e-06
4.94362e-06
4.70947e-06
4.62693e-06
4.65306e-06
4.79822e-06
5.17363e-06
6.08716e-06
8.1522e-06
1.05468e-05
5.14297e-06
1.80963e-06
1.60219e-07
1.05504e-07
2.38275e-06
6.07292e-06
1.37256e-05
2.44697e-05
3.10302e-05
3.24736e-05
3.10839e-05
2.83612e-05
2.53056e-05
2.24903e-05
2.01549e-05
1.82812e-05
1.67526e-05
1.54373e-05
1.42151e-05
1.2986e-05
1.16788e-05
1.02684e-05
8.80419e-06
7.41385e-06
6.27693e-06
5.46129e-06
4.93289e-06
4.64129e-06
4.53094e-06
4.55957e-06
4.73259e-06
5.15623e-06
6.14309e-06
8.31734e-06
1.0703e-05
5.1691e-06
1.82595e-06
1.63034e-07
1.0929e-07
2.39968e-06
6.13331e-06
1.39156e-05
2.47354e-05
3.11786e-05
3.25084e-05
3.10564e-05
2.83262e-05
2.53056e-05
2.25434e-05
2.02697e-05
1.84603e-05
1.69953e-05
1.5741e-05
1.4574e-05
1.33887e-05
1.21054e-05
1.06892e-05
9.18304e-06
7.71552e-06
6.47627e-06
5.56274e-06
4.95116e-06
4.59882e-06
4.45581e-06
4.48102e-06
4.67627e-06
5.14403e-06
6.20242e-06
8.48619e-06
1.08583e-05
5.19722e-06
1.84226e-06
1.65697e-07
1.1303e-07
2.41628e-06
6.19403e-06
1.41015e-05
2.49871e-05
3.13078e-05
3.2522e-05
3.10058e-05
2.82668e-05
2.52821e-05
2.25788e-05
2.03694e-05
1.86268e-05
1.72291e-05
1.604e-05
1.4933e-05
1.37969e-05
1.25437e-05
1.11283e-05
9.58614e-06
8.0456e-06
6.70617e-06
5.69489e-06
4.99886e-06
4.58308e-06
4.40306e-06
4.41932e-06
4.63125e-06
5.139e-06
6.26725e-06
8.65948e-06
1.10112e-05
5.22611e-06
1.85838e-06
1.68198e-07
1.1677e-07
2.43274e-06
6.25568e-06
1.42884e-05
2.5235e-05
3.14273e-05
3.25239e-05
3.09439e-05
2.81967e-05
2.52476e-05
2.26038e-05
2.04591e-05
1.87845e-05
1.74557e-05
1.63339e-05
1.52897e-05
1.42069e-05
1.29893e-05
1.15812e-05
1.00093e-05
8.40067e-06
6.96406e-06
5.85575e-06
5.0744e-06
4.59278e-06
4.37181e-06
4.3741e-06
4.59783e-06
5.14247e-06
6.34041e-06
8.83767e-06
1.11627e-05
5.25602e-06
1.87427e-06
1.70541e-07
1.20414e-07
2.44803e-06
6.31396e-06
1.44684e-05
2.547e-05
3.15298e-05
3.25051e-05
3.08564e-05
2.80996e-05
2.51882e-05
2.26082e-05
2.0533e-05
1.893e-05
1.76733e-05
1.6622e-05
1.56438e-05
1.46181e-05
1.34406e-05
1.20451e-05
1.04491e-05
8.77755e-06
7.24785e-06
6.04425e-06
5.17746e-06
4.62819e-06
4.36287e-06
4.34663e-06
4.57752e-06
5.15566e-06
6.42173e-06
9.02189e-06
1.13131e-05
5.28669e-06
1.88989e-06
1.72727e-07
1.24053e-07
2.46318e-06
6.37315e-06
1.46529e-05
2.5704e-05
3.16245e-05
3.24777e-05
3.07616e-05
2.7995e-05
2.51188e-05
2.25977e-05
2.05912e-05
1.90629e-05
1.7881e-05
1.69021e-05
1.59923e-05
1.50266e-05
1.38934e-05
1.25156e-05
1.09013e-05
9.17237e-06
7.55433e-06
6.25784e-06
5.30612e-06
4.68799e-06
4.37539e-06
4.33648e-06
4.57006e-06
5.178e-06
6.50981e-06
9.21058e-06
1.14622e-05
5.31837e-06
1.90526e-06
1.74761e-07
1.2762e-07
2.47766e-06
6.43076e-06
1.48334e-05
2.59254e-05
3.17022e-05
3.24303e-05
3.06442e-05
2.78678e-05
2.50299e-05
2.25731e-05
2.06379e-05
1.91835e-05
1.80785e-05
1.71753e-05
1.63365e-05
1.54337e-05
1.43479e-05
1.29919e-05
1.1364e-05
9.58281e-06
7.88142e-06
6.49487e-06
5.45924e-06
4.77152e-06
4.40929e-06
4.344e-06
4.57604e-06
5.21001e-06
6.60495e-06
9.4039e-06
1.16101e-05
5.35089e-06
1.92037e-06
1.76651e-07
1.31146e-07
2.49174e-06
6.48787e-06
1.50136e-05
2.61405e-05
3.17687e-05
3.23706e-05
3.05143e-05
2.77276e-05
2.49269e-05
2.25339e-05
2.06722e-05
1.92943e-05
1.82648e-05
1.74376e-05
1.66725e-05
1.58353e-05
1.48003e-05
1.34703e-05
1.18338e-05
1.00057e-05
8.22642e-06
6.7531e-06
5.63497e-06
4.87735e-06
4.46354e-06
4.36856e-06
4.59505e-06
5.25124e-06
6.70635e-06
9.60072e-06
1.1757e-05
5.38441e-06
1.93525e-06
1.78405e-07
1.34602e-07
2.50524e-06
6.5438e-06
1.51909e-05
2.6344e-05
3.18187e-05
3.22923e-05
3.03648e-05
2.75689e-05
2.48073e-05
2.24802e-05
2.06938e-05
1.93946e-05
1.84438e-05
1.76927e-05
1.70017e-05
1.62324e-05
1.52507e-05
1.39497e-05
1.23086e-05
1.04387e-05
8.58688e-06
7.03044e-06
5.83168e-06
5.00437e-06
4.5376e-06
4.41013e-06
4.62742e-06
5.30212e-06
6.8143e-06
9.80099e-06
1.19031e-05
5.41879e-06
1.94988e-06
1.80031e-07
1.38002e-07
2.51832e-06
6.59885e-06
1.53663e-05
2.65388e-05
3.18559e-05
3.21998e-05
3.02004e-05
2.7395e-05
2.46728e-05
2.2412e-05
2.07023e-05
1.9483e-05
1.8612e-05
1.79391e-05
1.73223e-05
1.66217e-05
1.56959e-05
1.44274e-05
1.27859e-05
1.08791e-05
8.96034e-06
7.32473e-06
6.0475e-06
5.15104e-06
4.63033e-06
4.46804e-06
4.67284e-06
5.36251e-06
6.92849e-06
1.0004e-05
1.20487e-05
5.45414e-06
1.96428e-06
1.81539e-07
1.41304e-07
2.53066e-06
6.65203e-06
1.55372e-05
2.67209e-05
3.1877e-05
3.20897e-05
3.0018e-05
2.72045e-05
2.45236e-05
2.23308e-05
2.06995e-05
1.95613e-05
1.8771e-05
1.81772e-05
1.76359e-05
1.70037e-05
1.61349e-05
1.49013e-05
1.32629e-05
1.13241e-05
9.3441e-06
7.63375e-06
6.28066e-06
5.31603e-06
4.74089e-06
4.54196e-06
4.73148e-06
5.43286e-06
7.04943e-06
1.021e-05
1.2194e-05
5.49044e-06
1.97847e-06
1.82937e-07
1.4453e-07
2.54248e-06
6.704e-06
1.57052e-05
2.6893e-05
3.18845e-05
3.19645e-05
2.982e-05
2.69988e-05
2.43601e-05
2.22364e-05
2.06847e-05
1.96285e-05
1.89197e-05
1.84053e-05
1.79403e-05
1.73777e-05
1.65655e-05
1.53691e-05
1.37377e-05
1.17716e-05
9.73609e-06
7.95566e-06
6.52953e-06
5.49793e-06
4.86818e-06
4.63119e-06
4.803e-06
5.51314e-06
7.1771e-06
1.04188e-05
1.23395e-05
5.52781e-06
1.99248e-06
1.84235e-07
1.47646e-07
2.55356e-06
6.75387e-06
1.58677e-05
2.70517e-05
3.18762e-05
3.18225e-05
2.96053e-05
2.67781e-05
2.41835e-05
2.21306e-05
2.06599e-05
1.96866e-05
1.90593e-05
1.86243e-05
1.82353e-05
1.77423e-05
1.69878e-05
1.58285e-05
1.4207e-05
1.22187e-05
1.01336e-05
8.28831e-06
6.79243e-06
5.69545e-06
5.01131e-06
4.73533e-06
4.88753e-06
5.60387e-06
7.31225e-06
1.0631e-05
1.24857e-05
5.56639e-06
2.00636e-06
1.85444e-07
1.50669e-07
2.56402e-06
6.80206e-06
1.6026e-05
2.71993e-05
3.18537e-05
3.16647e-05
2.93746e-05
2.65428e-05
2.3994e-05
2.20133e-05
2.0625e-05
1.97354e-05
1.91899e-05
1.88341e-05
1.85205e-05
1.80967e-05
1.73999e-05
1.6279e-05
1.46695e-05
1.26636e-05
1.05351e-05
8.6303e-06
7.06803e-06
5.90734e-06
5.16917e-06
4.8535e-06
4.9845e-06
5.70481e-06
7.45482e-06
1.08464e-05
1.26328e-05
5.60627e-06
2.02015e-06
1.86574e-07
1.53582e-07
2.57376e-06
6.84814e-06
1.61786e-05
2.73336e-05
3.18155e-05
3.14901e-05
2.91277e-05
2.62932e-05
2.37926e-05
2.18858e-05
2.05813e-05
1.97761e-05
1.93125e-05
1.90353e-05
1.87962e-05
1.84405e-05
1.78003e-05
1.67181e-05
1.51225e-05
1.31038e-05
1.09385e-05
8.98e-06
7.35513e-06
6.1327e-06
5.3411e-06
4.98531e-06
5.09388e-06
5.81628e-06
7.60534e-06
1.10655e-05
1.27818e-05
5.64768e-06
2.03391e-06
1.87637e-07
1.56395e-07
2.58284e-06
6.89227e-06
1.63263e-05
2.7456e-05
3.17624e-05
3.1299e-05
2.88645e-05
2.60294e-05
2.35791e-05
2.17481e-05
2.0529e-05
1.98091e-05
1.94276e-05
1.92285e-05
1.9063e-05
1.87738e-05
1.81891e-05
1.71454e-05
1.55654e-05
1.35373e-05
1.13421e-05
9.33583e-06
7.65242e-06
6.37043e-06
5.52617e-06
5.13001e-06
5.21513e-06
5.93803e-06
7.76378e-06
1.12884e-05
1.29329e-05
5.69071e-06
2.04769e-06
1.88644e-07
1.591e-07
2.59121e-06
6.93422e-06
1.64683e-05
2.75654e-05
3.16934e-05
3.10905e-05
2.85846e-05
2.57514e-05
2.3354e-05
2.16008e-05
2.04689e-05
1.98354e-05
1.95362e-05
1.94148e-05
1.93213e-05
1.90968e-05
1.85656e-05
1.75593e-05
1.59964e-05
1.3964e-05
1.17455e-05
9.69723e-06
7.95926e-06
6.61998e-06
5.72393e-06
5.28731e-06
5.3482e-06
6.0702e-06
7.9306e-06
1.15156e-05
1.30871e-05
5.73559e-06
2.06155e-06
1.8961e-07
1.61701e-07
2.59888e-06
6.974e-06
1.66048e-05
2.76624e-05
3.16088e-05
3.08644e-05
2.82875e-05
2.54587e-05
2.31171e-05
2.14439e-05
2.0401e-05
1.9855e-05
1.96388e-05
1.95948e-05
1.95724e-05
1.94105e-05
1.89304e-05
1.79598e-05
1.64147e-05
1.43819e-05
1.2147e-05
1.00627e-05
8.27456e-06
6.88055e-06
5.93382e-06
5.45678e-06
5.49282e-06
6.21304e-06
8.10583e-06
1.17473e-05
1.32447e-05
5.78243e-06
2.07554e-06
1.90546e-07
1.64198e-07
2.60587e-06
7.01161e-06
1.67356e-05
2.77468e-05
3.15081e-05
3.06199e-05
2.79729e-05
2.51516e-05
2.28687e-05
2.12779e-05
2.03257e-05
1.98686e-05
1.97358e-05
1.97691e-05
1.98165e-05
1.97151e-05
1.92833e-05
1.83463e-05
1.68189e-05
1.47894e-05
1.25449e-05
1.04305e-05
8.59692e-06
7.15128e-06
6.15536e-06
5.6383e-06
5.64931e-06
6.36727e-06
8.29016e-06
1.19841e-05
1.34065e-05
5.83153e-06
2.08977e-06
1.91469e-07
1.66594e-07
2.61215e-06
7.04701e-06
1.68607e-05
2.78187e-05
3.1391e-05
3.03568e-05
2.76408e-05
2.48302e-05
2.26092e-05
2.11029e-05
2.02433e-05
1.98763e-05
1.98278e-05
1.99384e-05
2.00548e-05
2.00117e-05
1.96253e-05
1.87189e-05
1.72085e-05
1.5185e-05
1.29371e-05
1.07986e-05
8.92462e-06
7.43085e-06
6.3877e-06
5.83139e-06
5.81744e-06
6.53271e-06
8.48416e-06
1.22268e-05
1.35729e-05
5.88291e-06
2.10427e-06
1.9239e-07
1.68901e-07
2.61785e-06
7.08057e-06
1.69811e-05
2.78785e-05
3.12572e-05
3.00746e-05
2.72915e-05
2.44956e-05
2.23396e-05
2.09197e-05
2.0154e-05
1.98781e-05
1.99146e-05
2.01026e-05
2.02872e-05
2.03005e-05
1.99564e-05
1.90779e-05
1.75832e-05
1.55677e-05
1.33219e-05
1.11652e-05
9.25596e-06
7.71803e-06
6.63013e-06
6.03581e-06
5.99726e-06
6.70957e-06
8.68829e-06
1.24759e-05
1.37446e-05
5.93684e-06
2.11912e-06
1.93319e-07
1.71122e-07
2.62294e-06
7.11216e-06
1.70963e-05
2.79258e-05
3.11065e-05
2.97738e-05
2.69259e-05
2.41486e-05
2.20607e-05
2.07292e-05
2.00585e-05
1.98744e-05
1.99962e-05
2.02618e-05
2.05139e-05
2.05819e-05
2.02773e-05
1.94232e-05
1.79424e-05
1.59364e-05
1.36974e-05
1.15279e-05
9.58877e-06
8.01097e-06
6.88136e-06
6.25078e-06
6.18849e-06
6.89815e-06
8.90358e-06
1.27331e-05
1.39221e-05
5.99333e-06
2.13438e-06
1.94267e-07
1.73268e-07
2.62751e-06
7.14213e-06
1.72071e-05
2.79606e-05
3.09385e-05
2.94546e-05
2.65451e-05
2.37911e-05
2.17744e-05
2.05325e-05
1.99574e-05
1.98653e-05
2.00725e-05
2.04155e-05
2.07345e-05
2.08555e-05
2.05877e-05
1.97551e-05
1.82862e-05
1.62904e-05
1.40622e-05
1.18851e-05
9.92153e-06
8.30871e-06
7.1408e-06
6.47599e-06
6.39086e-06
7.09809e-06
9.12976e-06
1.29978e-05
1.4105e-05
6.05245e-06
2.15009e-06
1.9524e-07
1.75341e-07
2.63151e-06
7.17032e-06
1.73131e-05
2.79827e-05
3.07534e-05
2.91176e-05
2.61505e-05
2.34245e-05
2.1482e-05
2.0331e-05
1.98517e-05
1.98511e-05
2.01434e-05
2.05635e-05
2.09487e-05
2.11214e-05
2.08878e-05
2.00738e-05
1.86148e-05
1.66297e-05
1.44154e-05
1.22351e-05
1.0252e-05
8.6086e-06
7.40594e-06
6.70966e-06
6.60351e-06
7.3095e-06
9.36793e-06
1.32717e-05
1.42932e-05
6.11403e-06
2.16627e-06
1.96241e-07
1.77345e-07
2.63498e-06
7.19675e-06
1.7414e-05
2.79917e-05
3.05512e-05
2.87639e-05
2.57439e-05
2.30508e-05
2.11854e-05
2.01267e-05
1.97426e-05
1.98324e-05
2.02086e-05
2.07051e-05
2.11557e-05
2.13786e-05
2.11771e-05
2.03791e-05
1.89282e-05
1.6954e-05
1.47562e-05
1.25765e-05
1.05786e-05
8.90962e-06
7.67653e-06
6.95162e-06
6.82642e-06
7.53262e-06
9.61846e-06
1.35551e-05
1.44865e-05
6.17807e-06
2.18295e-06
1.97277e-07
1.79284e-07
2.63791e-06
7.22148e-06
1.75101e-05
2.79877e-05
3.0332e-05
2.83939e-05
2.53263e-05
2.26711e-05
2.08857e-05
1.99222e-05
1.96316e-05
1.98094e-05
2.02682e-05
2.084e-05
2.13552e-05
2.16269e-05
2.14557e-05
2.06714e-05
1.92272e-05
1.72644e-05
1.50848e-05
1.29089e-05
1.09004e-05
9.20996e-06
7.95006e-06
7.19945e-06
7.05808e-06
7.76706e-06
9.88196e-06
1.3849e-05
1.46848e-05
6.2445e-06
2.20018e-06
1.98351e-07
1.81157e-07
2.64023e-06
7.2442e-06
1.76006e-05
2.79703e-05
3.00965e-05
2.80094e-05
2.49e-05
2.22876e-05
2.0584e-05
1.97153e-05
1.9517e-05
1.97816e-05
2.03217e-05
2.09677e-05
2.15461e-05
2.18652e-05
2.17223e-05
2.095e-05
1.95117e-05
1.75609e-05
1.54008e-05
1.32312e-05
1.12157e-05
9.50828e-06
8.22606e-06
7.45383e-06
7.29896e-06
8.01316e-06
1.01588e-05
1.41535e-05
1.48872e-05
6.31305e-06
2.21792e-06
1.99463e-07
1.82973e-07
2.64203e-06
7.26533e-06
1.76865e-05
2.79401e-05
2.98444e-05
2.76104e-05
2.44657e-05
2.19016e-05
2.02822e-05
1.95086e-05
1.94017e-05
1.97517e-05
2.03713e-05
2.10897e-05
2.17295e-05
2.20941e-05
2.19777e-05
2.12161e-05
1.97836e-05
1.78462e-05
1.57059e-05
1.35441e-05
1.15246e-05
9.80391e-06
8.50302e-06
7.71233e-06
7.54692e-06
8.26995e-06
1.0449e-05
1.44692e-05
1.50937e-05
6.38385e-06
2.23627e-06
2.0062e-07
1.84736e-07
2.64325e-06
7.28458e-06
1.77674e-05
2.78972e-05
2.95763e-05
2.71978e-05
2.40245e-05
2.15139e-05
1.99809e-05
1.93028e-05
1.92865e-05
1.97203e-05
2.04176e-05
2.12063e-05
2.19052e-05
2.2313e-05
2.22212e-05
2.14696e-05
2.00439e-05
1.81224e-05
1.6001e-05
1.38477e-05
1.18265e-05
1.0096e-05
8.78032e-06
7.97515e-06
7.80313e-06
8.53779e-06
1.07525e-05
1.47956e-05
1.53032e-05
6.4564e-06
2.25513e-06
2.01817e-07
1.86453e-07
2.64399e-06
7.30248e-06
1.78447e-05
2.78421e-05
2.92916e-05
2.67713e-05
2.35767e-05
2.11253e-05
1.96813e-05
1.90992e-05
1.91731e-05
1.96897e-05
2.04632e-05
2.13199e-05
2.20753e-05
2.25235e-05
2.24541e-05
2.17115e-05
2.02942e-05
1.83918e-05
1.62881e-05
1.4143e-05
1.21215e-05
1.0384e-05
9.05703e-06
8.24097e-06
8.06585e-06
8.8159e-06
1.10695e-05
1.51328e-05
1.55155e-05
6.53076e-06
2.27456e-06
2.03055e-07
1.88135e-07
2.64427e-06
7.31916e-06
1.79189e-05
2.7775e-05
2.89901e-05
2.63306e-05
2.31221e-05
2.07356e-05
1.93833e-05
1.88982e-05
1.90624e-05
1.96614e-05
2.05096e-05
2.14323e-05
2.22413e-05
2.27267e-05
2.26769e-05
2.19424e-05
2.05348e-05
1.86543e-05
1.65676e-05
1.44307e-05
1.24104e-05
1.06683e-05
9.33317e-06
8.50969e-06
8.33532e-06
9.10489e-06
1.13996e-05
1.54805e-05
1.57298e-05
6.60655e-06
2.29449e-06
2.04331e-07
1.89786e-07
2.64419e-06
7.33499e-06
1.79906e-05
2.76957e-05
2.8671e-05
2.58759e-05
2.26616e-05
2.03456e-05
1.90874e-05
1.87003e-05
1.89552e-05
1.96364e-05
2.05588e-05
2.15457e-05
2.24054e-05
2.29243e-05
2.28907e-05
2.21624e-05
2.0765e-05
1.89081e-05
1.68385e-05
1.47103e-05
1.26927e-05
1.09484e-05
9.60817e-06
8.78059e-06
8.61061e-06
9.40384e-06
1.17429e-05
1.58379e-05
1.59457e-05
6.68366e-06
2.31493e-06
2.05645e-07
1.9142e-07
2.64386e-06
7.3505e-06
1.80612e-05
2.76041e-05
2.83339e-05
2.54074e-05
2.21957e-05
1.99556e-05
1.87937e-05
1.85053e-05
1.88514e-05
1.96152e-05
2.06115e-05
2.16615e-05
2.25695e-05
2.31185e-05
2.30975e-05
2.2373e-05
2.09855e-05
1.91532e-05
1.71009e-05
1.49823e-05
1.29689e-05
1.12247e-05
9.88215e-06
9.05383e-06
8.892e-06
9.71297e-06
1.20991e-05
1.62045e-05
1.61624e-05
6.76166e-06
2.33577e-06
2.0699e-07
1.93038e-07
2.64336e-06
7.36584e-06
1.81303e-05
2.74994e-05
2.79791e-05
2.49271e-05
2.17269e-05
1.95675e-05
1.85031e-05
1.83135e-05
1.87506e-05
1.95973e-05
2.06676e-05
2.17799e-05
2.27342e-05
2.33099e-05
2.32978e-05
2.25744e-05
2.1196e-05
1.93884e-05
1.73538e-05
1.52461e-05
1.32388e-05
1.1497e-05
1.01548e-05
9.32887e-06
9.17893e-06
1.0032e-05
1.24687e-05
1.65808e-05
1.63798e-05
6.84042e-06
2.35701e-06
2.08367e-07
1.94641e-07
2.64269e-06
7.38116e-06
1.81981e-05
2.73808e-05
2.76069e-05
2.44369e-05
2.12573e-05
1.91829e-05
1.82165e-05
1.81247e-05
1.86521e-05
1.95814e-05
2.07258e-05
2.19003e-05
2.28996e-05
2.34995e-05
2.34932e-05
2.27686e-05
2.13982e-05
1.96145e-05
1.75975e-05
1.55018e-05
1.35028e-05
1.1766e-05
1.04269e-05
9.60593e-06
9.47103e-06
1.03602e-05
1.28497e-05
1.69647e-05
1.65972e-05
6.91984e-06
2.37859e-06
2.09777e-07
1.96214e-07
2.64178e-06
7.39592e-06
1.82628e-05
2.72479e-05
2.72191e-05
2.39397e-05
2.07898e-05
1.8804e-05
1.79354e-05
1.79396e-05
1.85554e-05
1.9566e-05
2.07842e-05
2.20204e-05
2.30639e-05
2.36863e-05
2.36835e-05
2.2956e-05
2.15933e-05
1.98311e-05
1.78307e-05
1.57477e-05
1.3759e-05
1.20301e-05
1.06973e-05
9.88487e-06
9.7689e-06
1.06987e-05
1.32441e-05
1.73574e-05
1.68139e-05
6.99952e-06
2.4005e-06
2.11221e-07
1.97738e-07
2.64046e-06
7.40951e-06
1.83227e-05
2.70996e-05
2.68159e-05
2.3437e-05
2.0326e-05
1.84324e-05
1.76615e-05
1.77591e-05
1.84603e-05
1.955e-05
2.08406e-05
2.21383e-05
2.32255e-05
2.38695e-05
2.38693e-05
2.31388e-05
2.17843e-05
2.00405e-05
1.80546e-05
1.59841e-05
1.40072e-05
1.22886e-05
1.0965e-05
1.01644e-05
1.00712e-05
1.10461e-05
1.36498e-05
1.77564e-05
1.7028e-05
7.07858e-06
2.4225e-06
2.12688e-07
1.99196e-07
2.63856e-06
7.42112e-06
1.83764e-05
2.69359e-05
2.63983e-05
2.29297e-05
1.98666e-05
1.80692e-05
1.7397e-05
1.75853e-05
1.83679e-05
1.95333e-05
2.08941e-05
2.22518e-05
2.33819e-05
2.40469e-05
2.40494e-05
2.33174e-05
2.1973e-05
2.02438e-05
1.82696e-05
1.62111e-05
1.4247e-05
1.25413e-05
1.12306e-05
1.04459e-05
1.03799e-05
1.14042e-05
1.40684e-05
1.81624e-05
1.72403e-05
7.15737e-06
2.4447e-06
2.14184e-07
2.00577e-07
2.63593e-06
7.43025e-06
1.8423e-05
2.67562e-05
2.59647e-05
2.24163e-05
1.94103e-05
1.77133e-05
1.71432e-05
1.74195e-05
1.828e-05
1.95178e-05
2.09459e-05
2.23615e-05
2.35331e-05
2.42187e-05
2.42245e-05
2.34928e-05
2.21606e-05
2.0443e-05
1.84777e-05
1.64299e-05
1.44792e-05
1.27881e-05
1.14927e-05
1.0727e-05
1.06921e-05
1.17707e-05
1.44973e-05
1.85727e-05
1.74497e-05
7.23535e-06
2.4669e-06
2.15707e-07
2.01888e-07
2.63256e-06
7.43678e-06
1.84628e-05
2.65602e-05
2.55134e-05
2.18948e-05
1.89551e-05
1.73631e-05
1.68963e-05
1.72613e-05
1.81991e-05
1.95073e-05
2.09999e-05
2.24702e-05
2.36808e-05
2.43854e-05
2.43944e-05
2.36646e-05
2.2346e-05
2.06375e-05
1.86789e-05
1.66407e-05
1.47037e-05
1.30288e-05
1.17515e-05
1.10089e-05
1.10103e-05
1.21463e-05
1.49367e-05
1.89875e-05
1.76563e-05
7.31258e-06
2.48916e-06
2.17265e-07
2.03145e-07
2.6285e-06