/*--------------------------------*- C++ -*----------------------------------*\
| =========                 |                                                 |
| \\      /  F ield         | OpenFOAM: The Open Source CFD Toolbox           |
|  \\    /   O peration     | Version:  v2006                                 |
|   \\  /    A nd           | Website:  www.openfoam.com                      |
|    \\/     M anipulation  |                                                 |
\*---------------------------------------------------------------------------*/
FoamFile
{
    version     2.0;
    format      ascii;
    class       volScalarField;
    location    "81";
    object      nut;
}
// * * * * * * * * * * * * * * * * * * * * * * * * * * * * * * * * * * * * * //

dimensions      [0 2 -1 0 0 0 0];


internalField   nonuniform List<scalar> 
78750
(
0.000876742
0.00194613
0.00136104
0.00048054
5.13291e-05
2.95578e-05
2.06529e-05
1.4492e-05
2.4605e-05
1.95749e-05
2.72515e-05
2.45225e-05
2.93576e-05
2.9409e-05
3.13803e-05
3.25985e-05
3.39844e-05
3.52701e-05
3.65414e-05
3.77999e-05
3.90205e-05
4.01917e-05
4.12755e-05
4.22076e-05
4.2915e-05
4.33815e-05
4.35742e-05
4.34214e-05
4.29665e-05
4.22726e-05
4.12966e-05
3.98106e-05
3.57567e-05
9.59847e-06
3.448e-07
1.49451e-05
6.18341e-05
6.47153e-05
1.66652e-05
1.21077e-05
1.79187e-05
1.78884e-05
2.37469e-05
3.041e-05
4.12279e-05
5.31157e-05
6.69637e-05
7.96561e-05
9.13549e-05
0.000101786
0.000110331
0.000117178
0.000122754
0.000127518
0.000131554
0.000134739
0.000136964
0.00013845
0.000139526
0.000140232
0.00014066
0.000141055
0.000141695
0.000142813
0.000143176
0.000134963
9.8221e-05
3.40041e-05
8.614e-06
1.53348e-06
1.03531e-05
1.30681e-05
5.1365e-05
6.91806e-05
0.000101976
4.54902e-05
2.46046e-05
2.37383e-05
3.00298e-05
3.57802e-05
4.11973e-05
5.02299e-05
6.77831e-05
8.67443e-05
9.11358e-05
9.15069e-05
9.32919e-05
9.63089e-05
9.993e-05
0.000104242
0.000109442
0.000114928
0.000119771
0.000123771
0.000127572
0.000131857
0.00013674
0.000140965
0.00014089
0.000130314
0.00010233
5.72703e-05
2.18081e-05
1.06529e-05
2.75036e-06
3.2976e-06
1.1778e-05
2.71483e-05
7.20819e-05
4.69724e-05
2.93156e-05
2.16314e-05
2.02414e-05
2.57085e-05
3.7363e-05
4.44046e-05
4.30225e-05
4.07888e-05
4.45945e-05
6.79354e-05
0.000137382
0.000153015
0.000148494
0.000127451
0.000113659
0.000107619
0.000111053
0.000122568
0.000137299
0.000149164
0.000154719
0.000155057
0.000151022
0.000140655
0.000120561
8.8992e-05
4.79537e-05
1.67913e-05
9.136e-06
3.54867e-06
6.57599e-06
9.45566e-05
5.9444e-05
4.2425e-05
3.51518e-05
3.84442e-05
6.92656e-05
0.00011361
0.000129905
9.86031e-05
6.6967e-05
5.04674e-05
4.198e-05
3.67681e-05
3.42935e-05
3.5395e-05
4.03838e-05
4.86283e-05
5.5887e-05
5.75425e-05
5.70999e-05
5.98542e-05
6.76165e-05
8.15262e-05
0.000106218
0.00014595
0.00016637
0.000168135
0.000145077
9.74086e-05
5.93615e-05
3.18864e-05
1.65027e-05
1.37843e-05
4.83563e-06
4.95797e-06
2.17499e-05
5.58606e-05
8.4019e-05
6.92652e-05
5.06051e-05
4.07678e-05
3.49727e-05
3.14791e-05
3.02353e-05
3.06134e-05
3.16403e-05
3.25111e-05
3.22148e-05
2.98593e-05
2.62191e-05
2.23885e-05
1.91639e-05
1.75961e-05
1.93838e-05
2.66644e-05
3.92296e-05
5.22387e-05
6.35285e-05
7.81676e-05
0.000103015
0.000136226
0.000153311
0.000133265
9.26039e-05
5.34699e-05
2.50439e-05
1.20964e-05
1.24944e-05
5.62564e-06
2.47085e-06
2.52043e-05
5.597e-05
8.19616e-05
0.000102106
0.000113789
0.000106888
8.4776e-05
6.32152e-05
4.93584e-05
4.12722e-05
3.62788e-05
3.32312e-05
3.19147e-05
3.23065e-05
3.37027e-05
3.33717e-05
2.79188e-05
1.92155e-05
1.21109e-05
9.39901e-06
1.14194e-05
1.77012e-05
2.76468e-05
3.95704e-05
5.33441e-05
7.28447e-05
9.82953e-05
0.000108649
8.19712e-05
4.47689e-05
2.24982e-05
1.46113e-05
2.01011e-05
6.65338e-06
3.79301e-06
1.68392e-05
5.75439e-05
9.25495e-05
8.70332e-05
7.74867e-05
7.65636e-05
8.24853e-05
8.70751e-05
8.29343e-05
7.1883e-05
5.99867e-05
5.02822e-05
4.3057e-05
3.8049e-05
3.53974e-05
3.58704e-05
4.04641e-05
4.67661e-05
4.3885e-05
3.0363e-05
1.58762e-05
7.36883e-06
5.46758e-06
8.55232e-06
1.5685e-05
2.64338e-05
3.89965e-05
5.45166e-05
6.50016e-05
4.59151e-05
1.89678e-05
1.08925e-05
1.78895e-05
7.26184e-06
2.83078e-06
2.06993e-05
5.71333e-05
9.63496e-05
0.000126765
0.000144311
0.000141202
0.000121683
0.000104352
9.74013e-05
9.77541e-05
9.70377e-05
8.78296e-05
7.21824e-05
5.69563e-05
4.52323e-05
3.7237e-05
3.293e-05
3.31486e-05
4.03521e-05
5.52801e-05
5.73703e-05
4.08257e-05
1.96235e-05
2.59987e-07
1.31361e-06
1.47923e-06
8.61644e-06
2.09129e-05
3.35607e-05
3.32898e-05
1.95683e-05
1.50308e-05
3.00494e-05
8.19172e-06
4.34243e-06
1.92951e-05
6.48636e-05
0.000103713
0.000105487
9.38425e-05
8.01188e-05
7.01414e-05
6.53323e-05
6.53772e-05
7.04862e-05
8.15741e-05
9.76942e-05
0.000111411
0.00010943
8.8028e-05
6.34027e-05
4.66442e-05
3.76836e-05
3.52803e-05
4.07822e-05
5.94437e-05
8.68514e-05
8.42362e-05
6.2987e-05
3.51583e-05
5.10148e-06
9.47809e-07
4.41779e-06
1.43481e-05
2.02523e-05
1.36023e-05
1.1698e-05
2.91892e-05
8.6663e-06
4.23294e-06
2.55238e-05
7.66334e-05
0.000114659
0.000127152
0.000125954
0.00011784
0.000106677
9.47682e-05
8.37798e-05
7.54507e-05
7.16461e-05
7.40207e-05
8.36445e-05
9.90765e-05
0.000111867
0.000106915
8.07982e-05
5.4273e-05
3.93928e-05
3.45131e-05
3.85819e-05
5.44356e-05
7.76189e-05
7.93818e-05
5.87794e-05
2.3604e-05
1.29761e-06
1.72899e-06
3.31063e-06
1.00501e-05
1.20232e-05
1.48786e-05
4.54401e-05
9.38218e-06
4.89336e-06
2.19262e-05
7.33361e-05
0.000112911
0.000109196
9.1229e-05
7.35629e-05
6.28028e-05
5.98072e-05
6.34732e-05
7.16203e-05
8.06021e-05
8.74357e-05
9.27391e-05
9.90789e-05
0.000106811
0.000111769
0.00010588
8.44977e-05
5.83248e-05
4.14613e-05
3.54589e-05
3.90888e-05
5.50134e-05
8.3009e-05
9.46233e-05
7.11299e-05
2.71667e-05
2.31528e-06
4.07553e-07
4.06678e-06
7.04845e-06
1.18571e-05
4.61777e-05
9.6039e-06
5.5581e-06
3.57985e-05
0.000109057
0.000120146
0.000106528
8.72097e-05
7.14403e-05
6.25547e-05
6.05067e-05
6.47371e-05
7.48712e-05
8.9744e-05
0.00010626
0.000120265
0.000129023
0.000132029
0.00012922
0.000119201
0.000100255
7.48587e-05
5.25045e-05
4.04125e-05
3.88424e-05
4.83085e-05
6.90858e-05
8.32152e-05
7.00776e-05
3.53845e-05
2.79494e-06
1.04376e-07
8.21764e-07
5.0533e-06
1.276e-05
6.16191e-05
9.7909e-06
5.49914e-06
2.70854e-05
9.00766e-05
0.000116746
0.000106898
8.53138e-05
6.65266e-05
5.63457e-05
5.4164e-05
5.82488e-05
6.67105e-05
7.71157e-05
8.71933e-05
9.57632e-05
0.000102496
0.000106998
0.000108062
0.000103609
9.19932e-05
7.46286e-05
5.70873e-05
4.55003e-05
4.26891e-05
5.08585e-05
7.29753e-05
9.48449e-05
8.70517e-05
5.47899e-05
1.26046e-05
1.64446e-06
2.85092e-08
3.48715e-06
1.25569e-05
7.41612e-05
9.9123e-06
5.24968e-06
2.91785e-05
9.27349e-05
0.000113274
9.60694e-05
7.05255e-05
5.18099e-05
4.22792e-05
4.04647e-05
4.64502e-05
6.23953e-05
8.8798e-05
0.000117312
0.000135929
0.000140714
0.000133496
0.000118385
0.000100211
8.27434e-05
6.83757e-05
5.8767e-05
5.54695e-05
6.05687e-05
7.68051e-05
0.000100416
0.000107896
8.66022e-05
4.90146e-05
1.1852e-05
1.42527e-06
2.85293e-07
5.2526e-06
1.9e-05
9.96123e-05
1.00791e-05
5.6266e-06
2.78684e-05
9.00012e-05
0.000117415
0.000107481
8.29368e-05
6.00959e-05
4.65418e-05
4.08223e-05
4.06314e-05
4.54165e-05
5.57913e-05
7.16272e-05
8.96597e-05
0.000103728
0.000108905
0.000104343
9.28423e-05
7.92346e-05
6.80436e-05
6.19563e-05
6.22784e-05
6.95623e-05
8.22253e-05
9.31551e-05
9.24399e-05
7.83879e-05
5.43186e-05
2.26857e-05
3.21606e-06
7.84345e-07
3.29977e-06
1.92534e-05
9.91803e-05
1.00639e-05
5.1095e-06
2.44139e-05
7.47305e-05
0.000106616
9.89943e-05
7.42875e-05
5.13021e-05
3.81156e-05
3.30409e-05
3.36828e-05
3.95557e-05
5.17189e-05
7.05365e-05
9.1832e-05
0.000107494
0.000112691
0.000108672
9.98762e-05
9.09049e-05
8.47893e-05
8.28497e-05
8.47617e-05
8.82061e-05
8.94776e-05
8.55958e-05
7.63953e-05
6.39352e-05
5.01881e-05
3.31566e-05
9.2805e-06
1.91825e-06
1.85923e-06
1.19804e-05
8.35561e-05
9.94942e-06
5.54428e-06
2.46933e-05
7.66286e-05
0.00011022
0.000106486
8.45867e-05
5.82893e-05
4.10097e-05
3.32247e-05
3.13439e-05
3.3487e-05
3.99922e-05
5.24101e-05
7.13899e-05
9.36286e-05
0.000111715
0.000119617
0.000117343
0.000110092
0.000104089
0.000102712
0.000105133
0.000106925
0.000103666
9.4774e-05
8.2235e-05
6.82547e-05
5.53221e-05
4.59734e-05
1.57023e-05
1.91482e-06
2.32515e-06
8.27282e-06
6.91318e-05
1.04552e-05
5.55432e-06
2.49707e-05
7.51632e-05
0.000105495
9.91364e-05
7.45453e-05
4.87211e-05
3.35322e-05
2.77338e-05
2.80275e-05
3.26442e-05
4.17681e-05
5.79327e-05
8.4154e-05
0.000118379
0.000150983
0.000173762
0.000185596
0.000189356
0.00018808
0.000184362
0.000179641
0.000173958
0.000165844
0.00014458
0.000117651
9.10206e-05
6.4876e-05
2.28179e-05
3.4192e-06
1.9683e-06
2.55339e-06
1.38827e-05
0.000111676
1.11714e-05
6.03797e-06
2.72583e-05
8.24127e-05
0.000110374
0.00010561
8.36298e-05
5.56455e-05
3.64738e-05
2.78916e-05
2.65459e-05
3.01591e-05
3.76907e-05
4.98597e-05
6.93249e-05
9.8365e-05
0.000135268
0.000173971
0.000194386
0.000193512
0.000191793
0.000189075
0.000185258
0.000180201
0.000173652
0.000165182
0.000154249
0.000128081
4.36181e-05
7.06494e-06
2.64805e-06
6.04865e-06
1.81744e-05
5.57003e-05
7.62056e-05
1.12278e-05
6.07091e-06
2.83512e-05
8.13906e-05
0.000105384
0.000100975
8.14664e-05
5.6578e-05
3.73724e-05
2.68562e-05
2.34215e-05
2.58598e-05
3.40465e-05
4.81089e-05
6.79787e-05
9.29299e-05
0.000119532
0.000141974
0.000156772
0.000164056
0.00016491
0.000160537
0.000151411
0.000137491
0.000119545
9.91992e-05
7.79449e-05
5.53641e-05
2.98708e-05
1.01216e-05
4.55395e-06
6.62289e-06
2.04844e-05
0.000101667
4.51699e-05
1.04116e-05
6.10678e-06
2.7234e-05
8.1672e-05
0.000112213
0.000112262
9.88299e-05
7.70168e-05
5.31349e-05
3.51558e-05
2.53791e-05
2.21306e-05
2.42679e-05
3.18602e-05
4.49725e-05
6.21315e-05
8.00213e-05
9.46015e-05
0.000103167
0.000105846
0.000104391
0.00010023
9.41952e-05
8.67813e-05
7.83834e-05
6.92706e-05
5.93394e-05
4.8508e-05
3.80491e-05
2.91934e-05
2.00724e-05
1.17424e-05
8.73803e-06
2.11672e-05
7.7227e-05
9.24042e-06
5.77772e-06
2.48333e-05
7.5686e-05
0.000112329
0.000111694
9.66328e-05
7.94846e-05
6.44243e-05
4.86204e-05
3.35772e-05
2.42384e-05
2.11043e-05
2.37873e-05
3.37214e-05
5.34115e-05
8.09292e-05
0.000104461
0.000113895
0.000112047
0.000105456
9.74509e-05
8.90246e-05
8.05658e-05
7.24325e-05
6.48043e-05
5.67042e-05
4.74144e-05
4.27228e-05
4.76889e-05
5.41224e-05
9.20231e-05
2.94858e-05
4.68547e-06
3.59999e-06
8.66137e-06
6.02268e-06
2.50931e-05
7.70385e-05
0.000114716
0.000111363
9.14538e-05
7.10787e-05
5.92747e-05
5.36298e-05
4.50795e-05
3.24756e-05
2.42976e-05
2.2672e-05
2.81729e-05
4.46165e-05
7.62229e-05
0.000109806
0.000124185
0.000122762
0.000114727
0.000104301
9.33909e-05
8.31642e-05
7.38931e-05
6.491e-05
5.80334e-05
6.489e-05
0.00010649
7.8964e-05
2.23664e-05
1.39798e-05
3.65676e-06
9.1212e-07
8.50259e-06
1.22452e-05
6.34212e-06
2.7791e-05
8.5584e-05
0.000117727
0.000104866
7.61644e-05
5.39526e-05
4.37681e-05
4.1937e-05
4.25362e-05
3.70166e-05
2.8713e-05
2.63697e-05
3.58103e-05
7.26437e-05
0.000139064
0.000163614
0.00015522
0.000139767
0.000124007
0.000110396
9.99826e-05
9.30319e-05
9.38179e-05
0.00010871
9.85957e-05
2.4408e-05
1.19829e-05
1.41289e-05
1.97793e-05
1.86073e-05
1.3423e-05
2.40969e-05
0.000122614
1.37272e-05
6.93313e-06
3.27753e-05
0.000102312
0.000120434
9.25015e-05
6.0031e-05
4.31598e-05
3.7528e-05
3.71625e-05
3.79152e-05
3.59949e-05
3.2144e-05
3.30604e-05
4.97632e-05
0.000117748
0.000181702
0.000182756
0.000184182
0.000185586
0.000165827
0.000152265
0.000171222
0.000179857
0.000103763
2.39574e-05
1.22617e-05
1.46571e-05
2.73489e-05
5.6069e-05
7.76663e-05
6.70045e-05
6.51468e-05
0.000101576
5.43377e-05
1.17913e-05
7.17552e-06
3.70542e-05
0.000108573
0.000103526
6.5192e-05
3.92674e-05
2.972e-05
2.93146e-05
3.28519e-05
3.54537e-05
3.5844e-05
3.65407e-05
4.22173e-05
6.04939e-05
9.99978e-05
0.000145075
0.000161054
0.000151941
0.000134211
0.000115923
9.93476e-05
8.37406e-05
6.41146e-05
3.88572e-05
2.05722e-05
1.40795e-05
1.62823e-05
2.80475e-05
5.47866e-05
8.20736e-05
9.0263e-05
9.51767e-05
8.41617e-05
3.41882e-05
7.94682e-06
7.26329e-06
3.76316e-05
0.000107014
9.78899e-05
6.13404e-05
3.70799e-05
2.74319e-05
2.6422e-05
3.00433e-05
3.36577e-05
3.55385e-05
3.80413e-05
4.33968e-05
5.21595e-05
6.27181e-05
7.15159e-05
7.60564e-05
7.651e-05
7.41273e-05
7.00781e-05
6.51583e-05
5.97215e-05
5.33008e-05
4.47694e-05
3.44753e-05
2.58785e-05
2.19463e-05
2.31376e-05
2.79273e-05
3.23861e-05
3.86354e-05
5.25087e-05
6.07356e-05
3.73914e-05
5.34734e-06
7.1084e-06
3.56886e-05
0.000102958
0.000102742
7.05591e-05
4.20821e-05
2.7484e-05
2.26068e-05
2.39941e-05
2.89427e-05
3.43619e-05
3.99181e-05
4.7258e-05
5.56917e-05
6.21999e-05
6.52737e-05
6.55982e-05
6.41467e-05
6.1539e-05
5.82641e-05
5.48008e-05
5.15653e-05
4.80636e-05
4.28614e-05
3.84988e-05
4.00617e-05
4.72475e-05
5.07769e-05
4.09988e-05
2.57463e-05
1.84417e-05
3.21612e-05
5.40737e-05
4.88992e-05
4.5587e-06
6.96855e-06
3.22053e-05
9.52572e-05
0.000110443
9.16279e-05
6.05529e-05
3.62014e-05
2.44649e-05
2.12997e-05
2.39001e-05
3.04503e-05
3.91175e-05
4.94356e-05
6.09604e-05
7.04245e-05
7.45373e-05
7.33259e-05
6.90375e-05
6.39167e-05
5.90324e-05
5.4479e-05
4.94358e-05
4.53487e-05
5.02938e-05
7.23422e-05
7.35771e-05
3.60219e-05
2.35259e-05
2.5935e-05
3.37625e-05
3.99284e-05
3.92943e-05
1.60764e-05
3.91817e-06
8.77654e-06
6.79249e-06
3.01993e-05
8.7925e-05
0.000108077
9.52099e-05
6.94914e-05
4.39651e-05
2.7881e-05
2.09748e-05
2.07899e-05
2.68897e-05
4.14818e-05
6.94799e-05
0.00010585
0.000124898
0.000122955
0.000112873
0.000101349
8.97437e-05
7.98369e-05
7.54813e-05
8.12479e-05
5.74637e-05
2.40223e-05
1.88844e-05
2.76327e-05
4.62323e-05
6.50354e-05
6.96906e-05
5.93416e-05
4.57328e-05
3.61579e-05
3.21469e-05
5.42549e-05
1.21163e-05
6.78477e-06
3.04503e-05
8.85738e-05
0.00010957
9.85376e-05
7.35184e-05
4.82838e-05
3.13429e-05
2.26412e-05
2.0582e-05
2.52862e-05
4.0061e-05
7.67883e-05
0.000158226
0.000172748
0.000170357
0.000167228
0.000163084
0.000158063
0.000153263
4.85551e-05
1.82004e-05
1.67866e-05
2.69078e-05
5.62674e-05
0.000118792
0.000156026
0.000128827
8.45506e-05
5.74432e-05
4.96067e-05
5.8093e-05
8.72247e-05
0.000119573
1.2876e-05
6.85903e-06
3.24414e-05
9.13822e-05
0.000108831
9.73873e-05
7.16432e-05
4.6505e-05
3.07042e-05
2.24543e-05
1.9642e-05
2.28519e-05
3.645e-05
6.96967e-05
0.000117592
0.00013966
0.000132236
0.000116876
0.000104465
9.20505e-05
5.43538e-05
2.34058e-05
1.57382e-05
1.86381e-05
3.08943e-05
6.20907e-05
0.00012726
0.00018029
0.000172154
0.000135495
0.000102395
8.79764e-05
9.53622e-05
0.000116239
6.40049e-05
1.10914e-05
6.90887e-06
3.38514e-05
9.38713e-05
0.000110989
0.000102576
8.0052e-05
5.3385e-05
3.43909e-05
2.43408e-05
2.03446e-05
2.10354e-05
2.73711e-05
4.15183e-05
6.19787e-05
7.76581e-05
8.14164e-05
7.74797e-05
6.98938e-05
6.01985e-05
4.81803e-05
3.23482e-05
1.92002e-05
1.55252e-05
1.9573e-05
3.04819e-05
4.74432e-05
6.67745e-05
8.76993e-05
0.000111892
0.000133403
0.000143392
0.00014253
0.000120291
4.54106e-05
9.02317e-06
6.88382e-06
3.42857e-05
9.72209e-05
0.000115696
0.000106627
8.65588e-05
6.31727e-05
4.22732e-05
2.82365e-05
2.1157e-05
1.96135e-05
2.32217e-05
3.28657e-05
4.81739e-05
6.32215e-05
7.1038e-05
7.16263e-05
6.81198e-05
6.25761e-05
5.57231e-05
4.76669e-05
3.80045e-05
2.75645e-05
2.04601e-05
1.87868e-05
2.09873e-05
2.52619e-05
3.11881e-05
3.9842e-05
5.44727e-05
7.97029e-05
0.000107843
0.000107716
4.59973e-05
8.28831e-06
6.79863e-06
3.27051e-05
9.93315e-05
0.000123349
0.000111226
9.17357e-05
7.56374e-05
5.99708e-05
4.24581e-05
2.87264e-05
2.15825e-05
2.0295e-05
2.44735e-05
3.44655e-05
4.92773e-05
6.39919e-05
7.32443e-05
7.5953e-05
7.40129e-05
6.95593e-05
6.37685e-05
5.7088e-05
4.96505e-05
4.16324e-05
3.38048e-05
2.73704e-05
2.28872e-05
2.02074e-05
1.89506e-05
1.90571e-05
2.39566e-05
3.9585e-05
6.79773e-05
5.65458e-05
7.59113e-06
6.91223e-06
3.19949e-05
0.00010014
0.000122248
9.96451e-05
7.70918e-05
6.63545e-05
6.27333e-05
5.66306e-05
4.30535e-05
3.00926e-05
2.34339e-05
2.33041e-05
3.00089e-05
4.50707e-05
6.77407e-05
8.98801e-05
0.000101441
0.000101574
9.57165e-05
8.79488e-05
7.97803e-05
7.15984e-05
6.34816e-05
5.55104e-05
4.82685e-05
4.29422e-05
3.89987e-05
3.29934e-05
2.19484e-05
1.46352e-05
2.11662e-05
2.01986e-05
1.9371e-05
8.33716e-06
7.25072e-06
3.33355e-05
0.000105745
0.000113024
8.068e-05
6.21302e-05
5.73239e-05
6.00656e-05
6.32422e-05
5.73047e-05
4.26323e-05
3.0876e-05
2.66675e-05
3.05337e-05
4.49656e-05
7.32484e-05
0.000106848
0.000126849
0.000129976
0.000124032
0.000114539
0.000103851
9.30502e-05
8.25866e-05
7.30611e-05
6.66092e-05
6.3606e-05
5.58472e-05
3.83842e-05
2.54415e-05
2.21758e-05
2.06701e-05
7.66627e-06
5.07156e-06
1.06636e-05
7.98402e-06
4.08158e-05
0.000120615
8.16188e-05
5.38914e-05
4.76211e-05
5.10311e-05
5.83304e-05
6.4274e-05
6.22936e-05
5.10555e-05
3.92828e-05
3.47206e-05
4.14268e-05
6.53962e-05
0.000103844
0.000130151
0.000139859
0.000141981
0.000139492
0.000132742
0.000122933
0.000111491
9.99016e-05
9.05026e-05
8.33072e-05
5.5395e-05
2.90203e-05
2.41074e-05
2.67076e-05
2.7011e-05
1.97269e-05
1.64984e-05
4.86823e-05
1.24121e-05
8.66135e-06
5.89978e-05
8.9671e-05
4.35277e-05
3.62851e-05
4.50849e-05
6.01779e-05
7.16492e-05
7.29811e-05
6.53181e-05
5.42792e-05
4.61769e-05
4.64433e-05
6.16893e-05
9.75558e-05
0.000136605
0.000158837
0.000171342
0.000180207
0.000184017
0.000181
0.000171564
0.000157551
0.000138785
0.000104238
4.85596e-05
2.10688e-05
1.93046e-05
2.95624e-05
3.9779e-05
3.65031e-05
3.30492e-05
5.07372e-05
0.000118567
1.29374e-05
8.82953e-06
8.79189e-05
4.46961e-05
2.65678e-05
3.55453e-05
5.92124e-05
7.54283e-05
7.71984e-05
7.16327e-05
6.41131e-05
5.83058e-05
5.76163e-05
6.62598e-05
8.8773e-05
0.000123632
0.000160629
0.000192877
0.000213102
0.000211809
0.000210062
0.000207708
0.00020462
0.000200771
0.000144743
6.80353e-05
2.78727e-05
1.51607e-05
1.6659e-05
3.13161e-05
5.55247e-05
6.13504e-05
6.63506e-05
0.000103487
7.99905e-05
1.22251e-05
8.37513e-06
8.77409e-05
3.23391e-05
2.58624e-05
4.85278e-05
7.01137e-05
7.11014e-05
6.79618e-05
6.48058e-05
6.24084e-05
6.2173e-05
6.61813e-05
7.65872e-05
9.4335e-05
0.000117508
0.000142304
0.000165606
0.00018536
0.000199864
0.000206242
0.000199952
0.000178269
0.000143734
0.000102592
6.17563e-05
3.07253e-05
1.54593e-05
1.2614e-05
2.0331e-05
4.10577e-05
6.9638e-05
9.56938e-05
0.000125431
6.41297e-05
1.12929e-05
7.82251e-06
6.46597e-05
4.79661e-05
3.46707e-05
3.94249e-05
4.27812e-05
4.5213e-05
4.88925e-05
5.32613e-05
5.77328e-05
6.28126e-05
6.96245e-05
7.92681e-05
9.22475e-05
0.000108021
0.000125095
0.00014151
0.000155105
0.000163712
0.000165647
0.000160051
0.000146706
0.000126623
0.000101361
7.2054e-05
4.25407e-05
2.1033e-05
1.15644e-05
1.22869e-05
2.39564e-05
4.68545e-05
7.92844e-05
0.000122249
6.62307e-05
1.12471e-05
7.35899e-06
3.90236e-05
7.78968e-05
5.23049e-05
3.54857e-05
2.9388e-05
2.7833e-05
2.94272e-05
3.37096e-05
4.01894e-05
4.8465e-05
5.83967e-05
7.00527e-05
8.34391e-05
9.82459e-05
0.000113791
0.000129166
0.000143198
0.000154216
0.000160242
0.000159793
0.000152622
0.000138826
0.000118292
9.05419e-05
5.71933e-05
2.78942e-05
1.22575e-05
8.42472e-06
1.508e-05
3.92993e-05
8.23745e-05
0.000118009
6.27227e-05
1.11546e-05
6.99493e-06
3.07084e-05
7.81084e-05
8.32223e-05
6.26264e-05
4.30169e-05
3.12312e-05
2.44601e-05
2.11295e-05
2.08619e-05
2.39341e-05
3.09783e-05
4.24156e-05
5.74797e-05
7.40832e-05
9.03979e-05
0.000105518
0.000118636
0.000128796
0.000135306
0.000137483
0.000134819
0.0001275
0.000115603
9.79815e-05
7.1535e-05
3.85436e-05
1.55744e-05
7.70815e-06
9.52042e-06
2.72402e-05
9.2616e-05
0.000105128
4.42951e-05
1.04666e-05
6.64814e-06
2.80621e-05
7.92517e-05
0.000108127
0.000108665
9.17508e-05
6.69409e-05
4.65659e-05
3.26058e-05
2.32894e-05
1.73673e-05
1.44957e-05
1.52143e-05
2.09568e-05
3.33713e-05
5.1262e-05
6.94352e-05
8.4385e-05
9.55156e-05
0.000102588
0.000105505
0.000104573
0.000100207
9.28883e-05
8.32562e-05
7.14185e-05
5.49476e-05
3.20812e-05
1.41908e-05
8.67871e-06
1.33883e-05
4.07016e-05
0.000100879
4.15352e-05
1.00163e-05
6.35435e-06
2.6019e-05
7.92372e-05
0.000130637
0.000145558
0.0001458
0.000134879
0.000109747
7.89388e-05
5.37407e-05
3.58367e-05
2.33537e-05
1.48942e-05
1.00622e-05
9.47525e-06
1.50214e-05
2.88835e-05
4.92343e-05
6.90324e-05
8.3797e-05
9.29031e-05
9.65673e-05
9.53719e-05
9.03581e-05
8.25803e-05
7.28806e-05
6.23532e-05
5.03665e-05
3.46865e-05
1.96856e-05
1.32276e-05
1.67383e-05
4.38266e-05
6.2134e-05
9.9993e-06
6.36063e-06
2.46021e-05
7.28678e-05
0.000128456
0.000140571
0.000133369
0.000123862
0.000118597
0.000116641
0.000110012
8.82179e-05
5.83864e-05
3.45183e-05
1.88713e-05
9.61675e-06
5.69832e-06
7.57248e-06
1.77275e-05
3.83714e-05
6.53816e-05
8.92508e-05
0.000103192
0.000106906
0.000103779
9.73055e-05
8.80307e-05
7.1919e-05
5.4832e-05
4.33857e-05
3.62477e-05
2.75066e-05
1.36069e-05
1.83728e-05
8.64512e-05
1.0927e-05
6.97766e-06
2.76301e-05
7.55162e-05
0.000118546
0.000126862
0.000118166
0.00010084
8.3377e-05
7.43231e-05
7.83749e-05
9.55194e-05
0.000110458
8.60384e-05
4.40182e-05
1.96175e-05
7.9739e-06
3.61962e-06
5.67318e-06
1.73672e-05
4.23257e-05
7.45659e-05
0.000100016
0.000112432
0.000114683
0.000111145
0.000101682
6.87943e-05
4.25598e-05
3.76919e-05
3.94708e-05
3.06691e-05
1.57471e-05
2.2321e-05
0.0001065
1.22444e-05
7.81035e-06
3.4118e-05
9.40592e-05
0.00013142
0.000136274
0.000128747
0.000113533
9.27656e-05
7.30567e-05
6.3395e-05
6.83034e-05
8.8429e-05
0.00010997
8.69089e-05
3.72091e-05
1.36466e-05
4.40777e-06
2.32888e-06
7.76469e-06
2.54932e-05
5.51099e-05
8.17252e-05
9.60372e-05
0.000101762
0.000101257
8.78043e-05
5.03485e-05
3.02825e-05
3.33532e-05
4.02885e-05
3.13308e-05
2.33812e-05
4.24779e-05
0.000119062
1.28418e-05
8.26465e-06
3.8956e-05
0.00011254
0.000144418
0.000140934
0.000126197
0.0001106
9.88499e-05
8.82459e-05
7.77069e-05
7.32984e-05
7.92485e-05
9.10241e-05
8.8694e-05
5.07453e-05
1.93432e-05
6.18221e-06
2.06846e-06
4.36268e-06
1.54535e-05
3.61084e-05
5.66698e-05
6.76818e-05
7.18998e-05
7.21759e-05
6.28102e-05
3.90266e-05
2.40885e-05
2.85959e-05
3.94427e-05
3.60503e-05
3.54838e-05
7.14689e-05
9.62248e-05
1.2679e-05
8.26402e-06
3.899e-05
0.00011217
0.000137885
0.000128142
0.000105749
8.57405e-05
7.72764e-05
7.98179e-05
8.68802e-05
9.08611e-05
9.19375e-05
9.20865e-05
8.35195e-05
5.44587e-05
2.29257e-05
7.41305e-06
2.15085e-06
2.7642e-06
1.02219e-05
2.40591e-05
3.85796e-05
4.68383e-05
4.78332e-05
4.61094e-05
4.31376e-05
3.36322e-05
2.20886e-05
2.36896e-05
3.58861e-05
4.31245e-05
5.28742e-05
0.000103009
8.22304e-05
1.23294e-05
8.18976e-06
3.86106e-05
0.000109576
0.000132158
0.000122781
0.000101292
7.97436e-05
6.79881e-05
6.79369e-05
7.7533e-05
9.15613e-05
0.000102425
0.000104709
9.33783e-05
6.31458e-05
2.77503e-05
9.25909e-06
3.55231e-06
2.1759e-06
6.24314e-06
1.63714e-05
2.58113e-05
2.83328e-05
3.05949e-05
3.63617e-05
4.20001e-05
3.75588e-05
2.48304e-05
2.17293e-05
3.35758e-05
5.5748e-05
8.50416e-05
0.000134893
6.51895e-05
1.18207e-05
8.2085e-06
3.96465e-05
0.000114743
0.000134472
0.000121447
9.85918e-05
7.86563e-05
6.81386e-05
6.75015e-05
7.55534e-05
8.94385e-05
0.000103244
0.000109265
9.95536e-05
6.93637e-05
3.16747e-05
9.93439e-06
3.69063e-06
3.0366e-06
2.09545e-06
7.64274e-06
1.51608e-05
2.38315e-05
3.60443e-05
5.18097e-05
6.20407e-05
5.34632e-05
3.41323e-05
2.43299e-05
3.17249e-05
6.17367e-05
0.000111431
0.000133791
5.45504e-05
1.13266e-05
8.18389e-06
3.982e-05
0.000117395
0.000133367
0.000115213
8.88746e-05
7.02831e-05
6.34696e-05
6.63956e-05
7.71689e-05
9.32257e-05
0.000108788
0.000115785
0.000105803
7.41621e-05
3.52657e-05
1.07416e-05
5.58357e-07
4.99309e-08
1.07132e-06
4.86647e-06
1.66317e-05
3.24447e-05
5.52362e-05
8.07124e-05
9.29234e-05
8.16213e-05
5.60203e-05
3.62707e-05
3.31828e-05
4.99377e-05
9.03693e-05
0.000122542
5.40257e-05
1.15196e-05
8.08739e-06
3.92751e-05
0.000113582
0.000127094
0.000109021
8.21399e-05
6.31291e-05
5.68149e-05
6.10828e-05
7.35938e-05
9.16002e-05
0.000109606
0.000119078
0.000110702
8.01271e-05
4.21249e-05
1.60434e-05
1.98327e-06
1.54255e-07
1.79638e-06
3.97007e-06
1.6631e-05
3.97981e-05
7.6013e-05
0.000109334
0.000118441
0.000106858
8.26928e-05
5.60168e-05
4.01074e-05
4.09257e-05
6.4384e-05
0.000112307
5.9151e-05
1.22592e-05
8.03104e-06
3.9762e-05
0.000112518
0.00012538
0.000109181
8.31857e-05
6.23788e-05
5.37006e-05
5.64469e-05
6.86378e-05
8.70987e-05
0.000106333
0.000118822
0.000115923
9.05292e-05
5.10686e-05
2.01334e-05
3.55478e-06
1.99165e-06
2.92451e-06
1.65596e-06
1.13591e-05
3.33154e-05
7.96151e-05
0.000133935
0.000136234
0.000112255
8.56053e-05
6.23409e-05
4.57535e-05
4.33635e-05
6.68815e-05
0.000120832
5.90314e-05
1.24473e-05
7.99773e-06
4.01747e-05
0.000113961
0.000127325
0.000112221
8.72714e-05
6.50135e-05
5.2912e-05
5.18776e-05
6.11138e-05
7.85191e-05
9.85222e-05
0.000113234
0.000115201
9.84347e-05
6.5003e-05
3.19002e-05
1.11117e-05
1.52548e-06
1.31134e-06
5.30375e-08
4.72222e-06
1.67382e-05
4.64896e-05
0.000107139
0.00014784
0.000119184
8.02978e-05
5.75204e-05
4.92745e-05
5.59311e-05
8.93497e-05
0.000128275
5.18345e-05
1.16894e-05
7.91647e-06
3.94665e-05
0.000112804
0.000127353
0.000113176
8.96302e-05
6.80944e-05
5.44191e-05
4.97847e-05
5.43809e-05
6.8045e-05
8.77179e-05
0.000105868
0.000114065
0.000106092
8.03358e-05
4.73607e-05
2.16212e-05
5.84941e-06
3.09468e-07
8.86017e-07
2.35168e-07
4.83083e-06
1.67114e-05
4.26513e-05
8.80251e-05
0.000122485
9.71402e-05
6.52757e-05
5.49927e-05
6.7746e-05
0.000106795
0.000124791
4.67761e-05
1.07045e-05
7.87471e-06
3.87829e-05
0.000111079
0.000127885
0.000114877
9.19486e-05
7.04402e-05
5.59637e-05
4.91505e-05
4.98907e-05
5.85532e-05
7.45442e-05
9.35812e-05
0.000107676
0.00010915
9.37689e-05
6.5414e-05
3.7393e-05
1.78264e-05
5.31708e-06
2.98361e-06
3.01454e-06
4.02215e-07
2.95492e-06
1.12154e-05
2.88807e-05
5.67527e-05
9.09049e-05
9.13264e-05
7.66348e-05
8.30288e-05
0.000114475
0.000127233
4.73741e-05
1.02329e-05
7.88871e-06
3.85433e-05
0.000112638
0.000131731
0.000117545
9.46335e-05
7.4523e-05
6.0048e-05
5.12024e-05
4.87214e-05
5.34281e-05
6.55237e-05
8.31033e-05
0.000100591
0.000110199
0.000105314
8.43474e-05
5.5868e-05
3.25971e-05
1.79106e-05
8.60598e-06
2.52279e-06
4.97177e-06
1.79418e-06
2.04924e-06
6.43112e-06
1.72349e-05
3.52569e-05
6.59788e-05
9.37489e-05
0.0001062
0.000125141
0.000132639
5.21397e-05
1.03403e-05
7.92563e-06
3.78161e-05
0.000113108
0.000132205
0.000112573
8.7501e-05
7.16084e-05
6.28822e-05
5.60881e-05
5.14375e-05
5.22316e-05
6.04137e-05
7.57214e-05
9.46044e-05
0.000109928
0.000113524
0.00010036
7.44498e-05
4.82925e-05
3.03394e-05
2.00189e-05
1.41846e-05
1.02772e-05
6.72073e-06
3.45038e-06
2.0913e-06
4.63052e-06
1.11497e-05
2.50239e-05
5.42038e-05
9.57965e-05
0.000121641
0.000129231
5.64629e-05
1.07166e-05
8.02857e-06
3.77138e-05
0.000112822
0.00012906
0.000103225
7.61749e-05
6.33068e-05
6.03292e-05
5.97086e-05
5.76075e-05
5.68629e-05
6.18359e-05
7.42572e-05
9.24666e-05
0.000110835
0.000120873
0.000114861
9.23335e-05
6.41066e-05
4.23627e-05
2.96926e-05
2.31972e-05
1.96681e-05
1.66498e-05
1.36116e-05
1.05079e-05
7.45642e-06
6.33364e-06
1.01625e-05
2.38163e-05
5.60572e-05
0.000102246
0.000122593
5.6013e-05
1.1024e-05
8.2518e-06
3.94225e-05
0.000116435
0.000123922
9.04955e-05
6.50014e-05
5.67435e-05
5.82741e-05
6.1929e-05
6.3194e-05
6.36205e-05
6.7888e-05
7.8901e-05
9.5964e-05
0.000114296
0.000126062
0.000123333
0.00010363
7.53389e-05
5.12776e-05
3.6341e-05
2.83414e-05
2.34613e-05
1.99755e-05
1.89887e-05
1.94049e-05
1.81395e-05
1.35943e-05
9.90316e-06
1.35638e-05
3.17033e-05
7.82544e-05
0.000117952
5.38842e-05
1.12176e-05
8.48174e-06
4.22227e-05
0.000120367
0.000112563
7.40223e-05
5.3502e-05
5.09959e-05
5.82414e-05
6.70408e-05
7.1535e-05
7.31603e-05
7.73054e-05
8.74121e-05
0.000102919
0.000119301
0.000129609
0.000126932
0.000108411
8.04948e-05
5.52992e-05
3.85497e-05
2.81997e-05
2.07512e-05
1.78426e-05
2.05334e-05
2.59231e-05
3.04502e-05
2.91764e-05
2.12213e-05
1.58299e-05
2.21042e-05
4.95267e-05
0.000104121
5.69105e-05
1.15998e-05
8.62647e-06
4.55453e-05
0.000119791
9.8989e-05
6.24318e-05
4.68513e-05
4.78794e-05
5.86297e-05
7.11977e-05
7.90967e-05
8.31518e-05
8.8376e-05
9.81979e-05
0.00011215
0.000126042
0.000133631
0.000128777
0.000109046
8.05018e-05
5.43741e-05
3.56609e-05
2.23952e-05
1.46659e-05
1.5702e-05
2.32958e-05
3.43812e-05
4.58247e-05
5.10959e-05
4.39205e-05
2.93252e-05
2.23889e-05
3.27355e-05
7.72791e-05
6.60344e-05
1.23102e-05
8.54572e-06
4.69294e-05
0.000115228
9.28085e-05
6.0035e-05
4.54116e-05
4.60159e-05
5.68536e-05
7.15779e-05
8.33015e-05
9.09132e-05
9.81583e-05
0.000108419
0.000121846
0.000134992
0.000141767
0.000135296
0.00011272
8.09706e-05
5.19099e-05
3.00872e-05
1.49169e-05
1.02534e-05
1.59504e-05
2.8533e-05
4.62334e-05
6.40713e-05
7.25367e-05
6.39014e-05
4.18215e-05
2.6214e-05
3.1648e-05
7.87146e-05
7.13341e-05
1.29173e-05
8.31297e-06
4.51826e-05
0.000111947
0.000100026
6.92061e-05
4.81748e-05
4.20823e-05
4.76694e-05
6.15346e-05
7.80062e-05
9.21728e-05
0.000104121
0.000116595
0.000130863
0.000144768
0.000152483
0.000145984
0.000121002
8.49348e-05
5.14234e-05
2.61595e-05
1.0265e-05
7.7633e-06
1.62508e-05
3.33246e-05
5.71982e-05
7.65645e-05
8.06897e-05
6.72563e-05
4.55407e-05
3.31112e-05
4.46514e-05
0.000107872
6.61028e-05
1.28768e-05
8.02801e-06
4.16711e-05
0.000107979
0.000110602
8.66289e-05
5.67577e-05
4.03011e-05
3.78576e-05
4.65054e-05
6.35985e-05
8.39101e-05
0.000102702
0.000119506
0.000135569
0.000149976
0.000158165
0.000153017
0.000129777
9.34381e-05
5.69959e-05
2.83391e-05
9.85411e-06
5.56717e-06
1.32998e-05
3.20481e-05
6.07928e-05
7.8754e-05
7.68577e-05
6.37793e-05
4.97618e-05
4.64247e-05
7.07429e-05
0.000133516
5.7987e-05
1.22436e-05
7.87425e-06
3.94827e-05
0.000106282
0.000117477
0.00010215
7.25107e-05
4.59295e-05
3.41319e-05
3.5033e-05
4.67452e-05
6.7333e-05
9.17105e-05
0.000114718
0.000134521
0.000150297
0.000159265
0.000156686
0.000138731
0.000107024
7.04719e-05
3.82813e-05
1.48987e-05
4.6346e-06
7.70512e-06
2.21185e-05
5.02977e-05
7.71199e-05
7.55049e-05
6.39657e-05
5.70379e-05
6.42626e-05
0.000100005
0.000139099
5.26724e-05
1.15258e-05
7.83471e-06
3.87699e-05