/*--------------------------------*- C++ -*----------------------------------*\
| =========                 |                                                 |
| \\      /  F ield         | OpenFOAM: The Open Source CFD Toolbox           |
|  \\    /   O peration     | Version:  v2006                                 |
|   \\  /    A nd           | Website:  www.openfoam.com                      |
|    \\/     M anipulation  |                                                 |
\*---------------------------------------------------------------------------*/
FoamFile
{
    version     2.0;
    format      ascii;
    class       volScalarField;
    location    "81";
    object      T;
}
// * * * * * * * * * * * * * * * * * * * * * * * * * * * * * * * * * * * * * //

dimensions      [0 0 0 1 0 0 0];


internalField   nonuniform List<scalar> 
78750
(
319.759
320.83
321.246
320.883
318.027
313.482
311.397
307.685
305.942
303.325
301.826
299.971
298.553
297.122
295.786
294.499
293.254
292.048
290.88
289.748
288.654
287.595
286.575
285.593
284.643
283.711
282.773
281.787
280.686
279.376
277.724
275.63
273.382
273.467
401.116
305.343
321.422
334.277
348.785
361.706
364.114
365.322
364.607
362.389
359.722
356.726
353.633
350.524
347.545
344.797
342.281
339.994
337.93
336.085
334.45
333.013
331.757
330.663
329.713
328.892
328.188
327.593
327.109
326.752
326.566
326.641
327.216
329.524
345.561
451.646
287.761
301.414
307.848
311.102
315.221
320.828
325.859
328.162
328.951
329.562
330.168
330.603
330.779
330.765
330.698
330.631
330.54
330.424
330.306
330.206
330.114
330.003
329.856
329.673
329.47
329.272
329.111
329.026
329.067
329.317
329.973
331.743
338.096
366.656
472.593
306.86
322.928
335.675
343.762
349.755
355.435
359.026
358.548
355.002
351.182
348.359
346.293
344.655
343.213
341.848
340.778
339.928
339.08
338.088
336.853
335.449
334.068
332.881
331.933
331.189
330.603
330.143
329.8
329.583
329.532
329.792
330.984
336.984
370.081
481.691
316.226
323.36
323.014
320.681
318.991
320.019
324.283
328.95
332.042
333.849
334.954
335.596
335.809
335.699
335.41
335.065
334.747
334.472
334.216
333.906
333.465
332.88
332.237
331.652
331.211
330.947
330.827
330.836
331.008
331.495
332.792
336.463
348.449
386.631
489.77
320.153
338.566
344.842
347.294
347.905
346.943
345.492
344.832
345.011
345.347
345.333
344.734
343.558
341.973
340.184
338.393
336.78
335.424
334.406
333.79
333.515
333.329
333.029
332.584
332.086
331.675
331.42
331.3
331.3
331.504
332.284
335.194
347.436
389.987
494.783
303.462
304.551
306.398
308.883
312.099
315.84
319.731
323.658
327.492
330.872
333.562
335.585
336.998
337.815
338.052
337.776
337.108
336.164
335.037
333.879
332.966
332.547
332.634
333.022
333.434
333.697
333.843
334.036
334.416
335.206
337.178
343.069
361.06
404.296
498.372
312.8
328.801
336.316
339.863
341.803
342.662
342.618
342.042
341.384
340.986
340.991
341.372
341.98
342.623
343.1
343.21
342.793
341.846
340.544
339.041
337.381
335.633
334.06
333.033
332.773
333.287
334.201
334.933
335.359
335.805
336.861
340.831
357.939
404.76
500.944
304.987
310.828
315.018
318.256
321.062
323.729
326.356
328.964
331.459
333.635
335.357
336.681
337.768
338.772
339.772
340.752
341.585
342.02
341.788
340.883
339.614
338.185
336.581
334.778
332.733
331.137
331.036
332.753
335.106
337.449
340.813
348.861
372.004
417.657
502.754
311.428
326.117
333.023
336.445
338.743
340.634
342.291
343.718
344.85
345.643
346.077
346.153
345.938
345.555
345.138
344.815
344.732
344.953
345.318
345.477
345.101
344.227
343.126
341.823
340.16
338.039
335.085
332.738
333.511
335.956
338.979
345.833
369.288
417.861
503.629
307.941
316.51
321.08
324.03
326.384
328.51
330.534
332.511
334.459
336.366
338.185
339.817
341.143
342.095
342.699
343.059
343.292
343.515
343.863
344.384
344.864
344.933
344.467
343.65
342.564
341.061
338.666
334.448
331.717
333.646
338.982
350.269
378.809
425.518
502.687
311.553
325.897
332.732
336.377
339.055
341.471
343.776
345.888
347.582
348.656
349.109
349.115
348.871
348.504
348.074
347.612
347.14
346.666
346.199
345.806
345.65
345.718
345.658
345.222
344.512
343.617
342.4
340.342
336.434
334.151
336.775
346.571
376.418
424.328
501.036
312.083
323.158
327.181
329.523
331.522
333.443
335.366
337.276
339.107
340.796
342.287
343.541
344.551
345.338
345.924
346.328
346.563
346.643
346.579
346.374
346.066
345.784
345.555
345.206
344.679
343.999
343.066
341.491
337.885
334.054
336.246
348.537
382.059
428.183
499.297
315.122
328.67
333.933
336.88
339.316
341.709
344.124
346.368
348.123
349.189
349.621
349.64
349.468
349.247
349.039
348.864
348.709
348.553
348.36
348.083
347.668
347.108
346.468
345.781
345.086
344.395
343.593
342.409
340.039
336.034
336.768
349.925
387.184
431.595
496.871
311.003
321.875
326.493
329.192
331.453
333.717
336.118
338.587
340.928
342.921
344.42
345.435
346.096
346.535
346.836
347.045
347.186
347.271
347.302
347.263
347.121
346.837
346.412
345.902
345.359
344.766
344.01
342.846
340.649
337.388
340.819
363.049
403.615
441.96
497.657
315.75
329.512
334.517
337.247
339.49
341.715
344.05
346.386
348.462
350.059
351.057
351.463
351.43
351.154
350.77
350.338
349.878
349.392
348.882
348.358
347.834
347.321
346.825
346.346
345.866
345.337
344.679
343.75
342.176
339.356
339.517
361.883
411.013
447.05
498.146
310.13
320.337
325.301
328.206
330.502
332.748
335.175
337.749
340.219
342.432
344.345
345.897
347.045
347.83
348.338
348.642
348.783
348.779
348.641
348.386
348.052
347.679
347.299
346.918
346.523
346.087
345.569
344.907
343.946
342.02
338.812
347.909
399.232
442.405
499.965
313.908
327.566
333.308
336.46
338.944
341.363
343.946
346.613
348.873
350.361
351.138
351.424
351.4
351.205
350.938
350.647
350.34
350.011
349.65
349.256
348.845
348.444
348.066
347.702
347.33
346.93
346.481
345.952
345.282
343.91
339.827
338.098
387.282
432.704
492.228
310.369
320.894
326.03
329.101
331.59
334.105
336.987
340.258
343.377
345.822
347.58
348.83
349.667
350.15
350.37
350.418
350.353
350.207
349.999
349.742
349.451
349.138
348.811
348.47
348.118
347.755
347.385
347.007
346.546
347.672
351.028
352.985
395.099
436.074
489.416
313.766
327.407
333.153
336.38
338.987
341.547
344.343
347.408
350.194
351.904
352.454
352.378
352.136
351.895
351.674
351.461
351.245
351.017
350.768
350.494
350.201
349.894
349.575
349.242
348.896
348.557
348.299
348.449
350.966
362.011
384.725
404.452
423.466
456.187
513.415
312.001
322.892
327.84
330.842
333.315
335.725
338.396
341.62
345.324
348.748
351.041
352.118
352.432
352.406
352.258
352.071
351.871
351.659
351.435
351.195
350.94
350.67
350.386
350.085
349.765
349.441
349.223
349.672
352.979
365.059
393.925
438.067
470.874
491.326
529.05
313.575
326.749
332.693
336.074
338.622
340.763
342.611
344.318
346.235
348.63
351.05
352.712
353.407
353.474
353.284
353.029
352.773
352.525
352.284
352.044
351.803
351.56
351.314
351.065
350.812
350.551
350.283
350.085
350.335
352.32
359.215
377.152
422.553
463.394
510.571
311.19
323.075
329.344
333.061
335.896
338.402
340.671
342.635
344.307
346.063
348.371
350.929
352.846
353.754
353.951
353.841
353.636
353.404
353.16
352.912
352.667
352.429
352.201
351.987
351.788
351.603
351.494
351.472
350.79
350.084
353.308
353.201
351.884
392.967
495.3
311.77
325.831
333.138
337.351
340.535
343.395
346.013
348.066
349.165
349.425
349.638
350.71
352.394
353.715
354.296
354.391
354.292
354.12
353.909
353.677
353.44
353.214
353.018
352.869
352.79
352.834
352.579
351.082
349.916
353.092
352.238
335.937
338.704
380.636
478.215
312.12
326.438
333.467
337.56
340.839
344.062
347.317
350.149
351.995
352.707
352.697
352.833
353.646
354.522
354.88
354.905
354.806
354.63
354.408
354.172
353.962
353.85
353.963
354.444
355.233
356.018
359.808
368.504
369.075
356.161
343.107
344.081
373.269
413.218
478.531
314.847
330.515
337.21
341.135
344.591
348.191
351.559
353.896
355.036
355.268
355.004
354.775
354.995
355.386
355.509
355.453
355.318
355.119
354.892
354.687
354.631
355.028
356.294
359.371
367.781
387.023
411.564
423.373
415.317
403.791
399.878
408.56
431.391
467.041
529.913
316.919
331.958
337.901
341.695
345.567
349.922
353.809
356.089
356.917
357.008
356.785
356.488
356.317
356.275
356.215
356.104
355.954
355.761
355.527
355.279
355.108
355.273
356.445
360.241
369.908
389.26
416.779
440.718
451.594
456.856
464.319
475.839
492.515
515.983
551.443
318.175
332.846
338.453
342.14
346.024
350.442
354.521
357.024
357.88
357.921
357.73
357.507
357.309
357.156
357.028
356.899
356.754
356.588
356.398
356.184
355.954
355.74
355.653
356.017
357.672
362.251
371.238
383.426
395.219
406.35
419.993
435.55
451.895
475.196
513.686
317.554
331.407
336.788
340.231
343.685
347.73
352.232
356.101
358.295
359.009
358.977
358.704
358.415
358.176
357.982
357.814
357.656
357.5
357.343
357.184
357.021
356.855
356.686
356.58
356.649
356.677
356.575
357.082
359.061
363.526
370.89
381.43
389.105
392.687
470.051
316.409
329.965
335.477
338.784
341.694
344.851
348.701
353.026
356.635
358.682
359.423
359.477
359.283
359.048
358.836
358.651
358.486
358.338
358.212
358.115
358.06
358.05
358.141
358.041
357.188
356.245
357.364
360.071
361.835
362.61
362.703
362.853
356.256
350.743
455.474
315.289
328.82
334.784
338.383
341.443
344.54
347.986
351.894
355.758
358.566
359.918
360.233
360.094
359.862
359.64
359.436
359.258
359.135
359.117
359.272
359.653
360.23
360.993
363.831
368.579
369.37
365.516
361.058
357.58
355.234
354.095
353.769
355.037
369.344
446.313
315.031
329.075
335.338
339.111
342.299
345.481
348.877
352.431
355.861
358.642
360.235
360.74
360.662
360.435
360.199
359.969
359.804
359.815
360.173
361.065
363.185
369.547
380.363
388.682
386.451
377.777
369.624
362.408
356.487
354.297
358.341
368.015
382.498
406.923
469.081
315.473
329.873
336.197
340.039
343.324
346.631
350.214
353.902
357.124
359.532
360.98
361.486
361.424
361.174
360.884
360.582
360.318
360.228
360.628
362.209
366.53
375.79
389.815
402.963
407.697
404.535
398.914
392.592
386.47
382.868
385.203
395.355
413.051
444.02
512.041
316.002
330.66
336.979
340.772
343.911
346.906
350.099
353.664
357.145
359.729
361.207
361.841
361.946
361.799
361.564
361.297
361.018
360.765
360.653
361.002
362.565
366.798
375.375
387.852
400.447
410.225
417.861
424.19
429.276
433.462
438.115
445.456
458.128
483.539
539.815
316.108
331.142
337.712
341.63
344.793
347.616
350.27
353.04
356.205
359.325
361.493
362.484
362.714
362.615
362.413
362.183
361.94
361.685
361.432
361.228
361.211
361.714
363.399
367.133
373.301
381.458
391.308
403.06
416.922
432.877
450.027
466.703
482.831
502.317
538.607
315.728
331.321
338.366
342.504
345.789
348.634
350.975
352.853
354.717
357.137
359.855
361.913
362.923
363.2
363.152
362.997
362.813
362.616
362.409
362.197
361.992
361.831
361.799
362.063
362.875
364.509
367.234
371.367
377.353
386.098
399.34
416.23
436.162
463.039
508.144
315.374
331.761
339.513
344.097
347.8
351.066
353.635
355.318
356.344
357.325
358.942
361.039
362.708
363.536
363.762
363.722
363.597
363.448
363.287
363.119
362.947
362.779
362.625
362.503
362.444
362.499
362.723
363.104
363.683
364.9
368.675
376.57
380.357
399.743
486.687
316.02
333.888
342.303
347.349
351.496
354.948
357.354
358.695
359.252
359.456
359.874
361.013
362.529
363.64
364.135
364.245
364.203
364.109
363.992
363.861
363.725
363.593
363.476
363.383
363.328
363.322
363.287
363.166
363.49
364.639
366.153
366.268
358.859
374.886
476.644
319.109
338.403
347.059
352.627
357.24
360.254
361.79
362.423
362.563
362.492
362.483
362.866
363.675
364.397
364.726
364.795
364.762
364.684
364.579
364.461
364.346
364.248
364.185
364.182
364.265
364.462
364.857
367.048
369.99
370.858
368.947
365.275
368.021
392.916
469.558
325.313
344.412
353.494
359.877
363.869
364.987
364.916
364.616
364.361
364.212
364.227
364.477
364.908
365.248
365.365
365.363
365.31
365.228
365.125
365.016
364.921
364.865
364.882
365.02
365.401
366.531
370.314
377.926
382.586
381.257
379.204
382.226
397.089
424.93
483.555
332.326
349.521
359.205
366.247
367.698
367.11
366.561
366.197
365.957
365.817
365.779
365.836
365.935
365.993
365.987
365.942
365.876
365.793
365.695
365.591
365.498
365.442
365.465
365.65
366.301
368.473
374.492
385.996
396.914
399.867
401.18
408.176
424.013
450.787
507.848
335.614
352.118
361.167
367.525
367.828
367.568
367.397
367.229
367.072
366.947
366.866
366.818
366.785
366.746
366.691
366.624
366.547
366.46
366.366
366.268
366.17
366.086
366.04
366.109
366.505
367.865
371.882
381.325
396.048
408.835
418.395
428.316
441.856
464.615
518.532
332.872
348.486
355.986
362.035
364.958
366.619
367.586
368.036
368.14
368.062
367.918
367.774
367.654
367.553
367.462
367.374
367.286
367.195
367.101
367.004
366.906
366.814
366.745
366.745
366.926
367.599
369.636
375.056
386.139
400.2
413.84
429.94
445.696
467.577
519.01
326.366
339.107
344.315
349.381
354.981
359.694
363.348
365.928
367.529
368.367
368.69
368.723
368.627
368.493
368.36
368.236
368.121
368.012
367.906
367.801
367.695
367.593
367.507
367.474
367.592
368.124
369.846
374.8
386.134
402.718
414.578
426.801
443.744
469.276
524.679
319.161
328.166
332.129
335.758
340.482
346.089
351.743
356.935
361.35
364.775
367.132
368.508
369.138
369.308
369.258
369.131
368.993
368.862
368.743
368.633
368.527
368.422
368.315
368.221
368.201
368.47
369.733
374.192
386.72
411.324
438.742
450.823
461.768
483.683
536.547
313.94
323.565
329.259
332.889
335.819
338.849
342.372
346.399
350.786
355.332
359.754
363.679
366.729
368.682
369.631
369.92
369.898
369.772
369.628
369.498
369.388
369.297
369.22
369.151
369.082
369.042
369.247
370.644
376.37
393.267
426.373
462.568
479.07
496.864
539.359
312.244
327.004
335.966
340.892
344.031
346.143
347.58
348.733
349.968
351.578
353.79
356.72
360.251
363.952
367.128
369.198
370.16
370.445
370.437
370.334
370.218
370.121
370.057
370.031
370.046
370.097
370.162
370.231
370.85
374.355
386.311
412.901
450.351
478.92
521.785
312.487
329.876
339.813
345.439
349.493
352.938
355.829
357.989
359.248
359.6
359.324
359.01
359.353
360.845
363.505
366.607
369.049
370.377
370.879
370.986
370.951
370.882
370.826
370.813
370.865
371.004
371.262
371.726
372.077
372.154
372.67
376.764
411.072
448.923
501.936
313.478
329.283
337.447
342.341
346.2
349.918
353.834
358.008
362.059
365.146
366.605
366.602
365.707
364.636
364.453
365.861
368.181
370.1
371.114
371.482
371.56
371.542
371.51
371.517
371.613
371.857
372.392
374.358
376.34
376.525
375.291
377.678
408.484
444.296
494.886
315.173
330.676
338.23
342.735
346.257
349.444
352.57
355.938
359.84
364.05
367.528
369.482
370.086
369.722
368.654
368.052
368.94
370.468
371.562
372.046
372.19
372.206
372.189
372.2
372.325
372.717
373.887
377.948
382.584
384.103
385.924
396.034
424.857
455.899
502.328
317.665
335.153
343.217
347.986
351.786
355.191
358.268
360.918
363.191
365.45
367.814
369.806
371.072
371.673
371.619
370.929
370.751
371.445
372.206
372.63
372.796
372.851
372.866
372.875
372.94
373.263
374.563
379.312
386.815
390.395
395.38
410.241
435.701
463.657
510.385
319.413
336.737
344.107
348.594
352.507
356.479
360.602
364.434
367.3
369.086
370.263
371.23
372.034
372.619
372.954
372.86
372.613
372.81
373.158
373.369
373.459
373.502
373.539
373.601
373.73
374.065
375.271
379.768
389.421
396.361
403.369
419.172
441.084
467.812
518.362
319.274
335.081
341.83
346.029
349.776
353.711
358.11
362.772
366.903
369.846
371.639
372.689
373.335
373.746
373.98
373.984
373.801
373.867
374.029
374.102
374.147
374.241
374.498
374.952
375.413
376.001
377.678
383.055
395.721
409.789
420.312
434.384
451.794
476.546
528.678
318.955
335.28
342.4
346.811
350.684
354.593
358.712
362.911
366.776
369.846
371.979
373.353
374.217
374.751
375.042
375.068
374.78
374.667
374.706
374.769
375.126
375.922
376.845
377.379
377.583
378.12
380.083
385.832
399.506
419.989
436.888
449.736
463.131
484.327
533.593
319.778
336.95
344.132
348.593
352.633
356.828
361.192
365.274
368.635
371.149
372.89
374.05
374.821
375.337
375.666
375.776
375.519
375.215
375.215
375.582
376.917
378.964
379.994
379.824
379.414
379.454
380.613
384.35
393.796
411.663
432.703
449.593
464.06
484.228
530.898
320.05
336.522
343.359
347.725
351.84
356.326
361.248
365.963
369.699
372.294
373.982
375.053
375.732
376.165
376.426
376.499
376.267
375.767
375.663
376.327
378.541
382.033
383.599
382.824
381.858
381.276
381.363
382.852
387.556
398.833
418.368
440.693
459.322
481.238
527.029
319.587
335.7
342.542
346.927
351.006
355.392
360.309
365.325
369.512
372.435
374.312
375.501
376.26
376.743
377.032
377.135
376.96
376.42
376.02
376.499
378.734
383.401
387.583
387.759
386.405
385.367
384.9
385.574
388.744
397.271
414.705
437.883
457.578
480.861
528.553
319.598
336.167
343.103
347.464
351.411
355.501
359.999
364.801
369.208
372.491
374.602
375.904
376.725
377.255
377.587
377.742
377.656
377.219
376.566
376.42
377.615
381.454
387.938
392.952
393.715
392.762
392.118
392.939
397.012
406.474
422.649
442.379
460.557
484.486
534.002
319.794
336.369
343.223
347.506
351.352
355.271
359.452
363.876
368.225
371.869
374.417
376.008
376.982
377.596
377.989
378.219
378.266
378.03
377.452
376.837
376.807
378.26
382.689
390.183
397.367
401.17
402.214
403.252
407.345
417.296
432.78
449.481
465.671
488.643
536.99
319.369
335.781
342.779
347.148
351.012
354.887
358.934
363.12
367.264
371.005
373.922
375.896
377.132
377.896
378.375
378.667
378.802
378.736
378.387
377.798
377.255
377.142
378.205
381.888
389.155
398.521
406.847
412.21
416.564
424.327
437.18
451.804
466.43
487.466
534.525
319.001
335.836
343.163
347.687
351.615
355.449
359.243
362.967
366.652
370.19
373.227
375.485
376.992
377.955
378.57
378.966
379.203
379.281
379.144
378.76
378.252
377.803
377.583
378.051
380.352
386.124
396.021
408.218
418.725
426.686
436.191
447.893
461.06
480.973
529.361
319.004
336.311
343.933
348.662
352.852
357.029
360.983
364.383
367.367
370.257
373.024
375.332
376.996
378.096
378.806
379.268
379.567
379.729
379.728
379.517
379.144
378.747
378.419
378.203
378.311
379.551
383.795
393.46
408.655
423.361
433.843
444.361
456.868
477.088
527.31
318.975
336.588
344.531
349.544
354.139
358.885
363.288
366.707
369.236
371.386
373.5
375.49
377.1
378.248
379.019
379.533
379.878
380.096
380.182
380.095
379.84
379.528
379.268
379.092
378.986
379.028
379.9
383.885
395.213
415.019
433.447
446.649
459.625
479.806
529.1
319.465
337.611
345.83
351.177
356.361
361.855
366.641
369.924
372.024
373.589
375.054
376.509
377.792
378.777
379.473
379.953
380.284
380.503
380.611
380.574
380.384
380.132
379.951
379.934
380.061
380.179
380.349
381.643
387.541
403.986
429.26
448.965
463.238
482.208
529.105
320.638
339.126
347.31
352.893
358.767
365.121
370.23
373.262
374.883
375.915
376.835
377.793
378.708
379.463
380.029
380.437
380.726
380.921
381.022
380.997
380.835
380.627
380.558
380.836
381.354
381.756
381.907
382.277
384.64
393.522
414.158
438.973
457.173
477.628
524.09
322.31
340.658
348.601
354.335
360.782
367.715
372.998
375.913
377.327
378.099
378.684
379.26
379.83
380.331
380.73
381.031
381.248
381.391
381.452
381.402
381.237
381.088
381.296
382.156
383.183
383.821
383.983
383.975
384.577
387.926
399.365
422.652
446.377
471.111
518.191
323.408
341.3
348.931
354.582
361.018
367.999
373.606
376.9
378.547
379.39
379.915
380.342
380.734
381.083
381.371
381.593
381.753
381.852
381.877
381.802
381.647
381.639
382.389
384.083
385.609
386.382
386.563
386.477
386.57
388.115
395.773
417.126
442.455
469.291
517.475
323.453
340.936
348.183
353.311
358.871
365.301
371.611
376.202
378.803
380.119
380.802
381.215
381.521
381.773
381.98
382.14
382.253
382.314
382.308
382.215
382.085
382.26
383.627
386.385
388.636
389.638
390.084
390.423
391.192
393.932
403.151
423.912
446.39
472.331
522.556
322.436
339.756
346.839
351.411
355.829
361.014
367.272
373.28
377.508
379.879
381.089
381.72
382.087
382.331
382.51
382.641
382.729
382.769
382.749
382.651
382.521
382.698
384.209
387.937
391.82
393.587
394.586
395.835
398.236
403.584
415.205
434.063
453
477.397
528.953
321.394
339.148
346.662
351.269
355.212
359.217
364.055
369.887
375.283
378.941
380.956
381.984
382.518
382.819
383.004
383.123
383.198
383.228
383.206
383.116
382.972
382.972
383.926
387.424
393.334
397.764
399.993
402.288
406.25
413.681
426.21
442.364
458.711
481.859
533.086
320.912
339.52
347.717
352.782
357.041
360.899
364.567
368.702
373.505
377.733
380.483
381.988
382.775
383.197
383.435
383.575
383.654
383.688
383.677
383.608
383.477
383.34
383.562
385.373
390.638
398.291
404.012
408.211
413.385
421.657
433.803
447.816
462.395
484.182
534.112
321.247
340.429
348.922
354.303
359.104
363.66
367.588
370.777
374.019
377.524
380.339
382.078
383.032
383.551
383.84
384.007
384.1
384.146
384.15
384.113
384.025
383.894
383.813
384.236
386.615
393.025
402.053
409.816
417.092
425.98
437.38
450.005
463.405
483.819
532.57
321.844
341.044
349.46
354.894
360.025
365.307
370.059
373.557
376.094
378.546
380.835
382.454
383.412
383.952
384.26
384.439
384.542
384.596
384.613
384.597
384.547
384.463
384.369
384.385
385.016
387.831
395.153
404.976
414.812
425.162
436.711
448.944
461.879
481.504
529.933
322.545
341.668
349.977
355.467
360.911
366.753
372.046
375.875
378.352
380.217
381.894
383.175
383.984
384.458
384.735
384.9
384.997
385.052
385.076
385.076
385.055
385.02
384.992
385.032
385.383
386.656
390.757
399.44
410.094
421.813
434.364
447.133
460.327
480.056
528.626
323.059
342.117
350.314
355.95
361.941
368.536
374.213
378.03
380.338
381.866
383.097
384.042
384.659
385.03
385.251
385.384
385.463
385.508
385.531
385.54
385.543
385.558
385.63
385.888
386.752
388.481
391.573
399.427
410.199
422.041
434.659
447.54
461.032
481.375
529.987
323.317
341.931
349.874
355.628
362.257
369.83
376.116
379.992
382.091
383.311
384.19
384.856
385.308
385.589
385.761
385.867
385.931
385.972
385.999
386.024
386.066
386.169
386.46
387.352
389.75
393.326
396.445
403.751
415.517
427.353
438.768
450.536
463.814
484.921
533.804
322.85
340.502
348.06
353.76
360.71
369.147
376.502
381.039
383.327
384.459
385.122
385.584
385.904
386.114
386.248
386.334
386.39
386.429
386.462
386.504
386.584
386.781
387.35
389.059
393.421
400.546
405.877
410.296
419.58
431.526
443.212
454.714
468.073
490.078
538.89
321.738
338.343
345.528
350.9
357.417
365.922
374.474
380.447
383.626
385.107
385.81
386.199
386.447
386.612
386.722
386.797
386.851
386.894
386.934
386.985
387.07
387.262
387.783
389.349
393.712
402.965
415.141
423.574
428.973
436.539
446.795
458.496
472.418
494.938
541.935
320.241
336.157
343.183
348.141
353.717
361.233
370.224
377.92
382.715
385.13
386.221
386.714
386.961
387.103
387.193
387.258
387.309
387.356
387.406
387.465
387.544
387.669
387.921
388.588
390.606
396.198
407.847
423.889
437.898
446.62
454.174
463.19
475.026
495.003
538.965
318.938
334.774
342.03
346.84
351.65
357.717
365.721
374.101
380.492
384.27
386.154
387.012
387.396
387.577
387.673
387.735
387.786
387.836
387.894
387.966
388.061
388.186
388.355
388.609
389.114
390.504
394.503
403.705
419.67
437.337
450.545
460.314
470.247
486.513
530.086
318.142
334.676
342.543
347.591
352.244
357.51
364.111
371.69
378.487
383.186
385.838
387.147
387.747
388.018
388.145
388.215
388.269
388.324
388.392
388.481
388.601
388.763
388.975
389.231
389.536
390.015
391.02
393.121
398.453
411.056
427.526
443.147
457.024
474.642
520.084
318.317
336.157
344.668
350.054
354.865
359.971
365.778
372.167
378.256
382.931
385.841
387.385
388.126
388.464
388.62
388.703
388.766
388.834
388.923
389.047
389.225
389.479
389.824
390.312
391.181
392.43
393.521
393.577
392.752
397.925
413.451
433.018
450.206
470.621
518.512
319.52
338.718
347.609
353.244
358.315
363.563
369.112
374.685
379.801
383.838
386.476
387.925
388.627
388.946
389.091
389.174
389.248
389.344
389.484
389.7
390.046
390.633
391.759
393.984
396.533
397.916
398.007
397.052
397.068
404.724
421.599
440.048
456.568
479.44
531.639
321.419
341.521
350.484
356.267
361.611
367.036
372.393
377.393
381.727
385.082
387.315
388.565
389.167
389.431
389.546
389.62
389.708
389.847
390.079
390.501
391.378
393.384
397.441
402.459
404.462
403.918
404.847
408.109
413.352
423.652
438.423
453.376
469.898
496.39
547.349
323.399
343.978
352.957
358.939
364.656
370.271
375.325
379.717
383.392
386.166
388.026
389.1
389.629
389.857
389.949
390.003
390.081
390.24
390.568
391.293
393.003
396.866
403.86
411.783
414.497
412.468
413.501
420.465
430.502
441.428
453.162
465.726
481.997
508.792
553.813
325.23
346.041
355.073
361.334
367.517
373.297
377.931
381.633
384.704
387.031
388.604
389.548
390.037
390.256
390.34
390.373
390.416
390.528
390.806
391.471
393.071
396.774
404.113
414.849
424.034
426.6
426.629
430.153
438.587
449.231
460.137
471.806
487.142
512.011
552.68
326.925
347.868
357.043
363.702
370.479
376.43
380.599
383.541
385.928
387.809
389.13
389.959
390.421
390.645
390.737
390.768
390.786
390.835
390.97
391.306
392.118
394.076
398.512
406.982
419.081
430.861
439.072
444.179
448.628
454.941
463.217
473.26
486.689
508.603
547.62
328.603
349.59
358.938
366.045
373.423
379.483
383.23
385.519
387.247
388.653
389.702
390.405
390.826
391.05
391.155
391.196
391.212
391.236
391.296
391.434
391.735
392.408
393.969
397.485
404.42
415.343
428.913
442.873
453.911
460.789
466.821
474.022
483.994
501.361
540.254
330.086
351.064
360.583
368.104
375.962
382.093
385.56
387.405
388.632
389.609
390.377
390.929
391.285
391.491
391.598
391.649
391.674
391.699
391.747
391.836
391.996
392.276
392.794
393.825
395.986
400.352
408.205
420.525
436.682
451.127
460.918
468.679
477.399
492.284
533.111
330.944
351.899
361.441
369.076
377.07
383.373
386.969
388.771
389.798
390.525
391.086
391.505
391.79
391.967
392.065
392.117
392.149
392.183
392.239
392.333
392.486
392.724
393.087
393.65
394.555
396.094
398.868
404.251
415.197
431.634
447.058
459.337
470.384
486.683
530.784
331.024
352.018
361.417
368.775
376.498
383.055
387.223
389.422
390.578
391.27
391.744
392.082
392.313
392.459
392.544
392.591
392.625
392.666
392.736
392.854
393.042
393.331
393.77
394.441
395.472
397.044
399.236
402.138
408.64
423.225
441.17
456.469
469.605
488.518
535.727
330.805
351.99
361.314
368.307
375.464
381.905
386.6
389.403
390.922
391.765
392.274
392.6
392.811
392.94
393.014
393.055
393.086
393.13
393.211
393.352
393.581
393.942
394.515
395.451
397.037
399.736
403.693
407.806
413.759
427.542
445.55
460.556
474.341
495.528
543.514
331.215
352.816
362.493
369.617
376.346
381.956
386.301
389.29
391.085
392.108
392.702
393.06
393.276
393.403
393.472
393.509
393.536
393.579
393.664
393.819
394.077
394.492
395.17
396.337
398.475
402.487
409.139
416.849
424.141
436.388
452.351
465.941
479.808
502.155
547.957
332.964
354.972
365.46
373.467
380.162
384.522
387.547
389.86
391.473
392.489
393.11
393.488
393.717
393.848
393.919
393.955
393.978
394.016
394.097
394.253
394.516
394.934
395.603
396.738
398.851
403.062
411.041
422.839
434.571
445.93
458.561
470.179
483.207
504.682
547.555
335.587
357.606
369.209
378.785
385.534
388.638
390.213
391.414
392.408
393.142
393.642
393.97
394.178
394.303
394.372
394.406
394.428
394.462
394.54
394.696
394.963
395.375
395.991
396.936
398.541
401.662
408.117
420.111
436.443
451.255
462.731
472.616
483.944
503.042
544.283
337.189
358.914
371.519
382.827
389.572
391.91
392.713
393.19
393.624
394.009
394.315
394.539
394.692
394.789
394.843
394.871
394.888
394.917
394.99
395.148
395.425
395.856
396.472
397.319
398.515
400.473
404.358
412.613
427.669
446.128
460.445
471.011
481.687
499.143
540.842
335.404
356.589
369.167
381.225
389.22
392.59
393.89
394.43
394.711
394.906
395.06
395.179
395.265
395.319
395.348
395.36
395.368
395.391
395.463
395.632
395.947
396.451
397.183
398.156
399.356
400.872
403.256
408.138
418.699
436.197
453.707
466.862
478.541
496.247
539.772
329.869
349.535
360.114
370.42
380.877
388.077
392.145
394.191
395.133
395.546
395.729
395.815
395.857
395.873
395.873
395.862
395.851
395.859
395.924
396.103
396.469
397.097
398.059
399.393
401.004
402.751
404.881
408.534
416.426
431.481
449.831
464.601
477.392
496.362
541.67
323.455
341.181
349.325
356.203
365.632
375.9
384.373
390.21
393.609
395.293
396.027
396.316
396.412
396.429
396.411
396.38
396.347
396.331
396.373
396.543
396.946
397.709
398.982
400.894
403.344
405.917
408.622
412.582
420.177
433.914
451.165
465.521
478.706
498.939
544.795
320.067
338.376
346.949
352.535
358.128
365.241
373.406
381.549
388.392
392.914
395.277
396.33
396.752
396.894
396.914
396.885
396.838
396.797
396.8
396.924
397.298
398.102
399.586
402.05
405.574
409.564
413.482
418.366
426.515
439.579
454.897
467.924
480.97
501.859
546.993
320.867
342.211
353.122
360.519
366.627
370.423
373.113
377.039
382.952
389.129
393.463
395.731
396.748
397.172
397.326
397.356
397.328
397.281
397.255
397.322
397.612
398.33
399.785
402.432
406.711
412.338
418.175
424.335
432.869
445.039
458.388
470.163
482.803
503.568
547.567
323.667
345.867
357.67
367.313
377.523
383.554
384.357
383.495
384.509
388.41
392.666
395.389
396.734
397.35
397.629
397.745
397.772
397.753
397.725
397.752
397.951
398.508
399.718
402.067
406.259
412.722
420.611
428.699
437.769
448.929
460.643
471.48
483.604
503.719
546.842
326.485
347.888
359.58
370.118
382.062
390.244
392.613
391.891
390.972
392.068
394.447
396.261
397.243
397.743
398.006
398.145
398.21
398.226
398.219
398.239
398.38
398.792
399.709
401.526
404.949
410.9
419.616
429.737
440.1
450.914
461.594
471.775
483.369
502.664
545.39
329.147
351.303
362.777
372.462
381.814
389.12
393.305
394.956
395.396
395.906
396.804
397.563
398.048
398.344
398.524
398.632
398.692
398.718
398.729
398.757
398.874
399.196
399.89
401.226
403.731
408.357
416.17
427.009
438.948
450.481
461.078
471.073
482.343
501.014
543.813
330.799
354.013
363.638
369.947
375.676
381.838
387.885
392.538
395.481
397.114
398.008
398.515
398.814
398.999
399.116
399.188
399.231
399.254
399.272
399.31
399.427
399.717
400.304
401.353
403.191
406.542
412.63
422.451
435.009
447.719
459.088
469.464
480.774
499.247
542.57
330.962
355.131
364.585
369.785
373.246
376.036
379.445
383.733
388.343
392.664
396.068
398.101
399.053
399.46
399.639
399.723
399.765
399.787
399.808
399.853
399.977
400.275