/*--------------------------------*- C++ -*----------------------------------*\
| =========                 |                                                 |
| \\      /  F ield         | OpenFOAM: The Open Source CFD Toolbox           |
|  \\    /   O peration     | Version:  v2006                                 |
|   \\  /    A nd           | Website:  www.openfoam.com                      |
|    \\/     M anipulation  |                                                 |
\*---------------------------------------------------------------------------*/
FoamFile
{
    version     2.0;
    format      ascii;
    class       volScalarField;
    location    "50";
    object      nut;
}
// * * * * * * * * * * * * * * * * * * * * * * * * * * * * * * * * * * * * * //

dimensions      [0 2 -1 0 0 0 0];


internalField   nonuniform List<scalar> 
78750
(
3.98935e-09
1.42272e-07
1.81845e-07
2.12238e-07
2.32497e-07
2.41983e-07
2.41887e-07
2.34348e-07
2.21746e-07
2.06057e-07
1.88593e-07
1.70343e-07
1.52281e-07
1.35176e-07
1.20304e-07
1.08626e-07
1.0062e-07
9.63338e-08
9.5443e-08
9.73959e-08
1.01583e-07
1.07502e-07
1.14847e-07
1.23469e-07
1.33262e-07
1.44018e-07
1.5532e-07
1.6647e-07
1.76408e-07
1.83587e-07
1.8569e-07
1.79121e-07
1.58919e-07
1.24512e-07
3.73819e-09
9.56481e-10
7.3767e-07
1.98488e-06
2.81232e-06
3.51938e-06
4.08119e-06
4.48902e-06
4.74563e-06
4.86091e-06
4.84889e-06
4.72574e-06
4.50854e-06
4.21435e-06
3.85934e-06
3.46098e-06
3.03663e-06
2.60351e-06
2.18136e-06
1.79086e-06
1.45159e-06
1.18075e-06
9.8923e-07
8.77988e-07
8.36794e-07
8.46515e-07
8.84395e-07
9.29648e-07
9.66471e-07
9.84131e-07
9.00134e-07
5.73619e-07
4.27175e-07
4.77833e-07
7.55313e-07
1.42848e-08
1.79824e-09
1.57677e-06
3.93738e-06
5.51201e-06
6.89318e-06
8.07083e-06
9.04424e-06
9.8183e-06
1.04006e-05
1.07997e-05
1.10248e-05
1.10853e-05
1.09912e-05
1.07529e-05
1.03821e-05
9.89122e-06
9.29286e-06
8.60049e-06
7.82748e-06
6.98776e-06
6.09794e-06
5.17965e-06
4.2626e-06
3.38737e-06
2.60514e-06
1.96997e-06
1.52163e-06
1.26777e-06
9.72959e-07
7.39102e-07
6.02929e-07
5.95493e-07
9.38752e-07
9.07396e-07
2.27618e-08
2.81335e-09
1.67491e-06
4.15112e-06
7.30566e-06
9.03837e-06
1.05437e-05
1.18343e-05
1.29223e-05
1.38186e-05
1.45326e-05
1.50727e-05
1.5446e-05
1.56587e-05
1.57163e-05
1.56242e-05
1.53876e-05
1.5012e-05
1.45037e-05
1.38695e-05
1.31174e-05
1.22561e-05
1.12932e-05
1.02375e-05
9.10067e-06
7.90084e-06
6.66715e-06
5.44655e-06
4.25521e-06
2.36989e-06
1.31646e-06
8.70867e-07
8.17843e-07
1.4666e-06
9.60574e-07
3.00711e-08
3.97254e-09
1.71993e-06
4.06101e-06
7.24046e-06
1.11216e-05
1.30171e-05
1.44372e-05
1.56035e-05
1.65383e-05
1.72617e-05
1.77915e-05
1.8144e-05
1.83335e-05
1.83729e-05
1.82737e-05
1.80464e-05
1.77008e-05
1.68983e-05
1.56594e-05
1.45051e-05
1.35059e-05
1.26775e-05
1.20101e-05
1.14343e-05
1.07848e-05
9.79818e-06
8.23022e-06
6.09062e-06
3.85974e-06
2.23785e-06
1.41574e-06
1.25498e-06
2.25092e-06
9.91009e-07
3.82473e-08
5.67558e-09
1.74192e-06
4.0798e-06
7.34549e-06
1.15898e-05
1.57579e-05
1.72446e-05
1.84366e-05
1.93651e-05
2.00566e-05
2.0534e-05
2.08177e-05
2.09258e-05
2.08748e-05
2.06799e-05
2.03561e-05
1.9354e-05
1.77925e-05
1.62582e-05
1.48271e-05
1.35267e-05
1.23915e-05
1.14451e-05
1.06678e-05
9.9664e-06
9.15433e-06
7.99153e-06
6.35294e-06
4.46745e-06
2.87835e-06
1.94847e-06
1.77669e-06
3.08382e-06
1.06004e-06
4.61713e-08
7.38196e-09
1.74635e-06
4.10092e-06
7.53062e-06
1.22352e-05
1.76218e-05
1.93627e-05
2.05421e-05
2.14356e-05
2.2075e-05
2.24875e-05
2.26968e-05
2.2724e-05
2.25881e-05
2.23065e-05
2.09284e-05
1.91745e-05
1.74808e-05
1.58921e-05
1.44146e-05
1.30601e-05
1.18502e-05
1.08075e-05
9.92732e-06
9.14874e-06
8.34124e-06
7.3291e-06
6.00534e-06
4.50042e-06
3.17835e-06
2.36898e-06
2.34363e-06
3.85662e-06
1.12637e-06
5.38578e-08
9.5105e-09
1.7527e-06
4.14214e-06
7.76802e-06
1.29146e-05
1.88381e-05
2.15855e-05
2.27435e-05
2.35969e-05
2.41813e-05
2.45269e-05
2.46599e-05
2.46035e-05
2.43088e-05
2.24161e-05
2.04799e-05
1.86635e-05
1.69732e-05
1.5405e-05
1.39509e-05
1.26076e-05
1.13856e-05
1.03053e-05
9.36934e-06
8.53069e-06
7.69e-06
6.72261e-06
5.56372e-06
4.31894e-06
3.25077e-06
2.63093e-06
2.82932e-06
4.42895e-06
1.1964e-06
6.08946e-08
1.16103e-08
1.77179e-06
4.21773e-06
8.04865e-06
1.36252e-05
2.0036e-05
2.34055e-05
2.45377e-05
2.53532e-05
2.58908e-05
2.61826e-05
2.62564e-05
2.59491e-05
2.38609e-05
2.17146e-05
1.97194e-05
1.78978e-05
1.62465e-05
1.47426e-05
1.33582e-05
1.20755e-05
1.08949e-05
9.83305e-06
8.89205e-06
8.02781e-06
7.16099e-06
6.21033e-06
5.15684e-06
4.10419e-06
3.25218e-06
2.83178e-06
3.29478e-06
4.78529e-06
1.25511e-06
6.74069e-08
1.39811e-08
1.79354e-06
4.28987e-06
8.2965e-06
1.42303e-05
2.1011e-05
2.52332e-05
2.63393e-05
2.71197e-05
2.76152e-05
2.78596e-05
2.76841e-05
2.55234e-05
2.32251e-05
2.10528e-05
1.90687e-05
1.7289e-05
1.56966e-05
1.42551e-05
1.29266e-05
1.16867e-05
1.05306e-05
9.47348e-06
8.51998e-06
7.62873e-06
6.7344e-06
5.7874e-06
4.80288e-06
3.88652e-06
3.20092e-06
2.95476e-06
3.6687e-06
5.01369e-06
1.30938e-06
7.34432e-08
1.61775e-08
1.81734e-06
4.3587e-06
8.50708e-06
1.47329e-05
2.18259e-05
2.68089e-05
2.79003e-05
2.86581e-05
2.91248e-05
2.93353e-05
2.73409e-05
2.4945e-05
2.2584e-05
2.04029e-05
1.8454e-05
1.6732e-05
1.52023e-05
1.38204e-05
1.25443e-05
1.1345e-05
1.02147e-05
9.1685e-06
8.21232e-06
7.30548e-06
6.39446e-06
5.45515e-06
4.52759e-06
3.71778e-06
3.16468e-06
3.07038e-06
4.02364e-06
5.12278e-06
1.35442e-06
7.92323e-08
1.85226e-08
1.8369e-06
4.40546e-06
8.65383e-06
1.51034e-05
2.24227e-05
2.79433e-05
2.94716e-05
3.02074e-05
3.06476e-05
2.92448e-05
2.69438e-05
2.44731e-05
2.2098e-05
1.99413e-05
1.8035e-05
1.63597e-05
1.48746e-05
1.3532e-05
1.22882e-05
1.1112e-05
9.99223e-06
8.94292e-06
7.97332e-06
7.04599e-06
6.11811e-06
5.18486e-06
4.30239e-06
3.57456e-06
3.12472e-06
3.15593e-06
4.31703e-06
5.19307e-06
1.39545e-06
8.49241e-08
2.07418e-08
1.85521e-06
4.44646e-06
8.77545e-06
1.54086e-05
2.29009e-05
2.84267e-05
3.08755e-05
3.15956e-05
3.09261e-05
2.89928e-05
2.65642e-05
2.40432e-05
2.16663e-05
1.95364e-05
1.76691e-05
1.60347e-05
1.45869e-05
1.32759e-05
1.2057e-05
1.08978e-05
9.7864e-06
8.73797e-06
7.7639e-06
6.82757e-06
5.8942e-06
4.9735e-06
4.1325e-06
3.47249e-06
3.10754e-06
3.24871e-06
4.60253e-06
5.21389e-06
1.43053e-06
9.05703e-08
2.30947e-08
1.87005e-06
4.47331e-06
8.85871e-06
1.56338e-05
2.32561e-05
2.87568e-05
3.14329e-05
3.19013e-05
3.08124e-05
2.8762e-05
2.62728e-05
2.37341e-05
2.13695e-05
1.9267e-05
1.74308e-05
1.58247e-05
1.43993e-05
1.31034e-05
1.18925e-05
1.07341e-05
9.61592e-06
8.55503e-06
7.56858e-06
6.62332e-06
5.69059e-06
4.78868e-06
3.98884e-06
3.38805e-06
3.09472e-06
3.33131e-06
4.85669e-06
5.22385e-06
1.46239e-06
9.61846e-08
2.54047e-08
1.88294e-06
4.49727e-06
8.93527e-06
1.58382e-05
2.35703e-05
2.90382e-05
3.15873e-05
3.19028e-05
3.0675e-05
2.85245e-05
2.59861e-05
2.34429e-05
2.11016e-05
1.9034e-05
1.72331e-05
1.56565e-05
1.4252e-05
1.29677e-05
1.17596e-05
1.05955e-05
9.46455e-06
8.38736e-06
7.38777e-06
6.43609e-06
5.50902e-06
4.63049e-06
3.87233e-06
3.32612e-06
3.09706e-06
3.42229e-06
5.11079e-06
5.21269e-06
1.4904e-06
1.01739e-07
2.78852e-08
1.89547e-06
4.52032e-06
9.01014e-06
1.60342e-05
2.38521e-05
2.92643e-05
3.16853e-05
3.18648e-05
3.05273e-05
2.83122e-05
2.57563e-05
2.32288e-05
2.09191e-05
1.88861e-05
1.71149e-05
1.55593e-05
1.41657e-05
1.28822e-05
1.16654e-05
1.04845e-05
9.33022e-06
8.22725e-06
7.20858e-06
6.25002e-06
5.33246e-06
4.48192e-06
3.76711e-06
3.27312e-06
3.10342e-06
3.5115e-06
5.35292e-06
5.19789e-06
1.51604e-06
1.07191e-07
3.03674e-08
1.90645e-06
4.54194e-06
9.08338e-06
1.6223e-05
2.41135e-05
2.94616e-05
3.17551e-05
3.18042e-05
3.03668e-05
2.80999e-05
2.55393e-05
2.30386e-05
2.07695e-05
1.87776e-05
1.70405e-05
1.55085e-05
1.41263e-05
1.28414e-05
1.16113e-05
1.04065e-05
9.22076e-06
8.08412e-06
7.04053e-06
6.07259e-06
5.16518e-06
4.3446e-06
3.67406e-06
3.23114e-06
3.11846e-06
3.60753e-06
5.59753e-06
5.17393e-06
1.53911e-06
1.1251e-07
3.30366e-08
1.91899e-06
4.5694e-06
9.17226e-06
1.64359e-05
2.43838e-05
2.96437e-05
3.18022e-05
3.173e-05
3.02117e-05
2.79139e-05
2.53648e-05
2.29001e-05
2.06747e-05
1.87233e-05
1.70177e-05
1.55058e-05
1.41311e-05
1.28405e-05
1.1592e-05
1.03578e-05
9.13414e-06
7.95696e-06
6.88246e-06
5.9019e-06
5.00393e-06
4.21355e-06
3.58699e-06
3.19387e-06
3.13646e-06
3.70501e-06
5.83848e-06
5.15012e-06
1.56061e-06
1.17662e-07
3.57272e-08
1.93084e-06
4.59678e-06
9.26113e-06
1.66438e-05
2.46381e-05
2.98064e-05
3.18343e-05
3.1649e-05
3.00602e-05
2.77423e-05
2.5214e-05
2.27925e-05
2.0616e-05
1.87087e-05
1.70371e-05
1.55466e-05
1.41793e-05
1.28812e-05
1.16107e-05
1.03414e-05
9.07334e-06
7.84892e-06
6.7378e-06
5.74117e-06
4.85115e-06
4.09041e-06
3.50713e-06
3.16274e-06
3.15964e-06
3.8077e-06
6.08103e-06
5.12264e-06
1.58024e-06
1.22625e-07
3.85873e-08
1.9445e-06
4.63068e-06
9.3675e-06
1.68805e-05
2.49101e-05
2.99683e-05
3.18608e-05
3.15692e-05
2.99226e-05
2.75973e-05
2.50985e-05
2.27242e-05
2.05974e-05
1.87337e-05
1.70953e-05
1.56256e-05
1.4265e-05
1.29591e-05
1.16653e-05
1.03583e-05
9.0417e-06
7.76474e-06
6.61109e-06
5.5938e-06
4.70842e-06
3.97468e-06
3.43237e-06
3.13487e-06
3.18503e-06
3.91256e-06
6.32155e-06
5.0977e-06
1.59884e-06
1.27382e-07
4.14829e-08
1.95822e-06
4.66598e-06
9.47675e-06
1.71171e-05
2.51732e-05
3.01213e-05
3.18859e-05
3.14983e-05
2.98042e-05
2.74794e-05
2.50148e-05
2.26898e-05
2.06135e-05
1.87935e-05
1.71886e-05
1.57395e-05
1.43855e-05
1.30708e-05
1.17522e-05
1.04046e-05
9.0356e-06
7.70204e-06
6.5017e-06
5.4606e-06
4.57731e-06
3.86809e-06
3.36431e-06
3.1117e-06
3.21404e-06
4.02133e-06
6.56122e-06
5.07206e-06
1.61604e-06
1.31918e-07
4.45157e-08
1.97339e-06
4.70659e-06
9.60047e-06
1.73776e-05
2.54514e-05
3.02783e-05
3.19148e-05
3.14385e-05
2.97065e-05
2.73903e-05
2.49643e-05
2.26897e-05
2.06632e-05
1.88863e-05
1.73144e-05
1.58865e-05
1.45401e-05
1.32174e-05
1.18739e-05
1.04846e-05
9.06045e-06
7.66632e-06
6.41421e-06
5.34482e-06
4.45952e-06
3.77085e-06
3.30202e-06
3.09167e-06
3.24488e-06
4.13203e-06
6.79774e-06
5.05014e-06
1.6325e-06
1.3623e-07
4.7592e-08
1.98903e-06
4.74968e-06
9.73028e-06
1.76446e-05
2.57299e-05
3.04371e-05
3.19536e-05
3.1398e-05
2.96362e-05
2.73331e-05
2.49467e-05
2.27214e-05
2.0743e-05
1.90075e-05
1.74677e-05
1.60609e-05
1.47225e-05
1.33922e-05
1.20234e-05
1.05916e-05
9.11063e-06
7.65384e-06
6.34718e-06
5.24681e-06
4.35646e-06
3.68477e-06
3.24727e-06
3.0763e-06
3.27876e-06
4.24553e-06
7.03065e-06
5.02921e-06
1.64793e-06
1.40309e-07
5.07746e-08
2.00574e-06
4.79697e-06
9.87207e-06
1.79311e-05
2.60213e-05
3.06038e-05
3.20035e-05
3.13758e-05
2.95913e-05
2.73059e-05
2.49605e-05
2.27837e-05
2.08521e-05
1.91571e-05
1.76493e-05
1.62644e-05
1.49353e-05
1.35983e-05
1.22047e-05
1.07295e-05
9.19013e-06
7.66811e-06
6.30315e-06
5.16814e-06
4.26882e-06
3.60977e-06
3.19941e-06
3.06453e-06
3.3144e-06
4.36042e-06
7.25851e-06
5.01197e-06
1.66267e-06
1.44157e-07
5.4001e-08
2.02296e-06
4.84709e-06
1.00221e-05
1.82298e-05
2.63204e-05
3.078e-05
3.20701e-05
3.13774e-05
2.95749e-05
2.73083e-05
2.50024e-05
2.2872e-05
2.0985e-05
1.93291e-05
1.7853e-05
1.64905e-05
1.51716e-05
1.38292e-05
1.24114e-05
1.08929e-05
9.29473e-06
7.70641e-06
6.28125e-06
5.10927e-06
4.19782e-06
3.54746e-06
3.16016e-06
3.05802e-06
3.35324e-06
4.47774e-06
7.4813e-06
4.99758e-06
1.67695e-06
1.47774e-07
5.73089e-08
2.04089e-06
4.90054e-06
1.01829e-05
1.85469e-05
2.66334e-05
3.0969e-05
3.21539e-05
3.14016e-05
2.95846e-05
2.73376e-05
2.50705e-05
2.2985e-05
2.11417e-05
1.95247e-05
1.80807e-05
1.67415e-05
1.54342e-05
1.40876e-05
1.26465e-05
1.10844e-05
9.42614e-06
7.77019e-06
6.28248e-06
5.07073e-06
4.1436e-06
3.49764e-06
3.12899e-06
3.05591e-06
3.39398e-06
4.59578e-06
7.69849e-06
4.98502e-06
1.69018e-06
1.51157e-07
6.0651e-08
2.05903e-06
4.95613e-06
1.03518e-05
1.88785e-05
2.696e-05
3.11746e-05
3.22594e-05
3.145e-05
2.96179e-05
2.73884e-05
2.51576e-05
2.31154e-05
2.13151e-05
1.97371e-05
1.83261e-05
1.70117e-05
1.57175e-05
1.43683e-05
1.29052e-05
1.13002e-05
9.58179e-06
7.85768e-06
6.30623e-06
5.05274e-06
4.10696e-06
3.46149e-06
3.10734e-06
3.0597e-06
3.43837e-06
4.71757e-06
7.91646e-06
4.97948e-06
1.70336e-06
1.5432e-07
6.40495e-08
2.07739e-06
5.01361e-06
1.05284e-05
1.9226e-05
2.73047e-05
3.14019e-05
3.2389e-05
3.15197e-05
2.96696e-05
2.74558e-05
2.52605e-05
2.32614e-05
2.15046e-05
1.99667e-05
1.85901e-05
1.73019e-05
1.60227e-05
1.46727e-05
1.31888e-05
1.15414e-05
9.76244e-06
7.96903e-06
6.35247e-06
5.0551e-06
4.08758e-06
3.43873e-06
3.09502e-06
3.06941e-06
3.4867e-06
4.84349e-06
8.13425e-06
4.98135e-06
1.71688e-06
1.57274e-07
6.74615e-08
2.09554e-06
5.07168e-06
1.07085e-05
1.95758e-05
2.76403e-05
3.16174e-05
3.25144e-05
3.15961e-05
2.97294e-05
2.7531e-05
2.53714e-05
2.34161e-05
2.17038e-05
2.02073e-05
1.88667e-05
1.76068e-05
1.63448e-05
1.49961e-05
1.34933e-05
1.18048e-05
9.96579e-06
8.10301e-06
6.4208e-06
5.07789e-06
4.08587e-06
3.43006e-06
3.093e-06
3.0861e-06
3.53971e-06
4.97328e-06
8.35047e-06
4.98791e-06
1.73056e-06
1.6002e-07
7.09023e-08
2.11368e-06
5.13072e-06
1.08931e-05
1.99305e-05
2.79631e-05
3.18194e-05
3.26296e-05
3.16697e-05
2.97926e-05
2.76124e-05
2.54896e-05
2.35788e-05
2.19119e-05
2.04582e-05
1.91554e-05
1.79258e-05
1.6683e-05
1.53377e-05
1.3818e-05
1.20899e-05
1.01916e-05
8.25971e-06
6.51136e-06
5.1212e-06
4.1018e-06
3.4354e-06
3.1012e-06
3.10978e-06
3.59795e-06
5.10925e-06
8.5648e-06
4.99887e-06
1.74432e-06
1.62567e-07
7.43357e-08
2.13151e-06
5.1895e-06
1.10765e-05
2.02762e-05
2.82708e-05
3.20085e-05
3.27358e-05
3.17379e-05
2.98611e-05
2.76984e-05
2.56099e-05
2.37432e-05
2.21228e-05
2.07138e-05
1.9451e-05
1.8254e-05
1.70329e-05
1.56934e-05
1.41589e-05
1.23929e-05
1.04368e-05
8.43658e-06
6.62231e-06
5.1842e-06
4.13529e-06
3.45517e-06
3.12046e-06
3.1417e-06
3.66315e-06
5.25316e-06
8.77897e-06
5.01369e-06
1.75809e-06
1.6492e-07
7.77761e-08
2.14935e-06
5.24929e-06
1.12629e-05
2.06173e-05
2.85633e-05
3.21821e-05
3.28281e-05
3.17939e-05
2.99189e-05
2.77774e-05
2.57269e-05
2.3907e-05
2.23353e-05
2.09729e-05
1.97522e-05
1.85902e-05
1.73932e-05
1.60619e-05
1.45148e-05
1.2713e-05
1.07006e-05
8.63324e-06
6.75362e-06
5.26674e-06
4.18612e-06
3.48923e-06
3.15078e-06
3.18194e-06
3.7351e-06
5.40365e-06
8.99292e-06
5.03259e-06
1.77194e-06
1.67094e-07
8.11904e-08
2.16677e-06
5.30933e-06
1.14526e-05
2.09497e-05
2.88402e-05
3.23416e-05
3.2909e-05
3.18407e-05
2.99697e-05
2.78523e-05
2.58407e-05
2.40675e-05
2.2545e-05
2.12307e-05
2.00543e-05
1.89299e-05
1.77596e-05
1.64392e-05
1.48821e-05
1.30465e-05
1.098e-05
8.84724e-06
6.90373e-06
5.36804e-06
4.25414e-06
3.53787e-06
3.19276e-06
3.23129e-06
3.81462e-06
5.56126e-06
9.2071e-06
5.055e-06
1.78584e-06
1.69098e-07
8.45811e-08
2.18337e-06
5.36738e-06
1.16383e-05
2.1271e-05
2.90989e-05
3.24838e-05
3.29744e-05
3.18736e-05
3.00087e-05
2.7923e-05
2.595e-05
2.42224e-05
2.27497e-05
2.14852e-05
2.03554e-05
1.92709e-05
1.813e-05
1.68231e-05
1.52586e-05
1.3392e-05
1.12736e-05
9.07755e-06
7.07166e-06
5.48723e-06
4.3387e-06
3.60078e-06
3.24634e-06
3.28981e-06
3.90171e-06
5.72571e-06
9.42168e-06
5.08113e-06
1.79986e-06
1.70948e-07
8.79285e-08
2.19959e-06
5.42475e-06
1.18217e-05
2.15827e-05
2.93417e-05
3.26112e-05
3.30263e-05
3.18929e-05
3.0033e-05
2.79782e-05
2.60448e-05
2.4365e-05
2.29445e-05
2.17324e-05
2.06515e-05
1.96094e-05
1.85003e-05
1.72097e-05
1.56406e-05
1.37459e-05
1.15785e-05
9.32199e-06
7.25592e-06
5.62323e-06
4.43925e-06
3.6778e-06
3.31175e-06
3.35802e-06
3.99704e-06
5.89767e-06
9.63712e-06
5.11058e-06
1.81401e-06
1.72655e-07
9.12364e-08
2.21535e-06
5.48102e-06
1.20025e-05
2.18845e-05
2.95679e-05
3.27221e-05
3.30636e-05
3.18998e-05
3.00465e-05
2.80236e-05
2.61312e-05
2.45001e-05
2.31326e-05
2.19735e-05
2.09426e-05
1.99442e-05
1.88686e-05
1.75963e-05
1.60252e-05
1.41055e-05
1.18927e-05
9.57906e-06
7.45551e-06
5.77544e-06
4.55526e-06
3.76857e-06
3.38884e-06
3.43598e-06
4.1008e-06
6.07738e-06
9.85422e-06
5.14366e-06
1.82837e-06
1.74237e-07
9.44684e-08
2.23041e-06
5.53546e-06
1.21782e-05
2.21731e-05
2.97776e-05
3.28179e-05
3.3085e-05
3.18896e-05
3.00426e-05
2.8052e-05
2.62024e-05
2.4623e-05
2.33104e-05
2.22054e-05
2.12255e-05
2.02719e-05
1.92312e-05
1.79789e-05
1.64082e-05
1.44667e-05
1.22125e-05
9.84608e-06
7.66892e-06
5.94321e-06
4.68651e-06
3.87309e-06
3.47777e-06
3.524e-06
4.21348e-06
6.26537e-06
1.00734e-05
5.18022e-06
1.84297e-06
1.75706e-07
9.76413e-08
2.24505e-06
5.58872e-06
1.23517e-05
2.24562e-05
2.99756e-05
3.29008e-05
3.30946e-05
3.18688e-05
3.00286e-05
2.80701e-05
2.62619e-05
2.47308e-05
2.34728e-05
2.24251e-05
2.14984e-05
2.05903e-05
1.95852e-05
1.8354e-05
1.67854e-05
1.4825e-05
1.25337e-05
1.01196e-05
7.89365e-06
6.12504e-06
4.83231e-06
3.99115e-06
3.57861e-06
3.62235e-06
4.3355e-06
6.46225e-06
1.02958e-05
5.22051e-06
1.85792e-06
1.77077e-07
1.00749e-07
2.25917e-06
5.64125e-06
1.25236e-05
2.27286e-05
3.01567e-05
3.29679e-05
3.30893e-05
3.18333e-05
3e-05
2.80749e-05
2.63119e-05
2.48329e-05
2.36288e-05
2.26331e-05
2.17576e-05
2.08971e-05
1.99291e-05
1.872e-05
1.71551e-05
1.51784e-05
1.28538e-05
1.03971e-05
8.12766e-06
6.31942e-06
4.99176e-06
4.12242e-06
3.6914e-06
3.73128e-06
4.46729e-06
6.6685e-06
1.05219e-05
5.26454e-06
1.87325e-06
1.78368e-07
1.03793e-07
2.27317e-06
5.69328e-06
1.26925e-05
2.29904e-05
3.03228e-05
3.30204e-05
3.30696e-05
3.17833e-05
2.99565e-05
2.80642e-05
2.63463e-05
2.49197e-05
2.37716e-05
2.28315e-05
2.20068e-05
2.1191e-05
2.02608e-05
1.9075e-05
1.75147e-05
1.5524e-05
1.31703e-05
1.06764e-05
8.36917e-06
6.52496e-06
5.16397e-06
4.26653e-06
3.81625e-06
3.85127e-06
4.60955e-06
6.88494e-06
1.07529e-05
5.31269e-06
1.88909e-06
1.79599e-07
1.0676e-07
2.28679e-06
5.74453e-06
1.2858e-05
2.32406e-05
3.04721e-05
3.3056e-05
3.30334e-05
3.17173e-05
2.98977e-05
2.80397e-05
2.63708e-05
2.49967e-05
2.39034e-05
2.30182e-05
2.22455e-05
2.14746e-05
2.0578e-05
1.9415e-05
1.78613e-05
1.58589e-05
1.34799e-05
1.09544e-05
8.61558e-06
6.73964e-06
5.34758e-06
4.4228e-06
3.95299e-06
3.98243e-06
4.76255e-06
7.1122e-06
1.09891e-05
5.36481e-06
1.90547e-06
1.80785e-07
1.09656e-07
2.30024e-06
5.79584e-06
1.3019e-05
2.3478e-05
3.0605e-05
3.30758e-05
3.29812e-05
3.16345e-05
2.98213e-05
2.79965e-05
2.63758e-05
2.50558e-05
2.40197e-05
2.31914e-05
2.2472e-05
2.17471e-05
2.08853e-05
1.97417e-05
1.81932e-05
1.61812e-05
1.37809e-05
1.12292e-05
8.86505e-06
6.96178e-06
5.54126e-06
4.59042e-06
4.10146e-06
4.12552e-06
4.92868e-06
7.35206e-06
1.1232e-05
5.42136e-06
1.92252e-06
1.81946e-07
1.12463e-07
2.31288e-06
5.84541e-06
1.31746e-05
2.37023e-05
3.07203e-05
3.30774e-05
3.29104e-05
3.15332e-05
2.97269e-05
2.79364e-05
2.63653e-05
2.51008e-05
2.41229e-05
2.33519e-05
2.26855e-05
2.20061e-05
2.11788e-05
2.00551e-05
1.85098e-05
1.64884e-05
1.40702e-05
1.1498e-05
9.11514e-06
7.18932e-06
5.7434e-06
4.7682e-06
4.26094e-06
4.2803e-06
5.10776e-06
7.60564e-06
1.14824e-05
5.48212e-06
1.94027e-06
1.831e-07
1.15171e-07
2.32451e-06
5.89206e-06
1.33237e-05
2.39122e-05
3.08181e-05
3.30612e-05
3.2821e-05
3.14122e-05
2.96122e-05
2.78558e-05
2.6335e-05
2.51279e-05
2.42102e-05
2.34983e-05
2.28859e-05
2.22522e-05
2.14588e-05
2.03541e-05
1.88119e-05
1.67802e-05
1.43466e-05
1.17591e-05
9.36393e-06
7.42042e-06
5.95252e-06
4.95518e-06
4.43101e-06
4.44687e-06
5.30036e-06
7.87431e-06
1.17413e-05
5.54735e-06
1.9588e-06
1.84266e-07
1.17779e-07
2.33546e-06
5.93667e-06
1.3467e-05
2.41082e-05
3.08973e-05
3.30251e-05
3.27102e-05
3.12693e-05
2.94756e-05
2.77541e-05
2.62847e-05
2.5137e-05
2.42816e-05
2.363e-05
2.30723e-05
2.24841e-05
2.17238e-05
2.06371e-05
1.90974e-05
1.70563e-05
1.46084e-05
1.20108e-05
9.60962e-06
7.65321e-06
6.16693e-06
5.14997e-06
4.61073e-06
4.62475e-06
5.50658e-06
8.15876e-06
1.20089e-05
5.61696e-06
1.97817e-06
1.85465e-07
1.2029e-07
2.3454e-06
5.97832e-06
1.36032e-05
2.4289e-05
3.09577e-05
3.29689e-05
3.25778e-05
3.11036e-05
2.93161e-05
2.76297e-05
2.62127e-05
2.51266e-05
2.43353e-05
2.37456e-05
2.32434e-05
2.2701e-05
2.19733e-05
2.09036e-05
1.93656e-05
1.73154e-05
1.48556e-05
1.22505e-05
9.84981e-06
7.88588e-06
6.38515e-06
5.35155e-06
4.79949e-06
4.81379e-06
5.72677e-06
8.4599e-06
1.22855e-05
5.69085e-06
1.99841e-06
1.86712e-07
1.227e-07
2.35458e-06
6.01758e-06
1.37325e-05
2.44543e-05
3.09985e-05
3.28914e-05
3.24225e-05
3.0914e-05
2.91325e-05
2.74816e-05
2.61183e-05
2.50956e-05
2.43704e-05
2.3844e-05
2.33984e-05
2.2902e-05
2.22064e-05
2.11527e-05
1.96155e-05
1.75565e-05
1.50871e-05
1.24789e-05
1.0083e-05
8.11607e-06
6.60505e-06
5.55818e-06
4.99612e-06
5.01345e-06
5.96113e-06
8.77849e-06
1.25707e-05
5.76873e-06
2.01953e-06
1.88018e-07
1.25022e-07
2.36292e-06
6.05421e-06
1.38552e-05
2.46047e-05
3.10198e-05
3.27925e-05
3.22439e-05
3.07002e-05
2.89247e-05
2.73098e-05
2.60011e-05
2.50432e-05
2.43856e-05
2.39238e-05
2.35356e-05
2.30854e-05
2.24216e-05
2.1383e-05
1.98459e-05
1.77785e-05
1.53016e-05
1.26946e-05
1.03088e-05
8.34324e-06
6.82565e-06
5.76881e-06
5.19972e-06
5.22316e-06
6.20961e-06
9.11492e-06
1.28642e-05
5.85032e-06
2.04151e-06
1.89392e-07
1.2725e-07
2.37038e-06
6.08806e-06
1.39701e-05
2.47387e-05
3.10212e-05
3.26719e-05
3.2042e-05
3.04621e-05
2.86924e-05
2.7114e-05
2.58605e-05
2.49688e-05
2.438e-05
2.39839e-05
2.36536e-05
2.32499e-05
2.26174e-05
2.15932e-05
2.00558e-05
1.79806e-05
1.54984e-05
1.28964e-05
1.05258e-05
8.56575e-06
7.0454e-06
5.98209e-06
5.40931e-06
5.44248e-06
6.47244e-06
9.46978e-06
1.31649e-05
5.93507e-06
2.0643e-06
1.90839e-07
1.294e-07
2.37711e-06
6.11951e-06
1.40784e-05
2.48579e-05
3.10033e-05
3.253e-05
3.18172e-05
3.02008e-05
2.84372e-05
2.68955e-05
2.56978e-05
2.48731e-05
2.43538e-05
2.40237e-05
2.37517e-05
2.33943e-05
2.27925e-05
2.17821e-05
2.02442e-05
1.81622e-05
1.56775e-05
1.30846e-05
1.07339e-05
8.7835e-06
7.26382e-06
6.19718e-06
5.62384e-06
5.67043e-06
6.74899e-06
9.84257e-06
1.3472e-05
6.02276e-06
2.0879e-06
1.92368e-07
1.31471e-07
2.38303e-06
6.14832e-06
1.41795e-05
2.49617e-05
3.09665e-05
3.23671e-05
3.15702e-05
2.99168e-05
2.81595e-05
2.66549e-05
2.55132e-05
2.47559e-05
2.43063e-05
2.40423e-05
2.38284e-05
2.35169e-05
2.29454e-05
2.19483e-05
2.04099e-05
1.83222e-05
1.58376e-05
1.32581e-05
1.09318e-05
8.99506e-06
7.47975e-06
6.41316e-06
5.84286e-06
5.90688e-06
7.03935e-06
1.02332e-05
1.37834e-05
6.11236e-06
2.11211e-06
1.93973e-07
1.33472e-07
2.38823e-06
6.17471e-06
1.42738e-05
2.50512e-05
3.09118e-05
3.21848e-05
3.13024e-05
2.96119e-05
2.78613e-05
2.63943e-05
2.53089e-05
2.46189e-05
2.42385e-05
2.40399e-05
2.38832e-05
2.36168e-05
2.30748e-05
2.20904e-05
2.05521e-05
1.84607e-05
1.59798e-05
1.34181e-05
1.112e-05
9.20026e-06
7.69256e-06
6.62937e-06
6.06525e-06
6.15083e-06
7.34313e-06
1.06414e-05
1.40984e-05
6.20369e-06
2.13693e-06
1.95656e-07
1.35405e-07
2.39268e-06
6.19862e-06
1.43613e-05
2.51268e-05
3.084e-05
3.19835e-05
3.10147e-05
2.92872e-05
2.7544e-05
2.61152e-05
2.50862e-05
2.44633e-05
2.41513e-05
2.40168e-05
2.3916e-05
2.36933e-05
2.31794e-05
2.22073e-05
2.06695e-05
1.85769e-05
1.61038e-05
1.35651e-05
1.12985e-05
9.39879e-06
7.90191e-06
6.8453e-06
6.29059e-06
6.40157e-06
7.6594e-06
1.10653e-05
1.44135e-05
6.29542e-06
2.1621e-06
1.97407e-07
1.37278e-07
2.39648e-06
6.22032e-06
1.44427e-05
2.51898e-05
3.07527e-05
3.17651e-05
3.07089e-05
2.89445e-05
2.72095e-05
2.58195e-05
2.48476e-05
2.42908e-05
2.40454e-05
2.39731e-05
2.39262e-05
2.37453e-05
2.32582e-05
2.22975e-05
2.07614e-05
1.86708e-05
1.62112e-05
1.37021e-05
1.14689e-05
9.59104e-06
8.10727e-06
7.06012e-06
6.51836e-06
6.65903e-06
7.98881e-06
1.15055e-05
1.47279e-05
6.38742e-06
2.18761e-06
1.99224e-07
1.39094e-07
2.3996e-06
6.23967e-06
1.45177e-05
2.52401e-05
3.06503e-05
3.15302e-05
3.0386e-05
2.85852e-05
2.68591e-05
2.55086e-05
2.45952e-05
2.41031e-05
2.3922e-05
2.39095e-05
2.39141e-05
2.3773e-05
2.33107e-05
2.23605e-05
2.08269e-05
1.87421e-05
1.63024e-05
1.38307e-05
1.16327e-05
9.77817e-06
8.30917e-06
7.27354e-06
6.74748e-06
6.92194e-06
8.3292e-06
1.19586e-05
1.50384e-05
6.47877e-06
2.21329e-06
2.01106e-07
1.40861e-07
2.40214e-06
6.25708e-06
1.45874e-05
2.52794e-05
3.05345e-05
3.12807e-05
3.00481e-05
2.82115e-05
2.6495e-05
2.51841e-05
2.43284e-05
2.38999e-05
2.37814e-05
2.38264e-05
2.38803e-05
2.37764e-05
2.3337e-05
2.23965e-05
2.08663e-05
1.87908e-05
1.63773e-05
1.39502e-05
1.17896e-05
9.96015e-06
8.50778e-06
7.48602e-06
6.97882e-06
7.19146e-06
8.68158e-06
1.24247e-05
1.53446e-05
6.56954e-06
2.23913e-06
2.03052e-07
1.42579e-07
2.40407e-06
6.27243e-06
1.46515e-05
2.53081e-05
3.04062e-05
3.10177e-05
2.96967e-05
2.78252e-05
2.61192e-05
2.48481e-05
2.40495e-05
2.36832e-05
2.36252e-05
2.37254e-05
2.38257e-05
2.37563e-05
2.33374e-05
2.24052e-05
2.08791e-05
1.88162e-05
1.64346e-05
1.40589e-05
1.19395e-05
1.01376e-05
8.70372e-06
7.69743e-06
7.21127e-06
7.46584e-06
9.0444e-06
1.29002e-05
1.56441e-05
6.65895e-06
2.26494e-06
2.05055e-07
1.44261e-07
2.40553e-06
6.28616e-06
1.47113e-05
2.53279e-05
3.02677e-05
3.07439e-05
2.93345e-05
2.74291e-05
2.57345e-05
2.45035e-05
2.37616e-05
2.34562e-05
2.34565e-05
2.36091e-05
2.37528e-05
2.37149e-05
2.33139e-05
2.23885e-05
2.08666e-05
1.88184e-05
1.6473e-05
1.4154e-05
1.20799e-05
1.03093e-05
8.89672e-06
7.90822e-06
7.44552e-06
7.74571e-06
9.4174e-06
1.33848e-05
1.59366e-05
6.74674e-06
2.29069e-06
2.07111e-07
1.45902e-07
2.40651e-06
6.2983e-06
1.47666e-05
2.5339e-05
3.01197e-05
3.04606e-05
2.89635e-05
2.70255e-05
2.53432e-05
2.41524e-05
2.34666e-05
2.32207e-05
2.32773e-05
2.34796e-05
2.36636e-05
2.36539e-05
2.3268e-05
2.23477e-05
2.08302e-05
1.87987e-05
1.6493e-05
1.42348e-05
1.22097e-05
1.0474e-05
9.08624e-06
8.11866e-06
7.68315e-06
8.0343e-06
9.80117e-06
1.38774e-05
1.62205e-05
6.83213e-06
2.31614e-06
2.09207e-07
1.47513e-07
2.40715e-06
6.30947e-06
1.48196e-05
2.53447e-05
2.99653e-05
3.01706e-05
2.85863e-05
2.66168e-05
2.49479e-05
2.37974e-05
2.31672e-05
2.29793e-05
2.30902e-05
2.33395e-05
2.35606e-05
2.35758e-05
2.32022e-05
2.22852e-05
2.07717e-05
1.87583e-05
1.64948e-05
1.43002e-05
1.23272e-05
1.06303e-05
9.2715e-06
8.32888e-06
7.92475e-06
8.33171e-06
1.01974e-05
1.43782e-05
1.64955e-05
6.91467e-06
2.34111e-06
2.1133e-07
1.49091e-07
2.40747e-06
6.3197e-06
1.487e-05
2.53449e-05
2.98053e-05
2.98754e-05
2.82052e-05
2.62057e-05
2.45512e-05
2.34413e-05
2.2866e-05
2.2735e-05
2.28981e-05
2.31918e-05
2.34469e-05
2.34837e-05
2.31195e-05
2.22041e-05
2.06947e-05
1.87009e-05
1.6482e-05
1.43518e-05
1.24325e-05
1.07774e-05
9.45144e-06
8.53805e-06
8.16978e-06
8.63753e-06
1.0606e-05
1.48863e-05
1.6761e-05
6.99424e-06
2.36575e-06
2.13462e-07
1.50642e-07
2.40768e-06
6.32986e-06
1.49202e-05
2.53424e-05
2.96419e-05
2.95771e-05
2.7822e-05
2.57945e-05
2.41555e-05
2.30866e-05
2.25659e-05
2.24905e-05
2.2704e-05
2.30395e-05
2.33254e-05
2.33805e-05
2.30229e-05
2.21078e-05
2.06028e-05
1.86305e-05
1.64583e-05
1.43912e-05
1.25256e-05
1.09143e-05
9.62484e-06
8.74529e-06
8.41804e-06
8.95243e-06
1.10288e-05
1.54033e-05
1.70174e-05
7.07117e-06
2.39045e-06
2.15599e-07
1.52163e-07
2.40785e-06
6.34016e-06
1.4971e-05
2.53385e-05
2.94763e-05
2.92768e-05
2.74383e-05
2.53848e-05
2.37631e-05
2.27356e-05
2.22691e-05
2.22483e-05
2.25104e-05
2.28853e-05
2.3199e-05
2.32691e-05
2.29155e-05
2.19998e-05
2.05008e-05
1.85533e-05
1.64312e-05
1.44237e-05
1.26091e-05
1.10414e-05
9.79087e-06
8.94926e-06
8.66825e-06
9.27542e-06
1.14646e-05
1.59266e-05
1.72631e-05
7.14512e-06
2.41481e-06
2.17718e-07
1.53653e-07
2.4081e-06
6.35112e-06
1.50236e-05
2.53344e-05
2.9309e-05
2.89749e-05
2.70547e-05
2.49779e-05
2.33753e-05
2.23902e-05
2.1978e-05
2.2011e-05
2.23204e-05
2.27325e-05
2.3071e-05
2.31528e-05
2.28004e-05
2.1883e-05
2.03914e-05
1.84727e-05
1.64045e-05
1.44527e-05
1.26854e-05
1.11599e-05
9.94938e-06
9.14913e-06
8.91961e-06
9.60621e-06
1.19135e-05
1.64558e-05
1.74984e-05
7.21642e-06
2.43883e-06
2.1982e-07
1.55111e-07
2.40854e-06
6.36315e-06
1.50793e-05
2.53312e-05
2.91403e-05
2.8671e-05
2.66711e-05
2.45738e-05
2.29928e-05
2.20515e-05
2.1694e-05
2.17805e-05
2.21359e-05
2.25834e-05
2.29443e-05
2.3035e-05
2.26814e-05
2.17616e-05
2.02793e-05
1.83927e-05
1.63815e-05
1.4482e-05
1.27582e-05
1.12722e-05
1.01012e-05
9.34431e-06
9.1706e-06
9.94261e-06
1.23724e-05
1.69857e-05
1.77218e-05
7.28495e-06
2.46241e-06
2.21899e-07
1.56537e-07
2.40922e-06
6.37643e-06
1.51385e-05
2.53288e-05
2.89691e-05
2.8364e-05
2.62864e-05
2.41724e-05
2.26161e-05
2.17204e-05
2.14187e-05
2.15586e-05
2.19593e-05
2.24406e-05
2.28214e-05
2.29181e-05
2.25608e-05
2.16377e-05
2.01657e-05
1.83143e-05
1.63624e-05
1.45137e-05
1.28306e-05
1.13813e-05
1.02482e-05
9.53543e-06
9.42071e-06
1.02834e-05
1.28392e-05
1.75139e-05
1.79343e-05
7.35135e-06
2.48567e-06
2.23974e-07
1.57931e-07
2.41021e-06
6.3912e-06
1.52019e-05
2.53272e-05
2.87943e-05
2.80516e-05
2.58986e-05
2.37719e-05
2.22442e-05
2.13967e-05
2.11523e-05
2.13464e-05
2.17923e-05
2.23065e-05
2.27056e-05
2.28059e-05
2.24427e-05
2.1515e-05
2.00543e-05
1.82402e-05
1.63491e-05
1.45501e-05
1.29052e-05
1.14898e-05
1.03924e-05
9.72306e-06
9.66905e-06
1.0626e-05
1.33095e-05
1.80349e-05
1.81351e-05
7.41523e-06
2.50846e-06
2.26039e-07
1.59297e-07
2.41156e-06
6.40756e-06
1.52694e-05
2.53254e-05
2.86136e-05
2.77315e-05
2.55053e-05
2.33706e-05
2.18756e-05
2.10795e-05
2.08943e-05
2.11435e-05
2.16349e-05
2.21816e-05
2.25976e-05
2.26995e-05
2.23281e-05
2.13948e-05
1.99458e-05
1.81713e-05
1.63423e-05
1.4593e-05
1.29852e-05
1.16012e-05
1.05369e-05
9.90961e-06
9.91686e-06
1.09704e-05
1.37815e-05
1.85465e-05
1.8326e-05
7.47733e-06
2.53094e-06
2.28108e-07
1.60635e-07
2.41323e-06
6.42534e-06
1.53405e-05
2.53217e-05
2.84248e-05
2.7401e-05
2.51044e-05
2.29665e-05
2.15088e-05
2.07677e-05
2.06439e-05
2.09495e-05
2.14872e-05
2.20667e-05
2.2499e-05
2.26009e-05
2.22195e-05
2.12792e-05
1.98425e-05
1.81091e-05
1.63423e-05
1.46426e-05
1.30714e-05
1.17171e-05
1.06832e-05
1.00954e-05
1.01629e-05
1.13143e-05
1.4252e-05
1.90456e-05
1.85061e-05
7.53682e-06
2.55285e-06
2.30165e-07
1.61949e-07
2.41523e-06
6.44453e-06
1.54149e-05
2.53146e-05
2.82254e-05
2.70578e-05
2.46936e-05
2.25573e-05
2.11413e-05
2.04599e-05
2.03989e-05
2.07617e-05
2.1347e-05
2.19604e-05
2.24093e-05
2.25104e-05
2.21174e-05
2.11692e-05
1.97452e-05
1.8055e-05
1.63489e-05
1.46985e-05
1.31642e-05
1.18393e-05
1.08347e-05
1.02858e-05
1.04145e-05
1.166e-05
1.47209e-05
1.95319e-05
1.8677e-05
7.59413e-06
2.57427e-06
2.3221e-07
1.63235e-07
2.41745e-06