/*--------------------------------*- C++ -*----------------------------------*\
| =========                 |                                                 |
| \\      /  F ield         | OpenFOAM: The Open Source CFD Toolbox           |
|  \\    /   O peration     | Version:  v2006                                 |
|   \\  /    A nd           | Website:  www.openfoam.com                      |
|    \\/     M anipulation  |                                                 |
\*---------------------------------------------------------------------------*/
FoamFile
{
    version     2.0;
    format      ascii;
    class       surfaceScalarField;
    location    "50";
    object      phi;
}
// * * * * * * * * * * * * * * * * * * * * * * * * * * * * * * * * * * * * * //

dimensions      [1 0 -1 0 0 0 0];
oriented        oriented;


internalField   nonuniform List<scalar> 
228225
(
-3.3381e-06
-5.90866e-08
4.63265e-08
-2.92869e-06
-4.05213e-07
-3.94903e-09
-2.34196e-06
-5.67894e-07
-1.89884e-08
-1.68174e-06
-6.32064e-07
-2.81706e-08
-1.01222e-06
-6.33773e-07
-3.58002e-08
-3.71991e-07
-5.96352e-07
-4.39298e-08
2.16358e-07
-5.34824e-07
-5.35732e-08
7.40067e-07
-4.58719e-07
-6.50369e-08
1.19262e-06
-3.74369e-07
-7.82348e-08
1.57178e-06
-2.86325e-07
-9.28882e-08
1.8785e-06
-1.98126e-07
-1.08633e-07
2.11633e-06
-1.12789e-07
-1.25085e-07
2.29168e-06
-3.35715e-08
-1.41828e-07
2.4071e-06
4.30354e-08
-1.58516e-07
2.47132e-06
1.10495e-07
-1.74777e-07
2.49601e-06
1.6553e-07
-1.90293e-07
2.49281e-06
2.07953e-07
-2.04846e-07
2.47387e-06
2.37165e-07
-2.18318e-07
2.45137e-06
2.53084e-07
-2.30697e-07
2.43772e-06
2.55602e-07
-2.42078e-07
2.44493e-06
2.45299e-07
-2.5264e-07
2.48363e-06
2.23778e-07
-2.62625e-07
2.56196e-06
1.9382e-07
-2.72293e-07
2.6843e-06
1.594e-07
-2.81879e-07
2.85013e-06
1.25566e-07
-2.91553e-07
3.05299e-06
9.8385e-08
-3.01385e-07
3.27882e-06
8.53236e-08
-3.11296e-07
3.50317e-06
9.64386e-08
-3.20926e-07
3.68583e-06
1.4658e-07
-3.2937e-07
3.76232e-06
2.58045e-07
-3.34646e-07
3.63295e-06
4.62058e-07
-3.32786e-07
3.16721e-06
7.82209e-07
-3.16503e-07
2.25973e-06
1.18167e-06
-2.74054e-07
9.98076e-07
1.45419e-06
-1.92004e-07
1.06629e-06
-6.69748e-08
-8.08719e-09
-1.16717e-07
6.54385e-08
6.52624e-08
-5.77923e-07
9.94925e-08
1.87719e-07
-8.19954e-07
1.29305e-07
3.46718e-07
-9.44456e-07
1.53436e-07
5.41883e-07
-9.99766e-07
1.70798e-07
7.72932e-07
-1.00877e-06
1.81314e-07
1.03692e-06
-9.84485e-07
1.85668e-07
1.32826e-06
-9.34781e-07
1.84756e-07
1.63914e-06
-8.64619e-07
1.79423e-07
1.95998e-06
-7.77463e-07
1.70359e-07
2.27997e-06
-6.76123e-07
1.58069e-07
2.58763e-06
-5.63223e-07
1.42869e-07
2.87065e-06
-4.41466e-07
1.24986e-07
3.12315e-06
-3.13792e-07
1.04453e-07
3.33612e-06
-1.83608e-07
8.12577e-08
3.5016e-06
-5.50795e-08
5.5254e-08
3.61314e-06
7.05876e-08
2.59382e-08
3.66951e-06
1.87119e-07
-6.21257e-09
3.66772e-06
2.8991e-07
-3.4947e-08
3.61553e-06
3.75612e-07
-6.77524e-08
3.52287e-06
4.41075e-07
-1.03078e-07
3.40243e-06
4.84245e-07
-1.40032e-07
3.26919e-06
5.04767e-07
-1.77737e-07
3.13924e-06
5.04667e-07
-2.15372e-07
3.02769e-06
4.89382e-07
-2.52357e-07
2.94504e-06
4.6943e-07
-2.88493e-07
2.89162e-06
4.62498e-07
-3.23873e-07
2.85166e-06
4.94633e-07
-3.58353e-07
2.78877e-06
5.99779e-07
-3.90433e-07
2.64535e-06
8.16845e-07
-4.15488e-07
2.35106e-06
1.18022e-06
-4.23944e-07
1.84833e-06
1.68655e-06
-4.01596e-07
1.15212e-06
2.21361e-06
-3.355e-07
4.20479e-07
2.40933e-06
-2.22862e-07
1.56216e-06
-7.40665e-08
2.78746e-08
-2.07929e-07
6.29728e-08
-3.14153e-09
-6.68711e-07
1.21906e-07
-1.16631e-08
-9.7872e-07
1.67133e-07
3.30273e-08
-1.19142e-06
2.02072e-07
1.40474e-07
-1.3363e-06
2.2897e-07
3.13165e-07
-1.43109e-06
2.4952e-07
5.4839e-07
-1.48503e-06
2.65196e-07
8.39631e-07
-1.50325e-06
2.77097e-07
1.17793e-06
-1.48901e-06
2.85967e-07
1.55283e-06
-1.44474e-06
2.9227e-07
1.95299e-06
-1.37263e-06
2.96261e-07
2.36648e-06
-1.27486e-06
2.98058e-07
2.78105e-06
-1.15377e-06
2.97677e-07
3.18409e-06
-1.01193e-06
2.95041e-07
3.56262e-06
-8.52217e-07
2.90055e-07
3.9028e-06
-6.77851e-07
2.82577e-07
4.1934e-06
-4.92408e-07
2.72405e-07
4.4212e-06
-2.99927e-07
2.59281e-07
4.57324e-06
-1.04956e-07
2.42884e-07
4.63868e-06
8.74217e-08
2.2282e-07
4.61027e-06
2.70969e-07
1.98597e-07
4.4858e-06
4.39226e-07
1.6959e-07
4.27018e-06
5.85511e-07
1.34972e-07
3.9769e-06
7.04403e-07
9.36274e-08
3.6284e-06
7.94032e-07
4.39199e-08
3.2529e-06
8.59678e-07
-1.47161e-08
2.87501e-06
9.18193e-07
-7.78235e-08
2.51885e-06
1.00148e-06
-1.50764e-07
2.1892e-06
1.15799e-06
-2.28655e-07
1.86377e-06
1.4454e-06
-3.03252e-07
1.5044e-06
1.89826e-06
-3.58766e-07
1.08448e-06
2.47883e-06
-3.72332e-07
6.27102e-07
2.99677e-06
-3.25537e-07
2.13327e-07
3.04225e-06
-2.18466e-07
1.84749e-06
-7.06666e-08
4.42551e-08
-3.04195e-07
5.15557e-08
1.46064e-07
-8.74056e-07
1.03749e-07
3.1677e-07
-1.29068e-06
1.41028e-07
5.53336e-07
-1.59646e-06
1.68176e-07
8.43323e-07
-1.81513e-06
1.88678e-07
1.17301e-06
-1.96573e-06
2.04821e-07
1.53117e-06
-2.06135e-06
2.17981e-07
1.90822e-06
-2.10968e-06
2.29157e-07
2.2958e-06
-2.11579e-06
2.38991e-07
2.68661e-06
-2.08362e-06
2.47862e-07
3.07427e-06
-2.01644e-06
2.55953e-07
3.45305e-06
-1.91715e-06
2.63308e-07
3.81765e-06
-1.78844e-06
2.69869e-07
4.16295e-06
-1.63295e-06
2.75513e-07
4.48372e-06
-1.45327e-06
2.80075e-07
4.77442e-06
-1.25211e-06
2.83368e-07
5.02894e-06
-1.0323e-06
2.852e-07
5.23992e-06
-7.96451e-07
2.85375e-07
5.39795e-06
-5.46829e-07
2.83689e-07
5.49254e-06
-2.87217e-07
2.79917e-07
5.516e-06
-2.6396e-08
2.7379e-07
5.45e-06
2.40193e-07
2.64934e-07
5.28859e-06
4.94008e-07
2.52833e-07
5.02697e-06
7.29301e-07
2.36673e-07
4.66555e-06
9.40259e-07
2.15165e-07
4.21304e-06
1.12614e-06
1.86023e-07
3.68989e-06
1.29616e-06
1.4517e-07
3.12865e-06
1.47537e-06
8.73224e-08
2.56998e-06
1.71105e-06
5.57653e-09
2.03374e-06
2.06658e-06
-8.49837e-08
1.52977e-06
2.5813e-06
-1.79082e-07
1.04963e-06
3.2009e-06
-2.41851e-07
5.97937e-07
3.68932e-06
-2.4054e-07
2.06291e-07
3.60363e-06
-1.69021e-07
2.10746e-06
-5.23195e-08
6.67935e-08
-4.14313e-07
4.31465e-08
2.32704e-07
-1.12984e-06
8.96569e-08
4.84319e-07
-1.66439e-06
1.22074e-07
8.05539e-07
-2.0624e-06
1.44659e-07
1.17591e-06
-2.34601e-06
1.60402e-07
1.57481e-06
-2.53675e-06
1.7202e-07
1.98749e-06
-2.65533e-06
1.81211e-07
2.40379e-06
-2.71487e-06
1.88823e-07
2.81548e-06
-2.72305e-06
1.95501e-07
3.21575e-06
-2.68567e-06
2.01693e-07
3.59899e-06
-2.60749e-06
2.07704e-07
3.9606e-06
-2.49257e-06
2.13719e-07
4.29678e-06
-2.34455e-06
2.19824e-07
4.60442e-06
-2.16671e-06
2.26011e-07
4.88095e-06
-1.9621e-06
2.32187e-07
5.12416e-06
-1.73363e-06
2.38185e-07
5.3314e-06
-1.48346e-06
2.43786e-07
5.49827e-06
-1.21224e-06
2.48778e-07
5.61871e-06
-9.20364e-07
2.52961e-07
5.6853e-06
-6.10039e-07
2.56088e-07
5.68629e-06
-2.8542e-07
2.57885e-07
5.62058e-06
4.76643e-08
2.58105e-07
5.47553e-06
3.82504e-07
2.56417e-07
5.24283e-06
7.09581e-07
2.52301e-07
4.91709e-06
1.02106e-06
2.44838e-07
4.4975e-06
1.3132e-06
2.32436e-07
3.98986e-06
1.59153e-06
2.12202e-07
3.41008e-06
1.87645e-06
1.7864e-07
2.78826e-06
2.20887e-06
1.23963e-07
2.16593e-06
2.64604e-06
4.28435e-08
1.57594e-06
3.22353e-06
-5.22409e-08
1.03677e-06
3.87153e-06
-1.31358e-07
5.65849e-07
4.31904e-06
-1.58491e-07
1.84789e-07
4.10452e-06
-1.19143e-07
2.32928e-06
-3.56968e-08
7.34621e-08
-5.27024e-07
3.90233e-08
2.66832e-07
-1.40598e-06
8.25433e-08
5.54362e-07
-2.06377e-06
1.11878e-07
9.06951e-07
-2.54674e-06
1.31688e-07
1.2985e-06
-2.88268e-06
1.44964e-07
1.70607e-06
-3.09852e-06
1.54047e-07
2.11576e-06
-3.22592e-06
1.60801e-07
2.5196e-06
-3.28484e-06
1.66054e-07
2.91157e-06
-3.28537e-06
1.70272e-07
3.28675e-06
-3.2348e-06
1.7385e-07
3.64119e-06
-3.13914e-06
1.77101e-07
3.9717e-06
-3.00349e-06
1.80285e-07
4.2757e-06
-2.83229e-06
1.83622e-07
4.55115e-06
-2.62954e-06
1.87281e-07
4.79637e-06
-2.3988e-06
1.91372e-07
5.00899e-06
-2.14229e-06
1.95941e-07
5.1849e-06
-1.8605e-06
2.01005e-07
5.31966e-06
-1.5537e-06
2.06586e-07
5.40987e-06
-1.22328e-06
2.12593e-07
5.45269e-06
-8.71787e-07
2.18811e-07
5.44449e-06
-5.02297e-07
2.24964e-07
5.38023e-06
-1.18908e-07
2.3072e-07
5.25361e-06
2.73334e-07
2.35689e-07
5.05641e-06
6.67307e-07
2.39368e-07
4.78065e-06
1.05569e-06
2.41019e-07
4.42023e-06
1.4341e-06
2.3942e-07
3.97318e-06
1.80617e-06
2.32322e-07
3.44477e-06
2.18968e-06
2.15117e-07
2.85202e-06
2.62134e-06
1.8022e-07
2.22655e-06
3.15081e-06
1.20685e-07
1.61103e-06
3.80096e-06
3.81144e-08
1.04483e-06
4.47976e-06
-4.1924e-08
5.58408e-07
4.88881e-06
-8.30378e-08
1.76151e-07
4.55724e-06
-6.979e-08
2.52599e-06
-1.92726e-08
8.1815e-08
-6.43293e-07
3.43722e-08
2.91974e-07
-1.6895e-06
7.31679e-08
5.95217e-07
-2.46617e-06
9.89986e-08
9.56702e-07
-3.02473e-06
1.1643e-07
1.34621e-06
-3.40037e-06
1.28133e-07
1.74286e-06
-3.63131e-06
1.3607e-07
2.13545e-06
-3.7604e-06
1.41807e-07
2.51769e-06
-3.81328e-06
1.46109e-07
2.88516e-06
-3.80221e-06
1.49283e-07
3.23437e-06
-3.73573e-06
1.51633e-07
3.56252e-06
-3.62079e-06
1.53428e-07
3.8673e-06
-3.46328e-06
1.54917e-07
4.14691e-06
-3.26832e-06
1.56331e-07
4.39981e-06
-3.0404e-06
1.57865e-07
4.62283e-06
-2.78163e-06
1.59696e-07
4.81065e-06
-2.49221e-06
1.61988e-07
4.95841e-06
-2.1733e-06
1.64928e-07
5.06309e-06
-1.82713e-06
1.68625e-07
5.12327e-06
-1.45672e-06
1.7314e-07
5.13802e-06
-1.06514e-06
1.78491e-07
5.10645e-06
-6.55474e-07
1.84631e-07
5.02704e-06
-2.31041e-07
1.91421e-07
4.89737e-06
2.04264e-07
1.98625e-07
4.71294e-06
6.45751e-07
2.05872e-07
4.4672e-06
1.08872e-06
2.12604e-07
4.15234e-06
1.53103e-06
2.17836e-07
3.76131e-06
1.97763e-06
2.19487e-07
3.29116e-06
2.44626e-06
2.13492e-07
2.74818e-06
2.97092e-06
1.93341e-07
2.15435e-06
3.59265e-06
1.51946e-07
1.55053e-06
4.31665e-06
8.81281e-08
9.90917e-07
5.02337e-06
1.60797e-08
5.15648e-07
5.39323e-06
-2.88865e-08
1.54863e-07
4.95082e-06
-3.21802e-08
2.68935e-06
-7.25751e-09
8.10295e-08
-7.56755e-07
3.23954e-08
2.8887e-07
-1.9676e-06
7.00095e-08
5.84774e-07
-2.85741e-06
9.51282e-08
9.31593e-07
-3.48383e-06
1.1221e-07
1.29932e-06
-3.89184e-06
1.23721e-07
1.67013e-06
-4.13356e-06
1.31405e-07
2.0347e-06
-4.26159e-06
1.36549e-07
2.38831e-06
-4.30688e-06
1.39893e-07
2.72808e-06
-4.2838e-06
1.41741e-07
3.05174e-06
-4.20187e-06
1.42406e-07
3.3574e-06
-4.06873e-06
1.42225e-07
3.64346e-06
-3.89091e-06
1.41523e-07
3.90831e-06
-3.67383e-06
1.40595e-07
4.14824e-06
-3.42011e-06
1.39712e-07
4.35683e-06
-3.12945e-06
1.39142e-07
4.52845e-06
-2.80306e-06
1.39143e-07
4.65968e-06
-2.44451e-06
1.39902e-07
4.74871e-06
-2.05784e-06
1.41602e-07
4.7947e-06
-1.64721e-06
1.44422e-07
4.79754e-06
-1.21657e-06
1.48513e-07
4.75752e-06
-7.69481e-07
1.53927e-07
4.67487e-06
-3.09111e-07
1.60628e-07
4.54899e-06
1.61535e-07
1.685e-07
4.37763e-06
6.39706e-07
1.77296e-07
4.1563e-06
1.12342e-06
1.86545e-07
3.87786e-06
1.61404e-06
1.95342e-07
3.53352e-06
2.11996e-06
2.01914e-07
3.11561e-06
2.66118e-06
2.02911e-07
2.6232e-06
3.27047e-06
1.92802e-07
2.07051e-06
3.98031e-06
1.64981e-07
1.49434e-06
4.77614e-06
1.16667e-07
9.51658e-07
5.50861e-06
5.75122e-08
4.90084e-07
5.84356e-06
1.14748e-08
1.44705e-07
5.30083e-06
-4.05923e-09
2.83332e-06
1.91377e-09
8.10142e-08
-8.67353e-07
2.93929e-08
2.83579e-07
-2.23437e-06
6.41482e-08
5.65691e-07
-3.22713e-06
8.75211e-08
8.90911e-07
-3.9127e-06
1.03547e-07
1.23175e-06
-4.34711e-06
1.14336e-07
1.57319e-06
-4.59644e-06
1.21386e-07
1.90784e-06
-4.72214e-06
1.2584e-07
2.23231e-06
-4.75985e-06
1.28441e-07
2.54453e-06
-4.7256e-06
1.29522e-07
2.84279e-06
-4.62959e-06
1.29396e-07
3.12568e-06
-4.48008e-06
1.28372e-07
3.39182e-06
-4.28384e-06
1.26715e-07
3.6376e-06
-4.04437e-06
1.24672e-07
3.85642e-06
-3.76148e-06
1.22468e-07
4.04283e-06
-3.43627e-06
1.20335e-07
4.19382e-06
-3.07261e-06
1.18495e-07
4.30724e-06
-2.67523e-06
1.17219e-07
4.38193e-06
-2.24941e-06
1.16798e-07
4.4176e-06
-1.80048e-06
1.17511e-07
4.4146e-06
-1.33328e-06
1.19608e-07
4.37362e-06
-8.51874e-07
1.23285e-07
4.29519e-06
-3.59464e-07
1.28692e-07
4.17911e-06
1.41617e-07
1.35899e-07
4.02402e-06
6.49867e-07
1.44828e-07
3.82611e-06
1.16609e-06
1.55152e-07
3.57871e-06
1.69522e-06
1.66119e-07
3.27255e-06
2.24983e-06
1.762e-07
2.89796e-06
2.85319e-06
1.82493e-07
2.45044e-06
3.53775e-06
1.80156e-07
1.93997e-06
4.32761e-06
1.63098e-07
1.40031e-06
5.18805e-06
1.27713e-07
8.88292e-07
5.94064e-06
8.00181e-08
4.51233e-07
6.2422e-06
3.86137e-08
1.29894e-07
5.6058e-06
1.68775e-08
2.95539e-06
8.94516e-09
7.33869e-08
-9.687e-07
2.77544e-08
2.58808e-07
-2.48151e-06
6.1691e-08
5.17453e-07
-3.57074e-06
8.4857e-08
8.15729e-07
-4.31196e-06
1.0084e-07
1.12893e-06
-4.77191e-06
1.11484e-07
1.44387e-06
-5.0296e-06
1.18144e-07
1.75391e-06
-5.1541e-06
1.21877e-07
2.05619e-06
-5.18571e-06
1.23531e-07
2.34889e-06
-5.14194e-06
1.23592e-07
2.63037e-06
-5.03364e-06
1.22489e-07
2.89908e-06
-4.86946e-06
1.20589e-07
3.15169e-06
-4.65471e-06
1.18184e-07
3.38185e-06
-4.39007e-06
1.15472e-07
3.58404e-06
-4.07633e-06
1.12597e-07
3.75519e-06
-3.7172e-06
1.09712e-07
3.89309e-06
-3.31757e-06
1.07002e-07
3.99637e-06
-2.88331e-06
1.04727e-07
4.06447e-06
-2.42077e-06
1.03189e-07
4.09753e-06
-1.93625e-06
1.02632e-07
4.09615e-06
-1.43525e-06
1.03266e-07
4.0611e-06
-9.22228e-07
1.05319e-07
3.99285e-06
-4.00339e-07
1.09038e-07
3.89115e-06
1.28599e-07
1.14628e-07
3.75429e-06
6.6443e-07
1.22197e-07
3.57864e-06
1.20999e-06
1.31662e-07
3.35765e-06
1.77353e-06
1.42574e-07
3.08197e-06
2.37163e-06
1.53784e-07
2.74121e-06
3.03096e-06
1.62896e-07
2.32922e-06
3.78396e-06
1.65697e-07
1.85338e-06
4.64683e-06
1.5655e-07
1.34448e-06
5.5656e-06
1.3129e-07
8.57023e-07
6.335e-06
9.3109e-08
4.3656e-07
6.60688e-06
5.59341e-08
1.26449e-07
5.88564e-06
3.07506e-08
3.06966e-06
1.32496e-08
6.87045e-08
-1.06339e-06
2.58103e-08
2.40815e-07
-2.71204e-06
5.82753e-08
4.80552e-07
-3.8914e-06
8.08463e-08
7.57377e-07
-4.68548e-06
9.66317e-08
1.04861e-06
-5.17038e-06
1.07162e-07
1.34213e-06
-5.43679e-06
1.136e-07
1.63207e-06
-5.56101e-06
1.16894e-07
1.91589e-06
-5.58754e-06
1.17926e-07
2.19199e-06
-5.53543e-06
1.17325e-07
2.45876e-06
-5.41605e-06
1.15571e-07
2.71348e-06
-5.23731e-06
1.13062e-07
2.95075e-06
-5.0021e-06
1.10047e-07
3.16521e-06
-4.71127e-06
1.06676e-07
3.35353e-06
-4.36784e-06
1.03124e-07
3.51305e-06
-3.97632e-06
9.95408e-08
3.64192e-06
-3.54262e-06
9.6118e-08
3.73907e-06
-3.07361e-06
9.30839e-08
3.80412e-06
-2.57657e-06
9.06885e-08
3.83718e-06
-2.05853e-06
8.91483e-08
3.83877e-06
-1.52559e-06
8.8669e-08
3.80947e-06
-9.82509e-07
8.94974e-08
3.74955e-06
-4.32421e-07
9.19122e-08
3.65847e-06
1.23412e-07
9.6178e-08
3.53456e-06
6.85735e-07
1.02502e-07
3.37406e-06
1.25943e-06
1.10959e-07
3.17061e-06
1.85555e-06
1.21336e-07
2.91513e-06
2.49417e-06
1.32831e-07
2.5975e-06
3.20497e-06
1.43526e-07
2.2114e-06
4.02015e-06
1.49795e-07
1.76324e-06
4.94843e-06
1.46465e-07
1.28169e-06
5.91799e-06
1.29065e-07
8.18097e-07
6.69983e-06
9.872e-08
4.1576e-07
6.94367e-06
6.5662e-08
1.20012e-07
6.14293e-06
3.88757e-08
3.1751e-06
1.55999e-08
6.23483e-08
-1.15118e-06
2.52397e-08
2.21533e-07
-2.92951e-06
5.81297e-08
4.45533e-07
-4.19683e-06
8.13635e-08
7.05841e-07
-5.04353e-06
9.76869e-08
9.80912e-07
-5.55403e-06
1.08501e-07
1.25898e-06
-5.82992e-06
1.14976e-07
1.53477e-06
-5.955e-06
1.18109e-07
1.80553e-06
-5.97718e-06
1.18804e-07
2.06971e-06
-5.91756e-06
1.17872e-07
2.32524e-06
-5.78748e-06
1.15839e-07
2.56798e-06
-5.59318e-06
1.13071e-07
2.79297e-06
-5.3369e-06
1.09773e-07
2.99662e-06
-5.0211e-06
1.06132e-07
3.17595e-06
-4.64952e-06
1.02293e-07
3.32865e-06
-4.22747e-06
9.8392e-08
3.45311e-06
-3.76173e-06
9.45927e-08
3.5484e-06
-3.26004e-06
9.10714e-08
3.61415e-06
-2.7304e-06
8.80204e-08
3.6504e-06
-2.18045e-06
8.56165e-08
3.65744e-06
-1.61674e-06
8.40405e-08
3.63558e-06
-1.04425e-06
8.35327e-08
3.58474e-06
-4.66038e-07
8.43766e-08
3.50416e-06
1.1702e-07
8.68796e-08
3.39169e-06
7.06781e-07
9.13375e-08
3.24352e-06
1.30953e-06
9.79727e-08
3.05337e-06
1.9388e-06
1.06801e-07
2.81247e-06
2.61762e-06
1.17352e-07
2.5111e-06
3.37807e-06
1.28167e-07
2.14319e-06
4.25177e-06
1.36189e-07
1.7146e-06
5.2402e-06
1.3671e-07
1.25214e-06
6.25524e-06
1.25103e-07
8.03918e-07
7.04707e-06
1.00919e-07
4.11121e-07
7.26506e-06
7.14779e-08
1.20103e-07
6.39023e-06
4.4098e-08
3.27903e-06
1.71564e-08
5.95378e-08
-1.23543e-06
2.45657e-08
2.11084e-07
-3.13838e-06
5.71766e-08
4.24398e-07
-4.49053e-06
8.02582e-08
6.72745e-07
-5.3884e-06
9.64221e-08
9.3562e-07
-5.92404e-06
1.07064e-07
1.20168e-06
-6.20942e-06
1.13374e-07
1.46604e-06
-6.3358e-06
1.16377e-07
1.72576e-06
-6.35389e-06
1.16931e-07
1.97905e-06
-6.28679e-06
1.15875e-07
2.2232e-06
-6.14545e-06
1.13762e-07
2.45423e-06
-5.93517e-06
1.10901e-07
2.66848e-06
-5.65877e-06
1.07566e-07
2.86275e-06
-5.31936e-06
1.03931e-07
3.03429e-06
-4.92122e-06
1.00105e-07
3.18098e-06
-4.47042e-06
9.62142e-08
3.30135e-06
-3.97455e-06
9.23954e-08
3.39454e-06
-3.44207e-06
8.87924e-08
3.46018e-06
-2.88165e-06
8.55605e-08
3.49821e-06
-2.30138e-06
8.28393e-08
3.50874e-06
-1.70811e-06
8.0775e-08
3.49177e-06
-1.10692e-06
7.95704e-08
3.44691e-06
-5.00731e-07
7.94779e-08
3.37297e-06
1.1008e-07
8.07906e-08
3.26775e-06
7.28074e-07
8.38275e-08
3.12732e-06
1.36098e-06
8.88897e-08
2.94555e-06
2.0243e-06
9.61534e-08
2.71414e-06
2.7435e-06
1.05421e-07
2.42402e-06
3.55242e-06
1.15649e-07
2.06972e-06
4.4816e-06
1.24324e-07
1.6571e-06
5.52543e-06
1.27239e-07
1.21169e-06
6.58073e-06
1.19782e-07
7.78805e-07
7.37945e-06
1.00395e-07
3.97771e-07
7.57199e-06
7.41244e-08
1.15896e-07
6.62555e-06
4.68906e-08
3.37793e-06
1.79244e-08
5.62597e-08
-1.31641e-06
2.46059e-08
2.01451e-07
-3.34159e-06
5.78655e-08
4.07171e-07
-4.77785e-06
8.14386e-08
6.47352e-07
-5.72657e-06
9.78794e-08
9.01889e-07
-6.28729e-06
1.08632e-07
1.15967e-06
-6.58223e-06
1.14967e-07
1.41579e-06
-6.70996e-06
1.17986e-07
1.66742e-06
-6.7242e-06
1.18614e-07
1.91219e-06
-6.64927e-06
1.17634e-07
2.14723e-06
-6.49615e-06
1.15593e-07
2.36922e-06
-6.27007e-06
1.12853e-07
2.57494e-06
-5.97424e-06
1.09678e-07
2.76143e-06
-5.61211e-06
1.06221e-07
2.92622e-06
-5.18861e-06
1.02566e-07
3.06749e-06
-4.71055e-06
9.88173e-08
3.18408e-06
-4.18626e-06
9.50859e-08
3.27535e-06
-3.62487e-06
9.14859e-08
3.34103e-06
-3.03551e-06
8.81367e-08
3.38104e-06
-2.42659e-06
8.51449e-08
3.39533e-06
-1.80508e-06
8.26256e-08
3.38361e-06
-1.17601e-06
8.07469e-08
3.3451e-06
-5.42017e-07
7.97298e-08
3.27825e-06
9.70031e-08
7.98484e-08
3.18026e-06
7.44555e-07
8.14256e-08
3.04698e-06
1.40936e-06
8.48088e-08
2.87226e-06
2.10863e-06
9.02852e-08
2.64809e-06
2.86968e-06
9.78681e-08
2.36603e-06
3.72748e-06
1.06866e-07
2.02132e-06
4.7109e-06
1.1526e-07
1.62006e-06
5.80718e-06
1.19348e-07
1.1869e-06
6.89905e-06
1.14661e-07
7.64842e-07
7.7025e-06
9.88673e-08
3.91553e-07
7.87003e-06
7.52339e-08
1.14571e-07
6.85434e-06
4.84818e-08
3.475e-06
1.83857e-08
5.63036e-08
-1.39726e-06
2.43662e-08
2.0026e-07
-3.54314e-06
5.74667e-08
4.02897e-07
-5.0613e-06
8.07144e-08
6.3816e-07
-6.05868e-06
9.67427e-08
8.86315e-07
-6.64266e-06
1.07121e-07
1.13683e-06
-6.94601e-06
1.13193e-07
1.38517e-06
-7.07447e-06
1.16094e-07
1.6287e-06
-7.08455e-06
1.16759e-07
1.86486e-06
-7.00141e-06
1.15923e-07
2.09085e-06
-6.8363e-06
1.14107e-07
2.30362e-06
-6.59457e-06
1.11666e-07
2.50016e-06
-6.27966e-06
1.08834e-07
2.67779e-06
-5.89554e-06
1.05747e-07
2.83443e-06
-5.44777e-06
1.02485e-07
2.96862e-06
-4.94392e-06
9.91389e-08
3.07954e-06
-4.39301e-06
9.58026e-08
3.16677e-06
-3.80471e-06
9.25664e-08
3.2302e-06
-3.1885e-06
8.95181e-08
3.26977e-06
-2.55294e-06
8.6731e-08
3.28533e-06
-1.90497e-06
8.42821e-08
3.27639e-06
-1.24942e-06
8.22902e-08
3.24185e-06
-5.88474e-07
8.09229e-08
3.17974e-06
7.86287e-08
8.0406e-08
3.08706e-06
7.56118e-07
8.10309e-08
2.9593e-06
1.45387e-06
8.31466e-08
2.79026e-06
2.19046e-06
8.71015e-08
2.57215e-06
2.99461e-06
9.30625e-08
2.29706e-06
3.90179e-06
1.00627e-07
1.961e-06
4.93857e-06
1.0822e-07
1.57051e-06
6.08482e-06
1.12643e-07
1.14985e-06
7.20981e-06
1.09683e-07
7.40172e-07
8.01547e-06
9.65329e-08
3.77648e-07
8.15741e-06
7.50766e-08
1.0983e-07
7.0734e-06
4.9005e-08
3.56721e-06
1.84671e-08
5.50303e-08
-1.4769e-06
2.44238e-08
1.96534e-07
-3.74249e-06
5.77468e-08
3.95652e-07
-5.34151e-06
8.0994e-08
6.2611e-07
-6.38613e-06
9.68897e-08
8.68361e-07
-6.99211e-06
1.07108e-07
1.11226e-06
-7.30306e-06
1.13062e-07
1.35351e-06
-7.43172e-06
1.15926e-07
1.58952e-06
-7.43728e-06
1.16656e-07
1.81776e-06
-7.34569e-06
1.1598e-07
2.03546e-06
-7.16845e-06
1.144e-07
2.2397e-06
-6.9111e-06
1.12247e-07
2.42772e-06
-6.57747e-06
1.0974e-07
2.5972e-06
-6.17206e-06
1.07002e-07
2.74645e-06
-5.70116e-06
1.04106e-07
2.87441e-06
-5.17304e-06
1.01131e-07
2.98055e-06
-4.59734e-06
9.81534e-08
3.06473e-06
-3.98416e-06
9.52421e-08
3.12694e-06
-3.3432e-06
9.24601e-08
3.16715e-06
-2.68304e-06
8.98575e-08
3.18508e-06
-2.01043e-06
8.74858e-08
3.17999e-06
-1.3298e-06
8.54288e-08
3.15043e-06
-6.42778e-07
8.38114e-08
3.09404e-06
5.21374e-08
8.28133e-08
3.00718e-06
7.60212e-07
8.26821e-08
2.88506e-06
1.49216e-06
8.37405e-08
2.72132e-06
2.26774e-06
8.63504e-08
2.50834e-06
3.1167e-06
9.07683e-08
2.2388e-06
4.07437e-06
9.6805e-08
1.90954e-06
5.1644e-06
1.03259e-07
1.5278e-06
6.35894e-06
1.07407e-07
1.11772e-06
7.51428e-06
1.05357e-07
7.18949e-07
8.31996e-06
9.40561e-08
3.66126e-07
8.43581e-06
7.43241e-08
1.06208e-07
7.28456e-06
4.89703e-08
3.65586e-06
1.83724e-08
5.63509e-08
-1.5576e-06
2.41783e-08
1.98803e-07
-3.94216e-06
5.70708e-08
3.97151e-07
-5.61971e-06
7.97293e-08
6.2469e-07
-6.70878e-06
9.50194e-08
8.62135e-07
-7.3344e-06
1.04755e-07
1.09996e-06
-7.65138e-06
1.10416e-07
1.33428e-06
-7.77928e-06
1.13186e-07
1.56264e-06
-7.7797e-06
1.13992e-07
1.78262e-06
-7.67924e-06
1.1352e-07
1.99153e-06
-7.48965e-06
1.12233e-07
2.18665e-06
-7.2167e-06
1.10439e-07
2.36545e-06
-6.86465e-06
1.08341e-07
2.52594e-06
-6.43864e-06
1.06058e-07
2.66676e-06
-5.94568e-06
1.03661e-07
2.78721e-06
-5.39474e-06
1.01218e-07
2.88708e-06
-4.79603e-06
9.87917e-08
2.96646e-06
-4.16e-06
9.64303e-08
3.02555e-06
-3.4965e-06
9.41716e-08
3.06442e-06
-2.81398e-06
9.20388e-08
3.08276e-06
-2.11887e-06
9.00528e-08
3.07972e-06
-1.41506e-06
8.82572e-08
3.05358e-06
-7.03433e-07
8.67306e-08
3.00154e-06
1.85059e-08
8.56013e-08
2.91971e-06
7.56896e-07
8.50662e-08
2.80277e-06
1.52359e-06
8.54062e-08
2.64413e-06
2.3393e-06
8.69699e-08
2.43624e-06
3.2344e-06
9.00607e-08
2.17226e-06
4.24354e-06
9.46434e-08
1.84987e-06
5.38676e-06
9.98233e-08
1.47713e-06
6.62811e-06
1.03311e-07
1.07834e-06
7.81121e-06
1.01583e-07
6.91822e-07
8.61471e-06
9.15136e-08
3.5069e-07
8.70368e-06
7.31243e-08
1.00998e-07
7.48595e-06
4.84806e-08
3.73954e-06
1.81064e-08
5.59219e-08
-1.63775e-06
2.40612e-08
1.97168e-07
-4.14025e-06
5.66878e-08
3.93015e-07
-5.8946e-06
7.89291e-08
6.16377e-07
-7.026e-06
9.37736e-08
8.48262e-07
-7.66949e-06
1.03135e-07
1.07969e-06
-7.99142e-06
1.08546e-07
1.30706e-06
-8.11793e-06
1.11208e-07
1.52803e-06
-8.11279e-06
1.1204e-07
1.74021e-06
-8.00319e-06
1.11707e-07
1.941e-06
-7.80113e-06
1.10645e-07
2.12782e-06
-7.5127e-06
1.09141e-07
2.29839e-06
-7.14265e-06
1.07385e-07
2.45102e-06
-6.69679e-06
1.05489e-07
2.58466e-06
-6.18287e-06
1.03517e-07
2.69892e-06
-5.61054e-06
1.01529e-07
2.79382e-06
-4.99052e-06
9.95738e-08
2.86966e-06
-4.33355e-06
9.76862e-08
2.92677e-06
-3.64952e-06
9.58879e-08
2.96525e-06
-2.94667e-06
9.41867e-08
2.98477e-06
-2.231e-06
9.2584e-08
2.98431e-06
-1.50574e-06
9.10953e-08
2.96191e-06
-7.70848e-07
8.97606e-08
2.91448e-06
-2.27748e-08
8.86606e-08
2.83758e-06
7.45788e-07
8.79358e-08
2.72556e-06
1.54771e-06
8.78107e-08
2.57158e-06
2.40457e-06
8.85925e-08
2.36818e-06
3.34707e-06
9.05884e-08
2.10905e-06
4.40863e-06
9.3858e-08
1.79275e-06
5.60509e-06
9.77446e-08
1.42827e-06
6.89197e-06
1.00342e-07
1.04019e-06
8.10048e-06
9.85103e-08
6.65622e-07
8.89981e-06
8.91817e-08
3.36065e-07
8.96128e-06
7.1795e-08
9.62656e-08
7.67811e-06
4.77978e-08
3.81878e-06
1.77862e-08
5.70332e-08
-1.71868e-06
2.37343e-08
1.98854e-07
-4.33789e-06
5.56853e-08
3.93405e-07
-6.16643e-06
7.71615e-08
6.1331e-07
-7.3373e-06
9.1293e-08
8.40007e-07
-7.99638e-06
1.00111e-07
1.06518e-06
-8.32186e-06
1.05197e-07
1.28561e-06
-8.44616e-06
1.07737e-07
1.49911e-06
-8.43496e-06
1.08614e-07
1.70333e-06
-8.31592e-06
1.08448e-07
1.8958e-06
-8.1013e-06
1.07641e-07
2.0741e-06
-7.79751e-06
1.06462e-07
2.23619e-06
-7.40987e-06
1.05089e-07
2.38064e-06
-6.9449e-06
1.03631e-07
2.5067e-06
-6.4111e-06
1.02148e-07
2.61422e-06
-5.81878e-06
1.00691e-07
2.70347e-06
-5.17909e-06
9.92974e-08
2.77495e-06
-4.50304e-06
9.79852e-08
2.82912e-06
-3.80047e-06
9.67591e-08
2.86618e-06
-3.07937e-06
9.56086e-08
2.88582e-06
-2.34519e-06
9.45158e-08
2.88695e-06
-1.60037e-06
9.347e-08
2.86745e-06
-8.43867e-07
9.24785e-08
2.82387e-06
-7.08421e-08
9.15803e-08
2.75145e-06
7.27269e-07
9.08647e-08
2.6441e-06
1.56447e-06
9.04986e-08
2.49471e-06
2.46311e-06
9.07382e-08
2.29585e-06
3.45391e-06
9.18692e-08
2.04169e-06
4.5686e-06
9.40024e-08
1.73168e-06
5.81821e-06
9.66585e-08
1.37577e-06
7.14933e-06
9.8259e-08
9.98899e-07
8.38097e-06
9.60398e-08
6.37e-07
9.17431e-06
8.70843e-08
3.19954e-07
9.20771e-06
7.04235e-08
9.09712e-08
7.86022e-06
4.70037e-08
3.89305e-06
1.74406e-08
5.68767e-08
-1.79917e-06
2.34628e-08
1.97731e-07
-4.53366e-06
5.47851e-08
3.89831e-07
-6.4342e-06
7.55497e-08
6.05519e-07
-7.64211e-06
8.9018e-08
8.26648e-07
-8.31491e-06
9.7318e-08
1.0455e-06
-8.64284e-06
1.02067e-07
1.25915e-06
-8.76432e-06
1.04447e-07
1.4655e-06
-8.74667e-06
1.05315e-07
1.66227e-06
-8.61801e-06
1.05255e-07
1.8471e-06
-8.39081e-06
1.04641e-07
2.01772e-06
-8.0719e-06
1.03723e-07
2.17231e-06
-7.66717e-06
1.02671e-07
2.30969e-06
-7.1839e-06
1.01585e-07
2.42932e-06
-6.63128e-06
1.00523e-07
2.53125e-06
-6.02025e-06
9.9528e-08
2.6159e-06
-5.36238e-06
9.86269e-08
2.68389e-06
-4.66887e-06
9.783e-08
2.73578e-06
-3.9495e-06
9.71309e-08
2.77182e-06
-3.21193e-06
9.6508e-08
2.7917e-06
-2.46102e-06
9.59297e-08
2.79429e-06
-1.69836e-06
9.53654e-08
2.77732e-06
-9.21735e-07
9.47945e-08
2.73715e-06
-1.24944e-07
9.42172e-08
2.66866e-06
7.0202e-07
9.36716e-08
2.56544e-06
1.57434e-06
9.32628e-08
2.42014e-06
2.51511e-06
9.31842e-08
2.2254e-06
3.55482e-06
9.36783e-08
1.97589e-06
4.72305e-06
9.48713e-08
1.6719e-06
6.02553e-06
9.64111e-08
1.32437e-06
7.39956e-06
9.69931e-08
9.58573e-07
8.6522e-06
9.42097e-08
6.09235e-07
9.43795e-06
8.53531e-08
3.04576e-07
9.44297e-06
6.91846e-08
8.60632e-08
8.03259e-06
4.62508e-08
3.96272e-06
1.71369e-08
5.74614e-08
-1.87986e-06
2.30534e-08
1.97974e-07
-4.7278e-06
5.34856e-08
3.87877e-07
-6.69754e-06
7.3324e-08
5.99408e-07
-7.93971e-06
8.59734e-08
8.14947e-07
-8.6242e-06
9.36678e-08
1.02741e-06
-8.95343e-06
9.8051e-08
1.23421e-06
-9.07146e-06
1.00277e-07
1.43335e-06
-9.04703e-06
1.01154e-07
1.62266e-06
-8.90859e-06
1.0122e-07
1.79988e-06
-8.66889e-06
1.0082e-07
1.96291e-06
-8.33516e-06
1.00186e-07
2.11014e-06
-7.91392e-06
9.94779e-08
2.24057e-06
-7.41315e-06
9.87918e-08
2.35387e-06
-6.84278e-06
9.81792e-08
2.45023e-06
-6.2143e-06
9.76737e-08
2.53021e-06
-5.53968e-06
9.72928e-08
2.59454e-06
-4.83026e-06
9.70362e-08
2.64388e-06
-4.09573e-06
9.68872e-08
2.67852e-06
-3.3434e-06
9.68146e-08
2.6982e-06
-2.5775e-06
9.67765e-08
2.70176e-06
-1.79867e-06
9.67284e-08
2.68683e-06
-1.00347e-06
9.66296e-08
2.64957e-06
-1.84192e-07
9.64502e-08
2.5846e-06
6.70737e-07
9.61843e-08
2.4852e-06
1.57779e-06
9.58783e-08
2.34382e-06
2.56071e-06
9.56592e-08
2.15318e-06
3.64959e-06
9.57142e-08
1.9084e-06
4.87147e-06
9.61583e-08
1.61065e-06
6.22628e-06
9.67245e-08
1.27176e-06
7.64179e-06
9.63317e-08
9.17335e-07
8.91335e-06
9.2898e-08
5.80835e-07
9.69014e-06
8.39538e-08
2.88855e-07
9.66663e-06
6.80958e-08
8.10337e-08
8.19496e-06
4.55612e-08
4.02761e-06
1.68763e-08
5.73286e-08
-1.95999e-06
2.26361e-08
1.96785e-07
-4.91952e-06
5.21374e-08
3.84084e-07
-6.95596e-06
7.10214e-08
5.91306e-07
-8.22986e-06
8.28341e-08
8.01319e-07
-8.9242e-06
8.99044e-08
1.00762e-06
-9.2537e-06
9.38943e-08
1.2079e-06
-9.36773e-06
9.59282e-08
1.40027e-06
-9.33623e-06
9.67699e-08
1.58263e-06
-9.18792e-06
9.69177e-08
1.75285e-06
-8.93583e-06
9.66883e-08
1.90899e-06
-8.58763e-06
9.62962e-08
2.04962e-06
-8.15046e-06
9.58918e-08
2.17391e-06
-7.63303e-06
9.5566e-08
2.28166e-06
-7.04592e-06
9.53638e-08
2.37316e-06
-6.40113e-06
9.53106e-08
2.44907e-06
-5.71102e-06
9.54156e-08
2.51016e-06
-4.98703e-06
9.56703e-08
2.55715e-06
-4.23879e-06
9.60506e-08
2.59041e-06
-3.47319e-06
9.65187e-08
2.60968e-06
-2.69381e-06
9.70252e-08
2.61381e-06
-1.90033e-06
9.75154e-08
2.60036e-06
-1.08799e-06
9.79321e-08
2.56541e-06
-2.47497e-07
9.82202e-08
2.50334e-06
6.34414e-07
9.83341e-08
2.4072e-06
1.57558e-06
9.82633e-08
2.26932e-06
2.60041e-06
9.80662e-08
2.08252e-06
3.73837e-06
9.78652e-08
1.84237e-06
5.01366e-06
9.77445e-08
1.55085e-06
6.42003e-06
9.7489e-08
1.22061e-06
7.87549e-06
9.61997e-08
8.77484e-07
9.16401e-06
9.20882e-08
5.53624e-07
9.93071e-06
8.29327e-08
2.74026e-07
9.87876e-06
6.72394e-08
7.64101e-08
8.34768e-06
4.50096e-08
4.08807e-06
1.66883e-08
5.75556e-08
-2.03981e-06
2.20972e-08
1.96126e-07
-5.10869e-06
5.04598e-08
3.80742e-07
-7.20892e-06
6.82294e-08
5.83502e-07
-8.51182e-06
7.91008e-08
7.87852e-07
-9.21413e-06
8.55007e-08
9.87893e-07
-9.5429e-06
8.90929e-08
1.18158e-06
-9.65243e-06
9.09484e-08
1.36715e-06
-9.61363e-06
9.17712e-08
1.5426e-06
-9.45544e-06
9.20145e-08
1.70591e-06
-9.19116e-06
9.19668e-08
1.85533e-06
-8.82891e-06
9.18263e-08
1.98958e-06
-8.37648e-06
9.17342e-08
2.10799e-06
-7.84324e-06
9.17754e-08
2.21044e-06
-7.24038e-06
9.19885e-08
2.29733e-06
-6.58042e-06
9.23892e-08
2.36934e-06
-5.87601e-06
9.29778e-08
2.4273e-06
-5.13875e-06
9.37375e-08
2.47197e-06
-4.3781e-06
9.46379e-08
2.50374e-06
-3.60061e-06
9.56363e-08
2.5224e-06
-2.80917e-06
9.66792e-08
2.52678e-06
-2.00243e-06
9.77063e-08
2.51444e-06
-1.17433e-06
9.86508e-08
2.48136e-06
-3.1389e-07
9.94397e-08
2.42178e-06
5.93936e-07
9.99952e-08
2.32859e-06
1.56843e-06
1.00256e-07
2.19404e-06
2.63463e-06
1.00213e-07
2.01108e-06
3.82126e-06
9.99183e-08
1.77573e-06
5.14938e-06
9.94098e-08
1.49072e-06
6.60627e-06
9.84959e-08
1.16942e-06
8.10002e-06
9.64217e-08
8.37767e-07
9.40361e-06
9.16572e-08
5.26573e-07
1.01593e-05
8.22237e-08
2.59308e-07
1.00792e-05
6.6588e-08
7.18055e-08
8.49071e-06
4.45777e-08
4.14406e-06
1.65533e-08
5.74633e-08
-2.11893e-06
2.14932e-08
1.94934e-07
-5.2949e-06
4.86051e-08
3.76904e-07
-7.45618e-06
6.51811e-08