/*--------------------------------*- C++ -*----------------------------------*\
| =========                 |                                                 |
| \\      /  F ield         | OpenFOAM: The Open Source CFD Toolbox           |
|  \\    /   O peration     | Version:  v2006                                 |
|   \\  /    A nd           | Website:  www.openfoam.com                      |
|    \\/     M anipulation  |                                                 |
\*---------------------------------------------------------------------------*/
FoamFile
{
    version     2.0;
    format      ascii;
    class       volScalarField;
    location    "10";
    object      nut;
}
// * * * * * * * * * * * * * * * * * * * * * * * * * * * * * * * * * * * * * //

dimensions      [0 2 -1 0 0 0 0];


internalField   nonuniform List<scalar> 
78750
(
4.34984e-06
7.44199e-06
1.64548e-05
1.24174e-05
1.22935e-05
1.26934e-05
1.24632e-05
1.25725e-05
1.26898e-05
1.28205e-05
1.29663e-05
1.27202e-05
1.23977e-05
1.21065e-05
1.18428e-05
1.16028e-05
1.13821e-05
1.1176e-05
1.09796e-05
1.07877e-05
1.05943e-05
1.03961e-05
1.01735e-05
9.91857e-06
9.61945e-06
9.26097e-06
8.8238e-06
8.28275e-06
7.60702e-06
6.75702e-06
5.69887e-06
3.9768e-06
2.32608e-06
1.12598e-06
2.31485e-08
1.3822e-07
8.14975e-06
2.06546e-05
2.9452e-05
2.91727e-05
3.08882e-05
3.42625e-05
3.72046e-05
3.95715e-05
4.1235e-05
4.20043e-05
4.23752e-05
4.27022e-05
4.29801e-05
4.31979e-05
4.33886e-05
4.35441e-05
4.36729e-05
4.38762e-05
4.42591e-05
4.4748e-05
4.50309e-05
4.4956e-05
4.45817e-05
4.37893e-05
4.23048e-05
3.98459e-05
3.61785e-05
3.12689e-05
2.54444e-05
1.94605e-05
1.43458e-05
1.07317e-05
5.35227e-06
7.08937e-08
2.16538e-07
8.27187e-06
1.23527e-05
1.29671e-05
1.35555e-05
1.46828e-05
1.61191e-05
1.79977e-05
2.10356e-05
2.74277e-05
3.69877e-05
3.65051e-05
3.61787e-05
3.60506e-05
3.61269e-05
3.63959e-05
3.68397e-05
3.74367e-05
3.81636e-05
3.89966e-05
3.98954e-05
4.08181e-05
4.1724e-05
4.25641e-05
3.97065e-05
3.62552e-05
3.33078e-05
3.0048e-05
2.63789e-05
2.25417e-05
1.89154e-05
1.59357e-05
1.29688e-05
4.51622e-06
8.10514e-08
2.05366e-07
1.24029e-05
1.59993e-05
1.57012e-05
1.66957e-05
1.86707e-05
2.12845e-05
2.48689e-05
3.21634e-05
4.44161e-05
4.29584e-05
4.14188e-05
4.00014e-05
3.88518e-05
3.80332e-05
3.75494e-05
3.73903e-05
3.75284e-05
3.79248e-05
3.85354e-05
3.93123e-05
4.02086e-05
4.11665e-05
3.78876e-05
3.51154e-05
3.28244e-05
3.02468e-05
2.73251e-05
2.42419e-05
2.12885e-05
1.89168e-05
1.75911e-05
1.63017e-05
5.19738e-06
9.13416e-08
2.09658e-07
8.30441e-06
1.89634e-05
1.76264e-05
1.79142e-05
1.92449e-05
2.09799e-05
2.23771e-05
2.28512e-05
2.26658e-05
2.2758e-05
2.50924e-05
3.00008e-05
2.87769e-05
2.82153e-05
2.82468e-05
2.87546e-05
2.96221e-05
3.07546e-05
3.20774e-05
3.35168e-05
3.49958e-05
3.64629e-05
3.32194e-05
3.03959e-05
2.8935e-05
2.73881e-05
2.54046e-05
2.33104e-05
2.14581e-05
2.01539e-05
1.93598e-05
1.55652e-05
4.26564e-06
8.59981e-08
1.77976e-07
7.35284e-06
2.13724e-05
1.68495e-05
1.50341e-05
1.4805e-05
1.52051e-05
1.56288e-05
1.56794e-05
1.51677e-05
1.43699e-05
1.40257e-05
1.51663e-05
1.85833e-05
1.89225e-05
1.84807e-05
1.87113e-05
1.95257e-05
1.92519e-05
1.71063e-05
1.63856e-05
1.6648e-05
1.73062e-05
1.80454e-05
1.86416e-05
1.90104e-05
1.91026e-05
1.89467e-05
1.87479e-05
1.88279e-05
1.94588e-05
2.04226e-05
1.73798e-05
4.48029e-06
7.46654e-08
1.59093e-07
6.02796e-06
2.2224e-05
1.86352e-05
1.58909e-05
1.48277e-05
1.43643e-05
1.3813e-05
1.28954e-05
1.12869e-05
8.68722e-06
5.70422e-06
3.3929e-06
1.99411e-06
1.32224e-06
1.35985e-06
2.05898e-06
2.77675e-06
3.44301e-06
4.32905e-06
5.64448e-06
7.53909e-06
1.00351e-05
1.26867e-05
1.47946e-05
1.62128e-05
1.72138e-05
1.79501e-05
1.84267e-05
1.88531e-05
1.95957e-05
2.04132e-05
1.68028e-05
4.43824e-06
6.66887e-08
1.43372e-07
5.38844e-06
2.25993e-05
1.69511e-05
1.22236e-05
9.99577e-06
8.77299e-06
7.04633e-06
3.88324e-06
1.18668e-06
2.81872e-07
5.47456e-07
4.75055e-07
5.40573e-07
5.72496e-07
1.00797e-06
1.39818e-06
1.3318e-06
9.07162e-07
3.66677e-07
4.32027e-08
8.52404e-09
1.47365e-07
1.15981e-06
3.03359e-06
5.67218e-06
8.08096e-06
9.37434e-06
1.06173e-05
1.29316e-05
1.66769e-05
2.05356e-05
1.76714e-05
4.30133e-06
5.73503e-08
1.49875e-07
4.98917e-06
1.99129e-05
1.76403e-05
1.31732e-05
9.12768e-06
4.7197e-06
1.4682e-06
3.58943e-07
2.54409e-07
4.45619e-07
1.08272e-06
3.50362e-06
6.94183e-06
1.07243e-05
1.36546e-05
1.47679e-05
1.40083e-05
1.19221e-05
9.25725e-06
6.56168e-06
4.11549e-06
2.05932e-06
5.86299e-07
4.09334e-07
1.03328e-07
1.26583e-06
4.14847e-06
1.02501e-05
1.70881e-05
1.77792e-05
1.71952e-05
1.62508e-05
5.24617e-06
6.15775e-08
1.61532e-07
4.47298e-06
1.75517e-05
1.2505e-05
6.98541e-06
3.14902e-06
7.67789e-07
4.17943e-07
4.424e-08
5.68042e-07
3.21687e-06
8.2904e-06
1.50483e-05
2.11813e-05
2.54163e-05
2.78519e-05
2.87734e-05
2.8426e-05
2.70458e-05
2.47374e-05
2.1432e-05
1.7175e-05
1.25095e-05
8.18751e-06
4.61408e-06
1.91605e-06
2.43552e-07
1.19416e-07
2.3689e-08
1.27069e-06
4.0666e-06
8.11879e-06
1.07099e-05
3.97472e-06
8.13385e-08
1.6995e-07
3.89521e-06
1.47722e-05
1.00937e-05
4.10391e-06
1.09771e-06
2.15081e-07
3.2837e-07
3.99292e-07
2.80528e-06
7.04895e-06
1.18652e-05
1.60256e-05
1.93269e-05
2.18376e-05
2.35168e-05
2.4309e-05
2.42447e-05
2.34525e-05
2.212e-05
2.04241e-05
1.845e-05
1.61101e-05
1.31172e-05
9.24826e-06
5.07758e-06
1.84464e-06
1.56477e-07
7.91569e-08
3.37792e-08
1.74941e-06
5.80253e-06
9.45213e-06
3.18478e-06
9.8511e-08
1.72866e-07
3.47883e-06
1.24926e-05
5.0511e-06
1.3738e-06
5.61947e-08
1.68318e-07
4.77377e-07
3.0758e-06
7.76694e-06
1.32735e-05
1.82394e-05
2.2334e-05
2.55746e-05
2.79569e-05
2.95081e-05
3.03037e-05
3.04113e-05
2.98523e-05
2.86013e-05
2.66098e-05
2.3847e-05
2.0321e-05
1.60779e-05
1.12761e-05
6.4871e-06
2.70712e-06
5.41954e-07
1.38964e-07
2.94111e-07
5.86501e-07
3.20951e-06
8.06185e-06
2.45168e-06
9.66935e-08
1.828e-07
3.16173e-06
1.02412e-05
3.07301e-06
5.60655e-07
2.52183e-07
2.62341e-07
2.31165e-06
6.16477e-06
1.07933e-05
1.52316e-05
1.92359e-05
2.28031e-05
2.59125e-05
2.85215e-05
3.05519e-05
3.1916e-05
3.25368e-05
3.23684e-05
3.14049e-05
2.96597e-05
2.7119e-05
2.3688e-05
1.92227e-05
1.379e-05
8.15167e-06
3.656e-06
1.04949e-06
1.66458e-07
2.15349e-07
4.68978e-07
2.95543e-06
6.97852e-06
2.09342e-06
8.26589e-08
2.09409e-07
3.01044e-06
6.60973e-06
1.24053e-06
3.4079e-07
2.48503e-07
1.8832e-06
4.9982e-06
8.78708e-06
1.27327e-05
1.66856e-05
2.0441e-05
2.37756e-05
2.65808e-05
2.88255e-05
3.04773e-05
3.15147e-05
3.19084e-05
3.16183e-05
3.06102e-05
2.88814e-05
2.64892e-05
2.35175e-05
2.00038e-05
1.58564e-05
1.10318e-05
6.15604e-06
2.45669e-06
4.97978e-07
6.43431e-08
7.71801e-09
1.4524e-06
5.72346e-06
1.818e-06
6.78161e-08
2.52407e-07
2.80237e-06
4.11883e-06
6.29484e-07
1.14088e-07
8.96964e-07
2.75536e-06
5.29507e-06
8.3461e-06
1.20384e-05
1.6212e-05
2.0451e-05
2.43689e-05
2.77389e-05
3.04167e-05
3.22898e-05
3.32767e-05
3.3345e-05
3.25297e-05
3.0939e-05
2.87335e-05
2.60986e-05
2.32129e-05
2.0204e-05
1.70579e-05
1.35794e-05
9.53223e-06
5.30877e-06
2.06416e-06
3.96137e-07
2.46129e-07
6.77388e-07
4.26231e-06
1.70899e-06
6.07404e-08
2.63895e-07
2.50342e-06
5.61357e-06
7.63786e-07
1.7524e-07
6.81704e-07
1.86458e-06
3.59495e-06
6.1235e-06
9.92837e-06
1.50043e-05
2.04926e-05
2.52866e-05
2.88189e-05
3.10329e-05
3.2066e-05
3.20902e-05
3.12844e-05
2.98292e-05
2.79006e-05
2.56567e-05
2.32331e-05
2.07449e-05
1.82903e-05
1.594e-05
1.36967e-05
1.13761e-05
8.58609e-06
5.24397e-06
2.31496e-06
6.91779e-07
3.11083e-07
1.63905e-06
1.61587e-06
5.90227e-08
1.92103e-07
1.99217e-06
7.14193e-06
2.42534e-06
5.78867e-07
3.34887e-07
5.20187e-07
1.07809e-06
2.54572e-06
5.61365e-06
1.09663e-05
1.8386e-05
2.59236e-05
3.13588e-05
3.41033e-05
3.47127e-05
3.38765e-05
3.21414e-05
2.98941e-05
2.73867e-05
2.47742e-05
2.21446e-05
1.95617e-05
1.70863e-05
1.47727e-05
1.2668e-05
1.07858e-05
9.00205e-06
6.93395e-06
4.41262e-06
2.19017e-06
1.07733e-06
1.42475e-06
2.00116e-06
6.82779e-08
1.1111e-07
1.72633e-06
4.81645e-06
5.92352e-06
2.04232e-06
8.67873e-07
2.99678e-07
4.20246e-07
1.61744e-06
4.36855e-06
9.22474e-06
1.59943e-05
2.31707e-05
2.90328e-05
3.27803e-05
3.43424e-05
3.40907e-05
3.25746e-05
3.02833e-05
2.75559e-05
2.45979e-05
2.1568e-05
1.85971e-05
1.58137e-05
1.33329e-05
1.12415e-05
9.57467e-06
8.25125e-06
7.0066e-06
5.41462e-06
3.47176e-06
2.074e-06
2.07197e-06
3.09939e-06
8.97202e-08
8.2612e-08
1.77318e-06
4.73478e-06
6.98288e-06
1.82068e-06
2.55389e-07
3.3102e-08
8.92504e-07
3.17184e-06
7.27564e-06
1.26367e-05
1.77012e-05
2.19027e-05
2.56745e-05
2.91801e-05
3.19754e-05
3.34827e-05
3.34768e-05
3.20772e-05
2.95401e-05
2.61437e-05
2.22376e-05
1.82395e-05
1.45408e-05
1.14018e-05
8.95526e-06
7.21256e-06
6.0079e-06
5.00748e-06
3.91569e-06
2.77749e-06
2.0887e-06
3.16373e-06
2.34879e-06
1.04279e-07
8.80161e-08
1.72677e-06
5.0263e-06
2.13606e-06
3.65356e-07
4.07924e-07
1.63969e-06
4.4492e-06
8.68783e-06
1.26017e-05
1.52022e-05
1.73916e-05
1.99593e-05
2.30224e-05
2.62684e-05
2.92288e-05
3.14351e-05
3.24795e-05
3.2022e-05
2.98329e-05
2.59492e-05
2.09804e-05
1.59303e-05
1.15513e-05
8.13283e-06
5.72634e-06
4.26793e-06
3.53569e-06
3.16233e-06
2.80773e-06
2.47065e-06
2.83224e-06
9.04578e-06
1.6836e-06
8.68495e-08
1.04918e-07
1.73437e-06
4.28164e-06
1.17453e-06
1.27156e-06
2.77518e-06
5.79529e-06
9.22633e-06
1.14212e-05
1.27981e-05
1.43306e-05
1.64281e-05
1.90737e-05
2.20933e-05
2.52733e-05
2.8317e-05
3.0811e-05
3.22366e-05
3.19677e-05
2.94553e-05
2.47775e-05
1.91058e-05
1.37907e-05
9.41543e-06
6.07515e-06
3.78145e-06
2.49996e-06
2.10269e-06
2.3172e-06
2.64971e-06
3.06381e-06
4.8908e-06
5.85003e-06
1.39303e-06
6.18861e-08
1.22552e-07
2.75755e-06
3.92725e-06
2.53058e-06
3.7102e-06
6.42472e-06
9.46302e-06
1.1283e-05
1.21486e-05
1.29404e-05
1.41914e-05
1.6156e-05
1.88556e-05
2.20811e-05
2.54804e-05
2.86386e-05
3.1101e-05
3.23574e-05
3.18008e-05
2.89933e-05
2.43021e-05
1.9014e-05
1.41567e-05
9.9793e-06
6.50249e-06
3.85105e-06
2.12609e-06
1.30998e-06
1.35282e-06
2.09567e-06
3.54159e-06
7.04687e-06
5.16917e-06
1.41658e-06
5.02841e-08
1.37288e-07
4.35472e-06
6.00518e-06
4.55383e-06
6.20743e-06
8.9565e-06
1.09662e-05
1.15722e-05
1.15267e-05
1.16799e-05
1.25643e-05
1.4451e-05
1.73698e-05
2.10769e-05
2.50757e-05
2.87256e-05
3.13961e-05
3.25782e-05
3.18141e-05
2.88987e-05
2.4385e-05
1.95337e-05
1.52409e-05
1.15603e-05
8.24707e-06
5.296e-06
2.96346e-06
1.42438e-06
6.88963e-07
7.13441e-07
1.6417e-06
4.61495e-06
4.07854e-06
1.27725e-06
4.80713e-08
1.41056e-07
4.71945e-06
1.00075e-05
6.78842e-06
8.12017e-06
1.05642e-05
1.20299e-05
1.18566e-05
1.09525e-05
1.03739e-05
1.07406e-05
1.23341e-05
1.52269e-05
1.92623e-05
2.39323e-05
2.83326e-05
3.15143e-05
3.29278e-05
3.23307e-05
2.97046e-05
2.55164e-05
2.08403e-05
1.66978e-05
1.3347e-05
1.04829e-05
7.74377e-06
5.11414e-06
2.91834e-06
1.41359e-06
6.32746e-07
5.15922e-07
1.41772e-06
3.03415e-06
1.02903e-06
4.8292e-08
1.34316e-07
4.40294e-06
1.69308e-05
9.76002e-06
9.74771e-06
1.13515e-05
1.22177e-05
1.1474e-05
9.96477e-06
8.89332e-06
8.89999e-06
1.02045e-05
1.2849e-05
1.67754e-05
2.17119e-05
2.68352e-05
3.0872e-05
3.29032e-05
3.26891e-05
3.03666e-05
2.64231e-05
2.18164e-05
1.75972e-05
1.4248e-05
1.16562e-05
9.43173e-06
7.2221e-06
4.98106e-06
3.02929e-06
1.68879e-06
1.03344e-06
1.16816e-06
3.33086e-06
1.07486e-06
4.90992e-08
1.25608e-07
4.00483e-06
2.04255e-05
1.35347e-05
1.15262e-05
1.17852e-05
1.17777e-05
1.05675e-05
8.82124e-06
7.6754e-06
7.69419e-06
8.99804e-06
1.15383e-05
1.52285e-05
1.994e-05
2.51924e-05
2.98519e-05
3.26903e-05
3.32036e-05
3.14586e-05
2.78494e-05
2.32282e-05
1.87455e-05
1.514e-05
1.2456e-05
1.03817e-05
8.55058e-06
6.68046e-06
4.7853e-06
3.1863e-06
2.23036e-06
2.14088e-06
4.61828e-06
1.70623e-06
4.91632e-08
1.21588e-07
3.62369e-06
1.8377e-05
1.72391e-05
1.34226e-05
1.21889e-05
1.10889e-05
9.25194e-06
7.36505e-06
6.39895e-06
6.70646e-06
8.23327e-06
1.08217e-05
1.43373e-05
1.87252e-05
2.37745e-05
2.86551e-05
3.20645e-05
3.31803e-05
3.187e-05
2.8443e-05
2.37435e-05
1.90523e-05
1.52839e-05
1.25612e-05
1.05844e-05
8.99009e-06
7.47942e-06
5.91348e-06
4.43239e-06
3.42267e-06
3.31431e-06
6.04753e-06
2.75072e-06
4.88299e-08
1.24517e-07
3.34812e-06
1.60608e-05
1.94682e-05
1.45172e-05
1.18751e-05
9.76674e-06
7.62657e-06
6.05368e-06
5.62432e-06
6.43082e-06
8.27901e-06
1.09341e-05
1.42662e-05
1.83228e-05
2.30763e-05
2.79207e-05
3.16326e-05
3.32301e-05
3.23633e-05
2.91535e-05
2.43513e-05
1.93767e-05
1.53774e-05
1.25543e-05
1.05969e-05
9.12873e-06
7.83518e-06
6.53399e-06
5.27567e-06
4.38187e-06
4.39546e-06
7.56085e-06
3.85734e-06
4.89993e-08
1.32503e-07
3.12119e-06
1.41742e-05
2.03097e-05
1.47087e-05
1.09765e-05
8.29637e-06
6.28038e-06
5.20703e-06
5.28698e-06
6.4411e-06
8.4032e-06
1.09499e-05
1.40469e-05
1.7856e-05
2.24462e-05
2.72918e-05
3.11707e-05
3.29856e-05
3.22395e-05
2.89554e-05
2.39337e-05
1.87902e-05
1.47613e-05
1.19967e-05
1.01434e-05
8.82585e-06
7.74395e-06
6.70644e-06
5.71854e-06
5.07707e-06
5.39358e-06
9.50271e-06
4.44719e-06
5.03019e-08
1.42193e-07
2.92059e-06
1.26608e-05
2.00691e-05
1.38487e-05
9.59427e-06
6.94518e-06
5.3493e-06
4.77298e-06
5.2395e-06
6.60337e-06
8.60632e-06
1.10816e-05
1.40698e-05
1.77904e-05
2.23465e-05
2.72115e-05
3.1139e-05
3.29908e-05
3.22229e-05
2.88076e-05
2.35824e-05
1.82995e-05
1.42474e-05
1.15215e-05
9.73308e-06
8.50768e-06
7.56061e-06
6.70976e-06
5.94665e-06
5.54631e-06
6.21267e-06
1.14261e-05
4.65986e-06
5.28896e-08
1.49237e-07
2.71249e-06
1.11617e-05
1.9676e-05
1.29117e-05
8.48778e-06
6.06699e-06
4.83148e-06
4.56048e-06
5.19633e-06
6.59349e-06
8.52514e-06
1.08744e-05
1.37338e-05
1.7379e-05
2.19709e-05
2.69724e-05
3.10089e-05
3.28143e-05
3.18277e-05
2.80915e-05
2.26263e-05
1.73251e-05
1.33905e-05
1.07978e-05
9.12614e-06
8.0163e-06
7.21167e-06
6.55357e-06
6.03924e-06
5.90988e-06
7.00359e-06
1.35901e-05
4.60107e-06
5.7145e-08
1.51261e-07
2.51307e-06
9.76751e-06
1.92375e-05
1.20408e-05
7.61954e-06
5.45382e-06
4.47733e-06
4.37588e-06
5.08035e-06
6.47799e-06
8.37769e-06
1.06906e-05
1.35347e-05
1.72265e-05
2.19652e-05
2.71479e-05
3.12267e-05
3.28475e-05
3.15253e-05
2.74419e-05
2.17942e-05
1.6526e-05
1.27167e-05
1.0244e-05
8.66848e-06
7.64168e-06
6.92609e-06
6.38784e-06
6.04967e-06
6.13597e-06
7.62177e-06
1.53833e-05
4.46153e-06
6.31768e-08
1.47926e-07
2.33551e-06
8.52121e-06
1.89497e-05
1.15813e-05
7.07395e-06
5.03742e-06
4.19168e-06
4.16668e-06
4.89639e-06
6.29022e-06
8.1637e-06
1.04302e-05
1.32231e-05
1.69075e-05
2.17524e-05
2.71254e-05
3.12663e-05
3.26662e-05
3.09242e-05
2.64292e-05
2.06202e-05
1.5466e-05
1.18543e-05
9.55223e-06
8.11102e-06
7.20074e-06
6.60544e-06
6.21112e-06
6.05707e-06
6.35584e-06
8.23826e-06
1.69189e-05
4.24815e-06
7.12081e-08
1.41109e-07
2.19561e-06
7.59071e-06
1.85365e-05
1.11749e-05
6.5533e-06
4.59538e-06
3.8575e-06
3.93459e-06
4.75462e-06
6.20891e-06
8.10701e-06
1.03721e-05
1.31732e-05
1.69326e-05
2.19558e-05
2.74937e-05
3.15475e-05
3.25565e-05
3.02921e-05
2.5375e-05
1.94615e-05
1.44768e-05
1.10905e-05
8.97232e-06
7.66976e-06
6.86806e-06
6.37023e-06
6.08791e-06
6.06767e-06
6.53963e-06
8.77794e-06
1.7866e-05
4.01162e-06
8.12144e-08
1.32656e-07
2.06471e-06
6.81345e-06
1.75327e-05
1.0354e-05
5.81112e-06
4.04092e-06
3.51138e-06
3.78932e-06
4.78295e-06
6.33809e-06
8.2579e-06
1.04951e-05
1.32758e-05
1.70806e-05
2.22267e-05
2.78289e-05
3.16738e-05
3.21922e-05
2.93256e-05
2.39439e-05
1.7967e-05
1.32352e-05
1.01417e-05
8.25665e-06
7.13783e-06
6.49563e-06
6.15245e-06
6.03997e-06
6.17254e-06
6.83827e-06
9.48152e-06
1.83365e-05
3.75058e-06
9.27892e-08
1.24385e-07
1.91793e-06
6.07874e-06
1.55577e-05
8.51875e-06
4.71682e-06
3.44852e-06
3.29714e-06
3.87667e-06
5.09378e-06
6.74485e-06
8.65542e-06
1.08534e-05
1.36541e-05
1.75943e-05
2.29226e-05
2.84918e-05
3.19073e-05
3.17636e-05
2.82093e-05
2.23709e-05
1.64233e-05
1.20207e-05
9.25342e-06
7.61432e-06
6.68163e-06
6.19547e-06
6.00416e-06
6.05531e-06
6.33634e-06
7.22271e-06
1.034e-05
1.81019e-05
3.49277e-06
1.05137e-07
1.17998e-07
1.78168e-06
5.50392e-06
1.30891e-05
6.38274e-06
3.77219e-06
3.14999e-06
3.42398e-06
4.30983e-06
5.70042e-06
7.36555e-06
9.19424e-06
1.13234e-05
1.41541e-05
1.82438e-05
2.36991e-05
2.90926e-05
3.19497e-05
3.10686e-05
2.67479e-05
2.04577e-05
1.46543e-05
1.06675e-05
8.26577e-06
6.89994e-06
6.18856e-06
5.90924e-06
5.93699e-06
6.18552e-06
6.64707e-06
7.82548e-06
1.15729e-05
1.70427e-05
3.23753e-06
1.16911e-07
1.14828e-07
1.74283e-06
5.5151e-06
1.09337e-05
5.01771e-06
3.42749e-06
3.33404e-06
3.9424e-06
5.04216e-06
6.4788e-06
8.04798e-06
9.74538e-06
1.1823e-05
1.47467e-05
1.90539e-05
2.46332e-05
2.97415e-05
3.19401e-05
3.02618e-05
2.51393e-05
1.8508e-05
1.29951e-05
9.45213e-06
7.3941e-06
6.27564e-06
5.76664e-06
5.68794e-06
5.93941e-06
6.38235e-06
7.05599e-06
8.61673e-06
1.31538e-05
1.53147e-05
3.00395e-06
1.26867e-07
1.14934e-07
1.87421e-06
6.59511e-06
9.7481e-06
4.73201e-06
3.71872e-06
3.93773e-06
4.72403e-06
5.88966e-06
7.23667e-06
8.63355e-06
1.0194e-05
1.22478e-05
1.52876e-05
1.97892e-05
2.54093e-05
3.01712e-05
3.17352e-05
2.92532e-05
2.33303e-05
1.652e-05
1.14058e-05
8.29779e-06
6.55228e-06
5.66745e-06
5.37231e-06
5.53212e-06
6.02435e-06
6.68256e-06
7.61948e-06
9.6762e-06
1.51084e-05
1.33387e-05
2.79659e-06
1.34037e-07
1.17541e-07
2.18692e-06
9.15684e-06
9.63786e-06
5.1537e-06
4.38318e-06
4.73308e-06
5.55304e-06
6.65667e-06
7.83001e-06
9.04119e-06
1.04897e-05
1.25503e-05
1.57224e-05
2.04085e-05
2.60436e-05
3.04801e-05
3.14849e-05
2.82611e-05
2.1687e-05
1.48879e-05
1.01644e-05
7.38897e-06
5.86164e-06
5.14139e-06
5.01598e-06
5.39635e-06
6.1084e-06
6.99912e-06
8.26061e-06
1.09117e-05
1.70699e-05
1.15785e-05
2.62289e-06
1.38295e-07
1.21789e-07
2.61348e-06
1.29809e-05
1.02525e-05
5.89905e-06
5.17853e-06
5.5389e-06
6.29012e-06
7.24184e-06
8.20821e-06
9.23769e-06
1.05817e-05
1.26332e-05
1.58826e-05
2.06682e-05
2.62984e-05
3.05356e-05
3.1173e-05
2.73782e-05
2.03544e-05
1.36496e-05
9.22322e-06
6.66608e-06
5.27411e-06
4.66138e-06
4.667e-06
5.23559e-06
6.15518e-06
7.3004e-06
8.94536e-06
1.22429e-05
1.86088e-05
1.01676e-05
2.47959e-06
1.40081e-07
1.27381e-07
3.04259e-06
1.68137e-05
1.12116e-05
6.73576e-06
5.95988e-06
6.25778e-06
6.87797e-06
7.63219e-06
8.3843e-06
9.23981e-06
1.0475e-05
1.24799e-05
1.57342e-05
2.05568e-05
2.62166e-05
3.04412e-05
3.09919e-05
2.69645e-05
1.97362e-05
1.30568e-05
8.72018e-06
6.21267e-06
4.83477e-06
4.23168e-06
4.28255e-06
4.9558e-06
6.04436e-06
7.45064e-06
9.50937e-06
1.34202e-05
1.93737e-05
9.11915e-06
2.36591e-06
1.4022e-07
1.34113e-07
3.37186e-06
1.9272e-05
1.24803e-05
7.6551e-06
6.72346e-06
6.89711e-06
7.34482e-06
7.86049e-06
8.38506e-06
9.05557e-06
1.01473e-05
1.20295e-05
1.51672e-05
1.99154e-05
2.56351e-05
3.00853e-05
3.09114e-05
2.70631e-05
1.98349e-05
1.30561e-05
8.6153e-06
6.01904e-06
4.55471e-06
3.86798e-06
3.85911e-06
4.52991e-06
5.71275e-06
7.34586e-06
9.80098e-06
1.42435e-05
1.94739e-05
8.35787e-06
2.27776e-06
1.39498e-07
1.4156e-07
3.56116e-06
2.01209e-05
1.41321e-05
8.69927e-06
7.4898e-06
7.48437e-06
7.72286e-06
7.97871e-06
8.27499e-06
8.75333e-06
9.67108e-06
1.13664e-05
1.42836e-05
1.88419e-05
2.46156e-05
2.94877e-05
3.09481e-05
2.77452e-05
2.07751e-05
1.37572e-05
8.98376e-06
6.14084e-06
4.48341e-06
3.61843e-06
3.4333e-06
3.96675e-06
5.10885e-06
6.85215e-06
9.59741e-06
1.44701e-05
1.9173e-05
7.81796e-06
2.21059e-06
1.38479e-07
1.48834e-07
3.61846e-06
1.96696e-05
1.63512e-05
9.98825e-06
8.3424e-06
8.0886e-06
8.087e-06
8.06219e-06
8.10953e-06
8.37133e-06
9.07768e-06
1.05245e-05
1.312e-05
1.73452e-05
2.30915e-05
2.85074e-05
3.08818e-05
2.8709e-05
2.23521e-05
1.51114e-05
9.84011e-06
6.61222e-06
4.67199e-06
3.55763e-06
3.1131e-06
3.37961e-06
4.3166e-06
5.97371e-06
8.78995e-06
1.39477e-05
1.86736e-05
7.42943e-06
2.15778e-06
1.37514e-07
1.54994e-07
3.58108e-06
1.83731e-05
1.92013e-05
1.16155e-05
9.32749e-06
8.74003e-06
8.47671e-06
8.17511e-06
7.95423e-06
7.98852e-06
8.47054e-06
9.64637e-06
1.1871e-05
1.56493e-05
2.12042e-05
2.71378e-05
3.05845e-05
2.96911e-05
2.433e-05
1.70537e-05
1.11913e-05
7.45115e-06
5.15359e-06
3.74329e-06
2.99588e-06
2.913e-06
3.5158e-06
4.86954e-06
7.43271e-06
1.25552e-05
1.80388e-05
7.1576e-06
2.1145e-06
1.3678e-07
1.5928e-07
3.48807e-06
1.66864e-05
2.2494e-05
1.36802e-05
1.05231e-05
9.49623e-06
8.94227e-06
8.36764e-06
7.85265e-06
7.63915e-06
7.88777e-06
8.79263e-06
1.06405e-05
1.39063e-05
1.90727e-05
2.5355e-05
2.99198e-05
3.0394e-05
2.62924e-05
1.93329e-05
1.29438e-05
8.61514e-06
5.91087e-06
4.19021e-06
3.13713e-06
2.69264e-06
2.91178e-06
3.83364e-06
5.86805e-06
1.04589e-05
1.72295e-05
6.98976e-06
2.0772e-06
1.36551e-07
1.61528e-07
3.37513e-06
1.5028e-05
2.55307e-05
1.61725e-05
1.19647e-05
1.03653e-05
9.46943e-06
8.62069e-06
7.82399e-06
7.35502e-06
7.38365e-06
8.04905e-06
9.56536e-06
1.23376e-05
1.69648e-05
2.32986e-05
2.88826e-05
3.07255e-05
2.79584e-05
2.16433e-05
1.49088e-05
9.98398e-06
6.85309e-06
4.84078e-06
3.52286e-06
2.76531e-06
2.614e-06
3.09446e-06
4.50076e-06
8.13068e-06
1.60083e-05
6.95701e-06
2.04704e-06
1.36957e-07
1.6226e-07
3.26511e-06
1.36055e-05
2.75066e-05
1.89043e-05
1.36291e-05
1.1337e-05
1.00386e-05
8.90724e-06
7.85428e-06
7.1298e-06
6.95824e-06
7.42585e-06
8.67732e-06
1.10313e-05
1.50887e-05
2.11736e-05
2.75146e-05
3.06744e-05
2.91937e-05
2.37077e-05
1.68582e-05
1.13915e-05
7.83134e-06
5.5609e-06
4.04741e-06
3.06614e-06
2.61243e-06
2.73419e-06
3.60457e-06
6.23141e-06
1.40902e-05
7.12191e-06
2.03089e-06
1.3774e-07
1.626e-07
3.17357e-06
1.24983e-05
2.8209e-05
2.15049e-05
1.53834e-05
1.23393e-05
1.05824e-05
9.15318e-06
7.87109e-06
6.93595e-06
6.60533e-06
6.93188e-06
7.99686e-06
1.00386e-05
1.35986e-05
1.92544e-05
2.59777e-05
3.03077e-05
3.00329e-05
2.54185e-05
1.86285e-05
1.26946e-05
8.71318e-06
6.21016e-06
4.56645e-06
3.45889e-06
2.81112e-06
2.68609e-06
3.17663e-06
5.0375e-06
1.18024e-05
7.58057e-06
2.0405e-06
1.38528e-07
1.63813e-07
3.10652e-06
1.17001e-05
2.80676e-05
2.36312e-05
1.70304e-05
1.32681e-05
1.10326e-05
9.30578e-06
7.83231e-06
6.75537e-06
6.31207e-06
6.55119e-06
7.49355e-06
9.31402e-06
1.24856e-05
1.7675e-05
2.44469e-05
2.9697e-05
3.05359e-05
2.67628e-05
2.01262e-05
1.37983e-05
9.41863e-06
6.69784e-06
4.96391e-06
3.81018e-06
3.08383e-06
2.82791e-06
3.09357e-06
4.48165e-06
1.00743e-05
8.37785e-06
2.08355e-06
1.38793e-07
1.66974e-07
3.06264e-06
1.11572e-05
2.75978e-05
2.51588e-05
1.84027e-05
1.40244e-05
1.1333e-05
9.33329e-06
7.71773e-06
6.57026e-06
6.0732e-06
6.27203e-06
7.13556e-06
8.79638e-06
1.16745e-05
1.64426e-05
2.3051e-05
2.89277e-05
3.0784e-05
2.78337e-05
2.13893e-05
1.47043e-05
9.94861e-06
7.01958e-06
5.20198e-06
4.03661e-06
3.31432e-06
3.0274e-06
3.20248e-06
4.35735e-06
9.24194e-06
9.42253e-06
2.15691e-06
1.37966e-07
1.72642e-07
3.03331e-06
1.07847e-05
2.70997e-05
2.61823e-05
1.94533e-05
1.45749e-05
1.14875e-05
9.27102e-06
7.57504e-06
6.41438e-06
5.90312e-06
6.07609e-06
6.86805e-06
8.39171e-06
1.1033e-05
1.54426e-05
2.1799e-05
2.80568e-05
3.08165e-05
2.86833e-05
2.24667e-05
1.54557e-05
1.03478e-05
7.22094e-06
5.3168e-06
4.13676e-06
3.44478e-06
3.19345e-06
3.3822e-06
4.4843e-06
9.12503e-06
1.05074e-05
2.25043e-06
1.35749e-07
1.80606e-07
3.00706e-06
1.04976e-05
2.66855e-05
2.69352e-05
2.02937e-05
1.49984e-05
1.15847e-05
9.21406e-06
7.48358e-06
6.33056e-06
5.80136e-06
5.92535e-06
6.62523e-06
8.00968e-06
1.04413e-05
1.45421e-05
2.06328e-05
2.71174e-05
3.06733e-05
2.93818e-05
2.34825e-05
1.61891e-05
1.0733e-05
7.39559e-06
5.38026e-06
4.15422e-06
3.47337e-06
3.27205e-06
3.52931e-06
4.68773e-06
9.35338e-06
1.14458e-05
2.35069e-06
1.32316e-07
1.89613e-07
2.97196e-06
1.0209e-05
2.63462e-05
2.76763e-05
2.11477e-05
1.54796e-05
1.17783e-05
9.28409e-06
7.524e-06
6.35277e-06
5.75827e-06
5.77673e-06
6.34452e-06
7.56988e-06
9.79122e-06
1.36031e-05
1.94426e-05
2.60945e-05
3.03693e-05
2.994e-05
2.4502e-05
1.70259e-05
1.12299e-05
7.65515e-06
5.49155e-06
4.16863e-06
3.44334e-06
3.25284e-06
3.57774e-06
4.82309e-06
9.5613e-06
1.22512e-05
2.4539e-06
1.2852e-07
1.97585e-07
2.91943e-06
9.85414e-06
2.59921e-05
2.86095e-05
2.22807e-05
1.62419e-05
1.22196e-05
9.57152e-06
7.73474e-06
6.47918e-06
5.74905e-06
5.59257e-06
5.99156e-06
7.04259e-06
9.04955e-06
1.25774e-05
1.81777e-05
2.4986e-05
2.99347e-05
3.03668e-05
2.5551e-05
1.80417e-05
1.19196e-05
8.08049e-06
5.73563e-06
4.26487e-06
3.42142e-06
3.15829e-06
3.48585e-06
4.75594e-06
9.40033e-06
1.31053e-05
2.56463e-06
1.25631e-07
2.02284e-07
2.84718e-06
9.40262e-06
2.54534e-05
2.97759e-05
2.38828e-05
1.74538e-05
1.30101e-05
1.01167e-05
8.11688e-06
6.6947e-06
5.76158e-06
5.37422e-06
5.58142e-06
6.45203e-06
8.2433e-06
1.14831e-05
1.68354e-05
2.37974e-05
2.94002e-05
3.06344e-05
2.65149e-05
1.91433e-05
1.27568e-05
8.66175e-06
6.13921e-06
4.50637e-06
3.49292e-06
3.0693e-06
3.29872e-06
4.46866e-06
8.74856e-06
1.41753e-05
2.68755e-06
1.24745e-07
2.0231e-07
2.76039e-06
8.87161e-06
2.45646e-05
3.09734e-05
2.59272e-05
1.91697e-05
1.41848e-05
1.09037e-05
8.63341e-06
6.96797e-06
5.78222e-06
5.13561e-06
5.14679e-06
5.85084e-06
7.45002e-06
1.04224e-05
1.55142e-05
2.25958e-05
2.88252e-05
3.0757e-05
2.72867e-05
2.01777e-05
1.36175e-05
9.30512e-06
6.64855e-06
4.89328e-06
3.71169e-06
3.07957e-06
3.1242e-06
4.0733e-06
7.76081e-06
1.55451e-05
2.8276e-06
1.26733e-07
1.97951e-07
2.67055e-06
8.32666e-06
2.33304e-05
3.18613e-05
2.80906e-05
2.12197e-05
1.56234e-05
1.18223e-05
9.18657e-06
7.22315e-06
5.76667e-06
4.87829e-06
4.723e-06
5.30931e-06
6.77971e-06
9.55715e-06
1.44224e-05
2.15636e-05
2.83135e-05
3.07602e-05
2.77339e-05
2.08891e-05
1.42642e-05
9.82455e-06
7.11695e-06
5.33435e-06
4.0634e-06
3.25419e-06
3.07731e-06
3.74895e-06
6.79354e-06
1.69434e-05
2.98355e-06
1.32221e-07
1.91156e-07
2.59101e-06
7.84475e-06
2.19752e-05
3.22432e-05
2.99161e-05
2.32063e-05
1.7041e-05
1.266e-05
9.60097e-06
7.31663e-06
5.61656e-06
4.5672e-06
4.32797e-06
4.88759e-06
6.33203e-06
9.04194e-06
1.38067e-05
2.0985e-05
2.80286e-05
3.06942e-05
2.78168e-05
2.1125e-05
1.45185e-05
1.00553e-05
7.38393e-06
5.67573e-06
4.43563e-06
3.54817e-06
3.19405e-06
3.61605e-06
6.13977e-06
1.7766e-05
3.14032e-06
1.41373e-07
1.84539e-07
2.53367e-06
7.48563e-06
2.07979e-05
3.21985e-05
3.11027e-05
2.46652e-05
1.80366e-05
1.3113e-05
9.63324e-06
7.06157e-06
5.21515e-06
4.15355e-06
3.98433e-06
4.64492e-06
6.18977e-06
8.99322e-06
1.385e-05
2.11041e-05
2.81182e-05
3.05817e-05
2.74985e-05
2.07752e-05
1.42589e-05
9.91222e-06
7.36366e-06
5.80304e-06
4.702e-06
3.86396e-06
3.4407e-06
3.70252e-06
5.91999e-06
1.80215e-05
3.27184e-06
1.53742e-07
1.80485e-07
2.50474e-06
7.27566e-06
1.99978e-05
3.19196e-05
3.15395e-05
2.52127e-05
1.81949e-05
1.28301e-05
9.02737e-06
6.31879e-06
4.54399e-06
3.69174e-06
3.77078e-06
4.66025e-06
6.42935e-06
9.4921e-06
1.46391e-05
2.19853e-05
2.85738e-05
3.03894e-05
2.67598e-05
1.98203e-05
1.34731e-05
9.39416e-06
7.06976e-06
5.71228e-06
4.80729e-06
4.12443e-06
3.75676e-06
3.9812e-06
6.15325e-06
1.84771e-05
3.35047e-06
1.68029e-07
1.80181e-07
2.50051e-06
7.19444e-06
1.95649e-05
3.14923e-05
3.12193e-05
2.46496e-05
1.72269e-05
1.15797e-05
7.7189e-06
5.20747e-06
3.80071e-06
3.36261e-06
3.80179e-06
4.99707e-06
7.07749e-06
1.05333e-05
1.60911e-05
2.34139e-05
2.91912e-05
3.00291e-05
2.55536e-05
1.82974e-05
1.226e-05
8.59038e-06
6.56703e-06
5.45232e-06
4.78378e-06
4.33107e-06
4.11217e-06
4.43769e-06
6.87139e-06
1.93192e-05
3.36112e-06
1.81827e-07
1.8379e-07
2.50824e-06
7.1877e-06
1.93588e-05
3.08715e-05
3.0067e-05
2.27672e-05
1.49818e-05
9.47189e-06
6.061e-06
4.12187e-06
3.2728e-06
3.32816e-06
4.14011e-06
5.64854e-06
8.07082e-06
1.19802e-05
1.79393e-05
2.50053e-05
2.97271e-05
2.93982e-05
2.38533e-05
1.63797e-05
1.08481e-05
7.67099e-06
5.97111e-06
5.10399e-06
4.68297e-06
4.50617e-06
4.51273e-06
5.08834e-06
8.14754e-06
1.9481e-05
3.30821e-06
1.92408e-07
1.90035e-07
2.50838e-06
7.17984e-06
1.92154e-05
3.00163e-05
2.79653e-05
1.95591e-05
1.19392e-05
7.23014e-06
4.65617e-06
3.41932e-06
3.11522e-06
3.59767e-06
4.70628e-06
6.47104e-06
9.22472e-06
1.35942e-05
1.98603e-05
2.64599e-05
3.0046e-05
2.84051e-05
2.17452e-05
1.43759e-05
9.49769e-06
6.79832e-06
5.38515e-06
4.74121e-06
4.56421e-06
4.67194e-06
4.96151e-06
5.95452e-06
1.00789e-05
1.80434e-05
3.22015e-06
1.98332e-07
1.96199e-07
2.48202e-06
7.09357e-06
1.90078e-05
2.89796e-05
2.49816e-05
1.57497e-05
9.10481e-06
5.54419e-06
3.81186e-06
3.15871e-06
3.26966e-06
4.02537e-06
5.31036e-06
7.2667e-06
1.03446e-05
1.51571e-05
2.16303e-05
2.76571e-05
3.00958e-05
2.70476e-05
1.95585e-05
1.26482e-05
8.41633e-06
6.08934e-06
4.88056e-06
4.40512e-06
4.45174e-06
4.82193e-06
5.43639e-06
7.00785e-06
1.26321e-05
1.59499e-05
3.14057e-06
2.00716e-07
1.98855e-07
2.4196e-06
6.87539e-06
1.8622e-05
2.78123e-05
2.15897e-05
1.24444e-05
7.13034e-06
4.57418e-06
3.46203e-06
3.18995e-06
3.54293e-06
4.41787e-06
5.7903e-06
7.90582e-06
1.13043e-05
1.65523e-05
2.31808e-05
2.86017e-05
2.98734e-05
2.54961e-05
1.76834e-05
1.13923e-05
7.67561e-06
5.59521e-06
4.49683e-06
4.11082e-06
4.31652e-06
4.90972e-06
5.8692e-06
8.12183e-06
1.54023e-05
1.43355e-05
3.09678e-06
2.02624e-07
1.95991e-07
2.32989e-06
6.54293e-06
1.79961e-05
2.661e-05
1.85976e-05
1.01975e-05
6.00143e-06
4.1356e-06
3.40458e-06
3.32442e-06
3.76777e-06
4.67284e-06
6.09945e-06
8.36693e-06
1.20843e-05
1.777e-05
2.4532e-05
2.93109e-05
2.94072e-05
2.39865e-05
1.62726e-05
1.0575e-05
7.23815e-06
5.31437e-06
4.25336e-06
3.87471e-06
4.14326e-06
4.88791e-06
6.15904e-06
9.0649e-06
1.76401e-05
1.34005e-05
3.09379e-06
2.07446e-07
1.87631e-07
2.2298e-06
6.1585e-06
1.71533e-05
2.54432e-05
1.63811e-05
8.84519e-06
5.43332e-06
3.99407e-06
3.45969e-06
3.44106e-06
3.89485e-06
4.80711e-06
6.29259e-06
8.71834e-06
1.2758e-05
1.88858e-05
2.57414e-05
2.98024e-05
2.87436e-05
2.261e-05
1.52092e-05
1.00277e-05
6.99688e-06
5.20412e-06
4.15818e-06
3.73581e-06
3.97493e-06
4.77091e-06
6.2543e-06
9.65136e-06
1.89134e-05
1.29458e-05
3.11903e-06
2.1738e-07
1.76139e-07
2.14278e-06
5.82214e-06
1.63192e-05
2.43565e-05
1.48407e-05
8.0546e-06
5.16785e-06
3.97224e-06
3.51548e-06
3.49883e-06
3.95274e-06
4.89459e-06
6.46905e-06
9.08152e-06
1.34666e-05
2.00274e-05
2.68581e-05
3.00647e-05
2.78926e-05
2.12863e-05
1.42638e-05
9.5431e-06
6.8034e-06
5.17014e-06
4.17433e-06
3.7148e-06
3.87754e-06
4.63629e-06
6.20523e-06
9.8789e-06
1.93858e-05
1.27443e-05
3.15407e-06
2.33161e-07
1.64622e-07
2.08555e-06
5.61825e-06