/*--------------------------------*- C++ -*----------------------------------*\
| =========                 |                                                 |
| \\      /  F ield         | OpenFOAM: The Open Source CFD Toolbox           |
|  \\    /   O peration     | Version:  v2006                                 |
|   \\  /    A nd           | Website:  www.openfoam.com                      |
|    \\/     M anipulation  |                                                 |
\*---------------------------------------------------------------------------*/
FoamFile
{
    version     2.0;
    format      ascii;
    class       surfaceScalarField;
    location    "10";
    object      phi;
}
// * * * * * * * * * * * * * * * * * * * * * * * * * * * * * * * * * * * * * //

dimensions      [1 0 -1 0 0 0 0];
oriented        oriented;


internalField   nonuniform List<scalar> 
228225
(
-2.87503e-05
-6.28553e-07
7.97806e-08
-2.62433e-05
-2.53893e-06
3.60373e-08
-2.28325e-05
-3.28417e-06
-1.27666e-07
-1.91643e-05
-3.36175e-06
-3.06616e-07
-1.56717e-05
-3.08492e-06
-4.07838e-07
-1.24079e-05
-2.79302e-06
-4.70917e-07
-9.34194e-06
-2.56293e-06
-5.03217e-07
-6.45299e-06
-2.3697e-06
-5.19418e-07
-3.73493e-06
-2.18581e-06
-5.32419e-07
-1.18494e-06
-2.0041e-06
-5.46057e-07
1.19753e-06
-1.82326e-06
-5.59378e-07
3.41261e-06
-1.64405e-06
-5.71199e-07
5.46188e-06
-1.46765e-06
-5.81794e-07
7.349e-06
-1.29535e-06
-5.91937e-07
9.07818e-06
-1.12748e-06
-6.01878e-07
1.06534e-05
-9.6383e-07
-6.11598e-07
1.20778e-05
-8.03706e-07
-6.20833e-07
1.33531e-05
-6.46163e-07
-6.29256e-07
1.44793e-05
-4.89973e-07
-6.36484e-07
1.54546e-05
-3.33343e-07
-6.4207e-07
1.62751e-05
-1.75069e-07
-6.45631e-07
1.69431e-05
-2.14051e-08
-6.46781e-07
1.7413e-05
1.747e-07
-6.44671e-07
1.7677e-05
3.74196e-07
-6.38395e-07
1.77186e-05
5.84908e-07
-6.26667e-07
1.75144e-05
8.11548e-07
-6.0756e-07
1.70342e-05
1.05818e-06
-5.78126e-07
1.62401e-05
1.32892e-06
-5.34909e-07
1.50873e-05
1.62773e-06
-4.75158e-07
1.35227e-05
1.95786e-06
-3.9339e-07
1.14877e-05
2.31922e-06
-2.84409e-07
8.92063e-06
2.70496e-06
-1.38024e-07
5.79039e-06
3.07291e-06
5.72775e-08
2.36328e-06
3.18065e-06
2.46723e-07
2.12637e-06
2.37812e-07
-3.7404e-06
3.28925e-06
-1.77799e-07
-7.30418e-06
2.28137e-06
-1.25644e-06
-1.00054e-05
1.36132e-06
-1.94398e-06
-1.1984e-05
8.56832e-07
-2.23991e-06
-1.33049e-05
5.76538e-07
-2.34059e-06
-1.40703e-05
3.14468e-07
-2.34217e-06
-1.43256e-05
-1.80308e-08
-2.28979e-06
-1.42425e-05
-2.53907e-07
-2.19912e-06
-1.38653e-05
-4.76776e-07
-2.08648e-06
-1.32314e-05
-6.61665e-07
-1.97655e-06
-1.2418e-05
-7.56801e-07
-1.88014e-06
-1.15098e-05
-7.56492e-07
-1.79604e-06
-1.05556e-05
-6.99271e-07
-1.72278e-06
-9.57136e-06
-6.19268e-07
-1.66061e-06
-8.56358e-06
-5.26012e-07
-1.60952e-06
-7.53538e-06
-4.23101e-07
-1.56918e-06
-6.48896e-06
-3.11408e-07
-1.53897e-06
-5.42586e-06
-1.91254e-07
-1.51826e-06
-4.3436e-06
-6.58423e-08
-1.50663e-06
-3.27224e-06
9.85637e-08
-1.5035e-06
-2.22819e-06
2.8836e-07
-1.50771e-06
-1.22095e-06
4.88518e-07
-1.51738e-06
-2.26512e-07
7.09344e-07
-1.52928e-06
7.29669e-07
9.57001e-07
-1.53918e-06
1.6181e-06
1.23827e-06
-1.54197e-06
2.40832e-06
1.5536e-06
-1.53245e-06
3.07274e-06
1.89926e-06
-1.50567e-06
3.57952e-06
2.27793e-06
-1.45594e-06
3.88659e-06
2.69546e-06
-1.37495e-06
3.93926e-06
3.1553e-06
-1.25023e-06
3.67267e-06
3.65181e-06
-1.06609e-06
3.02963e-06
4.1506e-06
-8.02612e-07
2.00733e-06
4.53795e-06
-4.42572e-07
7.88503e-07
4.46707e-06
-6.70712e-08
2.7919e-06
1.24196e-07
-8.49288e-07
4.23617e-06
-9.85086e-08
-3.40105e-06
5.51592e-06
-6.84184e-07
-6.11461e-06
5.11074e-06
-1.03676e-06
-8.35824e-06
4.24378e-06
-1.14398e-06
-9.92053e-06
3.27343e-06
-1.13515e-06
-1.08646e-05
2.34105e-06
-1.08288e-06
-1.13665e-05
1.49447e-06
-1.01099e-06
-1.14369e-05
7.44864e-07
-9.28703e-07
-1.12083e-05
1.39434e-07
-8.4519e-07
-1.0719e-05
-3.83198e-07
-7.68156e-07
-1.01039e-05
-6.75973e-07
-6.96346e-07
-9.44587e-06
-7.84724e-07
-6.3016e-07
-8.78054e-06
-7.89918e-07
-5.75069e-07
-8.12458e-06
-7.4273e-07
-5.32886e-07
-7.48414e-06
-6.65152e-07
-5.01689e-07
-6.86146e-06
-5.67384e-07
-4.78767e-07
-6.25683e-06
-4.53549e-07
-4.62856e-07
-5.67175e-06
-3.23363e-07
-4.53323e-07
-5.11526e-06
-1.72663e-07
-4.50006e-07
-4.57705e-06
1.31323e-08
-4.531e-07
-4.00753e-06
1.81971e-07
-4.6344e-07
-3.43297e-06
3.97471e-07
-4.83806e-07
-2.8604e-06
6.52664e-07
-5.16159e-07
-2.29843e-06
9.54893e-07
-5.60113e-07
-1.75611e-06
1.30839e-06
-6.12678e-07
-1.24049e-06
1.70661e-06
-6.68842e-07
-7.62337e-07
2.1431e-06
-7.22168e-07
-3.3697e-07
2.61759e-06
-7.65181e-07
1.5429e-08
3.13165e-06
-7.8869e-07
2.70267e-07
3.68081e-06
-7.80396e-07
4.05843e-07
4.24237e-06
-7.26085e-07
4.16184e-07
4.75068e-06
-6.10238e-07
3.05233e-07
5.06376e-06
-4.14454e-07
9.83564e-08
4.82884e-06
-1.54112e-07
2.85032e-06
4.13812e-08
-6.03482e-07
4.86766e-06
-2.86604e-08
-1.28854e-06
6.61092e-06
-4.10173e-07
-1.68963e-06
6.22802e-06
-7.16109e-07
-1.94169e-06
5.36062e-06
-8.64617e-07
-2.11116e-06
4.35163e-06
-9.08648e-07
-2.23844e-06
3.36663e-06
-8.98348e-07
-2.36318e-06
2.47933e-06
-8.60256e-07
-2.51701e-06
1.70593e-06
-8.07464e-07
-2.68357e-06
1.05325e-06
-7.47557e-07
-2.93004e-06
5.45391e-07
-6.82474e-07
-3.15401e-06
1.63497e-07
-6.15891e-07
-3.28382e-06
-9.86022e-08
-5.5674e-07
-3.32377e-06
-2.38308e-07
-5.12106e-07
-3.27617e-06
-3.08062e-07
-4.82729e-07
-3.1525e-06
-3.25518e-07
-4.63771e-07
-2.96345e-06
-3.07831e-07
-4.4907e-07
-2.71769e-06
-2.62315e-07
-4.37461e-07
-2.42059e-06
-1.91091e-07
-4.29815e-07
-2.07349e-06
-9.47784e-08
-4.25421e-07
-1.67858e-06
4.06921e-08
-4.22882e-07
-1.32465e-06
2.49417e-07
-4.21768e-07
-9.86185e-07
4.84494e-07
-4.25868e-07
-6.6295e-07
7.68044e-07
-4.38973e-07
-3.65267e-07
1.11855e-06
-4.61673e-07
-9.6902e-08
1.53366e-06
-4.93949e-07
1.50381e-07
1.99221e-06
-5.33173e-07
3.79117e-07
2.48752e-06
-5.73409e-07
5.80444e-07
3.02239e-06
-6.06328e-07
7.38884e-07
3.59486e-06
-6.21799e-07
8.37101e-07
4.19071e-06
-6.08172e-07
8.60809e-07
4.77164e-06
-5.5291e-07
7.96697e-07
5.25925e-06
-4.442e-07
6.08107e-07
5.52843e-06
-2.75592e-07
2.79158e-07
5.23548e-06
-7.68158e-08
3.05507e-06
7.59561e-08
5.64149e-07
4.32613e-06
-2.33214e-08
8.30757e-07
6.64672e-06
-3.0269e-07
9.38606e-07
6.65888e-06
-5.38867e-07
8.89228e-07
6.05421e-06
-6.44129e-07
7.02934e-07
5.18458e-06
-6.46509e-07
3.93218e-07
4.26141e-06
-5.85007e-07
-4.34811e-08
3.40026e-06
-4.84293e-07
-6.14929e-07
2.63949e-06
-3.62288e-07
-1.30546e-06
1.97629e-06
-2.32776e-07
-2.03982e-06
1.38878e-06
-1.09376e-07
-2.72687e-06
8.60206e-07
-1.00988e-08
-3.31095e-06
3.93265e-07
9.16799e-08
-3.74894e-06
3.59787e-08
1.63122e-07
-4.00154e-06
-2.71584e-07
2.15512e-07
-4.11984e-06
-4.595e-07
2.51664e-07
-4.13598e-06
-5.6427e-07
2.71963e-07
-4.07433e-06
-6.02051e-07
2.77488e-07
-3.96059e-06
-5.75451e-07
2.7006e-07
-3.8277e-06
-4.79865e-07
2.51663e-07
-3.70355e-06
-3.08202e-07
2.24251e-07
-3.59483e-06
-4.94696e-08
1.89712e-07
-3.47717e-06
2.17011e-07
1.49407e-07
-3.3649e-06
5.50569e-07
1.04832e-07
-3.24969e-06
9.50677e-07
5.23211e-08
-3.11456e-06
1.41191e-06
-1.36561e-08
-2.96274e-06
1.91928e-06
-7.91386e-08
-2.78039e-06
2.463e-06
-1.58031e-07
-2.55862e-06
3.03856e-06
-2.38084e-07
-2.29226e-06
3.63507e-06
-3.06634e-07
-1.97646e-06
4.22521e-06
-3.50275e-07
-1.60649e-06
4.75878e-06
-3.56946e-07
-1.18899e-06
5.1589e-06
-3.16816e-07
-7.56401e-07
5.31436e-06
-2.17932e-07
-3.22495e-07
4.87595e-06
-7.34077e-08
2.67996e-06
5.42543e-08
1.05568e-07
4.19776e-06
2.21551e-08
1.22548e-07
6.79522e-06
-1.65559e-07
1.48333e-07
6.94773e-06
-3.14375e-07
9.56564e-08
6.47113e-06
-3.63769e-07
-4.30946e-08
5.661e-06
-3.37187e-07
-2.31577e-07
4.70933e-06
-2.59087e-07
-4.46088e-07
3.76506e-06
-1.50129e-07
-6.66211e-07
2.89249e-06
-3.2888e-08
-9.04518e-07
2.11048e-06
1.03945e-07
-1.16256e-06
1.41789e-06
2.28611e-07
-1.43263e-06
8.00159e-07
3.29655e-07
-1.68163e-06
2.35597e-07
4.0603e-07
-1.83703e-06
-2.67894e-07
4.58495e-07
-1.91903e-06
-6.83198e-07
4.92691e-07
-1.88918e-06
-1.00509e-06
5.14756e-07
-1.76287e-06
-1.2159e-06
5.24307e-07
-1.58115e-06
-1.30413e-06
5.19357e-07
-1.39154e-06
-1.26768e-06
5.01661e-07
-1.23369e-06
-1.11403e-06
4.75408e-07
-1.12792e-06
-8.58487e-07
4.43697e-07
-1.05937e-06
-5.27211e-07
4.08485e-07
-1.06405e-06
-1.52845e-07
3.73932e-07
-1.131e-06
2.75804e-07
3.41203e-07
-1.22506e-06
7.37882e-07
3.06426e-07
-1.31051e-06
1.23388e-06
2.63136e-07
-1.36637e-06
1.76749e-06
2.07381e-07
-1.37602e-06
2.33442e-06
1.38071e-07
-1.31988e-06
2.92532e-06
5.70268e-08
-1.18934e-06
3.52423e-06
-1.96287e-08
-9.96777e-07
4.09951e-06
-6.66503e-08
-7.43258e-07
4.59817e-06
-9.2525e-08
-4.48236e-07
4.95128e-06
-8.68181e-08
-1.67199e-07
5.0769e-06
-4.27458e-08
-4.67427e-10
4.66212e-06
4.82953e-08
2.56506e-06
1.16244e-07
2.64647e-07
3.8604e-06
7.18163e-08
5.12125e-07
6.61152e-06
-6.39376e-08
6.76045e-07
6.94949e-06
-1.65535e-07
7.30349e-07
6.6056e-06
-1.88461e-07
6.68175e-07
5.85945e-06
-1.35839e-07
5.29176e-07
4.88131e-06
-3.25419e-08
2.99642e-07
3.86184e-06
1.33063e-07
-3.88631e-08
2.92218e-06
3.08919e-07
-4.86665e-07
2.08617e-06
4.71935e-07
-9.89385e-07
1.3014e-06
6.18698e-07
-1.46673e-06
5.21261e-07
7.55343e-07
-1.86314e-06
-2.58822e-07
8.89573e-07
-2.07036e-06
-1.08496e-06
1.02287e-06
-2.10737e-06
-1.78897e-06
1.1414e-06
-2.00715e-06
-2.33437e-06
1.22782e-06
-1.80908e-06
-2.68653e-06
1.27144e-06
-1.55769e-06
-2.82903e-06
1.27249e-06
-1.29338e-06
-2.76904e-06
1.23604e-06
-1.04777e-06
-2.52743e-06
1.16677e-06
-8.44765e-07
-2.13443e-06
1.07188e-06
-7.09005e-07
-1.6274e-06
9.63376e-07
-6.72888e-07
-1.04565e-06
8.55696e-07
-7.38529e-07
-4.21031e-07
7.61618e-07
-8.75753e-07
1.88041e-07
6.86377e-07
-1.01881e-06
7.55161e-07
6.21242e-07
-1.14328e-06
1.33864e-06
5.5291e-07
-1.22963e-06
1.94863e-06
4.71834e-07
-1.27258e-06
2.59296e-06
3.75104e-07
-1.26212e-06
3.24417e-06
2.69487e-07
-1.17245e-06
3.83906e-06
1.70755e-07
-9.8176e-07
4.31137e-06
9.62152e-08
-7.00831e-07
4.61152e-06
5.91094e-08
-3.86466e-07
4.68685e-06
7.618e-08
-1.12082e-07
4.25278e-06
1.35777e-07
2.30793e-06
1.46509e-07
-1.84479e-07
3.91461e-06
1.29239e-07
-4.25656e-07
6.77493e-06
7.70272e-08
-6.97924e-07
7.18962e-06
3.15522e-08
-1.10615e-06
6.92292e-06
9.0273e-08
-1.72055e-06
6.25575e-06
2.17286e-07
-2.53062e-06
5.31288e-06
3.77516e-07
-3.46063e-06
4.24652e-06
5.44135e-07
-4.34448e-06
3.09535e-06
7.09082e-07
-4.95642e-06
1.80383e-06
8.92099e-07
-5.1578e-06
3.90632e-07
1.10977e-06
-4.94529e-06
-1.02148e-06
1.32855e-06
-4.38305e-06
-2.31081e-06
1.48925e-06
-3.67377e-06
-3.36708e-06
1.57355e-06
-2.89899e-06
-4.15862e-06
1.5965e-06
-2.11603e-06
-4.70036e-06
1.58527e-06
-1.34472e-06
-5.01926e-06
1.56396e-06
-5.79791e-07
-5.1377e-06
1.54631e-06
1.89222e-07
-5.0705e-06
1.53486e-06
9.63428e-07
-4.82309e-06
1.52351e-06
1.72588e-06
-4.3959e-06
1.50053e-06
2.43879e-06
-3.7915e-06
1.452e-06
3.04577e-06
-3.02056e-06
1.36797e-06
3.48264e-06
-2.10552e-06
1.24691e-06
3.65643e-06
-1.08954e-06
1.10253e-06
3.45634e-06
-8.34408e-09
9.62148e-07
2.98518e-06
9.56397e-07
8.52078e-07
2.27869e-06
1.8768e-06
7.77289e-07
1.50236e-06
2.64896e-06
7.19578e-07
8.46836e-07
3.24705e-06
6.52106e-07
4.19104e-07
3.70389e-06
5.62628e-07
2.13025e-07
4.05372e-06
4.63751e-07
1.58479e-07
4.28993e-06
3.76459e-07
1.69698e-07
4.3527e-06
3.23486e-07
1.37987e-07
3.98232e-06
3.03e-07
2.23282e-06
2.14575e-07
-4.14026e-07
4.14281e-06
1.848e-07
-1.03118e-06
7.1743e-06
2.16734e-07
-1.71188e-06
7.63681e-06
2.32454e-07
-2.49443e-06
7.37273e-06
3.31522e-07
-3.40738e-06
6.6896e-06
4.77518e-07
-4.41726e-06
5.66937e-06
6.51156e-07
-5.36777e-06
4.32582e-06
8.68208e-07
-6.01088e-06
2.58934e-06
1.14607e-06
-6.17896e-06
5.49235e-07
1.42102e-06
-5.9099e-06
-1.43643e-06
1.55847e-06
-5.36704e-06
-3.07692e-06
1.5148e-06
-4.7254e-06
-4.29888e-06
1.34965e-06
-4.08811e-06
-5.14865e-06
1.14776e-06
-3.49958e-06
-5.7176e-06
9.73754e-07
-2.96164e-06
-6.08705e-06
8.51753e-07
-2.44988e-06
-6.30981e-06
7.81565e-07
-1.92891e-06
-6.41423e-06
7.58226e-07
-1.36423e-06
-6.41083e-06
7.7831e-07
-7.26794e-07
-6.29739e-06
8.39567e-07
4.03328e-09
-6.06189e-06
9.37955e-07
8.34884e-07
-5.68423e-06
1.06468e-06
1.75075e-06
-5.13845e-06
1.20467e-06
2.71144e-06
-4.39795e-06
1.33397e-06
3.65057e-06
-3.44535e-06
1.41817e-06
4.51289e-06
-2.29539e-06
1.42518e-06
5.11492e-06
-9.88097e-07
1.34178e-06
5.38871e-06
4.21889e-07
1.17949e-06
5.27734e-06
1.76773e-06
9.90642e-07
4.80788e-06
2.88086e-06
8.3415e-07
4.08886e-06
3.70464e-06
7.17362e-07
3.25654e-06
4.26331e-06
6.22138e-07
2.39229e-06
4.61479e-06
5.39019e-07
1.52384e-06
4.7468e-06
4.74294e-07
6.48806e-07
4.42956e-06
4.28152e-07
2.6059e-06
2.76603e-07
-3.98697e-07
4.31591e-06
2.24701e-07
-1.17606e-06
7.60293e-06
3.48057e-07
-2.12971e-06
8.16264e-06
4.27141e-07
-3.19857e-06
7.88635e-06
5.54453e-07
-4.26071e-06
7.03539e-06
7.1532e-07
-5.0555e-06
5.54823e-06
9.1472e-07
-5.28932e-06
3.42256e-06
1.13612e-06
-4.8882e-06
9.05135e-07
1.28291e-06
-4.08745e-06
-1.50254e-06
1.25183e-06
-3.19656e-06
-3.39116e-06
1.06516e-06
-2.41227e-06
-4.69523e-06
8.35146e-07
-1.8052e-06
-5.55836e-06
6.5296e-07
-1.34621e-06
-6.14739e-06
5.39743e-07
-9.73425e-07
-6.565e-06
4.74271e-07
-6.344e-07
-6.86036e-06
4.33761e-07
-2.95535e-07
-7.05544e-06
4.06162e-07
6.39156e-08
-7.16044e-06
3.86156e-07
4.60535e-07
-7.18043e-06
3.72427e-07
9.13574e-07
-7.1176e-06
3.66741e-07
1.44918e-06
-6.97149e-06
3.7374e-07
2.10218e-06
-6.73792e-06
4.00709e-07
2.91404e-06
-6.40665e-06
4.56733e-07
3.9228e-06
-5.95742e-06
5.51532e-07
5.13959e-06
-5.35495e-06
6.94081e-07
6.50934e-06
-4.54546e-06
8.81897e-07
7.88528e-06
-3.45126e-06
1.08886e-06
9.01561e-06
-1.97818e-06
1.27099e-06
9.57366e-06
-1.59713e-07
1.36976e-06
9.15738e-06
1.95929e-06
1.33695e-06
7.9094e-06
3.76604e-06
1.18451e-06
6.1793e-06
4.99234e-06
9.98498e-07
4.31851e-06
5.6367e-06
8.36584e-07
2.51588e-06
5.8486e-06
6.99214e-07
9.15078e-07
5.46273e-06
5.66793e-07
3.20631e-06
3.14641e-07
-2.74659e-07
4.34052e-06
2.49255e-07
-9.80882e-07
7.86666e-06
4.41957e-07
-1.92725e-06
8.53636e-06
5.72138e-07
-2.9297e-06
8.16266e-06
7.25555e-07
-3.69833e-06
6.90333e-06
8.99944e-07
-3.91759e-06
4.67098e-06
1.09588e-06
-3.49854e-06
1.77012e-06
1.2334e-06
-2.70808e-06
-1.09257e-06
1.20791e-06
-1.89894e-06
-3.36082e-06
1.0501e-06
-1.29034e-06
-4.87763e-06
8.78805e-07
-8.65624e-07
-5.87599e-06
7.56872e-07
-5.18038e-07
-6.58047e-06
6.75383e-07
-1.71967e-07
-7.10864e-06
6.16151e-07
2.04888e-07
-7.50983e-06
5.69068e-07
6.20354e-07
-7.80466e-06
5.30011e-07
1.07054e-06
-8.0036e-06
4.99204e-07
1.54648e-06
-8.11276e-06
4.77626e-07
2.03711e-06
-8.13544e-06
4.65597e-07
2.53088e-06
-8.07278e-06
4.62554e-07
3.01764e-06
-7.9244e-06
4.67176e-07
3.49153e-06
-7.68877e-06
4.77865e-07
3.95471e-06
-7.3628e-06
4.93746e-07
4.42102e-06
-6.93931e-06
5.16248e-07
4.91572e-06
-6.40046e-06
5.51453e-07
5.46257e-06
-5.70422e-06
6.12668e-07
6.05602e-06
-4.76162e-06
7.17913e-07
6.61211e-06
-3.41174e-06
8.7866e-07
6.85346e-06
-1.47215e-06
1.07198e-06
6.65909e-06
9.43737e-07
1.20974e-06
5.85953e-06
3.35657e-06
1.20728e-06
4.55281e-06
5.20587e-06
1.0904e-06
3.01277e-06
6.22973e-06
9.44347e-07
1.54634e-06
6.52532e-06
7.87744e-07
4.26479e-07
5.9808e-06
6.00667e-07
3.33816e-06
2.94423e-07
-4.09861e-07
4.47099e-06
2.78619e-07
-1.26299e-06
8.18479e-06
5.34643e-07
-2.30103e-06
8.8751e-06
6.99109e-07
-3.26328e-06
8.27227e-06
8.52503e-07
-3.736e-06
6.36306e-06
1.01298e-06
-3.534e-06
3.33473e-06
1.1346e-06
-2.94225e-06
6.92871e-08
1.10995e-06
-2.37516e-06
-2.59855e-06
9.40023e-07
-2.08448e-06
-4.38943e-06
7.39064e-07
-1.96116e-06
-5.57244e-06
5.72539e-07
-1.85346e-06
-6.41984e-06
4.37127e-07
-1.69013e-06
-7.06857e-06
3.25651e-07
-1.45677e-06
-7.57783e-06
2.36622e-07
-1.15707e-06
-7.97552e-06
1.66685e-07
-7.9747e-07
-8.27663e-06
1.12987e-07
-3.84799e-07
-8.49031e-06
7.45992e-08
7.37693e-08
-8.62184e-06
5.10459e-08
5.70052e-07
-8.67364e-06
4.24573e-08
1.09441e-06
-8.64578e-06
4.92245e-08
1.63564e-06
-8.5363e-06
7.13157e-08
2.18003e-06
-8.34105e-06
1.08615e-07
2.71021e-06
-8.05328e-06
1.61106e-07
3.20532e-06
-7.66196e-06
2.28416e-07
3.6434e-06
-7.14751e-06
3.09915e-07
4.0047e-06
-6.4716e-06
4.07075e-07
4.27562e-06
-5.55563e-06
5.24136e-07
4.45033e-06
-4.25122e-06
6.6585e-07
4.49834e-06
-2.35209e-06
8.32846e-07
4.29101e-06
1.63692e-07
9.87644e-07
3.71135e-06
2.88043e-06
1.05489e-06
2.7872e-06
5.11859e-06
1.00944e-06
1.70904e-06
6.40075e-06
9.04947e-07
7.39337e-07
6.72284e-06
7.70476e-07
1.18206e-07
6.02778e-06
5.73135e-07
3.20034e-06
2.55919e-07
-5.45581e-07
4.71708e-06
2.98697e-07
-1.56215e-06
8.59881e-06
6.02395e-07
-2.69243e-06
9.20502e-06
8.0051e-07
-3.52573e-06
8.14151e-06
9.64291e-07
-3.68811e-06
5.43451e-06
1.0912e-06
-3.37929e-06
1.93261e-06
1.09396e-06
-3.10283e-06
-1.14197e-06
9.3575e-07
-3.08234e-06
-3.34411e-06
7.26009e-07
-3.20109e-06
-4.8245e-06
5.54614e-07
-3.28968e-06
-5.90817e-06
4.2496e-07
-3.28443e-06
-6.7503e-06
3.2575e-07
-3.18259e-06
-7.4207e-06
2.50735e-07
-2.99941e-06
-7.95654e-06
1.95929e-07
-2.75021e-06
-8.37981e-06
1.55453e-07
-2.44847e-06
-8.70273e-06
1.24702e-07
-2.10771e-06
-8.93272e-06
1.0198e-07
-1.74176e-06
-9.07398e-06
8.651e-08
-1.36451e-06
-9.12859e-06
7.80133e-08
-9.89656e-07
-9.097e-06
7.66485e-08
-6.30268e-07
-8.97842e-06
8.30102e-08
-2.98437e-07
-8.77082e-06
9.82049e-08
-4.66294e-09
-8.47076e-06
1.23979e-07
2.43266e-07
-8.07248e-06
1.62878e-07
4.42053e-07
-7.56445e-06
2.18488e-07
5.95069e-07
-6.92129e-06
2.97082e-07
7.16478e-07
-6.08332e-06
4.06781e-07
8.37123e-07
-4.92285e-06
5.51584e-07
9.89321e-07
-3.2274e-06
7.23752e-07
1.09307e-06
-8.27439e-07
8.87852e-07
1.0389e-06
1.95558e-06
9.78971e-07
7.39456e-07
4.45326e-06
9.64116e-07
2.96767e-07
5.96343e-06
8.79185e-07
-5.7698e-08
6.33006e-06
7.46689e-07
-1.40864e-07
5.56809e-06
5.428e-07
2.82783e-06
2.32343e-07
-9.60505e-07
5.37001e-06
3.06482e-07
-2.53061e-06
9.51544e-06
6.52737e-07
-4.07863e-06
9.88979e-06
8.62535e-07
-5.12292e-06
8.19927e-06
9.85565e-07
-5.57748e-06
4.89047e-06
9.98098e-07
-5.84703e-06
1.35094e-06
8.51568e-07
-6.2256e-06
-1.3952e-06
6.32702e-07
-6.66019e-06
-3.35706e-06
4.48582e-07
-6.9261e-06
-4.86533e-06
3.07742e-07
-6.97858e-06
-6.04988e-06
1.95144e-07
-6.85101e-06
-6.98132e-06
1.04349e-07
-6.58607e-06
-7.7162e-06
3.1417e-08
-6.22149e-06
-8.29739e-06
-2.2922e-08
-5.7877e-06
-8.75292e-06
-5.98948e-08
-5.30271e-06
-9.09894e-06
-8.80238e-08
-4.7832e-06
-9.34494e-06
-1.06552e-07
-4.24482e-06
-9.49611e-06
-1.15543e-07
-3.70284e-06
-9.55473e-06
-1.15129e-07
-3.17276e-06
-9.52103e-06
-1.05355e-07
-2.67067e-06
-9.39364e-06
-8.61738e-08
-2.2133e-06
-9.16995e-06
-5.75515e-08
-1.81679e-06
-8.84647e-06
-2.01369e-08
-1.50166e-06
-8.41919e-06
3.22141e-08
-1.28011e-06
-7.88287e-06
9.74886e-08
-1.14961e-06
-7.22826e-06
1.77051e-07
-1.08102e-06
-6.42991e-06
2.78573e-07
-9.9425e-07
-5.41931e-06
4.10316e-07
-7.52128e-07
-4.04408e-06
5.75286e-07
-2.57344e-07
-2.07881e-06
7.57442e-07
2.76906e-07
5.24393e-07
8.97788e-07
5.46906e-07
3.24973e-06
9.34173e-07
4.4336e-07
5.19174e-06
8.75671e-07
2.02427e-07
5.81429e-06
7.57184e-07
4.13433e-08
5.17125e-06
5.58718e-07
2.62613e-06
2.44442e-07
-7.29926e-07
5.85777e-06
2.40224e-07
-2.30429e-06
1.04973e-05
5.89663e-07
-4.12887e-06
1.09206e-05
7.89971e-07
-5.79316e-06
9.02012e-06
8.39598e-07
-7.17312e-06
5.53083e-06
7.37511e-07
-8.37777e-06
2.02624e-06
5.29209e-07
-9.29495e-06
-8.08355e-07
3.31042e-07
-9.86856e-06
-2.96929e-06
1.86643e-07
-1.00429e-05
-4.76992e-06
7.9651e-08
-9.88573e-06
-6.202e-06
-4.46356e-09
-9.50533e-06
-7.30039e-06
-6.08184e-08
-8.98107e-06
-8.13669e-06
-1.03346e-07
-8.36759e-06
-8.77681e-06
-1.33692e-07
-7.7001e-06
-9.26483e-06
-1.5527e-07
-7.00196e-06
-9.62661e-06
-1.70194e-07
-6.2906e-06
-9.87651e-06
-1.79537e-07
-5.58046e-06
-1.00222e-05
-1.83803e-07
-4.88445e-06
-1.00675e-05
-1.83032e-07
-4.21488e-06
-1.00135e-05
-1.76823e-07
-3.58407e-06
-9.85981e-06
-1.64355e-07
-3.00502e-06
-9.6043e-06
-1.44387e-07
-2.49208e-06
-9.24375e-06
-1.15312e-07
-2.06141e-06
-8.77412e-06
-7.53691e-08
-1.72881e-06
-8.19139e-06
-2.36766e-08
-1.51508e-06
-7.49241e-06
5.08381e-08
-1.4227e-06
-6.67239e-06
1.50556e-07
-1.40439e-06
-5.71526e-06
2.78144e-07
-1.32498e-06
-4.56131e-06
4.38475e-07
-9.79276e-07
-3.05612e-06
6.32618e-07
-3.12893e-07
-9.73168e-07
8.32688e-07
3.72329e-07
1.60582e-06
9.60518e-07
6.37491e-07
3.97016e-06
9.58195e-07
4.68163e-07
5.1427e-06
8.42532e-07
1.84573e-07
4.82929e-06
6.27154e-07
2.5323e-06
2.80412e-07
4.08392e-07
5.35779e-06
8.90836e-08
9.92359e-08
1.0434e-05
3.67841e-07
-1.02122e-06
1.15032e-05
5.3058e-07
-2.82755e-06
1.02936e-05
5.24764e-07
-5.048e-06
7.35635e-06
3.89824e-07
-7.22913e-06
3.99893e-06
2.0671e-07
-8.97119e-06
8.66878e-07
6.68183e-08
-9.97765e-06
-1.95035e-06
-1.19604e-08
-1.02627e-05
-4.40003e-06
-8.41511e-08
-1.0006e-05
-6.32333e-06
-1.3453e-07
-9.42124e-06
-7.71268e-06
-1.71699e-07
-8.66258e-06
-8.69619e-06
-1.98429e-07
-7.81786e-06
-9.4027e-06
-2.18158e-07
-6.93322e-06
-9.91589e-06
-2.32962e-07
-6.03397e-06
-1.02816e-05
-2.43723e-07
-5.13632e-06
-1.05228e-05
-2.5079e-07
-4.25265e-06
-1.06511e-05
-2.54206e-07
-3.39374e-06
-1.06721e-05
-2.53793e-07
-2.56975e-06
-1.05877e-05
-2.49257e-07
-1.79092e-06
-1.0398e-05
-2.40163e-07
-1.06837e-06
-1.01006e-05
-2.25776e-07
-4.14968e-07
-9.69157e-06
-2.05084e-07
1.53738e-07
-9.1656e-06
-1.76707e-07
6.18315e-07
-8.51669e-06
-1.38762e-07
9.54573e-07
-7.73985e-06
-8.83059e-08
1.13793e-06
-6.83307e-06
-2.21716e-08
1.14541e-06
-5.79927e-06
7.70225e-08
1.01511e-06
-4.63748e-06
2.07004e-07
8.93235e-07
-3.30736e-06
3.73824e-07
1.00399e-06
-1.66491e-06
5.82126e-07
1.32729e-06
4.85375e-07
7.98916e-07
1.45405e-06
2.91507e-06
9.30521e-07
1.06675e-06
4.6345e-06
8.9775e-07
4.35956e-07
4.76845e-06
6.93834e-07
2.65867e-06
3.12063e-07
1.39496e-06
3.98837e-06
-2.73185e-08
2.89086e-06
8.80733e-06
1.27056e-07
3.58062e-06
1.05614e-05
2.46776e-07
3.30422e-06
1.03096e-05
2.54291e-07
1.97468e-06
8.49611e-06
1.84556e-07
9.9472e-08
5.7831e-06
8.75759e-08
-1.71047e-06
2.64939e-06
2.55978e-08
-2.96301e-06
-7.03787e-07
5.61629e-09
-3.46436e-06
-3.87923e-06
-1.87395e-08
-3.43905e-06
-6.27905e-06
-6.85156e-08
-3.11364e-06
-7.92216e-06
-1.14947e-07
-2.63255e-06
-9.02465e-06
-1.51852e-07
-2.06598e-06
-9.78783e-06
-1.80842e-07
-1.44543e-06
-1.03312e-05
-2.04825e-07
-7.89031e-07
-1.07124e-05
-2.25142e-07
-1.10783e-07
-1.09585e-05
-2.42237e-07
5.77089e-07
-1.10826e-05
-2.56141e-07
1.26344e-06
-1.10914e-05
-2.66713e-07
1.93762e-06
-1.09879e-05
-2.73696e-07
2.58873e-06
-1.07721e-05
-2.76703e-07
3.20441e-06
-1.04407e-05
-2.75242e-07
3.76934e-06
-9.98757e-06
-2.68591e-07
4.26393e-06
-9.40422e-06
-2.55607e-07
4.66358e-06
-8.6813e-06
-2.3463e-07
4.93802e-06
-7.81099e-06
-2.02852e-07
5.05107e-06
-6.78996e-06
-1.55684e-07
4.96509e-06
-5.62471e-06
-8.80961e-08
4.66338e-06
-4.33481e-06
-4.34584e-10
4.15297e-06
-2.93818e-06
1.41806e-07
3.56747e-06
-1.40009e-06
3.2144e-07
3.07674e-06
4.30488e-07
5.4678e-07
2.56956e-06
2.65425e-06
7.69616e-07
1.7323e-06
4.61931e-06
8.54301e-07
6.83425e-07
5.1179e-06
7.01318e-07
3.03153e-06
3.12628e-07
9.7536e-07
3.0439e-06
-3.17166e-08
2.59195e-06
7.15231e-06
3.75544e-08
3.97965e-06
9.05562e-06
1.16699e-07
4.84489e-06
9.29827e-06
1.44137e-07
4.95231e-06
8.25263e-06
1.33693e-07
4.69377e-06
5.91351e-06
1.26142e-07
4.57411e-06
2.60945e-06
1.5924e-07
4.69746e-06
-1.01897e-06
1.93695e-07
4.82983e-06
-4.18527e-06
1.7663e-07
4.88128e-06
-6.44444e-06
1.16634e-07
4.87992e-06
-7.96608e-06
4.7179e-08
4.8942e-06
-9.02439e-06
-1.3323e-08
4.98256e-06
-9.80354e-06
-7.18476e-08
5.15855e-06
-1.03892e-05
-1.17399e-07
5.41671e-06
-1.08144e-05
-1.55757e-07
5.74238e-06
-1.10952e-05
-1.88534e-07
6.11963e-06
-1.12429e-05
-2.16492e-07
6.53379e-06
-1.12651e-05
-2.40087e-07
6.97115e-06
-1.11653e-05
-2.59661e-07
7.41738e-06
-1.09425e-05
-2.75509e-07
7.85546e-06
-1.05906e-05
-2.87878e-07
8.26296e-06
-1.00978e-05
-2.96905e-07
8.61038e-06
-9.44877e-06
-3.02515e-07
8.86089e-06
-8.62717e-06
-3.04253e-07
8.97203e-06
-7.62072e-06
-3.01015e-07
8.90007e-06
-6.42752e-06
-2.90046e-07
8.60814e-06
-5.06658e-06
-2.65741e-07
8.07357e-06
-3.58024e-06
-2.19506e-07
7.28704e-06
-2.01133e-06
-1.39756e-07
6.27804e-06
-3.77498e-07
-1.2907e-08
4.99833e-06
1.53566e-06
1.75374e-07
3.56287e-06
3.67456e-06
4.16018e-07
2.04388e-06
5.54014e-06
5.98832e-07
6.82296e-07
5.93687e-06
5.42853e-07
3.48545e-06
2.2848e-07
4.25938e-08
2.92367e-06
7.69971e-08
5.28085e-07
6.52288e-06
1.43777e-07
1.24118e-06
8.13131e-06
2.10808e-07
2.03022e-06
8.22905e-06
2.79844e-07
3.07395e-06
6.84657e-06
3.62952e-07
4.55353e-06
3.97015e-06
4.66435e-07
6.17013e-06
4.70556e-07
5.27264e-07
7.38502e-06
-2.71814e-06
4.89901e-07
7.87921e-06
-5.0539e-06
3.78846e-07
7.87286e-06
-6.68694e-06
2.51486e-07
7.66929e-06
-7.90119e-06
1.4003e-07
7.47058e-06
-8.87564e-06
5.06423e-08
7.36015e-06
-9.6732e-06
-1.94898e-08
7.35327e-06
-1.03061e-05
-7.58459e-08
7.44081e-06
-1.07783e-05
-1.23311e-07
7.60696e-06
-1.1098e-05
-1.63113e-07
7.83617e-06
-1.12755e-05
-1.96375e-07
8.11426e-06
-1.13188e-05
-2.24091e-07
8.42747e-06
-1.1231e-05
-2.47158e-07
8.76033e-06
-1.10086e-05
-2.66389e-07
9.09261e-06
-1.064e-05
-2.82565e-07
9.39566e-06
-1.01041e-05
-2.96475e-07
9.62982e-06
-9.37369e-06
-3.08939e-07
9.74447e-06
-8.42063e-06
-3.20883e-07
9.67985e-06
-7.22216e-06
-3.33612e-07
9.37451e-06
-5.77383e-06
-3.48014e-07
8.78461e-06
-4.11466e-06
-3.61671e-07
7.90051e-06
-2.33026e-06
-3.65478e-07
6.73094e-06
-4.98681e-07
-3.42595e-07
5.22245e-06
1.40184e-06
-2.70352e-07
3.51833e-06
3.36375e-06
-1.23751e-07
1.83646e-06
5.26867e-06
8.72682e-08
6.0478e-07
6.50575e-06
2.64842e-07
-2.50677e-08
6.30591e-06
2.59157e-07
3.3863e-06
7.2293e-08
-6.02317e-07
3.30103e-06
2.24506e-07
-1.11742e-06
6.63851e-06
4.0004e-07
-1.09674e-06
7.59973e-06
5.1227e-07
-3.45505e-07
6.84355e-06
6.37317e-07
1.30239e-06
4.45979e-06
7.44564e-07
3.22899e-06
1.29506e-06
7.55596e-07
4.60548e-06
-1.54488e-06
6.45094e-07
5.0833e-06
-3.66634e-06
4.73984e-07
4.96348e-06
-5.24469e-06
3.12071e-07
4.64573e-06
-6.55099e-06
1.82228e-07
4.37237e-06
-7.70802e-06
8.03401e-08
4.22236e-06
-8.72233e-06
-3.11956e-09
4.17577e-06
-9.57121e-06
-5.5133e-08
4.21511e-06
-1.02444e-05
-1.00804e-07
4.32223e-06
-1.07471e-05
-1.38015e-07
4.48357e-06
-1.10916e-05
-1.6741e-07
4.68758e-06
-1.12891e-05
-1.90102e-07
4.92246e-06
-1.13462e-05
-2.07248e-07
5.17479e-06
-1.12633e-05
-2.19782e-07
5.42814e-06
-1.1033e-05
-2.28739e-07
5.66016e-06
-1.06367e-05
-2.35037e-07
5.83997e-06
-1.00441e-05
-2.39574e-07
5.92821e-06
-9.21819e-06
-2.43474e-07
5.87695e-06
-8.12032e-06
-2.48771e-07
5.62751e-06
-6.71279e-06
-2.59655e-07
5.11758e-06
-4.98097e-06
-2.82718e-07
4.31178e-06
-2.98704e-06
-3.21702e-07
3.2338e-06
-8.85937e-07
-3.66356e-07
2.00626e-06
1.11832e-06
-3.89604e-07
7.80025e-07
2.99178e-06
-3.64138e-07
-3.02695e-07
4.72383e-06
-2.78364e-07
-9.76352e-07
6.08392e-06
-1.43429e-07
-1.05131e-06
6.5867e-06
-8.62618e-09
-5.87001e-07
5.82957e-06
8.85226e-09
2.85335e-06
-5.70383e-08
-7.00826e-07
3.67163e-06
3.3038e-07
-1.43242e-06
6.71631e-06
6.56015e-07
-1.57923e-06
6.92882e-06
8.22214e-07
-9.32227e-07
5.30479e-06
8.98372e-07
9.76737e-08
2.60119e-06
8.35634e-07
7.10913e-07
2.98327e-08
6.56898e-07
6.2002e-07
-1.90389e-06
4.5222e-07
1.40944e-07
-3.46605e-06
2.7958e-07
-3.63617e-07
-4.88532e-06
1.45483e-07
-7.18995e-07
-6.23488e-06
3.954e-08
-9.12782e-07
-7.4798e-06
-3.41083e-08
-9.83494e-07
-8.56462e-06
-8.66512e-08
-9.69102e-07
-9.4594e-06
-1.25864e-07
-8.96249e-07
-1.01632e-05
-1.53654e-07
-7.81526e-07
-1.06891e-05
-1.72433e-07
-6.36542e-07
-1.10526e-05
-1.83732e-07
-4.70484e-07
-1.12659e-05
-1.8895e-07
-2.92048e-07
-1.1335e-05
-1.8932e-07
-1.11103e-07
-1.12583e-05
-1.85692e-07
5.97892e-08
-1.10251e-05
-1.78515e-07
2.04775e-07
-1.06133e-05
-1.68074e-07
3.06575e-07
-9.9912e-06
-1.54337e-07
3.50948e-07
-9.12479e-06
-1.374e-07
3.27562e-07
-7.97757e-06
-1.18943e-07
2.21425e-07
-6.50143e-06
-1.04807e-07
2.18088e-09
-4.65451e-06
-1.06921e-07
-3.71533e-07
-2.47438e-06
-1.38969e-07
-9.29003e-07
-1.30745e-07
-1.98184e-07
-1.53779e-06
1.97996e-06
-2.53698e-07
-2.0494e-06
3.77657e-06
-2.7436e-07
-2.24067e-06
5.16935e-06
-2.55825e-07
-1.95539e-06
6.01237e-06
-2.1571e-07
-1.32175e-06
6.12361e-06
-1.73023e-07
-5.01318e-07
5.15417e-06
-1.47808e-07
2.45188e-06
-1.0196e-07
-5.81414e-07
3.91644e-06
3.37307e-07
-1.28576e-06
6.70109e-06
7.2297e-07
-1.69866e-06
6.48353e-06
8.63445e-07
-1.82793e-06
4.64781e-06
7.9191e-07
-2.1132e-06
2.31767e-06
5.72695e-07
-2.76046e-06
3.40955e-07
3.37919e-07
-3.54256e-06
-1.26717e-06
1.45972e-07
-4.24324e-06
-2.76177e-06
-3.43497e-09
-4.79362e-06
-4.24454e-06
-9.02937e-08
-5.17562e-06
-5.70154e-06
-1.51223e-07
-5.40033e-06
-7.06694e-06
-1.87969e-07
-5.48831e-06
-8.26831e-06
-2.08109e-07
-5.46995e-06
-9.26027e-06
-2.17243e-07
-5.37806e-06
-1.00359e-05
-2.18923e-07
-5.23922e-06
-1.06126e-05
-2.1512e-07
-5.07152e-06
-1.1013e-05
-2.06981e-07
-4.88576e-06
-1.1256e-05
-1.95387e-07
-4.68868e-06
-1.13508e-05
-1.80977e-07
-4.48569e-06
-1.12969e-05
-1.64123e-07
-4.28263e-06
-1.10831e-05
-1.44792e-07
-4.08537e-06
-1.06879e-05
-1.22429e-07
-3.89592e-06
-1.00844e-05
-9.59632e-08
-3.70594e-06
-9.25045e-06
-6.3914e-08
-3.49204e-06
-8.16606e-06
-2.4879e-08
-3.21617e-06
-6.79404e-06
1.73987e-08
-2.84697e-06
-5.07465e-06
5.16503e-08
-2.41108e-06
-2.974e-06
6.42349e-08
-1.98664e-06
-5.92447e-07
3.72184e-08
-1.75737e-06
1.77207e-06
-2.2127e-08
-1.65141e-06
3.75844e-06
-8.90972e-08
-1.48933e-06
5.13394e-06
-1.28269e-07
-1.13116e-06
5.80001e-06
-1.47599e-07
-6.38058e-07
5.78281e-06
-1.54214e-07
-1.72001e-07
4.82017e-06
-1.33839e-07
2.344e-06
-6.49758e-08
-2.91769e-07
3.96415e-06
2.44449e-07
-8.79443e-07
6.72184e-06
5.69584e-07
-1.57053e-06
6.54489e-06
6.33465e-07
-2.38029e-06
5.00476e-06
4.56161e-07
-3.32576e-06
3.0673e-06
1.97756e-07
-4.31236e-06
1.34795e-06
-1.96449e-08
-5.2078e-06
-1.9936e-07
-1.72168e-07
-6.00797e-06
-1.69561e-06
-2.65992e-07
-6.69252e-06
-3.25005e-06
-3.09973e-07
-7.23238e-06
-4.84349e-06
-3.18188e-07
-7.60062e-06
-6.39195e-06
-3.06691e-07
-7.79659e-06
-7.78404e-06
-2.88169e-07
-7.84713e-06
-8.94055e-06
-2.69007e-07
-7.7906e-06
-9.84159e-06
-2.50665e-07
-7.66279e-06
-1.05077e-05
-2.32427e-07
-7.49002e-06
-1.0972e-05
-2.13523e-07
-7.28783e-06
-1.12642e-05
-1.93726e-07
-7.06373e-06
-1.14018e-05
-1.72872e-07
-6.82057e-06
-1.1389e-05
-1.50718e-07