/*--------------------------------*- C++ -*----------------------------------*\
| =========                 |                                                 |
| \\      /  F ield         | OpenFOAM: The Open Source CFD Toolbox           |
|  \\    /   O peration     | Version:  v2006                                 |
|   \\  /    A nd           | Website:  www.openfoam.com                      |
|    \\/     M anipulation  |                                                 |
\*---------------------------------------------------------------------------*/
FoamFile
{
    version     2.0;
    format      ascii;
    class       volScalarField;
    location    "10";
    object      T;
}
// * * * * * * * * * * * * * * * * * * * * * * * * * * * * * * * * * * * * * //

dimensions      [0 0 0 1 0 0 0];


internalField   nonuniform List<scalar> 
78750
(
296.415
294.425
294.915
294.783
294.764
294.75
294.741
294.733
294.727
294.722
294.717
294.712
294.708
294.704
294.7
294.696
294.693
294.689
294.686
294.683
294.679
294.676
294.672
294.668
294.664
294.659
294.654
294.648
294.641
294.632
294.621
294.622
294.716
295.111
295.937
298.423
296.35
295.451
295.113
294.96
294.886
294.848
294.824
294.807
294.793
294.782
294.773
294.765
294.758
294.753
294.748
294.744
294.74
294.737
294.734
294.732
294.729
294.726
294.722
294.717
294.71
294.702
294.691
294.679
294.666
294.664
294.698
294.838
295.207
295.96
298.773
296.897
295.773
295.176
294.907
294.799
294.755
294.732
294.717
294.706
294.698
294.69
294.684
294.679
294.676
294.674
294.673
294.673
294.674
294.676
294.679
294.683
294.687
294.693
294.699
294.707
294.717
294.731
294.752
294.788
294.854
294.976
295.204
295.633
296.413
298.765
297.003
295.968
295.347
295.016
294.863
294.797
294.767
294.75
294.737
294.723
294.71
294.697
294.686
294.677
294.67
294.665
294.663
294.662
294.662
294.663
294.665
294.668
294.672
294.676
294.682
294.69
294.702
294.724
294.764
294.841
294.98
295.215
295.639
296.424
299.065
297.564
296.629
296.01
295.583
295.304
295.119
294.987
294.885
294.802
294.735
294.685
294.649
294.625
294.61
294.602
294.6
294.603
294.611
294.621
294.633
294.647
294.663
294.68
294.701
294.726
294.756
294.796
294.85
294.93
295.05
295.229
295.501
295.962
296.765
299.132
297.695
296.809
296.19
295.705
295.36
295.124
294.961
294.843
294.755
294.687
294.633
294.592
294.561
294.541
294.528
294.523
294.527
294.536
294.551
294.57
294.591
294.615
294.641
294.67
294.704
294.746
294.8
294.873
294.974
295.116
295.312
295.59
296.052
296.865
299.246
297.939
297.118
296.536
296.049
295.671
295.386
295.171
295.002
294.861
294.737
294.625
294.528
294.457
294.412
294.392
294.39
294.401
294.423
294.455
294.496
294.542
294.593
294.644
294.697
294.753
294.817
294.892
294.987
295.11
295.274
295.49
295.788
296.27
297.093
299.279
298.019
297.238
296.67
296.153
295.721
295.381
295.108
294.871
294.661
294.507
294.425
294.406
294.422
294.451
294.477
294.491
294.491
294.481
294.465
294.453
294.455
294.477
294.526
294.598
294.687
294.786
294.897
295.029
295.19
295.386
295.622
295.927
296.417
297.254
299.312
298.112
297.346
296.786
296.271
295.794
295.35
294.953
294.669
294.554
294.579
294.676
294.785
294.873
294.931
294.961
294.97
294.96
294.933
294.888
294.828
294.757
294.683
294.622
294.594
294.617
294.708
294.859
295.043
295.232
295.441
295.695
296.02
296.516
297.351
299.307
298.09
297.29
296.674
296.076
295.521
295.066
294.787
294.705
294.758
294.853
294.927
294.968
294.987
294.996
295
295.004
295.008
295.012
295.014
295.01
294.997
294.968
294.919
294.85
294.769
294.695
294.665
294.72
294.888
295.154
295.491
295.896
296.466
297.348
299.333
298.139
297.308
296.649
295.993
295.393
294.979
294.805
294.8
294.854
294.902
294.933
294.954
294.97
294.981
294.988
294.991
294.991
294.987
294.98
294.971
294.96
294.947
294.928
294.899
294.853
294.784
294.712
294.693
294.8
295.063
295.438
295.89
296.508
297.415
299.321
298.099
297.226
296.501
295.792
295.244
294.965
294.912
294.962
295.023
295.07
295.104
295.127
295.142
295.151
295.156
295.157
295.154
295.148
295.139
295.125
295.106
295.081
295.048
295.006
294.953
294.885
294.811
294.77
294.832
295.059
295.446
295.934
296.583
297.508
299.32
298.093
297.182
296.404
295.671
295.191
295.012
295.009
295.048
295.078
295.096
295.104
295.108
295.109
295.108
295.108
295.107
295.106
295.104
295.102
295.099
295.093
295.084
295.068
295.044
295.007
294.958
294.908
294.892
294.968
295.198
295.587
296.081
296.737
297.653
299.275
297.978
296.985
296.144
295.463
295.139
295.088
295.126
295.162
295.183
295.195
295.202
295.206
295.208
295.208
295.207
295.205
295.202
295.197
295.191
295.184
295.175
295.163
295.147
295.125
295.096
295.059
295.022
295.014
295.089
295.304
295.684
296.18
296.834
297.74
299.255
297.896
296.81
295.946
295.379
295.187
295.189
295.221
295.236
295.236
295.23
295.222
295.216
295.21
295.206
295.202
295.199
295.197
295.196
295.196
295.195
295.194
295.192
295.187
295.176
295.158
295.132
295.102
295.09
295.148
295.344
295.716
296.221
296.88
297.776
299.311
297.97
296.892
296.042
295.495
295.322
295.328
295.353
295.348
295.325
295.3
295.281
295.267
295.257
295.25
295.244
295.239
295.236
295.233
295.232
295.231
295.231
295.232
295.233
295.232
295.226
295.212
295.187
295.161
295.168
295.286
295.605
296.125
296.82
297.717
299.46
298.348
297.413
296.641
296.049
295.738
295.633
295.591
295.526
295.443
295.373
295.327
295.297
295.279
295.266
295.257
295.251
295.247
295.245
295.245
295.247
295.25
295.256
295.262
295.269
295.273
295.27
295.257
295.231
295.208
295.246
295.459
295.935
296.644
297.557
299.547
298.636
297.827
297.161
296.631
296.286
296.092
295.919
295.724
295.549
295.429
295.358
295.318
295.296
295.281
295.272
295.265
295.261
295.259
295.26
295.264
295.271
295.281
295.294
295.31
295.325
295.334
295.333
295.316
295.289
295.286
295.411
295.802
296.483
297.408
299.565
298.733
298.026
297.477
297.035
296.651
296.284
295.927
295.641
295.464
295.375
295.333
295.312
295.298
295.288
295.28
295.274
295.272
295.272
295.275
295.283
295.295
295.312
295.335
295.363
295.391
295.411
295.413
295.396
295.368
295.373
295.511
295.905
296.588
297.538
299.555
298.735
298.08
297.516
296.94
296.372
295.894
295.583
295.435
295.38
295.359
295.345
295.329
295.314
295.3
295.29
295.284
295.282
295.284
295.29
295.302
295.32
295.349
295.388
295.438
295.49
295.527
295.536
295.525
295.529
295.613
295.858
296.286
296.947
297.936
299.506
298.604
297.834
297.098
296.386
295.862
295.583
295.477
295.441
295.42
295.396
295.369
295.344
295.324
295.309
295.298
295.293
295.291
295.294
295.302
295.317
295.341
295.378
295.434
295.509
295.597
295.678
295.733
295.773
295.843
296.007
296.312
296.778
297.471
298.446
299.391
298.306
297.379
296.571
295.981
295.682
295.57
295.53
295.504
295.473
295.437
295.401
295.37
295.344
295.325
295.312
295.304
295.301
295.303
295.309
295.322
295.344
295.379
295.435
295.518
295.634
295.771
295.907
296.03
296.167
296.378
296.699
297.169
297.87
298.824
299.3
298.081
297.109
296.366
295.92
295.727
295.655
295.618
295.583
295.54
295.491
295.442
295.4
295.366
295.342
295.326
295.315
295.31
295.31
295.314
295.324
295.341
295.367
295.408
295.473
295.577
295.728
295.924
296.144
296.377
296.649
296.999
297.477
298.161
299.081
299.294
298.045
297.118
296.453
296.051
295.868
295.788
295.742
295.695
295.638
295.572
295.504
295.446
295.4
295.368
295.346
295.332
295.324
295.322
295.325
295.333
295.347
295.367
295.397
295.439
295.507
295.618
295.793
296.041
296.35
296.706
297.123
297.626
298.282
299.151
299.334
298.124
297.31
296.729
296.314
296.086
295.965
295.887
295.818
295.739
295.651
295.563
295.487
295.43
295.389
295.361
295.344
295.334
295.33
295.332
295.339
295.353
295.374
295.403
295.44
295.489
295.563
295.684
295.88
296.172
296.56
297.027
297.554
298.19
299.026
299.396
298.274
297.547
297.029
296.615
296.342
296.171
296.053
295.949
295.839
295.723
295.614
295.524
295.457
295.41
295.379
295.358
295.347
295.341
295.342
295.349
295.362
295.383
295.411
295.448
295.494
295.555
295.643
295.784
296.011
296.351
296.804
297.329
297.957
298.788
299.461
298.445
297.759
297.278
296.885
296.588
296.375
296.209
296.058
295.906
295.759
295.635
295.539
295.47
295.422
295.389
295.367
295.355
295.349
295.35
295.358
295.372
295.395
295.426
295.467
295.516
295.577
295.658
295.776
295.959
296.244
296.649
297.147
297.761
298.594
299.508
298.576
297.915
297.457
297.082
296.768
296.517
296.305
296.108
295.924
295.766
295.642
295.55
295.483
295.435
295.401
295.378
295.365
295.359
295.36
295.368
295.383
295.407
295.442
295.486
295.54
295.605
295.688
295.801
295.97
296.225
296.596
297.064
297.66
298.495
299.542
298.67
298.027
297.583
297.217
296.888
296.603
296.351
296.125
295.929
295.772
295.652
295.563
295.495
295.445
295.409
295.385
295.371
295.365
295.367
295.376
295.393
295.42
295.459
295.509
295.569
295.641
295.731
295.849
296.019
296.269
296.626
297.074
297.652
298.492
299.567
298.739
298.108
297.669
297.302
296.956
296.644
296.369
296.131
295.938
295.786
295.67
295.58
295.51
295.457
295.419
295.394
295.379
295.373
295.375
295.384
295.403
295.433
295.476
295.531
295.598
295.677
295.775
295.901
296.077
296.332
296.688
297.123
297.691
298.539
299.591
298.803
298.183
297.746
297.377
297.018
296.69
296.405
296.166
295.974
295.821
295.7
295.602
295.526
295.469
295.427
295.4
295.384
295.378
295.379
295.39
295.411
295.444
295.492
295.552
295.626
295.713
295.818
295.955
296.142
296.407
296.77
297.197
297.758
298.621
299.614
298.864
298.255
297.822
297.453
297.086
296.75
296.46
296.22
296.022
295.86
295.728
295.623
295.54
295.478
295.435
295.406
295.39
295.383
295.386
295.397
295.421
295.457
295.509
295.576
295.655
295.749
295.862
296.007
296.204
296.479
296.852
297.277
297.838
298.718
299.636
298.924
298.329
297.903
297.539
297.172
296.832
296.539
296.29
296.079
295.902
295.756
295.641
295.551
295.485
295.439
295.41
295.393
295.387
295.39
295.403
295.429
295.469
295.527
295.599
295.686
295.787
295.908
296.061
296.268
296.556
296.939
297.367
297.933
298.834
299.655
298.977
298.397
297.979
297.623
297.258
296.917
296.615
296.35
296.119
295.924
295.767
295.645
295.553
295.486
295.44
295.411
295.396
295.39
295.395
295.411
295.441
295.487
295.551
295.631
295.724
295.832
295.96
296.12
296.336
296.634
297.028
297.463
298.039
298.961
299.673
299.027
298.465
298.054
297.703
297.339
296.99
296.67
296.381
296.129
295.923
295.761
295.639
295.548
295.483
295.438
295.411
295.397
295.394
295.401
295.42
295.455
295.508
295.58
295.669
295.772
295.889
296.025
296.194
296.418
296.727
297.128
297.571
298.162
299.107
299.687
299.071
298.529
298.123
297.767
297.39
297.019
296.671
296.359
296.096
295.89
295.734
295.618
295.533
295.473
295.433
295.409
295.398
295.398
295.409
295.433
295.475
295.537
295.619
295.719
295.833
295.959
296.103
296.281
296.515
296.833
297.24
297.692
298.302
299.266
299.691
299.093
298.569
298.16
297.786
297.38
296.978
296.606
296.286
296.032
295.84
295.699
295.595
295.518
295.463
295.428
295.408
295.4
295.403
295.419
295.449
295.5
295.573
295.669
295.782
295.908
296.047
296.203
296.391
296.636
296.962
297.369
297.83
298.463
299.44
299.679
299.072
298.552
298.13
297.724
297.285
296.86
296.486
296.184
295.955
295.787
295.663
295.57
295.502
295.453
295.422
295.406
295.402
295.41
295.431
295.469
295.531
295.618
295.729
295.857
295.997
296.149
296.318
296.52
296.777
297.111
297.514
297.981
298.638
299.622
299.651
299.006
298.473
298.031
297.592
297.132
296.709
296.358
296.088
295.89
295.745
295.636
295.553
295.49
295.446
295.419
295.407
295.406
295.418
295.445
295.492
295.566
295.669
295.797
295.943
296.1
296.267
296.451
296.668
296.938
297.278
297.673
298.143
298.822
299.805
299.614
298.909
298.359
297.9
297.436
296.971
296.568
296.252
296.017
295.846
295.718
295.619
295.541
295.482
295.441
295.417
295.407
295.41
295.426
295.459
295.515
295.602
295.721
295.867
296.031
296.206
296.391
296.592
296.824
297.107
297.451
297.836
298.307
299.002
299.978
299.578
298.808
298.246
297.781
297.302
296.845
296.469
296.185
295.978
295.825
295.708
295.613
295.538
295.48
295.44
295.417
295.409
295.414
295.433
295.47
295.534
295.632
295.766
295.93
296.115
296.311
296.515
296.734
296.983
297.276
297.621
297.996
298.465
299.169
300.132
299.549
298.726
298.156
297.69
297.207
296.765
296.414
296.156
295.968
295.826
295.712
295.618
295.541
295.482
295.442
295.419
295.41
295.416
295.436
295.475
295.543
295.649
295.794
295.975
296.181
296.4
296.626
296.864
297.129
297.432
297.774
298.142
298.608
299.313
300.261
299.531
298.674
298.098
297.635
297.158
296.732
296.402
296.161
295.984
295.846
295.732
295.635
295.554
295.491
295.447
295.422
295.412
295.416
295.435
295.474
295.542
295.649
295.8
295.993
296.218
296.461
296.712
296.972
297.252
297.564
297.904
298.266
298.728
299.429
300.361
299.525
298.653
298.07
297.612
297.151
296.742
296.427
296.195
296.022
295.884
295.766
295.663
295.576
295.506
295.457
295.427
295.414
295.415
295.431
295.466
295.528
295.63
295.779
295.976
296.215
296.482
296.76
297.045
297.343
297.665
298.006
298.363
298.822
299.514
300.43
299.53
298.66
298.071
297.622
297.184
296.79
296.484
296.256
296.082
295.94
295.815
295.704
295.608
295.53
295.472
295.436
295.418
295.414
295.425
295.454
295.508
295.599
295.737
295.928
296.171
296.454
296.76
297.074
297.395
297.731
298.077
298.434
298.888
299.571
300.473
299.543
298.689
298.095
297.658
297.248
296.869
296.568
296.34
296.161
296.012
295.879
295.758
295.65
295.561
295.494
295.449
295.424
295.415
295.421
295.442
295.486
295.563
295.683
295.858
296.091
296.378
296.705
297.049
297.401
297.759
298.119
298.478
298.928
299.6
300.49
299.56
298.732
298.136
297.715
297.335
296.972
296.674
296.442
296.256
296.098
295.955
295.822
295.702
295.601
295.521
295.466
295.434
295.419
295.418
295.433
295.467
295.529
295.63
295.782
295.993
296.268
296.6
296.969
297.354
297.743
298.127
298.497
298.944
299.606
300.483
299.58
298.783
298.19
297.785
297.434
297.089
296.794
296.557
296.362
296.194
296.039
295.894
295.761
295.645
295.553
295.487
295.446
295.424
295.419
295.427
295.453
295.502
295.586
295.714
295.898
296.147
296.466
296.842
297.253
297.677
298.096
298.485
298.935
299.587
300.455
299.601
298.837
298.252
297.861
297.534
297.209
296.919
296.677
296.473
296.293
296.125
295.967
295.82
295.691
295.587
295.51
295.46
295.432
295.421
295.425
295.444
295.485
295.555
295.664
295.823
296.043
296.334
296.697
297.117
297.568
298.024
298.442
298.904
299.547
300.407
299.62
298.889
298.315
297.935
297.627
297.322
297.038
296.792
296.579
296.387
296.206
296.033
295.873
295.732
295.618
295.531
295.473
295.44
295.425
295.425
295.44
295.474
295.534
295.631
295.772
295.968
296.23
296.567
296.977
297.438
297.921
298.372
298.851
299.487
300.343
299.636
298.935
298.375
298.003
297.709
297.421
297.144
296.896
296.673
296.468
296.273
296.087
295.915
295.765
295.642
295.549
295.485
295.447
295.429
295.426
295.438
295.468
295.524
295.613
295.744
295.924
296.165
296.476
296.864
297.32
297.814
298.293
298.786
299.416
300.274
299.649
298.973
298.427
298.062
297.778
297.503
297.232
296.98
296.748
296.53
296.322
296.124
295.943
295.788
295.66
295.563
295.494
295.453
295.432
295.427
295.438
295.465
295.518
295.603
295.73
295.904
296.133
296.428
296.795
297.236
297.73
298.224
298.723
299.348
300.213
299.66
299.005
298.471
298.112
297.835
297.568
297.301
297.045
296.803
296.573
296.353
296.147
295.963
295.805
295.675
295.574
295.502
295.458
295.435
295.429
295.438
295.464
295.515
295.599
295.724
295.897
296.125
296.412
296.768
297.195
297.681
298.178
298.676
299.298
300.173
299.669
299.032
298.508
298.153
297.881
297.619
297.354
297.093
296.843
296.603
296.376
296.167
295.982
295.823
295.691
295.587
295.511
295.463
295.438
295.43
295.438
295.463
295.511
295.593
295.717
295.891
296.122
296.412
296.766
297.186
297.665
298.159
298.653
299.273
300.159
299.679
299.058
298.542
298.191
297.921
297.663
297.399
297.134
296.878
296.633
296.404
296.196
296.011
295.851
295.715
295.605
295.523
295.471
295.442
295.432
295.437
295.459
295.504
295.582
295.703
295.875
296.108
296.404
296.765
297.189
297.666
298.159
298.65
299.269
300.165
299.69
299.086
298.578
298.228
297.962
297.708
297.446
297.181
296.923
296.677
296.45
296.243
296.058
295.893
295.75
295.631
295.541
295.481
295.447
295.433
295.436
295.454
295.495
295.566
295.678
295.843
296.071
296.37
296.742
297.177
297.664
298.164
298.656
299.276
300.18
299.702
299.118
298.619
298.27
298.007
297.76
297.504
297.243
296.986
296.743
296.518
296.313
296.125
295.952
295.797
295.665
295.564
295.494
295.454
295.436
295.435
295.449
295.484
295.548
295.65
295.8
296.013
296.305
296.681
297.132
297.639
298.159
298.66
299.28
300.191
299.717
299.156
298.667
298.319
298.06
297.821
297.575
297.321
297.07
296.832
296.609
296.403
296.209
296.024
295.854
295.706
295.59
295.51
295.462
295.439
295.434
295.445
295.475
295.532
295.622
295.756
295.949
296.219
296.586
297.046
297.578
298.132
298.648
299.27
300.192
299.731
299.195
298.719
298.373
298.117
297.889
297.655
297.412
297.169
296.935
296.714
296.504
296.299
296.099
295.91
295.745
295.615
295.525
295.47
295.443
295.435
295.443
295.47
295.522
295.605
295.726
295.896
296.138
296.479
296.933
297.483
298.077
298.614
299.245
300.18
299.743
299.231
298.77
298.427
298.176
297.956
297.735
297.504
297.269
297.039
296.817
296.599
296.379
296.159
295.951
295.77
295.63
295.533
295.474
295.445
295.435
295.442
295.468
295.519
295.599
295.714
295.87
296.086
296.394
296.824
297.376
298.003
298.565
299.21
300.164
299.753
299.26
298.814
298.476
298.229
298.017
297.806
297.585
297.357
297.128
296.9
296.668
296.427
296.184
295.959
295.77
295.627
295.53
295.472
295.444
295.435
295.444
295.472
295.525
295.607
295.723
295.874
296.074
296.355
296.754
297.293
297.934
298.518
299.182
300.156
299.758
299.28
298.846
298.514
298.271
298.065
297.862
297.647
297.421
297.188
296.946
296.69
296.422
296.159
295.927
295.74
295.605
295.516
295.464
295.441
295.436
295.449
295.481
295.54
295.631
295.753
295.908
296.104
296.369
296.744
297.263
297.902
298.495
299.175
300.171
299.76
299.289
298.864
298.538
298.3
298.098
297.898
297.684
297.452
297.203
296.935
296.648
296.355
296.086
295.862
295.691
295.572
295.496
295.455
295.438
295.439
295.457
295.498
295.567
295.67
295.805
295.971
296.174
296.436
296.798
297.299
297.925
298.516
299.205
300.221
299.76
299.29
298.871
298.55
298.316
298.116
297.913
297.69
297.439
297.161
296.858
296.544
296.245
295.99
295.788
295.64
295.539
295.478
295.447
295.437
295.444
295.47
295.52
295.603
295.722
295.875
296.059
296.275
296.546
296.907
297.397
298.001
298.584
299.282
300.314
299.758
299.287
298.87
298.553
298.32
298.118
297.904
297.66
297.378
297.065
296.735
296.414
296.131
295.901
295.726
295.599
295.514
295.465
295.442
295.439
295.452
295.486
295.548
295.646
295.783
295.957
296.162
296.4
296.686
297.056
297.54
298.114
298.69
299.403
300.44
299.756
299.283
298.867
298.551
298.318
298.107
297.875
297.6
297.284
296.945
296.608
296.301
296.044
295.84
295.683
295.571
295.498
295.457
295.44
295.442
295.461
295.503
295.576
295.688
295.843
296.037
296.267
296.53
296.839
297.223
297.704
298.247
298.813
299.544
300.578
299.756
299.283
298.866
298.549
298.312
298.09
297.833
297.528
297.189
296.842
296.516
296.231
295.995
295.805
295.659
295.555
295.489
295.453
295.44
295.446
295.469
295.517
295.598
295.721
295.888
296.101
296.355
296.646
296.981
297.382
297.863
298.377
298.932
299.678
300.706
299.757
299.286
298.868
298.55
298.307
298.073
297.795
297.469
297.121
296.781
296.471
296.201
295.974
295.79
295.648
295.547
295.485
295.452
295.441
295.449
295.475
295.527
295.613
295.741
295.914
296.137
296.411
296.728
297.091
297.512
297.996
298.49
299.034
299.789
300.813
299.758
299.289
298.873
298.552
298.306
298.062
297.769
297.435
297.089
296.76
296.459
296.195
295.969
295.783
295.641
295.542
295.482
295.451
295.442
295.451
295.48
295.535
295.624
295.753
295.926
296.151
296.433
296.77
297.158
297.6
298.091
298.576
299.115
299.876
300.896
299.758
299.29
298.875
298.553
298.304
298.056
297.756
297.421
297.082
296.758
296.46
296.193
295.962
295.774
295.632
295.535
295.478
295.45
295.443
295.454
295.485
295.544
295.637
295.766
295.937
296.156
296.436
296.781
297.187
297.649
298.152
298.638
299.176
299.941
300.961
299.754
299.283
298.869
298.547
298.297
298.045
297.742
297.409
297.073
296.749
296.445
296.171
295.937
295.75
295.614
295.523
295.471
295.448
295.444
295.459
295.495
295.559
295.658
295.793
295.963
296.176
296.446
296.787
297.2
297.676
298.192
298.684
299.226
299.996
301.018
299.748
299.267
298.85
298.53
298.279
298.022
297.715
297.379
297.039
296.706
296.393
296.116
295.886
295.71
295.585
295.506
295.462
295.445
295.447
295.467
295.51
295.584
295.695
295.839
296.015
296.227
296.488
296.819
297.228
297.71
298.233
298.728
299.275
300.053
301.076
299.738
299.242
298.817
298.498
298.244
297.977
297.658
297.311
296.957
296.612
296.297
296.028
295.816
295.659
295.551
295.486
295.453
295.443
295.452
295.48
295.534
295.622
295.75
295.911
296.099
296.316
296.575
296.897
297.298
297.777
298.297
298.788
299.336
300.123
301.146
299.725
299.209
298.772
298.454
298.193
297.906
297.565
297.198
296.829
296.481
296.178
295.932
295.745
295.611
295.522
295.47
295.447
295.445
295.461
295.498
295.565
295.672
295.821
296.005
296.213
296.443
296.706
297.026
297.42
297.889
298.396
298.873
299.417
300.212
301.231
299.713
299.173
298.721
298.4
298.126
297.811
297.442
297.056
296.683
296.349
296.072
295.855
295.692
295.576
295.501
295.46
295.444
295.448
295.471
295.518
295.6
295.727
295.9
296.109
296.343
296.593
296.869
297.192
297.583
298.04
298.522
298.978
299.517
300.316
301.325
299.701
299.139
298.671
298.344
298.055
297.709
297.318
296.926
296.564
296.255
296.004
295.808
295.661
295.556
295.49
295.455
295.444
295.453
295.48
295.534
295.628
295.771
295.964
296.2
296.464
296.742
297.037
297.37
297.759
298.2
298.653
299.089
299.623
300.419
301.414
299.694
299.114
298.632
298.297
297.994
297.626
297.227
296.842
296.499
296.211
295.977
295.791
295.649
295.549
295.486
295.454
295.445
295.455
295.485
295.543
295.641
295.791
295.995
296.251
296.544
296.855
297.178
297.526
297.916
298.342
298.768
299.187
299.717
300.503
301.483
299.69
299.1
298.608
298.267
297.958
297.585
297.189
296.817
296.49
296.212
295.981
295.794
295.651
295.549
295.487
295.455
295.446
295.456
295.486
295.543
295.641
295.787
295.988
296.248
296.56
296.903
297.259
297.63
298.026
298.444
298.852
299.26
299.783
300.558
301.526
299.689
299.095
298.598
298.256
297.949
297.58
297.193
296.832
296.511
296.232
295.995
295.802
295.655
295.552
295.488
295.456
295.447
295.456
295.486
295.543
295.638
295.777
295.967
296.214
296.523
296.883
297.27
297.67
298.082
298.502
298.902
299.302
299.82
300.585
301.545
299.688
299.092
298.595
298.256
297.954
297.594
297.216
296.859
296.534
296.245
296
295.801
295.652
295.549
295.487
295.456
295.448
295.459
295.489
295.548
295.643
295.781
295.962
296.192
296.481
296.833
297.233
297.657
298.091
298.521
298.924
299.323
299.838
300.597
301.553
299.685
299.086
298.59
298.253
297.955
297.599
297.222
296.858
296.522
296.224
295.975
295.779
295.636
295.539
295.482
295.454
295.45
295.463
295.498
295.561
295.664
295.81
295.994
296.216
296.485
296.815
297.204
297.635
298.085
298.528
298.936
299.338
299.854
300.611
301.565
299.678
299.069
298.572
298.237
297.937
297.575
297.187
296.81
296.464
296.164
295.924
295.742
295.611
295.524
295.474
295.452
295.452
295.47
295.511
295.585
295.702
295.865
296.065
296.295
296.557
296.866
297.235
297.656
298.106
298.551
298.96
299.365
299.884
300.641
301.592
299.668
299.044
298.543
298.204
297.892
297.511
297.105
296.717
296.372
296.088
295.869
295.706
295.589
295.512
295.468
295.451
295.456
295.479
295.528
295.613
295.749
295.937
296.165
296.418
296.689
296.99
297.341
297.744
298.18
298.614
299.013
299.416
299.94
300.696
301.637
299.659
299.017
298.508
298.16
297.831
297.428
297.01
296.624
296.296
296.037
295.838
295.689
295.58
295.507
295.466
295.452
295.459
295.486
295.539
295.634
295.786
295.998
296.26
296.549
296.846
297.154
297.495
297.88
298.296
298.708
299.088
299.485
300.013
300.761
301.686
299.654
298.999
298.481
298.122
297.778
297.362
296.944
296.573
296.269
296.03
295.844
295.697
295.587
295.512
295.469
295.454
295.459
295.485
295.537
295.632
295.785
296.008
296.296
296.628
296.969
297.304
297.648
298.021
298.416
298.804
299.166
299.555
300.081
300.813
301.719
299.656
298.998
298.472
298.109
297.767
297.356
296.95
296.598
296.31
296.079
295.889
295.734
295.613
295.529
295.479
295.458
295.458
295.477
295.52
295.601
295.737
295.943
296.228
296.584
296.979
297.369
297.742
298.116
298.498
298.87
299.218
299.599
300.115
300.829
301.72
299.665
299.018
298.488
298.131
297.805
297.414
297.026
296.688
296.406
296.17
295.968
295.796
295.657
295.558
295.497
295.466
295.459
295.47
295.502
295.565
295.671
295.837
296.078
296.41
296.823
297.273
297.712
298.124
298.518
298.888
299.231
299.601
300.103
300.804
301.687
299.678
299.051
298.526
298.177
297.874
297.518
297.153
296.824
296.54
296.291
296.067
295.871
295.712
295.594
295.519
295.479
295.464
295.469
295.492
295.54
295.624
295.753
295.939
296.202
296.562
297.015
297.512
297.995
298.441
298.841
299.196
299.563
300.052
300.746
301.632
299.69
299.086
298.573
298.231
297.947
297.627
297.285
296.963
296.671
296.403
296.154
295.934
295.755
295.624
295.539
295.492
295.473
295.473
295.491
295.533
295.606
295.717
295.871
296.077
296.358
296.742
297.223
297.752
298.266
298.728
299.121
299.501
299.985
300.681
301.575
299.696
299.108
298.609
298.273
298.004
297.712
297.389
297.069
296.764
296.47
296.195
295.956
295.767
295.633
295.547
295.5
295.48
295.481
295.499
295.54
295.611
295.721
295.869
296.053
296.284
296.591
297.003
297.51
298.057
298.577
299.024
299.43
299.921
300.626
301.531
299.695
299.112
298.624
298.295
298.035
297.755
297.436
297.105
296.774
296.452
296.159
295.919
295.741
295.618
295.542
295.501
295.487
295.492
295.515
295.561
295.64
295.761
295.921
296.11
296.328
296.593
296.94
297.391
297.919
298.462
298.948
299.379
299.883
300.603
301.519
299.687
299.096
298.613
298.29
298.03
297.743
297.407
297.049
296.687
296.35
296.066
295.85
295.698
295.596
295.535
295.504
295.497
295.509
295.539
295.596
295.691
295.834
296.019
296.231
296.458
296.712
297.025
297.427
297.916
298.445
298.936
299.376
299.892
300.625
301.544
299.676
299.069
298.583
298.26
297.989
297.672
297.301
296.909
296.534
296.213
295.966
295.788
295.665
295.582
295.533
295.512
295.512
295.531
295.569
295.639
295.757
295.931
296.152
296.399
296.651
296.914
297.216
297.59
298.042
298.535
298.996
299.426
299.95
300.684
301.594
299.664
299.037
298.542
298.211
297.918
297.562
297.157
296.753
296.397
296.117
295.913
295.765
295.659
295.586
295.544
295.527
295.53
295.553
295.597
295.678
295.813
296.015
296.276
296.566
296.857
297.142
297.448
297.806
298.224
298.672
299.088
299.502
300.029
300.751
301.644
299.658
299.015
298.507
298.164
297.849
297.462
297.043
296.653
296.333
296.092
295.914
295.78
295.677
295.605
295.563
295.545
295.548
295.569
295.612
295.691
295.828
296.04
296.326
296.664
297.009
297.334
297.654
298.003
298.393
298.798
299.176
299.573
300.094
300.797
301.673
299.661
299.012
298.492
298.141
297.817
297.423
297.013
296.649
296.36
296.141
295.971
295.834
295.724
295.644
295.593
295.57
295.567
295.58
295.614
295.677
295.791
295.978
296.254
296.613
297.017
297.412
297.774
298.128
298.498
298.873
299.226
299.607
300.115
300.8
301.664
299.674
299.038
298.511
298.16
297.848
297.474
297.084
296.741
296.467
296.252
296.077
295.927
295.8
295.702
295.638
295.604
295.592
295.596
295.617
295.659
295.737
295.872
296.088
296.406
296.821
297.285
297.733
298.141
298.523
298.888
299.229
299.596
300.087
300.761
301.621
299.692
299.083
298.56
298.211
297.92
297.588
297.229
296.903
296.634
296.414
296.225
296.055
295.904
295.782
295.696
295.647
295.626
295.622
295.632
295.658
295.708
295.795
295.937
296.163
296.5
296.95
297.463
297.967
298.422
298.825
299.18
299.542
300.019
300.689
301.553
299.711
299.136
298.629
298.279
298.009
297.725
297.406
297.099
296.831
296.601
296.395
296.2
296.02
295.87
295.762
295.697
295.666
295.656
295.66
295.678
295.713
295.774
295.87
296.019
296.247
296.592
297.063
297.613
298.163
298.658
299.075
299.459
299.93
300.604
301.479
299.724
299.178
298.692
298.344
298.089
297.842
297.563
297.279
297.015
296.776
296.55
296.327
296.117
295.942
295.817
295.743
295.706
295.693
295.694
295.709
295.739
295.789
295.867
295.981
296.144
296.384
296.742
297.235
297.814
298.395
298.909
299.345
299.83
300.517
301.406
299.729
299.2
298.733
298.393
298.149
297.925
297.676
297.41
297.15
296.898
296.645
296.389
296.154
295.969
295.845
295.774
295.741
295.73
295.734
295.75
295.779
295.829
295.904
296.011
296.152
296.341
296.613
297.007
297.535
298.137
298.726
299.222
299.74
300.447
301.355
299.725
299.199
298.744
298.415
298.181
297.969
297.735
297.478
297.21
296.93
296.637
296.354
296.117
295.95
295.848
295.795
295.773
295.771
295.78
295.799
295.833
295.887
295.97
296.084
296.228
296.406
296.638
296.965
297.42
297.989
298.597
299.132
299.682
300.412
301.337
299.715
299.179
298.728
298.41
298.181
297.971
297.734
297.461
297.159
296.835
296.513
296.238
296.04
295.917
295.85
295.82
295.812
295.818
295.833
295.858
295.899
295.965
296.065
296.199
296.362
296.55
296.778
297.076
297.484
298.008
298.594
299.124
299.684
300.433
301.366
299.702
299.146
298.693
298.382
298.154
297.931
297.665
297.35
297
296.65
296.348
296.128
295.989
295.912
295.873
295.859
295.86
295.871
295.891
295.923
295.973
296.056
296.181
296.345
296.537
296.749
296.99
297.286
297.672
298.158
298.698
299.192
299.739
300.496
301.426
299.69
299.113
298.651
298.34
298.099
297.844
297.53
297.168
296.798
296.472
296.231
296.076
295.985
295.936
295.912
295.906
295.912
295.926
295.95
295.987
296.048
296.148
296.299
296.498
296.729
296.974
297.236
297.541
297.916
298.365
298.844
299.297
299.831
300.578
301.494
299.681
299.086
298.61
298.293
298.035
297.744
297.39
297.01
296.66
296.388
296.204
296.089
296.02
295.98
295.961
295.957
295.964
295.979
296.003
296.041
296.105
296.213
296.38