/*--------------------------------*- C++ -*----------------------------------*\
| =========                 |                                                 |
| \\      /  F ield         | OpenFOAM: The Open Source CFD Toolbox           |
|  \\    /   O peration     | Version:  v2006                                 |
|   \\  /    A nd           | Website:  www.openfoam.com                      |
|    \\/     M anipulation  |                                                 |
\*---------------------------------------------------------------------------*/
FoamFile
{
    version     2.0;
    format      ascii;
    class       volScalarField;
    location    "87";
    object      T;
}
// * * * * * * * * * * * * * * * * * * * * * * * * * * * * * * * * * * * * * //

dimensions      [0 0 0 1 0 0 0];


internalField   nonuniform List<scalar> 
78750
(
300.06
300.164
300.244
300.308
300.362
300.409
300.45
300.485
300.517
300.545
300.569
300.59
300.609
300.624
300.637
300.648
300.656
300.662
300.666
300.668
300.668
300.666
300.663
300.658
300.652
300.647
300.642
300.638
300.638
300.65
300.699
300.857
301.256
302.031
303.143
300.068
300.196
300.313
300.419
300.513
300.596
300.668
300.731
300.787
300.835
300.878
300.914
300.945
300.971
300.992
301.008
301.019
301.025
301.027
301.024
301.017
301.005
300.989
300.97
300.946
300.921
300.894
300.87
300.854
300.86
300.923
301.119
301.561
302.327
303.397
300.075
300.218
300.348
300.466
300.572
300.665
300.746
300.816
300.876
300.929
300.975
301.017
301.053
301.086
301.113
301.137
301.156
301.171
301.182
301.187
301.187
301.182
301.171
301.154
301.131
301.104
301.073
301.044
301.026
301.039
301.126
301.363
301.83
302.584
303.642
300.086
300.25
300.401
300.536
300.655
300.756
300.841
300.913
300.975
301.029
301.076
301.118
301.155
301.188
301.216
301.239
301.258
301.273
301.284
301.291
301.293
301.291
301.283
301.27
301.251
301.226
301.198
301.172
301.161
301.187
301.299
301.568
302.046
302.791
303.851
300.098
300.286
300.458
300.611
300.74
300.846
300.932
301.005
301.067
301.121
301.169
301.212
301.249
301.282
301.309
301.331
301.348
301.361
301.369
301.373
301.373
301.368
301.36
301.347
301.33
301.309
301.286
301.269
301.271
301.319
301.462
301.761
302.248
302.986
304.047
300.108
300.316
300.504
300.668
300.802
300.909
300.995
301.068
301.131
301.187
301.238
301.282
301.321
301.355
301.382
301.403
301.419
301.428
301.433
301.433
301.43
301.423
301.412
301.399
301.383
301.366
301.349
301.343
301.361
301.433
301.606
301.931
302.425
303.163
304.227
300.117
300.34
300.542
300.715
300.855
300.964
301.053
301.127
301.193
301.251
301.304
301.351
301.392
301.426
301.453
301.472
301.485
301.491
301.491
301.486
301.478
301.466
301.453
301.438
301.422
301.408
301.399
301.404
301.44
301.538
301.739
302.087
302.592
303.336
304.402
300.124
300.361
300.574
300.755
300.898
301.009
301.099
301.176
301.244
301.305
301.36
301.41
301.452
301.488
301.515
301.533
301.544
301.547
301.543
301.534
301.52
301.504
301.487
301.47
301.454
301.443
301.44
301.457
301.511
301.632
301.859
302.226
302.744
303.498
304.567
300.13
300.377
300.599
300.787
300.935
301.049
301.141
301.22
301.291
301.355
301.413
301.465
301.51
301.547
301.574
301.592
301.601
301.602
301.595
301.581
301.564
301.543
301.522
301.502
301.485
301.476
301.479
301.506
301.576
301.718
301.968
302.351
302.883
303.65
304.722
300.135
300.393
300.624
300.818
300.969
301.086
301.18
301.262
301.335
301.401
301.462
301.516
301.563
301.601
301.629
301.647
301.656
301.655
301.645
301.629
301.607
301.583
301.558
301.535
301.518
301.509
301.517
301.553
301.637
301.797
302.066
302.465
303.01
303.79
304.865
300.14
300.407
300.645
300.844
301
301.119
301.216
301.3
301.376
301.445
301.508
301.564
301.613
301.652
301.682
301.7
301.708
301.706
301.695
301.676
301.652
301.624
301.596
301.571
301.552
301.544
301.556
301.599
301.695
301.87
302.156
302.568
303.126
303.918
304.995
300.145
300.42
300.665
300.87
301.029
301.151
301.251
301.337
301.415
301.486
301.552
301.61
301.661
301.701
301.732
301.751
301.759
301.756
301.744
301.723
301.696
301.666
301.636
301.608
301.589
301.582
301.596
301.646
301.751
301.939
302.239
302.664
303.234
304.037
305.116
300.149
300.432
300.684
300.895
301.057
301.182
301.283
301.372
301.452
301.526
301.594
301.654
301.706
301.748
301.78
301.799
301.807
301.804
301.791
301.769
301.74
301.708
301.676
301.647
301.626
301.62
301.637
301.692
301.806
302.005
302.318
302.753
303.333
304.145
305.226
300.153
300.444
300.703
300.919
301.084
301.211
301.315
301.406
301.488
301.564
301.634
301.697
301.75
301.794
301.826
301.846
301.854
301.851
301.837
301.814
301.784
301.75
301.716
301.686
301.665
301.66
301.68
301.739
301.861
302.07
302.394
302.838
303.426
304.247
305.329
300.157
300.456
300.721
300.941
301.11
301.239
301.345
301.438
301.523
301.601
301.673
301.737
301.792
301.837
301.87
301.891
301.9
301.896
301.882
301.858
301.826
301.791
301.756
301.726
301.705
301.7
301.722
301.787
301.915
302.133
302.466
302.918
303.514
304.342
305.424
300.161
300.467
300.739
300.963
301.135
301.267
301.375
301.47
301.557
301.637
301.71
301.776
301.833
301.879
301.913
301.935
301.944
301.94
301.926
301.901
301.869
301.833
301.797
301.766
301.745
301.741
301.766
301.835
301.969
302.196
302.537
302.994
303.597
304.431
305.515
300.165
300.479
300.756
300.985
301.159
301.293
301.403
301.5
301.589
301.671
301.747
301.814
301.872
301.92
301.955
301.977
301.987
301.984
301.969
301.944
301.911
301.875
301.838
301.806
301.785
301.783
301.81
301.883
302.024
302.257
302.605
303.068
303.676
304.516
305.601
300.169
300.489
300.773
301.006
301.183
301.319
301.431
301.53
301.621
301.705
301.782
301.851
301.911
301.959
301.995
302.019
302.029
302.026
302.012
301.987
301.954
301.916
301.879
301.847
301.826
301.825
301.855
301.932
302.078
302.318
302.673
303.14
303.752
304.597
305.682
300.173
300.5
300.789
301.026
301.206
301.344
301.458
301.559
301.651
301.737
301.816
301.887
301.948
301.998
302.035
302.059
302.07
302.068
302.054
302.029
301.996
301.958
301.92
301.888
301.867
301.868
301.9
301.981
302.132
302.378
302.739
303.209
303.825
304.674
305.761
300.176
300.511
300.805
301.046
301.229
301.368
301.484
301.587
301.681
301.769
301.85
301.922
301.984
302.035
302.074
302.099
302.111
302.11
302.096
302.071
302.038
302
301.962
301.929
301.909
301.911
301.945
302.03
302.186
302.438
302.804
303.277
303.896
304.749
305.837
300.18
300.521
300.821
301.066
301.251
301.392
301.51
301.614
301.711
301.8
301.882
301.956
302.02
302.072
302.111
302.138
302.151
302.15
302.137
302.113
302.081
302.042
302.004
301.972
301.952
301.954
301.991
302.079
302.24
302.498
302.867
303.344
303.965
304.821
305.91
300.184
300.531
300.837
301.086
301.272
301.416
301.535
301.641
301.74
301.831
301.914
301.99
302.055
302.108
302.149
302.176
302.19
302.191
302.179
302.155
302.123
302.085
302.047
302.014
301.995
301.998
302.037
302.129
302.294
302.556
302.93
303.408
304.032
304.891
305.981
300.187
300.541
300.852
301.105
301.294
301.439
301.56
301.668
301.768
301.861
301.946
302.023
302.089
302.143
302.185
302.213
302.228
302.23
302.219
302.197
302.165
302.128
302.09
302.057
302.038
302.043
302.084
302.178
302.348
302.615
302.992
303.472
304.097
304.96
306.05
300.191
300.551
300.868
301.123
301.315
301.462
301.584
301.694
301.796
301.89
301.977
302.055
302.123
302.178
302.221
302.25
302.267
302.27
302.26
302.239
302.208
302.171
302.133
302.101
302.082
302.087
302.13
302.228
302.401
302.673
303.053
303.535
304.161
305.026
306.117
300.194
300.561
300.883
301.142
301.336
301.484
301.609
301.72
301.824
301.92
302.008
302.087
302.156
302.212
302.256
302.287
302.304
302.308
302.3
302.28
302.25
302.214
302.176
302.144
302.126
302.133
302.177
302.278
302.455
302.73
303.114
303.596
304.224
305.091
306.183
300.198
300.571
300.898
301.161
301.356
301.506
301.633
301.746
301.851
301.949
302.039
302.119
302.189
302.246
302.291
302.323
302.341
302.347
302.339
302.321
302.292
302.257
302.22
302.189
302.171
302.178
302.224
302.327
302.508
302.787
303.173
303.657
304.286
305.155
306.247
300.201
300.58
300.912
301.179
301.377
301.529
301.657
301.772
301.879
301.978
302.069
302.151
302.221
302.28
302.326
302.358
302.378
302.384
302.379
302.361
302.334
302.3
302.264
302.233
302.216
302.224
302.272
302.377
302.561
302.844
303.232
303.716
304.346
305.217
306.311
300.204
300.59
300.927
301.197
301.397
301.551
301.681
301.798
301.906
302.007
302.099
302.182
302.254
302.313
302.36
302.393
302.414
302.422
302.417
302.402
302.376
302.343
302.308
302.278
302.261
302.27
302.32
302.427
302.614
302.9
303.291
303.775
304.406
305.279
306.373
300.208
300.6
300.942
301.215
301.417
301.573
301.704
301.823
301.933
302.035
302.129
302.214
302.286
302.347
302.394
302.428
302.45
302.459
302.456
302.441
302.417
302.386
302.352
302.323
302.307
302.317
302.368
302.477
302.667
302.956
303.349
303.834
304.465
305.339
306.434
300.211
300.609
300.957
301.233
301.437
301.594
301.728
301.848
301.96
302.064
302.16
302.245
302.319
302.38
302.428
302.463
302.485
302.495
302.494
302.481
302.459
302.429
302.397
302.368
302.353
302.364
302.416
302.528
302.72
303.011
303.406
303.891
304.523
305.399
306.494
300.215
300.619
300.971
301.251
301.457
301.616
301.751
301.874
301.987
302.093
302.19
302.276
302.351
302.413
302.462
302.497
302.521
302.532
302.531
302.52
302.5
302.472
302.441
302.413
302.399
302.411
302.464
302.578
302.773
303.067
303.463
303.949
304.581
305.458
306.554
300.218
300.629
300.986
301.269
301.477
301.638
301.775
301.899
302.015
302.122
302.22
302.307
302.383
302.446
302.495
302.532
302.556
302.568
302.569
302.559
302.54
302.514
302.485
302.459
302.446
302.459
302.513
302.629
302.826
303.122
303.52
304.006
304.638
305.516
306.613
300.221
300.638
301.001
301.287
301.497
301.66
301.799
301.925
302.042
302.151
302.25
302.339
302.415
302.478
302.529
302.566
302.591
302.604
302.606
302.598
302.58
302.556
302.528
302.504
302.493
302.507
302.563
302.68
302.88
303.178
303.578
304.063
304.695
305.575
306.673
300.225
300.648
301.015
301.305
301.517
301.682
301.822
301.95
302.069
302.179
302.28
302.37
302.447
302.511
302.562
302.6
302.626
302.64
302.643
302.636
302.62
302.598
302.572
302.55
302.539
302.555
302.612
302.732
302.934
303.234
303.635
304.12
304.753
305.633
306.732
300.228
300.657
301.03
301.323
301.537
301.703
301.846
301.976
302.097
302.209
302.311
302.402
302.48
302.544
302.596
302.634
302.66
302.675
302.679
302.674
302.66
302.639
302.616
302.595
302.587
302.604
302.663
302.784
302.988
303.291
303.693
304.178
304.81
305.692
306.792
300.232
300.667
301.045
301.341
301.557
301.725
301.87
302.002
302.124
302.238
302.341
302.433
302.512
302.577
302.629
302.668
302.695
302.71
302.716
302.712
302.699
302.681
302.659
302.64
302.634
302.653
302.714
302.837
303.043
303.348
303.751
304.236
304.868
305.751
306.852
300.235
300.677
301.059
301.359
301.577
301.747
301.893
302.027
302.152
302.267
302.372
302.465
302.544
302.61
302.663
302.702
302.729
302.746
302.752
302.749
302.738
302.721
302.702
302.685
302.681
302.702
302.765
302.891
303.099
303.406
303.81
304.295
304.927
305.811
306.912
300.238
300.687
301.074
301.377
301.597
301.769
301.917
302.053
302.179
302.296
302.402
302.497
302.577
302.643
302.696
302.736
302.764
302.781
302.788
302.786
302.777
302.762
302.745
302.73
302.728
302.752
302.817
302.945
303.156
303.465
303.87
304.354
304.986
305.871
306.973
300.242
300.696
301.089
301.394
301.617
301.79
301.941
302.078
302.207
302.325
302.433
302.528
302.61
302.677
302.73
302.77
302.798
302.816
302.824
302.823
302.816
302.803
302.787
302.775
302.776
302.802
302.87
303
303.214
303.525
303.93
304.414
305.046
305.931
307.034
300.245
300.706
301.103
301.412
301.637
301.812
301.964
302.104
302.234
302.355
302.464
302.56
302.642
302.71
302.763
302.804
302.833
302.851
302.86
302.86
302.854
302.843
302.83
302.82
302.823
302.852
302.923
303.056
303.272
303.586
303.991
304.475
305.106
305.992
307.094
300.249
300.716
301.118
301.43
301.656
301.834
301.988
302.13
302.262
302.384
302.495
302.592
302.675
302.743
302.797
302.838
302.867
302.886
302.895
302.897
302.892
302.883
302.872
302.865
302.871
302.902
302.976
303.112
303.331
303.647
304.053
304.536
305.166
306.052
307.155
300.252
300.725
301.132
301.447
301.676
301.855
302.012
302.155
302.29
302.414
302.526
302.624
302.707
302.776
302.83
302.871
302.901
302.92
302.931
302.933
302.93
302.922
302.914
302.909
302.918
302.952
303.029
303.169
303.391
303.708
304.115
304.597
305.227
306.113
307.216
300.255
300.735
301.147
301.465
301.695
301.877
302.035
302.181
302.318
302.443
302.557
302.656
302.74
302.809
302.864
302.905
302.935
302.955
302.966
302.97
302.968
302.962
302.955
302.954
302.965
303.003
303.083
303.226
303.451
303.77
304.177
304.658
305.287
306.173
307.276
300.259
300.744
301.161
301.482
301.715
301.898
302.059
302.207
302.345
302.473
302.588
302.688
302.773
302.842
302.897
302.939
302.969
302.989
303.001
303.006
303.005
303.001
302.997
302.998
303.012
303.053
303.137
303.283
303.511
303.832
304.239
304.719
305.347
306.233
307.335
300.262
300.754
301.176
301.5
301.734
301.919
302.082
302.233
302.373
302.503
302.619
302.72
302.806
302.875
302.93
302.973
303.003
303.024
303.036
303.042
303.043
303.04
303.038
303.041
303.059
303.103
303.19
303.34
303.57
303.894
304.301
304.78
305.407
306.292
307.394
300.266
300.763
301.19
301.517
301.754
301.941
302.106
302.259
302.401
302.533
302.65
302.753
302.839
302.909
302.964
303.006
303.037
303.058
303.071
303.078
303.08
303.079
303.079
303.085
303.105
303.153
303.243
303.396
303.63
303.955
304.362
304.84
305.466
306.35
307.452
300.269
300.772
301.204
301.534
301.773
301.962
302.129
302.285
302.43
302.563
302.682
302.785
302.871
302.942
302.997
303.04
303.071
303.092
303.106
303.114
303.117
303.118
303.12
303.128
303.152
303.202
303.296
303.453
303.689
304.016
304.423
304.899
305.525
306.408
307.509
300.272
300.782
301.219
301.552
301.793
301.984
302.153
302.311
302.458
302.593
302.713
302.817
302.904
302.975
303.031
303.073
303.105
303.127
303.141
303.15
303.154
303.156
303.16
303.171
303.198
303.252
303.349
303.509
303.748
304.077
304.483
304.958
305.582
306.465
307.565
300.276
300.791
301.233
301.569
301.812
302.005
302.177
302.337
302.486
302.623
302.745
302.85
302.938
303.009
303.064
303.107
303.139
303.161
303.176
303.185
303.191
303.195
303.201
303.214
303.243
303.301
303.402
303.565
303.807
304.137
304.543
305.016
305.639
306.521
307.62
300.279
300.801
301.247
301.586
301.831
302.027
302.201
302.363
302.515
302.654
302.777
302.883
302.971
303.042
303.098
303.141
303.172
303.195
303.21
303.221
303.227
303.233
303.241
303.257
303.289
303.349
303.454
303.62
303.865
304.196
304.601
305.074
305.695
306.576
307.674
300.282
300.81
301.261
301.604
301.851
302.049
302.225
302.39
302.544
302.684
302.809
302.915
303.004
303.075
303.131
303.174
303.206
303.229
303.245
303.256
303.264
303.271
303.281
303.299
303.334
303.398
303.505
303.675
303.922
304.255
304.659
305.13
305.75
306.63
307.728
300.285
300.82
301.276
301.621
301.871
302.07
302.249
302.417
302.573
302.715
302.841
302.948
303.037
303.109
303.165
303.208
303.24
303.263
303.279
303.291
303.3
303.308
303.32
303.341
303.379
303.446
303.557
303.729
303.979
304.312
304.717
305.186
305.805
306.683
307.78
300.289
300.829
301.29
301.638
301.89
302.092
302.274
302.443
302.602
302.746
302.873
302.981
303.07
303.142
303.198
303.241
303.273
303.297
303.314
303.326
303.336
303.346
303.36
303.383
303.423
303.493
303.607
303.783
304.035
304.369
304.773
305.24
305.858
306.736
307.831
300.292
300.839
301.305
301.656
301.91
302.114
302.298
302.471
302.631
302.777
302.906
303.014
303.104
303.175
303.231
303.274
303.307
303.331
303.348
303.361
303.372
303.383
303.399
303.424
303.467
303.54
303.657
303.836
304.09
304.426
304.828
305.294
305.91
306.787
307.882
300.295
300.848
301.319
301.674
301.93
302.137
302.323
302.498
302.661
302.809
302.938
303.048
303.137
303.209
303.265
303.308
303.34
303.364
303.382
303.396
303.408
303.421
303.438
303.465
303.511
303.587
303.707
303.888
304.145
304.481
304.882
305.347
305.961
306.837
307.931
300.299
300.858
301.334
301.691
301.95
302.159
302.348
302.526
302.691
302.841
302.971
303.081
303.171
303.242
303.298
303.341
303.374
303.398
303.417
303.431
303.444
303.458
303.477
303.506
303.554
303.633
303.756
303.94
304.199
304.535
304.936
305.399
306.012
306.886
307.98
300.302
300.867
301.348
301.709
301.97
302.182
302.374
302.554
302.722
302.873
303.005
303.115
303.205
303.276
303.332
303.375
303.407
303.432
303.451
303.466
303.48
303.495
303.515
303.547
303.597
303.679
303.805
303.991
304.252
304.589
304.988
305.449
306.061
306.934
308.027
300.306
300.877
301.363
301.727
301.991
302.205
302.4
302.583
302.753
302.906
303.038
303.149
303.239
303.31
303.366
303.408
303.441
303.466
303.485
303.501
303.515
303.531
303.554
303.587
303.64
303.724
303.853
304.042
304.304
304.642
305.04
305.499
306.109
306.981
308.074
300.309
300.887
301.378
301.746
302.012
302.228
302.426
302.612
302.784
302.939
303.072
303.183
303.273
303.344
303.399
303.442
303.474
303.499
303.519
303.535
303.551
303.568
303.592
303.627
303.682
303.769
303.9
304.092
304.355
304.693
305.09
305.548
306.156
307.028
308.119
300.313
300.897
301.394
301.764
302.033
302.252
302.453
302.641
302.816
302.972
303.106
303.217
303.307
303.378
303.433
303.475
303.508
303.533
303.553
303.57
303.586
303.605
303.63
303.667
303.724
303.813
303.947
304.141
304.406
304.744
305.14
305.596
306.203
307.073
308.164
300.316
300.907
301.409
301.783
302.054
302.276
302.48
302.671
302.849
303.006
303.141
303.252
303.342
303.412
303.467
303.509
303.542
303.567
303.587
303.604
303.622
303.641
303.668
303.707
303.766
303.857
303.993
304.189
304.456
304.794
305.189
305.643
306.248
307.117
308.207
300.32
300.917
301.425
301.802
302.075
302.3
302.507
302.702
302.881
303.04
303.176
303.287
303.376
303.447
303.501
303.543
303.575
303.601
303.621
303.639
303.657
303.678
303.705
303.746
303.808
303.901
304.039
304.237
304.505
304.843
305.236
305.689
306.293
307.161
308.251
300.323
300.928
301.44
301.821
302.097
302.325
302.535
302.732
302.914
303.075
303.21
303.322
303.411
303.481
303.535
303.577
303.609
303.634
303.655
303.674
303.692
303.714
303.743
303.785
303.849
303.944
304.085
304.284
304.553
304.891
305.283
305.734
306.337
307.204
308.293
300.327
300.938
301.456
301.84
302.119
302.35
302.563
302.764
302.948
303.109
303.246
303.357
303.446
303.515
303.569
303.611
303.643
303.668
303.689
303.708
303.728
303.751
303.781
303.825
303.89
303.987
304.13
304.331
304.601
304.939
305.329
305.779
306.38
307.246
308.335
300.331
300.949
301.472
301.86
302.142
302.375
302.592
302.795
302.982
303.144
303.281
303.393
303.481
303.55
303.603
303.644
303.676
303.702
303.723
303.743
303.763
303.787
303.819
303.864
303.931
304.03
304.175
304.378
304.648
304.986
305.375
305.822
306.422
307.288
308.376
300.334
300.959
301.488
301.88
302.164
302.401
302.621
302.828
303.016
303.18
303.317
303.428
303.516
303.584
303.637
303.678
303.71
303.736
303.758
303.778
303.799
303.823
303.856
303.903
303.972
304.073
304.22
304.424
304.695
305.032
305.42
305.866
306.464
307.329
308.417
300.338
300.97
301.505
301.9
302.188
302.428
302.652
302.862
303.052
303.217
303.354
303.465
303.552
303.619
303.672
303.712
303.744
303.77
303.792
303.812
303.834
303.86
303.894
303.942
304.013
304.116
304.264
304.47
304.742
305.078
305.464
305.908
306.505
307.37
308.458
300.342
300.981
301.522
301.921
302.212
302.456
302.683
302.896
303.089
303.255
303.392
303.501
303.588
303.655
303.706
303.746
303.778
303.804
303.826
303.847
303.869
303.896
303.931
303.981
304.054
304.158
304.308
304.515
304.788
305.124
305.508
305.95
306.546
307.41
308.498
300.346
300.993
301.539
301.942
302.237
302.484
302.715
302.932
303.126
303.293
303.43
303.539
303.624
303.69
303.741
303.781
303.812
303.838
303.86
303.882
303.905
303.933
303.969
304.02
304.094
304.201
304.352
304.561
304.834
305.169
305.551
305.992
306.587
307.45
308.539
300.35
301.004
301.557
301.964
302.262
302.513
302.748
302.968
303.165
303.332
303.468
303.577
303.661
303.726
303.776
303.815
303.846
303.872
303.895
303.917
303.94
303.969
304.007
304.06
304.135
304.244
304.397
304.606
304.88
305.214
305.595
306.034
306.628
307.491
308.579
300.354
301.016
301.576
301.987
302.288
302.543
302.782
303.006
303.204
303.372
303.508
303.615
303.698
303.762
303.812
303.85
303.881
303.906
303.929
303.952
303.976
304.006
304.045
304.099
304.176
304.286
304.441
304.652
304.925
305.259
305.638
306.075
306.668
307.531
308.619
300.358
301.029
301.594
302.01
302.314
302.573
302.817
303.044
303.245
303.413
303.548
303.654
303.736
303.799
303.847
303.885
303.915
303.941
303.964
303.987
304.012
304.042
304.083
304.138
304.217
304.329
304.485
304.697
304.971
305.304
305.681
306.117
306.709
307.571
308.66
300.363
301.041
301.614
302.033
302.341
302.605
302.853
303.083
303.286
303.454
303.589
303.694
303.774
303.836
303.883
303.92
303.95
303.975
303.999
304.022
304.048
304.079
304.121
304.178
304.258
304.372
304.53
304.743
305.017
305.348
305.724
306.158
306.749
307.611
308.7
300.367
301.054
301.633
302.057
302.369
302.637
302.89
303.124
303.328
303.496
303.63
303.734
303.813
303.873
303.919
303.956
303.985
304.01
304.034
304.057
304.084
304.116
304.159
304.217
304.3
304.415
304.574
304.788
305.063
305.393
305.767
306.2
306.79
307.652
308.741
300.372
301.067
301.654
302.082
302.398
302.671
302.928
303.166
303.371
303.539
303.672
303.774
303.852
303.91
303.956
303.991
304.02
304.045
304.069
304.093
304.12
304.153
304.197
304.257
304.341
304.458
304.619
304.834
305.109
305.438
305.81
306.241
306.831
307.693
308.782
300.377
301.081
301.674
302.107
302.427
302.705
302.967
303.208
303.415
303.583
303.715
303.815
303.891
303.948
303.992
304.027
304.055
304.08
304.104
304.128
304.156
304.19
304.235
304.297
304.383
304.502
304.664
304.88
305.155
305.483
305.853
306.283
306.872
307.734
308.824
300.382
301.095
301.695
302.133
302.457
302.74
303.007
303.251
303.46
303.627
303.758
303.856
303.931
303.987
304.029
304.063
304.091
304.116
304.139
304.164
304.192
304.228
304.274
304.337
304.424
304.545
304.709
304.927
305.201
305.528
305.896
306.325
306.913
307.775
308.865
300.386
301.109
301.717
302.159
302.488
302.776
303.048
303.295
303.505
303.672
303.801
303.898
303.971
304.025
304.066
304.099
304.127
304.151
304.175
304.2
304.229
304.265
304.313
304.377
304.467
304.589
304.755
304.973
305.248
305.574
305.94
306.368
306.955
307.817
308.907
300.391
301.123
301.739
302.186
302.519
302.812
303.09
303.34
303.55
303.717
303.844
303.94
304.011
304.063
304.104
304.136
304.163
304.187
304.21
304.236
304.265
304.303
304.351
304.418
304.509
304.633
304.8
305.02
305.294
305.619
305.983
306.41
306.996
307.858
308.949
300.397
301.138
301.761
302.213
302.551
302.85
303.132
303.385
303.596
303.762
303.888
303.982
304.051
304.102
304.141
304.173
304.199
304.223
304.246
304.272
304.302
304.34
304.39
304.458
304.551
304.677
304.846
305.066
305.341
305.664
306.027
306.452
307.039
307.9
308.991
300.402
301.153
301.784
302.241
302.584
302.888
303.176
303.432
303.643
303.808
303.932
304.024
304.091
304.141
304.179
304.209
304.235
304.259
304.282
304.308
304.339
304.378
304.429
304.499
304.593
304.721
304.892
305.113
305.387
305.71
306.071
306.494
307.08
307.941
309.033
300.407
301.168
301.807
302.27
302.618
302.929
303.221
303.48
303.691
303.855
303.977
304.067
304.132
304.18
304.217
304.246
304.271
304.295
304.318
304.345
304.376
304.416
304.469
304.54
304.636
304.766
304.938
305.16
305.435
305.755
306.115
306.537
307.123
307.984
309.075
300.413
301.184
301.831
302.3
302.654
302.971
303.269
303.53
303.741
303.903
304.023
304.11
304.173
304.22
304.255
304.284
304.308
304.331
304.355
304.381
304.413
304.454
304.508
304.581
304.678
304.81
304.984
305.207
305.481
305.801
306.158
306.579
307.164
308.025
309.117
300.418
301.2
301.857
302.331
302.691
303.015
303.318
303.582
303.793
303.953
304.07
304.154
304.215
304.26
304.294
304.321
304.345
304.368
304.391
304.418
304.451
304.493
304.548
304.622
304.721
304.855
305.03
305.254
305.528
305.846
306.202
306.623
307.207
308.068
309.16
300.424
301.218
301.883
302.364
302.73
303.06
303.369
303.635
303.846
304.003
304.117
304.199
304.257
304.3
304.333
304.359
304.382
304.404
304.428
304.455
304.488
304.531
304.588
304.663
304.764
304.899
305.076
305.301
305.575
305.891
306.246
306.665
307.249
308.11
309.201
300.431
301.236
301.91
302.397
302.769
303.107
303.421
303.689
303.899
304.055
304.166
304.245
304.3
304.341
304.372
304.397
304.42
304.442
304.465
304.493
304.526
304.57
304.628
304.705
304.808
304.945
305.123
305.348
305.622
305.937
306.29
306.708
307.292
308.152
309.244
300.437
301.254
301.938
302.43
302.809
303.154
303.473
303.743
303.953
304.106
304.215
304.291
304.344
304.382
304.412
304.436
304.457
304.479
304.502
304.53
304.565
304.609
304.668
304.746
304.851
304.99
305.169
305.395
305.668
305.983
306.334
306.75
307.334
308.194
309.286
300.443
301.272
301.965
302.464
302.849
303.201
303.526
303.797
304.006
304.157
304.263
304.337
304.388
304.424
304.452
304.475
304.496
304.517
304.54
304.568
304.603
304.648
304.709
304.789
304.895
305.035
305.216
305.443
305.716
306.028
306.378
306.794
307.377
308.237
309.329
300.45
301.29
301.993
302.498
302.89
303.249
303.578
303.851
304.059
304.208
304.312
304.383
304.431
304.466
304.492
304.514
304.534
304.555
304.578
304.606
304.642
304.688
304.749
304.831
304.939
305.081
305.263
305.49
305.762
306.073
306.421
306.836
307.419
308.278
309.37
300.456
301.309
302.021
302.533
302.932
303.298
303.631
303.905
304.112
304.259
304.36
304.429
304.475
304.508
304.533
304.554
304.573
304.593
304.616
304.644
304.681
304.728
304.79
304.873
304.983
305.126
305.31
305.538
305.809
306.119
306.465
306.879
307.462
308.321
309.412
300.463
301.327
302.05
302.57
302.976
303.349
303.687
303.961
304.167
304.311
304.409
304.475
304.519
304.55
304.574
304.593
304.612
304.632
304.655
304.683
304.72
304.768
304.831
304.916
305.027
305.172
305.356
305.584
305.855
306.164
306.508
306.921
307.503
308.362
309.453
300.469
301.347
302.08
302.608
303.021
303.403
303.745
304.02
304.223
304.364
304.459
304.522
304.564
304.593
304.615
304.633
304.651
304.671
304.693
304.722
304.759
304.808
304.873
304.958
305.071
305.218
305.403
305.632
305.902
306.209
306.552
306.964
307.546
308.405
309.495
300.476
301.367
302.111
302.647
303.07
303.46
303.806
304.081
304.281
304.419
304.51
304.569
304.609
304.636
304.656
304.674
304.691
304.71
304.732
304.761
304.798
304.848
304.914
305.001
305.115
305.263
305.45
305.678
305.948
306.253
306.595
307.006
307.587
308.445
309.536
300.484
301.389
302.144
302.689
303.12
303.519
303.87
304.145
304.342
304.476
304.562
304.618
304.655
304.679
304.698
304.715
304.731
304.749
304.772
304.8
304.838
304.889
304.956
305.044
305.16
305.309
305.497
305.725
305.994
306.298
306.638
307.049
307.63
308.487
309.577
300.492
301.411
302.178
302.732
303.172
303.58
303.935
304.21
304.404
304.533
304.616
304.668
304.701
304.724
304.741
304.756
304.771
304.789
304.811
304.84
304.878
304.929
304.997
305.087
305.204
305.354
305.543
305.771
306.039
306.342
306.68
307.09
307.67
308.527
309.617
300.5
301.434
302.213
302.776
303.226
303.642
304.001
304.276
304.467
304.592
304.67
304.718
304.749
304.769
304.784
304.798
304.812
304.829
304.851
304.88
304.919
304.971
305.04
305.131
305.249
305.4
305.59
305.818
306.085
306.386
306.724
307.132
307.712
308.569
309.658
300.508
301.457
302.248
302.821
303.28
303.705
304.068
304.342
304.531
304.651
304.725
304.77
304.797
304.814
304.828
304.84
304.854
304.87
304.892
304.92
304.959
305.012
305.081
305.174
305.293
305.446
305.635
305.864
306.13
306.429
306.765
307.173
307.753
308.609
309.697
300.516
301.481
302.284
302.867
303.336
303.77
304.137
304.41
304.595
304.711
304.781
304.821
304.845
304.861
304.872
304.883
304.896
304.912
304.933
304.962
305.001
305.054
305.124
305.217
305.338
305.492
305.682
305.91
306.175
306.474
306.808
307.215
307.795
308.65
309.738
300.525
301.505
302.321
302.914
303.394
303.838
304.208
304.48
304.661
304.772
304.837
304.874
304.895
304.907
304.917
304.927
304.938
304.953
304.974
305.003
305.042
305.095
305.167
305.261
305.382
305.537
305.727
305.955
306.219
306.516
306.849
307.255
307.834
308.689
309.776
300.533
301.53
302.36
302.964
303.456
303.908
304.282
304.553
304.729
304.835
304.895
304.927
304.945
304.955
304.963
304.971
304.981
304.996
305.016
305.044
305.084
305.138
305.21
305.305
305.428
305.583
305.774
306.002
306.265
306.56
306.891
307.297
307.876
308.73
309.817
300.543
301.557
302.401
303.017
303.52
303.982
304.36
304.628
304.799
304.899
304.954
304.982
304.996
305.003
305.009
305.016
305.025
305.038
305.058
305.086
305.126
305.18
305.253
305.349
305.472
305.628
305.819
306.046
306.308
306.601
306.932
307.336
307.915
308.769
309.855
300.552
301.585
302.443
303.071
303.586
304.058
304.439
304.705
304.871
304.965
305.014
305.037
305.047
305.052
305.056
305.061
305.069
305.082
305.101
305.129
305.169
305.224
305.297
305.394
305.518
305.674
305.865
306.092
306.353
306.645
306.974
307.378
307.957
308.81
309.895
300.563
301.614
302.486
303.126
303.652
304.134
304.519
304.783
304.945
305.033
305.076
305.094
305.1
305.102
305.104
305.107
305.114
305.126
305.144
305.172
305.212
305.267
305.341
305.438
305.563
305.719
305.91
306.137
306.396
306.686
307.014
307.417
307.996
308.848
309.933
300.573
301.644
302.53
303.181
303.719
304.211
304.598
304.862
305.018
305.101
305.138
305.151
305.154
305.153
305.152
305.154
305.159
305.17
305.189
305.216
305.256
305.311
305.386
305.483
305.609
305.766
305.957
306.183
306.441
306.73
307.056
307.459
308.037
308.889
309.974
300.584
301.673
302.574
303.237
303.787
304.287
304.678
304.94
305.093
305.169
305.201
305.21
305.209
305.205
305.202
305.201
305.206
305.215
305.233
305.26
305.3
305.355
305.43
305.528
305.654
305.811
306.002
306.227
306.484
306.771
307.097
307.499
308.077
308.928
310.012
300.595
301.704
302.619
303.294
303.855
304.364
304.758
305.019
305.168
305.239
305.265
305.269
305.264
305.257
305.252
305.25
305.253
305.261
305.278
305.305
305.345
305.4