/*--------------------------------*- C++ -*----------------------------------*\
| =========                 |                                                 |
| \\      /  F ield         | OpenFOAM: The Open Source CFD Toolbox           |
|  \\    /   O peration     | Version:  v2012                                 |
|   \\  /    A nd           | Website:  www.openfoam.com                      |
|    \\/     M anipulation  |                                                 |
\*---------------------------------------------------------------------------*/
FoamFile
{
    version     2.0;
    format      ascii;
    class       surfaceScalarField;
    location    "25";
    object      phi;
}
// * * * * * * * * * * * * * * * * * * * * * * * * * * * * * * * * * * * * * //

dimensions      [1 0 -1 0 0 0 0];
oriented        oriented;


internalField   nonuniform List<scalar> 
228225
(
-7.20927e-09
1.14459e-08
-4.48751e-09
-2.70362e-08
3.06603e-08
-1.08389e-08
-5.59298e-08
4.22101e-08
-1.3313e-08
-9.22486e-08
5.08864e-08
-1.45678e-08
-1.33812e-07
5.68533e-08
-1.52894e-08
-1.78359e-07
6.03156e-08
-1.5768e-08
-2.24223e-07
6.20307e-08
-1.61689e-08
-2.70177e-07
6.25445e-08
-1.65891e-08
-3.15306e-07
6.21873e-08
-1.70563e-08
-3.58595e-07
6.08613e-08
-1.75743e-08
-3.99075e-07
5.86244e-08
-1.81441e-08
-4.35909e-07
5.56874e-08
-1.88541e-08
-4.68434e-07
5.22534e-08
-1.97251e-08
-4.9604e-07
4.83784e-08
-2.07726e-08
-5.18244e-07
4.41964e-08
-2.19947e-08
-5.34704e-07
3.97987e-08
-2.33368e-08
-5.45257e-07
3.53093e-08
-2.47598e-08
-5.49719e-07
3.07571e-08
-2.629e-08
-5.48098e-07
2.6239e-08
-2.78609e-08
-5.40468e-07
2.18013e-08
-2.94297e-08
-5.27007e-07
1.7495e-08
-3.09562e-08
-5.07961e-07
1.33539e-08
-3.24033e-08
-4.83631e-07
9.40909e-09
-3.37355e-08
-4.54398e-07
5.68396e-09
-3.49183e-08
-4.20676e-07
2.19826e-09
-3.59212e-08
-3.82933e-07
-1.02567e-09
-3.67125e-08
-3.4169e-07
-3.98156e-09
-3.72648e-08
-2.97513e-07
-6.62998e-09
-3.75456e-08
-2.51047e-07
-8.94457e-09
-3.7524e-08
-2.03019e-07
-1.08748e-08
-3.71522e-08
-1.54309e-07
-1.23566e-08
-3.63534e-08
-1.06087e-07
-1.32725e-08
-3.4946e-08
-6.02332e-08
-1.34059e-08
-3.24542e-08
-2.03019e-08
-1.24066e-08
-2.75181e-08
-7.77421e-09
-1.25302e-08
-2.38533e-08
5.70282e-08
-2.17299e-08
-7.3222e-08
1.02762e-07
-2.27309e-08
-1.31027e-07
1.23379e-07
-2.33648e-08
-1.91768e-07
1.3625e-07
-2.46219e-08
-2.51362e-07
1.42434e-07
-2.59873e-08
-3.06979e-07
1.43295e-07
-2.73629e-08
-3.56674e-07
1.40545e-07
-2.882e-08
-3.99357e-07
1.35559e-07
-3.03282e-08
-4.34584e-07
1.29201e-07
-3.17897e-08
-4.62393e-07
1.21791e-07
-3.3119e-08
-4.83108e-07
1.13628e-07
-3.42905e-08
-4.97209e-07
1.05086e-07
-3.52953e-08
-5.05182e-07
9.63516e-08
-3.61279e-08
-5.0743e-07
8.74591e-08
-3.68304e-08
-5.04443e-07
7.8641e-08
-3.74331e-08
-4.96741e-07
7.00364e-08
-3.79401e-08
-4.84812e-07
6.17404e-08
-3.83598e-08
-4.69167e-07
5.38131e-08
-3.8702e-08
-4.50285e-07
4.63322e-08
-3.89731e-08
-4.28637e-07
3.93289e-08
-3.9176e-08
-4.0465e-07
3.2822e-08
-3.93149e-08
-3.78721e-07
2.68168e-08
-3.93923e-08
-3.51211e-07
2.13102e-08
-3.94093e-08
-3.22454e-07
1.62916e-08
-3.93667e-08
-2.9274e-07
1.17461e-08
-3.92619e-08
-2.6233e-07
7.65711e-09
-3.90921e-08
-2.31474e-07
4.00822e-09
-3.88478e-08
-2.0037e-07
7.84493e-10
-3.85167e-08
-1.69232e-07
-2.01024e-09
-3.80734e-08
-1.38249e-07
-4.37484e-09
-3.74834e-08
-1.07622e-07
-6.28159e-09
-3.67015e-08
-7.75651e-08
-7.66216e-09
-3.56663e-08
-4.84505e-08
-8.38504e-09
-3.41361e-08
-2.14192e-08
-8.05052e-09
-3.13879e-08
-4.12553e-09
-2.50675e-08
-2.6592e-08
8.15772e-08
2.04291e-09
-6.44104e-08
1.38178e-07
2.40214e-09
-1.04431e-07
1.6103e-07
2.37037e-09
-1.43989e-07
1.74049e-07
1.75907e-09
-1.81189e-07
1.79025e-07
6.08526e-10
-2.14895e-07
1.78168e-07
-1.1668e-09
-2.44306e-07
1.73534e-07
-3.57827e-09
-2.68607e-07
1.66521e-07
-6.66251e-09
-2.87268e-07
1.58092e-07
-1.02283e-08
-3.00252e-07
1.48785e-07
-1.40118e-08
-3.07961e-07
1.38964e-07
-1.76274e-08
-3.10891e-07
1.28816e-07
-2.07987e-08
-3.09686e-07
1.18479e-07
-2.33356e-08
-3.05045e-07
1.08111e-07
-2.52909e-08
-2.97589e-07
9.79878e-08
-2.68009e-08
-2.87834e-07
8.82687e-08
-2.799e-08
-2.76208e-07
7.90455e-08
-2.89305e-08
-2.6309e-07
7.03759e-08
-2.96807e-08
-2.48816e-07
6.23212e-08
-3.02611e-08
-2.33678e-07
5.48896e-08
-3.07022e-08
-2.17895e-07
4.8061e-08
-3.10197e-08
-2.0168e-07
4.18331e-08
-3.1232e-08
-1.8521e-07
3.619e-08
-3.13497e-08
-1.68631e-07
3.10966e-08
-3.13836e-08
-1.52065e-07
2.65214e-08
-3.13409e-08
-1.35612e-07
2.24273e-08
-3.1226e-08
-1.19341e-07
1.87802e-08
-3.10409e-08
-1.0332e-07
1.55426e-08
-3.07806e-08
-8.75794e-08
1.26865e-08
-3.04363e-08
-7.21536e-08
1.0186e-08
-2.99864e-08
-5.70662e-08
8.02926e-09
-2.94001e-08
-4.23339e-08
6.21555e-09
-2.86087e-08
-2.80207e-08
4.76254e-09
-2.74607e-08
-1.41921e-08
3.69973e-09
-2.55778e-08
2.8992e-09
-2.12181e-08
-2.43746e-08
7.91089e-08
2.68436e-08
-4.16556e-08
1.27227e-07
2.82304e-08
-5.60258e-08
1.47392e-07
2.80081e-08
-6.96505e-08
1.59961e-07
2.77122e-08
-8.38624e-08
1.66154e-07
2.7082e-08
-9.90975e-08
1.67605e-07
2.5798e-08
-1.14775e-07
1.65866e-07
2.33483e-08
-1.29883e-07
1.61846e-07
1.97818e-08
-1.43255e-07
1.56175e-07
1.52882e-08
-1.54007e-07
1.49191e-07
1.03479e-08
-1.61521e-07
1.41201e-07
5.27635e-09
-1.65552e-07
1.3242e-07
4.27114e-10
-1.66221e-07
1.23123e-07
-3.97646e-09
-1.64009e-07
1.13606e-07
-7.70705e-09
-1.5946e-07
1.04186e-07
-1.07481e-08
-1.53135e-07
9.51412e-08
-1.31965e-08
-1.45489e-07
8.66508e-08
-1.52519e-08
-1.36932e-07
7.87968e-08
-1.69769e-08
-1.27804e-07
7.16257e-08
-1.84348e-08
-1.18392e-07
6.51341e-08
-1.96557e-08
-1.08934e-07
5.92837e-08
-2.06799e-08
-9.96231e-08
5.40431e-08
-2.1522e-08
-9.06002e-08
4.937e-08
-2.22037e-08
-8.19752e-08
4.5214e-08
-2.27418e-08
-7.38169e-08
4.15138e-08
-2.31512e-08
-6.61637e-08
3.82151e-08
-2.34408e-08
-5.90193e-08
3.52547e-08
-2.36204e-08
-5.23435e-08
3.25669e-08
-2.36982e-08
-4.60496e-08
3.0071e-08
-2.36792e-08
-3.99935e-08
2.76928e-08
-2.35643e-08
-3.39541e-08
2.53359e-08
-2.33451e-08
-2.76059e-08
2.29016e-08
-2.30344e-08
-2.03634e-08
2.02393e-08
-2.27194e-08
-1.15705e-08
1.72872e-08
-2.23808e-08
1.18425e-08
-2.05129e-08
-1.53989e-08
6.22617e-08
3.22453e-08
-1.62521e-08
9.44872e-08
3.35941e-08
-1.18126e-08
1.09533e-07
3.34206e-08
-5.6135e-09
1.20505e-07
3.32566e-08
1.04199e-10
1.27809e-07
3.26249e-08
4.30882e-09
1.32058e-07
3.13443e-08
6.8571e-09
1.33849e-07
2.94686e-08
8.05958e-09
1.33625e-07
2.70184e-08
8.41438e-09
1.31738e-07
2.40817e-08
8.4099e-09
1.28476e-07
2.07197e-08
8.44599e-09
1.2408e-07
1.70857e-08
8.75098e-09
1.18784e-07
1.33307e-08
9.39852e-09
1.12821e-07
9.65313e-09
1.03586e-08
1.06456e-07
6.18894e-09
1.15569e-08
9.99571e-08
3.03333e-09
1.28908e-08
9.35783e-08
2.28355e-10
1.4203e-08
8.75184e-08
-2.18195e-09
1.53536e-08
8.19068e-08
-4.2584e-09
1.62064e-08
7.68027e-08
-6.03089e-09
1.66616e-08
7.2224e-08
-7.54441e-09
1.66173e-08
6.81567e-08
-8.82936e-09
1.60249e-08
6.45552e-08
-9.92008e-09
1.48626e-08
6.13699e-08
-1.08377e-08
1.31315e-08
5.85437e-08
-1.15974e-08
1.08488e-08
5.60108e-08
-1.22149e-08
8.07402e-09
5.36972e-08
-1.27069e-08
4.88782e-09
5.15264e-08
-1.30871e-08
1.42895e-09
4.94017e-08
-1.33745e-08
-2.12439e-09
4.72162e-08
-1.35911e-08
-5.51802e-09
4.4843e-08
-1.37587e-08
-8.42925e-09
4.21315e-08
-1.38844e-08
-1.04086e-08
3.88882e-08
-1.40075e-08
-1.06656e-08
3.48633e-08
-1.43666e-08
-8.0144e-09
2.97994e-08
-1.51634e-08
1.91517e-08
-1.53236e-08
-6.23429e-09
4.53468e-08
2.31485e-08
-3.23558e-09
6.75644e-08
2.39252e-08
4.17117e-09
7.85845e-08
2.35409e-08
1.42089e-08
8.71716e-08
2.32968e-08
2.56987e-08
9.3519e-08
2.27992e-08
3.7829e-08
9.79726e-08
2.19565e-08
4.997e-08
1.00906e-07
2.08007e-08
6.16566e-08
1.02541e-07
1.93984e-08
7.25147e-08
1.031e-07
1.77793e-08
8.22578e-08
1.02737e-07
1.59954e-08
9.0643e-08
1.01609e-07
1.40859e-08
9.74756e-08
9.98414e-08
1.21107e-08
1.02604e-07
9.75768e-08
1.01151e-08
1.05951e-07
9.49553e-08
8.15407e-09
1.07519e-07
9.21258e-08
6.26304e-09
1.07396e-07
8.92228e-08
4.47686e-09
1.05738e-07
8.63593e-08
2.81932e-09
1.02709e-07
8.36209e-08
1.31471e-09
9.84887e-08
8.10604e-08
-3.89566e-11
9.32246e-08
7.87085e-08
-1.21991e-09
8.70728e-08
7.65651e-08
-2.25626e-09
8.01617e-08
7.46162e-08
-3.15118e-09
7.26198e-08
7.28264e-08
-3.91424e-09
6.45663e-08
7.11539e-08
-4.55649e-09
5.61317e-08
6.95378e-08
-5.09241e-09
4.74486e-08
6.7916e-08
-5.53573e-09
3.86718e-08
6.62059e-08
-5.90301e-09
2.99683e-08
6.43186e-08
-6.21242e-09
2.15384e-08
6.2134e-08
-6.4886e-09
1.36231e-08
5.95124e-08
-6.75517e-09
6.52111e-09
5.62623e-08
-7.028e-09
6.18851e-10
5.21476e-08
-7.35464e-09
-3.38713e-09
4.68449e-08
-7.97946e-09
-4.3978e-09
3.99226e-08
-9.10917e-09
2.48114e-08
-1.00594e-08
-2.52206e-09
3.48768e-08
1.29925e-08
-2.99554e-10
5.31468e-08
1.21949e-08
4.98015e-09
6.20381e-08
1.12653e-08
1.22743e-08
6.90886e-08
1.07903e-08
2.08527e-08
7.45854e-08
1.03547e-08
3.01864e-08
7.88412e-08
9.79735e-09
3.98296e-08
8.21194e-08
9.14374e-09
4.93732e-08
8.45894e-08
8.40793e-09
5.84843e-08
8.63872e-08
7.60141e-09
6.68881e-08
8.76131e-08
6.72004e-09
7.43649e-08
8.83518e-08
5.7799e-09
8.07364e-08
8.86771e-08
4.79371e-09
8.58598e-08
8.86652e-08
3.78853e-09
8.9642e-08
8.83891e-08
2.78392e-09
9.20363e-08
8.79226e-08
1.80812e-09
9.30553e-08
8.73288e-08
8.76618e-10
9.27489e-08
8.66612e-08
3.78978e-12
9.11979e-08
8.59595e-08
-7.87683e-10
8.84952e-08
8.52578e-08
-1.49484e-09
8.47598e-08
8.45648e-08
-2.12079e-09
8.01028e-08
8.38832e-08
-2.66162e-09
7.46454e-08
8.31955e-08
-3.1219e-09
6.84967e-08
8.24813e-08
-3.50536e-09
6.17692e-08
8.17008e-08
-3.82052e-09
5.45709e-08
8.08118e-08
-4.07442e-09
4.70144e-08
7.97497e-08
-4.27849e-09
3.92201e-08
7.84425e-08
-4.44227e-09
3.13361e-08
7.67871e-08
-4.58199e-09
2.35213e-08
7.46589e-08
-4.71245e-09
1.60053e-08
7.1884e-08
-4.85325e-09
9.04217e-09
6.82357e-08
-5.01174e-09
3.0277e-09
6.34092e-08
-5.2472e-09
-1.3418e-09
5.69942e-08
-5.77841e-09
-3.07148e-09
4.84132e-08
-6.76136e-09
2.93473e-08
-7.60838e-09
-8.86085e-10
2.89849e-08
6.77743e-09
-1.49902e-09
4.8022e-08
5.73621e-09
-1.12172e-09
5.68736e-08
4.78981e-09
5.32014e-11
6.36961e-08
4.21725e-09
1.84297e-09
6.90167e-08
3.77852e-09
4.16561e-09
7.31875e-08
3.33045e-09
6.97376e-09
7.64713e-08
2.83993e-09
1.01793e-08
7.90655e-08
2.31889e-09
1.36741e-08
8.11171e-08
1.77347e-09
1.73325e-08
8.27407e-08
1.21622e-09
2.101e-08
8.4022e-08
6.51423e-10
2.45673e-08
8.5031e-08
8.94241e-11
2.78643e-08
8.58218e-08
-4.54973e-10
3.07911e-08
8.64419e-08
-9.78672e-10
3.32628e-08
8.69283e-08
-1.47756e-09
3.52167e-08
8.73144e-08
-1.93953e-09
3.66141e-08
8.76228e-08
-2.36e-09
3.74277e-08
8.78755e-08
-2.72805e-09
3.76482e-08
8.80828e-08
-3.04735e-09
3.72783e-08
8.82441e-08
-3.30904e-09
3.63277e-08
8.83493e-08
-3.51458e-09
3.48006e-08
8.83843e-08
-3.6638e-09
3.27283e-08
8.83197e-08
-3.76273e-09
3.01216e-08
8.81205e-08
-3.81528e-09
2.70316e-08
8.77333e-08
-3.83108e-09
2.35037e-08
8.70947e-08
-3.81739e-09
1.96194e-08
8.61147e-08
-3.78685e-09
1.54713e-08
8.46834e-08
-3.74977e-09
1.12049e-08
8.26469e-08
-3.72145e-09
6.98997e-09
7.9811e-08
-3.71178e-09
3.05506e-09
7.59039e-08
-3.73462e-09
-2.81811e-10
7.05767e-08
-3.82859e-09
-2.49579e-09
6.33375e-08
-4.13103e-09
-2.88142e-09
5.35391e-08
-4.73861e-09
3.16597e-08
-5.19508e-09
-1.4983e-09
2.64166e-08
4.06624e-09
-3.06371e-09
4.59848e-08
3.6036e-09
-4.38609e-09
5.50306e-08
3.16416e-09
-5.52252e-09
6.19616e-08
2.87041e-09
-6.42352e-09
6.73114e-08
2.60634e-09
-7.01549e-09
7.14715e-08
2.3097e-09
-7.25e-09
7.47286e-08
1.97585e-09
-7.09443e-09
7.72997e-08
1.61018e-09
-6.55017e-09
7.93473e-08
1.22601e-09
-5.63516e-09
8.09962e-08
8.29653e-10
-4.38988e-09
8.23418e-08
4.34418e-10
-2.86329e-09
8.34584e-08
4.69558e-11
-1.13379e-09
8.44038e-08
-3.12118e-10
7.27169e-10
8.52229e-08
-6.4266e-10
2.64075e-09
8.59504e-08
-9.33746e-10
4.52496e-09
8.66108e-08
-1.18126e-09
6.30233e-09
8.72219e-08
-1.37749e-09
7.91e-09
8.7792e-08
-1.52378e-09
9.28683e-09
8.83232e-08
-1.61612e-09
1.03808e-08
8.88083e-08
-1.65872e-09
1.11479e-08
8.92336e-08
-1.65144e-09
1.1559e-08
8.95757e-08
-1.60253e-09
1.15908e-08
8.98028e-08
-1.51491e-09
1.12399e-08
8.98709e-08
-1.39986e-09
1.05128e-08
8.97238e-08
-1.26265e-09
9.43554e-09
8.92881e-08
-1.11664e-09
8.04888e-09
8.84698e-08
-9.68996e-10
6.42101e-09
8.71471e-08
-8.34825e-10
4.63134e-09
8.51591e-08
-7.22468e-10
2.79232e-09
8.22954e-08
-6.46495e-10
1.03799e-09
7.82741e-08
-6.1427e-10
-4.5222e-10
7.27235e-08
-6.57148e-10
-1.39917e-09
6.51375e-08
-8.54316e-10
-1.43379e-09
5.48399e-08
-1.26577e-09
3.18853e-08
-1.65845e-09
-2.52619e-09
2.50838e-08
3.85993e-09
-5.22011e-09
4.46211e-08
4.05527e-09
-7.84164e-09
5.36015e-08
4.05303e-09
-1.03253e-08
6.04316e-08
4.01337e-09
-1.25777e-08
6.56575e-08
3.90443e-09
-1.45155e-08
6.96783e-08
3.73342e-09
-1.60855e-08
7.27893e-08
3.50731e-09
-1.72427e-08
7.52136e-08
3.24342e-09
-1.79649e-08
7.71202e-08
2.95075e-09
-1.82527e-08
7.86374e-08
2.64589e-09
-1.81128e-08
7.98652e-08
2.33697e-09
-1.75741e-08
8.08796e-08
2.03975e-09
-1.66712e-08
8.17414e-08
1.7608e-09
-1.54588e-08
8.24954e-08
1.51386e-09
-1.39898e-08
8.31778e-08
1.30269e-09
-1.23267e-08
8.38121e-08
1.13778e-09
-1.05417e-08
8.44161e-08
1.01899e-09
-8.6967e-09
8.49949e-08
9.54231e-10
-6.86267e-09
8.55496e-08
9.39235e-10
-5.10198e-09
8.60702e-08
9.76713e-10
-3.46868e-09
8.65418e-08
1.05844e-09
-2.01465e-09
8.69372e-08
1.18349e-09
-7.73713e-10
8.7223e-08
1.33995e-09
2.23042e-10
8.73513e-08
1.52389e-09
9.60225e-10
8.72645e-08
1.72058e-09
1.43962e-09
8.68855e-08
1.92388e-09
1.67304e-09
8.61197e-08
2.11695e-09
1.68588e-09
8.4842e-08
2.29208e-09
1.51994e-09
8.28947e-08
2.43133e-09
1.21979e-09
8.00685e-08
2.52721e-09
8.38849e-10
7.60916e-08
2.5618e-09
4.43729e-10
7.06015e-08
2.51746e-09
1.30666e-10
6.31171e-08
2.33296e-09
1.70114e-11
5.2985e-08
1.97079e-09
3.04895e-08
1.41192e-09
-3.42213e-09
2.42505e-08
4.25635e-09
-6.82338e-09
4.30761e-08
4.94527e-09
-1.01551e-08
5.16996e-08
5.23287e-09
-1.33054e-08
5.82267e-08
5.35613e-09
-1.61748e-08
6.31778e-08
5.35017e-09
-1.86891e-08
6.69406e-08
5.24911e-09
-2.07801e-08
6.98037e-08
5.07921e-09
-2.24105e-08
7.19881e-08
4.85379e-09
-2.3541e-08
7.36594e-08
4.59286e-09
-2.41612e-08
7.49486e-08
4.30795e-09
-2.42672e-08
7.59541e-08
4.01815e-09
-2.38792e-08
7.67571e-08
3.73321e-09
-2.30252e-08
7.74177e-08
3.47002e-09
-2.17502e-08
7.79869e-08
3.23521e-09
-2.01159e-08
7.84997e-08
3.04247e-09
-1.81849e-08
7.89857e-08
2.89456e-09
-1.60288e-08
7.94601e-08
2.80124e-09
-1.37293e-08
7.99341e-08
2.7608e-09
-1.13636e-08
8.04048e-08
2.77853e-09
-9.00649e-09
8.08662e-08
2.84797e-09
-6.73198e-09
8.12974e-08
2.96994e-09
-4.60316e-09
8.16743e-08
3.13347e-09
-2.67113e-09
8.19569e-08
3.33537e-09
-9.83877e-10
8.21004e-08
3.56079e-09
4.38054e-10
8.20411e-08
3.8033e-09
1.57149e-09
8.17067e-08
4.04513e-09
2.41586e-09
8.09984e-08
4.2776e-09
2.97559e-09
7.97996e-08
4.48141e-09
3.27014e-09
7.79545e-08
4.6467e-09
3.31408e-09
7.52703e-08
4.75393e-09
3.12389e-09
7.1489e-08
4.79235e-09
2.7136e-09
6.62777e-08
4.73348e-09
2.10859e-09
5.91907e-08
4.53233e-09
1.32779e-09
4.96319e-08
4.13219e-09
2.84748e-08
3.34335e-09
-3.45425e-09
2.35827e-08
4.12135e-09
-6.99094e-09
4.15559e-08
5.0567e-09
-1.05254e-08
4.97557e-08
5.47872e-09
-1.38932e-08
5.59181e-08
5.67614e-09
-1.69684e-08
6.0545e-08
5.7081e-09
-1.96604e-08
6.40018e-08
5.63235e-09
-2.19024e-08
6.65717e-08
5.47239e-09
-2.36311e-08
6.84658e-08
5.25078e-09
-2.48022e-08
6.9851e-08
4.98128e-09
-2.53942e-08
7.08545e-08
4.68498e-09
-2.53964e-08
7.15809e-08
4.37515e-09
-2.48212e-08
7.21106e-08
4.07169e-09
-2.37017e-08
7.25124e-08
3.78573e-09
-2.20871e-08
7.28378e-08
3.53434e-09
-2.0043e-08
7.31312e-08
3.32485e-09
-1.76486e-08
7.34222e-08
3.17018e-09
-1.49955e-08
7.37345e-08
3.07287e-09
-1.21806e-08
7.40769e-08
3.04078e-09
-9.29942e-09
7.44531e-08
3.07087e-09
-6.44983e-09
7.48518e-08
3.16552e-09
-3.72543e-09
7.52563e-08
3.31611e-09
-1.20505e-09
7.56348e-08
3.51968e-09
1.03986e-09
7.59498e-08
3.76248e-09
2.95503e-09
7.61475e-08
4.03709e-09
4.50406e-09
7.61677e-08
4.32569e-09
5.66079e-09
7.59301e-08
4.61756e-09
6.42541e-09
7.53436e-08
4.89244e-09
6.79716e-09
7.42882e-08
5.13824e-09
6.79612e-09
7.26219e-08
5.33398e-09
6.44357e-09
7.01561e-08
5.46783e-09
5.75794e-09
6.66569e-08
5.51797e-09
4.76215e-09
6.18088e-08
5.46376e-09
3.49378e-09
5.52095e-08
5.24933e-09
2.00692e-09
4.63039e-08
4.81511e-09
2.66048e-08
3.87706e-09
-2.97358e-09
2.34998e-08
3.05674e-09
-6.36935e-09
4.09665e-08
3.9854e-09
-9.93063e-09
4.88956e-08
4.4197e-09
-1.34177e-08
5.48006e-08
4.60569e-09
-1.66587e-08
5.91644e-08
4.62101e-09
-1.95252e-08
6.23467e-08
4.52119e-09
-2.19128e-08
6.46243e-08
4.33584e-09
-2.37394e-08
6.62118e-08
4.08037e-09
-2.49387e-08
6.72756e-08
3.7745e-09
-2.54688e-08
6.79515e-08
3.43336e-09
-2.53124e-08
6.83465e-08
3.07753e-09
-2.44758e-08
6.85527e-08
2.72195e-09
-2.29936e-08
6.8643e-08
2.38733e-09
-2.09256e-08
6.86817e-08
2.08776e-09
-1.83529e-08
6.87174e-08
1.84138e-09
-1.53787e-08
6.87911e-08
1.65713e-09
-1.21198e-08
6.89279e-08
1.54652e-09
-8.69866e-09
6.91451e-08
1.51128e-09
-5.24514e-09
6.94438e-08
1.55617e-09
-1.88739e-09
6.98174e-08
1.6762e-09
1.25792e-09
7.02417e-08
1.86941e-09
4.08283e-09
7.06859e-08
2.12385e-09
6.49958e-09
7.11024e-08
2.43021e-09
8.44251e-09
7.1437e-08
2.76971e-09
9.86349e-09
7.16176e-08
3.12789e-09
1.07455e-08
7.15639e-08
3.4835e-09
1.10932e-08
7.11753e-08
3.82195e-09
1.09232e-08
7.03354e-08
4.12279e-09
1.02755e-08
6.88967e-08
4.37195e-09
9.20131e-09
6.66801e-08
4.55029e-09
7.76154e-09
6.3454e-08
4.64375e-09
6.02217e-09
5.89219e-08
4.62493e-09
4.08994e-09
5.2698e-08
4.44526e-09
2.09683e-09
4.42666e-08
4.03189e-09
2.55731e-08
3.12708e-09
-2.16024e-09
2.43206e-08
1.34186e-09
-5.29167e-09
4.2015e-08
2.08047e-09
-8.82908e-09
4.99968e-08
2.43538e-09
-1.24462e-08
5.58651e-08
2.55312e-09
-1.58993e-08
6.01147e-08
2.50396e-09
-1.90117e-08
6.31127e-08
2.34514e-09
-2.16356e-08
6.51496e-08
2.09823e-09
-2.36517e-08
6.64481e-08
1.78117e-09
-2.49728e-08
6.71898e-08
1.40698e-09
-2.55362e-08
6.75193e-08
9.9382e-10
-2.53045e-08
6.75593e-08
5.55531e-10
-2.42764e-08
6.74103e-08
1.14694e-10
-2.24884e-08
6.71614e-08
-3.06674e-10
-2.00127e-08
6.68855e-08
-6.79822e-10
-1.69542e-08
6.66463e-08
-9.8706e-10
-1.34419e-08
6.64908e-08
-1.21215e-09
-9.62095e-09
6.64553e-08
-1.34909e-09
-5.64381e-09
6.65577e-08
-1.39044e-09
-1.66663e-09
6.68053e-08
-1.33637e-09
2.14862e-09
6.71866e-08
-1.18588e-09
5.6582e-09
6.76793e-08
-9.47234e-10
8.72782e-09
6.82426e-08
-6.26805e-10
1.12454e-08
6.88253e-08
-2.40484e-10
1.31304e-08
6.93591e-08
1.94427e-10
1.43305e-08
6.97663e-08
6.48676e-10
1.48465e-08
6.99524e-08
1.09815e-09
1.46883e-08
6.98116e-08
1.51947e-09
1.39099e-08
6.92151e-08
1.89926e-09
1.25749e-08
6.80109e-08
2.22006e-09
1.07772e-08
6.60086e-08
2.46955e-09
8.62571e-09
6.29751e-08
2.6306e-09
6.256e-09
5.86071e-08
2.68403e-09
3.85182e-09
5.25219e-08
2.5805e-09
1.65663e-09
4.42044e-08
2.25694e-09
2.5682e-08
1.54747e-09
-1.41328e-09
2.62032e-08
-4.69684e-10
-4.26355e-09
4.48759e-08
-9.76243e-12
-7.73516e-09
5.32478e-08
2.20395e-10
-1.14363e-08
5.93263e-08
2.39449e-10
-1.50647e-08
6.36343e-08
1.07272e-10
-1.83881e-08
6.65711e-08
-1.31674e-10
-2.12306e-08
6.84467e-08
-4.56975e-10
-2.34349e-08
6.951e-08
-8.57051e-10
-2.4884e-08
6.99584e-08
-1.31862e-09
-2.54939e-08
6.99592e-08
-1.83042e-09
-2.52119e-08
6.9649e-08
-2.37224e-09
-2.4035e-08
6.91491e-08
-2.91617e-09
-2.20069e-08
6.85609e-08
-3.42602e-09
-1.92238e-08
6.79755e-08
-3.87378e-09
-1.58053e-08
6.7465e-08
-4.23643e-09
-1.19051e-08
6.70905e-08
-4.50258e-09
-7.67756e-09
6.68929e-08
-4.66254e-09
-3.30548e-09
6.6899e-08
-4.71401e-09
1.0405e-09
6.71144e-08
-4.65434e-09
5.18205e-09
6.75307e-08
-4.48618e-09
8.95384e-09
6.81186e-08
-4.21011e-09
1.21965e-08
6.88346e-08
-3.835e-09
1.47774e-08
6.96147e-08
-3.37259e-09
1.66036e-08
7.03834e-08
-2.84725e-09
1.76102e-08
7.10463e-08
-2.28774e-09
1.77954e-08
7.14988e-08
-1.73079e-09
1.71965e-08
7.16158e-08
-1.2058e-09
1.58894e-08
7.12565e-08
-7.33785e-10
1.3976e-08
7.02496e-08
-3.25538e-10
1.15851e-08
6.83921e-08
7.63624e-12
8.87918e-09
6.54296e-08
2.51501e-10
6.04987e-09
6.10442e-08
3.91702e-10
3.35582e-09
5.48281e-08
3.88768e-10
1.12403e-09
4.62469e-08
1.89281e-10
2.70412e-08
-2.35101e-10
-8.85415e-10
2.89617e-08
-1.87338e-09
-3.48312e-09
4.91373e-08
-1.66354e-09
-6.8254e-09
5.81455e-08
-1.55477e-09
-1.04899e-08
6.46195e-08
-1.62948e-09
-1.41448e-08
6.91308e-08
-1.84126e-09
-1.75371e-08
7.21151e-08
-2.1522e-09
-2.04571e-08
7.39171e-08
-2.55002e-09
-2.2733e-08
7.48106e-08
-3.02487e-09
-2.42238e-08
7.50212e-08
-3.57069e-09
-2.48282e-08
7.4735e-08
-4.17305e-09
-2.44836e-08
7.41129e-08
-4.80761e-09
-2.31936e-08
7.3292e-08
-5.43444e-09
-2.10101e-08
7.23947e-08
-6.0145e-09
-1.80461e-08
7.15241e-08
-6.51443e-09
-1.44351e-08
7.07691e-08
-6.91513e-09
-1.0337e-08
7.01977e-08
-7.20419e-09
-5.92872e-09
6.98619e-08
-7.37805e-09
-1.38572e-09
6.97902e-08
-7.4335e-09
3.10673e-09
6.99937e-08
-7.37109e-09
7.36688e-09
7.046e-08
-7.19011e-09
1.12198e-08
7.1159e-08
-6.89351e-09
1.4502e-08
7.20373e-08
-6.48466e-09
1.70671e-08
7.30249e-08
-5.97553e-09
1.88038e-08
7.40313e-08
-5.38522e-09
1.96469e-08
7.49512e-08
-4.74723e-09
1.95877e-08
7.56601e-08
-4.10126e-09
1.86727e-08
7.60177e-08
-3.48789e-09
1.70012e-08
7.58607e-08
-2.93265e-09
1.46996e-08
7.50005e-08
-2.44978e-09
1.19298e-08
7.32086e-08
-2.04499e-09
8.87832e-09
7.0208e-08
-1.72755e-09
5.78116e-09
6.56501e-08
-1.5084e-09
2.93453e-09
5.90943e-08
-1.42001e-09
7.2087e-10
4.99637e-08
-1.50318e-09
2.94515e-08
-1.6888e-09
-6.83113e-10
3.22659e-08
-2.62097e-09
-3.11628e-09
5.41508e-08
-2.58091e-09
-6.31112e-09
6.38984e-08
-2.55789e-09
-9.85349e-09
7.08571e-08
-2.69509e-09
-1.34123e-08
7.56455e-08
-2.95566e-09
-1.67304e-08
7.8744e-08
-3.31183e-09
-1.95878e-08
8.05293e-08
-3.75344e-09
-2.181e-08
8.13072e-08
-4.27615e-09
-2.324e-08
8.13271e-08
-4.87446e-09
-2.37707e-08
8.08006e-08
-5.5341e-09
-2.33447e-08
7.99074e-08
-6.22198e-09
-2.19663e-08
7.8807e-08
-6.89378e-09
-1.97024e-08
7.76366e-08
-7.50547e-09
-1.667e-08
7.65172e-08
-8.02618e-09
-1.30114e-08
7.55481e-08
-8.43778e-09
-8.8899e-09
7.48103e-08
-8.7337e-09
-4.47804e-09
7.43602e-08
-8.91108e-09
4.96768e-11
7.4233e-08
-8.96993e-09
4.5134e-09
7.44389e-08
-8.90901e-09
8.73597e-09
7.4967e-08
-8.72928e-09
1.2544e-08
7.5781e-08
-8.43041e-09
1.57726e-08
7.68236e-08
-8.01491e-09
1.82732e-08
7.8013e-08
-7.48915e-09
1.99277e-08
7.92485e-08
-6.87112e-09
2.06616e-08
8.0408e-08
-6.19194e-09
2.04663e-08
8.1353e-08
-5.49606e-09
1.93884e-08
8.19225e-08
-4.82855e-09
1.75386e-08
8.19353e-08
-4.22303e-09
1.50539e-08
8.1178e-08
-3.69417e-09
1.21103e-08
7.93996e-08
-3.2472e-09
8.91162e-09
7.62924e-08
-2.88616e-09
5.70459e-09
7.14772e-08
-2.62002e-09
2.80057e-09
6.44714e-08
-2.47319e-09
5.91408e-10
5.46532e-08
-2.47864e-09
3.2543e-08
-2.50184e-09
-7.14646e-10
3.57384e-08
-2.75865e-09
-3.10754e-09
5.93208e-08
-2.77597e-09
-6.23015e-09
6.98081e-08
-2.78633e-09
-9.68658e-09
7.72564e-08
-2.94505e-09
-1.31503e-08
8.23335e-08
-3.22182e-09
-1.63763e-08
8.55591e-08
-3.59173e-09
-1.91419e-08
8.73451e-08
-4.04816e-09
-2.12715e-08
8.80245e-08
-4.58817e-09
-2.26108e-08
8.7874e-08
-5.20767e-09
-2.30475e-08
8.71264e-08
-5.88826e-09
-2.25323e-08
8.59842e-08
-6.59353e-09
-2.10751e-08
8.46243e-08
-7.27438e-09
-1.87537e-08
8.32025e-08
-7.88715e-09
-1.56856e-08
8.18532e-08
-8.40207e-09
-1.20228e-08
8.06897e-08
-8.80585e-09
-7.91913e-09
7.98013e-08
-9.09434e-09
-3.54415e-09
7.92524e-08
-9.2678e-09
9.33644e-10
7.9081e-08
-9.32573e-09
5.34121e-09
7.93002e-08
-9.26816e-09
9.50565e-09
7.98965e-08
-9.09487e-09
1.32622e-08
8.08315e-08
-8.80615e-09
1.64467e-08
8.20401e-08
-8.4015e-09
1.89127e-08
8.34326e-08
-7.88486e-09
2.05361e-08
8.48949e-08
-7.26946e-09
2.12357e-08
8.6292e-08
-6.58509e-09
2.0999e-08
8.74673e-08
-5.87572e-09
1.98693e-08
8.82426e-08
-5.19086e-09
1.79575e-08
8.84148e-08
-4.56736e-09
1.54081e-08
8.77496e-08
-4.02376e-09
1.24034e-08
8.59698e-08
-3.56406e-09
9.14669e-09
8.27404e-08
-3.19089e-09
5.88419e-09
7.76487e-08
-2.91025e-09
2.9285e-09
7.01732e-08
-2.7449e-09
6.61379e-10
5.96446e-08
-2.72285e-09
3.58964e-08
-2.69333e-09
-9.16742e-10
3.90784e-08
-2.42324e-09
-3.39085e-09
6.41941e-08
-2.39856e-09
-6.53732e-09
7.5347e-08
-2.39391e-09
-9.97172e-09
8.32323e-08
-2.54032e-09
-1.33905e-08
8.85591e-08
-2.80624e-09
-1.65481e-08
9.18851e-08
-3.16697e-09
-1.92417e-08
9.36514e-08
-3.61531e-09
-2.12854e-08
9.42192e-08
-4.15001e-09
-2.25334e-08
9.38877e-08
-4.76614e-09
-2.28751e-08
9.29129e-08
-5.44323e-09
-2.22666e-08
9.15162e-08
-6.14117e-09
-2.0727e-08
8.98947e-08
-6.80982e-09
-1.834e-08
8.82197e-08
-7.40565e-09
-1.52246e-08
8.66417e-08
-7.90238e-09
-1.1531e-08
8.52849e-08
-8.28926e-09
-7.41346e-09
8.42498e-08
-8.56526e-09
-3.03691e-09
8.3606e-08
-8.7311e-09
1.43421e-09
8.33973e-08
-8.78706e-09
5.83158e-09
8.36365e-08
-8.73271e-09
9.98499e-09
8.43104e-08
-8.56837e-09
1.37346e-08
8.53755e-08
-8.29361e-09
1.69215e-08
8.67615e-08
-7.90755e-09
1.9397e-08
8.83678e-08
-7.41113e-09
2.10378e-08
9.00695e-08
-6.81502e-09
2.17582e-08
9.17159e-08
-6.14549e-09
2.15384e-08
9.3135e-08
-5.44621e-09
2.04179e-08
9.41291e-08
-4.76755e-09
1.85074e-08
9.44762e-08
-4.1498e-09
1.59515e-08
9.39193e-08
-3.61353e-09
1.2926e-08
9.21585e-08
-3.16356e-09
9.63402e-09
8.88319e-08
-2.80093e-09
6.31879e-09
8.34974e-08
-2.53236e-09
3.27683e-09
7.55965e-08
-2.38116e-09
8.80208e-10
6.44187e-08
-2.37731e-09
3.91683e-08
-2.39198e-09
-1.22695e-09
4.20773e-08
-1.77154e-09
-3.86751e-09
6.8468e-08
-1.63468e-09
-7.10554e-09
8.01678e-08
-1.58154e-09
-1.05814e-08
8.83995e-08
-1.69206e-09
-1.39999e-08
9.39082e-08
-1.92966e-09
-1.71316e-08
9.72811e-08
-2.26597e-09
-1.97719e-08
9.89857e-08
-2.69241e-09
-2.17524e-08
9.94063e-08
-3.20749e-09
-2.2922e-08
9.88637e-08
-3.8055e-09
-2.31796e-08
9.76343e-08
-4.46392e-09
-2.24833e-08
9.59594e-08
-5.14096e-09
-2.0856e-08
9.40541e-08
-5.78603e-09
-1.83838e-08
9.2107e-08
-6.35741e-09
-1.51973e-08
9.02832e-08
-6.83123e-09
-1.14322e-08
8.87206e-08
-7.19939e-09
-7.25154e-09
8.75295e-08
-7.46191e-09
-2.8112e-09
8.67872e-08
-7.61993e-09
1.71734e-09
8.65416e-08
-7.67331e-09
6.16773e-09
8.68073e-08
-7.62196e-09
1.03757e-08
8.75697e-08
-7.4659e-09
1.4175e-08
8.87808e-08
-7.2052e-09
1.74116e-08
9.0363e-08
-6.83861e-09
1.99396e-08
9.2206e-08
-6.36603e-09
2.16324e-08
9.41716e-08
-5.79554e-09
2.24057e-08
9.60944e-08
-5.151e-09
2.22294e-08
9.77851e-08
-4.47417e-09
2.11455e-08
9.90285e-08
-3.81571e-09
1.92565e-08
9.95827e-08
-3.21751e-09
1.67061e-08
9.91706e-08
-2.70207e-09
1.367e-08
9.74712e-08
-2.27501e-09
1.03396e-08
9.40993e-08
-1.93766e-09
6.94801e-09
8.85871e-08
-1.69821e-09
3.78173e-09
8.03466e-08
-1.58398e-09
1.19744e-09
6.86322e-08
-1.63035e-09
4.21258e-08
-1.75845e-09
-1.58382e-09
4.46436e-08
-9.83622e-10
-4.42542e-09
7.20135e-08
-7.02852e-10
-7.79623e-09
8.41238e-08
-5.85561e-10
-1.13463e-08
9.25993e-08
-6.49467e-10
-1.47982e-08
9.82112e-08
-8.50827e-10
-1.79303e-08
1.01569e-07
-1.15626e-09
-2.05514e-08
1.03161e-07
-1.55488e-09
-2.24916e-08
1.03391e-07
-2.04422e-09
-2.36065e-08
1.02597e-07
-2.61746e-09
-2.37978e-08
1.01076e-07
-3.25063e-09
-2.30237e-08
9.90866e-08
-3.90125e-09
-2.13118e-08
9.68628e-08
-4.51954e-09
-1.87505e-08
9.46109e-08
-5.06577e-09
-1.54625e-08
9.25122e-08
-5.51816e-09
-1.15888e-08
9.07191e-08
-5.87005e-09
-7.29442e-09
8.93531e-08
-6.12147e-09
-2.73265e-09
8.85013e-08
-6.27307e-09
1.91579e-09
8.82161e-08
-6.32429e-09
6.48425e-09
8.85148e-08
-6.27505e-09
1.07992e-08
8.93801e-08
-6.1254e-09
1.46963e-08
9.07594e-08
-5.87584e-09
1.80198e-08
9.2566e-08
-5.52567e-09
2.06222e-08
9.46779e-08
-5.07481e-09
2.23804e-08
9.69427e-08
-4.52991e-09
2.32087e-08
9.91788e-08
-3.91273e-09
2.3078e-08
1.01179e-07
-3.263e-09
2.20276e-08
1.02711e-07
-2.63051e-09
2.01532e-08
1.03513e-07
-2.05774e-09
1.76034e-08
1.0329e-07
-1.5686e-09
1.45413e-08
1.01703e-07
-1.16987e-09
1.11579e-08
9.8347e-08
-8.6385e-10
7.67078e-09
9.27342e-08
-6.61136e-10
4.35838e-09
8.42546e-08
-5.94264e-10
1.55922e-09
7.21369e-08
-7.06031e-10
4.46645e-08
-9.79413e-10
-1.89454e-09
4.67694e-08
-2.31768e-10
-4.92178e-09
7.48605e-08
1.80437e-10
-8.41918e-09
8.72616e-08
3.60495e-10
-1.20545e-08
9.58915e-08
3.42169e-10
-1.5558e-08
1.01539e-07
1.76221e-10
-1.87184e-08
1.04829e-07
-9.9167e-11
-2.13496e-08
1.06264e-07
-4.71101e-10
-2.32867e-08
1.06263e-07
-9.3561e-10
-2.43858e-08
1.0518e-07
-1.48443e-09
-2.45435e-08
1.03327e-07
-2.09285e-09
-2.37215e-08
1.00982e-07
-2.71843e-09
-2.19437e-08
9.83978e-08
-3.31307e-09
-1.92926e-08
9.57993e-08
-3.83869e-09
-1.58928e-08
9.33873e-08
-4.2747e-09
-1.18911e-08
9.13313e-08
-4.61528e-09
-7.44188e-09
8.97661e-08
-4.85962e-09
-2.72308e-09
8.87892e-08
-5.00724e-09
2.08978e-09
8.846e-08
-5.05717e-09
6.81475e-09
8.87979e-08
-5.00899e-09
1.12738e-08
8.97837e-08
-4.86309e-09
1.5298e-08
9.1358e-08
-4.62043e-09
1.87206e-08
9.3423e-08
-4.28145e-09
2.14043e-08
9.58439e-08
-3.84692e-09
2.32167e-08
9.84512e-08
-3.32267e-09
2.40803e-08
1.01044e-07
-2.72926e-09
2.39671e-08
1.03397e-07
-2.10476e-09
2.29191e-08
1.05258e-07
-1.49724e-09
2.10329e-08
1.06347e-07
-9.49123e-10
1.84555e-08
1.06353e-07
-4.85054e-10
1.53504e-08
1.04922e-07
-1.13268e-10
1.19025e-08
1.01634e-07
1.62482e-10
8.31892e-09
9.59876e-08
3.29428e-10
4.86596e-09
8.73571e-08
3.50135e-10
1.87382e-09
7.49539e-08
1.74581e-10
4.67706e-08
-2.31892e-10
-2.08262e-09
4.85098e-08
3.42292e-10
-5.23543e-09
7.71432e-08
8.69262e-10
-8.82489e-09
8.97529e-08
1.09927e-09
-1.2529e-08
9.84774e-08
1.11721e-09
-1.60893e-08
1.04119e-07
9.79943e-10
-1.92987e-08
1.07311e-07
7.29032e-10
-2.19796e-08
1.08565e-07
3.78929e-10
-2.39615e-08
1.08311e-07
-6.52634e-11
-2.50998e-08
1.06911e-07
-5.94524e-10
-2.52817e-08
1.04693e-07
-1.18317e-09
-2.4461e-08
1.01952e-07
-1.79022e-09
-2.26567e-08
9.89604e-08
-2.36904e-09
-1.99401e-08
9.59672e-08
-2.88317e-09
-1.64349e-08
9.31949e-08
-3.31313e-09
-1.22875e-08
9.08352e-08
-3.65086e-09
-7.66688e-09
8.90396e-08
-3.89401e-09
-2.7571e-09
8.79194e-08
-4.04133e-09
2.25383e-09
8.75401e-08
-4.09108e-09
7.17014e-09
8.79249e-08
-4.04283e-09
1.18007e-08
8.90506e-08
-3.89698e-09
1.5962e-08
9.08518e-08
-3.65529e-09
1.9486e-08
9.32173e-08
-3.31898e-09
2.22254e-08
9.59955e-08
-2.89029e-09
2.40596e-08
9.89944e-08
-2.37738e-09
2.49112e-08
1.01992e-07
-1.79971e-09
2.47637e-08
1.04738e-07