/*--------------------------------*- C++ -*----------------------------------*\
| =========                 |                                                 |
| \\      /  F ield         | OpenFOAM: The Open Source CFD Toolbox           |
|  \\    /   O peration     | Version:  v2006                                 |
|   \\  /    A nd           | Website:  www.openfoam.com                      |
|    \\/     M anipulation  |                                                 |
\*---------------------------------------------------------------------------*/
FoamFile
{
    version     2.0;
    format      ascii;
    class       volScalarField;
    location    "9";
    object      alphat;
}
// * * * * * * * * * * * * * * * * * * * * * * * * * * * * * * * * * * * * * //

dimensions      [1 -1 -1 0 0 0 0];


internalField   nonuniform List<scalar> 
78750
(
1.96425e-06
5.68152e-06
1.97776e-05
1.54828e-05
1.4856e-05
1.55288e-05
1.52217e-05
1.52731e-05
1.53739e-05
1.54409e-05
1.51257e-05
1.47279e-05
1.43678e-05
1.40418e-05
1.37457e-05
1.34753e-05
1.32258e-05
1.29923e-05
1.27691e-05
1.25504e-05
1.23289e-05
1.21039e-05
1.18483e-05
1.15566e-05
1.12145e-05
1.08036e-05
1.03e-05
9.67262e-06
8.88145e-06
7.87378e-06
6.56949e-06
4.40997e-06
2.42101e-06
1.01001e-06
2.47941e-08
2.05011e-07
8.57973e-06
2.0831e-05
3.36323e-05
3.45268e-05
3.56585e-05
3.90335e-05
4.20944e-05
4.44948e-05
4.61608e-05
4.68865e-05
4.70619e-05
4.71698e-05
4.72991e-05
4.744e-05
4.75852e-05
4.77347e-05
4.79714e-05
4.84227e-05
4.90592e-05
4.97205e-05
5.01729e-05
5.03189e-05
5.02245e-05
4.96743e-05
4.83477e-05
4.59373e-05
4.21261e-05
3.67882e-05
3.0211e-05
2.32388e-05
1.71189e-05
1.2762e-05
6.79528e-06
8.81389e-08
2.79622e-07
1.01681e-05
1.45685e-05
1.5257e-05
1.59226e-05
1.7357e-05
1.93136e-05
2.16037e-05
2.46351e-05
3.02842e-05
4.15499e-05
4.4978e-05
4.46167e-05
4.44327e-05
4.44489e-05
4.46656e-05
4.50732e-05
4.56561e-05
4.63967e-05
4.72574e-05
4.81943e-05
4.91702e-05
5.01421e-05
5.10578e-05
4.6415e-05
4.29669e-05
3.97261e-05
3.58611e-05
3.15012e-05
2.68993e-05
2.2478e-05
1.87404e-05
1.51835e-05
5.60555e-06
1.08427e-07
2.78681e-07
1.4978e-05
1.7719e-05
1.76434e-05
1.91654e-05
2.19672e-05
2.56957e-05
3.04387e-05
3.86572e-05
5.3797e-05
5.42335e-05
5.26175e-05
5.10714e-05
4.97703e-05
4.88006e-05
4.81864e-05
4.79306e-05
4.80134e-05
4.83988e-05
4.90374e-05
4.98743e-05
5.08568e-05
5.12522e-05
4.78566e-05
4.48207e-05
4.16685e-05
3.80009e-05
3.39778e-05
2.98065e-05
2.58243e-05
2.25717e-05
2.05865e-05
1.90688e-05
6.51177e-06
1.28214e-07
2.89355e-07
1.00974e-05
2.13679e-05
2.00957e-05
2.09452e-05
2.30688e-05
2.57489e-05
2.81227e-05
2.9445e-05
2.99652e-05
3.10846e-05
3.56726e-05
4.05899e-05
3.93e-05
3.86225e-05
3.85131e-05
3.8885e-05
3.96444e-05
4.07089e-05
4.20105e-05
4.34885e-05
4.50804e-05
4.67063e-05
4.64893e-05
4.0297e-05
3.71446e-05
3.47464e-05
3.18706e-05
2.88796e-05
2.62154e-05
2.42665e-05
2.3061e-05
1.8909e-05
5.2479e-06
1.27048e-07
2.58813e-07
9.01032e-06
2.37419e-05
1.91771e-05
1.8085e-05
1.88593e-05
2.04445e-05
2.21059e-05
2.3406e-05
2.42453e-05
2.54997e-05
2.96516e-05
3.57885e-05
3.42725e-05
3.32537e-05
3.27738e-05
3.2816e-05
3.3334e-05
3.42643e-05
3.55367e-05
3.68419e-05
3.21175e-05
3.01793e-05
2.97159e-05
2.92397e-05
2.85162e-05
2.75312e-05
2.63043e-05
2.50474e-05
2.41644e-05
2.41215e-05
2.48342e-05
2.14517e-05
5.46835e-06
1.19206e-07
2.36249e-07
7.04661e-06
2.56807e-05
2.18087e-05
1.93747e-05
1.9089e-05
1.98964e-05
2.10216e-05
2.19679e-05
2.22587e-05
2.1661e-05
2.05586e-05
2.01638e-05
2.20639e-05
2.44109e-05
2.36316e-05
2.38395e-05
2.49273e-05
2.66667e-05
2.88039e-05
2.82285e-05
2.62702e-05
2.65569e-05
2.77321e-05
2.84507e-05
2.82727e-05
2.73928e-05
2.62304e-05
2.53017e-05
2.50133e-05
2.54391e-05
2.58547e-05
1.96398e-05
4.95837e-06
1.08853e-07
2.05945e-07
6.26606e-06
2.66452e-05
2.20982e-05
1.75471e-05
1.55738e-05
1.46023e-05
1.36464e-05
1.2554e-05
1.1411e-05
9.84039e-06
7.27082e-06
4.42305e-06
2.28035e-06
9.39786e-07
4.25168e-07
1.16295e-06
2.80369e-06
4.39769e-06
6.03307e-06
8.00338e-06
1.02496e-05
1.22746e-05
1.3678e-05
1.46525e-05
1.57187e-05
1.71835e-05
1.89804e-05
2.0848e-05
2.27849e-05
2.50231e-05
2.68022e-05
2.00687e-05
4.83337e-06
9.2529e-08
1.90894e-07
5.70511e-06
2.44809e-05
2.26209e-05
1.73332e-05
1.44604e-05
1.31744e-05
1.21817e-05
9.21444e-06
4.4914e-06
1.287e-06
6.09751e-08
2.78681e-07
8.72489e-08
2.17299e-07
5.84493e-08
7.47527e-07
4.43917e-07
3.23497e-07
7.51008e-07
9.24043e-08
4.25728e-07
1.88774e-06
4.30383e-06
7.9451e-06
1.30701e-05
1.71954e-05
1.77491e-05
1.79424e-05
1.98567e-05
2.32948e-05
2.61551e-05
2.03881e-05
5.02694e-06
8.24733e-08
1.97715e-07
5.32869e-06
2.2764e-05
1.93942e-05
1.38029e-05
1.03226e-05
6.80663e-06
3.02081e-06
5.41907e-07
1.18806e-07
2.98622e-07
1.76492e-07
3.68478e-07
2.19394e-06
4.84118e-06
7.55095e-06
9.35591e-06
9.69461e-06
8.63234e-06
6.7137e-06
4.48827e-06
2.34956e-06
5.74347e-07
2.72098e-07
6.2059e-07
3.0906e-07
1.15074e-06
3.90279e-06
8.91652e-06
1.51997e-05
2.00195e-05
2.31668e-05
1.98787e-05
5.04254e-06
8.95919e-08
2.15953e-07
4.87835e-06
1.96143e-05
1.78306e-05
1.16126e-05
6.40452e-06
2.33473e-06
4.27575e-08
3.43511e-07
1.12239e-07
3.85823e-07
2.93122e-06
7.53804e-06
1.32982e-05
1.87216e-05
2.28098e-05
2.51675e-05
2.5694e-05
2.45172e-05
2.18831e-05
1.80063e-05
1.31931e-05
8.15702e-06
3.85693e-06
1.0322e-06
3.13868e-07
3.70725e-07
7.06492e-07
1.92008e-06
6.45305e-06
1.3173e-05
1.82962e-05
1.65243e-05
4.6175e-06
1.03462e-07
2.28375e-07
4.35479e-06
1.70884e-05
1.34186e-05
6.46357e-06
2.21327e-06
7.69145e-08
3.08849e-07
4.03252e-07
4.62724e-07
3.39347e-06
7.89245e-06
1.26046e-05
1.66609e-05
1.99224e-05
2.23467e-05
2.38097e-05
2.42088e-05
2.35453e-05
2.19315e-05
1.95222e-05
1.64179e-05
1.26371e-05
8.32691e-06
4.18298e-06
1.20132e-06
5.29471e-07
3.19562e-07
2.30413e-07
1.51843e-06
5.63546e-06
1.24781e-05
1.31714e-05
3.7751e-06
1.08335e-07
2.40627e-07
3.92382e-06
1.46644e-05
1.03132e-05
3.83454e-06
8.6319e-07
2.88563e-07
1.94055e-07
2.57039e-07
2.78338e-06
7.15805e-06
1.2491e-05
1.79221e-05
2.29282e-05
2.70964e-05
3.00564e-05
3.16179e-05
3.17867e-05
3.06967e-05
2.85523e-05
2.55907e-05
2.20478e-05
1.8089e-05
1.37377e-05
9.02021e-06
4.52119e-06
1.34973e-06
1.78254e-07
9.6647e-08
8.90296e-08
1.94359e-06
7.1695e-06
1.03913e-05
3.25511e-06
1.13848e-07
2.41532e-07
3.48566e-06
1.29464e-05
6.71325e-06
1.8056e-06
4.12118e-07
2.49794e-07
9.21235e-08
1.72315e-06
5.40315e-06
1.06909e-05
1.64918e-05
2.18536e-05
2.62944e-05
2.95703e-05
3.15695e-05
3.2307e-05
3.19016e-05
3.0538e-05
2.8431e-05
2.57871e-05
2.2783e-05
1.9543e-05
1.61141e-05
1.24341e-05
8.40143e-06
4.34867e-06
1.30691e-06
2.41658e-09
1.5531e-07
2.20455e-07
2.76021e-06
8.2505e-06
2.76744e-06
1.21544e-07
2.29175e-07
3.12628e-06
1.13067e-05
5.39642e-06
1.22376e-06
5.47455e-08
2.38549e-07
4.04041e-07
2.75521e-06
7.21046e-06
1.31103e-05
1.92721e-05
2.4841e-05
2.9412e-05
3.27161e-05
3.45868e-05
3.5047e-05
3.42837e-05
3.2555e-05
3.01274e-05
2.72402e-05
2.4076e-05
2.07596e-05
1.73523e-05
1.38583e-05
1.02593e-05
6.58163e-06
3.16762e-06
7.94696e-07
3.75375e-07
3.56433e-07
1.22001e-06
6.29226e-06
2.42784e-06
1.36928e-07
2.03625e-07
2.82684e-06
1.00887e-05
3.91093e-06
7.18936e-07
3.65056e-07
1.48085e-07
1.46862e-06
4.93314e-06
1.04116e-05
1.66469e-05
2.23962e-05
2.72556e-05
3.11256e-05
3.3861e-05
3.53352e-05
3.55361e-05
3.46147e-05
3.28004e-05
3.03388e-05
2.74535e-05
2.43288e-05
2.10942e-05
1.78115e-05
1.44832e-05
1.11097e-05
7.76102e-06
4.60648e-06
1.99436e-06
4.30661e-07
3.0256e-07
5.69825e-07
4.53036e-06
2.19808e-06
1.55029e-07
1.82185e-07
2.64737e-06
9.02971e-06
2.55031e-06
1.89388e-07
2.2043e-07
6.96683e-07
3.23499e-06
7.76092e-06
1.31388e-05
1.81262e-05
2.25019e-05
2.64727e-05
3.00449e-05
3.30068e-05
3.50244e-05
3.58718e-05
3.54971e-05
3.39923e-05
3.15454e-05
2.84023e-05
2.4837e-05
2.10882e-05
1.72934e-05
1.35111e-05
9.84247e-06
6.5065e-06
3.7378e-06
1.68251e-06
4.3909e-07
5.61101e-08
5.96759e-07
5.01964e-06
2.01269e-06
1.64105e-07
1.73428e-07
2.58989e-06
7.31925e-06
1.11921e-06
2.77613e-07
6.86489e-07
3.03307e-06
7.28246e-06
1.20252e-05
1.60054e-05
1.9356e-05
2.25359e-05
2.57385e-05
2.8837e-05
3.16097e-05
3.38079e-05
3.51778e-05
3.54915e-05
3.45935e-05
3.24606e-05
2.92565e-05
2.5335e-05
2.10857e-05
1.67437e-05
1.24417e-05
8.42859e-06
5.09354e-06
2.6777e-06
1.1198e-06
2.55899e-07
6.60127e-08
9.55547e-07
6.43208e-06
1.7809e-06
1.47456e-07
1.81686e-07
2.56148e-06
3.71936e-06
6.2409e-07
8.68142e-07
2.86156e-06
6.49769e-06
1.02919e-05
1.3181e-05
1.55765e-05
1.80443e-05
2.07853e-05
2.37333e-05
2.67453e-05
2.9663e-05
3.22783e-05
3.42904e-05
3.53004e-05
3.48791e-05
3.27562e-05
2.90875e-05
2.4515e-05
1.97094e-05
1.49733e-05
1.04431e-05
6.44563e-06
3.42184e-06
1.50268e-06
5.37309e-07
2.18206e-07
4.2924e-07
2.14618e-06
4.76922e-06
1.57905e-06
1.14822e-07
2.0893e-07
3.18598e-06
2.90586e-06
1.61421e-06
2.99557e-06
6.09058e-06
9.46002e-06
1.17518e-05
1.34101e-05
1.51404e-05
1.72608e-05
1.9839e-05
2.27742e-05
2.58739e-05
2.89379e-05
3.17462e-05
3.39947e-05
3.52366e-05
3.49256e-05
3.26997e-05
2.88307e-05
2.42201e-05
1.96206e-05
1.518e-05
1.08239e-05
6.7814e-06
3.56994e-06
1.46803e-06
4.11597e-07
1.4746e-07
5.56757e-07
3.01281e-06
4.01724e-06
1.47796e-06
8.79584e-08
2.53624e-07
4.02619e-06
3.76317e-06
2.98672e-06
4.93079e-06
7.89618e-06
1.00314e-05
1.11424e-05
1.2023e-05
1.32399e-05
1.51056e-05
1.77291e-05
2.09928e-05
2.4607e-05
2.82224e-05
3.14661e-05
3.39254e-05
3.5097e-05
3.4435e-05
3.17141e-05
2.75177e-05
2.29991e-05
1.89208e-05
1.52977e-05
1.17851e-05
8.2084e-06
4.86978e-06
2.29462e-06
7.24435e-07
7.86373e-08
2.4527e-07
1.8712e-06
3.39034e-06
1.31938e-06
7.32389e-08
2.77801e-07
3.71048e-06
5.99619e-06
3.89438e-06
5.49068e-06
8.07222e-06
9.76333e-06
1.0222e-05
1.03577e-05
1.09326e-05
1.24131e-05
1.50395e-05
1.87612e-05
2.32181e-05
2.78003e-05
3.17638e-05
3.4468e-05
3.54744e-05
3.45011e-05
3.15999e-05
2.74272e-05
2.30365e-05
1.91918e-05
1.60347e-05
1.32738e-05
1.0499e-05
7.49511e-06
4.55438e-06
2.24764e-06
8.62526e-07
3.31828e-07
7.83368e-07
3.2796e-06
1.20656e-06
6.60234e-08
2.47656e-07
3.01999e-06
1.35616e-05
5.71532e-06
5.90651e-06
7.60777e-06
8.90788e-06
8.92171e-06
8.25453e-06
7.99245e-06
8.80646e-06
1.10178e-05
1.47099e-05
1.97198e-05
2.54978e-05
3.08856e-05
3.45531e-05
3.58118e-05
3.46675e-05
3.15523e-05
2.72659e-05
2.28245e-05
1.89718e-05
1.59376e-05
1.35612e-05
1.15041e-05
9.37178e-06
6.92043e-06
4.42006e-06
2.45461e-06
1.36159e-06
1.24466e-06
3.89438e-06
1.43924e-06
6.35082e-08
1.97094e-07
2.53455e-06
1.14986e-05
9.84071e-06
7.42149e-06
7.74864e-06
8.31036e-06
8.02781e-06
6.99581e-06
6.22625e-06
6.5835e-06
8.38498e-06
1.1705e-05
1.64795e-05
2.24533e-05
2.87686e-05
3.37474e-05
3.60058e-05
3.54073e-05
3.25745e-05
2.8363e-05
2.37705e-05
1.96526e-05
1.64004e-05
1.39671e-05
1.20925e-05
1.04176e-05
8.57876e-06
6.42347e-06
4.30736e-06
2.84301e-06
2.40955e-06
4.67233e-06
2.28024e-06
6.40695e-08
1.65081e-07
2.31012e-06
8.39223e-06
1.53758e-05
9.97295e-06
8.62264e-06
8.16741e-06
7.15053e-06
5.63898e-06
4.71734e-06
5.14869e-06
7.03137e-06
1.02979e-05
1.4786e-05
2.03106e-05
2.64752e-05
3.20616e-05
3.53297e-05
3.54934e-05
3.2994e-05
2.87589e-05
2.39273e-05
1.9539e-05
1.61107e-05
1.36329e-05
1.18596e-05
1.04569e-05
9.06003e-06
7.4042e-06
5.57125e-06
4.1083e-06
3.62491e-06
6.04386e-06
3.32622e-06
6.78169e-08
1.56233e-07
2.28273e-06
7.77102e-06
1.82802e-05
1.24858e-05
9.42486e-06
7.5651e-06
5.61498e-06
4.09179e-06
3.7371e-06
4.83455e-06
7.27424e-06
1.08341e-05
1.52137e-05
2.02712e-05
2.5891e-05
3.12866e-05
3.48767e-05
3.55373e-05
3.33526e-05
2.91104e-05
2.40303e-05
1.93728e-05
1.57886e-05
1.3273e-05
1.15587e-05
1.03124e-05
9.17648e-06
7.85084e-06
6.32143e-06
5.03087e-06
4.68663e-06
7.68968e-06
4.02881e-06
7.45296e-08
1.616e-07
2.35275e-06
7.80899e-06
1.90302e-05
1.36943e-05
8.88362e-06
5.80386e-06
3.81302e-06
3.05305e-06
3.62643e-06
5.51726e-06
8.47048e-06
1.20871e-05
1.61033e-05
2.06321e-05
2.57925e-05
3.09318e-05
3.4474e-05
3.51388e-05
3.28125e-05
2.82437e-05
2.28563e-05
1.80988e-05
1.45888e-05
1.22154e-05
1.06644e-05
9.61486e-06
8.7459e-06
7.77608e-06
6.64953e-06
5.68787e-06
5.7178e-06
1.00502e-05
4.10892e-06
8.37388e-08
1.72134e-07
2.42973e-06
7.94151e-06
1.85306e-05
1.19746e-05
6.50836e-06
3.77691e-06
2.69772e-06
2.92835e-06
4.41687e-06
6.97747e-06
1.01797e-05
1.36219e-05
1.73222e-05
2.16278e-05
2.6643e-05
3.15408e-05
3.46652e-05
3.48458e-05
3.20108e-05
2.6975e-05
2.13768e-05
1.67091e-05
1.34167e-05
1.12589e-05
9.89142e-06
9.00996e-06
8.32933e-06
7.61067e-06
6.8114e-06
6.18283e-06
6.72782e-06
1.28651e-05
3.95577e-06
9.45486e-08
1.80453e-07
2.42215e-06
7.77328e-06
1.67976e-05
8.50231e-06
4.13165e-06
2.5608e-06
2.47747e-06
3.56665e-06
5.74849e-06
8.61515e-06
1.16664e-05
1.47568e-05
1.81918e-05
2.24054e-05
2.73808e-05
3.2056e-05
3.46658e-05
3.41461e-05
3.05525e-05
2.49604e-05
1.92957e-05
1.49066e-05
1.19469e-05
1.00582e-05
8.90163e-06
8.21739e-06
7.77417e-06
7.3797e-06
6.94395e-06
6.715e-06
7.94421e-06
1.57681e-05
3.71164e-06
1.06087e-07
1.82538e-07
2.30104e-06
7.2709e-06
1.31756e-05
5.24981e-06
2.68399e-06
2.21852e-06
2.95759e-06
4.72872e-06
7.28539e-06
1.00767e-05
1.27842e-05
1.55914e-05
1.89614e-05
2.32975e-05
2.83729e-05
3.27957e-05
3.4749e-05
3.33874e-05
2.89955e-05
2.2991e-05
1.74509e-05
1.34212e-05
1.07908e-05
9.13961e-06
8.14965e-06
7.60369e-06
7.32775e-06
7.18101e-06
7.04487e-06
7.23712e-06
9.24326e-06
1.71229e-05
3.46549e-06
1.17409e-07
1.78582e-07
2.1045e-06
6.57419e-06
8.80241e-06
3.33797e-06
2.20126e-06
2.57007e-06
3.93072e-06
6.11129e-06
8.65494e-06
1.10851e-05
1.3406e-05
1.60023e-05
1.93645e-05
2.38161e-05
2.8951e-05
3.31274e-05
3.44921e-05
3.23435e-05
2.7211e-05
2.09363e-05
1.56308e-05
1.19751e-05
9.65072e-06
8.22141e-06
7.40564e-06
7.03007e-06
6.9706e-06
7.06964e-06
7.22343e-06
7.86509e-06
1.07242e-05
1.65238e-05
3.22406e-06
1.27744e-07
1.72727e-07
1.97181e-06
6.39616e-06
5.98087e-06
2.72536e-06
2.51722e-06
3.48126e-06
5.22865e-06
7.4678e-06
9.68335e-06
1.16816e-05
1.37062e-05
1.62029e-05
1.96354e-05
2.42453e-05
2.94522e-05
3.33945e-05
3.42312e-05
3.13982e-05
2.56798e-05
1.92919e-05
1.42503e-05
1.09047e-05
8.80802e-06
7.53221e-06
6.83168e-06
6.57569e-06
6.68573e-06
6.97539e-06
7.39691e-06
8.50168e-06
1.22344e-05
1.49161e-05
3.02037e-06
1.36793e-07
1.68767e-07
2.04443e-06
7.58469e-06
5.37129e-06
3.1563e-06
3.45681e-06
4.75285e-06
6.55981e-06
8.51937e-06
1.02804e-05
1.19011e-05
1.37115e-05
1.61359e-05
1.96006e-05
2.42956e-05
2.95341e-05
3.33312e-05
3.38041e-05
3.04167e-05
2.42189e-05
1.77962e-05
1.30118e-05
9.93304e-06
8.03316e-06
6.90248e-06
6.32712e-06
6.21166e-06
6.48357e-06
6.9482e-06
7.63017e-06
9.21332e-06
1.38168e-05
1.31776e-05
2.85203e-06
1.44265e-07
1.68557e-07
2.39e-06
1.09189e-05
6.31068e-06
4.26817e-06
4.73781e-06
6.0664e-06
7.63916e-06
9.18508e-06
1.05501e-05
1.19066e-05
1.35822e-05
1.59657e-05
1.94617e-05
2.42347e-05
2.95155e-05
3.32405e-05
3.34862e-05
2.97131e-05
2.319e-05
1.67626e-05
1.21491e-05
9.22987e-06
7.43975e-06
6.38964e-06
5.89326e-06
5.88869e-06
6.28128e-06
6.90054e-06
7.83768e-06
9.9025e-06
1.52787e-05
1.17475e-05
2.72064e-06
1.5007e-07
1.71945e-07
2.92992e-06
1.57856e-05
8.14004e-06
5.70201e-06
6.04755e-06
7.16817e-06
8.37391e-06
9.52091e-06
1.05723e-05
1.17246e-05
1.32738e-05
1.55773e-05
1.90298e-05
2.3806e-05
2.91414e-05
3.2934e-05
3.31436e-05
2.9153e-05
2.24068e-05
1.59707e-05
1.14676e-05
8.65187e-06
6.93378e-06
5.939e-06
5.50188e-06
5.588e-06
6.08085e-06
6.84459e-06
8.03425e-06
1.05809e-05
1.65709e-05
1.06329e-05
2.61665e-06
1.54163e-07
1.78343e-07
3.48134e-06
2.00153e-05
1.02796e-05
7.14498e-06
7.16747e-06
7.97166e-06
8.82615e-06
9.64214e-06
1.04548e-05
1.14417e-05
1.28656e-05
1.50627e-05
1.8426e-05
2.31643e-05
2.85765e-05
3.25685e-05
3.29745e-05
2.9034e-05
2.2193e-05
1.56608e-05
1.11186e-05
8.28754e-06
6.55854e-06
5.55818e-06
5.12948e-06
5.25443e-06
5.81239e-06
6.69868e-06
8.12274e-06
1.11232e-05
1.75419e-05
9.82317e-06
2.53784e-06
1.56687e-07
1.87046e-07
3.88227e-06
2.21873e-05
1.24796e-05
8.50279e-06
8.09582e-06
8.57116e-06
9.11133e-06
9.63071e-06
1.02217e-05
1.10308e-05
1.22913e-05
1.43185e-05
1.75018e-05
2.21104e-05
2.76011e-05
3.19531e-05
3.28218e-05
2.92097e-05
2.24085e-05
1.57253e-05
1.1038e-05
8.1089e-06
6.30938e-06
5.25406e-06
4.78568e-06
4.89554e-06
5.47769e-06
6.45333e-06
8.07684e-06
1.14835e-05
1.82062e-05
9.24048e-06
2.47839e-06
1.57831e-07
1.97329e-07
4.08988e-06
2.25837e-05
1.46868e-05
9.7809e-06
8.89025e-06
9.04561e-06
9.3125e-06
9.56714e-06
9.94717e-06
1.05702e-05
1.16436e-05
1.34598e-05
1.63973e-05
2.07875e-05
2.63054e-05
3.11166e-05
3.27162e-05
2.97848e-05
2.32281e-05
1.63173e-05
1.13205e-05
8.17152e-06
6.22142e-06
5.04934e-06
4.48142e-06
4.50684e-06
5.05329e-06
6.05779e-06
7.80376e-06
1.15091e-05
1.85433e-05
8.86044e-06
2.43686e-06
1.57881e-07
2.08035e-07
4.13235e-06
2.17433e-05
1.70603e-05
1.11155e-05
9.6755e-06
9.51235e-06
9.52598e-06
9.51623e-06
9.65173e-06
1.00549e-05
1.09065e-05
1.24669e-05
1.50903e-05
1.9156e-05
2.45959e-05
2.98963e-05
3.24343e-05
3.05022e-05
2.44805e-05
1.739e-05
1.19703e-05
8.49686e-06
6.32462e-06
4.98066e-06
4.25927e-06
4.13526e-06
4.58093e-06
5.53842e-06
7.30195e-06
1.11536e-05
1.86109e-05
8.64687e-06
2.41113e-06
1.5713e-07
2.18016e-07
4.06654e-06
2.01627e-05
1.97153e-05
1.26137e-05
1.05232e-05
1.0016e-05
9.78516e-06
9.52776e-06
9.3945e-06
9.56179e-06
1.0177e-05
1.14637e-05
1.374e-05
1.74032e-05
2.26161e-05
2.83132e-05
3.18892e-05
3.12215e-05
2.60914e-05
1.89677e-05
1.30356e-05
9.12136e-06
6.65024e-06
5.08252e-06
4.16109e-06
3.83094e-06
4.10789e-06
4.93151e-06
6.58014e-06
1.03503e-05
1.83571e-05
8.60527e-06
2.40159e-06
1.55924e-07
2.2605e-07
3.94362e-06
1.8255e-05
2.2687e-05
1.44298e-05
1.15466e-05
1.06369e-05
1.01482e-05
9.64146e-06
9.21009e-06
9.10371e-06
9.46003e-06
1.04624e-05
1.23789e-05
1.55883e-05
2.04267e-05
2.63397e-05
3.09379e-05
3.16724e-05
2.77538e-05
2.09049e-05
1.44914e-05
1.00482e-05
7.21132e-06
5.38049e-06
4.23063e-06
3.66456e-06
3.71519e-06
4.3351e-06
5.75454e-06
9.19972e-06
1.76489e-05
8.7361e-06
2.40793e-06
1.54575e-07
2.31421e-07
3.79879e-06
1.63876e-05
2.56722e-05
1.66516e-05
1.28132e-05
1.13971e-05
1.06113e-05
9.85256e-06
9.13277e-06
8.72611e-06
8.81952e-06
9.54916e-06
1.11261e-05
1.38821e-05
1.82397e-05
2.4117e-05
2.95823e-05
3.17439e-05
2.92424e-05
2.30269e-05
1.62739e-05
1.12504e-05
7.99216e-06
5.8719e-06
4.48216e-06
3.67516e-06
3.4618e-06
3.84009e-06
4.96158e-06
7.88738e-06
1.62797e-05
9.10989e-06
2.4361e-06
1.53554e-07
2.33875e-07
3.64968e-06
1.47216e-05
2.80435e-05
1.93065e-05
1.44036e-05
1.23465e-05
1.11984e-05
1.01679e-05
9.16478e-06
8.43608e-06
8.2539e-06
8.72273e-06
9.99511e-06
1.23379e-05
1.61815e-05
2.17876e-05
2.78612e-05
3.13723e-05
3.03371e-05
2.50508e-05
1.82058e-05
1.2635e-05
8.92794e-06
6.51111e-06
4.89138e-06
3.85599e-06
3.38037e-06
3.51063e-06
4.32337e-06
6.67029e-06
1.42962e-05
9.79623e-06
2.48938e-06
1.53216e-07
2.33994e-07
3.50905e-06
1.33231e-05
2.92592e-05
2.2192e-05
1.63021e-05
1.34734e-05
1.18726e-05
1.05343e-05
9.25518e-06
8.23181e-06
7.77695e-06
8.01642e-06
9.03873e-06
1.10396e-05
1.4409e-05
1.95974e-05
2.59522e-05
3.06276e-05
3.10042e-05
2.67957e-05
2.01113e-05
1.40831e-05
9.92158e-06
7.21399e-06
5.39393e-06
4.17001e-06
3.46921e-06
3.36345e-06
3.89132e-06
5.70572e-06
1.2127e-05
1.09e-05
2.5721e-06
1.53731e-07
2.32747e-07
3.38432e-06
1.21911e-05
2.93183e-05
2.49676e-05
1.84369e-05
1.47596e-05
1.26149e-05
1.09218e-05
9.36334e-06
8.07885e-06
7.36577e-06
7.4099e-06
8.23626e-06
9.97439e-06
1.29547e-05
1.76983e-05
2.40579e-05
2.96221e-05
3.12656e-05
2.8127e-05
2.17901e-05
1.54405e-05
1.08625e-05
7.88575e-06
5.90275e-06
4.54509e-06
3.68465e-06
3.3746e-06
3.66889e-06
5.06328e-06
1.03386e-05
1.24905e-05
2.68658e-06
1.55266e-07
2.31338e-07
3.28077e-06
1.13113e-05
2.86386e-05
2.72811e-05
2.06008e-05
1.61024e-05
1.33437e-05
1.12468e-05
9.40625e-06
7.90258e-06
6.99172e-06
6.89571e-06
7.59232e-06
9.15477e-06
1.18555e-05
1.62193e-05
2.24212e-05
2.85601e-05
3.12535e-05
2.90695e-05
2.31479e-05
1.65908e-05
1.1658e-05
8.44737e-06
6.33883e-06
4.89936e-06
3.9433e-06
3.4882e-06
3.61057e-06
4.70031e-06
9.11441e-06
1.45127e-05
2.82912e-06
1.5807e-07
2.3067e-07
3.19835e-06
1.06416e-05
2.7671e-05
2.89792e-05
2.25827e-05
1.73889e-05
1.39799e-05
1.14479e-05
9.33637e-06
7.66632e-06
6.63721e-06
6.45568e-06
7.08156e-06
8.54004e-06
1.10584e-05
1.51436e-05
2.11467e-05
2.76015e-05
3.10783e-05
2.96528e-05
2.41039e-05
1.74251e-05
1.22266e-05
8.83928e-06
6.64769e-06
5.17055e-06
4.17902e-06
3.65001e-06
3.66768e-06
4.56006e-06
8.42657e-06
1.6621e-05
2.98482e-06
1.62281e-07
2.31346e-07
3.13499e-06
1.01404e-05
2.67046e-05
3.00905e-05
2.4191e-05
1.84411e-05
1.43962e-05
1.14396e-05
9.09884e-06
7.33313e-06
6.27403e-06
6.07654e-06
6.6933e-06
8.11385e-06
1.05388e-05
1.44581e-05
2.03037e-05
2.68961e-05
3.0878e-05
2.99828e-05
2.46923e-05
1.79221e-05
1.25414e-05
9.04266e-06
6.81072e-06
5.33239e-06
4.34802e-06
3.80703e-06
3.78371e-06
4.57123e-06
8.1422e-06
1.83619e-05
3.13387e-06
1.6792e-07
2.33494e-07
3.08571e-06
9.76004e-06
2.5858e-05
3.07555e-05
2.53398e-05
1.91333e-05
1.45145e-05
1.11944e-05
8.7003e-06
6.9212e-06
5.90916e-06
5.76097e-06
6.41558e-06
7.8444e-06
1.02401e-05
1.40856e-05
1.9843e-05
2.64757e-05
3.07157e-05
3.01037e-05
2.49103e-05
1.80549e-05
1.25877e-05
9.0563e-06
6.82937e-06
5.38016e-06
4.43754e-06
3.9329e-06
3.92209e-06
4.6887e-06
8.17127e-06
1.9449e-05
3.25728e-06
1.74777e-07
2.36823e-07
3.04518e-06
9.45945e-06
2.51509e-05
3.11184e-05
2.60235e-05
1.93929e-05
1.42971e-05
1.07156e-05
8.1712e-06
6.46426e-06
5.56167e-06
5.51045e-06
6.23363e-06
7.70278e-06
1.012e-05
1.39728e-05
1.97196e-05
2.63448e-05
3.06383e-05
3.00792e-05
2.48235e-05
1.78839e-05
1.24172e-05
8.9212e-06
6.73461e-06
5.33209e-06
4.44895e-06
4.01451e-06
4.05655e-06
4.86564e-06
8.41954e-06
1.99e-05
3.34543e-06
1.82509e-07
2.40661e-07
3.00686e-06
9.19748e-06
2.4542e-05
3.12785e-05
2.62767e-05
1.9215e-05
1.3768e-05
1.00697e-05
7.58721e-06
6.02033e-06
5.26126e-06
5.32629e-06
6.12815e-06
7.65364e-06
1.0127e-05
1.4049e-05
1.98497e-05
2.64437e-05
3.06298e-05
2.99133e-05
2.44508e-05
1.74497e-05
1.20752e-05
8.67927e-06
6.56423e-06
5.21956e-06
4.40177e-06
4.05394e-06
4.17667e-06
5.07958e-06
8.82591e-06
1.98342e-05
3.39794e-06
1.90816e-07
2.43998e-07
2.96459e-06
8.93879e-06
2.39628e-05
3.12967e-05
2.61741e-05
1.86753e-05
1.302e-05
9.34752e-06
7.01262e-06
5.61998e-06
5.00993e-06
5.18995e-06
6.07101e-06
7.665e-06
1.02264e-05
1.42764e-05
2.01917e-05
2.67408e-05
3.06784e-05
2.96138e-05
2.38424e-05
1.68353e-05
1.16343e-05
8.38512e-06
6.3614e-06
5.07776e-06
4.32047e-06
4.05792e-06
4.27104e-06
5.3003e-06
9.32095e-06
1.93976e-05
3.42356e-06
1.99623e-07
2.45756e-07
2.91429e-06
8.66099e-06
2.33526e-05
3.11962e-05
2.57812e-05
1.78737e-05
1.21615e-05
8.63052e-06
6.49126e-06
5.27678e-06
4.80367e-06
5.08822e-06
6.04738e-06
7.72213e-06
1.04005e-05
1.46286e-05
2.071e-05
2.71912e-05
3.07423e-05
2.91535e-05
2.30201e-05
1.60932e-05
1.11378e-05
8.07227e-06
6.15667e-06
4.9374e-06
4.23353e-06
4.04444e-06
4.34237e-06
5.50999e-06
9.84744e-06
1.87326e-05
3.43191e-06
2.09231e-07
2.4502e-07
2.85508e-06
8.35646e-06
2.26671e-05
3.09725e-05
2.51559e-05
1.69141e-05
1.12794e-05
7.96069e-06
6.02787e-06
4.97557e-06
4.62329e-06
5.00475e-06
6.04757e-06
7.82176e-06
1.06514e-05
1.51112e-05
2.14021e-05
2.7767e-05
3.07773e-05
2.85095e-05
2.20203e-05
1.52722e-05
1.06181e-05
7.76145e-06
5.96921e-06
4.82047e-06
4.16471e-06
4.03099e-06
4.39656e-06
5.69569e-06
1.0352e-05
1.80033e-05
3.43376e-06
2.2032e-07
2.41578e-07
2.78932e-06
8.03713e-06
2.19057e-05
3.05899e-05
2.42958e-05
1.5835e-05
1.03937e-05
7.32762e-06
5.59654e-06
4.69269e-06
4.46142e-06
4.94908e-06
6.09579e-06
7.99962e-06
1.10252e-05
1.57749e-05
2.22956e-05
2.84365e-05
3.07169e-05
2.76379e-05
2.08441e-05
1.43716e-05
1.00633e-05
7.44048e-06
5.79421e-06
4.73428e-06
4.13509e-06
4.04328e-06
4.45685e-06
5.87291e-06
1.08408e-05
1.73044e-05
3.43395e-06
2.33515e-07
2.36028e-07
2.72399e-06
7.73254e-06
2.11326e-05
3.00085e-05
2.31468e-05
1.46204e-05
9.4816e-06
6.69899e-06
5.17021e-06
4.41845e-06
4.33131e-06
4.94892e-06
6.22763e-06
8.29733e-06
1.15702e-05
1.66652e-05
2.33916e-05
2.91322e-05
3.04821e-05
2.65098e-05
1.95049e-05
1.33941e-05
9.46267e-06
7.09278e-06
5.61531e-06
4.66948e-06
4.15031e-06
4.09877e-06
4.54982e-06
6.07638e-06
1.13774e-05
1.66364e-05
3.43047e-06
2.48965e-07
2.29629e-07
2.66649e-06
7.47744e-06
2.04603e-05
2.91857e-05
2.15983e-05
1.32204e-05
8.50892e-06
6.05012e-06
4.74247e-06
4.16932e-06
4.26717e-06
5.04933e-06
6.49436e-06
8.77265e-06
1.23555e-05
1.78437e-05
2.46822e-05
2.97689e-05
2.99939e-05
2.50974e-05
1.80012e-05
1.23296e-05
8.80021e-06
6.70077e-06
5.41603e-06
4.61583e-06
4.21134e-06
4.21428e-06
4.70807e-06
6.36043e-06
1.20737e-05
1.59296e-05
3.41834e-06
2.66096e-07
2.23732e-07
2.62237e-06
7.29995e-06
2.00093e-05
2.81032e-05
1.96103e-05
1.16475e-05
7.48671e-06
5.39623e-06
4.34348e-06
3.98718e-06
4.30944e-06
5.28673e-06
6.92804e-06
9.45989e-06
1.34207e-05
1.93091e-05
2.60702e-05
3.02192e-05
2.91782e-05
2.33936e-05
1.63559e-05
1.11938e-05
8.07946e-06
6.2595e-06
5.18511e-06
4.56189e-06
4.31085e-06
4.39923e-06
4.96441e-06
6.79945e-06
1.30914e-05
1.51284e-05
3.39631e-06
2.83473e-07
2.19337e-07
2.59547e-06
7.22097e-06
1.98873e-05
2.66859e-05
1.72033e-05
9.97583e-06
6.48087e-06
4.79756e-06
4.03546e-06
3.93486e-06
4.50546e-06
5.69119e-06
7.54685e-06
1.03722e-05
1.47619e-05
2.10025e-05
2.7416e-05
3.03819e-05
2.7995e-05
2.14273e-05
1.46258e-05
1.00261e-05
7.32526e-06
5.78292e-06
4.92826e-06
4.51084e-06
4.44511e-06
4.65574e-06
5.3423e-06
7.47123e-06
1.46034e-05
1.42015e-05
3.36164e-06
2.99025e-07
2.16727e-07
2.58557e-06
7.24614e-06
2.01604e-05
2.48126e-05
1.45991e-05
8.39084e-06
5.60861e-06
4.34509e-06
3.88643e-06
4.05871e-06
4.86211e-06
6.24165e-06
8.3149e-06
1.14661e-05
1.63037e-05
2.2766e-05
2.85453e-05
3.01861e-05
2.64459e-05
1.92967e-05
1.29165e-05
8.89429e-06
6.58218e-06
5.30009e-06
4.66214e-06
4.47308e-06
4.60861e-06
4.97957e-06
5.85685e-06
8.43629e-06
1.67092e-05
1.31859e-05
3.31251e-06
3.10793e-07
2.1555e-07
2.59128e-06
7.37505e-06
2.08403e-05
2.24191e-05
1.21581e-05
7.09151e-06
4.97587e-06
4.10007e-06
3.91993e-06
4.34344e-06
5.33398e-06
6.8788e-06
9.17167e-06
1.26799e-05
1.79468e-05
2.44506e-05
2.93689e-05
2.96264e-05
2.45909e-05
1.71556e-05
1.13423e-05
7.86503e-06
5.89389e-06
4.8432e-06
4.41097e-06
4.45545e-06
4.79686e-06
5.36658e-06
6.525e-06
9.74124e-06
1.92643e-05
1.21895e-05
3.25389e-06
3.17703e-07
2.15089e-07
2.61127e-06
7.60589e-06
2.18781e-05
1.97514e-05
1.02067e-05
6.19825e-06
4.62685e-06
4.06693e-06
4.1088e-06
4.72187e-06
5.84317e-06
7.5234e-06
1.00358e-05
1.39089e-05
1.95432e-05
2.59041e-05
2.98481e-05
2.87454e-05
2.26029e-05
1.52117e-05
1.00144e-05
6.99744e-06
5.29809e-06
4.43579e-06
4.18755e-06
4.44613e-06
4.99315e-06
5.79982e-06
7.34342e-06
1.13701e-05
2.17416e-05
1.13074e-05
3.19309e-06
3.20259e-07
2.14558e-07
2.64416e-06
7.93117e-06
2.31169e-05
1.73406e-05
8.87976e-06
5.70045e-06
4.52675e-06
4.19093e-06
4.3837e-06
5.1088e-06
6.31013e-06
8.10652e-06
1.08389e-05
1.50676e-05
2.09967e-05
2.70818e-05
3.00304e-05
2.76502e-05
2.0709e-05
1.36106e-05
8.97558e-06
6.31587e-06
4.81671e-06
4.09307e-06
3.99731e-06
4.42661e-06
5.16813e-06
6.24101e-06
8.25541e-06
1.31965e-05
2.34671e-05
1.05922e-05
3.13813e-06
3.20274e-07
2.13389e-07
2.68915e-06
8.3356e-06
2.43389e-05
1.55972e-05
8.12896e-06
5.51734e-06
4.60038e-06
4.3934e-06
4.66754e-06
5.4386e-06
6.68979e-06
8.59271e-06
1.15369e-05
1.60917e-05
2.22411e-05
2.7979e-05
2.99802e-05
2.64914e-05
1.90985e-05
1.23973e-05
8.21493e-06
5.814e-06
4.4513e-06
3.81595e-06
3.82563e-06
4.37421e-06
5.28911e-06
6.64124e-06
9.16543e-06
1.49916e-05
2.42098e-05
1.0055e-05
3.09505e-06
3.19907e-07
2.11359e-07
2.74399e-06
8.79014e-06
2.54058e-05
1.4608e-05
7.82703e-06
5.55026e-06
4.76606e-06
4.60415e-06
4.90029e-06
5.68155e-06
6.96956e-06
8.96897e-06
1.21033e-05
1.69411e-05
2.3256e-05
2.86368e-05
2.97928e-05
2.54305e-05
1.78597e-05
1.15407e-05
7.69252e-06
5.4707e-06
4.19493e-06
3.60352e-06
3.66286e-06
4.27609e-06
5.32619e-06
6.94362e-06
9.95171e-06
1.65122e-05
2.42543e-05
9.67173e-06
3.06521e-06
3.20881e-07
2.08664e-07
2.80639e-06
9.26609e-06
2.63289e-05
1.42395e-05
7.82878e-06
5.70362e-06
4.95551e-06
4.77984e-06
5.0629e-06
5.84255e-06
7.163e-06
9.24634e-06
1.25422e-05
1.76147e-05
2.40506e-05
2.90981e-05
2.95394e-05
2.45412e-05
1.69498e-05
1.09467e-05
7.33933e-06
5.24555e-06
4.02931e-06
3.45542e-06
3.52052e-06
4.1448e-06
5.27303e-06
7.10037e-06
1.05136e-05
1.76047e-05
2.39717e-05
9.40381e-06
3.04575e-06
3.23913e-07
2.05747e-07
2.8749e-06
9.74127e-06
2.71612e-05
1.4295e-05
8.00207e-06
5.9007e-06
5.12456e-06
4.90532e-06
5.16544e-06
5.94595e-06
7.29832e-06
9.45222e-06
1.28782e-05
1.81361e-05
2.46586e-05
2.94147e-05
2.9278e-05
2.38325e-05
1.6281e-05
1.05184e-05
7.08551e-06
5.09023e-06
3.92475e-06
3.36338e-06
3.41493e-06
4.01294e-06
5.16037e-06
7.11883e-06
1.08248e-05
1.82671e-05
2.35896e-05
9.20191e-06
3.03081e-06
3.28607e-07
2.03257e-07
2.94851e-06
1.02065e-05
2.79271e-05
1.4567e-05
8.23843e-06
6.0865e-06
5.25175e-06
4.98497e-06
5.22978e-06
6.01968e-06
7.40311e-06
9.61243e-06
1.31347e-05
1.85269e-05
2.50991e-05
2.9611e-05
2.90295e-05
2.32682e-05
1.57615e-05
1.01752e-05
6.87296e-06
4.95985e-06
3.84665e-06
3.30839e-06
3.35174e-06
3.91158e-06
5.03694e-06
7.05191e-06
1.09395e-05
1.86097e-05
2.31952e-05
9.0195e-06
3.0133e-06
3.33813e-07
2.01796e-07
3.02574e-06
1.06594e-05
2.85977e-05
1.48821e-05
8.45747e-06
6.2279e-06
5.3326e-06
5.03225e-06
5.27814e-06
6.08659e-06
7.49891e-06
9.75027e-06
1.33423e-05
1.88247e-05
2.54101e-05
2.97187e-05
2.88012e-05
2.27987e-05
1.53158e-05
9.86042e-06
6.66219e-06
4.82153e-06
3.7646e-06
3.26618e-06
3.32316e-06
3.85706e-06
4.94696e-06
6.97073e-06
1.09601e-05
1.87894e-05
2.27982e-05
8.82397e-06
2.98795e-06
3.37908e-07
2.01865e-07
3.10546e-06
1.11042e-05
2.91439e-05
1.51246e-05
8.61295e-06
6.31622e-06
5.37952e-06
5.06861e-06
5.33144e-06
6.16173e-06
7.5947e-06
9.87144e-06
1.35068e-05
1.90388e-05
2.56066e-05
2.97571e-05
2.86013e-05
2.24058e-05
1.49198e-05
9.55859e-06
6.44214e-06
4.66229e-06
3.65979e-06
3.21319e-06
3.30865e-06
3.84322e-06
4.91004e-06
6.92945e-06
1.09851e-05
1.89452e-05
2.23831e-05
8.60012e-06
2.95265e-06
3.39504e-07
2.0359e-07
3.18322e-06