/*--------------------------------*- C++ -*----------------------------------*\
| =========                 |                                                 |
| \\      /  F ield         | OpenFOAM: The Open Source CFD Toolbox           |
|  \\    /   O peration     | Version:  v2006                                 |
|   \\  /    A nd           | Website:  www.openfoam.com                      |
|    \\/     M anipulation  |                                                 |
\*---------------------------------------------------------------------------*/
FoamFile
{
    version     2.0;
    format      ascii;
    class       volScalarField;
    location    "25";
    object      k;
}
// * * * * * * * * * * * * * * * * * * * * * * * * * * * * * * * * * * * * * //

dimensions      [0 2 -2 0 0 0 0];


internalField   nonuniform List<scalar> 
78750
(
0.851634
0.228511
0.0872851
0.00376604
0.00321222
0.00306686
0.00338648
0.00309322
0.00325237
0.00312496
0.00317018
0.00313237
0.00312917
0.0031191
0.00311319
0.00310939
0.00310786
0.00310844
0.00311082
0.00311453
0.00311891
0.00312308
0.00312591
0.00312603
0.00312182
0.0031114
0.00309285
0.0030632
0.00301868
0.00295398
0.00286092
0.00272523
0.00252178
0.00211109
0.000557257
0.0262868
0.00713792
0.00342236
0.00305171
0.00369647
0.00401266
0.00403227
0.00412082
0.00415511
0.00420406
0.00423959
0.00427609
0.00431081
0.00434554
0.00438061
0.00441632
0.00445224
0.0044879
0.00452258
0.00455534
0.00458493
0.00460993
0.004629
0.00464109
0.00464556
0.00464191
0.00462823
0.00460318
0.00456636
0.00451833
0.00446183
0.00439115
0.00424466
0.00368975
0.00128196
0.00133534
0.00309342
0.0033083
0.00303057
0.00302873
0.00314523
0.00329345
0.00343844
0.00357239
0.00368448
0.00377586
0.00384957
0.0039087
0.00395579
0.00399296
0.00402195
0.00404419
0.00406042
0.0040711
0.0040763
0.00407566
0.00406832
0.00405301
0.00402825
0.00399271
0.00394586
0.00388857
0.00382244
0.00374695
0.00366275
0.00357294
0.00345111
0.00322182
0.00278254
0.00159096
0.000435505
0.00147407
0.00199626
0.00233165
0.00261172
0.00289237
0.00315492
0.00337329
0.00355106
0.0036983
0.00382129
0.00392353
0.00400758
0.00407576
0.0041303
0.00417341
0.00420727
0.00423403
0.00425578
0.00427423
0.00429024
0.00430356
0.00431261
0.00431437
0.00430455
0.00427786
0.00422918
0.00415586
0.00405959
0.00394513
0.00381329
0.00364198
0.00334852
0.00278416
0.00180545
0.000791422
0.00229613
0.002736
0.00299883
0.00322592
0.00342245
0.00359517
0.00375135
0.003895
0.00402679
0.00414576
0.00425044
0.00433943
0.00441178
0.00446727
0.00450651
0.00453103
0.00454342
0.00454631
0.00454296
0.00453724
0.0045328
0.00453192
0.00453413
0.00453511
0.00452628
0.00449546
0.00442946
0.00431702
0.00415233
0.00393507
0.00365257
0.00324683
0.00267379
0.00207837
0.00106913
0.00241287
0.00285693
0.00316107
0.00343725
0.00366505
0.00384343
0.00399402
0.00412978
0.00425152
0.00435923
0.00445277
0.00453139
0.0045942
0.00464052
0.00467015
0.00468359
0.00468227
0.00466812
0.00464374
0.0046136
0.00458327
0.00455812
0.00454172
0.00453423
0.00453086
0.00452144
0.00449162
0.00442615
0.00431213
0.00413742
0.00387702
0.00347751
0.00292963
0.00244911
0.0011734
0.00250211
0.00303109
0.00340818
0.00368535
0.00387941
0.00402177
0.0041376
0.00423898
0.0043292
0.00440972
0.00448096
0.0045426
0.00459404
0.00463462
0.00466379
0.00468116
0.00468661
0.00468023
0.00466219
0.00463358
0.00459684
0.00455552
0.00451381
0.00447532
0.0044417
0.00441068
0.00437406
0.00431629
0.00421374
0.0040346
0.00373466
0.00327351
0.00277952
0.00269378
0.00106737
0.00263465
0.00320456
0.00356454
0.00380673
0.00396818
0.0040825
0.00417192
0.0042488
0.00431863
0.00438342
0.00444385
0.00450039
0.00455274
0.00460032
0.00464243
0.00467832
0.0047073
0.00472883
0.00474281
0.0047489
0.00474651
0.00473555
0.00471644
0.00468989
0.00465649
0.00461603
0.00456615
0.00449963
0.00439926
0.00423075
0.00393327
0.00345916
0.00301236
0.00320178
0.000911625
0.00240085
0.00297529
0.00336377
0.00364703
0.00384768
0.0039923
0.0041028
0.00419223
0.00426715
0.00433192
0.00438955
0.00444207
0.00449065
0.00453608
0.00457852
0.0046177
0.00465313
0.00468425
0.00471056
0.00473181
0.00474808
0.00475904
0.00476423
0.00476336
0.00475545
0.00473753
0.00470338
0.00464207
0.00453478
0.00434487
0.00400832
0.00349468
0.00308737
0.00352025
0.000910073
0.00242843
0.00302889
0.0034255
0.00369923
0.00388765
0.00402797
0.0041407
0.004234
0.00431278
0.00438043
0.0044394
0.00449155
0.00453819
0.00458048
0.00461928
0.00465524
0.00468876
0.00472007
0.00474923
0.00477612
0.00480062
0.00482319
0.00484365
0.00486062
0.00487273
0.00487751
0.00486951
0.00483759
0.00475926
0.00458887
0.0042444
0.00369168
0.0033475
0.00399956
0.000976194
0.0024051
0.00297733
0.00336185
0.00362551
0.00381222
0.00395401
0.00406881
0.00416764
0.00425621
0.00433659
0.00440912
0.00447385
0.00453113
0.00458142
0.00462536
0.0046637
0.0046972
0.00472664
0.0047529
0.00477679
0.00479912
0.0048214
0.0048452
0.0048708
0.00489753
0.00492312
0.0049413
0.00493787
0.00488399
0.00472035
0.00434281
0.00373629
0.00347615
0.0043407
0.000866247
0.00212784
0.00267731
0.00309004
0.00339955
0.00363023
0.00380325
0.00393676
0.00404527
0.00414119
0.00423337
0.00432343
0.00440658
0.00447879
0.00454151
0.00459636
0.0046433
0.00468259
0.00471477
0.00474074
0.00476171
0.00477921
0.0047954
0.00481299
0.00483476
0.0048632
0.00489998
0.00494324
0.00498184
0.00498452
0.00488036
0.00453939
0.00392733
0.0036888
0.00461708
0.000662341
0.00189523
0.00242104
0.00282591
0.00315272
0.00340839
0.00360755
0.00376763
0.00390114
0.00401558
0.00411913
0.0042185
0.00431511
0.00440553
0.00448477
0.00454918
0.00459982
0.00463897
0.00466751
0.00468632
0.00469669
0.00470038
0.00469959
0.00469698
0.0046961
0.00470136
0.00471745
0.00474764
0.00478918
0.00482215
0.00478649
0.0045609
0.00408464
0.00388888
0.00479703
0.000618791
0.00188154
0.00241297
0.00280505
0.00311802
0.00336627
0.00356247
0.00372059
0.00385441
0.00397238
0.00407864
0.00417645
0.0042689
0.00435897
0.0044462
0.00452523
0.00459067
0.00464003
0.00467348
0.0046925
0.00469869
0.00469365
0.00467923
0.00465794
0.00463322
0.00460947
0.00459157
0.00458376
0.00458679
0.00459146
0.00456342
0.00442214
0.00412759
0.00405094
0.00496457
0.000544965
0.00193991
0.00248165
0.0028466
0.0031367
0.00337271
0.00356381
0.00371916
0.00384952
0.00396392
0.00406731
0.00416256
0.00425177
0.00433552
0.00441497
0.00449088
0.00456031
0.00461809
0.00466013
0.0046849
0.00469273
0.00468481
0.00466272
0.00462849
0.00458491
0.00453573
0.00448552
0.00443856
0.00439628
0.00435248
0.00428588
0.00415466
0.00396059
0.0039799
0.00496813
0.000500004
0.00197341
0.00255178
0.00292446
0.00321268
0.0034477
0.00364066
0.0037989
0.00392927
0.00403886
0.00413529
0.00422349
0.00430512
0.00438146
0.00445295
0.00451931
0.00457997
0.00463397
0.00467821
0.00470883
0.00472328
0.00472076
0.00470173
0.00466753
0.00462034
0.00456347
0.00450159
0.00444058
0.00438598
0.00433871
0.00428739
0.00420606
0.00410822
0.00419053
0.00513945
0.000487612
0.00204804
0.00262341
0.0029636
0.00322427
0.00344838
0.00364564
0.00381772
0.00396641
0.00409461
0.00420545
0.00430286
0.00439178
0.00447512
0.00455306
0.00462512
0.00468987
0.00474579
0.00479133
0.00482379
0.004839
0.0048338
0.00480677
0.00475804
0.00468892
0.00460184
0.00450066
0.00439113
0.00428115
0.00417953
0.00409126
0.00401199
0.00396486
0.00411372
0.00518974
0.000491287
0.00198611
0.00260034
0.00297989
0.00325502
0.00347483
0.00366025
0.00382075
0.00396178
0.00408756
0.0042012
0.00430519
0.00440147
0.00449149
0.00457707
0.00465918
0.00473675
0.0048079
0.00487138
0.00492519
0.0049653
0.00498709
0.00498679
0.00496227
0.00491312
0.00484037
0.00474654
0.00463613
0.00451661
0.00439923
0.00429749
0.00422166
0.00420724
0.00441759
0.00562808
0.000503377
0.00217563
0.00277508
0.00311638
0.00336819
0.00357855
0.00376085
0.00391916
0.0040568
0.00417729
0.00428449
0.00438196
0.00447265
0.00455875
0.00464161
0.00472175
0.00479885
0.00487163
0.00493847
0.00499653
0.00504138
0.00506742
0.0050688
0.00504062
0.00498007
0.00488675
0.00476262
0.00461188
0.00444203
0.00426864
0.00412488
0.00406256
0.00414789
0.00451029
0.00592976
0.000468289
0.00206565
0.00270548
0.003088
0.00336565
0.00359291
0.00378898
0.00395959
0.00410702
0.00423368
0.00434299
0.00443874
0.00452478
0.00460464
0.00468119
0.00475634
0.00483078
0.00490402
0.00497438
0.0050391
0.00509481
0.00513666
0.00515888
0.00515534
0.00512018
0.00504844
0.00493658
0.00478327
0.00459124
0.0043728
0.00416541
0.00405348
0.00415747
0.00461375
0.00625903
0.000436955
0.00211571
0.00273834
0.00309737
0.00336238
0.0035862
0.00378493
0.00396177
0.00411724
0.00425208
0.00436818
0.00446799
0.00455462
0.00463162
0.00470236
0.00476967
0.00483535
0.00489965
0.00496117
0.00501694
0.00506291
0.0050946
0.0051071
0.00509591
0.00505764
0.00498988
0.00489025
0.00475568
0.00458392
0.00438091
0.00417957
0.00406763
0.00418133
0.00465378
0.00632085
0.000455519
0.00213524
0.00276593
0.00312763
0.00339165
0.00361266
0.00380833
0.00398311
0.00413782
0.00427278
0.00438921
0.00448896
0.00457443
0.00464841
0.00471405
0.00477443
0.00483248
0.00489089
0.00495066
0.0050109
0.00506789
0.00511608
0.00514801
0.00515497
0.00512838
0.0050618
0.00495253
0.00480151
0.00461248
0.00439734
0.00419642
0.00410456
0.00424762
0.00474376
0.00641589
0.000399646
0.00221012
0.00289081
0.00326167
0.00352433
0.0037428
0.00393676
0.00411083
0.00426501
0.0043988
0.00451237
0.00460664
0.00468325
0.00474437
0.00479259
0.00483093
0.00486278
0.0048917
0.00492072
0.00495202
0.00498703
0.00502476
0.00506117
0.00508952
0.00510075
0.00508395
0.00502793
0.00492391
0.00476926
0.00457406
0.00437614
0.0042609
0.00433708
0.00472935
0.00628739
0.000405355
0.00228166
0.00299979
0.00338098
0.00363901
0.00384912
0.0040389
0.00421522
0.0043763
0.00451994
0.00464493
0.00475082
0.00483766
0.0049062
0.00495836
0.00499651
0.00502277
0.00503958
0.00504941
0.00505479
0.00505775
0.00505932
0.00505929
0.00505592
0.00504602
0.00502493
0.00498666
0.00492453
0.00483281
0.00471135
0.00457815
0.00449127
0.00454417
0.0048745
0.00638889
0.000478762
0.00257938
0.00334246
0.00375247
0.0040229
0.00422762
0.00440253
0.00456304
0.00471008
0.00484107
0.00495447
0.00504959
0.00512648
0.00518586
0.00522903
0.00525772
0.00527433
0.00528126
0.00528073
0.0052752
0.00526661
0.00525575
0.00524175
0.00522185
0.00519162
0.00514552
0.00507786
0.00498431
0.00486446
0.00472734
0.00460305
0.0045559
0.00466972
0.00509004
0.00671347
0.000503741
0.00276469
0.00357473
0.0040287
0.00435406
0.00460675
0.00480776
0.00497672
0.00512606
0.00525659
0.00536565
0.00545186
0.00551494
0.0055556
0.0055755
0.00557717
0.00556369
0.00553745
0.00550071
0.0054572
0.0054113
0.00536725
0.00532821
0.00529526
0.00526662
0.00523738
0.00519984
0.00514484
0.00506512
0.00496259
0.0048613
0.00481762
0.00490263
0.00525576
0.00675061
0.000496731
0.00270296
0.00347857
0.00392585
0.00428102
0.00459217
0.00485819
0.00507942
0.00526624
0.00543085
0.00557599
0.00569789
0.00579426
0.00586399
0.00590702
0.00592428
0.00591778
0.00589038
0.00584436
0.00578168
0.00570568
0.00562057
0.00553097
0.00544134
0.0053553
0.00527489
0.00519986
0.00512745
0.00505309
0.00497392
0.00489874
0.00486558
0.00494555
0.00529937
0.00693966
0.000535541
0.00292045
0.00368434
0.00410111
0.00444449
0.0047718
0.00507054
0.00532085
0.00552321
0.00569031
0.00583462
0.00596006
0.00606445
0.0061462
0.00620444
0.00623954
0.00625205
0.0062422
0.00621067
0.00615874
0.00608836
0.00600203
0.00590255
0.00579274
0.00567512
0.00555163
0.0054236
0.00529234
0.0051612
0.00504112
0.00496099
0.00497782
0.00516606
0.0056981
0.00749596
0.000453074
0.0028973
0.00368906
0.00410567
0.00445328
0.00480955
0.00516981
0.00549912
0.00576932
0.00597467
0.00612547
0.00623374
0.00630835
0.00635477
0.0063763
0.00637512
0.00635282
0.00631099
0.00625145
0.00617661
0.00608941
0.00599327
0.00589201
0.00578962
0.00569007
0.00559708
0.00551384
0.00544265
0.00538511
0.00534413
0.00533008
0.00536802
0.00549511
0.0058311
0.00701019
0.000417223
0.00265349
0.00336693
0.00374595
0.00404829
0.00435437
0.00468671
0.00503723
0.00538295
0.00569937
0.00596869
0.00618498
0.00634849
0.00646347
0.00653527
0.00656875
0.00656787
0.00653577
0.00647518
0.00638886
0.00627976
0.00615131
0.00600749
0.00585298
0.00569333
0.00553514
0.00538638
0.00525643
0.00515511
0.00509053
0.0050678
0.00509702
0.00521183
0.00556194
0.00708707
0.000523067
0.00286904
0.00350171
0.00380671
0.00403891
0.00426951
0.00452365
0.00480754
0.00511581
0.005435
0.00574753
0.00603564
0.00628779
0.00649703
0.00666044
0.00677813
0.00685219
0.00688563
0.00688171
0.00684369
0.00677443
0.00667638
0.00655168
0.00640227
0.00623035
0.00603895
0.00583327
0.00562267
0.00542358
0.00526193
0.00517293
0.0051969
0.00537981
0.00587271
0.00740844
0.000564134
0.00311427
0.00377255
0.00406375
0.00427788
0.00448272
0.00469581
0.00492222
0.00516075
0.0054033
0.00563612
0.00584443
0.00601784
0.00615205
0.00624958
0.00631529
0.00635379
0.00636908
0.00636458
0.00634349
0.00630858
0.00626221
0.00620627
0.00614206
0.0060704
0.00599185
0.00590739
0.00581969
0.00573492
0.00566419
0.00562206
0.00562095
0.00567452
0.00587654
0.00677937
0.000489736
0.00265485
0.00334979
0.00371286
0.0039813
0.00422783
0.00447885
0.0047441
0.00502632
0.00532297
0.00562517
0.00591755
0.00618051
0.00639389
0.00654817
0.00664089
0.006677
0.00666506
0.00661435
0.0065338
0.00643125
0.00631339
0.0061858
0.00605306
0.00591881
0.00578586
0.00565625
0.00553135
0.00541184
0.00529806
0.00519253
0.00511016
0.0051038
0.00534432
0.00683334
0.000577683
0.00314726
0.00376871
0.00399744
0.00413378
0.00424461
0.00435285
0.00447356
0.00461912
0.00480069
0.00502578
0.00529513
0.0056002
0.0059225
0.00623706
0.00651783
0.00674341
0.00690517
0.00700205
0.00703855
0.00702189
0.00696059
0.00686324
0.00673783
0.0065916
0.00643097
0.00626191
0.00609048
0.00592413
0.00577429
0.00566213
0.00562801
0.00574098
0.0061843
0.00774602
0.000446686
0.00286463
0.00377105
0.00418322
0.00442977
0.00462123
0.00478992
0.00494294
0.0050815
0.00520574
0.0053167
0.0054179
0.00551444
0.00561116
0.00571079
0.00581252
0.00591194
0.0060029
0.00607844
0.00613361
0.00616648
0.00617519
0.00615949
0.0061206
0.00606081
0.00598324
0.00589189
0.00579223
0.00569223
0.0056034
0.00554039
0.00551776
0.00555521
0.0057705
0.00678869
0.00061701
0.00292413
0.00364478
0.00397108
0.00417235
0.00433127
0.00447951
0.00463168
0.00479618
0.0049783
0.00517998
0.00539766
0.00562075
0.0058341
0.00602425
0.00618335
0.00630833
0.00639856
0.00645304
0.00647757
0.0064766
0.00645414
0.0064137
0.00635852
0.00629188
0.00621684
0.00613564
0.00604873
0.00595359
0.00584424
0.00571475
0.00557614
0.00549496
0.00567262
0.00706732
0.000720579
0.00321376
0.00406391
0.00434135
0.00445544
0.00452914
0.00459966
0.00468085
0.00477841
0.00489512
0.0050332
0.00519442
0.00537836
0.00557904
0.0057832
0.00597344
0.00613416
0.0062554
0.00633333
0.00637015
0.00636992
0.00633665
0.00627616
0.00619414
0.00609496
0.00598286
0.00586261
0.00573983
0.00562112
0.00551493
0.00543704
0.0054267
0.00557015
0.00609786
0.00800024
0.00133244
0.00211302
0.00293853
0.0035044
0.00382981
0.00402981
0.0041714
0.00428394
0.00438542
0.00449363
0.00462685
0.00479604
0.00499866
0.00522381
0.00545941
0.00569503
0.00591955
0.00612099
0.00628853
0.00641516
0.00649735
0.00653461
0.00652677
0.00647971
0.00639873
0.00628921
0.00615638
0.00600707
0.00585286
0.00571495
0.00562846
0.00564152
0.00580972
0.00629716
0.00762193
0.00172287
0.00171458
0.00211045
0.00266708
0.00301488
0.00322958
0.00343819
0.0036664
0.00389049
0.00409578
0.00427378
0.00442939
0.00458225
0.00475604
0.00496128
0.00519282
0.00543714
0.00567827
0.00590076
0.00609182
0.00624151
0.0063446
0.00640139
0.00641804
0.00640193
0.00636356
0.00631265
0.00625384
0.0061863
0.00610646
0.00601569
0.00593153
0.00590078
0.00604519
0.00663406
0.00195092
0.00127668
0.000860314
0.000878954
0.00142537
0.00207636
0.00245359
0.00266104
0.00285727
0.00302681
0.0032218
0.00345934
0.00371304
0.00395639
0.00417756
0.00437799
0.00456506
0.0047466
0.00492728
0.0051076
0.00528191
0.00543966
0.00556801
0.00565504
0.00569193
0.00567493
0.00560719
0.0054987
0.00536872
0.00524416
0.00516037
0.00516657
0.00533093
0.00582408
0.0069293
0.00340442
0.00379678
0.00347625
0.00207961
0.000115272
5.16089e-05
0.000740328
0.00165365
0.00300982
0.00363835
0.00384443
0.00398467
0.00416628
0.00436624
0.00456288
0.00475044
0.00492764
0.00509271
0.00524334
0.00537876
0.00550011
0.00561021
0.00571206
0.00580729
0.00589535
0.00597361
0.00603847
0.00608763
0.00612434
0.00616226
0.00622548
0.00633829
0.00650491
0.00662684
0.00580416
0.00403071
0.00496525
0.00504316
0.00382231
0.00104371
0.000309577
0.00282108
0.00574306
0.0054615
0.00518016
0.00526995
0.00533055
0.00541562
0.00550821
0.0055922
0.00566177
0.00571303
0.00574429
0.00575578
0.0057497
0.0057292
0.00569806
0.00566021
0.00561935
0.00557903
0.00554276
0.0055137
0.00549427
0.00548579
0.00548682
0.00548699
0.00544918
0.00526172
0.00459291
0.00246724
0.00406912
0.00527392
0.00614207
0.00665536
0.00634869
0.00494577
0.00349106
0.00330851
0.00360937
0.00392638
0.00419392
0.00434451
0.00440463
0.00443467
0.00446665
0.00451397
0.00458181
0.00467061
0.00477791
0.00490038
0.00503316
0.00517104
0.00530809
0.00543831
0.00555644
0.00565936
0.00574644
0.00581938
0.00587976
0.00592477
0.00594116
0.00589748
0.00571191
0.00506856
0.00236513
0.00337468
0.0048513
0.00601076
0.00630086
0.00573075
0.00483243
0.00398717
0.00370385
0.00385694
0.00402371
0.00419886
0.00438905
0.00458542
0.00477505
0.00494573
0.00509179
0.00521472
0.00531696
0.00540136
0.00547181
0.00553426
0.0055933
0.00565218
0.0057115
0.00577235
0.00583556
0.00590229
0.00597447
0.00605665
0.00615522
0.00627215
0.00637345
0.00634909
0.00596293
0.00328994
0.00100902
0.00390362
0.00543072
0.00619745
0.00625373
0.00615321
0.0060419
0.00595775
0.00589804
0.00585021
0.0058061
0.00578807
0.00578297
0.00577815
0.00576329
0.00573481
0.00569155
0.00563373
0.00556282
0.00548042
0.00538782
0.00528461
0.00517507
0.00506029
0.00493851
0.00480815
0.0046729
0.00453748
0.00440593
0.00429607
0.00422317
0.00419025
0.0042004
0.00424697
0.00403099
0.00247892
0.00394606
0.00393348
0.00351239
0.00368372
0.00416114
0.00458243
0.00494198
0.00524532
0.00550622
0.00574006
0.00595437
0.00614553
0.00630785
0.00643983
0.00654341
0.00662163
0.00667792
0.00671335
0.00672837
0.00672255
0.00669368
0.00663746
0.00655164
0.0064347
0.00626829
0.00599826
0.00559393
0.00514973
0.00476682
0.0044052
0.00394077
0.00325885
0.00229897
0.000867582
0.00306172
0.00528878
0.00519338
0.00502506
0.00504026
0.0051438
0.00525803
0.0053709
0.00547606
0.00557123
0.00565752
0.00573632
0.00580792
0.0058718
0.00592734
0.00597412
0.00601171
0.00603968
0.0060572
0.0060636
0.00605766
0.00603753
0.00600267
0.00595218
0.00588604
0.00580367
0.00570706
0.00560616
0.00551726
0.00545574
0.00544093
0.00544003
0.00523698
0.00448807
0.00224188
0.00323935
0.00694164
0.00717807
0.00692585
0.00661409
0.00636756
0.00618646
0.00604942
0.005941
0.0058512
0.0057742
0.00570658
0.00564635
0.00559253
0.00554482
0.00550319
0.00546737
0.00543667
0.00541004
0.0053864
0.00536442
0.00534267
0.00531978
0.00529386
0.00526357
0.00522607
0.00518097
0.00512389
0.00505598
0.00496763
0.00486393
0.00472147
0.00455152
0.00420617
0.00200087
0.00236906
0.00438536
0.00483101
0.00493994
0.00495546
0.00495193
0.0049494
0.00495141
0.00495668
0.0049629
0.00496769
0.00496995
0.00496984
0.00496902
0.0049709
0.00497812
0.0049903
0.00500497
0.00501902
0.00502966
0.00503467
0.00503244
0.00502185
0.00500198
0.00497293
0.00493428
0.00488782
0.00483349
0.00477545
0.00472142
0.00466485
0.0046905
0.00457852
0.00472873
0.00180509
0.00161686
0.00340595
0.00415645
0.00459772
0.00491376
0.00516285
0.00536666
0.0055344
0.00567166
0.0057813
0.00586587
0.00593276
0.00599463
0.00607133
0.00618491
0.00632945
0.00646755
0.00656405
0.00660209
0.0065752
0.00648106
0.00631899
0.00609042
0.00579986
0.00546348
0.00511345
0.00478108
0.00447468
0.00418229
0.00388521
0.00360915
0.00367948
0.00441396
0.00493507
0.00487872
0.00447987
0.00587083
0.00621077
0.00631243
0.00634554
0.0063545
0.00636012
0.00636956
0.00637895
0.00637782
0.00636258
0.00634134
0.00631844
0.00629127
0.00626181
0.00623535
0.00621349
0.0061921
0.00616354
0.00611969
0.00605327
0.00595843
0.00583003
0.00566469
0.0054607
0.00521307
0.00489727
0.00448372
0.00396721
0.00333923
0.00268153
0.00258581
0.0035839
0.00428343
0.00367257
0.00546688
0.00522771
0.00514948
0.00520159
0.00531067
0.00546007
0.00565786
0.00590528
0.00619116
0.00648088
0.00672425
0.00689816
0.00700417
0.00705635
0.00706613
0.0070425
0.00699298
0.00692295
0.00683426
0.00672521
0.00659258
0.00643321
0.0062446
0.00602357
0.00576402
0.00545702
0.00509119
0.00465146
0.00411754
0.00347828
0.00281215
0.00234466
0.00181337
0.00122016
0.0022632
0.00611192
0.00598991
0.00606543
0.00614536
0.00622693
0.00631477
0.00642351
0.00652916
0.00662133
0.00673762
0.00686527
0.00697588
0.00706658
0.00713993
0.00719154
0.00721593
0.00721017
0.00717293
0.00710356
0.00700086
0.00686318
0.00668835
0.00647386
0.00621769
0.00592102
0.00558363
0.00519841
0.00475375
0.00424025
0.00368913
0.00303099
0.0016573
0.000846205
0.00139813
0.00420237
0.00593736
0.00531423
0.00529419
0.00537683
0.00550503
0.00569616
0.00601635
0.00643654
0.00678721
0.00700896
0.00714602
0.00724126
0.00731151
0.00735986
0.0073863
0.00739083
0.00737273
0.00732906
0.00725533
0.00714703
0.00699917
0.00680597
0.00656057
0.00625469
0.00587879
0.00542321
0.00488321
0.00422018
0.00332313
0.001938
0.000280191
0.000223241
0.00156947
0.00282844
0.00411342
0.00544485
0.0056469
0.00580502
0.00590231
0.00594157
0.00589685
0.00585031
0.00602486
0.00640052
0.0067666
0.00704318
0.00724284
0.00738622
0.00748452
0.00754351
0.00756747
0.00755956
0.00752014
0.00744793
0.00734112
0.0071973
0.00701333
0.0067851
0.00650719
0.00617322
0.0057604
0.00522838
0.00453988
0.00366588
0.00257223
0.0012949
0.000553315
0.00117769
0.00196006
0.00195266
0.00548162
0.00536457
0.00547963
0.00561422
0.00575334
0.00586327
0.00589776
0.00592886
0.00613172
0.00645368
0.00676535
0.00701544
0.00720454
0.00734448
0.00744419
0.00750892
0.0075402
0.007537
0.00749789
0.00742192
0.00730853
0.00715757
0.00696947
0.00674075
0.00646381
0.00613179
0.00573703
0.0052713
0.00472939
0.00411571
0.00343695
0.00274833
0.00207951
0.00144082
0.00180669
0.0052747
0.00543143
0.00557198
0.00568348
0.00577486
0.00582235
0.00582359
0.00586469
0.00607679
0.00640806
0.00672356
0.00697301
0.0071601
0.0072984
0.0074022
0.00747654
0.00751845
0.00752535
0.00749518
0.0074261
0.00731627
0.00716377
0.00696661
0.00672294
0.00643162
0.00609371
0.00571382
0.00528854
0.00480878
0.00426643
0.00361628
0.0025409
0.00144222
0.00177217
0.00318817
0.0055589
0.00540834
0.00551806
0.00565614
0.00579911
0.00589894
0.00590772
0.00586841
0.00595715
0.00622445
0.00653436
0.00679575
0.0069959
0.007147
0.00726493
0.00735577
0.00741515
0.00743945
0.00742579
0.00737136
0.00727298
0.00712688
0.00692855
0.00667269
0.00635344
0.00596533
0.00550587
0.00495385
0.00425408
0.00335374
0.00209625
0.000711702
0.000494937
0.00163494
0.00302389
0.00519528
0.0052257
0.0053703
0.00551577
0.00566386
0.00578203
0.00585511
0.00592323
0.00605016
0.00625924
0.00649815
0.00671621
0.00689771
0.00704298
0.00715628
0.00724308
0.00730431
0.0073363
0.00733581
0.00729968
0.0072245
0.00710612
0.00693929
0.00671731
0.00643171
0.00606258
0.00558084
0.00496122
0.00417567
0.00323369
0.00209919
0.000772306
1.77649e-06
0.000629318
0.00170317
0.00500235
0.00513012
0.00530484
0.00547171
0.00564363
0.00577163
0.00580617
0.00578932
0.00584882
0.00603508
0.00627759
0.00650708
0.00670096
0.00685891
0.00698549
0.00708391
0.00715624
0.00720228
0.0072198
0.00720683
0.00716137
0.00708052
0.00695934
0.00679079
0.006565
0.00626796
0.00588273
0.00539406
0.00479363
0.00409507
0.00332411
0.00250992
0.0017399
0.00135014
0.00126179
0.00491321
0.00503323
0.00517322
0.00533674
0.00555996
0.00578465
0.00591099
0.00590666
0.00586261
0.00592514
0.00610317
0.00631403
0.00650518
0.00666434
0.00679406
0.00689809
0.00697869
0.00703529
0.00706553
0.00706785
0.00704102
0.00698328
0.00689197
0.00676337
0.00659146
0.00636711
0.00607891
0.00571837
0.00528687
0.00480304
0.00429554
0.00377706
0.0032021
0.00252879
0.00170144
0.0050965
0.00497803
0.00500125
0.00510557
0.005341
0.00563679
0.00585201
0.00593179
0.00590696
0.0059018
0.00600641
0.00617763
0.00634849
0.00649384
0.0066131
0.00671248
0.00679416
0.00685464
0.00689076
0.00690039
0.0068823
0.0068355
0.00675815
0.00664802
0.00650255
0.00631766
0.00608715
0.00580618
0.00547854
0.00511528
0.00473351
0.00429726
0.00369724
0.00317576
0.00264632
0.00552996
0.00499818
0.00485088
0.00487799
0.00515679
0.00555199
0.00584008
0.00597096
0.00598346
0.00596728
0.00601691
0.00612893
0.00625235
0.00636297
0.00645825
0.00654135
0.00661184
0.00666502
0.00669705
0.00670494
0.00668665
0.0066411
0.00656653
0.00646025
0.00632082
0.00614779
0.00594007
0.00569454
0.00540787
0.00507434
0.00466303
0.00413458
0.00373875
0.00367397
0.0037042
0.00567746
0.00476716
0.00446983
0.00440734
0.0047067
0.00520168
0.00559004
0.00581319
0.00591716
0.00596652
0.00602257
0.00610065
0.00618317
0.00625894
0.00632526
0.00638257
0.00643021
0.00646461
0.00648212
0.00647949
0.0064542
0.00640414
0.006326
0.006216
0.00607161
0.00589113
0.00567143
0.0054058
0.00508224
0.00468338
0.00420534
0.00380857
0.00377926
0.00393398
0.004206
0.00559427
0.00465017
0.00431343
0.00413858
0.00424461
0.0046672
0.00514047
0.00548902
0.00570353
0.00583361
0.005926
0.00600315
0.0060693
0.00612469
0.00616945
0.0062038
0.00622759
0.00623959
0.00623762
0.00621965
0.00618375
0.00612645
0.00604272
0.00592699
0.00577361
0.00557584
0.00532727
0.00502563
0.00466687
0.00424352
0.00380606
0.00357518
0.00364962
0.00380843
0.00408665
0.00507624
0.00475776
0.00456054
0.00428188
0.00393389
0.00383424
0.00419153
0.00473531
0.00518053
0.00547611
0.00566578
0.00579062
0.005876
0.00593535
0.00597546
0.0059996
0.00600921
0.00600479
0.00598603
0.00595231
0.0059014
0.00582954
0.00573218
0.00560385
0.00544091
0.00524479
0.00502117
0.00475783
0.00442534
0.00401999
0.00361873
0.00339729
0.00340468
0.00352359
0.00388128
0.00486182
0.00542048
0.00543668
0.00521313
0.00471387
0.00387425
0.00334853
0.0036443
0.00429249
0.00483869
0.00520341
0.00543574
0.00558501
0.00568144
0.0057415
0.00577446
0.00578526
0.00577612
0.00574837
0.00570246
0.00563667
0.00554777
0.005432
0.00528763
0.00512374
0.00496929
0.00483505
0.00466836
0.00440347
0.00404075
0.00366038
0.0033858
0.00328071
0.00335378
0.00387144
0.00512484
0.00593103
0.00604384
0.00594965
0.0056786
0.00494009
0.00365095
0.00303727
0.00343964
0.00413766
0.00468563
0.00504056
0.00526298
0.00540506
0.00549771
0.0055536
0.00557735
0.00557307
0.00554397
0.00549269
0.00541799
0.00531614
0.00518487
0.00502596
0.00486472
0.00476055
0.00472863
0.00467933
0.00451934
0.00423941
0.00390668
0.0036117
0.00342441
0.00343332
0.00401552
0.00643638
0.00634863
0.00610697
0.0058485
0.00549188
0.00506493
0.00420967
0.00327226
0.00327482
0.00386893
0.00444175
0.00481252
0.00503262
0.00518323
0.00529374
0.00536467
0.00539925
0.00540143
0.00537514
0.00532427
0.00524836
0.00514217
0.00500247
0.0048348
0.00467386
0.00460032
0.00464583
0.00470345
0.00466404
0.00450274
0.00425943
0.00399945
0.00378786
0.00372308
0.0042034
0.00805008
0.00656872
0.00590266
0.00534117
0.00456044
0.00399602
0.00380368
0.00354566
0.00367599
0.00414438
0.00454796
0.00479797
0.00495852
0.00507796
0.00517028
0.00523168
0.00526207
0.00526329
0.00523827
0.00518972
0.00511509
0.00500886
0.00486938
0.0047032
0.0045452
0.00447882
0.00455683
0.00468442
0.00474476
0.00470087
0.00456609
0.0043787
0.00418897
0.00406832
0.00436102
0.00802742
0.00619833
0.00559321
0.00498117
0.00406709
0.00346327
0.0035744
0.00381011
0.00408569
0.00439273
0.00463098
0.00479867
0.00492053
0.00501212
0.00507946
0.00512349
0.00514407
0.00514147
0.00511613
0.00506771
0.00499407
0.00489235
0.00476107
0.00460601
0.00445709
0.00438672
0.00445722
0.00460638
0.00472291
0.0047604
0.00471539
0.00460413
0.00445848
0.00431786
0.00444919
0.00637151
0.00581951
0.0057083
0.00544476
0.00488038
0.00407949
0.00361003
0.00367467
0.00395283
0.00424078
0.00447314
0.00464659
0.00477561
0.00487148
0.00494035
0.00498506
0.00500684
0.00500641
0.00498413
0.00493981
0.00487203
0.00477876
0.0046592
0.00451883
0.00438258
0.00430913
0.00435666
0.00449164
0.00462153
0.00469568
0.00470159
0.00464346
0.00454004
0.00441322
0.00447657
0.00543976
0.00609737
0.00627474
0.00629667
0.00615051
0.00555595
0.00438337
0.00346797
0.00336934
0.00369089
0.0040351
0.00430271
0.00449622
0.00463619
0.00473592
0.00480297
0.00484172
0.00485482
0.00484392
0.00480968
0.00475133
0.00466778
0.0045588
0.00442959
0.00430201
0.00422627
0.0042547
0.00436775
0.00448907
0.00456959
0.00459356
0.00456092
0.00448496
0.00438369
0.00447974
0.0055953
0.00611836
0.00619916
0.00619698
0.00616652
0.00610067
0.00566879
0.0043134
0.00323691
0.00316236
0.00352497
0.00389956
0.00418069
0.00438004
0.00452039
0.0046167
0.004678
0.00470952
0.00471376
0.00469182
0.00464376
0.0045691
0.00446782
0.00434421
0.00421704
0.0041317
0.00414082
0.00423602
0.00434777
0.00442551
0.00445217
0.00442764
0.00436556
0.00429426
0.004482
0.00660056
0.00627337
0.00604423
0.00584083
0.00557648
0.00529304
0.00524461
0.00477568
0.00357567
0.00310111
0.00335019
0.00374639
0.00404939
0.00424743
0.00438815
0.00449451
0.00456696
0.00460786
0.00461995
0.00460511
0.00456332
0.00449384
0.00439646
0.00427415
0.00414182
0.00403856
0.00401772
0.00408749
0.00418797
0.00426254
0.00428934
0.00426821
0.00421566
0.00417385
0.0044767
0.0076904
0.00648743
0.00601118
0.00564871
0.00515103
0.00452017
0.00419268
0.0040388
0.00349648
0.00329776
0.00361308
0.00394071
0.00413775
0.00427586
0.00438974
0.00447695
0.00453642
0.00456872
0.00457535
0.00455754
0.00451463
0.00444491
0.00434777
0.00422505
0.00408753
0.00396582
0.0039081
0.00393757
0.00401434
0.00408068
0.00410714
0.00409108
0.00405126
0.00404379
0.00444175
0.00777879
0.0060605
0.00549757
0.00500008
0.00424799
0.00361711
0.00348235
0.00353417
0.00358157
0.00381582
0.0040611