/*--------------------------------*- C++ -*----------------------------------*\
| =========                 |                                                 |
| \\      /  F ield         | OpenFOAM: The Open Source CFD Toolbox           |
|  \\    /   O peration     | Version:  v2006                                 |
|   \\  /    A nd           | Website:  www.openfoam.com                      |
|    \\/     M anipulation  |                                                 |
\*---------------------------------------------------------------------------*/
FoamFile
{
    version     2.0;
    format      ascii;
    class       surfaceScalarField;
    location    "25";
    object      phi;
}
// * * * * * * * * * * * * * * * * * * * * * * * * * * * * * * * * * * * * * //

dimensions      [1 0 -1 0 0 0 0];
oriented        oriented;


internalField   nonuniform List<scalar> 
228225
(
-0.000300432
-2.73342e-05
-3.39987e-06
-0.000271758
-2.6071e-05
-2.40855e-06
-0.000243552
-2.59867e-05
-1.98796e-06
-0.000216616
-2.54754e-05
-1.14342e-06
-0.000193755
-2.25816e-05
3.18271e-08
-0.0001747
-1.926e-05
5.51051e-07
-0.000158449
-1.70134e-05
1.13577e-06
-0.000144364
-1.51837e-05
1.51238e-06
-0.000132067
-1.37402e-05
1.87287e-06
-0.000121219
-1.25255e-05
2.15321e-06
-0.000111554
-1.15556e-05
2.40796e-06
-0.00010286
-1.07586e-05
2.63651e-06
-9.49656e-05
-1.01135e-05
2.85179e-06
-8.77254e-05
-9.59685e-06
3.05868e-06
-8.10153e-05
-9.19114e-06
3.26069e-06
-7.47278e-05
-8.88292e-06
3.45977e-06
-6.87685e-05
-8.66119e-06
3.6565e-06
-6.30551e-05
-8.51597e-06
3.85046e-06
-5.75155e-05
-8.43859e-06
4.0403e-06
-5.20868e-05
-8.42036e-06
4.22377e-06
-4.67159e-05
-8.45136e-06
4.39774e-06
-4.13603e-05
-8.51905e-06
4.55816e-06
-3.59896e-05
-8.60744e-06
4.69949e-06
-3.05857e-05
-8.69733e-06
4.81413e-06
-2.51432e-05
-8.76713e-06
4.89243e-06
-1.96832e-05
-8.79344e-06
4.92282e-06
-1.42309e-05
-8.75498e-06
4.89161e-06
-8.82017e-06
-8.63004e-06
4.78895e-06
-3.51194e-06
-8.38832e-06
4.6144e-06
1.58864e-06
-7.99564e-06
4.38188e-06
6.31006e-06
-7.41309e-06
4.12449e-06
1.03159e-05
-6.52268e-06
3.89718e-06
1.27417e-05
-4.86375e-06
3.77134e-06
1.10795e-05
-7.98468e-07
3.73639e-06
8.85954e-06
3.10152e-06
-6.33135e-06
-2.12445e-05
-5.73899e-07
-1.20543e-05
-2.06686e-05
-3.36712e-07
-1.63555e-05
-2.14866e-05
-6.46857e-07
-2.01167e-05
-2.10895e-05
-8.51177e-07
-2.24971e-05
-1.93918e-05
-9.82746e-07
-2.31002e-05
-1.75932e-05
-1.1837e-06
-2.24784e-05
-1.62174e-05
-1.49302e-06
-2.0948e-05
-1.49293e-05
-1.82614e-06
-1.88348e-05
-1.3711e-05
-2.15269e-06
-1.6257e-05
-1.26391e-05
-2.44848e-06
-1.33629e-05
-1.17068e-05
-2.70277e-06
-1.02589e-05
-1.08914e-05
-2.90791e-06
-7.05069e-06
-1.01751e-05
-3.06038e-06
-3.83116e-06
-9.54802e-06
-3.15908e-06
-6.83809e-07
-9.0019e-06
-3.20409e-06
2.31658e-06
-8.53101e-06
-3.19633e-06
5.10359e-06
-8.13117e-06
-3.13724e-06
7.62175e-06
-7.80115e-06
-3.02913e-06
9.82811e-06
-7.54183e-06
-2.87522e-06
1.1695e-05
-7.35576e-06
-2.68004e-06
1.3213e-05
-7.24629e-06
-2.44978e-06
1.43929e-05
-7.21526e-06
-2.19216e-06
1.52651e-05
-7.25969e-06
-1.91603e-06
1.58741e-05
-7.36752e-06
-1.63049e-06
1.62732e-05
-7.5133e-06
-1.34267e-06
1.65117e-05
-7.65854e-06
-1.05507e-06
1.66233e-05
-7.76087e-06
-7.76054e-07
1.66291e-05
-7.77118e-06
-5.21787e-07
1.6538e-05
-7.63496e-06
-3.03358e-07
1.63396e-05
-7.29346e-06
-1.25325e-07
1.59604e-05
-6.66562e-06
3.08062e-08
1.51113e-05
-5.444e-06
1.89095e-07
1.27112e-05
-2.35891e-06
3.36539e-07
6.40962e-06
5.47539e-06
4.93595e-07
1.47662e-05
9.3959e-07
-1.4663e-05
-6.91848e-06
-1.66611e-07
-2.1915e-05
-1.30615e-05
-9.18646e-07
-2.80018e-05
-1.44298e-05
-1.50457e-06
-3.2598e-05
-1.48902e-05
-2.04553e-06
-3.46087e-05
-1.51252e-05
-2.57847e-06
-3.45598e-05
-1.48437e-05
-3.04475e-06
-3.3409e-05
-1.41526e-05
-3.42423e-06
-3.1467e-05
-1.33199e-05
-3.73338e-06
-2.88859e-05
-1.24659e-05
-3.98501e-06
-2.58268e-05
-1.16513e-05
-4.18527e-06
-2.24268e-05
-1.08895e-05
-4.33755e-06
-1.87959e-05
-1.01804e-05
-4.44502e-06
-1.50246e-05
-9.52307e-06
-4.51015e-06
-1.11934e-05
-8.91575e-06
-4.53432e-06
-7.37622e-06
-8.3565e-06
-4.51801e-06
-3.64285e-06
-7.84373e-06
-4.46101e-06
-6.0359e-08
-7.37658e-06
-4.36263e-06
3.30499e-06
-6.95533e-06
-4.2221e-06
6.38624e-06
-6.58071e-06
-4.03869e-06
9.1163e-06
-6.25524e-06
-3.81212e-06
1.14297e-05
-5.98311e-06
-3.54295e-06
1.32674e-05
-5.76998e-06
-3.23347e-06
1.45848e-05
-5.62265e-06
-2.88835e-06
1.53639e-05
-5.54766e-06
-2.51527e-06
1.5626e-05
-5.5487e-06
-2.12521e-06
1.54385e-05
-5.62203e-06
-1.73156e-06
1.49072e-05
-5.74915e-06
-1.34759e-06
1.41505e-05
-5.88384e-06
-9.78467e-07
1.3254e-05
-5.94572e-06
-6.15721e-07
1.22399e-05
-5.8213e-06
-2.60036e-07
1.10516e-05
-5.36457e-06
9.53531e-08
9.54678e-06
-4.19558e-06
4.73221e-07
7.18146e-06
-6.06135e-07
8.31253e-07
3.54858e-06
8.37279e-06
9.64995e-07
1.77966e-05
7.54131e-07
6.82242e-07
-8.05601e-06
5.09408e-07
6.19739e-07
-1.23902e-05
-4.09971e-07
1.24205e-06
-1.37591e-05
-1.09188e-06
2.05105e-06
-1.39806e-05
-1.52999e-06
2.43051e-06
-1.3483e-05
-1.84231e-06
2.39966e-06
-1.25393e-05
-2.11678e-06
2.23784e-06
-1.14667e-05
-2.3988e-06
2.17171e-06
-1.04691e-05
-2.68956e-06
2.32175e-06
-9.5659e-06
-2.98105e-06
2.73233e-06
-8.74508e-06
-3.26962e-06
3.42817e-06
-8.00393e-06
-3.55221e-06
4.42758e-06
-7.34099e-06
-3.82419e-06
5.73786e-06
-6.75059e-06
-4.07976e-06
7.3525e-06
-6.22388e-06
-4.31256e-06
9.24959e-06
-5.75047e-06
-4.5159e-06
1.13903e-05
-5.31896e-06
-4.68287e-06
1.37153e-05
-4.91522e-06
-4.80645e-06
1.61484e-05
-4.52955e-06
-4.87964e-06
1.86073e-05
-4.1635e-06
-4.89575e-06
2.1003e-05
-3.81889e-06
-4.84856e-06
2.32346e-05
-3.49264e-06
-4.73308e-06
2.51884e-05
-3.18069e-06
-4.54553e-06
2.67398e-05
-2.87983e-06
-4.28409e-06
2.77594e-05
-2.58993e-06
-3.9495e-06
2.81252e-05
-2.31665e-06
-3.54559e-06
2.7741e-05
-2.07288e-06
-3.08081e-06
2.65572e-05
-1.87382e-06
-2.57111e-06
2.45922e-05
-1.72129e-06
-2.04288e-06
2.19346e-05
-1.57853e-06
-1.52792e-06
1.87166e-05
-1.35125e-06
-1.04823e-06
1.50371e-05
-8.55199e-07
-6.01853e-07
1.09625e-05
3.02141e-07
-1.62137e-07
6.67697e-06
3.62447e-06
3.63456e-07
2.6744e-06
1.20094e-05
7.39831e-07
2.0164e-05
6.23476e-07
9.64369e-07
-1.00864e-05
1.02818e-06
-2.59595e-08
-1.29808e-05
1.52996e-06
-1.84369e-06
-1.33732e-05
1.3864e-06
-3.91605e-06
-1.30345e-05
1.08994e-06
-5.98093e-06
-1.22231e-05
7.79345e-07
-7.76576e-06
-1.12238e-05
4.5604e-07
-9.13736e-06
-1.01978e-05
1.00368e-07
-1.01716e-05
-9.18446e-06
-2.45204e-07
-1.08966e-05
-8.2091e-06
-6.22026e-07
-1.1285e-05
-7.30827e-06
-1.03671e-06
-1.12995e-05
-6.49823e-06
-1.47938e-06
-1.09069e-05
-5.78142e-06
-1.94152e-06
-1.00842e-05
-5.15097e-06
-2.41385e-06
-8.82149e-06
-4.59458e-06
-2.88628e-06
-7.12388e-06
-4.09708e-06
-3.34827e-06
-5.01256e-06
-3.64196e-06
-3.78894e-06
-2.52368e-06
-3.21104e-06
-4.19705e-06
2.89849e-07
-2.78686e-06
-4.56372e-06
3.35621e-06
-2.36169e-06
-4.87966e-06
6.59249e-06
-1.93927e-06
-5.13182e-06
9.90967e-06
-1.52454e-06
-5.30602e-06
1.32055e-05
-1.1138e-06
-5.38856e-06
1.63606e-05
-6.98859e-07
-5.36696e-06
1.92342e-05
-2.68361e-07
-5.23073e-06
2.16608e-05
1.90411e-07
-4.97263e-06
2.34815e-05
6.55801e-07
-4.58987e-06
2.44793e-05
1.1674e-06
-4.07735e-06
2.44491e-05
1.7286e-06
-3.4499e-06
2.32683e-05
2.35657e-06
-2.7683e-06
2.09028e-05
3.09785e-06
-2.07192e-06
1.73636e-05
4.08985e-06
-1.35978e-06
1.26339e-05
5.72709e-06
-6.02382e-07
6.98945e-06
9.16208e-06
2.78565e-07
1.9556e-06
1.62265e-05
1.1253e-06
2.14921e-05
9.64302e-07
-1.4996e-06
-1.00003e-05
1.49858e-06
-4.85884e-06
-1.18081e-05
2.3162e-06
-8.25676e-06
-1.18292e-05
1.98831e-06
-1.15651e-05
-1.12271e-05
1.63154e-06
-1.47024e-05
-1.03086e-05
1.34443e-06
-1.75354e-05
-9.36023e-06
1.07758e-06
-1.9974e-05
-8.46804e-06
8.02826e-07
-2.1987e-05
-7.59921e-06
5.07918e-07
-2.35504e-05
-6.75421e-06
1.7574e-07
-2.46562e-05
-5.96421e-06
-1.82628e-07
-2.53078e-05
-5.2381e-06
-5.62638e-07
-2.54899e-05
-4.57436e-06
-9.87383e-07
-2.51977e-05
-3.96583e-06
-1.44689e-06
-2.44309e-05
-3.40262e-06
-1.93419e-06
-2.31937e-05
-2.87368e-06
-2.44113e-06
-2.14959e-05
-2.36745e-06
-2.95755e-06
-1.93528e-05
-1.87231e-06
-3.47123e-06
-1.67916e-05
-1.37342e-06
-3.96802e-06
-1.38592e-05
-8.55184e-07
-4.43654e-06
-1.06163e-05
-3.2055e-07
-4.8637e-06
-7.13511e-06
2.16517e-07
-5.2295e-06
-3.50811e-06
7.59784e-07
-5.51352e-06
1.61539e-07
1.30913e-06
-5.69704e-06
3.75593e-06
1.87452e-06
-5.76392e-06
7.14481e-06
2.46768e-06
-5.70073e-06
1.01522e-05
3.10281e-06
-5.49735e-06
1.26202e-05
3.79756e-06
-5.14937e-06
1.43689e-05
4.57547e-06
-4.6542e-06
1.52028e-05
5.47363e-06
-4.01516e-06
1.49505e-05
6.56312e-06
-3.27886e-06
1.3495e-05
8.00074e-06
-2.51603e-06
1.07203e-05
1.01888e-05
-1.72576e-06
6.58097e-06
1.4169e-05
-8.35825e-07
2.25633e-06
2.0684e-05
7.02267e-08
2.34708e-05
5.93663e-07
-3.15028e-06
-8.4515e-06
1.58984e-06
-7.58001e-06
-9.4351e-06
2.07257e-06
-1.19375e-05
-9.2471e-06
1.79749e-06
-1.60455e-05
-8.63778e-06
1.54105e-06
-1.97476e-05
-7.88559e-06
1.30274e-06
-2.29842e-05
-7.15311e-06
1.05565e-06
-2.57514e-05
-6.46057e-06
7.87972e-07
-2.8029e-05
-5.78465e-06
4.92063e-07
-2.9792e-05
-5.12142e-06
1.58448e-07
-3.10497e-05
-4.48411e-06
-1.95791e-07
-3.18158e-05
-3.8784e-06
-5.69516e-07
-3.20943e-05
-3.30168e-06
-9.73293e-07
-3.18946e-05
-2.74971e-06
-1.39822e-06
-3.12285e-05
-2.21584e-06
-1.83885e-06
-3.0109e-05
-1.69246e-06
-2.29039e-06
-2.85502e-05
-1.1717e-06
-2.74796e-06
-2.65678e-05
-6.45754e-07
-3.20637e-06
-2.41774e-05
-1.0568e-07
-3.65945e-06
-2.13978e-05
4.63353e-07
-4.10364e-06
-1.82658e-05
1.07125e-06
-4.53383e-06
-1.4843e-05
1.71635e-06
-4.93782e-06
-1.11967e-05
2.39246e-06
-5.29974e-06
-7.41201e-06
3.09833e-06
-5.601e-06
-3.59008e-06
3.83916e-06
-5.82093e-06
1.49107e-07
4.62417e-06
-5.93824e-06
3.66622e-06
5.46619e-06
-5.93238e-06
6.80267e-06
6.38288e-06
-5.78414e-06
9.37877e-06
7.40075e-06
-5.47547e-06
1.11877e-05
8.56514e-06
-4.9876e-06
1.19799e-05
9.96326e-06
-4.29455e-06
1.14805e-05
1.17775e-05
-3.39662e-06
9.44364e-06
1.44347e-05
-2.34496e-06
5.82567e-06
1.8835e-05
-1.1787e-06
1.92814e-06
2.46618e-05
-1.00363e-07
2.51536e-05
4.20504e-07
-3.67088e-06
-6.51943e-06
1.68967e-06
-8.66209e-06
-7.20165e-06
2.72852e-06
-1.35138e-05
-6.9828e-06
2.56426e-06
-1.80104e-05
-6.44272e-06
2.28299e-06
-2.21037e-05
-5.81318e-06
2.01052e-06
-2.57748e-05
-5.2202e-06
1.73557e-06
-2.90006e-05
-4.67669e-06
1.44569e-06
-3.17528e-05
-4.15751e-06
1.13378e-06
-3.40103e-05
-3.64681e-06
7.95243e-07
-3.57622e-05
-3.14536e-06
4.27526e-07
-3.698e-05
-2.65415e-06
8.79772e-09
-3.7732e-05
-2.16995e-06
-3.64869e-07
-3.80001e-05
-1.68715e-06
-7.80657e-07
-3.77908e-05
-1.19961e-06
-1.21367e-06
-3.71135e-05
-7.0263e-07
-1.65772e-06
-3.59797e-05
-1.90425e-07
-2.10869e-06
-3.44017e-05
3.42151e-07
-2.5629e-06
-3.23916e-05
9.00409e-07
-3.01685e-06
-2.99598e-05
1.49358e-06
-3.46689e-06
-2.71201e-05
2.13357e-06
-3.91143e-06
-2.3905e-05
2.83459e-06
-4.34806e-06
-2.03717e-05
3.60706e-06
-4.7686e-06
-1.65915e-05
4.45156e-06
-5.16078e-06
-1.26426e-05
5.3642e-06
-5.50901e-06
-8.62035e-06
6.35212e-06
-5.79379e-06
-4.64502e-06
7.42952e-06
-5.99207e-06
-8.64262e-07
8.61586e-06
-6.07818e-06
2.54415e-06
9.93973e-06
-6.02423e-06
5.36499e-06
1.14517e-05
-5.79823e-06
7.31979e-06
1.32535e-05
-5.35239e-06
8.02983e-06
1.55528e-05
-4.61351e-06
7.06616e-06
1.87886e-05
-3.54365e-06
4.3595e-06
2.3588e-05
-2.20647e-06
1.39714e-06
2.84215e-05
-8.58287e-07
2.67428e-05
-4.35437e-08
-2.93795e-06
-5.41605e-06
1.79923e-06
-7.41178e-06
-5.60737e-06
2.8699e-06
-1.19455e-05
-5.22454e-06
2.77181e-06
-1.63039e-05
-4.64126e-06
2.55369e-06
-2.03987e-05
-4.05522e-06
2.33497e-06
-2.41714e-05
-3.55581e-06
2.10781e-06
-2.75866e-05
-3.12454e-06
1.86413e-06
-3.06114e-05
-2.72798e-06
1.59947e-06
-3.32107e-05
-2.3512e-06
1.31167e-06
-3.53617e-05
-1.98555e-06
1.00198e-06
-3.70551e-05
-1.62009e-06
6.72192e-07
-3.82885e-05
-1.24396e-06
3.21528e-07
-3.90567e-05
-8.48543e-07
-5.58856e-08
-3.9399e-05
-4.27482e-07
-4.15524e-07
-3.92933e-05
1.21098e-08
-8.07272e-07
-3.87632e-05
5.10358e-07
-1.21949e-06
-3.77981e-05
1.03533e-06
-1.64924e-06
-3.63993e-05
1.6014e-06
-2.09398e-06
-3.45673e-05
2.21393e-06
-2.55058e-06
-3.2301e-05
2.87937e-06
-3.01504e-06
-2.96012e-05
3.60913e-06
-3.48301e-06
-2.6485e-05
4.42598e-06
-3.95072e-06
-2.30051e-05
5.35782e-06
-4.4101e-06
-1.92389e-05
6.41096e-06
-4.84685e-06
-1.5265e-05
7.57675e-06
-5.2441e-06
-1.11788e-05
8.8657e-06
-5.58168e-06
-7.10567e-06
1.03031e-05
-5.83588e-06
-3.20717e-06
1.19266e-05
-5.97916e-06
3.09722e-07
1.37985e-05
-5.97786e-06
3.16691e-06
1.60379e-05
-5.7774e-06
4.96302e-06
1.88861e-05
-5.28642e-06
5.201e-06
2.27685e-05
-4.38818e-06
3.72542e-06
2.7964e-05
-3.04755e-06
1.59865e-06
3.2003e-05
-1.48813e-06
2.87788e-05
-2.86483e-07
-2.76959e-06
-4.3932e-06
1.73601e-06
-7.19174e-06
-4.04294e-06
2.87052e-06
-1.17028e-05
-3.53078e-06
2.82757e-06
-1.60002e-05
-2.93944e-06
2.59727e-06
-1.99994e-05
-2.39659e-06
2.33757e-06
-2.36793e-05
-1.94448e-06
2.06444e-06
-2.70244e-05
-1.56126e-06
1.78013e-06
-2.99997e-05
-1.2345e-06
1.48456e-06
-3.25697e-05
-9.55996e-07
1.18157e-06
-3.47122e-05
-7.08878e-07
8.7634e-07
-3.64193e-05
-4.71065e-07
5.72315e-07
-3.76955e-05
-2.19528e-07
2.69392e-07
-3.85492e-05
6.49574e-08
-3.89634e-08
-3.90002e-05
3.72095e-07
-3.25042e-07
-3.90678e-05
7.31245e-07
-6.25858e-07
-3.87359e-05
1.14242e-06
-9.36736e-07
-3.80212e-05
1.6088e-06
-1.2603e-06
-3.69269e-05
2.134e-06
-1.59918e-06
-3.54536e-05
2.72216e-06
-1.95519e-06
-3.35996e-05
3.37848e-06
-2.32916e-06
-3.13592e-05
4.10959e-06
-2.72069e-06
-2.87188e-05
4.92858e-06
-3.12801e-06
-2.5683e-05
5.87973e-06
-3.54949e-06
-2.22965e-05
7.00222e-06
-3.97896e-06
-1.86221e-05
8.2903e-06
-4.40192e-06
-1.47361e-05
9.74758e-06
-4.79888e-06
-1.07439e-05
1.14028e-05
-5.14523e-06
-6.79276e-06
1.33056e-05
-5.41261e-06
-3.0846e-06
1.55364e-05
-5.56556e-06
9.59682e-08
1.82385e-05
-5.54736e-06
2.34515e-06
2.16724e-05
-5.25813e-06
3.14647e-06
2.62399e-05
-4.54934e-06
2.35971e-06
3.18121e-05
-3.34135e-06
1.07005e-06
3.49497e-05
-1.82459e-06
3.02576e-05
-3.57706e-07
-2.85747e-06
-2.96954e-06
1.42238e-06
-6.58186e-06
-2.68322e-06
2.35263e-06
-1.03185e-05
-2.22725e-06
2.41256e-06
-1.39004e-05
-1.62231e-06
2.23607e-06
-1.73142e-05
-1.00721e-06
1.99756e-06
-2.05832e-05
-4.35764e-07
1.73937e-06
-2.3693e-05
6.58112e-08
1.46705e-06
-2.66145e-05
4.96527e-07
1.17949e-06
-2.92964e-05
8.39336e-07
8.79783e-07
-3.1696e-05
1.11493e-06
5.7303e-07
-3.3774e-05
1.3443e-06
2.63912e-07
-3.54835e-05
1.54259e-06
-4.69773e-08
-3.68118e-05
1.72601e-06
-3.22671e-07
-3.77398e-05
1.91735e-06
-6.02496e-07
-3.82526e-05
2.14285e-06
-8.7953e-07
-3.83507e-05
2.41996e-06
-1.15578e-06
-3.80368e-05
2.75687e-06
-1.43433e-06
-3.73146e-05
3.1611e-06
-1.71811e-06
-3.61884e-05
3.63955e-06
-2.00962e-06
-3.46624e-05
4.19925e-06
-2.31088e-06
-3.27405e-05
4.84773e-06
-2.62345e-06
-3.04233e-05
5.59532e-06
-2.94812e-06
-2.7702e-05
6.47937e-06
-3.28716e-06
-2.45816e-05
7.55314e-06
-3.64095e-06
-2.11034e-05
8.83904e-06
-4.00308e-06
-1.73284e-05
1.03471e-05
-4.3617e-06
-1.33447e-05
1.21134e-05
-4.69884e-06
-9.28503e-06
1.42022e-05
-4.98663e-06
-5.34115e-06
1.6715e-05
-5.19107e-06
-1.79345e-06
1.98222e-05
-5.25526e-06
9.2624e-07
2.38045e-05
-5.05293e-06
2.26934e-06
2.89811e-05
-4.37453e-06
2.08599e-06
3.47557e-05
-3.08638e-06
1.13354e-06
3.71289e-05
-1.46884e-06
3.14313e-05
-7.64461e-08
-1.32238e-06
-2.52764e-06
8.15167e-07
-3.16539e-06
-2.06203e-06
1.16677e-06
-5.32571e-06
-1.48392e-06
1.36781e-06
-7.71393e-06
-7.17169e-07
1.4385e-06
-1.03006e-05
1.16223e-07
1.42302e-06
-1.30493e-05
9.2388e-07
1.35323e-06
-1.59082e-05
1.65583e-06
1.23763e-06
-1.88097e-05
2.29448e-06
1.07659e-06
-2.16975e-05
2.83389e-06
8.70282e-07
-2.44971e-05
3.2776e-06
6.18489e-07
-2.71214e-05
3.63606e-06
3.18526e-07
-2.94672e-05
3.91042e-06
-3.18356e-08
-3.1497e-05
4.1043e-06
-3.54018e-07
-3.31422e-05
4.24554e-06
-6.83593e-07
-3.43644e-05
4.37541e-06
-1.00532e-06
-3.51397e-05
4.52759e-06
-1.32155e-06
-3.546e-05
4.72601e-06
-1.63221e-06
-3.53279e-05
4.98917e-06
-1.93759e-06
-3.47513e-05
5.32915e-06
-2.23778e-06
-3.37415e-05
5.75608e-06
-2.53261e-06
-3.23133e-05
6.28008e-06
-2.82159e-06
-3.04848e-05
6.91351e-06
-3.10389e-06
-2.82674e-05
7.68778e-06
-3.38025e-06
-2.56665e-05
8.65168e-06
-3.65217e-06
-2.2703e-05
9.84105e-06
-3.91773e-06
-1.94258e-05
1.12875e-05
-4.17199e-06
-1.59109e-05
1.30465e-05
-4.409e-06
-1.22678e-05
1.52025e-05
-4.61863e-06
-8.65268e-06
1.78786e-05
-4.77951e-06
-5.27869e-06
2.12596e-05
-4.85404e-06
-2.43664e-06
2.56052e-05
-4.74588e-06
-4.78524e-07
3.10806e-05
-4.22343e-06
4.94112e-07
3.6664e-05
-3.04628e-06
5.25941e-07
3.83675e-05
-1.40237e-06
3.19348e-05
-1.81542e-08
-1.14558e-06
-2.58977e-06
1.12843e-06
-2.96288e-06
-1.80716e-06
1.49413e-06
-4.97237e-06
-1.03139e-06
1.50157e-06
-7.14378e-06
-7.4841e-08
1.48826e-06
-9.47736e-06
9.49853e-07
1.4697e-06
-1.19705e-05
1.95443e-06
1.43805e-06
-1.45936e-05
2.87485e-06
1.38192e-06
-1.73073e-05
3.69753e-06
1.28887e-06
-2.00668e-05
4.42321e-06
1.14812e-06
-2.28117e-05
5.04611e-06
9.54518e-07
-2.54666e-05
5.56518e-06
7.04579e-07
-2.79516e-05
5.98136e-06
3.94044e-07
-3.01751e-05
6.297e-06
1.18807e-08
-3.21121e-05
6.52726e-06
-3.61942e-07
-3.36852e-05
6.69507e-06
-7.61004e-07
-3.4848e-05
6.83151e-06
-1.15175e-06
-3.55739e-05
6.9751e-06
-1.52905e-06
-3.5845e-05
7.15694e-06
-1.89664e-06
-3.56539e-05
7.39872e-06
-2.25423e-06
-3.50031e-05
7.71843e-06
-2.60003e-06
-3.39042e-05
8.13285e-06
-2.93176e-06
-3.2378e-05
8.6598e-06
-3.24597e-06
-3.04451e-05
9.32878e-06
-3.54136e-06
-2.81172e-05
1.01774e-05
-3.81539e-06
-2.54127e-05
1.12416e-05
-4.06052e-06
-2.23767e-05
1.25705e-05
-4.2684e-06
-1.90804e-05
1.42369e-05
-4.43112e-06
-1.56249e-05
1.63455e-05
-4.54105e-06
-1.21468e-05
1.90456e-05
-4.59096e-06
-8.81945e-06
2.25411e-05
-4.56656e-06
-5.83142e-06
2.70654e-05
-4.42578e-06
-3.32673e-06
3.26208e-05
-4.03271e-06
-1.31039e-06
3.78511e-05
-3.15567e-06
-1.90621e-07
3.90387e-05
-1.75151e-06
3.20368e-05
-2.67565e-07
-1.18299e-06
-2.57982e-06
1.11698e-06
-3.16954e-06
-1.34058e-06
1.46773e-06
-5.16816e-06
-3.42262e-07
1.2686e-06
-7.12786e-06
7.42717e-07
1.11651e-06
-9.1081e-06
1.89758e-06
1.01742e-06
-1.11508e-05
3.03664e-06
9.49788e-07
-1.32818e-05
4.10004e-06
8.95075e-07
-1.54995e-05
5.06607e-06
8.36756e-07
-1.77917e-05
5.94207e-06
7.58654e-07
-2.01368e-05
6.72786e-06
6.46121e-07
-2.24902e-05
7.40904e-06
4.89551e-07
-2.47941e-05
7.97859e-06
2.83749e-07
-2.69822e-05
8.44386e-06
1.60095e-08
-2.9024e-05
8.81908e-06
-2.77126e-07
-3.08455e-05
9.11729e-06
-6.28991e-07
-3.23799e-05
9.35434e-06
-1.0164e-06
-3.35665e-05
9.55325e-06
-1.41722e-06
-3.43568e-05
9.74233e-06
-1.81638e-06
-3.47192e-05
9.95282e-06
-2.20718e-06
-3.46354e-05
1.0214e-05
-2.58792e-06
-3.40972e-05
1.0552e-05
-2.95802e-06
-3.31058e-05
1.09922e-05
-3.31568e-06
-3.1665e-05
1.15625e-05
-3.65684e-06
-2.97786e-05
1.22944e-05
-3.97492e-06
-2.7464e-05
1.32271e-05
-4.25961e-06
-2.47556e-05
1.4413e-05
-4.4968e-06
-2.17058e-05
1.59261e-05
-4.66892e-06
-1.83882e-05
1.78745e-05
-4.75677e-06
-1.49024e-05
2.0417e-05
-4.74327e-06
-1.13784e-05
2.37732e-05
-4.61393e-06
-7.97325e-06
2.81767e-05
-4.34256e-06
-4.84223e-06
3.35635e-05
-3.86278e-06
-2.13418e-06
3.84521e-05
-3.07062e-06
-4.29108e-07
3.93971e-05
-1.89212e-06
3.21368e-05
-4.51194e-07
-8.69153e-07
-2.52657e-06
7.58927e-07
-2.60469e-06
-7.67617e-07
1.11131e-06
-4.51426e-06
4.81551e-07
1.04735e-06
-6.43243e-06
1.68496e-06
9.51737e-07
-8.34424e-06
2.91745e-06
8.78037e-07
-1.02786e-05
4.14217e-06
8.20818e-07
-1.22656e-05
5.3116e-06
7.69852e-07
-1.43196e-05
6.39856e-06
7.15716e-07
-1.64319e-05
7.39771e-06
6.49631e-07
-1.85847e-05
8.30978e-06
5.62012e-07
-2.0764e-05
9.13375e-06
4.43225e-07
-2.29469e-05
9.86102e-06
2.85779e-07
-2.50861e-05
1.04829e-05
8.15528e-08
-2.71403e-05
1.10036e-05
-1.52936e-07
-2.90599e-05
1.14386e-05
-4.28014e-07
-3.07846e-05
1.18027e-05
-7.53054e-07
-3.22538e-05
1.21105e-05
-1.12032e-06
-3.34129e-05
1.23822e-05
-1.51469e-06
-3.42162e-05
1.26421e-05
-1.91957e-06
-3.46284e-05
1.29182e-05
-2.32304e-06
-3.46245e-05
1.3241e-05
-2.71898e-06
-3.41876e-05
1.36412e-05
-3.10458e-06
-3.3307e-05
1.41508e-05
-3.47756e-06
-3.19792e-05
1.48052e-05
-3.83433e-06
-3.02094e-05
1.56464e-05
-4.16813e-06
-2.80137e-05
1.67276e-05
-4.4679e-06
-2.54199e-05
1.81196e-05
-4.7172e-06
-2.2466e-05
1.99219e-05
-4.89385e-06
-1.91934e-05
2.22763e-05
-4.9723e-06
-1.56373e-05
2.53753e-05
-4.92519e-06
-1.183e-05
2.94138e-05
-4.71337e-06
-7.84096e-06
3.42868e-05
-4.26986e-06
-3.96759e-06
3.85968e-05
-3.51454e-06
-1.09778e-06
3.93145e-05
-2.37211e-06
3.20604e-05
-7.80907e-07
-2.73667e-07
-3.31907e-06
9.91319e-07
-1.90662e-06
-6.92381e-07
1.48388e-06
-3.77388e-06
9.01146e-07
1.38722e-06
-5.6423e-06
2.25935e-06
1.24797e-06
-7.47298e-06
3.57884e-06
1.13401e-06
-9.29344e-06
4.89419e-06
1.04048e-06
-1.11424e-05
6.18037e-06
9.57102e-07
-1.30427e-05
7.40436e-06
8.7441e-07
-1.49919e-05
8.54423e-06
7.8431e-07
-1.69706e-05
9.59102e-06
6.79929e-07
-1.89556e-05
1.05473e-05
5.54291e-07
-2.09228e-05
1.14116e-05
3.99597e-07
-2.28501e-05
1.21837e-05
2.08955e-07
-2.47028e-05
1.28638e-05
-2.65184e-08
-2.64598e-05
1.34504e-05
-2.76044e-07
-2.80602e-05
1.39501e-05
-5.70539e-07
-2.94555e-05
1.438e-05
-9.00346e-07
-3.05972e-05
1.476e-05
-1.26422e-06
-3.14408e-05
1.51119e-05
-1.65622e-06
-3.19476e-05
1.54576e-05
-2.06362e-06
-3.20835e-05
1.58198e-05
-2.47362e-06
-3.18209e-05
1.62269e-05
-2.87684e-06
-3.1139e-05
1.67125e-05
-3.26721e-06
-3.00247e-05
1.73153e-05
-3.64014e-06
-2.84731e-05
1.80815e-05
-3.9899e-06
-2.64904e-05
1.90682e-05
-4.3079e-06
-2.40962e-05
2.03497e-05
-4.58105e-06
-2.1325e-05
2.2026e-05
-4.78995e-06
-1.82239e-05
2.42326e-05
-4.90755e-06
-1.48422e-05
2.71417e-05
-4.89971e-06
-1.12191e-05
3.09083e-05
-4.72557e-06
-7.40899e-06
3.53797e-05
-4.3352e-06
-3.65852e-06
3.92179e-05
-3.69377e-06
-7.96712e-07
3.97849e-05
-2.73445e-06
3.26874e-05
-1.07171e-06
-2.859e-07
-3.81226e-06
7.3356e-07
-1.15142e-06
-9.65501e-07
1.07946e-06
-2.36601e-06
9.39675e-07
1.12704e-06
-3.75939e-06
2.50383e-06
1.11263e-06
-5.26235e-06
3.9562e-06
1.09823e-06
-6.8583e-06
5.37695e-06
1.09091e-06
-8.55379e-06
6.76932e-06
1.087e-06
-1.03575e-05
8.11071e-06
1.07919e-06
-1.22702e-05
9.38034e-06
1.05889e-06
-1.42792e-05
1.05645e-05
1.01748e-06
-1.63533e-05
1.16553e-05
9.47305e-07
-1.84547e-05
1.26513e-05
8.4228e-07
-2.05471e-05
1.35592e-05
6.97239e-07
-2.25881e-05
1.43776e-05
5.07035e-07
-2.45324e-05
1.51057e-05
2.68071e-07
-2.63244e-05
1.57482e-05
-2.7669e-08
-2.79358e-05
1.63109e-05
-3.41867e-07
-2.92993e-05
1.68062e-05
-7.05249e-07
-3.03632e-05
1.72594e-05
-1.10572e-06
-3.10831e-05
1.76949e-05
-1.5384e-06
-3.14195e-05
1.81293e-05
-1.99221e-06
-3.13389e-05
1.85842e-05
-2.45409e-06
-3.08143e-05
1.90879e-05
-2.9121e-06
-2.98247e-05
1.96767e-05
-3.35671e-06
-2.83551e-05
2.03957e-05
-3.7799e-06
-2.63978e-05
2.13022e-05
-4.17293e-06
-2.39561e-05
2.24721e-05
-4.52379e-06
-2.10499e-05
2.40091e-05
-4.81476e-06
-1.77251e-05
2.60551e-05
-5.0194e-06
-1.40657e-05
2.87924e-05
-5.09908e-06
-1.02116e-05
3.23873e-05
-4.9991e-06
-6.40049e-06
3.67011e-05
-4.64736e-06
-3.03479e-06
4.04111e-05
-3.98353e-06
-6.63404e-07
4.08908e-05
-2.976e-06
3.35269e-05
-1.20797e-06
-4.84503e-07
-3.64417e-06
2.65266e-07
-9.87878e-07
-7.01974e-07
1.77158e-07
-1.59702e-06
1.30766e-06
1.86777e-07
-2.28365e-06
2.92173e-06
2.25706e-07
-3.04303e-06
4.40327e-06
2.77461e-07
-3.88352e-06
5.85064e-06
3.37068e-07
-4.82287e-06
7.28129e-06
4.00902e-07
-5.88094e-06
8.6798e-06
4.64725e-07
-7.07403e-06
1.00279e-05
5.22931e-07
-8.41286e-06
1.13132e-05
5.68579e-07
-9.89969e-06
1.25272e-05
5.93784e-07
-1.15217e-05
1.36615e-05
5.90496e-07
-1.32441e-05
1.47083e-05
5.51053e-07
-1.5022e-05
1.56633e-05
4.68712e-07
-1.681e-05
1.65308e-05
3.37732e-07
-1.85557e-05
1.73151e-05
1.51947e-07
-2.02047e-05
1.80184e-05
-8.71137e-08
-2.1714e-05
1.86497e-05
-3.64664e-07
-2.30159e-05
1.92274e-05
-6.97435e-07
-2.40434e-05
1.97693e-05
-1.07815e-06
-2.47337e-05
2.02891e-05
-1.49934e-06
-2.50295e-05
2.08031e-05
-1.95016e-06
-2.48808e-05
2.13352e-05
-2.41765e-06
-2.42469e-05
2.19178e-05
-2.8888e-06
-2.30964e-05
2.25944e-05
-3.35149e-06
-2.14074e-05
2.34216e-05
-3.79383e-06
-1.91708e-05
2.44763e-05
-4.2015e-06
-1.64002e-05
2.58687e-05
-4.55428e-06
-1.31559e-05
2.77635e-05
-4.82138e-06
-9.5944e-06
3.03982e-05
-4.95543e-06
-6.03212e-06
3.40316e-05
-4.88679e-06
-2.94553e-06
3.85711e-05
-4.52167e-06
-7.57403e-07
4.24684e-05
-3.76151e-06
3.36271e-07
4.28456e-05
-2.60734e-06
3.51532e-05
-9.63403e-07
-5.84822e-07
-3.7556e-06
6.46362e-07
-1.92107e-06
-3.6443e-07
9.39835e-07
-3.08833e-06
1.64108e-06
7.86564e-07
-4.10245e-06
3.25396e-06
6.4621e-07
-4.99803e-06
4.7141e-06
5.55587e-07
-5.81814e-06
6.14174e-06
5.02319e-07
-6.60528e-06
7.56526e-06
4.76813e-07
-7.39607e-06
8.97197e-06
4.71861e-07
-8.22075e-06
1.03447e-05
4.80593e-07
-9.10435e-06
1.16737e-05
4.95628e-07
-1.00669e-05
1.29534e-05
5.08806e-07
-1.1123e-05
1.41787e-05
5.1111e-07
-1.22795e-05
1.53433e-05
4.9313e-07
-1.35324e-05
1.64409e-05
4.45626e-07
-1.48603e-05
1.74668e-05
3.60075e-07
-1.62279e-05
1.84189e-05
2.28501e-07
-1.7586e-05
1.92981e-05
3.84192e-08
-1.89042e-05
2.01093e-05
-1.87417e-07
-2.01185e-05
2.08616e-05
-4.73282e-07
-2.11582e-05
2.15655e-05
-8.18567e-07
-2.19536e-05
2.22316e-05
-1.2192e-06
-2.24391e-05
2.28743e-05
-1.66887e-06
-2.25551e-05
2.35137e-05
-2.15784e-06
-2.22498e-05
2.41781e-05
-2.67362e-06
-2.14795e-05
2.4906e-05
-3.20244e-06
-2.0209e-05
2.57488e-05
-3.73027e-06
-1.84104e-05
2.67774e-05
-4.24217e-06
-1.60672e-05
2.80959e-05
-4.71843e-06
-1.31907e-05
2.9869e-05
-5.12618e-06
-9.86851e-06
3.23557e-05
-5.40238e-06
-6.35718e-06
3.58719e-05
-5.42758e-06
-3.14562e-06
4.03706e-05
-5.01742e-06
-8.56202e-07
4.4206e-05
-3.9823e-06
3.37893e-09
4.43782e-05
-2.37248e-06
3.59498e-05
-7.97917e-07
-7.37983e-07
-3.16179e-06
1.1939e-07
-1.17191e-06
1.91728e-07
-1.56565e-07
-1.69853e-06
2.32693e-06
-1.8388e-07
-2.19637e-06
3.91139e-06
-1.71609e-07
-2.65915e-06
5.31713e-06
-1.44875e-07
-3.09732e-06
6.68601e-06
-1.08468e-07
-3.5272e-06
8.05605e-06
-6.43744e-08
-3.96402e-06
9.41898e-06
-1.63701e-08
-4.44197e-06
1.07589e-05
5.42887e-08
-4.98008e-06
1.20684e-05
1.30837e-07
-5.59171e-06
1.33467e-05
2.03089e-07
-6.29419e-06
1.45955e-05
2.68336e-07
-7.10509e-06
1.58145e-05
3.208e-07
-8.03809e-06
1.70005e-05
3.53266e-07
-9.09835e-06
1.8148e-05
3.57672e-07
-1.02785e-05
1.92505e-05
3.25648e-07
-1.15553e-05
2.03011e-05
2.48911e-07
-1.28867e-05
2.12947e-05
1.18379e-07
-1.42168e-05
2.22296e-05
-6.9606e-08
-1.54979e-05
2.31095e-05
-2.99701e-07
-1.66539e-05
2.39417e-05
-5.97823e-07
-1.76128e-05
2.47382e-05
-9.57811e-07
-1.83072e-05
2.55183e-05
-1.37483e-06
-1.86769e-05
2.63107e-05
-1.84246e-06
-1.86712e-05
2.71546e-05
-2.35283e-06
-1.82506e-05
2.81031e-05
-2.89703e-06
-1.73884e-05
2.92285e-05
-3.46465e-06
-1.60718e-05
3.0634e-05
-4.04174e-06
-1.42987e-05
3.24718e-05
-4.60499e-06
-1.2066e-05
3.49573e-05
-5.10669e-06
-9.35646e-06
3.83047e-05
-5.44056e-06
-6.19359e-06
4.23291e-05
-5.39312e-06
-2.98297e-06
4.54713e-05
-4.66063e-06
-9.5337e-07
4.52119e-05
-3.01273e-06
3.60033e-05
-1.10102e-06
-8.33224e-07
-2.80683e-06
4.40304e-07
-2.04673e-06
8.90465e-07
4.78278e-07
-2.97776e-06
2.97509e-06
2.62293e-07
-3.6858e-06
4.50565e-06
1.08036e-07
-4.21067e-06
5.84522e-06
8.87483e-10
-4.61692e-06
7.1473e-06
-4.56991e-08
-4.93316e-06
8.45666e-06
-7.29074e-08
-5.1911e-06
9.76923e-06
-8.0737e-08
-5.42187e-06
1.10702e-05
-7.01412e-08
-5.652e-06
1.23514e-05
-4.44142e-08
-5.90122e-06
1.36128e-05
-1.05779e-08
-6.20861e-06
1.48584e-05
4.84914e-08
-6.59459e-06
1.60929e-05
1.09468e-07
-7.07596e-06
1.73189e-05
1.62801e-07
-7.66953e-06
1.85366e-05
2.02893e-07
-8.3886e-06
1.97436e-05
2.21727e-07
-9.23888e-06
2.09343e-05
2.10295e-07
-1.02124e-05
2.20993e-05
1.59031e-07
-1.12805e-05
2.32287e-05
5.56693e-08
-1.24113e-05
2.43145e-05
-9.10733e-08
-1.35579e-05
2.53531e-05
-2.84764e-07
-1.4647e-05
2.6345e-05
-5.40286e-07
-1.56004e-05
2.72988e-05
-8.51445e-07
-1.63384e-05
2.82346e-05
-1.21136e-06
-1.67856e-05
2.91881e-05
-1.61251e-06
-1.68751e-05
3.02145e-05
-2.0485e-06
-1.65523e-05
3.13944e-05
-2.51515e-06
-1.57785e-05
3.28435e-05
-3.00929e-06
-1.45341e-05
3.47251e-05
-3.52413e-06
-1.28078e-05
3.72392e-05
-4.03836e-06
-1.05338e-05
4.04877e-05
-4.49107e-06
-7.53269e-06
4.40463e-05
-4.73304e-06
-3.93686e-06
4.63998e-05
-4.46974e-06
-1.10168e-06
4.57155e-05
-3.22329e-06
3.62456e-05
-1.18241e-06
-4.14572e-07
-2.53164e-06
7.81493e-08
-1.19509e-06
1.64189e-06
-2.88474e-08
-1.94344e-06
3.85014e-06
-1.65304e-07
-2.54648e-06
5.3517e-06
-2.64951e-07
-2.99813e-06
6.616e-06
-3.30383e-07
-3.30951e-06
7.82387e-06
-3.6998e-07
-3.49959e-06
9.03412e-06
-3.88144e-07
-3.59549e-06
1.02543e-05
-3.87216e-07
-3.62913e-06
1.14764e-05
-3.68768e-07
-3.63167e-06
1.26936e-05
-3.34413e-07
-3.63022e-06
1.39038e-05
-2.86232e-07
-3.64706e-06
1.51097e-05
-2.27289e-07
-3.70087e-06
1.63163e-05
-1.61591e-07
-3.80873e-06
1.753e-05
-9.4497e-08
-3.98577e-06
1.87567e-05
-3.37552e-08
-4.25554e-06
2.0001e-05
2.17785e-08
-4.64955e-06
2.12651e-05
7.18392e-08
-5.18009e-06
2.25475e-05
8.86416e-08
-5.85865e-06
2.38439e-05
6.50524e-08
-6.68185e-06
2.51476e-05
-1.61441e-08
-7.67063e-06
2.64491e-05
-1.25203e-07
-8.79481e-06
2.77392e-05
-3.03796e-07
-1.00099e-05
2.90117e-05
-5.51621e-07
-1.12548e-05
3.02666e-05
-8.65277e-07
-1.24516e-05
3.15147e-05
-1.23581e-06
-1.35102e-05
3.27849e-05
-1.64893e-06
-1.43299e-05
3.41324e-05
-2.08803e-06
-1.47955e-05
3.56478e-05
-2.53843e-06
-1.47642e-05
3.74644e-05
-2.98862e-06
-1.40464e-05
3.97367e-05
-3.42528e-06
-1.23909e-05
4.24962e-05
-3.82511e-06
-9.53639e-06
4.52638e-05
-4.14048e-06
-5.64698e-06
4.67638e-05
-4.21738e-06
-1.99756e-06
4.56146e-05
-3.4731e-06
3.57225e-05
-1.40458e-06
-1.38268e-07
-2.61208e-06
1.75956e-07
-9.80345e-07
2.4574e-06
-2.97834e-08
-1.9903e-06
5.05315e-06
-2.37653e-07
-2.93009e-06
6.65706e-06
-3.97647e-07
-3.71695e-06
7.89084e-06
-5.11779e-07
-4.32848e-06
9.00918e-06
-5.92592e-07
-4.77231e-06
1.01086e-05
-6.46198e-07
-5.07228e-06
1.12163e-05
-6.75223e-07
-5.257e-06
1.23312e-05
-6.81031e-07
-5.35673e-06
1.34494e-05
-6.6489e-07
-5.4013e-06
1.45704e-05
-6.28249e-07
-5.41735e-06
1.56956e-05
-5.7308e-07
-5.4258e-06
1.68273e-05
-5.02033e-07
-5.44133e-06
1.79691e-05
-4.18547e-07