/*--------------------------------*- C++ -*----------------------------------*\
| =========                 |                                                 |
| \\      /  F ield         | OpenFOAM: The Open Source CFD Toolbox           |
|  \\    /   O peration     | Version:  v2012                                 |
|   \\  /    A nd           | Website:  www.openfoam.com                      |
|    \\/     M anipulation  |                                                 |
\*---------------------------------------------------------------------------*/
FoamFile
{
    version     2.0;
    format      ascii;
    class       volVectorField;
    location    "76";
    object      U;
}
// * * * * * * * * * * * * * * * * * * * * * * * * * * * * * * * * * * * * * //

dimensions      [0 1 -1 0 0 0 0];


internalField   nonuniform List<vector> 
78750
(
(-1.33038e-06 -6.6569e-05 0.000126393)
(-3.14459e-06 -9.43258e-05 0.000221118)
(-9.58104e-06 -9.78511e-05 0.000269721)
(-1.9619e-05 -9.18809e-05 0.000303319)
(-3.34608e-05 -8.05126e-05 0.000325217)
(-5.05262e-05 -6.62165e-05 0.000338075)
(-7.00992e-05 -5.08059e-05 0.000343837)
(-9.14015e-05 -3.54394e-05 0.000344055)
(-0.000113717 -2.1021e-05 0.00033988)
(-0.000136332 -8.02382e-06 0.000332288)
(-0.000158708 3.21778e-06 0.000321953)
(-0.000180286 1.26014e-05 0.000309496)
(-0.000200555 1.99871e-05 0.000295377)
(-0.000219111 2.54647e-05 0.000280026)
(-0.000235588 2.90355e-05 0.000263768)
(-0.000249675 3.08447e-05 0.000246957)
(-0.00026111 3.09419e-05 0.000229867)
(-0.000269696 2.94904e-05 0.000212819)
(-0.000275271 2.65565e-05 0.000196075)
(-0.000277728 2.23065e-05 0.000179946)
(-0.000276995 1.68265e-05 0.000164689)
(-0.000273044 1.02904e-05 0.000150595)
(-0.000265888 2.79818e-06 0.000137901)
(-0.000255583 -5.46466e-06 0.00012685)
(-0.000242223 -1.43588e-05 0.000117606)
(-0.000225936 -2.36441e-05 0.000110301)
(-0.0002069 -3.30845e-05 0.000104947)
(-0.000185312 -4.2307e-05 0.000101455)
(-0.000161419 -5.08951e-05 9.95773e-05)
(-0.000135532 -5.82338e-05 9.88466e-05)
(-0.000107895 -6.35553e-05 9.84652e-05)
(-7.86774e-05 -6.57664e-05 9.71799e-05)
(-4.88486e-05 -6.3395e-05 9.31362e-05)
(-2.43286e-05 -5.44824e-05 8.34681e-05)
(-6.63823e-06 -3.12672e-05 5.51304e-05)
(-2.93277e-06 0.000104391 -0.000193919)
(-1.88461e-05 0.000216785 -0.000290761)
(-3.68383e-05 0.000277229 -0.000326226)
(-6.31983e-05 0.000325753 -0.000356153)
(-9.12535e-05 0.000362944 -0.000380447)
(-0.000119176 0.000389767 -0.000399307)
(-0.000146155 0.000407906 -0.000413929)
(-0.000171625 0.000418205 -0.00042577)
(-0.000195044 0.000422086 -0.000435255)
(-0.000216076 0.000420071 -0.00044307)
(-0.000234471 0.000413319 -0.000449262)
(-0.000250042 0.000402178 -0.000454263)
(-0.000262755 0.000387542 -0.000458026)
(-0.000272548 0.000369662 -0.000460873)
(-0.000279416 0.000349374 -0.000462678)
(-0.000283425 0.000326821 -0.000463715)
(-0.000284624 0.000302734 -0.00046384)
(-0.000283127 0.000277223 -0.000463281)
(-0.000279002 0.000250933 -0.00046189)
(-0.000272468 0.000223812 -0.000459901)
(-0.000263629 0.00019644 -0.000457156)
(-0.000252669 0.000168895 -0.000453778)
(-0.00023976 0.000141661 -0.000449601)
(-0.000225112 0.000114798 -0.000444682)
(-0.000208913 8.87204e-05 -0.000438822)
(-0.000191378 6.34813e-05 -0.000431979)
(-0.000172692 3.94473e-05 -0.000423731)
(-0.000153089 1.66795e-05 -0.00041367)
(-0.000132786 -4.47537e-06 -0.000400982)
(-0.000112006 -2.39092e-05 -0.000384628)
(-9.0824e-05 -4.11925e-05 -0.000362902)
(-6.90058e-05 -5.58757e-05 -0.000332753)
(-4.65696e-05 -6.65824e-05 -0.000286957)
(-2.82993e-05 -7.00276e-05 -0.000216828)
(-1.53859e-05 -4.80949e-05 -7.54377e-05)
(-6.97529e-07 0.000272382 -0.000147403)
(-9.63963e-06 0.000466825 -0.00023954)
(-1.73686e-05 0.000551893 -0.000276912)
(-2.93729e-05 0.000611886 -0.000301878)
(-4.19843e-05 0.000652174 -0.000319418)
(-5.42672e-05 0.000677564 -0.000332095)
(-6.5958e-05 0.000690775 -0.00034182)
(-7.68008e-05 0.000694676 -0.000349356)
(-8.66363e-05 0.000690671 -0.000355599)
(-9.52952e-05 0.000680606 -0.000360693)
(-0.000102721 0.0006652 -0.000365103)
(-0.000108836 0.000645771 -0.000368725)
(-0.00011366 0.000622687 -0.000371859)
(-0.00011717 0.000596967 -0.000374321)
(-0.00011943 0.000568806 -0.000376343)
(-0.000120446 0.000539052 -0.000377722)
(-0.000120305 0.000507807 -0.000378665)
(-0.000119023 0.0004758 -0.000378979)
(-0.000116724 0.000443188 -0.00037877)
(-0.000113435 0.000410553 -0.000377923)
(-0.000109295 0.000377929 -0.000376582)
(-0.000104373 0.000345846 -0.000374568)
(-9.88014e-05 0.000314327 -0.00037199)
(-9.26461e-05 0.00028381 -0.000368666)
(-8.60278e-05 0.000254297 -0.000364635)
(-7.9007e-05 0.000226133 -0.000359649)
(-7.16839e-05 0.000199289 -0.000353587)
(-6.40977e-05 0.000174018 -0.000345984)
(-5.6329e-05 0.000150252 -0.000336345)
(-4.84104e-05 0.000128158 -0.000323682)
(-4.03599e-05 0.000107598 -0.000306597)
(-3.19584e-05 8.86316e-05 -0.000282383)
(-2.29502e-05 7.09509e-05 -0.000246374)
(-1.45881e-05 5.45249e-05 -0.000193072)
(-9.58768e-06 2.97012e-05 -7.54325e-05)
(-9.27438e-07 0.000358829 -8.34893e-06)
(-5.04929e-06 0.000591506 -6.71045e-05)
(-6.26619e-06 0.000694608 -0.000101812)
(-9.13968e-06 0.000767495 -0.000126423)
(-1.22252e-05 0.000817285 -0.000142825)
(-1.53788e-05 0.000848847 -0.000155215)
(-1.84853e-05 0.000866406 -0.000165481)
(-2.15108e-05 0.000872564 -0.000174769)
(-2.43307e-05 0.00086998 -0.000183361)
(-2.69116e-05 0.000860038 -0.000191771)
(-2.91673e-05 0.000844516 -0.000199942)
(-3.10924e-05 0.000824151 -0.000208149)
(-3.26371e-05 0.000800225 -0.000216181)
(-3.38321e-05 0.000773136 -0.000224204)
(-3.46487e-05 0.000743877 -0.000231957)
(-3.51357e-05 0.000712661 -0.000239565)
(-3.528e-05 0.000680293 -0.000246766)
(-3.51459e-05 0.000646877 -0.000253674)
(-3.47526e-05 0.000613067 -0.000260055)
(-3.41252e-05 0.000579126 -0.000265866)
(-3.33036e-05 0.000545634 -0.000270881)
(-3.2361e-05 0.00051258 -0.000275187)
(-3.12996e-05 0.000480387 -0.00027858)
(-3.01888e-05 0.000449016 -0.000281102)
(-2.90347e-05 0.000418785 -0.000282526)
(-2.78655e-05 0.000389465 -0.000282906)
(-2.66624e-05 0.00036122 -0.000281959)
(-2.54297e-05 0.00033381 -0.000279535)
(-2.40951e-05 0.000307173 -0.000275165)
(-2.26093e-05 0.000280835 -0.000268363)
(-2.0806e-05 0.00025438 -0.000258213)
(-1.83781e-05 0.000226935 -0.000243806)
(-1.47068e-05 0.000197443 -0.000223589)
(-1.01068e-05 0.000164371 -0.000192785)
(-7.50858e-06 0.000100883 -0.000103213)
(-2.6428e-06 0.000383762 7.27024e-05)
(-5.37244e-06 0.000616117 4.29333e-05)
(-4.19291e-06 0.000720531 1.4921e-05)
(-2.86338e-06 0.000796099 -6.02323e-06)
(-9.45552e-07 0.000849076 -1.99697e-05)
(1.25523e-06 0.000884783 -3.06365e-05)
(3.55642e-06 0.000906635 -4.02003e-05)
(5.84223e-06 0.000917876 -4.92038e-05)
(8.0464e-06 0.000920364 -5.81959e-05)
(1.01228e-05 0.000916177 -6.72045e-05)
(1.20309e-05 0.000906328 -7.64338e-05)
(1.37537e-05 0.00089225 -8.57292e-05)
(1.52521e-05 0.000874488 -9.5258e-05)
(1.65248e-05 0.000854093 -0.00010478)
(1.7533e-05 0.000831358 -0.000114383)
(1.82791e-05 0.000807097 -0.000123812)
(1.87253e-05 0.000781459 -0.000133119)
(1.88749e-05 0.000755096 -0.000142061)
(1.86856e-05 0.000728087 -0.00015067)
(1.81651e-05 0.000700998 -0.000158705)
(1.72945e-05 0.000673839 -0.000166196)
(1.60965e-05 0.000647017 -0.000172936)
(1.45552e-05 0.00062045 -0.000178958)
(1.27067e-05 0.000594407 -0.000184075)
(1.05469e-05 0.000568697 -0.000188307)
(8.13186e-06 0.000543409 -0.000191474)
(5.48595e-06 0.000518175 -0.000193567)
(2.70127e-06 0.000492813 -0.000194375)
(-1.35218e-07 0.000466643 -0.000193785)
(-2.86623e-06 0.000439036 -0.000191415)
(-5.3245e-06 0.000408748 -0.000186973)
(-7.14706e-06 0.000374381 -0.000180443)
(-7.63726e-06 0.000333552 -0.000172373)
(-6.15542e-06 0.000283516 -0.000158526)
(-5.48807e-06 0.000179521 -9.58779e-05)
(-2.76995e-06 0.00038599 0.000105105)
(-4.38618e-06 0.000605248 9.1232e-05)
(-2.73405e-06 0.000705288 6.93774e-05)
(-3.45885e-07 0.000778955 5.21254e-05)
(2.87096e-06 0.000832542 4.06399e-05)
(6.4936e-06 0.000870251 3.14655e-05)
(1.0278e-05 0.00089581 2.30649e-05)
(1.40432e-05 0.00091153 1.4781e-05)
(1.76814e-05 0.00091972 6.56003e-06)
(2.10934e-05 0.000921643 -1.85248e-06)
(2.42118e-05 0.000918839 -1.05021e-05)
(2.69786e-05 0.000911972 -1.95273e-05)
(2.93675e-05 0.000902084 -2.87337e-05)
(3.13297e-05 0.000889531 -3.81453e-05)
(3.28581e-05 0.000875102 -4.75519e-05)
(3.39181e-05 0.00085897 -5.69861e-05)
(3.45082e-05 0.000841755 -6.62363e-05)
(3.46017e-05 0.000823518 -7.53175e-05)
(3.42095e-05 0.000804752 -8.40282e-05)
(3.33142e-05 0.000785434 -9.23816e-05)
(3.19425e-05 0.000765937 -0.000100194)
(3.00897e-05 0.000746169 -0.00010748)
(2.77951e-05 0.000726385 -0.00011407)
(2.50622e-05 0.000706382 -0.000119983)
(2.19563e-05 0.000686223 -0.00012507)
(1.85104e-05 0.000665506 -0.000129361)
(1.48095e-05 0.000644023 -0.000132717)
(1.09346e-05 0.000621062 -0.000135161)
(7.02538e-06 0.000595966 -0.000136521)
(3.21656e-06 0.000567473 -0.000136715)
(-2.81785e-07 0.000534142 -0.000135543)
(-3.16537e-06 0.000493726 -0.000133551)
(-4.77075e-06 0.000443377 -0.000131822)
(-4.3932e-06 0.000379083 -0.000126916)
(-4.20999e-06 0.000241754 -8.24984e-05)
(-2.01983e-06 0.000371733 0.0001024)
(-2.6327e-06 0.000577526 9.44861e-05)
(-1.03577e-06 0.000672314 7.72885e-05)
(1.37064e-06 0.000743569 6.35328e-05)
(4.45682e-06 0.000796655 5.42868e-05)
(7.87461e-06 0.000835879 4.69382e-05)
(1.14256e-05 0.000864152 4.00675e-05)
(1.49695e-05 0.000884064 3.33573e-05)
(1.84025e-05 0.000897184 2.65442e-05)
(2.16296e-05 0.000905134 1.96185e-05)
(2.45739e-05 0.000908712 1.2471e-05)
(2.7196e-05 0.000909001 5.20293e-06)
(2.9443e-05 0.000906439 -2.24432e-06)
(3.12848e-05 0.000901788 -9.7674e-06)
(3.26875e-05 0.000895242 -1.7388e-05)
(3.36424e-05 0.000887367 -2.49416e-05)
(3.41239e-05 0.000878221 -3.24424e-05)
(3.41359e-05 0.000868241 -3.97303e-05)
(3.36624e-05 0.000857391 -4.68176e-05)
(3.27205e-05 0.000845999 -5.35544e-05)
(3.1307e-05 0.000833944 -5.99568e-05)
(2.9448e-05 0.000821439 -6.58879e-05)
(2.71589e-05 0.000808253 -7.13704e-05)
(2.44845e-05 0.000794442 -7.62827e-05)
(2.14543e-05 0.000779608 -8.06554e-05)
(1.81414e-05 0.000763568 -8.4382e-05)
(1.46031e-05 0.000745639 -8.75025e-05)
(1.09419e-05 0.00072524 -8.99235e-05)
(7.2641e-06 0.000701187 -9.1666e-05)
(3.71786e-06 0.000672214 -9.258e-05)
(4.59681e-07 0.000636235 -9.26977e-05)
(-2.23213e-06 0.00059078 -9.24956e-05)
(-3.82044e-06 0.000532136 -9.32368e-05)
(-3.69205e-06 0.000455669 -9.21219e-05)
(-3.43147e-06 0.000289898 -6.08269e-05)
(-1.20985e-06 0.000355037 8.43539e-05)
(-1.27738e-06 0.000553692 7.88016e-05)
(-2.20553e-07 0.000645915 6.61861e-05)
(1.38713e-06 0.000715918 5.59507e-05)
(3.3983e-06 0.000769202 4.90508e-05)
(5.6213e-06 0.000809507 4.34791e-05)
(7.92792e-06 0.000840012 3.83472e-05)
(1.02429e-05 0.000862744 3.33004e-05)
(1.24956e-05 0.000879594 2.82952e-05)
(1.46263e-05 0.000891634 2.31856e-05)
(1.65826e-05 0.000900046 1.80087e-05)
(1.83182e-05 0.000905373 1.26956e-05)
(1.98012e-05 0.000908395 7.33989e-06)
(2.10056e-05 0.000909361 1.90238e-06)
(2.19087e-05 0.000908816 -3.50234e-06)
(2.24905e-05 0.000906835 -8.90316e-06)
(2.27455e-05 0.00090382 -1.41791e-05)
(2.26594e-05 0.000899734 -1.93538e-05)
(2.22362e-05 0.000894871 -2.43109e-05)
(2.14717e-05 0.000889106 -2.90772e-05)
(2.03843e-05 0.000882625 -3.35437e-05)
(1.89802e-05 0.000875204 -3.7744e-05)
(1.72864e-05 0.000866898 -4.15776e-05)
(1.53257e-05 0.000857335 -4.50857e-05)
(1.31413e-05 0.000846374 -4.81773e-05)
(1.07711e-05 0.000833403 -5.09014e-05)
(8.28124e-06 0.000817948 -5.3177e-05)
(5.73617e-06 0.000798983 -5.50607e-05)
(3.22915e-06 0.00077546 -5.64628e-05)
(8.59322e-07 0.000745615 -5.73966e-05)
(-1.23863e-06 0.000707382 -5.77904e-05)
(-2.87559e-06 0.000657685 -5.81209e-05)
(-3.65713e-06 0.000592626 -5.92396e-05)
(-3.27058e-06 0.000506769 -5.92063e-05)
(-2.71131e-06 0.000319785 -3.77141e-05)
(-9.09976e-07 0.000339655 6.59931e-05)
(-9.7993e-07 0.000536336 6.42502e-05)
(-6.01756e-07 0.000627813 5.6851e-05)
(4.25786e-09 0.000697808 5.06491e-05)
(8.41442e-07 0.000751444 4.63059e-05)
(1.80767e-06 0.000792799 4.27316e-05)
(2.84642e-06 0.000824646 3.93282e-05)
(3.9162e-06 0.000849348 3.60029e-05)
(4.98182e-06 0.000868379 3.26523e-05)
(6.00728e-06 0.000883147 2.93052e-05)
(6.9671e-06 0.000894407 2.58858e-05)
(7.83363e-06 0.000903036 2.24586e-05)
(8.57665e-06 0.000909386 1.89788e-05)
(9.18463e-06 0.000914044 1.55109e-05)
(9.63908e-06 0.000917131 1.20178e-05)
(9.93407e-06 0.000919045 8.58972e-06)
(1.00512e-05 0.000919772 5.22142e-06)
(9.98936e-06 0.000919589 2.00157e-06)
(9.73936e-06 0.000918383 -1.1151e-06)
(9.30858e-06 0.000916333 -4.04061e-06)
(8.69972e-06 0.000913228 -6.82225e-06)
(7.91997e-06 0.000909136 -9.37749e-06)
(6.98342e-06 0.000903722 -1.17587e-05)
(5.91327e-06 0.000896893 -1.38902e-05)
(4.72849e-06 0.00088812 -1.58301e-05)
(3.46602e-06 0.000877049 -1.75102e-05)
(2.15744e-06 0.000862816 -1.89963e-05)
(8.53452e-07 0.00084462 -2.02285e-05)
(-3.90871e-07 0.000821004 -2.12699e-05)
(-1.51434e-06 0.000790377 -2.20427e-05)
(-2.44156e-06 0.000750225 -2.2629e-05)
(-3.04878e-06 0.000697548 -2.32744e-05)
(-3.11019e-06 0.000627928 -2.46771e-05)
(-2.50699e-06 0.00053583 -2.55829e-05)
(-1.84834e-06 0.000334862 -1.392e-05)
(-1.09552e-06 0.00032699 5.31163e-05)
(-1.49828e-06 0.000522988 5.72724e-05)
(-1.79791e-06 0.000614268 5.53714e-05)
(-2.10264e-06 0.000684145 5.32135e-05)
(-2.24073e-06 0.000738004 5.15208e-05)
(-2.24439e-06 0.000779658 4.98565e-05)
(-2.16302e-06 0.000812181 4.81118e-05)
(-2.00784e-06 0.000837616 4.62337e-05)
(-1.80305e-06 0.000857746 4.43025e-05)
(-1.55802e-06 0.000873641 4.22805e-05)
(-1.29646e-06 0.000886364 4.02393e-05)
(-1.02901e-06 0.000896441 3.81383e-05)
(-7.69142e-07 0.000904534 3.60521e-05)
(-5.31562e-07 0.000910849 3.39722e-05)
(-3.26248e-07 0.000915821 3.19812e-05)
(-1.71792e-07 0.000919494 3.00423e-05)
(-6.40512e-08 0.000922176 2.8177e-05)
(-1.05611e-08 0.000923782 2.63498e-05)
(-1.65391e-08 0.000924497 2.46396e-05)
(-7.93516e-08 0.000924142 2.29986e-05)
(-1.98168e-07 0.000922801 2.14951e-05)
(-3.70797e-07 0.000920188 2.00711e-05)
(-5.88667e-07 0.000916259 1.87886e-05)
(-8.44206e-07 0.000910574 1.75847e-05)
(-1.12735e-06 0.000902887 1.6514e-05)
(-1.42339e-06 0.000892501 1.55062e-05)
(-1.70957e-06 0.000878829 1.46061e-05)
(-1.97148e-06 0.000860729 1.37298e-05)
(-2.18312e-06 0.000837008 1.29077e-05)
(-2.32102e-06 0.000805736 1.20467e-05)
(-2.35504e-06 0.000764639 1.11295e-05)
(-2.24528e-06 0.000710377 9.828e-06)
(-1.9012e-06 0.000638727 7.67026e-06)
(-1.307e-06 0.000543817 5.0577e-06)
(-8.1888e-07 0.00033711 6.77512e-06)
(-1.42547e-06 0.000315931 4.51703e-05)
(-2.20202e-06 0.000509835 5.54859e-05)
(-2.98032e-06 0.000600037 5.82169e-05)
(-3.8985e-06 0.000669203 5.94698e-05)
(-4.62661e-06 0.000722449 5.99638e-05)
(-5.19527e-06 0.000763813 5.99303e-05)
(-5.63856e-06 0.000796076 5.94718e-05)
(-5.98153e-06 0.000821543 5.87579e-05)
(-6.22367e-06 0.000841696 5.78371e-05)
(-6.38421e-06 0.000857875 5.68188e-05)
(-6.46205e-06 0.000870842 5.5701e-05)
(-6.47647e-06 0.000881402 5.4565e-05)
(-6.42779e-06 0.000889911 5.33885e-05)
(-6.32994e-06 0.000896872 5.22402e-05)
(-6.18657e-06 0.000902406 5.10849e-05)
(-6.00819e-06 0.000906833 4.99875e-05)
(-5.80188e-06 0.000910111 4.89313e-05)
(-5.57286e-06 0.000912451 4.79701e-05)
(-5.32157e-06 0.000913728 4.70554e-05)
(-5.05731e-06 0.000914052 4.62398e-05)
(-4.77815e-06 0.000913198 4.54693e-05)
(-4.48665e-06 0.000911167 4.47915e-05)
(-4.18412e-06 0.000907608 4.41461e-05)
(-3.86854e-06 0.000902367 4.35737e-05)
(-3.5395e-06 0.000894897 4.30057e-05)
(-3.19183e-06 0.000884792 4.24716e-05)
(-2.82823e-06 0.000871172 4.18876e-05)
(-2.44389e-06 0.00085319 4.12614e-05)
(-2.04388e-06 0.000829383 4.0481e-05)
(-1.62914e-06 0.000798119 3.9513e-05)
(-1.21216e-06 0.000756894 3.81685e-05)
(-8.05458e-07 0.000702676 3.61937e-05)
(-4.25291e-07 0.000631078 3.30032e-05)
(-4.24799e-08 0.000536553 2.84765e-05)
(1.18294e-07 0.000330969 2.15985e-05)
(-1.59985e-06 0.000305775 3.82974e-05)
(-2.57137e-06 0.000495357 5.22974e-05)
(-3.57926e-06 0.000583566 5.78054e-05)
(-4.76295e-06 0.000651102 6.10739e-05)
(-5.7432e-06 0.000703177 6.29248e-05)
(-6.5339e-06 0.000743518 6.38528e-05)
(-7.18677e-06 0.000775078 6.42107e-05)
(-7.71084e-06 0.000799873 6.4162e-05)
(-8.12359e-06 0.0008196 6.38774e-05)
(-8.41934e-06 0.000835323 6.341e-05)
(-8.61469e-06 0.000848036 6.28623e-05)
(-8.70779e-06 0.000858276 6.2241e-05)
(-8.71003e-06 0.000866642 6.16192e-05)
(-8.62189e-06 0.000873367 6.09824e-05)
(-8.45496e-06 0.000878825 6.039e-05)
(-8.20793e-06 0.00088307 5.98158e-05)
(-7.89565e-06 0.000886334 5.9311e-05)
(-7.51839e-06 0.000888552 5.88409e-05)
(-7.08873e-06 0.000889856 5.84491e-05)
(-6.60676e-06 0.000890083 5.80934e-05)
(-6.08361e-06 0.000889271 5.78099e-05)
(-5.52438e-06 0.000887151 5.75489e-05)
(-4.93376e-06 0.000883637 5.7339e-05)
(-4.31375e-06 0.000878314 5.71218e-05)
(-3.67351e-06 0.000870906 5.69149e-05)
(-3.02157e-06 0.000860757 5.66472e-05)
(-2.36024e-06 0.00084727 5.63168e-05)
(-1.70353e-06 0.000829371 5.58257e-05)
(-1.06454e-06 0.0008059 5.51308e-05)
(-4.62244e-07 0.000775037 5.40765e-05)
(7.30439e-08 0.000734618 5.25173e-05)
(4.87745e-07 0.000681492 5.00874e-05)
(7.30468e-07 0.000611679 4.62504e-05)
(8.56586e-07 0.000519639 4.04495e-05)
(7.30396e-07 0.000320026 2.83566e-05)
(-1.42142e-06 0.000296946 2.96866e-05)
(-2.35081e-06 0.000481417 4.34145e-05)
(-3.31543e-06 0.000567169 4.93606e-05)
(-4.46945e-06 0.000632867 5.30576e-05)
(-5.43331e-06 0.000683418 5.51826e-05)
(-6.23095e-06 0.000722616 5.63642e-05)
(-6.88897e-06 0.000753142 5.69311e-05)
(-7.4325e-06 0.000777158 5.71171e-05)
(-7.8516e-06 0.000796111 5.70308e-05)
(-8.16293e-06 0.00081125 5.6794e-05)
(-8.35784e-06 0.000823335 5.64459e-05)
(-8.44918e-06 0.000833104 5.60621e-05)
(-8.43517e-06 0.000840931 5.56503e-05)
(-8.32678e-06 0.000847262 5.52651e-05)
(-8.12196e-06 0.000852245 5.48977e-05)
(-7.83792e-06 0.000856155 5.45915e-05)
(-7.47408e-06 0.000858998 5.43276e-05)
(-7.04108e-06 0.000860935 5.41404e-05)
(-6.54669e-06 0.000861871 5.40024e-05)
(-6.00079e-06 0.000861872 5.39399e-05)
(-5.40876e-06 0.000860748 5.39175e-05)
(-4.78212e-06 0.000858463 5.39535e-05)
(-4.12947e-06 0.000854709 5.40038e-05)
(-3.45793e-06 0.000849305 5.40777e-05)
(-2.77665e-06 0.000841763 5.41206e-05)
(-2.09487e-06 0.00083167 5.4128e-05)
(-1.4282e-06 0.000818235 5.40271e-05)
(-7.84475e-07 0.000800642 5.37862e-05)
(-1.83888e-07 0.000777569 5.32928e-05)
(3.5467e-07 0.000747485 5.24551e-05)
(7.95841e-07 0.000708119 5.10641e-05)
(1.09212e-06 0.000656658 4.88391e-05)
(1.17199e-06 0.000589132 4.52337e-05)
(1.13042e-06 0.000500419 3.96604e-05)
(8.70955e-07 0.000308264 2.69225e-05)
(-9.37363e-07 0.00029062 1.84365e-05)
(-1.63713e-06 0.000471042 2.79974e-05)
(-2.38287e-06 0.000554924 3.23615e-05)
(-3.30504e-06 0.000619091 3.50583e-05)
(-4.12486e-06 0.000668479 3.65556e-05)
(-4.82134e-06 0.000706637 3.73144e-05)
(-5.42468e-06 0.00073635 3.76247e-05)
(-5.92311e-06 0.000759565 3.76281e-05)
(-6.32621e-06 0.000777875 3.74447e-05)
(-6.62325e-06 0.000792333 3.71328e-05)
(-6.81709e-06 0.000803864 3.67649e-05)
(-6.90588e-06 0.000813021 3.63647e-05)
(-6.901e-06 0.000820353 3.59824e-05)
(-6.79626e-06 0.000826125 3.56246e-05)
(-6.60641e-06 0.000830668 3.53288e-05)
(-6.33421e-06 0.000834073 3.50911e-05)
(-5.98953e-06 0.000836535 3.49397e-05)
(-5.58023e-06 0.00083803 3.48618e-05)
(-5.12015e-06 0.000838653 3.4877e-05)
(-4.61724e-06 0.000838285 3.49641e-05)
(-4.08384e-06 0.000836928 3.51341e-05)
(-3.52948e-06 0.00083436 3.53577e-05)
(-2.96331e-06 0.000830466 3.56375e-05)
(-2.39611e-06 0.000824887 3.59356e-05)
(-1.83722e-06 0.00081733 3.6245e-05)
(-1.29841e-06 0.000807213 3.65179e-05)
(-7.87318e-07 0.000793949 3.67331e-05)
(-3.14338e-07 0.000776572 3.68241e-05)
(1.10604e-07 0.000753981 3.67406e-05)
(4.6765e-07 0.000724525 3.6376e-05)
(7.46707e-07 0.00068619 3.56114e-05)
(9.0359e-07 0.000636102 3.42171e-05)
(9.10112e-07 0.000570604 3.18436e-05)
(8.37452e-07 0.00048462 2.80276e-05)
(6.13775e-07 0.000298702 1.89185e-05)
(-3.03858e-07 0.000288207 5.99646e-06)
(-7.07801e-07 0.000467364 9.06569e-06)
(-1.13922e-06 0.000550593 1.06359e-05)
(-1.76464e-06 0.000614247 1.15117e-05)
(-2.38171e-06 0.000663111 1.18081e-05)
(-2.9603e-06 0.000700832 1.17634e-05)
(-3.48131e-06 0.00073005 1.14997e-05)
(-3.94278e-06 0.000752838 1.11008e-05)
(-4.32276e-06 0.000770648 1.06085e-05)
(-4.62133e-06 0.000784671 1.00745e-05)
(-4.8269e-06 0.000795696 9.52413e-06)
(-4.94414e-06 0.000804419 8.99677e-06)
(-4.96834e-06 0.000811253 8.50747e-06)
(-4.90787e-06 0.000816612 8.08731e-06)
(-4.7662e-06 0.000820688 7.744e-06)
(-4.55482e-06 0.000823723 7.5011e-06)
(-4.27825e-06 0.000825772 7.35836e-06)
(-3.95213e-06 0.000826958 7.33126e-06)
(-3.58568e-06 0.000827236 7.41134e-06)
(-3.19185e-06 0.000826634 7.60543e-06)
(-2.78353e-06 0.00082501 7.89678e-06)
(-2.37001e-06 0.000822292 8.2838e-06)
(-1.96399e-06 0.000818218 8.74242e-06)
(-1.57624e-06 0.000812578 9.26368e-06)
(-1.21448e-06 0.000804938 9.81719e-06)
(-8.83329e-07 0.000794862 1.03877e-05)
(-5.90544e-07 0.000781631 1.0939e-05)
(-3.37364e-07 0.00076443 1.14488e-05)
(-1.34879e-07 0.000742036 1.18725e-05)
(2.84258e-08 0.000712963 1.2176e-05)
(1.38471e-07 0.000675094 1.22944e-05)
(1.99382e-07 0.000625737 1.2156e-05)
(2.09135e-07 0.000561178 1.16238e-05)
(2.22392e-07 0.000476549 1.05519e-05)
(1.3178e-07 0.000293599 7.6353e-06)
(2.84247e-07 0.000290277 -5.39554e-06)
(1.45558e-07 0.000471352 -8.97241e-06)
(8.7509e-09 0.000555441 -1.03115e-05)
(-3.30691e-07 0.000619629 -1.13537e-05)
(-7.7087e-07 0.000668839 -1.23069e-05)
(-1.23683e-06 0.000706681 -1.32076e-05)
(-1.69866e-06 0.000735927 -1.40735e-05)
(-2.12493e-06 0.000758583 -1.49202e-05)
(-2.50204e-06 0.000776229 -1.57462e-05)
(-2.8106e-06 0.000789974 -1.65466e-05)
(-3.04514e-06 0.000800731 -1.73033e-05)
(-3.19687e-06 0.000809106 -1.8003e-05)
(-3.27101e-06 0.000815632 -1.86238e-05)
(-3.26329e-06 0.000820627 -1.91523e-05)
(-3.18746e-06 0.000824402 -1.95688e-05)
(-3.04756e-06 0.000827099 -1.98642e-05)
(-2.85567e-06 0.000828886 -2.00254e-05)
(-2.62284e-06 0.000829785 -2.00503e-05)
(-2.362e-06 0.000829862 -1.99338e-05)
(-2.08775e-06 0.000829039 -1.96826e-05)
(-1.8123e-06 0.000827281 -1.92996e-05)
(-1.54861e-06 0.000824406 -1.87995e-05)
(-1.30418e-06 0.000820261 -1.81922e-05)
(-1.09194e-06 0.00081452 -1.74979e-05)
(-9.16883e-07 0.000806854 -1.67305e-05)
(-7.84461e-07 0.000796714 -1.59109e-05)
(-6.91584e-07 0.000783478 -1.50519e-05)
(-6.39794e-07 0.000766217 -1.4168e-05)
(-6.20733e-07 0.000743802 -1.32611e-05)
(-6.2803e-07 0.000714634 -1.2326e-05)
(-6.38616e-07 0.00067668 -1.13362e-05)
(-6.33919e-07 0.000627137 -1.02347e-05)
(-5.66867e-07 0.000562358 -8.90961e-06)
(-4.26783e-07 0.000477375 -7.19078e-06)
(-3.7103e-07 0.000293703 -3.60863e-06)
(6.91136e-07 0.000296493 -1.37521e-05)
(7.09413e-07 0.000482221 -2.24297e-05)
(7.94932e-07 0.000568395 -2.60507e-05)
(6.57729e-07 0.000634103 -2.86148e-05)
(3.58102e-07 0.000684337 -3.0576e-05)
(-2.48569e-08 0.000722887 -3.21718e-05)
(-4.29912e-07 0.000752536 -3.35403e-05)
(-8.28263e-07 0.000775428 -3.47603e-05)
(-1.19022e-06 0.000793117 -3.58757e-05)
(-1.50271e-06 0.000806831 -3.69038e-05)
(-1.74883e-06 0.000817436 -3.78474e-05)
(-1.92616e-06 0.000825643 -3.86986e-05)
(-2.02792e-06 0.00083193 -3.94457e-05)
(-2.06127e-06 0.000836709 -4.00741e-05)
(-2.03037e-06 0.000840226 -4.05701e-05)
(-1.94305e-06 0.000842713 -4.0921e-05)
(-1.81254e-06 0.000844269 -4.1118e-05)
(-1.64893e-06 0.000845 -4.11548e-05)
(-1.46773e-06 0.000844894 -4.10304e-05)
(-1.28314e-06 0.000843955 -4.07467e-05)
(-1.10664e-06 0.000842068 -4.03108e-05)
(-9.51316e-07 0.000839125 -3.97324e-05)
(-8.28798e-07 0.000834887 -3.90247e-05)
(-7.45499e-07 0.000829099 -3.82021e-05)
(-7.0722e-07 0.000821339 -3.7279e-05)
(-7.1462e-07 0.000811121 -3.62677e-05)
(-7.68292e-07 0.000797726 -3.51744e-05)
(-8.56143e-07 0.000780275 -3.39955e-05)
(-9.71307e-07 0.000757531 -3.27106e-05)
(-1.08773e-06 0.000727928 -3.12733e-05)
(-1.18591e-06 0.000689306 -2.95968e-05)
(-1.21248e-06 0.000638865 -2.75165e-05)
(-1.1031e-06 0.000572796 -2.47411e-05)
(-8.56144e-07 0.000486079 -2.08509e-05)
(-7.26557e-07 0.000298558 -1.22112e-05)
(8.46484e-07 0.00030557 -1.8084e-05)
(9.01463e-07 0.000497372 -2.92139e-05)
(1.08797e-06 0.000586321 -3.39567e-05)
(1.05338e-06 0.000654035 -3.72753e-05)
(8.27993e-07 0.000705717 -3.97382e-05)
(5.09663e-07 0.000745257 -4.16833e-05)
(1.55146e-07 0.000775586 -4.33088e-05)
(-2.01033e-07 0.000798883 -4.47241e-05)
(-5.3261e-07 0.000816814 -4.59937e-05)
(-8.17766e-07 0.000830604 -4.71467e-05)
(-1.04719e-06 0.000841212 -4.81945e-05)
(-1.21074e-06 0.000849328 -4.91332e-05)
(-1.3081e-06 0.000855506 -4.99544e-05)
(-1.33983e-06 0.000860125 -5.06441e-05)
(-1.31591e-06 0.000863501 -5.11902e-05)
(-1.2411e-06 0.000865824 -5.15793e-05)
(-1.12742e-06 0.000867253 -5.18035e-05)
(-9.91689e-07 0.000867848 -5.18554e-05)
(-8.4431e-07 0.000867653 -5.17347e-05)
(-6.98142e-07 0.00086662 -5.14423e-05)
(-5.67116e-07 0.000864681 -5.09862e-05)
(-4.65576e-07 0.000861673 -5.03746e-05)
(-4.02026e-07 0.000857398 -4.96215e-05)
(-3.83571e-07 0.000851539 -4.8739e-05)
(-4.13801e-07 0.000843707 -4.77419e-05)
(-4.97307e-07 0.000833344 -4.66378e-05)
(-6.24551e-07 0.000819754 -4.54306e-05)
(-7.89087e-07 0.000801975 -4.41075e-05)
(-9.70801e-07 0.000778771 -4.26382e-05)
(-1.15338e-06 0.000748473 -4.09564e-05)
(-1.30178e-06 0.000708891 -3.89477e-05)
(-1.36236e-06 0.000657087 -3.63964e-05)
(-1.25474e-06 0.000589159 -3.29288e-05)
(-9.75954e-07 0.000499891 -2.80033e-05)
(-8.56583e-07 0.000306788 -1.69127e-05)
(7.77687e-07 0.000315829 -1.84527e-05)
(7.72407e-07 0.000513781 -2.92663e-05)
(9.51954e-07 0.000605532 -3.391e-05)
(9.18775e-07 0.000675312 -3.71748e-05)
(7.20658e-07 0.00072847 -3.96032e-05)
(4.3727e-07 0.000769066 -4.15306e-05)
(1.27799e-07 0.000800104 -4.3147e-05)
(-1.80973e-07 0.000823874 -4.4562e-05)
(-4.63275e-07 0.000842075 -4.58343e-05)
(-7.00109e-07 0.000856014 -4.69948e-05)
(-8.79816e-07 0.000866654 -4.80509e-05)
(-9.99785e-07 0.00087475 -4.90008e-05)
(-1.05593e-06 0.000880847 -4.98328e-05)
(-1.05239e-06 0.000885377 -5.05353e-05)
(-9.93146e-07 0.000888638 -5.10928e-05)
(-8.91056e-07 0.000890863 -5.14948e-05)
(-7.55728e-07 0.000892188 -5.173e-05)
(-5.98148e-07 0.000892711 -5.17938e-05)
(-4.32666e-07 0.000892445 -5.16829e-05)
(-2.76658e-07 0.000891373 -5.14011e-05)
(-1.38956e-07 0.000889395 -5.09528e-05)
(-3.14784e-08 0.00088637 -5.035e-05)
(3.18791e-08 0.000882061 -4.96031e-05)
(4.76193e-08 0.000876167 -4.87281e-05)
(9.31447e-09 0.000868254 -4.77359e-05)
(-8.01863e-08 0.000857771 -4.66391e-05)
(-2.20372e-07 0.000843962 -4.54384e-05)
(-3.98013e-07 0.000825859 -4.4126e-05)
(-6.02992e-07 0.000802152 -4.26701e-05)
(-8.07927e-07 0.000771138 -4.10107e-05)
(-9.88337e-07 0.000730524 -3.90355e-05)
(-1.0898e-06 0.000677299 -3.65426e-05)
(-1.04108e-06 0.000607399 -3.31726e-05)
(-8.08333e-07 0.000515469 -2.84026e-05)
(-7.76139e-07 0.000316507 -1.7611e-05)
(5.45181e-07 0.000325533 -1.58655e-05)
(4.26048e-07 0.000528531 -2.41651e-05)
(5.12202e-07 0.000622597 -2.77409e-05)
(4.12307e-07 0.000694072 -3.03032e-05)
(1.98987e-07 0.00074846 -3.22683e-05)
(-6.32006e-08 0.000789918 -3.38774e-05)
(-3.35564e-07 0.000821552 -3.52701e-05)
(-5.90059e-07 0.000845701 -3.65213e-05)
(-8.08987e-07 0.000864133 -3.76734e-05)
(-9.78862e-07 0.000878179 -3.87409e-05)
(-1.09019e-06 0.000888854 -3.97265e-05)
(-1.14013e-06 0.000896919 -4.06205e-05)
(-1.12815e-06 0.00090296 -4.14109e-05)
(-1.05803e-06 0.000907405 -4.20814e-05)
(-9.37928e-07 0.000910585 -4.26184e-05)
(-7.74455e-07 0.000912725 -4.30075e-05)
(-5.82567e-07 0.000913986 -4.32402e-05)
(-3.72603e-07 0.000914451 -4.33087e-05)
(-1.56833e-07 0.000914155 -4.32123e-05)
(4.93725e-08 0.00091306 -4.29519e-05)
(2.33215e-07 0.000911083 -4.25351e-05)
(3.848e-07 0.000908057 -4.19707e-05)
(4.922e-07 0.000903757 -4.12733e-05)
(5.50186e-07 0.00089785 -4.04559e-05)
(5.5272e-07 0.000889906 -3.95356e-05)
(4.96467e-07 0.000879336 -3.85234e-05)
(3.88679e-07 0.000865377 -3.74292e-05)
(2.33178e-07 0.000847012 -3.62498e-05)
(4.57536e-08 0.000822908 -3.49696e-05)
(-1.59459e-07 0.000791297 -3.35458e-05)
(-3.59594e-07 0.000749835 -3.19014e-05)
(-5.14757e-07 0.000695416 -2.98882e-05)
(-5.62801e-07 0.00062388 -2.72486e-05)
(-4.43475e-07 0.00052972 -2.35795e-05)
(-5.42256e-07 0.000325885 -1.52819e-05)
(2.38096e-07 0.000333378 -1.16438e-05)
(-7.76754e-09 0.000539628 -1.61551e-05)
(-5.76022e-08 0.000635184 -1.80948e-05)
(-2.58847e-07 0.000707754 -1.95732e-05)
(-5.08663e-07 0.00076292 -2.08166e-05)
(-7.64403e-07 0.000804922 -2.19268e-05)
(-9.98761e-07 0.000836907 -2.29605e-05)
(-1.20072e-06 0.000861272 -2.39469e-05)
(-1.35565e-06 0.000879808 -2.48962e-05)
(-1.45201e-06 0.000893886 -2.5806e-05)
(-1.48609e-06 0.000904532 -2.66651e-05)
(-1.45957e-06 0.000912539 -2.74581e-05)
(-1.36939e-06 0.000918496 -2.81671e-05)
(-1.22302e-06 0.000922857 -2.8775e-05)
(-1.02819e-06 0.000925949 -2.92649e-05)
(-7.92446e-07 0.000928018 -2.96237e-05)
(-5.29434e-07 0.000929217 -2.98402e-05)
(-2.50729e-07 0.000929647 -2.99087e-05)
(3.25532e-08 0.00092933 -2.98261e-05)
(3.05001e-07 0.000928242 -2.95956e-05)
(5.541e-07 0.000926282 -2.92227e-05)
(7.71105e-07 0.000923294 -2.87186e-05)
(9.4247e-07 0.00091903 -2.80963e-05)
(1.06221e-06 0.000913164 -2.73727e-05)
(1.12498e-06 0.000905239 -2.65648e-05)
(1.12768e-06 0.000894664 -2.56904e-05)
(1.07213e-06 0.000880647 -2.47642e-05)
(9.62814e-07 0.00086216 -2.37973e-05)
(8.06369e-07 0.00083783 -2.27914e-05)
(6.13433e-07 0.000805867 -2.17356e-05)
(3.99812e-07 0.000763872 -2.05988e-05)
(1.8993e-07 0.000708697 -1.93184e-05)
(2.30035e-08 0.000636102 -1.77798e-05)
(-4.21369e-09 0.000540505 -1.57665e-05)
(-2.38759e-07 0.000333528 -1.12435e-05)
(-6.54384e-08 0.000338636 -7.09167e-06)
(-4.23085e-07 0.000546126 -7.49568e-06)
(-6.18461e-07 0.000642257 -7.65104e-06)
(-9.23142e-07 0.000715232 -7.94058e-06)
(-1.21459e-06 0.000770673 -8.38808e-06)
(-1.46794e-06 0.000812834 -8.94289e-06)
(-1.67478e-06 0.000844897 -9.57397e-06)
(-1.83005e-06 0.000869268 -1.02582e-05)
(-1.92282e-06 0.000887763 -1.0973e-05)
(-1.95138e-06 0.000901759 -1.16947e-05)
(-1.91359e-06 0.000912306 -1.23938e-05)