/*--------------------------------*- C++ -*----------------------------------*\
| =========                 |                                                 |
| \\      /  F ield         | OpenFOAM: The Open Source CFD Toolbox           |
|  \\    /   O peration     | Version:  v2006                                 |
|   \\  /    A nd           | Website:  www.openfoam.com                      |
|    \\/     M anipulation  |                                                 |
\*---------------------------------------------------------------------------*/
FoamFile
{
    version     2.0;
    format      ascii;
    class       volScalarField;
    location    "98";
    object      nut;
}
// * * * * * * * * * * * * * * * * * * * * * * * * * * * * * * * * * * * * * //

dimensions      [0 2 -1 0 0 0 0];


internalField   nonuniform List<scalar> 
78750
(
2.01058e-07
2.01419e-07
2.22138e-06
2.62196e-06
4.51234e-06
5.91748e-06
6.70343e-06
7.96607e-06
8.78302e-06
9.95901e-06
1.07533e-05
1.14199e-05
1.18159e-05
1.20405e-05
1.21372e-05
1.21957e-05
1.23005e-05
1.24679e-05
1.26208e-05
1.29424e-05
1.30643e-05
1.37144e-05
1.38492e-05
1.47642e-05
1.47703e-05
1.60632e-05
1.65019e-05
1.86263e-05
2.02346e-05
2.30868e-05
2.66594e-05
2.90926e-05
3.02166e-05
3.0835e-05
2.15708e-06
5.01507e-06
7.79926e-06
7.46239e-05
4.57538e-05
3.48203e-05
3.93384e-05
3.95931e-05
3.25998e-05
3.29506e-05
3.65792e-05
3.40341e-05
3.20914e-05
2.97294e-05
2.85001e-05
2.8327e-05
2.88254e-05
2.9505e-05
3.04629e-05
3.1606e-05
3.2752e-05
3.36309e-05
3.43827e-05
3.51559e-05
3.609e-05
3.73344e-05
3.84954e-05
4.03069e-05
4.19594e-05
4.42709e-05
4.57719e-05
4.74691e-05
4.72692e-05
4.51505e-05
4.68261e-05
8.67679e-06
1.53898e-05
1.30317e-05
1.57657e-05
1.20076e-05
1.42585e-05
9.41875e-06
1.0807e-05
1.13742e-05
1.18451e-05
1.92502e-05
2.06307e-05
1.73649e-05
2.14786e-05
1.93437e-05
1.59777e-05
1.61807e-05
1.85549e-05
2.19817e-05
2.57362e-05
2.97692e-05
3.37685e-05
3.72248e-05
3.95406e-05
4.11381e-05
4.23053e-05
4.32234e-05
4.44195e-05
4.47257e-05
4.57277e-05
4.55743e-05
4.73812e-05
4.31074e-05
4.40542e-05
7.92727e-05
6.8966e-06
1.90914e-05
8.24896e-06
8.24447e-06
1.00664e-05
1.88156e-05
2.87046e-05
2.26326e-05
2.7061e-05
2.09163e-05
1.50261e-05
1.56776e-05
2.28156e-05
3.79289e-05
4.09329e-05
3.2052e-05
2.95542e-05
3.12586e-05
3.49331e-05
4.44607e-05
6.35768e-05
6.7282e-05
5.81504e-05
4.96066e-05
4.32967e-05
3.85379e-05
3.56954e-05
3.46606e-05
3.43396e-05
3.47744e-05
3.23334e-05
3.04855e-05
3.01237e-05
2.93108e-05
3.58084e-05
8.07535e-06
1.45003e-05
1.19365e-05
5.2584e-06
4.4807e-06
5.70036e-06
4.4334e-06
7.28281e-06
1.42363e-05
2.24935e-05
3.40253e-05
4.37213e-05
4.85122e-05
5.05225e-05
5.19513e-05
5.37915e-05
5.6868e-05
6.19631e-05
6.65794e-05
6.73499e-05
6.35971e-05
5.61898e-05
4.74914e-05
3.94222e-05
3.24512e-05
2.63984e-05
2.19512e-05
1.95114e-05
1.82581e-05
1.78835e-05
1.74103e-05
1.82049e-05
1.4127e-05
1.59971e-05
4.43769e-05
1.09651e-05
1.23707e-05
1.89334e-05
8.46734e-06
2.18353e-05
5.0675e-05
7.64992e-05
4.1496e-05
1.61157e-05
1.10841e-05
1.44172e-05
2.17661e-05
3.11296e-05
4.17834e-05
5.3628e-05
6.68322e-05
8.30451e-05
0.000100957
0.000106286
9.22653e-05
7.77165e-05
7.1845e-05
7.32261e-05
7.69932e-05
7.22191e-05
5.03345e-05
2.96183e-05
2.04e-05
1.69709e-05
1.47211e-05
1.30837e-05
1.45954e-05
1.93523e-05
3.75199e-05
8.70028e-05
1.28331e-05
1.00937e-05
4.0088e-06
5.38137e-06
2.51471e-05
6.58403e-05
4.18796e-05
1.67052e-05
6.99774e-06
4.18647e-06
6.10797e-06
1.36554e-05
2.84113e-05
4.64341e-05
6.05149e-05
7.09422e-05
8.03279e-05
8.9201e-05
9.53247e-05
9.58858e-05
9.21677e-05
8.79696e-05
8.56072e-05
8.57414e-05
8.74009e-05
7.91743e-05
4.41428e-05
2.18129e-05
1.46586e-05
1.20436e-05
1.02404e-05
1.16183e-05
2.33936e-05
6.5541e-05
8.73247e-05
1.24554e-05
5.05926e-06
1.05409e-05
3.58649e-05
8.47447e-05
0.00010522
0.000106724
9.20273e-05
5.87599e-05
2.50772e-05
9.30965e-06
2.73303e-06
2.79908e-06
9.90384e-06
2.55652e-05
4.6305e-05
6.35403e-05
7.32544e-05
7.58068e-05
7.45196e-05
7.25034e-05
7.09691e-05
6.98699e-05
6.8787e-05
6.72737e-05
6.41998e-05
5.3605e-05
3.33353e-05
2.00127e-05
1.49615e-05
1.26238e-05
1.17034e-05
2.01985e-05
6.35602e-05
7.53914e-05
1.03056e-05
4.14799e-06
1.70076e-05
4.45375e-05
8.42859e-05
0.000109233
0.000110708
9.34752e-05
5.61306e-05
2.79769e-05
1.42567e-05
5.91139e-06
4.91504e-07
5.50548e-07
8.94952e-06
2.90823e-05
5.39324e-05
7.04092e-05
8.03177e-05
8.59516e-05
8.74822e-05
8.68761e-05
8.59551e-05
8.49769e-05
8.3199e-05
7.94511e-05
7.07706e-05
5.18476e-05
3.06769e-05
1.97497e-05
1.61884e-05
1.47149e-05
1.8002e-05
4.63405e-05
7.48247e-05
8.40468e-06
6.11273e-06
3.48042e-05
0.000121771
0.000185734
0.000198336
0.000195467
0.000154682
7.77204e-05
3.54932e-05
1.85228e-05
9.50567e-06
2.23916e-06
2.6995e-07
1.5504e-06
8.15317e-06
3.11943e-05
6.15403e-05
7.74241e-05
8.33889e-05
8.6117e-05
8.74657e-05
8.80262e-05
8.81336e-05
8.74808e-05
8.50769e-05
7.90905e-05
6.55307e-05
4.29917e-05
2.46714e-05
1.7083e-05
1.67203e-05
2.33794e-05
5.14567e-05
6.18628e-05
7.53997e-06
6.91728e-06
3.66417e-05
0.000119706
0.00016373
0.0001742
0.000173027
0.00015903
0.00011996
6.86027e-05
3.77108e-05
2.30073e-05
1.455e-05
8.00124e-06
3.09875e-06
1.96899e-06
2.95425e-07
7.8471e-06
2.62383e-05
4.73919e-05
5.96712e-05
6.59305e-05
6.98194e-05
7.22112e-05
7.33404e-05
7.31681e-05
7.11771e-05
6.58847e-05
5.38047e-05
3.48405e-05
2.03076e-05
1.51897e-05
1.91579e-05
4.08001e-05
5.81952e-05
7.25322e-06
6.71673e-06
3.59087e-05
0.000112227
0.000171516
0.000186432
0.000184341
0.000176752
0.000168924
0.000149786
0.000102606
5.79798e-05
3.36466e-05
2.09746e-05
1.35373e-05
8.45986e-06
4.05702e-06
3.09401e-07
2.59645e-06
8.08091e-06
2.54214e-05
4.13424e-05
5.3085e-05
6.1015e-05
6.59289e-05
6.85684e-05
6.91093e-05
6.68784e-05
5.98536e-05
4.53158e-05
2.80076e-05
1.77974e-05
1.66969e-05
3.11377e-05
6.37335e-05
7.30708e-06
5.66821e-06
2.63881e-05
9.74737e-05
0.000169195
0.000185259
0.000181638
0.000167209
0.000149878
0.00013966
0.000137477
0.000123953
8.18159e-05
4.40566e-05
2.51071e-05
1.70121e-05
1.37069e-05
1.13709e-05
8.05373e-06
4.77759e-06
5.64446e-06
1.65512e-05
3.09343e-05
4.36521e-05
5.41544e-05
6.11134e-05
6.45815e-05
6.48219e-05
6.02196e-05
4.58143e-05
2.58036e-05
1.60179e-05
1.68016e-05
3.347e-05
5.9302e-05
7.51183e-06
6.25939e-06
3.36852e-05
0.000122423
0.00019052
0.000199169
0.000188326
0.000164395
0.000134032
0.000109537
9.92851e-05
0.000102447
0.000102487
6.99359e-05
3.44268e-05
1.9014e-05
1.44419e-05
1.42844e-05
1.42026e-05
1.157e-05
8.29877e-06
8.8985e-06
1.89356e-05
3.10236e-05
4.19184e-05
5.1918e-05
5.8696e-05
6.10651e-05
5.83642e-05
4.69178e-05
2.67243e-05
1.46549e-05
1.56885e-05
3.42129e-05
5.45832e-05
7.57622e-06
7.78726e-06
5.4732e-05
0.00016226
0.000201886
0.000211567
0.000209411
0.000196949
0.000173002
0.00013895
0.000106774
8.69404e-05
7.63956e-05
6.27996e-05
3.95938e-05
2.14186e-05
1.40553e-05
1.36303e-05
1.56467e-05
1.57471e-05
1.29887e-05
1.04483e-05
1.19357e-05
2.05366e-05
3.13216e-05
4.08395e-05
4.79466e-05
5.09586e-05
4.97389e-05
4.48285e-05
3.34507e-05
1.72004e-05
1.25659e-05
2.38918e-05
6.1354e-05
7.72126e-06
8.10785e-06
5.57435e-05
0.000162497
0.000202312
0.000205633
0.000191222
0.000168868
0.000150056
0.000138909
0.000130602
0.000119492
0.000106105
9.02709e-05
6.61954e-05
3.84021e-05
2.08251e-05
1.41218e-05
1.40112e-05
1.59554e-05
1.5953e-05
1.38148e-05
1.25374e-05
1.56343e-05
2.39072e-05
3.28078e-05
4.06801e-05
4.54304e-05
4.49337e-05
3.76718e-05
2.59271e-05
1.55803e-05
1.12377e-05
2.21501e-05
7.18523e-05
8.2408e-06
7.81764e-06
4.86379e-05
0.000156246
0.000195542
0.000193511
0.000172136
0.00014408
0.000124345
0.000118811
0.000124689
0.000134007
0.000137956
0.000133936
0.000120599
9.09063e-05
5.30691e-05
2.83622e-05
1.72847e-05
1.40381e-05
1.45851e-05
1.54111e-05
1.52104e-05
1.63428e-05
2.15099e-05
2.70725e-05
3.13961e-05
3.55392e-05
3.37586e-05
2.30538e-05
1.47747e-05
1.39203e-05
1.9704e-05
4.78732e-05
5.13461e-05
8.29604e-06
7.92968e-06
4.95059e-05
0.000159315
0.000196257
0.00019075
0.000167452
0.000138604
0.000116589
0.000106624
0.000108599
0.000120257
0.000136385
0.000149691
0.000156973
0.000156917
0.000136761
8.85026e-05
4.6747e-05
2.5642e-05
1.63811e-05
1.31358e-05
1.28963e-05
1.32529e-05
1.48014e-05
2.10898e-05
2.89221e-05
3.11341e-05
2.90655e-05
2.19115e-05
1.41971e-05
1.20549e-05
1.97915e-05
5.65851e-05
4.02674e-05
7.74527e-06
8.5557e-06
5.78652e-05
0.00017494
0.000202217
0.000189431
0.00016322
0.000138585
0.000123561
0.000117498
0.000117516
0.000122449
0.000131552
0.000141322
0.000146131
0.000144445
0.000141214
0.000137365
0.000118815
7.86422e-05
4.38204e-05
2.48921e-05
1.56518e-05
1.18888e-05
1.14961e-05
1.15793e-05
1.28115e-05
1.84185e-05
2.44559e-05
2.35315e-05
1.63783e-05
1.00346e-05
1.18438e-05
2.90048e-05
5.10455e-05
7.78057e-06
9.0004e-06
6.57602e-05
0.000175775
0.000189477
0.000174855
0.000150426
0.000128643
0.000117406
0.000116989
0.000123552
0.000132187
0.000139702
0.000145607
0.000149412
0.000148103
0.000138447
0.000122937
0.000109092
0.000100487
9.08906e-05
6.94654e-05
4.23906e-05
2.3896e-05
1.41386e-05
9.56503e-06
8.67012e-06
7.22172e-06
8.42996e-06
1.63164e-05
2.08544e-05
1.00086e-05
4.8569e-06
1.41388e-05
7.22654e-05
8.1984e-06
8.92124e-06
6.72949e-05
0.000169894
0.000184587
0.00018048
0.000168293
0.000150637
0.000132355
0.000119965
0.000116503
0.000120533
0.000127342
0.000130898
0.000128222
0.000122395
0.000118883
0.000117838
0.000110061
9.10986e-05
7.5385e-05
7.18493e-05
7.38398e-05
6.15294e-05
3.72311e-05
2.0964e-05
1.06038e-05
5.3833e-06
4.81378e-06
7.18721e-07
6.94248e-06
1.076e-05
1.0437e-05
2.29872e-05
7.39717e-05
8.75941e-06
8.10015e-06
5.51647e-05
0.000158324
0.000186539
0.000191939
0.000188435
0.000176615
0.000156745
0.00013477
0.000119513
0.000114588
0.00011787
0.000122484
0.000117687
0.000100039
8.22409e-05
7.5704e-05
8.06083e-05
8.66396e-05
7.93656e-05
6.69775e-05
6.27979e-05
6.19434e-05
4.94249e-05
3.00741e-05
1.62146e-05
6.99952e-06
2.67226e-06
6.48746e-06
1.18651e-05
2.31756e-05
5.30341e-05
0.000102251
3.73709e-05
8.23658e-06
7.84414e-06
5.32289e-05
0.000156081
0.000190475
0.000197016
0.000193524
0.000182484
0.000164883
0.000143451
0.000123711
0.000109879
0.000101593
9.47249e-05
8.46695e-05
7.19301e-05
6.18353e-05
5.68806e-05
5.60735e-05
5.85012e-05
6.26329e-05
6.46285e-05
6.12796e-05
5.31662e-05
4.25113e-05
3.18898e-05
2.34516e-05
1.71822e-05
1.10723e-05
5.47028e-06
8.25202e-06
1.39308e-05
2.60826e-05
5.71954e-05
3.92559e-05
7.1335e-06
8.04783e-06
5.63755e-05
0.000163848
0.000196463
0.000198929
0.000190571
0.000176358
0.000158672
0.000138846
0.000118562
0.000100225
8.55986e-05
7.49933e-05
6.88058e-05
6.89384e-05
7.46326e-05
7.51438e-05
6.43177e-05
5.26168e-05
4.61376e-05
4.29049e-05
3.95077e-05
3.46743e-05
2.90905e-05
2.40768e-05
2.06462e-05
2.02433e-05
2.22411e-05
1.47315e-05
3.05288e-06
2.90248e-06
3.32985e-06
1.37186e-05
6.12713e-05
8.1456e-06
8.0149e-06
5.39465e-05
0.000171736
0.00021487
0.000217528
0.000207836
0.00019419
0.000180316
0.000166044
0.000149042
0.000128492
0.000108025
9.25693e-05
8.44851e-05
8.45506e-05
9.20933e-05
0.000100484
9.54823e-05
7.51074e-05
5.63515e-05
4.7551e-05
4.55955e-05
4.47679e-05
4.0167e-05
3.10003e-05
2.0193e-05
1.3007e-05
1.45334e-05
2.29054e-05
2.32998e-05
8.22283e-06
4.97725e-06
1.9267e-05
7.5304e-05
9.15499e-06
7.99409e-06
5.06137e-05
0.000161381
0.000210697
0.000216947
0.000209268
0.000195088
0.000181624
0.000175433
0.000179008
0.000187428
0.00018501
0.000154213
0.000108766
8.04942e-05
7.49732e-05
8.63493e-05
0.000104228
0.000110753
9.87989e-05
8.17196e-05
7.21992e-05
7.15323e-05
6.98912e-05
5.33369e-05
2.54829e-05
1.17033e-05
1.15443e-05
2.11256e-05
3.22601e-05
2.14311e-05
1.92858e-05
4.77745e-05
5.53377e-05
8.71159e-06
8.36077e-06
5.6333e-05
0.000170593
0.000210589
0.000215347
0.000206242
0.000187825
0.000165875
0.000147732
0.000138764
0.000140016
0.000146271
0.000142807
0.000115751
8.1985e-05
6.71151e-05
7.75638e-05
0.000120119
0.000188076
0.000202882
0.000128347
6.55252e-05
4.0905e-05
4.03907e-05
3.80146e-05
2.28604e-05
1.38043e-05
1.39426e-05
2.3432e-05
4.19298e-05
4.41171e-05
4.78776e-05
8.78226e-05
4.1532e-05
7.82845e-06
8.55723e-06
5.93849e-05
0.00017565
0.000213946
0.00021432
0.000199722
0.000179923
0.000162301
0.000148859
0.000138887
0.000133289
0.000134289
0.00014109
0.000144292
0.000127712
9.64386e-05
7.63445e-05
7.6659e-05
9.75778e-05
0.000133524
0.000151531
0.000112864
5.60702e-05
2.65012e-05
1.74967e-05
1.50268e-05
1.07266e-05
1.04684e-05
1.58064e-05
2.94344e-05
5.6176e-05
8.6621e-05
9.53778e-05
3.43161e-05
7.18312e-06
8.49449e-06
5.68975e-05
0.000179804
0.000217404
0.000206182
0.000178385
0.000152626
0.000138547
0.00013533
0.000137612
0.000139108
0.000135916
0.000128887
0.000121774
0.000117067
0.000113658
0.000109257
0.000106841
0.000113239
0.000131383
0.000153827
0.000156313
0.000115974
5.99834e-05
2.99912e-05
2.28081e-05
1.99341e-05
1.16378e-05
9.43855e-06
1.35492e-05
2.55662e-05
5.50754e-05
8.67587e-05
3.66614e-05
7.13189e-06
8.65328e-06
5.57497e-05
0.000176236
0.00020478
0.000180977
0.000145449
0.00012146
0.000113233
0.000117097
0.0001292
0.00014524
0.000159511
0.000166324
0.00016226
0.00014825
0.000130768
0.000118054
0.000115204
0.000124341
0.000145697
0.00017388
0.000189789
0.000164838
9.79569e-05
3.86229e-05
1.32571e-05
1.44306e-05
2.54625e-05
2.1344e-05
1.35098e-05
1.33631e-05
2.29739e-05
5.26441e-05
4.38047e-05
7.77989e-06
9.15192e-06
6.35953e-05
0.00018095
0.000185113
0.0001463
0.000112814
9.97275e-05
0.000101661
0.000112751
0.000130058
0.00015157
0.000173404
0.000189466
0.000194422
0.000186679
0.000169246
0.000149226
0.000135044
0.000132641
0.000144395
0.00016764
0.000188282
0.000182195
0.000139098
7.87101e-05
3.42971e-05
1.49234e-05
1.52625e-05
2.4268e-05
2.34329e-05
1.49009e-05
1.64799e-05
4.01876e-05
4.71425e-05
8.23117e-06
9.26015e-06
6.9977e-05
0.000180911
0.000156667
0.000110111
8.72531e-05
8.79641e-05
0.000103537
0.000125796
0.000148383
0.000169081
0.000187673
0.000202362
0.000209401
0.000206096
0.000193936
0.000178201
0.000164584
0.000156777
0.00015613
0.000161611
0.000169582
0.00017427
0.000169242
0.000148356
0.000109222
6.42461e-05
3.43382e-05
2.50431e-05
2.54804e-05
2.09355e-05
1.95789e-05
4.15577e-05
5.13253e-05
8.25283e-06
8.80182e-06
6.20561e-05
0.000165363
0.000135592
9.01457e-05
7.22855e-05
7.78824e-05
0.000100317
0.000131745
0.000161754
0.000184012
0.000198507
0.000207624
0.000212563
0.000212838
0.000207996
0.000199368
0.000189869
0.000182055
0.000176794
0.00017376
0.000172821
0.00017412
0.000175685
0.000170585
0.000149292
0.000108865
6.18857e-05
3.21335e-05
2.35037e-05
2.33571e-05
2.61745e-05
4.86407e-05
5.80823e-05
8.05435e-06
8.57108e-06
5.48233e-05
0.000148833
0.000135985
9.28101e-05
6.72355e-05
6.43932e-05
7.86931e-05
0.000105804
0.000139016
0.000170206
0.000193814
0.000208424
0.000215696
0.000218522
0.000219399
0.000219393
0.000217951
0.000213749
0.00020614
0.00019568
0.00018285
0.000166941
0.000148021
0.00012918
0.00011285
9.51947e-05
6.62753e-05
3.3481e-05
1.84651e-05
1.79782e-05
2.42025e-05
4.68391e-05
5.78703e-05
8.28296e-06
8.22737e-06
4.69156e-05
0.000133728
0.000142601
0.000106791
6.91155e-05
5.3517e-05
5.60301e-05
7.28115e-05
0.000101082
0.000135826
0.000170649
0.000200415
0.000222655
0.000237669
0.000247381
0.000253033
0.000253279
0.000244768
0.000225127
0.000196038
0.000164729
0.00014051
0.000126474
0.000116785
0.000101381
7.59426e-05
4.83132e-05
2.61594e-05
1.6358e-05
1.74137e-05
2.81265e-05
6.3647e-05
6.03739e-05
9.10358e-06
8.08446e-06
4.27875e-05
0.000130936
0.000151632
0.000117145
7.79468e-05
5.61554e-05
4.94119e-05
5.48945e-05
7.21932e-05
0.000100005
0.000134206
0.000170016
0.000204383
0.000235824
0.000262479
0.000279466
0.000278314
0.000252239
0.00020531
0.000155682
0.000122625
0.000109832
0.000106809
9.5704e-05
6.85449e-05
4.18289e-05
2.93465e-05
2.73041e-05
2.96134e-05
3.72225e-05
6.01773e-05
0.000107324
4.56395e-05
8.97604e-06
8.50332e-06
4.59291e-05
0.000144027
0.000144848
9.55144e-05
7.10717e-05
6.5069e-05
6.35011e-05
6.33728e-05
6.95374e-05
8.52379e-05
0.000110108
0.000141386
0.000176162
0.000212186
0.00024593
0.000269417
0.000270012
0.000238714
0.00018345
0.000130324
0.000101165
9.561e-05
9.71361e-05
8.36461e-05
5.55243e-05
3.41472e-05
2.82661e-05
3.31982e-05
4.35214e-05
6.18617e-05
9.32095e-05
0.000111206
3.87329e-05
8.3455e-06
9.2849e-06
5.77129e-05
0.000155177
0.000104225
6.20249e-05
5.47236e-05
6.73669e-05
9.01201e-05
0.0001057
0.000106659
0.000104524
0.000107992
0.000118897
0.000136986
0.000161987
0.000192469
0.000222225
0.000237442
0.00022162
0.000171788
0.000111075
7.1552e-05
6.33543e-05
7.76953e-05
8.6382e-05
6.61357e-05
4.07121e-05
3.11079e-05
3.7221e-05
5.15291e-05
7.1661e-05
0.000100658
0.000110131
3.91858e-05
8.26001e-06
9.58922e-06
7.12202e-05
0.000131793
6.68646e-05
4.56679e-05
5.26771e-05
8.0702e-05
0.000123949
0.000164104
0.000180768
0.000170713
0.000148319
0.000128718
0.000118646
0.000120525
0.000135648
0.000162144
0.000189535
0.000197676
0.000169751
0.000113736
6.39173e-05
4.35583e-05
5.35975e-05
8.73874e-05
9.16604e-05
5.7784e-05
3.41896e-05
3.20638e-05
4.71971e-05
7.45681e-05
0.000104471
0.000109635
3.88852e-05
8.49828e-06
9.37889e-06
7.07008e-05
0.000111076
5.6363e-05
4.43605e-05
5.90687e-05
9.17348e-05
0.000127509
0.000161132
0.000192972
0.000217793
0.000222697
0.000197768
0.000155098
0.000119763
0.000104541
0.000111351
0.00013625
0.000160834
0.000157001
0.00011828
7.00303e-05
4.08799e-05
3.73298e-05
6.10602e-05
9.73525e-05
7.89309e-05
4.38948e-05
3.24863e-05
4.43309e-05
7.74961e-05
0.00010716
9.82663e-05
3.32246e-05
8.04112e-06
9.14561e-06
6.15257e-05
0.000114829
6.47512e-05
4.43925e-05
4.97174e-05
7.15845e-05
0.000100239
0.000129021
0.000158464
0.000191082
0.000225328
0.000250124
0.000242735
0.000191031
0.000129723
9.53531e-05
9.15024e-05
0.000110017
0.000126753
0.000114419
7.89543e-05
4.64712e-05
3.13413e-05
3.32875e-05
4.97933e-05
6.45043e-05
5.34931e-05
4.1432e-05
4.93793e-05
8.15665e-05
0.000104649
7.78212e-05
2.63112e-05
6.99602e-06
9.19519e-06
5.90458e-05
0.000117197
7.96661e-05
4.84191e-05
4.21465e-05
5.36936e-05
7.76703e-05
0.000107522
0.00013693
0.000163669
0.000188486
0.000210867
0.000225401
0.000220406
0.000185483
0.000134188
9.77847e-05
8.77356e-05
9.8416e-05
0.000109763
0.00010008
7.26507e-05
4.63939e-05
3.27868e-05
3.1102e-05
3.81095e-05
5.0011e-05
5.94871e-05
6.78096e-05
8.5302e-05
0.000103536
8.40092e-05
2.76553e-05
6.86074e-06
8.91014e-06
5.53223e-05
0.000120124
0.000101215
6.51296e-05
4.34477e-05
3.97021e-05
5.08762e-05
7.5555e-05
0.000110271
0.000148078
0.000182207
0.000208949
0.000226074
0.000230151
0.000216223
0.000181815
0.000136315
9.96726e-05
8.28235e-05
8.30466e-05
8.8016e-05
8.30582e-05
6.59819e-05
4.60786e-05
3.20646e-05
2.59225e-05
2.71433e-05
3.92273e-05
7.16153e-05
0.000106677
0.000113546
9.00363e-05
3.13619e-05
7.22218e-06
8.7222e-06
5.12626e-05
0.000125395
0.000133753
0.000106709
6.22036e-05
3.57151e-05
2.84884e-05
3.60425e-05
5.80088e-05
9.31988e-05
0.000137142
0.000182551
0.00022269
0.000253151
0.00027045
0.000269657
0.000244329
0.000195347
0.000141163
0.000102176
8.3273e-05
7.97012e-05
8.1502e-05
7.62229e-05
5.98301e-05
4.07454e-05
2.77452e-05
2.36508e-05
3.22086e-05
6.3831e-05
9.96636e-05
9.2777e-05
3.39401e-05
7.5145e-06
8.86992e-06
5.50513e-05
0.000141645
0.000159117
0.000148794
0.000115964
6.79135e-05
3.67442e-05
2.50332e-05
2.91981e-05
4.90531e-05
8.45069e-05
0.000132775
0.000186921
0.000238794
0.000281207
0.000308416
0.000315829
0.000299636
0.000258567
0.000200482
0.000143994
0.000103572
8.08842e-05
7.06067e-05
6.47401e-05
5.51892e-05
3.97293e-05
2.58967e-05
2.13087e-05
3.1879e-05
6.88051e-05
8.91092e-05
3.32034e-05
7.66094e-06
8.94771e-06
5.96027e-05
0.000157908
0.00017303
0.000165967
0.000154846
0.000129795
8.23091e-05
4.45022e-05
2.74354e-05
2.85667e-05
4.74191e-05
8.40716e-05
0.000136809
0.000199029
0.000261544
0.000313616
0.000343458
0.000342231
0.000309726
0.000254967
0.000192139
0.000136393
9.82673e-05
7.93166e-05
7.32547e-05
6.92116e-05
5.80239e-05
4.00672e-05
2.58746e-05
2.40224e-05
4.26159e-05
8.62218e-05
3.58677e-05
8.02402e-06
8.76534e-06
5.53461e-05
0.000154043
0.000175314
0.00016286
0.000145539
0.000136043
0.00012468
9.02773e-05
5.09451e-05
2.91354e-05
2.74542e-05
4.5653e-05
8.33571e-05
0.000139348
0.000206475
0.000273362
0.000327151
0.000356029
0.000353214
0.000319576
0.000262305
0.000193809
0.000131551
9.03047e-05
7.28582e-05
7.11559e-05
7.15105e-05
6.22012e-05
4.34475e-05
2.94091e-05
3.18555e-05
6.50413e-05
4.97225e-05
8.76744e-06
8.90317e-06
5.48543e-05
0.000152821
0.000171314
0.000151244
0.000128022
0.000119134
0.000122739
0.000123446
9.84162e-05
5.84493e-05
3.25323e-05
2.82115e-05
4.54075e-05
8.33518e-05
0.000142041
0.000214595
0.000285786
0.000337813
0.000359137
0.000348642
0.000311257
0.000252794
0.00018237
0.00011812
7.89325e-05
6.73431e-05
7.20182e-05
7.49908e-05
6.24591e-05
4.01262e-05
3.19064e-05
5.39195e-05
6.95608e-05
9.38802e-06
9.03965e-06
5.44828e-05
0.000148897
0.000161627
0.00013503
0.000110049
0.000105328
0.000118215
0.000137428
0.000143853
0.000117674
7.19509e-05
4.00702e-05
3.12638e-05
4.56978e-05
8.11406e-05
0.000137233
0.000207698
0.000276843
0.000325769
0.000343515
0.000330667
0.000292241
0.000232322
0.000159817
9.77671e-05
6.60925e-05
6.19967e-05
6.95386e-05
6.42148e-05
4.26897e-05
3.4259e-05
5.87413e-05
7.34164e-05
9.58539e-06
9.10637e-06
5.14349e-05
0.000141365
0.00015383
0.00012363
9.43457e-05
8.76335e-05
0.000101011
0.000127231
0.000152267
0.000156951
0.000128069
8.13131e-05
4.69803e-05
3.48265e-05
4.72786e-05
8.12945e-05
0.000135439
0.00020192
0.000263404
0.000302481
0.000312179
0.00029492
0.000254829
0.000195724
0.000129799
8.1344e-05
6.1353e-05
5.95935e-05
5.58287e-05
4.18109e-05
3.95117e-05
7.29673e-05
6.07453e-05
9.19733e-06
9.10972e-06
4.94079e-05
0.000134595
0.000142911
0.000109664
8.1819e-05
7.81128e-05
9.49379e-05
0.000126884
0.000162476
0.000183447
0.000173158
0.000130556
8.23757e-05
4.96436e-05
3.69556e-05
4.81616e-05
8.08686e-05
0.000134112
0.000196692
0.000246732
0.000270426
0.000267486
0.000241894
0.000196649
0.000138803
8.75349e-05
5.98348e-05
5.20507e-05
4.87226e-05
4.2031e-05
4.77862e-05
9.15877e-05
5.03415e-05
8.70455e-06
9.04838e-06
4.79184e-05
0.000130321
0.000135592
0.000100526
7.05861e-05
6.60297e-05
8.32457e-05
0.000117809
0.000159334
0.000192631
0.000204366
0.00018507
0.000139652
9.29807e-05
5.90185e-05
4.07619e-05
4.53443e-05
7.21563e-05
0.000121647
0.000181475
0.000225119
0.00023969
0.000229117
0.000198483
0.000150974
9.81431e-05
6.10823e-05
4.62992e-05
4.43919e-05
4.64728e-05
6.09968e-05
0.000105349
4.50601e-05
8.36174e-06
8.82196e-06
4.5984e-05
0.000130926
0.000143343
0.000109728
7.03948e-05
5.85317e-05
7.15819e-05
0.00010638
0.00015312
0.000192838
0.000211961
0.000206916
0.000182407
0.000150448
0.000119738
8.75737e-05
5.80277e-05
5.30285e-05
7.49339e-05
0.000117099
0.000161002
0.000186621
0.000190036
0.000175949
0.000147347
0.000107547
6.92454e-05
4.69544e-05
4.00319e-05
4.34554e-05
6.27626e-05
0.000107922
4.53087e-05
8.45232e-06
8.81636e-06
4.76092e-05
0.000141535
0.000155249
0.000115719
7.02089e-05
5.28155e-05
6.12413e-05
9.47839e-05
0.000148629
0.00019987
0.000225588
0.000218482
0.000185977
0.000148277
0.000121016
0.000103348
8.52606e-05
7.05842e-05
7.59641e-05
0.000105952
0.000149579
0.000178288
0.000179883
0.000162472
0.000133895
9.92992e-05
6.69166e-05
4.63784e-05
3.97404e-05
4.54699e-05
6.96246e-05
0.000113194
4.49762e-05
8.62713e-06
8.97842e-06
5.03873e-05
0.000155447
0.000155445
0.000105346
6.91159e-05
5.45905e-05
6.06864e-05
9.08672e-05
0.000145122
0.000206886
0.000255071
0.000280333
0.000280104
0.000255886
0.000219082
0.000183739
0.000148535
0.000104861
6.96875e-05
6.2434e-05
8.213e-05
0.000118855
0.0001444
0.000141544
0.000116653
8.3413e-05
5.60031e-05
4.0279e-05
3.62862e-05
4.56186e-05
7.67776e-05
0.000117012
4.18229e-05
8.60512e-06
9.35173e-06
5.69261e-05
0.00016428
0.000122944
7.41499e-05
5.89414e-05
6.06484e-05
7.63803e-05
0.000112578
0.000165981
0.000216951
0.000251194
0.000266369
0.000265812
0.000256138
0.000244996
0.000236471
0.000225091
0.000192938
0.000133785
8.23717e-05
6.47589e-05
7.75989e-05
0.000108412
0.000122892
0.000103433
6.95795e-05
4.65005e-05
3.83089e-05
4.03189e-05
5.47322e-05
9.1685e-05
0.00011857
3.83051e-05
8.41967e-06
9.74192e-06
6.70614e-05
0.000153781
8.53868e-05
5.37928e-05
5.3282e-05
7.03446e-05
0.000103223
0.000153189
0.000210617
0.000259314
0.000293198
0.000312937
0.000319676
0.000315363
0.000304868
0.000294398
0.000285034
0.0002656
0.000217477
0.000145786
8.75531e-05
6.21944e-05
6.33382e-05
7.67519e-05
7.68095e-05
5.70251e-05
3.89566e-05
3.43989e-05
4.26379e-05
6.57692e-05
0.000106206
0.000116786
3.65258e-05
8.20331e-06
9.95327e-06
8.15058e-05
0.000131159
6.40188e-05
4.74482e-05
5.81315e-05
9.01185e-05
0.000136631
0.000185415
0.000229981
0.000267605
0.000297302
0.000319393
0.000334582
0.00034376
0.000348395
0.000350111
0.000347858
0.000333086
0.000290549
0.000216576
0.00013662
8.2124e-05
5.95778e-05
5.8608e-05
6.14767e-05
5.0448e-05
3.51696e-05
3.07657e-05
4.0948e-05
7.14283e-05
0.000112965
0.000109641
3.46633e-05
8.01379e-06
1.00095e-05
9.77696e-05
0.000107368
5.50851e-05
4.90853e-05
6.84685e-05
0.000111032
0.000167786
0.000220204
0.000261132
0.000292982
0.000318496
0.000338704
0.000353923
0.000364528
0.000371634
0.000376942
0.000380298
0.000374607
0.000343367
0.000274124
0.000183319
0.000108272
6.79059e-05
5.52136e-05
5.61966e-05
5.2059e-05
3.79362e-05
3.03541e-05
3.74964e-05
6.45151e-05
0.0001083
0.000116256
3.75719e-05
8.34972e-06
9.93025e-06
0.000112446
8.56287e-05
5.01577e-05
5.41143e-05
8.14885e-05
0.000123767
0.000172693
0.000221247
0.000264775
0.000302037
0.000333421
0.000359333
0.000379769
0.000394502
0.000403498
0.000407683
0.000408374
0.000402686
0.000375454
0.000307254
0.000209087
0.000122877
7.35222e-05
5.52253e-05
5.47874e-05
5.55204e-05
4.31883e-05
3.0942e-05
3.3985e-05
5.90756e-05
0.0001055
0.000116933
3.8659e-05
8.56609e-06
9.47076e-06
9.64244e-05
8.01377e-05
5.11768e-05
5.74838e-05
8.49967e-05
0.000122134
0.000161436
0.000200438
0.000238029
0.000273484
0.000306204
0.000335469
0.000360317
0.000379638
0.00039286
0.000400731
0.000404874
0.000402987
0.00038198
0.000323078
0.000229723
0.00013896
8.19914e-05
5.7135e-05
5.10953e-05
5.188e-05
4.62109e-05
3.38224e-05
3.09389e-05
4.87722e-05
9.64546e-05
0.000107184
3.4421e-05
8.27558e-06
8.92772e-06
6.44538e-05
0.00010783
6.9588e-05
5.45711e-05
5.71065e-05
7.13371e-05
9.81961e-05
0.000138673
0.000187638
0.000236451
0.000280535
0.000319468
0.000353573
0.000381808
0.00040178
0.00041224
0.000414863
0.000410977
0.00039488
0.000343838
0.000251795
0.000153735
9.09332e-05
6.44494e-05
5.55549e-05
5.07386e-05
4.55362e-05
3.98211e-05
3.73083e-05
4.9421e-05
9.18208e-05
0.00011536
3.48144e-05
8.21439e-06
8.2636e-06
4.46406e-05
0.000108952
0.000108219
7.29709e-05
4.87873e-05
4.17882e-05
4.68324e-05
6.62457e-05
0.000105906
0.000165203
0.000231898
0.000296308
0.000358685
0.000414569
0.000419736
0.000418697
0.00041539
0.000409906
0.000402456
0.000393442
0.000291492
0.000150633
7.41112e-05
5.40333e-05
6.10587e-05
6.11194e-05
4.25608e-05
3.19025e-05
3.7295e-05
6.2834e-05
0.000109922
0.000107073
3.1827e-05
7.82415e-06
8.2633e-06
4.31191e-05
0.00011368
0.000139913
0.000129275
8.62542e-05
4.90289e-05
3.31328e-05
3.23134e-05
4.76799e-05
8.76056e-05
0.000157416
0.000243995
0.000330757
0.000407771
0.000413483
0.000415413
0.000414366
0.000410245
0.00040302
0.000392827
0.000288645
0.000145958
6.3012e-05
3.53262e-05
4.18213e-05
6.79306e-05
5.99777e-05
3.70623e-05
3.40957e-05
5.86371e-05
0.000101082
7.57898e-05
2.45937e-05
6.85067e-06
8.43859e-06
4.92032e-05
0.000145749
0.000176258
0.000175987
0.000164969
0.000119335
5.9614e-05
3.28786e-05
2.95615e-05
4.612e-05
9.11574e-05
0.000170141
0.000265398
0.000351879
0.000405551
0.000411152
0.00041394
0.000413614
0.00040993
0.00035682
0.000277098
0.0001865
9.90215e-05
4.55247e-05
2.75538e-05
3.22867e-05
5.20908e-05
6.56013e-05
6.74768e-05
8.3931e-05
0.000110098
8.09407e-05
2.57235e-05
6.60307e-06
8.80011e-06
5.27792e-05
0.000149485
0.000160361
0.000139644
0.000128986
0.00013357
0.000117678
6.38094e-05
3.55856e-05
3.4667e-05
5.76187e-05
0.000111334
0.000193435
0.000281179
0.00035085
0.000392266
0.000405386
0.000395436
0.000370064
0.000335624
0.000294265
0.000243431
0.000179254
0.000109162
5.72678e-05
3.27295e-05
2.73268e-05
3.7827e-05
7.25832e-05
0.00012478
0.000145315
0.000110173
3.34371e-05
7.00134e-06
9.01372e-06
5.40316e-05
0.000142632
0.000148977
0.000119807
9.60748e-05
9.55531e-05
0.000110969
0.000105826
6.29089e-05
4.09977e-05
4.71464e-05
8.20687e-05
0.000149134
0.00023517
0.000312559
0.000359944
0.000373253
0.000363271
0.000344102
0.000323633
0.000301725
0.000273606
0.000234462
0.000182717
0.000123333
7.09636e-05
3.81521e-05
2.42663e-05
2.71009e-05
5.52554e-05
9.86519e-05
8.54881e-05
2.93357e-05
6.75493e-06
8.89538e-06
5.2056e-05
0.000144374
0.000155033
0.000125269
9.63802e-05
8.83338e-05
9.82168e-05
0.000110539
9.2236e-05
5.73685e-05
4.62862e-05
6.35451e-05
0.000112991
0.000190786
0.000272475
0.00032755
0.000342998
0.000329775
0.000307131
0.000286937
0.000271874
0.000259504
0.000244929
0.000222042
0.000185548
0.000135592
8.3767e-05
4.65658e-05
2.9295e-05
3.14842e-05
6.2173e-05
7.54645e-05
2.56424e-05
6.56431e-06
9.07767e-06
5.63508e-05
0.000152515
0.000148032
0.000110933
8.92469e-05
8.98254e-05
0.000105245
0.000122238
0.000117289
8.13976e-05
5.5913e-05
5.87997e-05
9.47351e-05
0.000165585
0.000250201
0.000306378
0.000309641
0.000278159
0.000244871
0.000227082
0.00022665
0.000238218
0.000252728
0.000259754
0.000251132
0.000223192
0.000177681
0.000125476
8.4607e-05
6.49374e-05
6.78077e-05
9.91236e-05
4.57776e-05
8.07327e-06
9.01345e-06
5.49182e-05
0.000144233
0.000133831
9.46139e-05
7.63061e-05
8.25201e-05
0.000105951
0.000132449
0.000137171
0.000106447
7.0887e-05
6.14265e-05
8.54799e-05
0.000149329
0.000235222
0.000288981
0.000276093
0.00022825
0.000192506
0.000185938
0.000205676
0.000240697
0.000274812
0.000295363
0.000299155
0.000287612
0.000259615
0.000211672
0.000149283
9.68179e-05
7.65762e-05
0.000100639
9.41608e-05
1.00087e-05
9.00785e-06