/*--------------------------------*- C++ -*----------------------------------*\
| =========                 |                                                 |
| \\      /  F ield         | OpenFOAM: The Open Source CFD Toolbox           |
|  \\    /   O peration     | Version:  v2006                                 |
|   \\  /    A nd           | Website:  www.openfoam.com                      |
|    \\/     M anipulation  |                                                 |
\*---------------------------------------------------------------------------*/
FoamFile
{
    version     2.0;
    format      ascii;
    class       surfaceScalarField;
    location    "98";
    object      phi;
}
// * * * * * * * * * * * * * * * * * * * * * * * * * * * * * * * * * * * * * //

dimensions      [1 0 -1 0 0 0 0];
oriented        oriented;


internalField   nonuniform List<scalar> 
228225
(
0.000827851
2.12275e-05
-9.94715e-06
0.000841723
-5.2466e-06
-1.67731e-05
0.000852142
-3.74472e-06
-1.62125e-05
0.000855486
-9.41065e-07
-1.43216e-05
0.000859473
-2.46392e-06
-1.27767e-05
0.000862299
-3.04033e-06
-1.1771e-05
0.000864424
-2.42783e-06
-1.12211e-05
0.00086625
-2.64955e-06
-1.08179e-05
0.000868075
-1.94129e-06
-1.07066e-05
0.000869509
-1.17752e-06
-1.06208e-05
0.000870122
-7.76713e-08
-1.03987e-05
0.000869576
1.90934e-06
-1.03281e-05
0.000867308
4.54125e-06
-1.04693e-05
0.000862999
7.15886e-06
-1.02427e-05
0.000856786
9.77912e-06
-1.03548e-05
0.000849182
1.19933e-05
-1.04202e-05
0.000839879
1.40114e-05
-1.03098e-05
0.000829622
1.57247e-05
-1.03419e-05
0.000817443
1.77305e-05
-1.00489e-05
0.00080374
1.98002e-05
-9.84405e-06
0.000787391
2.23211e-05
-9.37683e-06
0.000768883
2.47293e-05
-8.99198e-06
0.000747171
2.74024e-05
-8.29547e-06
0.000722465
2.99678e-05
-7.65583e-06
0.00069347
3.29633e-05
-6.62159e-06
0.000659748
3.59837e-05
-5.78894e-06
0.000619993
3.94946e-05
-4.53291e-06
0.000572633
4.28507e-05
-3.48805e-06
0.000516608
4.67518e-05
-1.57681e-06
0.000449491
4.99181e-05
1.95639e-07
0.000369142
5.39595e-05
4.87332e-06
0.00027969
5.54515e-05
7.99309e-06
0.000168791
5.88244e-05
1.36304e-05
6.96246e-05
5.53117e-05
1.65914e-05
4.91778e-05
1.73326e-05
-5.72214e-05
9.66028e-05
-2.22298e-05
-0.000100708
4.92112e-05
-1.87237e-05
-0.000118386
3.86132e-05
-2.29416e-05
-0.000124455
2.49127e-05
-2.06465e-05
-0.000121575
1.7487e-05
-2.26183e-05
-0.000113377
9.63966e-06
-2.12196e-05
-0.00010046
4.57774e-06
-2.10499e-05
-8.79307e-05
2.89671e-06
-2.01805e-05
-7.35597e-05
3.39914e-06
-2.09255e-05
-5.94096e-05
4.02498e-06
-2.0162e-05
-4.30385e-05
2.92922e-06
-1.99783e-05
-2.29751e-05
1.24393e-06
-1.98426e-05
1.97218e-07
8.50646e-07
-1.98496e-05
2.46367e-05
2.2273e-06
-1.99408e-05
4.84654e-05
5.30344e-06
-2.0075e-05
7.02567e-05
9.19258e-06
-2.01235e-05
8.97043e-05
1.30786e-05
-2.00886e-05
0.000106665
1.67848e-05
-1.99453e-05
0.000121524
2.03723e-05
-1.97826e-05
0.000134276
2.39716e-05
-1.95721e-05
0.000145314
2.74527e-05
-1.93451e-05
0.000154463
3.08205e-05
-1.90193e-05
0.000161947
3.40363e-05
-1.86204e-05
0.000167476
3.73209e-05
-1.81054e-05
0.000171153
4.07553e-05
-1.74842e-05
0.000172738
4.44545e-05
-1.67932e-05
0.00017202
4.85407e-05
-1.59228e-05
0.000168664
5.28484e-05
-1.499e-05
0.00016206
5.78366e-05
-1.38007e-05
0.000151087
6.30882e-05
-1.25451e-05
0.000134649
6.94616e-05
-1.06856e-05
0.000108937
7.63551e-05
-8.71464e-06
7.40174e-05
8.38177e-05
-5.61035e-06
2.82795e-05
8.86544e-05
-1.11422e-06
6.90608e-05
4.32176e-06
-1.74429e-05
0.000108144
1.2646e-05
-1.66461e-05
3.78322e-05
1.18851e-05
9.76039e-07
1.01983e-05
9.23716e-06
2.58826e-05
-1.20308e-05
1.11486e-05
5.01238e-05
-1.73358e-05
9.88002e-06
7.13028e-05
-2.21609e-05
9.78148e-06
8.81207e-05
-2.26488e-05
9.73968e-06
0.000101228
-1.98767e-05
9.44313e-06
0.000111281
-1.55432e-05
8.93752e-06
0.000117021
-1.06607e-05
8.59317e-06
0.000116704
-6.63863e-06
8.72905e-06
0.00011139
-4.23534e-06
9.26901e-06
0.000104034
-2.72976e-06
9.78585e-06
9.69229e-05
-1.07564e-06
9.99915e-06
9.0989e-05
1.50026e-06
9.84684e-06
8.59431e-05
4.93575e-06
9.36754e-06
8.16279e-05
8.32225e-06
8.66221e-06
7.80836e-05
1.14522e-05
7.83013e-06
7.54644e-05
1.43657e-05
6.93549e-06
7.37081e-05
1.73721e-05
6.05816e-06
7.25644e-05
2.04572e-05
5.25535e-06
7.17717e-05
2.35852e-05
4.58005e-06
7.09763e-05
2.68053e-05
4.02309e-06
6.98695e-05
3.02808e-05
3.60212e-06
6.81061e-05
3.41471e-05
3.25986e-06
6.53683e-05
3.85286e-05
2.9934e-06
6.1352e-05
4.34747e-05
2.7467e-06
5.60697e-05
4.88079e-05
2.44423e-06
4.92099e-05
5.48302e-05
2.21656e-06
4.15714e-05
6.09797e-05
1.81249e-06
3.2398e-05
6.78399e-05
2.0058e-06
2.35191e-05
7.36696e-05
2.35143e-06
1.30576e-05
7.9268e-05
4.14976e-06
4.16686e-06
8.42508e-05
5.21423e-06
6.91575e-05
4.53639e-06
3.80969e-05
8.27607e-05
-8.58448e-06
4.80044e-05
3.37542e-05
-8.97461e-06
6.86725e-05
-8.88875e-06
-5.8518e-06
8.87616e-05
-3.04239e-05
-4.49329e-06
0.000103431
-2.99342e-05
-3.49501e-06
0.000110288
-2.692e-05
-2.83768e-06
0.00010954
-1.95542e-05
-2.51272e-06
0.000106472
-1.40459e-05
-2.42855e-06
0.000103217
-9.08991e-06
-2.56021e-06
9.96719e-05
-3.24456e-06
-3.19113e-06
9.38312e-05
3.72253e-06
-4.05822e-06
8.43312e-05
9.9383e-06
-4.51607e-06
7.18162e-05
1.40356e-05
-4.30954e-06
5.80268e-05
1.61328e-05
-3.53419e-06
4.49173e-05
1.69101e-05
-2.32325e-06
3.36218e-05
1.73082e-05
-1.04642e-06
2.43776e-05
1.75775e-05
-7.78701e-08
1.69956e-05
1.76362e-05
9.32638e-07
1.17161e-05
1.75793e-05
1.58303e-06
8.59468e-06
1.78254e-05
1.97006e-06
7.43258e-06
1.84992e-05
2.19442e-06
7.92155e-06
1.95711e-05
2.36194e-06
9.68087e-06
2.1101e-05
2.52984e-06
1.23308e-05
2.31942e-05
2.74123e-06
1.54133e-05
2.60262e-05
3.01312e-06
1.82981e-05
2.98447e-05
3.37861e-06
2.0316e-05
3.47502e-05
3.80411e-06
2.07813e-05
4.06338e-05
4.28054e-06
1.92464e-05
4.75999e-05
4.71433e-06
1.56232e-05
5.54358e-05
4.80685e-06
1.00715e-05
6.42214e-05
4.55807e-06
4.87147e-06
7.18553e-05
3.38552e-06
-1.28078e-06
7.98459e-05
3.00884e-06
-1.93166e-06
8.65423e-05
1.12391e-06
7.40576e-05
1.02605e-06
2.70565e-05
5.45564e-05
-1.11192e-06
9.895e-06
3.93789e-05
9.90727e-06
4.32538e-07
-1.20679e-05
1.17882e-05
-5.94934e-06
-3.51434e-05
1.03364e-05
-1.24919e-05
-3.43946e-05
1.04565e-05
-1.74007e-05
-3.23211e-05
9.90604e-06
-1.82611e-05
-2.75965e-05
8.61305e-06
-1.71835e-05
-2.20792e-05
6.83552e-06
-1.67188e-05
-1.46454e-05
5.09784e-06
-1.57913e-05
-7.77771e-06
3.68053e-06
-1.24405e-05
-2.19765e-06
2.66792e-06
-6.43133e-06
1.98916e-06
2.03595e-06
6.08981e-07
5.32721e-06
1.75605e-06
7.15845e-06
7.89422e-06
1.77632e-06
1.22438e-05
9.89707e-06
2.01723e-06
1.58062e-05
1.14516e-05
2.37593e-06
1.81721e-05
1.25045e-05
2.76234e-06
1.9659e-05
1.30381e-05
3.12413e-06
2.06094e-05
1.31526e-05
3.4434e-06
2.15744e-05
1.3072e-05
3.71815e-06
2.29726e-05
1.30454e-05
3.96021e-06
2.4985e-05
1.32592e-05
4.18754e-06
2.77028e-05
1.38425e-05
4.4121e-06
3.12019e-05
1.48942e-05
4.64351e-06
3.5506e-05
1.66153e-05
4.89425e-06
4.03748e-05
1.94669e-05
5.19383e-06
4.51533e-05
2.39239e-05
5.57168e-06
4.91072e-05
2.98795e-05
6.08996e-06
5.16734e-05
3.73283e-05
6.76578e-06
5.15048e-05
4.70597e-05
7.49272e-06
4.63949e-05
6.06858e-05
8.03753e-06
3.50818e-05
7.75231e-05
7.15593e-06
1.97599e-05
9.54263e-05
4.62318e-06
8.26657e-06
0.00010452
1.3553e-06
8.98171e-05
1.0228e-06
1.57016e-05
3.5933e-05
8.68349e-07
2.44345e-05
2.38168e-05
5.93052e-06
2.86643e-05
-2.2842e-05
5.64224e-06
2.57137e-05
-3.7906e-05
5.28014e-06
2.76948e-05
-4.15018e-05
4.99178e-06
3.1167e-05
-4.08543e-05
4.94499e-06
3.52232e-05
-3.67994e-05
4.93053e-06
3.67809e-05
-2.85591e-05
4.6366e-06
3.64112e-05
-1.81534e-05
3.69312e-06
3.49365e-05
-8.87606e-06
2.56696e-06
3.3298e-05
-2.18213e-06
1.72412e-06
3.18911e-05
2.28985e-06
1.23933e-06
3.08979e-05
5.41037e-06
1.04118e-06
3.01065e-05
7.75885e-06
1.04964e-06
2.93436e-05
9.58613e-06
1.19264e-06
2.85297e-05
1.09795e-05
1.4047e-06
2.75636e-05
1.19556e-05
1.63549e-06
2.63226e-05
1.25381e-05
1.8684e-06
2.47251e-05
1.27788e-05
2.11315e-06
2.28045e-05
1.27738e-05
2.37525e-06
2.06958e-05
1.26762e-05
2.63805e-06
1.85916e-05
1.26382e-05
2.87927e-06
1.67252e-05
1.27627e-05
3.09024e-06
1.53653e-05
1.31013e-05
3.28453e-06
1.48356e-05
1.3765e-05
3.49863e-06
1.53957e-05
1.52303e-05
3.78578e-06
1.67319e-05
1.84781e-05
4.22186e-06
1.78638e-05
2.39675e-05
4.90875e-06
1.81857e-05
3.12183e-05
5.96474e-06
1.71586e-05
4.08529e-05
7.45526e-06
1.34371e-05
5.57541e-05
9.02174e-06
5.29199e-06
7.70661e-05
9.2083e-06
-2.16057e-06
9.56789e-05
7.49717e-06
-3.43543e-06
9.92003e-05
5.88988e-06
8.02851e-05
4.6076e-06
7.70717e-06
2.12611e-05
6.98425e-06
2.64268e-05
-4.97044e-06
1.00249e-05
2.69615e-05
-3.28577e-05
9.0068e-06
2.31439e-05
-4.19535e-05
7.68283e-06
1.8166e-05
-4.37241e-05
7.27157e-06
1.37432e-05
-4.35225e-05
7.25104e-06
1.1025e-05
-4.11654e-05
7.24319e-06
1.1881e-05
-3.62535e-05
6.93813e-06
1.63609e-05
-2.86699e-05
6.11029e-06
2.14837e-05
-1.87239e-05
4.86088e-06
2.43082e-05
-8.40549e-06
3.56152e-06
2.42292e-05
-6.83166e-08
2.56232e-06
2.33403e-05
4.48602e-06
1.90686e-06
2.23442e-05
7.34541e-06
1.49252e-06
2.14866e-05
9.26125e-06
1.26527e-06
2.0698e-05
1.06577e-05
1.19728e-06
1.98175e-05
1.16757e-05
1.25316e-06
1.86783e-05
1.23848e-05
1.39216e-06
1.71347e-05
1.28474e-05
1.57929e-06
1.50985e-05
1.31247e-05
1.78651e-06
1.25933e-05
1.32769e-05
1.99161e-06
9.75145e-06
1.33649e-05
2.1799e-06
6.75717e-06
1.34511e-05
2.34639e-06
3.77492e-06
1.36063e-05
2.49702e-06
9.43581e-07
1.39479e-05
2.65274e-06
-1.49154e-06
1.48025e-05
2.85366e-06
-3.24257e-06
1.70471e-05
3.16175e-06
-4.65831e-06
2.17168e-05
3.65485e-06
-6.57935e-06
2.8703e-05
4.4342e-06
-9.11363e-06
3.74754e-05
5.68216e-06
-1.17545e-05
4.96148e-05
7.48216e-06
-1.4308e-05
6.67825e-05
9.0869e-06
-1.30039e-05
7.89438e-05
9.35329e-06
-7.7673e-06
7.77449e-05
8.85081e-06
5.96716e-05
6.40007e-06
1.88159e-05
-4.48573e-06
7.70045e-06
3.97241e-05
-3.34074e-05
7.9786e-06
4.41876e-05
-4.40146e-05
7.18735e-06
4.34313e-05
-4.66372e-05
5.89721e-06
4.26822e-05
-4.71658e-05
4.56051e-06
4.22877e-05
-4.68717e-05
4.0438e-06
4.34306e-05
-4.61681e-05
4.10388e-06
4.71597e-05
-4.43615e-05
4.57557e-06
5.20396e-05
-3.89426e-05
5.52355e-06
5.58434e-05
-2.89301e-05
6.4729e-06
5.7419e-05
-1.6214e-05
6.43792e-06
5.64821e-05
-4.06016e-06
5.30078e-06
5.19489e-05
5.47367e-06
3.90297e-06
4.60894e-05
1.06132e-05
2.84653e-06
4.04513e-05
1.29163e-05
2.15824e-06
3.53519e-05
1.4164e-05
1.72357e-06
3.06537e-05
1.50196e-05
1.46052e-06
2.61749e-05
1.56349e-05
1.32056e-06
2.17859e-05
1.6043e-05
1.27371e-06
1.74099e-05
1.62788e-05
1.28851e-06
1.30053e-05
1.63956e-05
1.33507e-06
8.551e-06
1.64547e-05
1.39331e-06
4.03641e-06
1.6517e-05
1.45567e-06
-5.42132e-07
1.66432e-05
1.52485e-06
-5.1638e-06
1.69116e-05
1.61209e-06
-9.67021e-06
1.7479e-05
1.73965e-06
-1.35007e-05
1.87566e-05
1.94796e-06
-1.60115e-05
2.16073e-05
2.29845e-06
-1.74832e-05
2.6819e-05
2.84185e-06
-1.84151e-05
3.40603e-05
3.63415e-06
-1.76867e-05
4.2867e-05
4.84367e-06
-1.39943e-05
5.40675e-05
6.48362e-06
-9.00494e-06
6.20302e-05
7.65128e-06
-4.33369e-06
6.03588e-05
7.71628e-06
4.6411e-05
5.17515e-06
1.76644e-05
-2.55561e-05
3.25673e-06
2.71164e-05
-4.6097e-05
2.94956e-06
3.22303e-05
-5.25512e-05
3.22848e-06
3.62162e-05
-5.44761e-05
3.77912e-06
3.95525e-05
-5.45795e-05
4.12285e-06
4.22826e-05
-5.36434e-05
4.20228e-06
4.39371e-05
-5.17231e-05
4.16416e-06
4.40057e-05
-4.81785e-05
4.11776e-06
4.2831e-05
-4.15299e-05
4.26575e-06
4.13547e-05
-3.19278e-05
4.9197e-06
4.0413e-05
-2.08345e-05
5.83243e-06
3.95759e-05
-8.97806e-06
6.02908e-06
3.81988e-05
2.05974e-06
5.1149e-06
3.52611e-05
9.95606e-06
3.85366e-06
3.13885e-05
1.40531e-05
2.91368e-06
2.76191e-05
1.57589e-05
2.31031e-06
2.42848e-05
1.65748e-05
1.89498e-06
2.12786e-05
1.71516e-05
1.59161e-06
1.84324e-05
1.76032e-05
1.37316e-06
1.56321e-05
1.79275e-05
1.22223e-06
1.28247e-05
1.81356e-05
1.12151e-06
9.9966e-06
1.82672e-05
1.05418e-06
7.15097e-06
1.83792e-05
1.00766e-06
4.29486e-06
1.85319e-05
9.76831e-07
1.44587e-06
1.87867e-05
9.64352e-07
-1.31996e-06
1.92254e-05
9.80146e-07
-3.73231e-06
2.00297e-05
1.04418e-06
-5.22359e-06
2.16853e-05
1.19575e-06
-5.52131e-06
2.51466e-05
1.49472e-06
-5.48033e-06
3.11744e-05
1.97771e-06
-5.65146e-06
3.91086e-05
2.67733e-06
-4.35911e-06
4.74592e-05
3.73462e-06
-2.07043e-06
5.28738e-05
4.86403e-06
-8.81971e-07
5.16821e-05
5.26135e-06
4.04145e-05
3.40286e-06
6.80747e-06
-3.52217e-05
3.01007e-06
9.19287e-06
-5.18608e-05
3.52608e-06
8.17838e-06
-5.45397e-05
2.97686e-06
5.68102e-06
-5.47243e-05
2.60014e-06
2.76669e-06
-5.42802e-05
2.4316e-06
-4.81714e-08
-5.34006e-05
2.38989e-06
-2.36925e-06
-5.20292e-05
2.44754e-06
-3.67222e-06
-4.96713e-05
2.66066e-06
-3.25001e-06
-4.5017e-05
3.11987e-06
-1.29996e-06
-3.73767e-05
3.7467e-06
1.59033e-06
-2.79729e-05
4.5105e-06
5.35825e-06
-1.77613e-05
5.20093e-06
9.4579e-06
-7.16305e-06
5.26608e-06
1.26999e-05
2.2956e-06
4.54198e-06
1.43954e-05
8.93732e-06
3.50652e-06
1.40992e-05
1.33974e-05
2.70495e-06
1.2483e-05
1.60263e-05
2.20299e-06
1.06319e-05
1.7181e-05
1.86061e-06
9.01286e-06
1.76656e-05
1.59388e-06
7.59553e-06
1.80069e-05
1.37043e-06
6.26039e-06
1.83182e-05
1.17942e-06
4.93224e-06
1.86012e-05
1.01637e-06
3.5885e-06
1.88645e-05
8.77104e-07
2.23975e-06
1.91393e-05
7.57394e-07
9.13006e-07
1.94701e-05
6.56386e-07
-3.46621e-07
1.99125e-05
5.79108e-07
-1.42187e-06
2.05587e-05
5.37402e-07
-1.99018e-06
2.16508e-05
5.55229e-07
-1.52609e-06
2.38424e-05
6.82057e-07
-8.52335e-08
2.83111e-05
9.83473e-07
9.59895e-07
3.56847e-05
1.46357e-06
1.02537e-06
4.39749e-05
2.07768e-06
1.01449e-06
4.86599e-05
2.81107e-06
1.66065e-07
4.79125e-05
3.27807e-06
3.74408e-05
2.11605e-06
-4.8951e-07
-3.64246e-05
1.86574e-06
-2.63902e-06
-5.25249e-05
2.84462e-06
-4.56044e-06
-5.58255e-05
3.18286e-06
-6.08601e-06
-5.64857e-05
3.2446e-06
-7.4196e-06
-5.62268e-05
3.22168e-06
-8.70847e-06
-5.53457e-05
3.15937e-06
-9.97276e-06
-5.39352e-05
3.07869e-06
-1.0799e-05
-5.19733e-05
3.00722e-06
-9.86572e-06
-4.9076e-05
3.0063e-06
-5.97323e-06
-4.44252e-05
3.19046e-06
3.25054e-07
-3.76256e-05
3.58056e-06
7.76922e-06
-2.90379e-05
4.13994e-06
1.55364e-05
-1.93833e-05
4.73699e-06
2.25062e-05
-9.52577e-06
5.07369e-06
2.71761e-05
-5.24782e-07
4.9615e-06
2.94346e-05
6.85296e-06
4.42764e-06
2.92376e-05
1.26667e-05
3.64824e-06
2.69184e-05
1.65875e-05
2.94352e-06
2.34972e-05
1.86522e-05
2.44282e-06
2.0109e-05
1.93239e-05
2.0806e-06
1.71629e-05
1.94891e-05
1.7876e-06
1.46277e-05
1.96161e-05
1.53258e-06
1.23884e-05
1.98104e-05
1.30409e-06
1.03591e-05
2.00808e-05
1.09652e-06
8.49004e-06
2.0439e-05
9.0675e-07
6.75491e-06
2.0916e-05
7.34902e-07
5.15708e-06
2.15676e-05
5.86195e-07
3.80202e-06
2.25166e-05
4.75591e-07
3.06466e-06
2.4105e-05
4.38093e-07
3.53985e-06
2.71845e-05
5.48403e-07
5.01453e-06
3.30346e-05
9.00149e-07
5.76084e-06
4.1264e-05
1.41277e-06
4.58903e-06
4.7111e-05
1.89843e-06
2.2548e-06
4.71213e-05
2.26477e-06
3.75473e-05
1.56094e-06
-4.75492e-06
-3.37233e-05
1.71131e-06
-6.47532e-06
-5.37209e-05
2.46352e-06
-6.64138e-06
-5.84946e-05
2.4943e-06
-6.34961e-06
-5.94599e-05
2.41534e-06
-5.90605e-06
-5.92003e-05
2.31523e-06
-5.45323e-06
-5.81707e-05
2.20265e-06
-5.10993e-06
-5.64935e-05
2.0845e-06
-4.89896e-06
-5.42665e-05
1.97862e-06
-4.38025e-06
-5.16191e-05
1.91325e-06
-2.35332e-06
-4.8523e-05
1.93149e-06
2.24653e-06
-4.44047e-05
2.11071e-06
9.34134e-06
-3.85199e-05
2.49454e-06
1.75962e-05
-3.04382e-05
3.06707e-06
2.51528e-05
-2.04878e-05
3.7387e-06
3.07845e-05
-1.01761e-05
4.31834e-06
3.45613e-05
-1.32039e-06
4.6311e-06
3.63799e-05
6.44313e-06
4.60042e-06
3.62053e-05
1.27399e-05
4.20539e-06
3.40117e-05
1.74074e-05
3.55673e-06
3.02601e-05
2.0183e-05
2.92847e-06
2.60466e-05
2.12565e-05
2.44998e-06
2.21794e-05
2.1398e-05
2.08422e-06
1.88973e-05
2.13183e-05
1.77513e-06
1.61729e-05
2.13159e-05
1.49083e-06
1.39207e-05
2.14718e-05
1.21865e-06
1.20659e-05
2.18093e-05
9.55312e-07
1.05578e-05
2.23577e-05
7.01045e-07
9.39178e-06
2.31865e-05
4.58726e-07
8.65811e-06
2.45215e-05
2.39155e-07
8.50586e-06
2.70823e-05
8.5838e-08
8.54201e-06
3.24626e-05
1.78491e-07
7.62054e-06
4.09422e-05
6.74382e-07
5.33936e-06
4.73866e-05
1.27083e-06
2.38897e-06
4.76335e-05
1.69297e-06
3.81203e-05
1.27069e-06
2.23748e-06
-3.70476e-05
7.8705e-07
5.24427e-06
-5.80066e-05
1.33674e-06
7.80842e-06
-6.2437e-05
1.60061e-06
9.8735e-06
-6.29736e-05
1.72195e-06
1.15298e-05
-6.23404e-05
1.77304e-06
1.28281e-05
-6.09491e-05
1.76902e-06
1.37506e-05
-5.88466e-05
1.71075e-06
1.41436e-05
-5.59846e-05
1.59605e-06
1.37704e-05
-5.24193e-05
1.43222e-06
1.27311e-05
-4.85165e-05
1.248e-06
1.20458e-05
-4.47039e-05
1.09588e-06
1.3189e-05
-4.07296e-05
1.06598e-06
1.68963e-05
-3.54306e-05
1.29966e-06
2.22316e-05
-2.75419e-05
1.86079e-06
2.70834e-05
-1.73704e-05
2.59057e-06
3.01982e-05
-7.40862e-06
3.24218e-06
3.25842e-05
5.77902e-07
3.70883e-06
3.40405e-05
7.49613e-06
3.96528e-06
3.42995e-05
1.33055e-05
3.98395e-06
3.26232e-05
1.82498e-05
3.71729e-06
2.9272e-05
2.14246e-05
3.24161e-06
2.52797e-05
2.26429e-05
2.76268e-06
2.14482e-05
2.27756e-05
2.36381e-06
1.80995e-05
2.26125e-05
2.03116e-06
1.52989e-05
2.2519e-05
1.73233e-06
1.3027e-05
2.26215e-05
1.44432e-06
1.12522e-05
2.29678e-05
1.15699e-06
9.95341e-06
2.36149e-05
8.67304e-07
9.14422e-06
2.47436e-05
5.72003e-07
8.82172e-06
2.70531e-05
2.66064e-07
8.46473e-06
3.24797e-05
-4.04776e-09
6.51026e-06
4.19937e-05
7.79025e-08
3.98016e-06
4.84862e-05
4.86557e-07
1.41187e-06
4.84151e-05
9.17186e-07
3.81031e-05
7.79384e-07
8.20223e-06
-4.48437e-05
-6.9732e-08
1.06326e-05
-6.01837e-05
2.84819e-07
1.03794e-05
-6.24198e-05
6.38301e-07
9.25212e-06
-6.23883e-05
8.74216e-07
7.80684e-06
-6.1631e-05
1.03304e-06
6.28513e-06
-6.03009e-05
1.13722e-06
4.86362e-06
-5.83923e-05
1.19706e-06
3.68456e-06
-5.58136e-05
1.21053e-06
2.72561e-06
-5.2434e-05
1.1688e-06
1.64029e-06
-4.8292e-05
1.06994e-06
7.10819e-08
-4.3857e-05
9.37043e-07
-1.60756e-06
-3.96897e-05
8.15858e-07
-2.15504e-06
-3.5568e-05
7.78214e-07
-5.48937e-07
-3.01096e-05
9.93787e-07
2.53879e-06
-2.19424e-05
1.53481e-06
5.36498e-06
-1.2289e-05
2.13936e-06
7.08122e-06
-3.67024e-06
2.62828e-06
8.75888e-06
2.89654e-06
3.00312e-06
1.06037e-05
8.2304e-06
3.27653e-06
1.21841e-05
1.32498e-05
3.4128e-06
1.25571e-05
1.76625e-05
3.33179e-06
1.155e-05
2.0533e-05
3.0485e-06
9.78363e-06
2.1789e-05
2.69828e-06
7.81142e-06
2.218e-05
2.36417e-06
5.90219e-06
2.23339e-05
2.0638e-06
4.15014e-06
2.2566e-05
1.78593e-06
2.58173e-06
2.30127e-05
1.51467e-06
1.21267e-06
2.3759e-05
1.241e-06
1.32736e-07
2.49319e-05
9.62673e-07
-2.38526e-07
2.69431e-05
6.7376e-07
9.75086e-07
3.12487e-05
3.77233e-07
2.6313e-06
4.03308e-05
1.63484e-07
2.1945e-06
4.83859e-05
1.50928e-07
1.07661e-06
4.86864e-05
3.42015e-07
3.83857e-05
4.3501e-07
3.5885e-06
-4.73089e-05
-4.22337e-07
3.65756e-06
-5.94345e-05
-4.0625e-07
2.59879e-06
-6.11354e-05
-3.27297e-08
1.17069e-06
-6.11477e-05
2.77661e-07
-4.75361e-07
-6.04437e-05
4.90138e-07
-2.28591e-06
-5.91428e-05
6.47095e-07
-4.23086e-06
-5.72426e-05
7.68395e-07
-6.22182e-06
-5.47297e-05
8.63643e-07
-8.02393e-06
-5.16315e-05
9.37622e-07
-9.41298e-06
-4.79653e-05
9.91981e-07
-1.0506e-05
-4.38329e-05
1.02261e-06
-1.16585e-05
-3.9577e-05
1.03805e-06
-1.28402e-05
-3.54269e-05
1.07276e-06
-1.31159e-05
-3.09894e-05
1.19471e-06
-1.14313e-05
-2.51018e-05
1.51133e-06
-8.39773e-06
-1.72209e-05
1.93977e-06
-5.32516e-06
-8.97636e-06
2.27888e-06
-2.89427e-06
-2.0212e-06
2.52983e-06
-7.17002e-07
3.33088e-06
2.75013e-06
1.53482e-06
8.04162e-06
2.95123e-06
3.53045e-06
1.2537e-05
3.07984e-06
4.63157e-06
1.63083e-05
3.04511e-06
4.83955e-06
1.86629e-05
2.84699e-06
4.58677e-06
1.98131e-05
2.573e-06
4.19459e-06
2.04174e-05
2.28267e-06
3.80864e-06
2.09383e-05
1.99674e-06
3.47639e-06
2.16136e-05
1.71351e-06
3.20002e-06
2.2587e-05
1.42449e-06
2.9564e-06
2.40285e-05
1.12724e-06
2.79431e-06
2.63322e-05
8.27724e-07
3.29007e-06
3.05543e-05
5.5121e-07
4.82241e-06
3.91387e-05
3.83673e-07
4.0465e-06
4.90832e-05
3.29612e-07
2.43193e-06
4.99264e-05
3.77284e-07
4.03188e-05
4.68791e-07
1.82086e-07
-4.65654e-05
-7.86221e-07
1.49538e-06
-5.9752e-05
-1.0306e-06
2.54712e-06
-6.16022e-05
-6.46542e-07
3.16503e-06
-6.15163e-05
-3.12443e-07
3.31297e-06
-6.05845e-05
-6.13951e-08
2.88168e-06
-5.88903e-05
1.42631e-07
1.71075e-06
-5.63758e-05
2.938e-07
-3.47515e-07
-5.3059e-05
4.03031e-07
-3.18939e-06
-4.92615e-05
4.96155e-07
-6.30651e-06
-4.5444e-05
6.01489e-07
-9.09505e-06
-4.18011e-05
7.29752e-07
-1.13151e-05
-3.82712e-05
8.72488e-07
-1.29811e-05
-3.48088e-05
1.02496e-06
-1.38405e-05
-3.13234e-05
1.21059e-06
-1.30016e-05
-2.73691e-05
1.48993e-06
-9.96242e-06
-2.20746e-05
1.90543e-06
-5.8741e-06
-1.52696e-05
2.29624e-06
-2.17141e-06
-8.17546e-06
2.52433e-06
4.85068e-07
-1.9281e-06
2.65412e-06
2.6338e-06
3.14719e-06
2.77683e-06
4.6532e-06
7.60974e-06
2.91548e-06
6.34209e-06
1.1592e-05
3.01152e-06
7.4104e-06
1.45956e-05
2.97319e-06
8.11438e-06
1.63036e-05
2.78757e-06
8.8729e-06
1.7145e-05
2.51067e-06
9.87814e-06
1.77411e-05
2.19631e-06
1.11086e-05
1.85016e-05
1.87453e-06
1.24197e-05
1.96804e-05
1.54571e-06
1.33696e-05
2.17326e-05
1.18448e-06
1.26576e-05
2.58563e-05
7.5215e-07
8.70001e-06
3.3392e-05
2.71021e-07
3.99992e-06
4.30439e-05
2.15384e-08
1.69893e-06
5.09496e-05
9.833e-08
2.9966e-07
5.08137e-05
2.32808e-07
3.99865e-05
2.83207e-07
3.61919e-07
-4.6304e-05
-7.27372e-07
2.28433e-06
-6.07961e-05
-8.49956e-07
4.12076e-06
-6.27509e-05
-6.01145e-07
5.61676e-06
-6.25698e-05
-3.27373e-07
6.71766e-06
-6.14528e-05
-9.6907e-08
7.36484e-06
-5.94747e-05
8.82622e-08
7.46956e-06
-5.65436e-05
2.25963e-07
6.92881e-06
-5.26434e-05
2.97845e-07
5.63423e-06
-4.81218e-05
3.3149e-07
3.59375e-06
-4.36051e-05
3.67943e-07
1.05511e-06
-3.95596e-05
4.34469e-07
-1.60124e-06
-3.60586e-05
5.37722e-07
-4.09096e-06
-3.29411e-05
6.74165e-07
-6.17436e-06
-3.00527e-05
8.43097e-07
-7.334e-06
-2.72381e-05
1.06743e-06
-6.62506e-06
-2.41161e-05
1.41382e-06
-3.70256e-06
-1.99882e-05
1.92999e-06
3.75102e-07
-1.45516e-05
2.44995e-06
4.13824e-06
-8.34386e-06
2.781e-06
6.72933e-06
-2.27927e-06
2.9241e-06
8.4989e-06
2.90283e-06
2.99019e-06
9.78186e-06
7.27203e-06
3.06078e-06
1.03366e-05
1.09193e-05
3.12025e-06
9.8838e-06
1.364e-05
3.10101e-06
8.74431e-06
1.52944e-05
2.97747e-06
7.5553e-06
1.61779e-05
2.75567e-06
6.72501e-06
1.69001e-05
2.45529e-06
6.29289e-06
1.80397e-05
2.1035e-06
5.99884e-06
2.03277e-05
1.68412e-06
5.15411e-06
2.53452e-05
1.11414e-06
2.21549e-06
3.5064e-05
3.43654e-07
-2.54943e-06
4.6447e-05
-2.47898e-07
-3.55123e-06
5.12069e-05
-3.91091e-07
-2.88024e-06
4.96603e-05
-3.22153e-07
3.65853e-05
-1.43896e-07
2.1707e-06
-4.79931e-05
-3.82253e-07
3.65192e-06
-6.17468e-05
-4.09354e-07
4.92154e-06
-6.34901e-05
-4.1903e-07
5.93937e-06
-6.31393e-05
-3.40547e-07
6.65311e-06
-6.18223e-05
-2.3493e-07
7.03068e-06
-5.9604e-05
-1.35665e-07
7.09858e-06
-5.64344e-05
-6.0916e-08
6.98367e-06
-5.23909e-05
-1.75557e-08
6.78845e-06
-4.78089e-05
8.4442e-09
6.43003e-06
-4.316e-05
4.68702e-08
5.75599e-06
-3.88525e-05
1.02828e-07
4.72841e-06
-3.50877e-05
1.84294e-07
3.43955e-06
-3.18334e-05
2.88425e-07
1.98903e-06
-2.89347e-05
4.1181e-07
4.98841e-07
-2.625e-05
5.5426e-07
-6.46628e-07
-2.3666e-05
7.31679e-07
-6.07926e-07
-2.09841e-05
1.00452e-06
1.16589e-06
-1.77105e-05
1.48494e-06
4.19302e-06
-1.33675e-05
2.14931e-06
7.38616e-06
-8.06932e-06
2.75954e-06
9.62646e-06
-2.34449e-06
3.1348e-06
1.04825e-05
3.21255e-06
3.27587e-06
1.01223e-05
7.99477e-06
3.30379e-06
8.65724e-06
1.1766e-05
3.31298e-06
6.10423e-06
1.45001e-05
3.28569e-06
2.57422e-06
1.64381e-05
3.19293e-06
-1.50431e-06
1.78789e-05
3.04346e-06
-5.42504e-06
1.91584e-05
2.83448e-06
-8.28147e-06
2.09062e-05
2.54556e-06
-8.63081e-06
2.43309e-05
2.11585e-06
-5.32667e-06
3.15098e-05
1.41425e-06
-2.02511e-06
4.31841e-05
4.55535e-07
-8.91723e-07
4.99605e-05
-2.24463e-07
-2.95361e-07
4.89928e-05
-4.5217e-07
3.60523e-05
-1.06567e-07
3.48124e-06
-5.09353e-05
-2.4223e-07
4.9214e-06
-6.27353e-05
-3.10189e-07
5.75889e-06
-6.39388e-05
-3.38189e-07
6.28451e-06
-6.33223e-05
-3.32088e-07
6.52712e-06
-6.17605e-05
-3.14655e-07
6.49188e-06
-5.92888e-05
-3.02255e-07
6.23644e-06
-5.58997e-05
-3.04646e-07
5.94387e-06
-5.18016e-05
-3.15734e-07
5.88239e-06
-4.74355e-05
-3.17099e-07
6.21782e-06
-4.31853e-05
-2.96434e-07
6.89068e-06
-3.92383e-05
-2.51705e-07
7.70361e-06
-3.56588e-05
-1.8696e-07
8.48426e-06
-3.24369e-05
-1.09531e-07
9.14131e-06
-2.94923e-05
-2.87347e-08
9.57173e-06
-2.66992e-05
8.27704e-08
9.69036e-06
-2.39401e-05
2.05535e-07
9.55405e-06
-2.11485e-05
3.34968e-07
9.62077e-06
-1.82476e-05
4.95195e-07
1.05954e-05
-1.50657e-05
7.62071e-07
1.26461e-05
-1.12873e-05
1.25949e-06
1.5182e-05
-6.71536e-06
1.98882e-06
1.74034e-05
-1.56294e-06
2.72808e-06
1.82357e-05
4.0775e-06
3.22036e-06
1.73924e-05
9.30154e-06
3.37125e-06
1.51115e-05
1.34498e-05
3.33513e-06
1.18287e-05
1.64214e-05
3.26585e-06
7.93746e-06
1.85356e-05
3.17118e-06
3.68154e-06
2.02854e-05
3.05749e-06
-2.76721e-07
2.19196e-05
2.94004e-06
-2.33675e-06
2.39044e-05
2.79285e-06
2.93983e-07
2.76044e-05
2.53176e-06
6.52797e-06
3.72154e-05
1.95677e-06
6.91164e-06
4.95608e-05
1.07355e-06
4.94337e-06
5.09831e-05
5.3856e-07
4.06824e-05
7.0977e-07
2.42538e-06
-5.28042e-05
-3.22583e-07
3.47199e-06
-6.32059e-05
-5.28429e-07
4.04098e-06
-6.40473e-05
-4.99469e-07
4.43235e-06
-6.33444e-05
-4.51902e-07
4.75962e-06
-6.17937e-05
-4.14123e-07
5.1705e-06
-5.94681e-05
-3.93546e-07
5.84385e-06
-5.63756e-05
-3.97731e-07
6.87304e-06
-5.26219e-05
-4.23641e-07
8.20264e-06
-4.85104e-05
-4.51453e-07
9.74494e-06
-4.44245e-05
-4.61717e-07
1.14716e-05
-4.06319e-05
-4.4968e-07
1.33583e-05
-3.72025e-05
-4.21311e-07
1.53308e-05
-3.40703e-05
-3.84844e-07
1.72865e-05
-3.11215e-05
-3.46487e-07
1.91358e-05
-2.82413e-05
-3.0843e-07
2.08137e-05
-2.53408e-05
-2.66873e-07
2.2255e-05
-2.23629e-05
-2.12228e-07
2.33881e-05
-1.92325e-05
-1.36774e-07
2.41988e-05
-1.58286e-05
-4.36905e-08
2.48678e-05
-1.20583e-05
1.04471e-07
2.58954e-05
-8.06606e-06
3.45084e-07
2.76428e-05
-4.01741e-06
7.87471e-07
3.01353e-05
2.2229e-07
1.53015e-06
3.1612e-05
5.65466e-06
2.39256e-06
3.15285e-05
1.0775e-05
2.96199e-06
3.02888e-05
1.47456e-05
3.06523e-06
2.90371e-05
1.7011e-05
2.90627e-06
2.8576e-05
1.82025e-05
2.67109e-06
2.79845e-05
2.0144e-05
2.44319e-06
2.49019e-05
2.45899e-05
2.29286e-06
1.94755e-05
3.06955e-05
2.22735e-06
1.48186e-05
4.01168e-05
2.28118e-06
1.02315e-05
5.29473e-05
2.09696e-06
5.48276e-06
5.46652e-05
1.72477e-06
4.52181e-05
1.26892e-06
-1.55325e-06
-5.11097e-05
-3.88384e-07
-1.67107e-06
-6.2623e-05
-7.12686e-07
-1.34416e-06
-6.38435e-05
-7.66048e-07
-7.38962e-07
-6.34347e-05
-7.5051e-07
1.95334e-07
-6.22731e-05
-7.04626e-07
1.59875e-06
-6.05116e-05
-6.36683e-07
3.63864e-06
-5.81707e-05
-5.55493e-07
6.35547e-06
-5.5195e-05
-4.77115e-07
9.51718e-06
-5.15792e-05
-4.17665e-07
1.27232e-05
-4.75336e-05
-3.809e-07
1.56874e-05
-4.34674e-05
-3.60138e-07
1.83683e-05
-3.97202e-05
-3.49129e-07
2.08607e-05
-3.63657e-05
-3.49175e-07
2.32262e-05
-3.32455e-05
-3.68257e-07
2.54016e-05
-3.01084e-05
-4.14198e-07
2.72254e-05
-2.67682e-05
-4.84142e-07
2.86322e-05
-2.32834e-05
-5.57703e-07
2.9825e-05
-1.98732e-05
-6.07202e-07
3.10328e-05
-1.64724e-05
-6.04943e-07
3.21609e-05
-1.26927e-05
-5.26969e-07
3.28701e-05
-8.41685e-06
-3.84117e-07
3.31875e-05
-4.14568e-06
-1.96965e-07
3.36398e-05
-2.72691e-07
7.38738e-08
3.53546e-05
3.47538e-06
5.80815e-07
3.72954e-05
7.65667e-06
1.41762e-06
3.84078e-05
1.17225e-05
2.27203e-06
3.87949e-05
1.43527e-05
2.72124e-06
3.86069e-05
1.60369e-05
2.67973e-06
3.58812e-05
2.03135e-05
2.17733e-06
2.7919e-05
2.98423e-05
1.20108e-06
1.44226e-05
4.12121e-05
2.96767e-07
1.34009e-06
5.00199e-05
2.23109e-07
-3.39425e-06
5.56e-05
6.05337e-07
-4.10066e-06
5.38795e-05
6.86747e-07
4.00861e-05
1.98242e-07
-2.01864e-06
-4.91667e-05
-3.09418e-07
-2.23074e-06
-6.20536e-05
-6.19465e-07
-1.789e-06
-6.36875e-05
-7.91898e-07
-9.63934e-07
-6.35542e-05
-8.72864e-07
2.00161e-07
-6.27002e-05
-8.92689e-07
1.68462e-06
-6.12843e-05
-8.63303e-07
3.4833e-06
-5.93314e-05
-7.93528e-07
5.59115e-06
-5.67777e-05
-6.9361e-07
7.93743e-06
-5.35258e-05
-5.80179e-07
1.03115e-05
-4.96067e-05
-4.76196e-07
1.24124e-05
-4.53207e-05
-3.98656e-07
1.40125e-05
-4.10943e-05
-3.51037e-07
1.50543e-05
-3.71865e-05
-3.32531e-07
1.5616e-05
-3.35674e-05
-3.50922e-07
1.58258e-05
-3.00078e-05
-4.26899e-07
1.57829e-05
-2.62678e-05
-5.77469e-07
1.54865e-05
-2.23313e-05
-7.73734e-07
1.48913e-05
-1.8443e-05
-9.43697e-07
1.41349e-05
-1.47682e-05
-1.04064e-06
1.36028e-05
-1.11855e-05
-1.04976e-06
1.34667e-05
-7.38726e-06
-9.51728e-07
1.33501e-05
-3.32214e-06
-7.47522e-07
1.26776e-05
8.25429e-07
-4.46792e-07
1.13076e-05
4.82277e-06
2.51148e-08
9.03917e-06
9.19342e-06
7.67885e-07
5.3296e-06
1.36186e-05
1.87217e-06
-2.01097e-07
1.70586e-05
2.87412e-06
-6.69231e-06
1.95196e-05
3.14469e-06
-1.17753e-05
2.34042e-05
2.44637e-06
-1.39525e-05
3.12811e-05
1.15353e-06
-1.54081e-05
4.21402e-05
-1.25974e-07
-1.5819e-05
4.94025e-05
-7.88979e-07
-1.23546e-05
5.14406e-05
-9.36829e-07
-7.18436e-06
4.8448e-05
-8.88786e-07
3.29657e-05
-7.11885e-07
-4.93236e-07
-4.86926e-05
3.77878e-08
-1.19243e-06
-6.11254e-05
-1.7291e-07
-1.79372e-06
-6.26436e-05
-3.74269e-07
-2.22361e-06
-6.25299e-05
-5.23594e-07
-2.49518e-06
-6.17289e-05
-6.31184e-07
-2.65274e-06
-6.03627e-05
-7.01644e-07
-2.72359e-06
-5.84735e-05
-7.36901e-07
-2.68675e-06
-5.60507e-05
-7.35223e-07
-2.48092e-06
-5.30383e-05
-6.94022e-07
-2.11072e-06
-4.93809e-05
-6.21053e-07
-1.7932e-06
-4.51286e-05
-5.39262e-07
-1.92969e-06
-4.04975e-05
-4.76865e-07
-2.88142e-06
-3.5779e-05
-4.58346e-07
-4.7295e-06
-3.12116e-05
-5.0695e-07
-7.12045e-06
-2.69778e-05
-6.4328e-07
-9.34483e-06
-2.31959e-05
-8.59761e-07
-1.08721e-05
-1.97248e-05
-1.10162e-06
-1.17777e-05
-1.62598e-05
-1.30999e-06
-1.24704e-05
-1.26572e-05
-1.45577e-06
-1.31087e-05
-9.05551e-06
-1.52726e-06
-1.34125e-05
-5.58815e-06
-1.52182e-06
-1.32055e-05
-2.10586e-06
-1.43611e-06
-1.2579e-05
1.44608e-06
-1.24789e-06
-1.21622e-05
5.30141e-06
-8.97471e-07
-1.26181e-05
9.90103e-06
-2.81366e-07
-1.46727e-05
1.49182e-05
6.60135e-07
-1.89979e-05
1.94604e-05
1.77223e-06
-2.46253e-05
2.2436e-05
2.70723e-06
-2.78207e-05
2.40768e-05
3.26861e-06
-2.43986e-05
2.66241e-05
3.30787e-06
-1.4481e-05
3.25884e-05
2.56989e-06
-3.16309e-06
3.96164e-05
1.44498e-06
2.04829e-06