/*--------------------------------*- C++ -*----------------------------------*\
| =========                 |                                                 |
| \\      /  F ield         | OpenFOAM: The Open Source CFD Toolbox           |
|  \\    /   O peration     | Version:  v2006                                 |
|   \\  /    A nd           | Website:  www.openfoam.com                      |
|    \\/     M anipulation  |                                                 |
\*---------------------------------------------------------------------------*/
FoamFile
{
    version     2.0;
    format      ascii;
    class       volVectorField;
    location    "98";
    object      U;
}
// * * * * * * * * * * * * * * * * * * * * * * * * * * * * * * * * * * * * * //

dimensions      [0 1 -1 0 0 0 0];


internalField   nonuniform List<vector> 
78750
(
(-0.0699025 -0.208866 -0.415607)
(0.424204 -0.196877 -0.407067)
(0.481832 -0.2072 -0.413397)
(0.42065 -0.207316 -0.413475)
(0.393559 -0.201473 -0.413401)
(0.399311 -0.191121 -0.410636)
(0.422058 -0.180814 -0.409821)
(0.448373 -0.170591 -0.407752)
(0.470413 -0.16104 -0.407951)
(0.490394 -0.15201 -0.407037)
(0.504021 -0.143417 -0.407948)
(0.515954 -0.135393 -0.408147)
(0.522662 -0.128158 -0.409552)
(0.527307 -0.121855 -0.410778)
(0.527759 -0.115567 -0.412235)
(0.528619 -0.110238 -0.414037)
(0.529346 -0.104075 -0.415019)
(0.531151 -0.0992232 -0.417267)
(0.529795 -0.0931291 -0.417749)
(0.524608 -0.0887052 -0.420236)
(0.514596 -0.082496 -0.419773)
(0.503913 -0.0780887 -0.421897)
(0.492029 -0.0719435 -0.419958)
(0.479143 -0.0679731 -0.421511)
(0.461351 -0.0627262 -0.4175)
(0.440239 -0.0596978 -0.417924)
(0.414726 -0.0560501 -0.409838)
(0.386839 -0.0555676 -0.407538)
(0.354443 -0.0554816 -0.390666)
(0.317305 -0.0624311 -0.38475)
(0.27495 -0.0690392 -0.35027)
(0.224922 -0.0938924 -0.356144)
(0.170656 -0.108834 -0.287944)
(0.0948014 -0.19207 -0.403893)
(0.0172876 -0.145513 -0.407584)
(-0.0411722 0.8617 -0.202255)
(-0.142172 0.520845 -0.312812)
(-0.134355 0.477465 -0.437297)
(-0.153579 0.553688 -0.299672)
(-0.159172 0.456666 -0.331763)
(-0.148667 0.415454 -0.267079)
(-0.136522 0.380832 -0.265326)
(-0.12596 0.345423 -0.247243)
(-0.099368 0.310362 -0.300496)
(-0.0833415 0.296582 -0.291951)
(-0.0615997 0.286094 -0.300784)
(-0.0389532 0.283499 -0.308274)
(-0.013015 0.290083 -0.319051)
(0.0141032 0.302496 -0.331931)
(0.0408867 0.316191 -0.346333)
(0.0654245 0.328023 -0.359171)
(0.0872369 0.33686 -0.370562)
(0.106074 0.34497 -0.379203)
(0.122028 0.354376 -0.386834)
(0.135406 0.36686 -0.39225)
(0.146364 0.38151 -0.396556)
(0.155432 0.397872 -0.397844)
(0.162416 0.414932 -0.397031)
(0.167824 0.43401 -0.393373)
(0.17096 0.45575 -0.386838)
(0.172347 0.48033 -0.379706)
(0.171336 0.508831 -0.36876)
(0.167894 0.539332 -0.359898)
(0.161855 0.574796 -0.345625)
(0.151697 0.611603 -0.335559)
(0.13859 0.653458 -0.314835)
(0.117258 0.694488 -0.306194)
(0.0916168 0.737224 -0.280839)
(0.0549931 0.791599 -0.312156)
(0.00779485 0.747719 -0.277585)
(-0.0357335 1.00383 -0.230471)
(-0.0138156 0.449748 -0.269996)
(-0.0231187 0.213363 -0.307259)
(0.0256386 -0.0409715 -0.165192)
(0.0419763 -0.0885835 -0.129401)
(0.082677 -0.195081 -0.0576033)
(0.110013 -0.275821 -0.00523053)
(0.126605 -0.282001 0.02337)
(0.143539 -0.24526 0.0274599)
(0.156805 -0.22296 0.0267161)
(0.162638 -0.244576 0.0401903)
(0.159535 -0.290449 0.07075)
(0.150466 -0.319218 0.103702)
(0.139572 -0.306354 0.125892)
(0.129887 -0.258531 0.133513)
(0.121183 -0.19389 0.127426)
(0.113014 -0.128846 0.112082)
(0.105868 -0.0695562 0.0917099)
(0.100151 -0.0163084 0.0688632)
(0.0960451 0.0317304 0.0465082)
(0.0932273 0.0739034 0.0264992)
(0.0913604 0.110887 0.0105967)
(0.089579 0.143879 -0.00218839)
(0.0878106 0.175063 -0.0117591)
(0.0850721 0.205504 -0.021089)
(0.081737 0.235658 -0.0307694)
(0.0764977 0.266732 -0.0433321)
(0.0702926 0.296392 -0.0612388)
(0.0621383 0.33065 -0.0812281)
(0.0533491 0.364633 -0.112811)
(0.0438902 0.413077 -0.135938)
(0.0333733 0.468974 -0.168148)
(0.0220641 0.553038 -0.168767)
(0.0131989 0.621163 -0.243759)
(-0.00239791 0.528281 -0.218427)
(0.00908244 0.705578 -0.213777)
(0.0653472 0.196064 -0.0344113)
(0.0747954 -0.0520194 0.133453)
(0.104856 -0.191507 0.210372)
(0.135582 -0.256114 0.240293)
(0.153706 -0.2475 0.251036)
(0.163985 -0.179679 0.242933)
(0.160429 -0.121897 0.222148)
(0.154434 -0.0738022 0.189389)
(0.150283 0.00324685 0.127208)
(0.143151 0.108421 0.045583)
(0.130849 0.203905 -0.0221575)
(0.114571 0.263093 -0.0565178)
(0.0950076 0.28697 -0.0558206)
(0.074332 0.286186 -0.0241159)
(0.0561306 0.27803 0.0199161)
(0.0411395 0.269685 0.0581551)
(0.0287118 0.26169 0.0863229)
(0.0190807 0.255541 0.105354)
(0.0135054 0.256802 0.115701)
(0.0109148 0.265513 0.120139)
(0.010362 0.27962 0.121822)
(0.0117923 0.298826 0.12229)
(0.0148298 0.323565 0.122577)
(0.0187415 0.354834 0.122655)
(0.0230124 0.393175 0.122943)
(0.0262129 0.437602 0.121175)
(0.0278306 0.484815 0.115547)
(0.0264715 0.534089 0.101637)
(0.0228666 0.576603 0.0675264)
(0.0166475 0.616243 0.0159399)
(0.0100217 0.632182 -0.0720601)
(-0.00168108 0.64242 -0.141895)
(0.000185851 0.643837 -0.268344)
(-0.00701929 0.564798 -0.197026)
(0.0336245 0.506298 -0.0958984)
(0.0233208 0.317202 0.14707)
(0.00384829 -0.127867 0.173947)
(-0.00289155 -0.411609 0.106036)
(-0.0162493 -0.348051 0.118193)
(-0.0239372 -0.29962 0.122689)
(-0.025757 -0.220353 0.116973)
(-0.0264253 -0.164504 0.10188)
(-0.0248275 -0.109492 0.0861987)
(-0.0235111 -0.0659409 0.0723246)
(-0.020037 -0.0297787 0.060484)
(-0.0132267 0.000667784 0.0517544)
(-0.00381961 0.0252168 0.0485567)
(0.00590079 0.0453481 0.0519129)
(0.0142103 0.0629062 0.0610023)
(0.0205177 0.0782584 0.0733399)
(0.0247536 0.0894175 0.086319)
(0.0273217 0.0950168 0.0983374)
(0.0288768 0.0961039 0.108831)
(0.0301146 0.0959999 0.117729)
(0.0315972 0.0974927 0.125421)
(0.0338271 0.101941 0.132426)
(0.0370374 0.110367 0.138898)
(0.0412859 0.123873 0.144791)
(0.0465859 0.144486 0.150073)
(0.0529195 0.175567 0.155256)
(0.0597072 0.219318 0.16048)
(0.0659134 0.274745 0.166424)
(0.0700397 0.343803 0.171475)
(0.0709939 0.424643 0.168638)
(0.0664727 0.520248 0.151289)
(0.0573114 0.60854 0.0747034)
(0.0326059 0.708581 -0.0552837)
(0.0160944 0.751326 -0.179098)
(0.00271451 0.697145 -0.112473)
(0.0184188 0.38866 -0.00834626)
(0.0203477 0.349123 0.167192)
(0.0380069 -0.0709063 0.175426)
(0.0388979 -0.211363 0.180764)
(0.0369386 -0.273561 0.169691)
(0.0410695 -0.288338 0.161975)
(0.0459533 -0.282936 0.157359)
(0.0519842 -0.23888 0.146396)
(0.0537772 -0.156837 0.111718)
(0.0520154 -0.0726995 0.071049)
(0.0492669 -0.00648553 0.0433131)
(0.0468849 0.0423119 0.0301289)
(0.0451094 0.0778942 0.0269288)
(0.0438359 0.103784 0.029686)
(0.0427287 0.12256 0.0358135)
(0.0415848 0.135585 0.0434904)
(0.0403031 0.143385 0.0513747)
(0.038742 0.146629 0.0591238)
(0.0366753 0.146132 0.0673129)
(0.0339908 0.143152 0.0763703)
(0.0308776 0.139871 0.0857234)
(0.0276384 0.138443 0.094386)
(0.0246375 0.140129 0.101725)
(0.0223203 0.145404 0.107746)
(0.0208681 0.155697 0.113253)
(0.020597 0.176203 0.119757)
(0.0219803 0.213824 0.129298)
(0.0240698 0.267089 0.143861)
(0.0250626 0.332472 0.165159)
(0.0242567 0.418624 0.192494)
(0.0209337 0.541349 0.209383)
(0.0131497 0.682402 0.163866)
(0.000966484 0.792234 0.0644611)
(-0.00459851 0.812821 0.00618659)
(-0.00267532 0.742361 0.0471038)
(-0.00272782 0.237064 0.113033)
(0.0247724 0.0707512 0.185453)
(0.0388916 -0.314542 0.164314)
(0.0344007 -0.470502 0.152504)
(0.0294863 -0.498494 0.154797)
(0.0229676 -0.487958 0.161226)
(0.0171008 -0.42897 0.170227)
(0.0156523 -0.322192 0.171299)
(0.0207314 -0.203847 0.153269)
(0.0280411 -0.1047 0.118232)
(0.0333572 -0.0376422 0.081136)
(0.0349664 0.00210654 0.0562084)
(0.034212 0.028084 0.0441798)
(0.0328339 0.0482775 0.0396688)
(0.0314729 0.0651555 0.03949)
(0.0302706 0.0791088 0.0422011)
(0.0290709 0.0900645 0.0469199)
(0.0276248 0.0980079 0.052986)
(0.02568 0.103192 0.0598701)
(0.0230673 0.106123 0.0670439)
(0.0197591 0.107491 0.0739343)
(0.0158722 0.108089 0.0800721)
(0.0116148 0.108723 0.0852517)
(0.00730017 0.110178 0.0895433)
(0.0032735 0.113594 0.0933582)
(-0.000499569 0.122903 0.0977425)
(-0.00368673 0.149117 0.104603)
(-0.00556327 0.20125 0.115894)
(-0.0074838 0.271753 0.133079)
(-0.0106362 0.357078 0.159576)
(-0.0139539 0.476119 0.194324)
(-0.0162534 0.627465 0.206869)
(-0.0168758 0.723269 0.175847)
(-0.0150188 0.726035 0.152513)
(-0.00440784 0.627675 0.156323)
(0.00637348 0.124919 0.135834)
(0.0410793 -0.162979 0.121909)
(0.0595858 -0.285969 0.0809418)
(0.0632482 -0.316921 0.0555299)
(0.0617158 -0.330641 0.0423986)
(0.0610304 -0.341128 0.0367536)
(0.0621917 -0.355439 0.0399213)
(0.0655148 -0.365892 0.0585844)
(0.0714403 -0.337359 0.102362)
(0.0784082 -0.246203 0.153383)
(0.0831435 -0.116653 0.166811)
(0.0836391 -0.00241786 0.13419)
(0.0789675 0.0667201 0.0915957)
(0.0705875 0.10106 0.064376)
(0.0618574 0.119223 0.051467)
(0.0540014 0.13012 0.0462892)
(0.0469663 0.136856 0.0452357)
(0.0404086 0.140872 0.0466743)
(0.0340579 0.143089 0.0496611)
(0.0277821 0.144131 0.0534088)
(0.0215214 0.144469 0.0572629)
(0.0152343 0.144524 0.0608364)
(0.00888295 0.144726 0.0640384)
(0.00242904 0.145602 0.0670116)
(-0.00410037 0.14799 0.0700881)
(-0.0104906 0.153795 0.07387)
(-0.0164263 0.168263 0.0795212)
(-0.0208983 0.201292 0.088765)
(-0.0231015 0.256906 0.101987)
(-0.0243392 0.325192 0.118353)
(-0.024619 0.407294 0.141027)
(-0.021316 0.518361 0.169365)
(-0.0154221 0.59927 0.179084)
(-0.0102809 0.600308 0.171882)
(-0.00116962 0.503885 0.14999)
(0.0140404 -0.210916 0.0691016)
(0.0328708 -0.450723 0.0266443)
(0.0424037 -0.547633 0.00471409)
(0.0499097 -0.582446 -0.00171443)
(0.0557548 -0.58977 -0.0013999)
(0.0603276 -0.58226 0.00269159)
(0.0636432 -0.563016 0.00929307)
(0.064876 -0.527189 0.018988)
(0.0643042 -0.456918 0.038753)
(0.0627348 -0.352579 0.0820384)
(0.061049 -0.226792 0.13858)
(0.059885 -0.0897445 0.164638)
(0.0583911 0.0249927 0.140647)
(0.0540845 0.0887536 0.100636)
(0.0481303 0.116025 0.0742147)
(0.0423171 0.130595 0.0611684)
(0.0370363 0.141577 0.0548119)
(0.0323712 0.150239 0.0517982)
(0.0281759 0.156353 0.0506944)
(0.0241529 0.160109 0.0506988)
(0.0201417 0.162157 0.0512968)
(0.0161171 0.163297 0.0521676)
(0.0120854 0.164273 0.053155)
(0.00804033 0.165714 0.0542507)
(0.00398428 0.168212 0.0555751)
(1.01099e-05 0.172617 0.0573867)
(-0.00368489 0.181081 0.0602244)
(-0.00661622 0.199397 0.0652681)
(-0.00782458 0.236985 0.0741554)
(-0.00747546 0.294926 0.0863871)
(-0.00755299 0.36108 0.0995505)
(-0.00748422 0.439131 0.116281)
(-0.00441645 0.511304 0.129768)
(-0.00237445 0.522963 0.127198)
(0.000438933 0.450293 0.103988)
(0.0059624 -0.26456 0.015109)
(0.011889 -0.435255 -0.0226318)
(0.0122834 -0.47371 -0.0327509)
(0.0098732 -0.48198 -0.034755)
(0.00606423 -0.482335 -0.0342923)
(0.00185382 -0.4776 -0.0319328)
(-0.00201043 -0.466 -0.0265367)
(-0.00527672 -0.439484 -0.0140775)
(-0.00629855 -0.381567 0.0108261)
(-0.00389345 -0.292681 0.0449032)
(0.000222995 -0.194497 0.086767)
(0.0056108 -0.0920524 0.127557)
(0.0119284 0.0127432 0.14207)
(0.0174991 0.100195 0.121787)
(0.0203831 0.151129 0.0877607)
(0.0204186 0.168426 0.0643668)
(0.0188492 0.172104 0.0540829)
(0.0164706 0.173691 0.0501509)
(0.0139331 0.175619 0.0484463)
(0.011716 0.177507 0.0474025)
(0.00977407 0.178888 0.0465355)
(0.00790117 0.179787 0.0457481)
(0.00600994 0.180575 0.0450919)
(0.00409843 0.181765 0.0446742)
(0.00219031 0.1839 0.0446354)
(0.00033833 0.187598 0.0451624)
(-0.00134485 0.193994 0.0465491)
(-0.00262514 0.206307 0.0494446)
(-0.00290055 0.232761 0.0553955)
(-0.00132155 0.285111 0.0662393)
(0.00113292 0.36129 0.0797317)
(0.00140859 0.436407 0.0902831)
(0.00148071 0.486617 0.0962564)
(0.000560562 0.496851 0.0933313)
(0.000436073 0.425243 0.0730969)
(0.00131131 -0.351458 -0.00489963)
(-0.00272232 -0.520334 -0.0134666)
(-0.00547717 -0.554369 -0.0106736)
(-0.00777867 -0.562177 -0.00805517)
(-0.0098801 -0.56186 -0.00594016)
(-0.0119152 -0.556219 -0.00443191)
(-0.0139725 -0.545711 -0.00354977)
(-0.0158467 -0.528069 -0.00271429)
(-0.0164298 -0.493971 0.00086972)
(-0.0128746 -0.42971 0.0130848)
(-0.00470747 -0.339891 0.0354575)
(0.00623287 -0.24085 0.0667104)
(0.017826 -0.141417 0.101361)
(0.0285319 -0.0466135 0.125978)
(0.0369973 0.0367256 0.131659)
(0.0423698 0.10476 0.118839)
(0.043255 0.148563 0.0949049)
(0.040308 0.165232 0.0744664)
(0.0358578 0.169264 0.0631015)
(0.0309995 0.171583 0.0573176)
(0.026392 0.174571 0.0536876)
(0.0224466 0.177897 0.0507847)
(0.0190688 0.18124 0.0482065)
(0.0160597 0.184679 0.0459162)
(0.013305 0.188543 0.0439889)
(0.0107465 0.193312 0.0425563)
(0.00837368 0.199689 0.0418334)
(0.00627688 0.209174 0.0422074)
(0.00471279 0.225986 0.0445963)
(0.00437801 0.260335 0.0513278)
(0.00611003 0.325709 0.0648513)
(0.00828534 0.414349 0.0791499)
(0.00780927 0.477244 0.0841391)
(0.00532752 0.493557 0.0813156)
(0.00304998 0.421352 0.0626787)
(-0.00486337 -0.305394 -0.0145127)
(-0.00903597 -0.470353 -0.0267816)
(-0.00957184 -0.515574 -0.0312956)
(-0.00928341 -0.529616 -0.0341779)
(-0.00879535 -0.532559 -0.0367165)
(-0.00822811 -0.528253 -0.0391871)
(-0.00774302 -0.518025 -0.0413731)
(-0.00738702 -0.503588 -0.0428214)
(-0.00691913 -0.486157 -0.0427658)
(-0.00554002 -0.461482 -0.039388)
(-0.000979925 -0.415935 -0.0285755)
(0.00805289 -0.341571 -0.00750223)
(0.0200453 -0.245942 0.0235388)
(0.032303 -0.143395 0.0604589)
(0.0422375 -0.0486456 0.0943698)
(0.0490104 0.0322683 0.117167)
(0.0529347 0.102181 0.124971)
(0.0540386 0.160074 0.116189)
(0.0513156 0.192872 0.0960875)
(0.0459723 0.200109 0.0776459)
(0.0400302 0.197726 0.0661247)
(0.0341718 0.195195 0.0591789)
(0.0289968 0.194548 0.0541571)
(0.0247103 0.195641 0.0497756)
(0.0211983 0.198265 0.0456858)
(0.0183122 0.202512 0.0419484)
(0.0159569 0.208745 0.0387296)
(0.014104 0.217795 0.0362069)
(0.0127968 0.23204 0.034708)
(0.0121982 0.258093 0.0355738)
(0.0124215 0.308919 0.0432509)
(0.0123874 0.391142 0.0614419)
(0.00972676 0.472245 0.0752848)
(0.00593302 0.497734 0.0755672)
(0.00307976 0.432443 0.0587134)
(-0.00062746 -0.309304 -0.0204284)
(0.00630723 -0.53457 -0.0288354)
(0.00964708 -0.594528 -0.0314216)
(0.0128108 -0.609707 -0.0329696)
(0.0155085 -0.611328 -0.0346471)
(0.0178334 -0.604804 -0.0369895)
(0.0196352 -0.590934 -0.0403318)
(0.020759 -0.569685 -0.0450035)
(0.020889 -0.542293 -0.0510896)
(0.0199583 -0.512547 -0.057766)
(0.0184987 -0.482183 -0.0629301)
(0.0180249 -0.443181 -0.062313)
(0.0211279 -0.378685 -0.0487568)
(0.0286762 -0.280693 -0.0186433)
(0.0376776 -0.166099 0.0203911)
(0.0440228 -0.0631782 0.0562319)
(0.0475863 0.0178959 0.0838483)
(0.0499595 0.0840609 0.102143)
(0.051165 0.142127 0.109654)
(0.0499573 0.187545 0.104165)
(0.0451863 0.208704 0.0898074)
(0.039076 0.212273 0.0760785)
(0.0331581 0.210394 0.0662165)
(0.0279257 0.208777 0.0592983)
(0.0235282 0.208976 0.0538655)
(0.0199282 0.211261 0.0490448)
(0.0170685 0.215856 0.0445979)
(0.0149363 0.223413 0.0406088)
(0.0134976 0.236252 0.0371164)
(0.0127282 0.262596 0.0342539)
(0.012885 0.322927 0.0343633)
(0.0120242 0.422801 0.0449228)
(0.00797023 0.503686 0.0591648)
(0.003904 0.526075 0.06165)
(0.00170118 0.448071 0.0472435)
(0.00661787 -0.358387 -0.0174872)
(0.0148681 -0.549879 -0.0215703)
(0.0155466 -0.59539 -0.0240877)
(0.0142902 -0.604639 -0.0256502)
(0.0124944 -0.602297 -0.0271781)
(0.0103659 -0.592181 -0.0288203)
(0.00822455 -0.57445 -0.0306615)
(0.00632496 -0.547982 -0.0329432)
(0.00477456 -0.512001 -0.0361813)
(0.0032638 -0.469612 -0.0408112)
(0.00124868 -0.428514 -0.0461983)
(-0.00125668 -0.392943 -0.0505619)
(-0.00346884 -0.355518 -0.0506432)
(-0.00324151 -0.29545 -0.0381601)
(0.00127509 -0.20066 -0.00970767)
(0.00688718 -0.0961842 0.0216897)
(0.0101342 -0.00981703 0.047465)
(0.01227 0.0553969 0.0680055)
(0.014721 0.109119 0.0841282)
(0.0175217 0.157841 0.0942284)
(0.0190519 0.196149 0.0947041)
(0.018028 0.214897 0.086681)
(0.01546 0.219036 0.0765524)
(0.0124977 0.217804 0.0678167)
(0.00964506 0.216425 0.0610085)
(0.00704945 0.216954 0.055522)
(0.00469844 0.220116 0.0506867)
(0.00259589 0.22653 0.0462411)
(0.000811947 0.237872 0.0422635)
(-0.000515519 0.260931 0.0389001)
(-0.000140261 0.317331 0.0370643)
(0.00342264 0.430601 0.0400966)
(0.00413711 0.520712 0.0467647)
(0.00266817 0.540568 0.0479887)
(0.0016568 0.44861 0.0364042)
(0.00438792 -0.428733 -0.00695339)
(0.00520385 -0.567799 -0.0125768)
(0.00453143 -0.593706 -0.0160616)
(0.00286673 -0.59963 -0.0186305)
(0.000617032 -0.598205 -0.0211807)
(-0.00197284 -0.591198 -0.0236959)
(-0.00479218 -0.578898 -0.0259744)
(-0.00777262 -0.560682 -0.0276864)
(-0.0107376 -0.534599 -0.0284762)
(-0.0133045 -0.497988 -0.0283293)
(-0.0152606 -0.452141 -0.0277766)
(-0.0169972 -0.404138 -0.0269042)
(-0.0189052 -0.357531 -0.0245281)
(-0.0206248 -0.30568 -0.0176898)
(-0.019689 -0.233317 -0.00141274)
(-0.0149494 -0.141688 0.0200989)
(-0.00982426 -0.0567665 0.0372194)
(-0.00590807 0.0092015 0.0503746)
(-0.00271825 0.0618545 0.0625609)
(0.000678649 0.109535 0.0743835)
(0.00417973 0.153753 0.0833346)
(0.00654152 0.18683 0.0852923)
(0.00721825 0.203751 0.0806192)
(0.00689377 0.210312 0.0734812)
(0.00627079 0.213353 0.0664428)
(0.00566774 0.216688 0.0602812)
(0.00516739 0.222072 0.0548349)
(0.00476362 0.230514 0.0497104)
(0.00438807 0.242996 0.0447676)
(0.00403958 0.261715 0.0404188)
(0.00395083 0.297847 0.0380738)
(0.00634831 0.391155 0.0407177)
(0.00746921 0.513898 0.0456431)
(0.00562909 0.546944 0.0457253)
(0.00347064 0.461799 0.0351328)
(-0.000379791 -0.425604 -0.00812603)
(0.00111176 -0.558607 -0.0158666)
(0.00300545 -0.584224 -0.0189342)
(0.00423774 -0.589129 -0.0213988)
(0.00493482 -0.585361 -0.0242079)
(0.00485197 -0.574354 -0.0276459)
(0.00374776 -0.555951 -0.0317118)
(0.00133304 -0.530441 -0.0358021)
(-0.00244508 -0.500107 -0.0385125)
(-0.00710735 -0.467682 -0.0384419)
(-0.011814 -0.433495 -0.0352994)
(-0.0158137 -0.396911 -0.0299272)
(-0.0188234 -0.358844 -0.0231082)
(-0.0208108 -0.318325 -0.0142399)
(-0.0212055 -0.268306 -0.000734158)
(-0.0180538 -0.198707 0.0193339)
(-0.0117887 -0.117857 0.0382526)
(-0.00560748 -0.0468086 0.0496488)
(-0.0010294 0.0089941 0.0568618)
(0.0023597 0.0560276 0.0642581)
(0.00548348 0.0995813 0.0729022)
(0.00835698 0.137472 0.0801361)
(0.0102795 0.162401 0.0819243)
(0.0113287 0.174315 0.0780372)
(0.0122108 0.179917 0.0711887)
(0.0134131 0.184481 0.0637859)
(0.0150194 0.190767 0.0571359)
(0.0168596 0.200306 0.0512567)
(0.0185747 0.215372 0.0453558)
(0.0192829 0.242056 0.0382823)
(0.0166916 0.292334 0.0305994)
(0.00878984 0.388498 0.0319287)
(0.00385525 0.524675 0.0399249)
(0.00119981 0.561442 0.0395612)
(4.79215e-05 0.485202 0.0295431)
(-0.000933845 -0.417835 -0.00610395)
(0.00215395 -0.572272 -0.00583317)
(0.00479567 -0.60057 -0.0065811)
(0.00706894 -0.605075 -0.00827094)
(0.00909213 -0.599738 -0.0111666)
(0.0105548 -0.585724 -0.0156705)
(0.0112851 -0.562069 -0.0221203)
(0.011095 -0.528372 -0.0302207)
(0.00974363 -0.488216 -0.038334)
(0.00717149 -0.448094 -0.0441813)
(0.00363422 -0.412018 -0.0464151)
(-0.000422198 -0.379627 -0.044955)
(-0.0044806 -0.349007 -0.0403966)
(-0.00800434 -0.319016 -0.0332925)
(-0.0105599 -0.287404 -0.0230319)
(-0.0113749 -0.24721 -0.00669635)
(-0.00862315 -0.188421 0.0179386)
(-0.00261935 -0.115922 0.0428859)
(0.00372744 -0.0474213 0.0590814)
(0.00843781 0.00837421 0.0668227)
(0.0114821 0.0543925 0.0713706)
(0.0137086 0.0948598 0.0765029)
(0.0150849 0.127259 0.0816009)
(0.015012 0.146141 0.083802)
(0.0136387 0.15438 0.0822389)
(0.0117075 0.159455 0.0774441)
(0.0100951 0.166756 0.0705113)
(0.00921245 0.179977 0.062843)
(0.00880516 0.206442 0.0544409)
(0.00822088 0.26553 0.0430359)
(0.00720728 0.376278 0.0267135)
(-0.000702989 0.496031 0.0188247)
(-0.00614112 0.570875 0.0244418)
(-0.00638804 0.580316 0.0242176)
(-0.00324004 0.467133 0.0161796)
(0.00143124 -0.422516 -0.00311606)
(0.00468301 -0.581946 -0.00291347)
(0.00639949 -0.611132 -0.00471149)
(0.00791294 -0.615126 -0.00718965)
(0.00927208 -0.608647 -0.0108083)
(0.0102097 -0.592906 -0.015996)
(0.0106493 -0.56694 -0.0230763)
(0.010703 -0.5301 -0.0318736)
(0.0105402 -0.484837 -0.0412338)
(0.0101687 -0.437124 -0.0493271)
(0.00940223 -0.393159 -0.0546726)
(0.00811237 -0.355702 -0.0568105)
(0.00631539 -0.323903 -0.0560077)
(0.00413044 -0.295908 -0.0527587)
(0.00182474 -0.270733 -0.0475097)
(-0.000230988 -0.247084 -0.03997)
(-0.00142301 -0.220125 -0.0275738)
(-0.000356759 -0.179425 -0.00496688)
(0.00371958 -0.119826 0.0267069)
(0.0089635 -0.0529885 0.0558938)
(0.0131797 0.00651589 0.0741153)
(0.0153105 0.0542222 0.0816769)
(0.0155115 0.0938826 0.084297)
(0.0141179 0.127608 0.0863726)
(0.0110613 0.150401 0.0872931)
(0.00649713 0.161355 0.0859646)
(0.000846334 0.167712 0.0829199)
(-0.00520802 0.177615 0.0782785)
(-0.01055 0.199185 0.0717127)
(-0.0136401 0.248101 0.0621185)
(-0.0111437 0.354666 0.046147)
(-0.00447936 0.507394 0.0247065)
(-0.00228562 0.572401 0.0167536)
(-0.00123651 0.570021 0.0144129)
(0.000257474 0.431723 0.0118532)
(0.00316018 -0.451912 -0.00031176)
(0.00664381 -0.594299 -0.000492149)
(0.00799823 -0.618418 -0.00248222)
(0.00881653 -0.619848 -0.00526808)
(0.00945237 -0.610907 -0.00951438)
(0.00970391 -0.592409 -0.0157269)
(0.00954816 -0.564092 -0.0241619)
(0.00916152 -0.527345 -0.034248)
(0.00890354 -0.485623 -0.0445272)
(0.00913443 -0.442341 -0.0535623)
(0.00995642 -0.400186 -0.0604827)
(0.0111574 -0.361379 -0.0649546)
(0.0124313 -0.326806 -0.0670524)
(0.0135599 -0.295543 -0.0670124)
(0.0143882 -0.265881 -0.0650573)
(0.0147852 -0.236975 -0.061444)
(0.0147928 -0.209548 -0.0564379)
(0.014693 -0.183323 -0.0493655)
(0.015125 -0.153406 -0.0368601)
(0.017218 -0.11068 -0.0129709)
(0.0210491 -0.0519484 0.0223524)
(0.0249915 0.0126338 0.0581594)
(0.027221 0.0684914 0.0822227)
(0.0268654 0.108424 0.0905223)
(0.0241889 0.137824 0.0904917)
(0.0198463 0.163269 0.0892582)
(0.0144976 0.183886 0.087244)
(0.00844343 0.1987 0.0846561)
(0.00227608 0.212783 0.082067)
(-0.00281371 0.236819 0.078944)
(-0.00347106 0.290456 0.073847)
(0.00557732 0.4178 0.0619124)
(0.0121146 0.54784 0.0423965)
(0.0112374 0.571931 0.035802)
(0.00727055 0.452686 0.0308668)
(0.00265851 -0.482917 0.00682557)
(0.00451527 -0.604807 0.00760545)
(0.00557021 -0.622564 0.00622517)
(0.00614968 -0.621015 0.00408957)
(0.00669978 -0.609612 0.000680096)
(0.00727743 -0.588857 -0.00447239)
(0.00813603 -0.558535 -0.0118458)
(0.00950884 -0.520527 -0.0213629)
(0.0114093 -0.479552 -0.0319729)
(0.0136801 -0.440039 -0.042305)
(0.0162182 -0.403678 -0.0514956)
(0.0190119 -0.3702 -0.0592409)
(0.0220058 -0.339063 -0.0654997)
(0.0250471 -0.309941 -0.0703053)
(0.0279668 -0.282202 -0.0736416)
(0.0306576 -0.254431 -0.0753007)
(0.0330488 -0.224731 -0.074865)
(0.0350395 -0.192093 -0.0720711)
(0.0365304 -0.157787 -0.0671209)
(0.0375921 -0.123789 -0.0598307)
(0.0386508 -0.088612 -0.0477858)
(0.040519 -0.0459537 -0.025373)
(0.0438122 0.0101597 0.0120039)
(0.0470901 0.0726846 0.0552697)
(0.0479035 0.123379 0.0846917)
(0.0462406 0.153761 0.0928589)
(0.0434975 0.171812 0.089811)
(0.0415983 0.189054 0.0839998)
(0.0407968 0.2058 0.0786562)
(0.0389377 0.2206 0.075972)
(0.0339227 0.242171 0.0748196)
(0.0248696 0.327526 0.0777855)
(0.0188233 0.519517 0.075888)
(0.0134656 0.582616 0.0677116)
(0.00704629 0.512817 0.0524386)
(-0.00161682 -0.487924 0.00946306)
(-0.00268252 -0.604979 0.00591812)
(-0.00231958 -0.621277 0.00400504)
(-0.00166885 -0.62014 0.0027991)
(-0.000582662 -0.610623 0.00182195)
(0.00111152 -0.594181 0.000888235)
(0.00368426 -0.571061 -0.000421637)
(0.0073431 -0.541009 -0.00286813)
(0.0119497 -0.504862 -0.00723516)
(0.0169663 -0.465773 -0.0136607)
(0.0217867 -0.427747 -0.0215237)
(0.0261365 -0.392936 -0.0300705)
(0.0300872 -0.360981 -0.0389171)
(0.0337988 -0.330239 -0.0480617)
(0.0372822 -0.299274 -0.0575755)
(0.040341 -0.267896 -0.067093)
(0.0427806 -0.236975 -0.0754753)
(0.0447061 -0.206094 -0.0813091)
(0.0464674 -0.171644 -0.0832777)
(0.0482341 -0.12975 -0.0803664)
(0.0496808 -0.0843491 -0.0733425)
(0.0505158 -0.043903 -0.0634776)
(0.0509678 -0.00827768 -0.0487744)
(0.0522005 0.0311019 -0.0216975)
(0.0552181 0.0791887 0.0219857)
(0.05779 0.123768 0.0670647)
(0.0578417 0.145842 0.094102)
(0.056085 0.14756 0.101256)
(0.0536163 0.165912 0.0917053)
(0.0482117 0.238432 0.0625365)
(0.0352674 0.338034 0.031316)
(0.00916844 0.44481 0.0325794)
(-0.0048545 0.576564 0.0485886)
(-0.00735897 0.615245 0.0463472)
(-0.00527697 0.530858 0.0296767)
(-0.00232932 -0.455768 0.000556655)
(-0.00338682 -0.593111 -0.00748095)
(-0.00308317 -0.616108 -0.00940888)
(-0.0021373 -0.619723 -0.00940017)
(-0.000695661 -0.61565 -0.00809176)
(0.00126688 -0.605709 -0.00571549)
(0.00371487 -0.59014 -0.00261244)
(0.00664752 -0.568066 0.000705336)
(0.010073 -0.538182 0.00339486)
(0.0138245 -0.500926 0.00433302)
(0.0174319 -0.460144 0.00277126)
(0.0203615 -0.420771 -0.00126754)
(0.022355 -0.385256 -0.00747619)
(0.023486 -0.352573 -0.015932)
(0.0239859 -0.319372 -0.0273287)
(0.0240835 -0.282207 -0.042192)
(0.0238193 -0.241562 -0.0588614)
(0.0230832 -0.202435 -0.0736213)
(0.0220243 -0.167014 -0.0840147)
(0.0210113 -0.131139 -0.0892276)
(0.0205121 -0.0886867 -0.0883569)
(0.0204115 -0.0417628 -0.0815609)
(0.0199238 0.0013493 -0.0694534)
(0.0185713 0.039875 -0.0491337)
(0.0162323 0.0786553 -0.0129261)
(0.0120764 0.117419 0.0401034)
(0.00506537 0.147457 0.0885305)
(-0.00599006 0.17796 0.105466)
(-0.0171377 0.248163 0.0844556)
(-0.0212134 0.383887 0.0419302)
(-0.0215801 0.541792 0.000886602)
(-0.0261107 0.63183 -0.00568221)
(-0.025477 0.65242 0.00331557)
(-0.0193441 0.623792 0.00427634)
(-0.00636472 0.446259 -0.00181541)
(-0.000265636 -0.441903 -0.00296248)
(-0.00133044 -0.585596 -0.0144096)
(-0.00226528 -0.6123 -0.0174959)
(-0.00292421 -0.617807 -0.0179494)
(-0.00348435 -0.615091 -0.0169457)
(-0.00385557 -0.606083 -0.0147104)
(-0.00407552 -0.591202 -0.0113566)
(-0.004157 -0.570126 -0.00695182)
(-0.00401605 -0.542021 -0.00166216)
(-0.00355199 -0.506385 0.00390083)
(-0.00290632 -0.464621 0.0085102)
(-0.00262523 -0.420246 0.0107739)
(-0.00337825 -0.376627 0.00955323)
(-0.00553265 -0.334963 0.00383287)
(-0.00891499 -0.294533 -0.00722076)
(-0.0126077 -0.254175 -0.0230421)
(-0.0154498 -0.213257 -0.0407876)
(-0.017188 -0.172067 -0.0574066)
(-0.0183886 -0.131883 -0.0712537)
(-0.0194403 -0.0940847 -0.0815444)
(-0.0201583 -0.058107 -0.0879904)
(-0.0202413 -0.0211699 -0.0903316)
(-0.0195958 0.0194175 -0.0874565)
(-0.0186064 0.0655005 -0.0765124)
(-0.0181726 0.117076 -0.0526105)
(-0.0194754 0.168241 -0.013428)
(-0.0241651 0.206438 0.0325907)
(-0.0325528 0.225353 0.0696942)
(-0.0407009 0.239804 0.0913929)
(-0.0410069 0.285721 0.0951667)
(-0.031475 0.389048 0.0723306)
(-0.0123541 0.484875 0.042323)
(0.000707686 0.539232 0.0222241)
(0.00590767 0.535247 0.0147181)
(0.00689935 0.389744 0.0116359)
(-0.00206889 -0.430015 -0.010064)
(-0.00481732 -0.567176 -0.0285666)
(-0.00681811 -0.592067 -0.0339526)
(-0.00845273 -0.59678 -0.0357505)
(-0.0100777 -0.593258 -0.0358041)
(-0.0115834 -0.583355 -0.0343011)
(-0.0129542 -0.567698 -0.0311872)
(-0.0141507 -0.546375 -0.0263264)
(-0.0150352 -0.519011 -0.0195831)
(-0.0153884 -0.484842 -0.0110185)
(-0.0150519 -0.443183 -0.00122903)
(-0.0141602 -0.394541 0.00841433)
(-0.0132608 -0.341347 0.015864)
(-0.0130819 -0.287715 0.0188456)
(-0.0138764 -0.239286 0.0164004)
(-0.0149808 -0.200922 0.0108523)
(-0.015737 -0.170659 0.00492524)
(-0.015794 -0.141719 -0.00141036)
(-0.0148697 -0.109917 -0.00844955)
(-0.0131963 -0.0766389 -0.0149447)
(-0.011266 -0.0449125 -0.0195148)
(-0.00906511 -0.0149598 -0.0221787)
(-0.00617671 0.0153489 -0.0235496)
(-0.00214252 0.048872 -0.023836)
(0.0036169 0.0884291 -0.0221872)
(0.0109927 0.134392 -0.0165237)
(0.0184231 0.181962 -0.00585315)
(0.0223086 0.215863 0.0095935)
(0.0224759 0.228659 0.0298241)
(0.0208563 0.234672 0.051927)
(0.0195185 0.264222 0.067218)
(0.0231459 0.33463 0.0690748)
(0.0226651 0.492963 0.0561111)
(0.0173099 0.555304 0.0479603)
(0.00932888 0.478311 0.0394437)
(-0.00124115 -0.414041 -0.0242641)
(0.000703888 -0.559993 -0.0428647)
(0.00300097 -0.588131 -0.0479256)
(0.00546179 -0.594387 -0.0503199)
(0.00806606 -0.592163 -0.0518567)
(0.010558 -0.583685 -0.0527518)
(0.012823 -0.569938 -0.0528826)
(0.0148228 -0.551744 -0.0519788)
(0.0165711 -0.529704 -0.0496082)
(0.0182576 -0.503744 -0.0451733)
(0.0203468 -0.472604 -0.0379821)
(0.0234914 -0.434325 -0.0274997)
(0.0281144 -0.388251 -0.013754)
(0.033848 -0.336915 0.00227382)
(0.0392868 -0.28584 0.0183544)
(0.0426922 -0.241384 0.031715)
(0.0435229 -0.206011 0.0410897)
(0.0425035 -0.176193 0.0466406)
(0.040631 -0.145799 0.0478734)
(0.0389491 -0.111551 0.0437172)
(0.0380726 -0.0766694 0.0359027)
(0.0379479 -0.0454784 0.0282911)
(0.0386327 -0.0186674 0.0232287)
(0.0404652 0.00569578 0.0208326)
(0.0436246 0.0313282 0.0199025)
(0.0482394 0.0637856 0.0192732)
(0.0538031 0.11429 0.0165972)
(0.058091 0.19073 0.00444346)
(0.0554531 0.251161 -0.00693493)
(0.0473439 0.283783 -0.00498362)
(0.0361128 0.317402 0.0159802)
(0.0210738 0.416022 0.0548598)
(0.010362 0.575762 0.0684695)
(0.0029551 0.620827 0.0593422)
(-9.29022e-05 0.53863 0.0404133)
(0.00310685 -0.430998 -0.0285923)
(0.00943354 -0.58817 -0.0403852)
(0.0145564 -0.619716 -0.0439821)
(0.0190488 -0.625914 -0.0461732)
(0.0236743 -0.622466 -0.0483286)
(0.0281417 -0.61186 -0.0507761)
(0.0322597 -0.594762 -0.0535875)
(0.0359103 -0.571686 -0.0566567)
(0.03886 -0.54415 -0.0596119)
(0.0408827 -0.515089 -0.0617886)
(0.0420481 -0.487427 -0.0624604)
(0.0428159 -0.461491 -0.0610255)
(0.0438386 -0.433494 -0.0567638)
(0.0457636 -0.395265 -0.0486814)
(0.0486429 -0.338496 -0.0371553)
(0.050786 -0.269389 -0.0252076)
(0.0501776 -0.206772 -0.0142469)
(0.0472737 -0.159275 -0.00297284)
(0.0436113 -0.122994 0.00998191)
(0.0402701 -0.0913491 0.0245924)
(0.0380112 -0.0599575 0.0377914)
(0.0366618 -0.0297835 0.0447265)
(0.0350776 -0.00568673 0.0444859)
(0.0329722 0.0121148 0.0410727)
(0.0308445 0.0290985 0.0377742)
(0.0289776 0.0549919 0.0350595)
(0.0271779 0.11208 0.0290738)
(0.026579 0.217676 0.00790148)
(0.0219495 0.318348 -0.0218036)
(0.0123961 0.372442 -0.0297559)
(0.00184241 0.420447 -0.0112109)
(-0.00847738 0.508169 0.0248951)