/*--------------------------------*- C++ -*----------------------------------*\
| =========                 |                                                 |
| \\      /  F ield         | OpenFOAM: The Open Source CFD Toolbox           |
|  \\    /   O peration     | Version:  v2006                                 |
|   \\  /    A nd           | Website:  www.openfoam.com                      |
|    \\/     M anipulation  |                                                 |
\*---------------------------------------------------------------------------*/
FoamFile
{
    version     2.0;
    format      ascii;
    class       volScalarField;
    location    "63";
    object      alphat;
}
// * * * * * * * * * * * * * * * * * * * * * * * * * * * * * * * * * * * * * //

dimensions      [1 -1 -1 0 0 0 0];


internalField   nonuniform List<scalar> 
78750
(
5.99451e-06
1.97213e-06
5.54017e-07
6.01861e-06
2.65496e-05
2.61941e-05
8.55895e-05
8.4169e-05
9.39619e-05
0.000121292
0.000138332
0.000148333
0.000147837
0.000161823
0.000161443
0.000162876
0.000161685
0.000159863
0.000157607
0.000155283
0.000152931
0.000150525
0.000148112
0.000145622
0.00014298
0.000139832
0.000136599
0.000132331
0.000127365
0.000124445
0.000112769
0.000112942
9.04814e-05
3.73413e-05
1.05583e-05
2.51792e-05
2.76678e-05
1.01818e-05
1.14821e-05
6.07246e-06
4.7787e-07
1.83905e-06
4.30377e-06
1.32666e-06
7.62595e-06
1.39785e-05
4.43331e-06
1.6124e-05
1.7612e-05
2.38122e-05
3.22191e-05
3.63564e-05
4.176e-05
4.75529e-05
5.44487e-05
6.19121e-05
6.94897e-05
7.74264e-05
8.55522e-05
9.38341e-05
0.000101307
0.000107445
0.000110196
0.000109282
0.000104119
9.17522e-05
8.82906e-05
6.53298e-05
2.21763e-05
1.43555e-05
3.57653e-05
8.14265e-06
9.03981e-06
4.40906e-05
4.13905e-05
4.89017e-05
3.68132e-05
4.17314e-05
2.802e-05
3.41259e-05
3.4305e-05
3.1239e-05
3.21268e-05
3.57343e-05
3.68485e-05
3.84608e-05
4.03937e-05
4.21166e-05
4.37525e-05
4.60075e-05
5.00328e-05
5.3884e-05
5.60326e-05
5.784e-05
5.96612e-05
6.09612e-05
6.15646e-05
5.97987e-05
5.67062e-05
4.92113e-05
4.42805e-05
3.32276e-05
1.70613e-05
1.51157e-05
1.22307e-05
9.4663e-06
3.70976e-05
0.00010746
0.000153242
0.000137482
9.77515e-05
5.15781e-05
3.84784e-05
3.67706e-05
4.24158e-05
3.80258e-05
2.76555e-05
2.3028e-05
2.33358e-05
2.87829e-05
3.46874e-05
3.95655e-05
4.36463e-05
4.72453e-05
5.01966e-05
5.22282e-05
5.33503e-05
5.36325e-05
5.33818e-05
5.32659e-05
5.32327e-05
5.21626e-05
4.78425e-05
3.92794e-05
2.82164e-05
1.94756e-05
1.28461e-05
1.37064e-05
4.39474e-05
9.86858e-06
6.11678e-07
4.03086e-06
1.03892e-05
2.31259e-05
3.65703e-05
6.01323e-05
8.66658e-05
0.000103476
0.000102993
0.00011363
0.000172321
0.000187537
0.000111327
7.65153e-05
6.84983e-05
7.49797e-05
8.55929e-05
9.06258e-05
8.9136e-05
8.45291e-05
7.73625e-05
6.80803e-05
5.69859e-05
4.61917e-05
3.8808e-05
3.53092e-05
3.4497e-05
3.50669e-05
3.47272e-05
2.9288e-05
1.937e-05
1.21589e-05
1.84042e-05
0.000127138
7.18241e-06
5.55289e-06
4.19787e-05
7.40205e-05
6.31888e-05
5.5812e-05
5.54903e-05
5.93686e-05
6.49466e-05
7.05979e-05
7.64304e-05
7.98078e-05
7.81251e-05
7.99824e-05
8.15438e-05
6.58487e-05
5.86317e-05
6.2281e-05
6.76589e-05
6.97659e-05
6.90994e-05
6.69987e-05
6.46546e-05
6.28415e-05
6.137e-05
5.83037e-05
5.05966e-05
4.00236e-05
3.26323e-05
2.97563e-05
2.85697e-05
2.48564e-05
2.03655e-05
3.12513e-05
0.000139622
6.07784e-06
5.82283e-06
4.0678e-05
1.59066e-05
1.17311e-05
1.91138e-05
3.68042e-05
6.21344e-05
8.66749e-05
0.000106858
0.000124454
0.000141998
0.000156393
0.000160754
0.000161031
0.000167433
0.000155196
0.000121526
0.000102143
9.74678e-05
9.84547e-05
9.96079e-05
9.97795e-05
9.88404e-05
9.66163e-05
9.2658e-05
8.51641e-05
6.87127e-05
4.43204e-05
2.76408e-05
2.09358e-05
1.93229e-05
2.06303e-05
3.37606e-05
9.54275e-05
5.81817e-06
4.84396e-06
2.87459e-05
5.55398e-05
1.92653e-05
8.27915e-06
1.16231e-05
2.43603e-05
4.64321e-05
7.00699e-05
8.93758e-05
0.000107655
0.000127238
0.000140465
0.00013478
0.000117439
0.000106968
0.00010899
0.000112705
0.000109745
0.000105981
0.000105238
0.000106214
0.000107202
0.000107295
0.000105963
0.000102683
9.54899e-05
7.52531e-05
4.13901e-05
2.19587e-05
1.60908e-05
1.76726e-05
3.16398e-05
7.96177e-05
6.02628e-06
6.55444e-06
3.42827e-05
6.03592e-05
3.51025e-05
4.23826e-06
1.57788e-06
3.04584e-06
1.42472e-05
3.9936e-05
8.18718e-05
0.000127545
0.000155882
0.000153573
0.00013347
0.000116716
0.000113546
0.000116438
0.000114112
0.000111305
0.000112593
0.000116037
0.000119221
0.000121372
0.000122273
0.000121527
0.000118526
0.000112404
9.81594e-05
6.1924e-05
2.74555e-05
1.49899e-05
1.40528e-05
2.62029e-05
7.23818e-05
6.3678e-06
7.68177e-06
3.43923e-05
7.42445e-05
5.40362e-05
2.01549e-05
1.8519e-06
1.24043e-06
1.55084e-07
1.10425e-05
3.63725e-05
7.89866e-05
0.000123621
0.000138706
0.00012702
0.000114843
0.000115872
0.000121514
0.000114549
0.000105189
0.00010326
0.000106546
0.000110717
0.000113823
0.000115446
0.000115466
0.000113549
0.000108949
9.80503e-05
6.86053e-05
3.23669e-05
1.62696e-05
1.33809e-05
2.40879e-05
7.02482e-05
6.79428e-06
8.60825e-06
4.66812e-05
7.75018e-05
2.36955e-05
5.33556e-06
2.58376e-06
2.55378e-07
3.81699e-07
9.89371e-06
3.48777e-05
7.3648e-05
0.000113414
0.000136788
0.000142538
0.00014256
0.000142739
0.000137624
0.000125071
0.000113798
0.000109353
0.000110032
0.000112148
0.000113697
0.000114074
0.000113065
0.000110375
0.00010541
9.51694e-05
6.86411e-05
3.31501e-05
1.61805e-05
1.28054e-05
2.31679e-05
6.67475e-05
7.14949e-06
8.33965e-06
4.65147e-05
6.9445e-05
2.5389e-05
4.07637e-06
2.44201e-07
1.69564e-06
3.4624e-08
5.75305e-06
2.20818e-05
4.04358e-05
5.8185e-05
7.26785e-05
8.25123e-05
9.06405e-05
0.000101642
0.00011521
0.000124166
0.000124748
0.000121946
0.000120201
0.000119692
0.000119216
0.000118024
0.00011567
0.000111698
0.000105272
9.28404e-05
6.5677e-05
3.33868e-05
1.72247e-05
1.38009e-05
2.4738e-05
6.50617e-05
7.34963e-06
8.31593e-06
5.55252e-05
0.000111656
0.000106159
4.90145e-05
9.35015e-06
3.19369e-06
1.16114e-06
1.3988e-06
3.69217e-06
1.83807e-05
3.71949e-05
5.32547e-05
6.49941e-05
7.43465e-05
8.46283e-05
9.69507e-05
0.000107866
0.000113453
0.00011468
0.000114668
0.000114789
0.000114777
0.000114035
0.000112128
0.000108708
0.00010294
9.11389e-05
6.47514e-05
3.3057e-05
1.71434e-05
1.40929e-05
2.5781e-05
6.27112e-05
7.41712e-06
8.68156e-06
5.36894e-05
0.000130514
0.000140537
0.000126154
6.84822e-05
1.56542e-05
1.3752e-06
4.37406e-07
2.35057e-06
1.02927e-07
4.02811e-06
1.9986e-05
3.94321e-05
5.48813e-05
6.66209e-05
7.74816e-05
8.83544e-05
9.72152e-05
0.000102366
0.000104707
0.000105949
0.000106671
0.000106489
0.000104843
0.000101229
9.47129e-05
8.21667e-05
5.87052e-05
3.25558e-05
1.81254e-05
1.5256e-05
2.78295e-05
6.23416e-05
7.51719e-06
9.22409e-06
6.32895e-05
0.000151079
0.000145259
0.000129419
0.000117414
7.81747e-05
2.3269e-05
2.87941e-06
2.36553e-06
5.8669e-07
3.58358e-06
4.61844e-06
9.57293e-06
2.81272e-05
4.81135e-05
6.49443e-05
7.818e-05
8.81663e-05
9.4994e-05
9.92149e-05
0.000102039
0.000104251
0.000105725
0.00010572
0.000103314
9.71138e-05
8.30447e-05
5.63327e-05
3.01623e-05
1.75995e-05
1.59578e-05
2.98559e-05
6.11158e-05
7.58397e-06
9.5027e-06
6.20767e-05
0.000153985
0.000160747
0.000139172
0.000112615
9.84481e-05
8.20766e-05
4.04582e-05
1.16191e-05
1.73209e-06
6.89306e-07
2.11348e-06
1.40252e-06
4.44974e-06
1.87061e-05
3.6667e-05
5.36904e-05
6.77315e-05
7.82847e-05
8.57512e-05
9.09888e-05
9.49396e-05
9.79889e-05
9.972e-05
9.92301e-05
9.51279e-05
8.35839e-05
5.87306e-05
3.13873e-05
1.7862e-05
1.63596e-05
3.12361e-05
6.17707e-05
7.71603e-06
9.37505e-06
5.54202e-05
0.000147506
0.000170771
0.000162113
0.000131861
9.71342e-05
8.10097e-05
7.97777e-05
6.11396e-05
2.57723e-05
6.10442e-06
1.24233e-06
1.30898e-06
1.67664e-07
2.68129e-06
1.7349e-05
3.66228e-05
5.41897e-05
6.73101e-05
7.55468e-05
8.04946e-05
8.39085e-05
8.6644e-05
8.84658e-05
8.84391e-05
8.50607e-05
7.46751e-05
5.27546e-05
2.94594e-05
1.78588e-05
1.71593e-05
3.31542e-05
6.11212e-05
7.81783e-06
9.74226e-06
5.60121e-05
0.000149535
0.000173578
0.000166051
0.000142832
0.000106873
7.60021e-05
6.39427e-05
6.91564e-05
7.48681e-05
4.57808e-05
1.22431e-05
1.42711e-06
2.6836e-06
1.96445e-06
3.39815e-07
1.34783e-05
3.16455e-05
4.81001e-05
6.13597e-05
7.08287e-05
7.68432e-05
8.06394e-05
8.29845e-05
8.33083e-05
7.9866e-05
6.90307e-05
4.77496e-05
2.68506e-05
1.69714e-05
1.72659e-05
3.47092e-05
6.17342e-05
8.01571e-06
9.86231e-06
5.41618e-05
0.000147947
0.000174002
0.000164866
0.000139076
0.000107648
8.35346e-05
6.94648e-05
6.44289e-05
6.99774e-05
8.30469e-05
6.95053e-05
2.59263e-05
4.34463e-06
4.6195e-07
2.00156e-06
1.01196e-06
1.73611e-05
3.83362e-05
5.31509e-05
6.19922e-05
6.72826e-05
7.10812e-05
7.40345e-05
7.55211e-05
7.35684e-05
6.3325e-05
4.19182e-05
2.3641e-05
1.62973e-05
1.80068e-05
3.76007e-05
5.96447e-05
8.11814e-06
1.06198e-05
5.96955e-05
0.000163705
0.000193451
0.000185268
0.000155778
0.000113145
8.28562e-05
7.30553e-05
7.5685e-05
8.09223e-05
8.76619e-05
9.79873e-05
8.97479e-05
3.95258e-05
7.48141e-06
4.35962e-06
2.53245e-07
6.49475e-06
1.43091e-05
3.3947e-05
5.0842e-05
6.24276e-05
6.8904e-05
7.20227e-05
7.21682e-05
6.82815e-05
5.72761e-05
3.73867e-05
2.08497e-05
1.48024e-05
1.77189e-05
3.93195e-05
5.90586e-05
8.28417e-06
1.16964e-05
8.96357e-05
0.000208334
0.000215522
0.000197101
0.000162651
0.000121138
9.00947e-05
7.89108e-05
8.63306e-05
0.000104728
0.000118996
0.000122299
0.000119196
0.000101065
5.19221e-05
1.24039e-05
3.96539e-07
3.55163e-06
5.88485e-06
1.44742e-05
2.86818e-05
3.51316e-05
3.93873e-05
4.33043e-05
4.66816e-05
4.75001e-05
4.14675e-05
2.83189e-05
1.78035e-05
1.39971e-05
1.76164e-05
4.02177e-05
5.8521e-05
8.40791e-06
1.20716e-05
0.000101631
0.000213286
0.000220707
0.000207404
0.000179515
0.000142024
0.000107548
8.6722e-05
8.22318e-05
9.26039e-05
0.000112855
0.000131549
0.000136763
0.000127708
0.000107429
7.08072e-05
2.81667e-05
2.80847e-06
2.00664e-06
9.3087e-07
1.12317e-05
3.55734e-05
4.70626e-05
4.82736e-05
4.53112e-05
4.02443e-05
3.09653e-05
1.94456e-05
1.32611e-05
1.22692e-05
1.77113e-05
4.37274e-05
5.7208e-05
8.5266e-06
1.15516e-05
9.23202e-05
0.000210529
0.000229584
0.000226727
0.00021383
0.000189287
0.000150589
0.000111028
8.70065e-05
8.09078e-05
8.99771e-05
0.000111119
0.000136815
0.00015181
0.000144664
0.00012222
9.578e-05
6.47207e-05
3.16995e-05
6.88528e-06
5.53336e-06
2.76889e-06
1.19076e-05
3.14605e-05
4.02822e-05
3.86134e-05
2.86923e-05
1.43229e-05
9.57236e-06
1.04053e-05
1.62153e-05
4.10636e-05
5.87292e-05
8.57049e-06
1.15017e-05
8.7448e-05
0.0002178
0.000237472
0.000231189
0.000219248
0.000206817
0.00018855
0.000155499
0.000116115
8.97863e-05
8.15327e-05
8.8701e-05
0.000108899
0.000138204
0.000164748
0.000168556
0.00014352
0.000109364
8.06017e-05
5.37107e-05
2.56805e-05
3.55356e-06
2.32807e-07
6.13004e-06
1.76147e-06
1.15466e-05
1.50806e-05
8.1169e-06
5.04107e-06
7.93614e-06
1.55094e-05
4.17995e-05
5.95049e-05
8.74446e-06
1.16409e-05
8.69218e-05
0.000214679
0.000225035
0.000207599
0.000188704
0.000180101
0.000181209
0.000180618
0.000162044
0.000127269
9.97842e-05
8.99871e-05
9.56561e-05
0.000113352
0.00014052
0.000172898
0.000198364
0.000196481
0.000161915
0.00011694
7.92786e-05
5.03075e-05
2.9257e-05
1.56328e-05
8.54667e-06
1.1391e-05
1.85974e-05
1.55256e-05
6.11774e-06
6.8789e-06
1.38004e-05
3.99607e-05
6.0954e-05
8.82023e-06
1.15945e-05
7.77654e-05
0.00019185
0.000196796
0.000174535
0.00015166
0.00014211
0.000147337
0.000160683
0.000169319
0.000159294
0.000133075
0.000110607
0.000102849
0.000108732
0.000123925
0.000144757
0.000168357
0.000188444
0.000191815
0.000170076
0.000135657
0.000106411
8.50196e-05
6.20682e-05
3.81279e-05
2.00073e-05
8.13004e-06
1.69988e-06
1.83842e-06
5.33096e-06
1.29462e-05
3.87892e-05
6.09481e-05
8.84734e-06
1.11921e-05
6.24552e-05
0.00015848
0.00016413
0.000142384
0.000118175
0.000106962
0.000111997
0.000129769
0.000151845
0.000164541
0.000157315
0.000137066
0.000121539
0.00011982
0.000131922
0.000155545
0.000189425
0.000227219
0.000240945
0.000197502
0.00011417
5.09427e-05
2.67121e-05
2.01954e-05
1.8316e-05
1.53971e-05
1.02976e-05
4.19662e-06
1.12371e-06
3.74263e-06
1.19911e-05
3.82325e-05
6.13722e-05
9.00274e-06
1.11362e-05
5.57284e-05
0.000145614
0.000154328
0.000133383
0.000105367
8.75547e-05
8.5967e-05
9.92741e-05
0.000123284
0.000148135
0.000159621
0.000151808
0.00013595
0.000127209
0.000132374
0.000152832
0.0001897
0.000234996
0.00021391
7.30347e-05
6.8208e-06
3.02041e-06
1.67449e-06
5.83727e-06
9.19264e-06
1.04406e-05
1.00347e-05
7.76034e-06
4.72023e-06
5.39767e-06
1.17995e-05
3.76292e-05
6.05543e-05
9.22536e-06
1.12223e-05
5.81375e-05
0.00015815
0.000173114
0.000153431
0.000118913
8.79865e-05
7.33459e-05
7.57011e-05
9.29828e-05
0.000121069
0.000149187
0.000162439
0.000156476
0.000143868
0.000139017
0.000147533
0.000166024
0.00017814
0.000153417
8.262e-05
1.33568e-05
6.31695e-07
2.02558e-06
8.59766e-06
5.10488e-06
7.39215e-07
3.24193e-06
3.3524e-06
3.32367e-06
6.5285e-06
1.70242e-05
5.78825e-05
5.32111e-05
9.06889e-06
1.16961e-05
6.77182e-05
0.000187193
0.000211145
0.000198047
0.000163659
0.000116921
8.09573e-05
6.5821e-05
6.86833e-05
8.5941e-05
0.000113072
0.000141015
0.000158101
0.000159867
0.000154214
0.000152409
0.000159881
0.000174457
0.000186448
0.000177856
0.000128443
4.86982e-05
3.38011e-07
5.48603e-06
2.51931e-06
7.89102e-06
4.3754e-06
3.85085e-06
1.94833e-06
3.3958e-06
1.18889e-05
4.4816e-05
5.23299e-05
8.78218e-06
1.21832e-05
8.15579e-05
0.00022304
0.000255871
0.000250361
0.000225556
0.000178189
0.000120079
8.01654e-05
6.4906e-05
6.84346e-05
8.60658e-05
0.000113178
0.000142368
0.000164934
0.000176757
0.000182043
0.000190423
0.000213152
0.000257152
0.000272184
0.000244811
0.00017916
7.52734e-05
1.70954e-05
1.83617e-05
1.19473e-05
3.84541e-06
2.31773e-06
2.29794e-06
5.16708e-06
1.02315e-05
3.39171e-05
5.81099e-05
9.0803e-06
1.25991e-05
9.03712e-05
0.000243574
0.000274346
0.000269418
0.000253737
0.000228501
0.000183514
0.000125354
8.43838e-05
6.8177e-05
7.04778e-05
8.63848e-05
0.000112003
0.00014207
0.000170569
0.000194093
0.000214619
0.000239156
0.000275644
0.000316252
0.000294696
0.000222782
0.000126973
6.22938e-05
2.40894e-05
1.70171e-05
2.89755e-07
8.13226e-07
5.39994e-06
1.4573e-05
4.33418e-05
0.000102303
3.90347e-05
9.10801e-06
1.24573e-05
8.38427e-05
0.000221843
0.000246028
0.000238181
0.000224472
0.00021447
0.000206131
0.000183777
0.000138297
9.60493e-05
7.50249e-05
7.23019e-05
8.29377e-05
0.000103646
0.000131147
0.00016114
0.000188615
0.00020946
0.000221597
0.000223853
0.000214504
0.000192733
0.000161094
0.000125005
9.06393e-05
6.1416e-05
3.61589e-05
1.25146e-05
1.88405e-06
4.93902e-06
1.09135e-05
3.65338e-05
4.46863e-05
6.62626e-06
1.23776e-05
7.91937e-05
0.000208128
0.000233568
0.000226299
0.000209815
0.000195541
0.00019028
0.000191983
0.000186188
0.000155616
0.000113985
8.67952e-05
7.81553e-05
8.41481e-05
0.000101777
0.000128123
0.000157094
0.000179755
0.000190316
0.000189531
0.000181141
0.000168495
0.000154253
0.000140194
0.000126674
0.00010947
9.92465e-05
0.000113167
0.000161582
3.92933e-05
2.3941e-05
1.2252e-06
4.41772e-06
8.15277e-06
1.24231e-05
8.56499e-05
0.000223327
0.000254397
0.000250042
0.00023283
0.000213593
0.000201792
0.000201277
0.000207107
0.000204138
0.000175757
0.000132547
0.000101922
9.29997e-05
0.000104783
0.000135273
0.000173812
0.000199733
0.000204351
0.000194504
0.00017897
0.000162621
0.000145085
0.000143699
0.000255987
0.000181431
0.000100911
3.3014e-05
1.83339e-05
6.32904e-06
1.77176e-06
1.20672e-05
6.80002e-05
1.19292e-05
1.28627e-05
0.000103283
0.000251608
0.000278895
0.000273115
0.000255845
0.000237901
0.000227491
0.000228803
0.000239244
0.000247017
0.000233278
0.000189386
0.000139926
0.000114414
0.000125208
0.000192109
0.000343677
0.000349819
0.000343
0.000332495
0.00028021
0.000295604
0.000275821
3.77004e-05
1.44709e-05
2.59073e-05
5.20393e-05
5.35246e-05
3.53022e-05
2.64854e-05
4.07204e-05
0.000121008
4.21976e-05
9.6783e-06
1.34551e-05
0.000129687
0.000269217
0.00028147
0.000269314
0.000253817
0.000244004
0.000242294
0.000249276
0.000263855
0.000278924
0.00027885
0.000245903
0.000184945
0.000133878
0.000117618
0.00014621
0.000234131
0.000328153
0.000304625
0.000236474
0.000146871
5.00439e-05
1.80766e-05
1.60176e-05
2.90218e-05
6.60952e-05
0.000107672
9.46071e-05
7.99147e-05
8.18735e-05
9.58192e-05
5.68341e-05
1.97954e-05
3.75405e-06
1.40139e-05
0.000154248
0.000273446
0.00027181
0.000255227
0.00024507
0.0002467
0.000256231
0.000267753
0.000278168
0.000286842
0.000290793
0.000280898
0.000244722
0.000184974
0.000131613
0.00010605
0.000108269
0.000127729
0.000143431
0.000139931
0.00012204
9.56086e-05
5.68037e-05
2.8105e-05
2.14275e-05
2.89497e-05
4.42109e-05
5.48516e-05
6.16037e-05
6.95776e-05
7.15297e-05
5.2727e-05
2.47555e-05
3.07156e-06
1.41978e-05
0.000165955
0.000272819
0.000264239
0.000246725
0.000241809
0.000252148
0.000271982
0.000293527
0.000310505
0.000319737
0.000320524
0.000312333
0.000292372
0.000255907
0.000204224
0.000153543
0.00012057
0.000107866
0.000108833
0.000114323
0.000116668
0.000112531
0.000102271
8.57983e-05
6.56191e-05
5.15136e-05
4.70854e-05
4.95867e-05
5.83225e-05
7.21062e-05
8.01282e-05
7.18653e-05
4.64749e-05
3.48378e-06
1.42503e-05
0.000169966
0.00027324
0.000262549
0.000246722
0.00024623
0.000261181
0.000284408
0.000308588
0.000329061
0.000343617
0.000351123
0.000350464
0.000339946
0.000317207
0.0002806
0.000233115
0.000185313
0.000148874
0.000127216
0.000116699
0.000111848
0.00010859
0.000104889
0.000100009
9.33738e-05
8.51857e-05
7.82186e-05
7.67661e-05
8.50873e-05
0.000109939
0.000150144
0.000165422
7.71834e-05
4.28397e-06
1.40737e-05
0.000168213
0.000270098
0.000259242
0.000245299
0.000248178
0.000267523
0.000296314
0.000327289
0.000355406
0.000377881
0.000393172
0.00040039
0.000398702
0.000386627
0.000361803
0.000323034
0.000273919
0.000223477
0.000180694
0.000148787
0.000125975
0.000109337
9.72459e-05
8.89361e-05
8.23973e-05
8.31054e-05
0.000100894
0.00013465
0.000134527
9.67244e-05
6.28502e-05
3.38669e-05
2.09881e-05
7.95774e-06
1.37721e-05
0.000162287
0.000262975
0.0002519
0.000239714
0.000245753
0.00026951
0.000304423
0.000344
0.000383765
0.0004205
0.000450727
0.000471483
0.000481996
0.000481637
0.000467832
0.000436974
0.000387492
0.000324222
0.000258687
0.000201681
0.00015774
0.000123677
9.87707e-05
0.000106657
0.000137263
8.23038e-05
4.86484e-05
4.65818e-05
5.18104e-05
4.97725e-05
4.06703e-05
3.67273e-05
5.91536e-05
1.1177e-05
1.32812e-05
0.000154044
0.000252034
0.000238093
0.000226669
0.000237508
0.000269523
0.000315833
0.000370505
0.000431455
0.000498674
0.000562321
0.000555482
0.00054538
0.000531846
0.000514675
0.000493613
0.000468373
0.000438411
0.000324289
0.000256692
0.000244951
0.000141968
3.0455e-05
2.1599e-05
3.59445e-05
6.0966e-05
7.35725e-05
7.00399e-05
6.76793e-05
7.28209e-05
8.7367e-05
0.000118484
7.29241e-05
1.03109e-05
1.2827e-05
0.000142512
0.000236676
0.000216426
0.000202429
0.000214532
0.000250396
0.000302528
0.000365066
0.000437062
0.000517567
0.000563613
0.000557279
0.00054718
0.000532976
0.000514188
0.000490121
0.000459771
0.000352186
0.000231863
0.000133559
1.83076e-05
9.86865e-06
3.03485e-05
7.6492e-05
0.000151047
0.000171794
0.000138756
0.000105288
9.23483e-05
0.000100926
0.000119153
9.26376e-05
3.13829e-05
6.12518e-06
1.22005e-05
0.000118022
0.00021057
0.000186789
0.000169192
0.000178136
0.000210804
0.000259532
0.000316529
0.00037668
0.000438219
0.000500939
0.000556829
0.000554796
0.000543481
0.00052769
0.000489879
0.000376338
0.000256055
0.000157922
7.83779e-05
1.64925e-05
6.73165e-06
2.01745e-05
5.0243e-05
0.000110012
0.000178546
0.000207892
0.00020713
0.000195777
0.000182365
0.000158923
9.28465e-05
2.679e-05
3.35109e-06
1.15027e-05
8.50095e-05
0.000172162
0.000154909
0.000134323
0.00013393
0.000154368
0.000191504
0.000240065
0.000293933
0.000347633
0.000396837
0.000437601
0.000465695
0.000475627
0.00046245
0.000426588
0.000374027
0.000309908
0.000237681
0.000166776
0.000104001
4.14298e-05
8.77654e-06
1.04884e-05
2.43163e-05
4.38173e-05
6.40162e-05
8.40513e-05
0.000105882
0.000125555
0.000125583
9.05258e-05
3.24814e-05
4.20192e-06
1.08952e-05
6.25742e-05
0.000141339
0.000140078
0.000121534
0.000109155
0.00011199
0.000130147
0.000162459
0.000207107
0.000260128
0.000315428
0.000366452
0.000407598
0.000434413
0.00044409
0.000436338
0.000413641
0.000379843
0.000338072
0.000290108
0.000239432
0.000191338
0.000144825
9.04665e-05
4.64344e-05
2.66087e-05
2.16563e-05
2.44279e-05
3.14601e-05
4.14252e-05
5.85762e-05
8.09854e-05
4.09679e-05
5.29241e-06
1.09791e-05
6.1021e-05
0.000145398
0.000160743
0.000150856
0.000129946
0.000112371
0.000107213
0.000115894
0.000138654
0.000176402
0.000228894
0.00029198
0.000357385
0.000415086
0.000456104
0.000475336
0.000473865
0.00045743
0.00043215
0.000401532
0.000366703
0.000328635
0.000290303
0.000254859
0.000220793
0.00018209
0.000138103
9.808e-05
6.96342e-05
5.18164e-05
3.84983e-05
3.65544e-05
8.31552e-05
5.59828e-06
1.15187e-05
7.29451e-05
0.000178002
0.000208657
0.000211772
0.000199956
0.000174875
0.000145791
0.000125828
0.000120856
0.000132472
0.00016302
0.000215172
0.000288753
0.000376137
0.000460079
0.00051994
0.000546637
0.000548609
0.000538742
0.000523108
0.000502491
0.000476262
0.000444561
0.000408859
0.000371615
0.000335291
0.000300972
0.000268885
0.000239573
0.000202303
0.000102087
2.96942e-05
2.65924e-05
7.33233e-06
1.20737e-05
8.78847e-05
0.000214539
0.000249385
0.000258588
0.000261422
0.000257106
0.000237023
0.000199514
0.000161236
0.000139831
0.00014165
0.000169527
0.00022819
0.000321374
0.000440593
0.000548855
0.000565478
0.00056495
0.000562147
0.000556985
0.000549448
0.000539575
0.000527487
0.000513355
0.000497402
0.000478597
0.000436204
0.000393904
0.000340693
0.000210463
5.51018e-05
2.1943e-05
3.37944e-05
9.90965e-06
1.23394e-05
9.29204e-05
0.000220707
0.000236106
0.000234795
0.000245093
0.00026713
0.000288319
0.000289427
0.000255296
0.00020224
0.000167651
0.000167078
0.0002046
0.000288084
0.000420656
0.00056543
0.000566443
0.000565472
0.000562557
0.000557496
0.000550159
0.000540501
0.000528578
0.000514524
0.000498581
0.000481181
0.000463067
0.000386624
0.000196384
6.59783e-05
2.84807e-05
2.73946e-05
8.94158e-05
9.93365e-06
1.28125e-05
9.75562e-05
0.00020621
0.000191406
0.00017908
0.000192477
0.000227557
0.00027296
0.000311234
0.000321086
0.00028802
0.000235223
0.000208134
0.000227444
0.000303885
0.000441561
0.00057368
0.000571968
0.000569061
0.000564618
0.000558366
0.000550098
0.000539678
0.000527106
0.000512492
0.000496104
0.000478449
0.000442608
0.000248194
8.28521e-05
3.78679e-05
3.14176e-05
5.23853e-05
0.000105288
9.06937e-06
1.34001e-05
0.000119081
0.000183438
0.00014806
0.000144826
0.000172279
0.000219499
0.000273675
0.000319597
0.000342423
0.000333623
0.000303832
0.000284991
0.000307012
0.000388138
0.000519624
0.00058668
0.000581824
0.000576055
0.000569105
0.000560714
0.000550652
0.00053874
0.000524921
0.000509278
0.000492084
0.000473943
0.00034266
0.000141923
5.05522e-05
3.44758e-05
4.65823e-05
9.9287e-05
6.03272e-05
7.84599e-06
1.33808e-05
0.00014307
0.000140699
0.000114623
0.000134195
0.000184653
0.00024436
0.000295906
0.000332357
0.000352229
0.000359071
0.000363571
0.000380864
0.00042501
0.0005029
0.000594079
0.000602254
0.00059485
0.000586484
0.000577061
0.000566437
0.000554441
0.000540913
0.000525778
0.000509121
0.000491222
0.000438506
0.000293875
0.000124312
4.54637e-05
3.50703e-05
5.98214e-05
0.00011932
5.38145e-05
7.35927e-06
1.2514e-05
0.000134812
0.000115499
9.86393e-05
0.000127327
0.000185816
0.000247071
0.000295353
0.000332352
0.000363645
0.000393497
0.000424577
0.000459357
0.000502025
0.000555995
0.000610571
0.000616645
0.000608362
0.000598759
0.000587925
0.00057588
0.000562591
0.000547983
0.000532003
0.00051475
0.00049649
0.00042311
0.00029248
0.000137603
4.95028e-05
3.15358e-05
5.37459e-05
0.000118994
4.93441e-05
7.3637e-06
1.15172e-05
8.96252e-05
0.000126777
8.36493e-05
8.23809e-05
0.000116525
0.000179869
0.000250594
0.000312919
0.000365828
0.000411196
0.000450856
0.000487965
0.000527086
0.000571786
0.000616578
0.000626714
0.000619364
0.000610218
0.000599464
0.000587265
0.000573737
0.000558943
0.000542924
0.000525787
0.000507789
0.000430516
0.000320911
0.000179629
6.98422e-05
3.32182e-05
4.06928e-05
0.000104326
4.67081e-05
7.50612e-06
1.12486e-05
6.00534e-05
0.000124828
8.31265e-05
4.89051e-05
5.47124e-05
9.67394e-05
0.000175751
0.000267548
0.000348271
0.000414875
0.000471907
0.000524045
0.000574871
0.000622971
0.000633553
0.000631115
0.000626172
0.000618938
0.00060965
0.000598546
0.000585849
0.00057175
0.000556401
0.000539951
0.000501293
0.000432964
0.000349366
0.000237767
0.000114206
4.80246e-05
3.81473e-05
7.83732e-05
5.55049e-05
8.03493e-06
1.17738e-05
6.3112e-05
0.000136271
0.000117615
5.86359e-05
3.88644e-05
5.67007e-05
0.00011574
0.000214816
0.000325309
0.000427904
0.000524267
0.000607118
0.000617207
0.000624295
0.00062834
0.000629407
0.000627621
0.000623152
0.000616225
0.000607088
0.000596001
0.00058322
0.000568975
0.000553468
0.000504967
0.000444186
0.000376596
0.000291272
0.00017592
7.73103e-05
4.5391e-05
6.21215e-05
8.29239e-05
8.84065e-06
1.25841e-05
9.39302e-05
0.000178558
0.000137345
8.39541e-05
5.3771e-05
6.09209e-05
0.000113845
0.000216343
0.000343327
0.000471203
0.000582151
0.000595798
0.000606815
0.000615449
0.000621486
0.000624816
0.000625418
0.00062334
0.00061871
0.000611707
0.000602557
0.000591516
0.000578836
0.00056477
0.000517437
0.000460763
0.000400847
0.000329766
0.000227991
0.000109273
5.45832e-05
5.88463e-05
0.000119541
9.62904e-06
1.30982e-05
0.000150458
0.00014589
8.56035e-05
7.26021e-05
7.56228e-05
9.93383e-05
0.000166963
0.000273806
0.00038563
0.000489221
0.000576691
0.000591605
0.000601667
0.000609968
0.00061621
0.000620188
0.000621777
0.00062092
0.000617652
0.000612071
0.00060434
0.000594679
0.000583347
0.000563143
0.000511304
0.00045561
0.000397589
0.000329702
0.000232347
0.000114059
5.74586e-05
6.17439e-05
0.000132595
1.01208e-05
1.31078e-05
0.000163175
8.67748e-05
5.50384e-05
6.54283e-05
0.000105087
0.000168358
0.000246772
0.000328572
0.000407694
0.000485386
0.000556891
0.00058995
0.00059899
0.000606591
0.000612458
0.00061637
0.000618165
0.000617733
0.000615045
0.000610134
0.000603104
0.000594128
0.000583451
0.00055209
0.000497742
0.00043879
0.000374018
0.000292845
0.000184724
9.11068e-05
5.71902e-05
7.54765e-05
0.000113474
1.00584e-05
1.30585e-05
0.000141443
6.2318e-05
5.24169e-05
8.49126e-05
0.000155512
0.000230112
0.000293357
0.000352651
0.000413509
0.000476944
0.000539258
0.000586853
0.000595448
0.000602697
0.000608342
0.000612181
0.000614056
0.000613846
0.000611497
0.000607003
0.000600425
0.000591893
0.000581619
0.000537212
0.000479048
0.000414348
0.000337531
0.00023789
0.000131104
7.05074e-05
5.94872e-05
0.000101066
7.62961e-05
9.32858e-06
1.28738e-05
0.000131005
5.97598e-05
6.15804e-05
0.000109328
0.000180197
0.000241989
0.000295791
0.000348583
0.000403231
0.000460145
0.00051794
0.000569154
0.000589921
0.000597377
0.000603247
0.000607333
0.000609479
0.000609568
0.00060754
0.000603382
0.000597138
0.000588926
0.000573184
0.000519985
0.000457863
0.000387172
0.000300206
0.00019343
0.000101199
6.04855e-05
6.37237e-05
0.000122044
5.53964e-05
8.56767e-06
1.24433e-05
0.000150024
6.23712e-05
5.78143e-05
9.38272e-05
0.000152995
0.000212039
0.000266723
0.000320593
0.00037534
0.000431453
0.000488288
0.000542097
0.000580472
0.000588695
0.000595357
0.00060025
0.000603205
0.000604086
0.000602819
0.000599372
0.000593766
0.000586089
0.000556908
0.000500206
0.000435539
0.000361106
0.000270248
0.000167271
8.85558e-05
5.75692e-05
6.85346e-05
0.000127077
4.61049e-05
8.06251e-06
1.18361e-05
0.000114827
7.13114e-05
4.06983e-05
5.10331e-05
9.61923e-05
0.00016386
0.000229368
0.000289294
0.000347657
0.000406396
0.000465878
0.000524931
0.000569896
0.000579133
0.000586745
0.000592569
0.000596462
0.000598289
0.000597961
0.000595424
0.000590661
0.000583719
0.00053953
0.000480387
0.000416104
0.00034267
0.000254915
0.000159842
8.86596e-05
6.06241e-05
7.41853e-05
0.000126653
4.32095e-05
7.7973e-06
1.15501e-05
5.82677e-05
0.000103353
3.44868e-05
2.18446e-05
3.80367e-05
9.13033e-05
0.000182916
0.00027593
0.00035925
0.000441714
0.000522093
0.000541416
0.000554748
0.00056617
0.00057565
0.000583135
0.000588549
0.00059181
0.000592856
0.000591627
0.000588091
0.00057901
0.000524861
0.000465946
0.000404862
0.000336716
0.000256945
0.000170579
0.000101992
7.1927e-05
8.36458e-05
0.000130352
4.47533e-05
7.72988e-06
1.21585e-05
5.38406e-05
0.000117032
4.13389e-05
1.6357e-05
2.12055e-05
5.27691e-05
0.00013888
0.000285185
0.000442028
0.000490335
0.000508638
0.000525306
0.000540144
0.000553056
0.000563989
0.000572896
0.000579726
0.000584417
0.000586907
0.000587139
0.000585075
0.000580707
0.000521977
0.000462033
0.000404336
0.000343143
0.000273351
0.000196653
0.000130129
9.61731e-05
0.00010393
0.000145051
5.33847e-05
8.05058e-06
1.30663e-05
0.000110536
7.44763e-05
2.70589e-05
1.89063e-05
3.41499e-05
9.91163e-05
0.000232908
0.000361255
0.00046373
0.000485986
0.000502218
0.000517559
0.000531645
0.000544254
0.000555236
0.000564472
0.000571863
0.000577313
0.000580731
0.000582044
0.000581204
0.000558503
0.000502592
0.000447272
0.000395307
0.000342054
0.00028296
0.000218448
0.000160135
0.000127708
0.000133763
0.000165654
6.48395e-05
8.4919e-06
1.24532e-05
0.000130148
3.5823e-05
2.35545e-05
4.01005e-05
8.69527e-05
0.000146227
0.000194608
0.000245133
0.000300035
0.00035644
0.000410882
0.000460339
0.000501428
0.000532613
0.000545488
0.000554697
0.000562358
0.000568321
0.000572458
0.00057275
0.000547015
0.000507716
0.000462541
0.000417048
0.000372403
0.000326527
0.000277143
0.000225482
0.000180195
0.00015599
0.000163241
0.000182817
7.22058e-05
8.6026e-06
1.13266e-05
0.000120732
5.9171e-05
3.8549e-05
4.42869e-05
6.90403e-05
0.000108915
0.000152726
0.000194473
0.000236236
0.000279574
0.000323373
0.000365657
0.000404807
0.000439722
0.000469546
0.000493746
0.00051207
0.000523655
0.000526546
0.00051847
0.000498522
0.000468524
0.000432323
0.000393443
0.000353349
0.000311468
0.000267469
0.000224129
0.000189299
0.000173859
0.000183129
0.000192176
7.52574e-05
8.6549e-06
1.12073e-05
6.56278e-05
0.000137338