/*--------------------------------*- C++ -*----------------------------------*\
| =========                 |                                                 |
| \\      /  F ield         | OpenFOAM: The Open Source CFD Toolbox           |
|  \\    /   O peration     | Version:  v2006                                 |
|   \\  /    A nd           | Website:  www.openfoam.com                      |
|    \\/     M anipulation  |                                                 |
\*---------------------------------------------------------------------------*/
FoamFile
{
    version     2.0;
    format      ascii;
    class       volScalarField;
    location    "63";
    object      T;
}
// * * * * * * * * * * * * * * * * * * * * * * * * * * * * * * * * * * * * * //

dimensions      [0 0 0 1 0 0 0];


internalField   nonuniform List<scalar> 
78750
(
87.595
194.949
349.535
346.909
334.528
332.072
331.321
331.479
331.578
331.631
331.854
331.7
331.76
331.669
331.567
331.42
331.233
331.006
330.75
330.477
330.199
329.919
329.656
329.401
329.195
329.002
328.914
328.818
328.954
329.031
329.441
330.086
330.839
328.887
361.165
503.19
502.456
354.491
327.128
320.457
326.64
321.9
326.106
322.332
325.086
323.151
322.68
323.54
322.652
322.728
322.606
322.513
322.438
322.405
322.415
322.449
322.467
322.494
322.535
322.634
322.77
323.02
323.303
323.806
324.214
325.563
325.29
330.674
334.978
363.386
360.957
313.996
315.718
316.884
320.511
321.405
323.728
324.039
324.851
323.653
322.664
321.072
319.623
318.484
317.656
316.977
316.393
315.891
315.472
315.133
314.847
314.591
314.408
314.34
314.42
314.662
315.089
315.68
316.518
317.44
319.038
319.493
320.259
314.916
364.001
311.574
319.024
324.299
327.885
330.408
332.97
335.271
337.215
338.21
338.312
337.326
334.823
330.918
327.022
324.191
322.108
320.306
318.628
317.033
315.509
314.048
312.643
311.303
310.056
308.945
308.033
307.399
307.106
307.212
307.722
308.756
310.021
313.784
324.561
372.233
306.88
318.143
326.016
329.594
331.435
332.035
332.289
332.498
332.661
332.659
332.408
331.878
330.89
329.143
327.206
325.851
324.986
324.336
323.725
323.066
322.312
321.408
320.287
318.886
317.189
315.259
313.184
311.096
309.225
307.938
307.929
311.114
323.452
338.993
371.894
309.206
319.361
325.327
330.319
334.711
337.711
339.048
339.047
338.177
336.816
335.207
333.441
331.638
330.085
328.836
327.83
327.075
326.533
326.105
325.723
325.356
324.983
324.572
324.077
323.446
322.609
321.48
320
318.282
316.818
316.876
321.329
334.916
351.217
381.217
314.696
325.697
331.679
335.985
338.03
338.527
338.412
338.066
337.563
336.901
336.095
335.161
334.096
332.916
331.737
330.706
329.824
329.059
328.435
327.971
327.65
327.447
327.347
327.34
327.419
327.572
327.784
328.041
328.309
328.587
329.492
333.723
345.856
362.083
392.271
308.759
318.485
323.913
328.977
334.484
337.994
339.444
339.559
339.092
338.417
337.657
336.841
335.957
334.946
333.772
332.549
331.5
330.693
330.065
329.566
329.189
328.938
328.814
328.824
328.982
329.314
329.857
330.687
332.028
334.278
337.822
343.979
356.232
372.082
400.762
311.605
323.308
328.836
332.246
335.235
337.344
339.1
340.321
340.414
339.852
339.076
338.21
337.216
336.015
334.644
333.355
332.344
331.58
330.989
330.545
330.239
330.06
330.004
330.074
330.287
330.674
331.286
332.213
333.712
336.503
341.828
350.911
365.369
381.363
407.886
312.46
325.835
332.885
337.794
341.513
341.291
339.154
339.297
340.129
340.28
339.861
339.164
338.265
337.122
335.773
334.475
333.455
332.688
332.084
331.62
331.297
331.108
331.047
331.115
331.33
331.722
332.345
333.294
334.826
337.715
343.658
354.678
371.572
387.967
412.643
315.851
328.857
335.351
341.038
347.093
348.056
344.062
341.755
341.338
340.9
340.255
339.511
338.664
337.689
336.626
335.605
334.728
334.001
333.4
332.924
332.578
332.358
332.26
332.287
332.457
332.804
333.386
334.304
335.823
338.759
345.105
357.501
376.207
392.938
416.26
315.404
327.353
332.849
337.392
342.184
345.015
344.462
342.849
342.171
341.59
340.897
340.111
339.235
338.275
337.281
336.362
335.598
334.986
334.488
334.082
333.772
333.564
333.466
333.49
333.655
334
334.586
335.528
337.119
340.232
346.944
360.128
379.593
396.311
418.561
315.558
327.344
332.09
335.287
338.754
343.207
346.134
345.516
343.991
342.935
342.073
341.194
340.24
339.213
338.163
337.185
336.367
335.726
335.226
334.835
334.542
334.349
334.263
334.293
334.46
334.798
335.368
336.283
337.844
340.956
347.862
361.66
381.589
398.353
420.029
313.272
324.597
329.615
332.937
335.941
339.386
344.297
347.846
347.597
345.808
344.205
343.081
342.172
341.244
340.23
339.17
338.161
337.295
336.604
336.072
335.676
335.404
335.256
335.241
335.377
335.699
336.27
337.212
338.84
342.046
349.009
362.95
382.861
399.525
420.781
314.733
326.768
331.882
335.247
338.156
340.579
342.89
346.433
349.686
349.961
348.27
346.081
344.331
343.121
342.157
341.222
340.267
339.333
338.48
337.752
337.167
336.73
336.444
336.313
336.351
336.587
337.078
337.948
339.534
342.813
350.034
364.192
383.791
400.347
421.427
315.413
326.909
331.485
334.449
337.172
339.856
342.302
344.38
346.949
349.884
351.17
350.295
348.188
345.998
344.322
343.12
342.131
341.203
340.312
339.482
338.752
338.152
337.711
337.445
337.375
337.525
337.943
338.736
340.212
343.32
350.42
364.675
384.203
400.671
421.59
314.029
326.411
331.612
334.746
337.309
339.716
342.208
344.617
346.512
348.249
350.356
351.893
351.686
349.963
347.654
345.612
344.111
342.969
341.989
341.092
340.261
339.515
338.89
338.433
338.188
338.2
338.525
339.273
340.762
343.962
351.224
365.556
384.7
401.085
421.998
315.512
328.728
334.204
337.493
340.134
342.42
344.502
346.511
348.351
349.719
350.712
351.763
352.767
352.626
351.081
348.887
346.82
345.221
343.982
342.915
341.948
341.075
340.314
339.699
339.277
339.104
339.251
339.844
341.218
344.379
351.713
366.189
385.21
401.493
422.268
315.561
328.11
333.576
337.01
339.924
342.643
345.215
347.458
349.163
350.438
351.416
352.142
352.77
353.327
353.024
351.361
349.075
346.976
345.433
344.294
343.316
342.402
341.547
340.799
340.231
339.922
339.955
340.463
341.828
345.216
353.113
367.924
386.355
402.364
423.006
314.459
328.327
334.831
338.83
342.039
344.852
347.449
349.722
351.213
351.906
352.289
352.679
353.093
353.492
353.823
353.448
351.764
349.515
347.471
345.912
344.723
343.744
342.912
342.2
341.618
341.212
341.072
341.358
342.468
345.616
353.592
368.953
387.275
403.124
423.596
319.084
333.767
339.803
343.611
346.825
349.692
352.28
354.393
355.583
355.748
355.38
354.944
354.631
354.463
354.38
354.251
353.601
351.743
349.439
347.542
346.265
345.215
344.135
343.055
342.121
341.466
341.204
341.481
342.712
346.131
354.357
369.828
388.171
403.888
424.026
321.975
335.127
340.181
343.438
346.214
348.724
351.118
353.426
355.408
356.657
357.08
356.966
356.627
356.228
355.839
355.473
355.061
354.332
352.635
350.057
347.714
346.27
345.497
344.831
344.071
343.279
342.635
342.42
343.226
346.575
355.305
371.372
389.261
404.657
424.605
321.434
335.306
340.73
344.086
346.75
348.906
350.694
352.309
353.937
355.525
356.746
357.399
357.566
357.44
357.159
356.781
356.325
355.793
355.118
354.068
352.307
349.782
347.361
345.924
345.226
344.696
344.137
343.679
343.865
346.431
354.701
371.007
389.252
404.718
424.56
321.464
335.887
341.507
344.984
347.84
350.224
352.129
353.578
354.699
355.681
356.62
357.4
357.873
358.031
357.962
357.754
357.445
357.024
356.46
355.738
354.788
353.369
351.087
348.199
345.729
344.171
343.405
343.106
343.444
345.983
354.284
370.892
389.557
405.028
424.608
322.165
336.637
342.297
345.863
348.919
351.607
353.822
355.452
356.53
357.205
357.646
357.977
358.219
358.332
358.307
358.17
357.963
357.708
357.402
357.01
356.478
355.744
354.686
353.09
350.899
348.519
346.663
345.665
345.564
347.427
355.117
370.78
389.259
404.799
424.496
323.577
338.178
343.644
347.102
350.181
353.039
355.494
357.292
358.399
358.973
359.193
359.188
359.052
358.848
358.6
358.318
358.013
357.699
357.385
357.07
356.736
356.358
355.922
355.391
354.606
353.248
351.081
348.424
346.208
346.477
354.352
371.649
390.136
405.633
425.233
322.371
336.038
341.268
344.709
347.999
351.376
354.596
357.159
358.818
359.711
360.089
360.132
359.93
359.54
359.027
358.45
357.852
357.263
356.702
356.158
355.572
354.85
354.024
353.261
352.602
351.695
350.291
348.537
346.895
346.654
352.876
370.748
390.096
405.598
425
319.465
332.302
337.671
341.314
344.875
348.703
352.669
356.151
358.599
359.988
360.62
360.784
360.64
360.244
359.631
358.848
357.954
357.013
356.068
355.029
353.458
350.478
348.651
348.271
347.982
347.604
347.194
346.937
347.284
349.528
356.653
371.706
391.012
406.852
426.077
317.555
330.435
336.02
339.712
343.169
346.818
350.805
354.783
358.02
360.089
361.126
361.485
361.439
361.116
360.565
359.818
358.917
357.902
356.77
355.412
353.48
350.285
347.147
346.489
346.431
346.245
345.89
345.662
346.286
350.068
361.896
381.017
396.892
410.695
428.905
316.745
330.789
336.774
340.483
343.638
346.644
349.821
353.338
356.801
359.502
361.135
361.888
362.077
361.924
361.534
360.948
360.197
359.317
358.334
357.245
355.991
354.366
351.795
347.855
345.631
345.202
345.49
346.059
346.839
348.558
355.765
376.082
394.887
409.185
427.25
318.222
333.696
339.871
343.547
346.502
349.053
351.422
353.903
356.64
359.236
361.12
362.152
362.535
362.519
362.26
361.829
361.257
360.562
359.777
358.96
358.115
357.166
355.939
354.011
350.515
346.385
344.383
344.343
346.467
351.555
359.227
371.978
391.156
407.665
427.683
320.933
335.962
341.617
345.095
348.033
350.633
352.934
355.042
357.158
359.357
361.288
362.558
363.142
363.239
363.051
362.701
362.25
361.724
361.139
360.519
359.884
359.222
358.453
357.434
355.936
353.567
350.026
347.486
351.074
364.44
386.154
406.213
414.577
422.752
434.778
321.299
335.072
340.447
343.93
347.054
349.993
352.689
355.052
357.112
359.034
360.901
362.462
363.432
363.813
363.787
363.541
363.194
362.805
362.395
361.97
361.53
361.071
360.578
360.025
359.36
358.508
357.354
355.764
353.973
353.733
358.703
374.642
397.379
411.744
426.844
319.802
333.63
339.433
343.181
346.464
349.529
352.398
354.98
357.174
359.007
360.637
362.165
363.428
364.176
364.399
364.276
364.003
363.691
363.382
363.081
362.785
362.489
362.19
361.885
361.567
361.229
360.859
360.372
359.366
359.45
362.953
350.836
351.128
375.88
413.319
319.46
334.705
341.213
345.297
348.688
351.661
354.292
356.582
358.501
360.057
361.342
362.49
363.567
364.425
364.83
364.795
364.543
364.259
364
363.772
363.577
363.426
363.341
363.355
363.497
363.365
362.318
362.093
364.427
359.727
345.083
340.795
361.082
383.707
410.789
321.71
337.866
344.627
348.916
352.463
355.471
357.956
359.912
361.377
362.447
363.255
363.923
364.539
365.095
365.402
365.304
364.991
364.735
364.564
364.511
364.691
365.281
366.5
368.421
372.109
382.868
383.673
372.856
362.14
356.096
358.183
370.757
386.941
405.586
431.97
325.546
340.959
347.402
351.724
355.42
358.552
361.033
362.83
364.028
364.782
365.251
365.565
365.808
366.021
366.156
366.045
365.663
365.26
365.029
365.061
365.64
367.501
372.435
383.376
398.617
408.214
406.71
400.985
397.615
397.422
401.696
410.11
421.154
434.779
445.844
329.189
343.336
349.355
353.643
357.407
360.589
363.038
364.75
365.86
366.536
366.917
367.107
367.175
367.165
367.093
366.941
366.64
366.184
365.691
365.262
364.977
365.041
366.007
369.091
376.118
386.88
396.591
402.305
406.738
411.477
416.815
422.568
428.352
433.594
436.672
331.245
344.924
350.814
355.111
358.871
361.972
364.291
365.891
366.945
367.621
368.037
368.268
368.364
368.353
368.248
368.047
367.742
367.332
366.858
366.387
365.961
365.595
365.318
365.251
365.712
367.259
370.202
373.993
378.084
382.243
386.069
389.315
392.496
397.528
413.15
332.442
346.199
352.142
356.492
360.244
363.244
365.41
366.872
367.834
368.462
368.866
369.113
369.241
369.276
369.229
369.099
368.877
368.549
368.123
367.645
367.18
366.766
366.411
366.115
365.878
365.733
365.757
366.031
366.561
367.277
368.072
368.757
369.251
369.696
398.205
333.064
346.912
352.913
357.31
361.1
364.128
366.317
367.797
368.766
369.391
369.784
370.018
370.137
370.168
370.127
370.022
369.852
369.609
369.284
368.885
368.444
368.015
367.64
367.341
367.115
366.956
366.808
366.589
366.35
366.204
366.338
366.478
362.735
358.369
393.765
333.373
347.433
353.501
357.935
361.757
364.81
367.022
368.53
369.531
370.185
370.602
370.854
370.984
371.023
370.987
370.889
370.734
370.526
370.262
369.947
369.605
369.296
369.086
369.106
369.208
369.12
369.382
370.143
370.634
370.509
369.347
366.391
363.622
368.385
396.775
333.63
348.04
354.235
358.79
362.744
365.86
368.059
369.517
370.465
371.076
371.46
371.687
371.808
371.845
371.805
371.694
371.522
371.308
371.078
370.864
370.772
371.024
371.786
373.477
376.008
374.874
372.28
372.287
374.795
377.918
379.786
380.725
383.233
391.471
416.065
333.724
348.394
354.646
359.335
363.519
366.81
369.066
370.509
371.417
371.989
372.341
372.552
372.665
372.696
372.652
372.539
372.371
372.175
371.993
371.962
372.571
375.378
383.335
388.866
384.548
378.09
374.537
373.566
375.166
379.092
384.178
389.737
397.052
409.795
433.089
332.237
347.017
353.263
358.097
362.722
366.562
369.256
370.974
372.035
372.689
373.089
373.322
373.44
373.475
373.438
373.333
373.163
372.927
372.649
372.518
373.23
376.61
385.048
395.823
400.539
399.101
396.558
394.494
393.215
393.116
394.614
398.173
404.967
418.275
440.036
328.131
342.675
348.847
353.711
358.795
363.598
367.418
370.081
371.805
372.878
373.532
373.918
374.131
374.228
374.241
374.184
374.058
373.852
373.546
373.128
372.646
372.443
373.688
378.666
387.547
396.067
402.425
407.642
412.368
416.794
420.861
424.601
428.986
436.494
446.173
322.493
336.74
343.029
347.73
352.616
357.768
362.654
366.708
369.721
371.789
373.13
373.965
374.466
374.751
374.892
374.935
374.903
374.806
374.644
374.411
374.097
373.696
373.251
372.973
373.404
375.225
378.704
383.686
389.978
397.471
406.241
416.495
426.526
434.422
439.558
318.864
333.643
340.449
344.982
349.055
353.18
357.537
361.894
365.839
369.063
371.458
373.096
374.152
374.807
375.201
375.424
375.533
375.557
375.512
375.406
375.243
375.021
374.738
374.394
374.008
373.637
373.388
373.406
373.88
375.04
377.15
380.819
388.774
402.323
421.501
318.855
335.5
343.061
347.694
351.266
354.227
356.955
359.807
362.91
366.102
369.056
371.47
373.22
374.377
375.107
375.56
375.84
376.007
376.088
376.098
376.047
375.944
375.793
375.598
375.361
375.082
374.761
374.403
374.011
373.591
373.133
372.472
370.907
379.676
411.813
321.533
339.713
347.653
352.507
356.181
358.941
360.951
362.495
363.954
365.686
367.825
370.158
372.267
373.859
374.918
375.583
376.007
376.297
376.494
376.609
376.651
376.632
376.563
376.456
376.321
376.166
375.999
375.823
375.631
375.405
375.045
373.88
371.823
379.619
409.173
324.414
343.131
351.223
356.39
360.536
363.694
365.844
367.171
367.965
368.55
369.291
370.507
372.136
373.729
374.935
375.724
376.231
376.594
376.866
377.052
377.161
377.205
377.197
377.154
377.092
377.03
376.989
376.987
377.045
377.233
377.869
378.74
382.872
392.034
411.875
328.151
346.983
355.297
360.916
365.558
368.929
371.018
372.142
372.659
372.839
372.893
373.073
373.667
374.618
375.542
376.219
376.685
377.041
377.326
377.539
377.683
377.77
377.814
377.836
377.859
377.914
378.034
378.262
378.751
380.253
383.688
388.039
394.746
404.174
421.272
333.767
351.775
360.297
366.683
371.606
374.48
375.852
376.403
376.542
376.481
376.335
376.204
376.225
376.482
376.857
377.2
377.487
377.738
377.953
378.123
378.246
378.327
378.38
378.425
378.493
378.622
378.861
379.319
380.471
384.191
391.294
398.044
404.343
412.696
429.307
337.444
353.907
362.913
370.683
375.71
377.829
378.544
378.723
378.695
378.585
378.449
378.33
378.263
378.272
378.342
378.442
378.555
378.673
378.783
378.874
378.941
378.985
379.016
379.051
379.118
379.258
379.53
380.087
381.507
385.829
394.782
402.527
408.8
416.609
432.192
334.717
350.465
359.865
368.897
374.914
377.719
378.907
379.407
379.607
379.67
379.673
379.654
379.634
379.625
379.632
379.651
379.68
379.712
379.742
379.764
379.777
379.782
379.787
379.809
379.875
380.022
380.315
380.92
382.371
386.511
396.334
406.321
412.664
419.878
434.271
327.473
342.759
351.12
359.652
368.489
374.57
377.711
379.209
379.946
380.323
380.522
380.628
380.685
380.715
380.731
380.739
380.741
380.736
380.724
380.702
380.672
380.637
380.603
380.584
380.604
380.699
380.929
381.441
382.636
385.886
394.67
408.018
415.596
422.875
435.843
321.21
336.4
343.379
349.488
358.473
368.336
374.882
378.157
379.749
380.588
381.065
381.349
381.522
381.627
381.689
381.723
381.738
381.737
381.722
381.695
381.656
381.609
381.558
381.514
381.491
381.514
381.634
381.948
382.697
384.649
390.311
402.866
413.651
422.498
434.676
320.062
337.479
345.487
350.545
355.723
363.699
371.842
376.78
379.25
380.547
381.303
381.776
382.083
382.292
382.438
382.538
382.603
382.638
382.651
382.644
382.621
382.587
382.547
382.506
382.476
382.474
382.532
382.713
383.154
384.236
387.331
396.146
408.995
419.155
431.246
325.527
345.215
354.52
360.665
365.161
368.617
373.542
377.554
379.769
380.989
381.73
382.219
382.579
382.864
383.085
383.254
383.38
383.47
383.53
383.565
383.579
383.575
383.559
383.535
383.511
383.497
383.514
383.604
383.854
384.485
386.322
392.519
405.671
416.172
428.193
334.15
351.56
360.556
368.366
374.193
376.621
378.311
380.017
381.168
381.928
382.467
382.875
383.212
383.503
383.751
383.96
384.133
384.275
384.391
384.485
384.561
384.624
384.677
384.725
384.773
384.83
384.912
385.047
385.296
385.832
387.352
392.85
405.499
415.906
427.835
339.606
355.331
364.431
373.469
378.809
380.59
381.31
381.918
382.455
382.914
383.304
383.637
383.933
384.203
384.449
384.67
384.866
385.04
385.195
385.335
385.466
385.592
385.719
385.852
386
386.178
386.408
386.725
387.202
388.075
390.231
396.475
407.623
417.795
430.348
341.487
359.607
369.734
378.067
381.308
382.268
382.739
383.114
383.467
383.803
384.116
384.405
384.672
384.927
385.17
385.399
385.612
385.811
385.998
386.177
386.353
386.534
386.728
386.942
387.194
387.513
387.941
388.55
389.514
391.335
395.3
402.848
411.951
421.297
434.668
343.121
363.362
373.909
380.648
382.584
383.269
383.672
383.999
384.304
384.596
384.876
385.143
385.398
385.645
385.887
386.124
386.353
386.574
386.788
387
387.215
387.44
387.685
387.961
388.296
388.732
389.336
390.233
391.747
394.743
400.756
409.434
417.113
425.243
438.013
342.659
361.79
372.304
380.197
382.98
383.92
384.374
384.7
384.99
385.268
385.539
385.802
386.058
386.307
386.555
386.803
387.05
387.294
387.538
387.784
388.038
388.306
388.6
388.937
389.351
389.898
390.66
391.819
393.823
397.79
405.259
414.584
421.5
428.59
439.742
336.022
351.843
361.555
372.569
380.29
383.545
384.731
385.262
385.603
385.89
386.161
386.425
386.684
386.936
387.188
387.444
387.703
387.964
388.229
388.5
388.784
389.088
389.422
389.813
390.304
390.951
391.853
393.219
395.551
399.996
407.932
417.308
423.814
430.192
439.986
325.008
339.428
347.393
356.421
369.919
379.534
383.698
385.261
385.958
386.376
386.696
386.975
387.238
387.502
387.769
388.039
388.313
388.589
388.87
389.159
389.461
389.784
390.142
390.566
391.1
391.802
392.774
394.223
396.614
400.942
408.367
417.204
423.506
429.589
438.998
320.756
338.426
347.592
354.086
363.115
374.853
381.977
384.899
386.105
386.721
387.129
387.464
387.772
388.066
388.356
388.645
388.935
389.226
389.521
389.823
390.137
390.469
390.831
391.253
391.782
392.469
393.403
394.762
396.918
400.622
406.776
414.408
420.462
426.551
436.644
330.782
352.13
364.914
374.613
376.661
381.314
384.795
386.166
386.863
387.33
387.718
388.073
388.406
388.725
389.036
389.344
389.651
389.961
390.274
390.594
390.925
391.27
391.644
392.076
392.606
393.28
394.175
395.439
397.365
400.5
405.468
411.729
417.33
423.496
434.585
341.085
359.84
373.181
386.472
386.797
386.551
387.07
387.498
387.867
388.201
388.514
388.819
389.123
389.429
389.741
390.06
390.385
390.715
391.05
391.394
391.748
392.121
392.537
393.022
393.609
394.343
395.297
396.601
398.498
401.383
405.625
410.838
415.906
422.022
433.774
335.895
353.731
364.35
376.771
384.361
387.089
388.061
388.483
388.754
389.002
389.262
389.539
389.832
390.138
390.454
390.778
391.109
391.446
391.79
392.146
392.519
392.925
393.38
393.913
394.557
395.362
396.403
397.809
399.794
402.654
406.578
411.201
415.863
421.819
433.701
325.838
344.484
351.619
357.851
368.662
378.927
384.741
387.537
388.771
389.354
389.717
390.026
390.335
390.658
390.996
391.346
391.704
392.069
392.44
392.823
393.226
393.663
394.152
394.721
395.407
396.263
397.371
398.861
400.933
403.822
407.601
411.907
416.295
422.04
433.754
326.918
346.359
354.745
359.539
363.436
369.841
377.214
382.963
386.68
388.681
389.673
390.235
390.651
391.027
391.399
391.778
392.166
392.563
392.968
393.386
393.822
394.288
394.802
395.387
396.077
396.924
398.011
399.472
401.509
404.351
408.047
412.225
416.479
422.059
433.578
330.191
349.58
358.509
364.452
368.625
371.18
373.923
378.193
382.662
386.27
388.632
389.945
390.697
391.227
391.683
392.121
392.559
393.002
393.456
393.925
394.418
394.946
395.524
396.174
396.927
397.831
398.967
400.467
402.53
405.364
408.984
413.023
417.145
422.614
433.978
330.917
350.031
358.689
365.014
370.609
374.862
377.447
379.11
381.086
383.826
386.634
388.861
390.295
391.174
391.79
392.301
392.775
393.244
393.726
394.229
394.757
395.327
395.954
396.658
397.467
398.426
399.61
401.147
403.232
406.07
409.664
413.634
417.649
422.966
434.157
331.819
351.008
359.602
365.944
371.968
377.164
380.783
382.861
383.964
384.768
386.018
387.799
389.538
390.832
391.724
392.407
393.007
393.575
394.133
394.695
395.277
395.897
396.573
397.328
398.194
399.215
400.465
402.071
404.228
407.124
410.72
414.61
418.51
423.717
434.747
331.624
351.291
360.197
366.885
373.359
378.949
382.985
385.508
386.94
387.716
388.153
388.633
389.59
390.838
391.928
392.717
393.304
393.824
394.36
394.934
395.544
396.208
396.956
397.813
398.808
399.99
401.431
403.25
405.611
408.645
412.24
415.997
419.726
424.773
435.608
331.616
350.586
359.689
367.25
375.189
381.622
385.685
388.009
389.312
390.026
390.392
390.521
390.528
390.849
391.553
392.322
393.047
393.739
394.414
395.083
395.761
396.474
397.254
398.138
399.17
400.415
401.967
403.958
406.544
409.797
413.505
417.226
420.832
425.708
436.285
328.96
347.794
357.124
365.279
374.722
382.612
387.415
389.967
391.298
391.998
392.349
392.484
392.439
392.286
392.473
393.109
393.813
394.416
394.979
395.576
396.241
396.981
397.806
398.738
399.823
401.137
402.8
404.97
407.8
411.287
415.105
418.8
422.346
427.177
437.502
327.92
347.092
356.973
365.412
374.734
382.454
387.456
390.333
391.927
392.796
393.249
393.45
393.489
393.389
393.125
392.894
393.163
393.857
394.655
395.437
396.225
397.064
397.985
399.015
400.196
401.603
403.37
405.693
408.759
412.529
416.544
420.286
423.788
428.527
438.561
330.015
350.241
361.281
371.267
381.241
387.747
391.31
393.234
394.298
394.887
395.193
395.318
395.315
395.202
394.953
394.533
394.198
394.334
394.866
395.584
396.403
397.321
398.357
399.536
400.897
402.51
404.499
407.045
410.299
414.161
418.127
421.735
425.13
429.806
439.606
332.077
352.387
364.608
376.749
387.352
392.601
394.656
395.45
395.785
395.932
395.975
395.944
395.864
395.749
395.58
395.267
394.818
394.787
395.322
396.066
396.865
397.753
398.794
400.037
401.534
403.365
405.66
408.58
412.187
416.225
420.135
423.598
426.892
431.486
440.79
333.325
353.823
367.337
381.899
393.013
397.327
398.236
398.025
397.629
397.328
397.103
396.856
396.493
395.998
395.626
395.57
395.758
396.12
396.605
397.184
397.877
398.711
399.719
400.971
402.56
404.62
407.317
410.754
414.775
418.894
422.623
425.878
429.063
433.555
441.98
333.614
354.871
369.611
386.49
397.504
399.634
398.508
397.044
396.175
395.887
395.928
396.084
396.275
396.492
396.749
397.075
397.478
397.961
398.522
399.173
399.937
400.85
401.965
403.358
405.129
407.405
410.287
413.75
417.525
421.186
424.463
427.406
430.456
434.906
442.778
333.01
354.413
368.327
384.355
397.006
399.188
397.737
396.749
396.579
396.574
396.643
396.782
396.991
397.278
397.658
398.142
398.735
399.443
400.271
401.226
402.322
403.585
405.065
406.831
408.959
411.503
414.446
417.657
420.905
423.957
426.735
429.338
432.197
436.489
443.554
333.275
353.424
365.17
378.298
392.417
399.049
399.718
398.407
397.562
397.422
397.474
397.648
397.918
398.255
398.637
399.066
399.558
400.148
400.879
401.804
402.978
404.446
406.241
408.389
410.905
413.782
416.94
420.205
423.351
426.227
428.82
431.251
433.911
437.797
443.808
337.053
356.994
368.22
379.168
389.639
397.41
400.265
400.457
399.383
398.624
398.562
398.653
398.834
399.121
399.533
400.073
400.726
401.459
402.252
403.114
404.102
405.306
406.838
408.792
411.21
414.046
417.163
420.356
423.415
426.217
428.76
431.153
433.791
437.663
443.657
340.55
360.532
372.855
384.862
391.788
396.73
399.568
400.637
400.725
400.153
399.684
399.71
399.876
400.082
400.377
400.793
401.367
402.154
403.192
404.471
405.94
407.55
409.301
411.258
413.497
416.03
418.759
421.505
424.109
426.508
428.738
430.914
433.438
437.348
443.594
342.19
362.23
376.367
392.164
397.83
399.408
400.491
401.084
401.296
401.182
400.813
400.541
400.671
401.051
401.383
401.658
401.976
402.423
403.076
404.04
405.407
407.216
409.415
411.875
414.459
417.089
419.727
422.319
424.791
427.092
429.237
431.325
433.699
437.329
443.445
337.852
358.032
372.581
390.222
398.616
400.835
401.506
401.807
401.936
401.927
401.779
401.522
401.321
401.416
401.897
402.607
403.235
403.644
403.944
404.273
404.754
405.516
406.701
408.429
410.726
413.493
416.528
419.615
422.604
425.417
428.05
430.569
433.299
437.255
443.589
329.513
348.745
360.897
375.905
391.321
399.16
401.872
402.654
402.83
402.807
402.692
402.513
402.285
402.081
402.071
402.452
403.311
404.552
405.903
407.03
407.841
408.477
409.151
410.1
411.579
413.713
416.375
419.284
422.196
424.993
427.661
430.26
433.174
437.479
443.781
324.092
343.86
352.98
360.444
374.742
389.622
398.328
401.919
403.195
403.604
403.673
403.592
403.433
403.228
403.015
402.881
402.982
403.504
404.59
406.268
408.427
410.778
412.982
414.928
416.712
418.474
420.315
422.269
424.295
426.305
428.241
430.132
432.273
435.651
442.134
325.746
349.166
361.093
369.545
376.245
385.922
395.329
400.619
402.919
403.89
404.308
404.467
404.484
404.415
404.291
404.133
403.972
403.869
403.925
404.286
405.13
406.589
408.542
410.688
412.834
414.994
417.231
419.503
421.718
423.822
425.842
427.858
430.048
433.303
440.541
332.105
356.499
371.211
384.657
392.432
395.711
399.975
402.749
404.095
404.774
405.141
405.34
405.437
405.466
405.449
405.396
405.314
405.207
405.081
404.951
404.842
404.778
404.776
404.951
405.984
408.171
411.094
414.327
417.679
421.087
424.507
427.86
431.112
435.197
442.304
337.69
360.974
377.135
394.647
402.909
403.916
404.717
405.354
405.781
406.064
406.247
406.364
406.437
406.48
406.505
406.518
406.525
406.529
406.536
406.559
406.632
406.668
405.794
405.558
406.673
408.874
411.9
415.518
419.484
423.533
427.435
431.059
434.629
438.994
444.37
339.179
363.377
379.764
397.478
405.703
406.653
406.828
406.984
407.129
407.245
407.33
407.389
407.428
407.458
407.487
407.525
407.582
407.679
407.878
408.36
409.424
410.882
411.251
411.369
412.107
413.436
415.437
418.074
421.153
424.38
427.499
430.419
433.511
437.768
443.956
339.022
363.839
379.661
395.955
405.523
407.666
408.084
408.213
408.282
408.331
408.368
408.392
408.404
408.407
408.408
408.417
408.446
408.52
408.694
409.111
410.081
411.902
413.982
415.493
416.647
417.722
418.91
420.322
421.996
423.897
425.949
428.119
430.734
435.163
444.145
338.785
363.674
379.375
395.508
405.808
408.531
409.092
409.238
409.295
409.331
409.363
409.394
409.417
409.429
409.43
409.423
409.421
409.438
409.508
409.697
410.158
411.157
412.855
414.921
417.005
418.982
420.824
422.568
424.317
426.193
428.264
430.583
433.461
438.291
446.758
339.807
365.305
381.373
397.533
407.198
409.6
410.026
410.113
410.142
410.17
410.215
410.276
410.343
410.402
410.443
410.462
410.468
410.476
410.513
410.616
410.854
411.351
412.279
413.747
415.736
418.184
421.009
424.068
427.155
430.143
433.051
435.979
439.181
443.62
448.217
340.38
366.639
383.365
400.347
409.583
411.082
411.124
411.035
410.962
410.933
410.957
411.034
411.148
411.268
411.362
411.408
411.414
411.407
411.421
411.485
411.637
411.937
412.479
413.389
414.803
416.85
419.619
423.061
426.878
430.672
434.248
437.592
440.731
444.103
445.966
339.301
365.716
382.208
399.219
410.534
412.354
412.214
411.966
411.771
411.644
411.598
411.648
411.785
411.968
412.133
412.219
412.215
412.17
412.138
412.153
412.24
412.433
412.784
413.369
414.291
415.684
417.703
420.473
423.969
427.906
431.786
435.143
437.882
440.514
442.903
338.061
364.219
380.774
398.444
411.63
413.837
413.452
413.012
412.673
412.415
412.245
412.189
412.272
412.475
412.726
412.918
412.963
412.873
412.742
412.645
412.615
412.675
412.866
413.243
413.882
414.884
416.387
418.579
421.625
425.38
429.122
432.178
434.71
437.624
442.359
337.313
362.484
378.134
395.67
411.895
415.517
414.927
414.248
413.747
413.352
413.035
412.81
412.728
412.828
413.085
413.405
413.653
413.708
413.569
413.35
413.16
413.045
413.043
413.211
413.64
414.452
415.797
417.847
420.724
424.211
427.59
430.399
433.08
436.826
443.266
334.201
358.173
371.744
386.503
406.281
415.795
416.533
415.724
415.029
414.501
414.063
413.686
413.396
413.263
413.343
413.616
413.987
414.312
414.439
414.312
414.025
413.716
413.475
413.366
413.481
413.975
415.061
416.944
419.649
422.813
425.834
428.502
431.351
435.768
443.394
331.095
354.503
366.09
376.68
394.04
411.049
417.032
417.203
416.382
415.698
415.165
414.705
414.291
413.965
413.815
413.904
414.212
414.65
415.085
415.351
415.332
415.057
414.67
414.309
414.086
414.156
414.754
416.147
418.382
421.086
423.773
426.346
429.368
434.485
443.327
331.094
356.428
369.128
379.192
391.082
406.563
416.428
418.36
417.6
416.747
416.116
415.605
415.141
414.73
414.446
414.378
414.557
414.953
415.502
416.104
416.609
416.864
416.824
416.59
416.328
416.223
416.498
417.39
418.991
421.097
423.415
425.879
429.022
434.553
443.52
335.083
362.748
377.462
389.859
401.841
411.229
418.264
419.606
418.511
417.493
416.812
416.299
415.86
415.463
415.156
415.016
415.086
415.375
415.876