/*--------------------------------*- C++ -*----------------------------------*\
| =========                 |                                                 |
| \\      /  F ield         | OpenFOAM: The Open Source CFD Toolbox           |
|  \\    /   O peration     | Version:  v2006                                 |
|   \\  /    A nd           | Website:  www.openfoam.com                      |
|    \\/     M anipulation  |                                                 |
\*---------------------------------------------------------------------------*/
FoamFile
{
    version     2.0;
    format      ascii;
    class       volVectorField;
    location    "63";
    object      U;
}
// * * * * * * * * * * * * * * * * * * * * * * * * * * * * * * * * * * * * * //

dimensions      [0 1 -1 0 0 0 0];


internalField   nonuniform List<vector> 
78750
(
(-0.377339 -0.230927 4.58124)
(0.790537 -0.361167 2.58726)
(-0.65447 -0.282273 -1.00039)
(0.349698 -0.40947 -0.509912)
(-0.199476 -0.262148 -0.321853)
(0.128274 -0.268657 -0.2579)
(0.0672333 -0.22584 -0.247364)
(0.0835975 -0.20216 -0.241928)
(0.135122 -0.175987 -0.247984)
(0.146303 -0.160309 -0.249402)
(0.170663 -0.144608 -0.261442)
(0.180549 -0.135062 -0.26166)
(0.197743 -0.124973 -0.271476)
(0.208848 -0.115913 -0.277641)
(0.218922 -0.106842 -0.284454)
(0.227309 -0.0978174 -0.29063)
(0.23446 -0.0884896 -0.295994)
(0.240373 -0.0787923 -0.300382)
(0.245163 -0.0688496 -0.30388)
(0.248652 -0.0588025 -0.306592)
(0.250687 -0.0488086 -0.308649)
(0.25113 -0.0390109 -0.310035)
(0.249965 -0.0294583 -0.310906)
(0.247143 -0.020396 -0.3111)
(0.242598 -0.011762 -0.31094)
(0.236121 -0.003928 -0.310015)
(0.227459 0.003502 -0.308724)
(0.216474 0.00952804 -0.306495)
(0.202528 0.0157814 -0.30438)
(0.185951 0.0193169 -0.297676)
(0.165409 0.0223407 -0.301302)
(0.139837 0.0222838 -0.276348)
(0.111545 0.0183285 -0.296747)
(0.0790802 -0.00693632 -0.358921)
(0.0322655 0.00283511 0.0439377)
(0.542005 0.0519091 -3.76347)
(-0.492055 -0.381425 -3.40992)
(0.387447 0.00402947 -0.0350741)
(-0.224463 -0.103929 0.211621)
(0.213437 -0.0267573 0.298219)
(-0.213359 -0.140784 0.0813792)
(0.107737 -0.0392518 0.149874)
(-0.177705 -0.119603 0.0397143)
(0.0214185 -0.0447003 0.0881203)
(-0.125728 -0.0980739 -0.00263523)
(-0.0170815 0.00272494 0.0171384)
(-0.0810782 -0.0840878 0.0250009)
(-0.0283707 0.0156723 -0.04724)
(-0.0425796 -0.0111679 -0.025943)
(-0.0231515 0.0140054 -0.0522767)
(-0.0161856 0.0270896 -0.0649168)
(-0.005545 0.040513 -0.0782354)
(0.00389295 0.0534552 -0.0908897)
(0.0134821 0.0658984 -0.103312)
(0.0229938 0.0783625 -0.115196)
(0.0326647 0.0913075 -0.125923)
(0.0424245 0.104298 -0.134884)
(0.052242 0.11777 -0.142136)
(0.0618544 0.132117 -0.147814)
(0.0712381 0.147776 -0.152106)
(0.0798551 0.164924 -0.154996)
(0.0877058 0.183968 -0.156691)
(0.0939326 0.204799 -0.156809)
(0.0988038 0.228025 -0.155919)
(0.100972 0.253113 -0.151855)
(0.100387 0.282468 -0.149201)
(0.094884 0.311626 -0.126989)
(0.0856532 0.345353 -0.16317)
(0.0635273 0.394748 -0.0717787)
(0.0208345 0.402125 0.246345)
(0.083579 0.39337 -0.916252)
(0.0378385 0.201681 0.0373235)
(-1.92075e-05 -0.0918993 -0.0215253)
(0.0891885 -0.127884 0.0116718)
(0.0369328 -0.133276 0.0110539)
(0.0814211 -0.110078 0.0507982)
(0.046498 -0.138026 0.0418536)
(0.0673674 -0.158919 0.0739182)
(0.0297922 -0.197854 0.0730827)
(0.0284841 -0.2096 0.102648)
(-0.00444947 -0.215268 0.0972737)
(-0.00649754 -0.204233 0.0924849)
(-0.0314382 -0.195688 0.0838171)
(-0.0327351 -0.180842 0.0687347)
(-0.0397382 -0.166186 0.0541599)
(-0.0418013 -0.15046 0.0384044)
(-0.0420268 -0.13449 0.022886)
(-0.0402422 -0.118208 0.00795603)
(-0.036787 -0.101625 -0.00609448)
(-0.0314571 -0.0847626 -0.0190138)
(-0.0248449 -0.0682125 -0.030271)
(-0.0178172 -0.0525873 -0.0396498)
(-0.0102897 -0.0369277 -0.0480148)
(-0.00242586 -0.0204029 -0.0556136)
(0.00554892 -0.00222347 -0.0621066)
(0.0135401 0.0178889 -0.0670886)
(0.0215009 0.0401993 -0.0702651)
(0.0291432 0.0649167 -0.0713048)
(0.0366564 0.0934655 -0.0696543)
(0.0427491 0.126304 -0.0644049)
(0.0484296 0.168766 -0.0533626)
(0.0492578 0.214783 -0.0331519)
(0.0473712 0.290824 -0.00359847)
(0.033043 0.410817 0.184164)
(0.0101328 0.428612 0.2959)
(0.0236185 -0.102425 -0.156092)
(0.049221 -0.192426 -0.150462)
(0.0766241 -0.193673 -0.158806)
(0.0776247 -0.175731 -0.171344)
(0.0837732 -0.156221 -0.178098)
(0.0815151 -0.133998 -0.187493)
(0.0834312 -0.0838237 -0.183652)
(0.0771682 -0.00537506 -0.166569)
(0.0683841 0.0747124 -0.129775)
(0.052058 0.118313 -0.0908622)
(0.034672 0.123082 -0.0567906)
(0.0147846 0.098227 -0.0308346)
(-0.00156399 0.0680583 -0.013239)
(-0.0169716 0.0419703 -0.00243481)
(-0.0295127 0.0262116 0.00254045)
(-0.0396386 0.0181608 0.00255139)
(-0.0475916 0.0144885 -0.00116727)
(-0.0535736 0.0138007 -0.00732942)
(-0.0575798 0.0156457 -0.0149653)
(-0.0596331 0.0198459 -0.0232845)
(-0.0598636 0.0262148 -0.0316788)
(-0.0584834 0.034559 -0.0396977)
(-0.0554152 0.0445227 -0.0469751)
(-0.0507451 0.0560922 -0.0531749)
(-0.0449961 0.069467 -0.0578363)
(-0.0385078 0.0844403 -0.0604073)
(-0.0315819 0.100906 -0.0601896)
(-0.0244883 0.119246 -0.0562915)
(-0.0173355 0.140843 -0.0473466)
(-0.0104145 0.168409 -0.0309642)
(-0.00335427 0.206977 -0.00284657)
(0.00191818 0.260344 0.0435116)
(0.00154487 0.344252 0.125011)
(-0.00229053 0.41006 0.213587)
(-0.00179156 0.397454 0.205349)
(0.000667574 -0.0694024 0.104441)
(0.00399542 -0.215384 0.180916)
(-0.00614099 -0.212481 0.0954368)
(-0.00288368 -0.160717 0.0644587)
(-0.00795106 -0.107508 0.035838)
(-0.0113393 -0.0685498 0.0180904)
(-0.0150364 -0.0401542 0.00489449)
(-0.0162574 -0.0146899 -0.00231195)
(-0.0144655 0.0101557 -0.00214956)
(-0.0102708 0.0308636 0.00393461)
(-0.00701921 0.0408018 0.0105)
(-0.00622733 0.0402208 0.0152335)
(-0.00809406 0.0324002 0.0185636)
(-0.0134249 0.0234957 0.0206815)
(-0.0198773 0.016441 0.0206325)
(-0.0256262 0.00987976 0.019254)
(-0.0305145 0.00513644 0.0174754)
(-0.0343896 0.00199815 0.0152665)
(-0.0374718 -0.000635616 0.0122518)
(-0.0396097 -0.00296984 0.00826047)
(-0.0406546 -0.00469388 0.00325007)
(-0.0405733 -0.00502735 -0.00280019)
(-0.0393467 -0.00259399 -0.00980161)
(-0.0369248 0.00431318 -0.017488)
(-0.0332779 0.0167211 -0.0252712)
(-0.0285766 0.0340244 -0.0324632)
(-0.0231806 0.0548288 -0.0384898)
(-0.0175671 0.0779301 -0.0425494)
(-0.0122685 0.102778 -0.0432419)
(-0.00769483 0.130789 -0.0380625)
(-0.00380374 0.16771 -0.0220928)
(-0.0014757 0.226417 0.0142558)
(-0.000461861 0.32112 0.0806916)
(-0.00108944 0.358595 0.109876)
(0.000543087 0.341007 0.0965391)
(0.00672824 -0.20991 -0.0010041)
(0.0152424 -0.232784 -0.079974)
(0.019219 -0.212131 -0.0847814)
(0.0200197 -0.182323 -0.0897486)
(0.0211249 -0.140002 -0.0902431)
(0.0202796 -0.0920538 -0.0831595)
(0.017968 -0.047334 -0.0712851)
(0.015034 -0.00905883 -0.0584214)
(0.0121196 0.0230523 -0.0452923)
(0.00935052 0.0488618 -0.031278)
(0.00653835 0.0678084 -0.0164971)
(0.0031025 0.080819 -0.0016512)
(-0.0017068 0.0889198 0.0109798)
(-0.00708312 0.0907449 0.0179564)
(-0.0128575 0.0859657 0.0194159)
(-0.0192412 0.0771736 0.01694)
(-0.0253016 0.0694422 0.0127034)
(-0.0303744 0.0648789 0.00849947)
(-0.0345878 0.0622254 0.00465638)
(-0.0380646 0.060403 0.00102263)
(-0.0408847 0.0591661 -0.00246698)
(-0.0430994 0.0586425 -0.00579524)
(-0.0446223 0.0590538 -0.00896707)
(-0.0451955 0.0606959 -0.0120733)
(-0.0445508 0.0641363 -0.0152806)
(-0.0425131 0.0706387 -0.0187392)
(-0.0388226 0.0824776 -0.0223832)
(-0.0333477 0.101949 -0.0256637)
(-0.0267783 0.128994 -0.0276058)
(-0.0204446 0.161745 -0.0268772)
(-0.0152871 0.201213 -0.020479)
(-0.0112937 0.255271 -0.00230467)
(-0.00652807 0.326636 0.029765)
(-0.00416414 0.350957 0.0414724)
(-0.00136345 0.323553 0.035919)
(-0.00268008 -0.223577 0.0296105)
(-0.00720811 -0.253619 0.0774416)
(-0.00969468 -0.223673 0.0746971)
(-0.00933887 -0.160961 0.0447832)
(-0.00690708 -0.0917333 0.00679639)
(-0.00566653 -0.0379971 -0.0173715)
(-0.00587014 -0.000660177 -0.0274819)
(-0.00652471 0.0268359 -0.0297222)
(-0.00669915 0.0482571 -0.0278183)
(-0.00632431 0.0650703 -0.0233649)
(-0.00570796 0.0775393 -0.0173226)
(-0.0051671 0.0859186 -0.0105112)
(-0.00487228 0.0910366 -0.00352727)
(-0.00493479 0.0941227 0.00306754)
(-0.00569485 0.0958874 0.00837027)
(-0.00742047 0.0956526 0.0115314)
(-0.0101028 0.0928488 0.0125429)
(-0.0135547 0.0881369 0.0116191)
(-0.0171381 0.0832689 0.00922169)
(-0.0203348 0.0795363 0.00609613)
(-0.0230281 0.0769814 0.00273825)
(-0.0251789 0.07526 -0.000638555)
(-0.0267509 0.0741951 -0.00392922)
(-0.0277141 0.0737961 -0.00708284)
(-0.0280162 0.0742062 -0.0100946)
(-0.0275713 0.0757617 -0.0129986)
(-0.0262526 0.0795051 -0.0158721)
(-0.0237051 0.0886091 -0.0187018)
(-0.0194408 0.109289 -0.0208775)
(-0.0138813 0.146714 -0.0211207)
(-0.00861923 0.199567 -0.0182808)
(-0.00488488 0.26467 -0.00993645)
(-0.00178619 0.332447 0.00526911)
(-0.000473598 0.357495 0.0129501)
(0.00023835 0.320769 0.0127921)
(-0.00414369 -0.197275 0.0548403)
(-0.00427064 -0.281533 0.0611612)
(-0.00250957 -0.292962 0.0587116)
(0.00216792 -0.276389 0.0538621)
(0.0112446 -0.211696 0.0363175)
(0.0197968 -0.124434 0.00910423)
(0.023855 -0.0558169 -0.0116778)
(0.0236783 -0.0117348 -0.0206059)
(0.0213112 0.0179599 -0.0222487)
(0.0180799 0.0403369 -0.0203975)
(0.0148647 0.0576822 -0.0167686)
(0.0119788 0.0704042 -0.0122769)
(0.00941043 0.0791112 -0.00742013)
(0.00698007 0.0853351 -0.00226538)
(0.00444967 0.0911071 0.00306202)
(0.00167572 0.0974772 0.00758943)
(-0.00134866 0.10303 0.0101115)
(-0.00449189 0.105992 0.0105179)
(-0.00761829 0.106242 0.00934039)
(-0.0106116 0.104762 0.00709782)
(-0.0132924 0.102733 0.00427434)
(-0.0155492 0.100862 0.00124525)
(-0.0173518 0.099397 -0.00180872)
(-0.018671 0.098424 -0.00479983)
(-0.0194923 0.0980528 -0.00767407)
(-0.0198037 0.0984788 -0.0103895)
(-0.0195717 0.100057 -0.012918)
(-0.0186838 0.103906 -0.0152785)
(-0.0166794 0.114305 -0.0173805)
(-0.0128044 0.141953 -0.0181704)
(-0.00738772 0.197618 -0.0157284)
(-0.00245876 0.27661 -0.00958663)
(0.000289671 0.351552 -0.000723564)
(0.000920749 0.377871 0.0049196)
(0.000727434 0.333051 0.00664067)
(0.000602649 -0.216344 0.0388601)
(0.00376511 -0.302088 0.0628654)
(0.00455787 -0.319239 0.0726139)
(0.0060371 -0.317485 0.0776659)
(0.00931203 -0.284183 0.0769351)
(0.0158966 -0.188297 0.0612223)
(0.023343 -0.0728137 0.0292457)
(0.0262487 0.0104204 0.00222604)
(0.0248312 0.0569334 -0.00969884)
(0.0214705 0.0821768 -0.0121015)
(0.0176816 0.0965738 -0.0106803)
(0.0140039 0.105006 -0.00779611)
(0.0104687 0.110186 -0.0040319)
(0.00694919 0.114299 0.000560007)
(0.00336663 0.118976 0.00529898)
(-0.000156005 0.123606 0.00849066)
(-0.00337134 0.126197 0.0092962)
(-0.00619897 0.126101 0.00814278)
(-0.00862224 0.124083 0.00571099)
(-0.010573 0.121433 0.00266785)
(-0.0120863 0.118998 -0.000495643)
(-0.0132463 0.117011 -0.00356485)
(-0.0140881 0.115481 -0.00649654)
(-0.0145992 0.114416 -0.00929981)
(-0.014775 0.113895 -0.0120048)
(-0.0145948 0.114057 -0.0146197)
(-0.014051 0.115134 -0.0171217)
(-0.0131751 0.117632 -0.0194737)
(-0.0118538 0.123842 -0.0216441)
(-0.00957503 0.142401 -0.0229788)
(-0.00587199 0.192017 -0.020825)
(-0.00143808 0.281282 -0.0129514)
(0.00119572 0.373346 -0.00304609)
(0.00143813 0.40221 0.00254406)
(0.00087221 0.349378 0.00500605)
(0.00279611 -0.269975 0.0282507)
(0.0106865 -0.384258 0.034737)
(0.015751 -0.403661 0.0337732)
(0.0187951 -0.39627 0.0322327)
(0.0196519 -0.366671 0.0355689)
(0.0161853 -0.302953 0.053163)
(0.0161229 -0.185993 0.0544062)
(0.0175258 -0.0656119 0.029535)
(0.016014 0.0142023 0.00650393)
(0.0131008 0.0583195 -0.0040436)
(0.0100997 0.0831223 -0.00646981)
(0.0072291 0.0979671 -0.00525903)
(0.00432459 0.107775 -0.00226418)
(0.00124701 0.115559 0.00203497)
(-0.00188159 0.123179 0.00688193)
(-0.00478994 0.130122 0.010505)
(-0.00728719 0.134226 0.0117863)
(-0.00944781 0.134751 0.0110247)
(-0.0113401 0.132454 0.0087437)
(-0.0128259 0.128986 0.00554823)
(-0.0138342 0.125819 0.00209256)
(-0.0144328 0.123464 -0.00126324)
(-0.0146892 0.121919 -0.00442843)
(-0.0146293 0.121129 -0.00742088)
(-0.0142681 0.121114 -0.0102834)
(-0.0135962 0.121963 -0.0130532)
(-0.0126156 0.123869 -0.0157591)
(-0.0113753 0.127248 -0.0184045)
(-0.00990204 0.133902 -0.0210248)
(-0.0079564 0.151046 -0.0233892)
(-0.00526074 0.197307 -0.0234206)
(-0.00195919 0.289257 -0.0170645)
(0.00048954 0.393293 -0.00618871)
(0.00100388 0.42416 -9.56171e-05)
(0.000736475 0.365437 0.00330968)
(0.00316092 -0.330838 0.0312123)
(0.00427681 -0.420741 0.0427898)
(0.0033139 -0.424088 0.042872)
(0.00131975 -0.398725 0.0369972)
(-0.00135862 -0.325275 0.0229371)
(-0.00638528 -0.23347 0.0187479)
(-0.0123309 -0.136679 0.0259081)
(-0.0141956 -0.0309397 0.0159018)
(-0.0159916 0.0432158 0.00201705)
(-0.0163609 0.0823782 -0.00300279)
(-0.0162002 0.104446 -0.00301487)
(-0.0160533 0.118201 -0.00118873)
(-0.016134 0.127504 0.00147465)
(-0.0164669 0.134315 0.00463338)
(-0.0169338 0.139547 0.00781411)
(-0.0173796 0.143122 0.0102481)
(-0.0177312 0.144439 0.0113921)
(-0.0180212 0.14323 0.0111552)
(-0.0182732 0.139932 0.00963186)
(-0.0184248 0.135734 0.00714675)
(-0.018402 0.131861 0.0042003)
(-0.018184 0.128867 0.00116247)
(-0.0177726 0.12682 -0.00181528)
(-0.017165 0.125681 -0.00470337)
(-0.0163521 0.125456 -0.00751977)
(-0.0153192 0.126232 -0.0102941)
(-0.0140474 0.128199 -0.0130497)
(-0.0125646 0.131779 -0.0158049)
(-0.0109192 0.138669 -0.0186399)
(-0.00898217 0.1558 -0.0215477)
(-0.00664389 0.202372 -0.0230762)
(-0.00396279 0.298908 -0.0188589)
(-0.00136902 0.410972 -0.0085547)
(-0.000206988 0.44164 -0.0023039)
(0.000310078 0.376238 0.00191919)
(-0.00329767 -0.335354 0.0433616)
(-0.011334 -0.423901 0.0577944)
(-0.0189627 -0.427112 0.0584906)
(-0.0261089 -0.403344 0.0550125)
(-0.030008 -0.340191 0.0468888)
(-0.0268124 -0.246522 0.0355775)
(-0.0239984 -0.152172 0.0279338)
(-0.0210036 -0.0629006 0.0188076)
(-0.0191803 0.00133319 0.00893573)
(-0.0178799 0.0378462 0.00571918)
(-0.0169327 0.0619291 0.00565925)
(-0.0161802 0.0795568 0.00692478)
(-0.0155969 0.0932642 0.00885643)
(-0.0151961 0.104654 0.0110475)
(-0.0149471 0.114488 0.0130468)
(-0.0148068 0.122473 0.0143864)
(-0.0147534 0.127844 0.0148164)
(-0.0147816 0.130379 0.0143272)
(-0.014869 0.130546 0.0129646)
(-0.0149532 0.129231 0.0108526)
(-0.0149518 0.127463 0.00825989)
(-0.0147972 0.126005 0.00548088)
(-0.0144601 0.125213 0.00270013)
(-0.0139545 0.125219 -1.24209e-05)
(-0.0132983 0.12611 -0.00265218)
(-0.0124821 0.128009 -0.0052479)
(-0.0114952 0.131147 -0.00784338)
(-0.0103564 0.136057 -0.0105022)
(-0.00908715 0.144741 -0.0133763)
(-0.00760877 0.164466 -0.0166289)
(-0.00594012 0.213762 -0.0194358)
(-0.00417552 0.312066 -0.0179854)
(-0.00188036 0.424355 -0.00982715)
(-0.000499123 0.453622 -0.00379305)
(0.000236374 0.38272 0.00116108)
(-0.00477425 -0.292026 0.0384112)
(-0.0113225 -0.381319 0.0455901)
(-0.0173743 -0.396806 0.0470087)
(-0.0218215 -0.398954 0.0488322)
(-0.0246109 -0.388204 0.0510988)
(-0.022064 -0.334577 0.0507327)
(-0.013694 -0.22861 0.0452633)
(-0.00483805 -0.119038 0.0379569)
(0.0020074 -0.0316284 0.027913)
(0.00557039 0.0221261 0.0209277)
(0.00602507 0.0529513 0.0184174)
(0.00483044 0.0723493 0.0184123)
(0.00301453 0.0864335 0.0195216)
(0.00104497 0.0977807 0.0210259)
(-0.000833349 0.107422 0.0223837)
(-0.00251088 0.115379 0.0231305)
(-0.00398108 0.121117 0.0230456)
(-0.00529842 0.124363 0.0221635)
(-0.00651067 0.125435 0.0205645)
(-0.00761118 0.125028 0.0183089)
(-0.00853661 0.123994 0.0155274)
(-0.00921472 0.123098 0.0124348)
(-0.00960051 0.122826 0.00923691)
(-0.00968334 0.123418 0.00606541)
(-0.00948845 0.12499 0.00298619)
(-0.00905545 0.12767 2.2519e-05)
(-0.00841676 0.131651 -0.00282076)
(-0.00762368 0.137432 -0.00557194)
(-0.00673313 0.147059 -0.00836723)
(-0.00570055 0.168069 -0.0113993)
(-0.00454054 0.219893 -0.0141851)
(-0.00330739 0.322211 -0.014059)
(-0.00144986 0.434668 -0.00836288)
(-0.000228915 0.46272 -0.00306555)
(0.000376516 0.386695 0.00194914)
(-0.000732812 -0.295761 0.0258134)
(-0.0006463 -0.404906 0.0301382)
(-0.00214649 -0.426167 0.0317743)
(-0.00428903 -0.430055 0.0339144)
(-0.00717279 -0.427069 0.0370823)
(-0.0102191 -0.415104 0.0421661)
(-0.00972453 -0.363361 0.0479648)
(-0.00140559 -0.252435 0.048959)
(0.00934669 -0.138787 0.0449338)
(0.017747 -0.0513875 0.0383966)
(0.0229071 0.0086401 0.0325651)
(0.0247503 0.0468414 0.0290324)
(0.0240539 0.0699629 0.0278679)
(0.0220892 0.0849857 0.028148)
(0.0195315 0.0961923 0.0290758)
(0.0167572 0.105292 0.0300538)
(0.0139975 0.112586 0.0306106)
(0.0113377 0.117813 0.0305032)
(0.0087676 0.120886 0.0297035)
(0.0062882 0.122147 0.02825)
(0.00394125 0.12224 0.0261976)
(0.001809 0.121916 0.0236401)
(-1.87506e-05 0.121855 0.0207061)
(-0.00148591 0.122555 0.0175145)
(-0.00256939 0.124358 0.0141437)
(-0.00325607 0.127547 0.0106324)
(-0.00355456 0.132458 0.00699701)
(-0.00352 0.139821 0.00320798)
(-0.00323311 0.152023 -0.000875808)
(-0.00274901 0.17662 -0.00541761)
(-0.00226803 0.231453 -0.00971731)
(-0.00189772 0.334787 -0.010688)
(-0.000695299 0.445145 -0.00616685)
(0.00017598 0.47205 -0.00139096)
(0.000503169 0.392463 0.00330705)
(0.000921601 -0.314774 0.0191367)
(0.00139143 -0.409717 0.0228454)
(0.000710275 -0.421423 0.0221628)
(-0.00058343 -0.416625 0.0209522)
(-0.00273591 -0.403527 0.0202904)
(-0.00538999 -0.386774 0.0215165)
(-0.00802154 -0.369246 0.026537)
(-0.0081221 -0.328207 0.0358334)
(-0.000211854 -0.235001 0.0419347)
(0.0107556 -0.135731 0.0421577)
(0.020339 -0.0541867 0.0393343)
(0.0269223 0.0071807 0.0360477)
(0.0301776 0.0497402 0.0340029)
(0.0308421 0.0774113 0.0334781)
(0.029866 0.0950375 0.0338813)
(0.0279533 0.106879 0.0346303)
(0.0254847 0.115302 0.035327)
(0.0227351 0.121302 0.0356706)
(0.019858 0.125273 0.0354816)
(0.0169349 0.127497 0.0346901)
(0.0140257 0.128374 0.0332995)
(0.011202 0.128459 0.0313702)
(0.00855024 0.128372 0.0290126)
(0.00614668 0.128685 0.0263546)
(0.00404378 0.129857 0.0234964)
(0.00227614 0.132275 0.0204838)
(0.000875986 0.136367 0.0173037)
(-0.000109107 0.143008 0.0138495)
(-0.000676928 0.155075 0.00979172)
(-0.000833307 0.181546 0.00454666)
(-0.000590387 0.241568 -0.00171456)
(-0.000456891 0.348843 -0.00561074)
(0.000218054 0.456057 -0.00337683)
(0.000711462 0.481748 0.000538078)
(0.000679114 0.398169 0.00468291)
(-0.00192426 -0.325333 0.0282558)
(-0.00239779 -0.431067 0.0358647)
(-0.00217301 -0.447962 0.0356998)
(-0.0014002 -0.447553 0.0337897)
(-0.000141413 -0.437391 0.0306075)
(0.00133502 -0.416752 0.0264901)
(0.00221725 -0.387933 0.0225399)
(0.00210959 -0.358257 0.0214128)
(0.002611 -0.320029 0.0263379)
(0.00817132 -0.2482 0.0341916)
(0.0174207 -0.157311 0.0390283)
(0.0267491 -0.0726288 0.0394098)
(0.0334825 -0.00710971 0.0373892)
(0.0366448 0.0384827 0.0357503)
(0.036973 0.0690406 0.0356446)
(0.0356019 0.0895827 0.0365514)
(0.0332953 0.103796 0.0377297)
(0.0304368 0.113887 0.0387678)
(0.0273075 0.120969 0.0394038)
(0.0240551 0.125728 0.0394711)
(0.0208 0.128709 0.0388559)
(0.0176355 0.13048 0.0375167)
(0.0146429 0.131678 0.0354986)
(0.0118923 0.132962 0.032926)
(0.0094303 0.13492 0.0299622)
(0.00727552 0.138043 0.0267547)
(0.00543654 0.142796 0.0233958)
(0.00393082 0.149983 0.0198701)
(0.00275432 0.162251 0.0159079)
(0.00189819 0.188369 0.0109027)
(0.00137267 0.249066 0.00459544)
(0.000986759 0.359935 -0.000257426)
(0.00113846 0.467622 0.000551402)
(0.00120434 0.492866 0.00350515)
(0.000854723 0.40661 0.00647501)
(-0.000770984 -0.323261 0.0191296)
(0.00126164 -0.449695 0.0236229)
(0.00300918 -0.474891 0.0248522)
(0.00494307 -0.478913 0.0253095)
(0.00700238 -0.473298 0.0253338)
(0.00917372 -0.457723 0.0246451)
(0.0115093 -0.427916 0.0225864)
(0.0132988 -0.383894 0.0187757)
(0.0135219 -0.339693 0.0151918)
(0.0125215 -0.300578 0.0157525)
(0.0135116 -0.246863 0.0225028)
(0.0193113 -0.166518 0.0314448)
(0.0274077 -0.0787301 0.0366626)
(0.0343165 -0.00514773 0.03717)
(0.0376936 0.0464997 0.0359299)
(0.0377879 0.0792178 0.0357969)
(0.0361514 0.0997788 0.0370246)
(0.0338035 0.113366 0.0387337)
(0.0310288 0.122579 0.0403811)
(0.0279899 0.128602 0.0417151)
(0.0247838 0.132254 0.0425799)
(0.0215094 0.134275 0.0428284)
(0.0182865 0.135419 0.0423248)
(0.0152412 0.136456 0.0409933)
(0.0124797 0.13813 0.0388531)
(0.0100702 0.141104 0.0360052)
(0.00804846 0.146013 0.0325835)
(0.00642079 0.15385 0.0286563)
(0.00512735 0.167596 0.0240124)
(0.00410075 0.196549 0.0180162)
(0.00325963 0.261255 0.0103387)
(0.00243201 0.374406 0.00366496)
(0.00199321 0.479268 0.00281383)
(0.00163412 0.503662 0.00485682)
(0.000997782 0.414063 0.00697711)
(0.000485579 -0.342898 0.0142826)
(0.00364067 -0.475676 0.0193592)
(0.0064308 -0.502644 0.0197534)
(0.0091532 -0.506593 0.019269)
(0.0118743 -0.500363 0.0184672)
(0.014238 -0.485218 0.0175637)
(0.0162106 -0.458808 0.0166802)
(0.0178464 -0.415221 0.0155067)
(0.0186056 -0.355949 0.0132667)
(0.0176902 -0.300266 0.0106194)
(0.015465 -0.260112 0.00984746)
(0.0135233 -0.223877 0.0134108)
(0.0153558 -0.166883 0.0224661)
(0.02193 -0.0868388 0.0315708)
(0.0287383 -0.0114121 0.0353621)
(0.0325673 0.0426285 0.0352732)
(0.0331033 0.0760068 0.0350742)
(0.0318312 0.0964338 0.0361807)
(0.029856 0.110187 0.0380501)
(0.0274977 0.120121 0.0401512)
(0.0249335 0.127166 0.0421427)
(0.0222625 0.131845 0.0437391)
(0.0195315 0.134756 0.0447224)
(0.0167973 0.136686 0.0449366)
(0.0141485 0.138576 0.0442848)
(0.0116922 0.141398 0.0427298)
(0.00953717 0.146107 0.0402718)
(0.00776622 0.154002 0.0368656)
(0.00635007 0.168479 0.0321966)
(0.00519148 0.199595 0.0255105)
(0.00408191 0.268832 0.0165698)
(0.00283472 0.388007 0.00858754)
(0.00197338 0.49416 0.00618526)
(0.00143576 0.517851 0.00701609)
(0.000886095 0.424618 0.00786029)
(-0.000307168 -0.355071 0.0172492)
(0.00401807 -0.50703 0.0166802)
(0.00731144 -0.538598 0.0139781)
(0.0106998 -0.543046 0.0121269)
(0.0141982 -0.535056 0.010732)
(0.0173685 -0.515507 0.009639)
(0.0198688 -0.482219 0.00862629)
(0.0213711 -0.4336 0.00731964)
(0.0218058 -0.37308 0.00550963)
(0.0213385 -0.307726 0.00377532)
(0.0197141 -0.249189 0.00293273)
(0.0170574 -0.20724 0.0034301)
(0.0140817 -0.177104 0.00624823)
(0.0126517 -0.138498 0.0140765)
(0.0162055 -0.0716873 0.0254739)
(0.0220567 0.00242738 0.0324573)
(0.0255032 0.0571385 0.0339758)
(0.0256053 0.0891787 0.0343725)
(0.024087 0.106316 0.0357571)
(0.02218 0.116356 0.0377055)
(0.02002 0.123002 0.0399481)
(0.0177295 0.127728 0.0423637)
(0.0154266 0.131327 0.0446911)
(0.0131957 0.134349 0.046538)
(0.0110953 0.137314 0.0475266)
(0.00916857 0.140856 0.0474254)
(0.0074732 0.145837 0.0461676)
(0.0060684 0.153818 0.043704)
(0.00494206 0.169171 0.0395937)
(0.00407462 0.204318 0.0325522)
(0.00334717 0.281547 0.0216778)
(0.00219971 0.404303 0.0114339)
(0.00128432 0.505523 0.00796643)
(0.000835858 0.52649 0.00802803)
(0.00055799 0.428173 0.00794088)
(0.00356993 -0.39597 0.00207345)
(0.0091628 -0.548568 -0.0124263)
(0.0110706 -0.578877 -0.0181925)
(0.0119132 -0.581951 -0.0202646)
(0.012245 -0.573128 -0.0204701)
(0.0120372 -0.553483 -0.0190028)
(0.0113275 -0.518979 -0.0159087)
(0.0101815 -0.463453 -0.0121093)
(0.00853549 -0.393658 -0.0099972)
(0.00656131 -0.327018 -0.00993414)
(0.00493742 -0.269068 -0.00978902)
(0.0036808 -0.219399 -0.00816119)
(0.00240841 -0.180854 -0.00516318)
(0.00113922 -0.152331 -0.000845571)
(0.000484876 -0.122543 0.0067805)
(0.00373229 -0.0677479 0.0197835)
(0.0101687 0.00150566 0.0299898)
(0.0150316 0.0547849 0.0333632)
(0.0162808 0.085581 0.0341751)
(0.0154206 0.102087 0.0359211)
(0.0142241 0.11231 0.0382783)
(0.0129719 0.118813 0.0405675)
(0.0116914 0.12266 0.0426225)
(0.0103589 0.125032 0.0444545)
(0.00901168 0.127232 0.0460063)
(0.00774289 0.130455 0.0470863)
(0.00662665 0.135748 0.0474175)
(0.00568166 0.144555 0.0466852)
(0.00484699 0.161032 0.0443564)
(0.00401386 0.198133 0.0390489)
(0.00322041 0.28195 0.0289451)
(0.00240668 0.415924 0.0167443)
(0.00158668 0.518384 0.0107405)
(0.00105554 0.538111 0.00939774)
(0.000698365 0.434455 0.00833437)
(0.00424065 -0.434781 -0.00970388)
(0.00455633 -0.539484 -0.0196657)
(0.00319564 -0.552376 -0.0232469)
(0.000904663 -0.547631 -0.0252114)
(-0.00190735 -0.533374 -0.0265253)
(-0.0048749 -0.509643 -0.0271089)
(-0.00778506 -0.473567 -0.0266413)
(-0.00998796 -0.421144 -0.0248429)
(-0.0109283 -0.355903 -0.022704)
(-0.0113501 -0.294296 -0.0214677)
(-0.0117702 -0.246705 -0.0204446)
(-0.0119826 -0.209695 -0.0185594)
(-0.0119792 -0.177787 -0.0153036)
(-0.0119582 -0.149531 -0.0107032)
(-0.0118826 -0.124976 -0.00486659)
(-0.0112736 -0.0994572 0.00337786)
(-0.00816841 -0.0574048 0.0164829)
(-0.00127892 0.00487892 0.0292927)
(0.00475606 0.0561514 0.0344558)
(0.00800762 0.0838492 0.0348611)
(0.00843303 0.0942555 0.0357256)
(0.00771302 0.100069 0.0384704)
(0.0064993 0.105466 0.0423472)
(0.00521587 0.110335 0.0464242)
(0.00408884 0.114439 0.0499141)
(0.0031554 0.118513 0.0523065)
(0.00251644 0.124073 0.0533118)
(0.0022324 0.13356 0.052732)
(0.00224272 0.152623 0.0500647)
(0.00232602 0.195344 0.0439364)
(0.00188229 0.284502 0.0331285)
(0.000860106 0.420639 0.0212125)
(0.000217544 0.523915 0.0147401)
(1.16004e-05 0.542239 0.0125151)
(0.000183192 0.435546 0.0101933)
(-0.00141166 -0.441159 -0.00175389)
(-0.0057249 -0.534221 -0.00356505)
(-0.00886724 -0.545523 -0.00453643)
(-0.0119072 -0.541718 -0.00527827)
(-0.014837 -0.529431 -0.00596619)
(-0.0171018 -0.509009 -0.0066655)
(-0.0183094 -0.478788 -0.00752606)
(-0.0178266 -0.436026 -0.0087022)
(-0.0152372 -0.380411 -0.0102564)
(-0.0113997 -0.319342 -0.0122453)
(-0.00809126 -0.265194 -0.0142729)
(-0.00619099 -0.223462 -0.015519)
(-0.0054593 -0.191598 -0.0154378)
(-0.00540968 -0.164952 -0.0137556)
(-0.0057287 -0.140366 -0.0102951)
(-0.00613359 -0.116824 -0.00500273)
(-0.00613337 -0.0930574 0.002444)
(-0.00473078 -0.0627239 0.013313)
(-0.000192693 -0.0146713 0.0276432)
(0.00557091 0.040272 0.0382675)
(0.00938915 0.0798346 0.041574)
(0.0107932 0.0969612 0.0410862)
(0.0101652 0.100881 0.0414288)
(0.00865009 0.1017 0.0436953)
(0.00672107 0.102373 0.0473945)
(0.00486898 0.103767 0.0516885)
(0.00342625 0.106998 0.0556524)
(0.00249077 0.114652 0.0582844)
(0.00211899 0.133948 0.0581543)
(0.00224687 0.182995 0.0527322)
(0.00256575 0.287322 0.0405949)
(0.00187901 0.434727 0.0260402)
(0.00114975 0.533804 0.0183798)
(0.00074115 0.548992 0.015311)
(0.000579164 0.436735 0.0117554)
(-0.00194149 -0.402138 -0.00577121)
(-0.00338339 -0.501387 -0.0115172)
(-0.00428044 -0.517632 -0.0134751)
(-0.00507822 -0.518243 -0.0142857)
(-0.00594489 -0.511404 -0.0143017)
(-0.00666356 -0.498676 -0.0134194)
(-0.00694564 -0.480136 -0.0115071)
(-0.00636083 -0.453444 -0.00855349)
(-0.00427823 -0.413771 -0.00508008)
(-0.000386931 -0.359157 -0.00253567)
(0.00430699 -0.297775 -0.0023009)
(0.00801332 -0.242349 -0.00407464)
(0.00982588 -0.199221 -0.00637907)
(0.0100151 -0.167275 -0.00800118)
(0.00923679 -0.142245 -0.0083437)
(0.00799328 -0.119858 -0.00701749)
(0.00662816 -0.0973251 -0.00360493)
(0.00555888 -0.0742564 0.00206675)
(0.00548521 -0.050976 0.00986057)
(0.00695609 -0.0250325 0.019586)
(0.0104202 0.00729097 0.0306418)
(0.0147368 0.046133 0.0411166)
(0.0168178 0.0779307 0.0461272)
(0.0162885 0.0918748 0.046245)
(0.0144091 0.0949378 0.0463294)
(0.0120269 0.0951886 0.0482616)
(0.00941803 0.0959756 0.0519871)
(0.00707374 0.100004 0.0566755)
(0.00548303 0.114599 0.0606787)
(0.00485691 0.161033 0.0591454)
(0.00461083 0.266351 0.0477465)
(0.00409393 0.425351 0.032679)
(0.00302434 0.533606 0.0233168)
(0.00208815 0.551252 0.0191103)
(0.00126978 0.438911 0.0143025)
(0.00057582 -0.406206 -0.00434069)
(0.00320343 -0.514677 -0.0062472)
(0.00540988 -0.531836 -0.00808635)
(0.00738031 -0.531669 -0.0101515)
(0.00908476 -0.523142 -0.0126152)
(0.0100609 -0.508204 -0.0151194)
(0.0101953 -0.488477 -0.0169635)
(0.00970442 -0.464875 -0.0172402)
(0.00918247 -0.435586 -0.0150533)
(0.00959306 -0.395311 -0.01012)
(0.0117424 -0.340785 -0.00418748)
(0.0150276 -0.279228 -0.000317365)
(0.0178252 -0.222865 0.000410578)
(0.0191575 -0.178305 -0.000777241)
(0.0190623 -0.145421 -0.00231839)
(0.0180524 -0.12086 -0.00328391)
(0.0166356 -0.100529 -0.0031849)
(0.0151686 -0.0806266 -0.00150763)
(0.0139698 -0.0586608 0.00237033)
(0.013314 -0.0351603 0.00856167)
(0.0133275 -0.0119096 0.0166359)
(0.0140326 0.0121651 0.0266117)
(0.0156846 0.0408985 0.0386869)
(0.0172316 0.0701964 0.0495555)
(0.0167721 0.0892787 0.0553028)
(0.0143767 0.0967338 0.0574268)
(0.0112805 0.0980422 0.0593334)
(0.00837169 0.099132 0.062433)
(0.00592119 0.108128 0.066519)
(0.00498589 0.152549 0.067888)
(0.00488518 0.272139 0.0558293)
(0.00377018 0.435181 0.0385789)
(0.00266103 0.544314 0.0284566)
(0.00166846 0.561169 0.023425)
(0.000937974 0.447221 0.0169765)
(0.00137512 -0.421319 0.00580219)
(0.00475837 -0.529373 0.0092559)
(0.00773587 -0.544887 0.0083274)
(0.0105255 -0.542031 0.00583987)
(0.0132794 -0.528987 0.00181044)
(0.0153294 -0.507104 -0.00357588)
(0.0162439 -0.478847 -0.00951296)
(0.015895 -0.448164 -0.0146193)
(0.0146551 -0.417625 -0.0176209)
(0.0132355 -0.385777 -0.0175931)
(0.0125649 -0.347214 -0.0139576)
(0.0135384 -0.297719 -0.00787174)
(0.015831 -0.242701 -0.00260536)
(0.0181475 -0.192108 -7.32701e-05)
(0.0196743 -0.150998 0.000256673)
(0.0202601 -0.119464 -0.000375806)
(0.020095 -0.0956588 -0.0010753)
(0.0195331 -0.0772239 -0.00136614)
(0.0189322 -0.0615691 -0.000955549)
(0.0185836 -0.0460037 0.000539013)
(0.0187219 -0.0282345 0.00368785)
(0.0194064 -0.00745313 0.00898894)
(0.0205666 0.0159704 0.0167578)
(0.0220046 0.0418805 0.0270956)
(0.023385 0.0679483 0.0388623)
(0.0237133 0.0876245 0.0490863)
(0.0220212 0.0962809 0.0552288)
(0.0187101 0.0975404 0.0584059)
(0.0146337 0.100176 0.0614039)
(0.0107869 0.128373 0.0653703)
(0.00950651 0.250469 0.0607043)
(0.00744892 0.431806 0.0432215)
(0.0051348 0.547747 0.031451)
(0.00322231 0.565584 0.0254536)
(0.00163364 0.451642 0.0179435)
(-0.000342398 -0.437083 0.017316)
(0.00242629 -0.556095 0.0252339)
(0.00573862 -0.573258 0.02552)
(0.00924192 -0.570005 0.0235113)
(0.0131225 -0.554755 0.0194583)
(0.0166569 -0.527826 0.0132154)
(0.0192466 -0.491457 0.00527206)
(0.0204456 -0.451581 -0.00278199)
(0.020278 -0.413666 -0.00921686)
(0.0192168 -0.379032 -0.013107)
(0.0179112 -0.345088 -0.014038)