/*--------------------------------*- C++ -*----------------------------------*\
| =========                 |                                                 |
| \\      /  F ield         | OpenFOAM: The Open Source CFD Toolbox           |
|  \\    /   O peration     | Version:  v2012                                 |
|   \\  /    A nd           | Website:  www.openfoam.com                      |
|    \\/     M anipulation  |                                                 |
\*---------------------------------------------------------------------------*/
FoamFile
{
    version     2.0;
    format      ascii;
    class       volScalarField;
    location    "1500/heater";
    object      T;
}
// * * * * * * * * * * * * * * * * * * * * * * * * * * * * * * * * * * * * * //

dimensions      [0 0 0 1 0 0 0];


internalField   nonuniform List<scalar> 
80
(
468.5164
468.7745
468.8609
468.7752
469.0185
469.3215
469.4071
469.2749
470.1123
470.5346
470.6187
470.3653
472.0029
472.6855
472.7654
472.247
497.7607
497.768
497.7688
497.7626
493.3215
493.3326
493.3352
493.3274
488.9122
488.9313
488.9373
488.9263
484.5123
484.5717
484.5853
484.5459
480.0601
480.3031
480.334
480.1418
475.2867
476.3665
476.4296
475.4895
497.7606
497.768
497.7688
497.7625
493.3211
493.3324
493.335
493.3273
488.9117
488.9311
488.9371
488.9263
484.5119
484.5715
484.5853
484.5461
480.0599
480.3032
480.3342
480.1421
475.2875
476.3673
476.4304
475.4903
472.0051
472.6877
472.7675
472.2489
470.1157
470.5379
470.6219
470.3684
469.0233
469.3261
469.4114
469.2791
468.5215
468.7795
468.866
468.7804
)
;

boundaryField
{
    minY
    {
        type            fixedValue;
        value           uniform 500;
    }
    minZ
    {
        type            zeroGradient;
    }
    maxZ
    {
        type            zeroGradient;
    }
    heater_to_topAir
    {
        type            compressible::turbulentTemperatureRadCoupledMixed;
        refValue        nonuniform List<scalar> 
40
(
366.5702
369.3243
371.7183
373.6946
360.7663
362.4774
363.654
364.2552
361.333
363.2442
364.6183
365.3483
363.9668
366.9533
369.7394
372.275
364.7469
367.9916
371.0586
373.9198
364.7471
367.9918
371.0588
373.9201
363.9675
366.954
369.7402
372.2758
361.3341
363.2452
364.6193
365.3491
360.768
362.4791
363.6556
364.2568
366.5724
369.3265
371.7206
373.6969
)
;
        refGradient     nonuniform List<scalar> 
40
(
-2.659536
-2.659536
-2.630331
-2.630331
-2.768287
-2.768287
-2.751249
-2.751249
-2.835813
-2.835813
-2.824368
-2.824368
-2.909137
-2.909137
-2.900557
-2.900557
-3.019278
-3.019278
-3.011258
-3.011258
-3.019292
-3.019292
-3.011259
-3.011259
-2.90917
-2.90917
-2.900548
-2.900548
-2.835861
-2.835861
-2.824353
-2.824353
-2.768358
-2.768358
-2.75124
-2.75124
-2.659612
-2.659612
-2.630339
-2.630339
)
;
        valueFraction   nonuniform List<scalar> 
40
(
0.0003213253
0.0003213253
0.0003213253
0.0003213253
0.0003213253
0.0003213253
0.0003213253
0.0003213253
0.0003213253
0.0003213253
0.0003213253
0.0003213253
0.0003213253
0.0003213253
0.0003213253
0.0003213253
0.0003213253
0.0003213253
0.0003213253
0.0003213253
0.0003213253
0.0003213253
0.0003213253
0.0003213253
0.0003213253
0.0003213253
0.0003213253
0.0003213253
0.0003213253
0.0003213253
0.0003213253
0.0003213253
0.0003213253
0.0003213253
0.0003213253
0.0003213253
0.0003213253
0.0003213253
0.0003213253
0.0003213253
)
;
        value           nonuniform List<scalar> 
40
(
468.4606
468.7195
468.8068
468.7216
468.9604
469.2639
469.3499
469.2178
470.0541
470.477
470.5616
470.3084
471.9455
472.629
472.7098
472.1921
475.2293
476.3101
476.3742
475.435
475.23
476.3109
476.375
475.4357
471.9477
472.6312
472.7119
472.194
470.0575
470.4804
470.5648
470.3115
468.9651
469.2685
469.3543
469.222
468.4657
468.7245
468.8119
468.7268
)
;
        Tnbr            T;
        qrNbr           qr;
        qr              none;
        thermalInertia  false;
        thicknessLayers List<scalar> 0();
        kappaLayers     List<scalar> 0();
        kappaMethod     solidThermo;
        kappa           none;
        alphaAni        none;
        alpha           none;
    }
    heater_to_rightSolid
    {
        type            compressible::turbulentTemperatureCoupledBaffleMixed;
        refValue        nonuniform List<scalar> 10(468.5357 468.9551 469.8357 471.1962 472.8354 472.8361 471.1981 469.8388 468.9592 468.5399);
        refGradient     uniform 0;
        valueFraction   nonuniform List<scalar> 10(0.4999997 0.4999997 0.4999997 0.4999997 0.4999997 0.4999997 0.4999997 0.4999997 0.4999997 0.4999997);
        value           nonuniform List<scalar> 10(468.6492 469.1088 470.0946 471.716 474.1575 474.1582 471.7179 470.0977 469.113 468.6539);
        Tnbr            T;
        thicknessLayers List<scalar> 0();
        kappaLayers     List<scalar> 0();
        kappaMethod     solidThermo;
        kappa           none;
        alphaAni        none;
        alpha           none;
        field           T;
    }
    heater_to_leftSolid
    {
        type            compressible::turbulentTemperatureCoupledBaffleMixed;
        refValue        nonuniform List<scalar> 10(468.1052 468.5291 469.4128 470.7776 472.4326 472.4333 470.7794 469.416 468.5342 468.1116);
        refGradient     uniform 0;
        valueFraction   nonuniform List<scalar> 10(0.4999997 0.4999997 0.4999997 0.4999997 0.4999997 0.4999997 0.4999997 0.4999997 0.4999997 0.4999997);
        value           nonuniform List<scalar> 10(468.3046 468.7677 469.7566 471.3847 473.8547 473.8554 471.3867 469.7599 468.7726 468.3103);
        Tnbr            T;
        thicknessLayers List<scalar> 0();
        kappaLayers     List<scalar> 0();
        kappaMethod     solidThermo;
        kappa           none;
        alphaAni        none;
        alpha           none;
        field           T;
    }
    heater_to_bottomAir
    {
        type            compressible::turbulentTemperatureRadCoupledMixed;
        refValue        nonuniform List<scalar> 
92
(
470.3349
470.4716
470.5094
470.4093
471.1894
471.3247
471.3456
471.2328
472.1701
472.4014
472.4734
472.2416
470.0142
472.132
473.2204
471.551
470.5374
472.6527
473.7032
471.9649
471.733
473.5016
474.3291
472.8135
473.1751
474.2515
474.7912
473.7524
473.9404
473.9404
474.4965
474.4965
474.7999
474.7999
474.2001
474.2001
473.8394
474.5171
474.3344
475.011
475.0941
475.7318
475.9628
476.4917
475.9255
476.3643
473.8411
470.0137
472.1316
473.2227
474.5234
471.5564
474.3349
470.5371
472.6518
473.7044
475.0169
471.9687
475.0946
471.7332
473.501
474.3298
475.7356
472.8158
475.9631
473.1754
474.2512
474.7916
476.4942
473.7534
475.9259
473.9411
474.4967
474.8003
476.3661
474.2006
473.9411
474.4967
474.8003
474.2006
472.1709
472.4025
472.4749
472.2433
471.1904
471.3264
471.3479
471.2354
470.3365
470.4739
470.5125
470.4132
)
;
        refGradient     nonuniform List<scalar> 
92
(
-0.02270181
-0.02270181
-0.02566876
-0.02566876
-0.02270181
-0.02270181
-0.02566876
-0.02566876
-0.09932813
-0.09932813
-0.09876992
-0.09876992
-0.8795891
-0.8795891
-0.8783894
-0.8783894
-0.8795891
-0.8795891
-0.8783894
-0.8783894
-0.5799571
-0.5799571
-0.5777667
-0.5777667
-0.5799571
-0.5799571
-0.5777667
-0.5777667
-0.09932813
-0.3638486
-0.09932813
-0.3638486
-0.09876992
-0.3638486
-0.09876992
-0.3638486
-0.9132992
-0.8867475
-0.9132992
-0.8867475
-0.5439108
-0.5195734
-0.5439108
-0.5195734
-0.5439108
-0.5195734
-0.9132992
-0.8782856
-0.8782856
-0.8742143
-0.8867475
-0.8742143
-0.9132992
-0.8782856
-0.8782856
-0.8742143
-0.8867475
-0.8742143
-0.5439108
-0.578276
-0.578276
-0.5766226
-0.5195734
-0.5766226
-0.5439108
-0.578276
-0.578276
-0.5766226
-0.5195734
-0.5766226
-0.5439108
-0.3622649
-0.3622649
-0.3622649
-0.5195734
-0.3622649
-0.09697486
-0.09697486
-0.09818208
-0.09818208
-0.09697486
-0.09697486
-0.09818208
-0.09818208
-0.02220407
-0.02220407
-0.02541065
-0.02541065
-0.02220407
-0.02220407
-0.02541065
-0.02541065
)
;
        valueFraction   nonuniform List<scalar> 
92
(
0.0003213253
0.0003213253
0.0003213253
0.0003213253
0.0003213253
0.0003213253
0.0003213253
0.0003213253
0.0003213253
0.0003213253
0.0003213253
0.0003213253
0.0003213253
0.0003213253
0.0003213253
0.0003213253
0.0003213253
0.0003213253
0.0003213253
0.0003213253
0.0003213253
0.0003213253
0.0003213253
0.0003213253
0.0003213253
0.0003213253
0.0003213253
0.0003213253
0.0003213253
0.0003213253
0.0003213253
0.0003213253
0.0003213253
0.0003213253
0.0003213253
0.0003213253
0.000321325
0.000321325
0.000321325
0.000321325
0.000321325
0.000321325
0.000321325
0.000321325
0.000321325
0.000321325
0.000321325
0.0003213253
0.0003213253
0.0003213253
0.000321325
0.0003213253
0.000321325
0.0003213253
0.0003213253
0.0003213253
0.000321325
0.0003213253
0.000321325
0.0003213253
0.0003213253
0.0003213253
0.000321325
0.0003213253
0.000321325
0.0003213253
0.0003213253
0.0003213253
0.000321325
0.0003213253
0.000321325
0.0003213253
0.0003213253
0.0003213253
0.000321325
0.0003213253
0.0003213253
0.0003213253
0.0003213253
0.0003213253
0.0003213253
0.0003213253
0.0003213253
0.0003213253
0.0003213253
0.0003213253
0.0003213253
0.0003213253
0.0003213253
0.0003213253
0.0003213253
0.0003213253
)
;
        value           nonuniform List<scalar> 
92
(
468.5045
468.7625
468.849
468.7631
469.0068
469.3099
469.3954
469.2631
470.1007
470.523
470.6072
470.3537
497.7465
497.7545
497.7556
497.7488
493.307
493.3189
493.3217
493.3134
488.8992
488.919
488.9252
488.9137
484.4995
484.5592
484.573
484.5333
471.9921
480.0483
472.6748
480.2915
472.7548
480.3225
472.2361
480.13
497.7491
497.7512
493.3096
493.3158
488.9014
488.9158
484.5015
484.5353
480.0489
480.1308
497.7489
497.7464
497.7544
497.7556
497.7512
497.7488
493.3092
493.3067
493.3187
493.3216
493.3157
493.3133
488.9009
488.8988
488.9188
488.925
488.9158
488.9137
484.501
484.499
484.5591
484.573
484.5355
484.5334
480.0487
480.0481
480.2916
480.3227
480.1311
480.1303
471.9942
472.677
472.7569
472.238
470.1041
470.5264
470.6104
470.3568
469.0116
469.3144
469.3998
469.2673
468.5096
468.7676
468.854
468.7683
)
;
        Tnbr            T;
        qrNbr           qr;
        qr              none;
        thermalInertia  false;
        thicknessLayers List<scalar> 0();
        kappaLayers     List<scalar> 0();
        kappaMethod     solidThermo;
        kappa           none;
        alphaAni        none;
        alpha           none;
    }
}


// ************************************************************************* //
