/*--------------------------------*- C++ -*----------------------------------*\
| =========                 |                                                 |
| \\      /  F ield         | OpenFOAM: The Open Source CFD Toolbox           |
|  \\    /   O peration     | Version:  v2012                                 |
|   \\  /    A nd           | Website:  www.openfoam.com                      |
|    \\/     M anipulation  |                                                 |
\*---------------------------------------------------------------------------*/
FoamFile
{
    version     2.0;
    format      ascii;
    class       volScalarField;
    location    "400";
    object      heatTransferCoeff(T);
}
// * * * * * * * * * * * * * * * * * * * * * * * * * * * * * * * * * * * * * //

dimensions      [1 0 -3 -1 0 0 0];


internalField   uniform 0;

boundaryField
{
    floor
    {
        type            calculated;
        value           uniform 0;
    }
    ceiling
    {
        type            calculated;
        value           nonuniform List<scalar> 
400
(
-0.00495727
-0.00546014
-0.00584689
-0.00612915
-0.00634829
-0.00652563
-0.00667265
-0.00679101
-0.00685984
-0.00678105
-0.00661704
-0.00639655
-0.00613664
-0.00584767
-0.00553689
-0.00520963
-0.0048688
-0.00451305
-0.00412977
-0.00368764
-0.00546014
-0.0060055
-0.00643382
-0.00675789
-0.00702086
-0.00724457
-0.00744129
-0.00761316
-0.00777313
-0.007669
-0.00743674
-0.00712801
-0.00677124
-0.00637866
-0.00595914
-0.00552041
-0.0050686
-0.00460581
-0.00412065
-0.00361821
-0.00584689
-0.00643382
-0.00688513
-0.00723337
-0.00752612
-0.00778618
-0.00803404
-0.00826925
-0.00852427
-0.00841824
-0.00812597
-0.0077426
-0.00731258
-0.00684161
-0.00633838
-0.00581213
-0.00527287
-0.00472704
-0.00416685
-0.0036069
-0.00612915
-0.00675789
-0.00723337
-0.00760868
-0.00794142
-0.0082447
-0.00854353
-0.00885025
-0.00920468
-0.00911992
-0.00875856
-0.00829822
-0.00779057
-0.00724154
-0.00666117
-0.00605633
-0.00544122
-0.0048286
-0.00421667
-0.00361532
-0.00634829
-0.00702086
-0.00752612
-0.00794142
-0.0083106
-0.00866806
-0.00904457
-0.00945198
-0.00992799
-0.00987781
-0.00940022
-0.0088229
-0.00822622
-0.00759166
-0.00692603
-0.00624049
-0.00555227
-0.00488272
-0.0042374
-0.00362153
-0.00652562
-0.00724457
-0.00778618
-0.0082447
-0.00866806
-0.00910533
-0.00958966
-0.0101328
-0.0107667
-0.0107786
-0.0101102
-0.0093488
-0.00861958
-0.00788365
-0.00711742
-0.00634294
-0.00557967
-0.00485845
-0.0041948
-0.00359734
-0.00667265
-0.00744129
-0.00803404
-0.00854353
-0.00904457
-0.00958966
-0.0102144
-0.0109325
-0.0117703
-0.011895
-0.0109275
-0.00988812
-0.00896748
-0.00809401
-0.00720896
-0.00633528
-0.00549528
-0.00472826
-0.00406124
-0.00352045
-0.00679101
-0.00761316
-0.00826925
-0.00885025
-0.00945198
-0.0101328
-0.0109325
-0.0118616
-0.0129301
-0.0132399
-0.0118352
-0.0104074
-0.00923323
-0.00818357
-0.00716218
-0.00618229
-0.00527492
-0.00448428
-0.00384657
-0.00339688
-0.00685984
-0.00777313
-0.00852427
-0.00920468
-0.00992798
-0.0107667
-0.0117703
-0.0129301
-0.0141569
-0.0146676
-0.0126919
-0.0107861
-0.0093184
-0.00807043
-0.00691143
-0.00584568
-0.00492192
-0.00418152
-0.00362928
-0.0032682
-0.00678105
-0.007669
-0.00841824
-0.00911992
-0.00987781
-0.0107786
-0.011895
-0.0132399
-0.0146676
-0.0149642
-0.0124081
-0.0103149
-0.00877575
-0.00746024
-0.00628806
-0.00528581
-0.0044817
-0.00388742
-0.00345335
-0.00315975
-0.00661704
-0.00743674
-0.00812597
-0.00875856
-0.00940022
-0.0101102
-0.0109275
-0.0118352
-0.0126919
-0.0124081
-0.0106472
-0.0091726
-0.00786437
-0.00665191
-0.00556418
-0.0046882
-0.00407895
-0.00365339
-0.00332403
-0.00307643
-0.00639655
-0.00712801
-0.0077426
-0.00829822
-0.0088229
-0.0093488
-0.00988812
-0.0104074
-0.0107861
-0.0103149
-0.0091726
-0.00800935
-0.00686052
-0.00577693
-0.00485396
-0.00419747
-0.0038089
-0.00351303
-0.003241
-0.0030152
-0.00613664
-0.00677124
-0.00731258
-0.00779057
-0.00822622
-0.00861958
-0.00896748
-0.00923323
-0.0093184
-0.00877575
-0.00786437
-0.00686052
-0.0058553
-0.00495504
-0.00428129
-0.00389971
-0.00372202
-0.00348354
-0.00319558
-0.00296903
-0.00584767
-0.00637866
-0.00684161
-0.00724154
-0.00759166
-0.00788365
-0.00809401
-0.00818357
-0.00807043
-0.00746024
-0.00665191
-0.00577693
-0.00495504
-0.00431412
-0.00391747
-0.003772
-0.0036783
-0.00345704
-0.00315146
-0.00292628
-0.00553689
-0.00595914
-0.00633838
-0.00666117
-0.00692603
-0.00711742
-0.00720896
-0.00716218
-0.00691143
-0.00628806
-0.00556418
-0.00485396
-0.00428129
-0.00391747
-0.00373777
-0.00367698
-0.00360063
-0.00339393
-0.0030917
-0.00287778
-0.00520963
-0.00552041
-0.00581213
-0.00605633
-0.00624049
-0.00634295
-0.00633528
-0.00618229
-0.00584568
-0.00528581
-0.0046882
-0.00419747
-0.00389971
-0.003772
-0.00367698
-0.00358156
-0.00347189
-0.00327858
-0.00300917
-0.00281811
-0.0048688
-0.0050686
-0.00527287
-0.00544122
-0.00555227
-0.00557967
-0.00549528
-0.00527492
-0.00492192
-0.0044817
-0.00407895
-0.0038089
-0.00372202
-0.0036783
-0.00360063
-0.00347189
-0.00331236
-0.00311801
-0.00290663
-0.00274561
-0.00451305
-0.00460581
-0.00472704
-0.0048286
-0.00488272
-0.00485845
-0.00472826
-0.00448428
-0.00418152
-0.00388741
-0.00365339
-0.00351303
-0.00348354
-0.00345704
-0.00339393
-0.00327858
-0.00311801
-0.00295612
-0.00279531
-0.00265935
-0.00412977
-0.00412065
-0.00416685
-0.00421667
-0.0042374
-0.0041948
-0.00406124
-0.00384657
-0.00362928
-0.00345335
-0.00332403
-0.003241
-0.00319558
-0.00315146
-0.0030917
-0.00300917
-0.00290663
-0.00279531
-0.00266942
-0.0025527
-0.00368764
-0.00361821
-0.0036069
-0.00361532
-0.00362153
-0.00359734
-0.00352045
-0.00339688
-0.0032682
-0.00315975
-0.00307643
-0.0030152
-0.00296903
-0.00292628
-0.00287778
-0.00281812
-0.00274561
-0.00265935
-0.0025527
-0.00244574
)
;
    }
    fixedWalls
    {
        type            calculated;
        value           uniform 0;
    }
}


// ************************************************************************* //
