/*--------------------------------*- C++ -*----------------------------------*\
| =========                 |                                                 |
| \\      /  F ield         | OpenFOAM: The Open Source CFD Toolbox           |
|  \\    /   O peration     | Version:  v2006                                 |
|   \\  /    A nd           | Website:  www.openfoam.com                      |
|    \\/     M anipulation  |                                                 |
\*---------------------------------------------------------------------------*/
FoamFile
{
    version     2.0;
    format      ascii;
    class       volScalarField;
    location    "15";
    object      nut;
}
// * * * * * * * * * * * * * * * * * * * * * * * * * * * * * * * * * * * * * //

dimensions      [0 2 -1 0 0 0 0];


internalField   nonuniform List<scalar> 
78750
(
1.20553e-06
5.31764e-06
1.36153e-05
1.19247e-05
1.24837e-05
1.24709e-05
1.25738e-05
1.24782e-05
1.2134e-05
1.18763e-05
1.16123e-05
1.1344e-05
1.1102e-05
1.08913e-05
1.07075e-05
1.05476e-05
1.04094e-05
1.02921e-05
1.01942e-05
1.01136e-05
1.0047e-05
9.99254e-06
9.94743e-06
9.90349e-06
9.84342e-06
9.73471e-06
9.52197e-06
9.1222e-06
8.43851e-06
7.43034e-06
6.20834e-06
4.80377e-06
3.32765e-06
2.02921e-06
5.17471e-08
1.44636e-07
6.69435e-06
9.61846e-06
1.40154e-05
1.88557e-05
2.41088e-05
3.09087e-05
4.08291e-05
4.75424e-05
4.15253e-05
3.40143e-05
2.92283e-05
2.64694e-05
2.48843e-05
2.39153e-05
2.32773e-05
2.28411e-05
2.25382e-05
2.23258e-05
2.21751e-05
2.20563e-05
2.19356e-05
2.17619e-05
2.14438e-05
2.08265e-05
1.9674e-05
1.76988e-05
1.47349e-05
1.1065e-05
7.55907e-06
5.06504e-06
3.6527e-06
3.15448e-06
2.61974e-06
7.80992e-08
1.83556e-07
1.1398e-05
9.87876e-06
8.90829e-06
8.59084e-06
8.90923e-06
9.8644e-06
1.12458e-05
1.31063e-05
1.55355e-05
1.83955e-05
2.13122e-05
2.38186e-05
2.5687e-05
2.69573e-05
2.77837e-05
2.83282e-05
2.86955e-05
2.89271e-05
2.90065e-05
2.88709e-05
2.83921e-05
2.73713e-05
2.55836e-05
2.28443e-05
1.91472e-05
1.4764e-05
1.02486e-05
6.2767e-06
3.38221e-06
1.7312e-06
1.1691e-06
2.00726e-06
2.04225e-06
7.90413e-08
1.80416e-07
1.50965e-05
1.01809e-05
7.93925e-06
8.52336e-06
9.72348e-06
1.04567e-05
1.09203e-05
1.18346e-05
1.35373e-05
1.60143e-05
1.91191e-05
2.26375e-05
2.62856e-05
2.96989e-05
3.25162e-05
3.45179e-05
3.56732e-05
3.60598e-05
3.57621e-05
3.48172e-05
3.32001e-05
3.08387e-05
2.77058e-05
2.39163e-05
1.97333e-05
1.54651e-05
1.13463e-05
7.55622e-06
4.39471e-06
2.24039e-06
1.20744e-06
1.46464e-06
2.1945e-06
5.90298e-08
1.71222e-07
7.09872e-06
1.66283e-05
8.62812e-06
6.42304e-06
5.44113e-06
4.86373e-06
4.88734e-06
5.76351e-06
7.55487e-06
1.02413e-05
1.37165e-05
1.78276e-05
2.23966e-05
2.71353e-05
3.15403e-05
3.49921e-05
3.70427e-05
3.75992e-05
3.68295e-05
3.49813e-05
3.22684e-05
2.88641e-05
2.49753e-05
2.08714e-05
1.68427e-05
1.31097e-05
9.80825e-06
6.97891e-06
4.58893e-06
2.73277e-06
1.68137e-06
1.83489e-06
2.62273e-06
7.04e-08
1.24239e-07
4.96302e-06
2.40313e-05
1.2195e-05
7.68231e-06
5.40942e-06
3.8089e-06
3.21404e-06
3.88392e-06
5.73064e-06
8.65688e-06
1.24612e-05
1.68624e-05
2.1619e-05
2.64992e-05
3.11405e-05
3.50282e-05
3.76924e-05
3.88975e-05
3.86467e-05
3.70603e-05
3.4292e-05
3.05497e-05
2.61437e-05
2.14998e-05
1.7074e-05
1.31661e-05
9.89691e-06
7.32725e-06
5.3793e-06
3.78325e-06
2.64875e-06
2.70888e-06
6.95022e-06
8.00118e-08
9.94475e-08
4.32295e-06
1.89302e-05
1.13369e-05
5.08279e-06
2.55184e-06
1.93904e-06
2.6777e-06
4.64506e-06
7.69547e-06
1.13539e-05
1.50675e-05
1.86994e-05
2.24349e-05
2.63618e-05
3.02903e-05
3.38061e-05
3.64605e-05
3.79168e-05
3.79471e-05
3.64293e-05
3.33516e-05
2.89022e-05
2.36187e-05
1.82914e-05
1.35911e-05
9.73171e-06
6.59837e-06
4.13278e-06
2.50404e-06
1.84986e-06
2.12809e-06
4.38603e-06
3.46827e-06
8.09676e-08
1.0385e-07
3.27561e-06
1.2748e-05
5.10046e-06
2.35218e-06
1.80294e-06
2.50934e-06
4.31839e-06
6.83753e-06
9.43027e-06
1.18891e-05
1.45333e-05
1.77079e-05
2.15001e-05
2.56817e-05
2.981e-05
3.34082e-05
3.61251e-05
3.76805e-05
3.78348e-05
3.63713e-05
3.31497e-05
2.82865e-05
2.24388e-05
1.67434e-05
1.20954e-05
8.67933e-06
6.16342e-06
4.14835e-06
2.57729e-06
1.72712e-06
1.87997e-06
4.81155e-06
2.62596e-06
6.68789e-08
1.08048e-07
2.73383e-06
8.83619e-06
2.75307e-06
1.49439e-06
1.68606e-06
2.88812e-06
4.90828e-06
7.34657e-06
9.91e-06
1.26172e-05
1.56189e-05
1.89954e-05
2.2661e-05
2.63621e-05
2.97812e-05
3.27134e-05
3.4995e-05
3.64239e-05
3.67076e-05
3.54499e-05
3.22354e-05
2.69559e-05
2.04112e-05
1.42589e-05
9.63871e-06
6.63688e-06
4.80469e-06
3.57203e-06
2.54778e-06
1.8233e-06
1.77443e-06
4.11366e-06
2.18391e-06
7.0393e-08
1.10872e-07
2.1213e-06
6.11873e-06
1.65392e-06
1.23006e-06
2.05687e-06
3.87389e-06
6.3396e-06
8.73102e-06
1.07025e-05
1.25817e-05
1.48734e-05
1.78512e-05
2.14386e-05
2.52566e-05
2.88652e-05
3.20027e-05
3.45386e-05
3.63374e-05
3.71263e-05
3.63777e-05
3.3287e-05
2.72877e-05
1.94593e-05
1.23881e-05
7.49316e-06
4.56589e-06
3.0033e-06
2.26193e-06
1.87242e-06
1.67499e-06
2.00017e-06
6.35943e-06
1.75175e-06
6.14344e-08
1.1644e-07
1.89466e-06
4.30635e-06
1.45063e-06
1.64154e-06
2.94672e-06
5.08346e-06
7.26286e-06
8.81231e-06
1.00287e-05
1.156e-05
1.38914e-05
1.72383e-05
2.143e-05
2.58623e-05
2.98806e-05
3.31168e-05
3.54297e-05
3.6724e-05
3.68377e-05
3.54737e-05
3.21752e-05
2.65773e-05
1.92851e-05
1.22348e-05
6.99434e-06
3.69402e-06
1.84849e-06
1.02653e-06
9.74815e-07
1.43875e-06
2.58663e-06
6.52368e-06
1.51538e-06
3.75373e-08
1.14721e-07
1.71294e-06
5.27861e-06
1.96183e-06
2.35568e-06
3.80252e-06
5.72071e-06
7.34164e-06
8.24519e-06
8.82794e-06
9.76127e-06
1.16391e-05
1.49132e-05
1.96903e-05
2.53222e-05
3.05549e-05
3.44743e-05
3.68275e-05
3.77014e-05
3.72782e-05
3.57563e-05
3.33002e-05
2.99351e-05
2.53889e-05
1.93691e-05
1.27205e-05
7.25443e-06
3.7022e-06
1.67675e-06
6.80431e-07
4.78836e-07
1.13822e-06
4.56332e-06
1.49524e-06
2.73073e-08
1.01571e-07
1.79723e-06
8.7988e-06
3.0596e-06
3.13914e-06
4.37298e-06
5.95579e-06
7.1247e-06
7.43024e-06
7.32478e-06
7.63298e-06
9.01467e-06
1.20176e-05
1.70582e-05
2.37069e-05
3.01045e-05
3.45012e-05
3.65924e-05
3.6819e-05
3.565e-05
3.34291e-05
3.04242e-05
2.69418e-05
2.3357e-05
1.99232e-05
1.64472e-05
1.2372e-05
7.92999e-06
4.35126e-06
2.1085e-06
9.12865e-07
5.16921e-07
1.13947e-06
1.23992e-06
3.09015e-08
7.6894e-08
1.99029e-06
1.07817e-05
5.51991e-06
4.5281e-06
5.2682e-06
6.426e-06
7.16507e-06
6.96002e-06
6.28767e-06
6.14782e-06
7.19912e-06
9.91466e-06
1.48045e-05
2.18264e-05
2.91608e-05
3.44055e-05
3.69833e-05
3.75715e-05
3.68713e-05
3.53126e-05
3.30768e-05
3.01253e-05
2.63751e-05
2.20211e-05
1.7676e-05
1.39074e-05
1.05918e-05
7.32759e-06
4.42046e-06
2.44655e-06
1.44314e-06
1.36128e-06
2.1206e-06
4.08651e-08
5.57343e-08
2.34951e-06
1.11092e-05
9.38064e-06
6.85762e-06
6.64186e-06
6.75129e-06
6.16094e-06
5.00709e-06
4.29328e-06
4.65324e-06
6.39939e-06
9.91834e-06
1.55132e-05
2.25398e-05
2.90957e-05
3.36916e-05
3.61706e-05
3.69277e-05
3.63407e-05
3.46772e-05
3.21379e-05
2.89328e-05
2.53002e-05
2.14907e-05
1.77668e-05
1.43304e-05
1.1258e-05
8.48564e-06
5.93189e-06
3.84408e-06
2.59147e-06
2.43588e-06
5.39461e-06
4.89164e-08
4.62597e-08
2.90386e-06
1.39125e-05
1.27808e-05
8.56065e-06
6.83251e-06
5.3891e-06
3.97203e-06
3.33522e-06
3.83014e-06
5.68669e-06
9.24413e-06
1.45892e-05
2.08427e-05
2.65349e-05
3.10357e-05
3.44197e-05
3.676e-05
3.80167e-05
3.81417e-05
3.712e-05
3.49358e-05
3.15651e-05
2.71158e-05
2.20962e-05
1.73641e-05
1.3535e-05
1.05853e-05
8.16458e-06
6.0181e-06
4.23639e-06
3.14793e-06
3.27851e-06
9.55908e-06
5.32096e-08
4.6713e-08
3.29084e-06
1.5486e-05
1.41204e-05
7.92469e-06
4.62081e-06
2.97831e-06
2.64054e-06
3.51126e-06
5.70561e-06
9.37859e-06
1.40427e-05
1.85125e-05
2.23568e-05
2.59909e-05
2.96273e-05
3.29953e-05
3.56517e-05
3.72308e-05
3.75112e-05
3.63627e-05
3.37149e-05
2.96335e-05
2.45348e-05
1.92965e-05
1.48514e-05
1.15568e-05
9.24705e-06
7.51274e-06
5.96145e-06
4.54091e-06
3.65139e-06
4.15615e-06
1.26403e-05
5.25152e-08
5.31661e-08
3.16227e-06
1.31736e-05
7.6184e-06
3.6118e-06
2.33752e-06
2.48879e-06
3.89045e-06
6.6955e-06
1.07121e-05
1.46566e-05
1.76683e-05
2.04482e-05
2.36796e-05
2.72716e-05
3.07699e-05
3.37756e-05
3.60856e-05
3.75573e-05
3.79878e-05
3.70749e-05
3.44503e-05
2.98908e-05
2.38733e-05
1.78026e-05
1.29867e-05
9.70935e-06
7.62847e-06
6.26066e-06
5.20014e-06
4.32428e-06
3.97748e-06
5.28474e-06
8.29265e-06
4.97818e-08
6.41577e-08
2.71791e-06
9.60758e-06
3.75364e-06
2.41136e-06
2.67871e-06
4.25527e-06
7.13873e-06
1.0446e-05
1.27637e-05
1.44395e-05
1.65317e-05
1.94541e-05
2.3027e-05
2.67714e-05
3.02908e-05
3.33341e-05
3.57016e-05
3.71613e-05
3.74127e-05
3.6079e-05
3.27794e-05
2.74778e-05
2.10796e-05
1.51688e-05
1.07573e-05
7.8774e-06
6.17336e-06
5.22916e-06
4.64867e-06
4.24384e-06
4.34686e-06
6.62489e-06
5.45781e-06
4.43007e-08
7.17333e-08
2.68015e-06
7.15531e-06
3.02085e-06
2.70293e-06
3.72178e-06
5.8773e-06
8.52266e-06
1.07691e-05
1.26513e-05
1.46918e-05
1.72185e-05
2.03609e-05
2.40206e-05
2.7819e-05
3.13172e-05
3.41917e-05
3.62571e-05
3.73639e-05
3.73071e-05
3.57905e-05
3.2486e-05
2.73229e-05
2.10088e-05
1.49502e-05
1.02471e-05
7.08755e-06
5.20915e-06
4.27071e-06
3.95129e-06
4.03134e-06
4.69033e-06
8.13301e-06
4.1782e-06
4.07029e-08
7.25325e-08
2.69417e-06
7.16782e-06
3.26039e-06
3.25082e-06
4.54122e-06
6.79093e-06
9.17404e-06
1.08849e-05
1.19979e-05
1.31843e-05
1.5084e-05
1.80478e-05
2.20183e-05
2.6447e-05
3.05897e-05
3.39047e-05
3.6134e-05
3.71558e-05
3.68629e-05
3.51312e-05
3.18757e-05
2.72086e-05
2.16217e-05
1.59524e-05
1.10737e-05
7.43363e-06
5.06086e-06
3.7538e-06
3.26603e-06
3.43044e-06
4.35078e-06
8.23425e-06
3.61672e-06
4.0937e-08
6.56209e-08
2.89637e-06
8.58326e-06
3.86276e-06
3.82623e-06
5.11845e-06
7.17616e-06
9.09812e-06
1.02781e-05
1.10637e-05
1.21899e-05
1.42094e-05
1.73926e-05
2.16574e-05
2.64253e-05
3.08285e-05
3.42069e-05
3.62976e-05
3.70671e-05
3.6532e-05
3.46954e-05
3.15842e-05
2.73651e-05
2.24282e-05
1.73119e-05
1.25579e-05
8.57176e-06
5.62987e-06
3.77162e-06
2.85572e-06
2.75838e-06
3.55506e-06
7.13965e-06
3.25064e-06
4.47904e-08
5.30578e-08
2.92235e-06
1.29612e-05
5.19092e-06
4.65094e-06
5.67437e-06
7.24016e-06
8.46175e-06
8.95906e-06
9.26173e-06
1.00906e-05
1.19091e-05
1.49453e-05
1.91829e-05
2.41983e-05
2.91043e-05
3.306e-05
3.56299e-05
3.67279e-05
3.64077e-05
3.47463e-05
3.18486e-05
2.79476e-05
2.34665e-05
1.88843e-05
1.45071e-05
1.04443e-05
6.97832e-06
4.45794e-06
2.95324e-06
2.35178e-06
2.65348e-06
5.09662e-06
2.98328e-06
5.15634e-08
4.29899e-08
3.2082e-06
1.63539e-05
6.85092e-06
5.61606e-06
6.15193e-06
7.01346e-06
7.53465e-06
7.74879e-06
8.23294e-06
9.52471e-06
1.19178e-05
1.54525e-05
1.98771e-05
2.46817e-05
2.9228e-05
3.29722e-05
3.55427e-05
3.6752e-05
3.65373e-05
3.48906e-05
3.18708e-05
2.77455e-05
2.30991e-05
1.86237e-05
1.46864e-05
1.11924e-05
8.00414e-06
5.31493e-06
3.42789e-06
2.42702e-06
2.3349e-06
3.99405e-06
2.90532e-06
5.77095e-08
3.82603e-08
3.35585e-06
1.69046e-05
9.32509e-06
7.07058e-06
6.83198e-06
6.81476e-06
6.64552e-06
6.67143e-06
7.36718e-06
9.00585e-06
1.16291e-05
1.50661e-05
1.90351e-05
2.32911e-05
2.75547e-05
3.14238e-05
3.44368e-05
3.62146e-05
3.65287e-05
3.52681e-05
3.2448e-05
2.83595e-05
2.36737e-05
1.91602e-05
1.51988e-05
1.17329e-05
8.6258e-06
5.93879e-06
3.91249e-06
2.70369e-06
2.39845e-06
3.70893e-06
3.11418e-06
6.1111e-08
3.89748e-08
3.56963e-06
1.73851e-05
1.08863e-05
7.67576e-06
6.55657e-06
5.91911e-06
5.70836e-06
6.20175e-06
7.61719e-06
1.00096e-05
1.31745e-05
1.67006e-05
2.02933e-05
2.39355e-05
2.76279e-05
3.11589e-05
3.4114e-05
3.60204e-05
3.64736e-05
3.5181e-05
3.20668e-05
2.75656e-05
2.26836e-05
1.83573e-05
1.4815e-05
1.17908e-05
9.0038e-06
6.4495e-06
4.39258e-06
3.09101e-06
2.72123e-06
4.03298e-06
3.61575e-06
5.90867e-08
4.44424e-08
3.50765e-06
1.79144e-05
1.14249e-05
7.47111e-06
5.93855e-06
5.33408e-06
5.5549e-06
6.66949e-06
8.65069e-06
1.12309e-05
1.39715e-05
1.66406e-05
1.93661e-05
2.23919e-05
2.58054e-05
2.93699e-05
3.26204e-05
3.49794e-05
3.58794e-05
3.48431e-05
3.16896e-05
2.69822e-05
2.19974e-05
1.77419e-05
1.43556e-05
1.15409e-05
9.01222e-06
6.70387e-06
4.77019e-06
3.48054e-06
3.1167e-06
4.51928e-06
4.18471e-06
5.24868e-08
5.20749e-08
3.32233e-06
1.8353e-05
1.07634e-05
6.77814e-06
5.4084e-06
5.14153e-06
5.78353e-06
7.24807e-06
9.33844e-06
1.17426e-05
1.42068e-05
1.66704e-05
1.92398e-05
2.20911e-05
2.53211e-05
2.87716e-05
3.20123e-05
3.44275e-05
3.53444e-05
3.41668e-05
3.07317e-05
2.58846e-05
2.11171e-05
1.72676e-05
1.42535e-05
1.17033e-05
9.35471e-06
7.1669e-06
5.29502e-06
3.99096e-06
3.58772e-06
4.94554e-06
5.24404e-06
4.40343e-08
6.03779e-08
3.00092e-06
1.79532e-05
1.02355e-05
6.34145e-06
5.22153e-06
5.22748e-06
6.08419e-06
7.63742e-06
9.62644e-06
1.17623e-05
1.38566e-05
1.58958e-05
1.80338e-05
2.05275e-05
2.35753e-05
2.71043e-05
3.06191e-05
3.33402e-05
3.44016e-05
3.30713e-05
2.93016e-05
2.43603e-05
1.99075e-05
1.65288e-05
1.39286e-05
1.16864e-05
9.57375e-06
7.57428e-06
5.82702e-06
4.55771e-06
4.12266e-06
5.41093e-06
6.49404e-06
3.68946e-08
6.48824e-08
2.64119e-06
1.60706e-05
1.08629e-05
6.49461e-06
5.32975e-06
5.31718e-06
6.02709e-06
7.31026e-06
8.97786e-06
1.08791e-05
1.29014e-05
1.49765e-05
1.71409e-05
1.95954e-05
2.26103e-05
2.62291e-05
2.99447e-05
3.27891e-05
3.37161e-05
3.19663e-05
2.78008e-05
2.29479e-05
1.90268e-05
1.62955e-05
1.42524e-05
1.23765e-05
1.04124e-05
8.40447e-06
6.58024e-06
5.22129e-06
4.67279e-06
5.80291e-06
8.67825e-06
3.34942e-08
6.25391e-08
2.24061e-06
1.18946e-05
1.2641e-05
7.05586e-06
5.48396e-06
5.21795e-06
5.62461e-06
6.59539e-06
8.03731e-06
9.8521e-06
1.19031e-05
1.40237e-05
1.61503e-05
1.84874e-05
2.14605e-05
2.52991e-05
2.94206e-05
3.23451e-05
3.2608e-05
2.96292e-05
2.4605e-05
1.98919e-05
1.66897e-05
1.47946e-05
1.35854e-05
1.24731e-05
1.10725e-05
9.33262e-06
7.52433e-06
6.06238e-06
5.42016e-06
6.55651e-06
9.43313e-06
3.40123e-08
5.11775e-08
1.85704e-06
7.7566e-06
1.44184e-05
8.06915e-06
5.77452e-06
5.0707e-06
5.068e-06
5.61726e-06
6.71049e-06
8.31708e-06
1.03618e-05
1.26692e-05
1.50464e-05
1.75734e-05
2.07698e-05
2.51028e-05
2.98013e-05
3.24841e-05
3.1262e-05
2.65837e-05
2.11063e-05
1.70286e-05
1.46731e-05
1.35548e-05
1.30987e-05
1.27221e-05
1.19005e-05
1.04323e-05
8.60895e-06
7.00213e-06
6.23899e-06
7.38901e-06
8.7015e-06
4.13192e-08
3.61454e-08
1.56762e-06
5.35534e-06
1.21179e-05
8.27036e-06
5.62181e-06
4.55043e-06
4.25151e-06
4.5675e-06
5.52947e-06
7.1371e-06
9.32905e-06
1.18839e-05
1.44752e-05
1.71262e-05
2.06186e-05
2.57533e-05
3.09689e-05
3.18192e-05
2.70546e-05
2.05469e-05
1.56978e-05
1.29614e-05
1.17491e-05
1.15481e-05
1.19841e-05
1.26199e-05
1.28197e-05
1.1999e-05
1.02343e-05
8.36074e-06
7.40534e-06
8.74915e-06
6.96454e-06
5.68237e-08
2.51045e-08
1.45899e-06
4.50304e-06
9.01082e-06
6.4428e-06
4.35157e-06
3.52866e-06
3.47748e-06
4.11775e-06
5.44318e-06
7.40715e-06
9.81443e-06
1.22459e-05
1.43751e-05
1.66866e-05
2.0688e-05
2.73474e-05
3.17982e-05
2.68809e-05
1.88187e-05
1.34993e-05
1.08467e-05
9.84643e-06
9.9185e-06
1.0769e-05
1.21321e-05
1.35717e-05
1.4412e-05
1.39694e-05
1.22326e-05
1.01534e-05
9.13712e-06
1.11189e-05
5.36819e-06
7.87034e-08
2.07159e-08
1.61788e-06
5.34858e-06
7.1739e-06
4.36843e-06
3.26959e-06
3.19892e-06
3.87707e-06
5.23184e-06
7.13312e-06
9.252e-06
1.10301e-05
1.21736e-05
1.32502e-05
1.5762e-05
2.19524e-05
2.95851e-05
2.30092e-05
1.37036e-05
9.24942e-06
7.57608e-06
7.37246e-06
8.2324e-06
1.00999e-05
1.28532e-05
1.58867e-05
1.80927e-05
1.85911e-05
1.73003e-05
1.49436e-05
1.27453e-05
1.21477e-05
1.46574e-05
4.30896e-06
9.60529e-08
2.20403e-08
2.46218e-06
1.08573e-05
5.60364e-06
3.91018e-06
3.89276e-06
4.82238e-06
6.47814e-06
8.49367e-06
1.01412e-05
1.07843e-05
1.06761e-05
1.07977e-05
1.25928e-05
1.85927e-05
2.51767e-05
1.50294e-05
7.95839e-06
5.51721e-06
5.25014e-06
6.58854e-06
9.9108e-06
1.53195e-05
2.08518e-05
2.39437e-05
2.43727e-05
2.32412e-05
2.14807e-05
1.95956e-05
1.79075e-05
1.68891e-05
1.71811e-05
1.50646e-05
3.50357e-06
9.47088e-08
2.81974e-08
4.33847e-06
1.06372e-05
5.65473e-06
5.26083e-06
6.354e-06
8.34514e-06
1.03656e-05
1.12154e-05
1.06896e-05
9.76143e-06
9.4251e-06
1.05753e-05
1.49293e-05
2.23756e-05
1.48299e-05
7.50956e-06
5.40456e-06
5.89491e-06
8.53639e-06
1.34334e-05
1.92001e-05
2.30534e-05
2.43968e-05
2.45155e-05
2.42815e-05
2.37953e-05
2.29763e-05
2.20009e-05
2.12806e-05
2.11993e-05
2.10616e-05
1.35534e-05
3.21847e-06
8.05221e-08
3.75623e-08
5.426e-06
1.09219e-05
7.118e-06
7.32343e-06
9.10804e-06
1.14009e-05
1.28102e-05
1.25746e-05
1.12885e-05
9.93087e-06
9.10091e-06
9.14232e-06
1.06587e-05
1.52298e-05
2.1432e-05
1.29781e-05
6.75212e-06
4.99555e-06
5.22146e-06
6.81065e-06
9.93327e-06
1.47507e-05
1.96601e-05
2.16008e-05
2.09825e-05
2.03018e-05
2.07366e-05
2.22719e-05
2.4209e-05
2.52489e-05
2.25519e-05
1.13187e-05
2.945e-06
6.6392e-08
4.47012e-08
4.63703e-06
1.52443e-05
9.56767e-06
9.37989e-06
1.14333e-05
1.45879e-05
1.74468e-05
1.81494e-05
1.60492e-05
1.25597e-05
9.56314e-06
7.85367e-06
7.37367e-06
8.08342e-06
1.05317e-05
1.50572e-05
1.28119e-05
6.79176e-06
4.49217e-06
3.87198e-06
4.05423e-06
4.98137e-06
6.77852e-06
9.93933e-06
1.54989e-05
2.34645e-05
2.81611e-05
2.54839e-05
2.17846e-05
2.02809e-05
1.88368e-05
1.03737e-05
2.77562e-06
5.08476e-08
4.69691e-08
3.92614e-06
1.89346e-05
1.30185e-05
1.14872e-05
1.27505e-05
1.5474e-05
1.92555e-05
2.3963e-05
2.88741e-05
3.12559e-05
2.80113e-05
2.0858e-05
1.33614e-05
8.5174e-06
6.72486e-06
6.78152e-06
8.15296e-06
1.12561e-05
1.45811e-05
8.70405e-06
4.63229e-06
3.12217e-06
2.47832e-06
2.27743e-06
2.51112e-06
3.25343e-06
4.89107e-06
9.01892e-06
1.94997e-05
2.81943e-05
2.13046e-05
1.12307e-05
3.63439e-06
4.96935e-08
4.70831e-08
3.53435e-06
1.87741e-05
1.80196e-05
1.46912e-05
1.45411e-05
1.59477e-05
1.81011e-05
2.06253e-05
2.34155e-05
2.67417e-05
3.14181e-05
3.81511e-05
4.01072e-05
3.93112e-05
2.69451e-05
1.93155e-05
1.20829e-05
7.87364e-06
7.29018e-06
8.92171e-06
1.32329e-05
1.95109e-05
1.40128e-05
7.00443e-06
4.07067e-06
2.64404e-06
1.81233e-06
1.47256e-06
1.72868e-06
3.05457e-06
7.03971e-06
7.88071e-06
2.56734e-06
6.3494e-08
4.59246e-08
3.26812e-06
1.68651e-05
2.52036e-05
2.04909e-05
1.82702e-05
1.82603e-05
1.94244e-05
2.11819e-05
2.31309e-05
2.48738e-05
2.59977e-05
2.61948e-05
2.53927e-05
2.38489e-05
2.2068e-05
2.08636e-05
2.17802e-05
2.63437e-05
2.85268e-05
2.37914e-05
1.98363e-05
1.49079e-05
1.3044e-05
1.64756e-05
2.77035e-05
1.91364e-05
7.24316e-06
3.55364e-06
2.15188e-06
1.58767e-06
1.72037e-06
3.43934e-06
1.88329e-06
7.94122e-08
3.97822e-08
3.02834e-06
1.38578e-05
2.46521e-05
2.64029e-05
2.32094e-05
2.16231e-05
2.14087e-05
2.20015e-05
2.30862e-05
2.44424e-05
2.57219e-05
2.63708e-05
2.58606e-05
2.41564e-05
2.1805e-05
1.94274e-05
1.73655e-05
1.58578e-05
1.53249e-05
1.65653e-05
2.14036e-05
3.18284e-05
3.50359e-05
2.14679e-05
1.31924e-05
1.05788e-05
1.20099e-05
1.50192e-05
9.42321e-06
4.7906e-06
3.16792e-06
3.36466e-06
4.92966e-06
8.10816e-08
3.20155e-08
2.97055e-06
1.21598e-05
2.31962e-05
2.62634e-05
2.26915e-05
2.01109e-05
1.92719e-05
1.94885e-05
1.97097e-05
1.89278e-05
1.70472e-05
1.48653e-05
1.30876e-05
1.1964e-05
1.15153e-05
1.17462e-05
1.2773e-05
1.4955e-05
1.9072e-05
2.51085e-05
2.87512e-05
2.73851e-05
2.43787e-05
2.19954e-05
2.08787e-05
2.02892e-05
1.86133e-05
1.58445e-05
1.31896e-05
9.9679e-06
6.55382e-06
5.57814e-06
1.38938e-05
7.89772e-08
2.7332e-08
3.34508e-06
1.37785e-05
2.17255e-05
2.45404e-05
2.40807e-05
2.04797e-05
1.53194e-05
1.09624e-05
8.26987e-06
6.8429e-06
6.25841e-06
6.25365e-06
6.76084e-06
7.85507e-06
9.67607e-06
1.23991e-05
1.60044e-05
1.93918e-05
2.07458e-05
2.02575e-05
1.93849e-05
1.89438e-05
1.91149e-05
1.97515e-05
2.04219e-05
2.05807e-05
1.99573e-05
1.84524e-05
1.57587e-05
1.21353e-05
9.19947e-06
9.11767e-06
1.7207e-05
7.91684e-08
2.98463e-08
3.50413e-06
1.23e-05
2.03765e-05
1.82445e-05
9.1905e-06
5.07336e-06
3.64861e-06
3.34241e-06
3.67497e-06
4.56873e-06
6.11753e-06
8.58714e-06
1.26875e-05
1.84669e-05
2.10907e-05
1.88029e-05
1.63303e-05
1.51888e-05
1.52253e-05
1.63523e-05
1.88497e-05
2.30594e-05
2.86374e-05
3.42004e-05
3.81439e-05
3.91608e-05
3.63635e-05
3.02149e-05
2.28724e-05
1.6773e-05
1.34755e-05
1.3683e-05
9.29485e-06
5.57618e-08
3.61543e-08
2.86222e-06
1.07357e-05
7.69433e-06
3.69019e-06
2.5763e-06
2.6879e-06
3.63438e-06
5.51667e-06
9.08927e-06
1.65574e-05
2.7324e-05
2.72428e-05
2.05643e-05
1.58436e-05
1.39094e-05
1.47642e-05
1.93342e-05
2.80271e-05
3.72995e-05
4.5515e-05
5.11585e-05
5.26359e-05
5.40508e-05
5.52905e-05
4.70237e-05
3.87639e-05
3.21322e-05
2.65903e-05
2.165e-05
1.75927e-05
1.52586e-05
1.50259e-05
8.71978e-06
5.01245e-08
3.82858e-08
2.59653e-06
7.33161e-06
3.45497e-06
2.80695e-06
3.48574e-06
5.62149e-06
1.09724e-05
2.39131e-05
3.69044e-05
3.61905e-05
3.34874e-05
3.23927e-05
3.17798e-05
3.00667e-05
2.78808e-05
2.69054e-05
2.75811e-05
2.93958e-05
3.14689e-05
3.31059e-05
3.41641e-05
3.48771e-05
3.53764e-05
3.54446e-05
3.48239e-05
3.32822e-05
3.06194e-05
2.70631e-05
2.31563e-05
1.96159e-05
1.72663e-05
1.59136e-05
7.39635e-06
6.5062e-08
3.61462e-08
4.48424e-06
5.79384e-06
4.09644e-06
4.74598e-06
7.38113e-06
1.2696e-05
1.8287e-05
2.00205e-05
2.12088e-05
2.49138e-05
3.04453e-05
3.26182e-05
2.74811e-05
1.97464e-05
1.50836e-05
1.37704e-05
1.49062e-05
1.8034e-05
2.27107e-05
2.80653e-05
3.30949e-05
3.7139e-05
3.97667e-05
4.06251e-05
3.94767e-05
3.63235e-05
3.18176e-05
2.70567e-05
2.29424e-05
1.99947e-05
1.85131e-05
1.68472e-05
5.68505e-06
8.05142e-08
3.20731e-08
1.44695e-05
6.40337e-06
5.99386e-06
8.22688e-06
1.29327e-05
1.93284e-05
2.50024e-05
2.80883e-05
2.82058e-05
2.67302e-05
2.54092e-05
2.44784e-05
2.19194e-05
1.67611e-05
1.25869e-05
1.12836e-05
1.25103e-05
1.59887e-05
2.14306e-05
2.7772e-05
3.34484e-05
3.74305e-05
3.94006e-05
3.94451e-05
3.77591e-05
3.46043e-05
3.04883e-05
2.61894e-05
2.25604e-05
2.03106e-05
1.97483e-05
1.7456e-05
4.7784e-06
8.95449e-08
2.4654e-08
1.46045e-05
8.80603e-06
8.64989e-06
1.13833e-05
1.62082e-05
2.14044e-05
2.43875e-05
2.44454e-05
2.27377e-05
2.04806e-05
1.85212e-05
1.74361e-05
1.66987e-05
1.35534e-05
8.81485e-06
6.37199e-06
6.23682e-06
7.90934e-06
1.15646e-05
1.75461e-05
2.51401e-05
3.2092e-05
3.63375e-05
3.74001e-05
3.60348e-05
3.33417e-05
3.01179e-05
2.67837e-05
2.37207e-05
2.14117e-05
1.97693e-05
1.41328e-05
3.75678e-06
9.10664e-08
1.79359e-08
1.31451e-05
1.06888e-05
1.1481e-05
1.50394e-05
2.10674e-05
2.82349e-05
3.34568e-05
3.39677e-05
2.96114e-05
2.27835e-05
1.68236e-05
1.34796e-05
1.27978e-05
1.29587e-05
9.27645e-06
5.81477e-06
4.96895e-06
5.96759e-06
8.72524e-06
1.39056e-05
2.21259e-05
3.16714e-05
3.78216e-05
3.80847e-05
3.42303e-05
2.93977e-05
2.54209e-05
2.26563e-05
2.09184e-05
1.9947e-05
1.84312e-05
1.01853e-05
2.72861e-06
8.11213e-08
2.22367e-08
1.08108e-05
1.39213e-05
1.70991e-05
2.21043e-05
2.78783e-05
3.19165e-05
3.23939e-05
2.913e-05
2.32552e-05
1.71137e-05
1.28856e-05
1.1454e-05
1.34683e-05
1.59453e-05
1.12008e-05
7.66322e-06
6.3394e-06
6.42727e-06
7.70722e-06
1.03565e-05
1.48714e-05
2.20115e-05
3.19883e-05
4.18282e-05
4.26537e-05
4.22363e-05
3.43047e-05
2.66211e-05
2.10637e-05
1.73313e-05
1.38487e-05
7.58415e-06
2.40876e-06
5.39169e-08
4.37336e-08
1.11228e-05
1.66163e-05
2.02412e-05
2.48436e-05
2.86687e-05
2.9435e-05
2.68011e-05
2.19333e-05
1.65053e-05
1.20894e-05
9.44405e-06
8.54728e-06
9.26149e-06
1.18255e-05
1.58984e-05
1.4526e-05
8.75279e-06
5.91285e-06
5.12938e-06
5.38188e-06
6.25238e-06
7.60768e-06
9.3592e-06
1.1313e-05
1.31423e-05
1.44469e-05
1.48989e-05
1.44746e-05
1.33893e-05
1.17565e-05
9.14929e-06
5.25566e-06
2.04139e-06
3.8994e-08
7.13032e-08
9.33932e-06
1.74478e-05
1.99532e-05
2.3951e-05
2.87494e-05
3.21365e-05
3.3235e-05
3.25202e-05
3.03238e-05
2.65862e-05
2.17534e-05
1.67942e-05
1.26889e-05
1.0304e-05
9.90109e-06
1.10905e-05
1.14311e-05
9.44576e-06
7.78286e-06
7.20808e-06
7.10822e-06
6.7576e-06
6.22048e-06
5.76336e-06
5.45896e-06
5.26983e-06
5.12221e-06
4.9558e-06
4.76536e-06
4.61057e-06
4.58344e-06
4.30409e-06
2.0011e-06
3.14216e-08
7.75635e-08
5.47091e-06
1.87407e-05
2.48127e-05
2.73879e-05
3.02875e-05
3.34785e-05
3.68356e-05
4.07889e-05
4.53551e-05
4.44379e-05
4.30293e-05
4.18063e-05
4.07515e-05
3.14e-05
2.34405e-05
1.88941e-05
1.71398e-05
1.70591e-05
1.75655e-05
1.78384e-05
1.80808e-05
1.88381e-05
1.95409e-05
1.86635e-05
1.62765e-05
1.37006e-05
1.15475e-05
9.81365e-06
8.29933e-06
6.86922e-06
5.56669e-06
4.53502e-06
4.02185e-06
1.52288e-08
4.8107e-08
3.02607e-06
1.06913e-05
2.33093e-05
2.88791e-05
3.06181e-05
3.13951e-05
3.18364e-05
3.23167e-05
3.3407e-05
3.56353e-05
3.90996e-05
4.26591e-05
4.1814e-05
4.06735e-05
3.92017e-05
3.74121e-05
3.53696e-05
3.31808e-05
3.0977e-05
2.84265e-05
2.74635e-05
2.66933e-05
2.67012e-05
2.74038e-05
2.85763e-05
2.79159e-05
2.57765e-05
2.52554e-05
2.51895e-05
2.36188e-05
1.87081e-05
1.19631e-05
6.34892e-06
1.50111e-08
2.21327e-08
2.1668e-06
6.21994e-06
1.30895e-05
1.9631e-05
2.49629e-05
3.04821e-05
3.59151e-05
3.78848e-05
3.81207e-05
3.77542e-05
3.25645e-05
2.64522e-05
2.13303e-05
1.77347e-05
1.5402e-05
1.39878e-05
1.32481e-05
1.29428e-05
1.28878e-05
1.30782e-05
1.37823e-05
1.52657e-05
1.70934e-05
1.84038e-05
1.92265e-05
1.99752e-05
2.064e-05
2.08013e-05
1.98747e-05
1.7576e-05
1.46475e-05
1.22678e-05
9.97532e-06
3.39656e-08
2.45592e-08
2.08224e-06
5.21188e-06
9.54551e-06
1.30571e-05
1.44077e-05
1.39774e-05
1.26523e-05
1.12253e-05
1.00351e-05
9.10171e-06
8.37335e-06
7.84671e-06
7.56748e-06
7.61829e-06
8.1417e-06
9.42304e-06
1.18266e-05
1.49755e-05
1.67282e-05
1.62174e-05
1.51485e-05
1.4493e-05
1.44374e-05
1.52798e-05
1.72923e-05
2.02483e-05
2.31228e-05
2.45108e-05
2.39788e-05
2.24801e-05
2.12592e-05
1.99903e-05
1.15976e-05
5.54894e-08
3.7285e-08
2.06512e-06
7.19653e-06
1.02324e-05
7.47598e-06
6.05822e-06
5.61593e-06
5.72201e-06
6.27154e-06
7.25761e-06
8.7523e-06
1.11148e-05
1.49223e-05
1.93276e-05
2.12457e-05
2.04166e-05
1.82226e-05
1.59333e-05
1.53855e-05
1.73275e-05
2.15321e-05
2.65369e-05
3.02566e-05
3.24767e-05
3.5038e-05
3.97726e-05
4.6463e-05
5.12179e-05
4.87601e-05
4.09832e-05
3.45287e-05
3.17315e-05
2.9093e-05
1.13739e-05
5.18686e-08
2.86441e-08
3.39481e-06
5.92269e-06
4.42162e-06
4.40503e-06
5.20404e-06
7.03569e-06
1.12027e-05
2.08499e-05
3.07546e-05
2.51009e-05
1.50208e-05
1.31015e-05
1.61089e-05
2.27333e-05
2.84378e-05
3.08549e-05
3.38401e-05
4.04245e-05
4.45513e-05
4.55681e-05
4.6545e-05
4.74922e-05
4.8408e-05
4.92734e-05
5.00385e-05
5.06135e-05
4.83223e-05
4.02667e-05
3.49528e-05
3.29065e-05
3.37272e-05
3.26242e-05
1.08738e-05
6.10937e-08
1.82682e-08
5.40992e-06
4.56291e-06
6.11822e-06
1.03208e-05
2.04122e-05
2.87358e-05
2.92471e-05
2.98615e-05
3.07593e-05
3.19273e-05
3.32527e-05
3.46403e-05
3.15389e-05
3.24898e-05
3.72245e-05
4.01531e-05
4.12188e-05
4.2186e-05
4.30859e-05
4.39538e-05
4.48222e-05
4.57154e-05
4.66442e-05
4.75966e-05
4.85309e-05
4.65876e-05
4.33405e-05
4.00143e-05
3.71791e-05
3.54104e-05
3.46778e-05
3.00589e-05
9.16066e-06
7.60888e-08
1.75217e-08
5.36301e-06
6.52635e-06
9.51403e-06
1.43466e-05
2.0605e-05
2.63461e-05
2.8681e-05
2.70114e-05
2.30997e-05
1.88676e-05
1.57203e-05
1.41959e-05
1.43268e-05
1.6296e-05
2.06867e-05
2.79866e-05
3.65827e-05
3.99979e-05
4.14043e-05
4.26628e-05
4.38122e-05
4.48898e-05
4.59211e-05
4.69116e-05
4.78458e-05
4.52325e-05
4.13118e-05
3.764e-05
3.49207e-05
3.3776e-05
3.37144e-05
2.78175e-05
7.34661e-06
9.37604e-08
2.01985e-08
6.38041e-06
7.14436e-06
9.53949e-06
1.30179e-05
1.644e-05
1.85646e-05
1.95248e-05
2.01065e-05
1.96523e-05
1.63216e-05
1.18238e-05
8.95841e-06
7.96627e-06
8.41196e-06
1.03123e-05
1.43339e-05
2.15129e-05
3.17739e-05
3.90856e-05
4.10582e-05
4.28191e-05
4.44155e-05
4.58819e-05
4.72297e-05
4.844e-05
4.94452e-05
4.63051e-05
4.11587e-05
3.77902e-05
3.67438e-05
3.67053e-05
2.78498e-05
6.66889e-06
1.0919e-07
2.95181e-08
1.03305e-05
9.96507e-06
9.90331e-06
1.09052e-05
1.18945e-05
1.21505e-05
1.19847e-05
1.25389e-05
1.53696e-05
2.02117e-05
1.62486e-05
9.59655e-06
6.78363e-06
6.14078e-06
6.85232e-06
9.07882e-06
1.39979e-05
2.38567e-05
3.85071e-05
4.1755e-05
4.36448e-05
4.52937e-05
4.67905e-05
4.81975e-05
4.95312e-05
4.66752e-05
4.28866e-05
4.0104e-05
3.80613e-05
3.63769e-05
3.33909e-05
2.12041e-05
5.4851e-06
1.11482e-07
2.50785e-08
8.8095e-06
1.61851e-05
1.76412e-05
1.84706e-05
1.68158e-05
1.29838e-05
9.46746e-06
7.50988e-06
7.24793e-06
9.37894e-06
1.55987e-05
1.54495e-05
8.42265e-06
5.53416e-06
4.91443e-06
5.48746e-06
7.23149e-06
1.08963e-05
1.86362e-05
3.43268e-05
4.35367e-05
4.55001e-05
4.69203e-05
4.78335e-05
3.78231e-05
3.13374e-05
2.86636e-05
2.84874e-05
2.9354e-05
2.96085e-05
2.66447e-05
1.47824e-05
4.20224e-06
9.67984e-08
3.01194e-08
9.24644e-06
1.90213e-05
1.71934e-05
1.6214e-05
1.56617e-05
1.44048e-05
1.20894e-05
9.44393e-06
7.57297e-06
7.02671e-06
8.12862e-06
1.17885e-05
1.79765e-05
1.5028e-05
8.69217e-06
6.05673e-06
5.26628e-06
5.42603e-06
6.43959e-06
8.53231e-06
1.22732e-05
1.93164e-05
3.3057e-05
4.48476e-05
4.65345e-05
4.73107e-05
4.51105e-05
3.64287e-05
3.11152e-05
2.90026e-05
2.72747e-05
1.66399e-05
4.40305e-06
7.192e-08
3.35665e-08
5.90153e-06
2.10214e-05
2.46192e-05
2.1383e-05
1.89944e-05
1.72141e-05
1.52359e-05
1.26852e-05
9.84069e-06
7.36773e-06
5.94735e-06
5.94646e-06
7.6924e-06
1.21184e-05
1.72083e-05
1.39923e-05
9.0549e-06
6.55329e-06
5.42216e-06
4.85816e-06
4.62495e-06
4.7382e-06
5.30718e-06
6.49866e-06
8.58683e-06
1.21917e-05
1.83423e-05
2.65627e-05
3.14436e-05
3.05939e-05
2.6135e-05
1.49062e-05
4.30312e-06
7.94331e-08
2.2179e-08
3.89092e-06
1.42497e-05
1.99069e-05
2.22396e-05
2.36121e-05
2.4056e-05
2.36754e-05
2.04798e-05
1.58528e-05
1.1955e-05
9.67939e-06
8.94558e-06
9.20061e-06
9.94994e-06
1.12693e-05
1.35469e-05
1.72525e-05
2.19374e-05
2.46129e-05
2.28327e-05
1.86069e-05
1.43749e-05
1.09859e-05
8.42243e-06
6.51282e-06
5.26416e-06
4.76408e-06
5.19454e-06
6.99465e-06
1.08766e-05
1.58815e-05
1.41071e-05
3.71684e-06
1.03941e-07
1.80549e-08
2.98387e-06
9.66688e-06
1.46062e-05
1.42679e-05
1.2309e-05
1.03972e-05
9.01582e-06
8.13875e-06
7.72142e-06
7.80979e-06
8.52973e-06
1.00565e-05
1.26202e-05
1.61354e-05
1.92271e-05
2.02575e-05
1.96264e-05
1.86179e-05
1.80518e-05
1.82534e-05
1.93598e-05
2.14096e-05
2.40379e-05
2.57293e-05
2.4059e-05
1.87947e-05
1.29046e-05
8.61915e-06
6.34925e-06
6.13805e-06
9.03109e-06
1.62341e-05
3.29738e-06