/*--------------------------------*- C++ -*----------------------------------*\
| =========                 |                                                 |
| \\      /  F ield         | OpenFOAM: The Open Source CFD Toolbox           |
|  \\    /   O peration     | Version:  v2006                                 |
|   \\  /    A nd           | Website:  www.openfoam.com                      |
|    \\/     M anipulation  |                                                 |
\*---------------------------------------------------------------------------*/
FoamFile
{
    version     2.0;
    format      ascii;
    class       volScalarField;
    location    "15";
    object      T;
}
// * * * * * * * * * * * * * * * * * * * * * * * * * * * * * * * * * * * * * //

dimensions      [0 0 0 1 0 0 0];


internalField   nonuniform List<scalar> 
78750
(
297.472
295.914
296.327
296.284
296.304
296.311
296.317
296.321
296.325
296.328
296.331
296.334
296.336
296.339
296.34
296.341
296.342
296.342
296.341
296.339
296.337
296.334
296.329
296.324
296.317
296.307
296.296
296.281
296.262
296.235
296.194
296.127
296.053
296.184
296.829
298.771
297.224
296.625
296.471
296.443
296.44
296.444
296.449
296.456
296.462
296.469
296.475
296.481
296.485
296.489
296.491
296.493
296.493
296.493
296.491
296.489
296.485
296.48
296.473
296.465
296.454
296.441
296.424
296.402
296.372
296.322
296.242
296.195
296.398
297.073
299.012
297.622
296.833
296.452
296.342
296.341
296.365
296.39
296.412
296.431
296.446
296.459
296.468
296.476
296.482
296.487
296.49
296.491
296.491
296.49
296.487
296.482
296.475
296.465
296.451
296.433
296.408
296.375
296.329
296.268
296.198
296.156
296.241
296.6
297.351
299.044
297.779
297.017
296.582
296.44
296.423
296.441
296.467
296.493
296.517
296.536
296.551
296.562
296.571
296.578
296.583
296.587
296.59
296.591
296.592
296.591
296.589
296.586
296.579
296.57
296.555
296.532
296.499
296.452
296.391
296.327
296.306
296.437
296.842
297.612
299.245
298.024
297.268
296.769
296.471
296.36
296.353
296.389
296.434
296.473
296.502
296.524
296.54
296.552
296.561
296.567
296.571
296.574
296.576
296.577
296.577
296.576
296.573
296.569
296.562
296.551
296.532
296.505
296.467
296.423
296.39
296.415
296.599
297.051
297.843
299.372
298.261
297.608
297.159
296.805
296.603
296.525
296.52
296.545
296.575
296.601
296.62
296.633
296.642
296.648
296.652
296.655
296.657
296.658
296.659
296.659
296.658
296.657
296.654
296.648
296.636
296.617
296.585
296.539
296.485
296.443
296.467
296.654
297.069
297.784
299.433
298.432
297.821
297.396
297.039
296.798
296.678
296.636
296.628
296.629
296.633
296.638
296.641
296.644
296.646
296.648
296.649
296.651
296.652
296.654
296.656
296.658
296.66
296.661
296.659
296.653
296.636
296.604
296.553
296.496
296.473
296.553
296.8
297.267
298.045
299.466
298.512
297.883
297.422
297.05
296.825
296.722
296.687
296.681
296.686
296.694
296.702
296.707
296.71
296.711
296.711
296.711
296.712
296.712
296.714
296.716
296.719
296.723
296.727
296.729
296.726
296.712
296.682
296.637
296.594
296.598
296.719
297.004
297.505
298.323
299.494
298.571
297.914
297.425
297.064
296.871
296.786
296.753
296.741
296.739
296.738
296.737
296.733
296.728
296.723
296.72
296.718
296.718
296.719
296.723
296.728
296.735
296.743
296.754
296.765
296.774
296.772
296.751
296.712
296.672
296.676
296.798
297.101
297.636
298.476
299.528
298.65
297.994
297.502
297.152
296.954
296.852
296.806
296.791
296.789
296.788
296.784
296.777
296.77
296.763
296.758
296.755
296.755
296.756
296.76
296.766
296.774
296.786
296.802
296.821
296.84
296.849
296.836
296.804
296.782
296.82
296.988
297.322
297.868
298.717
299.55
298.702
298.034
297.529
297.177
296.978
296.885
296.855
296.852
296.852
296.846
296.833
296.817
296.801
296.788
296.779
296.774
296.772
296.772
296.776
296.782
296.792
296.807
296.829
296.86
296.899
296.94
296.971
296.985
297.013
297.111
297.332
297.686
298.229
299.07
299.595
298.812
298.172
297.669
297.306
297.096
296.996
296.956
296.941
296.931
296.916
296.892
296.865
296.84
296.821
296.807
296.799
296.794
296.793
296.795
296.799
296.806
296.816
296.831
296.855
296.895
296.956
297.038
297.124
297.208
297.321
297.529
297.878
298.426
299.274
299.624
298.891
298.305
297.829
297.454
297.227
297.11
297.06
297.041
297.03
297.009
296.973
296.928
296.888
296.857
296.837
296.825
296.818
296.817
296.819
296.825
296.833
296.842
296.854
296.867
296.885
296.917
296.98
297.091
297.253
297.456
297.715
298.096
298.683
299.55
299.652
298.979
298.472
298.062
297.707
297.461
297.316
297.24
297.199
297.166
297.118
297.05
296.979
296.919
296.878
296.852
296.838
296.832
296.831
296.834
296.841
296.852
296.867
296.886
296.908
296.932
296.957
296.988
297.047
297.175
297.413
297.773
298.267
298.926
299.806
299.676
299.065
298.615
298.268
297.966
297.732
297.571
297.462
297.378
297.29
297.186
297.078
296.987
296.924
296.886
296.866
296.856
296.853
296.855
296.86
296.869
296.88
296.896
296.915
296.939
296.969
297.004
297.042
297.09
297.171
297.347
297.687
298.217
298.884
299.731
299.688
299.11
298.701
298.396
298.127
297.903
297.727
297.579
297.43
297.271
297.122
297.007
296.935
296.897
296.879
296.871
296.869
296.871
296.876
296.884
296.896
296.912
296.934
296.961
296.994
297.035
297.08
297.127
297.18
297.257
297.405
297.702
298.202
298.816
299.603
299.696
299.139
298.757
298.48
298.228
297.989
297.756
297.52
297.297
297.118
297.003
296.943
296.917
296.905
296.9
296.896
296.895
296.896
296.901
296.909
296.922
296.939
296.964
296.997
297.04
297.094
297.156
297.22
297.285
297.364
297.498
297.761
298.21
298.756
299.482
299.7
299.152
298.77
298.465
298.151
297.826
297.514
297.257
297.09
297.008
296.977
296.965
296.955
296.944
296.934
296.926
296.922
296.922
296.927
296.937
296.953
296.977
297.009
297.053
297.113
297.188
297.275
297.364
297.45
297.546
297.688
297.936
298.335
298.865
299.618
299.705
299.156
298.736
298.358
297.956
297.59
297.32
297.169
297.101
297.069
297.043
297.015
296.988
296.965
296.947
296.936
296.931
296.93
296.934
296.944
296.96
296.984
297.019
297.07
297.143
297.241
297.359
297.483
297.604
297.728
297.892
298.147
298.527
299.056
299.844
299.7
299.134
298.663
298.225
297.803
297.485
297.298
297.204
297.153
297.115
297.08
297.048
297.019
296.996
296.979
296.967
296.96
296.959
296.962
296.971
296.986
297.009
297.044
297.097
297.175
297.287
297.433
297.601
297.771
297.938
298.132
298.402
298.774
299.304
300.118
299.698
299.123
298.634
298.189
297.796
297.531
297.383
297.302
297.249
297.202
297.155
297.106
297.062
297.026
296.999
296.981
296.97
296.966
296.967
296.973
296.985
297.004
297.032
297.076
297.144
297.25
297.404
297.608
297.84
298.078
298.329
298.635
299.025
299.571
300.411
299.696
299.118
298.637
298.215
297.858
297.622
297.483
297.398
297.334
297.273
297.211
297.15
297.097
297.055
297.026
297.007
296.997
296.993
296.994
297.001
297.013
297.03
297.055
297.09
297.143
297.226
297.358
297.556
297.821
298.13
298.46
298.826
299.256
299.833
300.693
299.708
299.152
298.724
298.359
298.033
297.805
297.656
297.551
297.463
297.377
297.29
297.207
297.137
297.084
297.048
297.025
297.013
297.008
297.009
297.016
297.028
297.045
297.069
297.101
297.145
297.21
297.31
297.471
297.719
298.057
298.46
298.91
299.412
300.042
300.918
299.713
299.175
298.795
298.479
298.178
297.95
297.782
297.649
297.529
297.412
297.301
297.207
297.136
297.088
297.057
297.04
297.032
297.031
297.035
297.044
297.059
297.079
297.105
297.141
297.188
297.251
297.341
297.474
297.683
297.998
298.422
298.93
299.5
300.174
301.053
299.728
299.222
298.874
298.593
298.319
298.09
297.901
297.734
297.578
297.433
297.31
297.216
297.151
297.108
297.081
297.065
297.058
297.057
297.062
297.071
297.086
297.106
297.133
297.169
297.217
297.281
297.369
297.495
297.684
297.972
298.383
298.912
299.522
300.22
301.094
299.733
299.241
298.906
298.637
298.37
298.127
297.909
297.71
297.531
297.382
297.272
297.198
297.149
297.117
297.097
297.085
297.081
297.082
297.089
297.101
297.119
297.143
297.174
297.215
297.269
297.339
297.43
297.554
297.732
297.998
298.385
298.9
299.508
300.194
301.044
299.736
299.248
298.915
298.647
298.372
298.108
297.867
297.656
297.485
297.361
297.277
297.22
297.179
297.15
297.13
297.117
297.112
297.112
297.119
297.131
297.149
297.173
297.206
297.251
297.31
297.387
297.486
297.618
297.796
298.049
298.407
298.888
299.463
300.116
300.939
299.736
299.245
298.908
298.632
298.341
298.062
297.818
297.621
297.477
297.377
297.307
297.256
297.216
297.185
297.163
297.149
297.142
297.142
297.149
297.161
297.18
297.205
297.239
297.284
297.345
297.425
297.529
297.665
297.845
298.089
298.422
298.863
299.397
300.007
300.798
299.741
299.25
298.907
298.623
298.323
298.045
297.816
297.643
297.521
297.434
297.367
297.313
297.268
297.231
297.203
297.184
297.174
297.173
297.178
297.19
297.208
297.233
297.267
297.311
297.37
297.449
297.554
297.695
297.882
298.128
298.452
298.867
299.37
299.948
300.72
299.754
299.277
298.933
298.65
298.361
298.097
297.886
297.729
297.615
297.527
297.453
297.389
297.334
297.287
297.251
297.226
297.212
297.207
297.212
297.223
297.241
297.266
297.298
297.337
297.387
297.453
297.545
297.675
297.855
298.1
298.425
298.84
299.344
299.911
300.668
299.776
299.335
298.991
298.717
298.454
298.209
298.012
297.862
297.745
297.648
297.562
297.483
297.413
297.353
297.305
297.27
297.25
297.243
297.247
297.259
297.28
297.308
297.343
297.382
297.427
297.482
297.558
297.669
297.833
298.068
298.39
298.81
299.321
299.898
300.666
299.807
299.417
299.086
298.83
298.6
298.379
298.195
298.047
297.922
297.808
297.698
297.594
297.5
297.42
297.356
297.312
297.286
297.278
297.283
297.299
297.325
297.36
297.399
297.438
297.475
297.514
297.566
297.647
297.78
297.988
298.295
298.716
299.24
299.846
300.648
299.836
299.503
299.205
298.97
298.768
298.575
298.403
298.249
298.1
297.95
297.801
297.664
297.545
297.45
297.379
297.333
297.313
297.314
297.331
297.361
297.403
297.452
297.502
297.546
297.581
297.61
297.646
297.703
297.803
297.974
298.247
298.647
299.161
299.788
300.63
299.854
299.561
299.3
299.088
298.902
298.718
298.535
298.346
298.149
297.952
297.772
297.619
297.499
297.41
297.354
297.331
297.337
297.364
297.408
297.466
297.535
297.602
297.655
297.69
297.71
297.725
297.749
297.798
297.889
298.047
298.303
298.683
299.171
299.796
300.668
299.853
299.569
299.325
299.118
298.915
298.693
298.451
298.201
297.963
297.756
297.591
297.469
297.386
297.34
297.332
297.361
297.416
297.492
297.589
297.697
297.792
297.856
297.882
297.881
297.869
297.863
297.879
297.929
298.028
298.195
298.457
298.826
299.278
299.875
300.76
299.821
299.484
299.22
298.973
298.685
298.378
298.082
297.827
297.629
297.488
297.396
297.341
297.321
297.342
297.405
297.498
297.621
297.785
297.963
298.095
298.145
298.127
298.083
298.048
298.034
298.047
298.091
298.175
298.307
298.498
298.757
299.088
299.499
300.084
300.97
299.768
299.345
299.004
298.673
298.32
298.006
297.765
297.598
297.491
297.422
297.38
297.364
297.38
297.439
297.537
297.675
297.869
298.09
298.254
298.323
298.322
298.293
298.264
298.247
298.249
298.276
298.333
298.426
298.563
298.752
298.996
299.298
299.697
300.301
301.205
299.725
299.233
298.839
298.481
298.149
297.895
297.72
297.603
297.521
297.459
297.41
297.372
297.355
297.374
297.441
297.554
297.717
297.944
298.193
298.394
298.517
298.57
298.579
298.574
298.579
298.611
298.679
298.784
298.923
299.095
299.307
299.579
299.977
300.62
301.561
299.722
299.213
298.838
298.519
298.222
297.994
297.834
297.725
297.649
297.588
297.531
297.467
297.395
297.332
297.3
297.321
297.401
297.548
297.772
298.048
298.32
298.568
298.768
298.911
299.003
299.058
299.102
299.164
299.27
299.447
299.697
300.018
300.455
301.116
302.051
299.741
299.256
298.919
298.644
298.379
298.16
297.996
297.881
297.804
297.754
297.724
297.703
297.68
297.633
297.535
297.384
297.241
297.168
297.177
297.257
297.416
297.667
297.972
298.3
298.642
298.976
299.278
299.529
299.719
299.856
299.993
300.204
300.582
301.226
302.162
299.761
299.307
298.99
298.746
298.516
298.311
298.147
298.022
297.931
297.867
297.825
297.8
297.791
297.795
297.812
297.84
297.863
297.828
297.677
297.432
297.205
297.083
297.076
297.161
297.358
297.673
298.079
298.579
299.156
299.724
300.194
300.551
300.927
301.534
302.498
299.78
299.356
299.048
298.83
298.64
298.461
298.305
298.18
298.083
298.01
297.957
297.918
297.887
297.862
297.839
297.816
297.793
297.778
297.783
297.811
297.847
297.846
297.758
297.562
297.32
297.155
297.111
297.27
297.769
298.562
299.521
300.496
301.353
302.162
303.071
299.804
299.422
299.129
298.923
298.76
298.613
298.48
298.366
298.273
298.199
298.141
298.097
298.062
298.032
298.003
297.973
297.937
297.892
297.835
297.763
297.679
297.598
297.546
297.533
297.555
297.602
297.629
297.57
297.464
297.487
297.882
298.777
299.955
301.032
301.979
299.826
299.488
299.222
299.035
298.891
298.763
298.644
298.54
298.452
298.38
298.319
298.262
298.202
298.138
298.067
297.991
297.913
297.836
297.763
297.7
297.652
297.621
297.602
297.592
297.584
297.575
297.564
297.557
297.547
297.524
297.529
297.746
298.395
299.226
300.115
299.835
299.52
299.282
299.111
298.977
298.865
298.767
298.673
298.571
298.456
298.329
298.196
298.065
297.94
297.829
297.735
297.659
297.602
297.566
297.548
297.546
297.558
297.58
297.612
297.652
297.695
297.736
297.768
297.781
297.778
297.785
297.887
298.213
298.717
299.429
299.836
299.532
299.31
299.157
299.028
298.881
298.689
298.465
298.235
298.021
297.838
297.694
297.59
297.525
297.498
297.502
297.527
297.568
297.623
297.688
297.759
297.832
297.898
297.954
297.996
298.027
298.048
298.061
298.067
298.076
298.111
298.224
298.478
298.917
299.666
299.833
299.52
299.277
299.056
298.791
298.474
298.149
297.867
297.659
297.532
297.486
297.502
297.553
297.632
297.733
297.841
297.933
297.99
298.009
298.006
297.995
297.987
297.987
297.996
298.015
298.043
298.081
298.127
298.179
298.239
298.327
298.481
298.749
299.202
299.989
299.82
299.473
299.159
298.822
298.428
298.051
297.771
297.631
297.61
297.643
297.695
297.752
297.803
297.841
297.865
297.879
297.887
297.893
297.898
297.905
297.915
297.928
297.947
297.973
298.007
298.053
298.11
298.179
298.26
298.357
298.482
298.668
298.962
299.455
300.304
299.76
299.32
298.916
298.502
298.115
297.843
297.703
297.648
297.63
297.632
297.647
297.672
297.705
297.75
297.809
297.877
297.943
297.994
298.027
298.047
298.06
298.073
298.089
298.112
298.144
298.191
298.254
298.34
298.452
298.595
298.778
299.023
299.365
299.912
300.823
299.648
299.131
298.695
298.26
297.947
297.775
297.697
297.668
297.663
297.673
297.698
297.737
297.79
297.855
297.93
298.011
298.084
298.136
298.167
298.183
298.194
298.205
298.221
298.245
298.279
298.329
298.4
298.5
298.638
298.823
299.063
299.362
299.741
300.312
301.23
299.641
299.123
298.716
298.34
298.069
297.9
297.799
297.734
297.689
297.661
297.652
297.668
297.716
297.793
297.895
298.016
298.142
298.247
298.315
298.353
298.375
298.394
298.417
298.446
298.485
298.537
298.607
298.7
298.826
299
299.236
299.548
299.97
300.613
301.574
299.658
299.163
298.785
298.448
298.192
298.018
297.906
297.832
297.782
297.75
297.736
297.751
297.807
297.908
298.039
298.187
298.343
298.477
298.56
298.595
298.605
298.616
298.644
298.691
298.763
298.863
298.998
299.172
299.385
299.633
299.919
300.25
300.672
301.276
302.133
299.619
299.033
298.616
298.297
298.076
297.935
297.848
297.797
297.771
297.768
297.791
297.85
297.949
298.083
298.235
298.403
298.584
298.759
298.901
298.994
299.035
299.033
299.005
298.971
298.948
298.945
298.969
299.031
299.144
299.32
299.568
299.895
300.337
300.969
301.86
299.563
298.892
298.452
298.155
297.97
297.863
297.806
297.778
297.77
297.774
297.785
297.804
297.832
297.877
297.947
298.049
298.195
298.403
298.669
298.948
299.206
299.429
299.616
299.771
299.9
300.015
300.122
300.232
300.355
300.509
300.719
301.023
301.482
302.175
303.132
299.575
298.887
298.437
298.134
297.942
297.84
297.795
297.781
297.781
297.783
297.773
297.741
297.676
297.574
297.456
297.374
297.384
297.506
297.717
297.981
298.256
298.508
298.73
298.933
299.133
299.344
299.574
299.829
300.117
300.441
300.807
301.225
301.699
302.26
302.981
299.668
299.042
298.602
298.308
298.103
297.969
297.893
297.856
297.845
297.848
297.86
297.877
297.902
297.936
297.985
298.053
298.138
298.215
298.252
298.222
298.125
297.976
297.805
297.638
297.499
297.399
297.348
297.358
297.438
297.6
297.856
298.217
298.683
299.255
299.998
299.798
299.376
299.012
298.748
298.555
298.403
298.282
298.187
298.115
298.065
298.039
298.033
298.046
298.073
298.111
298.152
298.191
298.223
298.242
298.244
298.229
298.199
298.16
298.117
298.076
298.037
297.999
297.954
297.9
297.839
297.792
297.794
297.916
298.267
298.977
299.863
299.572
299.294
299.061
298.878
298.738
298.635
298.565
298.521
298.498
298.49
298.492
298.499
298.505
298.503
298.49
298.463
298.425
298.376
298.317
298.247
298.165
298.072
297.977
297.886
297.808
297.747
297.702
297.671
297.651
297.651
297.696
297.849
298.19
298.863
299.898
299.682
299.48
299.315
299.191
299.096
299.016
298.942
298.868
298.792
298.714
298.633
298.548
298.459
298.367
298.272
298.179
298.093
298.018
297.95
297.883
297.81
297.731
297.653
297.595
297.574
297.592
297.642
297.717
297.815
297.945
298.123
298.374
298.766
299.475
299.902
299.709
299.539
299.385
299.226
299.053
298.878
298.709
298.552
298.41
298.285
298.172
298.069
297.974
297.886
297.806
297.742
297.705
297.702
297.726
297.758
297.787
297.811
297.83
297.85
297.876
297.91
297.959
298.029
298.131
298.279
298.482
298.747
299.15
299.888
299.828
299.52
299.247
298.974
298.697
298.437
298.213
298.048
297.951
297.906
297.894
297.913
297.954
297.994
298.013
298.012
297.995
297.967
297.936
297.909
297.886
297.868
297.855
297.849
297.85
297.862
297.887
297.93
298.002
298.114
298.276
298.485
298.747
299.144
299.894
299.739
299.267
298.85
298.487
298.231
298.095
298.036
298.018
298.022
298.035
298.049
298.058
298.063
298.064
298.059
298.05
298.037
298.021
298.004
297.985
297.967
297.949
297.935
297.924
297.918
297.921
297.934
297.964
298.018
298.107
298.243
298.437
298.704
299.142
299.962
299.619
298.951
298.431
298.071
297.873
297.789
297.766
297.776
297.804
297.845
297.896
297.952
298.007
298.055
298.088
298.105
298.107
298.098
298.083
298.064
298.042
298.021
298.002
297.989
297.987
297.998
298.029
298.087
298.182
298.322
298.514
298.756
299.064
299.537
300.347
299.54
298.778
298.252
297.937
297.795
297.755
297.766
297.803
297.852
297.905
297.963
298.026
298.092
298.155
298.205
298.234
298.239
298.225
298.201
298.17
298.135
298.094
298.05
298.006
297.967
297.937
297.924
297.934
297.977
298.067
298.206
298.391
298.634
299.03
299.779
299.62
299.034
298.618
298.307
298.113
298.017
297.984
297.982
297.992
298.011
298.045
298.097
298.17
298.258
298.34
298.395
298.414
298.396
298.355
298.311
298.269
298.227
298.185
298.145
298.108
298.074
298.046
298.029
298.034
298.079
298.18
298.356
298.655
299.218
300.207
299.711
299.24
298.916
298.674
298.485
298.332
298.193
298.062
297.953
297.892
297.9
297.962
298.055
298.178
298.323
298.455
298.548
298.585
298.562
298.488
298.397
298.315
298.248
298.202
298.185
298.199
298.251
298.345
298.477
298.643
298.847
299.108
299.49
300.12
301.086
299.693
299.196
298.865
298.61
298.397
298.23
298.106
298.017
297.961
297.937
297.948
297.984
298.035
298.096
298.181
298.303
298.455
298.605
298.735
298.828
298.872
298.862
298.8
298.704
298.605
298.516
298.449
298.424
298.455
298.562
298.754
299.03
299.432
300.09
301.12
299.736
299.265
298.953
298.734
298.552
298.401
298.289
298.217
298.178
298.157
298.124
298.05
297.941
297.842
297.798
297.817
297.886
298.008
298.181
298.381
298.587
298.788
298.98
299.16
299.323
299.465
299.582
299.668
299.728
299.786
299.885
300.085
300.489
301.283
302.532
299.809
299.442
299.17
298.975
298.826
298.713
298.632
298.577
298.542
298.516
298.493
298.465
298.433
298.395
298.346
298.272
298.17
298.045
297.92
297.821
297.762
297.755
297.809
297.934
298.129
298.392
298.717
299.099
299.525
299.977
300.438
300.909
301.473
302.305
303.455
299.869
299.612
299.407
299.256
299.135
299.028
298.931
298.84
298.752
298.666
298.579
298.491
298.399
298.304
298.21
298.123
298.044
297.977
297.92
297.872
297.832
297.8
297.78
297.78
297.812
297.89
298.036
298.285
298.678
299.242
299.957
300.73
301.418
302.147
303.034
299.881
299.653
299.465
299.299
299.136
298.98
298.835
298.706
298.591
298.488
298.397
298.318
298.246
298.176
298.106
298.041
297.985
297.944
297.918
297.903
297.897
297.898
297.908
297.929
297.968
298.035
298.152
298.357
298.696
299.204
299.855
300.52
301.078
301.61
302.225
299.84
299.544
299.278
299.028
298.81
298.633
298.504
298.423
298.371
298.336
298.309
298.283
298.254
298.217
298.176
298.132
298.089
298.049
298.014
297.983
297.96
297.943
297.934
297.935
297.947
297.976
298.033
298.138
298.321
298.609
298.994
299.402
299.762
300.15
300.744
299.76
299.298
298.9
298.605
298.438
298.357
298.327
298.329
298.347
298.363
298.364
298.349
298.32
298.281
298.238
298.194
298.152
298.114
298.083
298.06
298.045
298.039
298.042
298.055
298.079
298.116
298.172
298.255
298.377
298.551
298.78
299.046
299.35
299.795
300.555
299.628
298.946
298.435
298.126
297.98
297.936
297.955
298.022
298.123
298.235
298.334
298.398
298.421
298.406
298.367
298.311
298.245
298.177
298.112
298.057
298.015
297.991
297.987
298.003
298.039
298.096
298.179
298.293
298.439
298.611
298.802
299.005
299.245
299.61
300.265
299.522
298.699
298.142
297.837
297.724
297.736
297.835
297.993
298.177
298.355
298.504
298.609
298.667
298.679
298.653
298.597
298.519
298.426
298.322
298.211
298.1
297.995
297.901
297.822
297.762
297.724
297.708
297.717
297.757
297.834
297.951
298.112
298.354
298.807
299.69
299.482
298.681
298.196
297.956
297.918
298.033
298.229
298.412
298.535
298.609
298.664
298.718
298.774
298.832
298.888
298.94
298.984
299.016
299.034
299.035
299.019
298.989
298.946
298.897
298.847
298.802
298.773
298.768
298.803
298.894
299.07
299.366
299.85
300.643
301.808
299.513
298.816
298.374
298.073
297.877
297.749
297.662
297.603
297.567
297.552
297.559
297.59
297.647
297.731
297.841
297.974
298.125
298.288
298.457
298.625
298.788
298.943
299.089
299.227
299.359
299.491
299.627
299.776
299.946
300.15
300.402
300.723
301.147
301.736
302.555
299.497
298.783
298.355
298.073
297.893
297.793
297.748
297.737
297.748
297.774
297.806
297.84
297.869
297.89
297.903
297.908
297.909
297.912
297.924
297.95
297.993
298.055
298.137
298.237
298.353
298.482
298.626
298.786
298.964
299.167
299.4
299.672
299.998
300.432
301.096
299.534
298.799
298.382
298.111
297.912
297.783
297.714
297.691
297.698
297.724
297.758
297.796
297.834
297.871
297.906
297.937
297.964
297.986
298.003
298.014
298.022
298.028
298.036
298.048
298.068
298.098
298.139
298.197
298.278
298.39
298.547
298.769
299.084
299.523
300.205
299.65
299.015
298.62
298.375
298.198
298.066
297.972
297.912
297.878
297.863
297.864
297.875
297.892
297.913
297.933
297.952
297.969
297.983
297.995
298.006
298.016
298.025
298.033
298.043
298.054
298.069
298.091
298.125
298.175
298.248
298.354
298.52
298.785
299.212
299.915
299.772
299.319
298.962
298.718
298.541
298.402
298.294
298.212
298.148
298.1
298.064
298.039
298.025
298.02
298.023
298.032
298.045
298.058
298.069
298.076
298.078
298.076
298.071
298.064
298.059
298.057
298.062
298.079
298.113
298.173
298.273
298.433
298.685
299.095
299.79
299.876
299.618
299.383
299.192
299.039
298.914
298.811
298.725
298.653
298.592
298.54
298.498
298.466
298.443
298.427
298.417
298.412
298.409
298.406
298.402
298.394
298.382
298.364
298.339
298.307
298.271
298.235
298.204
298.187
298.2
298.268
298.416
298.667
299.078
299.79
299.911
299.737
299.586
299.457
299.347
299.253
299.173
299.105
299.045
298.991
298.941
298.894
298.85
298.807
298.766
298.726
298.687
298.648
298.607
298.565
298.52
298.472
298.421
298.37
298.318
298.269
298.227
298.207
298.223
298.291
298.427
298.643
298.954
299.417
300.175
299.831
299.508
299.23
299.006
298.842
298.732
298.665
298.629
298.615
298.615
298.621
298.629
298.636
298.64
298.637
298.626
298.603
298.565
298.509
298.435
298.341
298.229
298.112
298.006
297.925
297.878
297.868
297.899
297.97
298.081
298.231
298.42
298.659
299.029
299.718
299.643
298.983
298.49
298.204
298.092
298.086
298.141
298.225
298.315
298.394
298.458
298.503
298.532
298.546
298.547
298.534
298.507
298.465
298.407
298.333
298.246
298.147
298.041
297.935
297.836
297.749
297.681
297.638
297.627
297.658
297.742
297.896
298.158
298.637
299.523
299.411
298.444
297.866
297.659
297.713
297.869
297.999
298.062
298.075
298.064
298.05
298.043
298.049
298.075
298.12
298.182
298.257
298.337
298.416
298.49
298.556
298.611
298.657
298.695
298.726
298.754
298.785
298.826
298.887
298.986
299.147
299.405
299.817
300.491
301.531
299.531
298.804
298.331
298.03
297.859
297.764
297.695
297.625
297.543
297.449
297.354
297.276
297.231
297.231
297.277
297.364
297.479
297.608
297.737
297.862
297.984
298.105
298.23
298.362
298.505
298.662
298.837
299.033
299.255
299.509
299.806
300.156
300.577
301.139
301.936
299.536
298.821
298.386
298.1
297.913
297.805
297.746
297.717
297.708
297.715
297.734
297.763
297.798
297.831
297.854
297.857
297.835
297.787
297.716
297.636
297.565
297.517
297.497
297.503
297.533
297.594
297.693
297.833
298.015
298.243
298.526
298.876
299.302
299.824
300.539
299.526
298.746
298.289
298
297.799
297.677
297.618
297.6
297.604
297.621
297.642
297.665
297.689
297.713
297.735
297.755
297.772
297.786
297.799
297.808
297.814
297.815
297.808
297.794
297.775
297.755
297.74
297.738
297.76
297.818
297.944
298.173
298.537
299.066
299.833
299.638
298.96
298.497
298.213
298.017
297.874
297.775
297.712
297.676
297.661
297.66
297.667
297.682
297.701
297.723
297.746
297.769
297.791
297.81
297.826
297.837
297.844
297.845
297.84
297.83
297.816
297.799
297.787
297.786
297.809
297.869
298.001
298.281
298.776
299.549
299.762
299.29
298.904
298.624
298.415
298.253
298.127
298.034
297.969
297.93
297.909
297.901
297.903
297.912
297.926
297.941
297.954
297.964
297.969
297.967
297.96
297.946
297.927
297.903
297.876
297.847
297.818
297.791
297.771
297.766
297.791
297.886
298.118
298.576
299.353
299.816
299.458
299.162
298.938
298.77
298.643
298.546
298.473
298.414
298.364
298.319
298.277
298.238
298.201
298.165
298.13
298.094
298.058
298.021
297.983
297.945
297.908
297.872
297.837
297.806
297.78
297.76
297.746
297.736
297.732
297.747
297.829
298.055
298.498
299.258
299.832
299.518
299.282
299.118
298.985
298.858
298.732
298.609
298.49
298.379
298.277
298.186
298.105
298.036
297.975
297.923
297.877
297.836
297.802
297.772
297.743
297.716
297.688
297.661
297.637
297.622
297.619
297.632
297.666
297.731
297.844
298.032
298.322
298.772
299.533
299.824
299.499
299.26
299.057
298.846
298.638
298.443
298.268
298.119
297.998
297.903
297.833
297.786
297.758
297.743
297.738
297.742
297.752
297.77
297.79
297.809
297.823
297.83
297.832
297.833
297.841
297.861
297.901
297.966
298.064
298.204
298.393
298.648
299.068
299.863
299.772
299.388
299.059
298.737
298.444
298.2
298.017
297.896
297.831
297.806
297.805
297.819
297.838
297.859
297.877
297.889
297.893
297.89
297.883
297.874
297.866
297.861
297.858
297.86
297.869
297.889
297.923
297.976
298.056
298.169
298.318
298.511
298.764
299.176
299.965
299.703
299.18
298.739
298.361
298.084
297.913
297.83
297.804
297.808
297.827
297.854
297.884
297.912
297.935
297.951
297.957
297.954
297.945
297.934
297.921
297.91
297.901
297.896
297.897
297.906
297.926
297.958
298.007
298.078
298.178
298.313
298.492
298.738
299.154
299.952
299.616
298.963
298.457
298.088
297.877
297.786
297.768
297.783
297.81
297.844
297.88
297.917
297.951
297.981
298.003
298.014
298.015
298.008
297.995
297.98
297.965
297.953
297.947
297.951
297.966
297.995
298.04
298.105
298.191
298.3
298.44
298.624
298.892
299.367
300.215
299.583
298.935
298.446
298.067
297.845
297.749
297.725
297.731
297.752
297.78
297.813
297.85
297.89
297.929
297.965
297.998
298.028
298.054
298.076
298.092
298.101
298.104
298.104
298.105
298.111
298.129
298.165
298.226
298.322
298.456
298.629
298.846
299.15
299.664
300.525
299.651
299.057
298.666
298.378
298.147
297.981
297.866
297.788
297.743
297.727
297.733
297.75
297.767
297.779
297.788
297.799
297.816
297.843
297.88
297.925
297.979
298.041
298.108
298.178
298.248
298.318
298.386
298.455
298.534
298.639
298.788
298.999
299.311
299.837
300.714
299.702
299.166
298.819
298.58
298.382
298.224
298.111
298.039
297.997
297.976
297.97
297.971
297.966
297.945
297.902
297.844
297.788
297.747
297.723
297.712
297.716
297.741
297.792
297.867
297.965
298.087
298.231
298.393
298.569
298.751
298.938
299.158
299.473
300.013
300.912
299.734
299.242
298.912
298.687
298.509
298.362
298.246
298.16
298.101
298.062
298.04
298.029
298.026
298.029
298.038
298.05
298.06
298.057
298.032
297.988
297.936
297.885
297.841
297.81
297.801
297.83
297.912
298.057
298.261
298.515
298.807
299.137
299.532
300.128
301.107
299.786
299.375
299.067
298.856
298.696
298.563
298.45
298.356
298.281
298.226
298.191
298.172
298.161
298.154
298.143
298.118
298.076
298.017
297.95
297.888
297.841
297.81
297.796
297.802
297.828
297.875
297.946
298.056
298.229
298.484
298.831
299.277
299.791
300.482
301.538
299.823
299.477
299.201
299.002
298.846
298.717
298.61
298.526
298.464
298.418
298.382
298.347
298.307
298.256
298.192
298.118
298.039
297.966
297.905
297.861
297.835
297.829
297.844
297.88
297.938
298.016
298.125
298.28
298.509
298.83
299.253
299.764
300.289
300.956
301.96
299.844
299.538
299.282
299.096
298.957
298.848
298.757
298.674
298.592
298.504
298.409
298.306
298.199
298.094
297.997
297.915
297.854
297.814
297.794
297.793
297.812
297.849
297.903
297.971
298.054
298.156
298.294
298.49
298.765
299.132
299.585
300.084
300.568
301.165
302.057
299.857
299.58
299.353
299.183
299.044
298.911
298.769
298.618
298.462
298.31
298.17
298.049
297.954
297.889
297.851
297.831
297.828
297.837
297.855
297.878
297.906
297.938
297.977
298.03
298.101
298.204
298.353
298.568
298.862
299.235
299.672
300.128
300.565
301.107
301.928
299.851
299.567
299.345
299.162
298.973
298.764
298.55
298.348
298.175
298.047
297.968
297.93
297.914
297.909
297.91
297.912
297.911
297.91