/*--------------------------------*- C++ -*----------------------------------*\
| =========                 |                                                 |
| \\      /  F ield         | OpenFOAM: The Open Source CFD Toolbox           |
|  \\    /   O peration     | Version:  v2006                                 |
|   \\  /    A nd           | Website:  www.openfoam.com                      |
|    \\/     M anipulation  |                                                 |
\*---------------------------------------------------------------------------*/
FoamFile
{
    version     2.0;
    format      ascii;
    class       volScalarField;
    location    "47";
    object      nut;
}
// * * * * * * * * * * * * * * * * * * * * * * * * * * * * * * * * * * * * * //

dimensions      [0 2 -1 0 0 0 0];


internalField   nonuniform List<scalar> 
78750
(
1.6206e-08
3.16845e-07
2.83884e-07
2.66414e-07
2.50933e-07
2.33749e-07
2.1568e-07
1.9831e-07
1.82898e-07
1.70156e-07
1.60339e-07
1.53377e-07
1.49025e-07
1.46975e-07
1.46921e-07
1.48606e-07
1.51831e-07
1.56445e-07
1.6229e-07
1.69293e-07
1.77448e-07
1.86692e-07
1.96906e-07
2.07884e-07
2.19281e-07
2.30536e-07
2.40819e-07
2.4889e-07
2.52918e-07
2.50295e-07
2.37741e-07
2.12204e-07
1.73179e-07
1.29952e-07
4.51856e-09
8.38974e-10
3.16361e-07
9.83347e-07
1.34383e-06
1.61113e-06
1.78222e-06
1.8738e-06
1.91051e-06
1.91604e-06
1.9078e-06
1.89711e-06
1.891e-06
1.89295e-06
1.9042e-06
1.92493e-06
1.95487e-06
1.99329e-06
2.03971e-06
2.09265e-06
2.15036e-06
2.21085e-06
2.27159e-06
2.32958e-06
2.38127e-06
2.42221e-06
2.44649e-06
2.44612e-06
2.41027e-06
2.32556e-06
1.89121e-06
1.10642e-06
6.94107e-07
6.22361e-07
9.64563e-07
1.94341e-08
8.77543e-10
6.53755e-07
1.35155e-06
1.9829e-06
2.56563e-06
3.06678e-06
3.47006e-06
3.77204e-06
3.97631e-06
4.08959e-06
4.11986e-06
4.07595e-06
3.96882e-06
3.8106e-06
3.61413e-06
3.3927e-06
3.15958e-06
2.92855e-06
2.71263e-06
2.52444e-06
2.37662e-06
2.27511e-06
2.22469e-06
2.22898e-06
2.28589e-06
2.38668e-06
2.51459e-06
2.49636e-06
2.03481e-06
1.53268e-06
1.12931e-06
9.35056e-07
1.19293e-06
1.24867e-06
3.15316e-08
1.61268e-09
1.01749e-06
2.51273e-06
4.48496e-06
5.93743e-06
7.19177e-06
8.28887e-06
9.21241e-06
9.9558e-06
1.05182e-05
1.09029e-05
1.074e-05
1.04228e-05
1.00695e-05
9.69268e-06
9.30048e-06
8.89994e-06
8.5001e-06
8.10689e-06
7.71149e-06
7.20896e-06
6.41978e-06
5.6255e-06
4.84966e-06
4.11987e-06
3.47121e-06
2.94831e-06
1.99699e-06
1.37624e-06
1.04417e-06
8.96379e-07
9.37464e-07
1.61745e-06
1.26638e-06
4.15916e-08
2.31488e-09
1.60769e-06
3.46913e-06
5.60224e-06
8.07933e-06
1.09693e-05
1.26457e-05
1.39052e-05
1.49311e-05
1.57321e-05
1.63191e-05
1.67039e-05
1.68979e-05
1.69128e-05
1.67597e-05
1.645e-05
1.59321e-05
1.4797e-05
1.37265e-05
1.27411e-05
1.18009e-05
1.08708e-05
9.92179e-06
8.91045e-06
7.76837e-06
6.43604e-06
4.92091e-06
3.37415e-06
2.10819e-06
1.33898e-06
1.00954e-06
1.06114e-06
2.11857e-06
1.24046e-06
5.26771e-08
3.65497e-09
1.61553e-06
3.50775e-06
5.76527e-06
8.45917e-06
1.17626e-05
1.53874e-05
1.6674e-05
1.77069e-05
1.85022e-05
1.9076e-05
1.94436e-05
1.96202e-05
1.96203e-05
1.9458e-05
1.91469e-05
1.82187e-05
1.66096e-05
1.51272e-05
1.38134e-05
1.26262e-05
1.15265e-05
1.04768e-05
9.42623e-06
8.29702e-06
7.00396e-06
5.52261e-06
3.9752e-06
2.62686e-06
1.70758e-06
1.2591e-06
1.307e-06
2.73957e-06
1.25628e-06
6.24264e-08
4.9139e-09
1.64069e-06
3.5843e-06
5.99694e-06
9.00311e-06
1.28339e-05
1.73859e-05
1.91016e-05
2.01564e-05
2.09515e-05
2.15061e-05
2.18382e-05
2.19656e-05
2.19055e-05
2.16749e-05
2.12791e-05
1.91712e-05
1.71958e-05
1.54854e-05
1.39847e-05
1.26437e-05
1.14211e-05
1.02803e-05
9.17842e-06
8.05155e-06
6.82087e-06
5.4521e-06
4.03843e-06
2.7976e-06
1.92465e-06
1.48841e-06
1.60704e-06
3.43391e-06
1.2877e-06
7.08983e-08
6.57922e-09
1.6322e-06
3.61451e-06
6.21056e-06
9.61443e-06
1.40528e-05
1.92619e-05
2.15731e-05
2.26188e-05
2.33876e-05
2.3903e-05
2.41867e-05
2.42586e-05
2.41377e-05
2.38422e-05
2.17946e-05
1.94842e-05
1.74465e-05
1.56828e-05
1.41378e-05
1.2755e-05
1.1485e-05
1.02878e-05
9.12888e-06
7.96276e-06
6.72742e-06
5.3962e-06
4.05406e-06
2.89035e-06
2.07302e-06
1.67896e-06
1.89658e-06
4.05257e-06
1.33312e-06
7.84529e-08
8.51565e-09
1.67235e-06
3.75275e-06
6.59721e-06
1.04604e-05
1.55084e-05
2.1191e-05
2.37402e-05
2.47315e-05
2.54368e-05
2.58837e-05
2.60966e-05
2.60976e-05
2.59064e-05
2.40418e-05
2.15084e-05
1.92067e-05
1.72089e-05
1.54725e-05
1.39388e-05
1.25519e-05
1.12665e-05
1.00483e-05
8.87115e-06
7.7036e-06
6.49593e-06
5.22998e-06
3.98557e-06
2.92419e-06
2.1872e-06
1.86075e-06
2.2086e-06
4.60646e-06
1.37743e-06
8.52128e-08
1.05432e-08
1.70457e-06
3.85307e-06
6.87873e-06
1.10897e-05
1.65791e-05
2.25475e-05
2.56689e-05
2.66268e-05
2.72938e-05
2.76992e-05
2.78685e-05
2.78242e-05
2.61784e-05
2.35489e-05
2.10696e-05
1.88844e-05
1.69794e-05
1.53038e-05
1.37994e-05
1.2416e-05
1.11139e-05
9.86429e-06
8.65041e-06
7.45783e-06
6.25403e-06
5.03277e-06
3.87173e-06
2.90832e-06
2.25787e-06
2.01097e-06
2.49952e-06
5.03146e-06
1.42167e-06
9.12119e-08
1.2597e-08
1.72687e-06
3.9269e-06
7.11024e-06
1.16519e-05
1.75778e-05
2.38107e-05
2.73849e-05
2.8312e-05
2.89436e-05
2.93105e-05
2.94392e-05
2.82753e-05
2.56486e-05
2.30291e-05
2.06573e-05
1.85692e-05
1.67372e-05
1.51083e-05
1.36279e-05
1.22502e-05
1.09386e-05
9.66792e-06
8.42961e-06
7.22335e-06
6.02887e-06
4.84946e-06
3.76177e-06
2.88537e-06
2.31679e-06
2.15301e-06
2.79207e-06
5.34068e-06
1.46138e-06
9.67318e-08
1.47963e-08
1.7508e-06
4.00298e-06
7.34258e-06
1.22044e-05
1.85136e-05
2.48975e-05
2.89613e-05
2.98598e-05
3.04613e-05
3.07973e-05
3.02326e-05
2.77916e-05
2.5148e-05
2.26372e-05
2.03713e-05
1.83653e-05
1.65867e-05
1.49863e-05
1.35147e-05
1.21298e-05
1.07973e-05
9.49563e-06
8.22398e-06
6.99707e-06
5.80762e-06
4.66647e-06
3.64632e-06
2.8497e-06
2.35829e-06
2.27717e-06
3.06613e-06
5.54916e-06
1.49752e-06
1.01807e-07
1.69222e-08
1.76769e-06
4.05908e-06
7.52933e-06
1.26737e-05
1.9324e-05
2.58276e-05
3.03506e-05
3.12342e-05
3.18183e-05
3.19396e-05
2.98992e-05
2.7373e-05
2.47853e-05
2.23535e-05
2.01643e-05
1.82184e-05
1.64796e-05
1.48997e-05
1.34317e-05
1.20358e-05
1.068e-05
9.3468e-06
8.04327e-06
6.79775e-06
5.61326e-06
4.50634e-06
3.54544e-06
2.81869e-06
2.39697e-06
2.39551e-06
3.33312e-06
5.67505e-06
1.529e-06
1.06601e-07
1.91725e-08
1.78572e-06
4.1182e-06
7.72339e-06
1.31526e-05
2.01125e-05
2.66392e-05
3.09762e-05
3.25632e-05
3.30235e-05
3.17207e-05
2.95748e-05
2.70666e-05
2.45382e-05
2.21826e-05
2.00635e-05
1.81706e-05
1.6464e-05
1.48958e-05
1.34215e-05
1.20039e-05
1.06145e-05
9.24034e-06
7.89716e-06
6.62714e-06
5.44321e-06
4.3653e-06
3.45593e-06
2.79007e-06
2.43053e-06
2.50378e-06
3.5835e-06
5.74686e-06
1.55706e-06
1.11193e-07
2.13718e-08
1.80274e-06
4.17264e-06
7.89848e-06
1.35774e-05
2.07901e-05
2.73082e-05
3.14204e-05
3.31298e-05
3.29744e-05
3.1524e-05
2.93189e-05
2.68181e-05
2.43436e-05
2.20587e-05
2.00052e-05
1.81621e-05
1.64857e-05
1.49278e-05
1.34451e-05
1.2003e-05
1.05765e-05
9.15876e-06
7.77484e-06
6.48042e-06
5.29637e-06
4.24443e-06
3.38074e-06
2.76869e-06
2.46529e-06
2.60941e-06
3.8271e-06
5.77684e-06
1.58158e-06
1.15652e-07
2.36641e-08
1.82067e-06
4.22784e-06
8.07289e-06
1.39936e-05
2.14229e-05
2.7884e-05
3.17568e-05
3.32149e-05
3.28658e-05
3.1302e-05
2.90646e-05
2.6597e-05
2.41924e-05
2.19864e-05
2.00024e-05
1.82116e-05
1.65665e-05
1.50177e-05
1.35231e-05
1.20507e-05
1.05801e-05
9.11149e-06
7.68072e-06
6.35732e-06
5.16989e-06
4.13994e-06
3.31616e-06
2.75136e-06
2.4983e-06
2.7087e-06
4.05764e-06
5.78469e-06
1.60367e-06
1.20002e-07
2.59322e-08
1.83854e-06
4.28148e-06
8.23763e-06
1.43771e-05
2.19831e-05
2.83686e-05
3.20218e-05
3.32594e-05
3.27427e-05
3.10847e-05
2.88288e-05
2.64007e-05
2.40665e-05
2.19375e-05
2.00224e-05
1.82848e-05
1.66731e-05
1.5136e-05
1.36314e-05
1.21287e-05
1.0612e-05
9.08957e-06
7.6089e-06
6.25414e-06
5.06105e-06
4.05006e-06
3.26201e-06
2.73987e-06
2.53327e-06
2.80731e-06
4.28425e-06
5.77481e-06
1.62347e-06
1.24264e-07
2.82865e-08
1.85703e-06
4.33496e-06
8.39897e-06
1.47465e-05
2.24983e-05
2.87786e-05
3.22098e-05
3.32427e-05
3.25818e-05
3.08553e-05
2.86017e-05
2.62265e-05
2.39693e-05
2.19198e-05
2.00747e-05
1.83912e-05
1.68144e-05
1.52902e-05
1.37759e-05
1.22424e-05
1.06778e-05
9.0985e-06
7.56428e-06
6.17396e-06
4.97103e-06
3.97425e-06
3.21655e-06
2.7319e-06
2.5675e-06
2.90184e-06
4.50166e-06
5.75937e-06
1.64195e-06
1.28454e-07
3.06315e-08
1.87486e-06
4.38594e-06
8.55137e-06
1.50906e-05
2.29628e-05
2.91322e-05
3.23589e-05
3.32077e-05
3.242e-05
3.06366e-05
2.83911e-05
2.60696e-05
2.38874e-05
2.19152e-05
2.01391e-05
1.85106e-05
1.6971e-05
1.54631e-05
1.39424e-05
1.23799e-05
1.07676e-05
9.13029e-06
7.54076e-06
6.11288e-06
4.89752e-06
3.9115e-06
3.18011e-06
2.72909e-06
2.60392e-06
2.99675e-06
4.71726e-06
5.7382e-06
1.65912e-06
1.3258e-07
3.30613e-08
1.89273e-06
4.43604e-06
8.70054e-06
1.54238e-05
2.33946e-05
2.94365e-05
3.24615e-05
3.314e-05
3.22436e-05
3.04211e-05
2.8197e-05
2.59363e-05
2.38311e-05
2.19352e-05
2.0226e-05
1.86509e-05
1.71478e-05
1.56569e-05
1.41313e-05
1.25414e-05
1.08823e-05
9.18693e-06
7.54088e-06
6.0728e-06
4.84144e-06
3.86171e-06
3.15176e-06
2.72999e-06
2.6407e-06
3.08965e-06
4.92741e-06
5.71898e-06
1.67579e-06
1.36652e-07
3.54955e-08
1.90949e-06
4.48335e-06
8.84276e-06
1.57398e-05
2.37932e-05
2.97076e-05
3.25452e-05
3.30685e-05
3.20753e-05
3.02215e-05
2.80218e-05
2.58211e-05
2.37903e-05
2.1968e-05
2.03242e-05
1.88018e-05
1.73356e-05
1.58632e-05
1.43347e-05
1.2719e-05
1.1014e-05
9.26094e-06
7.55841e-06
6.0496e-06
4.80053e-06
3.82412e-06
3.13195e-06
2.73599e-06
2.68006e-06
3.18385e-06
5.13761e-06
5.69931e-06
1.69176e-06
1.40668e-07
3.80154e-08
1.92616e-06
4.53032e-06
8.9845e-06
1.60519e-05
2.41731e-05
2.99505e-05
3.26058e-05
3.29855e-05
3.19095e-05
3.00364e-05
2.78686e-05
2.57307e-05
2.37733e-05
2.20222e-05
2.04407e-05
1.89684e-05
1.7538e-05
1.6084e-05
1.45537e-05
1.29137e-05
1.11641e-05
9.35417e-06
7.59528e-06
6.04462e-06
4.77552e-06
3.79889e-06
3.1204e-06
2.74653e-06
2.72116e-06
3.27809e-06
5.34577e-06
5.68428e-06
1.70762e-06
1.44634e-07
4.05515e-08
1.94181e-06
4.57522e-06
9.12207e-06
1.63532e-05
2.45294e-05
3.01698e-05
3.26535e-05
3.29016e-05
3.17525e-05
2.98662e-05
2.77329e-05
2.5657e-05
2.37711e-05
2.20889e-05
2.05682e-05
1.91453e-05
1.77505e-05
1.63149e-05
1.47828e-05
1.31192e-05
1.13257e-05
9.45969e-06
7.64548e-06
6.05373e-06
4.76406e-06
3.78518e-06
3.11741e-06
2.76268e-06
2.76572e-06
3.37494e-06
5.55599e-06
5.67089e-06
1.72314e-06
1.48546e-07
4.31725e-08
1.95745e-06
4.62056e-06
9.26176e-06
1.6656e-05
2.48754e-05
3.03728e-05
3.26905e-05
3.2817e-05
3.16054e-05
2.9714e-05
2.76189e-05
2.56053e-05
2.37888e-05
2.21729e-05
2.07105e-05
1.93355e-05
1.79755e-05
1.65583e-05
1.50245e-05
1.33374e-05
1.15008e-05
9.57936e-06
7.71041e-06
6.07753e-06
4.76624e-06
3.78287e-06
3.12284e-06
2.78429e-06
2.81344e-06
3.47377e-06
5.76686e-06
5.66204e-06
1.73865e-06
1.5241e-07
4.58204e-08
1.97243e-06
4.66492e-06
9.40004e-06
1.69527e-05
2.52036e-05
3.05573e-05
3.27179e-05
3.27327e-05
3.14667e-05
2.95751e-05
2.75196e-05
2.55673e-05
2.38183e-05
2.22669e-05
2.08615e-05
1.95339e-05
1.82086e-05
1.68096e-05
1.52741e-05
1.35635e-05
1.16838e-05
9.70772e-06
7.78531e-06
6.11264e-06
4.78e-06
3.79104e-06
3.1367e-06
2.81214e-06
2.86581e-06
3.57705e-06
5.98242e-06
5.65587e-06
1.7541e-06
1.56222e-07
4.8548e-08
1.98743e-06
4.71005e-06
9.54155e-06
1.72529e-05
2.55247e-05
3.07309e-05
3.27399e-05
3.26517e-05
3.13394e-05
2.94527e-05
2.74384e-05
2.55464e-05
2.38626e-05
2.23732e-05
2.10234e-05
1.97423e-05
1.84513e-05
1.70704e-05
1.5533e-05
1.37985e-05
1.18755e-05
9.8454e-06
7.87049e-06
6.15885e-06
4.80486e-06
3.80921e-06
3.15868e-06
2.84602e-06
2.92251e-06
3.68389e-06
6.2003e-06
5.65251e-06
1.76938e-06
1.59979e-07
5.13067e-08
2.00201e-06
4.75493e-06
9.68368e-06
1.75509e-05
2.58335e-05
3.08922e-05
3.27573e-05
3.25738e-05
3.12208e-05
2.93417e-05
2.73686e-05
2.55353e-05
2.3915e-05
2.24865e-05
2.11915e-05
1.99567e-05
1.87001e-05
1.73375e-05
1.57981e-05
1.40393e-05
1.20728e-05
9.98903e-06
7.96277e-06
6.21371e-06
4.8391e-06
3.83643e-06
3.18857e-06
2.88647e-06
2.98502e-06
3.7975e-06
6.42646e-06
5.65275e-06
1.78489e-06
1.63678e-07
5.41328e-08
2.0165e-06
4.8004e-06
9.82914e-06
1.78532e-05
2.61377e-05
3.1047e-05
3.27733e-05
3.2501e-05
3.11125e-05
2.92433e-05
2.73113e-05
2.55352e-05
2.39765e-05
2.26072e-05
2.13661e-05
2.01771e-05
1.8955e-05
1.76107e-05
1.60692e-05
1.4286e-05
1.22756e-05
1.01382e-05
8.0619e-06
6.2768e-06
4.88221e-06
3.87223e-06
3.22605e-06
2.93327e-06
3.05288e-06
3.91611e-06
6.65575e-06
5.65427e-06
1.80003e-06
1.67305e-07
5.69873e-08
2.03054e-06
4.84572e-06
9.97636e-06
1.8157e-05
2.64365e-05
3.11978e-05
3.27911e-05
3.24347e-05
3.10128e-05
2.91536e-05
2.72614e-05
2.5541e-05
2.40425e-05
2.27317e-05
2.15442e-05
2.04012e-05
1.92137e-05
1.7888e-05
1.63445e-05
1.45364e-05
1.24819e-05
1.02912e-05
8.16593e-06
6.34635e-06
4.9327e-06
3.91555e-06
3.27063e-06
2.98654e-06
3.12705e-06
4.04322e-06
6.8991e-06
5.66174e-06
1.81543e-06
1.70854e-07
5.99007e-08
2.04442e-06
4.89155e-06
1.01272e-05
1.8467e-05
2.67364e-05
3.13511e-05
3.28143e-05
3.23755e-05
3.09208e-05
2.90711e-05
2.72177e-05
2.55518e-05
2.41123e-05
2.28591e-05
2.17248e-05
2.06276e-05
1.9475e-05
1.8168e-05
1.66225e-05
1.47898e-05
1.26915e-05
1.04483e-05
8.27539e-06
6.42279e-06
4.99071e-06
3.96626e-06
3.32205e-06
3.04623e-06
3.20802e-06
4.17993e-06
7.15554e-06
5.67531e-06
1.83142e-06
1.74325e-07
6.28411e-08
2.05788e-06
4.93718e-06
1.02796e-05
1.87789e-05
2.70351e-05
3.15035e-05
3.28431e-05
3.23217e-05
3.08323e-05
2.89911e-05
2.71758e-05
2.55638e-05
2.41829e-05
2.29871e-05
2.19059e-05
2.08548e-05
1.97371e-05
1.8449e-05
1.69016e-05
1.50442e-05
1.29023e-05
1.06074e-05
8.38829e-06
6.50469e-06
5.05521e-06
4.02368e-06
3.37999e-06
3.1122e-06
3.29573e-06
4.32602e-06
7.42307e-06
5.69172e-06
1.84766e-06
1.77702e-07
6.58301e-08
2.07123e-06
4.98319e-06
1.04339e-05
1.9088e-05
2.73143e-05
3.16319e-05
3.28524e-05
3.22619e-05
3.07423e-05
2.8911e-05
2.71346e-05
2.5576e-05
2.4253e-05
2.31142e-05
2.20859e-05
2.10806e-05
1.99978e-05
1.87286e-05
1.71796e-05
1.52979e-05
1.31135e-05
1.07687e-05
8.50555e-06
6.59285e-06
5.12666e-06
4.0879e-06
3.44437e-06
3.18466e-06
3.39117e-06
4.48349e-06
7.70299e-06
5.71242e-06
1.86435e-06
1.80982e-07
6.88378e-08
2.0842e-06
5.02905e-06
1.05902e-05
1.93989e-05
2.75782e-05
3.17454e-05
3.28499e-05
3.21931e-05
3.06483e-05
2.88289e-05
2.70915e-05
2.55857e-05
2.43202e-05
2.32382e-05
2.22628e-05
2.13033e-05
2.02551e-05
1.90047e-05
1.74538e-05
1.55481e-05
1.33222e-05
1.09294e-05
8.625e-06
6.68596e-06
5.20441e-06
4.1587e-06
3.51507e-06
3.26324e-06
3.49314e-06
4.64984e-06
7.99171e-06
5.73464e-06
1.88116e-06
1.84146e-07
7.18709e-08
2.0968e-06
5.07389e-06
1.07429e-05
1.96963e-05
2.78193e-05
3.18372e-05
3.283e-05
3.21119e-05
3.0552e-05
2.87453e-05
2.70454e-05
2.5592e-05
2.43836e-05
2.33583e-05
2.24355e-05
2.15214e-05
2.05076e-05
1.92756e-05
1.77227e-05
1.57937e-05
1.35278e-05
1.10896e-05
8.74701e-06
6.78429e-06
5.28862e-06
4.2361e-06
3.59216e-06
3.34834e-06
3.60348e-06
4.83041e-06
8.29046e-06
5.75995e-06
1.89819e-06
1.87191e-07
7.49045e-08
2.10929e-06
5.11913e-06
1.08968e-05
1.99882e-05
2.80443e-05
3.19127e-05
3.27962e-05
3.20183e-05
3.04434e-05
2.86513e-05
2.69911e-05
2.55912e-05
2.44411e-05
2.34734e-05
2.26036e-05
2.17346e-05
2.07546e-05
1.95402e-05
1.79848e-05
1.60323e-05
1.37275e-05
1.12466e-05
8.86942e-06
6.88645e-06
5.3786e-06
4.31986e-06
3.67559e-06
3.44004e-06
3.72211e-06
5.02376e-06
8.59833e-06
5.78747e-06
1.91529e-06
1.90104e-07
7.79411e-08
2.12126e-06
5.1635e-06
1.10487e-05
2.0267e-05
2.82488e-05
3.19696e-05
3.27458e-05
3.19115e-05
3.03263e-05
2.85531e-05
2.69343e-05
2.55874e-05
2.4493e-05
2.35797e-05
2.27619e-05
2.19396e-05
2.09946e-05
1.9798e-05
1.824e-05
1.62644e-05
1.39223e-05
1.14012e-05
8.99278e-06
6.99267e-06
5.47436e-06
4.4101e-06
3.76566e-06
3.53876e-06
3.8494e-06
5.22973e-06
8.91461e-06
5.81806e-06
1.93259e-06
1.92885e-07
8.09706e-08
2.13289e-06
5.20789e-06
1.12033e-05
2.05391e-05
2.84386e-05
3.20122e-05
3.26843e-05
3.17954e-05
3.02001e-05
2.84474e-05
2.68683e-05
2.55728e-05
2.45347e-05
2.36784e-05
2.29132e-05
2.21352e-05
2.12242e-05
2.00463e-05
1.84863e-05
1.64883e-05
1.41104e-05
1.1552e-05
9.11606e-06
7.10221e-06
5.57536e-06
4.50639e-06
3.86214e-06
3.64441e-06
3.98524e-06
5.44795e-06
9.23745e-06
5.85084e-06
1.94993e-06
1.95525e-07
8.39878e-08
2.14363e-06
5.24968e-06
1.13516e-05
2.07981e-05
2.86085e-05
3.20369e-05
3.26072e-05
3.16656e-05
3.00618e-05
2.83335e-05
2.67942e-05
2.55493e-05
2.4567e-05
2.3767e-05
2.3055e-05
2.23228e-05
2.14452e-05
2.02845e-05
1.8723e-05
1.6704e-05
1.42923e-05
1.16996e-05
9.23962e-06
7.21513e-06
5.68153e-06
4.60867e-06
3.965e-06
3.75707e-06
4.12987e-06
5.67873e-06
9.56606e-06
5.8863e-06
1.96743e-06
1.98026e-07
8.69842e-08
2.15421e-06
5.29137e-06
1.14989e-05
2.1048e-05
2.87628e-05
3.20477e-05
3.25187e-05
3.15251e-05
2.99121e-05
2.8206e-05
2.67056e-05
2.55111e-05
2.45849e-05
2.38419e-05
2.31839e-05
2.24986e-05
2.16558e-05
2.05126e-05
1.89486e-05
1.69099e-05
1.44671e-05
1.18434e-05
9.36311e-06
7.33101e-06
5.79249e-06
4.7167e-06
4.07409e-06
3.87653e-06
4.28294e-06
5.9213e-06
9.89783e-06
5.92342e-06
1.98491e-06
2.00377e-07
8.99515e-08
2.16406e-06
5.33087e-06
1.16407e-05
2.12844e-05
2.88985e-05
3.20422e-05
3.24157e-05
3.13713e-05
2.97494e-05
2.80658e-05
2.66044e-05
2.54601e-05
2.45897e-05
2.39035e-05
2.32995e-05
2.26613e-05
2.1854e-05
2.07295e-05
1.91641e-05
1.71058e-05
1.46348e-05
1.19841e-05
9.48732e-06
7.45004e-06
5.90801e-06
4.83026e-06
4.18954e-06
4.00335e-06
4.44535e-06
6.17675e-06
1.02329e-05
5.96304e-06
2.00251e-06
2.02583e-07
9.2876e-08
2.17366e-06
5.36961e-06
1.17792e-05
2.15096e-05
2.9019e-05
3.20242e-05
3.2302e-05
3.12069e-05
2.95749e-05
2.7912e-05
2.64882e-05
2.53931e-05
2.45777e-05
2.39483e-05
2.33988e-05
2.28084e-05
2.20376e-05
2.09331e-05
1.93683e-05
1.72931e-05
1.47961e-05
1.21225e-05
9.61349e-06
7.57306e-06
6.02822e-06
4.94885e-06
4.3105e-06
4.13659e-06
4.61609e-06
6.44358e-06
1.05683e-05
6.00421e-06
2.02007e-06
2.04641e-07
9.57597e-08
2.18273e-06
5.40676e-06
1.19132e-05
2.17226e-05
2.91237e-05
3.19923e-05
3.21757e-05
3.10301e-05
2.93875e-05
2.77442e-05
2.63574e-05
2.53106e-05
2.45494e-05
2.39763e-05
2.34811e-05
2.29389e-05
2.22051e-05
2.11218e-05
1.95596e-05
1.74708e-05
1.49522e-05
1.22604e-05
9.74377e-06
7.70173e-06
6.15429e-06
5.07318e-06
4.43743e-06
4.2768e-06
4.79599e-06
6.72292e-06
1.09037e-05
6.04786e-06
2.03779e-06
2.06566e-07
9.8587e-08
2.19157e-06
5.44299e-06
1.20431e-05
2.1924e-05
2.92146e-05
3.19496e-05
3.20402e-05
3.08438e-05
2.91892e-05
2.75636e-05
2.62121e-05
2.52118e-05
2.45035e-05
2.39855e-05
2.35442e-05
2.30502e-05
2.23541e-05
2.12932e-05
1.97358e-05
1.7637e-05
1.5102e-05
1.23979e-05
9.8799e-06
7.83791e-06
6.28767e-06
5.20398e-06
4.57016e-06
4.42305e-06
4.98408e-06
7.01231e-06
1.12364e-05
6.09339e-06
2.05554e-06
2.08363e-07
1.01362e-07
2.20017e-06
5.47827e-06
1.21693e-05
2.21147e-05
2.92925e-05
3.1896e-05
3.18945e-05
3.0647e-05
2.89792e-05
2.73698e-05
2.60521e-05
2.5097e-05
2.444e-05
2.3976e-05
2.35877e-05
2.31417e-05
2.24836e-05
2.14461e-05
1.98958e-05
1.77909e-05
1.52451e-05
1.2535e-05
1.00208e-05
7.98145e-06
6.42932e-06
5.34278e-06
4.71044e-06
4.57741e-06
5.18294e-06
7.31316e-06
1.15678e-05
6.14202e-06
2.07355e-06
2.10063e-07
1.04068e-07
2.20866e-06
5.51287e-06
1.22914e-05
2.22942e-05
2.93584e-05
3.18332e-05
3.17408e-05
3.04419e-05
2.87597e-05
2.71647e-05
2.5879e-05
2.49668e-05
2.43589e-05
2.39472e-05
2.36106e-05
2.32117e-05
2.25913e-05
2.15782e-05
2.00372e-05
1.79302e-05
1.53794e-05
1.26705e-05
1.01671e-05
8.13308e-06
6.5798e-06
5.4901e-06
4.85857e-06
4.73946e-06
5.39054e-06
7.62305e-06
1.18949e-05
6.19334e-06
2.09173e-06
2.11685e-07
1.0671e-07
2.21714e-06
5.54725e-06
1.24103e-05
2.24642e-05
2.94134e-05
3.17611e-05
3.15785e-05
3.02281e-05
2.85308e-05
2.69487e-05
2.56933e-05
2.48222e-05
2.42614e-05
2.39001e-05
2.36137e-05
2.32608e-05
2.26778e-05
2.16893e-05
2.01594e-05
1.80538e-05
1.55032e-05
1.2802e-05
1.03159e-05
8.29094e-06
6.73864e-06
5.64654e-06
5.01577e-06
4.9106e-06
5.60817e-06
7.9434e-06
1.22192e-05
6.24803e-06
2.11027e-06
2.13249e-07
1.09285e-07
2.22579e-06
5.58257e-06
1.25259e-05
2.26248e-05
2.94582e-05
3.16814e-05
3.14098e-05
3.00084e-05
2.82954e-05
2.67247e-05
2.54976e-05
2.46649e-05
2.41488e-05
2.38356e-05
2.35975e-05
2.32891e-05
2.27427e-05
2.17793e-05
2.02622e-05
1.81612e-05
1.56154e-05
1.29274e-05
1.04645e-05
8.45258e-06
6.90394e-06
5.81102e-06
5.18164e-06
5.09072e-06
5.83562e-06
8.27346e-06
1.25399e-05
6.305e-06
2.12896e-06
2.14751e-07
1.1179e-07
2.23408e-06
5.61682e-06
1.26383e-05
2.27771e-05
2.94936e-05
3.1594e-05
3.12349e-05
2.9783e-05
2.8054e-05
2.6494e-05
2.52929e-05
2.44962e-05
2.40227e-05
2.37554e-05
2.35633e-05
2.32976e-05
2.27865e-05
2.18482e-05
2.03454e-05
1.82519e-05
1.57149e-05
1.30448e-05
1.061e-05
8.61509e-06
7.07353e-06
5.98241e-06
5.35634e-06
5.28118e-06
6.07532e-06
8.61671e-06
1.286e-05
6.3647e-06
2.14795e-06
2.16193e-07
1.14216e-07
2.24207e-06
5.65024e-06
1.27482e-05
2.2922e-05
2.9521e-05
3.15008e-05
3.10555e-05
2.95538e-05
2.78089e-05
2.62584e-05
2.50818e-05
2.43188e-05
2.38851e-05
2.36605e-05
2.35116e-05
2.32861e-05
2.28091e-05
2.18961e-05
2.04094e-05
1.83268e-05
1.58024e-05
1.31539e-05
1.07506e-05
8.77564e-06
7.24425e-06
6.15817e-06
5.53818e-06
5.48113e-06
6.3271e-06
8.97312e-06
1.31782e-05
6.42568e-06
2.16699e-06
2.17559e-07
1.16563e-07
2.25e-06
5.68323e-06
1.28557e-05
2.30598e-05
2.95405e-05
3.14015e-05
3.08713e-05
2.93207e-05
2.75602e-05
2.60188e-05
2.48655e-05
2.41341e-05
2.37371e-05
2.3552e-05
2.34428e-05
2.32548e-05
2.28103e-05
2.19226e-05
2.04544e-05
1.83866e-05
1.58794e-05
1.32562e-05
1.0887e-05
8.93358e-06
7.41461e-06
6.33672e-06
5.72626e-06
5.6911e-06
6.59311e-06
9.34602e-06
1.3497e-05
6.48901e-06
2.1865e-06
2.18862e-07
1.18818e-07
2.25755e-06
5.71511e-06
1.29601e-05
2.31902e-05
2.95524e-05
3.12963e-05
3.06827e-05
2.90845e-05
2.73091e-05
2.57766e-05
2.46456e-05
2.39435e-05
2.35802e-05
2.34311e-05
2.33582e-05
2.32046e-05
2.27907e-05
2.19285e-05
2.04815e-05
1.84336e-05
1.59492e-05
1.33554e-05
1.10217e-05
9.08961e-06
7.58331e-06
6.51536e-06
5.91757e-06
5.90816e-06
6.87081e-06
9.73268e-06
1.38131e-05
6.55373e-06
2.20626e-06
2.20108e-07
1.20983e-07
2.26495e-06
5.74641e-06
1.30622e-05
2.33138e-05
2.95569e-05
3.11852e-05
3.04895e-05
2.88449e-05
2.70557e-05
2.55324e-05
2.44229e-05
2.37483e-05
2.34157e-05
2.32989e-05
2.32584e-05
2.31358e-05
2.275e-05
2.19134e-05
2.04909e-05
1.84692e-05
1.60149e-05
1.34564e-05
1.11595e-05
9.24747e-06
7.75243e-06
6.69465e-06
6.1118e-06
6.13179e-06
7.15996e-06
1.01328e-05
1.41272e-05
6.62139e-06
2.22663e-06
2.21338e-07
1.23049e-07
2.27202e-06
5.77661e-06
1.31611e-05
2.34303e-05
2.95536e-05
3.10677e-05
3.02913e-05
2.86021e-05
2.68006e-05
2.52872e-05
2.41989e-05
2.35501e-05
2.32454e-05
2.31572e-05
2.31451e-05
2.30494e-05
2.26892e-05
2.18776e-05
2.04829e-05
1.84945e-05
1.60798e-05
1.35646e-05
1.13061e-05
9.41186e-06
7.92462e-06
6.87465e-06
6.30666e-06
6.35827e-06
7.4555e-06
1.05396e-05
1.44358e-05
6.69149e-06
2.24746e-06
2.22583e-07
1.25018e-07
2.2788e-06
5.80586e-06
1.32573e-05
2.354e-05
2.95428e-05
3.09434e-05
3.00873e-05
2.83553e-05
2.65432e-05
2.50407e-05
2.39739e-05
2.33497e-05
2.30703e-05
2.30072e-05
2.30192e-05
2.29463e-05
2.26082e-05
2.18205e-05
2.04562e-05
1.85085e-05
1.61447e-05
1.36844e-05
1.14665e-05
9.58846e-06
8.10501e-06
7.05886e-06
6.50383e-06
6.58785e-06
7.75633e-06
1.09507e-05
1.47402e-05
6.76548e-06
2.26908e-06
2.2389e-07
1.26891e-07
2.28519e-06
5.83382e-06
1.335e-05
2.36422e-05
2.95237e-05
3.08114e-05
2.98767e-05
2.81037e-05
2.62832e-05
2.47934e-05
2.37488e-05
2.31486e-05
2.28926e-05
2.28512e-05
2.2883e-05
2.28284e-05
2.25081e-05
2.17421e-05
2.04093e-05
1.8509e-05
1.62079e-05
1.3816e-05
1.16431e-05
9.78125e-06
8.29799e-06
7.25038e-06
6.70384e-06
6.81803e-06
8.05732e-06
1.13593e-05
1.50382e-05
6.8423e-06
2.29125e-06
2.25276e-07
1.28677e-07
2.2912e-06
5.86061e-06
1.34397e-05
2.37374e-05
2.94963e-05
3.06712e-05
2.96585e-05
2.78463e-05
2.60197e-05
2.45445e-05
2.35233e-05
2.29472e-05
2.27131e-05
2.26907e-05
2.27384e-05
2.26972e-05
2.23901e-05
2.16419e-05
2.03397e-05
1.84902e-05
1.62611e-05
1.3951e-05
1.18315e-05
9.99061e-06
8.50748e-06
7.45455e-06
6.91148e-06
7.05218e-06
8.36042e-06
1.1766e-05
1.53329e-05
6.92244e-06
2.31407e-06
2.26762e-07
1.30385e-07
2.29678e-06
5.88608e-06
1.35259e-05
2.38249e-05
2.94598e-05
3.05218e-05
2.94319e-05
2.75823e-05
2.57521e-05
2.42939e-05
2.32981e-05
2.27467e-05
2.25337e-05
2.25278e-05
2.25876e-05
2.25552e-05
2.22561e-05
2.15209e-05
2.0246e-05
1.84476e-05
1.62959e-05
1.40778e-05
1.20224e-05
1.02115e-05
8.73276e-06
7.67369e-06
7.13013e-06
7.29276e-06
8.66621e-06
1.21701e-05
1.56248e-05
7.0044e-06
2.3372e-06
2.2833e-07
1.32031e-07
2.30199e-06
5.91046e-06
1.36091e-05
2.3905e-05
2.94139e-05
3.03624e-05
2.91955e-05
2.73103e-05
2.5479e-05
2.40404e-05
2.30723e-05
2.25471e-05
2.23552e-05
2.23642e-05
2.24329e-05
2.24047e-05
2.21084e-05
2.13808e-05
2.01282e-05
1.83777e-05
1.63042e-05
1.41848e-05
1.22039e-05
1.04349e-05
8.96972e-06
7.90838e-06
7.36384e-06
7.54649e-06
8.98198e-06
1.25802e-05
1.59178e-05
7.08805e-06
2.36067e-06
2.29968e-07
1.33615e-07
2.30673e-06
5.93339e-06
1.36883e-05
2.39763e-05
2.93577e-05
3.01923e-05
2.89487e-05
2.70292e-05
2.51994e-05
2.37833e-05
2.28458e-05
2.23488e-05
2.21788e-05
2.22016e-05
2.22764e-05
2.22484e-05
2.19502e-05
2.12253e-05
1.99897e-05
1.82819e-05
1.62839e-05
1.42645e-05
1.23653e-05
1.065e-05
9.21025e-06
8.15489e-06
7.6132e-06
7.81698e-06
9.3123e-06
1.30002e-05
1.62105e-05
7.17133e-06
2.38406e-06
2.31619e-07
1.35141e-07
2.31105e-06
5.95497e-06
1.37636e-05
2.40391e-05
2.92912e-05
3.00109e-05
2.869e-05
2.67376e-05
2.49118e-05
2.3521e-05
2.26175e-05
2.21521e-05
2.20056e-05
2.20422e-05
2.21211e-05
2.209e-05
2.17859e-05
2.10591e-05
1.98355e-05
1.81647e-05
1.62362e-05
1.43127e-05
1.24978e-05
1.08458e-05
9.44497e-06
8.4079e-06
7.87763e-06
8.10777e-06
9.66578e-06
1.34411e-05
1.65043e-05
7.25328e-06
2.40733e-06
2.33241e-07
1.36605e-07
2.3149e-06
5.97502e-06
1.38343e-05
2.40925e-05
2.92137e-05
2.98174e-05
2.84187e-05
2.64343e-05
2.46152e-05
2.32526e-05
2.23868e-05
2.19565e-05
2.18357e-05
2.18864e-05
2.19682e-05
2.19317e-05
2.16193e-05
2.08885e-05
1.96743e-05
1.80362e-05
1.61707e-05
1.43337e-05
1.25985e-05
1.10138e-05
9.66302e-06
8.6581e-06
8.15165e-06
8.41783e-06
1.00457e-05
1.39071e-05
1.67955e-05
7.33194e-06
2.4301e-06
2.34771e-07
1.38005e-07
2.31838e-06
5.99377e-06
1.3901e-05
2.41375e-05
2.91262e-05
2.96123e-05
2.81346e-05
2.61189e-05
2.43086e-05
2.29776e-05
2.21532e-05
2.17612e-05
2.16686e-05
2.17344e-05
2.18187e-05
2.17755e-05
2.14531e-05
2.07177e-05
1.95134e-05
1.79077e-05
1.61015e-05
1.43389e-05
1.26735e-05
1.11534e-05
9.85886e-06
8.89846e-06
8.43018e-06
8.74613e-06
1.04554e-05
1.44032e-05
1.70835e-05
7.40822e-06
2.45272e-06
2.36219e-07
1.39332e-07
2.32146e-06
6.01109e-06
1.39634e-05
2.41739e-05
2.90284e-05
2.93951e-05
2.78374e-05
2.5791e-05
2.39914e-05
2.26948e-05
2.19153e-05
2.15651e-05
2.15035e-05
2.15863e-05
2.16734e-05
2.16227e-05
2.129e-05
2.05511e-05
1.93599e-05
1.77902e-05
1.60437e-05
1.43431e-05
1.27342e-05
1.12704e-05
1.00316e-05
9.12343e-06
8.70596e-06
9.08598e-06
1.0889e-05
1.49217e-05
1.73635e-05
7.48272e-06
2.47529e-06
2.37616e-07
1.40588e-07
2.32426e-06
6.02741e-06
1.40228e-05
2.42036e-05
2.89214e-05
2.91666e-05
2.75278e-05
2.54513e-05
2.36643e-05
2.24046e-05
2.1673e-05
2.13678e-05
2.134e-05
2.14417e-05
2.15327e-05
2.14745e-05
2.11315e-05
2.03912e-05
1.92177e-05
1.76901e-05
1.60064e-05
1.43596e-05
1.27948e-05
1.13755e-05
1.01866e-05
9.33242e-06
8.97456e-06
9.43139e-06
1.134e-05
1.5455e-05
1.76358e-05
7.55821e-06
2.49848e-06
2.39057e-07
1.41775e-07
2.32682e-06
6.04287e-06
1.40797e-05
2.42271e-05
2.88059e-05
2.89278e-05
2.72074e-05
2.51021e-05
2.33294e-05
2.21084e-05
2.14271e-05
2.11694e-05
2.11782e-05
2.13011e-05
2.1397e-05
2.13316e-05
2.09787e-05
2.0239e-05
1.90883e-05
1.76099e-05
1.59944e-05
1.43985e-05
1.28689e-05
1.14819e-05
1.03323e-05
9.52779e-06
9.23219e-06
9.7734e-06
1.17945e-05
1.59861e-05
1.78972e-05
7.63522e-06
2.52229e-06
2.40606e-07
1.42913e-07
2.32935e-06
6.0584e-06
1.41369e-05
2.42475e-05
2.86835e-05
2.86799e-05
2.68781e-05
2.47457e-05
2.29891e-05
2.18084e-05
2.11791e-05
2.0971e-05
2.10186e-05
2.11648e-05
2.12669e-05
2.11946e-05
2.08318e-05
2.00938e-05
1.89698e-05
1.75477e-05
1.60076e-05
1.44649e-05
1.29664e-05
1.16018e-05
1.04795e-05
9.71575e-06
9.47955e-06
1.01077e-05
1.22445e-05
1.65068e-05
1.81513e-05
7.71552e-06
2.54712e-06
2.4233e-07
1.44018e-07
2.33196e-06
6.07455e-06
1.41959e-05
2.42662e-05
2.85549e-05
2.84243e-05
2.65426e-05
2.43856e-05
2.26469e-05
2.15076e-05
2.09311e-05
2.07738e-05
2.08617e-05
2.10327e-05
2.11422e-05
2.10629e-05
2.06895e-05
1.99533e-05
1.88587e-05
1.74991e-05
1.60419e-05
1.45586e-05
1.30923e-05
1.17442e-05
1.06384e-05
9.90387e-06
9.71895e-06
1.04302e-05
1.26796e-05
1.70052e-05
1.83965e-05
7.79719e-06
2.57241e-06
2.44223e-07
1.45118e-07
2.33491e-06
6.0924e-06
1.42601e-05
2.42864e-05
2.84214e-05
2.81623e-05
2.62026e-05
2.40245e-05
2.2306e-05
2.12089e-05
2.06855e-05
2.05791e-05
2.07082e-05
2.0905e-05
2.10222e-05
2.09355e-05
2.05499e-05
1.98139e-05
1.87493e-05
1.74564e-05
1.60887e-05
1.46731e-05
1.32449e-05
1.19128e-05
1.08163e-05
1.01005e-05
9.9572e-06
1.07449e-05
1.31013e-05
1.74839e-05
1.86377e-05
7.88067e-06
2.59829e-06
2.46286e-07
1.4623e-07
2.33826e-06
6.11237e-06
1.43304e-05
2.43084e-05
2.82831e-05
2.7894e-05
2.58598e-05
2.3665e-05
2.19697e-05
2.09157e-05
2.0445e-05
2.0389e-05
2.05589e-05
2.07817e-05
2.09066e-05
2.08113e-05
2.04113e-05
1.96728e-05
1.86369e-05
1.74132e-05
1.61384e-05
1.47988e-05
1.3418e-05
1.21067e-05
1.10172e-05
1.03122e-05
1.02004e-05
1.1055e-05
1.35098e-05
1.79422e-05
1.88729e-05
7.96286e-06
2.62395e-06
2.48448e-07
1.47375e-07
2.34219e-06
6.13523e-06
1.44092e-05
2.43336e-05
2.81394e-05
2.76192e-05
2.55145e-05
2.33084e-05
2.16397e-05
2.06299e-05
2.02115e-05
2.02046e-05
2.04143e-05
2.06627e-05
2.07949e-05
2.06898e-05
2.02725e-05
1.95279e-05
1.85177e-05
1.73629e-05
1.61797e-05
1.4922e-05
1.35997e-05
1.23192e-05
1.12407e-05
1.05437e-05
1.04568e-05
1.13715e-05
1.39176e-05
1.83929e-05
1.91068e-05
8.04419e-06
2.64957e-06
2.50675e-07
1.48555e-07