/*--------------------------------*- C++ -*----------------------------------*\
| =========                 |                                                 |
| \\      /  F ield         | OpenFOAM: The Open Source CFD Toolbox           |
|  \\    /   O peration     | Version:  v2006                                 |
|   \\  /    A nd           | Website:  www.openfoam.com                      |
|    \\/     M anipulation  |                                                 |
\*---------------------------------------------------------------------------*/
FoamFile
{
    version     2.0;
    format      ascii;
    class       volScalarField;
    location    "47";
    object      omega;
}
// * * * * * * * * * * * * * * * * * * * * * * * * * * * * * * * * * * * * * //

dimensions      [0 0 -1 0 0 0 0];


internalField   nonuniform List<scalar> 
78750
(
353.505
13.6016
13.5993
13.5979
13.5964
13.5946
13.5926
13.5905
13.5886
13.587
13.5857
13.5847
13.5839
13.5834
13.5831
13.583
13.5831
13.5833
13.5837
13.5842
13.5849
13.5857
13.5866
13.5876
13.5887
13.5899
13.5911
13.5923
13.5937
13.5954
13.5987
13.606
13.6222
13.653
357.508
518.656
4.07351
4.08832
4.10085
4.11018
4.11618
4.11943
4.12077
4.12101
4.12074
4.12037
4.12012
4.12013
4.12044
4.12105
4.12197
4.12316
4.12463
4.12631
4.12815
4.13009
4.13205
4.13393
4.13561
4.13696
4.13779
4.13786
4.13687
4.13448
4.13049
4.12521
4.12072
4.12243
4.13861
525.157
518.658
4.07905
4.1009
4.12263
4.14269
4.15996
4.17389
4.18435
4.19146
4.19546
4.19661
4.19522
4.19168
4.18638
4.17978
4.17232
4.16446
4.15666
4.14936
4.14299
4.13795
4.13446
4.13269
4.13276
4.13462
4.13803
4.14247
4.14719
4.15123
4.15353
4.15379
4.15444
4.16202
4.18532
525.857
518.661
4.10968
4.15973
4.20966
4.25742
4.30142
4.34026
4.37324
4.4
4.42041
4.4345
4.44248
4.44463
4.44123
4.43269
4.4195
4.40221
4.38142
4.35781
4.33218
4.30531
4.27779
4.25024
4.22346
4.19843
4.17634
4.15879
4.14732
4.14314
4.14598
4.15396
4.16604
4.18528
4.21902
526.398
518.665
4.14719
4.22834
4.30676
4.37939
4.44332
4.49826
4.54486
4.58317
4.61333
4.63562
4.65038
4.65798
4.65882
4.65332
4.64192
4.62508
4.60315
4.57641
4.54539
4.51077
4.47332
4.43383
4.39312
4.35196
4.31103
4.27132
4.2346
4.20417
4.18434
4.17826
4.18676
4.21056
4.25365
526.834
518.672
4.18032
4.28433
4.38078
4.46692
4.5403
4.60008
4.64863
4.68799
4.71856
4.74081
4.75523
4.76235
4.76269
4.75678
4.74517
4.72833
4.70644
4.6796
4.6482
4.61274
4.57394
4.53267
4.48985
4.44621
4.40211
4.35778
4.31397
4.27304
4.23984
4.22066
4.22087
4.24311
4.28959
527.183
518.678
4.20772
4.33085
4.44328
4.5419
4.62413
4.68917
4.74058
4.78143
4.81252
4.83441
4.84771
4.85305
4.85109
4.84248
4.82791
4.80773
4.78195
4.75094
4.71527
4.67564
4.63293
4.58822
4.54277
4.49758
4.45294
4.4087
4.36498
4.32324
4.28738
4.26385
4.25985
4.27974
4.32555
527.484
518.686
4.23798
4.38194
4.51177
4.6232
4.71349
4.78284
4.83608
4.87732
4.90794
4.92869
4.94032
4.94358
4.9392
4.92792
4.9102
4.88605
4.85569
4.81967
4.77875
4.73382
4.68598
4.63654
4.58714
4.53928
4.4934
4.44908
4.406
4.36502
4.32933
4.30486
4.2991
4.31692
4.36022
527.732
518.695
4.27195
4.43723
4.58273
4.70367
4.79827
4.86868
4.9213
4.96099
4.98951
5.0078
5.01676
5.01723
5.01
4.99562
4.97415
4.94564
4.9105
4.86941
4.82326
4.77309
4.72018
4.66617
4.6132
4.56339
4.51744
4.47477
4.43467
4.39738
4.36514
4.34293
4.33767
4.354
4.39378
527.958
518.704
4.30435
4.48833
4.6469
4.77555
4.87379
4.94557
4.99814
5.03699
5.0643
5.08114
5.08844
5.08708
5.07777
5.06065
5.03568
5.00313
4.96355
4.91771
4.86656
4.81123
4.75311
4.69401
4.63647
4.58337
4.53592
4.49372
4.45604
4.42278
4.39529
4.37716
4.37394
4.38935
4.4252
528.157
518.714
4.33422
4.53492
4.70523
4.84074
4.94207
5.01491
5.06734
5.10537
5.13155
5.147
5.15272
5.1496
5.13802
5.11792
5.08944
5.05295
5.00911
4.95875
4.90291
4.84279
4.77989
4.71621
4.65464
4.59868
4.54989
4.50802
4.47257
4.44337
4.42114
4.40807
4.40785
4.42285
4.45484
528.343
518.724
4.36428
4.58076
4.76153
4.90258
5.00607
5.07951
5.13162
5.16885
5.19404
5.20837
5.21288
5.20828
5.19463
5.17194
5.14043
5.10054
5.05296
4.99856
4.93842
4.87382
4.80631
4.73806
4.67227
4.61309
4.56244
4.52031
4.48644
4.46078
4.44361
4.43582
4.43908
4.45409
4.48249
528.516
518.734
4.39106
4.62105
4.81079
4.9567
5.06223
5.13648
5.18871
5.22565
5.25035
5.26402
5.26775
5.26191
5.2465
5.22158
5.18744
5.14455
5.09366
5.03568
4.9717
4.90304
4.83133
4.75884
4.6891
4.62686
4.57434
4.53172
4.49903
4.47643
4.46392
4.46122
4.46799
4.48326
4.50842
528.682
518.744
4.41811
4.66128
4.85955
5.00978
5.11691
5.19171
5.24425
5.28103
5.3052
5.3184
5.32137
5.3143
5.29721
5.27023
5.23365
5.18803
5.13412
5.07285
5.00534
4.93289
4.85719
4.78059
4.70688
4.64142
4.58678
4.5433
4.51132
4.49119
4.48273
4.48467
4.49477
4.51043
4.53279
528.84
518.754
4.44323
4.69817
4.90398
5.05801
5.16663
5.24202
5.29494
5.33184
5.35599
5.36892
5.37123
5.3631
5.34456
5.31578
5.27709
5.22909
5.17254
5.10836
5.03767
4.96179
4.8824
4.80197
4.72452
4.65603
4.59936
4.55501
4.52355
4.50556
4.5007
4.50679
4.51991
4.53601
4.55592
528.993
518.765
4.46858
4.73509
4.94817
5.10577
5.21574
5.29171
5.345
5.38212
5.40625
5.41886
5.42051
5.41134
5.39142
5.36094
5.32028
5.27007
5.21108
5.14422
5.07058
4.99146
4.90854
4.82434
4.74312
4.67147
4.61261
4.56721
4.53604
4.51984
4.51809
4.52785
4.54365
4.56019
4.57797
529.14
518.775
4.49277
4.76996
4.98966
5.15047
5.26172
5.33832
5.39206
5.42948
5.4537
5.46611
5.46723
5.4572
5.43609
5.40413
5.36175
5.3096
5.24846
5.1792
5.10288
5.02077
4.93454
4.84674
4.76187
4.68713
4.62611
4.57964
4.54871
4.53413
4.53523
4.54827
4.56641
4.58334
4.5992
529.283
518.786
4.51724
4.80492
5.03099
5.19479
5.30722
5.38443
5.43864
5.47638
5.50071
5.51295
5.51359
5.50275
5.48054
5.44721
5.40327
5.34937
5.28629
5.21484
5.13607
5.05117
4.96177
4.87046
4.78188
4.70387
4.64047
4.59271
4.56178
4.54858
4.55218
4.56814
4.58835
4.60561
4.61974
529.422
518.796
4.54079
4.83824
5.07017
5.23672
5.3503
5.4282
5.48296
5.52112
5.54565
5.55782
5.55809
5.54657
5.52341
5.48889
5.44356
5.38812
5.32332
5.24994
5.16895
5.08151
4.98918
4.89453
4.80238
4.72115
4.65536
4.60625
4.57523
4.56325
4.56914
4.58772
4.60973
4.62725
4.63973
529.558
518.807
4.56453
4.87154
5.10908
5.27821
5.39287
5.47144
5.52678
5.56539
5.59017
5.60234
5.6023
5.5902
5.56618
5.5306
5.48403
5.42719
5.36083
5.28569
5.20268
5.11288
5.01778
4.91991
4.8242
4.73965
4.67129
4.62062
4.58927
4.57827
4.58618
4.60711
4.6307
4.64839
4.6593
529.691
518.818
4.58744
4.90334
5.14608
5.31759
5.43333
5.51266
5.56867
5.60783
5.63296
5.64522
5.64501
5.63245
5.60773
5.57123
5.52359
5.46553
5.39779
5.32109
5.23629
5.14436
5.04671
4.94582
4.84672
4.75893
4.68801
4.63571
4.60392
4.59373
4.60344
4.62645
4.65139
4.66917
4.67852
529.821
518.829
4.61048
4.93505
5.18277
5.35654
5.47331
5.5534
5.61011
5.64986
5.67539
5.6878
5.68748
5.67454
5.6492
5.61191
5.5633
5.50413
5.43515
5.35705
5.27062
5.17674
5.07671
4.97294
4.87054
4.77951
4.70594
4.65186
4.6194
4.60977
4.62102
4.64586
4.67194
4.6897
4.69748
529.948
518.841
4.63279
4.96544
5.21778
5.39365
5.51147
5.59239
5.6499
5.69032
5.71634
5.72901
5.72868
5.71549
5.68968
5.65172
5.60232
5.54222
5.47217
5.39283
5.30494
5.20932
5.1071
5.00066
4.89514
4.80101
4.72486
4.66897
4.63574
4.62647
4.63901
4.66541
4.69241
4.71004
4.7162
530.074
518.853
4.65518
4.99568
5.25245
5.43032
5.54916
5.63093
5.68926
5.73039
5.75693
5.76989
5.7696
5.75622
5.73001
5.6915
5.6414
5.58049
5.50952
5.42908
5.33989
5.24266
5.13844
5.02946
4.92095
4.82379
4.74507
4.6873
4.65314
4.64402
4.65756
4.68522
4.71291
4.73026
4.73473
530.198
518.864
4.67697
5.02481
5.28571
5.46546
5.58534
5.66804
5.72725
5.76916
5.79629
5.80961
5.80944
5.79596
5.76948
5.73054
5.67989
5.61832
5.54658
5.46521
5.37487
5.2762
5.17015
5.05884
4.94753
4.84754
4.76637
4.70676
4.6716
4.66245
4.67674
4.70539
4.73353
4.75045
4.75312
530.321
518.877
4.69875
5.0537
5.31856
5.50013
5.62104
5.70469
5.76482
5.80752
5.83524
5.84893
5.8489
5.83537
5.80867
5.76938
5.71829
5.65621
5.58383
5.50168
5.41033
5.31036
5.20261
5.08912
4.97516
4.87246
4.78895
4.72751
4.69127
4.68189
4.69666
4.72595
4.75423
4.77054
4.77131
530.443
518.889
4.72001
5.08163
5.35022
5.53354
5.65555
5.74022
5.80131
5.84482
5.87315
5.88722
5.88738
5.87386
5.84702
5.80751
5.75611
5.69364
5.62078
5.53799
5.44579
5.34468
5.23539
5.11991
5.00349
4.89831
4.81261
4.74945
4.71211
4.70238
4.71739
4.74708
4.7753
4.7908
4.78946
530.565
518.901
4.74114
5.10918
5.38138
5.56646
5.68961
5.77534
5.83741
5.8817
5.91059
5.92501
5.92534
5.91185
5.88494
5.84527
5.79368
5.73095
5.65775
5.57446
5.48155
5.37942
5.26873
5.15137
5.03268
4.92519
4.83745
4.77265
4.73421
4.72398
4.73896
4.76864
4.79638
4.81092
4.80736
530.686
518.914
4.76174
5.1358
5.41147
5.59834
5.72278
5.80968
5.87271
5.91771
5.94707
5.96179
5.96228
5.94887
5.92196
5.88225
5.83059
5.76774
5.69434
5.6107
5.51724
5.41425
5.30231
5.18324
5.06247
4.95289
4.86331
4.79698
4.75747
4.74665
4.76139
4.79084
4.81827
4.83155
4.8252
530.806
518.927
4.78211
5.16193
5.44097
5.62972
5.75566
5.84393
5.90781
5.9533
5.98296
5.99787
5.99849
5.98518
5.95833
5.91869
5.86706
5.80423
5.73076
5.64692
5.55304
5.44934
5.33629
5.21567
5.09298
4.98154
4.89027
4.82252
4.78195
4.77047
4.78481
4.81389
4.84092
4.85268
4.84309
530.926
518.94
4.80195
5.18713
5.46937
5.6601
5.78792
5.8776
5.94236
5.98801
6.01777
6.0328
6.03356
6.0204
5.99371
5.95423
5.90277
5.84008
5.76669
5.68278
5.58863
5.48437
5.37038
5.24838
5.12397
5.01092
4.91817
4.84913
4.80755
4.79533
4.80908
4.83757
4.86406
4.87406
4.86092
531.046
518.953
4.82149
5.21173
5.49698
5.68957
5.81901
5.90987
5.97558
6.02185
6.05162
6.06675
6.06767
6.05472
6.02826
5.98904
5.93785
5.8754
5.8022
5.71835
5.62408
5.51941
5.40463
5.28144
5.15553
5.04113
4.94709
4.87686
4.8343
4.82131
4.8344
4.86217
4.88786
4.89581
4.87874
531.165
518.966
4.84047
5.2354
5.52357
5.71829
5.84892
5.94083
6.00743
6.05431
6.08422
6.09947
6.10059
6.08788
6.06173
6.02285
5.97203
5.90994
5.83704
5.75338
5.6591
5.55416
5.43877
5.31458
5.18743
5.07199
4.97689
4.90563
4.86209
4.84823
4.86041
4.88714
4.91194
4.91769
4.89641
531.284
518.979
4.85898
5.25817
5.5489
5.74547
5.87729
5.9703
6.03788
6.08553
6.1159
6.13113
6.13241
6.11999
6.09421
6.05577
6.00541
5.94378
5.87128
5.7879
5.69373
5.58865
5.4728
5.3478
5.21966
5.10349
5.00759
4.93543
4.89097
4.87618
4.8874
4.91327
4.93656
4.93974
4.91394
531.402
518.992
4.87697
5.28016
5.5733
5.77154
5.90438
5.99836
6.06683
6.11516
6.14596
6.16127
6.16283
6.15081
6.12552
6.08761
6.0378
5.97671
5.90471
5.82171
5.72774
5.62264
5.50646
5.38086
5.25198
5.13544
5.03901
4.96613
4.9208
4.90503
4.91523
4.94018
4.96159
4.96189
4.93126
531.518
519.006
4.89441
5.30128
5.59672
5.79633
5.93006
6.02496
6.09434
6.14344
6.17476
6.19026
6.19213
6.18052
6.15571
6.11838
6.06922
6.00881
5.93739
5.85487
5.76121
5.65618
5.53982
5.41378
5.28443
5.16783
5.07117
4.99776
4.95163
4.93487
4.94394
4.96778
4.98703
4.98415
4.94837
531.633
519.019
4.91126
5.32161
5.61949
5.81994
5.95436
6.05009
6.12032
6.17017
6.20208
6.2179
6.22008
6.20891
6.18468
6.148
6.09954
6.03983
5.96912
5.88718
5.79394
5.68911
5.57269
5.4464
5.31683
5.20052
5.10389
5.03015
4.98332
4.96553
4.97334
4.99589
5.01272
5.0064
4.96521
531.747
519.032
4.92739
5.34076
5.64075
5.84204
5.97717
6.07375
6.14483
6.19546
6.22799
6.24429
6.24672
6.23602
6.21242
6.17649
6.12883
6.06991
5.99994
5.91867
5.82596
5.72142
5.60508
5.47871
5.34918
5.23348
5.13717
5.06329
5.01583
4.99699
5.00344
5.02448
5.03866
5.02867
4.98179
531.858
519.045
4.943
5.35914
5.66101
5.86296
5.99868
6.09601
6.16786
6.21919
6.25231
6.26906
6.27181
6.26166
6.23877
6.20366
6.15689
6.09887
6.02974
5.94919
5.85705
5.75296
5.63682
5.51056
5.38135
5.26658
5.17084
5.09702
5.04904
5.0291
5.03403
5.05335
5.06468
5.05081
4.99802
531.968
519.058
4.95789
5.37643
5.67999
5.88252
6.0188
6.11686
6.18946
6.24147
6.27517
6.29239
6.2955
6.28593
6.2638
6.22958
6.18377
6.12671
6.05851
5.97878
5.88731
5.78371
5.66795
5.54199
5.41337
5.29979
5.20487
5.1313
5.08291
5.0619
5.06518
5.08256
5.09081
5.07288
5.01395
532.076
519.071
4.97221
5.39288
5.69794
5.90093
6.03768
6.13637
6.20964
6.26227
6.2965
6.31418
6.31766
6.3087
6.28738
6.2541
6.20932
6.15332
6.08613
6.00732
5.91664
5.81365
5.69838
5.57295
5.44524
5.33309
5.23913
5.16593
5.1172
5.09509
5.09661
5.11185
5.11687
5.09471
5.0295
532.181
519.083
4.9859
5.40843
5.7148
5.91816
6.05532
6.15458
6.22846
6.28165
6.31639
6.3345
6.33837
6.33004
6.30954
6.27726
6.23355
6.17867
6.11258
6.0348
5.94501
5.8428
5.72821
5.60356
5.47714
5.36661
5.27376
5.20099
5.15194
5.12874
5.1284
5.14133
5.14295
5.11641
5.04472
532.284
519.095
4.99901
5.42318
5.73069
5.93433
6.07181
6.17156
6.24597
6.29965
6.33482
6.35332
6.35758
6.34987
6.33022
6.29895
6.25637
6.20267
6.13775
6.06108
5.97233
5.87104
5.75735
5.63379
5.50915
5.40045
5.30879
5.23644
5.18699
5.16256
5.16032
5.17069
5.16882
5.13781
5.05956
532.386
519.108
5.0116
5.4372
5.74569
5.94949
6.08721
6.18737
6.26223
6.31633
6.35187
6.37073
6.37534
6.36825
6.34944
6.31919
6.27776
6.22529
6.16161
6.08614
5.99853
5.89833
5.78578
5.66363
5.5412
5.43462
5.34434
5.27248
5.22259
5.19687
5.19277
5.20017
5.1946
5.15902
5.07411
532.484
519.119
5.02366
5.45054
5.75983
5.96369
6.10156
6.20205
6.27729
6.33173
6.36757
6.38672
6.39167
6.38515
6.36716
6.33794
6.29768
6.24645
6.18405
6.10985
6.02348
5.92454
5.81335
5.69297
5.57327
5.46908
5.38035
5.30906
5.25868
5.23153
5.22542
5.22959
5.22018
5.17995
5.08837
532.58
519.131
5.0353
5.46335
5.77322
5.977
6.11494
6.21568
6.29121
6.34591
6.38198
6.40136
6.4066
6.40064
6.38344
6.35522
6.31613
6.26616
6.20506
6.13218
6.04713
5.94956
5.83994
5.72165
5.60515
5.50369
5.4168
5.34623
5.29538
5.2667
5.25838
5.25909
5.24571
5.20075
5.10243
532.673
519.142
5.04654
5.47583
5.78589
5.98944
6.12738
6.2283
6.30405
6.35893
6.39514
6.41469
6.42018
6.41471
6.39827
6.37104
6.33309
6.28438
6.2246
6.15305
6.06937
5.97326
5.86536
5.74942
5.63653
5.53812
5.45337
5.38377
5.33254
5.30225
5.29153
5.28855
5.27107
5.22132
5.11627
532.765
519.153
5.05725
5.48762
5.79774
6.00103
6.13892
6.23997
6.31587
6.37086
6.40714
6.42677
6.43243
6.42743
6.41172
6.38544
6.34862
6.30115
6.24268
6.17248
6.09019
5.9956
5.88953
5.77615
5.6672
5.57215
5.48987
5.42152
5.37013
5.33829
5.32504
5.3182
5.29648
5.24184
5.12996
532.853
519.163
5.06741
5.49873
5.80885
6.01183
6.14962
6.25075
6.32673
6.38176
6.41804
6.43768
6.44346
6.43886
6.42383
6.39846
6.36273
6.31649
6.25933
6.19049
6.10961
6.01656
5.9124
5.80171
5.69691
5.60544
5.52587
5.45909
5.40782
5.37455
5.35872
5.34786
5.32178
5.26217
5.14342
532.941
519.174
5.07713
5.50926
5.81925
6.02186
6.1595
6.26064
6.33666
6.39166
6.42787
6.44746
6.45331
6.44906
6.43465
6.41014
6.37549
6.33046
6.27462
6.20714
6.12772
6.03627
5.93409
5.8262
5.7257
5.63791
5.56124
5.4963
5.44544
5.41102
5.39269
5.37775
5.34722
5.28252
5.15682
533.026
519.184
5.08628
5.51907
5.82887
6.03107
6.16853
6.26966
6.34566
6.40059
6.43667
6.45616
6.46203
6.45807
6.44422
6.42054
6.38693
6.34312
6.28861
6.22255
6.14464
6.05487
5.95476
5.84979
5.75365
5.66951
5.59571
5.53271
5.48252
5.4472
5.42655
5.40759
5.37259
5.30275
5.17009
533.109
519.193
5.09496
5.52829
5.8378
6.03952
6.17676
6.27782
6.35376
6.40857
6.44448
6.46381
6.46966
6.46593
6.4526
6.4297
6.39711
6.35452
6.30137
6.23681
6.16052
6.07258
5.97473
5.87288
5.78114
5.70056
5.62952
5.56844
5.51906
5.48306
5.46031
5.43745
5.39803
5.32304
5.18338
533.19
519.202
5.10311
5.53683
5.84595
6.04716
6.18414
6.28511
6.36096
6.41561
6.45131
6.47045
6.47625
6.4727
6.45982
6.43765
6.40604
6.36467
6.31293
6.24996
6.17543
6.08955
5.99424
5.89585
5.80851
5.73132
5.66278
5.60337
5.55471
5.51815
5.49351
5.46699
5.42331
5.34326
5.19667
533.27
519.211
5.11078
5.54475
5.85338
6.05402
6.19071
6.29155
6.36728
6.42174
6.45719
6.47611
6.48182
6.47841
6.46592
6.44442
6.41375
6.37358
6.32329
6.262
6.18944
6.10591
6.01359
5.91929
5.83634
5.76241
5.69606
5.63797
5.5898
5.55269
5.5263
5.49634
5.44859
5.3636
5.21017
533.347
519.219
5.11794
5.55201
5.86006
6.06007
6.19643
6.29712
6.3727
6.42695
6.46213
6.4808
6.48641
6.48309
6.47093
6.45001
6.42022
6.38119
6.33235
6.27281
6.2024
6.12156
6.03276
5.94332
5.86487
5.79413
5.72972
5.67252
5.62439
5.58648
5.55835
5.5252
5.47365
5.38394
5.22383
533.421
519.227
5.12465
5.55866
5.86602
6.06534
6.20133
6.30183
6.37723
6.43125
6.46614
6.48456
6.49005
6.48678
6.47489
6.45448
6.42546
6.3875
6.34003
6.28225
6.21409
6.13619
6.0514
5.96756
5.89397
5.82671
5.76429
5.70771
5.65917
5.62005
5.59006
5.55381
5.49865
5.40442
5.23779
533.493
519.235
5.13089
5.56469
5.87123
6.06981
6.20539
6.30567
6.38087
6.43464
6.46923
6.48738
6.49276
6.48951
6.47783
6.45784
6.42949
6.39246
6.34625
6.29014
6.22421
6.14938
6.06891
5.99121
5.92296
5.8597
5.79962
5.74371
5.69446
5.65369
5.62154
5.58213
5.52351
5.42494
5.25193
533.563
519.242
5.13672
5.57014
5.87578
6.07354
6.20866
6.30868
6.38365
6.43713
6.47143
6.48932
6.49459
6.49136
6.47984
6.46021
6.4324
6.39617
6.35106
6.29646
6.23264
6.16084
6.08484
6.01365
5.9512
5.89253
5.83542
5.78059
5.73066
5.68807
5.65333
5.61063
5.54852
5.44565
5.26633
533.631
519.25
5.1421
5.57498
5.87962
6.07652
6.21113
6.31085
6.38555
6.43874
6.47272
6.49036
6.49556
6.49236
6.481
6.46165
6.43429
6.39871
6.35453
6.30123
6.23933
6.17042
6.09885
6.03428
5.9779
5.92435
5.8709
5.8178
5.7676
5.72336
5.68562
5.63937
5.57366
5.46648
5.28083
533.698
519.257
5.14707
5.57928
5.88283
6.07881
6.21287
6.31223
6.38662
6.4395
6.47315
6.49056
6.49576
6.49263
6.48143
6.46235
6.43538
6.40035
6.35693
6.30475
6.24452
6.17826
6.11095
6.05284
6.00258
5.95451
5.90539
5.85483
5.80506
5.75952
5.71869
5.66869
5.59921
5.48755
5.2954
533.765
519.263
5.15161
5.58304
5.88544
6.08044
6.2139
6.31286
6.38691
6.43943
6.47276
6.48994
6.4952
6.49221
6.48121
6.4624
6.43582
6.40129
6.35856
6.30736
6.24862
6.18478
6.12152
6.0694
6.02491
5.98231
5.93793
5.89067
5.84218
5.79596
5.75222
5.69839
5.625
5.50865
5.30981
533.831
519.27
5.15578
5.58634
5.88754
6.08154
6.21434
6.31285
6.3865
6.43864
6.47163
6.48861
6.49399
6.49118
6.48044
6.46197
6.43581
6.40182
6.35979
6.30956
6.25228
6.19079
6.1315
6.08471
6.04536
6.00783
5.96821
5.92477
5.87838
5.8323
5.78611
5.72858
5.65119
5.52994
5.32415
533.897
519.276
5.15957
5.58921
5.88919
6.08214
6.21424
6.31225
6.38546
6.43716
6.46979
6.48657
6.49212
6.48958
6.47917
6.46111
6.43545
6.40209
6.36085
6.31168
6.25596
6.19693
6.14171
6.0995
6.06449
6.03132
5.99608
5.95659
5.91291
5.86776
5.81973
5.75883
5.67749
5.55124
5.33837
533.963
519.282
5.16307
5.59177
5.8905
6.08239
6.21377
6.31122
6.38391
6.43513
6.46735
6.48394
6.4897
6.48748
6.47748
6.45992
6.43487
6.40226
6.36198
6.31407
6.26011
6.20376
6.15282
6.11463
6.08319
6.05357
6.02206
5.98625
5.94555
5.90199
5.85281
5.78904
5.70401
5.57279
5.35281
534.029
519.287
5.16631
5.59407
5.89155
6.08237
6.21298
6.30983
6.38195
6.43261
6.46437
6.48074
6.48674
6.48487
6.47534
6.45836
6.43402
6.4023
6.36315
6.31672
6.26481
6.21146
6.16503
6.13059
6.10217
6.07531
6.04672
6.01403
5.9762
5.93457
5.88483
5.81874
5.73038
5.59443
5.36751
534.094
519.293
5.16942
5.59624
5.89247
6.0822
6.21202
6.30822
6.37971
6.42975
6.46098
6.47709
6.48331
6.48181
6.47279
6.45645
6.43291
6.4022
6.36436
6.31966
6.27013
6.22015
6.17857
6.14788
6.12222
6.09752
6.07102
6.04069
6.00529
5.96567
5.91584
5.84801
5.75679
5.61644
5.38279
534.157
519.298
5.17247
5.59834
5.89329
6.08192
6.21094
6.30647
6.37727
6.4266
6.45723
6.47301
6.47943
6.47828
6.46976
6.45409
6.43139
6.40178
6.36538
6.32263
6.2758
6.22965
6.19328
6.16658
6.14367
6.12082
6.09579
6.06699
6.03336
5.99545
5.94567
5.87652
5.78289
5.63855
5.3985
534.219
519.303
5.17556
5.60047
5.89408
6.08159
6.2098
6.30463
6.3747
6.42327
6.45322
6.46861
6.47518
6.47433
6.46628
6.45124
6.4294
6.4009
6.36604
6.32542
6.28161
6.23973
6.20897
6.1866
6.16669
6.14568
6.12173
6.0938
6.06124
6.02462
5.97488
5.90467
5.80899
5.66103
5.41481
534.279
519.308
5.17872
5.60259
5.8948
6.08113
6.20852
6.30264
6.37197
6.41974
6.44896
6.46391
6.47058
6.46996
6.46231
6.44786
6.42681
6.39942
6.3661
6.32772
6.28718
6.25004
6.22517
6.20753
6.19103
6.17211
6.14916
6.12166
6.08951
6.05355
6.00356
5.93233
5.8348
5.68351
5.43137
534.338
519.314
5.18198
5.60472
5.89538
6.08048
6.20703
6.30045
6.36903
6.41599
6.44447
6.45896
6.46567
6.46521
6.45789
6.44395
6.42363
6.39727
6.36547
6.32937
6.2923
6.26036
6.24144
6.22882
6.21621
6.19986
6.17818
6.15099
6.11876
6.08301
6.03246
5.9601
5.86078
5.70627
5.44827
534.397
519.319
5.18528
5.60672
5.89568
6.07947
6.20516
6.2979
6.36575
6.41193
6.43972
6.45378
6.46047
6.46008
6.45299
6.43947
6.41979
6.39438
6.36403
6.33019
6.29669
6.27028
6.25725
6.24984
6.24152
6.22827
6.20832
6.18167
6.14943
6.11321
6.06161
5.98786
5.88664
5.72891
5.46506
534.456
519.325
5.18857
5.6085
5.89558
6.07796
6.20278
6.29484
6.36199
6.40744
6.43464
6.44849
6.455
6.45459
6.44766
6.4345
6.41538
6.39082
6.36177
6.33007
6.3001
6.27932
6.27203
6.26991
6.26625
6.25668
6.23914
6.21362
6.18176
6.14474
6.09169
6.01625
5.91291
5.75177
5.4819
534.515
519.331
5.19169
5.60988
5.89489
6.07578
6.1997
6.29111
6.3576
6.40236
6.429
6.44268
6.44906
6.44863
6.44185
6.42903
6.41045
6.38667
6.35884
6.32913
6.30253
6.28724
6.28541
6.28852
6.28969
6.28425
6.26977
6.24605
6.21501
6.17715
6.12237
6.04493
5.93921
5.7744
5.49837
534.577
519.337
5.19454
5.61074
5.89349
6.07281
6.19583
6.28661
6.35251
6.39666
6.42283
6.43644
6.44272
6.44228
6.43566
6.42316
6.4051
6.38208
6.3554
6.32756
6.30416
6.29409
6.29736
6.30544
6.31146
6.31047
6.29966
6.27852
6.24899
6.21059
6.15403
6.0744
5.96602
5.79724
5.51475
534.64
519.342
5.19695
5.61088
5.89123
6.06892
6.19104
6.28124
6.34661
6.39024
6.41605
6.42969
6.43593
6.43551
6.42906
6.41692
6.39942
6.3772
6.35169
6.32569
6.30538
6.3002
6.30809
6.32072
6.33131
6.33477
6.32795
6.30994
6.28256
6.24405
6.1859
6.10405
5.99285
5.81985
5.53077
534.706
519.348
5.19883
5.61025
5.88806
6.06408
6.18531
6.27498
6.3399
6.38312
6.40868
6.42248
6.42875
6.42838
6.42211
6.41036
6.39348
6.37213
6.34787
6.32378
6.30653
6.30595
6.318
6.33471
6.34951
6.3573
6.35467
6.34029
6.31569
6.2776
6.21816
6.13419
6.02011
5.84271
5.54685
534.773
519.353
5.20007
5.60872
5.88387
6.0582
6.17856
6.26775
6.33232
6.37525
6.40072
6.41481
6.4212
6.42092
6.41487
6.40355
6.38737
6.36705
6.34422
6.32222
6.3082
6.31185
6.32756
6.34774
6.36617
6.37787
6.37925
6.36867
6.34732
6.31018
6.24991
6.1641
6.04723
5.86541
5.56282
534.842
519.358
5.20066
5.6063
5.8787
6.05131
6.1708
6.25958
6.3239
6.36669
6.39223
6.40676
6.41336
6.4132
6.40736
6.39648
6.38105
6.36187
6.34071
6.32111
6.31068
6.31836
6.33737
6.36056
6.38212
6.39727
6.40241
6.39564
6.37779
6.34202
6.28134
6.19403
6.07456
5.88842
5.57911
534.911
519.362
5.20058
5.60296
5.87248
6.04331
6.16194
6.25036
6.31455
6.35737
6.38318
6.39837
6.4053
6.40534
6.39973
6.38929
6.37464
6.35671
6.33742
6.32055
6.31413
6.32563
6.34764
6.37341
6.39755
6.41559
6.42403
6.42084
6.40657
6.37246
6.31178
6.22333
6.10156
5.91131
5.59549
534.983
519.367
5.19989
5.59876
5.86527
6.03424
6.15196
6.24003
6.30419
6.34723
6.37355
6.38961
6.39705
6.39736
6.39198
6.38194
6.36805
6.35142
6.33415
6.32032
6.31834
6.33368
6.35863
6.38679
6.41314
6.4336
6.44485
6.4449
6.43412
6.40187
6.34155
6.25232
6.12853
5.93443
5.61224
535.053
519.371
5.19865
5.59376
5.85707
6.02403
6.14074
6.22845
6.29267
6.33614
6.36327
6.38051
6.38868
6.3894
6.38431
6.37465
6.36145
6.34606
6.33085
6.32022
6.32295
6.3422
6.37015
6.40064
6.42901
6.45154
6.4653
6.46858
6.46058
6.43002
6.3702
6.28046
6.15496
5.95729
5.62897
535.125
519.375
5.19695
5.58805
5.84795
6.01269
6.12821
6.21546
6.27978
6.32389
6.35221
6.37087
6.38004
6.38138
6.37669
6.36742
6.35487
6.34065
6.32746
6.32012
6.32772
6.35103
6.38216
6.41514
6.44556
6.47006
6.48609
6.49234
6.48667
6.45756
6.39827
6.30817
6.18115
5.98014
5.64581
535.195
519.379
5.19497
5.58183
5.83805
6.00026
6.11433
6.20092
6.2653
6.31026
6.34032
6.36056
6.37101
6.37328
6.3692
6.36042
6.34848
6.33534
6.32408
6.31999
6.33245
6.35983
6.39426
6.42988
6.46245
6.4889
6.50705
6.51597
6.51225
6.48432
6.42544
6.33504
6.20664
6.00245
5.66229
535.268
519.384
5.19282
5.57524
5.82748
5.98682
6.09907
6.18467
6.24887
6.29464
6.32663
6.34887
6.36109
6.36474
6.36164
6.35356
6.34233
6.33024
6.32084
6.31996
6.33718
6.36859
6.40642
6.44486
6.47977
6.50826
6.52849
6.53989
6.53784
6.51082
6.45224
6.36151
6.23177
6.02447
5.67852
535.338
519.388
5.19072
5.56855
5.81651
5.97259
6.08258
6.16676
6.23046
6.27693
6.31099
6.33559
6.35007
6.3556
6.35392
6.34686
6.3365
6.32551
6.31793
6.3202
6.34187
6.37711
6.41828
6.45962
6.49703
6.52772
6.55005
6.56381
6.56317
6.5368
6.47832
6.38718
6.25608
6.04568
5.69407
535.41
519.393
5.18885
5.562
5.80539
5.95778
6.065
6.14722
6.20995
6.25689
6.2931
6.32033
6.33753
6.3455
6.34576
6.34018
6.33101
6.32129
6.31562
6.32113
6.34681
6.38556
6.42992
6.47417
6.5142
6.54724
6.57181
6.58793
6.58857
6.56268
6.50415
6.41249
6.27999
6.06647
5.7092
535.48
519.398
5.18738
5.55587
5.79446
5.94277
6.04668
6.12627
6.18739
6.23436
6.27259
6.30266
6.32302
6.33399
6.3368
6.33325
6.32571
6.3176
6.31404
6.32293
6.3521
6.39389
6.44112
6.48817
6.53085
6.56635
6.59324
6.61174
6.61357
6.588
6.52928
6.437
6.30301
6.08634
5.72351
535.551
519.403
5.18649
5.55043
5.78411
5.928
6.02805
6.10428
6.163
6.20936
6.24932
6.28225
6.3061
6.3206
6.32658
6.32568
6.32035
6.31429
6.31318
6.32564
6.3579
6.40234
6.45212
6.50178
6.54709
6.58516
6.61452
6.63548
6.63848
6.61314
6.55414
6.46118
6.32564
6.10579
5.73742
535.619
519.409
5.18629
5.54594
5.77471
5.91396
6.00967
6.08177
6.13717
6.1821
6.22324
6.25887
6.28639
6.30486
6.3146
6.31698
6.31446
6.31096
6.31268
6.32889
6.36396
6.41066
6.46265
6.51463
6.56241
6.60296
6.63478
6.65836
6.6626
6.6375
6.5782
6.4845
6.34739
6.12435
5.75057
535.688
519.415
5.18688
5.54261
5.76666
5.90119
5.99216
6.05938
6.11045
6.15292
6.19443
6.23238
6.26361
6.28639
6.30042
6.30671
6.30764
6.30731
6.31232
6.33253
6.37031
6.41904
6.47293
6.52701
6.57716
6.62034
6.65507
6.6809
6.68631
6.66146
6.60189
6.50747
6.3688
6.1426
5.76349
535.752
519.421
5.18823
5.54051
5.76018
5.89011
5.97613
6.03785
6.0836
6.12242
6.16322
6.20281
6.23753
6.26482
6.28358
6.29438
6.29941
6.30287
6.31171
6.33618
6.37666
6.42725
6.4828
6.53876
6.59113
6.63691
6.67464
6.70257
6.70905
6.68444
6.62461
6.5295
6.38931
6.16004
5.77578
535.818
519.427
5.19029
5.53964
5.7554
5.881
5.96207
6.01787
6.05742
6.09139
6.13017
6.17044
6.20822
6.24001
6.26383
6.27964
6.28941
6.29734
6.31063
6.33968
6.38296
6.43535
6.49241
6.55005
6.60453
6.65288
6.69364
6.72366
6.73122
6.7069
6.6469
6.5512
6.40957
6.17735
5.78803
535.878
519.433
5.19284
5.53976
5.75218
5.87388
5.95019
5.99991
6.03262
6.06069
6.0959
6.13571
6.17589
6.21197
6.241
6.26225
6.27734
6.29042
6.30889
6.34276
6.38896
6.44314
6.50157
6.56069
6.61705
6.66782
6.71149
6.74354
6.75218
6.7282
6.6681
6.57188
6.42893
6.19388
5.79973
535.94
519.439
5.19587
5.54081
5.75034
5.86859
5.94049
5.98424
6.00977
6.03098
6.0613
6.09943
6.14112
6.18105
6.21525
6.24222
6.26315
6.28207
6.30654
6.34539
6.39466
6.45068
6.51044
6.57092
6.62904
6.68211
6.72862
6.7627
6.77247
6.74894
6.68888
6.59226
6.44812
6.21041
5.81153
535.995
519.445
5.19922
5.54241
5.74937
5.86458
5.93249
5.97067
5.98912
6.00303
6.02743
6.06259
6.10468
6.14777
6.1869
6.21972
6.2469
6.2723
6.30355
6.34751
6.39996
6.45787
6.51887
6.58053
6.64018
6.69532
6.74449
6.78049
6.7914
6.76837
6.70845
6.61155
6.46635
6.22616
5.82278
536.052
519.452
5.20269
5.54418
5.7487
5.86111
5.92542
5.95849
5.97024
5.97685
5.99478
6.02601
6.06743
6.11286
6.15645
6.19501
6.22866
6.26101
6.29966
6.34898
6.40487
6.46484
6.52715
6.58994
6.65099
6.70807
6.75977
6.79764
6.80971
6.78729
6.72762
6.63057
6.48445
6.24194
5.83411
536.103
519.458
5.20626
5.54595
5.74798
5.85763
5.91854
5.94686
5.95244
5.95218
5.96361
5.99033
6.03023
6.07715
6.12463
6.16867
6.2088
6.24834
6.29474
6.34967
6.40922
6.47141
6.53506
6.59887
6.66111
6.71986
6.77383
6.81342
6.8266
6.80483
6.7455
6.6484
6.50151
6.25685
5.84481
536.155
519.465
5.21014
5.54778
5.74699
5.8537
5.91114
5.93488
5.93472
5.92824
5.93363
5.95581
5.99369
6.04141
6.09214
6.14125
6.18771
6.23452
6.2889
6.34968
6.41321
6.47789
6.54304
6.6079
6.67125
6.73152
6.7876
6.82879
6.84306
6.82196
6.76304
6.66599
6.51842
6.27171
5.85547
536.202
519.473
5.21444
5.54967
5.74561
5.84898
5.90266
5.92165
5.91596
5.9039
5.90402
5.92218
5.95807
6.00626
6.05979
6.11358
6.16614
6.22018
6.28244
6.34911
6.41675
6.48408
6.5508
6.61666
6.68094
6.74246
6.80034
6.84291
6.85814
6.8377
6.77923
6.68229
6.53413
6.28552
5.86525
536.25
519.481
5.21935
5.55178
5.74393
5.84349
5.89293
5.90672
5.89533
5.87805
5.87366
5.88858
5.92293
5.97163
6.02777
6.08602
6.14457
6.20591
6.27585
6.34839
6.42029
6.49048
6.55897
6.62591
6.69105
6.75366
6.81317
6.85695
6.87303
6.8532
6.79516
6.69836
6.54967
6.29919
5.87484
536.292
519.491
5.22488
5.55413
5.742
5.83729
5.88198
5.88998
5.87247
5.84994
5.84163
5.85411
5.88763
5.93725
5.99616
6.05892
6.12354
6.19235
6.26944
6.34759
6.42367
6.49677
6.56708
6.6351
6.70102
6.76464
6.82527
6.86995
6.8867
6.86738
6.80975
6.71309
6.56391
6.31165
5.88337
536.337
519.501
5.23085
5.5566
5.73984
5.83052
5.87
5.87164
5.84738
5.81929
5.80708
5.81757
5.85088
5.90203
5.96415
6.03175
6.10274
6.17938
6.26333
6.34699
6.42731
6.50348
6.57582
6.64507
6.71187
6.7765
6.83793
6.88324
6.90046
6.88152
6.82421
6.72765
6.57797
6.32391
5.89163
536.376
519.511
5.23693
5.55898
5.73747
5.8234
5.85737
5.85213
5.82057
5.78625
5.7698
5.77834
5.81185
5.86504
5.93086
6.00369
6.08135
6.16601
6.25674
6.34589
6.43052
6.5099
6.58442
6.65503
6.7227
6.78818
6.85012
6.89574
6.91318
6.89447
6.8374
6.74091
6.59073
6.33492
5.89876
536.418
519.521
5.24285
5.56115
5.73493
5.81612
5.84445
5.83198
5.79257
5.75139
5.72985
5.73596
5.76957
5.82507
5.89502
5.97356
6.05835
6.1514
6.2492
6.34412
6.43339
6.51632
6.59337
6.66565
6.73441
6.8008
6.86312
6.90884
6.92628
6.90761
6.85063
6.7541
6.60333
6.3457
5.90556
536.455
519.532
5.2485
5.56307
5.7323
5.80888
5.83158
5.81174
5.76409
5.71543
5.68813
5.69087
5.72401
5.78164
5.85588
5.94043
6.0327
6.13441
6.23954
6.34056
6.43481
6.52164
6.60158
6.6758
6.7458
6.81306
6.87562
6.92125
6.9385
6.91973
6.86274
6.76609
6.6147
6.35526
5.91129
536.495
519.542
5.25403
5.56485
5.72963
5.80176
5.81889
5.79162
5.73546
5.67884
5.64496
5.64346
5.67523