/*--------------------------------*- C++ -*----------------------------------*\
| =========                 |                                                 |
| \\      /  F ield         | OpenFOAM: The Open Source CFD Toolbox           |
|  \\    /   O peration     | Version:  v2012                                 |
|   \\  /    A nd           | Website:  www.openfoam.com                      |
|    \\/     M anipulation  |                                                 |
\*---------------------------------------------------------------------------*/
FoamFile
{
    version     2.0;
    format      ascii;
    class       volScalarField;
    location    "900/bottomAir";
    object      rho;
}
// * * * * * * * * * * * * * * * * * * * * * * * * * * * * * * * * * * * * * //

dimensions      [1 -3 0 0 0 0 0];


internalField   nonuniform List<scalar> 
1460
(
1.166484
1.166004
1.165576
1.165305
1.165159
1.165019
1.164873
1.164712
1.164525
1.164302
1.164035
1.163711
1.163313
1.162821
1.162229
1.161632
1.161395
1.161597
1.161894
1.162174
1.162417
1.162622
1.162796
1.162946
1.163081
1.16321
1.16336
1.163619
1.164004
1.164422
1.166619
1.165445
1.164322
1.163602
1.163283
1.163228
1.163148
1.163002
1.162775
1.162466
1.162084
1.161642
1.161161
1.160684
1.160274
1.16002
1.159981
1.160126
1.160378
1.160664
1.160944
1.161188
1.161378
1.161507
1.161584
1.16166
1.161987
1.162641
1.16359
1.164531
1.166843
1.164827
1.162668
1.161048
1.16017
1.159718
1.159431
1.158989
1.158403
1.157744
1.157089
1.156514
1.156101
1.155921
1.155986
1.156122
1.156081
1.156079
1.156272
1.156608
1.157039
1.157508
1.157953
1.158315
1.158602
1.159093
1.159934
1.161353
1.163128
1.164717
1.167233
1.16459
1.161932
1.159906
1.158382
1.157134
1.156022
1.154983
1.154011
1.153122
1.152341
1.151701
1.151238
1.150988
1.150931
1.150964
1.151005
1.151201
1.15161
1.152189
1.152898
1.153707
1.154589
1.15553
1.156534
1.157656
1.159008
1.160752
1.162951
1.165042
1.168883
1.166895
1.164944
1.163149
1.161417
1.159702
1.157998
1.156323
1.154705
1.153178
1.151788
1.150588
1.149644
1.149028
1.148668
1.148606
1.148894
1.149385
1.150219
1.1513
1.152555
1.153933
1.15539
1.156893
1.158414
1.159937
1.161466
1.163035
1.164709
1.166351
1.165947
1.165555
1.165269
1.165122
1.165048
1.164971
1.164889
1.164795
1.164683
1.164544
1.164369
1.164137
1.163811
1.163321
1.162624
1.161828
1.16167
1.162008
1.162304
1.162522
1.162687
1.162817
1.162923
1.163011
1.163087
1.163159
1.16323
1.163377
1.163642
1.163991
1.165886
1.16479
1.163932
1.163486
1.163367
1.163365
1.163343
1.163267
1.163125
1.162913
1.162627
1.162266
1.161818
1.161283
1.16073
1.160338
1.160414
1.160667
1.16093
1.16117
1.161377
1.16154
1.161653
1.161715
1.161735
1.161743
1.161889
1.162304
1.163042
1.163932
1.165939
1.163902
1.162065
1.160913
1.160362
1.160245
1.160139
1.159822
1.159372
1.158855
1.158332
1.157883
1.157588
1.157471
1.157514
1.157571
1.157521
1.157485
1.157576
1.157791
1.158094
1.158431
1.158744
1.158966
1.159044
1.159229
1.159778
1.160805
1.16234
1.163966
1.166166
1.163403
1.160956
1.15919
1.157885
1.156831
1.155904
1.155044
1.154225
1.153486
1.152874
1.152441
1.152238
1.152246
1.152285
1.152426
1.152459
1.152406
1.152447
1.152728
1.153214
1.153845
1.154564
1.155334
1.156183
1.157145
1.158316
1.159859
1.161919
1.164149
1.16795
1.165828
1.163837
1.162003
1.160209
1.158402
1.156574
1.154739
1.152925
1.151173
1.14954
1.148103
1.146982
1.146364
1.146098
1.146111
1.146322
1.146773
1.147771
1.149072
1.150558
1.152155
1.153809
1.155481
1.15714
1.158772
1.160383
1.162014
1.163756
1.165547
1.165721
1.165379
1.165149
1.165043
1.164989
1.164935
1.164879
1.164817
1.164743
1.164649
1.164519
1.164296
1.163835
1.16274
1.161267
1.159958
1.160654
1.161931
1.162465
1.162689
1.162812
1.162896
1.162962
1.163015
1.163061
1.163105
1.16315
1.163247
1.16345
1.163748
1.165668
1.164651
1.163907
1.163558
1.163495
1.1635
1.163489
1.163438
1.163337
1.16318
1.162955
1.162634
1.162062
1.160911
1.159521
1.158599
1.159522
1.160694
1.161206
1.161466
1.161637
1.161758
1.161836
1.161874
1.16188
1.161874
1.161941
1.162246
1.162864
1.163677
1.165732
1.163778
1.162098
1.16113
1.160719
1.160689
1.160576
1.160327
1.159968
1.159544
1.159097
1.158648
1.158106
1.157294
1.156607
1.156326
1.156972
1.157785
1.158164
1.158424
1.158697
1.158979
1.159232
1.159413
1.159502
1.159557
1.159942
1.160777
1.162159
1.163706
1.16597
1.163254
1.160852
1.159172
1.157989
1.157083
1.156324
1.155564
1.15482
1.154125
1.153473
1.152764
1.151724
1.150714
1.150023
1.14994
1.150689
1.151738
1.152716
1.153311
1.153833
1.154415
1.155055
1.15571
1.156377
1.157187
1.158236
1.159688
1.161699
1.163892
1.167646
1.165439
1.163352
1.161406
1.159476
1.157506
1.155486
1.153429
1.151366
1.149341
1.14741
1.14564
1.144173
1.143427
1.142844
1.142717
1.143346
1.143995
1.145321
1.146911
1.148662
1.150515
1.15241
1.154308
1.156166
1.157968
1.15972
1.161471
1.163317
1.165203
1.165797
1.165449
1.165201
1.165073
1.165014
1.164959
1.164904
1.164848
1.164784
1.164701
1.164541
1.164049
1.161767
1.151518
1.1444
1.141623
1.148056
1.159547
1.162164
1.16271
1.162863
1.162932
1.162979
1.163018
1.163054
1.163091
1.163132
1.163228
1.163424
1.163709
1.165796
1.1648
1.16405
1.16367
1.163547
1.163548
1.163538
1.163501
1.163424
1.163298
1.163086
1.1625
1.159848
1.14987
1.142589
1.139883
1.146595
1.158134
1.160951
1.161566
1.161763
1.161868
1.161928
1.161955
1.161958
1.161951
1.16203
1.162322
1.162908
1.163679
1.165895
1.164008
1.162369
1.161414
1.160991
1.160887
1.16077
1.16057
1.160285
1.159934
1.159496
1.158688
1.155572
1.146005
1.139809
1.137646
1.143536
1.154721
1.157901
1.158657
1.159004
1.159273
1.159495
1.159656
1.159753
1.159838
1.160182
1.160955
1.16226
1.163735
1.166156
1.163501
1.161101
1.159416
1.158251
1.157381
1.156655
1.155891
1.155087
1.154212
1.153087
1.151139
1.146992
1.141008
1.137271
1.135833
1.13973
1.146508
1.150749
1.152679
1.153749
1.154559
1.155296
1.15599
1.15664
1.157391
1.158392
1.159816
1.161799
1.163933
1.167622
1.165333
1.163143
1.161086
1.159029
1.156909
1.154711
1.152424
1.15006
1.147633
1.145123
1.142415
1.139445
1.137583
1.135825
1.135022
1.137059
1.13905
1.141941
1.144503
1.146853
1.149116
1.151319
1.153443
1.155472
1.157421
1.159299
1.161159
1.163104
1.165067
1.165969
1.165592
1.165298
1.165123
1.16503
1.16497
1.164912
1.164853
1.164786
1.164671
1.164258
1.161505
1.138691
1.137243
1.159637
1.162422
1.162834
1.162932
1.162978
1.163014
1.16305
1.163087
1.163141
1.163259
1.163475
1.163768
1.166014
1.165007
1.164203
1.16375
1.163553
1.163501
1.163494
1.163465
1.163402
1.163278
1.162843
1.15992
1.136635
1.135297
1.158336
1.161318
1.161767
1.161885
1.161939
1.161963
1.161966
1.161971
1.162091
1.162413
1.163014
1.163775
1.166145
1.164298
1.162644
1.161633
1.16114
1.160944
1.160806
1.160643
1.160432
1.160158
1.159593
1.156565
1.134004
1.13275
1.155384
1.158572
1.159162
1.159421
1.159611
1.159755
1.159866
1.159998
1.160363
1.161141
1.162427
1.163856
1.166427
1.163844
1.16145
1.15974
1.158559
1.157685
1.15696
1.15625
1.155499
1.154608
1.153004
1.148285
1.130751
1.129699
1.147238
1.152167
1.153903
1.154827
1.155567
1.156238
1.156862
1.157617
1.158612
1.160034
1.161997
1.16407
1.167762
1.165452
1.163215
1.161101
1.158979
1.156778
1.154468
1.152016
1.149402
1.146564
1.143255
1.138609
1.130009
1.12911
1.137669
1.142301
1.145547
1.148282
1.15077
1.15308
1.155232
1.157262
1.159206
1.161121
1.163112
1.165098
1.16596
1.165585
1.165293
1.165119
1.165028
1.164968
1.16491
1.164852
1.164785
1.16467
1.164257
1.161502
1.138673
1.137179
1.159606
1.162405
1.162822
1.16292
1.162967
1.163004
1.16304
1.163077
1.163131
1.163248
1.163464
1.163757
1.166003
1.164999
1.164197
1.163748
1.163553
1.163504
1.163497
1.163469
1.163406
1.163283
1.162847
1.159922
1.136631
1.135236
1.158311
1.161305
1.161757
1.161877
1.161932
1.161956
1.16196
1.161963
1.162082
1.162403
1.163003
1.163764
1.166134
1.164287
1.162635
1.161628
1.16114
1.160947
1.160811
1.160648
1.160436
1.160161
1.159597
1.156568
1.133999
1.132709
1.155371
1.158567
1.15916
1.15942
1.15961
1.159753
1.159861
1.159992
1.160355
1.161132
1.162417
1.163845
1.166417
1.163833
1.161437
1.159727
1.158547
1.157675
1.156952
1.156242
1.155491
1.154602
1.153001
1.148282
1.130748
1.129672
1.147231
1.152168
1.153907
1.154831
1.155572
1.156243
1.156867
1.157619
1.158611
1.160029
1.161988
1.16406
1.167755
1.165447
1.16321
1.161097
1.158976
1.156775
1.154466
1.152013
1.149399
1.146561
1.143252
1.138606
1.130006
1.129091
1.13766
1.142295
1.145543
1.148278
1.150765
1.153075
1.155227
1.157256
1.159199
1.161114
1.163104
1.16509
1.165779
1.165434
1.16519
1.165065
1.165008
1.164953
1.1649
1.164844
1.164781
1.1647
1.16454
1.164049
1.161768
1.151528
1.144408
1.141591
1.147999
1.159494
1.162122
1.162676
1.162831
1.162901
1.162948
1.162987
1.163024
1.16306
1.163102
1.163197
1.163394
1.163678
1.165776
1.164783
1.164038
1.163664
1.163548
1.163551
1.163542
1.163505
1.163429
1.163303
1.163092
1.162506
1.159839
1.149878
1.142604
1.139865
1.146555
1.158096
1.160922
1.161542
1.161743
1.161849
1.16191
1.161938
1.161941
1.161934
1.162009
1.162298
1.162882
1.163652
1.165875
1.163989
1.162353
1.161404
1.160989
1.16089
1.160775
1.160573
1.160287
1.159933
1.159494
1.158684
1.155562
1.146008
1.139821
1.137635
1.14351
1.154682
1.157889
1.158652
1.159002
1.159274
1.159497
1.159658
1.159751
1.159829
1.160167
1.160936
1.162238
1.16371
1.166138
1.163483
1.161081
1.159397
1.158235
1.157368
1.156642
1.155878
1.155074
1.154201
1.15308
1.151134
1.146986
1.141008
1.137278
1.135826
1.13972
1.146504
1.150755
1.152686
1.153756
1.154566
1.155304
1.155998
1.156647
1.157393
1.158388
1.159805
1.16178
1.163909
1.16761
1.165323
1.163136
1.161081
1.159027
1.156909
1.154712
1.152426
1.150063
1.147635
1.145123
1.142411
1.139437
1.137578
1.135825
1.135016
1.137055
1.139048
1.141936
1.144494
1.14684
1.149101
1.151301
1.153423
1.155452
1.157399
1.159277
1.161136
1.16308
1.165043
1.165698
1.16536
1.165135
1.165034
1.164982
1.16493
1.164876
1.164814
1.16474
1.164647
1.164517
1.164294
1.163831
1.162737
1.161262
1.159936
1.160608
1.161887
1.162424
1.16265
1.162773
1.162856
1.16292
1.162972
1.163017
1.163061
1.163106
1.163202
1.163404
1.163702
1.165647
1.164631
1.163893
1.16355
1.163494
1.163502
1.163491
1.16344
1.163339
1.163181
1.162955
1.162634
1.16206
1.160908
1.159515
1.158581
1.159491
1.160664
1.16118
1.161441
1.161614
1.161736
1.161814
1.161852
1.161858
1.161852
1.161911
1.162212
1.162827
1.163637
1.165711
1.163757
1.162078
1.161116
1.160712
1.160687
1.160575
1.160323
1.159962
1.159535
1.159085
1.158633
1.158091
1.157281
1.156597
1.156312
1.156955
1.15777
1.158155
1.158418
1.158695
1.15898
1.159236
1.159418
1.159503
1.159548
1.159923
1.160751
1.162127
1.163669
1.165951
1.163234
1.160831
1.159152
1.157972
1.15707
1.15631
1.15555
1.154806
1.154113
1.153465
1.152759
1.151721
1.150708
1.150016
1.149928
1.150678
1.151732
1.152711
1.153306
1.15383
1.154414
1.155057
1.155712
1.156378
1.157183
1.158225
1.15967
1.161671
1.163856
1.167631
1.165427
1.163344
1.161402
1.159475
1.157508
1.15549
1.153435
1.151373
1.149348
1.147416
1.145642
1.14417
1.143421
1.142834
1.142701
1.143329
1.143977
1.145299
1.146884
1.148632
1.150482
1.152376
1.154273
1.15613
1.157931
1.159684
1.161434
1.163279
1.165163
1.165929
1.165539
1.165256
1.165112
1.16504
1.164964
1.164882
1.164788
1.164675
1.164535
1.164359
1.164126
1.163799
1.163307
1.162608
1.161808
1.161642
1.161978
1.162274
1.162491
1.162654
1.162782
1.162885
1.16297
1.163045
1.163114
1.163184
1.163327
1.163589
1.163936
1.165869
1.164772
1.163916
1.163475
1.163362
1.163361
1.163338
1.163262
1.163119
1.162905
1.162618
1.162255
1.161806
1.161268
1.160712
1.160318
1.160392
1.160646
1.160909
1.161151
1.161358
1.161522
1.161636
1.161698
1.161717
1.161724
1.161858
1.162265
1.162995
1.163881
1.165922
1.163882
1.162045
1.160895
1.160349
1.160239
1.160131
1.159812
1.159359
1.15884
1.158314
1.157864
1.157569
1.157452
1.157496
1.157554
1.157506
1.157472
1.157566
1.157785
1.158091
1.158433
1.15875
1.158979
1.159052
1.159219
1.159755
1.16077
1.162297
1.163915
1.166148
1.163385
1.160938
1.159173
1.157871
1.15682
1.155895
1.155036
1.154217
1.153479
1.152868
1.152435
1.152233
1.152239
1.152275
1.152413
1.152445
1.152392
1.152432
1.152713
1.153201
1.153833
1.154553
1.15532
1.156166
1.157123
1.158289
1.159824
1.161876
1.164098
1.167934
1.165814
1.163826
1.161995
1.160204
1.1584
1.156576
1.154743
1.15293
1.15118
1.149547
1.148107
1.146982
1.146357
1.146083
1.14609
1.146294
1.146738
1.147731
1.149028
1.150511
1.152106
1.15376
1.155431
1.157091
1.158722
1.160332
1.161962
1.163703
1.165491
1.166489
1.166001
1.165567
1.165293
1.165143
1.165001
1.164853
1.164689
1.164499
1.164275
1.164006
1.163681
1.163283
1.162792
1.162202
1.161612
1.161386
1.161592
1.16189
1.162169
1.16241
1.162613
1.162785
1.162932
1.163063
1.163188
1.163331
1.163582
1.16396
1.164372
1.16662
1.165438
1.16431
1.163589
1.163268
1.163213
1.163131
1.162984
1.162755
1.162445
1.162062
1.161621
1.16114
1.160663
1.160254
1.160002
1.159967
1.160115
1.160369
1.160658
1.160939
1.161185
1.161377
1.161507
1.161586
1.161652
1.161965
1.162605
1.163541
1.164475
1.166842
1.164818
1.162654
1.161038
1.160163
1.159714
1.159428
1.158985
1.158399
1.15774
1.157083
1.156508
1.156093
1.155912
1.155975
1.156111
1.156071
1.15607
1.156265
1.156605
1.157041
1.157514
1.157962
1.158326
1.158601
1.159079
1.159909
1.16131
1.163074
1.164656
1.167229
1.16458
1.161924
1.1599
1.158378
1.157132
1.156021
1.154982
1.15401
1.153121
1.15234
1.151698
1.151232
1.150979
1.150917
1.150944
1.150978
1.151168
1.151574
1.15215
1.152857
1.153664
1.154545
1.155484
1.156485
1.157604
1.15895
1.160691
1.162887
1.164976
1.168875
1.166882
1.164933
1.163139
1.161409
1.159696
1.157994
1.156321
1.154704
1.153178
1.151788
1.150586
1.149639
1.149018
1.148647
1.148577
1.148854
1.149338
1.150165
1.151241
1.152494
1.15387
1.155326
1.156829
1.15835
1.159873
1.1614
1.162969
1.16464
1.166278
)
;

boundaryField
{
    minX
    {
        type            calculated;
        value           nonuniform List<scalar> 
50
(
1.166484
1.166619
1.166843
1.167233
1.168883
1.165947
1.165886
1.165939
1.166166
1.16795
1.165721
1.165668
1.165732
1.16597
1.167646
1.165797
1.165796
1.165895
1.166156
1.167622
1.165969
1.166014
1.166145
1.166427
1.167762
1.16596
1.166003
1.166134
1.166417
1.167755
1.165779
1.165776
1.165875
1.166138
1.16761
1.165698
1.165647
1.165711
1.165951
1.167631
1.165929
1.165869
1.165922
1.166148
1.167934
1.166489
1.16662
1.166842
1.167229
1.168875
)
;
    }
    maxX
    {
        type            calculated;
        value           nonuniform List<scalar> 
50
(
1.164422
1.164531
1.164717
1.165042
1.166351
1.163991
1.163932
1.163966
1.164149
1.165547
1.163748
1.163677
1.163706
1.163892
1.165203
1.163709
1.163679
1.163735
1.163933
1.165067
1.163768
1.163775
1.163856
1.16407
1.165098
1.163757
1.163764
1.163845
1.16406
1.16509
1.163678
1.163652
1.16371
1.163909
1.165043
1.163702
1.163637
1.163669
1.163856
1.165163
1.163936
1.163881
1.163915
1.164098
1.165491
1.164372
1.164475
1.164656
1.164976
1.166278
)
;
    }
    minY
    {
        type            calculated;
        value           nonuniform List<scalar> 
292
(
1.166484
1.165948
1.165722
1.165797
1.16597
1.165961
1.165779
1.165698
1.16593
1.166489
1.166005
1.165555
1.165379
1.165449
1.165593
1.165585
1.165434
1.16536
1.165539
1.166001
1.165576
1.165269
1.165149
1.165201
1.165298
1.165293
1.16519
1.165135
1.165257
1.165568
1.165306
1.165122
1.165044
1.165073
1.165123
1.16512
1.165065
1.165034
1.165112
1.165293
1.165159
1.165048
1.164989
1.165015
1.16503
1.165028
1.165008
1.164982
1.16504
1.165144
1.165019
1.164971
1.164935
1.164959
1.16497
1.164969
1.164953
1.16493
1.164964
1.165001
1.164874
1.164889
1.16488
1.164905
1.164912
1.164911
1.1649
1.164876
1.164882
1.164853
1.164712
1.164795
1.164817
1.164848
1.164853
1.164852
1.164844
1.164815
1.164788
1.164689
1.164525
1.164683
1.164743
1.164784
1.164787
1.164786
1.164782
1.164741
1.164675
1.1645
1.164302
1.164545
1.164649
1.164702
1.164671
1.16467
1.164701
1.164647
1.164536
1.164275
1.164035
1.164369
1.16452
1.164541
1.164258
1.164258
1.164541
1.164518
1.164359
1.164007
1.163711
1.164137
1.164297
1.16405
1.161506
1.161502
1.16405
1.164294
1.164126
1.163682
1.163314
1.163812
1.163835
1.161767
1.138691
1.138673
1.161768
1.163832
1.163799
1.163284
1.162821
1.163322
1.162741
1.151519
1.151528
1.162738
1.163307
1.162792
1.162229
1.162624
1.161267
1.1444
1.144409
1.161262
1.162608
1.162202
1.161632
1.161829
1.159958
1.141624
1.141591
1.159936
1.161809
1.161612
1.161396
1.16167
1.160654
1.148056
1.147999
1.160608
1.161642
1.161387
1.161597
1.162008
1.161932
1.159547
1.137243
1.137179
1.159495
1.161887
1.161979
1.161592
1.161894
1.162305
1.162466
1.162164
1.159637
1.159606
1.162123
1.162425
1.162275
1.16189
1.162175
1.162522
1.162689
1.162711
1.162422
1.162405
1.162676
1.16265
1.162491
1.16217
1.162417
1.162687
1.162812
1.162864
1.162835
1.162822
1.162832
1.162773
1.162654
1.162411
1.162623
1.162818
1.162897
1.162932
1.162932
1.162921
1.162901
1.162857
1.162782
1.162614
1.162796
1.162923
1.162962
1.162979
1.162978
1.162967
1.162949
1.162921
1.162885
1.162785
1.162946
1.163011
1.163015
1.163018
1.163015
1.163005
1.162988
1.162972
1.162971
1.162932
1.163081
1.163088
1.163061
1.163054
1.16305
1.16304
1.163024
1.163018
1.163045
1.163063
1.163211
1.163159
1.163105
1.163091
1.163087
1.163078
1.163061
1.163061
1.163115
1.163189
1.16336
1.16323
1.16315
1.163132
1.163141
1.163131
1.163102
1.163106
1.163184
1.163332
1.163619
1.163377
1.163247
1.163228
1.163259
1.163249
1.163198
1.163202
1.163328
1.163583
1.164004
1.163642
1.163451
1.163425
1.163475
1.163464
1.163394
1.163405
1.163589
1.16396
1.164422
1.163992
1.163748
1.163709
1.163769
1.163758
1.163679
1.163702
1.163937
1.164372
)
;
    }
    minZ
    {
        type            calculated;
        value           nonuniform List<scalar> 
150
(
1.166484
1.166619
1.166843
1.167233
1.168883
1.166004
1.165445
1.164827
1.16459
1.166895
1.165576
1.164322
1.162668
1.161932
1.164944
1.165305
1.163602
1.161048
1.159906
1.163149
1.165159
1.163283
1.16017
1.158382
1.161417
1.165019
1.163228
1.159718
1.157134
1.159702
1.164873
1.163148
1.159431
1.156022
1.157998
1.164712
1.163002
1.158989
1.154983
1.156323
1.164525
1.162775
1.158403
1.154011
1.154705
1.164302
1.162466
1.157744
1.153122
1.153178
1.164035
1.162084
1.157089
1.152341
1.151788
1.163711
1.161642
1.156514
1.151701
1.150588
1.163313
1.161161
1.156101
1.151238
1.149644
1.162821
1.160684
1.155921
1.150988
1.149028
1.162229
1.160274
1.155986
1.150931
1.148668
1.161632
1.16002
1.156122
1.150964
1.148606
1.161395
1.159981
1.156081
1.151005
1.148894
1.161597
1.160126
1.156079
1.151201
1.149385
1.161894
1.160378
1.156272
1.15161
1.150219
1.162174
1.160664
1.156608
1.152189
1.1513
1.162417
1.160944
1.157039
1.152898
1.152555
1.162622
1.161188
1.157508
1.153707
1.153933
1.162796
1.161378
1.157953
1.154589
1.15539
1.162946
1.161507
1.158315
1.15553
1.156893
1.163081
1.161584
1.158602
1.156534
1.158414
1.16321
1.16166
1.159093
1.157656
1.159937
1.16336
1.161987
1.159934
1.159008
1.161466
1.163619
1.162641
1.161353
1.160752
1.163035
1.164004
1.16359
1.163128
1.162951
1.164709
1.164422
1.164531
1.164717
1.165042
1.166351
)
;
    }
    maxZ
    {
        type            calculated;
        value           nonuniform List<scalar> 
150
(
1.166489
1.16662
1.166842
1.167229
1.168875
1.166001
1.165438
1.164818
1.16458
1.166882
1.165567
1.16431
1.162654
1.161924
1.164933
1.165293
1.163589
1.161038
1.1599
1.163139
1.165143
1.163268
1.160163
1.158378
1.161409
1.165001
1.163213
1.159714
1.157132
1.159696
1.164853
1.163131
1.159428
1.156021
1.157994
1.164689
1.162984
1.158985
1.154982
1.156321
1.164499
1.162755
1.158399
1.15401
1.154704
1.164275
1.162445
1.15774
1.153121
1.153178
1.164006
1.162062
1.157083
1.15234
1.151788
1.163681
1.161621
1.156508
1.151698
1.150586
1.163283
1.16114
1.156093
1.151232
1.149639
1.162792
1.160663
1.155912
1.150979
1.149018
1.162202
1.160254
1.155975
1.150917
1.148647
1.161612
1.160002
1.156111
1.150944
1.148577
1.161386
1.159967
1.156071
1.150978
1.148854
1.161592
1.160115
1.15607
1.151168
1.149338
1.16189
1.160369
1.156265
1.151574
1.150165
1.162169
1.160658
1.156605
1.15215
1.151241
1.16241
1.160939
1.157041
1.152857
1.152494
1.162613
1.161185
1.157514
1.153664
1.15387
1.162785
1.161377
1.157962
1.154545
1.155326
1.162932
1.161507
1.158326
1.155484
1.156829
1.163063
1.161586
1.158601
1.156485
1.15835
1.163188
1.161652
1.159079
1.157604
1.159873
1.163331
1.161965
1.159909
1.15895
1.1614
1.163582
1.162605
1.16131
1.160691
1.162969
1.16396
1.163541
1.163074
1.162887
1.16464
1.164372
1.164475
1.164656
1.164976
1.166278
)
;
    }
    bottomAir_to_rightSolid
    {
        type            calculated;
        value           nonuniform List<scalar> 
130
(
1.155425
1.156845
1.158568
1.16045
1.162368
1.16423
1.165961
1.167508
1.168831
1.169904
1.170707
1.171228
1.17146
1.153832
1.155599
1.157647
1.1598
1.161929
1.163947
1.165791
1.167417
1.168794
1.169902
1.170726
1.171257
1.171487
1.150475
1.15307
1.155826
1.158528
1.161059
1.163363
1.165406
1.167168
1.168635
1.169803
1.170663
1.171214
1.171453
1.145317
1.149556
1.153484
1.156975
1.160026
1.162671
1.164936
1.166844
1.168407
1.169635
1.170533
1.171105
1.171353
1.13915
1.146196
1.15155
1.155809
1.159294
1.162195
1.164615
1.166618
1.168239
1.169504
1.170424
1.171009
1.171265
1.139143
1.14619
1.151544
1.155803
1.159288
1.162188
1.164608
1.16661
1.168231
1.169496
1.170416
1.171001
1.171256
1.1453
1.149539
1.153467
1.156957
1.160007
1.162651
1.164915
1.166821
1.168383
1.169611
1.170509
1.17108
1.171328
1.150446
1.153041
1.155797
1.158498
1.161027
1.163329
1.165371
1.16713
1.168596
1.169762
1.170622
1.171171
1.17141
1.153794
1.155561
1.157607
1.159758
1.161885
1.163901
1.165742
1.167366
1.16874
1.169845
1.170667
1.171195
1.171424
1.155387
1.156803
1.158524
1.160403
1.162318
1.164177
1.165906
1.16745
1.168769
1.169838
1.170637
1.171152
1.171375
)
;
    }
    bottomAir_to_leftSolid
    {
        type            calculated;
        value           nonuniform List<scalar> 
130
(
1.175678
1.175392
1.17475
1.173778
1.172494
1.170923
1.169096
1.167057
1.164864
1.162592
1.160342
1.158238
1.156431
1.175713
1.175414
1.174757
1.173761
1.172441
1.170815
1.168909
1.166758
1.164409
1.161926
1.159404
1.156976
1.15482
1.175694
1.175384
1.174704
1.173669
1.172288
1.17057
1.168528
1.166177
1.16354
1.160652
1.157578
1.154437
1.151449
1.175658
1.175337
1.174633
1.173557
1.172113
1.170296
1.168104
1.165524
1.162539
1.15912
1.155245
1.150918
1.146273
1.175629
1.175302
1.174583
1.173481
1.171995
1.170114
1.167819
1.165076
1.161827
1.157964
1.153311
1.147542
1.140061
1.175623
1.175296
1.174577
1.173475
1.171989
1.170108
1.167813
1.16507
1.16182
1.157957
1.153304
1.147535
1.140054
1.175641
1.17532
1.174616
1.173539
1.172094
1.170277
1.168084
1.165504
1.162519
1.1591
1.155224
1.150897
1.146254
1.175667
1.175357
1.174675
1.173639
1.172257
1.170538
1.168495
1.166144
1.163508
1.160619
1.157544
1.154403
1.151417
1.175678
1.175377
1.174717
1.173719
1.172397
1.17077
1.168864
1.166712
1.164362
1.161879
1.159358
1.15693
1.154774
1.175655
1.175352
1.174706
1.17373
1.172445
1.170871
1.169044
1.167004
1.164811
1.162539
1.160288
1.158183
1.156374
)
;
    }
    bottomAir_to_heater
    {
        type            calculated;
        value           nonuniform List<scalar> 
92
(
1.155091
1.154233
1.154034
1.154495
1.153185
1.152156
1.151959
1.152592
1.149021
1.147545
1.147352
1.14844
1.052119
1.052096
1.052094
1.052116
1.066735
1.066703
1.066698
1.066725
1.081617
1.081563
1.081551
1.08159
1.096822
1.096639
1.09661
1.096754
1.141888
1.112538
1.139452
1.111718
1.139271
1.11165
1.141333
1.112362
1.052111
1.052109
1.066727
1.066717
1.08161
1.081583
1.096815
1.096747
1.112535
1.11236
1.052113
1.05212
1.052097
1.052094
1.052109
1.052116
1.06673
1.066738
1.066705
1.066699
1.066718
1.066726
1.081614
1.081621
1.081565
1.081552
1.081583
1.08159
1.09682
1.096826
1.09664
1.09661
1.096746
1.096752
1.112537
1.11254
1.111717
1.111648
1.112356
1.112359
1.141866
1.13943
1.139251
1.141316
1.148989
1.147514
1.147322
1.148412
1.153142
1.152114
1.151918
1.152553
1.155047
1.154187
1.153987
1.154446
)
;
    }
}


// ************************************************************************* //
