/*--------------------------------*- C++ -*----------------------------------*\
| =========                 |                                                 |
| \\      /  F ield         | OpenFOAM: The Open Source CFD Toolbox           |
|  \\    /   O peration     | Version:  v2012                                 |
|   \\  /    A nd           | Website:  www.openfoam.com                      |
|    \\/     M anipulation  |                                                 |
\*---------------------------------------------------------------------------*/
FoamFile
{
    version     2.0;
    format      ascii;
    class       volVectorField;
    location    "900/bottomAir";
    object      U;
}
// * * * * * * * * * * * * * * * * * * * * * * * * * * * * * * * * * * * * * //

dimensions      [0 1 -1 0 0 0 0];


internalField   nonuniform List<vector> 
1460
(
(0.004612645 -0.006945694 0.0006688385)
(0.01196028 -0.005659003 0.001235247)
(0.01712432 -0.003130471 0.001414548)
(0.01912317 -0.001001654 0.001314488)
(0.01888001 0.0003671364 0.00108019)
(0.01743712 0.000984433 0.0008291895)
(0.01567577 0.00111536 0.0006019455)
(0.01402018 0.001035111 0.0004080355)
(0.01260127 0.000896362 0.0002556009)
(0.01139384 0.0007575463 0.000152854)
(0.01029644 0.000628024 0.0001069328)
(0.009166183 0.0005072784 0.0001269329)
(0.007854693 0.0004154295 0.0001986792)
(0.006162721 0.0004359954 0.0002832428)
(0.003940057 0.0006805475 0.0001780022)
(0.001194539 0.001163936 -7.398135e-05)
(-0.001960913 0.001354719 -0.0001850261)
(-0.004336468 0.00108214 -2.616287e-05)
(-0.006299468 0.0008941752 7.121488e-06)
(-0.007831081 0.0008188296 5.10789e-05)
(-0.009190587 0.0008250155 0.000122642)
(-0.01054502 0.0008877143 0.0002359837)
(-0.01202497 0.0009769779 0.0003924138)
(-0.01367183 0.001023671 0.0005881604)
(-0.01536737 0.0008740237 0.0008162243)
(-0.01669949 0.0002697338 0.001065807)
(-0.01688578 -0.001009683 0.00128746)
(-0.01500963 -0.002919315 0.001368146)
(-0.01034262 -0.005074654 0.001187558)
(-0.003846947 -0.005879453 0.0006656004)
(0.003095784 -0.01602275 -1.661158e-05)
(0.008351001 -0.01397518 0.0007227486)
(0.01190612 -0.008844984 0.001258216)
(0.01348753 -0.004331653 0.001471475)
(0.01370615 -0.001190959 0.001445487)
(0.01342642 0.0006291319 0.00128313)
(0.01268147 0.001345694 0.001141061)
(0.01188791 0.001437759 0.001057477)
(0.01096147 0.001330687 0.001042907)
(0.009798596 0.001261784 0.001090935)
(0.008342257 0.001335258 0.001174058)
(0.006571926 0.001561121 0.00124731)
(0.00456039 0.001878558 0.001222897)
(0.002414174 0.002265627 0.001060513)
(0.0004122843 0.002797581 0.00059408)
(-0.001022425 0.003425086 0.0002994374)
(-0.002177083 0.003455739 0.0005409701)
(-0.003562799 0.002889717 0.0009043668)
(-0.00519016 0.002328651 0.001075582)
(-0.006754545 0.00189575 0.001118357)
(-0.008148564 0.001646195 0.001105421)
(-0.009333799 0.0015502 0.001096794)
(-0.01033248 0.001499396 0.001130267)
(-0.01120976 0.001260015 0.00121935)
(-0.01198835 0.0004315048 0.001355103)
(-0.01226073 -0.001388004 0.001488618)
(-0.01206248 -0.004330784 0.001478761)
(-0.01059972 -0.008398916 0.001241266)
(-0.007364074 -0.01279326 0.0007204774)
(-0.002687398 -0.0139867 6.657326e-05)
(0.0008002862 -0.02067928 -0.0005707035)
(0.001184536 -0.01789523 0.0002665738)
(0.0004264209 -0.01125716 0.001151304)
(-0.0006419637 -0.005548953 0.001720338)
(-0.001629305 -0.002153511 0.001955869)
(-0.002229042 -0.0003450722 0.001978357)
(-0.002326287 0.0005292374 0.001911254)
(-0.002660913 0.001001666 0.001982461)
(-0.003205124 0.00133588 0.002158821)
(-0.003938636 0.001559261 0.002329117)
(-0.004665175 0.001617356 0.002407595)
(-0.005176642 0.001483086 0.002354392)
(-0.005206007 0.00122603 0.002129993)
(-0.004598411 0.001071661 0.001800256)
(-0.003350511 0.001261089 0.001362009)
(-0.001610293 0.001646424 0.001145662)
(0.0002796975 0.001704547 0.001380779)
(0.001715442 0.001579739 0.001761039)
(0.002473394 0.001566164 0.002030315)
(0.002735645 0.001493098 0.002140633)
(0.002688625 0.001337265 0.002130309)
(0.002503677 0.001092649 0.002044128)
(0.002339563 0.0007578013 0.001950328)
(0.002213479 0.0002576257 0.001932424)
(0.002160506 -0.0006688126 0.001981631)
(0.00150289 -0.002468671 0.001911123)
(0.0005514157 -0.005641891 0.001648499)
(-0.0004859112 -0.01074714 0.00107793)
(-0.00112782 -0.01640586 0.0002504529)
(-0.0007946841 -0.01817755 -0.0004589846)
(-0.002230528 -0.01753287 -0.001321012)
(-0.007199506 -0.01398745 -0.0005017685)
(-0.01199332 -0.008881619 0.0004211102)
(-0.01515439 -0.005695472 0.0009903811)
(-0.01705413 -0.004152886 0.00127178)
(-0.01816444 -0.003558659 0.001394431)
(-0.01877894 -0.003471904 0.001392507)
(-0.01899227 -0.003696405 0.001276465)
(-0.01878355 -0.004217427 0.001033416)
(-0.01810207 -0.004981192 0.0006471529)
(-0.0168736 -0.005904839 0.0001077216)
(-0.0150209 -0.006856737 -0.000561709)
(-0.01242931 -0.007631788 -0.001305656)
(-0.009092876 -0.007922993 -0.001929419)
(-0.005165604 -0.007556473 -0.002522852)
(-0.0001728554 -0.007330946 -0.002705018)
(0.004500777 -0.007782523 -0.002186917)
(0.008223028 -0.007757737 -0.001588345)
(0.01121896 -0.007150036 -0.0008271941)
(0.01341788 -0.00630425 -0.0001416287)
(0.01495766 -0.005433777 0.000405011)
(0.01592669 -0.004679419 0.0007985903)
(0.01640283 -0.004133597 0.001051142)
(0.01643496 -0.003854675 0.001172892)
(0.01603862 -0.003866273 0.00118374)
(0.01511093 -0.004379925 0.001080642)
(0.01339407 -0.005778131 0.0008255671)
(0.01049856 -0.008617646 0.0003008179)
(0.006229908 -0.01299894 -0.0005338321)
(0.001792616 -0.01556086 -0.001188553)
(-0.005783166 -0.008495225 -0.002401355)
(-0.01354163 -0.006088434 -0.002074701)
(-0.01903009 -0.004023983 -0.001603335)
(-0.02210092 -0.003020001 -0.001461507)
(-0.02391693 -0.002637718 -0.001590455)
(-0.02496864 -0.002579132 -0.001920267)
(-0.02549331 -0.002687073 -0.002440404)
(-0.02553888 -0.002874437 -0.003155081)
(-0.02508341 -0.003095535 -0.004082731)
(-0.02405378 -0.003305888 -0.005239853)
(-0.02231935 -0.003452789 -0.00662339)
(-0.01970089 -0.003473524 -0.008185956)
(-0.01597823 -0.003299051 -0.00979343)
(-0.0112937 -0.002854063 -0.01101593)
(-0.006105696 -0.001943126 -0.01233015)
(0.001320178 -0.001348383 -0.01282373)
(0.007291202 -0.002304967 -0.01151341)
(0.01235601 -0.002912968 -0.01036599)
(0.01651196 -0.003284181 -0.008686584)
(0.01941797 -0.003406199 -0.007055784)
(0.02133573 -0.003347397 -0.005619836)
(0.02248659 -0.003184059 -0.00441841)
(0.02302894 -0.002982811 -0.00345024)
(0.02305247 -0.00279683 -0.002694722)
(0.02259192 -0.002678489 -0.002134304)
(0.02160618 -0.002714042 -0.001762348)
(0.019878 -0.003041662 -0.001587128)
(0.01697011 -0.00391759 -0.001670495)
(0.01191964 -0.005678856 -0.00205224)
(0.004892286 -0.007512871 -0.002225095)
(0.005051761 -0.006945565 0.001535531)
(0.01303075 -0.005037033 0.002130535)
(0.01880147 -0.002382797 0.002235514)
(0.02147397 -0.0003718037 0.002023607)
(0.02195675 0.0008199179 0.001694207)
(0.02124267 0.00131612 0.001376001)
(0.02009615 0.001381177 0.001099957)
(0.0188919 0.001245052 0.0008765905)
(0.01777326 0.001031692 0.0007230116)
(0.0167474 0.0007833123 0.0006709913)
(0.01574815 0.000495358 0.0007655861)
(0.01462714 0.0001548254 0.001085835)
(0.01316633 -0.0002113178 0.001690646)
(0.01087708 -0.0003958399 0.002643652)
(0.007350018 -0.0001399461 0.003394353)
(0.001826997 0.0007596962 0.003482845)
(-0.004742863 0.0009833516 0.002499388)
(-0.008326124 0.0005796336 0.001803451)
(-0.01086856 0.0005375249 0.001179963)
(-0.012558 0.0006548149 0.0008541726)
(-0.01392505 0.0008173482 0.0007521995)
(-0.01517103 0.0009883798 0.0008113416)
(-0.01641884 0.001147482 0.0009851404)
(-0.01768736 0.00124119 0.001239922)
(-0.0188499 0.001143425 0.001553335)
(-0.01954906 0.000635891 0.001905602)
(-0.01907741 -0.0005092116 0.002248305)
(-0.01659814 -0.002345391 0.002439311)
(-0.01135718 -0.004660602 0.002301724)
(-0.004268491 -0.006004401 0.001685016)
(0.003057994 -0.01629067 0.0008239186)
(0.008888708 -0.01312954 0.001881654)
(0.01325922 -0.007692676 0.002476714)
(0.01583617 -0.003445862 0.002592686)
(0.01721356 -0.0006302162 0.002423624)
(0.01768763 0.0008878622 0.002185651)
(0.01771987 0.001387155 0.002047585)
(0.01756676 0.001334581 0.002028328)
(0.01716347 0.001083338 0.002142158)
(0.01638526 0.0008241215 0.002402919)
(0.01510422 0.0006547966 0.002794917)
(0.01315612 0.0006209478 0.003287512)
(0.01048842 0.0007422896 0.003705522)
(0.006950541 0.001266483 0.004070181)
(0.002883862 0.002545781 0.003614942)
(-0.001810874 0.004152088 0.002824408)
(-0.005392609 0.003477806 0.002946212)
(-0.008294516 0.002215733 0.003179391)
(-0.01082054 0.001586734 0.003074724)
(-0.012736 0.001298093 0.002794825)
(-0.01411174 0.001239519 0.002521581)
(-0.01502937 0.001312377 0.002327889)
(-0.01558749 0.001402159 0.002250098)
(-0.01588583 0.001308378 0.002288452)
(-0.01595992 0.0006791127 0.002434028)
(-0.01550174 -0.0008858345 0.002659336)
(-0.01425113 -0.003572971 0.002767368)
(-0.01187578 -0.007477609 0.002574749)
(-0.007894813 -0.01225352 0.001934996)
(-0.002724058 -0.01442813 0.0009425582)
(9.437747e-05 -0.02122542 8.08565e-05)
(0.0003959397 -0.01698105 0.001605425)
(0.0002030409 -0.009689831 0.002910564)
(0.0003101573 -0.004255659 0.003695219)
(0.0004921695 -0.0008934623 0.004058473)
(0.001325757 0.0008437729 0.004045243)
(0.001931226 0.001639484 0.004054202)
(0.001969706 0.002054563 0.004406232)
(0.001693757 0.002423423 0.004994135)
(0.001051081 0.002835988 0.005720514)
(0.0001272736 0.003225802 0.00645991)
(-0.001065813 0.003423801 0.007008454)
(-0.002123966 0.003416451 0.006851007)
(-0.002826606 0.003717039 0.006155179)
(-0.002907352 0.004618776 0.004710342)
(-0.002668863 0.005373993 0.00396447)
(-0.002066723 0.004638481 0.004830418)
(-0.001637613 0.003856298 0.005786255)
(-0.001787807 0.003612393 0.006100535)
(-0.002083221 0.003317926 0.005779981)
(-0.002309413 0.002929591 0.005279622)
(-0.002401001 0.002512117 0.004760077)
(-0.002276483 0.002102341 0.004335729)
(-0.001950613 0.001589083 0.004092328)
(-0.001133202 0.0006655439 0.00410289)
(-0.0004638011 -0.001149393 0.004042008)
(-0.0003006773 -0.004385475 0.003599486)
(-0.0002814684 -0.009376542 0.002750135)
(-0.0004398821 -0.01578592 0.001450934)
(-0.0002497735 -0.01887865 0.0001039874)
(-0.003830035 -0.01781218 -0.0008287345)
(-0.009773543 -0.01284498 0.000748355)
(-0.01465922 -0.007379767 0.002155966)
(-0.01728485 -0.004229245 0.003116401)
(-0.0185199 -0.002719398 0.003714455)
(-0.01890344 -0.002074403 0.004097991)
(-0.01880714 -0.001808736 0.00432793)
(-0.01839745 -0.001812788 0.00445561)
(-0.0178362 -0.002069721 0.004452807)
(-0.01704756 -0.002487906 0.00421737)
(-0.01593873 -0.002951445 0.003643925)
(-0.01437954 -0.003271523 0.002633305)
(-0.01197355 -0.003028442 0.001082265)
(-0.008825617 -0.001694079 -0.0005213491)
(-0.005218678 0.0008704577 -0.002840019)
(-0.00134534 0.001971667 -0.003392434)
(0.00298704 -0.0008609105 -0.001175242)
(0.006693133 -0.002897928 0.0005871741)
(0.0097414 -0.003584336 0.001990604)
(0.01188008 -0.00341678 0.002852126)
(0.01349534 -0.002990894 0.003384873)
(0.01473266 -0.002564007 0.003655664)
(0.01567583 -0.002277199 0.003738415)
(0.01638583 -0.002219987 0.003695684)
(0.01668247 -0.002393047 0.003535798)
(0.01647366 -0.002963521 0.003205424)
(0.01539857 -0.00437177 0.002651701)
(0.01299023 -0.007260748 0.001743404)
(0.008586079 -0.01210435 0.0004268502)
(0.003161299 -0.01601668 -0.0009027586)
(-0.008231763 -0.008412624 -0.002509544)
(-0.0174297 -0.005142181 -0.002305819)
(-0.0235684 -0.002873869 -0.002250801)
(-0.02667447 -0.001765356 -0.002532279)
(-0.02833155 -0.001215965 -0.00310007)
(-0.02913802 -0.0009201927 -0.003933306)
(-0.02940076 -0.0006951421 -0.005061446)
(-0.02921163 -0.0004349218 -0.00652652)
(-0.02858866 -7.946011e-05 -0.008388058)
(-0.02746568 0.000421311 -0.01070521)
(-0.02569539 0.001121352 -0.01350776)
(-0.02304567 0.002041941 -0.01674294)
(-0.01900281 0.003142104 -0.02006581)
(-0.01393081 0.004387819 -0.02196877)
(-0.007864953 0.006353401 -0.02410457)
(0.002127799 0.00761111 -0.02479385)
(0.009819481 0.005564843 -0.02301896)
(0.01566213 0.00406572 -0.02132511)
(0.02013671 0.002631545 -0.01786227)
(0.02301621 0.001452893 -0.01447415)
(0.02491005 0.0005783247 -0.01155792)
(0.02609664 -3.470796e-05 -0.009150283)
(0.02675006 -0.0004586537 -0.007210516)
(0.0269447 -0.000752327 -0.005667008)
(0.02668172 -0.0009947448 -0.004460175)
(0.02588388 -0.001298279 -0.003554621)
(0.02426543 -0.00182594 -0.002920493)
(0.0212793 -0.002848288 -0.002573705)
(0.01555607 -0.004867648 -0.002547426)
(0.007079649 -0.007557727 -0.002568852)
(0.005008236 -0.006226758 0.000944721)
(0.01299265 -0.004263624 0.001187936)
(0.01875463 -0.001770785 0.001110598)
(0.02153626 3.156031e-05 0.0009063514)
(0.02222347 0.001031197 0.0007041528)
(0.02181607 0.001399786 0.0005685417)
(0.02099957 0.001398501 0.0005144819)
(0.02011545 0.001222077 0.0005606521)
(0.01931427 0.000963237 0.0007439404)
(0.018636 0.000640024 0.001145879)
(0.01807647 0.0002179263 0.001906977)
(0.01751828 -0.0002949279 0.003314809)
(0.01673661 -0.0007381941 0.005699555)
(0.01473016 -0.0003459189 0.00898443)
(0.01044773 0.0009847793 0.01169311)
(0.001426933 0.00277049 0.01247336)
(-0.008078852 0.001582929 0.009535273)
(-0.011729 2.338982e-05 0.006332958)
(-0.01382407 -5.513652e-05 0.003705532)
(-0.01491462 0.0002600963 0.002207489)
(-0.01580014 0.0005945922 0.001405805)
(-0.01665118 0.0008694019 0.001015167)
(-0.01754205 0.001092338 0.0008797978)
(-0.0184594 0.001239886 0.0009111009)
(-0.01927572 0.001224478 0.001063195)
(-0.01967613 0.0008682339 0.001302595)
(-0.01903548 -5.799029e-05 0.00158753)
(-0.01648841 -0.001679737 0.001820156)
(-0.01129558 -0.003841471 0.001857483)
(-0.004217584 -0.005276111 0.001469041)
(0.003146195 -0.01526689 0.00101025)
(0.009328513 -0.01198575 0.001545656)
(0.01406786 -0.006749539 0.001769249)
(0.01702554 -0.002811158 0.001762091)
(0.01878637 -0.0003076382 0.001640309)
(0.01956949 0.0009277675 0.001591495)
(0.01995984 0.001252978 0.001663023)
(0.02017513 0.001095926 0.001872361)
(0.02017987 0.0007378972 0.002249274)
(0.01985759 0.0003451387 0.0028454)
(0.01907755 2.257942e-05 0.003696079)
(0.01756413 -5.02532e-05 0.004852117)
(0.01538693 0.0005498864 0.006098693)
(0.01193004 0.00309275 0.00713781)
(0.006869048 0.007429135 0.006632475)
(-0.001604294 0.01077265 0.005843003)
(-0.008396966 0.006835145 0.005879231)
(-0.01207007 0.002405105 0.005547917)
(-0.01477773 0.0009156523 0.00463409)
(-0.01649893 0.0005724719 0.003700519)
(-0.01749955 0.0006633914 0.002967408)
(-0.01801248 0.0008917504 0.002438033)
(-0.01817965 0.001119527 0.002104978)
(-0.01810783 0.001173012 0.001935008)
(-0.01782262 0.0007799444 0.00190735)
(-0.01709377 -0.0004402137 0.001998672)
(-0.01544539 -0.002788749 0.002106637)
(-0.01268635 -0.006384307 0.00205374)
(-0.00833962 -0.01098305 0.001757529)
(-0.00280962 -0.01333931 0.001168873)
(0.0002935516 -0.02041595 0.001131228)
(0.001250108 -0.0160177 0.001993631)
(0.001817046 -0.008875053 0.002846488)
(0.002620299 -0.003738773 0.003488246)
(0.003400058 -0.0005995299 0.003826234)
(0.004710903 0.001012545 0.003918189)
(0.005353783 0.001657596 0.004197467)
(0.005751216 0.001914751 0.004780079)
(0.005834358 0.002181569 0.005604379)
(0.00556118 0.002585795 0.006643223)
(0.004972388 0.003155685 0.007756266)
(0.003785025 0.003944425 0.008642225)
(0.002771195 0.005465179 0.007826708)
(0.001972749 0.00886421 0.005297832)
(0.0006960971 0.01386792 0.00132153)
(-0.002556263 0.01637242 0.0001553349)
(-0.004532098 0.01156808 0.002898077)
(-0.004953553 0.006464737 0.005857413)
(-0.005700025 0.004240425 0.007010179)
(-0.006297988 0.003303628 0.00664779)
(-0.006434629 0.002777267 0.005915931)
(-0.006326566 0.002403465 0.005158965)
(-0.005971686 0.002126392 0.004531525)
(-0.005397908 0.001805297 0.004084578)
(-0.004645669 0.001062726 0.003899527)
(-0.003395284 -0.0006094634 0.003789625)
(-0.002622709 -0.003640022 0.003382022)
(-0.001876866 -0.008376978 0.00267131)
(-0.00128505 -0.01469074 0.001784574)
(-0.0004375834 -0.01800969 0.0009797668)
(-0.003510787 -0.01757459 0.001017424)
(-0.008737269 -0.01244484 0.001850168)
(-0.01291076 -0.006755267 0.00286665)
(-0.01486779 -0.003460449 0.003713927)
(-0.01550179 -0.001845895 0.004291764)
(-0.0153076 -0.001085899 0.00467083)
(-0.01460632 -0.0006880436 0.004916064)
(-0.01397691 -0.0005709944 0.005000485)
(-0.01333966 -0.0005870568 0.00484126)
(-0.01267216 -0.0005344253 0.00421085)
(-0.01189727 -5.114486e-05 0.002779546)
(-0.01092604 0.001406358 0.0001488668)
(-0.008802245 0.004653587 -0.004114155)
(-0.006274344 0.009099248 -0.007306779)
(-0.003293636 0.01494399 -0.0108766)
(-0.0008391783 0.01752345 -0.0116942)
(0.002251175 0.01171884 -0.008734548)
(0.005481063 0.00569818 -0.005518331)
(0.007466087 0.001568 -0.001464418)
(0.008639762 -0.000429661 0.001193396)
(0.009642757 -0.001024187 0.002784621)
(0.01055143 -0.001048993 0.003615582)
(0.01142479 -0.0009729807 0.003971719)
(0.01234684 -0.001004118 0.003999123)
(0.01324999 -0.00131235 0.003876429)
(0.01359208 -0.001994391 0.003589902)
(0.01310964 -0.003503217 0.003068654)
(0.01135857 -0.006542122 0.0022715)
(0.00763659 -0.01162331 0.001317045)
(0.002887705 -0.01575017 0.0006147476)
(-0.008212017 -0.008332864 -0.0002834938)
(-0.01739251 -0.004698529 -0.0009386529)
(-0.02350547 -0.002173554 -0.001591823)
(-0.02662287 -0.0008762642 -0.0023648)
(-0.0283623 -0.0001350708 -0.003313381)
(-0.02934979 0.0003916641 -0.004492774)
(-0.02990923 0.0009090082 -0.005974306)
(-0.03013511 0.001514816 -0.00781932)
(-0.03008789 0.00227537 -0.01014855)
(-0.02968481 0.003292425 -0.01307679)
(-0.02869684 0.004659233 -0.01669894)
(-0.02664478 0.006413831 -0.02102833)
(-0.02200837 0.008492331 -0.02533247)
(-0.01660402 0.01064625 -0.02601656)
(-0.009621929 0.01471571 -0.0289573)
(0.003171087 0.01722418 -0.02992641)
(0.01285846 0.0127951 -0.02761421)
(0.01972519 0.009860213 -0.02692764)
(0.02483162 0.007263666 -0.02253989)
(0.02708719 0.005214231 -0.01811871)
(0.02808843 0.003647641 -0.01437119)
(0.02843966 0.002478839 -0.01131133)
(0.02841316 0.001595026 -0.008852073)
(0.02805283 0.000893662 -0.006842328)
(0.02738812 0.0003259627 -0.005230544)
(0.02631572 -0.0002225838 -0.003959098)
(0.02453609 -0.0009485136 -0.002953441)
(0.02146848 -0.002163421 -0.002155047)
(0.01569452 -0.004439263 -0.001504821)
(0.007151862 -0.007497283 -0.0008037324)
(0.004994013 -0.006425968 -8.315298e-05)
(0.01295977 -0.004610333 -0.0001245818)
(0.01876651 -0.002182051 -0.0002140757)
(0.02164054 -0.0003929702 -0.0002706724)
(0.02247577 0.0006738966 -0.0002626849)
(0.02222093 0.001126822 -0.0001718404)
(0.02158616 0.001194148 -2.38072e-05)
(0.0209522 0.001060301 0.0001880361)
(0.02054285 0.0008045528 0.0004975705)
(0.02051755 0.0004248877 0.0009878981)
(0.02110464 -0.0001167546 0.001794613)
(0.02239568 -0.0005508929 0.003242237)
(0.02360696 0.0005608484 0.005137252)
(0.0212743 0.006559687 0.007364777)
(0.0146842 0.0136826 0.01061369)
(-0.002005357 0.0176318 0.01209248)
(-0.01500838 0.009945734 0.008944145)
(-0.01881477 0.001400478 0.007103301)
(-0.01903757 -0.0004390227 0.004436589)
(-0.01813112 -0.0001702091 0.002538008)
(-0.01777455 0.0003354953 0.001511842)
(-0.01788444 0.0007119154 0.0009406608)
(-0.01830992 0.0009725627 0.0006390125)
(-0.0189117 0.001125366 0.0004944812)
(-0.01949557 0.001107118 0.0004527119)
(-0.01972293 0.0007558456 0.0004831281)
(-0.01896945 -0.0001441619 0.0005717001)
(-0.01637317 -0.001701208 0.0006758201)
(-0.01119858 -0.003785516 0.0007318777)
(-0.004165091 -0.005156676 0.0005966841)
(0.003259674 -0.0154343 0.0006347315)
(0.009579895 -0.01237478 0.0008965847)
(0.01440429 -0.007273748 0.0009699151)
(0.01744851 -0.00340192 0.0009629741)
(0.01925693 -0.0009475445 0.0009559818)
(0.02035501 0.0003134967 0.001023984)
(0.02103202 0.0007229745 0.001184346)
(0.02160313 0.0006432359 0.001420423)
(0.02209179 0.0003150381 0.001751599)
(0.02242669 -0.0001064967 0.002190885)
(0.0225445 -0.0004410804 0.002618617)
(0.02205215 0.0002077857 0.002978614)
(0.02051308 0.005321555 0.001576725)
(0.01615706 0.01876608 0.004150032)
(0.01007965 0.0322994 0.006797553)
(-0.001569411 0.03816125 0.007899858)
(-0.01076887 0.02508937 0.005254011)
(-0.01588306 0.007465095 0.002870167)
(-0.01886782 0.001165791 0.00365368)
(-0.01992796 3.977506e-05 0.003054808)
(-0.02019952 0.0001760999 0.002499198)
(-0.02012245 0.0004846164 0.001997442)
(-0.01982777 0.0007444632 0.001641665)
(-0.01939736 0.0008018626 0.001413074)
(-0.01881637 0.000431549 0.001293094)
(-0.0178205 -0.0007026482 0.001264298)
(-0.01605023 -0.00292127 0.001285336)
(-0.01314557 -0.006398496 0.001263289)
(-0.008648916 -0.0108622 0.001133624)
(-0.002914245 -0.01311824 0.000806982)
(0.0006099271 -0.02052668 0.001153348)
(0.002087353 -0.01636615 0.001709082)
(0.003068973 -0.009390767 0.00221483)
(0.004171775 -0.004311303 0.002635)
(0.005255398 -0.001224286 0.002883256)
(0.006598978 0.0004130944 0.003092943)
(0.00761179 0.001167496 0.003476195)
(0.008533652 0.001526262 0.004033974)
(0.009305964 0.001867309 0.00476241)
(0.009838127 0.002400369 0.005640177)
(0.01011453 0.003433174 0.006336811)
(0.009206273 0.006054134 0.006217488)
(0.008271222 0.01433118 0.001528275)
(0.006505938 0.0297207 0.002440023)
(0.00452091 0.04557049 0.003616201)
(-0.0006034885 0.05223667 0.004348464)
(-0.00418338 0.03706332 0.002613379)
(-0.00651644 0.01634722 0.00123371)
(-0.009070268 0.006872705 0.005275401)
(-0.01025361 0.003811263 0.005532721)
(-0.01013244 0.002713371 0.005061622)
(-0.009590239 0.00217597 0.004375845)
(-0.008800104 0.001827323 0.003786937)
(-0.007868208 0.001456379 0.003335053)
(-0.006848763 0.0007071996 0.003038494)
(-0.00552587 -0.0008984574 0.002838913)
(-0.004390635 -0.003827644 0.002541663)
(-0.003251188 -0.008470345 0.002066303)
(-0.002162153 -0.01463072 0.001521706)
(-0.0007302335 -0.01782712 0.0009989543)
(-0.002951358 -0.01790815 0.001429995)
(-0.00739608 -0.01299816 0.002006519)
(-0.01094817 -0.007122043 0.002720754)
(-0.01235649 -0.003518301 0.003367906)
(-0.01249216 -0.001621304 0.003805425)
(-0.01191327 -0.0006695245 0.004077073)
(-0.01091336 -0.0001945637 0.004255064)
(-0.009987344 2.590975e-06 0.004372256)
(-0.009184019 0.0001901916 0.004233475)
(-0.008658194 0.0007814039 0.003561583)
(-0.008565549 0.00267069 0.001904339)
(-0.009351466 0.007298382 -0.001030422)
(-0.007340492 0.01728426 -0.005950083)
(-0.005730774 0.0293082 -0.00248179)
(-0.002063952 0.04335405 -0.002182059)
(0.001456775 0.04959071 -0.001639667)
(0.005458714 0.03580072 -0.002560474)
(0.007826264 0.01957122 -0.006453056)
(0.008690258 0.008260755 -0.002200519)
(0.007423251 0.002902961 0.0004561288)
(0.007138242 0.0007059396 0.00216717)
(0.007424174 3.971894e-05 0.003017907)
(0.008107756 -0.000127014 0.003345568)
(0.008994692 -0.00027915 0.003405158)
(0.009978406 -0.0007110793 0.003370966)
(0.01069824 -0.001598433 0.003172418)
(0.01068864 -0.003369466 0.002780668)
(0.009483814 -0.00668171 0.00217068)
(0.006381507 -0.01193404 0.001498264)
(0.002394468 -0.01590572 0.001023998)
(-0.007837973 -0.00853205 0.0007791231)
(-0.01684339 -0.004739467 0.0001795652)
(-0.02296612 -0.0019421 -0.0005022261)
(-0.02614475 -0.0003820336 -0.001230993)
(-0.02797943 0.000611434 -0.002068532)
(-0.02912152 0.001378285 -0.003066715)
(-0.02996092 0.002136944 -0.004295169)
(-0.03076767 0.003080146 -0.005890113)
(-0.03158125 0.004347219 -0.007958406)
(-0.03234616 0.006112723 -0.01064155)
(-0.03276352 0.008595423 -0.01410072)
(-0.03158625 0.01203987 -0.01815746)
(-0.02433591 0.01684739 -0.02077561)
(-0.01908118 0.0208035 -0.01450967)
(-0.01150906 0.02950252 -0.01495276)
(0.004680806 0.03445609 -0.01473288)
(0.01654453 0.02490023 -0.01504396)
(0.02413268 0.01863604 -0.02156569)
(0.03141518 0.012974 -0.01918606)
(0.03254998 0.009176458 -0.01524902)
(0.03191149 0.006506232 -0.01176045)
(0.03086585 0.004603828 -0.008979403)
(0.0297804 0.003224857 -0.006788127)
(0.02872855 0.002190329 -0.005069084)
(0.02767768 0.001360779 -0.003741737)
(0.02633692 0.0005556652 -0.002669906)
(0.02437297 -0.0004173309 -0.001797072)
(0.02117489 -0.00187528 -0.001067319)
(0.01533237 -0.004397591 -0.0004149503)
(0.006890835 -0.00761963 0.0002207606)
(0.004948565 -0.00698466 -0.000179424)
(0.01286402 -0.005413211 -0.0002409865)
(0.01872434 -0.003013262 -0.000288241)
(0.02167792 -0.001154891 -0.0003033139)
(0.02259655 4.306018e-05 -0.0002830399)
(0.02242729 0.0006673856 -0.0002327006)
(0.02184434 0.0008702096 -0.0001636772)
(0.0212726 0.0008081301 -8.142204e-05)
(0.02097931 0.0005474553 2.131071e-05)
(0.02116877 7.45084e-05 0.0001711283)
(0.0222115 -0.0004784788 0.0003979553)
(0.02314961 0.001247934 0.0008940374)
(0.01843884 0.0163694 0.001434944)
(-0.01723867 0.01634268 0.00315887)
(-0.02167245 0.001366953 0.002024961)
(-0.02030306 -0.0005206599 0.001059938)
(-0.01899479 -1.144087e-05 0.0005940735)
(-0.01860106 0.000478059 0.0003363772)
(-0.01873612 0.0007783542 0.0001982854)
(-0.01916385 0.0009087753 0.0001231807)
(-0.01962826 0.0008305432 8.722609e-05)
(-0.01975784 0.0003940931 7.878468e-05)
(-0.01892219 -0.0005786532 9.412686e-05)
(-0.01626989 -0.00215204 0.0001244604)
(-0.01108139 -0.004189418 0.0001551967)
(-0.004109046 -0.005391914 0.0001391795)
(0.003244513 -0.01601918 0.0002358653)
(0.009489888 -0.01333309 0.0003042486)
(0.01424697 -0.00834521 0.000305611)
(0.01723404 -0.004447893 0.0002915272)
(0.01900966 -0.001911025 0.0002862276)
(0.02019961 -0.0005120612 0.0003190807)
(0.02109703 6.148946e-05 0.0003796386)
(0.02182237 0.0001171092 0.0004552287)
(0.02242488 -0.0001254525 0.0005369832)
(0.02263403 -0.0004343707 0.0005886391)
(0.02223631 1.442562e-05 0.0004350191)
(0.01817723 0.006811895 3.394681e-05)
(0.01314597 0.037228 -0.001036149)
(-0.01226744 0.03739001 0.0007197701)
(-0.01702248 0.007434559 0.00110705)
(-0.02076765 0.0003934623 0.0009947139)
(-0.02116456 -0.0001978606 0.0009095188)
(-0.02101294 6.014886e-05 0.0007453582)
(-0.02050472 0.0002994314 0.0006103445)
(-0.01986555 0.0002973825 0.0005152981)
(-0.01907614 -0.0001448774 0.0004604871)
(-0.01787403 -0.001320453 0.0004395822)
(-0.01608204 -0.003541628 0.0004361089)
(-0.01316034 -0.006987598 0.0004316484)
(-0.008660268 -0.01133073 0.0004026442)
(-0.002920291 -0.0133284 0.0003070171)
(0.0007548418 -0.02090178 0.0005354016)
(0.002407071 -0.01712441 0.0007261795)
(0.003527558 -0.01031944 0.0009017501)
(0.004707603 -0.005254565 0.001068095)
(0.005898462 -0.002153537 0.001177242)
(0.007247889 -0.000429299 0.001297797)
(0.008546538 0.0005364998 0.00151146)
(0.009900579 0.001129327 0.001785543)
(0.01124076 0.001719734 0.002113234)
(0.01225457 0.002738154 0.0024432)
(0.01281392 0.005527956 0.002391052)
(0.008885028 0.01613754 0.001333715)
(0.007856903 0.05283594 -0.0019685)
(-0.007278469 0.05319975 -0.0005328563)
(-0.008577355 0.01681025 0.001761844)
(-0.01272496 0.005973233 0.002301476)
(-0.01248212 0.003121461 0.002270996)
(-0.01164327 0.002108066 0.001968624)
(-0.01043346 0.001539424 0.001684095)
(-0.009164501 0.0009904863 0.001453076)
(-0.007908643 7.973583e-05 0.001278337)
(-0.006505723 -0.001564826 0.001144612)
(-0.005197327 -0.004424236 0.001001919)
(-0.003885766 -0.009000235 0.000808215)
(-0.002570525 -0.01499371 0.0006170195)
(-0.0008815986 -0.01791845 0.0004463202)
(-0.002572334 -0.01824973 0.0007252828)
(-0.006521842 -0.01368399 0.0009335714)
(-0.009633586 -0.007785599 0.001227697)
(-0.01060884 -0.003957143 0.001536472)
(-0.01027309 -0.00178108 0.00176176)
(-0.009364636 -0.0006016731 0.001896253)
(-0.007994916 -2.002291e-05 0.002021747)
(-0.006526206 0.0002966115 0.002126267)
(-0.005232896 0.0007623741 0.00210272)
(-0.004508521 0.002249937 0.001796492)
(-0.004560162 0.007225903 0.0009059247)
(-0.007598862 0.0205905 -0.0006469429)
(0.0005876139 0.05307267 -0.004004226)
(-0.0001255981 0.05335245 -0.003013328)
(0.007740464 0.02125774 -0.0004153638)
(0.004494112 0.007782878 0.0006630171)
(0.00389794 0.002540388 0.001320587)
(0.004144761 0.0009236074 0.001585771)
(0.005108245 0.0004316571 0.001647486)
(0.006333827 0.0001235431 0.00161201)
(0.007707923 -0.0004180893 0.001536967)
(0.008588628 -0.00153763 0.001426973)
(0.009004076 -0.003571156 0.001225282)
(0.008208107 -0.007087306 0.0009398058)
(0.005537882 -0.01236975 0.0006726001)
(0.002046024 -0.01607404 0.0005173273)
(-0.00740184 -0.008721329 0.0005329607)
(-0.01611684 -0.004869997 0.0002551502)
(-0.02210486 -0.001841667 -6.772045e-05)
(-0.02519939 -2.814315e-05 -0.000405436)
(-0.02694416 0.001214086 -0.000789757)
(-0.02795856 0.002213024 -0.001244801)
(-0.02882961 0.003273612 -0.001820642)
(-0.0298363 0.004693481 -0.002571451)
(-0.03108603 0.00673861 -0.003559868)
(-0.03254489 0.009789114 -0.004854858)
(-0.0334269 0.0145524 -0.006552532)
(-0.03049192 0.02260962 -0.008567095)
(-0.01393306 0.03798569 -0.01006095)
(0.01422017 0.03821365 -0.009470848)
(0.03071203 0.02292209 -0.00842713)
(0.03373554 0.01483718 -0.006699188)
(0.03268892 0.01002791 -0.005146009)
(0.03091032 0.006912979 -0.003903285)
(0.02930772 0.004791147 -0.002915505)
(0.02796316 0.003292167 -0.002137396)
(0.0267841 0.002180641 -0.001529288)
(0.0255183 0.0011715 -0.001053008)
(0.02359612 -2.721607e-05 -0.0006611502)
(0.02044807 -0.001711267 -0.000329536)
(0.01470639 -0.004437581 -2.323749e-05)
(0.006517496 -0.007724848 0.0002634852)
(0.004948461 -0.006960466 0.0002666859)
(0.0128629 -0.005384597 0.0003444309)
(0.01871894 -0.002986896 0.0003967784)
(0.02166793 -0.001133023 0.0004095768)
(0.02258307 5.93345e-05 0.0003814063)
(0.02241209 0.0006773102 0.0003199715)
(0.02183006 0.0008751678 0.0002392294)
(0.0212605 0.0008095801 0.0001464545)
(0.02096996 0.0005462883 3.522476e-05)
(0.02116305 7.090749e-05 -0.0001206537)
(0.02221098 -0.0004840774 -0.0003498357)
(0.02315546 0.001244604 -0.0008423968)
(0.01844498 0.01638108 -0.00137834)
(-0.01725889 0.01640572 -0.002974315)
(-0.02169501 0.00139064 -0.001827176)
(-0.02031265 -0.0005124456 -0.0008687448)
(-0.01899158 -5.37518e-06 -0.0004023203)
(-0.0185896 0.0004836678 -0.0001391923)
(-0.01871851 0.0007841176 6.922552e-06)
(-0.01914252 0.0009155239 9.081619e-05)
(-0.01960564 0.000839624 0.0001339198)
(-0.01973707 0.0004062032 0.0001444538)