/*--------------------------------*- C++ -*----------------------------------*\
| =========                 |                                                 |
| \\      /  F ield         | OpenFOAM: The Open Source CFD Toolbox           |
|  \\    /   O peration     | Version:  v2006                                 |
|   \\  /    A nd           | Website:  www.openfoam.com                      |
|    \\/     M anipulation  |                                                 |
\*---------------------------------------------------------------------------*/
FoamFile
{
    version     2.0;
    format      ascii;
    class       volScalarField;
    location    "39";
    object      nut;
}
// * * * * * * * * * * * * * * * * * * * * * * * * * * * * * * * * * * * * * //

dimensions      [0 2 -1 0 0 0 0];


internalField   nonuniform List<scalar> 
78750
(
5.665e-07
2.21864e-06
1.49397e-05
6.00848e-06
4.78997e-06
1.22042e-05
7.41573e-06
8.33303e-06
1.12091e-05
8.1744e-06
4.90326e-06
5.48445e-06
8.00787e-06
1.07698e-05
1.72192e-05
3.06499e-05
5.09021e-05
7.58474e-05
0.000103765
0.000133276
0.00016222
0.000188789
0.000212158
0.000231872
0.000247653
0.000259249
0.000266386
0.00026893
0.000267548
0.000264739
0.000262041
0.000254567
0.000248414
0.000245327
3.47769e-05
2.26298e-05
0.00017244
0.000426647
0.000658433
0.000647571
0.000576949
0.000535154
0.000535678
0.000564811
0.000610293
0.000665239
0.000726701
0.000786846
0.000787809
0.000786742
0.000785354
0.000783725
0.000781894
0.000779854
0.000777544
0.000774851
0.000771741
0.000768222
0.000764358
0.000760266
0.000756094
0.000751978
0.000747915
0.000743505
0.00073762
0.000728378
0.000713448
0.000681285
0.000587027
3.09442e-05
4.06231e-05
0.000672117
0.000717831
0.000753351
0.000781489
0.000804121
0.000822407
0.00083709
0.000848703
0.000857683
0.000864416
0.000869263
0.000872576
0.000874697
0.00087589
0.000876367
0.000876265
0.000875624
0.000874395
0.000872466
0.000869701
0.000865968
0.000861159
0.000855204
0.000848062
0.000839716
0.000830131
0.000819167
0.00080648
0.000791405
0.000772892
0.000749469
0.000719194
0.000679418
3.40271e-05
4.35718e-05
0.000731012
0.000774366
0.000807755
0.00083339
0.000852897
0.000867526
0.000878235
0.000885742
0.000890579
0.000893156
0.000893824
0.000892927
0.000890817
0.000887858
0.000884403
0.00088076
0.000877157
0.000873728
0.000870513
0.000867467
0.000864464
0.000861311
0.000857756
0.000853464
0.000847972
0.000840668
0.000830844
0.000817855
0.000801234
0.000780509
0.000754882
0.000723037
0.00068286
3.31568e-05
4.76831e-05
0.000765046
0.000805694
0.000834658
0.000855498
0.000870986
0.000882925
0.000892331
0.000899757
0.00090554
0.000909905
0.000913015
0.000915
0.000915976
0.000916045
0.000915292
0.000913782
0.000911559
0.000908661
0.000905119
0.000900965
0.000896221
0.000890854
0.000884839
0.000878271
0.000861383
0.000842154
0.000857031
0.000848511
0.000836749
0.000819397
0.000795278
0.000749187
0.000635217
3.46997e-05
4.68148e-05
0.000760711
0.000801163
0.000830236
0.000850858
0.000865204
0.00087488
0.00088107
0.0008847
0.000886504
0.000886986
0.000886397
0.000884813
0.000882226
0.000878616
0.000873973
0.000868304
0.00086166
0.000854224
0.000846416
0.000838955
0.000795747
0.000749657
0.000723072
0.0007128
0.000716663
0.00073295
0.000759128
0.000794743
0.000811149
0.000804315
0.000789819
0.000682265
0.000552974
3.2767e-05
4.78422e-05
0.00075415
0.00079845
0.000831914
0.000856906
0.000875094
0.00088778
0.000896109
0.000901158
0.000903942
0.00090528
0.000905684
0.000905416
0.000904594
0.000903277
0.000901485
0.000899217
0.000896489
0.00089346
0.00089059
0.000888521
0.000887411
0.000886939
0.000886762
0.000886501
0.000885591
0.000883322
0.000878925
0.000871507
0.000859875
0.000842572
0.000818647
0.000787963
0.000750021
3.13625e-05
4.55184e-05
0.000790694
0.00082753
0.000851938
0.000866523
0.000873626
0.000875886
0.000875959
0.000876197
0.000878245
0.000881569
0.000884187
0.000884745
0.000882589
0.000877592
0.000869955
0.000860086
0.000848634
0.000836718
0.00081728
0.000713522
0.000668924
0.000693406
0.000768793
0.000827239
0.000834899
0.000841759
0.000847279
0.000850701
0.000851765
0.000849111
0.000740263
0.000654576
0.000638395
3.10793e-05
3.84035e-05
0.000776992
0.00081219
0.000837211
0.000855933
0.000871389
0.000882953
0.000890501
0.000894576
0.000895679
0.000894105
0.000890433
0.000886218
0.000883262
0.000882006
0.000881465
0.000880733
0.000879358
0.000877303
0.000874857
0.000872466
0.000870536
0.0008693
0.000868662
0.000868299
0.000867768
0.000866565
0.000864176
0.00086003
0.000853456
0.000843523
0.00082888
0.000807663
0.000777365
3.07275e-05
3.54506e-05
0.000765701
0.000801174
0.000827618
0.000847074
0.00086094
0.000870125
0.000875318
0.000877156
0.000876334
0.000873636
0.000869959
0.000866138
0.000862632
0.000859532
0.000856681
0.000853646
0.000850148
0.000846236
0.000842744
0.000840586
0.000840238
0.000841759
0.000845274
0.000850107
0.000855063
0.000858963
0.000860792
0.000859664
0.000854742
0.00084517
0.000829973
0.000807924
0.000777123
3.14463e-05
3.41776e-05
0.000718332
0.00075374
0.000781135
0.000802784
0.000820128
0.000834127
0.000845459
0.000854621
0.000861992
0.000867845
0.000872372
0.000875717
0.000877992
0.000879248
0.000879499
0.000878756
0.000877079
0.000874633
0.000871694
0.000868602
0.000865665
0.00086309
0.000860924
0.000859005
0.000856982
0.000854389
0.000850707
0.000845396
0.000837834
0.000827218
0.000812359
0.000791481
0.000688759
2.84616e-05
3.5272e-05
0.000709603
0.000746927
0.000775553
0.000797549
0.000814299
0.000826811
0.000835899
0.000842335
0.000847038
0.000851139
0.000855632
0.000860702
0.000865989
0.000871002
0.000875343
0.000878761
0.000881163
0.000882582
0.000883124
0.00088293
0.000882153
0.000880923
0.000879312
0.00087732
0.000874865
0.000869894
0.000837318
0.000806348
0.000776326
0.000744053
0.000702733
0.000653184
0.000536957
2.66161e-05
3.32703e-05
0.000722471
0.000758175
0.000786094
0.000808064
0.000825446
0.000839266
0.00085032
0.000859243
0.000866567
0.000872729
0.00087806
0.000882762
0.00088692
0.000890528
0.000893532
0.000895874
0.000897532
0.000898546
0.000898986
0.000898939
0.000898485
0.00089769
0.000896585
0.00089516
0.000893348
0.00089102
0.000887969
0.000883885
0.000868774
0.000836913
0.000807703
0.000775202
0.000710746
2.66964e-05
2.86665e-05
0.000689044
0.000766615
0.000793329
0.000814355
0.000830505
0.000842602
0.000851516
0.000858149
0.000863388
0.000867989
0.000872451
0.000876957
0.000881394
0.000885483
0.000888845
0.000891142
0.00089221
0.000892115
0.000891095
0.000889455
0.000887445
0.000885209
0.000882775
0.000880072
0.000876947
0.000873187
0.000868528
0.000862649
0.000850514
0.000784699
0.000727842
0.000674868
0.000525726
2.3595e-05
2.84695e-05
0.00071942
0.000776996
0.000801159
0.000820297
0.0008354
0.000847267
0.000856567
0.000863892
0.000869761
0.000874613
0.000878777
0.00088246
0.000885739
0.000888569
0.000890788
0.000892157
0.000892369
0.000891118
0.000888217
0.000883737
0.000877986
0.000871375
0.000864283
0.000856949
0.000849423
0.000841555
0.00083303
0.000823426
0.000812259
0.000727241
0.000618435
0.000467797
0.000222167
1.937e-05
2.78427e-05
0.000700854
0.000764044
0.000848091
0.000861718
0.00087157
0.00087885
0.000884361
0.000888706
0.000892321
0.000895538
0.000898618
0.000901734
0.000904959
0.000908269
0.00091154
0.000914562
0.000917034
0.00091861
0.000886381
0.0008476
0.000816152
0.000793634
0.000778413
0.000767638
0.000758142
0.00074795
0.000737631
0.000727726
0.000711994
0.000673659
0.000591416
0.000442538
0.000216915
2.30652e-05
1.83129e-05
0.000249102
0.000474464
0.000495634
0.000517949
0.000567292
0.000642298
0.00073597
0.000840981
0.000874966
0.000881289
0.000887109
0.0008926
0.000897922
0.000903176
0.000908397
0.000913536
0.000918472
0.000923058
0.000927126
0.000930545
0.000933255
0.000906904
0.000846517
0.000808547
0.000799256
0.000821077
0.000868723
0.00090574
0.000871307
0.000767218
0.00064224
0.000520134
0.000327833
3.05947e-05
1.67705e-05
6.96562e-05
0.000135665
0.000238916
0.000392977
0.000578985
0.000761066
0.000798143
0.000808005
0.000816099
0.000822702
0.000828036
0.000832303
0.0008357
0.000838409
0.000840592
0.000842379
0.000843871
0.000845121
0.000846149
0.000846952
0.000847545
0.000848112
0.00084919
0.000851748
0.00085673
0.000864525
0.000698454
0.000554842
0.000570958
0.000768388
0.000932648
0.000894117
0.000758976
3.21357e-05
4.08913e-05
0.000105809
0.000161757
0.000231309
0.000311705
0.000389578
0.000460991
0.000527275
0.000587651
0.000639604
0.000681911
0.000715981
0.000744012
0.000767434
0.000786656
0.000801436
0.000810295
0.000809576
0.000794731
0.000762814
0.000714465
0.000654171
0.00058914
0.000527436
0.000475618
0.000437761
0.000423078
0.000448427
0.000449318
0.000362736
0.000342933
0.000451689
0.000726743
0.000814211
2.60892e-05
4.90976e-05
0.000174266
0.00023849
0.000366174
0.0005442
0.000632193
0.000613586
0.000561413
0.000510681
0.000470891
0.000442898
0.000425002
0.000415237
0.000412076
0.000414413
0.00042154
0.000433126
0.000448732
0.000467516
0.000488304
0.000509906
0.000530989
0.000549658
0.000563577
0.000569539
0.000563226
0.000543663
0.000521527
0.00051245
0.000521107
0.000538797
0.000536183
0.000455277
0.000228809
2.22108e-05
3.40257e-05
0.000277
0.000276869
0.000317495
0.000382155
0.000440991
0.00051383
0.000600832
0.000684829
0.000744104
0.000763434
0.000743179
0.000695234
0.000634202
0.000572214
0.000516959
0.000471544
0.0004358
0.000408203
0.000387067
0.00037101
0.000358873
0.000349628
0.00034235
0.000336173
0.000330378
0.000324822
0.000320387
0.000321007
0.000336082
0.000369179
0.000401563
0.000392289
0.000286734
3.53452e-05
3.03121e-05
0.000654614
0.00078234
0.000818601
0.000841304
0.000859192
0.000875938
0.000889946
0.000898075
0.000896892
0.000883346
0.000855786
0.000814412
0.000761258
0.000699879
0.000634708
0.000570234
0.000510081
0.000456364
0.000410184
0.000372147
0.000342098
0.000319617
0.000303852
0.000294062
0.000291115
0.000288773
0.00028828
0.000275577
0.000220372
0.000176619
0.000173279
0.000281097
0.000402082
3.98264e-05
2.35878e-05
0.000187338
0.000255652
0.000276235
0.000288091
0.000296258
0.000301644
0.000305325
0.000308007
0.000309959
0.000311204
0.00031167
0.000311691
0.000312208
0.000314235
0.000318158
0.000323595
0.000329208
0.000331494
0.000325468
0.00030693
0.000273556
0.000230905
0.000189672
0.00014138
0.00010894
8.88181e-05
6.1854e-05
6.61551e-05
5.21542e-05
4.45432e-05
6.66271e-05
2.59632e-05
8.88641e-05
2.50586e-05
1.01004e-05
5.92628e-05
6.16684e-05
6.22943e-05
6.24679e-05
6.22467e-05
6.17703e-05
6.10847e-05
6.02786e-05
5.94143e-05
5.85954e-05
5.80869e-05
5.87394e-05
6.17402e-05
6.72084e-05
7.24729e-05
7.43231e-05
7.32724e-05
7.20138e-05
7.12285e-05
7.03223e-05
6.83925e-05
6.20025e-05
5.54154e-05
4.81636e-05
4.63124e-05
3.36531e-05
2.37437e-05
1.12379e-05
2.64799e-06
1.03735e-06
9.98649e-07
5.03245e-06
6.08602e-05
2.16217e-05
4.90902e-06
2.34567e-05
3.57129e-05
4.14917e-05
4.49476e-05
4.82877e-05
5.22214e-05
5.72088e-05
6.36056e-05
7.15332e-05
8.08564e-05
9.00238e-05
9.20443e-05
8.60721e-05
9.00629e-05
0.000112314
0.000129028
0.000118086
0.000103906
8.90419e-05
6.99907e-05
5.30053e-05
3.60664e-05
1.91573e-05
7.59858e-06
7.10268e-06
1.89021e-06
6.63158e-06
8.25824e-06
1.4215e-05
2.86279e-05
5.30455e-05
0.000104116
0.000213341
2.2892e-05
7.39569e-06
2.92118e-05
6.17103e-05
7.98296e-05
8.87029e-05
9.59816e-05
0.000103273
0.000110699
0.000119284
0.000129535
0.0001317
0.000107324
7.49191e-05
5.83565e-05
5.79719e-05
7.20471e-05
9.61048e-05
0.000109651
9.78567e-05
7.45565e-05
5.16737e-05
3.16032e-05
1.41702e-05
6.57615e-06
1.65652e-06
5.62793e-06
1.73131e-05
2.91246e-05
4.40246e-05
7.56392e-05
0.000135109
0.000219256
0.000310566
0.000297471
2.24623e-05
7.19009e-06
3.30675e-05
8.55292e-05
0.000117217
0.000128511
0.00013124
0.00012271
0.000104021
8.85384e-05
8.32277e-05
8.35553e-05
7.76534e-05
6.15635e-05
4.82333e-05
4.43429e-05
4.89413e-05
5.74441e-05
6.18569e-05
5.89658e-05
5.20828e-05
4.33585e-05
3.25592e-05
2.03439e-05
9.33724e-06
3.56579e-06
5.98908e-06
1.58669e-05
2.79861e-05
4.09226e-05
6.55946e-05
0.000131309
0.000273511
0.000342448
0.000143592
1.7757e-05
7.1867e-06
3.6171e-05
0.000107341
0.000144799
0.000147804
0.000131288
0.000101196
7.7703e-05
6.81035e-05
6.85033e-05
7.33341e-05
7.44437e-05
6.49706e-05
5.14368e-05
4.36904e-05
4.35373e-05
4.84607e-05
5.38088e-05
5.57394e-05
5.42409e-05
5.08745e-05
4.59754e-05
3.88789e-05
2.96823e-05
2.01097e-05
1.30677e-05
1.14005e-05
1.59949e-05
2.46796e-05
3.16375e-05
4.38746e-05
8.74687e-05
0.000244122
0.000116864
1.32788e-05
7.46173e-06
3.86642e-05
0.000121251
0.000155682
0.000147649
0.000114692
7.83786e-05
5.91528e-05
5.42452e-05
5.74212e-05
6.40453e-05
6.91213e-05
6.74027e-05
5.92681e-05
5.17344e-05
4.95927e-05
5.27168e-05
5.79326e-05
6.1853e-05
6.35685e-05
6.38537e-05
6.30079e-05
6.01101e-05
5.39942e-05
4.45445e-05
3.318e-05
2.20313e-05
1.26677e-05
7.46478e-06
9.9827e-06
2.0636e-05
5.15986e-05
0.000166738
6.8462e-05
1.04969e-05
7.55398e-06
4.20834e-05
0.000132917
0.000156961
0.00013733
9.53024e-05
6.23144e-05
4.90483e-05
4.929e-05
5.73668e-05
6.69655e-05
7.16718e-05
6.95902e-05
6.38508e-05
5.90174e-05
5.80155e-05
6.13178e-05
6.68947e-05
7.20279e-05
7.55653e-05
7.78595e-05
7.92125e-05
7.87638e-05
7.46953e-05
6.53871e-05
5.05581e-05
3.15697e-05
1.38253e-05
6.45292e-06
9.83052e-06
2.55401e-05
7.07895e-05
0.000133667
3.91058e-05
7.95408e-06
7.61283e-06
4.24987e-05
0.000132992
0.000154278
0.000134517
9.38085e-05
6.00677e-05
4.47132e-05
4.27447e-05
4.96377e-05
6.0917e-05
7.00996e-05
7.25377e-05
6.95205e-05
6.55996e-05
6.41114e-05
6.59887e-05
7.01355e-05
7.46576e-05
7.8212e-05
8.03765e-05
8.11591e-05
8.0414e-05
7.7606e-05
7.18419e-05
6.19949e-05
4.71762e-05
2.86462e-05
1.44588e-05
1.18373e-05
2.25544e-05
5.9043e-05
9.77876e-05
3.39171e-05
6.76759e-06
7.52822e-06
4.27392e-05
0.000133441
0.000155682
0.000137537
9.95757e-05
6.39703e-05
4.45625e-05
3.88894e-05
4.28228e-05
5.30699e-05
6.4638e-05
7.226e-05
7.46536e-05
7.43036e-05
7.42101e-05
7.59707e-05
7.93041e-05
8.28874e-05
8.54055e-05
8.6184e-05
8.51646e-05
8.26993e-05
7.93036e-05
7.5521e-05
7.13278e-05
6.51349e-05
5.40861e-05
3.79652e-05
2.41213e-05
2.09499e-05
3.13648e-05
6.72331e-05
4.42819e-05
7.04404e-06
7.55829e-06
4.17881e-05
0.000133524
0.000161039
0.000147247
0.000113289
7.43898e-05
4.86047e-05
3.78308e-05
3.78508e-05
4.60031e-05
5.92214e-05
7.18551e-05
7.91827e-05
8.16052e-05
8.25629e-05
8.46932e-05
8.8543e-05
9.31079e-05
9.66552e-05
9.77061e-05
9.57694e-05
9.14037e-05
8.57316e-05
7.99632e-05
7.49913e-05
7.02326e-05
6.30185e-05
5.18404e-05
3.68946e-05
2.24888e-05
2.07753e-05
4.18318e-05
4.57138e-05
7.27489e-06
7.68219e-06
4.35428e-05
0.000138272
0.000165224
0.000148648
0.000113057
7.62305e-05
5.1544e-05
3.92942e-05
3.65795e-05
4.19991e-05
5.47371e-05
7.18434e-05
8.74675e-05
9.72388e-05
0.000102031
0.000105417
0.000109682
0.000114802
0.000118763
0.000118966
0.000114059
0.000104472
9.14165e-05
7.59761e-05
6.05825e-05
5.0659e-05
4.82538e-05
4.68038e-05
3.72364e-05
2.5256e-05
2.63596e-05
5.62393e-05
3.07607e-05
6.55118e-06
7.94374e-06
4.74015e-05
0.000147104
0.000169973
0.000150565
0.000111627
7.43977e-05
5.20177e-05
4.1793e-05
3.94493e-05
4.36824e-05
5.44956e-05
7.03756e-05
8.71171e-05
0.000100336
0.000109027
0.000115375
0.000121672
0.000128391
0.000133652
0.000134038
0.000126778
0.000111278
8.88763e-05
6.35554e-05
4.3206e-05
3.38717e-05
3.53672e-05
4.26036e-05
4.29981e-05
3.74352e-05
4.40832e-05
6.6382e-05
2.15011e-05
5.50182e-06
8.17746e-06
5.32267e-05
0.000154417
0.000168051
0.000144247
0.000103174
6.74746e-05
4.78286e-05
4.05155e-05
4.08842e-05
4.6729e-05
5.7974e-05
7.42286e-05
9.23016e-05
0.000107471
0.000117357
0.000123208
0.000127406
0.000131052
0.000133263
0.000131651
0.00012371
0.000108206
8.59587e-05
6.09307e-05
4.0355e-05
2.9303e-05
2.76677e-05
3.37289e-05
4.37521e-05
5.15651e-05
6.09274e-05
5.7373e-05
1.86939e-05
4.74258e-06
8.2589e-06
5.69908e-05
0.000157733
0.000167268
0.000143642
0.000104756
6.98666e-05
4.95362e-05
4.19058e-05
4.29501e-05
4.94158e-05
5.9345e-05
7.21647e-05
8.66143e-05
0.00010005
0.000110174
0.000116582
0.000120247
0.000122117
0.000122294
0.000120022
0.000114217
0.000104041
8.93407e-05
7.10247e-05
5.20488e-05
3.71232e-05
2.92586e-05
2.83657e-05
3.38843e-05
4.58008e-05
5.93157e-05
5.72051e-05
2.01913e-05
5.04566e-06
8.183e-06
5.72372e-05
0.000157946
0.000166912
0.00014424
0.000107686
7.30747e-05
5.08291e-05
4.12386e-05
4.15689e-05
4.92505e-05
6.11975e-05
7.49376e-05
8.90277e-05
0.000101899
0.000111918
0.000118357
0.000121551
0.000122282
0.000121021
0.000117758
0.000112246
0.000104309
9.40742e-05
8.18931e-05
6.82846e-05
5.42964e-05
4.19948e-05
3.36369e-05
3.0454e-05
3.34243e-05
4.39102e-05
5.68867e-05
2.36015e-05
5.91387e-06
8.14014e-06
5.71093e-05
0.000159646
0.000170733
0.000151023
0.000118897
8.53908e-05
5.95793e-05
4.51755e-05
4.14501e-05
4.6545e-05
5.7874e-05
7.22418e-05
8.72709e-05
0.000101441
0.000113436
0.000122246
0.000127468
0.000129376
0.000128357
0.000124638
0.000118349
0.000109714
9.92151e-05
8.77078e-05
7.61986e-05
6.49591e-05
5.28899e-05
3.98186e-05
2.91367e-05
2.53815e-05
3.25569e-05
5.38174e-05
2.41724e-05
6.13719e-06
8.05529e-06
5.56584e-05
0.000159003
0.000170884
0.000150487
0.000118825
8.78374e-05
6.37704e-05
4.84597e-05
4.23998e-05
4.54044e-05
5.6497e-05
7.29977e-05
9.13149e-05
0.000108698
0.000123544
0.000134841
0.000141949
0.000144822
0.000143713
0.000138795
0.000130143
0.000118011
0.000102886
8.5776e-05
6.88799e-05
5.53805e-05
4.58404e-05
3.67099e-05
2.78991e-05
2.53023e-05
3.58224e-05
6.06333e-05
2.12101e-05
5.7912e-06
8.08362e-06
5.64018e-05
0.00015918
0.000170087
0.000149542
0.00011874
9.00457e-05
6.8261e-05
5.33411e-05
4.56009e-05
4.59657e-05
5.47534e-05
7.05951e-05
9.03168e-05
0.000110481
0.00012866
0.000143327
0.00015338
0.000158193
0.000157677
0.00015185
0.000140581
0.000123788
0.000101867
7.67403e-05
5.34988e-05
3.84639e-05
3.32876e-05
3.33504e-05
3.24839e-05
3.47886e-05
5.13387e-05
6.38567e-05
1.83676e-05
5.19199e-06
7.95429e-06
5.46998e-05
0.000156115
0.000166438
0.000144666
0.000112808
8.49748e-05
6.59306e-05
5.41339e-05
4.80662e-05
4.82168e-05
5.58673e-05
7.1083e-05
9.15056e-05
0.000113325
0.000133281
0.000149305
0.000160055
0.000164811
0.000163552
0.000156488
0.000143496
0.000124146
9.85785e-05
6.96261e-05
4.42529e-05
2.87808e-05
2.40167e-05
2.84317e-05
3.88342e-05
5.13681e-05
6.84933e-05
5.70936e-05
1.6442e-05
4.61566e-06
7.94581e-06
5.44536e-05
0.000154693
0.000164362
0.000142595
0.000111546
8.48152e-05
6.64956e-05
5.52e-05
4.95636e-05
4.95492e-05
5.59554e-05
6.91712e-05
8.78034e-05
0.000108687
0.000128441
0.00014452
0.00015519
0.00015956
0.000157782
0.000150648
0.000138765
0.000122023
9.99311e-05
7.34375e-05
4.75515e-05
2.91691e-05
2.07085e-05
2.1369e-05
3.2167e-05
5.2732e-05
6.67642e-05
4.90562e-05
1.54063e-05
4.37918e-06
7.75232e-06
5.09046e-05
0.00014964
0.000160312
0.000137537
0.000106384
8.13778e-05
6.52714e-05
5.55368e-05
5.05951e-05
5.05811e-05
5.63067e-05
6.82535e-05
8.55211e-05
0.000105385
0.000124414
0.000139794
0.000149692
0.000153337
0.000151085
0.000144084
0.0001336
0.000120355
0.000104188
8.44803e-05
6.19178e-05
4.07249e-05
2.63441e-05
2.05668e-05
2.3514e-05
3.76485e-05
5.64872e-05
4.74188e-05
1.56818e-05
4.56545e-06
7.74362e-06
4.85575e-05
0.000144844
0.000157382
0.000135236
0.000104514
8.03534e-05
6.53136e-05
5.61993e-05
5.10534e-05
5.01551e-05
5.45357e-05
6.4831e-05
8.05633e-05
9.9624e-05
0.000118863
0.000135242
0.000146487
0.000151434
0.000150216
0.000143971
0.000134263
0.000122496
0.000109471
9.5143e-05
7.87159e-05
5.99948e-05
4.1786e-05
2.89132e-05
2.39899e-05
2.85482e-05
4.55994e-05
5.31838e-05
1.74915e-05
4.92263e-06
7.55933e-06
4.39184e-05
0.000134562
0.000150204
0.000128825
9.82239e-05
7.50664e-05
6.21883e-05
5.5532e-05
5.18442e-05
5.08455e-05
5.40601e-05
6.28902e-05
7.75903e-05
9.66518e-05
0.000117059
0.000135383
0.00014877
0.000155564
0.000155577
0.000149816
0.000139892
0.000127484
0.000114071
0.000100725
8.76179e-05
7.36096e-05
5.75637e-05
4.14811e-05
3.04268e-05
2.85955e-05
4.0917e-05
6.12806e-05
1.98302e-05
5.14275e-06
7.56464e-06
4.11581e-05
0.000126143
0.000144838
0.000126377
9.64815e-05
7.23394e-05
5.90833e-05
5.32327e-05
5.08037e-05
5.02815e-05
5.27163e-05
5.99503e-05
7.31167e-05
9.17547e-05
0.000113519
0.000134768
0.000151707
0.000161584
0.000163504
0.000158274
0.00014758
0.000133233
0.000116959
0.000100641
8.6128e-05
7.38116e-05
6.17073e-05
4.83471e-05
3.7023e-05
3.39847e-05
4.64085e-05
7.08713e-05
2.15761e-05
5.13019e-06
7.43215e-06
3.80336e-05
0.000116843
0.000138238
0.000122632
9.38965e-05
6.88639e-05
5.49345e-05
4.96904e-05
4.89869e-05
5.00966e-05
5.29482e-05
5.93952e-05
7.13339e-05
8.93278e-05
0.00011188
0.000135455
0.00015545
0.000167942
0.000171231
0.000165934
0.00015386
0.000136889
0.000116683
9.54062e-05
7.65496e-05
6.34357e-05
5.56627e-05
4.93754e-05
4.37319e-05
4.46407e-05
6.11773e-05
8.08396e-05
2.25451e-05
4.97766e-06
7.50432e-06
3.76859e-05
0.000114716
0.000137868
0.000125853
9.91953e-05
7.17071e-05
5.41856e-05
4.67546e-05
4.56879e-05
4.76961e-05
5.14155e-05
5.77944e-05
6.88261e-05
8.58876e-05
0.00010854
0.000133879
0.00015685
0.00017222
0.000177177
0.000172052
0.000158883
0.000139748
0.000116275
9.06473e-05
6.72811e-05
5.17292e-05
4.60485e-05
4.70806e-05
5.07694e-05
5.96531e-05
8.00584e-05
8.6235e-05
2.27984e-05
4.81389e-06
7.51863e-06
3.83734e-05
0.000116635
0.000141154
0.000131456
0.000106703
7.74581e-05
5.60345e-05
4.55983e-05
4.33015e-05
4.5717e-05
5.05648e-05
5.76759e-05
6.86352e-05
8.51915e-05
0.000107698
0.000133982
0.000158985
0.000176569
0.000182923
0.000178073
0.000164276
0.00014384
0.000118384
8.99543e-05
6.31468e-05
4.44082e-05
3.72021e-05
4.08861e-05
5.3139e-05
7.15438e-05
9.16935e-05
8.31742e-05
2.19169e-05
4.66649e-06
7.73921e-06
4.20536e-05
0.000126643
0.00015143
0.000143537
0.000120927
9.00677e-05
6.31147e-05
4.75564e-05
4.20992e-05
4.32286e-05
4.81755e-05
5.58825e-05
6.71452e-05
8.35387e-05
0.000105852
0.000132659
0.000159321
0.000179235
0.000187638
0.000184018
0.00017071
0.000150272
0.000124378
9.47574e-05
6.54927e-05
4.31641e-05
3.21334e-05
3.29004e-05
4.58746e-05
6.96494e-05
8.92769e-05
7.39354e-05
2.00492e-05
4.53467e-06
7.90973e-06
4.67241e-05
0.000138736
0.000162522
0.000154753
0.000133124
0.000102394
7.2232e-05
5.21719e-05
4.3317e-05
4.26563e-05
4.71971e-05
5.5292e-05
6.70603e-05
8.36701e-05
0.000105911
0.000132744
0.000160042
0.00018135
0.00019149
0.000189442
0.000177392
0.000158015
0.000133058
0.000103885
7.35029e-05
4.78393e-05
3.22389e-05
2.79789e-05
3.55566e-05
5.66878e-05
7.83112e-05
6.38705e-05
1.79659e-05
4.41841e-06
8.17916e-06
5.30242e-05
0.00015293
0.00017398
0.000165487
0.000144524
0.000114862
8.31084e-05
5.90129e-05
4.62982e-05
4.29747e-05
4.61066e-05
5.37569e-05
6.55865e-05
8.23302e-05
0.000104547
0.000131323
0.000158973
0.000181443
0.00019345
0.000193478
0.000183377
0.00016583
0.000142727
0.000115288
8.54488e-05
5.76687e-05
3.76646e-05
2.81983e-05
2.96092e-05
4.39709e-05
6.67453e-05
5.75978e-05
1.66034e-05
4.33966e-06
8.31268e-06
5.80882e-05
0.000162045
0.000179353
0.000168491
0.000146801
0.000119265
9.02255e-05
6.60294e-05
5.1142e-05
4.55231e-05
4.70727e-05
5.39019e-05
6.54435e-05
8.21601e-05
0.000104376
0.000131101
0.000158841
0.000181937
0.000195275
0.00019708
0.000188846
0.000173127
0.000151911
0.000126483
9.82308e-05
7.01456e-05
4.71535e-05
3.32465e-05
2.9714e-05
3.83671e-05
6.00968e-05
5.70879e-05
1.64177e-05
4.28354e-06
8.42678e-06
6.18413e-05
0.000167481
0.000180892
0.000167595
0.000145237
0.00011987
9.43134e-05
7.18147e-05
5.61145e-05
4.86027e-05
4.83297e-05
5.38143e-05
6.45005e-05
8.07856e-05
0.000102898
0.000129775
0.000157991
0.000182088
0.000197002
0.000200706
0.000194336
0.000180268
0.000160553
0.000136618
0.000109785
8.23303e-05
5.81748e-05
4.14855e-05
3.47022e-05
4.0172e-05
6.09913e-05
6.2998e-05
1.75211e-05
4.24606e-06
8.39062e-06
6.31079e-05
0.000167321
0.000177019
0.000160895
0.000137668
0.000114787
9.4031e-05
7.56263e-05
6.13033e-05
5.30488e-05
5.12552e-05
5.52169e-05
6.46496e-05
8.0104e-05
0.000101928
0.000129078
0.000158071
0.000183402
0.000199895
0.000205274
0.000200422
0.000187574
0.000168797
0.0001456
0.000119382
9.23311e-05
6.80094e-05
5.04016e-05
4.24618e-05
4.73321e-05
6.87856e-05
7.33006e-05
1.95217e-05
4.22168e-06
8.36356e-06
6.38855e-05
0.000166555
0.000172981
0.000154695
0.000131273
0.00011067
9.35407e-05
7.83538e-05
6.55382e-05
5.70225e-05
5.39142e-05
5.61704e-05
6.39058e-05
7.80185e-05
9.92259e-05
0.000126734
0.000157026
0.000184279
0.000202834
0.000210012
0.000206519
0.000194571
0.000176317
0.000153341
0.000127121
9.99708e-05
7.55966e-05
5.81015e-05
5.06646e-05
5.68453e-05
7.97731e-05
8.38381e-05
2.16313e-05
4.20254e-06
8.27757e-06
6.43225e-05
0.000164896
0.000167889
0.000147068
0.000123633
0.000105681
9.24781e-05
8.09611e-05
7.02762e-05
6.20028e-05
5.77437e-05
5.80647e-05
6.35636e-05
7.56719e-05
9.57536e-05
0.000123556
0.000155595
0.000185401
0.000206372
0.000215255
0.000212694
0.0002011
0.000182802
0.000159499
0.00013276
0.000105084
8.05023e-05
6.34455e-05
5.72783e-05
6.55208e-05
8.92611e-05
8.97143e-05
2.27627e-05
4.14508e-06
8.25655e-06
6.58401e-05
0.000165741
0.000164913
0.000141338
0.000118232
0.00010299
9.30668e-05
8.42183e-05
7.49703e-05
6.6782e-05
6.14589e-05
5.97827e-05
6.2601e-05
7.18961e-05
8.99091e-05
0.00011736
0.000151208
0.000184264
0.000208432
0.000219438
0.00021782
0.000206351
0.00018768
0.000163697
0.000136143
0.000107776
8.29653e-05
6.63958e-05
6.15259e-05
7.15665e-05
9.47893e-05
8.94206e-05
2.24224e-05
4.00621e-06
8.22184e-06
6.77602e-05
0.000167283
0.000161075
0.000133614
0.000111363
9.9834e-05
9.41411e-05
8.86989e-05
8.13191e-05
7.33607e-05
6.69596e-05
6.31342e-05
6.28045e-05
6.83817e-05
8.30689e-05
0.000108886
0.000143839
0.000180272
0.000208128
0.000221565
0.0002209
0.0002094
0.00019016
0.000165371
0.000137083
0.000108405
8.39184e-05
6.82473e-05
6.47437e-05
7.61429e-05
9.75654e-05
8.51055e-05
2.11783e-05
3.79467e-06
8.24174e-06
7.04075e-05
0.000170062
0.000156278
0.000124463
0.000104267
9.7439e-05
9.64385e-05
9.43647e-05
8.85886e-05
8.0763e-05
7.3479e-05
6.78295e-05
6.43897e-05
6.55725e-05
7.54278e-05
9.74072e-05
0.000131387
0.000170415
0.000202476
0.000219224
0.000220245
0.000209246
0.000189887
0.000164823
0.000136547
0.00010851
8.52507e-05
7.10469e-05
6.90327e-05
8.11861e-05
9.94047e-05
8.00686e-05
1.99766e-05
3.5615e-06
8.22121e-06
7.22151e-05
0.000169927
0.000145446
0.000110262
9.43535e-05
9.38373e-05
9.90052e-05
0.000101628
9.83064e-05
9.08937e-05
8.27452e-05
7.5398e-05
6.90306e-05
6.55069e-05
6.93557e-05
8.52997e-05
0.00011537
0.000154877
0.000190851
0.000211669
0.000215331
0.000205783
0.000187319
0.000163145
0.000136188
0.00011004
8.89256e-05
7.66712e-05
7.61268e-05
8.80383e-05
0.000101713
7.69351e-05
1.94425e-05
3.36589e-06
8.1783e-06
7.21939e-05
0.000164862
0.000129216
9.41686e-05
8.40555e-05
9.01808e-05
0.000101817
0.000109468
0.000108977
0.000102384
9.37885e-05
8.53066e-05
7.67888e-05
6.90011e-05
6.62474e-05
7.42523e-05
9.68767e-05
0.000133075
0.000171739
0.000197901
0.000206159
0.000199912
0.000184058
0.000162386
0.000138151
0.000114913
9.65214e-05
8.64396e-05
8.70898e-05
9.76472e-05
0.000106324
7.76901e-05
1.99235e-05
3.24233e-06
8.03626e-06
6.8707e-05
0.000152515
0.000109799
7.82454e-05
7.3459e-05
8.52617e-05
0.000103416
0.00011718
0.000120933
0.000116245
0.000107723
9.83757e-05
8.82985e-05
7.71486e-05
6.8109e-05
6.74131e-05
8.02467e-05
0.000108717
0.000146715
0.000178433
0.00019328
0.000192427
0.000181083
0.000163608
0.000143477
0.000124097
0.000108985
0.000101286
0.000102812
0.000111295
0.000115243
8.31643e-05
2.15385e-05
3.19835e-06
7.85275e-06
6.28222e-05
0.000138319
9.58702e-05
6.70598e-05
6.41e-05
7.79997e-05
0.000100442
0.000120364
0.000130045
0.000129422
0.000122741
0.000113716
0.000103147
9.00798e-05
7.59816e-05
6.67454e-05
6.87645e-05
8.60104e-05
0.000118011
0.000153378
0.000176505
0.000183249
0.000178116
0.000166159
0.000151186
0.000136489
0.000125243
0.000120152
0.000122244
0.000128308
0.000127917
9.21651e-05
2.40031e-05
3.21686e-06
7.6535e-06
5.68664e-05
0.000128472
9.14551e-05
6.13085e-05
5.55013e-05
6.68848e-05
9.00916e-05
0.000115937
0.000134175
0.000140997
0.000138835
0.00013173
0.000121742
0.00010823
9.09939e-05
7.43377e-05
6.55604e-05
7.01422e-05
9.07995e-05
0.000123956
0.000154741
0.000171004
0.000173572
0.00016796
0.000158656
0.000149007
0.000141816
0.000139153
0.000141238
0.000144539
0.000140069
0.000100934
2.65058e-05
3.26266e-06
7.54727e-06
5.37049e-05
0.000127772
9.89703e-05
6.29187e-05
4.98447e-05
5.49117e-05
7.4147e-05
0.000102329
0.000129336
0.000146735
0.000152968
0.000150882
0.000143427
0.000131189
0.000113285
9.1528e-05
7.27598e-05
6.44915e-05
7.11397e-05
9.4169e-05
0.000127039
0.000153441
0.000165409
0.000166688
0.000162841
0.000157733
0.000153943
0.00015293
0.000154348
0.000154917
0.000147174
0.000106194
2.83306e-05
3.31829e-06
7.56329e-06
5.41549e-05
0.000135869
0.000112804
7.10128e-05
4.95343e-05
4.74428e-05
6.03673e-05
8.6263e-05
0.000118636
0.000146916
0.00016433
0.000170475
0.000167863
0.000158328
0.000141728
0.000118083
9.17637e-05
7.12593e-05
6.35075e-05
7.17737e-05
9.64592e-05
0.00012868
0.000151834
0.000161456
0.000162946
0.000161468
0.000159988
0.000159775
0.000160347
0.000158915
0.000149191
0.000107737
2.92662e-05
3.37426e-06
7.7215e-06
5.76741e-05
0.000148784
0.000117645
7.56563e-05
5.35146e-05
4.72501e-05
5.44986e-05
7.56819e-05
0.000108444
0.000143986
0.000172243
0.000188471
0.000192971
0.000187716
0.00017375
0.000150996
0.000121172
9.09661e-05
6.94889e-05
6.2434e-05
7.19978e-05
9.78107e-05
0.000129262
0.000150331
0.000159085
0.000161468
0.000161908
0.000162279
0.000162423
0.000160042
0.000149504
0.000107922
2.96267e-05
3.43696e-06
7.92502e-06
6.14217e-05
0.000148709
9.58449e-05
6.33128e-05
5.37593e-05
5.25837e-05
5.85374e-05
7.63321e-05
0.000107382
0.000145623
0.00018065
0.000204959
0.000216361
0.000215911
0.000205195
0.000184856
0.000155437
0.000120521
8.82406e-05
6.70493e-05
6.11246e-05
7.18501e-05
9.82188e-05
0.000128628
0.000148465
0.000157445
0.000161126
0.000162859
0.000163307
0.000160755
0.000149975
0.000108024
2.97843e-05
3.50859e-06