/*--------------------------------*- C++ -*----------------------------------*\
| =========                 |                                                 |
| \\      /  F ield         | OpenFOAM: The Open Source CFD Toolbox           |
|  \\    /   O peration     | Version:  v2006                                 |
|   \\  /    A nd           | Website:  www.openfoam.com                      |
|    \\/     M anipulation  |                                                 |
\*---------------------------------------------------------------------------*/
FoamFile
{
    version     2.0;
    format      ascii;
    class       surfaceScalarField;
    location    "39";
    object      phi;
}
// * * * * * * * * * * * * * * * * * * * * * * * * * * * * * * * * * * * * * //

dimensions      [1 0 -1 0 0 0 0];
oriented        oriented;


internalField   nonuniform List<scalar> 
228225
(
0.000403369
2.88017e-05
4.25617e-06
0.000384961
1.59102e-05
3.02081e-06
0.000371304
1.14992e-05
2.86332e-06
0.000356546
1.23987e-05
3.12861e-06
0.000341295
1.27386e-05
3.27552e-06
0.00032674
1.22134e-05
3.19156e-06
0.00031378
1.09603e-05
2.90574e-06
0.000302675
9.47329e-06
2.5149e-06
0.000293539
8.01416e-06
2.08871e-06
0.000286173
6.8915e-06
1.64911e-06
0.000280097
6.21558e-06
1.19435e-06
0.00027488
5.8327e-06
7.14405e-07
0.00027032
5.61581e-06
2.11698e-07
0.000266513
5.5347e-06
-4.52661e-07
0.000263255
5.64027e-06
-1.09809e-06
0.000260242
5.96139e-06
-1.70292e-06
0.000257185
6.451e-06
-2.24051e-06
0.000253865
7.04605e-06
-2.694e-06
0.00025014
7.69864e-06
-3.06189e-06
0.000245922
8.38351e-06
-3.35543e-06
0.000241132
9.10014e-06
-3.57236e-06
0.00023567
9.866e-06
-3.70894e-06
0.000229397
1.07071e-05
-3.76076e-06
0.000222132
1.16535e-05
-3.72156e-06
0.00021364
1.27383e-05
-3.5831e-06
0.000203627
1.39968e-05
-3.33559e-06
0.000191729
1.54659e-05
-2.96894e-06
0.000177514
1.71791e-05
-2.46909e-06
0.000160515
1.91525e-05
-1.84372e-06
0.000140345
2.13492e-05
-1.14057e-06
0.000116857
2.36281e-05
-4.11146e-07
9.02469e-05
2.5705e-05
3.91426e-07
6.13983e-05
2.70996e-05
1.18401e-06
3.04403e-05
2.73904e-05
3.15402e-06
2.5853e-05
4.64243e-06
1.85447e-05
1.75692e-05
-7.44645e-06
2.6905e-05
1.51982e-05
-7.64172e-06
2.9887e-05
1.56779e-05
-7.15208e-06
3.23021e-05
1.6577e-05
-6.60225e-06
3.41507e-05
1.69664e-05
-6.09359e-06
3.55005e-05
1.64826e-05
-5.63665e-06
3.63797e-05
1.53053e-05
-5.23504e-06
3.69819e-05
1.37685e-05
-4.8929e-06
3.74701e-05
1.21757e-05
-4.62177e-06
3.81376e-05
1.07112e-05
-4.43259e-06
3.92887e-05
9.46964e-06
-4.32984e-06
4.10267e-05
8.49213e-06
-4.30985e-06
4.33227e-05
7.78146e-06
-4.36065e-06
4.61349e-05
7.29579e-06
-4.45528e-06
4.94368e-05
7.0271e-06
-4.55827e-06
5.31649e-05
7.01185e-06
-4.64532e-06
5.71763e-05
7.26475e-06
-4.70011e-06
6.12553e-05
7.78936e-06
-4.71484e-06
6.51472e-05
8.58068e-06
-4.69093e-06
6.85964e-05
9.62775e-06
-4.63854e-06
7.13795e-05
1.09164e-05
-4.57381e-06
7.33284e-05
1.24314e-05
-4.51781e-06
7.43384e-05
1.41589e-05
-4.49291e-06
7.43632e-05
1.60889e-05
-4.51669e-06
7.34052e-05
1.821e-05
-4.59242e-06
7.14868e-05
2.0513e-05
-4.69369e-06
6.86092e-05
2.29846e-05
-4.74642e-06
6.4699e-05
2.55973e-05
-4.61155e-06
5.96098e-05
2.82967e-05
-4.14206e-06
5.32296e-05
3.09879e-05
-3.31115e-06
4.54939e-05
3.35276e-05
-2.15881e-06
3.63626e-05
3.57162e-05
-7.90847e-07
2.5827e-05
3.73052e-05
5.29162e-07
1.36471e-05
3.79596e-05
1.93469e-06
3.66529e-05
3.38986e-06
1.10444e-05
1.23226e-05
-5.68657e-06
1.6088e-05
1.44041e-05
-4.14744e-06
1.94714e-05
1.54397e-05
-3.05404e-06
2.24654e-05
1.59764e-05
-2.31255e-06
2.52696e-05
1.60592e-05
-1.82262e-06
2.76685e-05
1.57216e-05
-1.5658e-06
2.9519e-05
1.50501e-05
-1.52213e-06
3.08718e-05
1.41541e-05
-1.6617e-06
3.19309e-05
1.3145e-05
-1.94716e-06
3.29459e-05
1.2118e-05
-2.3369e-06
3.41372e-05
1.11483e-05
-2.78316e-06
3.5659e-05
1.02915e-05
-3.23505e-06
3.75736e-05
9.58846e-06
-3.63869e-06
3.98186e-05
9.06975e-06
-3.94007e-06
4.2248e-05
8.76292e-06
-4.09041e-06
4.46931e-05
8.69355e-06
-4.0546e-06
4.69657e-05
8.884e-06
-3.81974e-06
4.88765e-05
9.35283e-06
-3.39859e-06
5.02505e-05
1.01148e-05
-2.8247e-06
5.09369e-05
1.11806e-05
-2.14377e-06
5.08144e-05
1.25561e-05
-1.40608e-06
4.98051e-05
1.42415e-05
-6.71176e-07
4.79136e-05
1.62314e-05
-3.1184e-08
4.50479e-05
1.85104e-05
6.15656e-07
4.13319e-05
2.10496e-05
1.07092e-06
3.69253e-05
2.38017e-05
1.33819e-06
3.20599e-05
2.66975e-05
1.4035e-06
2.70382e-05
2.96425e-05
1.2663e-06
2.21991e-05
3.25163e-05
9.58395e-07
1.7857e-05
3.51872e-05
5.44095e-07
1.41418e-05
3.75192e-05
2.01955e-07
1.08423e-05
3.93566e-05
2.26691e-07
7.56453e-06
4.0508e-05
7.4133e-07
3.90089e-06
4.07371e-05
1.65454e-06
3.91427e-05
2.34945e-06
-2.50354e-06
1.79524e-05
-3.04388e-06
-6.76697e-06
2.04436e-05
-1.66212e-06
-1.07586e-05
2.1318e-05
-1.75025e-06
-1.40247e-05
2.16301e-05
-2.2279e-06
-1.6479e-05
2.15984e-05
-2.90479e-06
-1.81725e-05
2.13124e-05
-3.7014e-06
-1.92066e-05
2.08517e-05
-4.56184e-06
-1.96869e-05
2.02827e-05
-5.43964e-06
-1.96948e-05
1.9663e-05
-6.30536e-06
-1.92775e-05
1.90399e-05
-7.14422e-06
-1.84502e-05
1.845e-05
-7.94934e-06
-1.72051e-05
1.792e-05
-8.71249e-06
-1.55282e-05
1.74697e-05
-9.41728e-06
-1.34145e-05
1.71152e-05
-1.00383e-05
-1.08749e-05
1.68713e-05
-1.05445e-05
-7.93819e-06
1.67535e-05
-1.09065e-05
-4.64784e-06
1.67792e-05
-1.1103e-05
-1.05752e-06
1.69685e-05
-1.11246e-05
2.77019e-06
1.73447e-05
-1.09707e-05
6.75984e-06
1.79329e-05
-1.06435e-05
1.08191e-05
1.87571e-05
-1.01452e-05
1.48415e-05
1.98358e-05
-9.48189e-06
1.86859e-05
2.11832e-05
-8.64013e-06
2.21386e-05
2.28025e-05
-7.56823e-06
2.49182e-05
2.46882e-05
-6.22348e-06
2.66986e-05
2.68305e-05
-4.59954e-06
2.71357e-05
2.9216e-05
-2.73223e-06
2.59785e-05
3.17845e-05
-7.44784e-07
2.32185e-05
3.44191e-05
1.12194e-06
1.92194e-05
3.69505e-05
2.53973e-06
1.4551e-05
3.91328e-05
3.4164e-06
9.74898e-06
4.06858e-05
3.90981e-06
5.22794e-06
4.13556e-05
4.20022e-06
1.35125e-06
4.0816e-05
4.42273e-06
3.73886e-05
3.89192e-06
-8.25076e-06
2.86556e-05
-1.9766e-06
-1.38967e-05
2.94923e-05
-2.95005e-06
-1.80109e-05
2.97138e-05
-3.85152e-06
-2.08903e-05
2.96014e-05
-4.68986e-06
-2.28326e-05
2.92408e-05
-5.32616e-06
-2.41567e-05
2.87311e-05
-5.74788e-06
-2.50259e-05
2.81491e-05
-6.10743e-06
-2.54916e-05
2.75552e-05
-6.51148e-06
-2.55859e-05
2.70075e-05
-6.98039e-06
-2.53754e-05
2.65564e-05
-7.48305e-06
-2.49392e-05
2.62286e-05
-7.99776e-06
-2.43401e-05
2.60251e-05
-8.51492e-06
-2.36095e-05
2.59294e-05
-9.02893e-06
-2.27395e-05
2.59192e-05
-9.54017e-06
-2.16844e-05
2.59741e-05
-1.00497e-05
-2.03642e-05
2.60805e-05
-1.05614e-05
-1.86707e-05
2.62348e-05
-1.10806e-05
-1.64811e-05
2.64474e-05
-1.16108e-05
-1.36802e-05
2.67468e-05
-1.21478e-05
-1.01859e-05
2.71796e-05
-1.26785e-05
-5.96521e-06
2.78044e-05
-1.31881e-05
-1.02982e-06
2.86833e-05
-1.36753e-05
4.59991e-06
2.98522e-05
-1.41549e-05
1.09071e-05
3.13011e-05
-1.46166e-05
1.78153e-05
3.30019e-05
-1.49774e-05
2.50581e-05
3.49262e-05
-1.50356e-05
3.21079e-05
3.70493e-05
-1.45232e-05
3.81726e-05
3.9315e-05
-1.31689e-05
4.20417e-05
4.16551e-05
-1.0613e-05
4.25121e-05
4.40008e-05
-6.98866e-06
3.89725e-05
4.61459e-05
-2.93312e-06
3.18568e-05
4.77048e-05
6.27123e-07
2.23684e-05
4.8366e-05
3.0026e-06
1.14028e-05
4.79168e-05
4.40435e-06
4.48877e-05
4.52781e-06
-4.86009e-06
3.35725e-05
4.38798e-07
-9.11163e-06
3.53103e-05
-1.1163e-06
-1.30337e-05
3.58293e-05
-1.78693e-06
-1.70358e-05
3.58354e-05
-1.87944e-06
-2.1306e-05
3.54455e-05
-1.6397e-06
-2.57324e-05
3.47465e-05
-1.35156e-06
-2.99557e-05
3.38515e-05
-1.296e-06
-3.3524e-05
3.28826e-05
-1.6261e-06
-3.61578e-05
3.19611e-05
-2.23078e-06
-3.78627e-05
3.11916e-05
-2.87925e-06
-3.87767e-05
3.06363e-05
-3.47384e-06
-3.90011e-05
3.03082e-05
-4.06444e-06
-3.85373e-05
3.01842e-05
-4.74512e-06
-3.72936e-05
3.02221e-05
-5.58998e-06
-3.51184e-05
3.03738e-05
-6.6327e-06
-3.18387e-05
3.05978e-05
-7.86751e-06
-2.72935e-05
3.08673e-05
-9.25976e-06
-2.13653e-05
3.11769e-05
-1.07494e-05
-1.40437e-05
3.15558e-05
-1.22295e-05
-5.52268e-06
3.20849e-05
-1.35281e-05
3.73344e-06
3.28734e-05
-1.44242e-05
1.31291e-05
3.40091e-05
-1.48101e-05
2.21742e-05
3.55338e-05
-1.47939e-05
3.04243e-05
3.74431e-05
-1.44313e-05
3.75376e-05
3.96929e-05
-1.38078e-05
4.33325e-05
4.22112e-05
-1.30396e-05
4.78e-05
4.4909e-05
-1.2235e-05
5.10534e-05
4.76911e-05
-1.14756e-05
5.30609e-05
5.04652e-05
-1.05979e-05
5.27269e-05
5.31397e-05
-8.51175e-06
4.84373e-05
5.55333e-05
-4.73917e-06
3.99567e-05
5.73064e-05
-7.32016e-07
2.81776e-05
5.81613e-05
2.38051e-06
1.44016e-05
5.78465e-05
4.24708e-06
5.51469e-05
4.66336e-06
-2.62604e-06
3.62459e-05
6.03606e-08
-6.98204e-06
3.89666e-05
7.89369e-07
-1.18102e-05
3.93299e-05
1.40385e-06
-1.62866e-05
3.8727e-05
1.64863e-06
-1.95871e-05
3.74623e-05
1.33839e-06
-2.10222e-05
3.57904e-05
4.41225e-07
-2.04735e-05
3.40133e-05
-6.60707e-07
-1.81629e-05
3.23841e-05
-1.7615e-06
-1.45162e-05
3.10926e-05
-2.72787e-06
-1.02175e-05
3.02587e-05
-3.31894e-06
-5.9601e-06
2.98627e-05
-3.44325e-06
-2.22111e-06
2.97916e-05
-3.19015e-06
7.28924e-07
2.9935e-05
-2.67866e-06
2.82079e-06
3.01915e-05
-2.05073e-06
4.17933e-06
3.04762e-05
-1.46306e-06
5.0981e-06
3.07254e-05
-1.06055e-06
5.98334e-06
3.09067e-05
-9.48482e-07
7.38458e-06
3.10453e-05
-1.29989e-06
9.98564e-06
3.12457e-05
-2.32267e-06
1.41538e-05
3.16489e-05
-3.75755e-06
1.93927e-05
3.23719e-05
-4.74753e-06
2.50109e-05
3.35517e-05
-5.14737e-06
3.06139e-05
3.52751e-05
-5.30071e-06
3.57412e-05
3.74953e-05
-5.10198e-06
3.99033e-05
4.01028e-05
-4.45924e-06
4.27688e-05
4.30191e-05
-3.52435e-06
4.41897e-05
4.61728e-05
-2.49635e-06
4.4206e-05
4.94678e-05
-1.56147e-06
4.2828e-05
5.28237e-05
-7.0101e-07
3.98098e-05
5.61548e-05
3.34042e-07
3.46375e-05
5.92515e-05
1.83072e-06
2.72267e-05
6.17841e-05
3.3388e-06
1.80694e-05
6.32977e-05
4.43498e-06
8.08149e-06
6.31258e-05
5.1262e-06
5.8901e-05
4.79089e-06
-1.53427e-05
4.81966e-05
3.29073e-06
-2.81338e-05
4.79553e-05
3.73683e-06
-3.89315e-05
4.72551e-05
2.83852e-06
-4.71554e-05
4.58893e-05
1.06595e-06
-5.20638e-05
4.40713e-05
-1.65553e-06
-5.39315e-05
4.21998e-05
-4.45704e-06
-5.34478e-05
4.04545e-05
-6.80408e-06
-5.11001e-05
3.8947e-05
-8.76115e-06
-4.73448e-05
3.77519e-05
-1.02488e-05
-4.33373e-05
3.6878e-05
-1.04551e-05
-4.00576e-05
3.62518e-05
-9.48402e-06
-3.75079e-05
3.58122e-05
-8.35833e-06
-3.56126e-05
3.55893e-05
-7.30407e-06
-3.43586e-05
3.56269e-05
-6.41576e-06
-3.36094e-05
3.58888e-05
-5.8701e-06
-3.28906e-05
3.62713e-05
-5.96475e-06
-3.1288e-05
3.6702e-05
-7.09751e-06
-2.76298e-05
3.71658e-05
-9.48204e-06
-2.12345e-05
3.76999e-05
-1.25528e-05
-1.24806e-05
3.83705e-05
-1.51681e-05
-2.08216e-06
3.92458e-05
-1.69478e-05
8.9854e-06
4.03932e-05
-1.75652e-05
1.89885e-05
4.18656e-05
-1.62327e-05
2.70524e-05
4.36703e-05
-1.38646e-05
3.306e-05
4.57804e-05
-1.12996e-05
3.7568e-05
4.8178e-05
-9.27199e-06
4.10816e-05
5.08162e-05
-7.76187e-06
4.39374e-05
5.3619e-05
-6.6228e-06
4.62072e-05
5.6518e-05
-5.59922e-06
4.70823e-05
5.94341e-05
-3.8081e-06
4.50398e-05
6.22326e-05
-5.84234e-07
3.86667e-05
6.47283e-05
3.84099e-06
2.86556e-05
6.65104e-05
7.33728e-06
1.55728e-05
6.7077e-05
9.79586e-06
6.55144e-05
9.71219e-06
-3.29334e-06
5.34893e-05
-1.67003e-06
-7.51803e-06
5.49231e-05
-2.35442e-06
-1.15774e-05
5.45996e-05
-2.85836e-06
-1.41299e-05
5.35891e-05
-4.67796e-06
-1.53987e-05
5.22381e-05
-6.37986e-06
-1.78044e-05
5.07515e-05
-5.56946e-06
-2.14538e-05
4.91764e-05
-4.43326e-06
-2.56097e-05
4.75375e-05
-3.73661e-06
-2.94704e-05
4.58672e-05
-3.50752e-06
-3.21761e-05
4.4213e-05
-3.84443e-06
-3.26321e-05
4.26485e-05
-5.12835e-06
-2.98281e-05
4.12869e-05
-7.44528e-06
-2.3851e-05
4.02733e-05
-9.81301e-06
-1.6157e-05
3.97075e-05
-1.09223e-05
-8.53763e-06
3.95858e-05
-1.04752e-05
-1.73347e-06
3.98142e-05
-9.53011e-06
3.90784e-06
4.02691e-05
-8.4277e-06
8.27849e-06
4.08414e-05
-7.3107e-06
1.1473e-05
4.14911e-05
-6.30081e-06
1.37007e-05
4.22504e-05
-5.47554e-06
1.51126e-05
4.31895e-05
-4.77618e-06
1.57644e-05
4.43693e-05
-4.09949e-06
1.56978e-05
4.58381e-05
-3.42506e-06
1.50123e-05
4.76074e-05
-2.81279e-06
1.38425e-05
4.96625e-05
-2.309e-06
1.23422e-05
5.19666e-05
-1.91361e-06
1.06684e-05
5.44608e-05
-1.61879e-06
8.97492e-06
5.70693e-05
-1.42277e-06
7.43231e-06
5.96964e-05
-1.31581e-06
6.23712e-06
6.22212e-05
-1.28193e-06
5.49173e-06
6.44875e-05
-1.20341e-06
4.92773e-06
6.62842e-05
-6.80787e-07
3.43017e-06
6.73067e-05
1.03008e-06
2.12343e-07
6.69678e-05
3.69658e-06
6.27309e-05
3.45558e-06
9.48182e-07
5.70405e-05
-3.10252e-06
2.24078e-06
5.78586e-05
-2.77736e-06
3.39172e-06
5.76392e-05
-2.71603e-06
4.11424e-06
5.6913e-05
-2.55513e-06
4.49037e-06
5.5821e-05
-2.46093e-06
4.83758e-06
5.44845e-05
-2.58772e-06
5.31784e-06
5.29975e-05
-2.82916e-06
6.00536e-06
5.14434e-05
-3.1579e-06
6.96072e-06
4.99079e-05
-3.6142e-06
8.20965e-06
4.84844e-05
-4.207e-06
9.706e-06
4.72673e-05
-4.87904e-06
1.13186e-05
4.63441e-05
-5.51224e-06
1.29255e-05
4.57877e-05
-6.03614e-06
1.45633e-05
4.56301e-05
-6.53731e-06
1.61641e-05
4.58469e-05
-6.89314e-06
1.74599e-05
4.63693e-05
-6.93739e-06
1.83308e-05
4.71123e-05
-6.86486e-06
1.93145e-05
4.8e-05
-7.36653e-06
2.11174e-05
4.89881e-05
-8.59729e-06
2.39003e-05
5.00608e-05
-9.95783e-06
2.7186e-05
5.12272e-05
-1.07506e-05
3.04274e-05
5.25128e-05
-1.08735e-05
3.29933e-05
5.39477e-05
-1.02315e-05
3.44596e-05
5.55498e-05
-9.04067e-06
3.4716e-05
5.73243e-05
-7.63234e-06
3.386e-05
5.92566e-05
-6.23519e-06
3.2072e-05
6.13098e-05
-4.95131e-06
2.95297e-05
6.34249e-05
-3.79329e-06
2.63726e-05
6.5521e-05
-2.73627e-06
2.27348e-05
6.74866e-05
-1.78346e-06
1.87462e-05
6.91739e-05
-9.37173e-07
1.45221e-05
7.03783e-05
-1.85355e-07
9.84223e-06
7.08086e-05
8.00824e-07
4.41149e-06
7.0144e-05
1.85027e-06
6.67009e-05
7.25361e-08
7.56645e-06
5.27272e-05
-1.82839e-06
1.50785e-05
5.52358e-05
-3.42521e-06
2.29417e-05
5.56771e-05
-4.43959e-06
3.08191e-05
5.54754e-05
-5.00377e-06
3.8487e-05
5.48623e-05
-5.31905e-06
4.57723e-05
5.39849e-05
-5.45867e-06
5.2518e-05
5.2965e-05
-5.46265e-06
5.85649e-05
5.19133e-05
-5.35224e-06
6.37586e-05
5.09393e-05
-5.15104e-06
6.79397e-05
5.01599e-05
-4.87295e-06
7.09472e-05
4.9691e-05
-4.53212e-06
7.26806e-05
4.9618e-05
-4.18212e-06
7.31773e-05
4.9959e-05
-3.9022e-06
7.25791e-05
5.06837e-05
-3.73434e-06
7.10827e-05
5.1738e-05
-3.70357e-06
6.88704e-05
5.30641e-05
-3.80769e-06
6.60711e-05
5.46037e-05
-4.02289e-06
6.27666e-05
5.63021e-05
-4.32651e-06
5.90245e-05
5.81126e-05
-4.70561e-06
5.49226e-05
5.99952e-05
-5.1489e-06
5.05605e-05
6.19174e-05
-5.64062e-06
4.60697e-05
6.38559e-05
-6.16679e-06
4.16113e-05
6.57961e-05
-6.71595e-06
3.73631e-05
6.77288e-05
-7.27957e-06
3.34915e-05
6.96468e-05
-7.83402e-06
3.01282e-05
7.15389e-05
-8.34757e-06
2.73557e-05
7.33827e-05
-8.78315e-06
2.51645e-05
7.51524e-05
-9.07976e-06
2.34198e-05
7.68124e-05
-9.15608e-06
2.18584e-05
7.82951e-05
-8.92502e-06
1.99674e-05
7.94917e-05
-8.17343e-06
1.69849e-05
8.02304e-05
-6.68207e-06
1.24278e-05
8.02346e-05
-4.73604e-06
6.11308e-06
7.9119e-05
-2.61974e-06
7.42069e-05
-1.66222e-06
1.99106e-06
5.36828e-05
-2.56536e-06
4.78942e-06
5.57853e-05
-2.97746e-06
7.88946e-06
5.63671e-05
-3.45505e-06
1.12274e-05
5.6344e-05
-3.93079e-06
1.48148e-05
5.58951e-05
-4.41975e-06
1.86528e-05
5.51896e-05
-4.92517e-06
2.27414e-05
5.4364e-05
-5.45155e-06
2.70932e-05
5.35395e-05
-6.014e-06
3.17407e-05
5.28296e-05
-6.62971e-06
3.66698e-05
5.23466e-05
-7.24071e-06
4.17053e-05
5.21969e-05
-7.67061e-06
4.64387e-05
5.24578e-05
-7.67526e-06
5.06157e-05
5.31495e-05
-7.41653e-06
5.41641e-05
5.42488e-05
-7.09115e-06
5.70938e-05
5.57098e-05
-6.79488e-06
5.94478e-05
5.74785e-05
-6.56733e-06
6.12798e-05
5.94965e-05
-6.42235e-06
6.26352e-05
6.1709e-05
-6.35379e-06
6.35362e-05
6.40721e-05
-6.34315e-06
6.39949e-05
6.65469e-05
-6.38391e-06
6.40231e-05
6.90999e-05
-6.47596e-06
6.36317e-05
7.17037e-05
-6.61618e-06
6.28302e-05
7.43371e-05
-6.79771e-06
6.16254e-05
7.69835e-05
-7.01097e-06
6.00191e-05
7.96284e-05
-7.24324e-06
5.80033e-05
8.22548e-05
-7.47846e-06
5.55504e-05
8.48387e-05
-7.69491e-06
5.26008e-05
8.7359e-05
-7.86135e-06
4.90538e-05
8.97797e-05
-7.92973e-06
4.47275e-05
9.20304e-05
-7.81273e-06
3.92908e-05
9.40048e-05
-7.35864e-06
3.23238e-05
9.55226e-05
-6.46467e-06
2.34593e-05
9.62909e-05
-5.16585e-06
1.23627e-05
9.59074e-05
-3.45802e-06
9.17836e-05
-2.55914e-06
-4.58324e-06
6.25029e-05
-4.0525e-06
-8.20157e-06
6.46777e-05
-5.15085e-06
-1.06302e-05
6.48986e-05
-6.04787e-06
-1.21151e-05
6.44245e-05
-6.63075e-06
-1.28494e-05
6.35037e-05
-7.00753e-06
-1.30231e-05
6.23556e-05
-7.21963e-06
-1.28182e-05
6.115e-05
-7.30024e-06
-1.24008e-05
6.00228e-05
-7.27575e-06
-1.1914e-05
5.90848e-05
-7.16477e-06
-1.14606e-05
5.84237e-05
-6.98442e-06
-1.10801e-05
5.81015e-05
-6.75623e-06
-1.07494e-05
5.81531e-05
-6.50385e-06
-1.04349e-05
5.85876e-05
-6.22998e-06
-1.01181e-05
5.93927e-05
-5.93224e-06
-9.79134e-06
6.054e-05
-5.61754e-06
-9.4325e-06
6.19853e-05
-5.30879e-06
-8.98964e-06
6.36798e-05
-5.04425e-06
-8.38134e-06
6.55821e-05
-4.86465e-06
-7.52839e-06
6.76653e-05
-4.78359e-06
-6.3772e-06
6.99136e-05
-4.79759e-06
-4.91566e-06
7.23192e-05
-4.89272e-06
-3.17088e-06
7.48707e-05
-5.04867e-06
-1.20221e-06
7.75517e-05
-5.2419e-06
9.07651e-07
8.0341e-05
-5.44832e-06
3.05942e-06
8.3213e-05
-5.64424e-06
5.13888e-06
8.61384e-05
-5.80586e-06
7.01351e-06
8.90834e-05
-5.90787e-06
8.53975e-06
9.20066e-05
-5.92206e-06
9.5642e-06
9.48489e-05
-5.8176e-06
9.91272e-06
9.75234e-05
-5.56071e-06
9.37807e-06
9.99255e-05
-5.11874e-06
7.7739e-06
0.000101834
-4.47199e-06
5.02227e-06
0.000102877
-3.63854e-06
1.42046e-06
0.000102427
-2.72206e-06
9.69213e-05
-3.36301e-06
-5.15439e-06
7.18007e-05
-3.43272e-06
-1.08066e-05
7.49844e-05
-3.98699e-06
-1.62216e-05
7.56652e-05
-4.72442e-06
-2.13062e-05
7.54997e-05
-5.40809e-06
-2.60214e-05
7.48155e-05
-6.05916e-06
-3.03337e-05
7.38342e-05
-6.67178e-06
-3.42385e-05
7.27388e-05
-7.2312e-06
-3.77676e-05
7.16772e-05
-7.71487e-06
-4.09924e-05
7.07647e-05
-8.08991e-06
-4.40161e-05
7.00851e-05
-8.32217e-06
-4.69543e-05
6.96901e-05
-8.39153e-06
-4.99144e-05
6.96015e-05
-8.29667e-06
-5.29822e-05
6.98151e-05
-8.04925e-06
-5.62118e-05
7.03058e-05
-7.67238e-06
-5.96307e-05
7.10333e-05
-7.18444e-06
-6.32158e-05
7.19449e-05
-6.63029e-06
-6.68543e-05
7.29872e-05
-6.09425e-06
-7.03636e-05
7.41137e-05
-5.63734e-06
-7.35149e-05
7.52907e-05
-5.29151e-06
-7.60701e-05
7.65036e-05
-5.05825e-06
-7.78324e-05
7.77633e-05
-4.90523e-06
-7.86594e-05
7.90922e-05
-4.8038e-06
-7.84695e-05
8.05152e-05
-4.72993e-06
-7.72362e-05
8.2045e-05
-4.66187e-06
-7.49778e-05
8.36792e-05
-4.57981e-06
-7.17433e-05
8.53943e-05
-4.46429e-06
-6.75923e-05
8.71413e-05
-4.29501e-06
-6.25772e-05
8.88445e-05
-4.05042e-06
-5.67366e-05
9.04067e-05
-3.70881e-06
-5.01029e-05
9.17161e-05
-3.25049e-06
-4.27269e-05
9.2669e-05
-2.66745e-06
-3.46603e-05
9.3044e-05
-1.974e-06
-2.58353e-05
9.23793e-05
-1.21808e-06
-1.55913e-05
8.95545e-05
-6.69788e-07
7.88544e-05
-1.85059e-06
-7.69834e-06
8.31904e-05
-3.24184e-06
-1.17671e-05
8.37265e-05
-4.02342e-06
-1.37375e-05
8.36058e-05
-5.19181e-06
-1.45068e-05
8.33255e-05
-6.16344e-06
-1.46547e-05
8.29005e-05
-6.93985e-06
-1.46414e-05
8.24394e-05
-7.53243e-06
-1.4789e-05
8.2007e-05
-7.96005e-06
-1.52966e-05
8.16564e-05
-8.2474e-06
-1.6266e-05
8.14334e-05
-8.41983e-06
-1.77273e-05
8.13741e-05
-8.49959e-06
-1.96721e-05
8.15087e-05
-8.50426e-06
-2.20738e-05
8.18516e-05
-8.44613e-06
-2.49044e-05
8.24015e-05
-8.33193e-06
-2.81494e-05
8.31434e-05
-8.16136e-06
-3.18174e-05
8.40501e-05
-7.92778e-06
-3.59434e-05
8.50816e-05
-7.61968e-06
-4.05636e-05
8.61819e-05
-7.23554e-06
-4.56594e-05
8.7283e-05
-6.81172e-06
-5.11039e-05
8.83145e-05
-6.42463e-06
-5.66817e-05
8.92316e-05
-6.14094e-06
-6.21338e-05
9.00039e-05
-5.97022e-06
-6.71996e-05
9.06053e-05
-5.86316e-06
-7.16404e-05
9.10269e-05
-5.75339e-06
-7.52275e-05
9.12628e-05
-5.59853e-06
-7.77196e-05
9.12932e-05
-5.37781e-06
-7.88662e-05
9.10944e-05
-5.0806e-06
-7.84321e-05
9.06493e-05
-4.70354e-06
-7.62315e-05
8.99479e-05
-4.24744e-06
-7.21457e-05
8.8971e-05
-3.7144e-06
-6.61036e-05
8.76602e-05
-3.10754e-06
-5.80294e-05
8.59051e-05
-2.41959e-06
-4.78499e-05
8.34944e-05
-1.64804e-06
-3.55009e-05
7.99802e-05
-8.11665e-07
-2.04664e-05
7.38973e-05
-1.25183e-08
5.79544e-05
1.97227e-07
-2.12183e-06
9.18665e-05
-6.62668e-06
-1.02856e-05
9.81257e-05
-6.47243e-06
-1.75285e-05
9.7661e-05
-7.04447e-06
-2.28906e-05
9.59464e-05
-7.45304e-06
-2.64362e-05
9.4045e-05
-7.73222e-06
-2.84407e-05
9.2331e-05
-7.9136e-06
-2.9226e-05
9.09219e-05
-8.01881e-06
-2.90364e-05
8.97917e-05
-8.06329e-06
-2.80201e-05
8.88898e-05
-8.05442e-06
-2.62648e-05
8.81912e-05
-7.99524e-06
-2.38561e-05
8.77194e-05
-7.88142e-06
-2.09017e-05
8.7508e-05
-7.70805e-06
-1.75283e-05
8.75733e-05
-7.47216e-06
-1.38787e-05
8.79157e-05
-7.17134e-06
-1.01177e-05
8.85226e-05
-6.79734e-06
-6.44172e-06
8.93674e-05
-6.33189e-06
-3.06134e-06
9.04027e-05
-5.77024e-06
-1.55924e-07
9.15641e-05
-5.14895e-06
2.16093e-06
9.27776e-05
-4.53219e-06
3.86546e-06
9.39887e-05
-3.99853e-06
5.01178e-06
9.51559e-05
-3.61363e-06
5.6927e-06
9.62184e-05
-3.38507e-06
5.97708e-06
9.71352e-05
-3.26065e-06
5.84104e-06
9.79082e-05
-3.16489e-06
5.20254e-06
9.85012e-05
-3.0416e-06
4.01642e-06
9.8799e-05
-2.85607e-06
2.3369e-06
9.86504e-05
-2.58615e-06
3.54077e-07
9.79038e-05
-2.22131e-06
-1.61223e-06
9.64386e-05
-1.76551e-06
-3.19062e-06
9.42059e-05
-1.23409e-06
-4.06241e-06
9.1212e-05
-6.48321e-07
-4.01107e-06
8.74125e-05
-3.88699e-08
-3.24739e-06
8.25108e-05
9.22459e-07
-1.90235e-06
7.52771e-05
1.9772e-06
5.8634e-05
2.54503e-06
1.80681e-05
7.98774e-05
-2.70658e-06
2.26484e-05
0.00010064
-4.07673e-06
1.99129e-05
0.000107434
-4.71841e-06
1.343e-05
0.000109355
-5.04156e-06
5.46398e-06
0.000108724
-5.12483e-06
-2.68433e-06
0.000106924
-5.07404e-06
-1.02677e-05
0.000104696
-4.97378e-06
-1.68925e-05
0.000102379
-4.8665e-06
-2.23393e-05
0.000100073
-4.7536e-06
-2.65034e-05
9.78425e-05
-4.61251e-06
-2.93293e-05
9.57498e-05
-4.433e-06
-3.07867e-05
9.38574e-05
-4.21848e-06
-3.08681e-05
9.22058e-05
-3.96913e-06
-2.95847e-05
9.08128e-05
-3.68352e-06
-2.69632e-05
8.96786e-05
-3.35829e-06
-2.3057e-05
8.8789e-05
-2.97863e-06
-1.79687e-05
8.81131e-05
-2.51297e-06
-1.18513e-05
8.7606e-05
-1.93041e-06
-4.87763e-06
8.72125e-05
-1.22954e-06
2.84535e-06
8.68804e-05
-4.7452e-07
1.12029e-05
8.65721e-05
3.50401e-07
2.02085e-05
8.6259e-05
1.09877e-06
2.99825e-05
8.59646e-05
1.60631e-06
4.04812e-05
8.58341e-05
1.91852e-06
5.13708e-05
8.60876e-05
2.12678e-06
6.20165e-05
8.69067e-05
2.2939e-06
7.16089e-05
8.8304e-05
2.44873e-06
7.91518e-05
9.02394e-05
2.60285e-06
8.3062e-05
9.30652e-05
2.76836e-06
8.14717e-05
9.68887e-05
2.97426e-06
7.42939e-05
9.98671e-05
3.26689e-06
6.25083e-05
0.000100886
3.68195e-06
4.6575e-05
0.000100146
4.22998e-06
2.62347e-05
9.71399e-05
4.87006e-06
8.73157e-05
4.5791e-06
4.01696e-05
3.39121e-05
9.34234e-06
7.0822e-05
6.88671e-05
6.20275e-06
9.16441e-05
8.90348e-05
3.25714e-06
0.000105385
0.000100419
1.03573e-06
0.000113952
0.000106366
-4.79887e-07
0.000118278
0.000109294
-1.27178e-06
0.000119393
0.000110548
-1.91796e-06
0.000118105
0.000110836
-2.45166e-06
0.000115009
0.000110467
-2.89156e-06
0.000110578
0.000109592
-3.25007e-06
0.000105229
0.00010834
-3.53775e-06
9.93553e-05
0.000106807
-3.76041e-06
9.33118e-05
0.000105074
-3.91825e-06
8.74087e-05
0.000103203
-4.00661e-06
8.19017e-05
0.000101244
-4.01786e-06
7.6988e-05
9.92385e-05
-3.94312e-06
7.27918e-05
9.72152e-05
-3.76722e-06
6.93466e-05
9.51909e-05
-3.45871e-06
6.6597e-05
9.31581e-05
-2.97511e-06
6.44319e-05
9.109e-05
-2.28741e-06
6.27461e-05
8.89447e-05
-1.40295e-06
6.15215e-05
8.66771e-05
-4.07717e-07
6.07263e-05
8.42709e-05
7.26286e-07
6.04697e-05
8.17853e-05
1.92213e-06
6.12672e-05
7.93568e-05
2.87525e-06
6.36431e-05
7.71841e-05
3.64122e-06
6.78087e-05
7.55916e-05
4.31912e-06
7.29678e-05
7.54531e-05
4.98167e-06
7.70187e-05
7.84784e-05
5.67143e-06
7.78227e-05
8.53927e-05
6.30417e-06
7.35762e-05
9.38675e-05
6.703e-06
6.34111e-05
0.000100895
6.92196e-06
4.79903e-05
0.000105167
7.0803e-06
2.74862e-05
0.00010702
7.11664e-06
0.000105963
5.54911e-06
1.67632e-05
2.53212e-06
1.51649e-05
4.42539e-05
3.01456e-05
1.27727e-05
7.39173e-05
5.19487e-05
9.3687e-06
0.000102014
6.80994e-05
6.50041e-06
0.000127529
7.92141e-05
4.23433e-06
0.000150217
8.70989e-05
2.37078e-06
0.000170114
9.29936e-05
7.2128e-07
0.000187331
9.74845e-05
-6.57873e-07
0.000202
0.000100879
-1.74062e-06
0.000214436
0.000103382
-2.75123e-06
0.00022485
0.000105201
-3.65545e-06
0.000233371
0.000106521
-4.44262e-06
0.000240053
0.00010749
-5.10639e-06
0.000244905
0.000108213
-5.64175e-06
0.000247909
0.000108761
-6.04533e-06
0.000249017
0.000109188
-6.31391e-06
0.00024816
0.000109541
-6.44315e-06
0.000245224
0.000109861
-6.4254e-06
0.000240043
0.00011017
-6.24379e-06
0.000232402
0.00011046
-5.87398e-06
0.000222048
0.000110679
-5.28692e-06
0.000208721
0.000110747
-4.46234e-06
0.000192223
0.000110544
-3.4051e-06
0.000172549
0.0001099
-2.1503e-06
0.000150044
0.0001086
-7.91705e-07
0.000125378
0.000106415
6.54212e-07
9.93818e-05
0.000103302
2.22776e-06
7.35477e-05
9.98405e-05
3.34358e-06
5.00485e-05
9.73437e-05
4.23216e-06
3.13505e-05
9.68639e-05
5.03989e-06
1.72743e-05
9.8472e-05
5.75408e-06
6.58292e-06
0.000100427
6.29329e-06
-1.12075e-06
0.000100925
6.65208e-06
-5.45869e-06
9.9289e-05
6.70032e-06
9.04634e-05
4.63377e-06
-6.50967e-05
4.8602e-05
1.6981e-05
-0.000113205
5.96874e-05
1.64445e-05
-0.000144261
6.67621e-05
1.44328e-05
-0.000162052
7.21244e-05
1.24276e-05
-0.000170713
7.6181e-05
1.07759e-05
-0.000173283
7.97391e-05
9.40717e-06
-0.00017152
8.29435e-05
8.17666e-06
-0.000166368
8.56523e-05
7.005e-06
-0.000158354
8.77619e-05
5.88591e-06
-0.000147867
8.93286e-05
4.83769e-06
-0.000135274
9.05322e-05
3.86713e-06
-0.000120967
9.15933e-05
2.96626e-06
-0.000105372
9.27132e-05
2.12254e-06
-8.89437e-05
9.40426e-05
1.32469e-06
-7.21265e-05
9.56664e-05
5.56959e-07
-5.52591e-05
9.76038e-05
-2.45793e-07
-3.88413e-05
9.98244e-05
-8.42391e-07
-2.33283e-05
0.000102279
-1.20142e-06
-8.89793e-06
0.000104923
-1.5543e-06
4.19901e-06
0.000107703
-1.79682e-06
1.5743e-05
0.000110534
-1.93038e-06
2.54994e-05
0.000113315
-1.94149e-06
3.32284e-05
0.000115904
-1.83444e-06
3.86704e-05
0.000118131
-1.62214e-06
4.14944e-05
0.000119815
-1.30216e-06
4.12456e-05
0.000120822
-8.71731e-07
3.72436e-05
0.000121108
-9.32857e-08
2.89144e-05
0.000120778
1.4341e-06
1.76089e-05
0.00012011
2.82211e-06
5.58993e-06
0.000119196
3.95025e-06
-4.80637e-06
0.000117518
4.95939e-06
-1.20025e-05
0.000114075
5.97027e-06
-1.51363e-05
0.000108427
7.04677e-06
-1.28345e-05
9.95894e-05
8.24811e-06
7.8851e-05
8.63645e-06
-7.6163e-05
0.000113328
1.16174e-05
-0.00014541
0.000116129
1.24191e-05
-0.000206375
0.000114917
1.23434e-05
-0.000260051
0.000113002
1.23874e-05
-0.000307403
0.000110701
1.25465e-05
-0.000348672
0.000108119
1.27596e-05
-0.000383827
0.00010515
1.29743e-05
-0.000412903
0.000101712
1.31593e-05
-0.000436115
9.78441e-05
1.33205e-05
-0.000453779
9.36696e-05
1.34741e-05
-0.000466196
8.93428e-05
1.3628e-05
-0.000473598
8.50208e-05
1.37781e-05
-0.000476154
8.08557e-05
1.39105e-05
-0.000474008
7.69878e-05
1.40068e-05
-0.000467323
7.35353e-05
1.4051e-05
-0.000456319
7.05843e-05
1.40384e-05
-0.000441281
6.81861e-05
1.39875e-05
-0.000422546
6.63633e-05
1.39197e-05
-0.000400447
6.51274e-05
1.38409e-05
-0.00037532
6.44746e-05
1.37542e-05
-0.000347517
6.43855e-05
1.36644e-05
-0.000317396
6.47955e-05
1.35749e-05
-0.000285328
6.5603e-05
1.34892e-05
-0.00025173
6.66882e-05
1.34115e-05
-0.000217107
6.79447e-05
1.33415e-05
-0.000182023
6.92821e-05
1.32749e-05
-0.000147213
7.07739e-05
1.32617e-05
-0.000113653
7.25707e-05
1.35462e-05
-8.21021e-05
7.46069e-05
1.43937e-05
-5.32359e-05
7.7443e-05
1.55286e-05
-2.82103e-05
8.1948e-05
1.64695e-05
-1.02291e-05
8.84867e-05
1.72354e-05
-1.38171e-06
9.32963e-05
1.83267e-05
1.66877e-06
8.92953e-05
2.00633e-05
7.14507e-05
2.09217e-05
9.92413e-06
8.57508e-05
1.43479e-05
8.52906e-06
0.000100096
1.48797e-05
1.91659e-06
0.000104541
1.47917e-05
-7.18514e-06
0.00010522
1.48187e-05
-1.72927e-05
0.000103772
1.49988e-05
-2.73756e-05
0.000100822
1.52995e-05
-3.67751e-05
9.67197e-05
1.56663e-05
-4.51165e-05
9.17185e-05
1.60591e-05
-5.21832e-05
8.60432e-05
1.64515e-05
-5.78228e-05
7.98987e-05
1.68247e-05
-6.19138e-05
7.3481e-05
1.7167e-05
-6.43479e-05
6.69709e-05
1.7472e-05
-6.50236e-05
6.05351e-05
1.77379e-05
-6.38469e-05
5.43252e-05
1.79665e-05
-6.07382e-05
4.847e-05
1.81645e-05
-5.56435e-05
4.307e-05
1.8342e-05
-4.85626e-05
3.8213e-05
1.85113e-05
-3.95765e-05
3.39784e-05
1.86877e-05
-2.88307e-05
3.04159e-05
1.88889e-05
-1.65028e-05
2.75341e-05
1.91315e-05
-2.79687e-06
2.53274e-05
1.9426e-05
1.20147e-05
2.37964e-05
1.97787e-05
2.75094e-05
2.29923e-05
2.01882e-05
4.31726e-05
2.29043e-05
2.0655e-05
5.85797e-05
2.33551e-05
2.11852e-05
7.24356e-05
2.50655e-05
2.17779e-05
8.46416e-05
2.68594e-05
2.24846e-05
9.40162e-05
2.99772e-05
2.34749e-05
9.77318e-05
3.51629e-05
2.50255e-05
9.79008e-05
3.81786e-05
2.71128e-05
9.01262e-05
4.93365e-05
2.90011e-05
7.59886e-05
6.02214e-05
3.05912e-05
6.25432e-05
6.43396e-05
3.19488e-05
3.94831e-05
7.22702e-05
3.32637e-05
7.75841e-05
3.21096e-05
2.53344e-05
3.69577e-05
1.89156e-05
5.54949e-05
4.35707e-05
2.0288e-05
8.82114e-05
4.46178e-05
2.03206e-05
0.000121801
4.38988e-05
2.01927e-05
0.000155427
4.20367e-05
2.00148e-05
0.000188569
3.93423e-05
1.97884e-05
0.000220818
3.60453e-05
1.95122e-05
0.00025184
3.23196e-05
1.91846e-05
0.000281366
2.83249e-05
1.88008e-05
0.000309179
2.42103e-05
1.83554e-05
0.000335102
2.01289e-05
1.78468e-05
0.000359022
1.61905e-05
1.72797e-05
0.000380811
1.2561e-05
1.66673e-05
0.000400232
9.47138e-06
1.60311e-05
0.000416954
7.09487e-06
1.53948e-05
0.000430709
5.42643e-06
1.47765e-05
0.000441212
4.53554e-06
1.41894e-05
0.000448319
4.34445e-06
1.3645e-05
0.000452021
4.75649e-06
1.3153e-05
0.000452439
5.66134e-06
1.2732e-05
0.00044979
6.96699e-06
1.24094e-05
0.000444244
8.65513e-06
1.21984e-05
0.000436075
1.08724e-05
1.21206e-05
0.000425005
1.37914e-05
1.21877e-05
0.000411142
1.73794e-05
1.23512e-05
0.000394311
2.2507e-05
1.29054e-05
0.000373168
2.75604e-05
1.35195e-05
0.000351134
3.34781e-05
1.49827e-05
0.000319946
4.27741e-05
1.76694e-05
0.000284378
4.95136e-05