/*--------------------------------*- C++ -*----------------------------------*\
| =========                 |                                                 |
| \\      /  F ield         | OpenFOAM: The Open Source CFD Toolbox           |
|  \\    /   O peration     | Version:  v2006                                 |
|   \\  /    A nd           | Website:  www.openfoam.com                      |
|    \\/     M anipulation  |                                                 |
\*---------------------------------------------------------------------------*/
FoamFile
{
    version     2.0;
    format      ascii;
    class       volVectorField;
    location    "39";
    object      U;
}
// * * * * * * * * * * * * * * * * * * * * * * * * * * * * * * * * * * * * * //

dimensions      [0 1 -1 0 0 0 0];


internalField   nonuniform List<vector> 
78750
(
(0.0192178 0.0462499 -0.0256451)
(0.510427 0.0488511 -0.0218227)
(0.586305 0.0197947 -0.0402119)
(0.473961 0.00385657 -0.0528019)
(0.398433 -0.00519392 -0.061661)
(0.36628 -0.0118569 -0.070201)
(0.358948 -0.0181135 -0.0810065)
(0.354389 -0.0230059 -0.0941743)
(0.346378 -0.0273092 -0.10822)
(0.335969 -0.0284782 -0.122154)
(0.325938 -0.0253981 -0.135732)
(0.316568 -0.020478 -0.149319)
(0.308241 -0.0155624 -0.163398)
(0.302507 -0.0103588 -0.177853)
(0.298372 -0.00361042 -0.192468)
(0.294346 0.00482687 -0.206265)
(0.290187 0.0141021 -0.218287)
(0.286056 0.0232268 -0.22804)
(0.281831 0.0314869 -0.235479)
(0.277289 0.038533 -0.240812)
(0.272262 0.0444007 -0.244325)
(0.266606 0.0493902 -0.246271)
(0.260145 0.0538992 -0.246852)
(0.252662 0.0583351 -0.246242)
(0.243896 0.0630824 -0.244607)
(0.233545 0.0684992 -0.24213)
(0.221268 0.0749395 -0.239034)
(0.206679 0.0827991 -0.235618)
(0.189326 0.092523 -0.23235)
(0.168729 0.104335 -0.230248)
(0.144704 0.117548 -0.231484)
(0.116723 0.130078 -0.239356)
(0.0833129 0.137699 -0.256292)
(0.0528471 0.135339 -0.278753)
(0.0311574 0.115168 -0.29536)
(0.0170885 0.308673 -0.325119)
(0.0346435 0.201556 -0.363306)
(0.0377562 0.187174 -0.371733)
(0.0407178 0.199363 -0.374483)
(0.043039 0.20601 -0.37763)
(0.0449 0.2008 -0.381501)
(0.0461613 0.186026 -0.385252)
(0.0468968 0.166915 -0.387755)
(0.0473618 0.147851 -0.388395)
(0.0479122 0.130985 -0.387118)
(0.0489195 0.117022 -0.384269)
(0.0506374 0.106049 -0.38037)
(0.0530476 0.0977992 -0.375913)
(0.0560489 0.0913341 -0.370955)
(0.0597317 0.0861908 -0.365231)
(0.0640013 0.0827531 -0.358809)
(0.0686972 0.0811718 -0.351796)
(0.0735934 0.0814771 -0.344271)
(0.0783895 0.0836254 -0.336282)
(0.082763 0.087535 -0.327851)
(0.086415 0.0931192 -0.318989)
(0.0891067 0.100314 -0.309725)
(0.0906777 0.109101 -0.300138)
(0.091047 0.119522 -0.290387)
(0.090203 0.131676 -0.280733)
(0.0881775 0.145712 -0.271553)
(0.0849954 0.161789 -0.263334)
(0.0806234 0.179956 -0.256676)
(0.0749701 0.199973 -0.252293)
(0.0679367 0.221122 -0.250977)
(0.0593174 0.242151 -0.253383)
(0.0488101 0.261301 -0.25948)
(0.0362541 0.276497 -0.26818)
(0.0251108 0.285783 -0.277349)
(0.0164739 0.286516 -0.284244)
(0.0151893 0.0645875 -0.328653)
(0.0185884 0.0857848 -0.344857)
(0.0225539 0.0962028 -0.352963)
(0.0272888 0.101796 -0.359879)
(0.0312726 0.103122 -0.365322)
(0.0346115 0.10015 -0.369337)
(0.03729 0.0937352 -0.371854)
(0.0392915 0.0850788 -0.372807)
(0.040767 0.0754247 -0.372216)
(0.0420131 0.0658651 -0.370231)
(0.0433525 0.0572655 -0.367114)
(0.0450414 0.0502493 -0.3632)
(0.0472205 0.0452288 -0.358837)
(0.0498733 0.0424608 -0.354342)
(0.0528607 0.0421497 -0.349973)
(0.0559561 0.0444457 -0.345936)
(0.0589102 0.0494206 -0.342382)
(0.0614674 0.0570621 -0.339396)
(0.063386 0.0672803 -0.336988)
(0.0644563 0.0799187 -0.335074)
(0.0645156 0.0947657 -0.333458)
(0.0634639 0.11157 -0.331836)
(0.0612732 0.130062 -0.32983)
(0.0579287 0.149981 -0.32709)
(0.0534822 0.171038 -0.323211)
(0.048128 0.192938 -0.318017)
(0.042134 0.215341 -0.31164)
(0.0358446 0.237813 -0.304566)
(0.0296762 0.259814 -0.297559)
(0.0240513 0.28071 -0.291487)
(0.0192048 0.299799 -0.287056)
(0.0149192 0.316241 -0.284547)
(0.0106444 0.328946 -0.283416)
(0.00730134 0.336142 -0.282286)
(0.00505203 0.334806 -0.275853)
(-0.00200413 0.135014 -0.37249)
(-0.00662479 0.15747 -0.385549)
(-0.0111176 0.167364 -0.389522)
(-0.0163107 0.172115 -0.390957)
(-0.0202367 0.173045 -0.390122)
(-0.0229575 0.170749 -0.387434)
(-0.0247176 0.165952 -0.383263)
(-0.025696 0.159383 -0.377994)
(-0.0260143 0.151734 -0.37201)
(-0.0257509 0.1436 -0.365661)
(-0.0249415 0.135454 -0.35925)
(-0.0235861 0.127669 -0.353013)
(-0.0216658 0.120553 -0.347116)
(-0.0191654 0.114379 -0.34165)
(-0.0160891 0.109416 -0.336644)
(-0.0124663 0.105938 -0.332083)
(-0.00835046 0.104219 -0.327942)
(-0.00381364 0.104533 -0.324203)
(0.00105742 0.107144 -0.320879)
(0.00616043 0.112292 -0.318007)
(0.0113763 0.12018 -0.315657)
(0.0165686 0.13094 -0.31392)
(0.0215622 0.144623 -0.31291)
(0.0261244 0.161112 -0.312776)
(0.0299453 0.180106 -0.313709)
(0.0326439 0.201088 -0.3159)
(0.0338115 0.223328 -0.319428)
(0.0331243 0.245938 -0.324075)
(0.0304725 0.267903 -0.329217)
(0.0261384 0.288242 -0.333877)
(0.0206723 0.30601 -0.33729)
(0.0146393 0.320093 -0.339237)
(0.00850208 0.329114 -0.339607)
(0.00407411 0.331327 -0.337963)
(0.0012226 0.322106 -0.328656)
(-0.0107525 0.191284 -0.35526)
(-0.0155418 0.206469 -0.359615)
(-0.0205635 0.211041 -0.358011)
(-0.0257788 0.211688 -0.354416)
(-0.0291658 0.210064 -0.349626)
(-0.0312861 0.207151 -0.344325)
(-0.0326815 0.203653 -0.338862)
(-0.0335463 0.20005 -0.333439)
(-0.0339179 0.19669 -0.328164)
(-0.0338416 0.193825 -0.323089)
(-0.0334079 0.191614 -0.318224)
(-0.0327151 0.190132 -0.313562)
(-0.0318298 0.189396 -0.309091)
(-0.0307693 0.189391 -0.304811)
(-0.0294982 0.19009 -0.300741)
(-0.0279321 0.191476 -0.296924)
(-0.0259436 0.193559 -0.293431)
(-0.0233766 0.196394 -0.290353)
(-0.0200718 0.200089 -0.287792)
(-0.0159017 0.204805 -0.285843)
(-0.0108006 0.210713 -0.284589)
(-0.00478282 0.217926 -0.284093)
(0.00212065 0.226511 -0.284398)
(0.00988714 0.236504 -0.285451)
(0.0184317 0.247986 -0.287056)
(0.0275106 0.261158 -0.288918)
(0.0367022 0.27633 -0.290873)
(0.0449624 0.293254 -0.293319)
(0.0509994 0.311117 -0.297236)
(0.05348 0.328601 -0.304017)
(0.0512437 0.343524 -0.314324)
(0.0440752 0.353562 -0.326849)
(0.0330461 0.357152 -0.338751)
(0.0223634 0.353462 -0.34717)
(0.0130058 0.334647 -0.347249)
(-0.00660033 0.293863 -0.282514)
(-0.00954452 0.305032 -0.288452)
(-0.0139078 0.306925 -0.289346)
(-0.0196332 0.305235 -0.289246)
(-0.025337 0.301324 -0.288901)
(-0.0312261 0.296025 -0.288707)
(-0.0371161 0.290039 -0.288713)
(-0.0424654 0.283958 -0.288907)
(-0.0467637 0.278418 -0.289359)
(-0.0497991 0.274 -0.290164)
(-0.0516531 0.270987 -0.291331)
(-0.0524993 0.269315 -0.292808)
(-0.0524219 0.268689 -0.294546)
(-0.0513621 0.268742 -0.296543)
(-0.0491481 0.269136 -0.298837)
(-0.045549 0.269642 -0.301452)
(-0.0403206 0.270174 -0.304333)
(-0.0332507 0.270833 -0.307288)
(-0.0242254 0.27197 -0.309947)
(-0.0133741 0.274204 -0.31178)
(-0.00135722 0.278291 -0.312202)
(0.0112597 0.285093 -0.310643)
(0.0238884 0.295181 -0.306698)
(0.0355894 0.30833 -0.300435)
(0.0457905 0.323841 -0.292388)
(0.0541667 0.340886 -0.283425)
(0.0606677 0.358664 -0.274572)
(0.0654803 0.376518 -0.266837)
(0.0685466 0.394089 -0.261012)
(0.0690323 0.41147 -0.25745)
(0.0654312 0.427881 -0.25698)
(0.0567503 0.440562 -0.25987)
(0.0430083 0.447375 -0.263856)
(0.0286832 0.446235 -0.265104)
(0.0175508 0.42642 -0.254054)
(-0.00267686 0.295294 -0.239223)
(-0.00673543 0.316506 -0.255691)
(-0.0119333 0.324723 -0.264391)
(-0.0186097 0.328013 -0.271599)
(-0.02412 0.326928 -0.276826)
(-0.027439 0.32202 -0.280144)
(-0.0281151 0.314312 -0.282118)
(-0.026195 0.305142 -0.283414)
(-0.0221254 0.295921 -0.284575)
(-0.0166864 0.287927 -0.285989)
(-0.0108201 0.281974 -0.287831)
(-0.00533953 0.278341 -0.290039)
(-0.000776819 0.276948 -0.292399)
(0.00261321 0.277486 -0.294591)
(0.0048635 0.279507 -0.296207)
(0.00626405 0.282547 -0.296815)
(0.00730421 0.286251 -0.296067)
(0.00871863 0.290492 -0.293821)
(0.011406 0.295565 -0.290293)
(0.0159959 0.302357 -0.286103)
(0.0223632 0.311962 -0.281799)
(0.0297632 0.324921 -0.277541)
(0.0373939 0.341186 -0.273471)
(0.0445929 0.360594 -0.269783)
(0.0507133 0.382748 -0.266889)
(0.0551916 0.40691 -0.265442)
(0.0577518 0.432125 -0.266215)
(0.0583945 0.457381 -0.269993)
(0.0571936 0.481723 -0.277481)
(0.0540941 0.504119 -0.288881)
(0.0485922 0.523101 -0.303408)
(0.0399605 0.536705 -0.318736)
(0.0282431 0.543305 -0.331202)
(0.0180158 0.541605 -0.337683)
(0.00965363 0.523518 -0.334335)
(-0.020767 0.367523 -0.279763)
(-0.0302952 0.379132 -0.28996)
(-0.0435508 0.376332 -0.291522)
(-0.0578304 0.364425 -0.290059)
(-0.0673167 0.345617 -0.287287)
(-0.0721442 0.323487 -0.284988)
(-0.0732092 0.302105 -0.283796)
(-0.0712621 0.284547 -0.283396)
(-0.067083 0.272711 -0.283071)
(-0.0618393 0.267305 -0.282073)
(-0.0567707 0.267164 -0.280443)
(-0.0526415 0.270223 -0.278928)
(-0.0495669 0.274795 -0.278027)
(-0.0474689 0.279523 -0.277975)
(-0.0462681 0.283396 -0.27884)
(-0.0455271 0.285745 -0.28064)
(-0.0441723 0.286373 -0.283527)
(-0.0406615 0.285782 -0.287822)
(-0.0337685 0.285259 -0.293411)
(-0.0236655 0.286281 -0.298989)
(-0.0106069 0.28989 -0.302897)
(0.00468798 0.297528 -0.302802)
(0.0195151 0.310274 -0.296911)
(0.0317417 0.327651 -0.287715)
(0.0409277 0.348471 -0.278569)
(0.0477538 0.372136 -0.271501)
(0.0528585 0.398127 -0.267793)
(0.0568595 0.425649 -0.268584)
(0.0600347 0.45424 -0.274914)
(0.061774 0.483522 -0.287855)
(0.0607537 0.512163 -0.308408)
(0.0552524 0.53826 -0.337712)
(0.043331 0.558038 -0.37325)
(0.030456 0.565686 -0.403443)
(0.0201342 0.551685 -0.423604)
(-0.00443944 0.457278 -0.295862)
(-0.00776195 0.463465 -0.30403)
(-0.0124169 0.458738 -0.305161)
(-0.0170705 0.448623 -0.303711)
(-0.0198584 0.436984 -0.301108)
(-0.022413 0.426844 -0.297916)
(-0.0263558 0.417607 -0.29458)
(-0.0317737 0.408501 -0.291476)
(-0.0375869 0.399145 -0.288862)
(-0.0423976 0.38926 -0.28674)
(-0.0446799 0.378842 -0.285117)
(-0.0430225 0.368727 -0.284386)
(-0.0369162 0.360829 -0.284685)
(-0.0274451 0.356953 -0.285328)
(-0.0167705 0.35738 -0.285743)
(-0.0067118 0.361086 -0.286257)
(0.0018204 0.367021 -0.287295)
(0.00858751 0.374415 -0.289118)
(0.0136594 0.382817 -0.291777)
(0.017262 0.392083 -0.295047)
(0.0196649 0.402407 -0.298501)
(0.0210066 0.413998 -0.301732)
(0.0213396 0.427026 -0.304431)
(0.0207408 0.441501 -0.306608)
(0.0193854 0.457362 -0.308589)
(0.0174926 0.474497 -0.31091)
(0.015266 0.492634 -0.314178)
(0.0129249 0.511373 -0.319039)
(0.0107159 0.530207 -0.326123)
(0.00893911 0.548555 -0.335974)
(0.00780168 0.56579 -0.348846)
(0.00693943 0.581059 -0.364318)
(0.00501878 0.592491 -0.38063)
(0.00253108 0.596636 -0.393583)
(-0.000106113 0.583839 -0.397911)
(0.00153929 0.507141 -0.270448)
(0.00214403 0.516752 -0.27806)
(0.00353135 0.515122 -0.279042)
(0.00492301 0.508352 -0.277478)
(0.00571228 0.497512 -0.27411)
(0.00616872 0.483387 -0.269605)
(0.00665756 0.466863 -0.264504)
(0.00738904 0.448816 -0.259376)
(0.00846787 0.430129 -0.254785)
(0.00995005 0.411851 -0.251188)
(0.0118232 0.395213 -0.2489)
(0.0139534 0.381462 -0.248072)
(0.0161863 0.371571 -0.248605)
(0.0184602 0.365895 -0.250198)
(0.0206807 0.364181 -0.252554)
(0.0225936 0.36561 -0.255545)
(0.0240144 0.36902 -0.259216)
(0.0252684 0.373331 -0.263616)
(0.0271432 0.378147 -0.268636)
(0.0302203 0.383753 -0.273857)
(0.0343785 0.390825 -0.278628)
(0.0388894 0.400094 -0.282524)
(0.0428485 0.412191 -0.285505)
(0.0455637 0.427359 -0.288057)
(0.0466456 0.445498 -0.290885)
(0.0460999 0.466181 -0.294617)
(0.0441599 0.488758 -0.299713)
(0.0410977 0.512431 -0.30646)
(0.0371607 0.536228 -0.314944)
(0.0325678 0.558955 -0.324957)
(0.0274879 0.579159 -0.335895)
(0.0218861 0.595098 -0.346665)
(0.0154484 0.604669 -0.35554)
(0.0099653 0.605263 -0.359847)
(0.00550179 0.58685 -0.352519)
(0.00973661 0.473949 -0.207704)
(0.0149664 0.485326 -0.215311)
(0.0234451 0.485179 -0.217705)
(0.0342658 0.480901 -0.219084)
(0.0446598 0.47422 -0.219866)
(0.0544473 0.466296 -0.220362)
(0.0636375 0.458011 -0.220844)
(0.0720896 0.450094 -0.221549)
(0.0795896 0.443196 -0.222673)
(0.0859102 0.437927 -0.224364)
(0.0908277 0.434746 -0.226706)
(0.0941575 0.433958 -0.229741)
(0.0958337 0.435737 -0.233501)
(0.0959613 0.440119 -0.237954)
(0.0947704 0.44692 -0.242998)
(0.0925095 0.455861 -0.248524)
(0.0893772 0.466619 -0.254434)
(0.085505 0.478837 -0.260612)
(0.0809849 0.492104 -0.266892)
(0.0759046 0.505971 -0.273083)
(0.0703716 0.520047 -0.279022)
(0.0645328 0.534075 -0.28461)
(0.0585848 0.547944 -0.289836)
(0.0527645 0.561663 -0.294781)
(0.0473163 0.575317 -0.299574)
(0.0424613 0.58899 -0.30433)
(0.0383629 0.602692 -0.309123)
(0.0350776 0.6163 -0.313969)
(0.0325559 0.629601 -0.318784)
(0.0305382 0.642206 -0.323405)
(0.0283802 0.653445 -0.327579)
(0.0249924 0.662075 -0.330928)
(0.0195634 0.665862 -0.332749)
(0.0138152 0.661911 -0.331688)
(0.00779504 0.634929 -0.31908)
(0.00210161 0.43791 -0.188505)
(0.00436626 0.461982 -0.20117)
(0.00776293 0.470019 -0.207664)
(0.0121395 0.472685 -0.213842)
(0.0166973 0.471224 -0.219812)
(0.0215346 0.466754 -0.225667)
(0.0267358 0.460332 -0.231414)
(0.0323299 0.453027 -0.236993)
(0.0383558 0.445984 -0.242288)
(0.0448116 0.440524 -0.247124)
(0.0515276 0.438094 -0.2513)
(0.0581197 0.439809 -0.254682)
(0.0641576 0.445876 -0.257369)
(0.0693681 0.455849 -0.259592)
(0.0737 0.469051 -0.261593)
(0.077212 0.484797 -0.263591)
(0.079989 0.502458 -0.265774)
(0.082104 0.5215 -0.268288)
(0.0836052 0.541512 -0.271237)
(0.084518 0.562138 -0.274681)
(0.0848559 0.583081 -0.278641)
(0.0846318 0.604109 -0.283102)
(0.0838593 0.625043 -0.288019)
(0.0825507 0.645738 -0.293324)
(0.0807116 0.666057 -0.298919)
(0.0783341 0.685824 -0.304671)
(0.0754183 0.704772 -0.310408)
(0.0719266 0.722761 -0.315939)
(0.067749 0.739656 -0.321043)
(0.0627264 0.755037 -0.325445)
(0.0564405 0.768183 -0.328818)
(0.0480247 0.777969 -0.330711)
(0.0368263 0.782415 -0.330448)
(0.0259904 0.778262 -0.326821)
(0.0157035 0.744495 -0.310684)
(-0.00609616 0.475805 -0.250963)
(-0.00886323 0.495223 -0.261997)
(-0.0118542 0.50005 -0.267819)
(-0.014902 0.500101 -0.273495)
(-0.0165432 0.497281 -0.278933)
(-0.0171548 0.493092 -0.284054)
(-0.0171286 0.488633 -0.288693)
(-0.0167277 0.484773 -0.292673)
(-0.0161481 0.482226 -0.295837)
(-0.0155484 0.481569 -0.298089)
(-0.0150219 0.483235 -0.299385)
(-0.014574 0.487512 -0.299718)
(-0.0141611 0.494585 -0.299056)
(-0.0137487 0.504521 -0.29741)
(-0.0133231 0.517247 -0.29487)
(-0.0128704 0.532557 -0.291624)
(-0.0123396 0.550123 -0.287958)
(-0.0116406 0.569576 -0.284232)
(-0.0106677 0.590607 -0.280873)
(-0.00932786 0.612934 -0.278294)
(-0.00757741 0.636305 -0.276839)
(-0.00542976 0.660508 -0.276752)
(-0.00294638 0.685377 -0.278162)
(-0.000224001 0.710786 -0.281078)
(0.00261673 0.736639 -0.285397)
(0.00543561 0.762846 -0.29092)
(0.00807243 0.789298 -0.297375)
(0.0103514 0.815849 -0.304436)
(0.0120812 0.842202 -0.311788)
(0.013068 0.867852 -0.319104)
(0.0130518 0.892127 -0.326049)
(0.0115955 0.913726 -0.331957)
(0.00831965 0.930467 -0.335897)
(0.00463014 0.939266 -0.336693)
(0.000945004 0.928936 -0.328947)
(-0.00606929 0.608471 -0.233214)
(-0.0109405 0.627622 -0.252576)
(-0.0170835 0.63022 -0.263652)
(-0.0245148 0.626589 -0.274695)
(-0.0313444 0.618697 -0.285499)
(-0.0375164 0.608348 -0.295696)
(-0.043162 0.597015 -0.304993)
(-0.0483215 0.585965 -0.313184)
(-0.0530373 0.576285 -0.320148)
(-0.0574042 0.56887 -0.325844)
(-0.0615573 0.564357 -0.330307)
(-0.0656409 0.563088 -0.333624)
(-0.0697841 0.565112 -0.335895)
(-0.0740852 0.570233 -0.337205)
(-0.078616 0.5781 -0.337601)
(-0.0833709 0.588208 -0.33707)
(-0.0882603 0.600088 -0.335577)
(-0.0930839 0.613427 -0.333102)
(-0.0975523 0.628096 -0.329717)
(-0.101339 0.644133 -0.32564)
(-0.104151 0.661698 -0.321256)
(-0.105757 0.680866 -0.31701)
(-0.106025 0.701605 -0.313359)
(-0.104905 0.723775 -0.310713)
(-0.102416 0.747154 -0.309374)
(-0.0986292 0.771468 -0.30949)
(-0.093626 0.796417 -0.311046)
(-0.0874733 0.821642 -0.313874)
(-0.0802399 0.846673 -0.31768)
(-0.0721164 0.87088 -0.322084)
(-0.0629149 0.893762 -0.326821)
(-0.0523071 0.913704 -0.331228)
(-0.0409036 0.927405 -0.333818)
(-0.0305552 0.929805 -0.332272)
(-0.0208501 0.892044 -0.313207)
(-0.0104279 0.648266 -0.247702)
(-0.0135955 0.682614 -0.27241)
(-0.0162337 0.694251 -0.286347)
(-0.0184888 0.700044 -0.299581)
(-0.019225 0.701573 -0.311682)
(-0.0192714 0.700357 -0.32244)
(-0.0193302 0.697785 -0.331717)
(-0.019782 0.69499 -0.339549)
(-0.0208099 0.692822 -0.346126)
(-0.0224921 0.691858 -0.351748)
(-0.0248392 0.692435 -0.356781)
(-0.0278255 0.694697 -0.361592)
(-0.0314127 0.698634 -0.366505)
(-0.0355732 0.704105 -0.371754)
(-0.0403098 0.71085 -0.377455)
(-0.0456694 0.718527 -0.383585)
(-0.0517203 0.726715 -0.389972)
(-0.0584832 0.734947 -0.396315)
(-0.0658625 0.742797 -0.402226)
(-0.0736518 0.749976 -0.40726)
(-0.0815211 0.756481 -0.410875)
(-0.0890953 0.762575 -0.412593)
(-0.0960136 0.768693 -0.412136)
(-0.101932 0.775219 -0.409402)
(-0.106511 0.782412 -0.404566)
(-0.109392 0.790277 -0.398056)
(-0.110222 0.798453 -0.390451)
(-0.108684 0.806231 -0.382334)
(-0.104519 0.812688 -0.374148)
(-0.0977288 0.816855 -0.366116)
(-0.0881819 0.817953 -0.358001)
(-0.0756628 0.814329 -0.349053)
(-0.0608243 0.80166 -0.337461)
(-0.0432488 0.766574 -0.316806)
(-0.0230511 0.645592 -0.256677)
(-2.84958e-05 0.761136 -0.423407)
(-0.00842938 0.754382 -0.4148)
(-0.0175716 0.74666 -0.404047)
(-0.0267218 0.74051 -0.391122)
(-0.032709 0.737086 -0.378203)
(-0.0362974 0.736063 -0.366093)
(-0.0381367 0.736819 -0.354964)
(-0.0385697 0.738894 -0.344968)
(-0.0378366 0.74206 -0.336232)
(-0.0360399 0.746288 -0.328924)
(-0.0333039 0.751795 -0.323024)
(-0.0297567 0.758758 -0.31849)
(-0.0255474 0.767247 -0.315325)
(-0.0208549 0.777249 -0.313559)
(-0.0158905 0.788666 -0.313225)
(-0.0109067 0.801274 -0.314331)
(-0.00617581 0.814652 -0.316829)
(-0.0019616 0.828215 -0.320608)
(0.00149933 0.841242 -0.325463)
(0.00415992 0.853309 -0.331146)
(0.0060674 0.864024 -0.337263)
(0.00729562 0.872756 -0.343236)
(0.00797152 0.878919 -0.348556)
(0.00810899 0.881983 -0.352891)
(0.00762762 0.881217 -0.355746)
(0.00641471 0.876036 -0.356709)
(0.00444569 0.866314 -0.355488)
(0.00187303 0.852448 -0.351931)
(-0.000962731 0.834982 -0.346189)
(-0.00356049 0.813738 -0.338636)
(-0.00536441 0.787406 -0.329434)
(-0.00596433 0.754063 -0.318309)
(-0.0052891 0.71036 -0.303725)
(-0.00391936 0.644573 -0.28026)
(-0.0012813 0.500537 -0.221069)
(0.0222762 0.882675 -0.264672)
(0.030024 0.982984 -0.349671)
(0.0282457 0.980302 -0.359366)
(0.0222456 0.957323 -0.348494)
(0.0127494 0.928406 -0.328063)
(0.001719 0.900121 -0.304075)
(-0.00898286 0.875259 -0.280954)
(-0.018569 0.853965 -0.26101)
(-0.026509 0.83558 -0.244603)
(-0.0328695 0.819572 -0.23086)
(-0.0375991 0.805958 -0.219144)
(-0.0404511 0.795087 -0.209479)
(-0.0414192 0.787198 -0.2019)
(-0.0405434 0.782368 -0.196368)
(-0.0378584 0.780538 -0.192795)
(-0.0334311 0.781538 -0.191053)
(-0.0273849 0.785039 -0.190959)
(-0.0199108 0.790593 -0.192284)
(-0.0112471 0.797736 -0.194769)
(-0.00158489 0.806066 -0.198128)
(0.00895854 0.815346 -0.202167)
(0.020328 0.825205 -0.206594)
(0.0323894 0.835461 -0.211148)
(0.0453424 0.846491 -0.215677)
(0.0592086 0.85831 -0.220089)
(0.0732727 0.869587 -0.224089)
(0.0866434 0.87803 -0.227535)
(0.0977988 0.88081 -0.230755)
(0.104853 0.875231 -0.233941)
(0.106406 0.860371 -0.236466)
(0.101532 0.837568 -0.236802)
(0.0893511 0.807996 -0.23351)
(0.0706986 0.770549 -0.225904)
(0.0501085 0.719788 -0.212405)
(0.0313663 0.608981 -0.179125)
(0.027367 0.443126 0.158352)
(0.0699833 0.711775 0.0286783)
(0.10242 0.855809 -0.0606534)
(0.125146 0.931307 -0.118031)
(0.139878 0.963043 -0.152816)
(0.148592 0.969294 -0.173375)
(0.152411 0.961527 -0.185756)
(0.152822 0.947095 -0.194157)
(0.150629 0.929191 -0.200568)
(0.146267 0.90962 -0.205862)
(0.140331 0.88955 -0.210778)
(0.133389 0.869767 -0.215911)
(0.125948 0.850786 -0.221639)
(0.118452 0.832897 -0.228123)
(0.111278 0.816203 -0.235345)
(0.104735 0.800656 -0.243167)
(0.0990449 0.786085 -0.251398)
(0.0943153 0.772179 -0.259811)
(0.0905335 0.758447 -0.268128)
(0.0875829 0.744358 -0.276033)
(0.0853216 0.729454 -0.283135)
(0.083663 0.713561 -0.288888)
(0.0825218 0.69726 -0.292615)
(0.081944 0.682549 -0.293674)
(0.0823334 0.672789 -0.29143)
(0.0844766 0.671996 -0.285839)
(0.088566 0.68265 -0.277608)
(0.0939615 0.706914 -0.266343)
(0.0996455 0.751856 -0.249986)
(0.102116 0.817186 -0.231339)
(0.0973729 0.874467 -0.219822)
(0.086106 0.90986 -0.215391)
(0.0684218 0.928939 -0.212892)
(0.0501104 0.932934 -0.209036)
(0.0359457 0.909396 -0.197672)
(-0.00168549 0.0257145 0.32208)
(0.0367152 0.305832 0.210015)
(0.068283 0.503863 0.10565)
(0.10393 0.638293 0.0249011)
(0.136522 0.729515 -0.0360315)
(0.165935 0.793314 -0.0845773)
(0.192641 0.838929 -0.125941)
(0.216514 0.871456 -0.162556)
(0.237475 0.894393 -0.195795)
(0.255711 0.90957 -0.226312)
(0.271516 0.918255 -0.254435)
(0.285082 0.921433 -0.280294)
(0.296478 0.919987 -0.303932)
(0.305695 0.914764 -0.325404)
(0.312678 0.906558 -0.344816)
(0.31734 0.896108 -0.362322)
(0.319557 0.884113 -0.378102)
(0.319165 0.871156 -0.392327)
(0.315949 0.85759 -0.405116)
(0.309631 0.843519 -0.416527)
(0.299878 0.828762 -0.426519)
(0.286324 0.812847 -0.434922)
(0.268621 0.795057 -0.44144)
(0.246562 0.77451 -0.445781)
(0.220348 0.750305 -0.44804)
(0.19063 0.722132 -0.449495)
(0.157568 0.693123 -0.453071)
(0.122032 0.674539 -0.458109)
(0.0883296 0.684462 -0.459355)
(0.0584023 0.733167 -0.451996)
(0.0332383 0.813707 -0.436449)
(0.0149653 0.891917 -0.419363)
(0.00280198 0.942323 -0.405019)
(-0.00453863 0.969847 -0.391751)
(-0.0085844 0.974782 -0.366545)
(-0.0814998 0.0375136 0.341569)
(-0.108153 0.227798 0.284161)
(-0.157753 0.368093 0.224785)
(-0.186284 0.478585 0.175167)
(-0.200066 0.557246 0.13864)
(-0.205965 0.619615 0.109108)
(-0.206678 0.673462 0.0812279)
(-0.202888 0.720183 0.0529683)
(-0.195079 0.759466 0.0247633)
(-0.183864 0.791848 -0.00242602)
(-0.169788 0.818894 -0.0282662)
(-0.153348 0.84238 -0.0530396)
(-0.135064 0.863684 -0.0771622)
(-0.115515 0.883623 -0.100879)
(-0.0953003 0.902578 -0.124257)
(-0.074944 0.920717 -0.147311)
(-0.0549782 0.938191 -0.170107)
(-0.0359692 0.955258 -0.192801)
(-0.0182887 0.97222 -0.21562)
(-0.00216462 0.989207 -0.23881)
(0.0121884 1.00599 -0.26258)
(0.0245593 1.02226 -0.28723)
(0.0347403 1.03744 -0.313162)
(0.0425644 1.05067 -0.340915)
(0.0477625 1.06085 -0.371241)
(0.0498897 1.06684 -0.405102)
(0.0482015 1.06741 -0.443009)
(0.0415772 1.06159 -0.483044)
(0.0298683 1.04945 -0.519281)
(0.014947 1.0323 -0.544809)
(-0.000241166 1.01162 -0.557139)
(-0.0125797 0.987902 -0.557267)
(-0.019996 0.958596 -0.545148)
(-0.0215676 0.910674 -0.51155)
(-0.0208124 0.776242 -0.399671)
(-0.0822858 0.732467 0.138344)
(-0.134621 0.733266 0.13374)
(-0.208966 0.712501 0.135791)
(-0.284506 0.690734 0.149949)
(-0.343244 0.675684 0.171874)
(-0.394327 0.665818 0.19626)
(-0.438547 0.657746 0.220375)
(-0.475187 0.648744 0.242665)
(-0.50456 0.637865 0.262837)
(-0.527161 0.625621 0.281028)
(-0.543478 0.613232 0.297216)
(-0.553897 0.602199 0.311076)
(-0.55864 0.594087 0.322036)
(-0.557822 0.590282 0.329439)
(-0.551532 0.591702 0.332747)
(-0.539907 0.598578 0.331708)
(-0.523217 0.610483 0.32641)
(-0.501841 0.626583 0.317143)
(-0.476242 0.646034 0.30425)
(-0.446937 0.66809 0.287991)
(-0.414478 0.69208 0.268498)
(-0.379434 0.717266 0.245789)
(-0.342359 0.742861 0.21978)
(-0.303788 0.768122 0.190258)
(-0.264257 0.792634 0.156869)
(-0.224323 0.816756 0.119073)
(-0.184694 0.841681 0.0761108)
(-0.146059 0.868874 0.0277781)
(-0.108866 0.897888 -0.0241122)
(-0.073948 0.922732 -0.0745024)
(-0.0433167 0.931349 -0.114976)
(-0.0200061 0.912322 -0.13927)
(-0.00500353 0.868468 -0.145471)
(0.00127429 0.802623 -0.130315)
(0.0040115 0.662321 -0.072456)
(0.00827564 1.02773 0.239953)
(0.0128196 1.06624 0.234305)
(0.00652531 1.06453 0.235118)
(-0.00307203 1.04861 0.242139)
(-0.014203 1.02281 0.25516)
(-0.0258172 0.989757 0.273125)
(-0.0369428 0.950846 0.294566)
(-0.0469839 0.907168 0.318052)
(-0.0556694 0.859823 0.34244)
(-0.0628367 0.809933 0.366895)
(-0.0684 0.758571 0.390841)
(-0.0722636 0.706689 0.413876)
(-0.0743116 0.655118 0.435694)
(-0.0744112 0.604619 0.456033)
(-0.072418 0.555953 0.474669)
(-0.0681806 0.509926 0.49143)
(-0.0615749 0.467364 0.50621)
(-0.0525611 0.429062 0.518972)
(-0.0412484 0.395725 0.529743)
(-0.0275867 0.367849 0.538576)
(-0.0117316 0.345603 0.545484)
(0.00587257 0.328731 0.550422)
(0.0248868 0.316503 0.553211)
(0.0447808 0.308011 0.553748)
(0.064885 0.302313 0.551898)
(0.0840261 0.297923 0.546907)
(0.101576 0.295251 0.538682)
(0.115721 0.294568 0.526379)
(0.125663 0.295613 0.505337)
(0.129272 0.313734 0.466206)
(0.123288 0.37319 0.404161)
(0.107451 0.492959 0.346717)
(0.0763151 0.59435 0.303079)
(0.0596845 0.600737 0.272508)
(0.054496 0.52902 0.248712)
(0.0181387 0.483191 0.446216)
(0.054025 0.617911 0.471198)
(0.088423 0.662547 0.475094)
(0.128477 0.674673 0.476009)
(0.170289 0.666504 0.476581)
(0.211525 0.644211 0.477532)
(0.252024 0.611898 0.478887)
(0.291832 0.572395 0.480371)
(0.33078 0.527851 0.48162)
(0.368643 0.479976 0.482266)
(0.405232 0.430265 0.482018)
(0.440417 0.380036 0.480659)
(0.474062 0.330503 0.478089)
(0.505903 0.282757 0.474351)
(0.535433 0.237684 0.469549)
(0.562027 0.195869 0.463715)
(0.585143 0.157835 0.456835)
(0.604347 0.124067 0.448873)
(0.619357 0.0949938 0.439685)
(0.630058 0.0712684 0.429361)
(0.636471 0.0536892 0.418304)
(0.638955 0.0431502 0.406606)
(0.63716 0.0418315 0.395404)
(0.63076 0.0508689 0.385195)
(0.618953 0.0684924 0.374907)
(0.600883 0.11075 0.372771)
(0.576254 0.154693 0.361161)
(0.549391 0.223492 0.360575)
(0.507175 0.32745 0.366918)
(0.476404 0.380376 0.328228)
(0.400244 0.518832 0.386824)
(0.349821 0.587025 0.43661)
(0.27188 0.559715 0.34236)
(0.154171 0.659363 0.276994)
(0.094561 0.728595 0.329662)
(0.00813027 0.148687 0.287766)
(0.0424706 0.120051 0.31534)
(0.0870813 0.0859481 0.31325)
(0.137967 0.0548437 0.306331)
(0.191176 0.0268742 0.298168)
(0.244821 0.00090919 0.289361)
(0.297455 -0.0236943 0.279954)
(0.347992 -0.0471795 0.269871)
(0.395672 -0.0692846 0.259164)
(0.43994 -0.0893991 0.247919)
(0.480275 -0.106872 0.236253)
(0.516388 -0.121148 0.224393)
(0.548106 -0.130568 0.213078)
(0.574368 -0.13244 0.203275)
(0.593581 -0.124754 0.1956)
(0.605172 -0.106994 0.189867)
(0.610369 -0.0795067 0.185583)
(0.610804 -0.0435898 0.182031)
(0.607587 -0.00214785 0.178658)
(0.599598 0.0416152 0.174709)
(0.588014 0.0850115 0.170178)
(0.574204 0.126934 0.165959)
(0.558569 0.16772 0.164011)
(0.542415 0.209596 0.167869)
(0.525628 0.254542 0.174087)
(0.51056 0.303609 0.183185)
(0.49604 0.350544 0.195293)
(0.481293 0.388988 0.215454)
(0.460308 0.453025 0.253278)
(0.435733 0.54051 0.24992)
(0.384868 0.615697 0.210681)
(0.35228 0.697839 0.157048)
(0.251806 1.01248 0.251824)
(0.122324 1.32838 0.426026)
(0.0813824 1.42824 0.581707)
(0.0102853 -0.0360903 0.116209)
(0.0390416 -0.173795 0.109573)
(0.0706737 -0.237376 0.100434)
(0.10378 -0.269001 0.0938606)
(0.136948 -0.285529 0.088868)
(0.168843 -0.293803 0.0847004)
(0.198745 -0.29662 0.0810223)
(0.226236 -0.294891 0.0777952)
(0.250835 -0.288855 0.0751979)
(0.27212 -0.278678 0.073607)
(0.289863 -0.264008 0.0736349)
(0.304217 -0.242588 0.0764399)
(0.315535 -0.209371 0.0832764)
(0.323015 -0.160938 0.093017)
(0.324607 -0.105231 0.101398)
(0.321406 -0.0555575 0.105194)
(0.316183 -0.0158082 0.105114)
(0.309524 0.0158498 0.103574)
(0.303667 0.0419893 0.103112)
(0.300178 0.0658686 0.105378)
(0.298603 0.0893543 0.111361)
(0.29808 0.112601 0.120744)
(0.29829 0.135012 0.132145)
(0.298735 0.155137 0.146617)
(0.298822 0.175971 0.166798)
(0.298168 0.214427 0.1861)
(0.29518 0.290751 0.192103)
(0.28538 0.405559 0.1873)
(0.266219 0.547153 0.186588)
(0.230147 0.712286 0.231696)
(0.173818 0.942482 0.359268)
(0.113932 1.23623 0.514334)
(0.0536694 1.51208 0.658266)
(0.00835902 1.66487 0.755159)
(0.0131044 1.71376 0.83274)
(0.00897193 -0.207981 0.042024)
(0.0298739 -0.366438 0.0381387)
(0.0490118 -0.417304 0.0356408)
(0.0669496 -0.435082 0.033765)
(0.0844058 -0.439818 0.0318097)
(0.100916 -0.436359 0.0295308)
(0.116048 -0.425633 0.0269006)
(0.129444 -0.407409 0.0240477)
(0.140534 -0.382178 0.0214618)
(0.148654 -0.352422 0.0201784)
(0.153652 -0.320467 0.0216826)
(0.155936 -0.284562 0.0283982)
(0.156275 -0.237851 0.0426256)
(0.155224 -0.177992 0.0606734)
(0.152309 -0.115731 0.0746071)
(0.147662 -0.0632943 0.0814641)
(0.142426 -0.0229994 0.0839341)
(0.136964 0.00960765 0.0857903)
(0.131131 0.038632 0.0897914)
(0.124445 0.065165 0.0972691)
(0.116876 0.0882708 0.108062)
(0.1085 0.107242 0.121492)
(0.0992425 0.123432 0.137581)
(0.0883723 0.143257 0.156334)
(0.0756467 0.182591 0.172909)
(0.0611394 0.25928 0.181753)
(0.0463839 0.376736 0.193837)
(0.0315461 0.529744 0.236102)
(0.0142975 0.722745 0.336257)
(-0.0137195 0.92939 0.488728)
(-0.0474494 1.08861 0.618507)
(-0.0680208 1.20668 0.698344)
(-0.0739543 1.28572 0.744225)
(-0.0676526 1.30869 0.757287)
(-0.0244476 1.21057 0.710042)
(0.005497 -0.31513 0.0180628)
(0.0184663 -0.484548 0.019817)
(0.0295807 -0.529904 0.0199065)
(0.0395781 -0.542894 0.0193053)
(0.0492522 -0.543259 0.0181646)
(0.0582441 -0.534437 0.0163416)
(0.0660849 -0.515953 0.0135764)
(0.072423 -0.485376 0.00960119)
(0.0766576 -0.441748 0.00476335)
(0.0783671 -0.390173 0.00049968)
(0.0778188 -0.338238 -0.00122315)
(0.0756129 -0.287867 0.00175699)
(0.0724413 -0.233579 0.0120349)
(0.0691103 -0.169586 0.0291217)
(0.0653714 -0.101896 0.0460589)
(0.0604647 -0.0428269 0.0571904)
(0.0545897 0.00348422 0.0633296)
(0.0476814 0.0408197 0.067752)
(0.0396757 0.0735107 0.0731198)
(0.0306305 0.103343 0.0806567)
(0.0204973 0.129963 0.0903383)
(0.00902742 0.153007 0.101668)
(-0.00413399 0.173691 0.114392)
(-0.0192491 0.195755 0.12817)
(-0.0358491 0.226675 0.141289)
(-0.0518726 0.276365 0.152064)
(-0.0644428 0.350655 0.166411)
(-0.0712908 0.450336 0.201721)
(-0.0709679 0.582566 0.27889)
(-0.065048 0.747945 0.402579)
(-0.0590015 0.891858 0.518438)
(-0.0540927 0.949627 0.569305)
(-0.0479891 0.958953 0.583716)