/*--------------------------------*- C++ -*----------------------------------*\
| =========                 |                                                 |
| \\      /  F ield         | OpenFOAM: The Open Source CFD Toolbox           |
|  \\    /   O peration     | Version:  v2012                                 |
|   \\  /    A nd           | Website:  www.openfoam.com                      |
|    \\/     M anipulation  |                                                 |
\*---------------------------------------------------------------------------*/
FoamFile
{
    version     2.0;
    format      ascii;
    class       surfaceScalarField;
    location    "300/topAir";
    object      phi;
}
// * * * * * * * * * * * * * * * * * * * * * * * * * * * * * * * * * * * * * //

dimensions      [1 0 -1 0 0 0 0];
oriented        oriented;


internalField   nonuniform List<scalar> 
3140
(
9.168103e-06
2.323922e-08
7.760708e-08
9.078176e-06
-3.331511e-09
9.324212e-08
8.992044e-06
-1.418739e-08
1.003121e-07
8.903778e-06
-1.38129e-08
1.020754e-07
8.816141e-06
-1.072033e-08
9.835966e-08
8.731211e-06
-5.654898e-09
9.058593e-08
8.650463e-06
1.234152e-09
7.951912e-08
8.575282e-06
9.905496e-09
6.527503e-08
8.50702e-06
2.065315e-08
4.761398e-08
8.447065e-06
3.397089e-08
2.598104e-08
8.397546e-06
5.028176e-08
-7.575261e-10
8.360708e-06
7.031826e-08
-3.348777e-08
8.337956e-06
9.569241e-08
-7.29361e-08
8.330498e-06
1.278451e-07
-1.203964e-07
8.339125e-06
1.690642e-07
-1.776913e-07
8.363954e-06
2.223438e-07
-2.471818e-07
8.403602e-06
2.919251e-07
-3.315753e-07
8.454912e-06
3.819324e-07
-4.332545e-07
8.513594e-06
4.948863e-07
-5.535723e-07
8.573878e-06
6.322575e-07
-6.925587e-07
8.629326e-06
7.928269e-07
-8.482822e-07
8.673945e-06
9.716246e-07
-1.016261e-06
8.702703e-06
1.16024e-06
-1.189012e-06
8.709256e-06
1.349049e-06
-1.355623e-06
8.678528e-06
1.531254e-06
-1.500536e-06
8.570845e-06
1.710457e-06
-1.602802e-06
8.288844e-06
1.909806e-06
-1.627816e-06
7.627546e-06
2.203231e-06
-1.541943e-06
6.204983e-06
2.65293e-06
-1.230368e-06
3.46616e-06
-7.468923e-07
9.264956e-06
-5.337966e-08
8.060368e-08
9.249215e-06
-8.697512e-08
9.936316e-08
9.228775e-06
-1.049689e-07
1.112086e-07
9.208727e-06
-1.130159e-07
1.192386e-07
9.189461e-06
-1.146455e-07
1.231837e-07
9.171507e-06
-1.123745e-07
1.246637e-07
9.155408e-06
-1.073865e-07
1.247116e-07
9.141485e-06
-9.986354e-08
1.236808e-07
9.130173e-06
-8.969624e-08
1.216524e-07
9.122075e-06
-7.64564e-08
1.185125e-07
9.117936e-06
-5.952458e-08
1.139371e-07
9.118754e-06
-3.796991e-08
1.074532e-07
9.125826e-06
-9.945022e-09
9.855804e-08
9.140299e-06
2.693004e-08
8.64216e-08
9.163986e-06
7.564058e-08
6.972645e-08
9.199261e-06
1.403345e-07
4.670735e-08
9.249388e-06
2.269276e-07
1.485226e-08
9.317563e-06
3.422781e-07
-2.855772e-08
9.404116e-06
4.935958e-07
-8.528665e-08
9.50519e-06
6.874722e-07
-1.563398e-07
9.612722e-06
9.268041e-07
-2.415251e-07
9.714299e-06
1.20798e-06
-3.379898e-07
9.793433e-06
1.519789e-06
-4.386835e-07
9.827683e-06
1.845613e-06
-5.308549e-07
9.781711e-06
2.170776e-06
-5.935444e-07
9.594027e-06
2.494523e-06
-5.963953e-07
9.143602e-06
2.847438e-06
-4.872013e-07
8.257332e-06
3.311359e-06
-2.218681e-07
6.539759e-06
3.985402e-06
3.851172e-07
4.944378e-06
1.131503e-06
9.270889e-06
-1.363074e-07
8.096956e-08
9.237342e-06
-1.536336e-07
1.001832e-07
9.183431e-06
-1.637271e-07
1.126464e-07
9.117195e-06
-1.682704e-07
1.214716e-07
9.042586e-06
-1.665621e-07
1.265024e-07
8.962322e-06
-1.616115e-07
1.294822e-07
8.8782e-06
-1.549323e-07
1.316422e-07
8.791568e-06
-1.469726e-07
1.337203e-07
8.703475e-06
-1.378935e-07
1.362617e-07
8.614919e-06
-1.276455e-07
1.397249e-07
8.52695e-06
-1.160811e-07
1.444948e-07
8.441003e-06
-1.029805e-07
1.509385e-07
8.359823e-06
-8.815048e-08
1.59354e-07
8.28723e-06
-7.039366e-08
1.698948e-07
8.227505e-06
-4.748096e-08
1.828074e-07
8.183662e-06
-1.454725e-08
1.986938e-07
8.158245e-06
3.44083e-08
2.178732e-07
8.156907e-06
1.040075e-07
2.395625e-07
8.187295e-06
2.007268e-07
2.623731e-07
8.255518e-06
3.343047e-07
2.849003e-07
8.361947e-06
5.140585e-07
3.061836e-07
8.497783e-06
7.447635e-07
3.273585e-07
8.642349e-06
1.021313e-06
3.538145e-07
8.763012e-06
1.327692e-06
3.972622e-07
8.812652e-06
1.643337e-06
4.777787e-07
8.7263e-06
1.957379e-06
6.235259e-07
8.396458e-06
2.295833e-06
8.814484e-07
7.691892e-06
2.73022e-06
1.285726e-06
6.164394e-06
3.514262e-06
1.998662e-06
4.499324e-06
2.834656e-06
9.053342e-06
7.928031e-08
8.801993e-06
9.769712e-08
8.52936e-06
1.088896e-07
8.244886e-06
1.161827e-07
7.958815e-06
1.19492e-07
7.676639e-06
1.20541e-07
7.401088e-06
1.205994e-07
7.133622e-06
1.204664e-07
6.874906e-06
1.208021e-07
6.625021e-06
1.222112e-07
6.38362e-06
1.252987e-07
6.14988e-06
1.307297e-07
5.922399e-06
1.393094e-07
5.699841e-06
1.521295e-07
5.481727e-06
1.706066e-07
5.27115e-06
1.959715e-07
5.075189e-06
2.303286e-07
4.901056e-06
2.780349e-07
4.756683e-06
3.450445e-07
4.652363e-06
4.384821e-07
4.599669e-06
5.667001e-07
4.606291e-06
7.380255e-07
4.668609e-06
9.589697e-07
4.763601e-06
1.232662e-06
4.846337e-06
1.56062e-06
4.857939e-06
1.945788e-06
4.7457e-06
2.408095e-06
4.521282e-06
2.954659e-06
4.328971e-06
3.706592e-06
4.336239e-06
9.283605e-06
2.484198e-08
3.810896e-08
9.316878e-06
-1.9724e-09
6.192402e-08
9.357664e-06
-1.412647e-08
7.364526e-08
9.39676e-06
-1.680061e-08
7.97776e-08
9.432654e-06
-1.893168e-08
8.139925e-08
9.465274e-06
-2.153217e-08
7.950057e-08
9.494994e-06
-2.508674e-08
7.488933e-08
9.522555e-06
-3.027598e-08
6.799254e-08
9.548781e-06
-3.765487e-08
5.904573e-08
9.574314e-06
-4.774593e-08
4.81946e-08
9.598858e-06
-6.091216e-08
3.56107e-08
9.621746e-06
-7.765951e-08
2.128232e-08
9.642824e-06
-9.916186e-08
5.145194e-09
9.661873e-06
-1.266304e-07
-1.281826e-08
9.678574e-06
-1.613176e-07
-3.308051e-08
9.693029e-06
-2.048859e-07
-5.675721e-08
9.706381e-06
-2.595098e-07
-8.54233e-08
9.720466e-06
-3.263064e-07
-1.210419e-07
9.737528e-06
-4.051559e-07
-1.654846e-07
9.760525e-06
-4.955262e-07
-2.200439e-07
9.793439e-06
-5.958254e-07
-2.853792e-07
9.841523e-06
-7.029106e-07
-3.614525e-07
9.911472e-06
-8.11631e-07
-4.473474e-07
1.001061e-05
-9.14001e-07
-5.407829e-07
1.014431e-05
-9.974529e-07
-6.368077e-07
1.030877e-05
-1.041001e-06
-7.262741e-07
1.047714e-05
-1.006477e-06
-7.89732e-07
1.05716e-05
-8.301651e-07
-8.062505e-07
1.034611e-05
-2.713875e-07
-7.334869e-07
7.933992e-07
-6.081087e-07
9.388041e-06
-5.35462e-08
3.988965e-08
9.506446e-06
-8.757726e-08
6.65428e-08
9.628388e-06
-1.065562e-07
8.168317e-08
9.755525e-06
-1.16716e-07
9.200517e-08
9.88315e-06
-1.21938e-07
9.855629e-08
1.000903e-05
-1.250803e-07
1.023272e-07
1.013231e-05
-1.278099e-07
1.041456e-07
1.025255e-05
-1.312483e-07
1.044034e-07
1.036959e-05
-1.362804e-07
1.032273e-07
1.048349e-05
-1.437123e-07
1.005621e-07
1.05946e-05
-1.542967e-07
9.620742e-08
1.070348e-05
-1.689323e-07
8.982868e-08
1.081077e-05
-1.888898e-07
8.098399e-08
1.091715e-05
-2.157572e-07
6.915078e-08
1.102326e-05
-2.514219e-07
5.370774e-08
1.112935e-05
-2.981883e-07
3.389523e-08
1.123437e-05
-3.585615e-07
8.87221e-09
1.133608e-05
-4.342096e-07
-2.239291e-08
1.1433e-05
-5.262215e-07
-6.117039e-08
1.152482e-05
-6.351623e-07
-1.085509e-07
1.16123e-05
-7.597208e-07
-1.651431e-07
1.16983e-05
-8.962442e-07
-2.306942e-07
1.178904e-05
-1.037803e-06
-3.032726e-07
1.189529e-05
-1.173084e-06
-3.780671e-07
1.203377e-05
-1.284628e-06
-4.448418e-07
1.222737e-05
-1.345475e-06
-4.855569e-07
1.251238e-05
-1.313597e-06
-4.650839e-07
1.292765e-05
-1.117601e-06
-3.497167e-07
1.3652e-05
-5.631971e-07
-4.740577e-08
4.403177e-07
2.552151e-07
9.394259e-06
-1.380062e-07
4.010044e-08
9.495212e-06
-1.553817e-07
6.701222e-08
9.584717e-06
-1.660268e-07
8.25902e-08
9.667528e-06
-1.71626e-07
9.355079e-08
9.742588e-06
-1.715076e-07
1.009908e-07
9.809898e-06
-1.689104e-07
1.059825e-07
9.869818e-06
-1.65592e-07
1.094815e-07
9.92257e-06
-1.623933e-07
1.120923e-07
9.968244e-06
-1.599359e-07
1.142187e-07
1.000682e-05
-1.587334e-07
1.161433e-07
1.003822e-05
-1.592725e-07
1.180522e-07
1.006227e-05
-1.621152e-07
1.200419e-07
1.007867e-05
-1.680478e-07
1.220877e-07
1.008683e-05
-1.781127e-07
1.240647e-07
1.008594e-05
-1.936165e-07
1.25859e-07
1.007505e-05
-2.160803e-07
1.274442e-07
1.005307e-05
-2.474805e-07
1.287301e-07
1.001938e-05
-2.902758e-07
1.29266e-07
9.974459e-06
-3.470786e-07
1.280904e-07
9.92019e-06
-4.199364e-07
1.238901e-07
9.860329e-06
-5.091149e-07
1.153514e-07
9.800654e-06
-6.113154e-07
1.020606e-07
9.74854e-06
-7.18176e-07
8.621251e-08
9.712911e-06
-8.156569e-07
7.545142e-08
9.703673e-06
-8.854216e-07
8.776519e-08
9.731439e-06
-9.048305e-07
1.551321e-07
9.800518e-06
-8.368033e-07
3.355699e-07
9.91443e-06
-6.217073e-07
6.759262e-07
1.005603e-05
-4.322001e-08
1.337116e-06
7.237382e-07
2.111378e-06
9.171282e-06
3.892124e-08
9.048841e-06
6.473865e-08
8.912347e-06
7.933922e-08
8.767663e-06
8.922241e-08
8.620164e-06
9.546532e-08
8.472628e-06
9.914631e-08
8.326365e-06
1.012495e-07
8.181982e-06
1.024335e-07
8.039635e-06
1.031911e-07
7.89916e-06
1.039283e-07
7.760163e-06
1.049996e-07
7.622011e-06
1.067402e-07
7.483743e-06
1.09505e-07
7.34398e-06
1.137496e-07
7.200841e-06
1.20099e-07
7.051485e-06
1.292078e-07
6.892201e-06
1.420907e-07
6.719143e-06
1.607585e-07
6.528823e-06
1.882294e-07
6.318746e-06
2.285412e-07
6.088856e-06
2.87416e-07
5.842584e-06
3.728944e-07
5.586864e-06
4.96474e-07
5.329866e-06
6.739519e-07
5.077031e-06
9.280308e-07
4.82929e-06
1.288698e-06
4.595906e-06
1.804674e-06
4.424352e-06
2.504526e-06
4.527175e-06
3.560569e-06
4.628746e-06
9.262267e-06
2.451424e-08
2.027553e-08
9.291745e-06
-2.38483e-09
3.481473e-08
9.335482e-06
-1.421592e-08
4.41163e-08
9.381337e-06
-1.620894e-08
5.012991e-08
9.426532e-06
-1.744135e-08
5.364807e-08
9.469762e-06
-1.895342e-08
5.522684e-08
9.51044e-06
-2.12175e-08
5.543301e-08
9.548564e-06
-2.488789e-08
5.475965e-08
9.5844e-06
-3.047508e-08
5.368773e-08
9.618262e-06
-3.844247e-08
5.277664e-08
9.650389e-06
-4.931339e-08
5.279909e-08
9.680673e-06
-6.377953e-08
5.47765e-08
9.708562e-06
-8.2764e-08
6.001971e-08
9.733016e-06
-1.076071e-07
7.032976e-08
9.752831e-06
-1.399687e-07
8.706965e-08
9.767186e-06
-1.820033e-07
1.108826e-07
9.775794e-06
-2.361519e-07
1.421163e-07
9.779142e-06
-3.050129e-07
1.806117e-07
9.778609e-06
-3.914179e-07
2.264638e-07
9.776545e-06
-4.983655e-07
2.803727e-07
9.777073e-06
-6.288834e-07
3.429745e-07
9.787401e-06
-7.857289e-07
4.139278e-07
9.820061e-06
-9.707675e-07
4.907512e-07
9.895381e-06
-1.183622e-06
5.674912e-07
1.00441e-05
-1.418271e-06
6.32717e-07
1.030557e-05
-1.656985e-06
6.692134e-07
1.071746e-05
-1.851799e-06
6.501398e-07
1.127168e-05
-1.919288e-06
5.587987e-07
1.182857e-05
-1.579888e-06
2.895034e-07
-8.128022e-07
-8.417159e-08
9.365785e-06
-5.34864e-08
2.104463e-08
9.480461e-06
-8.743614e-08
3.689796e-08
9.60623e-06
-1.060937e-07
4.777781e-08
9.742173e-06
-1.157144e-07
5.555622e-08
9.88257e-06
-1.201902e-07
6.090054e-08
1.002411e-05
-1.223894e-07
6.421328e-08
1.016512e-05
-1.239669e-07
6.587518e-08
1.030452e-05
-1.259979e-07
6.61039e-08
1.044161e-05
-1.293022e-07
6.496126e-08
1.057594e-05
-1.346039e-07
6.237963e-08
1.070728e-05
-1.426381e-07
5.817704e-08
1.083554e-05
-1.542801e-07
5.205857e-08
1.096072e-05
-1.706351e-07
4.366522e-08
1.108277e-05
-1.932195e-07
3.269686e-08
1.120131e-05
-2.240335e-07
1.921441e-08
1.131539e-05
-2.656494e-07
3.438998e-09
1.142337e-05
-3.210293e-07
-1.424849e-08
1.15228e-05
-3.93635e-07
-3.322212e-08
1.161056e-05
-4.873369e-07
-5.302964e-08
1.168331e-05
-6.06398e-07
-7.328798e-08
1.173827e-05
-7.553091e-07
-9.370262e-08
1.177487e-05
-9.386249e-07
-1.144269e-07
1.179801e-05
-1.160354e-06
-1.368584e-07
1.182351e-05
-1.422461e-06
-1.647555e-07
1.188792e-05
-1.721106e-06
-2.064417e-07
1.206006e-05
-2.038866e-06
-2.758533e-07
1.247088e-05
-2.328198e-06
-3.995115e-07
1.330173e-05
-2.499723e-06
-6.001608e-07
1.499792e-05
-2.352384e-06
-9.71096e-07
-1.806218e-06
-1.27752e-06
9.372223e-06
-1.378026e-07
2.112417e-08
9.469656e-06
-1.549578e-07
3.707762e-08
9.563334e-06
-1.653676e-07
4.816449e-08
9.655611e-06
-1.70721e-07
5.626067e-08
9.744623e-06
-1.702741e-07
6.204282e-08
9.82954e-06
-1.672791e-07
6.593487e-08
9.910171e-06
-1.634949e-07
6.835589e-08
9.986393e-06
-1.597361e-07
6.958746e-08
1.005809e-05
-1.565804e-07
6.977556e-08
1.012514e-05
-1.544847e-07
6.894972e-08
1.018738e-05
-1.5387e-07
6.702005e-08
1.024455e-05
-1.552006e-07
6.376128e-08
1.029627e-05
-1.590727e-07
5.878043e-08
1.034185e-05
-1.662985e-07
5.153598e-08
1.038012e-05
-1.780094e-07
4.152836e-08
1.040926e-05
-1.956929e-07
2.831587e-08
1.042666e-05
-2.213397e-07
1.160664e-08
1.042871e-05
-2.576334e-07
-8.82673e-09
1.041088e-05
-3.079733e-07
-3.348494e-08
1.036812e-05
-3.764694e-07
-6.33223e-08
1.029589e-05
-4.682896e-07
-9.949207e-08
1.019216e-05
-5.896413e-07
-1.432478e-07
1.006147e-05
-7.472087e-07
-1.963044e-07
9.921906e-06
-9.466446e-07
-2.608438e-07
9.817018e-06
-1.189449e-06
-3.390529e-07
9.829663e-06
-1.46489e-06
-4.314987e-07
1.011463e-05
-1.737518e-06
-5.40114e-07
1.087577e-05
-1.927429e-06
-6.57513e-07
1.258498e-05
-1.900803e-06
-8.236481e-07
-1.546654e-06
-9.154636e-07
9.149438e-06
2.060915e-08
9.023243e-06
3.595908e-08
8.890796e-06
4.640117e-08
8.755507e-06
5.377174e-08
8.62192e-06
5.875962e-08
8.491951e-06
6.181659e-08
8.366287e-06
6.339784e-08
8.245127e-06
6.38347e-08
8.128377e-06
6.333876e-08
8.015773e-06
6.202269e-08
7.906974e-06
5.99041e-08
7.801581e-06
5.690542e-08
7.699132e-06
5.285579e-08
7.599027e-06
4.752439e-08
7.500374e-06
4.071335e-08
7.401603e-06
3.224917e-08
7.300189e-06
2.212878e-08
7.192657e-06
1.061382e-08
7.074576e-06
-1.708078e-09
6.940268e-06
-1.367327e-08
6.783551e-06
-2.421142e-08
6.599388e-06
-3.264317e-08
6.386205e-06
-3.760661e-08
6.149742e-06
-3.628008e-08
5.911239e-06
-2.294305e-08
5.722385e-06
1.263485e-08
5.696899e-06
9.262299e-08
6.0241e-06
2.499051e-07
7.060012e-06
6.238705e-07
1.041761e-06
9.256261e-06
2.473928e-08
8.223907e-09
9.277222e-06
-1.786566e-09
1.562317e-08
9.313529e-06
-1.304272e-08
2.084542e-08
9.353318e-06
-1.405015e-08
2.438961e-08
9.394072e-06
-1.377524e-08
2.667188e-08
9.434403e-06
-1.312583e-08
2.802554e-08
9.473447e-06
-1.239421e-08
2.878749e-08
9.510919e-06
-1.199653e-08
2.928875e-08
9.546838e-06
-1.211181e-08
2.988606e-08
9.581317e-06
-1.272788e-08
3.102842e-08
9.614446e-06
-1.368061e-08
3.335477e-08
9.646013e-06
-1.465365e-08
3.786458e-08
9.675146e-06
-1.515046e-08
4.60381e-08
9.699859e-06
-1.487436e-08
6.048974e-08
9.718331e-06
-1.43671e-08
8.296181e-08
9.729393e-06
-1.455863e-08
1.143748e-07
9.732809e-06
-1.714969e-08
1.558459e-07
9.730012e-06
-2.425596e-08
2.076584e-07
9.723327e-06
-3.789218e-08
2.710365e-07
9.715819e-06
-6.052029e-08
3.483955e-07
9.711685e-06
-9.510236e-08
4.422071e-07
9.716497e-06
-1.450676e-07
5.541727e-07
9.737062e-06
-2.13682e-07
6.838597e-07
9.778927e-06
-3.009839e-07
8.265839e-07
9.842241e-06
-4.011711e-07
9.70547e-07
9.910643e-06
-4.936056e-07
1.094365e-06
9.915086e-06
-5.101445e-07
1.155783e-06
9.692674e-06
-3.293567e-07
1.110511e-06
8.785035e-06
4.029809e-07
7.941389e-07
1.87637e-06
2.667206e-07
9.35953e-06
-5.331798e-08
8.510984e-09
9.465155e-06
-8.704513e-08
1.651187e-08
9.582737e-06
-1.05285e-07
2.242469e-08
9.711733e-06
-1.14171e-07
2.666985e-08
9.84676e-06
-1.174792e-07
2.957018e-08
9.984452e-06
-1.17955e-07
3.134192e-08
1.012285e-05
-1.171028e-07
3.217442e-08
1.026056e-05
-1.157914e-07
3.218406e-08
1.039655e-05
-1.145524e-07
3.140055e-08
1.053014e-05
-1.137076e-07
2.976711e-08
1.066092e-05
-1.13434e-07
2.713553e-08
1.078891e-05
-1.138306e-07
2.323438e-08
1.091461e-05
-1.149636e-07
1.777075e-08
1.103894e-05
-1.170887e-07
1.056789e-08
1.11626e-05
-1.21046e-07
2.214602e-09
1.128619e-05
-1.280942e-07
-6.631119e-09
1.141009e-05
-1.401183e-07
-1.519329e-08
1.153444e-05
-1.596364e-07
-2.220736e-08
1.165971e-05
-1.895799e-07
-2.662941e-08
1.178667e-05
-2.333957e-07
-2.739661e-08
1.191645e-05
-2.951186e-07
-2.347727e-08
1.205053e-05
-3.793315e-07
-1.42669e-08
1.219083e-05
-4.902699e-07
-5.891926e-10
1.233995e-05
-6.284275e-07
1.353988e-08
1.250191e-05
-7.867794e-07
1.717339e-08
1.268153e-05
-9.388343e-07
-1.028713e-08
1.288339e-05
-9.979306e-07
-1.13633e-07
1.309695e-05
-8.107032e-07
-3.32422e-07
1.328074e-05
8.104401e-08
-8.329496e-07
1.576337e-06
-1.389122e-06
9.36606e-06
-1.378608e-07
8.537898e-09
9.45453e-06
-1.550383e-07
1.657776e-08
9.540101e-06
-1.652794e-07
2.256667e-08
9.625532e-06
-1.702924e-07
2.693103e-08
9.709368e-06
-1.692837e-07
2.999181e-08
9.790826e-06
-1.654636e-07
3.196573e-08
9.869559e-06
-1.605483e-07
3.304609e-08
9.945255e-06
-1.552791e-07
3.335819e-08
1.001763e-05
-1.501157e-07
3.294194e-08
1.008644e-05
-1.453392e-07
3.174637e-08
1.015151e-05
-1.411173e-07
2.960852e-08
1.021276e-05
-1.375601e-07
2.621373e-08
1.027033e-05
-1.347904e-07
2.10072e-08
1.032461e-05
-1.33045e-07
1.319354e-08
1.037586e-05
-1.328989e-07
2.097206e-09
1.04242e-05
-1.352183e-07
-1.292844e-08
1.04693e-05
-1.41326e-07
-3.231666e-08
1.051018e-05
-1.530932e-07
-5.627731e-08
1.054561e-05
-1.729215e-07
-8.56167e-08
1.057448e-05
-2.036823e-07
-1.219309e-07
1.059577e-05
-2.494663e-07
-1.66486e-07
1.060918e-05
-3.157411e-07
-2.202689e-07
1.061671e-05
-4.085308e-07
-2.85632e-07
1.062727e-05
-5.32772e-07
-3.670914e-07
1.066378e-05
-6.877675e-07
-4.746308e-07
1.0776e-05
-8.567947e-07
-6.258033e-07
1.106642e-05
-9.71334e-07
-8.571874e-07
1.170086e-05
-9.097523e-07
-1.192936e-06
1.301807e-05
-2.618059e-07
-1.797985e-06
8.398793e-07
-2.36424e-06
9.143383e-06
8.294259e-09
9.008305e-06
1.598184e-08
8.867809e-06
2.160083e-08
8.725708e-06
2.556224e-08
8.586974e-06
2.819151e-08
8.453588e-06
2.971903e-08
8.326063e-06
3.035384e-08
8.204355e-06
3.02414e-08
8.08811e-06
2.944644e-08
7.976822e-06
2.794725e-08
7.869965e-06
2.561979e-08
7.767076e-06
2.22077e-08
7.667844e-06
1.727213e-08
7.572114e-06
1.018007e-08
7.479674e-06
2.262485e-10
7.390092e-06
-1.341982e-08
7.302591e-06
-3.172733e-08
7.216018e-06
-5.59433e-08
7.12876e-06
-8.740404e-08
7.038153e-06
-1.267903e-07
6.941357e-06
-1.769174e-07
6.836411e-06
-2.434852e-07
6.723584e-06
-3.333534e-07
6.610592e-06
-4.561115e-07
6.52624e-06
-6.264056e-07
6.545148e-06
-8.631127e-07
6.858433e-06
-1.192042e-06
7.8022e-06
-1.603616e-06
1.031144e-05
-2.147165e-06
-2.561366e-06
9.252515e-06
2.466958e-08
-1.158926e-11
9.270005e-06
-1.868646e-09
-1.478602e-11
9.303932e-06
-1.307769e-08
-1.090103e-11
9.342214e-06
-1.389275e-08
-1.716728e-12
9.382134e-06
-1.325632e-08
1.140401e-11
9.422178e-06
-1.204033e-08
2.662814e-11
9.461409e-06
-1.048043e-08
4.195612e-11
9.499567e-06
-8.918667e-09
5.502655e-11
9.536826e-06
-7.431235e-09
6.31465e-11
9.573647e-06
-5.850431e-09
6.309307e-11
9.610689e-06
-3.732748e-09
5.097568e-11
9.648723e-06
-1.877781e-10
2.184507e-11
9.687417e-06
7.377693e-09
-3.143593e-11
9.724158e-06
2.386685e-08
-1.170062e-10
9.758584e-06
4.87825e-08
-2.470709e-10
9.790045e-06
8.334917e-08
-4.366379e-10
9.818522e-06
1.280754e-07
-7.090804e-10
9.846601e-06
1.806699e-07
-1.093702e-09
9.87475e-06
2.445181e-07
-1.633235e-09
9.902933e-06
3.225903e-07
-2.379029e-09
9.929908e-06
4.186324e-07
-3.404387e-09
9.951785e-06
5.370831e-07
-4.791035e-09
9.960032e-06
6.822749e-07
-6.669391e-09
9.938258e-06
8.573614e-07
-9.024787e-09
9.852726e-06
1.067781e-06
-1.173086e-08
9.635092e-06
1.326306e-06
-1.437231e-08
9.150644e-06
1.655992e-06
-1.583699e-08
8.155283e-06
2.121133e-06
-1.53394e-08
6.118591e-06
2.839676e-06
-8.876512e-09
4.210769e-06
4.942847e-10
9.355472e-06
-5.331459e-08
-3.704697e-11
9.457199e-06
-8.702588e-08
-7.776938e-11
9.571833e-06
-1.051775e-07
-1.226648e-10
9.69864e-06
-1.138679e-07
-1.726956e-10
9.832013e-06
-1.168377e-07
-2.288314e-10
9.96839e-06
-1.167918e-07
-2.92396e-10
1.010563e-05
-1.151822e-07
-3.649259e-10
1.024213e-05
-1.128033e-07
-4.483294e-10
1.037673e-05
-1.100839e-07
-5.44871e-10
1.050849e-05
-1.071964e-07
-6.574345e-10
1.063676e-05
-1.040907e-07
-7.894315e-10
1.076115e-05
-1.004108e-07
-9.451726e-10
1.088199e-05
-9.456855e-08
-1.129279e-09
1.100131e-05
-8.354455e-08
-1.347515e-09
1.111968e-05
-6.578494e-08
-1.606303e-09
1.123776e-05
-3.946497e-08
-1.910993e-09
1.13551e-05
-2.192631e-09
-2.271897e-09
1.146899e-05
4.726025e-08
-2.70586e-09
1.157828e-05
1.11821e-07
-3.229763e-09
1.168145e-05
1.958712e-07
-3.861351e-09
1.177586e-05
3.053532e-07
-4.619876e-09
1.185638e-05
4.477901e-07
-5.50987e-09
1.191288e-05
6.316622e-07
-6.478033e-09
1.192476e-05
8.664717e-07
-7.48402e-09
1.185019e-05
1.167763e-06
-8.273183e-09
1.161239e-05
1.562179e-06
-8.416366e-09
1.106351e-05
2.097955e-06
-6.771115e-09
1.000245e-05
2.851585e-06
-1.8886e-09
7.93013e-06
4.068073e-06
1.097597e-08
5.760302e-06
2.149974e-08
9.362036e-06
-1.378427e-07
-3.972483e-11
9.44664e-06
-1.549911e-07
-8.308663e-11
9.529275e-06
-1.651344e-07
-1.320044e-10
9.612514e-06
-1.700074e-07
-1.882852e-10
9.694698e-06
-1.687957e-07
-2.535282e-10
9.774872e-06
-1.646903e-07
-3.295233e-10
9.85252e-06
-1.593873e-07
-4.183857e-10
9.927172e-06
-1.535943e-07
-5.225209e-10
9.99837e-06
-1.477187e-07
-6.449142e-10
1.006565e-05
-1.419625e-07
-7.890373e-10
1.012847e-05
-1.363671e-07
-9.592504e-10
1.018622e-05
-1.308105e-07
-1.160553e-09
1.023881e-05
-1.247762e-07
-1.39918e-09
1.028743e-05
-1.173083e-07
-1.682463e-09
1.033357e-05
-1.078385e-07
-2.019445e-09
1.037946e-05
-9.589108e-08
-2.415302e-09
1.042902e-05
-8.121503e-08
-2.884933e-09
1.048556e-05
-6.215413e-08
-3.43507e-09
1.055146e-05
-3.565289e-08
-4.066959e-09
1.062537e-05
4.79632e-09
-4.786028e-09
1.070558e-05
6.421028e-08
-5.593967e-09
1.079343e-05
1.461234e-07
-6.461829e-09
1.088808e-05
2.586284e-07
-7.292448e-09
1.0982e-05
4.134178e-07
-7.982116e-09
1.105404e-05
6.292639e-07
-8.243142e-09
1.106091e-05
9.370881e-07
-7.62193e-09
1.090449e-05
1.401952e-06
-4.847701e-09
1.045804e-05
2.104001e-06
1.063592e-09
9.291172e-06
3.419854e-06
1.711681e-08
5.068993e-06
3.173379e-08
9.13942e-06
-3.976161e-11
9.000477e-06
-8.244952e-11
8.857056e-06
-1.300741e-10
8.712778e-06
-1.846335e-10
8.572403e-06
-2.480429e-10
8.437735e-06
-3.225568e-10
8.309092e-06
-4.105936e-10
8.186233e-06
-5.151365e-10
8.068578e-06
-6.395333e-10
7.955328e-06
-7.880799e-10
7.845523e-06
-9.656734e-10
7.738074e-06
-1.178658e-09
7.631979e-06
-1.434268e-09
7.526566e-06
-1.741989e-09
7.42104e-06
-2.112976e-09
7.314253e-06
-2.553755e-09
7.204364e-06
-3.080864e-09
7.089946e-06
-3.710438e-09
6.971322e-06
-4.460219e-09
6.854616e-06
-5.321003e-09
6.748148e-06
-6.263911e-09
6.657986e-06
-7.241482e-09
6.59132e-06
-8.088804e-09
6.557092e-06
-8.525645e-09
6.567926e-06
-8.023258e-09
6.647543e-06
-5.705173e-09
6.857131e-06
2.664032e-10
7.347264e-06
1.02464e-08
8.590819e-06
2.914457e-08
4.57716e-08
9.252521e-06
2.466203e-08
-8.246541e-09
9.270018e-06
-1.87718e-09
-1.565142e-08
9.303951e-06
-1.308541e-08
-2.086544e-08
9.342237e-06
-1.389856e-08
-2.43902e-08
9.382156e-06
-1.326011e-08
-2.664473e-08
9.422194e-06
-1.204237e-08
-2.796526e-08
9.461415e-06
-1.04814e-08
-2.869263e-08
9.499556e-06
-8.919441e-09
-2.916186e-08
9.536792e-06
-7.432837e-09
-2.973446e-08
9.573578e-06
-5.854208e-09
-3.08652e-08
9.610573e-06
-3.739728e-09
-3.31988e-08
9.648541e-06
-1.99799e-10
-3.774338e-08
9.687144e-06
7.357746e-09
-4.598943e-08
9.72376e-06
2.383261e-08
-6.056638e-08
9.758026e-06
4.872044e-08
-8.323294e-08
9.789271e-06
8.325754e-08
-1.149427e-07
9.817463e-06
1.279417e-07
-1.568428e-07
9.845159e-06
1.804768e-07
-2.092717e-07
9.8728e-06
2.442416e-07
-2.735138e-07
9.900294e-06
3.22191e-07
-3.520693e-07
9.926325e-06
4.180582e-07
-4.474897e-07
9.946872e-06
5.362284e-07
-5.615734e-07
9.953992e-06
6.800503e-07
-6.93841e-07
9.932103e-06
8.525779e-07
-8.39734e-07
9.849172e-06
1.05858e-06
-9.874128e-07
9.63913e-06
1.310916e-06
-1.115305e-06
9.169409e-06
1.634064e-06
-1.180265e-06
8.199555e-06
2.091158e-06
-1.13671e-06
6.205092e-06
2.806408e-06
-8.208493e-07
4.162478e-06
-2.924173e-07
9.355466e-06
-5.331899e-08
-8.582799e-09
9.457186e-06
-8.703241e-08
-1.666196e-08
9.57181e-06
-1.051846e-07
-2.266127e-08
9.698606e-06
-1.138746e-07
-2.700282e-08
9.831965e-06
-1.168439e-07
-3.001141e-08
9.968325e-06
-1.167977e-07
-3.190559e-08
1.010554e-05
-1.151884e-07
-3.287762e-08
1.024202e-05
-1.12811e-07
-3.304717e-08
1.037658e-05
-1.100945e-07
-3.244799e-08
1.05083e-05
-1.072117e-07
-3.102823e-08
1.063652e-05
-1.04113e-07
-2.864554e-08
1.076084e-05
-1.004434e-07
-2.503575e-08
1.088159e-05
-9.461783e-08
-1.991364e-08
1.10008e-05
-8.362063e-08
-1.311264e-08
1.111904e-05
-6.590878e-08
-5.233113e-09
1.123697e-05
-3.963846e-08
3.047221e-09
1.135414e-05
-2.438942e-09
1.093084e-08
1.146786e-05
4.691035e-08
1.712168e-08
1.1577e-05
1.113295e-07
2.052957e-08
1.168011e-05
1.951761e-07
2.003414e-08
1.177465e-05
3.043625e-07
1.453388e-08
1.18557e-05
4.463139e-07
3.337401e-09
1.191368e-05
6.283568e-07
-1.277573e-08
1.192885e-05
8.596925e-07
-2.97862e-08
1.186092e-05
1.15481e-06
-3.661142e-08
1.163536e-05
1.540135e-06
-1.213483e-08
1.110812e-05
2.065155e-06
8.932207e-08
1.008307e-05
2.804754e-06
3.094996e-07
8.071284e-06
4.009292e-06
8.198872e-07
5.682397e-06
1.384431e-06
9.362031e-06
-1.378445e-07
-8.614825e-09
9.446626e-06
-1.54994e-07
-1.67381e-08
9.529248e-06
-1.651379e-07
-2.282128e-08
9.612471e-06
-1.700112e-07
-2.729422e-08
9.694634e-06
-1.687998e-07
-3.048105e-08
9.774785e-06
-1.646948e-07
-3.260193e-08
9.852404e-06
-1.593926e-07
-3.385428e-08
9.927019e-06
-1.536011e-07
-3.436802e-08
9.998173e-06
-1.477278e-07
-3.418874e-08
1.00654e-05
-1.41975e-07
-3.327211e-08
1.012815e-05
-1.363843e-07
-3.146331e-08
1.018582e-05
-1.308347e-07
-2.84572e-08
1.023829e-05
-1.248107e-07
-2.371056e-08
1.028677e-05
-1.173594e-07
-1.644173e-08
1.033272e-05
-1.079179e-07
-5.991692e-09
1.037838e-05
-9.599915e-08
8.265645e-09
1.042766e-05
-8.136509e-08
2.673092e-08
1.048389e-05
-6.238357e-08
4.960399e-08
1.054952e-05
-3.603173e-08
7.763256e-08
1.062332e-05
4.203315e-09
1.123698e-07
1.070372e-05
6.332629e-08
1.550132e-07
1.079236e-05
1.44728e-07
2.064573e-07
1.088856e-05
2.55962e-07
2.688801e-07
1.098534e-05
4.080614e-07
3.468264e-07
1.106293e-05
6.185823e-07
4.503309e-07
1.108146e-05
9.169398e-07
5.970065e-07
1.095067e-05
1.367471e-06
8.235531e-07
1.055337e-05
2.048843e-06
1.154239e-06
9.480865e-06
3.336829e-06
1.762104e-06
4.951736e-06
2.340334e-06
9.139416e-06
-8.371174e-09
9.000464e-06
-1.614091e-08
8.85703e-06
-2.185166e-08
8.712735e-06
-2.591836e-08
8.57234e-06
-2.867022e-08
8.437645e-06
-3.034203e-08
8.30897e-06
-3.114758e-08
8.18607e-06
-3.12381e-08
8.068366e-06
-3.06849e-08
7.955055e-06
-2.947455e-08
7.845174e-06
-2.749259e-08
7.737631e-06
-2.449483e-08
7.631418e-06
-2.00565e-08
7.525852e-06
-1.356279e-08
7.420122e-06
-4.32809e-09
7.313091e-06
8.449716e-09
7.202923e-06
2.569364e-08
7.088201e-06
4.859843e-08
6.969223e-06
7.84569e-08
6.852156e-06
1.159212e-07
6.745537e-06
1.636505e-07
6.655738e-06
2.272531e-07
6.590133e-06
3.134372e-07
6.557908e-06
4.317072e-07
6.572765e-06
5.956492e-07
6.662654e-06
8.212866e-07
6.897919e-06
1.132427e-06
7.442762e-06
1.514248e-06
8.805643e-06
2.003108e-06
2.364063e-06
9.25628e-06
2.471748e-08
-2.029449e-08
9.277261e-06
-1.811719e-09
-3.483798e-08
9.313583e-06
-1.306533e-08
-4.412903e-08
9.353378e-06
-1.406716e-08
-5.012092e-08
9.394129e-06
-1.378554e-08
-5.360691e-08
9.434443e-06
-1.313014e-08
-5.514632e-08
9.473456e-06
-1.239386e-08
-5.530785e-08
9.510879e-06
-1.19937e-08
-5.458786e-08
9.546728e-06
-1.21098e-08
-5.34706e-08
9.581115e-06
-1.272966e-08
-5.251915e-08
9.614119e-06
-1.369012e-08
-5.251166e-08
9.645525e-06
-1.467472e-08
-5.447286e-08
9.674446e-06
-1.519118e-08
-5.972143e-08
9.698876e-06
-1.493839e-08
-7.005892e-08
9.716964e-06
-1.44644e-08
-8.686264e-08
9.727529e-06
-1.472924e-08
-1.107805e-07
9.730276e-06
-1.741444e-08
-1.421825e-07
9.726599e-06
-2.467986e-08
-1.809173e-07
9.718779e-06
-3.860822e-08
-2.270907e-07
9.709889e-06
-6.177126e-08
-2.814072e-07
9.704238e-06
-9.735141e-08
-3.444901e-07
9.707717e-06
-1.49101e-07
-4.159512e-07
9.727045e-06
-2.198905e-07
-4.932878e-07
9.768215e-06
-3.105393e-07
-5.703856e-07
9.83222e-06
-4.157647e-07
-6.356837e-07
9.905101e-06
-5.164086e-07
-6.718341e-07
9.923407e-06
-5.465191e-07
-6.521054e-07
9.728035e-06
-3.814416e-07
-5.599414e-07
8.866667e-06
3.377864e-07
-2.972772e-07
1.787316e-06
6.59887e-08
9.359512e-06
-5.333065e-08
-2.110676e-08
9.465111e-06
-8.706424e-08
-3.702853e-08
9.582661e-06
-1.053057e-07
-4.798417e-08
9.711618e-06
-1.141907e-07
-5.584754e-08
9.846598e-06
-1.17497e-07
-6.12874e-08
9.984234e-06
-1.179713e-07
-6.47082e-08
1.012257e-05
-1.171196e-07
-6.649265e-08
1.026019e-05
-1.158114e-07
-6.686074e-08
1.039608e-05
-1.145799e-07
-6.587692e-08
1.052954e-05
-1.137479e-07
-6.347668e-08
1.066017e-05
-1.134941e-07
-5.948164e-08
1.078796e-05
-1.139186e-07
-5.360081e-08
1.091342e-05
-1.150915e-07
-4.547996e-08
1.103744e-05
-1.17268e-07
-3.482313e-08
1.116072e-05
-1.212939e-07
-2.169797e-08
1.128383e-05
-1.284718e-07
-6.332234e-09
1.140712e-05
-1.406663e-07
1.088138e-08
1.153067e-05
-1.604286e-07
2.93019e-08
1.16549e-05
-1.907861e-07
4.846219e-08
1.17805e-05
-2.353157e-07
6.796796e-08
1.190847e-05
-2.982917e-07
8.750256e-08
1.204013e-05
-3.846565e-07
1.072025e-07
1.21774e-05
-4.983211e-07
1.283816e-07
1.232316e-05
-6.408861e-07
1.54757e-07
1.248268e-05
-8.063084e-07
1.943966e-07
1.266389e-05
-9.70481e-07
2.606698e-07
1.287786e-05
-1.049881e-06
3.786807e-07
1.312926e-05
-8.925302e-07
5.691513e-07
1.34013e-05
-3.747653e-08
9.231204e-07
1.424598e-06
1.209184e-06
9.366042e-06
-1.378659e-07
-2.119074e-08
9.454482e-06
-1.550468e-07
-3.721702e-08
9.54001e-06
-1.652895e-07
-4.838669e-08
9.625389e-06
-1.703033e-07
-5.657891e-08
9.709159e-06
-1.69295e-07
-6.24732e-08
9.79054e-06
-1.65476e-07
-6.649669e-08
9.869179e-06
-1.605625e-07
-6.90721e-08
9.944761e-06
-1.55297e-07
-7.048535e-08
1.0017e-05
-1.501391e-07
-7.088744e-08
1.008564e-05
-1.453717e-07
-7.031401e-08
1.01505e-05
-1.411624e-07
-6.868207e-08
1.02115e-05
-1.376236e-07
-6.577507e-08
1.026876e-05
-1.348785e-07
-6.120924e-08
1.032265e-05
-1.331671e-07
-5.445504e-08
1.037342e-05
-1.33064e-07
-4.502644e-08
1.042115e-05
-1.354636e-07
-3.250464e-08
1.046549e-05
-1.41691e-07
-1.660788e-08
1.050539e-05
-1.536143e-07
2.86278e-09
1.053952e-05
-1.737003e-07
2.63762e-08
1.05666e-05
-2.048885e-07