/*--------------------------------*- C++ -*----------------------------------*\
| =========                 |                                                 |
| \\      /  F ield         | OpenFOAM: The Open Source CFD Toolbox           |
|  \\    /   O peration     | Version:  v2012                                 |
|   \\  /    A nd           | Website:  www.openfoam.com                      |
|    \\/     M anipulation  |                                                 |
\*---------------------------------------------------------------------------*/
FoamFile
{
    version     2.0;
    format      ascii;
    class       volScalarField;
    location    "300/topAir";
    object      rho;
}
// * * * * * * * * * * * * * * * * * * * * * * * * * * * * * * * * * * * * * //

dimensions      [1 -3 0 0 0 0 0];


internalField   nonuniform List<scalar> 
1200
(
1.147222
1.136301
1.126148
1.116631
1.107641
1.099082
1.090879
1.083007
1.075424
1.068101
1.061026
1.054226
1.047735
1.041615
1.035916
1.030724
1.026124
1.022176
1.018962
1.016549
1.014989
1.014318
1.01454
1.015609
1.017402
1.019689
1.022081
1.024004
1.024353
1.022483
1.158343
1.157853
1.157159
1.156283
1.155243
1.154053
1.152715
1.151185
1.149447
1.147475
1.145238
1.142692
1.139775
1.136456
1.132682
1.128369
1.123419
1.117793
1.111529
1.10474
1.097645
1.090566
1.083859
1.077819
1.07256
1.067899
1.063195
1.057297
1.049915
1.041447
1.158613
1.158596
1.158565
1.158517
1.158448
1.158355
1.158237
1.15809
1.157909
1.157691
1.157429
1.157116
1.156743
1.156241
1.155523
1.154493
1.153021
1.150929
1.147995
1.143984
1.138717
1.132168
1.124525
1.116169
1.107546
1.098974
1.090429
1.081331
1.07087
1.058478
1.158618
1.158618
1.158616
1.158614
1.158609
1.158603
1.158593
1.158578
1.158559
1.158533
1.158498
1.158454
1.158397
1.158322
1.158222
1.158083
1.157854
1.157445
1.156708
1.155399
1.153167
1.149608
1.144425
1.137597
1.129406
1.12025
1.11033
1.099397
1.086637
1.07259
1.147238
1.136446
1.12652
1.117313
1.108711
1.100614
1.092947
1.08565
1.078685
1.072034
1.0657
1.059692
1.054064
1.048906
1.044311
1.040412
1.037347
1.035211
1.034085
1.033996
1.034923
1.036796
1.039497
1.042848
1.0466
1.050395
1.053693
1.055665
1.054275
1.051188
1.158342
1.157862
1.157193
1.156364
1.155396
1.154309
1.153119
1.151837
1.150474
1.149041
1.147548
1.146007
1.144433
1.142845
1.141271
1.139749
1.138329
1.137036
1.135884
1.134899
1.134099
1.13348
1.133014
1.132634
1.132216
1.131573
1.130454
1.128592
1.123804
1.112224
1.158613
1.158597
1.158567
1.158522
1.158459
1.158377
1.158276
1.158152
1.158007
1.15784
1.157649
1.157435
1.157196
1.156932
1.156638
1.156309
1.155934
1.155499
1.154978
1.154334
1.153517
1.152454
1.151033
1.149065
1.146255
1.142206
1.136436
1.128537
1.117916
1.104591
1.158618
1.158618
1.158616
1.158614
1.15861
1.158604
1.158596
1.158585
1.158569
1.15855
1.158525
1.158494
1.158457
1.158411
1.158356
1.158288
1.158201
1.158083
1.157904
1.157602
1.15705
1.156009
1.1541
1.150838
1.14576
1.138579
1.129209
1.117692
1.103864
1.090445
1.147239
1.136429
1.126485
1.117267
1.108656
1.100551
1.092866
1.085531
1.078494
1.071718
1.065185
1.0589
1.052907
1.04731
1.042255
1.037942
1.034567
1.032283
1.03121
1.031416
1.032941
1.035792
1.039927
1.045235
1.051484
1.058269
1.064898
1.070375
1.072844
1.07106
1.158342
1.157861
1.157191
1.15636
1.155394
1.154311
1.153128
1.151858
1.150514
1.149107
1.147649
1.146152
1.144629
1.143101
1.141593
1.140137
1.138773
1.137545
1.136504
1.135699
1.135181
1.134992
1.135159
1.135677
1.136477
1.137372
1.137973
1.137674
1.135481
1.130851
1.158613
1.158597
1.158567
1.158522
1.158459
1.158378
1.158277
1.158156
1.158015
1.157853
1.15767
1.157467
1.157245
1.157004
1.156746
1.156474
1.156191
1.155902
1.155611
1.155324
1.155047
1.154781
1.154516
1.154205
1.153708
1.152701
1.150581
1.146585
1.139968
1.131522
1.158618
1.158618
1.158616
1.158614
1.15861
1.158604
1.158596
1.158585
1.158571
1.158552
1.158529
1.1585
1.158466
1.158426
1.158379
1.158325
1.158263
1.158191
1.158107
1.158004
1.157866
1.157649
1.157251
1.156453
1.154828
1.151678
1.146093
1.137323
1.124989
1.111831
1.147236
1.136413
1.126445
1.117189
1.108524
1.100341
1.092547
1.085055
1.077791
1.070684
1.06367
1.05669
1.049704
1.042749
1.036059
1.029898
1.024522
1.020146
1.016811
1.014528
1.013334
1.013297
1.014494
1.016949
1.020551
1.024915
1.029048
1.031181
1.02973
1.026793
1.158342
1.15786
1.157187
1.156353
1.155381
1.154289
1.153092
1.151804
1.150434
1.14899
1.147477
1.145899
1.144259
1.142559
1.140808
1.139018
1.13721
1.135416
1.13367
1.132016
1.130508
1.12921
1.128189
1.127455
1.127
1.126674
1.125759
1.123043
1.113646
1.09527
1.158613
1.158597
1.158567
1.158521
1.158458
1.158377
1.158275
1.158152
1.158009
1.157844
1.157657
1.157449
1.157218
1.156964
1.156689
1.156391
1.156072
1.155731
1.155367
1.154974
1.154542
1.15405
1.15346
1.152698
1.151627
1.149976
1.147204
1.14245
1.133904
1.119975
1.158618
1.158618
1.158616
1.158614
1.15861
1.158604
1.158596
1.158585
1.15857
1.158551
1.158528
1.158499
1.158465
1.158424
1.158376
1.158321
1.158257
1.158184
1.158102
1.158006
1.157891
1.157743
1.157526
1.157167
1.156503
1.155198
1.152592
1.147731
1.139395
1.128593
1.147232
1.136402
1.126421
1.117147
1.108457
1.100239
1.092393
1.084823
1.077441
1.070152
1.062845
1.055377
1.047584
1.039197
1.031043
1.023545
1.017079
1.012221
1.008502
1.005647
1.003499
1.001974
1.00105
1.000742
1.001075
1.002012
1.00333
1.004497
1.004419
1.002159
1.158341
1.157859
1.157186
1.15635
1.155374
1.154278
1.153076
1.151779
1.150396
1.148933
1.147391
1.145767
1.143984
1.141931
1.13951
1.136616
1.133149
1.129161
1.124619
1.119479
1.113697
1.107236
1.100091
1.092346
1.084076
1.075302
1.06611
1.056258
1.045036
1.031008
1.158613
1.158597
1.158567
1.158521
1.158458
1.158376
1.158273
1.15815
1.158006
1.157839
1.15765
1.157438
1.1572
1.156931
1.156626
1.156275
1.155865
1.155271
1.154409
1.153164
1.151401
1.148924
1.145491
1.140833
1.134653
1.126621
1.116357
1.10336
1.086595
1.065589
1.158618
1.158618
1.158616
1.158614
1.15861
1.158604
1.158596
1.158585
1.15857
1.158551
1.158527
1.158498
1.158463
1.158421
1.158371
1.158312
1.158243
1.158157
1.158046
1.157895
1.157636
1.157187
1.156399
1.155026
1.152672
1.148731
1.142306
1.132297
1.116988
1.097682
1.147231
1.1364
1.126418
1.117143
1.108451
1.100233
1.092386
1.084816
1.077433
1.070143
1.062835
1.055367
1.047573
1.039187
1.031032
1.023534
1.017069
1.012213
1.008497
1.005648
1.003509
1.001999
1.001098
1.000828
1.001218
1.002236
1.003663
1.00496
1.004983
1.00282
1.158341
1.157859
1.157186
1.15635
1.155374
1.154278
1.153075
1.151778
1.150395
1.148932
1.14739
1.145766
1.143983
1.14193
1.13951
1.136617
1.133152
1.129164
1.124625
1.119489
1.113712
1.10726
1.100164
1.0925
1.08435
1.075709
1.066625
1.056914
1.045845
1.032029
1.158613
1.158597
1.158567
1.158521
1.158458
1.158376
1.158273
1.15815
1.158006
1.157839
1.15765
1.157438
1.1572
1.156931
1.156626
1.156275
1.155865
1.155272
1.154411
1.153168
1.151409
1.148938
1.145523
1.140904
1.134804
1.126904
1.11682
1.104067
1.087603
1.067016
1.158618
1.158618
1.158616
1.158614
1.15861
1.158604
1.158596
1.158585
1.15857
1.158551
1.158527
1.158498
1.158463
1.158421
1.158371
1.158312
1.158243
1.158157
1.158046
1.157895
1.157638
1.157191
1.156409
1.155052
1.152739
1.148889
1.14264
1.132934
1.118091
1.099426
1.147232
1.136406
1.126434
1.117175
1.108507
1.100322
1.092525
1.085031
1.077765
1.070657
1.063641
1.056658
1.049671
1.042716
1.036025
1.029864
1.02449
1.020118
1.016791
1.014524
1.013356
1.013363
1.014623
1.017166
1.020889
1.025422
1.0298
1.032251
1.030766
1.027807
1.158341
1.157859
1.157187
1.156353
1.15538
1.154287
1.153091
1.151802
1.150432
1.148987
1.147473
1.145895
1.144255
1.142555
1.140803
1.139014
1.137208
1.135416
1.133676
1.132033
1.130543
1.129272
1.128266
1.127557
1.127143
1.126917
1.1262
1.123723
1.114876
1.096964
1.158613
1.158597
1.158567
1.158521
1.158458
1.158376
1.158275
1.158152
1.158009
1.157844
1.157657
1.157448
1.157217
1.156964
1.156688
1.156391
1.156072
1.155731
1.155368
1.154977
1.154549
1.154064
1.153488
1.152751
1.151721
1.150138
1.147472
1.142878
1.13469
1.121268
1.158618
1.158618
1.158616
1.158614
1.15861
1.158604
1.158596
1.158585
1.15857
1.158551
1.158528
1.158499
1.158465
1.158424
1.158376
1.15832
1.158257
1.158184
1.158101
1.158006
1.157892
1.157745
1.157532
1.157181
1.15653
1.155238
1.152647
1.147803
1.139497
1.128917
1.147232
1.136417
1.126467
1.117244
1.108629
1.10052
1.09283
1.085492
1.078452
1.071672
1.065136
1.058848
1.052854
1.047256
1.042202
1.03789
1.03452
1.032244
1.031182
1.031404
1.032952
1.035833
1.040008
1.045366
1.051676
1.05853
1.065236
1.070803
1.073428
1.071955
1.158342
1.15786
1.15719
1.156359
1.155392
1.154309
1.153125
1.151854
1.15051
1.149102
1.147643
1.146145
1.144622
1.143093
1.141585
1.140129
1.138766
1.137541
1.136503
1.135704
1.135194
1.135017
1.135199
1.135735
1.136553
1.137464
1.138069
1.137761
1.135596
1.131013
1.158613
1.158597
1.158567
1.158522
1.158459
1.158378
1.158277
1.158156
1.158015
1.157852
1.15767
1.157466
1.157244
1.157003
1.156745
1.156472
1.156189
1.1559
1.155609
1.155322
1.155045
1.154778
1.154511
1.154192
1.153673
1.152611
1.150372
1.146169
1.139267
1.13053
1.158618
1.158618
1.158616
1.158614
1.15861
1.158604
1.158596
1.158585
1.158571
1.158552
1.158529
1.1585
1.158466
1.158426
1.158379
1.158325
1.158262
1.15819
1.158106
1.158002
1.15786
1.157636
1.157219
1.156373
1.154647
1.151317
1.145433
1.136233
1.123369
1.109702
1.14723
1.136431
1.126497
1.117283
1.108674
1.100572
1.092898
1.085595
1.078625
1.07197
1.065631
1.059619
1.053989
1.048829
1.044233
1.040335
1.037272
1.035142
1.034023
1.033942
1.034878
1.036761
1.03947
1.042829
1.046587
1.050389
1.053698
1.055681
1.054303
1.051238
1.158341
1.157861
1.157192
1.156362
1.155394
1.154306
1.153115
1.151832
1.150468
1.149033
1.147539
1.145997
1.14442
1.142831
1.141255
1.139732
1.138312
1.13702
1.135868
1.134884
1.134084
1.133465
1.132997
1.132609
1.132178
1.131512
1.130359
1.128445
1.123517
1.111818
1.158613
1.158597
1.158567
1.158522
1.158459
1.158377
1.158275
1.158152
1.158007
1.157839
1.157648
1.157433
1.157195
1.15693
1.156635
1.156305
1.155929
1.155491
1.154965
1.154314
1.153486
1.152406
1.150959
1.148948
1.146073
1.141931
1.136039
1.127988
1.117204
1.103712
1.158618
1.158618
1.158616
1.158614
1.15861
1.158604
1.158596
1.158585
1.158569
1.15855
1.158525
1.158494
1.158457
1.158411
1.158355
1.158287
1.1582
1.15808
1.157898
1.15759
1.157022
1.155949
1.153979
1.150616
1.145393
1.138034
1.128466
1.116737
1.102687
1.089086
1.147217
1.136287
1.126124
1.116598
1.107598
1.099029
1.090817
1.082937
1.075346
1.068016
1.060934
1.054128
1.047631
1.041508
1.035805
1.030609
1.026007
1.022058
1.018844
1.016432
1.014876
1.014212
1.014444
1.015525
1.017331
1.019631
1.022033
1.023958
1.024291
1.022381
1.158343
1.157853
1.157158
1.156281
1.15524
1.154049
1.152709
1.151176
1.149433
1.147456
1.145211
1.142655
1.139726
1.136392
1.1326
1.128264
1.123286
1.117625
1.111324
1.104495
1.097364
1.090256
1.083532
1.077489
1.072238
1.06759
1.062894
1.056986
1.049635
1.041196
1.158613
1.158596
1.158565
1.158517
1.158447
1.158355
1.158237
1.15809
1.157909
1.157689
1.157427
1.157113
1.156739
1.156232
1.155509
1.154469
1.152981
1.150866
1.147897
1.143836
1.138506
1.131884
1.124166
1.115746
1.107078
1.098485
1.089936
1.080843
1.070408
1.058046
1.158618
1.158618
1.158616
1.158614
1.158609
1.158603
1.158593
1.158578
1.158559
1.158532
1.158498
1.158453
1.158396
1.158322
1.158221
1.15808
1.157849
1.157433
1.156682
1.155347
1.153066
1.14943
1.144144
1.137199
1.128898
1.119656
1.109675
1.0987
1.085912
1.071848
)
;

boundaryField
{
    maxY
    {
        type            calculated;
        value           nonuniform List<scalar> 
300
(
1.158618
1.158618
1.158618
1.158618
1.158618
1.158618
1.158618
1.158618
1.158618
1.158618
1.158617
1.158617
1.158617
1.158617
1.158617
1.158617
1.158617
1.158617
1.158617
1.158617
1.158616
1.158616
1.158616
1.158616
1.158616
1.158616
1.158616
1.158616
1.158616
1.158616
1.158613
1.158613
1.158613
1.158613
1.158613
1.158613
1.158613
1.158613
1.158613
1.158613
1.158609
1.15861
1.15861
1.15861
1.15861
1.15861
1.15861
1.15861
1.15861
1.158609
1.158602
1.158604
1.158604
1.158604
1.158604
1.158604
1.158604
1.158604
1.158604
1.158602
1.158592
1.158596
1.158596
1.158596
1.158595
1.158595
1.158596
1.158596
1.158596
1.158592
1.158578
1.158584
1.158585
1.158584
1.158584
1.158584
1.158584
1.158585
1.158584
1.158578
1.158558
1.158569
1.15857
1.15857
1.158569
1.158569
1.15857
1.15857
1.158569
1.158558
1.158532
1.158549
1.158551
1.158551
1.15855
1.15855
1.158551
1.158551
1.158549
1.158532
1.158498
1.158525
1.158528
1.158527
1.158527
1.158527
1.158527
1.158528
1.158525
1.158497
1.158453
1.158494
1.1585
1.158499
1.158497
1.158497
1.158498
1.1585
1.158494
1.158453
1.158396
1.158456
1.158466
1.158464
1.158462
1.158462
1.158464
1.158466
1.158456
1.158396
1.158322
1.158411
1.158426
1.158423
1.158421
1.15842
1.158423
1.158426
1.15841
1.158321
1.158222
1.158355
1.158379
1.158375
1.158371
1.158371
1.158375
1.158379
1.158355
1.15822
1.158082
1.158287
1.158324
1.15832
1.158312
1.158312
1.15832
1.158324
1.158286
1.15808
1.157854
1.1582
1.158262
1.158256
1.158242
1.158242
1.158256
1.158262
1.158199
1.157848
1.157444
1.158082
1.15819
1.158184
1.158156
1.158156
1.158184
1.15819
1.158079
1.157432
1.156707
1.157903
1.158106
1.158101
1.158046
1.158046
1.158101
1.158105
1.157898
1.156682
1.155399
1.157601
1.158004
1.158006
1.157894
1.157895
1.158006
1.158001
1.157589
1.155346
1.153166
1.157049
1.157865
1.157891
1.157636
1.157637
1.157891
1.15786
1.157022
1.153065
1.149607
1.156008
1.157648
1.157742
1.157186
1.15719
1.157744
1.157635
1.155948
1.14943
1.144424
1.154099
1.157251
1.157526
1.156399
1.156408
1.157531
1.157218
1.153978
1.144143
1.137596
1.150837
1.156452
1.157167
1.155026
1.155051
1.15718
1.156372
1.150615
1.137199
1.129405
1.145759
1.154827
1.156502
1.152672
1.152738
1.156529
1.154647
1.145393
1.128898
1.12025
1.138579
1.151677
1.155197
1.148731
1.148889
1.155237
1.151316
1.138034
1.119655
1.110329
1.129208
1.146093
1.152591
1.142305
1.14264
1.152647
1.145432
1.128465
1.109675
1.099396
1.117691
1.137323
1.147731
1.132296
1.132934
1.147802
1.136232
1.116736
1.098699
1.086636
1.103863
1.124989
1.139395
1.116987
1.118091
1.139496
1.123368
1.102686
1.085912
1.072589
1.090445
1.11183
1.128592
1.097681
1.099426
1.128916
1.109702
1.089086
1.071848
)
;
    }
    minX
    {
        type            calculated;
        value           nonuniform List<scalar> 
40
(
1.158621
1.15862
1.158619
1.158618
1.158621
1.15862
1.158619
1.158618
1.158621
1.15862
1.158619
1.158618
1.158621
1.15862
1.158619
1.158618
1.158621
1.15862
1.158619
1.158618
1.158621
1.15862
1.158619
1.158618
1.158621
1.15862
1.158619
1.158618
1.158621
1.15862
1.158619
1.158618
1.158621
1.15862
1.158619
1.158618
1.158621
1.15862
1.158619
1.158618
)
;
    }
    maxX
    {
        type            calculated;
        value           nonuniform List<scalar> 
40
(
1.022705
1.041648
1.058685
1.072795
1.051367
1.11228
1.104754
1.090677
1.071166
1.130933
1.13167
1.112091
1.027027
1.095406
1.120096
1.128736
1.00248
1.031283
1.065813
1.097866
1.003148
1.032317
1.067256
1.099627
1.028053
1.097116
1.121408
1.12907
1.072073
1.131097
1.13067
1.109938
1.05142
1.111875
1.103867
1.0893
1.022604
1.041396
1.05825
1.072045
)
;
    }
    minZ
    {
        type            calculated;
        value           nonuniform List<scalar> 
120
(
1.147222
1.158343
1.158613
1.158618
1.136301
1.157853
1.158596
1.158618
1.126148
1.157159
1.158565
1.158616
1.116631
1.156283
1.158517
1.158614
1.107641
1.155243
1.158448
1.158609
1.099082
1.154053
1.158355
1.158603
1.090879
1.152715
1.158237
1.158593
1.083007
1.151185
1.15809
1.158578
1.075424
1.149447
1.157909
1.158559
1.068101
1.147475
1.157691
1.158533
1.061026
1.145238
1.157429
1.158498
1.054226
1.142692
1.157116
1.158454
1.047735
1.139775
1.156743
1.158397
1.041615
1.136456
1.156241
1.158322
1.035916
1.132682
1.155523
1.158222
1.030724
1.128369
1.154493
1.158083
1.026124
1.123419
1.153021
1.157854
1.022176
1.117793
1.150929
1.157445
1.018962
1.111529
1.147995
1.156708
1.016549
1.10474
1.143984
1.155399
1.014989
1.097645
1.138717
1.153167
1.014318
1.090566
1.132168
1.149608
1.01454
1.083859
1.124525
1.144425
1.015609
1.077819
1.116169
1.137597
1.017402
1.07256
1.107546
1.129406
1.019689
1.067899
1.098974
1.12025
1.022081
1.063195
1.090429
1.11033
1.024004
1.057297
1.081331
1.099397
1.024353
1.049915
1.07087
1.086637
1.022483
1.041447
1.058478
1.07259
)
;
    }
    maxZ
    {
        type            calculated;
        value           nonuniform List<scalar> 
120
(
1.147217
1.158343
1.158613
1.158618
1.136287
1.157853
1.158596
1.158618
1.126124
1.157158
1.158565
1.158616
1.116598
1.156281
1.158517
1.158614
1.107598
1.15524
1.158447
1.158609
1.099029
1.154049
1.158355
1.158603
1.090817
1.152709
1.158237
1.158593
1.082937
1.151176
1.15809
1.158578
1.075346
1.149433
1.157909
1.158559
1.068016
1.147456
1.157689
1.158532
1.060934
1.145211
1.157427
1.158498
1.054128
1.142655
1.157113
1.158453
1.047631
1.139726
1.156739
1.158396
1.041508
1.136392
1.156232
1.158322
1.035805
1.1326
1.155509
1.158221
1.030609
1.128264
1.154469
1.15808
1.026007
1.123286
1.152981
1.157849
1.022058
1.117625
1.150866
1.157433
1.018844
1.111324
1.147897
1.156682
1.016432
1.104495
1.143836
1.155347
1.014876
1.097364
1.138506
1.153066
1.014212
1.090256
1.131884
1.14943
1.014444
1.083532
1.124166
1.144144
1.015525
1.077489
1.115746
1.137199
1.017331
1.072238
1.107078
1.128898
1.019631
1.06759
1.098485
1.119656
1.022033
1.062894
1.089936
1.109675
1.023958
1.056986
1.080843
1.0987
1.024291
1.049635
1.070408
1.085912
1.022381
1.041196
1.058046
1.071848
)
;
    }
    topAir_to_rightSolid
    {
        type            calculated;
        value           nonuniform List<scalar> 
130
(
0.8980891
0.9012956
0.9051609
0.9093761
0.9136777
0.9178597
0.9217556
0.9252397
0.9282167
0.9306218
0.9324047
0.933533
0.9339905
0.8947654
0.8986985
0.9032457
0.9080356
0.9127892
0.9173107
0.9214534
0.9251124
0.9282099
0.9306946
0.932525
0.9336719
0.9341155
0.8877371
0.8933796
0.8994042
0.9053513
0.9109617
0.9160976
0.9206711
0.924627
0.9279261
0.930544
0.9324571
0.9336525
0.9341185
0.8770614
0.8860484
0.8944952
0.9020985
0.9088167
0.9146882
0.9197487
0.9240262
0.9275364
0.9302907
0.9322885
0.9335323
0.9340206
0.8644768
0.8790852
0.8904446
0.899647
0.9072875
0.9137136
0.9191171
0.9236105
0.9272574
0.9300983
0.9321501
0.9334257
0.9339287
0.8644559
0.8790657
0.8904248
0.8996262
0.9072655
0.9136902
0.9190924
0.9235845
0.9272301
0.9300699
0.932121
0.9333961
0.9338987
0.8770021
0.88599
0.8944353
0.9020356
0.9087502
0.9146177
0.9196742
0.9239476
0.9274535
0.9302046
0.9322012
0.9334429
0.9339289
0.8876397
0.8932817
0.8993033
0.9052456
0.9108501
0.9159796
0.9205465
0.9244955
0.9277873
0.9303989
0.9323079
0.9334989
0.9339615
0.8946336
0.8985638
0.9031051
0.9078876
0.912633
0.9171457
0.9212793
0.9249287
0.9280161
0.9304906
0.9323107
0.9334484
0.9338873
0.8979545
0.901151
0.9050051
0.90921
0.9135015
0.9176732
0.9215584
0.925031
0.9279953
0.9303863
0.9321522
0.9332581
0.9336825
)
;
    }
    topAir_to_heater
    {
        type            calculated;
        value           nonuniform List<scalar> 
40
(
0.8962795
0.8947868
0.8946858
0.8959745
0.8923171
0.890472
0.8903685
0.8920018
0.8836506
0.8808959
0.8807947
0.8833428
0.8690434
0.8643928
0.8642977
0.8687497
0.8448693
0.8375856
0.8375103
0.8446224
0.844844
0.8375602
0.8374855
0.8445993
0.8689699
0.864322
0.8642316
0.868691
0.88354
0.8807894
0.8806929
0.8832459
0.892171
0.8903293
0.8902289
0.8918677
0.8961285
0.8946308
0.8945238
0.8958056
)
;
    }
    topAir_to_leftSolid
    {
        type            calculated;
        value           nonuniform List<scalar> 
130
(
0.9364096
0.935947
0.9347375
0.9328411
0.9303002
0.9271659
0.9235109
0.919432
0.9150584
0.9105534
0.9061327
0.902061
0.898648
0.9365995
0.9361009
0.9348527
0.9329003
0.9302759
0.9270196
0.9231893
0.9188637
0.9141509
0.909194
0.904198
0.8994418
0.8952953
0.9366215
0.936098
0.9347971
0.9327566
0.9299964
0.9265365
0.9224074
0.917649
0.9123195
0.9065025
0.9003478
0.8941116
0.8882541
0.9365797
0.9360315
0.9346772
0.9325464
0.9296443
0.9259677
0.921511
0.9162594
0.9101879
0.9032562
0.8954385
0.8867733
0.8775655
0.936531
0.9359672
0.9345791
0.9323907
0.9293971
0.9255779
0.9208994
0.9152988
0.9086663
0.9008053
0.8913835
0.8797974
0.8649563
0.9365101
0.935946
0.9345575
0.9323685
0.9293743
0.9255545
0.9208757
0.9152748
0.9086422
0.9007809
0.8913589
0.879773
0.8649326
0.936518
0.9359686
0.9346126
0.9324798
0.9295759
0.9258978
0.9214401
0.9161879
0.9101165
0.9031843
0.8953652
0.8867008
0.8774974
0.936522
0.9359954
0.9346905
0.9326461
0.9298826
0.9264201
0.9222893
0.9175299
0.9122007
0.9063838
0.9002285
0.8939949
0.8881442
0.9364709
0.9359621
0.9347053
0.932746
0.9301164
0.9268564
0.9230239
0.9186972
0.9139845
0.9090285
0.9040343
0.8992818
0.8951414
0.9363251
0.9358008
0.9345726
0.9326658
0.9301178
0.9269787
0.9233208
0.9192405
0.9148669
0.9103625
0.9059427
0.9018717
0.8984561
)
;
    }
}


// ************************************************************************* //
