/*--------------------------------*- C++ -*----------------------------------*\
| =========                 |                                                 |
| \\      /  F ield         | OpenFOAM: The Open Source CFD Toolbox           |
|  \\    /   O peration     | Version:  v2012                                 |
|   \\  /    A nd           | Website:  www.openfoam.com                      |
|    \\/     M anipulation  |                                                 |
\*---------------------------------------------------------------------------*/
FoamFile
{
    version     2.0;
    format      ascii;
    class       volScalarField;
    location    "300/topAir";
    object      T;
}
// * * * * * * * * * * * * * * * * * * * * * * * * * * * * * * * * * * * * * //

dimensions      [0 0 0 1 0 0 0];


internalField   nonuniform List<scalar> 
1200
(
302.9809
305.8929
308.6508
311.2812
313.8077
316.2516
318.6298
320.9457
323.2087
325.4247
327.5945
329.7077
331.7502
333.6995
335.5352
337.2255
338.7371
340.0456
341.1181
341.928
342.4534
342.68
342.6049
342.2443
341.6412
340.8749
340.0771
339.4385
339.3228
339.9436
300.0719
300.1988
300.3788
300.6064
300.877
301.1872
301.5368
301.9376
302.3943
302.9138
303.5055
304.1818
304.9602
305.8508
306.8698
308.0429
309.4001
310.9576
312.7097
314.6316
316.6652
318.7208
320.6931
322.4902
324.0714
325.486
326.9259
328.7496
331.0611
333.7531
300.0016
300.0059
300.014
300.0266
300.0445
300.0684
300.0989
300.1371
300.1839
300.2406
300.3086
300.3897
300.4865
300.6172
300.8038
301.0722
301.4567
302.0045
302.7763
303.838
305.2433
307.0089
309.0956
311.4097
313.8343
316.2819
318.7607
321.4424
324.5825
328.3827
300
300.0002
300.0005
300.0012
300.0023
300.004
300.0066
300.0103
300.0154
300.0222
300.0311
300.0426
300.0573
300.0766
300.1025
300.1387
300.1979
300.3041
300.4955
300.8358
301.4182
302.3514
303.7207
305.5437
307.7596
310.2749
313.0471
316.1602
319.8727
324.062
302.9768
305.8538
308.5489
311.0912
313.5051
315.8113
318.0269
320.1645
322.2316
324.2307
326.158
328.007
329.7582
331.3798
332.8379
334.0852
335.0725
335.7637
336.1293
336.1584
335.8574
335.2504
334.3793
333.3048
332.1101
330.9102
329.8743
329.2583
329.6922
330.6605
300.0722
300.1966
300.37
300.5854
300.8371
301.1204
301.4313
301.7668
302.1242
302.501
302.8945
303.3018
303.7191
304.1411
304.5605
304.9673
305.3477
305.6948
306.0049
306.2704
306.4867
306.654
306.78
306.883
306.9963
307.1708
307.4747
307.9821
309.2941
312.5145
300.0016
300.0058
300.0135
300.0252
300.0414
300.0626
300.089
300.1209
300.1585
300.2019
300.2514
300.3071
300.369
300.4376
300.5139
300.5995
300.6968
300.81
300.9458
301.1137
301.327
301.6048
301.9772
302.4945
303.2361
304.311
305.856
307.9968
310.923
314.6737
300
300.0002
300.0005
300.0011
300.0021
300.0036
300.0057
300.0087
300.0126
300.0177
300.0241
300.0321
300.0418
300.0536
300.068
300.0856
300.1081
300.1387
300.1851
300.2634
300.4067
300.6772
301.1745
302.0282
303.3668
305.2799
307.8133
310.9851
314.8807
318.7555
302.9766
305.8585
308.5584
311.1042
313.5205
315.8295
318.0504
320.1994
322.2886
324.3263
326.3156
328.2524
330.1207
331.8851
333.4945
334.8805
335.9729
336.7161
337.0666
336.9992
336.5015
335.5755
334.241
332.5439
330.5676
328.4482
326.4036
324.7331
323.986
324.5255
300.0721
300.1969
300.3707
300.5863
300.8378
301.12
301.429
301.7612
302.1137
302.4835
302.8679
303.2636
303.667
304.0729
304.4747
304.8635
305.2287
305.558
305.838
306.0546
306.1943
306.2453
306.2003
306.0608
305.8454
305.6045
305.4433
305.5235
306.1136
307.3669
300.0016
300.0059
300.0135
300.0252
300.0414
300.0625
300.0886
300.1199
300.1565
300.1986
300.246
300.2986
300.3564
300.4189
300.4859
300.5566
300.6301
300.7053
300.781
300.8557
300.9279
300.9971
301.0662
301.1475
301.2772
301.5402
302.096
303.1487
304.9083
307.1842
300
300.0002
300.0005
300.0011
300.0021
300.0036
300.0057
300.0086
300.0123
300.0172
300.0232
300.0305
300.0393
300.0497
300.0619
300.0759
300.0921
300.1107
300.1324
300.159
300.1949
300.2512
300.3543
300.5617
300.9846
301.808
303.2785
305.6171
308.9677
312.6245
302.9773
305.8626
308.5694
311.1259
313.558
315.8896
318.1433
320.3399
322.499
324.6395
326.7803
328.939
331.1281
333.3364
335.4889
337.496
339.2669
340.7223
341.8398
342.6089
343.0125
343.0251
342.6205
341.7934
340.5871
339.1366
337.7748
337.076
337.5509
338.5164
300.0722
300.1971
300.3715
300.5881
300.8412
301.1258
301.4382
301.7753
302.1347
302.5145
302.9135
303.3305
303.7653
304.2171
304.6841
305.163
305.648
306.1312
306.6026
307.0504
307.46
307.8135
308.0922
308.2925
308.4171
308.5063
308.757
309.5039
312.1153
317.3519
300.0016
300.0059
300.0136
300.0253
300.0417
300.0629
300.0892
300.1209
300.1581
300.2009
300.2493
300.3034
300.3634
300.4291
300.5007
300.578
300.6609
300.7496
300.8445
300.9469
301.0595
301.1878
301.342
301.5411
301.8216
302.2549
302.9853
304.2458
306.5389
310.3514
300
300.0002
300.0005
300.0011
300.0021
300.0036
300.0057
300.0086
300.0125
300.0173
300.0234
300.0309
300.0398
300.0504
300.0627
300.0771
300.0936
300.1124
300.1338
300.1586
300.1883
300.2268
300.2829
300.3761
300.5488
300.8883
301.5686
302.8457
305.0613
307.9813
302.9782
305.8656
308.5759
311.1375
313.5768
315.9189
318.1882
320.4083
322.6036
324.8011
327.034
329.3482
331.7982
334.4758
337.121
339.5906
341.7497
343.3898
344.6562
345.6345
346.3744
346.9014
347.2218
347.3286
347.2132
346.8883
346.4326
346.0302
346.0572
346.8374
300.0722
300.1972
300.3719
300.589
300.8428
301.1286
301.4425
301.7819
302.1447
302.5295
302.9361
303.3655
303.8383
304.3846
305.0311
305.8078
306.7434
307.8269
309.0702
310.489
312.101
313.9223
315.9613
318.2014
320.6288
323.2451
326.0322
329.073
332.6068
337.1322
300.0016
300.0059
300.0136
300.0254
300.0418
300.0631
300.0896
300.1215
300.1589
300.2021
300.2511
300.3062
300.368
300.4377
300.517
300.6082
300.715
300.8695
301.0943
301.4192
301.8808
302.5316
303.4382
304.6772
306.3365
308.5205
311.3572
315.0248
319.8854
326.1912
300
300.0002
300.0005
300.0011
300.0021
300.0036
300.0058
300.0087
300.0125
300.0175
300.0236
300.0311
300.0402
300.0511
300.0639
300.0792
300.0973
300.1195
300.1481
300.1874
300.2544
300.3711
300.5757
300.933
301.5475
302.5821
304.2841
306.9738
311.1811
316.6541
302.9785
305.8663
308.5769
311.1388
313.5784
315.9207
318.1902
320.4106
322.6061
324.8038
327.0369
329.3513
331.8015
334.4793
337.1247
339.5943
341.7531
343.3925
344.6577
345.6341
346.3709
346.8929
347.205
347.2987
347.1637
346.8107
346.3178
345.8709
345.8631
346.609
300.0722
300.1973
300.3719
300.5891
300.8429
301.1287
301.4427
301.7821
302.1449
302.5298
302.9364
303.3658
303.8386
304.3847
305.0311
305.8076
306.7428
307.8259
309.0685
310.4864
312.0968
313.9154
315.9402
318.1566
320.5478
323.1229
325.8747
328.8688
332.3494
336.7988
300.0016
300.0059
300.0136
300.0254
300.0418
300.0631
300.0896
300.1215
300.1589
300.2021
300.2512
300.3063
300.368
300.4377
300.517
300.6082
300.715
300.8693
301.0936
301.4181
301.8787
302.5279
303.4298
304.6581
306.2958
308.4432
311.2281
314.8231
319.5889
325.7551
300
300.0002
300.0005
300.0011
300.0021
300.0036
300.0058
300.0087
300.0125
300.0175
300.0236
300.0311
300.0402
300.0511
300.0639
300.0792
300.0973
300.1195
300.1481
300.1873
300.254
300.3701
300.5732
300.9263
301.5301
302.5404
304.195
306.8011
310.874
316.1516
302.9784
305.8646
308.5723
311.1297
313.5626
315.895
318.1495
320.3469
322.5067
324.6479
326.7893
328.9487
331.1383
333.3473
335.5001
337.5072
339.2775
340.7315
341.8463
342.6103
343.0051
343.0027
342.5769
341.7203
340.4742
338.969
337.528
336.7267
337.2118
338.1826
300.0722
300.1972
300.3716
300.5883
300.8414
301.1262
301.4386
301.7758
302.1353
302.5153
302.9144
303.3316
303.7664
304.2183
304.6854
305.164
305.6486
306.1309
306.6008
307.0459
307.4507
307.7966
308.0712
308.2648
308.3781
308.4398
308.6361
309.3165
311.7709
316.8618
300.0016
300.0059
300.0136
300.0253
300.0417
300.0629
300.0893
300.121
300.1582
300.2009
300.2494
300.3035
300.3635
300.4292
300.5008
300.5781
300.661
300.7496
300.8443
300.9462
301.0577
301.184
301.3346
301.5273
301.7968
302.2122
302.9144
304.132
306.3266
309.9933
300
300.0002
300.0005
300.0011
300.0021
300.0036
300.0057
300.0086
300.0125
300.0173
300.0234
300.0309
300.0398
300.0504
300.0628
300.0771
300.0936
300.1124
300.1339
300.1586
300.1882
300.2263
300.2815
300.3726
300.5417
300.8778
301.5541
302.8268
305.0342
307.8929
302.9782
305.8618
308.5632
311.1105
313.5282
315.8384
318.0607
320.2109
322.3013
324.3402
326.3306
328.2683
330.1374
331.9021
333.5116
334.897
335.988
336.7288
337.0758
337.003
336.4981
335.5622
334.215
332.502
330.507
328.3671
326.3
324.6036
323.8097
324.2548
300.0722
300.197
300.3709
300.5866
300.8382
301.1206
301.4298
301.7622
302.1148
302.4849
302.8694
303.2654
303.6689
304.075
304.4769
304.8656
305.2305
305.5593
305.8383
306.0534
306.1908
306.2386
306.1896
306.0452
305.8247
305.5798
305.4174
305.5001
306.0826
307.3227
300.0016
300.0059
300.0135
300.0252
300.0415
300.0625
300.0886
300.1199
300.1566
300.1987
300.2461
300.2988
300.3566
300.4192
300.4862
300.5569
300.6305
300.7058
300.7815
300.8562
300.9285
300.9979
301.0675
301.1507
301.2862
301.5638
302.1509
303.2587
305.0959
307.4538
300
300.0002
300.0005
300.0011
300.0021
300.0036
300.0057
300.0086
300.0123
300.0172
300.0232
300.0305
300.0393
300.0498
300.0619
300.076
300.0922
300.1109
300.1328
300.1597
300.1963
300.2546
300.3628
300.5825
301.0318
301.9026
303.4533
305.9104
309.4135
313.224
302.979
305.858
308.5552
311.0996
313.5155
315.8235
318.0411
320.1805
322.2494
324.2502
326.179
328.0296
329.782
331.4043
332.8628
334.11
335.0965
335.7862
336.1496
336.1759
335.8719
335.2619
334.388
333.3111
332.1142
330.9119
329.873
329.2532
329.6836
330.6448
300.0722
300.1967
300.3702
300.5858
300.8377
301.1212
301.4323
301.7681
302.1259
302.503
302.8969
303.3046
303.7224
304.1449
304.5647
304.9718
305.3523
305.6993
306.0092
306.2745
306.4906
306.658
306.7847
306.8896
307.0066
307.1873
307.5007
308.0222
309.3733
312.6285
300.0016
300.0058
300.0135
300.0252
300.0415
300.0627
300.0891
300.121
300.1586
300.2021
300.2516
300.3073
300.3693
300.4381
300.5146
300.6005
300.6982
300.8122
300.9491
301.1189
301.3351
301.6173
301.9968
302.5253
303.2842
304.3841
305.963
308.1466
311.121
314.9242
300
300.0002
300.0005
300.0011
300.0021
300.0036
300.0057
300.0087
300.0126
300.0177
300.0241
300.0321
300.0418
300.0537
300.0681
300.0858
300.1084
300.1394
300.1866
300.2666
300.4138
300.6928
301.2061
302.0865
303.4638
305.4261
308.016
311.2511
315.2169
319.1533
302.9823
305.8968
308.6574
311.2906
313.8199
316.2667
318.6477
320.9664
323.2321
325.4506
327.6229
329.7384
331.7832
333.7339
335.5712
337.2629
338.776
340.0849
341.1576
341.9671
342.4913
342.7157
342.6374
342.2726
341.6649
340.8941
340.0929
339.4536
339.3432
339.9773
300.072
300.1989
300.3791
300.6068
300.8778
301.1883
301.5385
301.9401
302.3979
302.919
303.5127
304.1916
304.9735
305.8681
306.8922
308.0717
309.4369
311.0042
312.7676
314.7015
316.7465
318.8116
320.7899
322.5891
324.1689
325.5803
327.0185
328.8465
331.1494
333.8334
300.0016
300.006
300.014
300.0266
300.0445
300.0684
300.099
300.1372
300.1841
300.241
300.3091
300.3905
300.4876
300.6193
300.8076
301.0785
301.467
302.021
302.8021
303.8771
305.2999
307.0861
309.1943
311.5277
313.9667
316.4228
318.9047
321.5876
324.7226
328.5166
300
300.0002
300.0005
300.0012
300.0023
300.004
300.0066
300.0103
300.0154
300.0222
300.0311
300.0427
300.0575
300.0768
300.1029
300.1394
300.1994
300.3073
300.5022
300.8495
301.4446
302.3981
303.7953
305.6505
307.8979
310.4396
313.2317
316.3608
320.0862
324.286
)
;

boundaryField
{
    maxY
    {
        type            zeroGradient;
    }
    minX
    {
        type            fixedValue;
        value           uniform 300;
    }
    maxX
    {
        type            inletOutlet;
        inletValue      uniform 300;
        value           nonuniform List<scalar> 
40
(
339.8696
333.6887
328.3185
324.0001
330.6042
312.4988
314.6272
318.6878
324.4935
307.3445
307.1439
312.5513
338.4395
317.3126
310.3177
307.9423
346.7265
337.0423
326.1227
316.6009
346.4956
336.7049
325.6818
316.0939
338.1018
316.8181
309.9548
307.8511
324.2189
307.2998
307.4157
313.1574
330.5876
312.6126
314.8801
319.0906
339.9031
333.7693
328.4534
324.2265
)
;
    }
    minZ
    {
        type            zeroGradient;
    }
    maxZ
    {
        type            zeroGradient;
    }
    topAir_to_rightSolid
    {
        type            compressible::turbulentTemperatureRadCoupledMixed;
        refValue        nonuniform List<scalar> 
130
(
387.0477
385.67
384.0224
382.2416
380.4409
378.707
377.1061
375.6858
374.4803
373.5125
372.7983
372.3477
372.165
388.4872
386.7864
384.8387
382.8082
380.8137
378.9364
377.2326
375.7406
374.4863
373.4866
372.7535
372.2953
372.1181
391.5639
389.09
386.483
383.9438
381.5781
379.4387
377.5538
375.9387
374.602
373.5485
372.7821
372.3049
372.1189
396.33
392.3087
388.6028
385.3265
382.4765
380.0208
377.9296
376.1799
374.756
373.6466
372.8455
372.3485
372.1535
402.1006
395.4164
390.3704
386.376
383.1202
380.4248
378.1877
376.3472
374.8663
373.7211
372.898
372.3882
372.1874
402.1103
395.4252
390.3791
386.385
383.1295
380.4346
378.1978
376.3579
374.8774
373.7326
372.9097
372.4001
372.1994
396.3568
392.3346
388.6289
385.3534
382.5045
380.0501
377.9602
376.212
374.7894
373.6812
372.8808
372.3845
372.1901
391.6068
389.1327
386.5264
383.9886
381.6248
379.4875
377.6049
375.9922
374.6579
373.6067
372.842
372.3665
372.1815
388.5444
386.8444
384.8986
382.8706
380.8789
379.0046
377.3039
375.8152
374.5645
373.5684
372.8391
372.3845
372.2091
387.1057
385.7319
384.0885
382.3115
380.5143
378.784
377.1868
375.7706
374.5696
373.607
372.8993
372.4573
372.2877
)
;
        refGradient     nonuniform List<scalar> 
130
(
-2781.311
-2781.311
-2781.311
-2781.311
-2340.181
-2340.181
-2340.181
-2340.181
-1991.315
-1991.315
-1991.315
-1991.315
-1965.533
-2781.311
-2781.311
-2781.311
-2781.311
-2340.181
-2340.181
-2340.181
-2340.181
-1991.315
-1991.315
-1991.315
-1991.315
-1965.533
-3145.747
-3145.747
-3145.747
-3145.747
-2557.92
-2557.92
-2557.92
-2557.92
-2257.873
-2257.873
-1965.533
-1965.533
-1965.533
-3145.747
-3145.747
-3145.747
-3145.747
-2557.92
-2557.92
-2557.92
-2557.92
-2257.873
-2257.873
-1965.533
-1965.533
-1965.533
-3402.243
-3402.243
-3402.243
-3402.243
-2615.932
-2615.932
-2615.932
-2615.932
-2257.873
-2257.873
-1938.344
-1938.344
-1938.344
-3402.243
-3402.243
-3402.243
-3402.243
-2615.932
-2615.932
-2615.932
-2615.932
-2257.873
-2257.873
-1938.344
-1938.344
-1938.344
-3146.336
-3146.336
-3146.336
-3146.336
-2555.686
-2555.686
-2555.686
-2555.686
-2157.949
-2157.949
-2157.949
-2157.949
-1938.344
-3146.336
-3146.336
-3146.336
-3146.336
-2555.686
-2555.686
-2555.686
-2555.686
-2157.949
-2157.949
-2157.949
-2157.949
-1938.344
-2782.266
-2782.266
-2782.266
-2782.266
-2336.038
-2336.038
-2336.038
-2336.038
-1944.171
-1944.171
-1944.171
-1944.171
-1944.171
-2782.266
-2782.266
-2782.266
-2782.266
-2336.038
-2336.038
-2336.038
-2336.038
-1944.171
-1944.171
-1944.171
-1944.171
-1944.171
)
;
        valueFraction   uniform 0.9996787;
        value           nonuniform List<scalar> 
130
(
387.029
385.6521
384.0052
382.2252
380.4257
378.6924
377.0918
375.6718
374.467
373.4992
372.785
372.3345
372.1521
388.4667
386.7666
384.8195
382.7895
380.796
378.9191
377.2155
375.7236
374.4697
373.47
372.737
372.2791
372.1023
391.5422
389.0692
386.4631
383.9244
381.56
379.4208
377.536
375.9208
374.5843
373.5305
372.7641
372.2868
372.1011
396.3081
392.2884
388.584
385.3088
382.4605
380.0055
377.9147
376.1652
374.7416
373.6322
372.8315
372.3348
372.1401
402.0773
395.3957
390.3517
386.3588
383.1052
380.4108
378.1743
376.3345
374.8544
373.7094
372.8869
372.3772
372.1767
402.0871
395.4045
390.3603
386.3677
383.1144
380.4205
378.1845
376.3451
374.8654
373.7208
372.8985
372.3891
372.1887
396.3349
392.3143
388.61
385.3357
382.4885
380.0347
377.9453
376.1972
374.7751
373.6667
372.8664
372.3704
372.1766
391.5851
389.1119
386.5065
383.9693
381.6067
379.4697
377.5871
375.9743
374.6403
373.5887
372.8237
372.3481
372.1636
388.5239
386.8245
384.8794
382.8519
380.8612
378.9872
377.2868
375.7982
374.5479
373.5519
372.8226
372.3682
372.1932
387.087
385.714
384.0713
382.2951
380.4991
378.7694
377.1725
375.7566
374.5563
373.5937
372.886
372.4441
372.2748
)
;
        Tnbr            T;
        qrNbr           none;
        qr              qr;
        thermalInertia  false;
        thicknessLayers List<scalar> 0();
        kappaLayers     List<scalar> 0();
        kappaMethod     fluidThermo;
        kappa           none;
        alphaAni        none;
        alpha           none;
    }
    topAir_to_heater
    {
        type            compressible::turbulentTemperatureRadCoupledMixed;
        refValue        nonuniform List<scalar> 
40
(
387.8316
388.4782
388.5215
387.962
389.5553
390.3622
390.4072
389.6918
393.3771
394.607
394.652
393.5129
399.9909
402.1428
402.1864
400.1242
411.4393
415.0172
415.0537
411.5572
411.4516
415.0298
415.066
411.5685
400.0247
402.1757
402.2171
400.1513
393.4263
394.6548
394.6976
393.5561
389.6191
390.4248
390.4684
389.7504
387.897
388.546
388.5918
388.0352
)
;
        refGradient     nonuniform List<scalar> 
40
(
-2951.669
-2951.669
-2917.054
-2917.054
-3171.463
-3171.463
-3154.928
-3154.928
-3430.598
-3430.598
-3420.841
-3420.841
-3840.292
-3840.292
-3833.468
-3833.468
-4571.883
-4571.883
-4565.887
-4565.887
-4572.609
-4572.609
-4566.524
-4566.524
-3842.045
-3842.045
-3834.821
-3834.821
-3432.966
-3432.966
-3422.758
-3422.758
-3174.406
-3174.406
-3157.401
-3157.401
-2954.551
-2954.551
-2919.853
-2919.853
)
;
        valueFraction   uniform 0.9996787;
        value           nonuniform List<scalar> 
40
(
387.8104
388.4573
388.5012
387.9424
389.5325
390.3397
390.385
389.6702
393.3529
394.583
394.6283
393.49
399.9645
402.1164
402.1607
400.0997
411.4087
414.9863
415.0236
411.5289
411.421
414.9989
415.0359
411.5401
399.9983
402.1493
402.1914
400.1268
393.4021
394.6307
394.6739
393.5331
389.5963
390.4022
390.4462
389.7288
387.8758
388.5251
388.5716
388.0156
)
;
        Tnbr            T;
        qrNbr           none;
        qr              qr;
        thermalInertia  false;
        thicknessLayers List<scalar> 0();
        kappaLayers     List<scalar> 0();
        kappaMethod     fluidThermo;
        kappa           none;
        alphaAni        none;
        alpha           none;
    }
    topAir_to_leftSolid
    {
        type            compressible::turbulentTemperatureRadCoupledMixed;
        refValue        nonuniform List<scalar> 
130
(
371.2157
371.3983
371.8781
372.6335
373.6509
374.9135
376.3969
378.0664
379.8736
381.7528
383.615
385.3464
386.8101
371.1404
371.3372
371.8323
372.6099
373.6607
374.9729
376.5283
378.3006
380.2511
382.3241
384.4365
386.4694
388.2597
371.1317
371.3384
371.8544
372.6673
373.7731
375.1685
376.8476
378.8016
381.0148
383.4597
386.0814
388.7743
391.3381
371.1483
371.3648
371.9021
372.7513
373.9147
375.399
377.2143
379.3762
381.9073
384.8381
388.1985
391.9921
396.1054
371.1676
371.3903
371.9412
372.8136
374.0142
375.5572
377.4649
379.7744
382.5469
385.8854
389.9653
395.1013
401.8815
371.1759
371.3987
371.9498
372.8225
374.0234
375.5666
377.4746
379.7844
382.5571
385.8959
389.9761
395.1123
401.8925
371.1727
371.3897
371.9279
372.7779
373.9422
375.4273
377.2433
379.4058
381.9374
384.8689
388.2301
392.024
396.1366
371.1712
371.3791
371.8969
372.7115
373.8189
375.2156
376.8959
378.8507
381.0645
383.5101
386.1324
388.8248
391.387
371.1914
371.3923
371.891
372.6715
373.7248
375.0389
376.5958
378.3692
380.3204
382.3938
384.5062
386.5382
388.326
371.2492
371.4563
371.9437
372.7035
373.7241
374.9892
376.4744
378.1452
379.9532
381.8329
383.6956
385.4273
386.8923
)
;
        refGradient     nonuniform List<scalar> 
130
(
-2364.322
-2364.322
-2364.322
-2364.322
-2507.668
-2507.668
-2507.668
-2507.668
-2807.26
-2807.26
-2807.26
-2807.26
-3196.028
-2364.322
-2364.322
-2364.322
-2364.322
-2507.668
-2507.668
-2507.668
-2507.668
-2807.26
-2807.26
-2807.26
-2807.26
-3196.028
-2383.644
-2383.644
-2383.644
-2383.644
-2582.23
-2582.23
-2582.23
-2582.23
-2924.554
-2924.554
-3196.028
-3196.028
-3196.028
-2383.644
-2383.644
-2383.644
-2383.644
-2582.23
-2582.23
-2582.23
-2582.23
-2924.554
-2924.554
-3196.028
-3196.028
-3196.028
-2388.92
-2388.92
-2388.92
-2388.92
-2607.263
-2607.263
-2607.263
-2607.263
-2924.554
-2924.554
-3528.441
-3528.441
-3528.441
-2388.92
-2388.92
-2388.92
-2388.92
-2607.263
-2607.263
-2607.263
-2607.263
-2924.554
-2924.554
-3528.441
-3528.441
-3528.441
-2385.159
-2385.159
-2385.159
-2385.159
-2583.998
-2583.998
-2583.998
-2583.998
-3033.572
-3033.572
-3033.572
-3033.572
-3528.441
-2385.159
-2385.159
-2385.159
-2385.159
-2583.998
-2583.998
-2583.998
-2583.998
-3033.572
-3033.572
-3033.572
-3033.572
-3528.441
-2366.868
-2366.868
-2366.868
-2366.868
-2510.928
-2510.928
-2510.928
-2510.928
-2848.566
-2848.566
-2848.566
-2848.566
-2848.566
-2366.868
-2366.868
-2366.868
-2366.868
-2510.928
-2510.928
-2510.928
-2510.928
-2848.566
-2848.566
-2848.566
-2848.566
-2848.566
)
;
        valueFraction   uniform 0.9996787;
        value           nonuniform List<scalar> 
130
(
371.1907
371.3742
371.8548
372.6107
373.6284
374.8914
376.3751
378.0448
379.8518
381.7311
383.5934
385.3249
386.7883
371.1155
371.3131
371.8089
372.587
373.6381
374.9506
376.5062
378.2787
380.2289
382.3018
384.4142
386.447
388.2367
371.1067
371.3143
371.831
372.6444
373.7504
375.1461
376.8254
378.7794
380.9921
383.4369
386.0581
388.7507
391.3143
371.1233
371.3407
371.8787
372.7284
373.892
375.3766
377.192
379.3538
381.8844
384.815
388.1746
391.9678
396.0804
371.1426
371.3662
371.9177
372.7907
373.9914
375.5346
377.4425
379.752
382.5238
385.862
389.9405
395.0756
401.8545
371.1509
371.3746
371.9264
372.7996
374.0006
375.5441
377.4522
379.7619
382.534
385.8725
389.9513
395.0866
401.8654
371.1478
371.3656
371.9044
372.755
373.9195
375.4049
377.221
379.3835
381.9144
384.8456
388.2065
391.9998
396.1112
371.1462
371.355
371.8734
372.6886
373.7962
375.1932
376.8737
378.8286
381.0417
383.4872
386.1092
388.8015
391.3627
371.1664
371.3682
371.8675
372.6487
373.7022
375.0166
376.5737
378.3472
380.2981
382.3714
384.4838
386.5157
388.3035
371.2242
371.4322
371.9203
372.6807
373.7017
374.9671
376.4526
378.1236
379.9313
381.8111
383.6739
385.4057
386.8709
)
;
        Tnbr            T;
        qrNbr           none;
        qr              qr;
        thermalInertia  false;
        thicknessLayers List<scalar> 0();
        kappaLayers     List<scalar> 0();
        kappaMethod     fluidThermo;
        kappa           none;
        alphaAni        none;
        alpha           none;
    }
}


// ************************************************************************* //
