/*--------------------------------*- C++ -*----------------------------------*\
| =========                 |                                                 |
| \\      /  F ield         | OpenFOAM: The Open Source CFD Toolbox           |
|  \\    /   O peration     | Version:  v2012                                 |
|   \\  /    A nd           | Website:  www.openfoam.com                      |
|    \\/     M anipulation  |                                                 |
\*---------------------------------------------------------------------------*/
FoamFile
{
    version     2.0;
    format      ascii;
    class       surfaceScalarField;
    location    "71";
    object      phi;
}
// * * * * * * * * * * * * * * * * * * * * * * * * * * * * * * * * * * * * * //

dimensions      [1 0 -1 0 0 0 0];
oriented        oriented;


internalField   nonuniform List<scalar> 
228225
(
-1.68216e-09
7.56217e-10
6.76809e-10
-4.952e-09
5.50957e-09
-2.23908e-09
-1.07653e-08
8.70448e-09
-2.88976e-09
-1.92154e-08
1.15191e-08
-3.07033e-09
-2.99734e-08
1.39826e-08
-3.22242e-09
-4.25632e-08
1.60452e-08
-3.45712e-09
-5.64884e-08
1.7709e-08
-3.78345e-09
-7.12507e-08
1.89625e-08
-4.20114e-09
-8.63977e-08
1.98375e-08
-4.68725e-09
-1.01506e-07
2.03409e-08
-5.23452e-09
-1.16201e-07
2.05162e-08
-5.82175e-09
-1.30134e-07
2.03784e-08
-6.44469e-09
-1.43016e-07
1.99683e-08
-7.08634e-09
-1.54576e-07
1.93058e-08
-7.74505e-09
-1.64608e-07
1.84322e-08
-8.40214e-09
-1.72915e-07
1.73657e-08
-9.0595e-09
-1.79351e-07
1.6147e-08
-9.70439e-09
-1.83813e-07
1.4789e-08
-1.03326e-08
-1.86199e-07
1.33207e-08
-1.09333e-08
-1.86457e-07
1.17566e-08
-1.14965e-08
-1.84575e-07
1.01298e-08
-1.20149e-08
-1.80541e-07
8.45264e-09
-1.24855e-08
-1.74397e-07
6.753e-09
-1.28952e-08
-1.662e-07
5.04244e-09
-1.32408e-08
-1.56035e-07
3.34686e-09
-1.35125e-08
-1.44001e-07
1.68018e-09
-1.37089e-08
-1.30266e-07
8.09616e-11
-1.38233e-08
-1.14938e-07
-1.46643e-09
-1.3857e-08
-9.82398e-08
-2.89254e-09
-1.38058e-08
-8.0397e-08
-4.17479e-09
-1.36686e-08
-6.17129e-08
-5.26021e-09
-1.34251e-08
-4.26208e-08
-6.079e-09
-1.301e-08
-2.3939e-08
-6.49255e-09
-1.21898e-08
-7.46314e-09
-6.28208e-09
-1.01935e-08
-4.18924e-09
-3.27438e-09
-4.67184e-09
1.87848e-08
-1.33553e-08
-1.80535e-08
3.38253e-08
-1.49368e-08
-3.4526e-08
4.0904e-08
-1.57262e-08
-5.26065e-08
4.61557e-08
-1.65549e-08
-7.12069e-08
4.98677e-08
-1.72864e-08
-8.95704e-08
5.23241e-08
-1.79155e-08
-1.0712e-07
5.37441e-08
-1.84858e-08
-1.23458e-07
5.43136e-08
-1.90124e-08
-1.38287e-07
5.41747e-08
-1.95088e-08
-1.51419e-07
5.3447e-08
-1.99739e-08
-1.62714e-07
5.22256e-08
-2.04153e-08
-1.72101e-07
5.05954e-08
-2.08284e-08
-1.79535e-07
4.86208e-08
-2.12186e-08
-1.85017e-07
4.63663e-08
-2.15801e-08
-1.88553e-07
4.38861e-08
-2.19164e-08
-1.90196e-07
4.12299e-08
-2.22217e-08
-1.89993e-07
3.84421e-08
-2.24988e-08
-1.88028e-07
3.55645e-08
-2.27419e-08
-1.84374e-07
3.26238e-08
-2.29547e-08
-1.79145e-07
2.96588e-08
-2.31317e-08
-1.72442e-07
2.67009e-08
-2.32742e-08
-1.6439e-07
2.37778e-08
-2.3377e-08
-1.55111e-07
2.09144e-08
-2.3441e-08
-1.44742e-07
1.81333e-08
-2.3461e-08
-1.3341e-07
1.54541e-08
-2.34382e-08
-1.21262e-07
1.28952e-08
-2.33644e-08
-1.08416e-07
1.04724e-08
-2.32353e-08
-9.50437e-08
8.20022e-09
-2.30391e-08
-8.12671e-08
6.09256e-09
-2.27632e-08
-6.72209e-08
4.16344e-09
-2.23834e-08
-5.30371e-08
2.42911e-09
-2.18735e-08
-3.88459e-08
9.17243e-10
-2.11881e-08
-2.48233e-08
-3.23786e-10
-2.01905e-08
-1.14795e-08
-1.128e-09
-1.84991e-08
-9.68206e-10
-1.47001e-08
-2.5999e-09
3.08555e-08
-9.46922e-09
-9.01219e-09
5.15376e-08
-1.13027e-08
-1.6648e-08
6.06395e-08
-1.20987e-08
-2.4825e-08
6.70539e-08
-1.27235e-08
-3.30763e-08
7.13627e-08
-1.32421e-08
-4.10829e-08
7.4039e-08
-1.37087e-08
-4.86183e-08
7.54219e-08
-1.41417e-08
-5.55228e-08
7.57813e-08
-1.45635e-08
-6.16922e-08
7.53175e-08
-1.49753e-08
-6.70485e-08
7.41918e-08
-1.53873e-08
-7.15577e-08
7.25284e-08
-1.5793e-08
-7.51975e-08
7.04312e-08
-1.61974e-08
-7.79694e-08
6.79834e-08
-1.65917e-08
-7.98813e-08
6.52576e-08
-1.69787e-08
-8.09607e-08
6.2314e-08
-1.73491e-08
-8.12325e-08
5.92069e-08
-1.77051e-08
-8.07355e-08
5.59824e-08
-1.80377e-08
-7.95048e-08
5.26824e-08
-1.83489e-08
-7.76012e-08
4.93521e-08
-1.8632e-08
-7.50874e-08
4.60317e-08
-1.88872e-08
-7.20283e-08
4.27492e-08
-1.91076e-08
-6.84852e-08
3.95302e-08
-1.92946e-08
-6.45266e-08
3.6397e-08
-1.94423e-08
-6.02093e-08
3.33689e-08
-1.95516e-08
-5.55956e-08
3.04555e-08
-1.96166e-08
-5.07293e-08
2.76679e-08
-1.96366e-08
-4.56687e-08
2.50129e-08
-1.96043e-08
-4.04431e-08
2.24919e-08
-1.95146e-08
-3.5098e-08
2.01e-08
-1.93542e-08
-2.96529e-08
1.78252e-08
-1.91085e-08
-2.41158e-08
1.56449e-08
-1.87507e-08
-1.84895e-08
1.35266e-08
-1.82366e-08
-1.27626e-08
1.14166e-08
-1.74655e-08
-6.91189e-09
9.23603e-09
-1.62159e-08
5.40918e-09
-1.32897e-08
-2.14861e-09
3.55203e-08
-2.51716e-09
-4.28808e-09
5.78082e-08
-4.13002e-09
-6.33545e-09
6.77233e-08
-5.03547e-09
-8.41315e-09
7.47774e-08
-5.64751e-09
-1.05387e-08
7.9623e-08
-6.13327e-09
-1.26675e-08
8.27498e-08
-6.58384e-09
-1.47306e-08
8.45259e-08
-7.04036e-09
-1.66772e-08
8.5233e-08
-7.50499e-09
-1.84601e-08
8.50908e-08
-7.99002e-09
-2.00478e-08
8.42677e-08
-8.48965e-09
-2.14083e-08
8.29002e-08
-9.00986e-09
-2.25325e-08
8.10945e-08
-9.54036e-09
-2.34064e-08
7.89417e-08
-1.00834e-08
-2.40367e-08
7.65139e-08
-1.06271e-08
-2.44233e-08
7.38746e-08
-1.11723e-08
-2.45857e-08
7.10756e-08
-1.17074e-08
-2.45338e-08
6.81635e-08
-1.22326e-08
-2.42901e-08
6.51761e-08
-1.27379e-08
-2.38798e-08
6.21612e-08
-1.32199e-08
-2.33301e-08
5.91517e-08
-1.36693e-08
-2.26678e-08
5.61733e-08
-1.40864e-08
-2.19207e-08
5.32462e-08
-1.44632e-08
-2.11117e-08
5.03875e-08
-1.47997e-08
-2.02627e-08
4.76088e-08
-1.50885e-08
-1.93883e-08
4.49108e-08
-1.53308e-08
-1.8493e-08
4.22933e-08
-1.55196e-08
-1.75752e-08
3.97475e-08
-1.56537e-08
-1.66112e-08
3.72544e-08
-1.57254e-08
-1.55629e-08
3.47814e-08
-1.57301e-08
-1.43629e-08
3.22793e-08
-1.56547e-08
-1.29085e-08
2.9675e-08
-1.5485e-08
-1.10472e-08
2.68683e-08
-1.52025e-08
-8.53323e-09
2.37061e-08
-1.48027e-08
-5.11171e-09
2.00108e-08
-1.41979e-08
1.26333e-08
-1.23353e-08
-3.05549e-09
3.66295e-08
1.94813e-09
-3.76434e-09
5.77821e-08
7.32077e-10
-3.30231e-09
6.73598e-08
-9.86109e-11
-2.23257e-09
7.4346e-08
-6.37306e-10
-8.67323e-10
7.93088e-08
-1.05123e-09
6.41822e-10
8.2696e-08
-1.457e-09
2.20344e-09
8.48442e-08
-1.87882e-09
3.74797e-09
8.60162e-08
-2.32911e-09
5.23288e-09
8.64098e-08
-2.8026e-09
6.62146e-09
8.61844e-08
-3.30633e-09
7.89428e-09
8.54608e-08
-3.83206e-09
9.02934e-09
8.43409e-08
-4.38251e-09
1.00129e-08
8.29031e-08
-4.94499e-09
1.0832e-08
8.12155e-08
-5.51986e-09
1.147e-08
7.93313e-08
-6.09574e-09
1.19179e-08
7.72994e-08
-6.67195e-09
1.21631e-08
7.51573e-08
-7.2374e-09
1.21864e-08
7.29411e-08
-7.79105e-09
1.19931e-08
7.06797e-08
-8.3225e-09
1.15745e-08
6.83994e-08
-8.83063e-09
1.09366e-08
6.61189e-08
-9.3066e-09
1.00773e-08
6.38536e-08
-9.7498e-09
9.00648e-09
6.16126e-08
-1.01527e-08
7.73066e-09
5.93988e-08
-1.05151e-08
6.26471e-09
5.72068e-08
-1.08306e-08
4.63517e-09
5.50226e-08
-1.10992e-08
2.87729e-09
5.28204e-08
-1.13155e-08
1.05267e-09
5.05596e-08
-1.14792e-08
-7.64084e-10
4.81798e-08
-1.15844e-08
-2.4502e-09
4.55952e-08
-1.16272e-08
-3.86553e-09
4.26844e-08
-1.15961e-08
-4.78295e-09
3.92824e-08
-1.14955e-08
-4.86123e-09
3.5153e-08
-1.13699e-08
-3.63778e-09
2.99946e-08
-1.12075e-08
1.91294e-08
-1.01332e-08
-2.5832e-09
3.55426e-08
3.66898e-09
-2.69042e-09
5.51618e-08
2.73038e-09
-1.50718e-09
6.4163e-08
2.0112e-09
4.15687e-10
7.08626e-08
1.56126e-09
2.72812e-09
7.57831e-08
1.21363e-09
5.2357e-09
7.93158e-08
8.71862e-10
7.80697e-09
8.17686e-08
5.03553e-10
1.03471e-08
8.3368e-08
1.10003e-10
1.27698e-08
8.42945e-08
-3.09142e-10
1.50216e-08
8.46826e-08
-7.4922e-10
1.70565e-08
8.46428e-08
-1.21654e-09
1.88403e-08
8.42579e-08
-1.70062e-09
2.03479e-08
8.35983e-08
-2.20416e-09
2.15636e-08
8.27171e-08
-2.71681e-09
2.24712e-08
8.16618e-08
-3.23722e-09
2.30563e-08
8.04679e-08
-3.75548e-09
2.33156e-08
7.91685e-08
-4.27034e-09
2.32431e-08
7.77878e-08
-4.77266e-09
2.28347e-08
7.6348e-08
-5.26123e-09
2.20978e-08
7.4864e-08
-5.72787e-09
2.10382e-08
7.33488e-08
-6.17162e-09
1.96694e-08
7.18084e-08
-6.5854e-09
1.80065e-08
7.02444e-08
-6.96864e-09
1.60717e-08
6.86498e-08
-7.31559e-09
1.38938e-08
6.70093e-08
-7.62617e-09
1.15162e-08
6.52961e-08
-7.89576e-09
8.993e-09
6.34693e-08
-8.12474e-09
6.39079e-09
6.14699e-08
-8.30962e-09
3.80883e-09
5.92133e-08
-8.45071e-09
1.36341e-09
5.6584e-08
-8.54269e-09
-7.91703e-10
5.34203e-08
-8.58189e-09
-2.43982e-09
4.95067e-08
-8.57644e-09
-3.23876e-09
4.45427e-08
-8.58887e-09
-2.75843e-09
3.81454e-08
-8.6341e-09
2.4385e-08
-8.01345e-09
-1.58231e-09
3.36631e-08
3.46188e-09
-1.29047e-09
5.21711e-08
2.6987e-09
2.40223e-11
6.0741e-08
2.10835e-09
1.91843e-09
6.7224e-08
1.74415e-09
4.12437e-09
7.21048e-08
1.47151e-09
6.48971e-09
7.57506e-08
1.20126e-09
8.90253e-09
7.84396e-08
9.16046e-10
1.12764e-08
8.03833e-08
6.09893e-10
1.35445e-08
8.17402e-08
2.86294e-10
1.56517e-08
8.26347e-08
-5.93116e-11
1.75512e-08
8.31592e-08
-4.15444e-10
1.92099e-08
8.33885e-08
-7.89627e-10
2.06045e-08
8.33781e-08
-1.17356e-09
2.17117e-08
8.3176e-08
-1.56654e-09
2.25176e-08
8.28176e-08
-1.96197e-09
2.30112e-08
8.23331e-08
-2.35897e-09
2.31862e-08
8.17443e-08
-2.75029e-09
2.30398e-08
8.10706e-08
-3.1352e-09
2.2568e-08
8.03243e-08
-3.50705e-09
2.17846e-08
7.95152e-08
-3.86529e-09
2.06902e-08
7.86468e-08
-4.20405e-09
1.93029e-08
7.77186e-08
-4.52309e-09
1.76427e-08
7.67228e-08
-4.8174e-09
1.57345e-08
7.56448e-08
-5.08717e-09
1.36118e-08
7.44599e-08
-5.32832e-09
1.13184e-08
7.31312e-08
-5.54145e-09
8.90541e-09
7.16055e-08
-5.72344e-09
6.44403e-09
6.98085e-08
-5.87552e-09
4.0134e-09
6.76374e-08
-5.99514e-09
1.72681e-09
6.49528e-08
-6.08193e-09
-2.85332e-10
6.15633e-08
-6.13082e-09
-1.83831e-09
5.72138e-08
-6.15388e-09
-2.64563e-09
5.15541e-08
-6.20531e-09
-2.31929e-09
4.41267e-08
-6.30613e-09
2.79787e-08
-5.9135e-09
-7.43106e-10
3.18201e-08
2.58591e-09
-4.562e-10
4.98896e-08
1.9956e-09
4.39018e-10
5.82928e-08
1.55146e-09
1.67598e-09
6.47029e-08
1.28404e-09
3.09835e-09
6.96021e-08
1.0821e-09
4.61297e-09
7.33463e-08
8.87594e-10
6.1652e-09
7.62072e-08
6.81811e-10
7.69578e-09
7.83844e-08
4.665e-10
9.1671e-09
8.0032e-08
2.37984e-10
1.05409e-08
8.1263e-08
-7.14695e-13
1.17796e-08
8.21663e-08
-2.47894e-10
1.28643e-08
8.2807e-08
-5.02111e-10
1.37692e-08
8.32376e-08
-7.65147e-10
1.44812e-08
8.3496e-08
-1.03099e-09
1.4984e-08
8.36141e-08
-1.29963e-09
1.52686e-08
8.36134e-08
-1.56584e-09
1.5332e-08
8.35121e-08
-1.82966e-09
1.51673e-08
8.33214e-08
-2.08607e-09
1.47754e-08
8.305e-08
-2.3352e-09
1.41629e-08
8.27004e-08
-2.57253e-09
1.33367e-08
8.22716e-08
-2.79842e-09
1.23074e-08
8.17563e-08
-3.00891e-09
1.10934e-08
8.11416e-08
-3.20467e-09
9.71552e-09
8.04058e-08
-3.38234e-09
8.19939e-09
7.95178e-08
-3.54291e-09
6.58269e-09
7.8433e-08
-3.68361e-09
4.9033e-09
7.70892e-08
-3.80577e-09
3.21837e-09
7.54022e-08
-3.90733e-09
1.58824e-09
7.32561e-08
-3.98975e-09
9.41873e-11
7.04961e-08
-4.04998e-09
-1.16551e-09
6.69106e-08
-4.08749e-09
-2.06241e-09
6.22198e-08
-4.10836e-09
-2.39436e-09
5.60394e-08
-4.15504e-09
-1.90029e-09
4.78673e-08
-4.23555e-09
3.00394e-08
-3.95947e-09
-4.84397e-10
3.03306e-08
1.97115e-09
-4.85943e-10
4.82949e-08
1.59817e-09
-1.72491e-10
5.66572e-08
1.32275e-09
3.14535e-10
6.30588e-08
1.15721e-09
9.01553e-10
6.79825e-08
1.03139e-09
1.55475e-09
7.17885e-08
9.06435e-10
2.24135e-09
7.47432e-08
7.76278e-10
2.9404e-09
7.70478e-08
6.38218e-10
3.62597e-09
7.88508e-08
4.9511e-10
4.28016e-09
8.02653e-08
3.44655e-10
4.88033e-09
8.13746e-08
1.89526e-10
5.41773e-09
8.22429e-08
2.89159e-11
5.86968e-09
8.29166e-08
-1.3199e-10
6.22775e-09
8.34322e-08
-2.93257e-10
6.48065e-09
8.38151e-08
-4.54674e-10
6.62501e-09
8.40856e-08
-6.1597e-10
6.65185e-09
8.42574e-08
-7.73198e-10
6.56119e-09
8.434e-08
-9.26631e-10
6.34634e-09
8.43361e-08
-1.07278e-09
6.01607e-09
8.42458e-08
-1.21269e-09
5.56522e-09
8.40631e-08
-1.34332e-09
5.0121e-09
8.37778e-08
-1.46588e-09
4.35854e-09
8.33721e-08
-1.5777e-09
3.62286e-09
8.28213e-08
-1.68025e-09
2.82446e-09
8.20893e-08
-1.77123e-09
1.98057e-09
8.11274e-08
-1.85237e-09
1.1237e-09
7.98684e-08
-1.92174e-09
2.8478e-10
7.82225e-08
-1.98139e-09
-4.95647e-10
7.60671e-08
-2.02969e-09
-1.17114e-09
7.32398e-08
-2.068e-09
-1.68637e-09
6.95196e-08
-2.09366e-09
-1.96635e-09
6.46143e-08
-2.11408e-09
-1.89896e-09
5.8125e-08
-2.15426e-09
-1.33945e-09
4.95248e-08
-2.21753e-09
3.07589e-08
-2.05807e-09
-6.65515e-10
2.91656e-08
1.83066e-09
-1.08308e-09
4.70055e-08
1.70777e-09
-1.32955e-09
5.53079e-08
1.59532e-09
-1.47174e-09
6.16682e-08
1.53186e-09
-1.53328e-09
6.65702e-08
1.47557e-09
-1.53288e-09
7.03726e-08
1.41428e-09
-1.47622e-09
7.33425e-08
1.34405e-09
-1.37521e-09
7.56785e-08
1.26841e-09
-1.24009e-09
7.75297e-08
1.18666e-09
-1.08381e-09
7.90062e-08
1.10181e-09
-9.13319e-10
8.01916e-08
1.01278e-09
-7.39328e-10
8.11466e-08
9.22654e-10
-5.72826e-10
8.19181e-08
8.30447e-10
-4.16715e-10
8.25391e-08
7.39119e-10
-2.84526e-10
8.30345e-08
6.48481e-10
-1.82256e-10
8.34211e-08
5.61426e-10
-1.12071e-10
8.37108e-08
4.76669e-10
-7.767e-11
8.39097e-08
3.96047e-10
-8.09391e-11
8.40205e-08
3.18468e-10
-1.21401e-10
8.40398e-08
2.4648e-10
-1.97428e-10
8.3961e-08
1.78444e-10
-3.074e-10
8.37708e-08
1.16374e-10
-4.44026e-10
8.34507e-08
5.91495e-11
-6.05193e-10
8.29729e-08
8.7551e-12
-7.78714e-10
8.23007e-08
-3.73457e-11
-9.56957e-10
8.13829e-08
-7.75558e-11
-1.12575e-09
8.01517e-08
-1.14236e-10
-1.27302e-09
7.85152e-08
-1.45519e-10
-1.38269e-09
7.63508e-08
-1.75034e-10
-1.4347e-09
7.34946e-08
-2.01515e-10
-1.41493e-09
6.97263e-08
-2.27504e-10
-1.29813e-09
6.4753e-08
-2.56248e-10
-1.042e-09
5.81781e-08
-3.07595e-10
-6.12511e-10
4.94743e-08
-3.79566e-10
3.05168e-08
-3.70486e-10
-9.67304e-10
2.81774e-08
1.95614e-09
-1.72388e-09
4.57057e-08
2.05512e-09
-2.34861e-09
5.38583e-08
2.07622e-09
-2.87836e-09
6.01035e-08
2.09286e-09
-3.3181e-09
6.49162e-08
2.09384e-09
-3.67549e-09
6.86509e-08
2.07917e-09
-3.95727e-09
7.15692e-08
2.05413e-09
-4.16612e-09
7.38685e-08
2.01997e-09
-4.31271e-09
7.56939e-08
1.98092e-09
-4.39829e-09
7.71554e-08
1.93684e-09
-4.43186e-09
7.83335e-08
1.89098e-09
-4.41746e-09
7.92894e-08
1.84266e-09
-4.36018e-09
8.00671e-08
1.79474e-09
-4.26868e-09
8.07004e-08
1.74625e-09
-4.14532e-09
8.12123e-08
1.69977e-09
-3.9993e-09
8.162e-08
1.65395e-09
-3.83234e-09
8.19323e-08
1.6118e-09
-3.64907e-09
8.21554e-08
1.57181e-09
-3.45519e-09
8.22897e-08
1.536e-09
-3.24898e-09
8.23327e-08
1.50266e-09
-3.03856e-09
8.22754e-08
1.47363e-09
-2.81969e-09
8.21055e-08
1.44692e-09
-2.59524e-09
8.18023e-08
1.4241e-09
-2.3664e-09
8.13395e-08
1.40292e-09
-2.12864e-09
8.06789e-08
1.38469e-09
-1.88442e-09
7.97711e-08
1.36688e-09
-1.63139e-09
7.85482e-08
1.35042e-09
-1.36983e-09
7.69215e-08
1.33232e-09
-1.10321e-09
7.47703e-08
1.31292e-09
-8.32126e-10
7.19361e-08
1.28858e-09
-5.6861e-10
6.82043e-08
1.25869e-09
-3.23849e-10
6.32914e-08
1.21569e-09
-1.04973e-10
5.68134e-08
1.14671e-09
5.98654e-11
4.82599e-08
1.04652e-09
2.96718e-08
9.07468e-10
-1.12924e-09
2.73275e-08
1.97947e-09
-2.03902e-09
4.4396e-08
2.21839e-09
-2.83168e-09
5.23324e-08
2.31743e-09
-3.51857e-09
5.84099e-08
2.3822e-09
-4.10904e-09
6.30907e-08
2.41505e-09
-4.60575e-09
6.67181e-08
2.42861e-09
-5.01119e-09
6.95488e-08
2.42765e-09
-5.33518e-09
7.17735e-08
2.41784e-09
-5.57804e-09
7.35358e-08
2.40059e-09
-5.74188e-09
7.49416e-08
2.37971e-09
-5.83777e-09
7.60713e-08
2.35529e-09
-5.86033e-09
7.69833e-08
2.3303e-09
-5.8196e-09
7.77224e-08
2.30421e-09
-5.71779e-09
7.83199e-08
2.27956e-09
-5.56283e-09
7.87999e-08
2.25546e-09
-5.35222e-09
7.91776e-08
2.23415e-09
-5.10037e-09
7.94641e-08
2.2144e-09
-4.80551e-09
7.96637e-08
2.19818e-09
-4.47796e-09
7.97781e-08
2.18393e-09
-4.1218e-09
7.98026e-08
2.17331e-09
-3.7396e-09
7.97301e-08
2.16446e-09
-3.33993e-09
7.95463e-08
2.15873e-09
-2.92253e-09
7.92327e-08
2.15395e-09
-2.49718e-09
7.87616e-08
2.15118e-09
-2.06242e-09
7.80976e-08
2.14797e-09
-1.62806e-09
7.7191e-08
2.14501e-09
-1.1952e-09
7.5978e-08
2.13945e-09
-7.77917e-10
7.43714e-08
2.13144e-09
-3.81864e-10
7.22575e-08
2.11736e-09
-2.41598e-11
6.94824e-08
2.09632e-09
2.73937e-10
6.5843e-08
2.0632e-09
4.85979e-10
6.10665e-08
2.01332e-09
5.75867e-10
5.47892e-08
1.93171e-09
5.04469e-10
4.65233e-08
1.81225e-09
2.8601e-08
1.57348e-09
-1.01562e-09
2.66654e-08
1.67758e-09
-1.86217e-09
4.33001e-08
1.94301e-09
-2.62454e-09
5.10318e-08
2.06177e-09
-3.29848e-09
5.69496e-08
2.13474e-09
-3.884e-09
6.15017e-08
2.17458e-09
-4.38264e-09
6.50228e-08
2.19348e-09
-4.79475e-09
6.77622e-08
2.19961e-09
-5.12495e-09
6.99075e-08
2.19568e-09
-5.37411e-09
7.15976e-08
2.18602e-09
-5.53932e-09
7.29379e-08
2.17154e-09
-5.63138e-09
7.40058e-08
2.15539e-09
-5.64429e-09
7.48607e-08
2.1376e-09
-5.58951e-09
7.5545e-08
2.12068e-09
-5.46423e-09
7.6092e-08
2.10419e-09
-5.27853e-09
7.65236e-08
2.09029e-09
-5.03553e-09
7.68572e-08
2.07816e-09
-4.74325e-09
7.71019e-08
2.06962e-09
-4.40826e-09
7.72643e-08
2.06351e-09
-4.03469e-09
7.73441e-08
2.06132e-09
-3.63398e-09
7.7339e-08
2.06152e-09
-3.20724e-09
7.724e-08
2.06526e-09
-2.76759e-09
7.7035e-08
2.07067e-09
-2.31768e-09
7.6704e-08
2.07857e-09
-1.86467e-09
7.62221e-08
2.08678e-09
-1.41536e-09
7.55527e-08
2.09581e-09
-9.76912e-10
7.46497e-08
2.10313e-09
-5.56627e-10
7.34497e-08
2.10884e-09
-1.65833e-10
7.18704e-08
2.1099e-09
1.83724e-10
6.98007e-08
2.10568e-09
4.80645e-10
6.7095e-08
2.09212e-09
6.99694e-10
6.35569e-08
2.06702e-09
8.15466e-10
5.89269e-08
2.02311e-09
7.98965e-10
5.28566e-08
1.9504e-09
6.02182e-10
4.4881e-08
1.83793e-09
2.76152e-08
1.58902e-09
-6.71767e-10
2.63151e-08
1.02243e-09
-1.30291e-09
4.27161e-08
1.21509e-09
-1.90955e-09
5.03359e-08
1.30219e-09
-2.47463e-09
5.61617e-08
1.35255e-09
-2.98611e-09
6.06361e-08
1.37567e-09
-3.43283e-09
6.40873e-08
1.38371e-09
-3.81457e-09
6.67629e-08
1.38085e-09
-4.12529e-09
6.8847e-08
1.37129e-09
-4.36388e-09
7.04789e-08
1.3563e-09
-4.52503e-09
7.17617e-08
1.33892e-09
-4.61491e-09
7.27743e-08
1.31964e-09
-4.62942e-09
7.35745e-08
1.3009e-09
-4.57411e-09
7.42069e-08
1.28273e-09
-4.45247e-09
7.47032e-08
1.26719e-09
-4.27138e-09
7.50878e-08
1.25395e-09
-4.03434e-09
7.53765e-08
1.24474e-09
-3.75354e-09
7.55809e-08
1.2389e-09
-3.43254e-09
7.57058e-08
1.23779e-09
-3.08249e-09
7.57535e-08
1.24033e-09
-2.71106e-09
7.57197e-08
1.24754e-09
-2.32546e-09
7.55976e-08
1.25794e-09
-1.93901e-09
7.53735e-08
1.27219e-09
-1.55007e-09
7.50296e-08
1.28846e-09
-1.17453e-09
7.4539e-08
1.30705e-09
-8.16071e-10
7.38678e-08
1.32587e-09
-4.79627e-10
7.29688e-08
1.34491e-09
-1.74347e-10
7.17815e-08
1.36175e-09
9.79974e-11
7.02236e-08
1.37603e-09
3.23209e-10
6.81883e-08
1.38485e-09
5.00913e-10
6.55317e-08
1.38717e-09
6.13083e-10
6.20647e-08
1.3791e-09
6.4981e-10
5.75329e-08
1.35756e-09
5.93071e-10
5.15996e-08
1.31366e-09
4.1944e-10
4.38116e-08
1.24144e-09
2.69682e-08
1.06797e-09
-2.29997e-10
2.63689e-08
1.75746e-10
-5.81204e-10
4.28341e-08
2.3428e-10
-9.8647e-10
5.04779e-08
2.61987e-10
-1.40817e-09
5.63137e-08
2.70166e-10
-1.82069e-09
6.07847e-08
2.6462e-10
-2.20825e-09
6.4223e-08
2.50504e-10
-2.55225e-09
6.68764e-08
2.31267e-10
-2.84537e-09
6.89322e-08
2.07689e-10
-3.0763e-09
7.05294e-08
1.82005e-10
-3.24476e-09
7.17745e-08
1.54759e-10
-3.34464e-09
7.2746e-08
1.28053e-10
-3.37827e-09
7.35046e-08
1.02213e-10
-3.34298e-09
7.40945e-08
7.91524e-11
-3.24875e-09
7.45498e-08
5.89596e-11
-3.09803e-09
7.48945e-08
4.32836e-11
-2.90126e-09
7.51466e-08
3.19038e-11
-2.66365e-09
7.5317e-08
2.61795e-11
-2.39472e-09
7.54125e-08
2.56459e-11
-2.10753e-09
7.54339e-08
3.1206e-11
-1.80816e-09
7.53792e-08
4.17549e-11
-1.50608e-09
7.52396e-08
5.77831e-11
-1.21558e-09
7.50031e-08
7.78966e-11
-9.38124e-10
7.465e-08
1.02272e-10
-6.83037e-10
7.41551e-08
1.29189e-10
-4.56442e-10
7.34822e-08
1.58519e-10
-2.61419e-10
7.25856e-08
1.88333e-10
-9.85764e-11
7.14027e-08
2.18325e-10
2.28524e-11
6.98528e-08
2.46446e-10
1.12578e-10
6.78274e-08
2.72281e-10
1.66376e-10
6.51845e-08
2.93721e-10
1.87249e-10
6.17336e-08
3.10149e-10
1.78365e-10
5.72229e-08
3.19033e-10
1.44683e-10
5.13155e-08
3.18304e-10
8.82529e-11
4.35618e-08
3.05559e-10
2.67933e-08
2.63262e-10
1.7243e-10
2.68385e-08
-6.42051e-10
7.5565e-11
4.36548e-08
-7.2342e-10
-1.42009e-10
5.14548e-08
-7.59211e-10
-4.32805e-10
5.73987e-08
-7.93941e-10
-7.60481e-10
6.1941e-08
-8.30059e-10
-1.09278e-09
6.54217e-08
-8.66503e-10
-1.40789e-09
6.80962e-08
-9.0398e-10
-1.69063e-09
7.01556e-08
-9.41779e-10
-1.92403e-09
7.17446e-08
-9.80056e-10
-2.10389e-09
7.29714e-08
-1.01741e-09
-2.22445e-09
7.3919e-08
-1.05352e-09
-2.28087e-09
7.46489e-08
-1.08675e-09
-2.27845e-09
7.52086e-08
-1.11673e-09
-2.22094e-09
7.56328e-08
-1.14189e-09
-2.11053e-09
7.59477e-08
-1.16203e-09
-1.96013e-09
7.61714e-08
-1.17585e-09
-1.77692e-09
7.63167e-08
-1.18348e-09
-1.56842e-09
7.63898e-08
-1.18402e-09
-1.35019e-09
7.63931e-08
-1.17802e-09
-1.13123e-09
7.63233e-08
-1.16497e-09
-9.15807e-10
7.61731e-08
-1.14586e-09
-7.22729e-10
7.59285e-08
-1.12062e-09
-5.51248e-10
7.55707e-08
-1.0906e-09
-4.13006e-10
7.50723e-08
-1.05606e-09
-3.09217e-10
7.43975e-08
-1.01859e-09
-2.42974e-10
7.34977e-08
-9.78588e-10
-2.12672e-10
7.23102e-08
-9.37687e-10
-2.14646e-10
7.07508e-08
-8.96179e-10
-2.40403e-10
6.87099e-08
-8.55402e-10
-2.82663e-10
6.6041e-08
-8.15146e-10
-3.23911e-10
6.25514e-08
-7.75982e-10
-3.48258e-10
5.79832e-08
-7.36546e-10
-3.31029e-10
5.19938e-08
-6.95469e-10
-2.46629e-10
4.4125e-08
-6.47605e-10
2.71012e-08
-5.54211e-10
4.33506e-10
2.76411e-08
-1.236e-09
5.08903e-10
4.50043e-08
-1.42564e-09
4.24791e-10
5.30511e-08
-1.51039e-09
2.27504e-10
5.91726e-08
-1.57917e-09
-3.14087e-11
6.38386e-08
-1.63885e-09
-3.18229e-10
6.74033e-08
-1.69362e-09
-6.07661e-10
7.013e-08
-1.74529e-09
-8.75528e-10
7.22188e-08
-1.79528e-09
-1.10752e-09
7.3819e-08
-1.84344e-09
-1.29083e-09
7.50449e-08
-1.88984e-09
-1.41988e-09
7.59818e-08
-1.93337e-09
-1.49445e-09
7.66956e-08
-1.97358e-09
-1.50883e-09
7.7235e-08
-2.00909e-09
-1.47695e-09
7.76377e-08
-2.03941e-09
-1.39512e-09
7.79308e-08
-2.06327e-09
-1.27786e-09
7.81345e-08
-2.08039e-09
-1.13386e-09
7.82613e-08
-2.08981e-09
-9.71518e-10
7.83193e-08
-2.09163e-09
-8.02444e-10
7.83102e-08
-2.08535e-09
-6.40579e-10
7.82316e-08
-2.07151e-09
-4.92001e-10
7.80748e-08
-2.05006e-09
-3.68666e-10
7.78265e-08
-2.02199e-09
-2.74926e-10
7.7466e-08
-1.98762e-09
-2.20127e-10
7.69654e-08
-1.94826e-09
-2.05614e-10
7.62865e-08
-1.90443e-09
-2.29671e-10
7.53797e-08
-1.85751e-09
-2.90138e-10
7.41785e-08
-1.80798e-09
-3.78794e-10
7.25967e-08
-1.75689e-09
-4.85558e-10
7.05193e-08
-1.70416e-09
-5.88781e-10
6.77961e-08
-1.6499e-09
-6.71743e-10
6.4226e-08
-1.59264e-09
-7.0284e-10
5.95442e-08
-1.53014e-09
-6.47297e-10
5.33952e-08
-1.45649e-09
-4.65789e-10
4.53073e-08
-1.36283e-09
2.77986e-08
-1.16463e-09
5.15312e-10
2.86379e-08
-1.51069e-09
6.56938e-10
4.66111e-08
-1.75001e-09
6.31411e-10
5.49357e-08
-1.85835e-09
4.87452e-10
6.12591e-08
-1.94337e-09
2.72731e-10
6.60692e-08
-2.0149e-09
2.08387e-11
6.97334e-08
-2.07857e-09
-2.36816e-10
7.25265e-08
-2.13781e-09
-4.81284e-10
7.46559e-08
-2.19389e-09
-6.9237e-10
7.62781e-08
-2.24765e-09
-8.59082e-10
7.75116e-08
-2.29866e-09
-9.77642e-10
7.84466e-08
-2.34665e-09
-1.04367e-09
7.91514e-08
-2.39049e-09
-1.05642e-09
7.96782e-08
-2.42952e-09
-1.02132e-09
8.0066e-08
-2.46257e-09
-9.46177e-10
8.03441e-08
-2.48902e-09
-8.37436e-10
8.05333e-08
-2.50789e-09
-7.05067e-10
8.06479e-08
-2.51889e-09
-5.59918e-10
8.06956e-08
-2.52145e-09
-4.12252e-10
8.06792e-08
-2.5157e-09
-2.75684e-10
8.05954e-08
-2.50152e-09
-1.57406e-10
8.04362e-08
-2.47955e-09
-6.72836e-11
8.01868e-08
-2.45007e-09
-1.28541e-11
7.98259e-08
-2.4141e-09
3.27976e-13
7.93239e-08
-2.37226e-09
-2.91229e-11
7.86413e-08
-2.32577e-09
-9.6916e-11
7.77254e-08
-2.27529e-09
-2.05327e-10
7.65076e-08
-2.22193e-09
-3.40036e-10
7.48971e-08
-2.16598e-09
-4.8879e-10
7.27751e-08
-2.10783e-09
-6.29864e-10
6.99846e-08
-2.04663e-09
-7.40161e-10
6.63173e-08
-1.98109e-09
-7.86945e-10
6.14982e-08
-1.90748e-09
-7.30601e-10
5.51587e-08
-1.81897e-09
-5.29353e-10
4.68103e-08
-1.7044e-09
2.87284e-08
-1.45907e-09
4.452e-10
2.96582e-08
-1.46479e-09
5.62167e-10
4.81869e-08
-1.69314e-09
5.30333e-10
5.67648e-08
-1.7979e-09
3.96953e-10
6.32738e-08
-1.8813e-09
2.01251e-10
6.82164e-08
-1.95166e-09
-2.28318e-11
7.19736e-08
-2.01488e-09
-2.51212e-10
7.48287e-08
-2.07384e-09
-4.63354e-10
7.69971e-08
-2.13012e-09
-6.40635e-10
7.86409e-08
-2.18406e-09
-7.78678e-10
7.98834e-08
-2.23562e-09
-8.64739e-10
8.08183e-08
-2.28401e-09
-9.01148e-10
8.15171e-08
-2.32855e-09
-8.9015e-10
8.20339e-08
-2.36813e-09
-8.30937e-10
8.24104e-08
-2.40193e-09
-7.35208e-10
8.26767e-08
-2.42895e-09
-6.09592e-10
8.28552e-08
-2.44859e-09
-4.61586e-10
8.29607e-08
-2.46014e-09
-3.04421e-10
8.30017e-08
-2.46342e-09
-1.47687e-10
8.29809e-08
-2.45816e-09
-3.47433e-12
8.28955e-08
-2.44463e-09
1.1982e-10
8.27364e-08
-2.42305e-09
2.10624e-10
8.24886e-08
-2.39412e-09
2.67065e-10
8.21297e-08
-2.35846e-09
2.78372e-10
8.16288e-08
-2.3171e-09
2.45893e-10
8.09444e-08
-2.27085e-09
1.70437e-10
8.00221e-08
-2.2208e-09
5.60402e-11
7.87898e-08
-2.16769e-09
-8.85245e-11
7.71539e-08
-2.11225e-09
-2.48293e-10
7.49906e-08
-2.05452e-09
-4.08071e-10
7.21377e-08
-1.99415e-09
-5.40426e-10
6.83794e-08
-1.92956e-09
-6.17214e-10
6.34319e-08
-1.85766e-09
-6.00078e-10
5.69142e-08
-1.77175e-09
-4.49981e-10
4.83231e-08
-1.6626e-09
2.9708e-08
-1.42982e-09
2.73508e-10
3.05603e-08
-1.17345e-09
2.98467e-10
4.95018e-08
-1.34244e-09
2.16437e-10
5.8269e-08
-1.4225e-09
6.35834e-11
6.49165e-08
-1.48985e-09
-1.27628e-10
6.99579e-08
-1.54907e-09
-3.33403e-10
7.37832e-08
-1.60401e-09
-5.32242e-10
7.6683e-08
-1.65675e-09
-7.0409e-10
7.88783e-08
-1.70806e-09
-8.39987e-10
8.05356e-08
-1.75812e-09
-9.32644e-10
8.17817e-08
-1.80641e-09
-9.77539e-10
8.27134e-08
-1.85225e-09
-9.70325e-10
8.34047e-08
-1.8946e-09
-9.13412e-10
8.39116e-08
-1.93255e-09
-8.17275e-10
8.4277e-08
-1.96504e-09
-6.80909e-10
8.45329e-08
-1.99124e-09
-5.18199e-10
8.47021e-08
-2.01035e-09
-3.36381e-10
8.48004e-08
-2.02185e-09
-1.4461e-10
8.48367e-08
-2.02535e-09
4.16877e-11
8.48138e-08
-2.0208e-09
2.18356e-10
8.47288e-08
-2.00825e-09
3.69667e-10
8.45724e-08
-1.98811e-09
4.8889e-10
8.43289e-08
-1.96089e-09
5.72016e-10
8.39751e-08
-1.92739e-09
6.09784e-10
8.34788e-08
-1.88845e-09
6.03153e-10
8.27973e-08
-1.84512e-09
5.4901e-10
8.18739e-08
-1.79834e-09
4.52074e-10
8.06348e-08
-1.74912e-09
3.21768e-10
7.89831e-08
-1.69813e-09
1.67282e-10
7.67916e-08
-1.64589e-09
2.34459e-12
7.38938e-08
-1.5922e-09
-1.51442e-10
7.00686e-08
-1.5363e-09
-2.68135e-10
6.50251e-08
-1.47594e-09
-3.20202e-10
5.83734e-08
-1.40674e-09
-2.74931e-10
4.95995e-08
-1.32346e-09
3.05846e-08
-1.15099e-09
5.72757e-11
3.12457e-08
-7.44758e-10
-3.09568e-11
5.04191e-08
-8.26675e-10
-1.85346e-10
5.92926e-08
-8.69684e-10
-3.71994e-10
6.6017e-08
-9.12699e-10
-5.71679e-10
7.11117e-08
-9.54713e-10
-7.64731e-10
7.49718e-08
-9.96778e-10
-9.3312e-10
7.78918e-08
-1.03944e-09
-1.06706e-09
8.00962e-08
-1.08268e-09
-1.16056e-09
8.17541e-08
-1.12607e-09
-1.20566e-09
8.2995e-08
-1.1688e-09
-1.19852e-09
8.39174e-08
-1.2099e-09
-1.14337e-09
8.45969e-08
-1.24832e-09
-1.04051e-09
8.50913e-08
-1.28298e-09
-8.94186e-10
8.54444e-08
-1.31288e-09
-7.12551e-10
8.56891e-08
-1.3371e-09
-5.06093e-10
8.58492e-08
-1.35491e-09
-2.79387e-10
8.5941e-08
-1.36574e-09
-4.73068e-11
8.59735e-08
-1.36926e-09
1.81631e-10
8.595e-08
-1.36532e-09
3.96034e-10
8.58672e-08
-1.35407e-09
5.9038e-10
8.57158e-08
-1.33583e-09
7.48859e-10
8.54794e-08
-1.31118e-09
8.71351e-10
8.51342e-08
-1.28085e-09
9.51702e-10
8.46472e-08
-1.24574e-09
9.78793e-10
8.39742e-08
-1.20687e-09
9.62332e-10
8.30576e-08
-1.1653e-09
8.95856e-10
8.18217e-08
-1.12208e-09
7.88802e-10
8.01678e-08
-1.07817e-09
6.50121e-10
7.79665e-08
-1.03436e-09
4.85259e-10
7.50484e-08
-9.91085e-10
3.14094e-10
7.11892e-08
-9.48333e-10
1.49693e-10
6.60942e-08
-9.05468e-10
1.56354e-11
5.93684e-08
-8.61017e-10
-6.13531e-11
5.04924e-08
-8.15522e-10
3.12542e-08
-7.30767e-10
-1.42387e-10
3.1676e-08
-2.86628e-10
-3.48484e-10
5.09003e-08
-2.75204e-10
-5.7742e-10
5.97972e-08
-2.78163e-10
-8.02697e-10
6.65368e-08
-2.94623e-10
-1.01032e-09
7.16387e-08
-3.17699e-10
-1.1938e-09
7.54991e-08
-3.45392e-10
-1.33818e-09
7.84137e-08
-3.76661e-10
-1.43959e-09
8.06082e-08
-4.10614e-10
-1.4926e-09
8.22528e-08
-4.46209e-10
-1.4932e-09
8.34782e-08
-4.82322e-10
-1.4411e-09
8.43838e-08
-5.17746e-10
-1.33844e-09
8.50464e-08
-5.51333e-10
-1.19136e-09
8.55244e-08
-5.81935e-10
-1.00038e-09
8.58628e-08
-6.08541e-10
-7.75363e-10
8.60948e-08
-6.30225e-10
-5.24481e-10
8.62451e-08
-6.46274e-10
-2.58004e-10
8.63301e-08
-6.56113e-10
1.46069e-11
8.63595e-08
-6.5942e-10
2.85228e-10
8.63362e-08
-6.56064e-10
5.40572e-10
8.62573e-08
-6.46174e-10
7.75422e-10
8.61128e-08
-6.30061e-10
9.75914e-10
8.58864e-08
-6.08303e-10
1.13836e-09
8.55534e-08
-5.81604e-10
1.25603e-09
8.50804e-08
-5.50887e-10
1.32533e-09
8.44224e-08
-5.1716e-10
1.34326e-09
8.35209e-08
-4.81559e-10
1.31164e-09
8.22991e-08
-4.45235e-10
1.2301e-09
8.06576e-08
-4.09375e-10
1.10728e-09
7.84656e-08
-3.75096e-10
9.4496e-10
7.55529e-08
-3.43424e-10
7.56486e-10
7.16939e-08
-3.15245e-10
5.49955e-10
6.65929e-08
-2.91509e-10
3.35616e-10
5.9854e-08
-2.73903e-10
1.42311e-10
5.09573e-08
-2.68953e-10
3.16742e-08
-2.78096e-10
-2.95927e-10
3.18537e-08
1.17966e-10
-5.89538e-10
5.0982e-08
2.11619e-10
-8.70661e-10
5.98347e-08
2.44539e-10
-1.12431e-09
6.65381e-08
2.52075e-10
-1.34064e-09
7.16087e-08
2.46326e-10
-1.51515e-09
7.54405e-08
2.32016e-10
-1.63977e-09
7.83282e-08
2.11496e-10
-1.71417e-09
8.04965e-08
1.86488e-10
-1.73648e-09
8.21158e-08
1.58474e-10
-1.70415e-09
8.33166e-08
1.28942e-10
-1.61797e-09
8.41988e-08
9.92203e-11
-1.48198e-09
8.48395e-08
7.06368e-11
-1.3005e-09
8.52978e-08
4.44301e-11
-1.07821e-09
8.56189e-08
2.13509e-11
-8.21843e-10
8.5837e-08
2.30059e-12
-5.41686e-10
8.59765e-08
-1.18435e-11
-2.46872e-10
8.60546e-08
-2.07606e-11
5.73203e-11
8.60809e-08
-2.37918e-11
3.54429e-10
8.60587e-08
-2.09015e-11
6.39706e-10
8.59846e-08
-1.21162e-11
9.01025e-10
8.58489e-08
1.90198e-12
1.13364e-09
8.56347e-08
2.08474e-11
1.32452e-09
8.53171e-08
4.38523e-11