/*--------------------------------*- C++ -*----------------------------------*\
| =========                 |                                                 |
| \\      /  F ield         | OpenFOAM: The Open Source CFD Toolbox           |
|  \\    /   O peration     | Version:  v2012                                 |
|   \\  /    A nd           | Website:  www.openfoam.com                      |
|    \\/     M anipulation  |                                                 |
\*---------------------------------------------------------------------------*/
FoamFile
{
    version     2.0;
    format      ascii;
    class       volScalarField;
    location    "200";
    object      heatTransferCoeff(T);
}
// * * * * * * * * * * * * * * * * * * * * * * * * * * * * * * * * * * * * * //

dimensions      [1 0 -3 -1 0 0 0];


internalField   uniform 0;

boundaryField
{
    floor
    {
        type            calculated;
        value           uniform 0;
    }
    ceiling
    {
        type            calculated;
        value           nonuniform List<scalar> 
400
(
-0.0072267
-0.00783256
-0.00826333
-0.00856128
-0.008784
-0.00896682
-0.00900977
-0.00896793
-0.00888457
-0.00877906
-0.00865896
-0.00852822
-0.00838804
-0.0082369
-0.00807024
-0.00787865
-0.00764306
-0.00732214
-0.0068194
-0.00595604
-0.00783256
-0.0084764
-0.00895084
-0.00929837
-0.00956647
-0.00980965
-0.00985826
-0.00974357
-0.00956797
-0.00937556
-0.00917533
-0.00897311
-0.00877101
-0.00856727
-0.00835637
-0.00812828
-0.0078629
-0.0075163
-0.0069825
-0.00603596
-0.00826333
-0.00895084
-0.00945205
-0.00984697
-0.0101543
-0.0103906
-0.0104925
-0.0103454
-0.010106
-0.00983607
-0.00956634
-0.0093076
-0.00906078
-0.00882161
-0.00858143
-0.00833047
-0.00804938
-0.007694
-0.00715762
-0.0062009
-0.00856128
-0.00929837
-0.00984697
-0.0102423
-0.0105654
-0.0108608
-0.01108
-0.0109046
-0.0105839
-0.0102291
-0.00989107
-0.00958191
-0.0092994
-0.0090364
-0.00877974
-0.0085083
-0.00820296
-0.00784114
-0.0073037
-0.00636265
-0.008784
-0.00956647
-0.0101543
-0.0105654
-0.0109731
-0.0113864
-0.0117237
-0.0115063
-0.0110689
-0.0105977
-0.0101717
-0.00980155
-0.0094773
-0.00918424
-0.00890646
-0.00862177
-0.00829767
-0.00792459
-0.007394
-0.00648858
-0.00896682
-0.00980965
-0.0103906
-0.0108608
-0.0113864
-0.0118909
-0.0122672
-0.0120287
-0.0114738
-0.0108813
-0.0103659
-0.00993366
-0.00956355
-0.00923565
-0.00893149
-0.00862793
-0.0082895
-0.00791423
-0.00739786
-0.00653802
-0.00900977
-0.00985826
-0.0104925
-0.01108
-0.0117237
-0.0122672
-0.0125737
-0.012317
-0.011671
-0.0109751
-0.0103812
-0.00989835
-0.00949756
-0.00915217
-0.00883989
-0.00853518
-0.00820106
-0.00783575
-0.00733912
-0.0065246
-0.00896793
-0.00974357
-0.0103454
-0.0109046
-0.0115063
-0.0120287
-0.012317
-0.0120535
-0.0114412
-0.0107755
-0.0102138
-0.00975599
-0.00937064
-0.00903401
-0.00872675
-0.00842553
-0.00809647
-0.00773855
-0.00725672
-0.00647734
-0.00888457
-0.00956797
-0.010106
-0.0105839
-0.0110689
-0.0114738
-0.011671
-0.0114412
-0.0109549
-0.0104158
-0.00994484
-0.00954532
-0.00919695
-0.00888396
-0.00859166
-0.00829979
-0.00797731
-0.0076251
-0.00715498
-0.0064034
-0.00877906
-0.00937556
-0.00983607
-0.0102291
-0.0105977
-0.0108813
-0.0109751
-0.0107755
-0.0104158
-0.0100129
-0.00963765
-0.00930106
-0.00899608
-0.00871363
-0.00844185
-0.00816268
-0.0078481
-0.0074967
-0.00703397
-0.00630349
-0.00865896
-0.00917533
-0.00956634
-0.00989107
-0.0101717
-0.0103659
-0.0103812
-0.0102138
-0.00994484
-0.00963765
-0.00933484
-0.00905094
-0.00878656
-0.00853537
-0.00828538
-0.00801882
-0.00771014
-0.0073538
-0.00689251
-0.00617571
-0.00852822
-0.00897311
-0.0093076
-0.00958191
-0.00980155
-0.00993366
-0.00989835
-0.00975599
-0.00954532
-0.00930106
-0.00905094
-0.00880894
-0.00857841
-0.00835391
-0.00812199
-0.0078637
-0.00755489
-0.0071893
-0.00672114
-0.00600881
-0.00838804
-0.00877101
-0.00906078
-0.0092994
-0.0094773
-0.00956355
-0.00949756
-0.00937064
-0.00919695
-0.00899608
-0.00878656
-0.00857841
-0.00837361
-0.00816695
-0.00794342
-0.00768146
-0.00735754
-0.00697594
-0.00648013
-0.00575541
-0.0082369
-0.00856727
-0.00882161
-0.00903641
-0.00918424
-0.00923565
-0.00915217
-0.00903401
-0.00888396
-0.00871363
-0.00853537
-0.00835391
-0.00816695
-0.00796663
-0.007732
-0.00743982
-0.00708572
-0.00663893
-0.00605526
-0.00530438
-0.00807024
-0.00835637
-0.00858143
-0.00877974
-0.00890646
-0.00893149
-0.00883989
-0.00872675
-0.00859166
-0.00844185
-0.00828538
-0.00812199
-0.00794342
-0.007732
-0.0074617
-0.00711741
-0.00664248
-0.00600955
-0.00526845
-0.00456217
-0.00787865
-0.00812828
-0.00833047
-0.0085083
-0.00862177
-0.00862793
-0.00853518
-0.00842553
-0.00829979
-0.00816268
-0.00801882
-0.00786371
-0.00768146
-0.00743982
-0.00711741
-0.00662055
-0.00587357
-0.00497602
-0.00418406
-0.00368015
-0.00764306
-0.0078629
-0.00804938
-0.00820296
-0.00829767
-0.0082895
-0.00820106
-0.00809647
-0.00797731
-0.0078481
-0.00771014
-0.00755489
-0.00735754
-0.00708572
-0.00664248
-0.00587357
-0.00482512
-0.00389116
-0.00330935
-0.0029944
-0.00732214
-0.0075163
-0.007694
-0.00784114
-0.00792459
-0.00791423
-0.00783575
-0.00773855
-0.0076251
-0.0074967
-0.0073538
-0.0071893
-0.00697594
-0.00663893
-0.00600955
-0.00497602
-0.00389116
-0.00322495
-0.00288995
-0.00262648
-0.0068194
-0.0069825
-0.00715762
-0.0073037
-0.007394
-0.00739786
-0.00733912
-0.00725672
-0.00715498
-0.00703397
-0.00689251
-0.00672114
-0.00648013
-0.00605526
-0.00526845
-0.00418406
-0.00330935
-0.00288995
-0.00267825
-0.00244286
-0.00595604
-0.00603596
-0.0062009
-0.00636265
-0.00648858
-0.00653802
-0.0065246
-0.00647734
-0.0064034
-0.00630349
-0.00617571
-0.00600881
-0.00575541
-0.00530438
-0.00456217
-0.00368015
-0.0029944
-0.00262648
-0.00244286
-0.00228371
)
;
    }
    fixedWalls
    {
        type            calculated;
        value           uniform 0;
    }
}


// ************************************************************************* //
