/*--------------------------------*- C++ -*----------------------------------*\
| =========                 |                                                 |
| \\      /  F ield         | OpenFOAM: The Open Source CFD Toolbox           |
|  \\    /   O peration     | Version:  v2012                                 |
|   \\  /    A nd           | Website:  www.openfoam.com                      |
|    \\/     M anipulation  |                                                 |
\*---------------------------------------------------------------------------*/
FoamFile
{
    version     2.0;
    format      ascii;
    class       volScalarField;
    location    "200";
    object      k;
}
// * * * * * * * * * * * * * * * * * * * * * * * * * * * * * * * * * * * * * //

dimensions      [0 2 -2 0 0 0 0];


internalField   nonuniform List<scalar> 
4000
(
0.000276338
0.000280021
0.000268528
0.000237798
0.000203202
0.00016776
0.000191426
0.000207199
0.000216722
0.00022181
0.000222364
0.000218986
0.000212416
0.000203423
0.000192699
0.000180827
0.000168332
0.000155775
0.000143865
0.000131786
0.000319629
0.000335301
0.000319327
0.000248028
0.000180634
0.000175279
0.000203358
0.000222443
0.000233584
0.000239859
0.000244251
0.000245664
0.000243724
0.000238574
0.000230235
0.00021848
0.000202716
0.000182085
0.000157752
0.000134415
0.000352771
0.000382996
0.000377405
0.000280045
0.000176227
0.000175218
0.000204877
0.000227411
0.000240115
0.000245309
0.000245922
0.000242724
0.000235923
0.00022581
0.00021246
0.000196399
0.000179216
0.000163409
0.000151591
0.000147137
0.000379414
0.000422451
0.000437074
0.000366179
0.000203267
0.000175366
0.00019338
0.000215453
0.000230229
0.000234923
0.000235861
0.000234229
0.000229378
0.000221478
0.000211881
0.000201577
0.000191455
0.000184742
0.000183236
0.000185398
0.000403413
0.00045798
0.000493638
0.000476816
0.000331912
0.000230439
0.000213805
0.000219146
0.000229026
0.000236191
0.00024175
0.000248795
0.000259503
0.000272101
0.000275253
0.000267667
0.000257258
0.000248469
0.000242187
0.000231643
0.000426523
0.000491512
0.000546504
0.000574831
0.000526763
0.000446942
0.000396831
0.000374619
0.000368456
0.000372796
0.000385287
0.000402537
0.000418067
0.000424057
0.00041837
0.0004013
0.00037463
0.000344531
0.000314779
0.000277797
0.000448406
0.000524971
0.000596168
0.000657474
0.000670838
0.000637105
0.000615209
0.000603926
0.000596373
0.000589844
0.000583042
0.000574772
0.000563849
0.00054931
0.000530198
0.000505326
0.000473309
0.000433195
0.000383273
0.000318688
0.000469391
0.000560507
0.000645691
0.000722264
0.00077921
0.000785691
0.000775042
0.000759784
0.000740826
0.000719905
0.000698171
0.000675794
0.000653026
0.000629157
0.000602413
0.000571353
0.000534341
0.000488938
0.000429362
0.000347697
0.00048954
0.000589048
0.000676246
0.000748817
0.000810004
0.000849718
0.00085017
0.000836649
0.000815106
0.000789651
0.000762518
0.000734555
0.000705776
0.000675583
0.000642979
0.000606878
0.000566587
0.000519308
0.000456199
0.000366377
0.000507238
0.000593985
0.000662714
0.00071218
0.000749174
0.000779469
0.000786768
0.000781349
0.000769393
0.000753945
0.000735986
0.000716058
0.000694324
0.000670582
0.00064425
0.000614256
0.000578681
0.000533785
0.000471397
0.000380369
0.000280021
0.000317924
0.000311088
0.000271332
0.000226475
0.00018493
0.000221434
0.000252827
0.000273065
0.000285431
0.000290402
0.000289143
0.000282715
0.000272142
0.000258259
0.000241751
0.000223264
0.000203522
0.000183028
0.000156522
0.000335301
0.000462246
0.000460616
0.000365886
0.000284084
0.000250771
0.000312776
0.000360097
0.000381959
0.00038909
0.000393661
0.000396869
0.000396806
0.000392318
0.000382514
0.000366575
0.000343033
0.000307895
0.000252666
0.000163713
0.000382996
0.000595602
0.000636463
0.000504834
0.000334877
0.000271395
0.000355106
0.000428985
0.00046106
0.000462211
0.000453294
0.000442295
0.000430512
0.000416214
0.000397077
0.000371238
0.000338408
0.000299452
0.00025204
0.00016939
0.000422451
0.000694121
0.000804412
0.000695427
0.000443463
0.000323643
0.000360636
0.000440871
0.000504261
0.000524487
0.000522409
0.000508026
0.000484034
0.000450773
0.000412398
0.000373128
0.000332696
0.000295822
0.000263844
0.000201854
0.00045798
0.000750761
0.000925185
0.000907775
0.000636275
0.000454456
0.000417065
0.000443023
0.000488117
0.000525239
0.000552999
0.000567822
0.000564481
0.000548878
0.000507277
0.000449348
0.000389575
0.000339456
0.000302676
0.000248324
0.000491512
0.000773615
0.000989714
0.0010841
0.000915018
0.000720978
0.00061733
0.000574568
0.000565801
0.000573431
0.000587944
0.000599925
0.000603037
0.000601763
0.000595862
0.000569341
0.000512597
0.000446079
0.000381517
0.000299163
0.000524971
0.000784627
0.00100669
0.00118028
0.00116705
0.00104188
0.000939461
0.000863099
0.000811024
0.000777426
0.000753957
0.000733086
0.000711937
0.000693255
0.000675773
0.000650387
0.000610291
0.000556713
0.000478602
0.000348251
0.000560507
0.000803333
0.000990714
0.00115151
0.00125018
0.0012163
0.00116981
0.00111994
0.00106762
0.00101864
0.000975081
0.000936183
0.000898293
0.000855922
0.000807603
0.000753473
0.000693489
0.000631719
0.000546424
0.000383606
0.000589047
0.000817411
0.000974769
0.00109384
0.00120186
0.00124937
0.00123844
0.00120042
0.00114637
0.00108452
0.00102315
0.000965934
0.000912614
0.000861219
0.000809485
0.00075801
0.000704441
0.000647606
0.000564702
0.000399971
0.000593985
0.000702869
0.000789125
0.000853261
0.000901227
0.000945194
0.000954636
0.000936817
0.000908667
0.000878222
0.000846115
0.000813102
0.000779501
0.000745054
0.000708949
0.000669883
0.000625583
0.000571826
0.000499693
0.000393741
0.000268528
0.000311088
0.00030549
0.000270723
0.000230583
0.000192062
0.00025165
0.000297713
0.000326663
0.000344203
0.000351087
0.00034947
0.000341409
0.000328504
0.000311687
0.000291565
0.000268712
0.000243911
0.000213777
0.000174062
0.000319327
0.000460616
0.000458609
0.000391587
0.000311328
0.0002759
0.0003935
0.000471902
0.000510029
0.000524629
0.000532723
0.000534798
0.000530936
0.000520208
0.000501566
0.000474197
0.00043632
0.000382213
0.000304814
0.000183613
0.000377405
0.000636463
0.000656659
0.000542412
0.00039515
0.000326246
0.000465365
0.000573456
0.000616896
0.000619267
0.000607004
0.00059077
0.000573566
0.00055317
0.000525543
0.000488302
0.000440058
0.000381093
0.000307244
0.000186715
0.000437074
0.000804412
0.000876737
0.000758553
0.000553093
0.0004288
0.000504609
0.000615775
0.000678726
0.00069239
0.000679508
0.000651206
0.000615476
0.00057439
0.000526935
0.000475029
0.00042024
0.000365624
0.000311174
0.00021462
0.000493638
0.000925185
0.00105496
0.000984021
0.000769689
0.000603622
0.000597279
0.000646238
0.000687932
0.000712738
0.00072392
0.000714692
0.000688596
0.000653611
0.000596777
0.00052359
0.00045184
0.00039011
0.000340487
0.000259489
0.000546504
0.000989714
0.00117032
0.00117509
0.00100592
0.000835868
0.000773152
0.000749559
0.00073612
0.000731862
0.000733079
0.00072963
0.000719364
0.000706812
0.00068425
0.000634099
0.000556994
0.00048121
0.000410862
0.000310679
0.000596168
0.00100669
0.0012179
0.00128288
0.00117911
0.00104292
0.000984852
0.000935955
0.000878556
0.000837724
0.000811509
0.000790782
0.000770938
0.000752315
0.000732354
0.000706464
0.000663803
0.000603835
0.000514
0.000364273
0.000645691
0.000990714
0.00118101
0.00127759
0.00126636
0.0011921
0.00116999
0.00113721
0.00107826
0.00102007
0.000973485
0.000937823
0.000908348
0.000881468
0.000852689
0.000817049
0.000767314
0.000704892
0.000602242
0.000407346
0.000676246
0.000974769
0.00114752
0.00123706
0.00129046
0.00130292
0.00131516
0.00129112
0.0012376
0.00117746
0.00112235
0.00107403
0.0010309
0.000990929
0.000953149
0.000907089
0.000842379
0.000761523
0.000640776
0.000430137
0.000662713
0.000789125
0.000886362
0.000963107
0.00101835
0.00105471
0.0010753
0.00105674
0.00102119
0.000978764
0.000934924
0.000891678
0.000849348
0.000807353
0.000764367
0.000719123
0.000669143
0.000609594
0.000530869
0.000416482
0.000237798
0.000271332
0.000270723
0.000250301
0.000218883
0.000202304
0.000296695
0.000351221
0.000382831
0.000399906
0.000404187
0.000398543
0.00038637
0.000370195
0.000350881
0.000328634
0.000303665
0.000273964
0.000235728
0.000184901
0.000248028
0.000365886
0.000391587
0.000362785
0.000317898
0.000339447
0.000517319
0.00061583
0.000657927
0.000670728
0.000670875
0.000661191
0.000645612
0.000623223
0.00059237
0.000551783
0.000499025
0.000430496
0.000337124
0.000195171
0.000280045
0.000504834
0.000542412
0.00049516
0.000433393
0.000462818
0.00066234
0.000766877
0.000789184
0.00077438
0.000749261
0.000722361
0.000696321
0.000666844
0.000628934
0.000579763
0.000517486
0.000441997
0.000347006
0.00019929
0.000366179
0.000695428
0.000758553
0.000709278
0.000616266
0.000616305
0.000791181
0.000871992
0.000871584
0.000840376
0.000802858
0.000760487
0.000715836
0.00066801
0.000613507
0.000552422
0.000486729
0.000418035
0.000345272
0.000224703
0.000476816
0.000907775
0.000984021
0.000950212
0.000824943
0.000782856
0.000921502
0.00096848
0.000923784
0.000873689
0.000839602
0.000804637
0.000762802
0.000712997
0.000646822
0.000568653
0.000493514
0.000425875
0.000367365
0.000267857
0.000574831
0.0010841
0.00117509
0.00115395
0.00100276
0.000926799
0.00103664
0.00106584
0.000983655
0.00090543
0.000861311
0.000832234
0.000805008
0.000773919
0.000729424
0.000658171
0.000573586
0.000498344
0.000429135
0.000318714
0.000657474
0.00118028
0.00128288
0.00125707
0.0011224
0.00103583
0.00112124
0.0011502
0.00107316
0.000980373
0.000923317
0.000886859
0.000857126
0.000828027
0.000795257
0.000755194
0.000697716
0.000628148
0.00053231
0.00037504
0.000722264
0.00115151
0.00127759
0.00128525
0.00121778
0.00116009
0.00123309
0.00126139
0.00120073
0.00112174
0.00106483
0.00102511
0.000992264
0.000960309
0.0009253
0.00088438
0.000828621
0.000757219
0.000637895
0.000425418
0.000748817
0.00109384
0.00123706
0.00129266
0.0013165
0.00133019
0.00139936
0.00140483
0.0013494
0.00128381
0.0012308
0.00118769
0.00114876
0.00111172
0.00107065
0.00102093
0.00095108
0.000850625
0.000697365
0.00045592
0.00071218
0.000853261
0.000963107
0.00103535
0.00108083
0.00111438
0.00115817
0.00114585
0.00110475
0.00105346
0.00100185
0.000952652
0.000905842
0.0008605
0.000814371
0.00076395
0.000707246
0.000643415
0.000558844
0.000439195
0.000203202
0.000226475
0.000230583
0.000218883
0.00020428
0.00025456
0.000358295
0.000413861
0.000442693
0.000453185
0.000451291
0.000438785
0.000419778
0.000399107
0.000377532
0.000354634
0.000327686
0.000294033
0.000250216
0.000191021
0.000180634
0.000284084
0.000311328
0.000317898
0.000361785
0.00050184
0.000704444
0.000810082
0.000836226
0.000827782
0.000799983
0.000765945
0.000730511
0.000692247
0.000648197
0.000595482
0.000533071
0.000455919
0.000352849
0.000200218
0.000176227
0.000334877
0.00039515
0.000433393
0.000530621
0.000698989
0.000940887
0.00104907
0.00102455
0.000958304
0.000896733
0.000845882
0.000800899
0.000755948
0.000704778
0.000643093
0.000569379
0.000481934
0.000371779
0.000206904
0.000203267
0.000443463
0.000553093
0.000616266
0.000693912
0.000843292
0.00108924
0.00120457
0.00114439
0.00102342
0.000932139
0.000864989
0.000806032
0.000747797
0.000684718
0.000614782
0.000538643
0.000457393
0.000369173
0.000232156
0.000331912
0.000636275
0.000769689
0.000824943
0.000838636
0.000943821
0.0011685
0.00128956
0.0012183
0.00105585
0.000950158
0.000883522
0.000824512
0.000761194
0.000687392
0.00060578
0.000526959
0.000453174
0.000386139
0.000274105
0.000526763
0.000915018
0.00100592
0.00100276
0.000953684
0.00100967
0.00120144
0.00132628
0.00126799
0.00108552
0.000973503
0.000912981
0.000866355
0.00081572
0.000751647
0.000668433
0.000584946
0.000510624
0.000441411
0.000325029
0.000670838
0.00116705
0.00117911
0.0011224
0.0010454
0.0010629
0.00121889
0.00134367
0.00129291
0.00113877
0.0010342
0.000976735
0.000934979
0.000893879
0.000847301
0.000791823
0.000717105
0.000638799
0.000540932
0.000382156
0.000779211
0.00125018
0.00126636
0.00121778
0.00116799
0.00117645
0.00130719
0.00141293
0.0013581
0.00124183
0.0011616
0.00111376
0.00107637
0.00103786
0.000993521
0.000941695
0.000873161
0.000788563
0.000656651
0.000438042
0.000810004
0.00120186
0.00129046
0.0013165
0.00134661
0.00139154
0.00150624
0.00154651
0.00147355
0.00138114
0.00131808
0.00127653
0.00124176
0.00120162
0.00115261
0.00109371
0.00102035
0.000905238
0.000731015
0.000474868
0.000749174
0.000901227
0.00101835
0.00108083
0.00112528
0.00116633
0.00123142
0.00122834
0.00117919
0.00111527
0.00105354
0.000997427
0.000946032
0.000897039
0.000847846
0.000794938
0.000733577
0.000665304
0.000577819
0.000457214
0.00016776
0.00018493
0.000192062
0.000202304
0.00025456
0.000350685
0.000412582
0.000459969
0.000487035
0.000495436
0.000493166
0.000475253
0.000446454
0.000419593
0.000395278
0.000370369
0.00034162
0.000305842
0.000258724
0.000193579
0.000175279
0.000250771
0.0002759
0.000339447
0.00050184
0.000608599
0.000754495
0.000896043
0.000935661
0.000915566
0.000869569
0.000815879
0.000765016
0.000714656
0.000662608
0.000605463
0.000539688
0.000459712
0.000354106
0.000200575
0.000175218
0.000271395
0.000326246
0.000462818
0.000698989
0.00077831
0.000939029
0.00112414
0.00117976
0.00112117
0.00102653
0.00094304
0.00087223
0.000807822
0.000742423
0.000670936
0.000590281
0.000496294
0.000379397
0.000209734
0.000175366
0.000323643
0.0004288
0.000616305
0.000843292
0.000893624
0.00104617
0.00125194
0.00132121
0.00122498
0.0010763
0.000967857
0.000885358
0.000811484
0.00073748
0.000658232
0.000572944
0.000481746
0.000382196
0.000236459
0.000230439
0.000454456
0.000603622
0.000782856
0.000943821
0.000968626
0.00110269
0.00130958
0.00138195
0.00125665
0.00107766
0.000966587
0.000884657
0.000806659
0.000724286
0.000637525
0.000553208
0.000472522
0.000397251
0.000277547
0.000446942
0.000720978
0.000835868
0.000926799
0.00100967
0.0010161
0.00113041
0.00132725
0.00139563
0.00125986
0.0010828
0.000984284
0.000916284
0.000848169
0.000770498
0.000680385
0.000595577
0.000518979
0.000447791
0.000327858
0.000637106
0.00104188
0.00104292
0.00103583
0.0010629
0.00106406
0.00116314
0.00134561
0.0014008
0.00126438
0.00112192
0.0010464
0.00099491
0.000943208
0.000883626
0.000813696
0.000725102
0.000640268
0.0005419
0.000384543
0.000785691
0.0012163
0.0011921
0.00116009
0.00117645
0.00119343
0.0012883
0.00145256
0.00145195
0.00132461
0.00122548
0.00117374
0.0011359
0.00109338
0.00104098
0.000978621
0.000897558
0.000800179
0.000660242
0.00044306
0.000849718
0.00124937
0.00130292
0.00133019
0.00139154
0.00145153
0.00155623
0.00164051
0.00156363
0.00144608
0.00137058
0.00132842
0.00129159
0.00124726
0.00119177
0.00112518
0.00104721
0.000924227
0.000740646
0.000483015
0.000779469
0.000945194
0.00105471
0.00111438
0.00116633
0.00121317
0.00127843
0.00129005
0.00123597
0.00116023
0.00108855
0.00102533
0.000968175
0.000914395
0.00086127
0.000804897
0.000739842
0.000669782
0.000582451
0.000464899
0.000191426
0.000221434
0.00025165
0.000296695
0.000358295
0.000412582
0.000447488
0.000473396
0.000498751
0.000512304
0.000516294
0.000499865
0.000463707
0.000431293
0.00040422
0.000378166
0.000348847
0.000312276
0.000263293
0.000193554
0.000203358
0.000312776
0.0003935
0.000517319
0.000704444
0.000754495
0.000696613
0.000766614
0.000858042
0.000891699
0.000866934
0.000815595
0.000759769
0.000703506
0.000648858
0.000591518
0.000526981
0.000449217
0.000346918
0.000198569
0.000204877
0.000355106
0.000465365
0.00066234
0.000940887
0.000939029
0.000844529
0.00093575
0.0010887
0.00114313
0.00107507
0.000977386
0.000891744
0.000814163
0.000740345
0.000664684
0.00058219
0.000487861
0.000372425
0.000209143
0.00019338
0.000360636
0.000504609
0.000791181
0.00108924
0.00104617
0.000938202
0.00104574
0.00124203
0.00129123
0.00117318
0.00104742
0.000943799
0.000852509
0.00076595
0.000678068
0.000586439
0.000489483
0.000384309
0.000237433
0.000213805
0.000417065
0.000597279
0.000921502
0.0011685
0.00110269
0.0010014
0.0011201
0.00132541
0.00133817
0.00118129
0.00104365
0.000940571
0.000847175
0.000754735
0.000661216
0.000570714
0.000483424
0.000401119
0.000277728
0.000396831
0.00061733
0.000773152
0.00103664
0.00120144
0.00113041
0.00105028
0.00117524
0.00136076
0.00132965
0.00116622
0.00104775
0.000962396
0.000879001
0.00078916
0.000692273
0.000603485
0.000522653
0.000448143
0.00032657
0.000615209
0.000939461
0.000984852
0.00112124
0.00121889
0.00116314
0.00111434
0.00123981
0.0013851
0.001317
0.00117704
0.00109776
0.00104045
0.000978332
0.000905708
0.000822567
0.000724179
0.000634188
0.000535613
0.000381569
0.000775042
0.00116981
0.00116999
0.00123309
0.00130719
0.0012883
0.00127889
0.00140136
0.00146767
0.00135798
0.0012581
0.00121176
0.00117602
0.00112916
0.00106814
0.000995365
0.000903079
0.000794765
0.000650625
0.000440151
0.00085017
0.00123844
0.00131516
0.00139936
0.00150624
0.00155623
0.00159126
0.00167043
0.00160623
0.00147639
0.00139419
0.00135281
0.00131654
0.00126891
0.00120729
0.00113295
0.0010477
0.000917425
0.000731012
0.000480918
0.000786768
0.000954636
0.0010753
0.00115817
0.00123142
0.00127843
0.00130886
0.00132084
0.00126264
0.00117591
0.00109414
0.0010237
0.000961774
0.000904988
0.000850187
0.000793326
0.000728723
0.000660099
0.000575527
0.000463477
0.000207199
0.000252827
0.000297713
0.000351221
0.000413861
0.000459969
0.000473396
0.000476733
0.000490896
0.000505955
0.000514514
0.000509583
0.000470979
0.000436131
0.000408188
0.000382124
0.00035302
0.000316291
0.000265975
0.000191928
0.000222443
0.000360097
0.000471902
0.00061583
0.000810082
0.000896043
0.000766614
0.000694487
0.000721937
0.000789844
0.000820949
0.000785256
0.000733369
0.000676022
0.000622225
0.00056773
0.00050719
0.000434329
0.000338075
0.000196262
0.000227411
0.000428985
0.000573456
0.000766877
0.00104907
0.00112414
0.00093575
0.000816589
0.000883733
0.00102982
0.00103454
0.000940548
0.000860583
0.000783227
0.00070913
0.000634481
0.000554762
0.000465188
0.000357453
0.000207083
0.000215453
0.000440871
0.000615775
0.000871992
0.00120457
0.00125194
0.00104574
0.000920546
0.00103338
0.00120419
0.00116374
0.00105505
0.000955229
0.000857721
0.000764081
0.00067249
0.000579268
0.000481726
0.000377187
0.000235501
0.000219146
0.000443023
0.000646238
0.00096848
0.00128956
0.00130958
0.0011201
0.00102125
0.00115797
0.00128293
0.00119243
0.0010792
0.000977762
0.000875733
0.000774405
0.000674311
0.000578485
0.000486122
0.000398833
0.000274604
0.000374619
0.000574568
0.000749559
0.00106584
0.00132628
0.00132725
0.00117524
0.00111567
0.00124518
0.00129394
0.00118052
0.00108333
0.000997385
0.000904565
0.000804935
0.000701453
0.000607552
0.000521597
0.000443188
0.000321271
0.000603926
0.000863099
0.000935955
0.0011502
0.00134367
0.00134562
0.00123981
0.00121602
0.00131176
0.00128937
0.00118696
0.00112769
0.00107207
0.00100067
0.000915576
0.000820885
0.000715805
0.000621529
0.000523085
0.000373769
0.000759784
0.00111994
0.00113721
0.00126139
0.00141293
0.00145256
0.00140136
0.00140431
0.00143575
0.00134513
0.00126628
0.00123712
0.00120458
0.00115099
0.00107923
0.000995189
0.000892517
0.000775778
0.000630915
0.000430922
0.000836649
0.00120042
0.00129112
0.00140483
0.00154651
0.00164051
0.00167043
0.00168572
0.00161011
0.00148322
0.00141373
0.00138236
0.00134586
0.00129053
0.00121792
0.00113179
0.00103552
0.000896369
0.000709599
0.000471833
0.000781349
0.000936817
0.00105674
0.00114585
0.00122834
0.00129005
0.00132084
0.0013099
0.00124434
0.00115487
0.00107377
0.00100483
0.000944013
0.000887901
0.000833493
0.000776926
0.000713035
0.000645667
0.000563712
0.000457
0.000216722
0.000273065
0.000326663
0.000382831
0.000442693
0.000487035
0.000498751
0.000490896
0.000489596
0.000496668
0.00050331
0.00050814
0.000471791
0.000438103
0.000411109
0.00038577
0.000357127
0.000320268
0.00026847
0.00018959
0.000233584
0.000381959
0.000510029
0.000657927
0.000836226
0.000935661
0.000858042
0.000721938
0.0006541
0.000681061
0.000753685
0.000740222
0.000699943
0.000647549
0.000598146
0.000548039
0.000491939
0.00042379
0.000332807
0.00019481
0.000240115
0.00046106
0.000616896
0.000789184
0.00102455
0.00117976
0.0010887
0.000883733
0.000785428
0.000872808
0.000938028
0.000859204
0.000797731
0.000731415
0.000664306
0.000595167
0.000521317
0.000439136
0.000341442
0.00020492
0.000230229
0.000504261
0.000678726
0.000871584
0.00114439
0.00132121
0.00124203
0.00103338
0.000945585
0.00104567
0.00105467
0.00097466
0.000900875
0.000817518
0.000730467
0.000642884
0.000554148
0.000462465
0.000364164
0.000231492
0.000229026
0.000488117
0.000687932
0.000923784
0.0012183
0.00138195
0.00132541
0.00115797
0.0010957
0.00114976
0.00110925
0.00104629
0.000975759
0.000881372
0.000777922
0.000675209
0.000576765
0.000481779
0.000391974
0.000268387
0.000368456
0.000565801
0.00073612
0.000983655
0.00126799
0.00139563
0.00136076
0.00124518
0.00119878
0.00119055
0.0011257
0.00107659
0.00101031
0.000918323
0.000814244
0.000706158
0.000607409
0.00051636
0.000434205
0.000312209
0.000596373
0.000811024
0.000878556
0.00107316
0.00129291
0.0014008
0.0013851
0.00131176
0.00126643
0.00121218
0.00115364
0.0011303
0.00108487
0.00100878
0.000914057
0.000810383
0.000700956
0.000603197
0.000505668
0.000361638
0.000740826
0.00106762
0.00107826
0.00120073
0.0013581
0.00145195
0.00146767
0.00143575
0.00137916
0.0012947
0.00125453
0.00124777
0.00121767
0.00115624
0.00107342
0.000978501
0.000866884
0.000745108
0.000603338
0.000416546
0.000815106
0.00114637
0.0012376
0.0013494
0.00147355
0.00156363
0.00160623
0.00161011
0.0015431
0.00145862
0.00142277
0.00140389
0.00136466
0.00129975
0.00121562
0.00111797
0.0010116
0.000865002
0.000679971
0.000457463
0.000769393
0.000908667
0.00102119
0.00110475
0.00117919
0.00123597
0.00126264
0.00124434
0.00118406
0.00110668
0.00103578
0.000973864
0.000917746
0.00086477
0.000812344
0.00075697
0.000693979
0.000627631
0.000548235
0.000446776
0.00022181
0.000285431
0.000344203
0.000399906
0.000453185
0.000495436
0.000512304
0.000505955
0.000496668
0.00049599
0.000495897
0.000499814
0.00046916
0.00044005
0.000415502
0.000391265
0.000362972
0.000325648
0.000271823
0.000187044
0.000239859
0.00038909
0.000524629
0.000670728
0.000827782
0.000915566
0.000891699
0.000789844
0.000681061
0.000635901
0.000690083
0.000696233
0.000670984
0.000629591
0.00058783
0.000542555
0.00048966
0.000423868
0.000334714
0.000194393
0.000245309
0.000462211
0.000619267
0.00077438
0.000958304
0.00112117
0.00114313
0.00102982
0.000872808
0.000811958
0.000820989
0.000766898
0.000728037
0.000679432
0.00062492
0.000564283
0.000496676
0.000420339
0.000330242
0.000202788
0.000234923
0.000524487
0.00069239
0.000840376
0.00102342
0.00122498
0.00129123
0.00120419
0.00104567
0.00095368
0.000901181
0.000851521
0.000806145
0.000747087
0.000678357
0.000602947
0.000522472
0.000437858
0.000348753
0.000225977
0.000236191
0.000525239
0.000712738
0.000873689
0.00105585
0.00125665
0.00133817
0.00128293
0.00114976
0.00104309
0.000985704
0.00095523
0.000911072
0.000840793
0.000754045
0.000660404
0.000565186
0.000471003
0.000381659
0.000259385
0.000372796
0.000573431
0.000731862
0.00090543
0.00108552
0.00125986
0.00132965
0.00129394
0.00119055
0.0010951
0.00105196
0.0010352
0.00099244
0.000911711
0.000811239
0.000703136
0.000601679
0.000506999
0.000422262
0.000299621
0.000589844
0.000777426
0.000837724
0.000980373
0.00113877
0.00126438
0.001317
0.00128937
0.00121218
0.00113989
0.00111774
0.00111441
0.00107486
0.000997705
0.000899477
0.000791511
0.000679521
0.000579602
0.000484304
0.000345508
0.000719905
0.00101864
0.00102007
0.00112174
0.00124183
0.00132461
0.00135798
0.00134513
0.0012947
0.00125045
0.00124554
0.00124593
0.00121152
0.00114212
0.00105022
0.000946054
0.000827239
0.000703948
0.000569269
0.000397568
0.000789651
0.00108452
0.00117746
0.00128381
0.00138114
0.00144608
0.00147639
0.00148322
0.00145862
0.00143497
0.00142781
0.00141086
0.00136424
0.00129025
0.00119704
0.00109038
0.000976175
0.000824988
0.000643682
0.000438506
0.000753944
0.000878222
0.000978764
0.00105346
0.00111527
0.00116023
0.00117591
0.00115487
0.00110668
0.00104676
0.00098864
0.000935303
0.00088544
0.000837068
0.000787743
0.000734224
0.000672478
0.00060646
0.000529469
0.000433261
0.000222364
0.000290402
0.000351087
0.000404187
0.000451291
0.000493166
0.000516294
0.000514514
0.00050331
0.000495897
0.000488589
0.000488623
0.000465249
0.00044285
0.000421596
0.000398605
0.000370443
0.000332217
0.000275711
0.000184133
0.000244251
0.000393661
0.000532723
0.000670875
0.000799983
0.000869569
0.000866934
0.000820949
0.000753685
0.000690083
0.000677461
0.000670493
0.000654964
0.000627895
0.000595569
0.000555138
0.000504115
0.000438095
0.000346285
0.000194662
0.000245922
0.000453294
0.000607004
0.000749261
0.000896733
0.00102653
0.00107507
0.00103454
0.000938028
0.000820989
0.000729163
0.000699967
0.000676135
0.000645036
0.000604858
0.000553725
0.000491628
0.000418192
0.000329581
0.000199879
0.000235861
0.000522409
0.000679508
0.000802858
0.000932139
0.0010763
0.00117318
0.00116374
0.00105467
0.000901181
0.000794263
0.000747741
0.00071137
0.00067182
0.00062321
0.000563466
0.000493973
0.000417198
0.000334944
0.000218511
0.00024175
0.000552999
0.00072392
0.000839602
0.000950158
0.00107766
0.00118129
0.00119243
0.00110925
0.000985704
0.000896493
0.000840338
0.000796006
0.000748034
0.000688055
0.000615629
0.000534766
0.000449891
0.000366707
0.000247518
0.000385287
0.000587944
0.000733079
0.000861311
0.000973503
0.0010828
0.00116622
0.00118052
0.0011257
0.00105196
0.00100486
0.000965919
0.000919958
0.000860454
0.000780678
0.000685166
0.000586002
0.000490326
0.000406142
0.000283541
0.000583042
0.000753957
0.000811509
0.000923317
0.0010342
0.00112192
0.00117704
0.00118696
0.00115364
0.00111774
0.00110255
0.00108353
0.00103714
0.000962209
0.00086782
0.000760687
0.000649089
0.000548966
0.00045857
0.000325457
0.000698171
0.000975081
0.000973485
0.00106483
0.0011616
0.00122548
0.0012581
0.00126628
0.00125453
0.00124554
0.00124379
0.00122809
0.00118199
0.00110618
0.00100888
0.000898405
0.000774559
0.000652706
0.000529127
0.000374241
0.000762518
0.00102315
0.00112235
0.0012308
0.00131808
0.00137058
0.00139419
0.00141373
0.00142277
0.00142781
0.00142327
0.00139451
0.00133741
0.00125741
0.00115985
0.00104829
0.000928863
0.000776315
0.000601077
0.00041525
0.000735986
0.000846115
0.000934924
0.00100185
0.00105354
0.00108855
0.00109414
0.00107377
0.00103578
0.00098864
0.000940393
0.000894301
0.000850303
0.000806668
0.000760682
0.000709096
0.000648503
0.000582316
0.000507632
0.000416709
0.000218986
0.000289143
0.00034947
0.000398543
0.000438785
0.000475253
0.000499865
0.000509583
0.00050814
0.000499814
0.000488623
0.000475485
0.000460724
0.000444851
0.000426572
0.000404484
0.000375948
0.00033611
0.000276291
0.000179604
0.000245664
0.000396869
0.000534798
0.000661191
0.000765945
0.000815879
0.000815595
0.000785256
0.000740222
0.000696233
0.000670493
0.000662629
0.000654083
0.000640971
0.00061785
0.000582145
0.00053253
0.000464972
0.000367088
0.000195541
0.000242724
0.000442295
0.00059077
0.000722361
0.000845882
0.00094304
0.000977386
0.000940548
0.000859204
0.000766898
0.000699967
0.000669041
0.000653054
0.000637173
0.000610822
0.00056939
0.000512358
0.000439125
0.000344386
0.00019575
0.000234229
0.000508026
0.000651206
0.000760487
0.000864989
0.000967857
0.00104742
0.00105505
0.00097466
0.000851521
0.000747741
0.000683256
0.000646971
0.000621239
0.000589704
0.000544325
0.000484032
0.000411071
0.000328586
0.000207235
0.000248795
0.000567822
0.000714692
0.000804637
0.000883522
0.000966587
0.00104365
0.0010792
0.00104629
0.00095523
0.000840338
0.000745555
0.000685762
0.000646473
0.000606651
0.000555493
0.000491216
0.000417211
0.000343368
0.000231325
0.000402537
0.000599925
0.00072963
0.000832234
0.000912981
0.000984284
0.00104775
0.00108333
0.00107659
0.0010352
0.000965919
0.000870142
0.0007921
0.000735089
0.000678918
0.000612435
0.000536268
0.000454151
0.000378506
0.000263047
0.000574772
0.000733086
0.000790782
0.000886859
0.000976735
0.0010464
0.00109776
0.00112769
0.0011303
0.00111441
0.00108353
0.00103231
0.000965835
0.00089211
0.000806177
0.00070783
0.000603941
0.000505878
0.000423544
0.000301023
0.000675794
0.000936183
0.000937823
0.00102511
0.00111376
0.00117374
0.00121176
0.00123712
0.00124777
0.00124593
0.00122809
0.00118897
0.0011289
0.00104863
0.000949963
0.000836907
0.000708975
0.000591136
0.00048145
0.000346245
0.000734555
0.000965934
0.00107403
0.00118769
0.00127653
0.00132842
0.00135281
0.00138236
0.00140389
0.00141086
0.00139451
0.00134993
0.00128278
0.00120021
0.00110342
0.000991857
0.000869837
0.000716901
0.000551106
0.000387381
0.000716058
0.000813102
0.000891678
0.000952652
0.000997427
0.00102533
0.0010237
0.00100483
0.000973864
0.000935303
0.000894301
0.000853736
0.0008141
0.000773956
0.000730398
0.000680093
0.000620227
0.00055438
0.000482277
0.000396809
0.000212416
0.000282715
0.000341409
0.00038637
0.000419778
0.000446454
0.000463707
0.000470979
0.000471791
0.00046916
0.000465249
0.000460724
0.000453812
0.000441913
0.000424571
0.000401566
0.00037076
0.000327219
0.000263233
0.000170865
0.000243724
0.000396806
0.000530936
0.000645612
0.000730511
0.000765016
0.000759769
0.00073337
0.000699943
0.000670984
0.000654964
0.000654083
0.000659335
0.000658059
0.000642319
0.000610113
0.000561134
0.000491642
0.000387511
0.000197026
0.000235923
0.000430512
0.000573566
0.000696321
0.000800899
0.00087223
0.000891744
0.000860583
0.000797731
0.000728037
0.000676135
0.000653054
0.000649938
0.0006491
0.000636
0.000604405
0.00055311
0.000479803
0.000373704
0.000193569
0.000229378
0.000484034
0.000615476
0.000715836
0.000806032
0.000885358
0.000943799
0.000955229
0.000900875
0.000806145
0.00071137
0.000646971
0.000618301
0.000606952
0.000591282
0.000559312
0.000507282
0.000434714
0.000339905
0.00019351
0.000259503
0.000564481
0.000688596
0.000762802
0.000824512
0.000884657
0.000940571
0.000977762
0.000975759
0.000911072
0.000796006
0.000685762
0.000620385
0.000589088
0.000563892
0.000527845
0.00047461
0.000404636
0.000325179
0.000208866
0.000418067
0.000603037
0.000719364
0.000805008
0.000866355