/*--------------------------------*- C++ -*----------------------------------*\
| =========                 |                                                 |
| \\      /  F ield         | OpenFOAM: The Open Source CFD Toolbox           |
|  \\    /   O peration     | Version:  v2006                                 |
|   \\  /    A nd           | Website:  www.openfoam.com                      |
|    \\/     M anipulation  |                                                 |
\*---------------------------------------------------------------------------*/
FoamFile
{
    version     2.0;
    format      ascii;
    class       volScalarField;
    location    "33";
    object      k;
}
// * * * * * * * * * * * * * * * * * * * * * * * * * * * * * * * * * * * * * //

dimensions      [0 2 -2 0 0 0 0];


internalField   nonuniform List<scalar> 
78750
(
0.000548622
0.000142927
5.1088e-05
0.00010576
0.00011552
0.000279852
0.000300752
0.000569866
0.000575547
0.00091499
0.00083018
0.00119939
0.00104951
0.0014182
0.00124243
0.00157567
0.00140925
0.00169138
0.00155331
0.00179516
0.00165438
0.00186464
0.0016579
0.00192485
0.00156822
0.00200985
0.00139574
0.00211475
0.00113706
0.00217828
0.000794035
0.00210642
0.000562141
0.00068409
0.000316815
0.0154477
0.00581958
0.00488217
0.00598702
0.00685421
0.00636603
0.00626473
0.00643686
0.00644294
0.00630366
0.00625582
0.00612629
0.00609199
0.00599295
0.00590926
0.00570923
0.00559661
0.0053758
0.00519094
0.00484879
0.00441573
0.00406782
0.00374079
0.00363702
0.0033803
0.00348057
0.00330146
0.00332133
0.00342911
0.0029995
0.00363778
0.00261746
0.0040913
0.00300969
0.00605152
0.00548676
0.00569117
0.00559119
0.00547638
0.0052129
0.00486681
0.00469799
0.00507417
0.00600561
0.00694988
0.00752749
0.00788703
0.00805584
0.00816716
0.00839762
0.00838684
0.00755566
0.00677595
0.00692347
0.00710502
0.00624238
0.00482374
0.00366504
0.00287337
0.0025441
0.00260656
0.00279861
0.00306222
0.00318253
0.00329585
0.00349832
0.00258053
0.00287423
0.00274632
0.00907434
0.00747679
0.00621886
0.00573807
0.00560074
0.00564201
0.00569442
0.00572654
0.00575378
0.00579496
0.00584729
0.00582633
0.00554894
0.00503577
0.00467169
0.00476541
0.00484413
0.00416981
0.00332539
0.00351888
0.00448337
0.00485665
0.00455553
0.00409842
0.00336798
0.0025305
0.00227259
0.00263508
0.0031558
0.00362109
0.00415154
0.00472011
0.00475603
0.00450558
0.0048142
0.0182197
0.000258517
0.00333612
0.00432014
0.00423482
0.00397074
0.00373595
0.00348202
0.00319785
0.0029234
0.00271661
0.00254236
0.00242008
0.00235013
0.00233215
0.00236921
0.00248686
0.00267837
0.00282859
0.00288061
0.00289021
0.0027808
0.00258192
0.00232685
0.00206653
0.00195859
0.00206609
0.0023007
0.00261512
0.00305788
0.00378249
0.00495536
0.00646555
0.00830075
0.0109725
0.0198916
0.00672735
0.00689791
0.00656058
0.00602271
0.00574745
0.00557977
0.00541472
0.00524482
0.00504347
0.00478778
0.00447489
0.00411172
0.00371528
0.00327608
0.00277091
0.00231041
0.0020395
0.00193743
0.00191127
0.00189749
0.00189029
0.00188993
0.00190048
0.00193581
0.00202135
0.00216859
0.00239136
0.00275949
0.0034373
0.00466398
0.00652738
0.00857713
0.010067
0.0115575
0.0136066
0.00571113
0.00430129
0.00794597
0.00612803
0.00611413
0.00608623
0.00601823
0.00592459
0.0058236
0.00573876
0.0056193
0.00536374
0.00501483
0.00467523
0.00435179
0.00405355
0.00375144
0.00342832
0.00305092
0.00262677
0.00223006
0.00194051
0.00178258
0.00173604
0.00176296
0.00182985
0.00192288
0.00205099
0.00227354
0.00274445
0.0037044
0.00518933
0.00647319
0.00725197
0.0071037
0.00657442
0.00671096
0.00642793
0.00632867
0.00621695
0.00607901
0.00590622
0.00573267
0.00532764
0.00479249
0.00474749
0.00515931
0.00557996
0.00578086
0.00584954
0.0059583
0.00628695
0.00678775
0.00715125
0.00699046
0.00611217
0.00482029
0.00353448
0.00249227
0.00188499
0.00172302
0.00181543
0.00199496
0.00216294
0.00231164
0.00264089
0.00348522
0.00447383
0.0051142
0.0054487
0.00407252
0.00472346
0.00504152
0.0050224
0.00489108
0.00490824
0.00510614
0.00541301
0.00574842
0.00592021
0.00583597
0.00565516
0.00550745
0.00541395
0.00533554
0.005227
0.00510178
0.00493645
0.00465688
0.00448554
0.00458571
0.00478429
0.00471623
0.00405896
0.00296617
0.00205452
0.00164846
0.00161168
0.00174297
0.00192039
0.00206509
0.00231614
0.00293851
0.00360258
0.00489852
0.000586262
0.00457027
0.00588983
0.00655046
0.00692316
0.00703379
0.00694801
0.00675758
0.00652465
0.00628932
0.00603649
0.00570215
0.0052769
0.00484091
0.00441205
0.00395101
0.00343108
0.00290293
0.00248274
0.0021767
0.00191656
0.00171541
0.00164429
0.00163854
0.00161898
0.00161
0.00166506
0.00179957
0.00199955
0.00221313
0.00234763
0.00245527
0.00282342
0.00348145
0.0051861
0.00419273
0.00519802
0.00564631
0.00583755
0.00591307
0.0059495
0.00596957
0.0059631
0.00591244
0.00581676
0.00571219
0.00563991
0.00558668
0.00549493
0.00531769
0.00503301
0.00456632
0.00380944
0.00289872
0.00214055
0.00163921
0.00135444
0.0012378
0.00124039
0.00130292
0.00138267
0.0014743
0.00159366
0.00177197
0.00204324
0.00239876
0.00279195
0.00320967
0.0037288
0.00493068
0.00477296
0.00656896
0.00700616
0.00708038
0.00703474
0.00691024
0.00672161
0.00648886
0.00623868
0.00598753
0.005741
0.00550616
0.0052904
0.00509021
0.00488752
0.00465626
0.00435292
0.00390455
0.00323551
0.00242112
0.00170069
0.00126934
0.00115257
0.00115385
0.00117404
0.00121459
0.00127603
0.00136498
0.00149946
0.00170595
0.00198516
0.0022767
0.00259745
0.00307324
0.00422329
0.00611062
0.00621648
0.00620315
0.00620151
0.00618029
0.00611121
0.00597215
0.00576919
0.00554602
0.00534355
0.00516868
0.00501014
0.00485555
0.00468661
0.00448594
0.00424497
0.00394313
0.00353733
0.00298214
0.00230066
0.00161003
0.00105846
0.000826961
0.000931761
0.00106754
0.00112804
0.00115928
0.00119333
0.00125999
0.00141315
0.00173964
0.00225121
0.00280768
0.00339225
0.00454588
0.00631297
0.00680693
0.00688039
0.00685869
0.00677967
0.00664488
0.00645721
0.00623103
0.00599119
0.00575815
0.00554006
0.0053368
0.00514545
0.0049631
0.00478386
0.00459492
0.00437086
0.00406469
0.0036075
0.00295474
0.00218564
0.00145189
0.00089432
0.000669499
0.00078367
0.00100378
0.00114566
0.00121533
0.00124725
0.00129384
0.00147976
0.00197061
0.00250974
0.00303908
0.00397375
0.00531606
0.0061936
0.00648121
0.00662784
0.00670672
0.00671348
0.00664028
0.00648572
0.00625658
0.0059702
0.00565575
0.00534314
0.00505107
0.00478531
0.00454436
0.00432427
0.00411831
0.00391056
0.00366416
0.00330674
0.00274582
0.00201488
0.00126646
0.000623307
0.000220472
0.000140732
0.000334234
0.00056307
0.000790822
0.000988727
0.00115848
0.00148564
0.002415
0.00314073
0.00430204
0.00447716
0.00614681
0.00669687
0.00697778
0.00717021
0.00730001
0.00736337
0.00734629
0.0072313
0.00700974
0.00669482
0.00632296
0.0059414
0.00558862
0.00527843
0.00500076
0.00473763
0.00447615
0.00420766
0.00391518
0.0035562
0.00305358
0.00238723
0.00165631
0.000956983
0.000367955
1.07394e-05
6.35303e-05
8.03643e-05
0.000285577
0.000790908
0.00140579
0.00185917
0.00267247
0.00404951
0.00455533
0.00618395
0.00677319
0.0070808
0.00729497
0.00745263
0.00755411
0.00758854
0.00753994
0.00739055
0.00712522
0.00674196
0.00626924
0.00576999
0.00531793
0.00495243
0.00466504
0.00442638
0.00420605
0.00397591
0.00370265
0.00333316
0.00279724
0.00211045
0.00136436
0.000624933
0.000228488
3.9072e-05
3.61299e-06
5.9347e-05
0.000585064
0.00183326
0.00322324
0.00372482
0.00417452
0.00445027
0.0059851
0.00664761
0.00700391
0.00725558
0.00745648
0.00761726
0.00773378
0.00778968
0.00776471
0.0076416
0.00740262
0.00703023
0.00653683
0.00600115
0.00552677
0.00515102
0.00484878
0.00458784
0.00434715
0.00411302
0.00386743
0.00357623
0.00318689
0.00266508
0.00206529
0.00148233
0.00106061
0.000709143
0.000297506
0.000102803
4.84371e-05
0.000997823
0.00226258
0.00398615
0.00534961
0.00655735
0.00703925
0.00729569
0.00746982
0.00759528
0.0076813
0.00772848
0.0077288
0.00766854
0.00753624
0.0073243
0.00701488
0.00657695
0.00602586
0.00548471
0.00506458
0.00476057
0.00452086
0.00430848
0.00410269
0.00388158
0.00361003
0.00323043
0.00268811
0.00204771
0.0014255
0.000782179
0.000289094
5.55009e-05
0.000173127
0.000481303
0.00070713
0.00230792
0.0051039
0.00573659
0.00668202
0.00710899
0.00736571
0.00755946
0.00771542
0.0078367
0.00791225
0.00792506
0.00786481
0.00773001
0.00752312
0.00723893
0.00684726
0.00631208
0.00569984
0.00517892
0.00481104
0.00454432
0.00432393
0.0041189
0.00390399
0.00364625
0.00329394
0.00277267
0.00206164
0.00124772
0.000458785
0.000245255
0.000198391
0.000631332
0.00201157
0.00314601
0.00390377
0.00479392
0.0062453
0.00691732
0.00720481
0.00738656
0.00753789
0.00768242
0.00782478
0.00793649
0.00797189
0.00791248
0.00776901
0.00755966
0.00729569
0.00697169
0.00656074
0.00604847
0.00552124
0.00510073
0.00480274
0.00458011
0.00439384
0.00421945
0.00403847
0.00383229
0.003578
0.00324885
0.00282917
0.00234803
0.00192186
0.00157306
0.00114185
0.00066677
0.00152128
0.00259802
0.00376741
0.00672111
0.00705975
0.00718874
0.00727956
0.00737419
0.00750201
0.00768906
0.00789072
0.00800977
0.00800192
0.00787889
0.00766382
0.00737051
0.00699885
0.00654158
0.00601523
0.00549817
0.00508022
0.00477335
0.00453897
0.00433805
0.00414324
0.00393644
0.00370435
0.00343168
0.00309349
0.00265703
0.00212496
0.00146621
0.000897361
0.000593164
0.000277245
0.000754377
0.00240074
0.00516358
0.00672657
0.00710244
0.00718191
0.00720553
0.0072188
0.00726933
0.00743079
0.00767135
0.00786251
0.00793974
0.0079048
0.00777225
0.00755141
0.00724409
0.0068448
0.00635634
0.00583079
0.00536528
0.00500419
0.00472584
0.00449465
0.00427456
0.00403343
0.00375591
0.00344398
0.00307423
0.00259372
0.00199382
0.00134316
0.000994251
0.00119345
0.00136272
0.00192819
0.00335227
0.00568284
0.00688377
0.00721003
0.00721107
0.00715768
0.00708491
0.00705631
0.00719653
0.00747102
0.00770574
0.00782391
0.00783028
0.00773758
0.00754769
0.00725707
0.0068717
0.00642462
0.00597387
0.00557338
0.00524212
0.00496808
0.00472835
0.00450167
0.00426422
0.00399938
0.00369732
0.00333176
0.00285888
0.00225147
0.00156803
0.00115725
0.0015845
0.00246453
0.00311385
0.00395984
0.00507043
0.00646846
0.00712544
0.00716561
0.00707326
0.00690752
0.00673337
0.00676565
0.00706283
0.00741006
0.00765898
0.00778664
0.00780737
0.00773164
0.0075592
0.00728249
0.00690383
0.00646395
0.00603546
0.00566622
0.00535985
0.00509617
0.00485203
0.00460786
0.0043482
0.00406046
0.00373182
0.00334199
0.00284905
0.00221371
0.00153004
0.00129429
0.00205142
0.00319203
0.00392298
0.00459296
0.00680252
0.00753071
0.00749619
0.0073023
0.00699085
0.00660015
0.00642461
0.00666125
0.00707329
0.00741876
0.00763394
0.00773129
0.00772788
0.00763143
0.00744495
0.00717616
0.0068479
0.00649791
0.0061637
0.00586414
0.00559724
0.00535072
0.00511035
0.00486404
0.00460245
0.00431761
0.00399863
0.00362088
0.00312738
0.00246387
0.00178375
0.00162972
0.00266083
0.00356136
0.00466336
0.00704663
0.0077061
0.00761528
0.00735022
0.00692695
0.00637238
0.00605655
0.00625066
0.006735
0.00719489
0.00751547
0.00770316
0.00778365
0.0077717
0.00767072
0.00748078
0.00721374
0.0069024
0.0065886
0.00629863
0.00603678
0.00579446
0.00555978
0.00532226
0.00507398
0.00480899
0.00452072
0.00419427
0.00378847
0.00321301
0.00245499
0.0018544
0.00248284
0.00349247
0.00506059
0.00785613
0.00810973
0.00786227
0.00748218
0.00690986
0.00620224
0.00586548
0.00607895
0.00657551
0.00706677
0.00743551
0.00767664
0.00781143
0.00785642
0.00781989
0.00770548
0.00751822
0.00727447
0.00700313
0.00673283
0.00647741
0.00623437
0.00599377
0.00574771
0.00549125
0.00521844
0.00491888
0.00457078
0.00412545
0.00350588
0.00279127
0.00230924
0.0028077
0.00379691
0.00546295
0.00827518
0.00813931
0.00779083
0.00731847
0.00660416
0.00574794
0.00545331
0.00584509
0.00645646
0.00700625
0.0074207
0.007708
0.00789004
0.00798281
0.00799485
0.00792981
0.00779241
0.00759614
0.00736451
0.00712197
0.00688128
0.00663985
0.00638798
0.00612282
0.00584597
0.00554871
0.00521145
0.00480025
0.00425101
0.00353017
0.00294854
0.002823
0.00331652
0.00415164
0.0055921
0.00838174
0.00827458
0.0079572
0.0074934
0.00675503
0.00572319
0.00508307
0.00536779
0.00605052
0.00671036
0.00723328
0.0076168
0.00788235
0.00804944
0.00813082
0.00813331
0.00806282
0.00792895
0.00774763
0.00753777
0.00731343
0.00707769
0.00682445
0.00655123
0.00625627
0.00592764
0.00554516
0.00507173
0.00443852
0.00363029
0.00308633
0.00325904
0.00373094
0.00436708
0.00551569
0.00811619
0.0082734
0.00806837
0.00770385
0.00709064
0.00604797
0.00486409
0.00465923
0.00531627
0.0061411
0.00683074
0.00735265
0.00773288
0.00799862
0.0081674
0.00825081
0.00825809
0.00819939
0.00808698
0.00793386
0.00775027
0.00754136
0.00730637
0.0070427
0.00674517
0.00640396
0.00600359
0.00551025
0.00485357
0.00398026
0.00325017
0.00345865
0.00396963
0.00452505
0.00548788
0.00820332
0.00848197
0.00830547
0.00799344
0.0074908
0.00660373
0.00517425
0.00416739
0.00437082
0.00522516
0.00612164
0.00683665
0.00736896
0.00775705
0.0080319
0.00821346
0.00831519
0.0083479
0.00832158
0.00824543
0.00812669
0.0079697
0.00777564
0.00754242
0.00726522
0.00693632
0.00654308
0.00606032
0.0054338
0.00459016
0.00368203
0.00354805
0.00403878
0.00458768
0.00549181
0.00847591
0.00855934
0.00832977
0.00800213
0.0075167
0.00674172
0.00552908
0.0042675
0.00388691
0.00438038
0.00526867
0.00613544
0.0068249
0.00733968
0.00771938
0.00799528
0.00818785
0.00831075
0.00837382
0.00838442
0.00834765
0.00826642
0.00814147
0.00797072
0.00774993
0.00747248
0.00712836
0.00670015
0.0061509
0.00540985
0.00446439
0.0038405
0.00406411
0.00459529
0.00565057
0.00886069
0.00869021
0.00841773
0.00807736
0.00757397
0.00677414
0.00559717
0.00440203
0.0038354
0.00384913
0.00437447
0.00519434
0.00601277
0.00667755
0.00717865
0.007554
0.00783359
0.00803731
0.0081783
0.00826549
0.00830474
0.00829967
0.00825187
0.00816001
0.00802
0.00782438
0.00756188
0.0072163
0.00675942
0.00613022
0.00524968
0.00437141
0.00427868
0.00476199
0.0059915
0.0089838
0.00868313
0.0084358
0.00813391
0.00766771
0.00689793
0.00572198
0.00450855
0.00402487
0.00393642
0.00398795
0.00434264
0.00500875
0.00576546
0.00642089
0.0069275
0.00730761
0.00759127
0.00780025
0.00794844
0.00804416
0.00809246
0.00809677
0.00805863
0.00797853
0.00785468
0.00767899
0.00743
0.00706817
0.00652632
0.00571842
0.00484582
0.00466146
0.00512382
0.00645071
0.00891979
0.00869045
0.00853341
0.00830959
0.00792764
0.00726168
0.00618058
0.00483924
0.0040677
0.00408255
0.00419327
0.0042626
0.00446295
0.00494463
0.00559643
0.00621197
0.00670152
0.00706772
0.00733973
0.00753987
0.00768047
0.00776746
0.00780385
0.00779087
0.00773014
0.00762671
0.00749097
0.00732305
0.00707033
0.00663698
0.00596988
0.00531037
0.00519177
0.00555281
0.00665461
0.00849498
0.0086599
0.0086937
0.00863273
0.00845708
0.00808145
0.0073549
0.00612454
0.00465767
0.00395095
0.00400101
0.00426422
0.00448874
0.00471268
0.00508721
0.00561132
0.00613575
0.00656442
0.00688996
0.007132
0.00730585
0.00741953
0.0074749
0.00747014
0.00740243
0.00727322
0.00710758
0.00696774
0.00686445
0.00664521
0.00621475
0.00577899
0.00564249
0.00576747
0.00635422
0.00806386
0.00868346
0.00888643
0.00895788
0.00895765
0.00885324
0.00854686
0.00784353
0.00650922
0.00481642
0.0037565
0.00359686
0.0039249
0.00434131
0.00472481
0.00513771
0.00561941
0.00609316
0.0064832
0.00678135
0.00700428
0.007162
0.00725285
0.00727066
0.00720588
0.00705011
0.00681293
0.00657075
0.00646661
0.00646712
0.0063369
0.00611288
0.00596239
0.00588844
0.00597187
0.00794193
0.00871419
0.00897535
0.00908129
0.00912361
0.00911191
0.00902369
0.00878223
0.00820726
0.00698821
0.00523087
0.00378665
0.00327419
0.00353802
0.00408239
0.00461826
0.00510567
0.00557436
0.00600644
0.0063675
0.00665153
0.00686788
0.00702099
0.00710543
0.00710747
0.00700698
0.00678631
0.0064656
0.00617475
0.00609125
0.00611551
0.00606494
0.00596689
0.00582727
0.00569282
0.00824852
0.00885857
0.00910094
0.00920978
0.00924717
0.0092177
0.00912408
0.00897225
0.00873577
0.00828429
0.0073039
0.00564744
0.00390881
0.0029993
0.00316691
0.00385035
0.00456174
0.0051666
0.00566373
0.00606575
0.00638436
0.00663196
0.00681925
0.00694757
0.00700817
0.00698395
0.00685211
0.0065949
0.0062481
0.00596708
0.00588046
0.00585906
0.00580935
0.00574023
0.00588623
0.00862374
0.00902613
0.00927765
0.00944043
0.0095378
0.00954916
0.00945296
0.00924965
0.00898501
0.00869805
0.00830595
0.00753308
0.00602881
0.00403657
0.00273639
0.00287993
0.00373114
0.0046179
0.00534205
0.00588101
0.0062743
0.00656439
0.00678314
0.00694472
0.00704754
0.0070777
0.0070122
0.00682274
0.00649326
0.00608572
0.00578193
0.00565996
0.00562707
0.00567164
0.00619236
0.00868406
0.00901512
0.00931454
0.00954132
0.00971745
0.00981779
0.00980615
0.00964453
0.00932612
0.00893769
0.00857774
0.00821037
0.00761332
0.00629308
0.00400387
0.00235836
0.00251833
0.0034158
0.0043556
0.00513581
0.0057189
0.00614515
0.00646339
0.00670986
0.00690073
0.00703277
0.0070847
0.00702265
0.00681095
0.00643804
0.00601074
0.0057422
0.00568628
0.00582034
0.00664683
0.00858647
0.00897057
0.00931268
0.00957023
0.00978346
0.00993979
0.0100113
0.00995904
0.00973311
0.00931049
0.00877683
0.0082557
0.007765
0.00714198
0.00586682
0.0034781
0.00218044
0.00263198
0.00355307
0.00443607
0.00514956
0.00568035
0.00607318
0.00637582
0.00661982
0.00681769
0.00695718
0.00699681
0.00688362
0.00658768
0.00618866
0.00592089
0.00588447
0.00604899
0.00679924
0.00849364
0.00898269
0.00935299
0.00962449
0.00985313
0.0100337
0.0101454
0.0101626
0.0100589
0.0098028
0.00937107
0.00879467
0.00814117
0.00742948
0.00650731
0.00485689
0.00265779
0.00217064
0.0028568
0.00372202
0.00449999
0.00511795
0.00558735
0.00595098
0.00625075
0.00651789
0.00676422
0.00695695
0.00700776
0.00684375
0.00652435
0.00626685
0.0061839
0.00625256
0.00674308
0.00860359
0.00904549
0.00938393
0.00964715
0.00988848
0.0100992
0.0102461
0.0102878
0.0101992
0.00999082
0.00968708
0.00928537
0.00876576
0.00811592
0.00728251
0.00608406
0.00411536
0.00247852
0.00255726
0.00330393
0.00408334
0.00473094
0.00521469
0.00557039
0.00584499
0.00607989
0.00631283
0.00656076
0.00676134
0.00679194
0.00664948
0.0064879
0.00641089
0.00642793
0.00671525
0.0086935
0.00901948
0.00930828
0.00955114
0.00979731
0.0100453
0.0102603
0.0103846
0.0103722
0.0102137
0.00994504
0.00961537
0.0092254
0.00873764
0.00809783
0.00717216
0.00571007
0.00363497
0.00253879
0.00289306
0.00365385
0.00438469
0.00496389
0.00539158
0.00571053
0.00596528
0.00619863
0.00645181
0.00671671
0.00686782
0.00683261
0.00671999
0.00661721
0.00652685
0.00649934
0.00888326
0.00909611
0.0093241
0.00953104
0.00975914
0.0100116
0.0102512
0.0104125
0.0104524
0.0103647
0.0101684
0.00990298
0.00959535
0.0092331
0.00878325
0.00818695
0.00727587
0.00573661
0.00373971
0.00290098
0.00333756
0.00404095
0.00462113
0.00502345
0.00529582
0.00549463
0.00567252
0.00589356
0.00621164
0.0065444
0.00670808
0.00671246
0.00665395
0.0065661
0.00652414
0.00896607
0.00905176
0.0092077
0.00937901
0.00960604
0.00990384
0.0102184
0.01045
0.010549
0.0105215
0.0103926
0.0101905
0.00993652
0.00962737
0.00924119
0.00874513
0.00807034
0.00703743
0.00540574
0.00363574
0.00311382
0.00372882
0.0045511
0.00518391
0.0055737
0.0057844
0.00588213
0.00593518
0.00604815
0.00628803
0.00650709
0.00658422
0.00657246
0.00650181
0.00636533
0.00920323
0.00901267
0.00902279
0.0091093
0.00929404
0.00961669
0.0100136
0.010341
0.0105305
0.0105926
0.0105609
0.0104673
0.0103298
0.0101415
0.00988321
0.00953538
0.00907244
0.00842886
0.00743377
0.00589373
0.00425836
0.00357938
0.00386977
0.00446467
0.00500436
0.00538782
0.00562036
0.00574114
0.00581856
0.0059614
0.00616978
0.00630252
0.00634964
0.00635731
0.00641947
0.00944625
0.00892672
0.00880459
0.00881605
0.00895834
0.00929103
0.00974606
0.0101475
0.0104109
0.0105449
0.0105835
0.0105625
0.0105064
0.0104086
0.0102415
0.00997715
0.0095893
0.00903804
0.0082445
0.0070774
0.00556425
0.00432062
0.00405145
0.0044738
0.00503142
0.00548151
0.00576457
0.0058876
0.00588868
0.00586765
0.00594358
0.00606834
0.00617014
0.0062816
0.00648
0.00965523
0.00876747
0.00853346
0.00848069
0.00856677
0.00885762
0.0093156
0.00977319
0.0101244
0.0103603
0.0105076
0.0106001
0.0106664
0.010707
0.0106937
0.0105952
0.0103916
0.0100648
0.00957961
0.00885815
0.00778388
0.00636993
0.00507307
0.00447872
0.00459121
0.00503424
0.00549805
0.00583621
0.00599804
0.00600574
0.00598873
0.00604308
0.00612974
0.00624672
0.00640547
0.00949667
0.00846514
0.0082426
0.0081815
0.00820346
0.00835396
0.00867764
0.0091047
0.0095161
0.00985554
0.010126
0.0103495
0.010543
0.0107001
0.0107956
0.0108051
0.0107143
0.0105111
0.0101731
0.00966176
0.00892958
0.00795104
0.00681216
0.00579194
0.00518942
0.00507312
0.0052886
0.00562125
0.00590695
0.00605661
0.00610058
0.00614882
0.00622258
0.0063345
0.00656217
0.00876226
0.00821649
0.0081773
0.00815801
0.00809402
0.00799182
0.00797247
0.0081795
0.00857491
0.0090222
0.00945594
0.0098758
0.0102803
0.01063
0.0108703
0.010974
0.0109431
0.0107842
0.0104893
0.0100344
0.00939723
0.00859863
0.00772827
0.00690542
0.00623624
0.00580428
0.00565268
0.005741
0.00595356
0.00615098
0.00626198
0.0063302
0.00639763
0.00649999
0.00673308
0.0080718
0.00832321
0.00848436
0.00852228
0.00844607
0.00821058
0.00781377
0.00749735
0.00755862
0.00794395
0.00846435
0.00904493
0.00966892
0.0102842
0.0107982
0.0111429
0.0113054
0.0112998
0.0111367
0.0108094
0.0102971
0.00959661
0.00877464
0.00796031
0.00725313
0.00669511
0.00631631
0.00614493
0.00616873
0.00630155
0.00643048
0.00651872
0.00658759
0.00668361
0.00691127
0.00789724
0.00855729
0.00877517
0.00886007
0.00887794
0.00877926
0.00839793
0.00768933
0.0071283
0.0071122
0.00748341
0.00804562
0.00874306
0.00951989
0.0102548
0.0108344
0.0112175
0.0114142
0.0114397
0.0112942
0.0109629
0.0104349
0.00973979
0.00896856
0.0082291
0.00758876
0.00707612
0.00672158
0.00655864
0.00656727
0.00664822
0.0067178
0.00676842
0.00683757
0.00699831
0.00840468
0.00868842
0.00872795
0.00874624
0.00879817
0.00890273
0.0088631
0.00834108
0.00744719
0.00691918
0.00697505
0.0073316
0.00786683
0.00857707
0.00938866
0.0101353
0.010703
0.0110759
0.0112741
0.0113088
0.0111725
0.0108501
0.0103439
0.00970297
0.00901433
0.00835867
0.00778051
0.00731462
0.00701104
0.00689518
0.00689798
0.00691926
0.00692938
0.00694288
0.00696557
0.00942706
0.00883685
0.00852236
0.00832457
0.00822775
0.00837396
0.00859631
0.00845039
0.00775303
0.00697706
0.00677162
0.0069977
0.00742933
0.00803479
0.00880408
0.00960714
0.0102788
0.0107581
0.0110596
0.0112036
0.0111915
0.0110101
0.0106533
0.0101458
0.0095482
0.00893027
0.00834178
0.00782386
0.00743399
0.00721929
0.0071368
0.00709234
0.00704417
0.00697293
0.00678092
0.0104497
0.00892438
0.00832099
0.00795131
0.00772607
0.00783737
0.00811747
0.00814093
0.00776276
0.00714827
0.006814
0.00687253
0.00716657
0.00765841
0.00835562
0.00916421
0.009898
0.010451
0.0108251
0.0110458
0.0111209
0.0110407
0.0107965
0.0104003
0.00989427
0.00933397
0.00876644
0.00823526
0.00779873
0.00750953
0.00734511
0.00722952
0.00711391
0.00694212
0.00650728
0.0105501
0.00846615
0.00779401
0.00742398
0.0072707
0.00740343
0.00758635
0.00759798
0.00741768
0.00712667
0.00691021
0.00687277
0.00699674
0.00730572
0.00786416
0.00865017
0.00946475
0.0101157
0.0105717
0.0108655
0.0110157
0.0110198
0.0108687
0.0105662
0.0101413
0.00963772
0.00909891
0.00857004
0.00810774
0.00776225
0.00752546
0.00734137
0.00715727
0.00688588
0.00623871
0.00924642
0.00766075
0.00721178
0.0069492
0.00682216
0.00686068
0.00696528
0.00703073
0.00701576
0.00695188
0.00689204
0.00688057
0.00694729
0.00713992
0.00754395
0.00821737
0.00904176
0.00977174
0.0103064
0.0106691
0.0108883
0.0109691
0.0109031
0.0106872
0.0103404
0.00989604
0.00939283
0.00887515
0.0083977
0.00800885
0.00771171
0.00746681
0.00722053
0.00686295
0.00605047
0.00793987
0.00752692
0.00732496
0.00706182
0.00667385
0.00628739
0.00616982
0.00633773
0.00651147
0.00658914
0.00659747
0.0065864
0.00660472
0.00670865
0.00698894
0.00755967
0.00841078
0.00927942
0.00995186
0.0104197
0.0107264
0.0108923
0.0109146
0.0107862
0.0105183
0.0101357
0.00967287
0.00917293
0.0086888
0.00826813
0.00792254
0.00762516
0.0073237
0.00689023
0.00594236
0.00764071
0.00802767
0.00795553
0.00774582
0.00735403
0.0066473
0.00582473
0.00562544
0.00586485
0.00608565
0.00619424
0.00622628
0.00623036
0.00626001
0.00640163
0.00680849
0.00761844
0.00863843
0.009497
0.0101028
0.0105135
0.0107734
0.0108905
0.0108568
0.010676
0.0103646
0.00995177
0.00947796
0.0089947
0.00855074
0.0081652
0.00782167
0.00747109
0.00697214
0.00592683
0.00815612
0.00821987
0.00815961
0.00805835
0.00785689
0.00737351
0.0063185
0.0054749
0.00549056
0.00571903
0.00585836
0.00590522
0.00590009
0.00588217
0.00590791
0.00611284
0.00674824
0.00785432
0.00894656
0.00973155
0.0102627
0.0106188
0.0108294
0.0108926
0.0108067
0.01058
0.0102344
0.00980499
0.00933864
0.00888288
0.00846354
0.00807569
0.00767757
0.00712059
0.00601539
0.00886763
0.00812279
0.0078868
0.00773493
0.00753909
0.00719423
0.00653297
0.00569415
0.00554076
0.00569943
0.0058023
0.00582138
0.00578368
0.00571498
0.00564714
0.00566629
0.00601628
0.00700721
0.00832503
0.00931258
0.00996686
0.0104161
0.0107161
0.0108733
0.0108836
0.0107508
0.0104896
0.0101282
0.00970548
0.00926271
0.00882739
0.008405
0.00796465
0.00735642
0.00620213
0.00873604
0.00799885
0.00778297
0.00760581
0.0073443
0.00693245
0.00640353
0.00586047
0.00567707
0.00577055
0.00584369
0.00584624
0.00578907
0.00568708
0.00555605
0.00543523
0.00547439
0.00606082
0.00742415
0.00878023
0.0096098
0.0101535
0.0105395
0.0107891
0.0108928
0.0108504
0.0106741
0.0103871
0.0100215
0.00961117
0.00918156
0.0087433
0.00827314
0.00761795
0.00637904
0.00820569
0.00795017
0.00792174
0.00785877
0.00768076
0.0072924
0.00666148
0.00602816
0.00574692
0.00581058
0.00590367
0.00592846
0.00588253
0.00577604
0.00561821
0.00542164
0.00523849
0.00529737
0.0061141
0.00774489
0.00906673
0.00978259
0.0102494
0.0105882
0.0107948
0.0108519
0.010762
0.0105472
0.0102373
0.00986298
0.00944856
0.0090069
0.00851599
0.00781109
0.00643806
0.00796247
0.00791291
0.00796239
0.00798595
0.00793761
0.00772083
0.00718634
0.00635849
0.00578332
0.00576084
0.00590581
0.00599984
0.00601183
0.00594714
0.0058124
0.00561279
0.00535469
0.0050961
0.00512568
0.00604544
0.00780671
0.0091761
0.00986674
0.0102863
0.0105764
0.0107326
0.0107372
0.0105996
0.0103485
0.010014
0.00962088
0.0091836
0.0086781
0.00792231
0.00639447
0.00819483
0.00792856
0.00789613
0.00789209
0.00785835
0.00772409
0.00738243
0.00672216
0.00601027
0.00582782
0.00596989
0.00611406
0.00618254
0.00617217
0.00608752
0.00593111
0.0057007
0.00539238
0.00505801
0.00500092
0.0058452
0.00759289
0.00908599
0.00984592
0.0102599
0.010509
0.0106094
0.0105565
0.0103716
0.0100858
0.00972453
0.00930213
0.00879178
0.00799471
0.0063323
0.00824098
0.00784652
0.00781731
0.00782186
0.00777886
0.00761285
0.00727282
0.00676943
0.00622904
0.00602762
0.00615678
0.00632229
0.00642653
0.00645906
0.00642246
0.00631756
0.00614169
0.00588535
0.00553576
0.00513227
0.00495169
0.00558958
0.00720163
0.00881378
0.00970302
0.0101504
0.0103736
0.0104207
0.0103127
0.0100835
0.00976392
0.00937039
0.00887544
0.00807176
0.00634855
0.00791699
0.0077392
0.00782807
0.00791723
0.00793992
0.0078025
0.0074381
0.00690313
0.00641367
0.00622396
0.00634515
0.00653046
0.00667047
0.00674646
0.00675896
0.00670855
0.00659352
0.00640799
0.00613841
0.00576612
0.00531246
0.00499892
0.0053677
0.00675064
0.00840197
0.00941734
0.00992675
0.0101506
0.010164
0.0100149
0.00974862
0.00939466
0.00893483
0.0081689
0.00648725
0.00760535
0.00762326
0.00779274
0.00795479
0.00808058
0.00807315
0.00782698
0.007314
0.00670457
0.00636131
0.00641693
0.00662471
0.00681573
0.00694805
0.00701883
0.00702977
0.00698109
0.00687032
0.00669013
0.00642569
0.00605557
0.0055828
0.00516504
0.00528317
0.00641124
0.00797553
0.00903844
0.0095963
0.00982869
0.00982948
0.00966306
0.00937946
0.00898397
0.00830643
0.00679344
0.0074385
0.00757481
0.00779124
0.00800653
0.0082201
0.00834384
0.00826377
0.0079016
0.00726215
0.00662738
0.00642626
0.00657967
0.00681143
0.00700453
0.00713767
0.00721191
0.00722971
0.00719156
0.00709408
0.00692927
0.00668273
0.00633252
0.00586913
0.00539999
0.00537082
0.00633429
0.00770503
0.00869005
0.00923091
0.00945132
0.00944374
0.0092768
0.00898407
0.0084475
0.00725784
0.00745504
0.00758889
0.00782592
0.0080849
0.00837367
0.00859447
0.00862681
0.00841278
0.00792379
0.00721211
0.00665731
0.00657626
0.00675955
0.00697728
0.00715172
0.00727133
0.00733808
0.00735427
0.00731874
0.00722708
0.00707106
0.00683638
0.00650071
0.00604935
0.00558205
0.00560604
0.006545
0.0076901
0.00850322
0.00894903
0.00911778
0.0090915
0.00892528
0.00856238
0.0078094
0.00745077
0.00754755
0.00779606
0.00810813
0.00850603
0.00885829
0.00900839
0.00890508
0.00854868
0.00793579
0.00719975
0.00677774
0.0067788
0.00695094
0.00712829
0.00726454
0.00735366
0.00739712
0.00739483
0.00734388
0.00723853
0.00706913
0.00681968
0.00646881
0.00601807
0.00568774
0.00607389
0.00705555
0.00796466
0.00854479
0.00883172
0.00891182
0.00885322
0.00864864
0.00825913
0.0075809
0.00753374
0.00772616
0.0080593
0.00857028
0.00906432
0.00933492
0.00933984
0.00910134
0.00862059
0.00791091
0.00722653
0.00694061
0.00697774
0.00710996
0.00723266
0.00731917
0.00736563
0.00737096
0.00733203
0.00724321
0.0070958
0.00687679
0.00657194
0.00619221
0.00589425
0.00610363
0.00690709
0.00777548
0.00837322
0.00869529
0.00882378
0.00882568
0.00870379
0.00837346
0.00771169
0.00743856
0.00754263
0.00790042
0.00856001
0.00920697
0.00958615
0.00968732
0.00955655
0.00920751
0.00862342
0.00787636
0.00731037
0.00712689
0.00715511
0.00723093
0.0072925
0.00732335
0.00731812
0.00727131
0.00717552
0.0070207
0.00679394
0.00648932
0.0061586
0.00602581
0.00636847
0.00709992
0.00784894
0.00836586
0.00865132
0.00877498
0.00878707
0.0086605
0.00812982
0.00778767
0.00724786
0.00724282
0.0076107
0.00843582
0.00924764
0.00973742
0.00993373
0.00990271
0.00966747
0.00921476
0.00854659
0.0078392
0.00741322
0.00728553
0.00728384
0.00730399
0.00730859
0.007284
0.00722035
0.00710749
0.00693317
0.00668332
0.00635716
0.00604032
0.00605447
0.00665753
0.00742927
0.00806666