/*--------------------------------*- C++ -*----------------------------------*\
| =========                 |                                                 |
| \\      /  F ield         | OpenFOAM: The Open Source CFD Toolbox           |
|  \\    /   O peration     | Version:  v2006                                 |
|   \\  /    A nd           | Website:  www.openfoam.com                      |
|    \\/     M anipulation  |                                                 |
\*---------------------------------------------------------------------------*/
FoamFile
{
    version     2.0;
    format      ascii;
    class       surfaceScalarField;
    location    "33";
    object      phi;
}
// * * * * * * * * * * * * * * * * * * * * * * * * * * * * * * * * * * * * * //

dimensions      [1 0 -1 0 0 0 0];
oriented        oriented;


internalField   nonuniform List<scalar> 
228225
(
0.000420973
4.6515e-05
1.16512e-05
0.000398273
1.6873e-05
4.83561e-06
0.000396374
-1.91267e-06
2.74877e-06
0.00039753
-5.00628e-06
2.70975e-06
0.000401159
-7.43418e-06
2.60933e-06
0.000405971
-8.73111e-06
2.60303e-06
0.00041309
-1.06642e-05
2.20636e-06
0.00042244
-1.29343e-05
2.14149e-06
0.000432971
-1.38946e-05
1.94398e-06
0.000442714
-1.33173e-05
2.09518e-06
0.000451945
-1.29667e-05
2.26904e-06
0.000460809
-1.29222e-05
2.58091e-06
0.000468873
-1.26683e-05
3.09072e-06
0.000476483
-1.25392e-05
3.45871e-06
0.000482699
-1.20358e-05
4.22274e-06
0.00048866
-1.19902e-05
4.54233e-06
0.000493169
-1.16635e-05
5.42251e-06
0.000497868
-1.17671e-05
5.54858e-06
0.000500644
-1.10271e-05
6.37252e-06
0.000502872
-1.01542e-05
6.38256e-06
0.000500519
-6.85044e-06
7.26259e-06
0.000495211
-3.72047e-06
7.32398e-06
0.000485019
1.25255e-07
8.22401e-06
0.00047028
4.1976e-06
8.41533e-06
0.000450237
9.48218e-06
9.14786e-06
0.000424762
1.32025e-05
9.42122e-06
0.000394196
1.97863e-05
1.01204e-05
0.000355976
2.40075e-05
1.05092e-05
0.000312958
3.17313e-05
1.12003e-05
0.000261388
3.5586e-05
1.19177e-05
0.000206016
4.24388e-05
1.15535e-05
0.000147085
4.36154e-05
1.33062e-05
8.05915e-05
4.70093e-05
1.06952e-05
3.35616e-05
3.5459e-05
1.48761e-05
2.14158e-05
2.05589e-05
-3.79818e-06
5.64505e-05
-6.874e-06
-2.55333e-05
4.15235e-05
-3.21083e-06
-4.65566e-05
2.06833e-05
-6.52821e-07
-5.88593e-05
1.0824e-05
-2.58021e-06
-6.58476e-05
4.00933e-06
-4.01899e-06
-6.89875e-05
9.20008e-07
-6.08524e-06
-7.19502e-05
4.42008e-07
-7.81147e-06
-7.76522e-05
1.87289e-06
-8.70862e-06
-8.6945e-05
5.36435e-06
-9.4858e-06
-9.77292e-05
7.68667e-06
-9.87195e-06
-0.00010753
6.81358e-06
-9.74016e-06
-0.000115039
4.06317e-06
-9.25796e-06
-0.000119281
2.87554e-07
-8.47887e-06
-0.000119594
-4.56077e-06
-7.41703e-06
-0.000118482
-6.76409e-06
-6.1461e-06
-0.000113582
-1.18504e-05
-4.76924e-06
-9.87148e-05
-2.28598e-05
-3.35458e-06
-7.61867e-05
-3.20296e-05
-1.96106e-06
-4.55811e-05
-4.05839e-05
-7.26495e-07
-6.41296e-06
-4.97398e-05
5.88482e-07
3.48437e-05
-5.00598e-05
1.85238e-06
6.95821e-05
-4.16439e-05
2.93272e-06
9.74541e-05
-3.18368e-05
3.79727e-06
0.000120586
-2.37003e-05
4.47691e-06
0.000140665
-1.62633e-05
5.29615e-06
0.000155834
-8.0739e-06
5.65259e-06
0.000167994
9.40342e-07
6.51749e-06
0.000174201
9.59574e-06
6.67174e-06
0.000179968
1.94468e-05
7.24822e-06
0.000173941
3.15065e-05
8.02906e-06
0.000163439
4.23162e-05
8.21176e-06
0.000147965
5.33772e-05
9.38421e-06
0.000113958
6.19914e-05
1.04095e-05
5.73888e-05
7.34449e-05
1.23728e-05
7.32416e-05
1.30362e-05
6.46864e-05
-1.70235e-05
8.06598e-06
0.000111859
-1.87138e-05
1.21942e-05
0.000143502
-2.48983e-05
1.30927e-05
0.000168161
-2.69474e-05
1.23845e-05
0.000185804
-2.52735e-05
1.09781e-05
0.00019836
-2.16359e-05
9.26091e-06
0.000205519
-1.50961e-05
7.29515e-06
0.000206573
-5.93627e-06
5.21354e-06
0.000205151
1.97828e-06
3.20137e-06
0.000203845
6.39758e-06
1.51099e-06
0.000203215
6.41505e-06
2.28421e-07
0.00020559
1.78216e-06
-7.97348e-07
0.000214252
-7.4556e-06
-1.57764e-06
0.000224144
-1.28957e-05
-2.31742e-06
0.000230402
-1.04297e-05
-3.29514e-06
0.000234465
-1.11993e-05
-4.16183e-06
0.000245169
-2.84971e-05
-3.97642e-06
0.000257884
-4.11362e-05
-3.24005e-06
0.000252134
-3.05596e-05
-3.04663e-06
0.000222354
-1.50004e-05
-2.81373e-06
0.000183602
-8.15071e-06
-1.81726e-06
0.000149635
-6.73347e-06
-7.04616e-07
0.000124451
-6.875e-06
9.68797e-08
0.000106031
-6.17202e-06
8.36722e-07
9.19887e-05
-3.75333e-06
1.50511e-06
8.19596e-05
-3.48811e-07
2.17961e-06
7.56833e-05
4.23515e-06
2.78437e-06
7.21527e-05
9.66521e-06
3.18296e-06
7.0734e-05
1.71718e-05
3.69787e-06
6.91122e-05
2.8493e-05
3.93149e-06
6.54123e-05
4.22578e-05
4.64136e-06
5.68192e-05
5.61016e-05
5.70067e-06
3.88463e-05
7.04474e-05
6.72969e-06
1.93745e-05
9.43606e-05
8.16062e-06
9.63296e-05
8.98229e-06
2.77979e-06
-2.01211e-05
-3.13865e-07
1.14975e-05
-2.81764e-05
-1.8123e-07
2.21562e-05
-3.65426e-05
3.56235e-07
2.99541e-05
-3.60395e-05
8.32064e-07
3.60261e-05
-3.28551e-05
1.11598e-06
4.2398e-05
-2.9669e-05
1.35789e-06
5.24148e-05
-2.70066e-05
1.63476e-06
6.92071e-05
-2.48313e-05
1.86829e-06
9.22178e-05
-2.32053e-05
1.98827e-06
0.000118426
-2.18867e-05
1.99876e-06
0.000144598
-2.15638e-05
1.98435e-06
0.000168743
-2.39671e-05
2.09987e-06
0.000188031
-2.86825e-05
2.25017e-06
0.000203529
-3.1105e-05
2.17775e-06
0.000218023
-2.74399e-05
1.7768e-06
0.000231494
-2.42823e-05
1.28626e-06
0.000236632
-3.19117e-05
1.32607e-06
0.000229196
-3.74054e-05
2.44662e-06
0.000208594
-1.93149e-05
3.68438e-06
0.000177479
9.002e-06
3.25586e-06
0.000147557
2.00779e-05
1.50572e-06
0.00012497
1.72906e-05
-1.20025e-07
0.000107515
1.25354e-05
-9.03013e-07
9.20836e-05
1.10534e-05
-1.06511e-06
7.78764e-05
1.22492e-05
-9.70614e-07
6.50349e-05
1.39328e-05
-6.03969e-07
5.44787e-05
1.51746e-05
1.70547e-07
4.6303e-05
1.67321e-05
1.36514e-06
4.06563e-05
2.01781e-05
2.69954e-06
3.67341e-05
2.82909e-05
4.0817e-06
3.1007e-05
4.33887e-05
5.33961e-06
1.88641e-05
6.42618e-05
5.62565e-06
3.33447e-06
8.66915e-05
5.41061e-06
-4.57222e-07
0.000104981
5.84824e-06
9.60555e-05
6.44531e-06
7.6102e-07
-1.8525e-05
-2.94768e-06
-1.2696e-05
-1.50326e-05
9.68812e-08
-2.40706e-05
-2.53474e-05
1.84715e-07
-3.40399e-05
-2.68475e-05
8.97296e-07
-4.06861e-05
-2.74462e-05
1.36866e-06
-4.39163e-05
-2.79127e-05
1.56602e-06
-4.42034e-05
-2.82399e-05
1.56326e-06
-4.20714e-05
-2.83607e-05
1.36059e-06
-3.81848e-05
-2.82289e-05
1.007e-06
-3.31761e-05
-2.77042e-05
6.2731e-07
-2.82674e-05
-2.6904e-05
2.46196e-07
-2.64818e-05
-2.57712e-05
-1.26494e-07
-3.02809e-05
-2.4488e-05
-4.46259e-07
-3.743e-05
-2.32096e-05
-7.64588e-07
-4.26587e-05
-2.12125e-05
-1.08612e-06
-4.76485e-05
-1.80177e-05
-1.36898e-06
-6.29638e-05
-1.50071e-05
-1.50388e-06
-8.51665e-05
-1.36428e-05
-1.31353e-06
-9.16637e-05
-1.1948e-05
-8.70089e-07
-7.29649e-05
-8.9657e-06
-5.31059e-07
-4.49621e-05
-7.08965e-06
-3.65985e-07
-2.17183e-05
-5.39679e-06
-1.77239e-07
-6.29596e-06
-2.67044e-06
1.50004e-08
3.76404e-06
9.95803e-07
1.58044e-07
1.14074e-05
4.46774e-06
2.977e-07
1.72235e-05
7.71658e-06
5.50356e-07
2.08264e-05
1.07266e-05
9.50214e-07
2.18097e-05
1.42676e-05
1.50066e-06
1.97544e-05
1.98237e-05
2.27581e-06
1.43257e-05
2.99423e-05
3.42769e-06
4.89704e-06
4.72178e-05
5.00472e-06
-7.99617e-06
7.01202e-05
6.32084e-06
-1.62999e-05
8.86223e-05
7.01945e-06
-1.18981e-05
9.37488e-05
7.52342e-06
7.48958e-05
6.36338e-06
-1.77137e-05
-1.86585e-06
3.1742e-07
-1.84243e-05
-1.48829e-05
2.21006e-07
-2.2085e-05
-2.15448e-05
-2.17824e-07
-2.80179e-05
-2.09615e-05
-3.13482e-07
-3.27273e-05
-2.28344e-05
-5.11847e-07
-3.55495e-05
-2.52777e-05
-5.31613e-07
-3.66097e-05
-2.75755e-05
-3.99545e-07
-3.62889e-05
-2.93345e-05
-1.9691e-07
-3.50067e-05
-3.04179e-05
3.30794e-08
-3.32024e-05
-3.07595e-05
3.84066e-07
-3.10824e-05
-3.04902e-05
6.76283e-07
-2.89061e-05
-2.95242e-05
9.03777e-07
-2.73202e-05
-2.76639e-05
1.03437e-06
-2.68754e-05
-2.51497e-05
1.04649e-06
-2.70834e-05
-2.22467e-05
8.8547e-07
-2.68393e-05
-1.90625e-05
5.19932e-07
-2.62249e-05
-1.59308e-05
8.10232e-08
-2.68226e-05
-1.30987e-05
-1.1214e-07
-2.81883e-05
-1.05748e-05
-1.20855e-07
-2.90873e-05
-8.12596e-06
-3.2849e-08
-3.05939e-05
-5.83885e-06
1.81289e-07
-3.27295e-05
-3.77061e-06
4.58544e-07
-3.45296e-05
-1.66169e-06
7.69115e-07
-3.53228e-05
6.97145e-07
1.10879e-06
-3.56409e-05
3.37861e-06
1.48275e-06
-3.60796e-05
6.40545e-06
1.92577e-06
-3.73521e-05
9.89451e-06
2.46189e-06
-3.97506e-05
1.42241e-05
3.11439e-06
-4.30326e-05
2.02553e-05
3.95138e-06
-4.64024e-05
2.9508e-05
5.10734e-06
-4.84912e-05
4.33173e-05
6.59988e-06
-4.67122e-05
5.95255e-05
7.9052e-06
-3.68137e-05
6.85649e-05
8.46622e-06
-2.03076e-05
6.66831e-05
8.20335e-06
4.6224e-05
5.51172e-06
-3.50467e-05
3.47778e-05
-2.69598e-06
-4.59941e-05
-5.18365e-07
-3.7993e-06
-5.36445e-05
-1.11083e-05
-2.24585e-06
-5.8255e-05
-1.59229e-05
-3.41886e-07
-5.80707e-05
-2.29623e-05
-2.18727e-07
-5.44575e-05
-2.86052e-05
-5.03017e-07
-4.90844e-05
-3.23102e-05
-9.07925e-07
-4.28981e-05
-3.46231e-05
-1.25202e-06
-3.66877e-05
-3.56086e-05
-1.50993e-06
-3.44019e-05
-3.21053e-05
-1.73519e-06
-4.03106e-05
-2.381e-05
-1.78881e-06
-5.44256e-05
-1.46537e-05
-1.48681e-06
-7.29076e-05
-8.53657e-06
-1.05231e-06
-9.11622e-05
-6.5421e-06
-6.1531e-07
-0.000105243
-8.27717e-06
-1.28025e-07
-0.000110602
-1.44495e-05
3.47079e-07
-0.000106137
-2.19173e-05
9.23386e-07
-9.3727e-05
-2.76912e-05
1.48702e-06
-7.68271e-05
-3.0025e-05
1.91051e-06
-5.90668e-05
-2.84932e-05
2.16907e-06
-4.36138e-05
-2.37269e-05
2.27433e-06
-3.21579e-05
-1.74633e-05
2.27326e-06
-2.48338e-05
-1.1123e-05
2.24046e-06
-2.11891e-05
-5.10952e-06
2.24039e-06
-2.02895e-05
2.03929e-07
2.31042e-06
-2.00279e-05
3.71212e-06
2.46271e-06
-2.05802e-05
7.80597e-06
2.70436e-06
-2.20631e-05
1.28069e-05
3.06781e-06
-2.37944e-05
1.88464e-05
3.59141e-06
-2.41118e-05
2.65413e-05
4.33207e-06
-2.14663e-05
3.70662e-05
5.38867e-06
-1.61989e-05
4.9452e-05
6.67621e-06
-9.54057e-06
5.55983e-05
7.48911e-06
-3.21265e-06
5.34871e-05
7.34496e-06
3.84528e-05
4.63278e-06
3.27977e-05
1.30158e-06
1.81323e-07
4.80758e-05
-1.79408e-05
2.07515e-06
6.13743e-05
-2.76216e-05
3.52001e-06
7.61259e-05
-3.54899e-05
5.309e-06
8.87644e-05
-4.15379e-05
6.6812e-06
9.9355e-05
-4.43341e-05
6.26286e-06
0.000107567
-4.45454e-05
5.4795e-06
0.000114134
-4.39994e-05
4.77334e-06
0.000120244
-4.29499e-05
4.40826e-06
0.000126006
-3.76143e-05
3.35125e-06
0.000131076
-2.68104e-05
5.44069e-07
0.00013528
-1.43136e-05
-3.09317e-06
0.000139294
-5.72032e-06
-6.01459e-06
0.000143864
-2.71127e-06
-7.64866e-06
0.000148351
-4.07682e-06
-8.2121e-06
0.000149896
-9.51819e-06
-7.11362e-06
0.000147095
-1.63318e-05
-4.68968e-06
0.000140829
-2.21751e-05
-1.90565e-06
0.000130708
-2.36159e-05
6.11981e-07
0.000115327
-1.93537e-05
2.71554e-06
9.78019e-05
-1.34733e-05
4.17493e-06
8.32464e-05
-9.69679e-06
4.93519e-06
7.40091e-05
-7.60484e-06
5.08313e-06
6.78858e-05
-3.39126e-06
4.75941e-06
6.0035e-05
4.68953e-06
4.20434e-06
4.80549e-05
1.26244e-05
3.74245e-06
3.47556e-05
1.79339e-05
3.49271e-06
2.25457e-05
2.17335e-05
3.41725e-06
1.258e-05
2.54076e-05
3.52269e-06
5.66096e-06
2.98691e-05
3.85875e-06
2.86797e-06
3.61298e-05
4.41654e-06
3.80654e-06
4.46431e-05
5.07294e-06
4.57198e-06
5.03778e-05
5.49164e-06
3.50652e-06
4.97991e-05
5.32104e-06
3.86825e-05
3.47817e-06
1.3189e-05
-1.7236e-05
5.54653e-06
2.82224e-05
-3.82744e-05
5.69473e-06
4.26527e-05
-4.64135e-05
5.07911e-06
5.37839e-05
-5.02417e-05
4.63345e-06
6.06862e-05
-5.18845e-05
4.6027e-06
6.48595e-05
-5.19345e-05
4.61166e-06
6.79017e-05
-5.09105e-05
4.51872e-06
7.01362e-05
-4.94008e-05
4.40786e-06
7.21989e-05
-4.78266e-05
4.34889e-06
7.85787e-05
-4.6202e-05
4.4e-06
9.39043e-05
-4.37055e-05
4.29688e-06
0.00011806
-3.94458e-05
3.7044e-06
0.000145979
-3.40348e-05
2.78505e-06
0.000172339
-2.93379e-05
2.00605e-06
0.000193539
-2.60953e-05
1.77258e-06
0.000205656
-2.3003e-05
1.91709e-06
0.000206703
-1.9213e-05
2.08267e-06
0.000197435
-1.50595e-05
2.35839e-06
0.000183169
-9.21613e-06
2.28899e-06
0.000168449
-1.43575e-06
1.11411e-06
0.000153962
4.76642e-06
-1.74722e-07
0.000138979
6.57463e-06
-2.46965e-07
0.000122325
6.03173e-06
1.24554e-06
0.000104986
8.05142e-06
3.0752e-06
8.95155e-05
1.43268e-05
4.05975e-06
7.6431e-05
2.13925e-05
4.05434e-06
6.47977e-05
2.63307e-05
3.67637e-06
5.42124e-05
2.94725e-05
3.36277e-06
4.44447e-05
3.2376e-05
3.21879e-06
3.5309e-05
3.6104e-05
3.27105e-06
2.73036e-05
4.09921e-05
3.59264e-06
2.10463e-05
4.73172e-05
4.19413e-06
1.48236e-05
5.23985e-05
4.73919e-06
7.65169e-06
5.23753e-05
4.7509e-06
4.28308e-05
3.21635e-06
6.00188e-06
-2.38408e-05
-6.37503e-08
1.20867e-05
-4.51332e-05
-1.25744e-07
1.60117e-05
-5.11197e-05
-3.59152e-08
1.78716e-05
-5.29991e-05
1.12417e-07
1.84831e-05
-5.36133e-05
3.44411e-07
1.8504e-05
-5.33758e-05
6.30181e-07
1.79757e-05
-5.21115e-05
8.66267e-07
1.62511e-05
-4.96961e-05
1.03499e-06
1.23789e-05
-4.61965e-05
1.12712e-06
5.94335e-06
-4.20583e-05
1.17311e-06
-1.69451e-06
-3.82132e-05
1.22302e-06
-7.94444e-06
-3.50896e-05
1.21759e-06
-1.12753e-05
-3.2226e-05
1.08359e-06
-1.18959e-05
-2.98678e-05
9.15715e-07
-1.11777e-05
-2.77129e-05
8.01087e-07
-9.90261e-06
-2.50744e-05
7.61016e-07
-8.59714e-06
-2.1308e-05
7.66748e-07
-8.72642e-06
-1.5716e-05
7.52498e-07
-9.99662e-06
-8.71532e-06
6.89948e-07
-1.0721e-05
-1.47277e-06
5.91522e-07
-1.0193e-05
3.37164e-06
5.61319e-07
-1.19207e-05
7.35397e-06
6.57303e-07
-1.77828e-05
1.08612e-05
8.46513e-07
-2.46949e-05
1.37963e-05
1.04658e-06
-2.79162e-05
1.63595e-05
1.19559e-06
-2.63289e-05
1.86962e-05
1.27395e-06
-2.19412e-05
2.08644e-05
1.31691e-06
-1.69086e-05
2.32783e-05
1.36629e-06
-1.2559e-05
2.66649e-05
1.43835e-06
-9.77995e-06
3.16117e-05
1.55505e-06
-8.84721e-06
3.7827e-05
1.78124e-06
-8.25697e-06
4.39321e-05
2.15597e-06
-6.45915e-06
4.751e-05
2.50252e-06
-3.92056e-06
4.67571e-05
2.52034e-06
3.67893e-05
1.52895e-06
1.38845e-05
-3.81371e-05
4.90257e-07
2.48197e-05
-5.55291e-05
-1.17389e-07
3.38692e-05
-5.97629e-05
6.75017e-08
4.13689e-05
-6.03778e-05
3.49548e-07
4.72504e-05
-5.94503e-05
4.24129e-07
5.14975e-05
-5.74514e-05
3.06094e-07
5.43277e-05
-5.44937e-05
5.21977e-08
5.60444e-05
-5.06169e-05
-2.69248e-07
5.69607e-05
-4.5923e-05
-6.81522e-07
5.69907e-05
-4.06136e-05
-1.09548e-06
5.55533e-05
-3.52517e-05
-1.3592e-06
5.22621e-05
-3.04902e-05
-1.36006e-06
4.7227e-05
-2.6472e-05
-1.06662e-06
4.07166e-05
-2.35374e-05
-4.40667e-07
3.35981e-05
-2.14974e-05
2.9268e-07
2.68536e-05
-1.9761e-05
9.29302e-07
2.13627e-05
-1.7726e-05
1.50295e-06
1.79096e-05
-1.45855e-05
2.03784e-06
1.66777e-05
-1.00064e-05
2.39491e-06
1.73724e-05
-4.65062e-06
2.47693e-06
1.80231e-05
3.97109e-07
2.38472e-06
1.68324e-05
6.4309e-06
2.21806e-06
1.45859e-05
1.12021e-05
2.04097e-06
1.19259e-05
1.46975e-05
1.90161e-06
9.53477e-06
1.70686e-05
1.82252e-06
7.8042e-06
1.87705e-05
1.79892e-06
6.70169e-06
2.02925e-05
1.81899e-06
6.08486e-06
2.21557e-05
1.87716e-06
5.82241e-06
2.50615e-05
1.96899e-06
5.50485e-06
2.98436e-05
2.07448e-06
4.38511e-06
3.65238e-05
2.15562e-06
2.60681e-06
4.29443e-05
2.17887e-06
1.19806e-06
4.60783e-05
2.13132e-06
1.36904e-07
4.52028e-05
1.92491e-06
3.52335e-05
1.11159e-06
8.37868e-06
-4.56111e-05
-4.03356e-07
1.18224e-05
-5.82774e-05
-1.30244e-07
1.22985e-05
-5.98679e-05
1.98909e-07
1.13631e-05
-5.93386e-05
4.92791e-07
9.71589e-06
-5.79059e-05
7.33826e-07
7.57621e-06
-5.5546e-05
9.03285e-07
4.90463e-06
-5.20977e-05
9.89382e-07
1.84631e-06
-4.77981e-05
9.91189e-07
-7.51243e-07
-4.34835e-05
9.15326e-07
-1.66511e-06
-3.972e-05
7.48816e-07
-5.50837e-07
-3.61558e-05
4.68868e-07
1.79035e-06
-3.23339e-05
1.14285e-07
4.40134e-06
-2.82598e-05
-2.7533e-07
6.10275e-06
-2.42407e-05
-5.26275e-07
6.10798e-06
-2.0573e-05
-5.53997e-07
4.37631e-06
-1.7356e-05
-3.90417e-07
1.38374e-06
-1.44743e-05
-5.91388e-08
-1.80009e-06
-1.16287e-05
3.45767e-07
-4.33197e-06
-8.29067e-06
8.63529e-07
-6.41608e-06
-3.90141e-06
1.33368e-06
-8.98083e-06
1.34653e-06
1.57506e-06
-1.03934e-05
6.18611e-06
1.58285e-06
-1.14725e-05
1.07111e-05
1.49313e-06
-1.22015e-05
1.39364e-05
1.44181e-06
-1.24415e-05
1.58541e-05
1.43959e-06
-1.22676e-05
1.71457e-05
1.46331e-06
-1.17129e-05
1.82643e-05
1.5077e-06
-1.06657e-05
1.95873e-05
1.57674e-06
-8.87638e-06
2.1676e-05
1.6803e-06
-6.20533e-06
2.54654e-05
1.82194e-06
-3.2996e-06
3.17686e-05
1.96536e-06
-1.42181e-06
3.91164e-05
2.01922e-06
-7.51418e-07
4.33612e-05
1.93329e-06
-4.1108e-07
4.29431e-05
1.68464e-06
3.36625e-05
9.54587e-07
3.40822e-06
-4.87763e-05
6.65553e-09
4.24908e-06
-5.8648e-05
-6.21006e-07
4.19559e-06
-5.9249e-05
-9.18498e-07
3.71208e-06
-5.83048e-05
-1.00333e-06
2.71753e-06
-5.63799e-05
-1.04517e-06
1.15784e-06
-5.34335e-05
-1.10592e-06
-9.39631e-07
-4.93443e-05
-1.22847e-06
-3.59311e-06
-4.43158e-05
-1.39168e-06
-6.93394e-06
-3.91902e-05
-1.47094e-06
-1.0893e-05
-3.48383e-05
-1.37019e-06
-1.48448e-05
-3.14275e-05
-1.13425e-06
-1.78841e-05
-2.87013e-05
-8.52385e-07
-1.93403e-05
-2.63856e-05
-5.85242e-07
-1.90568e-05
-2.42633e-05
-3.46856e-07
-1.73817e-05
-2.2144e-05
-1.23485e-07
-1.49062e-05
-1.99249e-05
1.14705e-07
-1.22363e-05
-1.75097e-05
4.03342e-07
-9.92348e-06
-1.46655e-05
7.60997e-07
-8.27773e-06
-1.11019e-05
1.18885e-06
-7.0931e-06
-6.70459e-06
1.62046e-06
-5.9787e-06
-1.72075e-06
1.92696e-06
-5.32618e-06
3.46529e-06
2.00784e-06
-4.96686e-06
8.40977e-06
1.86359e-06
-5.00278e-06
1.22739e-05
1.64528e-06
-5.32159e-06
1.4618e-05
1.5301e-06
-5.6613e-06
1.5979e-05
1.49161e-06
-5.85336e-06
1.69699e-05
1.4778e-06
-5.68258e-06
1.7942e-05
1.47618e-06
-4.81472e-06
1.9337e-05
1.4943e-06
-2.98734e-06
2.21309e-05
1.55274e-06
-8.74956e-07
2.79673e-05
1.66648e-06
-2.76577e-07
3.65161e-05
1.75154e-06
-4.55681e-07
4.14884e-05
1.63707e-06
-4.75824e-07
4.11835e-05
1.36054e-06
3.21381e-05
7.60382e-07
-3.4779e-06
-4.56515e-05
5.74624e-07
-6.23445e-06
-5.63775e-05
7.84722e-07
-8.15713e-06
-5.75815e-05
5.51456e-07
-9.55166e-06
-5.70192e-05
3.94014e-07
-1.04832e-05
-5.55356e-05
3.42915e-07
-1.07596e-05
-5.33145e-05
3.57247e-07
-9.91243e-06
-5.04507e-05
3.84239e-07
-7.54682e-06
-4.69815e-05
3.58876e-07
-4.016e-06
-4.2938e-05
2.41891e-07
-3.90679e-07
-3.84966e-05
5.45939e-08
2.3012e-06
-3.39889e-05
-9.7401e-08
3.5985e-06
-2.97456e-05
-2.08259e-07
3.50297e-06
-2.5985e-05
-2.52973e-07
2.31673e-06
-2.27908e-05
-2.30487e-07
5.15255e-07
-2.01352e-05
-1.49973e-07
-1.418e-06
-1.79083e-05
-2.54023e-08
-3.11361e-06
-1.59373e-05
1.80979e-07
-4.23321e-06
-1.39581e-05
4.66527e-07
-4.5713e-06
-1.15871e-05
8.68193e-07
-4.20089e-06
-8.42416e-06
1.37804e-06
-3.49824e-06
-4.29966e-06
1.88332e-06
-2.81969e-06
5.29655e-07
2.23035e-06
-1.99872e-06
5.18274e-06
2.33245e-06
-1.41717e-06
9.38822e-06
2.20084e-06
-1.39033e-06
1.25534e-05
1.95911e-06
-1.79947e-06
1.45793e-05
1.77041e-06
-2.36051e-06
1.58274e-05
1.68291e-06
-2.98576e-06
1.69119e-05
1.64872e-06
-3.44956e-06
1.81983e-05
1.62959e-06
-2.9946e-06
2.01804e-05
1.61473e-06
-7.36678e-07
2.43633e-05
1.61862e-06
1.70165e-06
3.2668e-05
1.63131e-06
1.27606e-06
4.02034e-05
1.51667e-06
4.50437e-07
4.04331e-05
1.26175e-06
3.16181e-05
7.43046e-07
-5.9188e-06
-4.11069e-05
8.68238e-07
-9.82625e-06
-5.40956e-05
1.00428e-06
-1.22406e-05
-5.63153e-05
5.42849e-07
-1.34544e-05
-5.6489e-05
8.97646e-08
-1.36556e-05
-5.57603e-05
-1.62731e-07
-1.29445e-05
-5.43386e-05
-2.67222e-07
-1.14019e-05
-5.23094e-05
-2.43822e-07
-9.08571e-06
-4.9691e-05
-1.27083e-07
-6.068e-06
-4.64337e-05
1.80584e-08
-2.62973e-06
-4.25077e-05
1.94421e-07
8.36456e-07
-3.80211e-05
2.82505e-07
3.85161e-06
-3.32455e-05
2.95524e-07
6.02842e-06
-2.85374e-05
2.66299e-07
7.18648e-06
-2.42355e-05
2.36314e-07
7.35871e-06
-2.05576e-05
2.38454e-07
6.71113e-06
-1.75373e-05
2.88001e-07
5.4699e-06
-1.50577e-05
3.85928e-07
3.93826e-06
-1.29282e-05
5.33088e-07
2.55006e-06
-1.09107e-05
7.46493e-07
1.76704e-06
-8.67541e-06
1.06931e-06
1.76782e-06
-5.80316e-06
1.5343e-06
2.36451e-06
-2.10333e-06
2.05975e-06
2.87655e-06
2.19742e-06
2.47677e-06
3.00987e-06
6.53598e-06
2.68307e-06
2.65764e-06
1.01567e-05
2.66919e-06
1.97706e-06
1.26969e-05
2.47686e-06
1.47285e-06
1.40961e-05
2.19818e-06
1.53729e-06
1.48733e-05
1.97854e-06
1.92706e-06
1.59709e-05
1.86254e-06
2.19382e-06
1.81662e-05
1.81006e-06
2.59068e-06
2.23864e-05
1.79069e-06
3.76128e-06
3.02109e-05
1.79827e-06
3.58438e-06
3.91262e-05
1.58526e-06
2.35004e-06
4.06441e-05
1.18539e-06
3.32759e-05
7.49122e-07
-3.83766e-06
-3.84272e-05
8.72337e-07
-4.20821e-06
-5.495e-05
1.07075e-06
-2.97496e-06
-5.84644e-05
8.6301e-07
-9.03815e-07
-5.92013e-05
6.2837e-07
1.75645e-06
-5.88588e-05
4.36704e-07
4.86252e-06
-5.77544e-05
3.0203e-07
8.25438e-06
-5.59863e-05
2.52058e-07
1.17686e-05
-5.35891e-05
3.04581e-07
1.53184e-05
-5.0566e-05
4.43441e-07
1.88873e-05
-4.6898e-05
6.27087e-07
2.23998e-05
-4.25575e-05
8.0016e-07
2.55853e-05
-3.75559e-05
9.09008e-07
2.7989e-05
-3.20385e-05
9.23089e-07
2.91693e-05
-2.63827e-05
8.51358e-07
2.89614e-05
-2.11482e-05
7.38843e-07
2.75829e-05
-1.68161e-05
6.39123e-07
2.54601e-05
-1.35145e-05
5.87714e-07
2.2996e-05
-1.10385e-05
5.97868e-07
2.05184e-05
-9.07212e-06
6.70969e-07
1.83858e-05
-7.31691e-06
8.10486e-07
1.7036e-05
-5.45294e-06
1.03814e-06
1.66449e-05
-3.06346e-06
1.39154e-06
1.68196e-05
2.14594e-07
1.85234e-06
1.70045e-05
4.10167e-06
2.29545e-06
1.6699e-05
7.90014e-06
2.60282e-06
1.57636e-05
1.09316e-05
2.74072e-06
1.43499e-05
1.28572e-05
2.70569e-06
1.33183e-05
1.35075e-05
2.47722e-06
1.33022e-05
1.39378e-05
2.12515e-06
1.3273e-05
1.63869e-05
1.77594e-06
1.0657e-05
2.30886e-05
1.51838e-06
5.05125e-06
3.33829e-05
1.46725e-06
9.7517e-07
4.07486e-05
1.66073e-06
-6.5094e-07
4.0223e-05
1.48945e-06
3.13261e-05
8.88297e-07
3.69806e-07
-3.94534e-05
4.54074e-07
1.76572e-06
-5.66916e-05
2.83099e-07
3.53626e-06
-6.02473e-05
7.42511e-08
5.34256e-06
-6.07478e-05
-1.29242e-07
7.09982e-06
-6.0119e-05
-3.18217e-07
8.77091e-06
-5.86972e-05
-5.0839e-07
1.03108e-05
-5.66053e-05
-6.69091e-07
1.1698e-05
-5.39613e-05
-7.48262e-07
1.30257e-05
-5.09344e-05
-7.05079e-07
1.45438e-05
-4.76806e-05
-5.27217e-07
1.65513e-05
-4.41935e-05
-2.37537e-07
1.9159e-05
-4.02484e-05
1.34789e-07
2.21298e-05
-3.55227e-05
4.9507e-07
2.48364e-05
-2.98719e-05
7.29197e-07
2.64962e-05
-2.36601e-05
7.9799e-07
2.66621e-05
-1.77619e-05
7.45005e-07
2.54154e-05
-1.29436e-05
6.62473e-07
2.31295e-05
-9.36766e-06
6.16885e-07
2.02038e-05
-6.76402e-06
6.29216e-07
1.69787e-05
-4.77559e-06
7.02059e-07
1.37897e-05
-3.08405e-06
8.44027e-07
1.10174e-05
-1.34684e-06
1.08455e-06
8.96223e-06
8.3177e-07
1.4695e-06
7.54248e-06
3.56827e-06
1.98067e-06
6.02062e-06
6.93181e-06
2.49855e-06
3.61104e-06
1.03771e-05
2.91526e-06
-2.0573e-07
1.33332e-05
3.1966e-06
-5.43378e-06
1.52298e-05
3.27754e-06
-1.10045e-05
1.62744e-05
3.07378e-06
-1.49819e-05
1.80648e-05
2.58922e-06
-1.39211e-05
2.10275e-05
1.99915e-06
-4.49607e-06
2.36705e-05
1.4072e-06
-3.87065e-07
3.59556e-05
7.95028e-07
-3.40023e-07
3.97012e-05
3.31666e-07
3.06439e-05
2.17932e-07
3.0293e-06
-4.2209e-05
-1.99383e-07
5.94943e-06
-5.8882e-05
-5.25644e-07
8.40432e-06
-6.20221e-05
-4.70995e-07
1.06031e-05
-6.22987e-05
-4.51161e-07
1.26552e-05
-6.1488e-05
-4.98178e-07
1.45944e-05
-5.98483e-05
-6.09376e-07
1.63661e-05
-5.74138e-05
-7.78501e-07
1.78098e-05
-5.42185e-05
-9.80639e-07
1.87354e-05
-5.04654e-05
-1.16047e-06
1.91132e-05
-4.6552e-05
-1.25253e-06
1.92086e-05
-4.28295e-05
-1.20679e-06
1.94959e-05
-3.9311e-05
-9.98684e-07
2.04036e-05
-3.56188e-05
-6.36051e-07
2.20078e-05
-3.1173e-05
-1.90607e-07
2.38141e-05
-2.56247e-05
2.15382e-07
2.50846e-05
-1.9447e-05
4.37726e-07
2.54165e-05
-1.37491e-05
4.83602e-07
2.48779e-05
-9.26949e-06
4.4892e-07
2.37362e-05
-6.02747e-06
4.16011e-07
2.2248e-05
-3.69519e-06
4.21468e-07
2.06392e-05
-1.9316e-06
4.72801e-07
1.9232e-05
-4.90963e-07
5.7025e-07
1.82901e-05
1.07177e-06
7.23399e-07
1.7856e-05
3.06378e-06
9.62691e-07
1.78e-05
5.69473e-06
1.31613e-06
1.75716e-05
8.87451e-06
1.74016e-06
1.66878e-05
1.20339e-05
2.14922e-06
1.4706e-05
1.46353e-05
2.47007e-06
1.18045e-05
1.63564e-05
2.65383e-06
9.59626e-06
1.73621e-05
2.78307e-06
8.68311e-06
1.90926e-05
3.04691e-06
1.03529e-05
2.00135e-05
3.31526e-06
1.13243e-05
3.38756e-05
2.94628e-06
6.9195e-06
4.30425e-05
2.12646e-06
3.64962e-05
1.31693e-06
4.46816e-06
-4.5664e-05
-7.93245e-07
7.68245e-06
-6.06561e-05
-1.2563e-06
1.00585e-05
-6.3194e-05
-1.07803e-06
1.20323e-05
-6.32581e-05
-9.12016e-07
1.37449e-05
-6.22882e-05
-8.20038e-07
1.52357e-05
-6.04502e-05
-8.03784e-07
1.64985e-05
-5.77317e-05
-8.65031e-07
1.75147e-05
-5.41521e-05
-1.00398e-06
1.82345e-05
-4.98981e-05
-1.20088e-06
1.85672e-05
-4.53752e-05
-1.40607e-06
1.85003e-05
-4.10838e-05
-1.55662e-06
1.82251e-05
-3.72987e-05
-1.60315e-06
1.81174e-05
-3.38639e-05
-1.511e-06
1.85629e-05
-3.02412e-05
-1.25091e-06
1.96053e-05
-2.57112e-05
-8.54299e-07
2.07723e-05
-2.00662e-05
-4.79214e-07
2.15729e-05
-1.42443e-05
-2.64697e-07
2.19178e-05
-9.40007e-06
-1.90344e-07
2.1968e-05
-5.89536e-06
-1.66434e-07
2.18941e-05
-3.47188e-06
-1.37186e-07
2.17836e-05
-1.72276e-06
-8.71839e-08
2.15921e-05
-2.78728e-07
-9.07442e-09
2.16352e-05
9.6653e-07
7.66107e-08
2.21498e-05
2.35293e-06
2.17632e-07
2.3251e-05
4.17771e-06
4.50704e-07
2.48654e-05
6.54721e-06
7.68283e-07
2.67873e-05
9.11325e-06
1.08085e-06
2.88511e-05
1.13695e-05
1.33707e-06
3.07866e-05
1.30625e-05
1.57045e-06
3.11351e-05
1.52534e-05
1.73355e-06
2.58508e-05
2.22275e-05
1.41975e-06
1.04641e-05
3.2723e-05
9.58974e-07
6.71989e-07
4.07851e-05
1.42786e-06
-1.56773e-06
4.30412e-05
1.52251e-06
3.39295e-05
7.07969e-07
3.2318e-06
-4.73413e-05
-1.33721e-06
6.17818e-06
-6.14421e-05
-1.95152e-06
8.54991e-06
-6.36289e-05
-1.75717e-06
1.04316e-05
-6.34315e-05
-1.54191e-06
1.18097e-05
-6.21124e-05
-1.38984e-06
1.2578e-05
-5.97459e-05
-1.30562e-06
1.26217e-05
-5.63225e-05
-1.28645e-06
1.2044e-05
-5.21057e-05
-1.31955e-06
1.11729e-05
-4.75233e-05
-1.38874e-06
1.02614e-05
-4.29049e-05
-1.4785e-06
9.32016e-06
-3.85201e-05
-1.56353e-06
8.25649e-06
-3.45739e-05
-1.61031e-06
7.07349e-06
-3.10429e-05
-1.58864e-06
5.9568e-06
-2.76079e-05
-1.46478e-06
5.23232e-06
-2.37311e-05
-1.20039e-06
5.0407e-06
-1.89851e-05
-8.38338e-07
5.10622e-06
-1.37348e-05
-5.37027e-07
5.06593e-06
-8.96587e-06
-3.69354e-07
4.73679e-06
-5.27147e-06
-2.78778e-07
4.08322e-06
-2.60777e-06
-1.98943e-07
3.11604e-06
-6.46209e-07
-9.96611e-08
1.92969e-06
8.88898e-07
2.77108e-08
4.96383e-07
2.22987e-06
1.78437e-07
-1.1335e-06
3.60041e-06
3.89678e-07
-2.85687e-06
5.20838e-06
6.96132e-07
-4.6978e-06
7.24887e-06
1.1329e-06
-6.95383e-06
9.68767e-06
1.66275e-06
-9.92905e-06
1.21661e-05
2.16899e-06
-1.34195e-05
1.42065e-05
2.46392e-06
-1.6423e-05
1.63959e-05
2.28778e-06
-1.54843e-05
2.03895e-05
1.61344e-06
-8.73161e-06
2.55356e-05
8.09679e-07
-6.17981e-06
3.7248e-05
3.05456e-07
-3.74616e-06
3.98671e-05
6.32559e-08
3.00295e-05
-1.71638e-07
4.7747e-06
-5.01368e-05
-1.67426e-06
8.73948e-06
-6.27728e-05
-2.29069e-06
1.17243e-05
-6.41083e-05
-2.21152e-06
1.40246e-05
-6.33968e-05
-2.07028e-06
1.56349e-05
-6.1484e-05
-1.97984e-06
1.63061e-05
-5.81799e-05
-1.96702e-06
1.57821e-05
-5.34883e-05
-2.02879e-06
1.42879e-05
-4.82343e-05
-2.11096e-06
1.24617e-05
-4.33219e-05
-2.15505e-06
1.08749e-05
-3.90057e-05
-2.15251e-06
9.74067e-06
-3.51563e-05
-2.12562e-06
8.95213e-06
-3.16325e-05
-2.08921e-06
8.30292e-06
-2.83152e-05
-2.03933e-06
7.67802e-06
-2.49988e-05
-1.95853e-06
7.14728e-06
-2.13628e-05
-1.81618e-06
6.88808e-06
-1.71208e-05
-1.58087e-06
6.92033e-06
-1.24496e-05
-1.29156e-06
7.13351e-06
-8.10864e-06
-1.04901e-06
7.41549e-06
-4.65304e-06
-8.85121e-07
7.66893e-06
-2.08249e-06
-7.67712e-07
7.87316e-06
-1.78447e-07
-6.6311e-07
7.83115e-06
1.49182e-06
-5.52649e-07
7.53562e-06
2.95921e-06
-4.25432e-07
7.03408e-06
4.38161e-06
-2.71332e-07
6.43986e-06
5.88571e-06
-7.66889e-08
5.89952e-06
7.61033e-06
1.77044e-07
5.3554e-06
9.69499e-06
5.10366e-07
4.40996e-06
1.21218e-05
9.16194e-07
2.78551e-06
1.44113e-05
1.32813e-06
7.98374e-07
1.66946e-05
1.69421e-06
1.24839e-07
1.93472e-05
2.03649e-06
4.60468e-06
2.01446e-05
2.27025e-06
7.81915e-06
3.3756e-05
1.97661e-06
5.34869e-06
4.18809e-05
1.26222e-06
3.46151e-05
7.30219e-07
2.31844e-06
-5.08239e-05
-1.35597e-06
4.29648e-06
-6.29137e-05
-1.59349e-06
5.99664e-06
-6.39663e-05
-1.65456e-06
7.41612e-06
-6.29817e-05
-1.67385e-06
8.36845e-06
-6.05394e-05
-1.73729e-06
8.45465e-06
-5.61822e-05
-1.90571e-06
7.4439e-06
-5.01023e-05
-2.18618e-06
5.74307e-06
-4.38994e-05
-2.46291e-06
3.97973e-06
-3.8805e-05
-2.61634e-06
2.58869e-06
-3.48777e-05
-2.63371e-06
1.7647e-06
-3.16968e-05
-2.56097e-06
1.49827e-06
-2.88734e-05
-2.4422e-06
1.64967e-06
-2.61333e-05
-2.3024e-06
2.06233e-06
-2.32473e-05
-2.14813e-06
2.65249e-06
-1.99725e-05
-1.97353e-06
3.44005e-06
-1.61276e-05
-1.77513e-06
4.4598e-06
-1.18852e-05
-1.57477e-06
5.67658e-06
-7.90324e-06
-1.41007e-06
7.06891e-06
-4.74525e-06
-1.28863e-06
8.6407e-06
-2.45082e-06
-1.1937e-06
1.03457e-05
-7.64288e-07
-1.11028e-06
1.22889e-05
5.87915e-07
-1.03e-06
1.4422e-05
1.78532e-06
-9.47873e-07
1.67559e-05
2.92093e-06
-8.58678e-07
1.93761e-05
4.04017e-06
-7.55252e-07
2.24038e-05
5.23376e-06
-6.2522e-07
2.59239e-05
6.65243e-06
-4.45136e-07
2.9757e-05
8.50245e-06
-1.85141e-07
3.27447e-05
1.12092e-05
1.63889e-07
3.21131e-05
1.64713e-05
4.83216e-07
2.57221e-05
2.44501e-05
6.89525e-07
1.45747e-05
3.00327e-05
8.66412e-07
7.60886e-06
3.92271e-05
1.4828e-06
3.46297e-06
4.46199e-05
1.45628e-06
3.7381e-05
7.09471e-07
1.34703e-06
-5.1353e-05
-6.59724e-07
2.29313e-06
-6.31978e-05
-5.54853e-07
3.24257e-06
-6.41145e-05
-7.26219e-07
4.18187e-06
-6.29577e-05
-8.98747e-07
4.86419e-06
-6.00372e-05
-1.11297e-06
4.84089e-06
-5.46241e-05
-1.44767e-06
4.01338e-06
-4.72832e-05
-1.90765e-06
2.88677e-06
-4.03704e-05
-2.34144e-06
1.8965e-06
-3.51586e-05
-2.61675e-06
1.16567e-06
-3.13898e-05
-2.73055e-06
6.69782e-07
-2.84479e-05
-2.73321e-06
3.52789e-07
-2.58743e-05
-2.66624e-06
1.54385e-07
-2.33691e-05
-2.55353e-06
3.04485e-08
-2.07094e-05
-2.40567e-06
2.20032e-09
-1.77171e-05
-2.22279e-06
1.92984e-07
-1.43133e-05
-2.00291e-06
7.28261e-07
-1.06529e-05
-1.76491e-06
1.5704e-06
-7.18679e-06
-1.55498e-06
2.57378e-06
-4.34833e-06
-1.39682e-06
3.63008e-06
-2.22861e-06
-1.27599e-06
4.70036e-06
-6.612e-07
-1.17221e-06
5.80768e-06
5.54982e-07
-1.0725e-06
6.97615e-06
1.59025e-06
-9.68044e-07
8.21215e-06
2.55001e-06
-8.538e-07
9.54486e-06
3.45796e-06
-7.31184e-07
1.10102e-05