/*--------------------------------*- C++ -*----------------------------------*\
| =========                 |                                                 |
| \\      /  F ield         | OpenFOAM: The Open Source CFD Toolbox           |
|  \\    /   O peration     | Version:  v2006                                 |
|   \\  /    A nd           | Website:  www.openfoam.com                      |
|    \\/     M anipulation  |                                                 |
\*---------------------------------------------------------------------------*/
FoamFile
{
    version     2.0;
    format      ascii;
    class       volScalarField;
    location    "60";
    object      alphat;
}
// * * * * * * * * * * * * * * * * * * * * * * * * * * * * * * * * * * * * * //

dimensions      [1 -1 -1 0 0 0 0];


internalField   nonuniform List<scalar> 
78750
(
1.24291e-09
2.3411e-07
4.42739e-07
6.5261e-07
8.58609e-07
1.05739e-06
1.24647e-06
1.42405e-06
1.5887e-06
1.73927e-06
1.87478e-06
1.99442e-06
2.09748e-06
2.18335e-06
2.25147e-06
2.30134e-06
2.33251e-06
2.34455e-06
2.33714e-06
2.31036e-06
2.26297e-06
2.195e-06
2.10695e-06
1.99958e-06
1.87452e-06
1.7343e-06
1.58231e-06
1.42237e-06
1.25773e-06
1.08971e-06
9.17156e-07
7.37e-07
5.45919e-07
3.43383e-07
5.58672e-09
3.33845e-09
2.30897e-06
5.24667e-06
7.97386e-06
9.90606e-06
1.15896e-05
1.30408e-05
1.42794e-05
1.53229e-05
1.61869e-05
1.68852e-05
1.74299e-05
1.78317e-05
1.81e-05
1.82431e-05
1.82679e-05
1.81804e-05
1.79855e-05
1.76872e-05
1.7288e-05
1.67868e-05
1.61837e-05
1.54781e-05
1.46686e-05
1.37553e-05
1.2741e-05
1.16337e-05
1.04471e-05
9.20398e-06
7.37676e-06
5.04831e-06
3.22239e-06
2.463e-06
1.62e-06
1.93221e-08
5.75607e-09
2.3141e-06
5.47815e-06
9.428e-06
1.34065e-05
1.65899e-05
1.82765e-05
1.96386e-05
2.07142e-05
2.1535e-05
2.2128e-05
2.25164e-05
2.27204e-05
2.27579e-05
2.2645e-05
2.23957e-05
2.20233e-05
2.15401e-05
2.0958e-05
2.02883e-05
1.95408e-05
1.87208e-05
1.78283e-05
1.68567e-05
1.57949e-05
1.46321e-05
1.3364e-05
1.20014e-05
1.017e-05
7.55562e-06
5.07379e-06
3.61002e-06
3.69626e-06
1.5474e-06
3.1344e-08
8.71623e-09
2.3233e-06
5.5499e-06
1.01151e-05
1.54808e-05
2.02988e-05
2.26753e-05
2.40449e-05
2.50792e-05
2.58199e-05
2.63015e-05
2.65527e-05
2.65979e-05
2.64589e-05
2.61559e-05
2.49432e-05
2.35303e-05
2.20239e-05
2.04805e-05
1.89597e-05
1.75311e-05
1.62682e-05
1.52303e-05
1.44428e-05
1.38689e-05
1.33663e-05
1.26573e-05
1.13949e-05
9.39316e-06
6.93414e-06
4.83014e-06
3.86872e-06
4.72306e-06
1.4685e-06
4.15274e-08
1.17906e-08
2.26164e-06
5.44491e-06
1.0284e-05
1.64671e-05
2.22301e-05
2.56791e-05
2.69906e-05
2.79417e-05
2.85797e-05
2.8944e-05
2.90676e-05
2.83465e-05
2.68712e-05
2.52107e-05
2.34817e-05
2.17379e-05
2.00183e-05
1.83528e-05
1.67723e-05
1.53208e-05
1.40595e-05
1.3049e-05
1.23249e-05
1.18705e-05
1.15666e-05
1.11361e-05
1.01907e-05
8.52229e-06
6.46634e-06
4.80791e-06
4.29979e-06
5.39088e-06
1.43161e-06
5.05922e-08
1.52672e-08
2.25268e-06
5.48084e-06
1.06605e-05
1.76851e-05
2.43974e-05
2.84974e-05
2.97684e-05
3.06582e-05
3.12178e-05
3.14892e-05
3.06404e-05
2.88247e-05
2.67966e-05
2.4732e-05
2.27256e-05
2.0826e-05
1.90473e-05
1.73844e-05
1.58331e-05
1.44094e-05
1.31573e-05
1.21312e-05
1.1365e-05
1.08491e-05
1.04877e-05
1.0046e-05
9.18595e-06
7.73811e-06
6.03346e-06
4.76733e-06
4.67794e-06
5.76827e-06
1.45136e-06
5.85993e-08
1.87767e-08
2.26928e-06
5.57467e-06
1.10939e-05
1.88864e-05
2.63867e-05
3.08221e-05
3.20538e-05
3.28896e-05
3.33828e-05
3.27861e-05
3.07165e-05
2.83117e-05
2.58593e-05
2.3521e-05
2.13802e-05
1.94552e-05
1.77249e-05
1.61542e-05
1.47145e-05
1.34037e-05
1.22535e-05
1.13047e-05
1.05745e-05
1.0046e-05
9.63541e-06
9.15254e-06
8.3409e-06
7.10196e-06
5.73707e-06
4.8381e-06
5.16262e-06
5.91755e-06
1.48011e-06
6.5908e-08
2.22705e-08
2.2868e-06
5.63827e-06
1.13718e-05
1.96904e-05
2.77507e-05
3.29341e-05
3.424e-05
3.50432e-05
3.49423e-05
3.29677e-05
3.03967e-05
2.76371e-05
2.49573e-05
2.25145e-05
2.03645e-05
1.84948e-05
1.68593e-05
1.54031e-05
1.40814e-05
1.2877e-05
1.18098e-05
1.09071e-05
1.01684e-05
9.56792e-06
9.03494e-06
8.43054e-06
7.59196e-06
6.49756e-06
5.41418e-06
4.83646e-06
5.54435e-06
6.04175e-06
1.52491e-06
7.27163e-08
2.56324e-08
2.3137e-06
5.71503e-06
1.16363e-05
2.03939e-05
2.8877e-05
3.41515e-05
3.61617e-05
3.66078e-05
3.51682e-05
3.2706e-05
2.97497e-05
2.67191e-05
2.38941e-05
2.14048e-05
1.92705e-05
1.74535e-05
1.58951e-05
1.45342e-05
1.33231e-05
1.2244e-05
1.13122e-05
1.05318e-05
9.86935e-06
9.27383e-06
8.67342e-06
7.97106e-06
7.09083e-06
6.08659e-06
5.21065e-06
4.89711e-06
5.95852e-06
6.07421e-06
1.56757e-06
7.93773e-08
2.89867e-08
2.3343e-06
5.75597e-06
1.17754e-05
2.08035e-05
2.95646e-05
3.4879e-05
3.70412e-05
3.691e-05
3.51521e-05
3.23948e-05
2.92107e-05
2.60448e-05
2.31653e-05
2.06742e-05
1.85669e-05
1.67906e-05
1.52798e-05
1.3972e-05
1.28204e-05
1.18089e-05
1.09525e-05
1.02439e-05
9.62685e-06
9.02899e-06
8.37362e-06
7.59477e-06
6.68284e-06
5.74594e-06
5.02671e-06
4.92424e-06
6.2887e-06
6.11935e-06
1.61243e-06
8.60119e-08
3.22084e-08
2.35467e-06
5.79686e-06
1.19054e-05
2.11633e-05
3.01389e-05
3.54532e-05
3.74424e-05
3.70405e-05
3.49821e-05
3.19627e-05
2.86003e-05
2.53455e-05
2.24424e-05
1.99635e-05
1.78829e-05
1.61376e-05
1.466e-05
1.339e-05
1.22866e-05
1.13402e-05
1.05702e-05
9.95414e-06
9.4115e-06
8.8465e-06
8.17302e-06
7.34826e-06
6.4162e-06
5.5287e-06
4.92738e-06
4.99911e-06
6.63507e-06
6.11245e-06
1.65183e-06
9.26541e-08
3.56299e-08
2.37426e-06
5.83108e-06
1.20082e-05
2.14391e-05
3.05521e-05
3.58286e-05
3.76613e-05
3.70508e-05
3.4788e-05
3.16138e-05
2.81643e-05
2.48803e-05
2.19822e-05
1.95205e-05
1.74566e-05
1.57229e-05
1.42521e-05
1.29872e-05
1.18922e-05
1.09635e-05
1.02271e-05
9.65653e-06
9.15834e-06
8.62085e-06
7.94889e-06
7.11196e-06
6.18686e-06
5.35181e-06
4.84894e-06
5.0665e-06
6.93814e-06
6.10658e-06
1.68881e-06
9.92644e-08
3.89175e-08
2.39074e-06
5.86108e-06
1.21021e-05
2.16863e-05
3.09076e-05
3.613e-05
3.78023e-05
3.69882e-05
3.45355e-05
3.12284e-05
2.77157e-05
2.44227e-05
2.15428e-05
1.9105e-05
1.70598e-05
1.53367e-05
1.38698e-05
1.26063e-05
1.15159e-05
1.06024e-05
9.89856e-06
9.37161e-06
8.91695e-06
8.41107e-06
7.75294e-06
6.92206e-06
6.01823e-06
5.23632e-06
4.82028e-06
5.16964e-06
7.25717e-06
6.07073e-06
1.72084e-06
1.05785e-07
4.25233e-08
2.41001e-06
5.89971e-06
1.22169e-05
2.19523e-05
3.12351e-05
3.63638e-05
3.78764e-05
3.68953e-05
3.43122e-05
3.09346e-05
2.7407e-05
2.41322e-05
2.12795e-05
1.88628e-05
1.68265e-05
1.50997e-05
1.36193e-05
1.23365e-05
1.12264e-05
1.02985e-05
9.59324e-06
9.07897e-06
8.64587e-06
8.16399e-06
7.52867e-06
6.72398e-06
5.86031e-06
5.1388e-06
4.8049e-06
5.27514e-06
7.55771e-06
6.03594e-06
1.75034e-06
1.12188e-07
4.59913e-08
2.42626e-06
5.93394e-06
1.23219e-05
2.2193e-05
3.1524e-05
3.65591e-05
3.79172e-05
3.67769e-05
3.40744e-05
3.06394e-05
2.71097e-05
2.38632e-05
2.1045e-05
1.86542e-05
1.66298e-05
1.49011e-05
1.34077e-05
1.21046e-05
1.09726e-05
1.00272e-05
9.31606e-06
8.80773e-06
8.38872e-06
7.92611e-06
7.31517e-06
6.54454e-06
5.72973e-06
5.07222e-06
4.8187e-06
5.40683e-06
7.87072e-06
5.98732e-06
1.77641e-06
1.18423e-07
4.97895e-08
2.44607e-06
5.97981e-06
1.24581e-05
2.24788e-05
3.18261e-05
3.6734e-05
3.79347e-05
3.66599e-05
3.38778e-05
3.04247e-05
2.69203e-05
2.37158e-05
2.09352e-05
1.85669e-05
1.65474e-05
1.48073e-05
1.32893e-05
1.19527e-05
1.07831e-05
9.8012e-06
9.06192e-06
8.53946e-06
8.11978e-06
7.66979e-06
7.08605e-06
6.3589e-06
5.60257e-06
5.01386e-06
4.84042e-06
5.54323e-06
8.17382e-06
5.9439e-06
1.80087e-06
1.24495e-07
5.34611e-08
2.46373e-06
6.02268e-06
1.25865e-05
2.27428e-05
3.20988e-05
3.68871e-05
3.79409e-05
3.65416e-05
3.3689e-05
3.02257e-05
2.67529e-05
2.35953e-05
2.08566e-05
1.85152e-05
1.65045e-05
1.47559e-05
1.32147e-05
1.1844e-05
1.06343e-05
9.61181e-06
8.83827e-06
8.29429e-06
7.86647e-06
7.42373e-06
6.86592e-06
6.18492e-06
5.49084e-06
4.97313e-06
4.88047e-06
5.69897e-06
8.48314e-06
5.8964e-06
1.82317e-06
1.30366e-07
5.7424e-08
2.48451e-06
6.07557e-06
1.27423e-05
2.30487e-05
3.23912e-05
3.70373e-05
3.79451e-05
3.64412e-05
3.35462e-05
3.00971e-05
2.66708e-05
2.35661e-05
2.08697e-05
1.85525e-05
1.65464e-05
1.47836e-05
1.3212e-05
1.17988e-05
1.05387e-05
9.46247e-06
8.63841e-06
8.05854e-06
7.6121e-06
7.1714e-06
6.63982e-06
6.00877e-06
5.38095e-06
4.93644e-06
4.92516e-06
5.85902e-06
8.78336e-06
5.85608e-06
1.84448e-06
1.36047e-07
6.1283e-08
2.50391e-06
6.12708e-06
1.2894e-05
2.33399e-05
3.26636e-05
3.71768e-05
3.79499e-05
3.63511e-05
3.34204e-05
2.99892e-05
2.66116e-05
2.3562e-05
2.09113e-05
1.8623e-05
1.66263e-05
1.48533e-05
1.32536e-05
1.1798e-05
1.04852e-05
9.35065e-06
8.4693e-06
7.84611e-06
7.37424e-06
6.93067e-06
6.42316e-06
5.84213e-06
5.28142e-06
4.91085e-06
4.98208e-06
6.03354e-06
9.08364e-06
5.81677e-06
1.86446e-06
1.41503e-07
6.53829e-08
2.52571e-06
6.18633e-06
1.30673e-05
2.36641e-05
3.2954e-05
3.73221e-05
3.79656e-05
3.62883e-05
3.33407e-05
2.99413e-05
2.6619e-05
2.3626e-05
2.10203e-05
1.87594e-05
1.67706e-05
1.49852e-05
1.33544e-05
1.18513e-05
1.04791e-05
9.27697e-06
8.32594e-06
7.64832e-06
7.1428e-06
6.69165e-06
6.20677e-06
5.67615e-06
5.1832e-06
4.8869e-06
5.04105e-06
6.21053e-06
9.37252e-06
5.78453e-06
1.88376e-06
1.46743e-07
6.94011e-08
2.54661e-06
6.24531e-06
1.32402e-05
2.39817e-05
3.32344e-05
3.74662e-05
3.79901e-05
3.62414e-05
3.32801e-05
2.99129e-05
2.66456e-05
2.37106e-05
2.11532e-05
1.89251e-05
1.69499e-05
1.51579e-05
1.34998e-05
1.19503e-05
1.05163e-05
9.24211e-06
8.21472e-06
7.47544e-06
6.92986e-06
6.46631e-06
6.00095e-06
5.5189e-06
5.09256e-06
4.87016e-06
5.10822e-06
6.39809e-06
9.65651e-06
5.75576e-06
1.90225e-06
1.51742e-07
7.36112e-08
2.56919e-06
6.31006e-06
1.34303e-05
2.43264e-05
3.35328e-05
3.76234e-05
3.8034e-05
3.62258e-05
3.32615e-05
2.99321e-05
2.67214e-05
2.38437e-05
2.13342e-05
1.9139e-05
1.71785e-05
1.53811e-05
1.3696e-05
1.20986e-05
1.0599e-05
9.24633e-06
8.13342e-06
7.32336e-06
6.73057e-06
6.24964e-06
5.80057e-06
5.36481e-06
5.00327e-06
4.85352e-06
5.17509e-06
6.58522e-06
9.92578e-06
5.73292e-06
1.92018e-06
1.56509e-07
7.7754e-08
2.59093e-06
6.37472e-06
1.36225e-05
2.4672e-05
3.38313e-05
3.77884e-05
3.80929e-05
3.62281e-05
3.32598e-05
2.99658e-05
2.68105e-05
2.39916e-05
2.15338e-05
1.93775e-05
1.74389e-05
1.56429e-05
1.39361e-05
1.2293e-05
1.07267e-05
9.29162e-06
8.08756e-06
7.19968e-06
6.55341e-06
6.04993e-06
5.61289e-06
5.21979e-06
4.92021e-06
4.84158e-06
5.24708e-06
6.77949e-06
1.01875e-05
5.71497e-06
1.93766e-06
1.61028e-07
8.20441e-08
2.61356e-06
6.44318e-06
1.38284e-05
2.50425e-05
3.4152e-05
3.79754e-05
3.81776e-05
3.62603e-05
3.32902e-05
3.00322e-05
2.69315e-05
2.41709e-05
2.17655e-05
1.96498e-05
1.77361e-05
1.59454e-05
1.42203e-05
1.25337e-05
1.09e-05
9.37889e-06
8.07776e-06
7.10391e-06
6.39706e-06
5.86519e-06
5.43521e-06
5.0804e-06
4.83919e-06
4.82926e-06
5.31748e-06
6.97088e-06
1.04321e-05
5.70157e-06
1.95467e-06
1.65308e-07
8.62746e-08
2.63516e-06
6.51077e-06
1.40359e-05
2.54188e-05
3.44865e-05
3.8183e-05
3.82837e-05
3.63074e-05
3.33298e-05
3.01047e-05
2.70589e-05
2.43591e-05
2.20105e-05
1.99416e-05
1.80602e-05
1.62821e-05
1.45453e-05
1.28192e-05
1.11193e-05
9.51023e-06
8.10839e-06
7.04174e-06
6.2678e-06
5.70157e-06
5.27295e-06
4.95107e-06
4.76376e-06
4.81957e-06
5.38952e-06
7.16476e-06
1.06685e-05
5.69259e-06
1.97125e-06
1.69344e-07
9.06112e-08
2.65709e-06
6.58005e-06
1.42502e-05
2.5803e-05
3.48079e-05
3.83749e-05
3.83861e-05
3.63631e-05
3.33841e-05
3.01947e-05
2.72044e-05
2.45658e-05
2.22751e-05
2.02556e-05
1.84106e-05
1.66506e-05
1.49079e-05
1.31473e-05
1.13835e-05
9.68596e-06
8.18025e-06
7.01371e-06
6.16579e-06
5.5587e-06
5.12508e-06
4.83005e-06
4.69157e-06
4.80982e-06
5.46042e-06
7.35857e-06
1.08982e-05
5.68923e-06
1.98742e-06
1.73151e-07
9.48916e-08
2.67818e-06
6.64829e-06
1.44625e-05
2.61773e-05
3.51144e-05
3.85561e-05
3.84816e-05
3.64233e-05
3.34426e-05
3.02868e-05
2.73521e-05
2.47766e-05
2.25476e-05
2.0583e-05
1.87811e-05
1.70467e-05
1.53054e-05
1.3516e-05
1.16916e-05
9.90591e-06
8.29447e-06
7.02251e-06
6.09474e-06
5.44071e-06
4.9956e-06
4.7209e-06
4.62561e-06
4.80228e-06
5.53139e-06
7.55218e-06
1.11213e-05
5.69484e-06
2.00411e-06
1.76737e-07
9.92464e-08
2.6995e-06
6.71827e-06
1.46801e-05
2.65502e-05
3.54097e-05
3.87247e-05
3.85665e-05
3.64765e-05
3.35018e-05
3.03841e-05
2.75066e-05
2.49952e-05
2.28296e-05
2.09227e-05
1.91685e-05
1.74659e-05
1.57331e-05
1.39218e-05
1.20416e-05
1.01694e-05
8.45083e-06
7.0681e-06
6.05474e-06
5.34758e-06
4.88412e-06
4.6227e-06
4.56441e-06
4.79536e-06
5.60234e-06
7.75024e-06
1.13394e-05
5.70821e-06
2.02135e-06
1.80119e-07
1.03545e-07
2.71993e-06
6.78798e-06
1.49011e-05
2.69108e-05
3.56877e-05
3.88784e-05
3.86393e-05
3.6521e-05
3.3564e-05
3.04826e-05
2.76595e-05
2.52128e-05
2.31138e-05
2.12695e-05
1.95688e-05
1.79048e-05
1.61881e-05
1.43619e-05
1.24309e-05
1.04745e-05
8.64812e-06
7.15107e-06
6.0476e-06
5.28186e-06
4.79362e-06
4.53858e-06
4.51119e-06
4.79236e-06
5.67619e-06
7.95298e-06
1.15546e-05
5.72764e-06
2.03903e-06
1.83298e-07
1.07874e-07
2.73967e-06
6.85582e-06
1.51188e-05
2.72636e-05
3.59511e-05
3.9017e-05
3.86987e-05
3.65533e-05
3.36138e-05
3.05717e-05
2.7807e-05
2.54284e-05
2.33989e-05
2.16204e-05
1.99778e-05
1.83586e-05
1.66652e-05
1.48317e-05
1.28566e-05
1.08195e-05
8.88575e-06
7.27149e-06
6.0736e-06
5.24378e-06
4.72409e-06
4.4682e-06
4.46511e-06
4.79171e-06
5.75e-06
8.15516e-06
1.17651e-05
5.75238e-06
2.05702e-06
1.86287e-07
1.12147e-07
2.7588e-06
6.92277e-06
1.53342e-05
2.76056e-05
3.61989e-05
3.91414e-05
3.87453e-05
3.65741e-05
3.3654e-05
3.06539e-05
2.79491e-05
2.56398e-05
2.36816e-05
2.19723e-05
2.03924e-05
1.88238e-05
1.71608e-05
1.53275e-05
1.33145e-05
1.12009e-05
9.1612e-06
7.42866e-06
6.13337e-06
5.23493e-06
4.67779e-06
4.41425e-06
4.42906e-06
4.79623e-06
5.8263e-06
8.3588e-06
1.19719e-05
5.78125e-06
2.07518e-06
1.8909e-07
1.16429e-07
2.77746e-06
6.98867e-06
1.55476e-05
2.79392e-05
3.64317e-05
3.92504e-05
3.87771e-05
3.65808e-05
3.36814e-05
3.07265e-05
2.80827e-05
2.58433e-05
2.39581e-05
2.23207e-05
2.08078e-05
1.92955e-05
1.76698e-05
1.58445e-05
1.38011e-05
1.16163e-05
9.47296e-06
7.62172e-06
6.22626e-06
5.25495e-06
4.65457e-06
4.37658e-06
4.40259e-06
4.80487e-06
5.90305e-06
8.56067e-06
1.21743e-05
5.81385e-06
2.09344e-06
1.9172e-07
1.2065e-07
2.79559e-06
7.05356e-06
1.57579e-05
2.82611e-05
3.66483e-05
3.93435e-05
3.87929e-05
3.65709e-05
3.36926e-05
3.079e-05
2.82069e-05
2.60367e-05
2.42262e-05
2.26639e-05
2.1222e-05
1.97709e-05
1.81886e-05
1.63782e-05
1.43113e-05
1.20611e-05
9.81761e-06
7.84901e-06
6.35199e-06
5.30445e-06
4.65577e-06
4.35715e-06
4.38813e-06
4.82034e-06
5.98304e-06
8.76323e-06
1.23737e-05
5.84937e-06
2.11169e-06
1.94181e-07
1.24866e-07
2.81352e-06
7.11799e-06
1.59663e-05
2.85736e-05
3.68496e-05
3.94205e-05
3.87922e-05
3.65438e-05
3.36854e-05
3.08333e-05
2.83124e-05
2.62147e-05
2.44822e-05
2.29983e-05
2.1631e-05
2.02457e-05
1.87126e-05
1.6924e-05
1.4841e-05
1.25318e-05
1.01928e-05
8.10902e-06
6.50952e-06
5.38277e-06
4.68106e-06
4.35588e-06
4.38551e-06
4.84179e-06
6.06432e-06
8.96409e-06
1.25699e-05
5.8877e-06
2.12992e-06
1.96488e-07
1.29019e-07
2.83116e-06
7.1817e-06
1.61708e-05
2.88731e-05
3.70338e-05
3.94803e-05
3.87737e-05
3.64984e-05
3.36599e-05
3.08593e-05
2.84024e-05
2.63791e-05
2.47265e-05
2.33235e-05
2.20338e-05
2.07179e-05
1.92385e-05
1.74774e-05
1.53849e-05
1.30234e-05
1.05942e-05
8.39905e-06
6.69751e-06
5.48959e-06
4.73094e-06
4.37395e-06
4.39662e-06
4.8724e-06
6.15249e-06
9.16615e-06
1.27642e-05
5.92822e-06
2.14805e-06
1.98647e-07
1.33135e-07
2.84886e-06
7.24564e-06
1.63726e-05
2.91619e-05
3.72029e-05
3.95234e-05
3.87368e-05
3.64337e-05
3.36158e-05
3.08673e-05
2.84752e-05
2.65276e-05
2.4957e-05
2.3637e-05
2.24276e-05
2.11845e-05
1.97631e-05
1.80349e-05
1.59392e-05
1.35319e-05
1.10185e-05
8.71662e-06
6.91411e-06
5.62362e-06
4.80473e-06
4.41129e-06
4.42182e-06
4.91243e-06
6.24635e-06
9.36951e-06
1.29581e-05
5.97131e-06
2.16614e-06
2.00675e-07
1.37162e-07
2.86614e-06
7.30942e-06
1.65673e-05
2.94383e-05
3.73561e-05
3.9549e-05
3.86817e-05
3.63494e-05
3.35479e-05
3.08495e-05
2.85255e-05
2.6658e-05
2.51723e-05
2.39375e-05
2.28106e-05
2.16429e-05
2.02829e-05
1.8592e-05
1.64985e-05
1.40516e-05
1.14606e-05
9.05775e-06
7.15681e-06
5.78359e-06
4.90218e-06
4.46844e-06
4.46228e-06
4.96326e-06
6.34708e-06
9.57589e-06
1.31527e-05
6.01663e-06
2.18417e-06
2.02576e-07
1.4115e-07
2.88245e-06
7.37157e-06
1.67618e-05
2.97078e-05
3.74962e-05
3.95601e-05
3.86108e-05
3.62491e-05
3.34662e-05
3.08191e-05
2.85603e-05
2.67687e-05
2.53683e-05
2.42217e-05
2.31798e-05
2.20903e-05
2.0795e-05
1.91455e-05
1.70593e-05
1.45791e-05
1.19168e-05
9.41896e-06
7.42273e-06
5.96741e-06
5.02203e-06
4.54494e-06
4.51804e-06
5.02508e-06
6.45468e-06
9.7851e-06
1.33485e-05
6.06449e-06
2.20221e-06
2.04368e-07
1.45053e-07
2.89809e-06
7.43171e-06
1.69503e-05
2.99629e-05
3.76185e-05
3.95527e-05
3.85199e-05
3.61266e-05
3.33602e-05
3.0764e-05
2.85742e-05
2.68633e-05
2.55476e-05
2.44883e-05
2.35339e-05
2.25252e-05
2.1297e-05
1.96922e-05
1.76179e-05
1.51099e-05
1.23828e-05
9.79657e-06
7.70922e-06
6.17334e-06
5.16337e-06
4.64065e-06
4.58964e-06
5.09896e-06
6.57067e-06
9.99906e-06
1.35464e-05
6.1148e-06
2.22031e-06
2.06063e-07
1.489e-07
2.91324e-06
7.49085e-06
1.71372e-05
3.02097e-05
3.77271e-05
3.95296e-05
3.84121e-05
3.59871e-05
3.32377e-05
3.06924e-05
2.85712e-05
2.69407e-05
2.57116e-05
2.47397e-05
2.38711e-05
2.29443e-05
2.1786e-05
2.02289e-05
1.81706e-05
1.56402e-05
1.28548e-05
1.01869e-05
8.01332e-06
6.39915e-06
5.32467e-06
4.75471e-06
4.67681e-06
5.18501e-06
6.69535e-06
1.0218e-05
1.37473e-05
6.16778e-06
2.23853e-06
2.07676e-07
1.52649e-07
2.92742e-06
7.54738e-06
1.73176e-05
3.04421e-05
3.78183e-05
3.9488e-05
3.82841e-05
3.58257e-05
3.30922e-05
3.05979e-05
2.85467e-05
2.69982e-05
2.58572e-05
2.49749e-05
2.41933e-05
2.33471e-05
2.22597e-05
2.07531e-05
1.87142e-05
1.61665e-05
1.33292e-05
1.05866e-05
8.3324e-06
6.64296e-06
5.50475e-06
4.88664e-06
4.77975e-06
5.28409e-06
6.83019e-06
1.04439e-05
1.39523e-05
6.22356e-06
2.25696e-06
2.09223e-07
1.56337e-07
2.94121e-06
7.60298e-06
1.74958e-05
3.06653e-05
3.78954e-05
3.94304e-05
3.81388e-05
3.56466e-05
3.29292e-05
3.04861e-05
2.85054e-05
2.7039e-05
2.59858e-05
2.51929e-05
2.44989e-05
2.3734e-05
2.27158e-05
2.12606e-05
1.92446e-05
1.66845e-05
1.3802e-05
1.09922e-05
8.66363e-06
6.90255e-06
5.702e-06
5.03543e-06
4.89801e-06
5.39623e-06
6.97558e-06
1.06771e-05
1.4162e-05
6.28221e-06
2.27563e-06
2.10718e-07
1.59926e-07
2.95412e-06
7.65607e-06
1.76676e-05
3.08743e-05
3.79554e-05
3.93544e-05
3.79734e-05
3.54465e-05
3.27448e-05
3.03532e-05
2.84439e-05
2.70606e-05
2.60959e-05
2.53928e-05
2.47868e-05
2.41039e-05
2.31556e-05
2.17508e-05
1.97592e-05
1.7191e-05
1.42697e-05
1.14003e-05
9.00435e-06
7.1759e-06
5.91501e-06
5.2003e-06
5.03151e-06
5.52209e-06
7.13294e-06
1.09198e-05
1.43776e-05
6.34391e-06
2.29464e-06
2.12175e-07
1.63437e-07
2.96654e-06
7.70792e-06
1.78364e-05
3.10735e-05
3.80012e-05
3.92619e-05
3.77902e-05
3.52282e-05
3.25426e-05
3.0203e-05
2.83658e-05
2.70655e-05
2.61888e-05
2.55747e-05
2.50557e-05
2.44541e-05
2.35756e-05
2.22216e-05
2.02551e-05
1.76826e-05
1.47289e-05
1.18079e-05
9.35195e-06
7.46086e-06
6.14211e-06
5.38009e-06
5.1796e-06
5.66159e-06
7.30282e-06
1.11729e-05
1.45997e-05
6.40877e-06
2.31403e-06
2.13608e-07
1.66841e-07
2.97806e-06
7.75718e-06
1.79988e-05
3.12585e-05
3.80299e-05
3.91509e-05
3.75873e-05
3.499e-05
3.23211e-05
3.0034e-05
2.82699e-05
2.70532e-05
2.62643e-05
2.57387e-05
2.53058e-05
2.47843e-05
2.39746e-05
2.2671e-05
2.07303e-05
1.81567e-05
1.51769e-05
1.22126e-05
9.70408e-06
7.75549e-06
6.38188e-06
5.57393e-06
5.34201e-06
5.81507e-06
7.48622e-06
1.14378e-05
1.48285e-05
6.47673e-06
2.33386e-06
2.15029e-07
1.70161e-07
2.98909e-06
7.80515e-06
1.81579e-05
3.14334e-05
3.80441e-05
3.90233e-05
3.73664e-05
3.47339e-05
3.20824e-05
2.98489e-05
2.81586e-05
2.70255e-05
2.63238e-05
2.58854e-05
2.55368e-05
2.50934e-05
2.43504e-05
2.30962e-05
2.11818e-05
1.86098e-05
1.56118e-05
1.26129e-05
1.0059e-05
8.058e-06
6.63269e-06
5.78058e-06
5.51806e-06
5.98255e-06
7.68402e-06
1.1716e-05
1.5065e-05
6.54806e-06
2.35421e-06
2.16451e-07
1.73374e-07
2.99928e-06
7.85068e-06
1.83109e-05
3.15946e-05
3.80414e-05
3.8877e-05
3.7126e-05
3.44589e-05
3.18263e-05
2.96475e-05
2.80322e-05
2.69831e-05
2.6368e-05
2.60155e-05
2.57495e-05
2.53817e-05
2.47029e-05
2.34958e-05
2.16074e-05
1.90395e-05
1.60274e-05
1.30047e-05
1.04145e-05
8.36699e-06
6.89355e-06
5.99927e-06
5.70723e-06
6.16391e-06
7.89663e-06
1.20085e-05
1.53085e-05
6.62248e-06
2.37508e-06
2.17886e-07
1.76502e-07
3.00898e-06
7.89489e-06
1.84605e-05
3.17455e-05
3.8024e-05
3.87138e-05
3.68677e-05
3.41667e-05
3.15543e-05
2.94317e-05
2.78924e-05
2.69275e-05
2.63984e-05
2.61304e-05
2.59448e-05
2.56498e-05
2.50317e-05
2.38688e-05
2.20052e-05
1.94441e-05
1.64252e-05
1.33871e-05
1.07682e-05
8.6803e-06
7.1629e-06
6.22904e-06
5.90913e-06
6.35942e-06
8.1251e-06
1.23167e-05
1.55598e-05
6.70024e-06
2.39657e-06
2.19345e-07
1.7953e-07
3.01792e-06
7.93697e-06
1.86047e-05
3.18833e-05
3.79898e-05
3.85317e-05
3.65901e-05
3.38565e-05
3.12664e-05
2.92016e-05
2.77397e-05
2.68594e-05
2.64158e-05
2.62309e-05
2.61233e-05
2.58979e-05
2.53366e-05
2.42139e-05
2.2373e-05
1.98201e-05
1.6801e-05
1.37578e-05
1.11188e-05
8.99673e-06
7.43967e-06
6.46902e-06
6.12312e-06
6.56877e-06
8.36978e-06
1.26415e-05
1.58183e-05
6.78098e-06
2.41866e-06
2.20833e-07
1.82475e-07
3.02637e-06
7.97773e-06
1.87456e-05
3.20107e-05
3.79406e-05
3.83322e-05
3.62945e-05
3.35298e-05
3.09642e-05
2.89589e-05
2.75758e-05
2.67805e-05
2.64218e-05
2.63187e-05
2.62868e-05
2.61277e-05
2.56191e-05
2.45323e-05
2.2711e-05
2.01668e-05
1.71526e-05
1.41133e-05
1.14616e-05
9.31294e-06
7.72194e-06
6.71828e-06
6.34894e-06
6.79224e-06
8.63147e-06
1.2984e-05
1.60834e-05
6.86451e-06
2.44134e-06
2.22357e-07
1.85328e-07
3.03415e-06
8.01667e-06
1.88819e-05
3.21256e-05
3.78744e-05
3.81135e-05
3.59796e-05
3.3186e-05
3.06475e-05
2.8704e-05
2.74011e-05
2.66914e-05
2.64172e-05
2.63944e-05
2.6436e-05
2.63397e-05
2.58795e-05
2.4824e-05
2.30188e-05
2.0483e-05
1.7478e-05
1.4451e-05
1.17952e-05
9.62701e-06
8.00792e-06
6.97564e-06
6.5862e-06
7.03033e-06
8.91152e-06
1.33459e-05
1.63554e-05
6.95072e-06
2.46464e-06
2.2392e-07
1.881e-07
3.04145e-06
8.05435e-06
1.90149e-05
3.22297e-05
3.77927e-05
3.78769e-05
3.56471e-05
3.28268e-05
3.03182e-05
2.84386e-05
2.72173e-05
2.65935e-05
2.64034e-05
2.64597e-05
2.65724e-05
2.65357e-05
2.61195e-05
2.50905e-05
2.32977e-05
2.07692e-05
1.77764e-05
1.47687e-05
1.21162e-05
9.93585e-06
8.29508e-06
7.23918e-06
6.83331e-06
7.28158e-06
9.20937e-06
1.37269e-05
1.66323e-05
7.03895e-06
2.48846e-06
2.25521e-07
1.90787e-07
3.04815e-06
8.09042e-06
1.91437e-05
3.23216e-05
3.76939e-05
3.7621e-05
3.52958e-05
3.24519e-05
2.99764e-05
2.8163e-05
2.70248e-05
2.64875e-05
2.63808e-05
2.65149e-05
2.66966e-05
2.67163e-05
2.634e-05
2.53329e-05
2.35487e-05
2.10263e-05
1.80482e-05
1.50657e-05
1.24232e-05
1.02377e-05
8.58188e-06
7.50811e-06
7.09059e-06
7.54752e-06
9.52698e-06
1.41286e-05
1.69141e-05
7.12931e-06
2.51285e-06
2.27164e-07
1.93396e-07
3.05436e-06
8.12524e-06
1.92692e-05
3.24022e-05
3.7579e-05
3.73469e-05
3.49274e-05
3.2063e-05
2.9624e-05
2.7879e-05
2.68253e-05
2.63748e-05
2.63511e-05
2.65614e-05
2.68099e-05
2.68827e-05
2.65421e-05
2.55526e-05
2.37735e-05
2.1256e-05
1.82947e-05
1.53421e-05
1.27151e-05
1.05305e-05
8.86555e-06
7.77925e-06
7.35487e-06
7.82547e-06
9.86309e-06
1.45503e-05
1.71986e-05
7.2211e-06
2.53773e-06
2.2885e-07
1.95922e-07
3.06001e-06
8.15857e-06
1.93907e-05
3.24706e-05
3.74468e-05
3.70535e-05
3.45411e-05
3.16602e-05
2.92611e-05
2.7587e-05
2.66195e-05
2.62561e-05
2.63148e-05
2.66001e-05
2.6913e-05
2.70358e-05
2.6727e-05
2.5751e-05
2.3974e-05
2.14605e-05
1.85179e-05
1.55992e-05
1.29923e-05
1.08137e-05
9.14528e-06
8.05194e-06
7.62617e-06
8.11645e-06
1.02178e-05
1.49914e-05
1.74851e-05
7.31426e-06
2.5631e-06
2.30582e-07
1.98373e-07
3.06518e-06
8.19067e-06
1.95088e-05
3.25274e-05
3.7298e-05
3.67419e-05
3.41386e-05
3.12453e-05
2.889e-05
2.72892e-05
2.64092e-05
2.61332e-05
2.62736e-05
2.66321e-05
2.70068e-05
2.71763e-05
2.68954e-05
2.59291e-05
2.41516e-05
2.16419e-05
1.87198e-05
1.58382e-05
1.32552e-05
1.10871e-05
9.42002e-06
8.32492e-06
7.90347e-06
8.42056e-06
1.05909e-05
1.54506e-05
1.77718e-05
7.40813e-06
2.58885e-06
2.32358e-07
2.00743e-07
3.06979e-06
8.22135e-06
1.96232e-05
3.25721e-05
3.7132e-05
3.64113e-05
3.37194e-05
3.08184e-05
2.85111e-05
2.69864e-05
2.61953e-05
2.6007e-05
2.62281e-05
2.66583e-05
2.70924e-05
2.73052e-05
2.70484e-05
2.60884e-05
2.43086e-05
2.18029e-05
1.8904e-05
1.6062e-05
1.35056e-05
1.13514e-05
9.68981e-06
8.59782e-06
8.18637e-06
8.73672e-06
1.09819e-05
1.59266e-05
1.80583e-05
7.50273e-06
2.61499e-06
2.34185e-07
2.03039e-07
3.07394e-06
8.25086e-06
1.97345e-05
3.26054e-05
3.69496e-05
3.60629e-05
3.32851e-05
3.03813e-05
2.81263e-05
2.66802e-05
2.59794e-05
2.58789e-05
2.618e-05
2.66799e-05
2.71707e-05
2.74232e-05
2.71867e-05
2.62299e-05
2.44464e-05
2.19462e-05
1.90738e-05
1.62729e-05
1.37451e-05
1.16075e-05
9.95482e-06
8.87003e-06
8.4734e-06
9.06269e-06
1.13889e-05
1.64172e-05
1.83434e-05
7.59766e-06
2.64144e-06
2.36059e-07
2.05256e-07
3.07755e-06
8.27899e-06
1.98422e-05
3.26267e-05
3.675e-05
3.56957e-05
3.28352e-05
2.9934e-05
2.77358e-05
2.63713e-05
2.57623e-05
2.57498e-05
2.61301e-05
2.66981e-05
2.72428e-05
2.75315e-05
2.73115e-05
2.6355e-05
2.45675e-05
2.20755e-05
1.92342e-05
1.64744e-05
1.39757e-05
1.18563e-05
1.02153e-05
9.14134e-06
8.76423e-06
9.39842e-06
1.1811e-05
1.69206e-05
1.86257e-05
7.69246e-06
2.66809e-06
2.37979e-07
2.07402e-07
3.0807e-06
8.30599e-06
1.99469e-05
3.26366e-05
3.65337e-05
3.53104e-05
3.23708e-05
2.94778e-05
2.7341e-05
2.6061e-05
2.55453e-05
2.56212e-05
2.608e-05
2.67142e-05
2.73099e-05
2.76311e-05
2.74236e-05
2.64646e-05
2.46733e-05
2.21933e-05
1.93888e-05
1.66694e-05
1.41997e-05
1.20995e-05
1.04722e-05
9.41192e-06
9.05825e-06
9.74248e-06
1.22462e-05
1.74337e-05
1.89048e-05
7.78711e-06
2.69495e-06
2.3995e-07
2.09474e-07
3.08334e-06
8.33172e-06
2.00483e-05
3.26345e-05
3.62997e-05
3.49062e-05
3.18914e-05
2.90127e-05
2.69423e-05
2.57498e-05
2.53291e-05
2.5494e-05
2.60307e-05
2.67296e-05
2.73737e-05
2.77236e-05
2.75246e-05
2.65602e-05
2.47647e-05
2.23001e-05
1.95378e-05
1.68585e-05
1.44177e-05
1.23377e-05
1.07258e-05
9.68197e-06
9.35557e-06
1.00951e-05
1.26948e-05
1.79547e-05
1.91791e-05
7.88086e-06
2.72185e-06
2.41958e-07
2.11479e-07
3.08556e-06
8.35644e-06
2.01471e-05
3.26211e-05
3.60484e-05
3.44835e-05
3.13979e-05
2.85398e-05
2.65406e-05
2.54387e-05
2.51148e-05
2.53691e-05
2.59833e-05
2.67453e-05
2.74353e-05
2.78103e-05
2.76159e-05
2.6643e-05
2.48428e-05
2.23959e-05
1.96795e-05
1.70411e-05
1.463e-05
1.25714e-05
1.09765e-05
9.95145e-06
9.6556e-06
1.04551e-05
1.31552e-05
1.84824e-05
1.94478e-05
7.97312e-06
2.74866e-06
2.43992e-07
2.13415e-07
3.08731e-06
8.38002e-06
2.02429e-05
3.25954e-05
3.57787e-05
3.40416e-05
3.08902e-05
2.80593e-05
2.61365e-05
2.51284e-05
2.49029e-05
2.52472e-05
2.59385e-05
2.67625e-05
2.74959e-05
2.78929e-05
2.76991e-05
2.67147e-05
2.49086e-05
2.24805e-05
1.98125e-05
1.72158e-05
1.48358e-05
1.28003e-05
1.12247e-05
1.0221e-05
9.9592e-06
1.08233e-05
1.36277e-05
1.90165e-05
1.97106e-05
8.06404e-06
2.77535e-06
2.46061e-07
2.1529e-07
3.08866e-06
8.40271e-06
2.03363e-05
3.25579e-05
3.5491e-05
3.3581e-05
3.03694e-05
2.75723e-05
2.5731e-05
2.482e-05
2.46943e-05
2.51288e-05
2.58967e-05
2.67815e-05
2.75564e-05
2.79723e-05
2.77758e-05
2.6777e-05
2.49638e-05
2.25554e-05
1.99367e-05
1.73823e-05
1.50343e-05
1.30236e-05
1.14694e-05
1.04897e-05
1.02655e-05
1.1199e-05
1.41114e-05
1.95551e-05
1.9966e-05
8.15296e-06
2.80193e-06
2.48154e-07
2.17101e-07
3.08957e-06
8.4244e-06
2.04268e-05
3.25077e-05
3.51844e-05
3.31016e-05
2.98356e-05
2.70792e-05
2.53246e-05
2.45147e-05
2.44898e-05
2.5014e-05
2.58578e-05
2.68026e-05
2.76173e-05
2.80494e-05
2.78473e-05
2.68318e-05
2.5011e-05
2.2623e-05
2.00534e-05
1.75412e-05
1.5226e-05
1.32418e-05
1.17114e-05
1.07585e-05
1.05755e-05
1.15831e-05
1.46065e-05
2.0097e-05
2.0214e-05
8.23993e-06
2.82869e-06
2.50264e-07
2.18853e-07
3.0901e-06
8.44522e-06
2.05149e-05
3.2445e-05
3.48592e-05
3.26043e-05
2.92906e-05
2.65813e-05
2.49177e-05
2.42145e-05
2.42896e-05
2.49022e-05
2.58215e-05
2.68255e-05
2.76787e-05
2.81249e-05
2.79147e-05
2.68812e-05
2.5053e-05
2.26867e-05
2.0165e-05
1.76938e-05
1.54114e-05
1.34546e-05
1.19496e-05
1.10263e-05
1.08882e-05
1.19748e-05
1.51122e-05
2.06409e-05
2.04538e-05
8.32467e-06
2.8553e-06
2.52379e-07
2.20541e-07
3.0902e-06
8.46501e-06
2.06e-05
3.2369e-05
3.45149e-05
3.20895e-05
2.87353e-05
2.60797e-05
2.45101e-05
2.3914e-05
2.40901e-05
2.47921e-05
2.57874e-05
2.68505e-05
2.7741e-05
2.81994e-05
2.79794e-05
2.69272e-05
2.50932e-05
2.27512e-05
2.02744e-05
1.78419e-05
1.55917e-05
1.3663e-05
1.21853e-05
1.1294e-05
1.12042e-05
1.23741e-05
1.56276e-05
2.11844e-05
2.06846e-05
8.40681e-06
2.88155e-06
2.54491e-07
2.22164e-07
3.08988e-06
8.48379e-06
2.06819e-05
3.22797e-05
3.41519e-05
3.15581e-05
2.81713e-05
2.55762e-05
2.41045e-05
2.36173e-05
2.38946e-05
2.46856e-05
2.57562e-05
2.68774e-05
2.78038e-05
2.82727e-05
2.80415e-05
2.69713e-05
2.51346e-05
2.28206e-05
2.03846e-05
1.79873e-05
1.57678e-05
1.38674e-05
1.24184e-05
1.15616e-05
1.15237e-05
1.27814e-05
1.61524e-05
2.17265e-05
2.09066e-05
8.48637e-06
2.90739e-06
2.56595e-07
2.23716e-07
3.08909e-06
8.5013e-06
2.07601e-05
3.21763e-05
3.37698e-05
3.10106e-05
2.75995e-05
2.50714e-05
2.37004e-05
2.33229e-05
2.37013e-05
2.45813e-05
2.57271e-05
2.69059e-05
2.78672e-05
2.83453e-05
2.81021e-05
2.70147e-05
2.51786e-05
2.28962e-05
2.04971e-05
1.81316e-05
1.59408e-05
1.40684e-05
1.26487e-05
1.18277e-05
1.18445e-05
1.31948e-05
1.66846e-05
2.22649e-05
2.11188e-05
8.56306e-06
2.93272e-06
2.58686e-07
2.25197e-07
3.08782e-06
8.51751e-06
2.08345e-05
3.20589e-05
3.33686e-05
3.04477e-05
2.70213e-05
2.45668e-05
2.32998e-05
2.3033e-05
2.35127e-05
2.4481e-05
2.5701e-05
2.69364e-05
2.79313e-05
2.84172e-05
2.81611e-05
2.70575e-05
2.52246e-05
2.29764e-05
2.06114e-05
1.82749e-05
1.61114e-05
1.42667e-05
1.28777e-05
1.20962e-05
1.2173e-05
1.36161e-05
1.7224e-05
2.27985e-05
2.1322e-05
8.63709e-06
2.95758e-06
2.60762e-07
2.26604e-07
3.08605e-06