/*--------------------------------*- C++ -*----------------------------------*\
| =========                 |                                                 |
| \\      /  F ield         | OpenFOAM: The Open Source CFD Toolbox           |
|  \\    /   O peration     | Version:  v2006                                 |
|   \\  /    A nd           | Website:  www.openfoam.com                      |
|    \\/     M anipulation  |                                                 |
\*---------------------------------------------------------------------------*/
FoamFile
{
    version     2.0;
    format      ascii;
    class       volScalarField;
    location    "60";
    object      k;
}
// * * * * * * * * * * * * * * * * * * * * * * * * * * * * * * * * * * * * * //

dimensions      [0 2 -2 0 0 0 0];


internalField   nonuniform List<scalar> 
78750
(
3.64079e-07
2.63645e-06
4.99506e-06
7.37614e-06
9.72134e-06
1.19919e-05
1.41585e-05
1.61992e-05
1.80967e-05
1.98364e-05
2.14059e-05
2.27946e-05
2.39933e-05
2.4994e-05
2.57895e-05
2.63731e-05
2.67392e-05
2.68823e-05
2.67987e-05
2.6489e-05
2.59393e-05
2.515e-05
2.41279e-05
2.28822e-05
2.1433e-05
1.98107e-05
1.80553e-05
1.62118e-05
1.43185e-05
1.23919e-05
1.04204e-05
8.37098e-06
6.20607e-06
3.91395e-06
1.66885e-06
1.43505e-06
1.11817e-05
2.01776e-05
2.83289e-05
3.56721e-05
4.22291e-05
4.80022e-05
5.30202e-05
5.73144e-05
6.09171e-05
6.38613e-05
6.61793e-05
6.7903e-05
6.90629e-05
6.96879e-05
6.98052e-05
6.94393e-05
6.86127e-05
6.73451e-05
6.5653e-05
6.35373e-05
6.10067e-05
5.80684e-05
5.4729e-05
5.10014e-05
4.69127e-05
4.251e-05
3.78634e-05
3.30754e-05
2.82344e-05
2.33547e-05
1.84979e-05
1.39968e-05
1.04271e-05
8.48273e-06
2.47444e-06
1.74378e-05
3.12775e-05
4.35213e-05
5.39179e-05
6.25604e-05
6.9736e-05
7.56509e-05
8.03999e-05
8.40731e-05
8.67562e-05
8.85307e-05
8.94747e-05
8.96625e-05
8.91654e-05
8.80498e-05
8.63803e-05
8.422e-05
8.16305e-05
7.86713e-05
7.53941e-05
7.1832e-05
6.79945e-05
6.38638e-05
5.94065e-05
5.4594e-05
4.94285e-05
4.39747e-05
3.83538e-05
3.26609e-05
2.70149e-05
2.17276e-05
1.7388e-05
1.45074e-05
1.37828e-05
3.7472e-06
2.39491e-05
4.23922e-05
5.82623e-05
7.11182e-05
8.12114e-05
8.91735e-05
9.54688e-05
0.000100302
0.000103811
0.000106118
0.000107339
0.000107579
0.000106938
0.000105518
0.000103409
0.000100682
9.74133e-05
9.36916e-05
8.96139e-05
8.52841e-05
8.07913e-05
7.61785e-05
7.14198e-05
6.64409e-05
6.11644e-05
5.55515e-05
4.96125e-05
4.33942e-05
3.69939e-05
3.06689e-05
2.49776e-05
2.07287e-05
1.83139e-05
1.82851e-05
5.06915e-06
2.92086e-05
5.10564e-05
6.94907e-05
8.39346e-05
9.48369e-05
0.000103076
0.000109338
0.000113952
0.000117089
0.000118905
0.000119542
0.000119136
0.000117788
0.000115576
0.000112578
0.000108881
0.000104588
9.98203e-05
9.47285e-05
8.94951e-05
8.43094e-05
7.92886e-05
7.44159e-05
6.95611e-05
6.4548e-05
5.92252e-05
5.35008e-05
4.73439e-05
4.08304e-05
3.42958e-05
2.84724e-05
2.43039e-05
2.21085e-05
2.23049e-05
6.56418e-06
3.45586e-05
5.97134e-05
8.05869e-05
9.64853e-05
0.000108097
0.000116604
0.000122891
0.000127363
0.000130215
0.000131623
0.000131753
0.000130721
0.000128603
0.000125475
0.000121429
0.000116579
0.000111067
0.000105064
9.87777e-05
9.24676e-05
8.64282e-05
8.08755e-05
7.58275e-05
7.11275e-05
6.65217e-05
6.17384e-05
5.6552e-05
5.08195e-05
4.45575e-05
3.81155e-05
3.23179e-05
2.81653e-05
2.5917e-05
2.58627e-05
8.07353e-06
3.94954e-05
6.74948e-05
9.03597e-05
0.000107356
0.000119451
0.00012812
0.000134391
0.000138714
0.000141303
0.000142357
0.000142024
0.00014038
0.000137483
0.000133412
0.000128278
0.000122229
0.00011545
0.000108165
0.000100648
9.32441e-05
8.63615e-05
8.03e-05
7.5095e-05
7.05868e-05
6.64919e-05
6.24608e-05
5.81432e-05
5.32587e-05
4.77087e-05
4.17747e-05
3.62767e-05
3.2182e-05
2.97229e-05
2.91193e-05
9.57621e-06
4.41366e-05
7.47766e-05
9.95575e-05
0.000117701
0.000130404
0.000139344
0.000145689
0.00014996
0.0001524
0.000153214
0.000152501
0.000150312
0.000146705
0.000141773
0.000135652
0.000128527
0.000120625
0.00011221
0.000103596
9.5176e-05
8.74287e-05
8.07148e-05
7.50844e-05
7.04037e-05
6.64252e-05
6.28094e-05
5.91627e-05
5.51083e-05
5.0415e-05
4.52154e-05
4.02028e-05
3.62278e-05
3.34789e-05
3.21572e-05
1.10223e-05
4.85109e-05
8.15665e-05
0.00010804
0.000127143
0.00014032
0.000149487
0.00015587
0.000160047
0.00016232
0.000162849
0.000161701
0.000158917
0.000154562
0.000148747
0.000141642
0.000133471
0.000124504
0.000115052
0.00010548
9.62489e-05
8.79111e-05
8.0814e-05
7.49531e-05
7.01874e-05
6.63006e-05
6.29978e-05
5.99075e-05
5.66227e-05
5.28135e-05
4.84467e-05
4.4026e-05
4.02244e-05
3.71793e-05
3.51348e-05
1.24652e-05
5.27408e-05
8.81063e-05
0.000116241
0.000136342
0.000150055
0.000159507
0.000166007
0.000170187
0.00017235
0.000172633
0.000171095
0.000167774
0.000162742
0.000156132
0.000148145
0.000139042
0.000129128
0.000118748
0.000108305
9.8307e-05
8.93676e-05
8.18346e-05
7.5658e-05
7.06827e-05
6.67147e-05
6.35095e-05
6.07505e-05
5.80516e-05
5.50271e-05
5.1484e-05
4.76947e-05
4.41202e-05
4.08227e-05
3.81028e-05
1.38512e-05
5.66959e-05
9.4185e-05
0.000123823
0.000144803
0.000158974
0.000168654
0.000175241
0.000179392
0.000181409
0.000181418
0.000179466
0.00017559
0.000169872
0.00016247
0.000153618
0.000143614
0.000132801
0.000121566
0.000110362
9.97604e-05
9.04434e-05
8.27013e-05
7.64093e-05
7.13779e-05
6.74148e-05
6.43127e-05
6.18156e-05
5.95881e-05
5.7233e-05
5.44358e-05
5.12474e-05
4.79119e-05
4.44014e-05
4.1078e-05
1.53232e-05
6.0781e-05
0.000100398
0.000131525
0.000153373
0.000168003
0.00017792
0.000184606
0.00018874
0.000190623
0.000190373
0.000188027
0.000183624
0.000177258
0.000169112
0.000159449
0.000148599
0.000136938
0.000124886
0.000112934
0.000101707
9.19557e-05
8.39545e-05
7.75177e-05
7.24161e-05
6.84439e-05
6.5411e-05
6.31074e-05
6.12506e-05
5.94549e-05
5.73162e-05
5.46832e-05
5.15931e-05
4.79117e-05
4.40415e-05
1.67377e-05
6.45329e-05
0.000106063
0.000138527
0.000161153
0.000176199
0.000186335
0.000193115
0.000197235
0.000198989
0.000198487
0.000195756
0.000190839
0.000183845
0.00017498
0.000164537
0.000152877
0.000140412
0.000127594
0.000114965
0.000103208
9.31513e-05
8.50198e-05
7.85611e-05
7.35026e-05
6.96165e-05
6.67176e-05
6.46275e-05
6.31082e-05
6.17933e-05
6.02175e-05
5.80638e-05
5.51894e-05
5.13479e-05
4.69686e-05
1.82893e-05
6.85507e-05
0.000112055
0.000145851
0.000169218
0.000184647
0.000194983
0.000201843
0.000205938
0.000207557
0.000206799
0.000203689
0.000198272
0.000190674
0.000181119
0.000169928
0.000157489
0.000144239
0.000130661
0.000117333
0.000104993
9.45476e-05
8.62229e-05
7.971e-05
7.46902e-05
7.0906e-05
6.8163e-05
6.62967e-05
6.50972e-05
6.42131e-05
6.3131e-05
6.13951e-05
5.87098e-05
5.47139e-05
4.98458e-05
1.97816e-05
7.22233e-05
0.000117481
0.000152469
0.000176512
0.000192307
0.000202846
0.000209802
0.000213893
0.000215401
0.000214415
0.000210956
0.000205075
0.000196911
0.000186712
0.00017482
0.000161648
0.00014766
0.000133364
0.000119383
0.000106509
9.5733e-05
8.72718e-05
8.07635e-05
7.58457e-05
7.22293e-05
6.97046e-05
6.81083e-05
6.72428e-05
6.67602e-05
6.61065e-05
6.47163e-05
6.21733e-05
5.80044e-05
5.26517e-05
2.14162e-05
7.6176e-05
0.000123261
0.000159441
0.000184123
0.000200248
0.000210968
0.000218004
0.000222078
0.000223467
0.00022225
0.000218446
0.000212113
0.000203407
0.000192591
0.000180027
0.000166146
0.000151433
0.000136415
0.00012175
0.000108277
9.70719e-05
8.83969e-05
8.18456e-05
7.70118e-05
7.3571e-05
7.12897e-05
6.99929e-05
6.94788e-05
6.93887e-05
6.91251e-05
6.803e-05
6.55919e-05
6.12304e-05
5.53873e-05
2.29963e-05
7.98188e-05
0.000128532
0.000165785
0.000191058
0.000207508
0.000218422
0.00022556
0.000229645
0.000230945
0.00022953
0.000225419
0.000218679
0.000209478
0.000198098
0.000184915
0.000170379
0.000154988
0.000139289
0.000123972
0.000109922
9.83001e-05
8.94225e-05
8.28455e-05
7.81236e-05
7.48975e-05
7.2906e-05
7.19532e-05
7.18185e-05
7.21176e-05
7.22061e-05
7.1351e-05
6.89709e-05
6.43841e-05
5.8036e-05
2.4702e-05
8.37004e-05
0.000134106
0.000172437
0.000198273
0.000215024
0.000226116
0.000233345
0.000237434
0.00023864
0.000237029
0.000232619
0.000225488
0.000215817
0.0002039
0.000190129
0.000174959
0.000158899
0.000142516
0.000126517
0.000111827
9.96822e-05
9.05132e-05
8.38495e-05
7.92084e-05
7.6194e-05
7.45115e-05
7.39337e-05
7.42063e-05
7.49042e-05
7.5327e-05
7.46755e-05
7.23172e-05
6.7475e-05
6.06017e-05
2.63631e-05
8.73251e-05
0.000139258
0.000178568
0.000204934
0.000221987
0.000233274
0.000240618
0.000244735
0.000245877
0.000244101
0.00023943
0.00023195
0.000221857
0.000209458
0.000195153
0.000179402
0.000162722
0.000145694
0.000129041
0.000113719
0.000101036
9.15556e-05
8.47921e-05
8.02329e-05
7.74477e-05
7.61058e-05
7.59402e-05
7.66508e-05
7.77571e-05
7.84949e-05
7.80086e-05
7.56309e-05
7.04952e-05
6.30698e-05
2.8128e-05
9.11337e-05
0.000144642
0.000184938
0.000211819
0.000229164
0.00024064
0.000248093
0.000252236
0.000253311
0.000251373
0.000246451
0.000238641
0.000228153
0.000215302
0.000200493
0.000184187
0.000166904
0.00014923
0.000131901
0.000115891
0.000102566
9.26764e-05
8.57392e-05
8.12166e-05
7.8645e-05
7.7653e-05
7.7925e-05
7.91014e-05
8.06316e-05
8.16781e-05
8.13333e-05
7.89073e-05
7.34475e-05
6.54434e-05
2.98578e-05
9.47327e-05
0.000149682
0.000190891
0.000218271
0.000235916
0.000247599
0.000255182
0.000259369
0.000260398
0.000258324
0.000253182
0.000245082
0.000234245
0.000220996
0.000205738
0.000188935
0.000171104
0.000152826
0.000134845
0.000118151
0.000104153
9.38114e-05
8.66611e-05
8.21507e-05
7.97882e-05
7.9161e-05
7.98979e-05
8.15683e-05
8.35384e-05
8.48875e-05
8.46596e-05
8.21509e-05
7.63276e-05
6.77109e-05
3.16705e-05
9.84616e-05
0.000154885
0.000197021
0.000224901
0.00024285
0.000254743
0.000262451
0.000266675
0.000267652
0.000265441
0.000260088
0.000251718
0.000240561
0.000226946
0.000211277
0.000194012
0.000175658
0.000156788
0.000138144
0.000120726
0.000105967
9.50719e-05
8.76221e-05
8.30614e-05
8.08741e-05
8.06049e-05
8.18193e-05
8.40038e-05
8.64269e-05
8.8076e-05
8.79505e-05
8.53411e-05
7.91311e-05
6.98757e-05
3.34542e-05
0.000102011
0.0001598
0.000202816
0.000231202
0.000249483
0.000261606
0.000269449
0.000273713
0.000274643
0.000272309
0.000266771
0.000258167
0.000246736
0.000232811
0.00021679
0.000199125
0.000180308
0.000160895
0.000141621
0.000123485
0.000107941
9.64331e-05
8.86222e-05
8.39613e-05
8.19203e-05
8.20025e-05
8.37059e-05
8.64236e-05
8.93161e-05
9.12696e-05
9.12364e-05
8.8497e-05
8.18613e-05
7.19312e-05
3.53016e-05
0.000105635
0.000164805
0.000208723
0.000237649
0.000256298
0.000268666
0.000276622
0.000280893
0.000281752
0.000279287
0.000273574
0.000264758
0.000253086
0.000238888
0.000222559
0.000204536
0.000185296
0.000165369
0.000145476
0.000126606
0.000110224
9.80033e-05
8.97333e-05
8.48899e-05
8.29384e-05
8.33443e-05
8.55325e-05
8.87925e-05
9.21619e-05
9.44138e-05
9.44553e-05
9.15825e-05
8.45082e-05
7.38808e-05
3.71234e-05
0.000109092
0.000169544
0.000214333
0.000243842
0.000262961
0.000275602
0.000283634
0.000287857
0.00028863
0.000286045
0.000280183
0.000271197
0.000259333
0.000244919
0.000228342
0.000210026
0.000190425
0.000170043
0.000149578
0.000130003
0.000112783
9.97871e-05
9.09811e-05
8.58812e-05
8.39616e-05
8.46567e-05
8.73168e-05
9.1119e-05
9.49678e-05
9.75217e-05
9.76597e-05
9.46162e-05
8.70733e-05
7.57223e-05
3.89911e-05
0.000112578
0.000174296
0.000219948
0.000250067
0.000269557
0.000282451
0.000290631
0.000294842
0.000295531
0.000292839
0.00028685
0.00027772
0.000265699
0.00025111
0.000234331
0.000215768
0.000195854
0.000175063
0.000154062
0.000133799
0.000115728
0.000101875
9.24365e-05
8.69847e-05
8.50178e-05
8.59485e-05
8.90542e-05
9.33943e-05
9.77336e-05
0.00010061
0.000100873
9.75886e-05
8.95515e-05
7.74616e-05
4.08347e-05
0.000115915
0.000178806
0.000225266
0.000255973
0.000275833
0.000288999
0.000297358
0.000301635
0.00030223
0.000299441
0.00029335
0.000284115
0.000271981
0.000257268
0.000240343
0.000221595
0.000201433
0.000180296
0.000158819
0.000137914
0.00011902
0.000104268
9.4127e-05
8.82412e-05
8.61492e-05
8.72558e-05
9.07697e-05
9.56284e-05
0.000100447
0.000103641
0.000104068
0.000100589
9.19816e-05
7.91029e-05
4.27105e-05
0.000119257
0.000183307
0.000230563
0.000261811
0.000282011
0.000295434
0.000303974
0.000308335
0.000308878
0.000306019
0.000299852
0.000290539
0.000278327
0.000263531
0.000246504
0.00022762
0.000207261
0.000185833
0.00016393
0.000142425
0.000122726
0.000107028
9.61106e-05
8.97e-05
8.73913e-05
8.85972e-05
9.24679e-05
9.78224e-05
0.000103133
0.000106717
0.000107266
0.000103585
9.43654e-05
8.06528e-05
4.45621e-05
0.000122459
0.000187602
0.000235676
0.000267363
0.000287877
0.000301566
0.000310315
0.000314809
0.000315391
0.000312439
0.000306202
0.000296838
0.000284588
0.000269754
0.000252678
0.000233714
0.000213219
0.000191563
0.000169301
0.000147256
0.000126796
0.000110144
9.84082e-05
9.14007e-05
8.87916e-05
9.002e-05
9.4192e-05
0.000100015
0.000105819
0.000109815
0.00011047
0.000106568
9.6702e-05
8.21125e-05
4.64274e-05
0.00012561
0.000191789
0.000240638
0.000272758
0.000293588
0.000307543
0.000316499
0.000321126
0.000321752
0.00031874
0.000312476
0.000303104
0.000290855
0.000276025
0.000258943
0.000239945
0.000219365
0.000197539
0.000174976
0.000152448
0.00013127
0.000113663
0.000101069
9.33915e-05
9.03897e-05
9.155e-05
9.59523e-05
0.000102203
0.000108488
0.000112897
0.000113653
0.00010952
9.89857e-05
8.34871e-05
4.82681e-05
0.00012864
0.000195781
0.000245357
0.000277882
0.00029902
0.000313245
0.000322424
0.000327209
0.000327911
0.000324874
0.000318607
0.00030925
0.000297033
0.000282241
0.000265194
0.000246212
0.000225602
0.000203666
0.00018087
0.000157927
0.000136095
0.000117568
0.000104106
9.57091e-05
9.22356e-05
9.324e-05
9.77968e-05
0.000104423
0.000111163
0.000115969
0.000116815
0.000112438
0.000101214
8.47786e-05
5.01132e-05
0.000131615
0.000199671
0.000249937
0.000282847
0.000304281
0.000318772
0.000328174
0.000333127
0.000333927
0.000330897
0.000324643
0.000315323
0.000303163
0.000288445
0.000271473
0.000252548
0.000231957
0.000209967
0.000187
0.00016371
0.000141285
0.000121878
0.000107547
9.83876e-05
9.43644e-05
9.51181e-05
9.97408e-05
0.000106676
0.000113831
0.000119012
0.000119938
0.000115309
0.000103384
8.59924e-05
5.19322e-05
0.00013448
0.000203381
0.000254288
0.000287556
0.000309277
0.000324031
0.000333662
0.000338797
0.000339728
0.000336773
0.000330522
0.000321248
0.000309172
0.00029456
0.0002777
0.000258877
0.000238352
0.000216363
0.000193289
0.000169725
0.000146786
0.000126566
0.000111391
0.00010145
9.6816e-05
9.72317e-05
0.000101831
0.000109003
0.000116522
0.000122042
0.000123026
0.000118132
0.000105494
8.7131e-05
5.37492e-05
0.000137293
0.000206996
0.000258505
0.000292106
0.000314098
0.000329105
0.000338958
0.000344271
0.000345328
0.00034245
0.00033623
0.000327039
0.000315082
0.000300611
0.000283899
0.000265215
0.0002448
0.000222861
0.000199738
0.000175969
0.000152593
0.000131635
0.000115649
0.000104918
9.96181e-05
9.96085e-05
0.000104085
0.000111404
0.000119218
0.000125041
0.000126069
0.000120902
0.000107544
8.82003e-05
5.55391e-05
0.000140009
0.000210458
0.000262513
0.000296417
0.000318665
0.00033392
0.000343997
0.000349497
0.000350697
0.000347917
0.000341751
0.000332666
0.000320851
0.000306546
0.000290012
0.000271501
0.000251234
0.000229392
0.000206277
0.000182374
0.000158646
0.000137043
0.000120304
0.000108796
0.000102794
0.000102283
0.000106543
0.000113929
0.000122005
0.000128039
0.000129071
0.000123617
0.000109533
8.92034e-05
5.73132e-05
0.000142678
0.000213848
0.000266395
0.000300567
0.000323051
0.00033854
0.000348832
0.000354515
0.000355861
0.000353185
0.000347092
0.000338134
0.000326486
0.000312375
0.000296047
0.00027774
0.000257656
0.000235951
0.000212896
0.000188923
0.000164925
0.000142773
0.000125344
0.000113084
0.000106358
0.000105279
0.000109234
0.0001166
0.00012487
0.000131046
0.000132042
0.000126282
0.000111466
9.01473e-05
5.90492e-05
0.000145252
0.000217142
0.000270085
0.000304485
0.000327187
0.000342903
0.000353408
0.000359274
0.000360768
0.000358214
0.000352219
0.00034341
0.00033195
0.000318056
0.000301959
0.000283883
0.000264013
0.000242483
0.000219534
0.000195552
0.000171366
0.000148768
0.00013073
0.000117765
0.000110314
0.000108617
0.000112183
0.000119438
0.00012782
0.000134067
0.000134985
0.000128897
0.000113343
9.10348e-05
6.07683e-05
0.00014774
0.000220303
0.000273605
0.000308218
0.000331132
0.00034707
0.000357787
0.000363837
0.000365483
0.00036305
0.000357154
0.000348506
0.000337258
0.000323602
0.000307759
0.000289938
0.00027031
0.000248987
0.000226185
0.000202249
0.000177947
0.000155
0.000136434
0.000122819
0.000114657
0.000112306
0.000115408
0.000122458
0.00013086
0.000137111
0.000137907
0.00013147
0.000115172
9.18733e-05
6.24509e-05
0.000150123
0.000223298
0.000276921
0.000311726
0.000334836
0.000350988
0.000361909
0.000368142
0.000369944
0.000367644
0.000361871
0.000353396
0.000342364
0.000328966
0.000313402
0.000295861
0.0002765
0.000255415
0.000232798
0.000208958
0.000184611
0.00016141
0.000142409
0.000128214
0.000119371
0.000116347
0.00011892
0.000125675
0.000134004
0.000140186
0.000140816
0.000134006
0.000116957
9.26676e-05
6.41097e-05
0.000152433
0.000226171
0.000280077
0.000315053
0.000338348
0.000354704
0.000365824
0.000372235
0.000374191
0.000372028
0.000366387
0.000358101
0.000347302
0.000334167
0.000318891
0.000301653
0.000282582
0.000261761
0.000239362
0.000215663
0.000191333
0.000167966
0.000148621
0.000133919
0.000124437
0.000120735
0.000122726
0.0001291
0.000137262
0.0001433
0.000143718
0.000136512
0.000118704
9.34257e-05
6.57263e-05
0.000154625
0.000228871
0.000283029
0.000318158
0.000341626
0.000358177
0.000369488
0.000376073
0.000378183
0.000376163
0.000370666
0.000362582
0.000352029
0.000339173
0.000324197
0.000307269
0.000288515
0.000267983
0.000245833
0.000222317
0.000198064
0.000174617
0.000155024
0.000139897
0.000129828
0.000125458
0.000126827
0.000132742
0.000140648
0.000146468
0.000146626
0.000138998
0.000120421
9.41537e-05
6.73167e-05
0.000156745
0.000231455
0.000285829
0.000321088
0.000344714
0.000361448
0.000372941
0.000379692
0.000381952
0.000380074
0.00037473
0.000366855
0.000356557
0.000343992
0.000329328
0.000312722
0.000294289
0.000274072
0.000252198
0.000228902
0.000204779
0.000181329
0.000161582
0.000146113
0.000135517
0.000130498
0.000131217
0.000136606
0.000144168
0.000149695
0.000149546
0.000141469
0.000122116
9.48585e-05
6.88644e-05
0.000158753
0.000233874
0.000288432
0.000323805
0.000347576
0.000364483
0.000376149
0.00038306
0.000385467
0.000383732
0.000378549
0.000370891
0.000360858
0.000348593
0.000334254
0.000317984
0.000299886
0.000279992
0.000258423
0.00023538
0.000211437
0.000188061
0.000168253
0.000152528
0.000141471
0.000135836
0.000135892
0.000140697
0.000147836
0.000152998
0.000152492
0.000143937
0.000123795
9.55462e-05
7.03788e-05
0.000160683
0.000236173
0.000290884
0.000326349
0.000350251
0.000367317
0.000379145
0.000386207
0.000388753
0.00038716
0.000382141
0.000374705
0.00036494
0.000352981
0.000338974
0.00032305
0.0003053
0.000285744
0.000264493
0.000241736
0.000218019
0.000194786
0.000175007
0.000159108
0.00014766
0.000141447
0.000140835
0.000145012
0.000151655
0.000156384
0.000155474
0.000146412
0.000125468
9.6223e-05
7.18471e-05
0.000162502
0.000238313
0.000293145
0.000328686
0.000352706
0.000369922
0.000381903
0.000389109
0.000391789
0.000390336
0.000385488
0.000378277
0.000368784
0.000357136
0.000343467
0.000327897
0.000310506
0.000291302
0.000270388
0.000247945
0.000224499
0.000201478
0.00018181
0.00016582
0.00015405
0.000147306
0.000146037
0.00014955
0.000155633
0.000159863
0.000158502
0.000148903
0.000127141
9.68948e-05
7.32792e-05
0.000164243
0.000240335
0.000295259
0.000330855
0.000354979
0.00037233
0.000384453
0.000391792
0.000394599
0.000393282
0.000388606
0.000381621
0.000372401
0.000361063
0.000347733
0.00033252
0.000315495
0.000296655
0.000276094
0.000253989
0.000230869
0.000208126
0.000188645
0.000172635
0.000160611
0.000153387
0.000151476
0.000154304
0.000159775
0.000163447
0.000161589
0.000151421
0.000128824
9.75671e-05
7.46656e-05
0.00016588
0.000242205
0.000297191
0.000332826
0.00035704
0.000374518
0.000386773
0.000394236
0.000397164
0.000395982
0.000391482
0.000384726
0.000375779
0.000364751
0.00035176
0.000336907
0.00032025
0.000301782
0.000281589
0.000259843
0.000237071
0.000214697
0.000195483
0.00017953
0.000167319
0.000159665
0.000157135
0.000159262
0.000164077
0.000167137
0.000164741
0.000153974
0.000130523
9.82454e-05
7.60152e-05
0.000167439
0.000243961
0.000298981
0.000334635
0.000358925
0.000376515
0.000388889
0.000396467
0.000399508
0.000398456
0.000394134
0.000387604
0.000378929
0.000368209
0.000355553
0.000341056
0.00032477
0.000306678
0.000286866
0.000265505
0.000243132
0.00022119
0.000202305
0.000186477
0.000174146
0.000166117
0.000163
0.000164423
0.000168545
0.000170947
0.000167972
0.000156574
0.000132246
9.89344e-05
7.73219e-05
0.000168901
0.000245575
0.000300598
0.000336254
0.000360607
0.000378299
0.000390784
0.000398468
0.000401615
0.000400691
0.00039655
0.000390249
0.000381843
0.000371428
0.000359105
0.000344961
0.000329041
0.000311328
0.000291904
0.00027095
0.000249018
0.000227584
0.000209098
0.000193458
0.000181071
0.00017272
0.000169047
0.000169768
0.000173172
0.000174876
0.000171286
0.000159227
0.000133998
9.9637e-05
7.85925e-05
0.000170288
0.000247077
0.000302077
0.000337717
0.000362118
0.000379899
0.000392482
0.000400261
0.000403507
0.000402706
0.000398747
0.000392675
0.000384536
0.000374421
0.000362425
0.000348628
0.00033307
0.000315732
0.0002967
0.000276167
0.000254709
0.000233846
0.00021581
0.000200432
0.000188062
0.000179453
0.000175263
0.00017529
0.000177956
0.000178927
0.000174689
0.00016194
0.000135786
0.000100357
7.98237e-05
0.000171586
0.000248447
0.000303395
0.000339
0.000363437
0.000381295
0.000393966
0.000401831
0.00040517
0.000404491
0.000400718
0.000394874
0.000387002
0.000377184
0.00036551
0.000352053
0.000336851
0.000319883
0.000301243
0.000281139
0.000260185
0.000239954
0.000222425
0.000207371
0.000195086
0.000186286
0.00018163
0.000180986
0.000182903
0.000183111
0.000178193
0.000164721
0.000137612
0.000101094
8.10204e-05
0.00017281
0.000249708
0.000304576
0.000340128
0.000364587
0.00038251
0.000395258
0.0004032
0.000406623
0.000406063
0.000402479
0.000396864
0.000389256
0.000379732
0.000368373
0.000355249
0.000340395
0.000323791
0.000305538
0.000285869
0.000265437
0.000245884
0.000228911
0.000214238
0.000202106
0.00019318
0.000188106
0.000186808
0.000187983
0.000187412
0.00018179
0.000167568
0.000139478
0.000101849
8.21802e-05
0.000173951
0.000250844
0.000305604
0.000341087
0.000365554
0.000383531
0.000396346
0.000404356
0.000407858
0.000407414
0.000404023
0.000398639
0.000391294
0.00038206
0.000371013
0.000358217
0.000343704
0.000327457
0.000309588
0.000290354
0.000270461
0.000251624
0.000235247
0.000221007
0.000209096
0.000200119
0.000194691
0.000192776
0.000193214
0.000191846
0.000185493
0.000170491
0.000141389
0.000102623
8.33065e-05
0.000175018
0.000251872
0.000306498
0.000341894
0.000366357
0.000384377
0.000397248
0.000405317
0.000408891
0.000408562
0.000405366
0.000400214
0.000393132
0.000384185
0.000373444
0.00036097
0.000346792
0.000330894
0.000313404
0.000294608
0.000275264
0.000257171
0.000241418
0.00022765
0.000216008
0.000207038
0.000201312
0.000198821
0.000198553
0.000196391
0.000189294
0.000173486
0.000143343
0.000103418
8.43972e-05
0.000176006
0.00025278
0.000307245
0.000342539
0.000366986
0.000385039
0.000397957
0.000406075
0.000409716
0.000409501
0.000406507
0.000401588
0.000394768
0.000386106
0.000375669
0.000363512
0.000349663
0.000334111
0.000316997
0.000298638
0.000279857
0.000262531
0.000247425
0.000234158
0.000222829
0.000213922
0.000207963
0.000204956
0.000203996
0.000201042
0.000193192
0.000176557
0.000145344
0.000104233
8.54552e-05
0.000176921
0.000253581
0.000307862
0.000343037
0.000367457
0.000385533
0.000398489
0.00040665
0.000410351
0.000410251
0.000407462
0.000402777
0.000396218
0.000387839
0.000377701
0.000365856
0.000352332
0.000337122
0.000320382
0.000302465
0.000284258
0.000267717
0.000253272
0.000240527
0.000229545
0.000220752
0.000214621
0.000211183
0.000209534
0.00020579
0.000197178
0.000179696
0.000147389
0.00010507
8.64786e-05
0.000177759
0.000254267
0.000308338
0.00034338
0.000367762
0.000385852
0.000398839
0.000407036
0.000410795
0.00041081
0.000408231
0.000403784
0.000397485
0.000389385
0.000379544
0.000368009
0.000354808
0.000339939
0.000323575
0.000306107
0.000288494
0.000272748
0.000258973
0.000246764
0.000236155
0.000227518
0.000221276
0.000217471
0.000215158
0.00021063
0.000201251
0.000182906
0.000149479
0.00010593
8.74702e-05
0.000178526
0.000254849
0.000308685
0.00034358
0.000367915
0.000386012
0.000399022
0.00040725
0.000411064
0.000411195
0.000408832
0.000404622
0.000398582
0.00039076
0.000381212
0.000369985
0.000357105
0.000342578
0.000326597
0.000309594
0.000292602
0.000277651
0.000264546
0.000252878
0.000242656
0.000234207
0.000227901
0.000223773
0.000220834
0.000215544
0.000205403
0.000186182
0.000151615
0.000106812
8.8428e-05
0.000179217
0.000255318
0.000308896
0.00034363
0.000367907
0.000386003
0.000399031
0.000407286
0.000411154
0.000411405
0.000409265
0.000405296
0.000399514
0.000391968
0.000382711
0.000371789
0.000359232
0.000345053
0.000329468
0.000312956
0.000296632
0.000282463
0.000270017
0.000258884
0.000249056
0.000240815
0.000234483
0.000230085
0.000226551
0.000220521
0.000209623
0.000189517
0.000153791
0.000107715
8.9355e-05
0.000179841
0.000255687
0.000308984
0.000343541
0.000367752
0.000385839
0.00039888
0.000407158
0.00041108
0.000411456
0.000409545
0.00040582
0.000400296
0.000393022
0.000384052
0.000373433
0.0003612
0.000347377
0.000332206
0.00031622
0.000300626
0.000287218
0.000275411
0.000264801
0.000255363
0.000247341
0.00024101
0.000236383
0.000232285
0.000225545
0.000213903
0.00019291
0.000156009
0.000108642
9.02498e-05
0.000180394
0.000255949
0.000308941
0.000343308
0.000367443
0.000385515
0.000398563
0.000406863
0.000410842
0.000411348
0.000409676
0.000406199
0.000400933
0.000393928
0.000385242
0.000374923
0.000363013
0.000349552
0.000334812
0.000319387
0.000304581
0.00029192
0.000280738
0.00027064
0.000261587
0.000253791
0.000247482
0.000242661
0.000238037
0.000230602
0.000218232
0.000196349
0.000158261
0.000109586
9.1116e-05
0.000180883
0.000256116
0.000308779
0.000342942
0.00036699
0.000385039
0.00039809
0.000406411
0.00041045
0.000411095
0.000409671
0.000406445
0.000401437
0.0003947
0.000386292
0.00037627
0.000364681
0.000351583
0.000337285
0.000322446
0.00030847
0.000296553
0.000285994
0.000276401
0.000267729
0.00026016
0.000253887
0.0002489
0.000243783
0.000235689
0.0002226
0.000199828
0.000160542
0.000110543
9.19527e-05
0.000181305
0.000256182
0.000308492
0.000342435
0.000366387
0.000384407
0.000397457
0.0004058
0.000409906
0.0004107
0.000409534
0.000406564
0.000401814
0.000395342
0.000387211
0.00037748
0.00036621
0.000353476
0.000339627
0.000325391
0.000312271
0.0003011
0.000291166
0.000282082
0.000273794
0.000266458
0.000260236
0.000255109
0.000249525
0.000240798
0.000227005
0.000203342
0.000162845
0.000111516
9.2763e-05
0.000181667
0.000256156
0.00030809
0.000341798
0.000365643
0.000383626
0.000396672
0.000405038
0.000409221
0.000410177
0.000409277
0.000406564
0.000402072
0.000395864
0.000388007
0.000378566
0.000367612
0.000355243
0.000341849
0.000328231
0.00031598
0.000305555
0.000296244
0.000287668
0.000279766
0.000272669
0.00026651
0.000261266
0.000255244
0.000245913
0.000231434
0.000206882
0.000165172
0.000112501
9.35459e-05
0.000181966
0.000256034
0.000307567
0.000341025
0.000364753
0.000382691
0.000395728
0.000404122
0.000408397
0.000409544
0.000408906
0.000406447
0.000402212
0.000396268
0.000388686
0.000379537
0.000368901
0.000356899
0.000343968
0.000330985
0.000319606
0.000309923
0.000301233
0.000293166
0.000285654
0.000278805
0.000272724
0.000267385
0.000260946
0.000251033
0.000235884
0.00021045
0.000167537
0.000113493
9.43032e-05
0.000182205
0.000255821
0.000306931
0.000340126
0.000363725
0.00038161
0.000394632
0.000403053
0.000407438
0.000408825
0.000408424
0.000406211
0.000402234
0.000396559
0.000389256
0.000380402
0.000370088
0.000358463
0.000346009
0.000333684
0.000323168
0.000314213
0.000306131
0.000298565
0.000291439
0.000284843
0.000278852
0.000273444
0.000266616
0.000256149
0.000240347
0.000214038
0.000169922
0.000114488
9.50328e-05
0.000182381
0.000255512
0.000306178
0.000339095
0.000362557
0.00038038
0.000393379
0.000401821
0.000406312
0.000407939
0.000407791
0.000405842
0.000402135
0.000396738
0.000389722
0.00038117
0.00037119
0.000359956
0.000348004
0.000336376
0.000326698
0.000318447
0.000310956
0.00030388
0.000297137
0.000290793
0.000284898
0.000279439
0.000272244
0.000261247
0.000244807
0.00021763
0.000172311
0.000115482
9.57345e-05
0.000182495
0.000255113
0.000305313
0.000337939
0.000361255
0.000379011
0.000391984
0.00040045
0.000405057
0.00040694
0.000407052
0.000405368
0.000401934
0.000396817
0.000390093
0.000381852
0.000372218
0.000361397
0.000349981
0.000339105
0.000330227
0.000322645
0.000315719
0.000309115
0.000302746
0.000296656
0.00029087
0.000285378
0.000277836
0.000266329
0.000249265
0.000221222
0.0001747
0.000116474
9.64059e-05
0.000182545
0.000254617
0.000304333
0.000336657
0.000359818
0.0003775
0.000390441
0.000398928
0.000403655
0.000405802
0.000406183
0.000404774
0.00040162
0.000396792
0.000390369
0.000382449
0.000373176
0.00036279
0.000351947
0.000341875
0.000333763
0.000326819
0.000320428
0.000314271
0.000308255
0.0003024
0.00029671
0.000291215
0.00028336
0.000271372
0.000253702
0.000224801
0.00017708
0.000117459
9.70464e-05
0.000182532
0.000254031
0.000303243
0.000335254
0.000358254
0.000375856
0.000388764
0.000397276
0.000402132
0.000404557
0.000405215
0.000404084
0.000401216
0.000396679
0.00039056
0.000382969
0.000374067
0.000364135
0.000353895
0.000344664
0.000337296
0.000330967
0.00032509
0.000319362
0.000313691
0.000308089
0.000302565
0.000297007
0.000288834
0.000276381
0.000258118
0.000228366
0.000179449
0.000118438
9.7655e-05
0.000182455
0.000253353