/*--------------------------------*- C++ -*----------------------------------*\
| =========                 |                                                 |
| \\      /  F ield         | OpenFOAM: The Open Source CFD Toolbox           |
|  \\    /   O peration     | Version:  v2006                                 |
|   \\  /    A nd           | Website:  www.openfoam.com                      |
|    \\/     M anipulation  |                                                 |
\*---------------------------------------------------------------------------*/
FoamFile
{
    version     2.0;
    format      ascii;
    class       volScalarField;
    location    "60";
    object      omega;
}
// * * * * * * * * * * * * * * * * * * * * * * * * * * * * * * * * * * * * * //

dimensions      [0 0 -1 0 0 0 0];


internalField   nonuniform List<scalar> 
78750
(
352.852
13.5626
13.5846
13.6064
13.6278
13.6482
13.6677
13.6858
13.7027
13.7182
13.7321
13.7445
13.7552
13.7642
13.7716
13.7771
13.7808
13.7827
13.7827
13.7808
13.7769
13.7709
13.7631
13.7533
13.7417
13.7287
13.7143
13.6992
13.6836
13.6682
13.6542
13.6438
13.641
13.6497
356.663
517.772
4.13907
4.21129
4.27566
4.33285
4.38331
4.42729
4.46521
4.49746
4.52439
4.54635
4.56363
4.57652
4.58527
4.59011
4.59126
4.58887
4.58312
4.57412
4.56196
4.54664
4.52818
4.50658
4.48185
4.45404
4.4233
4.38994
4.3545
4.31779
4.28069
4.24373
4.20818
4.17771
4.15773
523.801
517.782
4.18896
4.2979
4.39206
4.47051
4.53475
4.58746
4.63052
4.66487
4.69136
4.71071
4.72359
4.7306
4.73228
4.72913
4.72161
4.71015
4.69516
4.67704
4.65617
4.63288
4.60735
4.57961
4.54949
4.51669
4.48096
4.44228
4.40115
4.35856
4.31549
4.27333
4.23531
4.20684
4.19272
524.246
517.793
4.24046
4.38323
4.50252
4.59695
4.66983
4.7266
4.77109
4.80507
4.82969
4.84594
4.85471
4.85674
4.85274
4.84336
4.82922
4.81074
4.78842
4.76279
4.73448
4.70415
4.6724
4.63949
4.6052
4.56897
4.5302
4.48861
4.44427
4.39764
4.34969
4.30292
4.26241
4.23511
4.22488
524.613
517.805
4.2815
4.44844
4.58464
4.68869
4.76581
4.82336
4.86675
4.89859
4.92027
4.93295
4.93767
4.93536
4.9267
4.91217
4.89226
4.86748
4.83845
4.80593
4.77088
4.7345
4.69811
4.6625
4.62758
4.59243
4.55579
4.51656
4.47413
4.42835
4.38005
4.33226
4.2913
4.26501
4.25669
524.964
517.818
4.32283
4.51265
4.6644
4.77686
4.85746
4.91577
4.95854
4.98888
5.00829
5.01809
5.0194
5.01302
4.99943
4.97905
4.95243
4.92023
4.88328
4.84264
4.79965
4.75603
4.71382
4.67458
4.63852
4.60459
4.57102
4.53591
4.49768
4.45539
4.40941
4.36283
4.32254
4.29667
4.28808
525.258
517.831
4.36061
4.56958
4.73349
4.85187
4.9345
4.99299
5.03502
5.06394
5.08137
5.08873
5.08705
5.07679
5.0583
5.03201
4.9985
4.95862
4.91346
4.86438
4.81313
4.76205
4.71399
4.67117
4.63398
4.60143
4.5716
4.54205
4.51035
4.47459
4.43432
4.39204
4.35446
4.32932
4.31926
525.549
517.844
4.39579
4.62216
4.79756
4.92215
5.00767
5.06712
5.10903
5.13721
5.15346
5.1592
5.15513
5.14154
5.11873
5.08717
5.04759
5.00101
4.94874
4.89239
4.83394
4.77604
4.72207
4.6747
4.63452
4.60076
4.57181
4.54536
4.5187
4.48927
4.45567
4.41928
4.38574
4.36177
4.34963
525.806
517.856
4.4287
4.67067
4.8559
4.98543
5.07299
5.13317
5.1748
5.20204
5.21705
5.22095
5.21419
5.19701
5.16968
5.13278
5.08718
5.03411
4.97512
4.91209
4.84735
4.784
4.72597
4.67592
4.63411
4.59976
4.57151
4.54741
4.52494
4.50137
4.47458
4.44476
4.41599
4.39356
4.37934
526.055
517.869
4.46028
4.71691
4.91163
5.0463
5.1363
5.19757
5.23945
5.2664
5.28055
5.2829
5.2738
5.25345
5.22217
5.18059
5.12975
5.07107
5.00627
4.93742
4.8671
4.79872
4.73666
4.68363
4.63964
4.60383
4.57506
4.55175
4.53181
4.5127
4.49193
4.4685
4.44472
4.42422
4.40825
526.283
517.881
4.4896
4.75946
4.96257
5.10163
5.19361
5.25567
5.29765
5.32415
5.33727
5.33791
5.32637
5.30279
5.26751
5.2213
5.16535
5.10125
5.03095
4.95675
4.88155
4.80921
4.74464
4.69022
4.64545
4.6093
4.58062
4.55814
4.54023
4.52473
4.5091
4.49143
4.47235
4.45383
4.43645
526.505
517.894
4.51969
4.80259
5.01382
5.15709
5.25101
5.31389
5.35604
5.38216
5.39434
5.39341
5.37959
5.35301
5.31407
5.26361
5.20298
5.13391
5.05854
4.97933
4.89943
4.82306
4.75565
4.69952
4.6538
4.61721
4.58853
4.56664
4.55024
4.53759
4.52624
4.51363
4.49884
4.48232
4.46385
526.712
517.906
4.54713
4.84154
5.05993
5.2069
5.30255
5.3662
5.40854
5.43434
5.44564
5.44321
5.4272
5.39773
5.35525
5.30073
5.23561
5.16182
5.08163
4.99773
4.91357
4.83381
4.76441
4.70746
4.66166
4.62544
4.59745
4.57661
4.56187
4.55181
4.54414
4.53583
4.52472
4.50996
4.49049
526.914
517.919
4.57635
4.88243
5.10773
5.25805
5.35517
5.41944
5.46187
5.48728
5.49769
5.49376
5.47563
5.44341
5.3976
5.33926
5.26995
5.19169
5.10691
5.01843
4.92994
4.84647
4.77456
4.71637
4.67026
4.63438
4.60719
4.58755
4.57453
4.56691
4.56251
4.55795
4.55004
4.5368
4.51639
527.107
517.932
4.60288
4.91914
5.15052
5.30387
5.40243
5.46738
5.51004
5.53523
5.54491
5.53968
5.51962
5.48488
5.43601
5.37414
5.30093
5.21851
5.12942
5.03664
4.94412
4.85725
4.78321
4.72417
4.67816
4.64308
4.61715
4.59916
4.58818
4.58309
4.58172
4.5804
4.57511
4.56305
4.54156
527.295
517.946
4.63127
4.95796
5.19524
5.35127
5.45099
5.51647
5.55924
5.58414
5.59304
5.58651
5.56459
5.52745
5.4757
5.41053
5.33367
5.24732
5.15409
5.05705
4.96036
4.86972
4.79291
4.73249
4.68626
4.65183
4.62723
4.61105
4.60231
4.59985
4.60141
4.60301
4.59995
4.58877
4.56607
527.476
517.96
4.65727
4.99309
5.23558
5.39409
5.49501
5.56114
5.60419
5.62897
5.6373
5.62967
5.60614
5.56687
5.51255
5.44441
5.36424
5.27429
5.17723
5.07621
4.97556
4.88131
4.80182
4.7401
4.69377
4.66019
4.63718
4.62314
4.61695
4.61729
4.62174
4.62595
4.62469
4.61404
4.5899
527.652
517.974
4.68482
5.02997
5.27754
5.43828
5.5402
5.60687
5.65012
5.67473
5.68247
5.67378
5.6487
5.60745
5.55074
5.47985
5.39661
5.30328
5.20252
5.09758
4.99286
4.89463
4.81177
4.74815
4.70129
4.66835
4.6469
4.63513
4.63168
4.63501
4.64238
4.64905
4.64929
4.6389
4.61311
527.823
517.988
4.71039
5.06381
5.31593
5.47875
5.58174
5.64908
5.69269
5.71731
5.72463
5.71507
5.68867
5.64569
5.58689
5.51359
5.42763
5.33125
5.22713
5.11853
5.00995
4.90782
4.82151
4.75586
4.70838
4.67608
4.65631
4.64702
4.64656
4.65307
4.6634
4.67235
4.67381
4.66338
4.63568
527.99
518.003
4.73712
5.09894
5.35552
5.52028
5.62424
5.69218
5.73611
5.7607
5.76761
5.7572
5.72957
5.68499
5.62429
5.54882
5.46038
5.36117
5.25387
5.1417
5.02919
4.92285
4.83242
4.76409
4.71549
4.68351
4.6653
4.65855
4.66125
4.6711
4.68447
4.69563
4.69812
4.68743
4.65762
528.151
518.018
4.76223
5.13161
5.39226
5.55891
5.66393
5.73261
5.77699
5.80167
5.80828
5.79719
5.76851
5.72258
5.66026
5.58292
5.49235
5.3907
5.28057
5.16514
5.0489
4.93841
4.84371
4.77242
4.72242
4.69058
4.6739
4.66977
4.67581
4.68919
4.70567
4.71896
4.7223
4.71111
4.67892
528.308
518.033
4.78811
5.16511
5.42982
5.59832
5.70439
5.7738
5.81859
5.84333
5.84962
5.83785
5.80818
5.76103
5.69729
5.61833
5.52588
5.42206
5.30935
5.19079
5.07084
4.95603
4.85652
4.78161
4.72962
4.69749
4.68209
4.68053
4.68996
4.70697
4.72664
4.74203
4.74609
4.73428
4.69956
528.459
518.048
4.81261
5.19656
5.4651
5.63554
5.74283
5.81311
5.85838
5.88319
5.88918
5.87681
5.84631
5.79815
5.73326
5.653
5.55906
5.45346
5.33856
5.21724
5.09383
4.97481
4.87037
4.79147
4.73709
4.70432
4.68999
4.69094
4.70383
4.72459
4.74751
4.765
4.76971
4.75707
4.71956
528.606
518.063
4.83751
5.2284
5.50083
5.67335
5.78206
5.85326
5.89886
5.92356
5.92913
5.91614
5.88486
5.83584
5.77
5.68869
5.59354
5.48646
5.36967
5.24586
5.11916
4.99591
4.88628
4.80275
4.74532
4.71134
4.69769
4.70094
4.71725
4.74178
4.76798
4.7875
4.79272
4.77924
4.73888
528.748
518.079
4.86114
5.25836
5.53455
5.70944
5.82016
5.89244
5.93819
5.96247
5.96754
5.95398
5.92209
5.87243
5.80593
5.72389
5.62789
5.51974
5.40147
5.27558
5.14596
5.01874
4.904
4.81548
4.75449
4.7188
4.70541
4.71071
4.73033
4.75861
4.78809
4.80964
4.81552
4.80093
4.75752
528.886
518.094
4.88484
5.28824
5.56809
5.74549
5.85763
5.93088
5.97716
6.00123
6.00583
5.99177
5.9594
5.90926
5.8423
5.75979
5.66323
5.55431
5.43491
5.30727
5.17504
5.04407
4.92424
4.83025
4.76509
4.72704
4.71336
4.72033
4.74304
4.77502
4.80782
4.83153
4.83825
4.8221
4.77547
529.019
518.109
4.90743
5.31646
5.59969
5.77949
5.89308
5.9674
6.0144
6.0387
6.04277
6.02828
5.99556
5.94515
5.87798
5.79527
5.69848
5.58916
5.46903
5.34009
5.20569
5.07136
4.94671
4.84706
4.77729
4.73632
4.72182
4.73003
4.75557
4.79109
4.82711
4.85293
4.86075
4.84335
4.79301
529.148
518.125
4.92995
5.34446
5.63098
5.81291
5.92775
6.00309
6.05081
6.07543
6.0792
6.06444
6.0315
5.98098
5.91379
5.83113
5.73437
5.62496
5.50444
5.37457
5.23839
5.10105
4.97183
4.86629
4.79148
4.747
4.73104
4.73996
4.76795
4.80683
4.84613
4.87453
4.88314
4.86446
4.81014
529.273
518.14
4.95143
5.37105
5.66103
5.84452
5.96051
6.0369
6.08551
6.11072
6.1147
6.09953
6.06641
6.01592
5.94892
5.86655
5.7701
5.66093
5.54039
5.41001
5.27251
5.13263
4.99922
4.88786
4.80778
4.75934
4.74135
4.75043
4.78048
4.8225
4.86508
4.89617
4.90546
4.88536
4.82687
529.395
518.156
4.97248
5.39685
5.69004
5.87507
5.99223
6.06969
6.11916
6.14496
6.14917
6.13378
6.10071
6.05046
5.98387
5.90202
5.80613
5.69746
5.57723
5.4467
5.3083
5.16632
5.02911
4.91204
4.82651
4.77365
4.75301
4.76162
4.79321
4.83808
4.88382
4.91758
4.92752
4.90596
4.84317
529.512
518.171
4.99265
5.42134
5.7175
5.90396
6.02226
6.1008
6.15124
6.17777
6.18237
6.16693
6.13404
6.08416
6.01812
5.93697
5.84186
5.73396
5.61434
5.48405
5.34519
5.20161
5.06111
4.93867
4.84774
4.79017
4.76636
4.77389
4.8065
4.85384
4.90252
4.93884
4.94932
4.92622
4.85902
529.627
518.186
5.01237
5.4451
5.74403
5.93181
6.0512
6.13082
6.18222
6.20952
6.21463
6.19932
6.16669
6.11728
6.05193
5.97164
5.87752
5.77063
5.65191
5.52219
5.38328
5.23857
5.09528
4.96786
4.8716
4.80911
4.78162
4.78743
4.82042
4.86976
4.9211
4.95979
4.97077
4.94609
4.87441
529.739
518.201
5.03128
5.46766
5.76912
5.95812
6.07856
6.15926
6.21165
6.2398
6.24559
6.23077
6.19832
6.14943
6.08488
6.00562
5.91268
5.80702
5.68945
5.56063
5.42206
5.27672
5.13121
4.99936
4.89806
4.83061
4.79906
4.80254
4.8353
4.88612
4.93975
4.98056
4.99187
4.96553
4.88933
529.848
518.216
5.04979
5.48957
5.79334
5.98343
6.10485
6.18657
6.23992
6.26889
6.27534
6.26101
6.22889
6.1807
6.11712
6.03907
5.94748
5.84324
5.72705
5.5994
5.46154
5.31602
5.16884
5.03317
4.92716
4.85476
4.81883
4.81942
4.85125
4.90292
4.95837
5.00104
5.01259
4.98455
4.9038
529.955
518.231
5.0676
5.51047
5.81628
6.00732
6.12967
6.21239
6.26671
6.29656
6.30374
6.28999
6.25833
6.21093
6.14844
6.0717
5.9816
5.87894
5.76433
5.63809
5.50126
5.35601
5.20776
5.06895
4.95872
4.88157
4.84108
4.83826
4.86854
4.9205
4.97751
5.02142
5.03294
5.00311
4.9178
530.059
518.246
5.08504
5.53085
5.83841
6.03023
6.1534
6.23706
6.29232
6.32301
6.33093
6.31781
6.28668
6.24017
6.17888
6.10358
6.01509
5.91416
5.80129
5.67669
5.54118
5.39659
5.2478
5.10656
4.99262
4.91098
4.86585
4.85922
4.88733
4.93899
4.9971
5.04176
5.053
5.02127
4.93138
530.161
518.26
5.1018
5.5506
5.85937
6.0518
6.17572
6.26029
6.31647
6.34801
6.35669
6.34426
6.31378
6.26828
6.20827
6.1345
6.04773
5.94864
5.83765
5.71486
5.58091
5.43735
5.28855
5.1456
5.02857
4.94284
4.89314
4.8824
4.90778
4.95851
5.01715
5.06212
5.07279
5.03904
4.94455
530.261
518.274
5.11796
5.56948
5.87931
6.07228
6.19692
6.2824
6.3395
6.3719
6.38134
6.3696
6.33977
6.2953
6.23669
6.16454
6.07958
5.98243
5.87345
5.75262
5.62045
5.47821
5.32985
5.18584
5.06633
4.97697
4.92288
4.90783
4.93
4.97917
5.03772
5.08254
5.09237
5.05646
4.95735
530.359
518.288
5.13338
5.58732
5.89803
6.09146
6.21679
6.30312
6.36111
6.39436
6.40458
6.39359
6.36452
6.32114
6.26391
6.19346
6.11042
6.01531
5.90844
5.7897
5.65948
5.51884
5.37134
5.22689
5.10556
5.0131
4.9549
4.93548
4.95403
5.00104
5.05888
5.10307
5.11178
5.07358
4.96981
530.456
518.302
5.1483
5.60438
5.91581
6.10961
6.23556
6.32272
6.38158
6.41565
6.42665
6.41641
6.38814
6.34591
6.29013
6.22138
6.14028
6.04729
5.94261
5.82608
5.69796
5.55914
5.41287
5.26854
5.14601
5.051
4.98905
4.96529
4.9799
5.02418
5.08069
5.12377
5.13107
5.09044
4.98199
530.55
518.315
5.16242
5.62038
5.93239
6.12651
6.25305
6.341
6.40069
6.43556
6.44733
6.43787
6.41045
6.36942
6.31514
6.24815
6.169
6.07815
5.97577
5.86153
5.73565
5.59885
5.45413
5.31044
5.18734
5.09039
5.0251
4.99712
5.00757
5.04864
5.10324
5.14472
5.15033
5.10711
4.99395
530.644
518.328
5.17604
5.63565
5.94809
6.14243
6.26949
6.35817
6.41865
6.4543
6.46681
6.45811
6.43157
6.39177
6.33902
6.27382
6.19667
6.10797
6.00786
5.89602
5.77248
5.63787
5.49497
5.35239
5.22933
5.131
5.06283
5.03084
5.03699
5.07442
5.12654
5.16598
5.16959
5.12363
5.00571
530.736
518.341
5.18891
5.64992
5.96265
6.15716
6.2847
6.37408
6.43531
6.4717
6.48493
6.47701
6.45137
6.41282
6.36163
6.29824
6.22312
6.13662
6.03882
5.92936
5.80827
5.676
5.53518
5.39412
5.27169
5.17256
5.10199
5.06627
5.06809
5.10155
5.15069
5.18762
5.18894
5.14007
5.01735
530.826
518.353
5.20126
5.66346
5.97635
6.17093
6.29889
6.38891
6.45085
6.48793
6.50185
6.49467
6.46996
6.43266
6.38302
6.32145
6.24837
6.16408
6.06862
5.96159
5.84297
5.71317
5.57463
5.43549
5.31421
5.21482
5.14236
5.10321
5.10073
5.12996
5.1757
5.2097
5.20844
5.1565
5.02892
530.916
518.365
5.21288
5.67603
5.98896
6.18357
6.3119
6.40253
6.46513
6.50287
6.51745
6.51102
6.48724
6.4512
6.40312
6.34336
6.27231
6.19025
6.09715
5.99257
5.87648
5.74925
5.61321
5.47634
5.3567
5.25757
5.18369
5.14149
5.13483
5.15964
5.20159
5.23227
5.22816
5.17298
5.04045
531.004
518.377
5.22398
5.6879
6.00074
6.19529
6.32394
6.41511
6.47832
6.51667
6.53188
6.52615
6.50332
6.46853
6.42198
6.36401
6.29498
6.21511
6.12437
6.02226
5.90874
5.78415
5.65087
5.51662
5.39903
5.3006
5.22576
5.18088
5.17022
5.19054
5.22838
5.25541
5.24818
5.18958
5.05202
531.092
518.389
5.23439
5.69886
6.0115
6.20593
6.33485
6.42653
6.49031
6.52924
6.54504
6.54001
6.51813
6.48459
6.43956
6.38336
6.31631
6.23862
6.15021
6.05058
5.93965
5.81777
5.68731
5.55615
5.44106
5.34378
5.26842
5.22122
5.20676
5.22254
5.25605
5.27911
5.26852
5.20634
5.06366
531.18
518.4
5.24431
5.70915
6.02146
6.2157
6.34483
6.43695
6.50126
6.54071
6.55706
6.55271
6.53177
6.49946
6.45592
6.40145
6.33636
6.2608
6.17468
6.0775
5.96918
5.8501
5.72269
5.59492
5.48266
5.38693
5.31147
5.26235
5.24434
5.25561
5.28461
5.30345
5.28928
5.22335
5.07544
531.266
518.411
5.25359
5.71859
6.03046
6.22445
6.35374
6.44627
6.51106
6.551
6.56787
6.56418
6.54419
6.51311
6.47104
6.41827
6.35507
6.2816
6.19773
6.10296
5.99725
5.88103
5.75685
5.63285
5.52377
5.42994
5.35477
5.30409
5.28278
5.28963
5.314
5.32841
5.31047
5.24063
5.08737
531.353
518.421
5.26239
5.72738
6.03869
6.23235
6.36175
6.45464
6.51985
6.56023
6.57759
6.57453
6.5555
6.52562
6.485
6.43389
6.37254
6.30108
6.2194
6.127
6.02386
5.91052
5.78969
5.66975
5.56408
5.47255
5.39812
5.3463
5.322
5.32453
5.3442
5.35401
5.33213
5.25823
5.0995
531.439
518.432
5.27062
5.7354
6.04604
6.2393
6.36876
6.46195
6.52756
6.56833
6.58614
6.58371
6.56565
6.53697
6.49778
6.44829
6.38873
6.31924
6.23968
6.14957
6.04896
5.9385
5.82111
5.70551
5.60352
5.51462
5.44133
5.38879
5.36185
5.36026
5.37523
5.38031
5.35433
5.2762
5.11185
531.525
518.442
5.27837
5.74278
6.05263
6.24543
6.37489
6.46834
6.53428
6.57542
6.59364
6.59181
6.57472
6.54725
6.50945
6.46155
6.40375
6.33616
6.25865
6.17076
6.07262
5.965
5.8511
5.74002
5.64193
5.55594
5.48415
5.43131
5.40208
5.39654
5.4069
5.40718
5.377
5.29452
5.12443
531.612
518.451
5.2856
5.74943
6.05838
6.25065
6.38007
6.47374
6.53998
6.58143
6.60004
6.59881
6.5827
6.55643
6.52002
6.47367
6.41758
6.35184
6.27632
6.19059
6.09484
5.99003
5.87965
5.77323
5.6792
5.59637
5.52646
5.47376
5.44266
5.43346
5.4393
5.43474
5.40023
5.31324
5.13726
531.698
518.461
5.29235
5.75546
6.0634
6.25508
6.3844
6.47824
6.54473
6.58646
6.60543
6.60478
6.58968
6.56459
6.52956
6.48474
6.43032
6.36637
6.29278
6.20914
6.11574
6.01369
5.90683
5.80515
5.71527
5.63576
5.56798
5.51576
5.48315
5.47058
5.47215
5.46281
5.42394
5.33234
5.15033
531.786
518.47
5.29861
5.7608
6.06762
6.25865
6.38782
6.4818
6.54851
6.59048
6.60978
6.60971
6.59562
6.57174
6.53806
6.49475
6.44197
6.37978
6.30807
6.22647
6.13535
6.03604
5.93272
5.83584
5.75017
5.67409
5.60866
5.55724
5.52352
5.508
5.50543
5.49139
5.44814
5.35184
5.16367
531.873
518.479
5.30441
5.76553
6.07113
6.26144
6.39044
6.48451
6.55139
6.59357
6.61318
6.61369
6.60064
6.57795
6.54562
6.50379
6.45261
6.39214
6.32227
6.24266
6.15379
6.05719
5.95743
5.86539
5.78396
5.71137
5.64842
5.59808
5.56363
5.54571
5.53907
5.52039
5.47276
5.37169
5.17726
531.961
518.487
5.30971
5.76959
6.07387
6.26342
6.3922
6.48633
6.55337
6.59573
6.61563
6.61672
6.60473
6.58324
6.55225
6.51188
6.46228
6.40349
6.33543
6.25779
6.17115
6.07728
5.98113
5.89393
5.81672
5.74764
5.68729
5.63825
5.60345
5.58352
5.57301
5.54978
5.49779
5.39189
5.1911
532.049
518.496
5.31458
5.77305
6.07592
6.26464
6.39317
6.48734
6.5545
6.59703
6.6172
6.61888
6.60798
6.58769
6.55802
6.51909
6.47104
6.41391
6.34763
6.27194
6.18755
6.09645
6.00404
5.92162
5.84858
5.783
5.72528
5.67769
5.64279
5.62115
5.60705
5.57945
5.52318
5.41242
5.20518
532.138
518.504
5.31898
5.77587
6.07723
6.26508
6.39332
6.4875
6.55477
6.59743
6.61789
6.62017
6.61038
6.59131
6.56295
6.52544
6.47892
6.42343
6.35893
6.28521
6.2031
6.11489
6.02643
5.94868
5.87969
5.81752
5.76243
5.71639
5.68162
5.65859
5.64112
5.60932
5.54884
5.43323
5.21948
532.226
518.512
5.32295
5.77812
6.07786
6.26479
6.39271
6.48687
6.55423
6.59703
6.61777
6.62067
6.61203
6.59418
6.56712
6.53101
6.48599
6.43212
6.36938
6.29764
6.21791
6.13275
6.04855
5.9753
5.91021
5.85134
5.79882
5.75436
5.71987
5.69569
5.67508
5.63931
5.57474
5.4543
5.23401
532.315
518.519
5.32648
5.77976
6.0778
6.26375
6.39131
6.48543
6.55285
6.59579
6.61682
6.62038
6.61293
6.59632
6.57057
6.53583
6.49228
6.44
6.37901
6.30928
6.23198
6.15003
6.07037
6.00151
5.94021
5.88453
5.83452
5.79165
5.75754
5.73243
5.70892
5.66933
5.6008
5.47556
5.2487
532.403
518.527
5.32961
5.78086
6.07708
6.262
6.38917
6.48322
6.5507
6.59377
6.61512
6.61937
6.61316
6.59781
6.57335
6.53997
6.49786
6.44713
6.38787
6.32014
6.24532
6.16669
6.09175
6.02723
5.96965
5.9171
5.86954
5.82825
5.79458
5.76872
5.74254
5.69936
5.62697
5.49698
5.26353
532.492
518.534
5.33233
5.78138
6.0757
6.25951
6.38625
6.48022
6.54775
6.59096
6.61266
6.61766
6.61274
6.59865
6.57549
6.54345
6.50276
6.45357
6.396
6.33026
6.25793
6.18269
6.11258
6.05238
5.9985
5.94904
5.90392
5.86421
5.83108
5.8046
5.77592
5.72934
5.65322
5.51851
5.27845
532.58
518.541
5.33468
5.78139
6.07368
6.25634
6.38261
6.47647
6.54403
6.5874
6.60951
6.61532
6.61172
6.59891
6.57704
6.54633
6.50704
6.45936
6.40348
6.33971
6.26989
6.19809
6.13285
6.07691
6.02669
5.9803
5.93758
5.89947
5.86692
5.83997
5.80899
5.7592
5.67949
5.54013
5.29348
532.668
518.548
5.33664
5.78084
6.07102
6.25246
6.37822
6.47193
6.53951
6.58307
6.60566
6.61243
6.61013
6.59859
6.57799
6.54862
6.51073
6.46455
6.41035
6.34857
6.28128
6.213
6.1526
6.10088
6.05425
6.01089
5.97058
5.9341
5.9022
5.87491
5.84176
5.78893
5.70575
5.56182
5.30871
532.756
518.554
5.33823
5.77978
6.06774
6.2479
6.37311
6.46665
6.53423
6.57797
6.60114
6.60911
6.608
6.59768
6.57836
6.55034
6.51386
6.46921
6.41671
6.35693
6.29224
6.22758
6.17195
6.12433
6.08121
6.0408
6.00284
5.96797
5.93679
5.9093
5.87417
5.81848
5.73196
5.58353
5.324
532.844
518.561
5.33943
5.77817
6.06383
6.24265
6.36728
6.4606
6.52815
6.57205
6.59578
6.60496
6.60511
6.5961
6.57813
6.55149
6.51647
6.47338
6.42261
6.36493
6.30295
6.24208
6.19107
6.14739
6.10764
6.0701
6.03444
6.00118
5.97074
5.94313
5.90616
5.84777
5.75802
5.60517
5.33927
532.931
518.567
5.34025
5.77605
6.0593
6.23675
6.36075
6.45385
6.52136
6.56544
6.58978
6.60025
6.60169
6.594
6.57738
6.55215
6.5186
6.4771
6.42814
6.37264
6.31354
6.25675
6.21012
6.17018
6.13364
6.09883
6.0654
6.03372
6.00407
5.97646
5.93776
5.87682
5.78395
5.62672
5.35448
533.017
518.573
5.34068
5.77339
6.05415
6.23016
6.35351
6.44636
6.5138
6.55806
6.58303
6.59484
6.59763
6.5913
6.57608
6.55229
6.52026
6.4804
6.43331
6.3801
6.32407
6.27161
6.22916
6.19275
6.15923
6.12699
6.09566
6.06545
6.0365
6.00904
5.96882
5.90549
5.80963
5.6481
5.36958
533.103
518.579
5.34071
5.7702
6.0484
6.22294
6.34561
6.43819
6.50557
6.55002
6.57568
6.58889
6.59307
6.58812
6.57432
6.55198
6.52149
6.4833
6.43813
6.38731
6.33448
6.28653
6.24813
6.2151
6.18446
6.15469
6.12538
6.09671
6.06886
6.04119
5.99944
5.93384
5.83508
5.66932
5.38457
533.189
518.584
5.34036
5.76649
6.04205
6.21506
6.33702
6.42931
6.49662
6.54128
6.56768
6.58236
6.58797
6.58446
6.5721
6.55125
6.52232
6.48583
6.44264
6.39428
6.34477
6.30142
6.26696
6.23722
6.20936
6.18195
6.15461
6.12751
6.10083
6.07288
6.02957
5.96178
5.86021
5.6903
5.39941
533.273
518.589
5.33965
5.7623
6.03512
6.20656
6.32778
6.41976
6.487
6.53192
6.55911
6.57534
6.58243
6.58038
6.56949
6.55015
6.5228
6.48806
6.4469
6.40107
6.35498
6.31624
6.28565
6.25911
6.23394
6.20881
6.18341
6.15785
6.13239
6.10413
6.0593
5.98939
5.88508
5.71108
5.41412
533.357
518.594
5.33859
5.75763
6.02762
6.19742
6.31786
6.4095
6.47668
6.52189
6.54996
6.56782
6.57645
6.5759
6.56652
6.54872
6.523
6.49005
6.45097
6.40777
6.36524
6.33107
6.30423
6.28078
6.2582
6.23529
6.21174
6.18769
6.16343
6.13485
6.08854
6.01657
5.9096
5.73158
5.42865
533.439
518.599
5.33723
5.75254
6.01959
6.18767
6.30727
6.39855
6.46567
6.51124
6.54028
6.55984
6.57006
6.57105
6.56321
6.547
6.52297
6.49187
6.45498
6.41454
6.37575
6.346
6.32277
6.30227
6.28219
6.26141
6.23966
6.21709
6.19401
6.16511
6.11737
6.04342
5.93385
5.75187
5.44304
533.521
518.604
5.33559
5.74702
6.01102
6.17729
6.29598
6.38685
6.45392
6.49994
6.53011
6.5514
6.56323
6.56581
6.55957
6.54501
6.52273
6.49358
6.459
6.42152
6.38673
6.36118
6.34134
6.32364
6.30593
6.28717
6.26715
6.24599
6.22406
6.19483
6.14569
6.06984
5.95773
5.77186
5.45723
533.601
518.608
5.33369
5.74111
6.00193
6.1663
6.28399
6.37438
6.44138
6.48797
6.51967
6.54249
6.5559
6.56012
6.55556
6.54273
6.52229
6.49519
6.46306
6.42873
6.3982
6.37663
6.35999
6.34493
6.32945
6.31263
6.29425
6.27447
6.25366
6.2241
6.17362
6.09593
5.98136
5.79166
5.47128
533.68
518.612
5.33154
5.7348
5.99231
6.15467
6.27128
6.36109
6.42793
6.47504
6.50827
6.53275
6.5479
6.5539
6.55114
6.54014
6.52163
6.49669
6.46712
6.43612
6.41003
6.39227
6.37867
6.3661
6.35274
6.33775
6.32095
6.30248
6.28274
6.25284
6.20104
6.12157
6.00459
5.81113
5.4851
533.757
518.617
5.32913
5.72809
5.98218
6.14243
6.25788
6.34704
6.41368
6.46132
6.49615
6.52235
6.53931
6.54717
6.54631
6.53724
6.52075
6.49806
6.47119
6.44364
6.42207
6.40801
6.39733
6.38714
6.37579
6.36254
6.34725
6.33005
6.31137
6.28115
6.2281
6.14693
6.02759
5.83042
5.4988
533.833
518.621
5.32647
5.72096
5.9715
6.12955
6.24374
6.33216
6.39852
6.44668
6.48316
6.51114
6.53001
6.53985
6.54099
6.53398
6.51964
6.49933
6.47528
6.45133
6.43426
6.42378
6.41591
6.408
6.39857
6.38699
6.37315
6.35717
6.33949
6.30892
6.25465
6.17182
6.05019
5.84939
5.51227
533.907
518.625
5.32354
5.71342
5.96028
6.11605
6.2289
6.31651
6.38254
6.43122
6.46938
6.49921
6.52005
6.53195
6.53521
6.53036
6.5183
6.50051
6.47945
6.45929
6.44664
6.43959
6.43441
6.42868
6.42109
6.4111
6.39863
6.38379
6.36715
6.3363
6.28087
6.19645
6.07259
5.8682
5.52563
533.98
518.628
5.32034
5.70544
5.94852
6.1019
6.21332
6.30003
6.36569
6.4149
6.45479
6.48651
6.5094
6.52344
6.52892
6.52637
6.51675
6.50166
6.48381
6.4677
6.45928
6.45549
6.45283
6.44915
6.44329
6.4348
6.42365
6.41007
6.39425
6.36307
6.30655
6.22061
6.09458
5.88667
5.53874
534.051
518.632
5.31689
5.69706
5.93621
6.0871
6.19701
6.28274
6.34801
6.39779
6.43947
6.47313
6.49812
6.51437
6.52216
6.52202
6.51498
6.5028
6.48841
6.47665
6.47225
6.47152
6.47125
6.4695
6.46529
6.45828
6.44852
6.43639
6.42112
6.38952
6.33191
6.24452
6.11637
5.90501
5.55176
534.121
518.636
5.31321
5.68827
5.92335
6.07163
6.1799
6.26458
6.32946
6.37988
6.42341
6.45907
6.4862
6.50475
6.51492
6.51731
6.513
6.5039
6.49321
6.48602
6.48547
6.48765
6.48963
6.4897
6.48704
6.48144
6.47305
6.46236
6.44752
6.41543
6.35675
6.26795
6.13775
5.92299
5.56452
534.188
518.64
5.30936
5.67913
5.90997
6.05547
6.16197
6.24551
6.31004
6.36124
6.40665
6.44435
6.4737
6.49461
6.50726
6.51226
6.5108
6.50494
6.49813
6.49566
6.49885
6.50385
6.508
6.50982
6.50866
6.50443
6.49739
6.48814
6.47366
6.44104
6.38131
6.29113
6.15893
5.94084
5.57718
534.255
518.643
5.30538
5.66968
5.89607
6.0386
6.14313
6.22539
6.28962
6.342
6.38913
6.4289
6.46057
6.48395
6.49919
6.50692
6.50842
6.50595
6.5032
6.50546
6.5123
6.52003
6.52627
6.52977
6.53003
6.5271
6.52135
6.51346
6.49927
6.4661
6.40534
6.31384
6.17968
5.95833
5.58956
534.319
518.647
5.30136
5.66
5.88171
6.02103
6.12334
6.20409
6.26791
6.32158
6.37055
6.41258
6.44677
6.47278
6.49075
6.50133
6.50595
6.50703
6.50854
6.51546
6.52583
6.53622
6.54452
6.54966
6.55131
6.54964
6.54512
6.53854
6.52461
6.49086
6.42908
6.3363
6.20023
5.97566
5.60182
534.384
518.651
5.29737
5.65014
5.86692
6.00276
6.10255
6.18153
6.24484
6.29985
6.35084
6.39535
6.43226
6.4611
6.48196
6.49557
6.50347
6.50832
6.51433
6.52571
6.53945
6.55239
6.56266
6.56937
6.57235
6.57187
6.56852
6.56318
6.54943
6.51509
6.45232
6.35829
6.22036
5.99264
5.61379
534.445
518.655
5.29351
5.64022
5.85179
5.98381
6.08072
6.1576
6.22025
6.27669
6.32988
6.37711
6.41697
6.44884
6.47278
6.4896
6.50101
6.50987
6.52064
6.53628
6.55322
6.56861
6.58079
6.58904
6.59332
6.594
6.59176
6.58758
6.57396
6.539
6.47526
6.38
6.24024
6.0094
5.62558
534.507
518.66
5.28985
5.63032
5.83636
5.96421
6.05781
6.13217
6.19395
6.25186
6.30744
6.35766
6.40076
6.4359
6.46313
6.48337
6.49847
6.51157
6.52731
6.54702
6.56703
6.58476
6.59879
6.60853
6.61406
6.61586
6.61468
6.61159
6.59804
6.56243
6.49772
6.40128
6.25972
6.02581
5.63707
534.566
518.665
5.28653
5.62055
5.82074
5.94402
6.03383
6.10521
6.16586
6.22524
6.2834
6.33689
6.3835
6.42217
6.45292
6.47677
6.49578
6.51333
6.53413
6.55781
6.58081
6.60086
6.61671
6.62794
6.6347
6.63757
6.6374
6.63534
6.62181
6.58554
6.51987
6.42224
6.27891
6.04196
5.64833
534.626
518.67
5.2836
5.61101
5.80503
5.9233
6.00876
6.0766
6.13577
6.19654
6.25749
6.31455
6.36499
6.40749
6.44201
6.46971
6.49285
6.51507
6.54092
6.56846
6.5944
6.61672
6.63438
6.64709
6.65509
6.65904
6.65986
6.65877
6.64518
6.60822
6.54159
6.44279
6.29772
6.05776
5.65927
534.683
518.676
5.28121
5.60181
5.78935
5.90217
5.98269
6.04639
6.10371
6.16575
6.2296
6.29046
6.34502
6.39164
6.43024
6.46208
6.48964
6.5168
6.54763
6.57894
6.60776
6.63235
6.65184
6.66603
6.67527
6.68026
6.68202
6.68187
6.66822
6.63055
6.56296
6.463
6.31617
6.07323
5.66991
534.742
518.682
5.2794
5.59302
5.77377
5.8807
5.95563
6.01452
6.06955
6.13267
6.19947
6.26436
6.32333
6.3744
6.4174
6.4537
6.48602
6.51847
6.5541
6.58907
6.62072
6.64756
6.66888
6.68458
6.69509
6.70123
6.70423
6.70467
6.69084
6.65246
6.58392
6.48282
6.33427
6.08836
5.68023
534.797
518.689
5.2781
5.58471
5.75846
5.85904
5.92771
5.9811
6.03336
6.09728
6.16701
6.23608
6.29973
6.35553
6.40324
6.44434
6.48177
6.51983
6.56017
6.59873
6.63322
6.66235
6.68555
6.70284
6.71472
6.72212
6.72642
6.72731
6.71317
6.674
6.60449
6.50224
6.35196
6.1031
5.6902
534.855
518.696
5.27739
5.57699
5.74357
5.83732
5.89897
5.94609
5.99518
6.05944
6.13203
6.20545
6.27401
6.33482
6.38752
6.43372
6.47656
6.52045
6.56544
6.6076
6.64495
6.67642
6.70159
6.72055
6.73388
6.74263
6.74827
6.7496
6.73511
6.69514
6.62468
6.5213
6.36931
6.11752
5.69988
534.908
518.704
5.27751
5.5702
5.72938
5.8158
5.86955
5.90949
5.95493
6.01902
6.09442
6.17234
6.24605
6.31212
6.37008
6.42164
6.47018
6.52002
6.56968
6.6155
6.65582
6.68976
6.71701
6.73776
6.75266
6.76282
6.76983
6.77155
6.75666
6.71585
6.64442
6.53989
6.3862
6.1315
5.70915
534.966
518.712
5.27852
5.56442
5.71604
5.79462
5.83955
5.87119
5.91213
5.97576
6.05403
6.13667
6.21579
6.28738
6.35085
6.40803
6.46252
6.5183
6.57261
6.62214
6.66552
6.70204
6.7315
6.75417
6.77077
6.78245
6.7909
6.79304
6.77775
6.73614
6.66377
6.55813
6.40275
6.14516
5.71813
535.019
518.721
5.2806
5.55984
5.70373
5.77397
5.80921
5.83139
5.86697
5.92972
6.01081
6.09835
6.18312
6.26049
6.32973
6.39283
6.45358
6.51522
6.57415
6.62745
6.67401
6.71326
6.7451
6.76984
6.78824
6.80154
6.81146
6.81401
6.79833
6.7559
6.68259
6.57583
6.41877
6.15831
5.72666
535.077
518.731
5.28383
5.55663
5.69269
5.75407
5.7786
5.79021
5.81917
5.8806
5.96453
6.05715
6.14784
6.23126
6.30656
6.37586
6.44317
6.5105
6.57402
6.63114
6.68097
6.7231
6.75748
6.78445
6.80483
6.81988
6.83136
6.8344
6.81837
6.77517
6.70098
6.59314
6.43443
6.17114
5.73487
535.129
518.741
5.28827
5.55488
5.6831
5.73523
5.74812
5.7478
5.76904
5.82844
5.91501
6.01285
6.10969
6.19945
6.28109
6.35688
6.43099
6.50398
6.57211
6.63314
6.6864
6.73157
6.76864
6.79802
6.82052
6.83742
6.85053
6.85408
6.83774
6.79381
6.71875
6.60984
6.44948
6.18339
5.74258
535.188
518.752
5.29385
5.55459
5.67508
5.71767
5.71803
5.70444
5.71663
5.77304
5.86194
5.96508
6.06833
6.1647
6.25295
6.33548
6.41654
6.49521
6.56802
6.6331
6.68994
6.73833
6.77831
6.81028
6.83509
6.854
6.86885
6.87302
6.85644
6.81186
6.736
6.62608
6.46414
6.19528
5.74995
535.24
518.764
5.30053
5.55581
5.6688
5.70174
5.68884
5.66058
5.66208
5.71445
5.80523
5.91367
6.02353
6.12676
6.22188
6.31141
6.39953
6.48394
6.56159
6.6309
6.69153
6.74335
6.78643
6.8212
6.84847
6.86954
6.88622
6.89106
6.87431
6.82913
6.75252
6.64162
6.4781
6.20652
5.75675
535.3
518.777
5.30814
5.55837
5.66424
5.6876
5.66095
5.61679
5.6059
5.65288
5.74483
5.85846
5.9751
6.08545
6.18769
6.28445
6.37962
6.46983
6.55244
6.62616
6.6908
6.74627
6.79269
6.83048
6.86045
6.88385
6.9025
6.90813
6.89134
6.84569
6.76844
6.65664
6.49163
6.21738
5.76319
535.351
518.789
5.31656
5.56221
5.66142
5.67547
5.63482
5.57361
5.54848
5.58838
5.68061
5.79921
5.92278
6.04055
6.15023
6.25455
6.35674
6.45281
6.54055
6.61889
6.68776
6.74713
6.79712
6.83814
6.87097
6.89689
6.91759
6.92412
6.90737
6.86132
6.78347
6.67081
6.50433
6.22746
5.76896
535.412
518.802
5.32558
5.56705
5.66016
5.66536
5.61079
5.53169
5.49065
5.52163
5.61291
5.73598
5.86649
5.99188
6.10929
6.22143
6.33058
6.43258
6.52557
6.60872
6.68204
6.74554
6.79934
6.84384
6.87985
6.90869
6.93138
6.9389
6.92235
6.87608
6.79779
6.68439
6.51656
6.23716
5.77438
535.463
518.816
5.33504
5.57266
5.66023
5.65721
5.58911
5.49163
5.43292
5.45283
5.54165
5.66858
5.80601
5.93926
6.06469
6.18495
6.30112
6.40919
6.50765
6.59583
6.67385