/*--------------------------------*- C++ -*----------------------------------*\
| =========                 |                                                 |
| \\      /  F ield         | OpenFOAM: The Open Source CFD Toolbox           |
|  \\    /   O peration     | Version:  v2006                                 |
|   \\  /    A nd           | Website:  www.openfoam.com                      |
|    \\/     M anipulation  |                                                 |
\*---------------------------------------------------------------------------*/
FoamFile
{
    version     2.0;
    format      ascii;
    class       surfaceScalarField;
    location    "60";
    object      phi;
}
// * * * * * * * * * * * * * * * * * * * * * * * * * * * * * * * * * * * * * //

dimensions      [1 0 -1 0 0 0 0];
oriented        oriented;


internalField   nonuniform List<scalar> 
228225
(
2.21263e-07
-2.06637e-07
-1.45033e-09
6.81266e-07
-4.66891e-07
6.42071e-09
1.29124e-06
-6.29565e-07
1.92345e-08
1.99256e-06
-7.3482e-07
3.3201e-08
2.74894e-06
-8.03053e-07
4.63416e-08
3.53571e-06
-8.44905e-07
5.77463e-08
4.33409e-06
-8.65912e-07
6.70947e-08
5.12877e-06
-8.69532e-07
7.43561e-08
5.90654e-06
-8.57905e-07
7.96247e-08
6.65545e-06
-8.32488e-07
8.30434e-08
7.36452e-06
-7.94365e-07
8.47657e-08
8.02349e-06
-7.44424e-07
8.4921e-08
8.62281e-06
-6.83469e-07
8.36145e-08
9.15363e-06
-6.12283e-07
8.09293e-08
9.60784e-06
-5.3167e-07
7.69279e-08
9.97815e-06
-4.42491e-07
7.16551e-08
1.02582e-05
-3.45717e-07
6.51422e-08
1.04428e-05
-2.42518e-07
5.74084e-08
1.05284e-05
-1.34525e-07
4.84706e-08
1.05152e-05
-2.55736e-08
3.83538e-08
1.03936e-05
9.41203e-08
2.7094e-08
1.0165e-05
2.1339e-07
1.48468e-08
9.83331e-06
3.29113e-07
2.23771e-09
9.40784e-06
4.39284e-07
-1.4073e-08
8.89758e-06
5.40866e-07
-3.08241e-08
8.31443e-06
6.3066e-07
-4.76549e-08
7.67263e-06
7.06037e-07
-6.43338e-08
6.9868e-06
7.66278e-07
-8.04647e-08
6.26734e-06
8.15146e-07
-9.56437e-08
5.51094e-06
8.65946e-07
-1.09428e-07
4.68253e-06
9.49481e-07
-1.20849e-07
3.69768e-06
1.11234e-06
-1.27115e-07
2.45981e-06
1.36034e-06
-1.21828e-07
1.03163e-06
1.52471e-06
-9.54189e-08
1.07441e-06
-4.09395e-08
1.3887e-07
-3.59575e-07
1.4102e-08
4.94097e-07
-8.6626e-07
4.39258e-08
1.00563e-06
-1.21309e-06
7.17774e-08
1.62561e-06
-1.45099e-06
9.59916e-08
2.3174e-06
-1.61119e-06
1.16151e-07
3.05271e-06
-1.71296e-06
1.32538e-07
3.8095e-06
-1.76861e-06
1.45691e-07
4.56946e-06
-1.78588e-06
1.56156e-07
5.31664e-06
-1.76973e-06
1.644e-07
6.03698e-06
-1.72387e-06
1.7078e-07
6.71804e-06
-1.65126e-06
1.7555e-07
7.34882e-06
-1.55438e-06
1.78869e-07
7.9196e-06
-1.4354e-06
1.80827e-07
8.42176e-06
-1.29625e-06
1.81451e-07
8.84774e-06
-1.13874e-06
1.80719e-07
9.19078e-06
-9.64498e-07
1.78567e-07
9.44493e-06
-7.75163e-07
1.74892e-07
9.60491e-06
-5.72498e-07
1.69568e-07
9.66603e-06
-3.5851e-07
1.62431e-07
9.62236e-06
-1.35618e-07
1.53282e-07
9.48085e-06
9.32864e-08
1.41923e-07
9.241e-06
3.24702e-07
1.28129e-07
8.90442e-06
5.53633e-07
1.11697e-07
8.47604e-06
7.74855e-07
9.2494e-08
7.96356e-06
9.82609e-07
7.04889e-08
7.37687e-06
1.17138e-06
4.5802e-08
6.72678e-06
1.33731e-06
1.87451e-08
6.02292e-06
1.4806e-06
-1.04464e-08
5.26932e-06
1.61004e-06
-4.1189e-08
4.45771e-06
1.75012e-06
-7.23743e-08
3.56395e-06
1.94494e-06
-1.01438e-07
2.56391e-06
2.23451e-06
-1.21778e-07
1.49226e-06
2.55512e-06
-1.22553e-07
5.11922e-07
2.60032e-06
-9.43097e-08
1.62528e-06
-3.72976e-08
1.09643e-07
-4.96703e-07
2.72699e-08
4.0704e-07
-1.23536e-06
7.18374e-08
8.51794e-07
-1.76436e-06
1.06487e-07
1.39935e-06
-2.13115e-06
1.32515e-07
2.00849e-06
-2.37201e-06
1.51604e-07
2.64879e-06
-2.519e-06
1.65684e-07
3.30007e-06
-2.59642e-06
1.76483e-07
3.94698e-06
-2.61796e-06
1.85148e-07
4.57644e-06
-2.59158e-06
1.92373e-07
5.17718e-06
-2.52326e-06
1.98615e-07
5.73951e-06
-2.41778e-06
2.04151e-07
6.25506e-06
-2.27913e-06
2.09138e-07
6.71658e-06
-2.11064e-06
2.13651e-07
7.1178e-06
-1.91526e-06
2.17696e-07
7.4537e-06
-1.69597e-06
2.21228e-07
7.71983e-06
-1.45489e-06
2.24151e-07
7.91171e-06
-1.19347e-06
2.26293e-07
8.02538e-06
-9.13727e-07
2.27414e-07
8.05744e-06
-6.17921e-07
2.27182e-07
8.00512e-06
-3.08661e-07
2.2519e-07
7.86807e-06
9.19658e-09
2.20945e-07
7.64241e-06
3.36295e-07
2.13881e-07
7.33071e-06
6.61725e-07
2.03418e-07
6.937e-06
9.79407e-07
1.89002e-07
6.46884e-06
1.28048e-06
1.70163e-07
5.93708e-06
1.55652e-06
1.4657e-07
5.35378e-06
1.80257e-06
1.18056e-07
4.72872e-06
2.02115e-06
8.45996e-08
4.0652e-06
2.22744e-06
4.62851e-08
3.35812e-06
2.45462e-06
2.79815e-09
2.59328e-06
2.74916e-06
-3.91041e-08
1.77782e-06
3.12436e-06
-7.40194e-08
9.76469e-07
3.44447e-06
-8.7472e-08
3.08841e-07
3.3387e-06
-6.98678e-08
1.96126e-06
-2.56283e-08
1.10827e-07
-6.42218e-07
3.44584e-08
4.06242e-07
-1.61317e-06
8.23575e-08
8.38185e-07
-2.3111e-06
1.1474e-07
1.35687e-06
-2.78647e-06
1.36564e-07
1.91865e-06
-3.0853e-06
1.51424e-07
2.49426e-06
-3.25676e-06
1.62051e-07
3.0667e-06
-3.33931e-06
1.70353e-07
3.62516e-06
-3.35399e-06
1.77459e-07
4.16123e-06
-3.31163e-06
1.83876e-07
4.66788e-06
-3.2199e-06
1.8988e-07
5.13938e-06
-3.08501e-06
1.95632e-07
5.57109e-06
-2.91219e-06
2.01232e-07
5.95899e-06
-2.70541e-06
2.06749e-07
6.29864e-06
-2.46723e-06
2.122e-07
6.5853e-06
-2.20027e-06
2.1752e-07
6.81452e-06
-1.90694e-06
2.22701e-07
6.98212e-06
-1.58892e-06
2.27731e-07
7.08427e-06
-1.24846e-06
2.32467e-07
7.1175e-06
-8.87941e-07
2.36667e-07
7.0786e-06
-5.09855e-07
2.39975e-07
6.96306e-06
-1.17282e-07
2.4189e-07
6.77123e-06
2.86246e-07
2.41761e-07
6.49993e-06
6.94135e-07
2.38771e-07
6.14996e-06
1.09729e-06
2.32002e-07
5.72585e-06
1.48399e-06
2.20523e-07
5.23645e-06
1.84236e-06
2.03528e-07
4.69315e-06
2.16547e-06
1.80424e-07
4.10608e-06
2.45754e-06
1.50781e-07
3.48059e-06
2.73893e-06
1.14152e-07
2.8173e-06
3.04778e-06
7.03381e-08
2.11944e-06
3.42583e-06
2.14474e-08
1.40986e-06
3.85582e-06
-2.15337e-08
7.49483e-07
4.14971e-06
-4.43747e-08
2.26186e-07
3.90203e-06
-3.92359e-08
2.20149e-06
-1.26224e-08
1.08327e-07
-7.87328e-07
3.66315e-08
3.9282e-07
-1.97987e-06
8.20433e-08
8.0116e-07
-2.82932e-06
1.09824e-07
1.28154e-06
-3.3943e-06
1.27426e-07
1.79222e-06
-3.7352e-06
1.39186e-07
2.30796e-06
-3.92024e-06
1.47691e-07
2.81543e-06
-4.00123e-06
1.54372e-07
3.30733e-06
-4.006e-06
1.60022e-07
3.77821e-06
-3.94758e-06
1.64973e-07
4.22361e-06
-3.83488e-06
1.69463e-07
4.63998e-06
-3.67523e-06
1.73738e-07
5.02391e-06
-3.47425e-06
1.78027e-07
5.37099e-06
-3.23513e-06
1.82549e-07
5.6757e-06
-2.95957e-06
1.87533e-07
5.93184e-06
-2.64967e-06
1.93156e-07
6.13367e-06
-2.30837e-06
1.99499e-07
6.27698e-06
-1.93891e-06
2.06587e-07
6.35882e-06
-1.54476e-06
2.14344e-07
6.37749e-06
-1.12928e-06
2.22567e-07
6.33225e-06
-6.95627e-07
2.30899e-07
6.22286e-06
-2.46807e-07
2.38796e-07
6.04968e-06
2.13827e-07
2.45497e-07
5.81242e-06
6.81294e-07
2.50008e-07
5.51109e-06
1.14742e-06
2.51119e-07
5.14652e-06
1.60102e-06
2.47504e-07
4.72127e-06
2.02969e-06
2.37911e-07
4.23983e-06
2.4256e-06
2.21336e-07
3.70732e-06
2.79313e-06
1.96985e-07
3.12795e-06
3.15443e-06
1.63988e-07
2.50643e-06
3.54778e-06
1.21677e-07
1.85599e-06
4.00428e-06
7.21983e-08
1.21265e-06
4.47492e-06
2.44977e-08
6.32864e-07
4.73626e-06
-6.36108e-09
1.86066e-07
4.36085e-06
-1.13213e-08
2.39068e-06
-1.8205e-09
1.09865e-07
-9.28877e-07
3.16211e-08
3.85019e-07
-2.3239e-06
6.87388e-08
7.67079e-07
-3.30244e-06
9.09561e-08
1.20539e-06
-3.93791e-06
1.05214e-07
1.66305e-06
-4.30773e-06
1.14801e-07
2.12052e-06
-4.4991e-06
1.2132e-07
2.56933e-06
-4.57568e-06
1.2556e-07
3.00526e-06
-4.57004e-06
1.28039e-07
3.42493e-06
-4.49651e-06
1.29174e-07
3.82548e-06
-4.36493e-06
1.29423e-07
4.20387e-06
-4.18296e-06
1.29267e-07
4.55518e-06
-3.95482e-06
1.29163e-07
4.87243e-06
-3.68199e-06
1.29531e-07
5.14854e-06
-3.36653e-06
1.30769e-07
5.3772e-06
-3.01166e-06
1.33241e-07
5.55308e-06
-2.62159e-06
1.37257e-07
5.67234e-06
-2.20131e-06
1.43057e-07
5.73287e-06
-1.75615e-06
1.50778e-07
5.73431e-06
-1.29124e-06
1.6043e-07
5.67779e-06
-8.11037e-07
1.71841e-07
5.56547e-06
-3.19193e-07
1.84617e-07
5.40008e-06
1.81055e-07
1.98082e-07
5.18421e-06
6.8587e-07
2.11213e-07
4.91938e-06
1.18957e-06
2.22603e-07
4.60577e-06
1.68406e-06
2.30501e-07
4.24232e-06
2.16011e-06
2.32996e-07
3.82736e-06
2.61227e-06
2.28292e-07
3.3594e-06
3.0463e-06
2.14816e-07
2.83826e-06
3.4846e-06
1.91026e-07
2.26875e-06
3.96172e-06
1.55673e-07
1.66935e-06
4.49344e-06
1.10386e-07
1.08195e-06
4.99884e-06
6.36906e-08
5.58745e-07
5.23094e-06
2.88625e-08
1.6304e-07
4.74466e-06
1.25289e-08
2.54765e-06
7.31362e-09
9.8431e-08
-1.05435e-06
2.7012e-08
3.43053e-07
-2.62798e-06
5.93865e-08
6.80026e-07
-3.71944e-06
7.99145e-08
1.06431e-06
-4.41617e-06
9.38521e-08
1.46462e-06
-4.81142e-06
1.0327e-07
1.86541e-06
-5.00916e-06
1.09169e-07
2.26039e-06
-5.08291e-06
1.12162e-07
2.6466e-06
-5.06917e-06
1.1284e-07
3.02173e-06
-4.98345e-06
1.11725e-07
3.38346e-06
-4.83607e-06
1.09333e-07
3.72772e-06
-4.63346e-06
1.06156e-07
4.04799e-06
-4.37778e-06
1.02614e-07
4.33725e-06
-4.0705e-06
9.9162e-08
4.58879e-06
-3.71442e-06
9.62597e-08
4.79644e-06
-3.31379e-06
9.43894e-08
4.95524e-06
-2.87448e-06
9.39951e-08
5.06193e-06
-2.40355e-06
9.54628e-08
5.11508e-06
-1.90852e-06
9.91266e-08
5.115e-06
-1.3965e-06
1.0525e-07
5.06347e-06
-8.73571e-07
1.13978e-07
4.96329e-06
-3.44394e-07
1.25301e-07
4.81777e-06
1.87543e-07
1.38943e-07
4.63025e-06
7.19072e-07
1.5425e-07
4.4028e-06
1.24684e-06
1.70112e-07
4.13538e-06
1.76651e-06
1.84903e-07
3.82509e-06
2.27379e-06
1.96553e-07
3.4666e-06
2.768e-06
2.0273e-07
3.05389e-06
3.25804e-06
2.00945e-07
2.58356e-06
3.76641e-06
1.88533e-07
2.0604e-06
4.32152e-06
1.63415e-07
1.50648e-06
4.92108e-06
1.26359e-07
9.67511e-07
5.45363e-06
8.43152e-08
4.92665e-07
5.65699e-06
4.90665e-08
1.4086e-07
5.07044e-06
2.66001e-08
2.67858e-06
1.11093e-08
9.09576e-08
-1.16817e-06
2.27202e-08
3.13615e-07
-2.90203e-06
5.13167e-08
6.18419e-07
-4.09501e-06
7.06893e-08
9.65538e-07
-4.8479e-06
8.45363e-08
1.32749e-06
-5.26755e-06
9.41019e-08
1.69071e-06
-5.4725e-06
1.00036e-07
2.04958e-06
-5.54469e-06
1.02833e-07
2.40147e-06
-5.52421e-06
1.03069e-07
2.74466e-06
-5.42806e-06
1.01347e-07
3.07623e-06
-5.26587e-06
9.81525e-08
3.3909e-06
-5.04208e-06
9.38788e-08
3.68245e-06
-4.75825e-06
8.88523e-08
3.94473e-06
-4.41628e-06
8.34267e-08
4.17168e-06
-4.01951e-06
7.8063e-08
4.35795e-06
-3.57341e-06
7.32856e-08
4.49938e-06
-3.0856e-06
6.96177e-08
4.59339e-06
-2.56516e-06
6.75182e-08
4.63911e-06
-2.02169e-06
6.73747e-08
4.63729e-06
-1.46431e-06
6.95548e-08
4.59e-06
-9.00774e-07
7.44098e-08
4.50031e-06
-3.36993e-07
8.21979e-08
4.37194e-06
2.22838e-07
9.29928e-08
4.20846e-06
7.75875e-07
1.06596e-07
4.01234e-06
1.32045e-06
1.22423e-07
3.78339e-06
1.85603e-06
1.39351e-07
3.51766e-06
2.38383e-06
1.55627e-07
3.20743e-06
2.90927e-06
1.68895e-07
2.84326e-06
3.44593e-06
1.76239e-07
2.41834e-06
4.01704e-06
1.74265e-07
1.9359e-06
4.64412e-06
1.59846e-07
1.41887e-06
5.3059e-06
1.32262e-07
9.13819e-07
5.86236e-06
9.6416e-08
4.67532e-07
6.04123e-06
6.22721e-08
1.35561e-07
5.36721e-06
3.57357e-08
2.80195e-06
1.33374e-08
8.1203e-08
-1.2695e-06
1.99419e-08
2.81873e-07
-3.14966e-06
4.6876e-08
5.58051e-07
-4.43758e-06
6.63406e-08
8.73881e-07
-5.24447e-06
8.06862e-08
1.2045e-06
-5.68879e-06
9.05616e-08
1.53755e-06
-5.90212e-06
9.64905e-08
1.86797e-06
-5.97425e-06
9.906e-08
2.1929e-06
-5.94813e-06
9.89111e-08
2.51025e-06
-5.84224e-06
9.67469e-08
2.81639e-06
-5.66516e-06
9.30616e-08
3.10635e-06
-5.42029e-06
8.81646e-08
3.37489e-06
-5.10921e-06
8.23292e-08
3.61651e-06
-4.73381e-06
7.58349e-08
3.82589e-06
-4.29803e-06
6.90618e-08
3.9985e-06
-3.80853e-06
6.24399e-08
4.13086e-06
-3.27446e-06
5.64238e-08
4.22076e-06
-2.70661e-06
5.14821e-08
4.26726e-06
-2.11631e-06
4.80633e-08
4.27074e-06
-1.51442e-06
4.65472e-08
4.23271e-06
-9.10178e-07
4.73537e-08
4.15561e-06
-3.10859e-07
5.08948e-08
4.04258e-06
2.78274e-07
5.75051e-08
3.89703e-06
8.53986e-07
6.7361e-08
3.72141e-06
1.41561e-06
8.03719e-08
3.51583e-06
1.96551e-06
9.6016e-08
3.27665e-06
2.50979e-06
1.13148e-07
2.99602e-06
3.05998e-06
1.29844e-07
2.66353e-06
3.63508e-06
1.4329e-07
2.2709e-06
4.25987e-06
1.49753e-07
1.8203e-06
4.94948e-06
1.45211e-07
1.33427e-06
5.66454e-06
1.27383e-07
8.58493e-07
6.23929e-06
9.8907e-08
4.37798e-07
6.39444e-06
6.76797e-08
1.2651e-07
5.63937e-06
3.96297e-08
2.91576e-06
1.38103e-08
7.50833e-08
-1.36337e-06
1.86703e-08
2.60662e-07
-3.38069e-06
4.53509e-08
5.16821e-07
-4.75909e-06
6.52658e-08
8.10574e-07
-5.61843e-06
8.01361e-08
1.1187e-06
-6.08748e-06
9.04888e-08
1.4295e-06
-6.30986e-06
9.68639e-08
1.73807e-06
-6.38276e-06
9.98674e-08
2.04153e-06
-6.35183e-06
1.00149e-07
2.33716e-06
-6.2363e-06
9.83508e-08
2.62133e-06
-6.04436e-06
9.49504e-08
2.88982e-06
-5.77912e-06
9.02588e-08
3.13789e-06
-5.44183e-06
8.4479e-08
3.36072e-06
-5.03456e-06
7.78448e-08
3.55389e-06
-4.56194e-06
7.06564e-08
3.71377e-06
-4.03174e-06
6.32558e-08
3.83768e-06
-3.45446e-06
5.60165e-08
3.92391e-06
-2.84226e-06
4.93495e-08
3.97171e-06
-2.20787e-06
4.36809e-08
3.98128e-06
-1.56345e-06
3.93914e-08
3.95368e-06
-9.19544e-07
3.68882e-08
3.89073e-06
-2.84628e-07
3.66338e-08
3.79487e-06
3.34982e-07
3.90737e-08
3.66868e-06
9.35499e-07
4.45939e-08
3.51402e-06
1.51675e-06
5.34452e-08
3.33058e-06
2.08324e-06
6.5614e-08
3.11457e-06
2.64509e-06
8.06154e-08
2.85811e-06
3.21913e-06
9.72255e-08
2.55057e-06
3.82937e-06
1.13169e-07
2.18304e-06
4.50245e-06
1.24872e-07
1.75682e-06
5.24781e-06
1.27828e-07
1.29338e-06
6.0095e-06
1.18431e-07
8.36542e-07
6.59905e-06
9.71002e-08
4.29459e-07
6.73211e-06
6.95621e-08
1.25695e-07
5.90208e-06
4.1523e-08
3.02853e-06
1.40049e-08
7.19101e-08
-1.45313e-06
1.77832e-08
2.49662e-07
-3.60264e-06
4.40811e-08
4.94671e-07
-5.06824e-06
6.40262e-08
7.74897e-07
-5.97772e-06
7.89592e-08
1.06804e-06
-6.47004e-06
8.93343e-08
1.36307e-06
-6.70071e-06
9.5733e-08
1.65539e-06
-6.774e-06
9.88442e-08
1.94218e-06
-6.73806e-06
9.9384e-08
2.22055e-06
-6.61272e-06
9.79797e-08
2.48707e-06
-6.40604e-06
9.50963e-08
2.73775e-06
-6.12085e-06
9.09895e-08
2.96833e-06
-5.75829e-06
8.58059e-08
3.17471e-06
-5.32072e-06
7.97156e-08
3.35327e-06
-4.8135e-06
7.29289e-08
3.5012e-06
-4.24542e-06
6.56815e-08
3.61647e-06
-3.62804e-06
5.82486e-08
3.69778e-06
-2.9746e-06
5.0951e-08
3.74449e-06
-2.2988e-06
4.41459e-08
3.7566e-06
-1.61381e-06
3.81779e-08
3.73473e-06
-9.31181e-07
3.34375e-08
3.68005e-06
-2.60422e-07
3.03928e-08
3.59433e-06
3.91095e-07
2.95305e-08
3.47958e-06
1.01884e-06
3.13276e-08
3.33722e-06
1.62281e-06
3.62169e-08
3.16682e-06
2.20905e-06
4.45071e-08
2.9648e-06
2.7908e-06
5.62219e-08
2.72375e-06
3.38928e-06
7.08153e-08
2.43345e-06
4.03284e-06
8.67341e-08
2.08513e-06
4.74974e-06
1.00937e-07
1.67971e-06
5.54424e-06
1.08915e-07
1.23752e-06
6.34541e-06
1.06204e-07
8.00236e-07
6.94496e-06
9.13492e-08
4.0952e-07
7.05502e-06
6.79232e-08
1.19117e-07
6.15183e-06
4.10935e-08
3.13519e-06
1.34895e-08
6.85123e-08
-1.53954e-06
1.77802e-08
2.38223e-07
-3.81711e-06
4.46694e-08
4.7195e-07
-5.3672e-06
6.51445e-08
7.38583e-07
-6.32486e-06
8.04239e-08
1.01674e-06
-6.83932e-06
9.10329e-08
1.2961e-06
-7.07777e-06
9.76143e-08
1.57235e-06
-7.15123e-06
1.00898e-07
1.8428e-06
-7.11024e-06
1.01644e-07
2.10464e-06
-6.97515e-06
1.00513e-07
2.35456e-06
-6.75401e-06
9.79797e-08
2.58883e-06
-6.4495e-06
9.43036e-08
2.80369e-06
-6.06284e-06
8.96208e-08
2.99563e-06
-5.59682e-06
8.40772e-08
3.1618e-06
-5.05757e-06
7.78317e-08
3.30005e-06
-4.45478e-06
7.10488e-08
3.40892e-06
-3.8009e-06
6.3914e-08
3.48749e-06
-3.10989e-06
5.665e-08
3.53526e-06
-2.39616e-06
4.95206e-08
3.5521e-06
-1.67352e-06
4.2794e-08
3.53825e-06
-9.54202e-07
3.67953e-08
3.49431e-06
-2.48507e-07
3.19455e-08
3.42126e-06
4.35356e-07
2.87129e-08
3.32025e-06
1.09217e-06
2.75922e-08
3.19194e-06
1.72194e-06
2.90885e-08
3.0354e-06
2.33183e-06
3.36804e-08
2.84695e-06
2.93745e-06
4.17194e-08
2.61951e-06
3.56342e-06
5.31901e-08
2.34351e-06
4.2415e-06
6.72483e-08
2.01074e-06
5.00082e-06
8.15814e-08
1.62221e-06
5.84057e-06
9.20924e-08
1.19742e-06
6.67613e-06
9.39687e-08
7.75847e-07
7.28212e-06
8.43588e-08
3.97476e-07
7.3686e-06
6.48781e-08
1.15775e-07
6.39408e-06
3.98466e-08
3.23911e-06
1.28611e-08
6.82449e-08
-1.62549e-06
1.75687e-08
2.35633e-07
-4.02884e-06
4.42621e-08
4.64211e-07
-5.66031e-06
6.44624e-08
7.22872e-07
-6.66302e-06
7.94273e-08
9.90865e-07
-7.1972e-06
8.98147e-08
1.25861e-06
-7.44194e-06
9.63506e-08
1.52219e-06
-7.51468e-06
9.97847e-08
1.77909e-06
-7.46806e-06
1.00857e-07
2.02661e-06
-7.32294e-06
1.00188e-07
2.26163e-06
-7.08732e-06
9.82169e-08
2.48076e-06
-6.7639e-06
9.51875e-08
2.6807e-06
-6.35408e-06
9.12266e-08
2.85858e-06
-5.86122e-06
8.64557e-08
3.01219e-06
-5.29223e-06
8.09933e-08
3.14e-06
-4.65761e-06
7.4953e-08
3.24103e-06
-3.97045e-06
6.84581e-08
3.31466e-06
-3.24523e-06
6.16548e-08
3.36049e-06
-2.49678e-06
5.47244e-08
3.3783e-06
-1.73926e-06
4.78682e-08
3.36804e-06
-9.85362e-07
4.13491e-08
3.32987e-06
-2.45938e-07
3.55282e-08
3.26423e-06
4.7009e-07
3.08313e-08
3.1717e-06
1.15689e-06
2.7732e-08
3.05241e-06
1.8144e-06
2.67432e-08
2.9051e-06
2.45065e-06
2.84047e-08
2.72605e-06
3.08316e-06
3.32325e-08
2.50857e-06
3.73926e-06
4.1547e-08
2.24378e-06
4.45313e-06
5.30573e-08
1.92427e-06
5.25404e-06
6.61683e-08
1.5515e-06
6.1358e-06
7.74131e-08
1.14442e-06
7.00102e-06
8.20685e-08
7.4042e-07
7.6096e-06
7.64288e-08
3.77655e-07
7.6709e-06
6.05118e-08
1.09101e-07
6.6253e-06
3.76927e-08
3.33713e-06
1.20451e-08
6.63312e-08
-1.70978e-06
1.78343e-08
2.28729e-07
-4.23629e-06
4.49502e-08
4.49534e-07
-5.94652e-06
6.53137e-08
6.97915e-07
-6.99174e-06
8.02635e-08
9.53923e-07
-7.54386e-06
9.05765e-08
1.20875e-06
-7.79389e-06
9.70476e-08
1.45889e-06
-7.86537e-06
1.00476e-07
1.70196e-06
-7.81285e-06
1.01644e-07
1.93536e-06
-7.65761e-06
1.0119e-07
2.15614e-06
-7.40773e-06
9.95534e-08
2.36121e-06
-7.06602e-06
9.698e-08
2.54771e-06
-6.63424e-06
9.3593e-08
2.71335e-06
-6.11642e-06
8.94997e-08
2.8565e-06
-5.52024e-06
8.47898e-08
2.97618e-06
-4.85689e-06
7.95351e-08
3.07183e-06
-4.13996e-06
7.38005e-08
3.14308e-06
-3.3842e-06
6.76599e-08
3.18959e-06
-2.60457e-06
6.12159e-08
3.21099e-06
-1.81533e-06
5.45976e-08
3.2069e-06
-1.02934e-06
4.79971e-08
3.17695e-06
-2.57759e-07
4.17051e-08
3.12089e-06
4.89978e-07
3.60915e-08
3.03859e-06
1.20751e-06
3.15944e-08
2.92951e-06
1.89468e-06
2.87128e-08
2.79191e-06
2.56015e-06
2.80029e-08
2.62198e-06
3.22294e-06
3.00545e-08
2.41333e-06
3.91241e-06
3.53776e-08
2.1579e-06
4.66437e-06
4.4063e-08
1.84936e-06
5.50732e-06
5.51212e-08
1.48997e-06
6.42926e-06
6.57754e-08
1.09853e-06
7.32062e-06
7.16785e-08
7.10448e-07
7.92883e-06
6.87345e-08
3.61767e-07
7.96382e-06
5.57634e-08
1.0426e-07
6.84795e-06
3.5189e-08
3.43112e-06
1.11929e-08
6.64837e-08
-1.79415e-06
1.77828e-08
2.27031e-07
-4.44153e-06
4.45881e-08
4.43099e-07
-6.22714e-06
6.44533e-08
6.8395e-07
-7.31156e-06
7.88853e-08
9.30379e-07
-7.8792e-06
8.88269e-08
1.17437e-06
-8.1331e-06
9.51443e-08
1.41281e-06
-8.20252e-06
9.86284e-08
1.6435e-06
-8.14363e-06
1.00023e-07
1.86399e-06
-7.97808e-06
9.99253e-08
2.07151e-06
-7.71407e-06
9.87496e-08
2.2633e-06
-7.35461e-06
9.67367e-08
2.43694e-06
-6.90195e-06
9.40117e-08
2.59063e-06
-6.36085e-06
9.06708e-08
2.72331e-06
-5.73976e-06
8.67852e-08
2.83446e-06
-5.0505e-06
8.23987e-08
2.92388e-06
-4.30697e-06
7.75361e-08
2.99143e-06
-3.52403e-06
7.22195e-08
3.03685e-06
-2.71654e-06
6.64892e-08
3.05967e-06
-1.89862e-06
6.04109e-08
3.05924e-06
-1.08308e-06
5.41092e-08
3.03476e-06
-2.81153e-07
4.78024e-08
2.98547e-06
4.97397e-07
4.17966e-08
2.91065e-06
1.24578e-06
3.64813e-08
2.8092e-06
1.96371e-06
3.23246e-08
2.67902e-06
2.66037e-06
2.98717e-08
2.51616e-06
3.35597e-06
2.97344e-08
2.31456e-06
4.08139e-06
3.25156e-08
2.06693e-06
4.87333e-06
3.85432e-08
1.76811e-06
5.7587e-06
4.72849e-08
1.42142e-06
6.71918e-06
5.66021e-08
1.04573e-06
7.63344e-06
6.26746e-08
6.74609e-07
8.23841e-06
6.13801e-08
3.4189e-07
8.24577e-06
5.07401e-08
9.77947e-08
7.05999e-06
3.23318e-08
3.51957e-06
1.02336e-08
6.49651e-08
-1.87727e-06
1.80413e-08
2.21477e-07
-4.64312e-06
4.49676e-08
4.30997e-07
-6.50141e-06
6.46603e-08
6.62965e-07
-7.62241e-06
7.87929e-08
8.98962e-07
-8.20372e-06
8.84447e-08
1.13171e-06
-8.46048e-06
9.45522e-08
1.35845e-06
-8.52728e-06
9.79438e-08
1.5771e-06
-8.46173e-06
9.93833e-08
1.78532e-06
-8.28584e-06
9.94649e-08
1.98054e-06
-8.00795e-06
9.85943e-08
2.16026e-06
-7.6314e-06
9.70105e-08
2.32247e-06
-7.15907e-06
9.48381e-08
2.46586e-06
-6.59647e-06
9.21631e-08
2.58983e-06
-5.95283e-06
8.90395e-08
2.69428e-06
-5.24049e-06
8.5485e-08
2.77933e-06
-4.47357e-06
8.14893e-08
2.84506e-06
-3.66685e-06
7.70288e-08
2.89125e-06
-2.83488e-06
7.20879e-08
2.9173e-06
-1.99141e-06
6.66716e-08
2.92223e-06
-1.14891e-06
6.08379e-08
2.90475e-06
-3.18474e-07
5.47333e-08
2.86345e-06
4.90023e-07
4.85981e-08
2.79692e-06
1.26947e-06
4.27708e-08
2.70347e-06
2.01939e-06
3.76847e-08
2.58055e-06
2.74932e-06
3.38656e-08
2.42413e-06
3.48036e-06
3.19233e-08
2.22847e-06
4.24442e-06
3.25011e-08
1.98716e-06
5.07843e-06
3.60669e-08
1.69631e-06
6.00696e-06
4.24148e-08
1.36048e-06
7.00485e-06
4.99482e-08
9.98869e-07
7.93941e-06
5.54173e-08
6.43258e-07
8.53891e-06
5.49131e-08
3.25146e-07
8.51782e-06
4.59956e-08
9.27359e-08
7.26312e-06
2.9531e-08
3.60383e-06
9.32886e-09
6.4729e-08
-1.96015e-06
1.80318e-08
2.18796e-07
-4.8418e-06
4.45232e-08
4.23075e-07
-6.76934e-06
6.3571e-08
6.4734e-07
-7.92382e-06
7.70671e-08
8.74009e-07
-8.51671e-06
8.62529e-08
1.09654e-06
-8.7752e-06
9.21187e-08
1.31251e-06
-8.8388e-06
9.54743e-08
1.51999e-06
-8.76633e-06
9.70442e-08
1.71676e-06
-8.58007e-06
9.7387e-08
1.90045e-06
-8.28859e-06
9.68868e-08
2.06885e-06
-7.89564e-06
9.57799e-08
2.22029e-06
-7.40477e-06
9.41936e-08
2.35387e-06
-6.82231e-06
9.2208e-08
2.46936e-06
-6.15825e-06
8.98663e-08
2.56703e-06
-5.42538e-06
8.71698e-08
2.64728e-06
-4.63796e-06
8.4084e-08
2.7104e-06
-3.81057e-06
8.0553e-08
2.75625e-06
-2.9573e-06
7.65166e-08
2.78419e-06
-2.09132e-06
7.19267e-08
2.79298e-06
-1.22454e-06
6.67779e-08
2.78096e-06
-3.67656e-07
6.1143e-08
2.74613e-06
4.69584e-07
5.51905e-08
2.68646e-06
1.27987e-06
4.91983e-08
2.59968e-06
2.06253e-06
4.35576e-08
2.48285e-06
2.82729e-06
3.87665e-08
2.33182e-06
3.59585e-06
3.54209e-08
2.14119e-06
4.40075e-06
3.41753e-08
1.90539e-06
5.27851e-06
3.55776e-08
1.62185e-06
6.25066e-06
3.96495e-08
1.29645e-06
7.28479e-06
4.52325e-08
9.48822e-07
8.23715e-06
4.9629e-08
6.09046e-07
8.82917e-06
4.92888e-08
3.06363e-07
8.77882e-06
4.15823e-08
8.67966e-08
7.45608e-06
2.68268e-08
3.68299e-06
8.47116e-09
6.3334e-08
-2.04184e-06
1.82298e-08
2.13657e-07
-5.0368e-06
4.45863e-08
4.11943e-07
-7.03092e-06
6.32105e-08
6.28235e-07
-8.2164e-06
7.62069e-08
8.45711e-07
-8.81923e-06
8.49638e-08
1.05846e-06
-9.07856e-06
9.05357e-08
1.26434e-06
-9.1385e-06
9.37524e-08
1.46151e-06
-9.0589e-06
9.53352e-08
1.64785e-06
-8.86232e-06
9.58265e-08
1.82117e-06
-8.55756e-06
9.55959e-08
1.97949e-06
-8.14891e-06
9.48765e-08
2.12149e-06
-7.64062e-06
9.37944e-08
2.24659e-06
-7.03989e-06
9.24224e-08
2.35491e-06
-6.35742e-06
9.07932e-08
2.44702e-06
-5.60643e-06
8.88938e-08
2.52359e-06
-4.80126e-06
8.66702e-08
2.5851e-06
-3.95617e-06
8.40389e-08
2.63151e-06
-3.08467e-06
8.09038e-08
2.66211e-06
-2.19915e-06
7.7171e-08
2.67546e-06
-1.31073e-06
7.27772e-08
2.66945e-06
-4.29433e-07
6.77254e-08
2.64149e-06
4.35364e-07
6.21104e-08
2.58883e-06
1.27631e-06
5.61449e-08
2.50859e-06
2.09251e-06
5.01712e-08
2.39742e-06
2.89372e-06
4.46551e-08
2.25108e-06
3.7019e-06
4.01723e-08
2.06454e-06
4.54978e-06
3.73732e-08
1.83313e-06
5.4729e-06
3.68494e-08
1.55563e-06
6.48916e-06
3.87823e-08
1.2393e-06
7.55849e-06
4.23629e-08
9.04253e-07
8.52652e-06
4.53955e-08
5.78927e-07
9.10948e-06
4.47539e-08
2.90305e-07
9.02951e-06
3.7812e-08
8.19979e-08
7.6401e-06
2.44789e-08
3.75802e-06
7.76834e-09
6.28278e-08
-2.123e-06
1.82102e-08
2.1035e-07
-5.22842e-06
4.40009e-08
4.03297e-07
-7.28581e-06
6.18462e-08
6.12184e-07
-8.49947e-06
7.41025e-08
8.2103e-07
-9.11047e-06
8.23186e-08
1.02456e-06
-9.36975e-06
8.75873e-08
1.22089e-06
-9.42561e-06
9.07093e-08
1.4083e-06
-9.33874e-06
9.23622e-08
1.5848e-06
-9.13193e-06
9.30525e-08
1.74834e-06
-8.81429e-06
9.31289e-08
1.8972e-06
-8.39065e-06
9.28202e-08
2.03029e-06
-7.86603e-06
9.22536e-08
2.14732e-06
-7.24848e-06
9.14976e-08
2.24866e-06
-6.54939e-06
9.05782e-08
2.33513e-06
-5.78242e-06
8.94744e-08
2.40763e-06
-4.96193e-06
8.81206e-08
2.46684e-06
-4.10185e-06
8.64154e-08
2.51287e-06
-3.21499e-06
8.42347e-08
2.54504e-06
-2.31282e-06
8.14461e-08
2.56178e-06
-1.40546e-06
7.79343e-08
2.56067e-06
-5.02014e-07
7.3635e-08
2.53858e-06
3.88823e-07
6.85661e-08
2.49209e-06
1.25985e-06
6.28662e-08
2.41771e-06
2.10999e-06
5.68187e-08
2.31166e-06
2.94882e-06
5.08497e-08
2.16961e-06
3.79833e-06
4.551e-08
1.98686e-06
4.69094e-06
4.14389e-08
1.75964e-06
5.6607e-06
3.92511e-08
1.48806e-06
6.72126e-06
3.92419e-08
1.18073e-06
7.82467e-06
4.08825e-08
8.58197e-07
8.80632e-06
4.24211e-08
5.47364e-07
9.37885e-06
4.11747e-08
2.73117e-07
9.26895e-06
3.46509e-08
7.66508e-08
7.81426e-06
2.24791e-08
3.82825e-06
7.20421e-09
6.15063e-08
-2.20293e-06
1.8312e-08
2.05522e-07
-5.41625e-06
4.37163e-08
3.93001e-07
-7.53429e-06
6.09136e-08
5.94805e-07
-8.77386e-06
7.25059e-08
7.95654e-07
-9.39159e-06
8.01942e-08
9.90797e-07
-9.65008e-06
8.51205e-08
1.17854e-06
-9.70151e-06
8.80817e-08
1.35724e-06
-9.60724e-06
8.97321e-08
1.525e-06
-9.39031e-06
9.05514e-08
1.67991e-06
-9.06014e-06
9.08701e-08
1.82045e-06
-8.62216e-06
9.09112e-08
1.94577e-06
-8.0822e-06
9.07994e-08
2.05577e-06
-7.44913e-06
9.05971e-08
2.15105e-06
-6.73505e-06
9.03238e-08
2.23265e-06
-5.95402e-06
8.99517e-08
2.30169e-06
-5.12043e-06
8.94062e-08
2.35904e-06
-4.24782e-06
8.85734e-08
2.40496e-06
-3.34827e-06
8.73095e-08
2.43883e-06
-2.43219e-06
8.54524e-08
2.45897e-06
-1.5085e-06
8.28429e-08
2.46267e-06
-5.85128e-07
7.93555e-08
2.44629e-06
3.3021e-07
7.49338e-08
2.40573e-06
1.2307e-06
6.96378e-08
2.33687e-06
2.11508e-06
6.36839e-08
2.23549e-06
2.99266e-06
5.74503e-08
2.09716e-06
3.88508e-06
5.14579e-08
1.91757e-06
4.82406e-06
4.63294e-08
1.69383e-06
5.84155e-06
4.26907e-08
1.42738e-06
6.94654e-06
4.09204e-08
1.1281e-06
8.08292e-06
4.0715e-08
8.17012e-07
9.07637e-06
4.07091e-08
5.1945e-07
9.63745e-06
3.86492e-08
2.58291e-07
9.49768e-06
3.2256e-08
7.22473e-08
7.97948e-06
2.09755e-08
3.89443e-06
6.84806e-09
6.0887e-08
-2.28215e-06
1.8218e-08
2.02147e-07
-5.60048e-06
4.28724e-08
3.84676e-07
-7.77604e-06
5.9135e-08
5.79836e-07
-9.03898e-06
6.98811e-08
7.73109e-07
-9.6619e-06
7.69664e-08
9.60267e-07
-9.91886e-06
8.155e-08
1.13982e-06
-9.96551e-06
8.43825e-08
1.31023e-06
-9.86378e-06
8.60666e-08
1.46969e-06
-9.63687e-06
8.70441e-08
1.61644e-06
-9.29459e-06
8.7624e-08
1.74913e-06
-8.84293e-06
8.80233e-08
1.86704e-06
-8.28853e-06
8.83658e-08
1.97025e-06
-7.64111e-06
8.87104e-08
2.05953e-06
-6.91345e-06
8.90728e-08
2.13607e-06
-6.12003e-06
8.94215e-08
2.20119e-06
-5.27528e-06
8.96779e-08
2.25597e-06
-4.39237e-06
8.97209e-08
2.30086e-06
-3.4826e-06
8.93934e-08
2.33537e-06
-2.55526e-06
8.85106e-08
2.35784e-06
-1.6179e-06
8.68757e-08
2.36536e-06
-6.77009e-07
8.43071e-08
2.35386e-06
2.60969e-07
8.06746e-08
2.31865e-06
1.18989e-06
7.59556e-08
2.25496e-06
2.1084e-06
7.02898e-08
2.1581e-06
3.02542e-06
6.3999e-08
2.02352e-06
3.96196e-06
5.75688e-08
1.84725e-06
4.94857e-06
5.16068e-08
1.62723e-06
6.01462e-06
4.67462e-08
1.36617e-06
7.16392e-06
4.3428e-08
1.07514e-06
8.33211e-06
4.15278e-08
7.75479e-07
9.33566e-06
4.00138e-08
4.91071e-07
9.8845e-06
3.70338e-08
2.42992e-07
9.71501e-06
3.05635e-08
6.75531e-08
8.13512e-06
1.99449e-08
3.95606e-06
6.68914e-09
5.96534e-08
-2.3601e-06
1.81742e-08
1.97721e-07
-5.78081e-06
4.21636e-08
3.75424e-07
-8.01139e-06
5.75622e-08
5.64479e-07
-9.29562e-06
6.75067e-08
7.50963e-07
-9.92246e-06
7.39957e-08
9.3106e-07
-1.01772e-05
7.82096e-08
1.10343e-06
-1.02188e-05
8.08689e-08
1.26659e-06
-1.01095e-05
8.25368e-08
1.41883e-06
-9.87281e-06
8.36225e-08
1.55851e-06
-9.51874e-06
8.44146e-08
1.68437e-06
-9.05397e-06
8.51226e-08
1.79584e-06
-8.48593e-06
8.58675e-08
1.89313e-06
-7.82515e-06
8.67033e-08
1.97711e-06
-7.08513e-06
8.76416e-08
2.04915e-06
-6.28076e-06
8.86477e-08
2.11073e-06
-5.42654e-06
8.96411e-08
2.1631e-06
-4.53528e-06
9.04971e-08
2.20692e-06
-3.61751e-06
9.10517e-08
2.24183e-06
-2.68133e-06
9.11055e-08
2.26623e-06
-1.73278e-06
9.04333e-08
2.27709e-06
-7.7672e-07
8.88065e-08
2.26997e-06
1.81995e-07
8.60271e-08
2.23963e-06
1.13817e-06
8.19882e-08
2.18067e-06
2.09053e-06
7.6746e-08
2.08795e-06
3.04749e-06
7.05542e-08
1.95679e-06
4.02915e-06
6.38545e-08
1.78352e-06
5.06444e-06
5.72339e-08
1.56695e-06
6.17966e-06
5.13329e-08
1.31091e-06
7.37304e-06
4.66514e-08
1.02757e-06
8.5719e-06
4.32242e-08
7.38492e-07
9.58408e-06
4.02914e-08
4.66153e-07
1.01202e-05
3.63482e-08
2.29919e-07
9.9214e-06
2.96463e-08
6.37297e-08
8.28197e-06
1.94856e-08
4.01378e-06
6.79408e-09
5.90429e-08
-2.4372e-06
1.79392e-08
1.94634e-07
-5.95744e-06
4.09436e-08
3.68075e-07
-8.24016e-06
5.52426e-08
5.51518e-07
-9.54338e-06
6.42465e-08
7.31654e-07
-1.01728e-05
7.00886e-08
9.05068e-07
-1.04247e-05
7.39364e-08
1.0706e-06
-1.04609e-05
7.64449e-08
1.22689e-06
-1.0344e-05
7.81187e-08
1.37232e-06
-1.00976e-05
7.93278e-08
1.50532e-06
-9.73214e-06
8.03386e-08
1.62471e-06
-9.25478e-06
8.13533e-08
1.73e-06
-8.67376e-06
8.24915e-08
1.82147e-06
-8.00047e-06
8.38047e-08
1.90012e-06
-7.24913e-06
8.53019e-08
1.96741e-06
-6.43505e-06
8.69475e-08
2.02498e-06
-5.57281e-06
8.86605e-08
2.07428e-06
-4.67494e-06
9.03159e-08
2.11616e-06
-3.75118e-06
9.17469e-08
2.15049e-06
-2.80844e-06
9.27451e-08
2.17578e-06
-1.85119e-06
9.30649e-08
2.189e-06
-8.82428e-07
9.24383e-08
2.18549e-06
9.48398e-08
9.06052e-08
2.15951e-06
1.07672e-06
8.7375e-08
2.10507e-06
2.06219e-06
8.27126e-08
2.01651e-06
3.05916e-06
7.67942e-08
1.88897e-06
4.08656e-06
7.00081e-08
1.71907e-06
5.17127e-06
6.29158e-08
1.50636e-06
6.33599e-06
5.61634e-08
1.25575e-06
7.57307e-06
5.03041e-08
9.80331e-07
8.80147e-06
4.55129e-08
7.01805e-07
9.82095e-06
4.12745e-08
4.41279e-07
1.0344e-05
3.63828e-08
2.16681e-07
1.01165e-05
2.93255e-08
5.9736e-08
8.41968e-06
1.93847e-08
4.0673e-06
6.99966e-09
5.79935e-08
-2.51301e-06
1.77019e-08
1.90855e-07
-6.13014e-06
3.97427e-08
3.60244e-07
-8.46261e-06
5.29778e-08
5.38657e-07
-9.78294e-06
6.10705e-08
7.13233e-07
-1.04137e-05