/*--------------------------------*- C++ -*----------------------------------*\
| =========                 |                                                 |
| \\      /  F ield         | OpenFOAM: The Open Source CFD Toolbox           |
|  \\    /   O peration     | Version:  v2012                                 |
|   \\  /    A nd           | Website:  www.openfoam.com                      |
|    \\/     M anipulation  |                                                 |
\*---------------------------------------------------------------------------*/
FoamFile
{
    version     2.0;
    format      ascii;
    class       volVectorField;
    location    "91";
    object      U;
}
// * * * * * * * * * * * * * * * * * * * * * * * * * * * * * * * * * * * * * //

dimensions      [0 1 -1 0 0 0 0];


internalField   nonuniform List<vector> 
78750
(
(-7.92297e-07 -5.83956e-05 0.000123775)
(-9.33947e-07 -8.56283e-05 0.00021712)
(-3.95759e-06 -9.12875e-05 0.000265091)
(-9.42815e-06 -8.85675e-05 0.000298365)
(-1.78925e-05 -8.08845e-05 0.000320203)
(-2.90006e-05 -7.0353e-05 0.000333226)
(-4.22179e-05 -5.85222e-05 0.000339395)
(-5.69268e-05 -4.64422e-05 0.000340303)
(-7.26341e-05 -3.48601e-05 0.000337158)
(-8.88133e-05 -2.4221e-05 0.000330945)
(-0.00010502 -1.48611e-05 0.000322397)
(-0.000120846 -6.90119e-06 0.000312158)
(-0.000135924 -4.64699e-07 0.000300709)
(-0.000149923 4.47332e-06 0.000288493)
(-0.00016256 7.89427e-06 0.000275839)
(-0.000173589 9.88815e-06 0.000263076)
(-0.000182806 1.0479e-05 0.000250447)
(-0.000190037 9.77872e-06 0.000238211)
(-0.000195147 7.82817e-06 0.000226558)
(-0.000198034 4.74453e-06 0.000215696)
(-0.000198626 5.78594e-07 0.000205771)
(-0.000196875 -4.54647e-06 0.000196939)
(-0.000192769 -1.05635e-05 0.000189285)
(-0.000186322 -1.73245e-05 0.000182885)
(-0.000177568 -2.47134e-05 0.000177723)
(-0.000166566 -3.25177e-05 0.000173736)
(-0.000153412 -4.05186e-05 0.000170733)
(-0.000138212 -4.83731e-05 0.000168411)
(-0.000121114 -5.56889e-05 0.000166296)
(-0.0001023 -6.18836e-05 0.00016369)
(-8.19193e-05 -6.62284e-05 0.00015956)
(-6.00594e-05 -6.76827e-05 0.000152436)
(-3.74271e-05 -6.48522e-05 0.000140246)
(-1.86313e-05 -5.58383e-05 0.00012)
(-4.90169e-06 -3.25177e-05 7.35117e-05)
(-8.45697e-07 7.01246e-05 -0.000160008)
(-1.21947e-05 0.000150897 -0.000248939)
(-2.4598e-05 0.000196106 -0.000283007)
(-4.32622e-05 0.000233409 -0.000310809)
(-6.33809e-05 0.000262807 -0.000332935)
(-8.35276e-05 0.000284846 -0.000350085)
(-0.000103043 0.000300651 -0.000363487)
(-0.0001215 0.000310798 -0.000374416)
(-0.000138487 0.00031626 -0.000383306)
(-0.00015376 0.000317382 -0.000390722)
(-0.00016711 0.000314946 -0.000396724)
(-0.000178461 0.000309145 -0.000401663)
(-0.000187698 0.000300657 -0.000405466)
(-0.000194857 0.000289549 -0.000408405)
(-0.000199895 0.000276418 -0.000410365)
(-0.000202873 0.000261334 -0.000411552)
(-0.000203819 0.00024481 -0.000411849)
(-0.000202827 0.000226895 -0.000411435)
(-0.000199959 0.000208049 -0.000410189)
(-0.000195339 0.000188314 -0.000408263)
(-0.000189063 0.00016811 -0.000405543)
(-0.000181282 0.00014746 -0.000402157)
(-0.000172108 0.000126756 -0.00039797)
(-0.000161697 0.000106017 -0.000393059)
(-0.000150196 8.55485e-05 -0.000387255)
(-0.000137762 6.53824e-05 -0.000380521)
(-0.000124522 4.58554e-05 -0.000372535)
(-0.000110655 2.7007e-05 -0.000363025)
(-9.63002e-05 9.14819e-06 -0.000351308)
(-8.16072e-05 -7.65179e-06 -0.000336508)
(-6.65972e-05 -2.3024e-05 -0.000317138)
(-5.104e-05 -3.66319e-05 -0.000290635)
(-3.48266e-05 -4.73313e-05 -0.000251097)
(-2.13185e-05 -5.24262e-05 -0.000191594)
(-1.21194e-05 -3.84828e-05 -7.06826e-05)
(9.90822e-07 0.000211847 -0.000136309)
(-5.24365e-06 0.000363015 -0.000225287)
(-1.0288e-05 0.000429685 -0.000261349)
(-1.86648e-05 0.000477343 -0.00028534)
(-2.76981e-05 0.000510164 -0.000302028)
(-3.66013e-05 0.000531787 -0.000313953)
(-4.51267e-05 0.000544319 -0.000322914)
(-5.30534e-05 0.000549876 -0.000329748)
(-6.02443e-05 0.00054952 -0.000335256)
(-6.65671e-05 0.000544591 -0.00033965)
(-7.19741e-05 0.000535616 -0.000343335)
(-7.64032e-05 0.000523525 -0.000346273)
(-7.98732e-05 0.000508574 -0.000348712)
(-8.23706e-05 0.000491474 -0.000350532)
(-8.39469e-05 0.000472337 -0.00035193)
(-8.46101e-05 0.000451761 -0.000352757)
(-8.44412e-05 0.000429841 -0.000353147)
(-8.34728e-05 0.000407115 -0.00035294)
(-8.17852e-05 0.00038361 -0.000352291)
(-7.94219e-05 0.0003598 -0.000351052)
(-7.64806e-05 0.000335705 -0.000349352)
(-7.29953e-05 0.000311752 -0.00034705)
(-6.90696e-05 0.000287927 -0.000344253)
(-6.47647e-05 0.000264532 -0.000340838)
(-6.01683e-05 0.000241588 -0.000336829)
(-5.53266e-05 0.000219394 -0.000332)
(-5.03256e-05 0.000197889 -0.000326251)
(-4.51807e-05 0.00017728 -0.000319164)
(-3.9951e-05 0.000157449 -0.000310306)
(-3.46339e-05 0.000138494 -0.000298787)
(-2.9227e-05 0.000120181 -0.000283366)
(-2.3516e-05 0.000102446 -0.000261629)
(-1.72224e-05 8.48083e-05 -0.000229456)
(-1.10626e-05 6.69683e-05 -0.000181885)
(-7.75156e-06 3.66014e-05 -7.63998e-05)
(9.51315e-07 0.00028984 -3.30332e-05)
(-1.51535e-06 0.000478427 -9.66614e-05)
(-1.57001e-06 0.0005625 -0.000130199)
(-3.04162e-06 0.000622645 -0.000153454)
(-4.96646e-06 0.000664561 -0.000168897)
(-7.12763e-06 0.000692187 -0.000180214)
(-9.35887e-06 0.000708856 -0.000189161)
(-1.15981e-05 0.000716665 -0.000196823)
(-1.37247e-05 0.000717665 -0.000203562)
(-1.56997e-05 0.000712957 -0.000209869)
(-1.74429e-05 0.000703879 -0.000215773)
(-1.89489e-05 0.000691008 -0.000221529)
(-2.01737e-05 0.000675287 -0.000227018)
(-2.11421e-05 0.000657014 -0.00023239)
(-2.18318e-05 0.000636915 -0.000237474)
(-2.2289e-05 0.000615144 -0.000242378)
(-2.25055e-05 0.000592292 -0.000246915)
(-2.25399e-05 0.000568438 -0.000251173)
(-2.23908e-05 0.000544078 -0.000254972)
(-2.21145e-05 0.00051924 -0.00025839)
(-2.1719e-05 0.000494344 -0.000261253)
(-2.12547e-05 0.000469367 -0.000263637)
(-2.07369e-05 0.000444741 -0.000265319)
(-2.02112e-05 0.00042047 -0.000266308)
(-1.96804e-05 0.00039681 -0.000266406)
(-1.91743e-05 0.00037352 -0.000265662)
(-1.8665e-05 0.000350702 -0.000263815)
(-1.8149e-05 0.000328075 -0.000260721)
(-1.7553e-05 0.000305524 -0.000255924)
(-1.68288e-05 0.000282524 -0.000248952)
(-1.58152e-05 0.000258592 -0.000238888)
(-1.4245e-05 0.000232766 -0.000224695)
(-1.15832e-05 0.000203893 -0.000204521)
(-7.96469e-06 0.000170268 -0.000174095)
(-6.21432e-06 0.000103566 -9.121e-05)
(-5.78031e-07 0.000322054 3.07958e-05)
(-2.16666e-06 0.000519414 -8.3581e-06)
(-6.24155e-07 0.000608489 -3.5519e-05)
(8.23005e-07 0.000673481 -5.50985e-05)
(2.42274e-06 0.000719725 -6.80766e-05)
(4.06799e-06 0.000751696 -7.76523e-05)
(5.68472e-06 0.000772307 -8.57127e-05)
(7.23118e-06 0.000784236 -9.28523e-05)
(8.67205e-06 0.000789064 -9.95996e-05)
(1.00001e-05 0.000788471 -0.000106059)
(1.11933e-05 0.000783303 -0.000112511)
(1.22547e-05 0.000774679 -0.000118886)
(1.31553e-05 0.000763044 -0.000125331)
(1.39056e-05 0.000749206 -0.000131693)
(1.44699e-05 0.000733387 -0.000138063)
(1.48555e-05 0.00071621 -0.000144262)
(1.50313e-05 0.000697777 -0.000150354)
(1.50004e-05 0.000678588 -0.000156159)
(1.47279e-05 0.000658672 -0.000161726)
(1.42232e-05 0.000638431 -0.000166882)
(1.34551e-05 0.000617849 -0.000171667)
(1.2434e-05 0.000597266 -0.000175903)
(1.11325e-05 0.00057661 -0.000179616)
(9.58869e-06 0.000556084 -0.000182642)
(7.80283e-06 0.000535489 -0.000185001)
(5.82261e-06 0.000514872 -0.000186518)
(3.67222e-06 0.000493862 -0.000187169)
(1.43362e-06 0.000472254 -0.000186727)
(-8.26741e-07 0.000449369 -0.000185045)
(-2.97109e-06 0.000424571 -0.0001817)
(-4.86547e-06 0.000396624 -0.000176301)
(-6.20293e-06 0.000364136 -0.000168463)
(-6.42887e-06 0.000324842 -0.000157929)
(-5.01582e-06 0.000275969 -0.000140989)
(-4.60539e-06 0.00017337 -8.06894e-05)
(-1.13203e-06 0.000335191 6.23331e-05)
(-2.17577e-06 0.00052981 3.98861e-05)
(-5.36128e-07 0.000618747 1.92834e-05)
(1.42753e-06 0.000684559 3.69914e-06)
(3.80688e-06 0.000732805 -6.67299e-06)
(6.36824e-06 0.000767308 -1.46826e-05)
(8.98449e-06 0.000791324 -2.16454e-05)
(1.15478e-05 0.000806933 -2.82092e-05)
(1.40016e-05 0.000816113 -3.45248e-05)
(1.62774e-05 0.000819984 -4.08433e-05)
(1.83492e-05 0.000819814 -4.71392e-05)
(2.01686e-05 0.000816194 -5.35693e-05)
(2.17261e-05 0.00080999 -6.00228e-05)
(2.29854e-05 0.000801502 -6.65761e-05)
(2.39425e-05 0.000791362 -7.30851e-05)
(2.4573e-05 0.000779708 -7.95971e-05)
(2.48768e-05 0.000767028 -8.59556e-05)
(2.48299e-05 0.000753361 -9.21941e-05)
(2.44434e-05 0.000739093 -9.81563e-05)
(2.36976e-05 0.000724189 -0.00010387)
(2.26106e-05 0.000708945 -0.000109185)
(2.11711e-05 0.000693252 -0.000114128)
(1.9412e-05 0.000677296 -0.000118555)
(1.73367e-05 0.000660868 -0.000122488)
(1.49914e-05 0.00064401 -0.000125787)
(1.24032e-05 0.000626348 -0.000128461)
(9.64381e-06 0.000607674 -0.000130361)
(6.76734e-06 0.000587317 -0.00013147)
(3.89384e-06 0.000564639 -0.00013158)
(1.12514e-06 0.000538435 -0.000130547)
(-1.37444e-06 0.00050733 -0.000128055)
(-3.35992e-06 0.000469185 -0.000124229)
(-4.30495e-06 0.000421299 -0.000119351)
(-3.67914e-06 0.000359852 -0.000110426)
(-3.55279e-06 0.000228308 -6.66923e-05)
(-1.1111e-06 0.000333544 6.84537e-05)
(-1.68047e-06 0.000522423 5.51205e-05)
(-2.94408e-07 0.000609383 3.96383e-05)
(1.51295e-06 0.000674793 2.76549e-05)
(3.72022e-06 0.000723627 1.95509e-05)
(6.12107e-06 0.000759876 1.32456e-05)
(8.59303e-06 0.00078625 7.57477e-06)
(1.10441e-05 0.000805111 2.25581e-06)
(1.33996e-05 0.000817918 -2.96736e-06)
(1.56071e-05 0.000826127 -8.16363e-06)
(1.76203e-05 0.000830501 -1.35005e-05)
(1.94016e-05 0.000831976 -1.88755e-05)
(2.09188e-05 0.000830937 -2.43723e-05)
(2.21548e-05 0.000828028 -2.98877e-05)
(2.30826e-05 0.000823421 -3.54611e-05)
(2.36975e-05 0.000817588 -4.09706e-05)
(2.39776e-05 0.000810577 -4.64442e-05)
(2.39273e-05 0.000802742 -5.17559e-05)
(2.3532e-05 0.000794049 -5.69291e-05)
(2.28046e-05 0.00078476 -6.18399e-05)
(2.17409e-05 0.000774762 -6.65113e-05)
(2.03623e-05 0.00076422 -7.08247e-05)
(1.86713e-05 0.000752922 -7.48038e-05)
(1.67053e-05 0.000740898 -7.83362e-05)
(1.44845e-05 0.000727783 -8.14443e-05)
(1.20606e-05 0.00071339 -8.40193e-05)
(9.47922e-06 0.000697091 -8.60775e-05)
(6.82197e-06 0.000678337 -8.75034e-05)
(4.16836e-06 0.000656032 -8.82738e-05)
(1.63533e-06 0.000628992 -8.81965e-05)
(-6.61241e-07 0.000595286 -8.71945e-05)
(-2.49276e-06 0.000552612 -8.54126e-05)
(-3.447e-06 0.000497528 -8.34468e-05)
(-3.05624e-06 0.000425725 -7.88862e-05)
(-2.85539e-06 0.000270235 -4.79124e-05)
(-8.23182e-07 0.00032678 6.17069e-05)
(-1.06754e-06 0.000512029 5.37112e-05)
(-1.71213e-07 0.000597872 4.2808e-05)
(1.01663e-06 0.000662944 3.4158e-05)
(2.47664e-06 0.00071239 2.82833e-05)
(4.08173e-06 0.000749779 2.35785e-05)
(5.73722e-06 0.000778071 1.93319e-05)
(7.38857e-06 0.000799199 1.52282e-05)
(8.98696e-06 0.000814907 1.12229e-05)
(1.04913e-05 0.000826216 7.19121e-06)
(1.18621e-05 0.000834201 3.16659e-06)
(1.30773e-05 0.000839384 -9.59562e-07)
(1.41097e-05 0.000842457 -5.10658e-06)
(1.49401e-05 0.000843657 -9.32069e-06)
(1.55541e-05 0.000843459 -1.35076e-05)
(1.59375e-05 0.000841938 -1.77002e-05)
(1.60857e-05 0.000839435 -2.18004e-05)
(1.59856e-05 0.000835924 -2.58346e-05)
(1.56443e-05 0.000831647 -2.97058e-05)
(1.50562e-05 0.000826496 -3.34405e-05)
(1.42352e-05 0.000820622 -3.69439e-05)
(1.31831e-05 0.000813825 -4.02441e-05)
(1.1923e-05 0.000806139 -4.32505e-05)
(1.04677e-05 0.000797233 -4.59933e-05)
(8.8549e-06 0.000786963 -4.83854e-05)
(7.10776e-06 0.000774778 -5.04577e-05)
(5.27842e-06 0.000760235 -5.21242e-05)
(3.41623e-06 0.0007424 -5.34104e-05)
(1.59508e-06 0.000720302 -5.421e-05)
(-1.11219e-07 0.000692333 -5.44938e-05)
(-1.59812e-06 0.000656586 -5.41333e-05)
(-2.71729e-06 0.000610245 -5.33728e-05)
(-3.15372e-06 0.000549723 -5.26405e-05)
(-2.65841e-06 0.000470033 -5.02741e-05)
(-2.23374e-06 0.000296818 -2.91182e-05)
(-7.11818e-07 0.000318037 5.2082e-05)
(-9.12261e-07 0.000502172 4.90781e-05)
(-5.49655e-07 0.000587659 4.26992e-05)
(-7.64892e-08 0.000652924 3.7447e-05)
(5.64165e-07 0.000702817 3.37457e-05)
(1.30464e-06 0.000741171 3.07181e-05)
(2.09765e-06 0.000770622 2.78715e-05)
(2.90796e-06 0.000793379 2.51231e-05)
(3.71217e-06 0.000810847 2.23704e-05)
(4.47949e-06 0.000824331 1.96361e-05)
(5.18757e-06 0.000834557 1.68484e-05)
(5.81607e-06 0.000842331 1.40478e-05)
(6.35482e-06 0.000847999 1.1184e-05)
(6.78618e-06 0.000852075 8.33022e-06)
(7.10487e-06 0.00085469 5.44039e-06)
(7.29706e-06 0.000856193 2.61894e-06)
(7.35384e-06 0.000856585 -1.72403e-07)
(7.27727e-06 0.000856104 -2.85967e-06)
(7.05956e-06 0.000854659 -5.47739e-06)
(6.70501e-06 0.000852397 -7.95082e-06)
(6.21592e-06 0.000849141 -1.03148e-05)
(5.60379e-06 0.000844939 -1.24972e-05)
(4.87652e-06 0.000839499 -1.45348e-05)
(4.0496e-06 0.000832725 -1.63587e-05)
(3.13873e-06 0.000824148 -1.80078e-05)
(2.17586e-06 0.000813435 -1.94164e-05)
(1.18086e-06 0.000799812 -2.06252e-05)
(1.93722e-07 0.000782535 -2.15703e-05)
(-7.40348e-07 0.000760291 -2.2282e-05)
(-1.5725e-06 0.000731609 -2.26719e-05)
(-2.24852e-06 0.000694208 -2.27656e-05)
(-2.66186e-06 0.000645327 -2.26867e-05)
(-2.63066e-06 0.000580939 -2.28661e-05)
(-2.04422e-06 0.000495963 -2.2217e-05)
(-1.53725e-06 0.000310891 -1.02853e-05)
(-8.65084e-07 0.00030916 4.43133e-05)
(-1.2316e-06 0.000492679 4.68838e-05)
(-1.38236e-06 0.000578023 4.49892e-05)
(-1.55763e-06 0.000643245 4.29969e-05)
(-1.60563e-06 0.0006934 4.14553e-05)
(-1.55032e-06 0.000732091 3.99823e-05)
(-1.4323e-06 0.000762193 3.84726e-05)
(-1.2665e-06 0.000785648 3.68709e-05)
(-1.07265e-06 0.000804112 3.52352e-05)
(-8.60177e-07 0.00081861 3.3524e-05)
(-6.4284e-07 0.000830121 3.17919e-05)
(-4.34141e-07 0.000839147 3.00209e-05)
(-2.44425e-07 0.000846288 2.82778e-05)
(-7.95821e-08 0.000851769 2.65302e-05)
(4.39622e-08 0.000855987 2.48284e-05)
(1.33316e-07 0.000858997 2.31104e-05)
(1.78041e-07 0.000861048 2.14472e-05)
(1.75572e-07 0.000862082 1.98047e-05)
(1.28597e-07 0.000862256 1.82435e-05)
(3.3943e-08 0.000861424 1.67264e-05)
(-1.0467e-07 0.000859651 1.53126e-05)
(-2.8563e-07 0.000856697 1.39633e-05)
(-4.99826e-07 0.000852509 1.27354e-05)
(-7.41864e-07 0.000846704 1.15861e-05)
(-9.99433e-07 0.000839046 1.05658e-05)
(-1.26396e-06 0.000828919 9.62646e-06)
(-1.51726e-06 0.000815772 8.81142e-06)
(-1.74522e-06 0.00079858 8.06456e-06)
(-1.92584e-06 0.000776237 7.42234e-06)
(-2.04428e-06 0.00074699 6.82777e-06)
(-2.07323e-06 0.00070874 6.28928e-06)
(-1.97635e-06 0.00065844 5.58038e-06)
(-1.67025e-06 0.000592198 4.38077e-06)
(-1.12947e-06 0.000504638 3.07809e-06)
(-7.32423e-07 0.000314192 6.18925e-06)
(-1.11145e-06 0.000300236 3.906e-05)
(-1.70457e-06 0.000482021 4.69986e-05)
(-2.22874e-06 0.000566512 4.88889e-05)
(-2.86207e-06 0.000631217 4.96703e-05)
(-3.34902e-06 0.000680958 4.99246e-05)
(-3.71635e-06 0.00071952 4.97994e-05)
(-3.99058e-06 0.000749531 4.93569e-05)
(-4.19722e-06 0.000773143 4.87237e-05)
(-4.33655e-06 0.000791764 4.79323e-05)
(-4.42695e-06 0.000806637 4.70648e-05)
(-4.46838e-06 0.000818492 4.61132e-05)
(-4.47348e-06 0.000828066 4.51391e-05)
(-4.44309e-06 0.000835709 4.4117e-05)
(-4.38894e-06 0.000841872 4.30986e-05)
(-4.31385e-06 0.00084667 4.20745e-05)
(-4.22056e-06 0.000850389 4.10952e-05)
(-4.11265e-06 0.000853026 4.01241e-05)
(-3.99527e-06 0.000854759 3.92095e-05)
(-3.8626e-06 0.000855489 3.83148e-05)
(-3.72225e-06 0.000855306 3.7485e-05)
(-3.57255e-06 0.00085402 3.66819e-05)
(-3.40852e-06 0.000851623 3.59473e-05)
(-3.23343e-06 0.000847812 3.52393e-05)
(-3.04517e-06 0.000842435 3.45955e-05)
(-2.84172e-06 0.000835012 3.39686e-05)
(-2.6154e-06 0.000825157 3.33882e-05)
(-2.37076e-06 0.000812083 3.27959e-05)
(-2.10116e-06 0.000794995 3.22054e-05)
(-1.81077e-06 0.000772567 3.15367e-05)
(-1.49943e-06 0.00074328 3.07731e-05)
(-1.17603e-06 0.000704837 2.97778e-05)
(-8.46217e-07 0.000654424 2.83624e-05)
(-5.11581e-07 0.000588 2.60842e-05)
(-1.45624e-07 0.000500424 2.28884e-05)
(1.36892e-08 0.000310123 1.8447e-05)
(-1.25865e-06 0.000291354 3.41575e-05)
(-1.98435e-06 0.00046965 4.54862e-05)
(-2.70569e-06 0.000552562 4.97795e-05)
(-3.55523e-06 0.000616005 5.22985e-05)
(-4.24488e-06 0.000664876 5.37335e-05)
(-4.78939e-06 0.000702704 5.44558e-05)
(-5.23455e-06 0.000732256 5.47368e-05)
(-5.58691e-06 0.000755445 5.47027e-05)
(-5.86781e-06 0.000773852 5.44866e-05)
(-6.07103e-06 0.00078849 5.41268e-05)
(-6.20956e-06 0.000800279 5.37006e-05)
(-6.28285e-06 0.000809731 5.32089e-05)
(-6.3011e-06 0.000817394 5.27059e-05)
(-6.26274e-06 0.000823497 5.21763e-05)
(-6.17438e-06 0.000828374 5.1665e-05)
(-6.03607e-06 0.000832089 5.11487e-05)
(-5.85668e-06 0.000834843 5.06667e-05)
(-5.6321e-06 0.000836594 5.01909e-05)
(-5.36834e-06 0.00083745 4.97569e-05)
(-5.06909e-06 0.00083728 4.93326e-05)
(-4.7328e-06 0.000836109 4.89501e-05)
(-4.36335e-06 0.000833707 4.85734e-05)
(-3.9637e-06 0.000829989 4.82301e-05)
(-3.53408e-06 0.000824589 4.78791e-05)
(-3.07735e-06 0.000817247 4.75405e-05)
(-2.59963e-06 0.000807373 4.71634e-05)
(-2.10511e-06 0.000794408 4.67532e-05)
(-1.60235e-06 0.000777374 4.62372e-05)
(-1.09942e-06 0.000755182 4.55877e-05)
(-6.18038e-07 0.000726159 4.46854e-05)
(-1.75895e-07 0.000688276 4.34201e-05)
(1.84294e-07 0.000638614 4.15025e-05)
(4.22467e-07 0.000573445 3.85095e-05)
(5.8328e-07 0.000487619 3.40032e-05)
(5.25861e-07 0.000301564 2.46952e-05)
(-1.15082e-06 0.000283152 2.77889e-05)
(-1.84805e-06 0.00045719 3.94379e-05)
(-2.55916e-06 0.000538079 4.43417e-05)
(-3.4041e-06 0.000600035 4.73866e-05)
(-4.0936e-06 0.000647701 4.91717e-05)
(-4.65345e-06 0.000684656 5.02008e-05)
(-5.11025e-06 0.000713443 5.07382e-05)
(-5.48545e-06 0.000736088 5.09733e-05)
(-5.77837e-06 0.000753967 5.0993e-05)
(-5.99955e-06 0.000768241 5.0893e-05)
(-6.14687e-06 0.000779631 5.06998e-05)
(-6.22838e-06 0.000788817 5.04707e-05)
(-6.24334e-06 0.000796155 5.02053e-05)
(-6.20239e-06 0.000802048 4.99444e-05)
(-6.09612e-06 0.000806642 4.9676e-05)
(-5.93905e-06 0.00081018 4.94322e-05)
(-5.72523e-06 0.000812678 4.9195e-05)
(-5.46485e-06 0.000814275 4.89915e-05)
(-5.15674e-06 0.000814896 4.87991e-05)
(-4.80448e-06 0.000814593 4.86413e-05)
(-4.41446e-06 0.000813208 4.8491e-05)
(-3.98682e-06 0.000810699 4.83677e-05)
(-3.52878e-06 0.0008068 4.82397e-05)
(-3.04026e-06 0.000801339 4.81209e-05)
(-2.53193e-06 0.000793882 4.79719e-05)
(-2.00916e-06 0.000784039 4.77967e-05)
(-1.48041e-06 0.000771093 4.75413e-05)
(-9.55226e-07 0.000754276 4.71861e-05)
(-4.54178e-07 0.000732369 4.66438e-05)
(1.40986e-08 0.000703932 4.58432e-05)
(4.15033e-07 0.000666849 4.46143e-05)
(7.02662e-07 0.000618474 4.27274e-05)
(8.26466e-07 0.000555083 3.9732e-05)
(8.52131e-07 0.00047186 3.51285e-05)
(6.86706e-07 0.000291658 2.45748e-05)
(-8.09005e-07 0.000276691 1.92205e-05)
(-1.33414e-06 0.000447068 2.80502e-05)
(-1.89015e-06 0.000526286 3.194e-05)
(-2.56687e-06 0.000586908 3.43631e-05)
(-3.15012e-06 0.000633587 3.57759e-05)
(-3.6333e-06 0.000669694 3.65687e-05)
(-4.04669e-06 0.000697848 3.6989e-05)
(-4.3912e-06 0.000719894 3.71574e-05)
(-4.67156e-06 0.00073732 3.71749e-05)
(-4.88229e-06 0.000751121 3.70856e-05)
(-5.03184e-06 0.00076215 3.69462e-05)
(-5.1169e-06 0.000770929 3.67692e-05)
(-5.14522e-06 0.000777955 3.65912e-05)
(-5.11126e-06 0.000783479 3.64108e-05)
(-5.02437e-06 0.000787795 3.62545e-05)
(-4.88153e-06 0.000790993 3.6114e-05)
(-4.69076e-06 0.000793241 3.60097e-05)
(-4.45344e-06 0.000794525 3.59286e-05)
(-4.17589e-06 0.000794925 3.5887e-05)
(-3.86092e-06 0.000794342 3.58679e-05)
(-3.5124e-06 0.000792773 3.58838e-05)
(-3.13662e-06 0.000790028 3.59134e-05)
(-2.73881e-06 0.000786 3.59652e-05)
(-2.3223e-06 0.00078037 3.60127e-05)
(-1.89506e-06 0.000772868 3.60582e-05)
(-1.46489e-06 0.000762968 3.60675e-05)
(-1.0355e-06 0.000750124 3.60304e-05)
(-6.21341e-07 0.000733446 3.58961e-05)
(-2.30501e-07 0.000711903 3.56276e-05)
(1.19682e-07 0.00068396 3.51353e-05)
(4.13867e-07 0.000647714 3.4318e-05)
(6.11675e-07 0.000600477 3.29743e-05)
(6.83634e-07 0.000538787 3.07986e-05)
(6.75139e-07 0.000457876 2.73533e-05)
(5.33842e-07 0.000282976 1.90575e-05)
(-3.22107e-07 0.000273129 9.42432e-06)
(-6.13099e-07 0.000441834 1.33828e-05)
(-9.25815e-07 0.000520239 1.51966e-05)
(-1.36738e-06 0.000580254 1.62808e-05)
(-1.78741e-06 0.00062639 1.6821e-05)
(-2.17303e-06 0.000662081 1.70452e-05)
(-2.51839e-06 0.000689815 1.70711e-05)
(-2.82513e-06 0.00071153 1.69785e-05)
(-3.08358e-06 0.000728587 1.68051e-05)
(-3.29626e-06 0.000742089 1.65934e-05)
(-3.45249e-06 0.000752771 1.63594e-05)
(-3.56111e-06 0.000761266 1.6131e-05)
(-3.61583e-06 0.000767956 1.59154e-05)
(-3.6215e-06 0.000773209 1.5734e-05)
(-3.57922e-06 0.000777201 1.55921e-05)
(-3.49486e-06 0.000780144 1.55092e-05)
(-3.36838e-06 0.000782089 1.5455e-05)
(-3.20676e-06 0.000783143 1.54446e-05)
(-3.01108e-06 0.000783269 1.5474e-05)
(-2.7898e-06 0.000782491 1.55517e-05)
(-2.54751e-06 0.000780686 1.56662e-05)
(-2.28834e-06 0.000777789 1.58222e-05)
(-2.01935e-06 0.000773576 1.60038e-05)
(-1.74366e-06 0.000767852 1.62119e-05)
(-1.46674e-06 0.000760234 1.64267e-05)
(-1.19407e-06 0.000750323 1.66441e-05)
(-9.30808e-07 0.000737466 1.68388e-05)
(-6.77899e-07 0.000720906 1.69984e-05)
(-4.46956e-07 0.000699516 1.70857e-05)
(-2.40023e-07 0.000671905 1.70702e-05)
(-6.60799e-08 0.000636098 1.68874e-05)
(6.90317e-08 0.000589565 1.64598e-05)
(1.47129e-07 0.000528817 1.56397e-05)
(2.04023e-07 0.000449271 1.42251e-05)
(1.6953e-07 0.000277396 1.0465e-05)
(1.49923e-07 0.000273052 7.22866e-08)
(7.87527e-08 0.000442535 -1.2205e-06)
(9.57267e-10 0.000521299 -1.69356e-06)
(-2.09656e-07 0.000581515 -2.10797e-06)
(-4.84987e-07 0.000627785 -2.53148e-06)
(-7.81784e-07 0.000663491 -2.95644e-06)
(-1.07924e-06 0.000691213 -3.37334e-06)
(-1.35937e-06 0.000712822 -3.78486e-06)
(-1.62058e-06 0.000729776 -4.18469e-06)
(-1.84383e-06 0.000743102 -4.57246e-06)
(-2.03102e-06 0.00075363 -4.93709e-06)
(-2.1757e-06 0.000761912 -5.27497e-06)
(-2.27648e-06 0.000768424 -5.57543e-06)
(-2.3325e-06 0.000773449 -5.83634e-06)
(-2.34963e-06 0.000777257 -6.05074e-06)
(-2.32592e-06 0.000779971 -6.22e-06)
(-2.27168e-06 0.000781737 -6.31172e-06)
(-2.18666e-06 0.000782575 -6.33238e-06)
(-2.07965e-06 0.000782539 -6.28263e-06)
(-1.95552e-06 0.000781567 -6.16875e-06)
(-1.82075e-06 0.000779627 -5.99063e-06)
(-1.67997e-06 0.000776565 -5.7572e-06)
(-1.53747e-06 0.000772246 -5.47003e-06)
(-1.40018e-06 0.000766387 -5.13997e-06)
(-1.26921e-06 0.000758693 -4.76992e-06)
(-1.15048e-06 0.000748677 -4.37116e-06)
(-1.0388e-06 0.000735772 -3.94599e-06)
(-9.41327e-07 0.000719134 -3.50318e-06)
(-8.52076e-07 0.000697723 -3.04103e-06)
(-7.69881e-07 0.000670062 -2.56117e-06)
(-6.86163e-07 0.000634263 -2.05175e-06)
(-5.94642e-07 0.000587716 -1.48963e-06)
(-4.65134e-07 0.00052701 -8.21082e-07)
(-3.09203e-07 0.000447503 -5.33557e-09)
(-2.24596e-07 0.000275807 1.37938e-06)
(4.97656e-07 0.000276321 -7.1838e-06)
(5.70249e-07 0.000448818 -1.27425e-05)
(6.77023e-07 0.000528936 -1.51135e-05)
(6.38864e-07 0.000590153 -1.67841e-05)
(4.83987e-07 0.000637101 -1.80323e-05)
(2.5984e-07 0.000673293 -1.90166e-05)
(1.17953e-08 0.000701301 -1.98312e-05)
(-2.46155e-07 0.000723095 -2.05287e-05)
(-4.9244e-07 0.000740103 -2.11413e-05)
(-7.18373e-07 0.000753436 -2.1683e-05)
(-9.1702e-07 0.00076388 -2.21625e-05)
(-1.08363e-06 0.000772068 -2.25797e-05)
(-1.21154e-06 0.000778424 -2.29349e-05)
(-1.30347e-06 0.000783307 -2.32237e-05)
(-1.36273e-06 0.000786934 -2.34461e-05)
(-1.39247e-06 0.000789502 -2.35984e-05)
(-1.39427e-06 0.000791094 -2.36782e-05)
(-1.37593e-06 0.0007918 -2.36812e-05)
(-1.34224e-06 0.000791608 -2.36084e-05)
(-1.30017e-06 0.000790523 -2.34589e-05)
(-1.25561e-06 0.000788448 -2.32362e-05)
(-1.21185e-06 0.000785291 -2.29425e-05)
(-1.17466e-06 0.000780849 -2.25834e-05)
(-1.14714e-06 0.000774901 -2.21622e-05)
(-1.13524e-06 0.00076708 -2.16837e-05)
(-1.13349e-06 0.000756956 -2.1149e-05)
(-1.14552e-06 0.000743888 -2.05574e-05)
(-1.16355e-06 0.000727082 -1.98991e-05)
(-1.18326e-06 0.000705416 -1.91566e-05)
(-1.19181e-06 0.000677454 -1.82945e-05)
(-1.17645e-06 0.000641211 -1.72531e-05)
(-1.10369e-06 0.000594101 -1.59167e-05)
(-9.3525e-07 0.000532593 -1.40832e-05)
(-6.90994e-07 0.000452034 -1.15013e-05)
(-5.28881e-07 0.000278002 -5.97627e-06)
(6.53583e-07 0.000282013 -1.13856e-05)
(7.75624e-07 0.000458803 -1.91823e-05)
(9.76014e-07 0.000540892 -2.25624e-05)
(1.03275e-06 0.000603542 -2.49042e-05)
(9.46356e-07 0.00065154 -2.65914e-05)
(7.8163e-07 0.000688462 -2.78749e-05)
(5.73547e-07 0.000716991 -2.89017e-05)
(3.48858e-07 0.000739114 -2.97554e-05)
(1.2775e-07 0.000756342 -3.04871e-05)
(-8.00577e-08 0.000769778 -3.11251e-05)
(-2.66938e-07 0.000780278 -3.16845e-05)
(-4.25122e-07 0.000788448 -3.21709e-05)
(-5.55209e-07 0.000794775 -3.25853e-05)
(-6.5457e-07 0.000799583 -3.29254e-05)
(-7.26386e-07 0.00080314 -3.31883e-05)
(-7.73811e-07 0.000805608 -3.33704e-05)
(-7.99884e-07 0.000807118 -3.34693e-05)
(-8.11733e-07 0.000807719 -3.34829e-05)
(-8.14806e-07 0.000807449 -3.34109e-05)
(-8.13538e-07 0.000806265 -3.32542e-05)
(-8.13852e-07 0.000804116 -3.3015e-05)
(-8.23507e-07 0.000800862 -3.26965e-05)
(-8.45334e-07 0.00079634 -3.23028e-05)
(-8.81226e-07 0.000790278 -3.18368e-05)
(-9.32149e-07 0.000782344 -3.13014e-05)
(-1.00059e-06 0.00077205 -3.06951e-05)
(-1.07965e-06 0.000758782 -3.00124e-05)
(-1.16566e-06 0.000741682 -2.92367e-05)
(-1.24655e-06 0.00071964 -2.8339e-05)
(-1.31177e-06 0.00069114 -2.72666e-05)
(-1.33845e-06 0.000654187 -2.59318e-05)
(-1.29035e-06 0.000606092 -2.41735e-05)
(-1.11365e-06 0.000543268 -2.17114e-05)
(-8.3628e-07 0.000460918 -1.81839e-05)
(-6.63767e-07 0.000283 -1.04241e-05)
(6.19844e-07 0.000288815 -1.23797e-05)
(7.0044e-07 0.000470101 -2.01681e-05)
(9.01476e-07 0.000554244 -2.35684e-05)
(9.67338e-07 0.000618422 -2.59285e-05)
(9.04824e-07 0.000667521 -2.76253e-05)
(7.65991e-07 0.000705248 -2.89167e-05)
(5.92331e-07 0.000734332 -2.99494e-05)
(4.04267e-07 0.000756847 -3.08096e-05)
(2.18335e-07 0.000774319 -3.1547e-05)
(4.60844e-08 0.000787915 -3.2192e-05)
(-1.06083e-07 0.000798486 -3.27581e-05)
(-2.34246e-07 0.000806691 -3.32527e-05)
(-3.33606e-07 0.000812999 -3.3675e-05)
(-4.07109e-07 0.000817779 -3.40243e-05)
(-4.54169e-07 0.00082128 -3.42958e-05)
(-4.79927e-07 0.000823697 -3.44874e-05)
(-4.88906e-07 0.000825139 -3.45946e-05)
(-4.8476e-07 0.000825687 -3.4617e-05)
(-4.77445e-07 0.000825351 -3.45529e-05)
(-4.69426e-07 0.000824118 -3.44041e-05)
(-4.66078e-07 0.000821904 -3.41718e-05)
(-4.75442e-07 0.000818597 -3.38602e-05)
(-4.98216e-07 0.000813999 -3.34718e-05)
(-5.39371e-07 0.000807859 -3.30116e-05)
(-5.99877e-07 0.000799806 -3.24805e-05)
(-6.79789e-07 0.000789366 -3.1879e-05)
(-7.74016e-07 0.000775878 -3.11994e-05)
(-8.74651e-07 0.000758488 -3.0428e-05)
(-9.78579e-07 0.000736027 -2.95334e-05)
(-1.06573e-06 0.000706965 -2.84653e-05)
(-1.12002e-06 0.000669225 -2.7135e-05)
(-1.10637e-06 0.000620074 -2.53861e-05)
(-9.72911e-07 0.000555802 -2.2941e-05)
(-7.28404e-07 0.000471516 -1.94397e-05)
(-6.19737e-07 0.000289353 -1.16791e-05)
(4.43652e-07 0.000295336 -1.08308e-05)
(4.35482e-07 0.000480315 -1.67238e-05)
(5.60664e-07 0.000566161 -1.93136e-05)
(5.74938e-07 0.000631593 -2.11378e-05)
(4.99421e-07 0.000681616 -2.24796e-05)
(3.77116e-07 0.000720004 -2.35256e-05)
(2.34199e-07 0.000749562 -2.43847e-05)
(8.8698e-08 0.000772396 -2.51174e-05)
(-4.91325e-08 0.000790086 -2.57607e-05)
(-1.67409e-07 0.000803808 -2.63329e-05)
(-2.65773e-07 0.000814453 -2.68441e-05)
(-3.37789e-07 0.000822681 -2.72949e-05)
(-3.8354e-07 0.000828991 -2.76851e-05)
(-4.02969e-07 0.000833746 -2.80094e-05)
(-3.99643e-07 0.000837219 -2.82651e-05)
(-3.77359e-07 0.000839592 -2.84466e-05)
(-3.38281e-07 0.000841 -2.85518e-05)
(-2.92377e-07 0.000841505 -2.85774e-05)
(-2.40786e-07 0.000841138 -2.85238e-05)
(-1.92584e-07 0.000839868 -2.83909e-05)
(-1.51738e-07 0.000837627 -2.81818e-05)
(-1.23675e-07 0.000834282 -2.78992e-05)
(-1.12497e-07 0.000829647 -2.7548e-05)
(-1.21691e-07 0.000823447 -2.7132e-05)
(-1.5331e-07 0.000815319 -2.66554e-05)
(-2.0597e-07 0.00080476 -2.61194e-05)
(-2.7789e-07 0.000791111 -2.55224e-05)
(-3.63438e-07 0.000773477 -2.48542e-05)
(-4.5672e-07 0.000750682 -2.40962e-05)
(-5.47402e-07 0.000721144 -2.32106e-05)
(-6.21062e-07 0.000682756 -2.21357e-05)
(-6.50761e-07 0.00063271 -2.07553e-05)
(-5.96697e-07 0.000567233 -1.88702e-05)
(-4.46505e-07 0.000481315 -1.62086e-05)
(-4.39773e-07 0.000295607 -1.03322e-05)
(1.87655e-07 0.000300449 -7.73691e-06)
(7.21161e-08 0.000487679 -1.05523e-05)
(8.27681e-08 0.000574563 -1.18068e-05)
(9.54948e-09 0.000640767 -1.27451e-05)
(-9.99505e-08 0.000691348 -1.34968e-05)
(-2.20243e-07 0.000730138 -1.41354e-05)
(-3.36185e-07 0.00075997 -1.4702e-05)
(-4.39403e-07 0.000782991 -1.52201e-05)
(-5.22621e-07 0.00080079 -1.57006e-05)
(-5.83306e-07 0.000814576 -1.61477e-05)
(-6.17501e-07 0.000825241 -1.65596e-05)
(-6.22774e-07 0.000833467 -1.69329e-05)
(-6.00436e-07 0.000839754 -1.72611e-05)
(-5.54296e-07 0.00084448 -1.75391e-05)
(-4.8576e-07 0.000847915 -1.77601e-05)
(-3.98803e-07 0.000850257 -1.79197e-05)
(-2.97064e-07 0.000851629 -1.80135e-05)
(-1.88062e-07 0.000852112 -1.80399e-05)
(-7.72167e-08 0.000851721 -1.79971e-05)
(2.89811e-08 0.000850439 -1.78867e-05)
(1.28476e-07 0.000848186 -1.77105e-05)
(2.13517e-07 0.000844836 -1.74733e-05)
(2.80593e-07 0.000840189 -1.71791e-05)
(3.27228e-07 0.000833976 -1.68348e-05)
(3.46183e-07 0.000825816 -1.64455e-05)
(3.42427e-07 0.00081521 -1.60174e-05)
(3.13583e-07 0.000801475 -1.55541e-05)
(2.62509e-07 0.000783716 -1.50567e-05)
(1.93287e-07 0.000760726 -1.45209e-05)
(1.10628e-07 0.000730913 -1.39351e-05)
(2.33815e-08 0.00069213 -1.32748e-05)
(-5.4347e-08 0.000641546 -1.24939e-05)
(-1.02261e-07 0.000575327 -1.15097e-05)
(-7.86887e-08 0.000488417 -1.02001e-05)
(-1.87304e-07 0.000300549 -7.39113e-06)
(-7.09024e-08 0.000303454 -4.20135e-06)
(-2.82018e-07 0.000491241 -3.54249e-06)
(-4.0061e-07 0.000578391 -3.28047e-06)
(-5.66812e-07 0.000644782 -3.20553e-06)
(-7.12647e-07 0.000695493 -3.27931e-06)
(-8.33738e-07 0.000734358 -3.44555e-06)
(-9.26343e-07 0.00076423 -3.67138e-06)
(-9.90942e-07 0.000787254 -3.93605e-06)
(-1.02602e-06 0.000805038 -4.22352e-06)
(-1.02928e-06 0.000818784 -4.51983e-06)
(-1.00312e-06 0.000829406 -4.81231e-06)