/*--------------------------------*- C++ -*----------------------------------*\
| =========                 |                                                 |
| \\      /  F ield         | OpenFOAM: The Open Source CFD Toolbox           |
|  \\    /   O peration     | Version:  v2006                                 |
|   \\  /    A nd           | Website:  www.openfoam.com                      |
|    \\/     M anipulation  |                                                 |
\*---------------------------------------------------------------------------*/
FoamFile
{
    version     2.0;
    format      ascii;
    class       volScalarField;
    location    "2";
    object      k;
}
// * * * * * * * * * * * * * * * * * * * * * * * * * * * * * * * * * * * * * //

dimensions      [0 2 -2 0 0 0 0];


internalField   nonuniform List<scalar> 
78750
(
3.41414
1.1382
0.546614
0.188251
0.0278679
0.00584419
0.000340806
0.000758658
0.000363658
0.000687472
0.000352987
0.000699798
0.000364495
0.000571714
0.000448279
0.00051872
0.00044127
0.000495943
0.000445392
0.000469162
0.00044624
0.000448369
0.000439658
0.00043393
0.000426827
0.000419046
0.000410312
0.000400408
0.000389018
0.00037568
0.000359223
0.000337856
0.000308076
0.000230999
0.000274669
0.111018
0.027326
0.0227555
0.00110356
1.19054e-05
0.000426655
0.000930945
0.000417788
0.000755726
0.000459594
0.000656599
0.000497327
0.000591068
0.000526124
0.000565206
0.000541265
0.000562887
0.00055979
0.00057453
0.000582187
0.000595298
0.000607623
0.000621071
0.000634613
0.000647909
0.00066056
0.000673237
0.000687072
0.000703628
0.000725199
0.000752714
0.00078381
0.000798263
0.000494263
0.000706969
0.00268375
0.00024298
0.000384469
0.00101791
0.000744022
0.000814801
0.000639698
0.000691599
0.000557641
0.000599383
0.000508177
0.000529357
0.000462775
0.000466403
0.00041834
0.000410394
0.00037524
0.000359524
0.000337992
0.000326126
0.000317145
0.000312237
0.000309686
0.000308987
0.000309821
0.000312204
0.000316394
0.000323063
0.000333726
0.000352228
0.000386421
0.000464537
0.000703508
0.00135838
0.00274416
0.00141304
0.00115865
0.00101698
0.000978704
0.000970871
0.000948574
0.000941109
0.000913125
0.000903522
0.000870545
0.000846748
0.000797417
0.000757429
0.000709028
0.000679669
0.000655334
0.000634027
0.000601414
0.000561115
0.000522057
0.000492962
0.000474761
0.000464958
0.000460593
0.000459466
0.000460233
0.000462193
0.000465048
0.000468812
0.000473704
0.000476665
0.000460658
0.000303298
0.000420785
0.00298975
7.4962e-05
5.8521e-05
4.85927e-05
1.0116e-05
4.24653e-05
3.74679e-06
5.44735e-06
1.08823e-05
1.54616e-05
2.65472e-05
4.91013e-05
2.66222e-05
8.70322e-05
0.000108856
0.000142157
0.000164537
0.00018665
0.00020476
0.000219174
0.000229875
0.00023756
0.000243369
0.000248334
0.000253259
0.000258749
0.000265539
0.000274741
0.000288165
0.000308815
0.000342598
0.000404123
0.000554135
0.00101067
0.0017926
0.00463468
0.0001245
0.000343902
0.000444978
0.000408461
0.000362579
0.000344728
0.000337151
0.000336912
0.000343973
0.000357345
0.000374255
0.000389061
0.000394845
0.00039817
0.000397255
0.000393304
0.00038613
0.000377345
0.000368694
0.000361179
0.000354934
0.000349668
0.00034521
0.000341345
0.000337726
0.000334083
0.000330356
0.000326772
0.000323971
0.000322803
0.000321197
0.000299039
0.000308553
0.00118231
0.00505144
2.12499e-05
0.000151343
0.000208025
0.00020893
0.000189441
0.000157202
0.000122544
0.00010013
9.38445e-05
9.61097e-05
0.000100639
0.000106882
0.000116911
0.000129919
0.000145031
0.000160964
0.000176322
0.000189621
0.000200189
0.00020827
0.000214498
0.000219508
0.000223845
0.000228017
0.000232471
0.000237688
0.000244427
0.000254291
0.000271319
0.000306112
0.000385696
0.000598237
0.00115298
0.0023073
0.00614839
1.10638e-05
0.000104075
0.000156043
0.000190151
0.000216608
0.000239766
0.000262897
0.000284777
0.000302317
0.000314417
0.000322233
0.000327134
0.000330037
0.000331677
0.00033239
0.000332282
0.000331374
0.000329707
0.000327376
0.000324505
0.000321139
0.000317264
0.000312927
0.000308159
0.000303042
0.000297737
0.00029243
0.000287294
0.000282344
0.000277066
0.000268
0.00026055
0.000579349
0.00206706
0.00664783
8.39036e-06
6.33967e-05
9.66334e-05
0.000115168
0.000127225
0.000136204
0.000143971
0.000151771
0.000160023
0.000168325
0.000176259
0.000183513
0.000190032
0.000195945
0.000201437
0.000206615
0.000211493
0.000216019
0.000220104
0.000223681
0.000226724
0.000229284
0.000231509
0.000233694
0.000236219
0.000239697
0.000245339
0.000255668
0.000276296
0.000320207
0.000419785
0.00066047
0.00126231
0.00285072
0.00745734
6.47768e-06
6.1467e-05
9.66956e-05
0.000125579
0.000155489
0.000186212
0.000214082
0.000237754
0.000256701
0.000271119
0.000281735
0.000289468
0.000295147
0.000299368
0.000302472
0.000304636
0.000305939
0.000306409
0.000306056
0.000304879
0.000302855
0.000299946
0.000296174
0.000291552
0.000286015
0.000279562
0.000272187
0.000263662
0.00025372
0.000242803
0.00024257
0.000366815
0.0011012
0.0030817
0.00809424
4.79841e-06
5.46251e-05
8.61176e-05
0.000108736
0.000129911
0.000150741
0.000168609
0.000182693
0.000193861
0.000203095
0.000210979
0.00021778
0.000223649
0.000228727
0.000233144
0.000236991
0.000240313
0.000243132
0.000245464
0.000247331
0.000248764
0.000249816
0.000250597
0.000251334
0.000252471
0.000254976
0.000260787
0.000273468
0.000298453
0.000345802
0.000445332
0.000717426
0.00172755
0.00375519
0.00843537
6.4468e-06
5.51115e-05
8.84093e-05
0.000118025
0.000149331
0.000180571
0.000207498
0.000229808
0.000247933
0.000262406
0.000273812
0.000282749
0.000289741
0.000295182
0.000299326
0.000302325
0.000304272
0.000305227
0.000305225
0.000304275
0.00030237
0.000299491
0.000295611
0.000290651
0.000284545
0.000277275
0.000268845
0.000259662
0.000250711
0.000244786
0.000253183
0.000374016
0.00147475
0.00393196
0.00852317
5.69681e-06
5.20635e-05
8.40764e-05
0.000110476
0.000137081
0.000163883
0.000186089
0.000203783
0.000217992
0.000229592
0.00023921
0.000247291
0.000254161
0.00026005
0.000265105
0.000269401
0.000272961
0.000275782
0.000277854
0.000279185
0.000279793
0.000279716
0.00027904
0.00027797
0.000277101
0.000277721
0.0002822
0.000293602
0.000316243
0.000363742
0.000464149
9.1446e-05
0.000590087
0.00271117
0.0109181
7.48115e-06
5.52221e-05
8.86446e-05
0.000120175
0.000153698
0.000185256
0.000212083
0.000234426
0.000252893
0.000268081
0.000280564
0.000290854
0.000299349
0.000306311
0.00031192
0.00031627
0.000319374
0.000321252
0.000321927
0.000321414
0.000319698
0.000316676
0.000312133
0.000305695
0.000296801
0.00028431
0.000268604
0.000254847
0.000255577
0.000403888
0.000983697
0.00172906
0.00236654
0.00496278
0.0118631
6.85572e-06
5.37513e-05
8.64828e-05
0.000116668
0.000147919
0.000177351
0.000202157
0.000222804
0.00024007
0.000254595
0.000266893
0.000277389
0.00028641
0.000294155
0.000300706
0.000306083
0.00031029
0.000313326
0.000315205
0.000315942
0.000315561
0.000314135
0.000312028
0.000310121
0.000310116
0.000313245
0.000334143
0.000438464
0.000857041
0.00205579
0.00434273
0.00676628
0.00801304
0.00889378
0.0103966
8.28288e-06
5.62297e-05
9.08777e-05
0.000125068
0.00015975
0.000191226
0.000218647
0.000242271
0.000262503
0.000279765
0.000294522
0.00030725
0.000318292
0.000327802
0.000335813
0.000342319
0.000347336
0.00035091
0.000353116
0.000354043
0.000353807
0.000352435
0.000350846
0.000348437
0.000355357
0.000345636
0.000401809
0.000346728
0.000479321
0.000713289
0.000852331
0.00153141
0.00245087
0.00436222
0.0025794
1.18741e-05
5.69774e-05
9.25715e-05
0.000127541
0.000161638
0.000192628
0.000219961
0.000243871
0.000264776
0.000283122
0.00029938
0.000313907
0.000326795
0.000338049
0.000347723
0.00035589
0.000362633
0.000368047
0.000372234
0.000375205
0.000378025
0.000376807
0.000390619
0.000365353
0.000448564
0.000335865
0.000625928
0.000269806
0.000156256
2.57525e-05
6.58407e-05
0.000306274
0.000322217
0.000578614
0.00411343
1.75839e-05
6.35867e-05
0.000104159
0.000143266
0.000180674
0.000214914
0.00024566
0.000273041
0.000297462
0.000319439
0.000339008
0.000356271
0.000371336
0.000384258
0.00039506
0.000403767
0.000410416
0.000415081
0.000417869
0.000420073
0.000425776
0.000448262
0.000505422
0.000626581
0.000659534
0.000874045
0.00203956
0.00346551
0.00389581
0.00348226
0.00275121
0.0024947
0.00364118
0.00692119
0.0178321
1.33966e-05
6.52969e-05
0.000108248
0.000148487
0.000186946
0.000222677
0.000255353
0.000284965
0.00031151
0.000335183
0.0003561
0.000374378
0.000390054
0.000403043
0.00041319
0.000420324
0.000424387
0.0004261
0.00043105
0.000466964
0.000633405
0.0011888
0.00253294
0.00480857
0.00716688
0.0083919
0.00853947
0.00852359
0.00850042
0.00841121
0.00818563
0.00786042
0.008005
0.00949741
0.0129878
1.05663e-05
6.74594e-05
0.000112129
0.000153521
0.00019345
0.000231468
0.000267215
0.000300402
0.000330645
0.000357765
0.000381783
0.000402853
0.000421123
0.00043655
0.000449056
0.00045848
0.00046533
0.000469412
0.000472098
0.000477488
0.00047072
0.000469727
0.000475568
0.000642366
0.00105221
0.00190316
0.00285361
0.00340805
0.00362784
0.00367161
0.00409884
0.00606667
0.00791589
0.0086875
0.00673164
2.07804e-05
7.60387e-05
0.000123052
0.000168543
0.000212914
0.000255681
0.000296589
0.000335065
0.000370177
0.000401612
0.000429411
0.000453692
0.000474519
0.000491803
0.000505943
0.000515755
0.000528934
0.000540291
0.000561738
0.000613155
0.000608353
0.000653604
0.000666414
0.000451849
0.000181477
0.000256289
0.000241125
0.000448454
0.000783851
0.00134687
0.00202922
0.00316341
0.00426914
0.00422914
0.00132511
4.37548e-05
9.23038e-05
0.000148029
0.000203485
0.000257719
0.000310727
0.000360667
0.000406034
0.000446297
0.000481587
0.000512101
0.000537774
0.000558158
0.000572851
0.00058342
0.000603821
0.000670966
0.000839826
0.00110161
0.00133388
0.00152397
0.00211167
0.00293713
0.00310418
0.0027966
0.00229403
0.00152946
0.00062169
0.000110003
0.000302647
0.000893031
0.000850852
0.000564047
0.00162668
0.00592056
3.74113e-05
0.000100989
0.000167541
0.00023156
0.000294502
0.000355399
0.000411219
0.000460239
0.000502393
0.000538065
0.000566978
0.000587868
0.000599412
0.000606936
0.000652814
0.0008929
0.00168235
0.00347724
0.00605699
0.00800694
0.00849066
0.00840283
0.00818257
0.00776771
0.00717531
0.00641679
0.00553653
0.0046576
0.00391216
0.00330449
0.00278542
0.00233525
0.0029839
0.00505098
0.0111798
1.79307e-05
0.000101327
0.000169791
0.000236402
0.000303712
0.000369776
0.000430406
0.000483304
0.000528436
0.000566833
0.000599006
0.00062458
0.000643328
0.000654876
0.000650761
0.000591803
0.000429903
0.000277333
0.000486033
0.00123372
0.00225723
0.00354153
0.00503573
0.00667396
0.00832253
0.00933146
0.00952845
0.00941969
0.00924281
0.00888518
0.00807995
0.00693622
0.00640637
0.00702561
0.00913998
3.21351e-05
0.000125142
0.000197754
0.000274207
0.000352696
0.000427229
0.000494202
0.00055253
0.000602373
0.000643957
0.000677059
0.000700593
0.000715102
0.000724979
0.000745521
0.000800633
0.000855835
0.000918137
0.000968338
0.000950177
0.000929244
0.000844052
0.000794134
0.000903804
0.00122925
0.00208857
0.00337742
0.00452485
0.00539444
0.00621653
0.00713881
0.00772776
0.00772545
0.00775844
0.00836587
0.000119482
0.000188774
0.000277879
0.000380282
0.000478741
0.00056498
0.00063746
0.000697419
0.0007459
0.000782114
0.00080262
0.000802854
0.000791492
0.000816932
0.000975654
0.0012505
0.00146551
0.00162226
0.00174676
0.0016997
0.00171461
0.00174751
0.00165811
0.00147871
0.00124591
0.00122133
0.00157673
0.00208323
0.00264975
0.0034353
0.00490016
0.00676721
0.00797829
0.00867851
0.0108609
0.000193395
0.000232591
0.000350595
0.000473203
0.000578297
0.000663431
0.000732108
0.000786583
0.000824512
0.000836646
0.000807372
0.000738148
0.000729526
0.00109162
0.00233319
0.00433789
0.00514692
0.00448614
0.00377145
0.00327747
0.00301754
0.00284188
0.00267226
0.0024893
0.00228832
0.00212254
0.002053
0.00201637
0.0019418
0.00200943
0.00280114
0.00447571
0.00619817
0.00765939
0.00980694
0.000183002
0.000226891
0.000353709
0.000477833
0.00058621
0.00067568
0.000748125
0.000805259
0.000845229
0.000857101
0.000806195
0.000624801
0.000314891
0.000205262
0.000638779
0.00244228
0.00450596
0.00542842
0.00536574
0.00501129
0.00472393
0.00449398
0.00427562
0.00405147
0.00381677
0.00360414
0.00353446
0.00378432
0.00423936
0.00445083
0.0043539
0.00412481
0.00328911
0.0028536
0.00735437
0.000138999
0.00022266
0.000364049
0.00049959
0.000619249
0.000716443
0.00079255
0.000850664
0.000896191
0.000943167
0.00101516
0.001121
0.00118671
0.00104527
0.000755302
0.000872339
0.00213012
0.00429485
0.00646509
0.00816034
0.00886649
0.00877481
0.00834794
0.00764978
0.00673308
0.00560102
0.00425321
0.00301486
0.00258405
0.00305801
0.00374176
0.00399215
0.00393234
0.00540468
0.0121846
7.30949e-05
0.000205434
0.000351468
0.000496476
0.00062859
0.000737233
0.000822455
0.000885226
0.000919972
0.000914661
0.000865421
0.000806744
0.000819133
0.000939648
0.000999954
0.000723609
0.000266271
0.000304573
0.00124676
0.00287147
0.00500081
0.00750813
0.0100119
0.0121188
0.0130201
0.0128743
0.011975
0.0103426
0.00817223
0.00607022
0.00466528
0.00424424
0.00486004
0.00688268
0.0114565
7.61851e-05
0.000226829
0.000387658
0.000546824
0.000686839
0.000798987
0.000883804
0.000942007
0.000972332
0.000977927
0.000979617
0.0010158
0.00110722
0.00123393
0.00137855
0.00155438
0.00173642
0.00177826
0.00162664
0.00143253
0.0013462
0.00151057
0.00203214
0.00290912
0.00400367
0.00495825
0.00602346
0.00738715
0.00899632
0.00983569
0.00938118
0.00839353
0.00779708
0.00774596
0.00728619
0.000225223
0.000362902
0.000562609
0.00074279
0.000877978
0.00097163
0.00102783
0.00104192
0.0010123
0.000977682
0.00104374
0.00129702
0.00169419
0.00214563
0.00260959
0.00300359
0.0032357
0.00330615
0.00322751
0.00301831
0.00275005
0.00250626
0.00231636
0.00218497
0.00217961
0.00206818
0.00196653
0.00210263
0.00322315
0.00577164
0.00806207
0.00904584
0.00890723
0.0082696
0.0083173
0.000339474
0.000487062
0.00071145
0.000866742
0.000960928
0.00101268
0.00101323
0.0009511
0.000893838
0.00108525
0.00173387
0.00266882
0.00355856
0.00452312
0.00572452
0.00638567
0.00621463
0.00597576
0.00566403
0.0052374
0.00468588
0.0040636
0.00351179
0.00319611
0.00317091
0.00324848
0.00325003
0.00301365
0.00258874
0.00258968
0.00334466
0.00471038
0.00633797
0.00763454
0.00881114
0.000235801
0.000419896
0.000613946
0.000756314
0.000863241
0.000951157
0.00102536
0.00106163
0.000974101
0.000631633
0.000122221
8.79546e-05
3.35325e-06
0.00032611
0.00219252
0.00501097
0.00594356
0.00658766
0.00717573
0.00731378
0.00717125
0.00679299
0.006149
0.00525121
0.00431944
0.00356311
0.00300244
0.00272289
0.00291004
0.00357786
0.00446906
0.00513342
0.00520425
0.00515218
0.0078751
0.000173108
0.000411156
0.000615359
0.000762284
0.000866917
0.00094674
0.0010171
0.00109759
0.001211
0.00135714
0.00144842
0.00125682
0.000739621
0.000183036
2.22869e-05
0.000521973
0.00141647
0.00256183
0.00354911
0.00456785
0.00575811
0.0072573
0.00898321
0.0102773
0.0105047
0.0101399
0.00937336
0.00798825
0.00574985
0.00301699
0.000900085
0.00045294
0.00140986
0.00319474
0.00798545
9.63241e-05
0.000344714
0.000528018
0.000669675
0.000780602
0.000870131
0.000942551
0.00099347
0.00101486
0.00101061
0.00101672
0.00108456
0.00119768
0.00121231
0.000951394
0.000520811
0.000169676
3.17756e-05
0.000235413
0.000395321
0.000189212
5.27363e-05
0.000153665
0.00054005
0.00277146
0.00588647
0.00924718
0.0122989
0.0126885
0.0112301
0.00897388
0.00650753
0.00485213
0.00605964
0.0092637
6.76404e-05
0.000298545
0.000471797
0.000614454
0.00073327
0.00083375
0.000921026
0.000999346
0.00107279
0.00114378
0.0012077
0.00124869
0.00125471
0.00123934
0.00123492
0.00126003
0.00131209
0.00134762
0.00131729
0.00127242
0.00104066
0.000590595
0.000321089
0.000428174
0.00042426
0.000480156
0.000762579
0.00100277
0.00290412
0.00438856
0.00470961
0.00433682
0.00421153
0.00441415
0.0041621
7.30601e-05
0.000301829
0.00048164
0.000632948
0.000765365
0.000884095
0.000991572
0.00108819
0.00117341
0.00124605
0.00130439
0.00134814
0.00138175
0.001411
0.00143438
0.00145996
0.00143947
0.00142408
0.00132046
0.00105708
0.000765848
0.000708422
0.00095039
0.00120232
0.00110645
0.000936605
0.00123696
0.00100537
0.000536198
0.000810965
0.000264749
0.00220407
0.00367816
0.00321463
0.0104098
6.42149e-05
0.000309075
0.000492777
0.00065207
0.000803048
0.000947195
0.00108181
0.00120473
0.00131594
0.00141634
0.00150551
0.00158232
0.00164709
0.00170006
0.00174028
0.00175822
0.00172677
0.00151911
0.00105501
0.000129421
0.000354847
0.00119225
0.00575925
0.00936503
0.0091806
0.00715479
0.00416459
0.00202066
0.00204471
0.00359547
0.00505267
0.00664126
0.00836248
0.0110894
0.0199708
3.39973e-05
0.000287793
0.000467987
0.00064093
0.000822343
0.00100475
0.00117892
0.00134128
0.00149409
0.00164128
0.00178413
0.00191932
0.00204158
0.00214726
0.00223796
0.00230825
0.00227828
0.0019749
0.00139323
0.00132087
0.00295599
0.00642322
0.00939034
0.011224
0.0123377
0.013291
0.0131768
0.0122089
0.0110454
0.0104308
0.0105426
0.0111425
0.0117497
0.0124137
0.012446
2.91978e-05
0.000254762
0.000447916
0.000659753
0.000889446
0.00112259
0.00135089
0.0015773
0.00180942
0.00205343
0.00231141
0.00257479
0.00282495
0.00303915
0.00319744
0.00329488
0.00334636
0.00340624
0.00356592
0.00379939
0.00362488
0.00270574
0.0016228
0.000621209
0.000287648
0.00169375
0.00429112
0.00705759
0.0102158
0.0128434
0.0136874
0.0130792
0.0121028
0.0107998
0.00693904
2.9381e-05
0.000340663
0.000645585
0.000955467
0.00126121
0.00156315
0.0018828
0.00224668
0.00266567
0.00314004
0.00365536
0.00417084
0.00463208
0.00499193
0.00522369
0.00533392
0.00535557
0.00533104
0.00529589
0.00527797
0.00529087
0.00528668
0.00510756
0.00452409
0.00339547
0.00209395
0.000145646
0.000682883
0.0015053
0.00340979
0.0062067
0.00967724
0.0112309
0.0112818
0.00923047
0.000383915
0.000911196
0.00130806
0.0016631
0.00200584
0.00241813
0.00298271
0.00370917
0.00457822
0.00557342
0.0065841
0.00745992
0.00810842
0.00849454
0.00863404
0.0085958
0.00845959
0.00829626
0.00817273
0.00815804
0.00828871
0.0085075
0.00866046
0.00854835
0.00797926
0.00686191
0.00509629
0.00311714
0.000201088
0.00027175
0.000925835
0.00354521
0.00626349
0.00743919
0.0105104
0.00183993
0.00166277
0.00188173
0.0021818
0.00267504
0.0035366
0.00470902
0.00602881
0.00739507
0.00869777
0.00968855
0.0104234
0.0110607
0.011518
0.01172
0.0117806
0.0117765
0.0117485
0.0117302
0.0117651
0.0119034
0.0121704
0.0125202
0.01281
0.0128158
0.0123205
0.0111857
0.00943694
0.0070946
0.00404892
0.00116089
0.00150986
0.00382929
0.00703007
0.0168352
0.00190692
0.00121868
0.00154551
0.00198149
0.00258305
0.0031256
0.00336457
0.00341126
0.00323102
0.00327891
0.00378403
0.00501098
0.00726201
0.0102568
0.0121429
0.0131857
0.0138227
0.0142793
0.0146376
0.0149214
0.0151385
0.0152962
0.015389
0.0153795
0.0151725
0.014603
0.0134583
0.0115845
0.00874827
0.00377549
0.000752773
0.007016
0.0110727
0.0141428
0.0217893
0.00100792
0.00103122
0.00132305
0.00145189
0.00134287
0.000901993
0.0001236
0.000193909
0.000226888
0.000165894
0.000272239
0.00014765
0.00196236
0.00762462
0.0108485
0.0127734
0.0140413
0.0150498
0.0159548
0.0167816
0.0174796
0.0179898
0.0182866
0.0183588
0.0181531
0.0175189
0.0161684
0.0137331
0.00981139
0.00410894
0.00143119
0.00468049
0.012169
0.0150759
0.0173978
0.00112545
0.00119642
0.00159504
0.00202833
0.00262047
0.00326205
0.00364161
0.00338403
0.00297734
0.00240225
0.00201641
0.00296319
0.00545527
0.00766867
0.00934423
0.0107468
0.0123911
0.0139579
0.0153334
0.0165827
0.017643
0.0185613
0.0194264
0.0202075
0.0207205
0.0207814
0.0202738
0.0189903
0.0164232
0.0118854
0.00603625
0.00300867
0.00656644
0.00945168
0.0118993
0.000435443
0.000856636
0.00113606
0.00132096
0.00137356
0.00132175
0.00135554
0.00166398
0.00200916
0.00216137
0.00174862
0.000730469
0.000442093
0.000135788
0.000551681
0.000907041
0.00266109
0.00501071
0.00697851
0.0100654
0.013682
0.0172781
0.0199674
0.0213546
0.0215493
0.0209496
0.0199001
0.0186166
0.0171217
0.0151639
0.0125854
0.0101643
0.00993256
0.0106044
0.0113892
0.000220362
0.000686973
0.00100086
0.00126192
0.00148537
0.00168503
0.00184137
0.00190487
0.00194422
0.00212066
0.00258389
0.00342717
0.00436248
0.00466626
0.00454043
0.00413314
0.00320652
0.00110908
4.40881e-05
0.000727905
0.000291887
0.000142241
4.50472e-05
0.00152502
0.00980136
0.0179352
0.0210122
0.0210998
0.019506
0.016782
0.0132234
0.00960212
0.00755831
0.00767893
0.00883096
0.000119713
0.000634275
0.00101204
0.00136559
0.00171696
0.00205943
0.00239565
0.00274009
0.00308793
0.00340148
0.00361071
0.00363408
0.00347299
0.00328841
0.00318212
0.00318383
0.00333981
0.00414406
0.00510458
0.00582218
0.00581346
0.00474761
0.00283663
0.00149236
0.000455797
0.000926087
0.00429505
0.010945
0.0170325
0.019071
0.0182624
0.0160239
0.0133723
0.0108813
0.0081571
7.09018e-05
0.00060446
0.00100792
0.00138767
0.00174614
0.0020645
0.00235692
0.00265857
0.00299535
0.0033843
0.00382716
0.00431362
0.00483365
0.0053617
0.0058598
0.0063208
0.00672088
0.00693418
0.00703143
0.00715427
0.00739029
0.00771068
0.00797215
0.00793008
0.00720215
0.00566742
0.00393824
0.00264481
0.00438393
0.00793479
0.0109423
0.0122122
0.0120464
0.0107771
0.00887178
6.66032e-05
0.000674402
0.00118781
0.00168149
0.00214086
0.00255986
0.00301181
0.00357882
0.00428803
0.00512364
0.00600006
0.00677245
0.00731729
0.00760418
0.0077015
0.00772082
0.0077782
0.00799505
0.00847217
0.00930537
0.0104835
0.0117685
0.0128988
0.0137009
0.0138644
0.0128601
0.0104012
0.0067059
0.00105606
0.00120422
0.00687259
0.0107438
0.0122962
0.0127372
0.0140778
9.3892e-05
0.000891693
0.0015627
0.00210257
0.00252554
0.00290049
0.00342325
0.00422946
0.00535214
0.00665623
0.00785059
0.00871653
0.0092115
0.00941956
0.00948987
0.00959676
0.00994528
0.0107056
0.0117281
0.0127037
0.0135782
0.0144261
0.0153449
0.0164279
0.0175732
0.0182328
0.0177208
0.0158224
0.0123531
0.00748991
0.00364018
0.00831407
0.0111876
0.0124091
0.0143109
0.000790616
0.00208918
0.0026371
0.0029532
0.0031501
0.00352901
0.00451677
0.00624463
0.00841453
0.0102564
0.0113485
0.0118318
0.0119743
0.0119573
0.0118725
0.0117678
0.0116735
0.0116232
0.0116698
0.0118459
0.0121143
0.0123676
0.0124533
0.0122118
0.0111961
0.0089006
0.00851012
0.0106411
0.0120562
0.0115999
0.00879198
0.00919882
0.0105386
0.0121004
0.0162368
0.00398867
0.00338241
0.00301409
0.00284724
0.00287942
0.00388164
0.00639203
0.0097435
0.0123598
0.0131116
0.0132524
0.0134351
0.0136784
0.0139107
0.0140806
0.014192
0.0142838
0.0144117
0.014638
0.0150194
0.0155793
0.0162581
0.016892
0.0172958
0.0172674
0.0167276
0.015989
0.0152881
0.0142028
0.0121083
0.0086555
0.00905002
0.0122244
0.0145884
0.0198008
0.00563229
0.00213694
0.00197192
0.0019392
0.00176596
0.00232374
0.00388872
0.00550131
0.00691797
0.00799472
0.00905496
0.0103032
0.0118081
0.0131453
0.0139877
0.0144009
0.0145516
0.0145734
0.0146004
0.0148341
0.0155366
0.0167976
0.0182634
0.0194322
0.0201273
0.0203815
0.0202273
0.0196073
0.0182871
0.0157397
0.0112329
0.00786861
0.0114067
0.0147534
0.0209556
0.00310421
0.0019473
0.00249162
0.00231594
0.0016618
0.000576087
0.000201087
0.000416744
0.000348727
0.00103982
0.00214281
0.00365224
0.00673768
0.0106063
0.0133495
0.0147513
0.015417
0.0157527
0.0159729
0.0163212
0.0171617
0.0185734
0.020011
0.0210833
0.0217835
0.022136
0.0221091
0.0216334
0.0205926
0.0186758
0.0152034
0.0106067
0.011181
0.014212
0.0202506
0.00342787
0.00245833
0.0025367
0.00301142
0.00357888
0.00393121
0.00354828
0.00269715
0.00147262
0.000559012
0.00018959
0.000238704
0.00315211
0.00903775
0.0128257
0.0143264
0.0150465
0.0154967
0.015861
0.0162959
0.0171145
0.01866
0.0205897
0.0220629
0.0229499
0.0234174
0.0235037
0.0231328
0.0221768
0.0204694
0.0177685
0.0142068
0.0132998
0.0154459
0.0208357
0.00276786
0.00127172
0.00169716
0.00182199
0.00198116
0.00233401
0.00303058
0.00382602
0.00414647
0.00303791
0.00138822
0.000877893
0.0037432
0.00942814
0.012559
0.0134317
0.0141112
0.0146965
0.0151943
0.0156452
0.0161689
0.0170055
0.0183239
0.0198789
0.0212209
0.0221215
0.0225651
0.0225419
0.0219653
0.020583
0.0180215
0.0150418
0.0148048
0.0169632
0.02159
0.00124683
0.000962345
0.0010878
0.00127044
0.0015978
0.00197384
0.00242099
0.00311636
0.00398264
0.00409735
0.00291634
0.00242521
0.00435301
0.00692909
0.00813601
0.00880902
0.00969638
0.0108826
0.0121569
0.0133327
0.0143632
0.0153156
0.0162768
0.0174104
0.0186933
0.0197924
0.0204239
0.0205084
0.0200039
0.0188801
0.0172676
0.0159703
0.0163334
0.0176211
0.0193906
0.00106786
0.00142972
0.00232562
0.00330787
0.00402848
0.00444801
0.00451556
0.00419421
0.00371637
0.00357298
0.00355616
0.0026172
0.000932927
0.000700735
0.000843497
0.000596406
0.00079251
0.00171332
0.0031849
0.00488873
0.00668074
0.00871709
0.0109052
0.0129244
0.0140519
0.014641
0.0155658
0.016813
0.0176116
0.017497
0.0165577
0.0158006
0.0159526
0.016278
0.015052
0.00088441
0.001636
0.00218174
0.0023352
0.00248864
0.00271295
0.00298724
0.00326779
0.00352127
0.00372428
0.00418883
0.00543358
0.00672445
0.00680939
0.00605285
0.00450169
0.00294975
0.00238616
0.00150729
0.00127701
0.00155566
0.000824058
0.00202906
0.0023832
0.00784146
0.0125839
0.0146089
0.0148214
0.0145486
0.0146593
0.0149309
0.0147522
0.0144958
0.0141083
0.0124639
0.000186893
0.000568312
0.000572585
0.00071267
0.00114128
0.00187391
0.00270193
0.00348038
0.00420753
0.00494189
0.00560222
0.00585907
0.00589808
0.00633171
0.00767666
0.00986683
0.0116273
0.0125301
0.0128557
0.0125669
0.0117431
0.0100646
0.00528073
0.00156605
0.000866677
0.00063938
0.00712446
0.0120283
0.0131406
0.0126596
0.0123395
0.0128081
0.0134508
0.0140043
0.0151604
0.000188111
0.000687845
0.00128534
0.00207994
0.00318915
0.00449442
0.00559716
0.00645323
0.00713492
0.0075878
0.00785082
0.00817753
0.00872187
0.00925371
0.0095668
0.00976023
0.0100836
0.0105142
0.0108692
0.0111054
0.0114497
0.0116099
0.0100884
0.00661059
0.00150339
0.000773969
0.000414801
0.00748708
0.0138216
0.0154538
0.0143181
0.0131706
0.0129446
0.0133784
0.0152177
0.000240328
0.000840444
0.00140059
0.00203939
0.00290907
0.00389299
0.00473499
0.00537555
0.00585296
0.00610598
0.00611576
0.00603643
0.00619562
0.00704442
0.00888686
0.0115648
0.0144215
0.0165713
0.0175983
0.0176296
0.0169242
0.0157465
0.0142067
0.0122687
0.00990713
0.00669636
0.00268906
0.00109006
0.00317871
0.00969349
0.0136732
0.014299
0.0141648
0.014156
0.0151771
0.000297653
0.000969818
0.00165911
0.00254706
0.00381043
0.0050109
0.00605738
0.00708717
0.00789628
0.00831221
0.00853424
0.00886058
0.00947696
0.0103645
0.0114162
0.0126095
0.0139692
0.0154718
0.0170096
0.0184092
0.0194527
0.0199249
0.0196863
0.0187082
0.0170252
0.0146808
0.0118109
0.00851605
0.00495291
0.00304552
0.00815851
0.0121781
0.0135908
0.0141933
0.0159614
0.000465471
0.00136668
0.002405
0.00359984
0.00480707
0.00586075
0.00698221
0.00793292
0.0083
0.00831663
0.0082912
0.00834814
0.00855933
0.00905091
0.00998449
0.0114527
0.0133906
0.0155855
0.0177646
0.0196766
0.0211243
0.0219867
0.0222112
0.0217969
0.0207729
0.0191804
0.0170479
0.0143984
0.0110187
0.00539054
0.00341735
0.00740174
0.0114662
0.0139468
0.0181949
0.000694336
0.00222088
0.00345072
0.00437228
0.00508711
0.00610461
0.00726397
0.00791392
0.00825778
0.00857559
0.0089489
0.00940424
0.00995555
0.0106156
0.0114211
0.0124399
0.01373
0.0152898
0.0170451
0.0188555
0.0205274
0.0218543
0.0226686
0.0228828
0.0224889
0.0215226
0.0200108
0.0178811
0.0148717
0.00923068
0.00357062
0.00580853
0.00929063
0.0127481
0.0196166
0.00194683
0.00392857
0.00446161
0.00469853
0.00535022
0.00647739
0.00736203
0.00798263
0.00863441
0.00937285
0.0101452
0.0109241
0.0117011
0.0124675
0.0132166
0.0139555
0.014726
0.0156115
0.0167051
0.0180431
0.0195329
0.0209633
0.0220933
0.0227612
0.0229023
0.0225053
0.0215536
0.0199428
0.0173265
0.0122414
0.00305651
0.00789284
0.0111159
0.0141517
0.0207837
0.00484528
0.00425917
0.0033919
0.00311721
0.00302872
0.00302118
0.00335042
0.00416963
0.0054553
0.00730487
0.00917855
0.0108143
0.0122892
0.0136984
0.0150683
0.0163678
0.0175481
0.018581
0.0194799
0.0203048
0.0211284
0.0219676
0.0227079
0.0231659
0.0232157
0.022806
0.0218825
0.0202902
0.0175885
0.0123886
0.00249399
0.00328862
0.00976609
0.0136643
0.0180689
0.00508567
0.00275803
0.00247365
0.00222246
0.00146069
0.000708074
0.000299575
0.000488872
0.00133031
0.00410936
0.00750853
0.0102415
0.0123954
0.0142515
0.0160105
0.0177491
0.0194594
0.02108
0.0225331
0.0237611
0.0247333
0.0254389
0.0258669
0.025996
0.0257921
0.0252061
0.0241601
0.0225015
0.0198397
0.0152704
0.00751843
0.00185825
0.00658093
0.0106824
0.0147336
0.0030461
0.00296843
0.00306295
0.0029324
0.00288159
0.00266598
0.00193982
0.000999272
0.000241503
0.00264689
0.00698766
0.0100573
0.0122672
0.0141067
0.0158435
0.0176065
0.0194134
0.0212079
0.0228918
0.0243765
0.0255984
0.0265202
0.0271175
0.0273686
0.0272482
0.0267203
0.0257307
0.0241881
0.0218971
0.0184276
0.0131547
0.00709264
0.00663409
0.00950897
0.013785
0.00421674
0.00277857
0.0023062
0.00276383
0.00351419
0.00411499
0.0042613
0.00340053
0.002735
0.00432138
0.00838274
0.0110281
0.0129002
0.0144344
0.0158873
0.0174005
0.0190462
0.0208206
0.0226236
0.0243069
0.02575
0.0268934
0.0277149
0.0281986
0.0283213
0.0280513
0.0273507
0.0261722
0.0244384
0.0219754
0.0184447
0.013919
0.0109638
0.0114578
0.0138888
0.00453319
0.00190913
0.00240766
0.00299035
0.00318113
0.00327637
0.0035059
0.0039967
0.00518999
0.00766341
0.00984823
0.0115525
0.0132541
0.0149637
0.0166497
0.0183181
0.0199849
0.0216456
0.0232611
0.0247686
0.0261017
0.0272107
0.0280598
0.0286172
0.028848
0.0287179
0.0281983
0.0272665
0.025888
0.0239709
0.0212994
0.0176716
0.0141446
0.013233
0.0142009
0.00392873
0.00351838
0.00449942
0.00470844
0.00445164
0.00396583
0.00367565
0.00379981
0.00402795
0.00410834
0.00481827
0.00620616
0.00796488
0.0101384
0.0126147
0.0151639
0.0176072
0.0198548
0.0219095
0.0237677
0.0253996
0.0267765
0.0278825
0.0287045
0.0292191
0.0293901
0.0291772
0.0285417
0.0274422
0.0258016
0.0234368
0.0201345
0.0166474
0.0150793
0.0150129
0.00310348
0.00334552
0.00320095
0.00297694
0.00305767
0.00337486
0.00366923
0.0036111
0.00304767
0.00224381
0.00163434
0.00157339
0.0019345
0.00287817
0.00488459
0.00802849