/*--------------------------------*- C++ -*----------------------------------*\
| =========                 |                                                 |
| \\      /  F ield         | OpenFOAM: The Open Source CFD Toolbox           |
|  \\    /   O peration     | Version:  v2012                                 |
|   \\  /    A nd           | Website:  www.openfoam.com                      |
|    \\/     M anipulation  |                                                 |
\*---------------------------------------------------------------------------*/
FoamFile
{
    version     2.0;
    format      ascii;
    class       volScalarField;
    location    "2";
    object      nut;
}
// * * * * * * * * * * * * * * * * * * * * * * * * * * * * * * * * * * * * * //

dimensions      [0 2 -1 0 0 0 0];


internalField   nonuniform List<scalar> 
78750
(
0.00110778
0.00245134
0.00169875
0.00072493
0.000133635
4.89351e-05
3.18337e-06
7.3016e-06
3.91911e-06
7.8482e-06
4.58486e-06
9.84559e-06
5.74772e-06
9.62935e-06
8.48154e-06
1.04065e-05
9.82458e-06
1.1691e-05
1.15008e-05
1.27858e-05
1.31295e-05
1.38839e-05
1.44776e-05
1.49867e-05
1.54625e-05
1.58185e-05
1.60631e-05
1.62073e-05
1.62209e-05
1.59992e-05
1.55097e-05
1.4784e-05
1.07424e-05
3.03674e-06
4.75295e-07
0.000139277
0.000120448
0.000201366
7.83303e-06
5.96772e-08
2.82429e-06
8.93764e-06
4.8218e-06
1.19326e-05
8.48151e-06
1.4892e-05
1.27883e-05
1.68011e-05
1.65956e-05
1.87494e-05
1.96288e-05
2.1296e-05
2.28583e-05
2.45137e-05
2.63466e-05
2.80514e-05
2.98633e-05
3.15378e-05
3.31867e-05
3.47282e-05
3.61831e-05
3.76042e-05
3.90865e-05
4.08714e-05
4.339e-05
4.65026e-05
4.61627e-05
2.43497e-05
3.25141e-06
8.28586e-07
5.47366e-06
1.42313e-06
2.69845e-06
7.91679e-06
7.5977e-06
1.50148e-05
1.51528e-05
2.32485e-05
2.13303e-05
2.27224e-05
1.82971e-05
1.74829e-05
1.46945e-05
1.41464e-05
1.26389e-05
1.24305e-05
1.18792e-05
1.21083e-05
1.24922e-05
1.32094e-05
1.40492e-05
1.48939e-05
1.57343e-05
1.65289e-05
1.72602e-05
1.78621e-05
1.81851e-05
1.80473e-05
1.7091e-05
1.48395e-05
1.10439e-05
6.84657e-06
5.34923e-06
8.76357e-06
3.18638e-06
3.00004e-06
1.28097e-05
1.34301e-05
1.71233e-05
2.53324e-05
2.78007e-05
2.83855e-05
2.68853e-05
2.68587e-05
2.62153e-05
2.66885e-05
2.61755e-05
2.61919e-05
2.65156e-05
2.7742e-05
2.76043e-05
2.59017e-05
2.38874e-05
2.30929e-05
2.41507e-05
2.66011e-05
2.92691e-05
3.13131e-05
3.26057e-05
3.31895e-05
3.30829e-05
3.23581e-05
3.12534e-05
3.01504e-05
2.90185e-05
2.70848e-05
1.8414e-05
2.19002e-06
1.7385e-06
3.46802e-06
1.62292e-07
4.88141e-07
1.37348e-06
1.66711e-07
8.76189e-07
1.24451e-07
2.27395e-07
4.74344e-07
6.44521e-07
1.06081e-06
1.96111e-06
1.13201e-06
4.10578e-06
5.7412e-06
8.5706e-06
1.16147e-05
1.57721e-05
2.05106e-05
2.31165e-05
2.23613e-05
2.07953e-05
1.97096e-05
1.90405e-05
1.85006e-05
1.78089e-05
1.68115e-05
1.54853e-05
1.38988e-05
1.21725e-05
1.01579e-05
7.39489e-06
5.07432e-06
5.81985e-06
1.13817e-05
5.34084e-06
2.69301e-07
7.35679e-06
7.57155e-06
6.01443e-06
9.28129e-06
1.54772e-05
1.90458e-05
2.03521e-05
2.04521e-05
2.10898e-05
2.34854e-05
2.86188e-05
3.56156e-05
4.04508e-05
3.87839e-05
3.38112e-05
2.97584e-05
2.7423e-05
2.609e-05
2.51249e-05
2.4281e-05
2.34921e-05
2.28037e-05
2.2194e-05
2.14627e-05
2.03693e-05
1.87251e-05
1.64733e-05
1.38547e-05
1.13386e-05
8.13596e-06
3.03619e-06
1.29832e-06
4.97958e-06
5.81182e-06
4.60521e-08
4.26637e-06
1.19766e-05
1.62265e-05
1.12542e-05
6.68211e-06
4.58195e-06
4.38871e-06
6.22956e-06
1.04462e-05
1.36083e-05
1.36357e-05
1.38808e-05
1.43822e-05
1.4842e-05
1.56663e-05
1.74593e-05
2.05267e-05
2.43191e-05
2.71383e-05
2.76094e-05
2.62813e-05
2.43645e-05
2.25031e-05
2.07693e-05
1.89295e-05
1.66858e-05
1.39046e-05
1.06444e-05
7.41095e-06
4.81853e-06
3.79595e-06
5.03253e-06
1.42297e-05
7.04474e-06
2.39818e-08
1.10332e-05
1.82176e-05
1.33547e-05
1.12942e-05
1.11442e-05
1.18745e-05
1.33184e-05
1.53408e-05
1.7589e-05
1.98037e-05
2.19329e-05
2.39601e-05
2.59069e-05
2.77694e-05
2.92863e-05
2.99997e-05
2.97398e-05
2.88585e-05
2.78342e-05
2.68727e-05
2.59298e-05
2.49266e-05
2.38046e-05
2.2532e-05
2.10032e-05
1.9009e-05
1.63133e-05
1.27276e-05
8.4416e-06
4.10395e-06
1.52258e-06
1.93593e-06
9.80388e-06
7.60302e-06
1.81878e-08
3.78495e-06
1.3125e-05
2.13263e-05
1.57181e-05
9.97171e-06
8.31676e-06
8.87927e-06
1.07878e-05
1.38581e-05
1.80579e-05
2.30078e-05
2.74454e-05
2.98409e-05
3.01487e-05
2.94426e-05
2.85437e-05
2.78007e-05
2.724e-05
2.67326e-05
2.61658e-05
2.55021e-05
2.4614e-05
2.34311e-05
2.19493e-05
2.0156e-05
1.79251e-05
1.4973e-05
1.11367e-05
7.11628e-06
4.26576e-06
3.3051e-06
4.55349e-06
1.74942e-05
8.50376e-06
1.40422e-08
9.83344e-06
2.17229e-05
2.23826e-05
1.28296e-05
1.00261e-05
1.00733e-05
1.14988e-05
1.37491e-05
1.6525e-05
1.95358e-05
2.24279e-05
2.48465e-05
2.65811e-05
2.76038e-05
2.79884e-05
2.78531e-05
2.73348e-05
2.65811e-05
2.57627e-05
2.49873e-05
2.42384e-05
2.34865e-05
2.26762e-05
2.17238e-05
2.05007e-05
1.87237e-05
1.58321e-05
1.13061e-05
6.00766e-06
2.41717e-06
1.53629e-06
3.33115e-06
1.80194e-05
9.20913e-06
1.04022e-08
5.6444e-06
1.96915e-05
2.39168e-05
1.66954e-05
1.11234e-05
1.01939e-05
1.11478e-05
1.31582e-05
1.6054e-05
1.97762e-05
2.3991e-05
2.77883e-05
3.00849e-05
3.06408e-05
3.00962e-05
2.91452e-05
2.81493e-05
2.71964e-05
2.62778e-05
2.53924e-05
2.44845e-05
2.34507e-05
2.22355e-05
2.08203e-05
1.91875e-05
1.72331e-05
1.46574e-05
1.10544e-05
6.84539e-06
3.77903e-06
2.7735e-06
5.41721e-06
2.85121e-05
9.58602e-06
1.39752e-08
1.18047e-05
2.01417e-05
2.19062e-05
1.23117e-05
1.00695e-05
1.03521e-05
1.18439e-05
1.41321e-05
1.69638e-05
1.9999e-05
2.279e-05
2.49465e-05
2.62925e-05
2.68634e-05
2.67975e-05
2.62516e-05
2.5368e-05
2.4279e-05
2.31078e-05
2.18823e-05
2.05815e-05
1.91997e-05
1.77206e-05
1.6123e-05
1.43706e-05
1.24073e-05
1.01692e-05
7.61233e-06
4.75135e-06
2.372e-06
1.47552e-06
4.39826e-06
2.41213e-05
9.68097e-06
1.23495e-08
9.22501e-06
1.92964e-05
2.42332e-05
1.36337e-05
1.05731e-05
1.05524e-05
1.1807e-05
1.38275e-05
1.64066e-05
1.93214e-05
2.21867e-05
2.45015e-05
2.59073e-05
2.63758e-05
2.61293e-05
2.54397e-05
2.45092e-05
2.34451e-05
2.23025e-05
2.10824e-05
1.974e-05
1.82617e-05
1.66744e-05
1.50339e-05
1.34082e-05
1.18475e-05
1.03558e-05
8.41822e-06
6.35364e-06
4.67993e-06
3.78028e-07
1.43994e-06
1.17625e-05
1.07671e-05
1.6217e-08
1.33995e-05
2.01873e-05
1.68435e-05
1.08393e-05
9.62714e-06
1.01677e-05
1.15815e-05
1.35221e-05
1.57115e-05
1.78439e-05
1.96477e-05
2.09865e-05
2.18649e-05
2.23592e-05
2.25496e-05
2.24969e-05
2.22539e-05
2.18832e-05
2.14688e-05
2.10216e-05
2.05143e-05
1.99443e-05
1.93447e-05
1.88585e-05
1.90442e-05
2.22008e-05
2.91113e-05
5.74336e-06
2.78678e-06
3.83719e-06
5.77165e-06
8.44316e-06
3.99581e-05
1.15263e-05
1.48614e-08
1.3081e-05
1.97695e-05
1.96229e-05
1.21188e-05
1.0602e-05
1.11586e-05
1.27229e-05
1.49479e-05
1.75885e-05
2.03147e-05
2.27056e-05
2.44075e-05
2.52877e-05
2.54062e-05
2.49058e-05
2.39465e-05
2.26526e-05
2.11037e-05
1.93785e-05
1.75082e-05
1.55486e-05
1.36278e-05
1.18025e-05
1.00629e-05
8.52242e-06
7.24546e-06
5.65274e-06
5.27606e-06
6.96552e-06
1.18749e-05
2.73665e-05
8.35715e-05
4.20384e-05
1.12179e-05
1.79546e-08
1.36203e-05
2.06193e-05
1.51261e-05
1.1392e-05
1.09975e-05
1.22198e-05
1.46266e-05
1.81322e-05
2.24821e-05
2.67946e-05
2.95955e-05
2.99378e-05
2.82148e-05
2.5451e-05
2.24415e-05
1.95724e-05
1.69746e-05
1.46596e-05
1.26101e-05
1.08111e-05
9.25391e-06
7.91468e-06
6.79833e-06
6.05672e-06
5.11158e-06
6.19786e-06
5.0355e-06
4.90554e-06
5.40863e-06
6.41851e-06
1.27989e-05
1.78992e-05
4.73603e-05
2.99827e-06
2.57373e-08
9.06833e-06
1.26599e-05
1.07258e-05
9.47218e-06
9.56112e-06
1.05206e-05
1.20519e-05
1.3894e-05
1.57043e-05
1.7104e-05
1.78259e-05
1.7814e-05
1.71939e-05
1.61654e-05
1.49151e-05
1.3584e-05
1.22662e-05
1.10178e-05
9.87604e-06
8.88743e-06
7.9824e-06
7.53683e-06
6.58136e-06
6.76265e-06
4.64699e-06
8.99166e-06
3.49995e-06
3.07948e-06
4.31183e-07
9.18212e-07
4.40191e-06
2.05645e-06
1.743e-06
4.74334e-06
3.81092e-08
7.45399e-06
1.00606e-05
8.47185e-06
7.90251e-06
8.19017e-06
8.98663e-06
1.00639e-05
1.12243e-05
1.22836e-05
1.30962e-05
1.36121e-05
1.38493e-05
1.38475e-05
1.36492e-05
1.32997e-05
1.28509e-05
1.23722e-05
1.19382e-05
1.17407e-05
1.21256e-05
1.41485e-05
2.2136e-05
2.22971e-05
1.1759e-05
5.51547e-06
8.55287e-06
1.95571e-05
4.46064e-05
3.89862e-05
2.00901e-05
1.35792e-05
1.5579e-05
3.34905e-05
1.46626e-05
2.90365e-08
7.59214e-06
9.95629e-06
8.90277e-06
8.68483e-06
9.31987e-06
1.05919e-05
1.23108e-05
1.42189e-05
1.59962e-05
1.73809e-05
1.82676e-05
1.86451e-05
1.85379e-05
1.79985e-05
1.71091e-05
1.5978e-05
1.47112e-05
1.33953e-05
1.27778e-05
1.41776e-05
1.57852e-05
1.6925e-05
2.21791e-05
3.61459e-05
6.89495e-05
0.000116657
0.000123576
0.000110396
9.97778e-05
8.80706e-05
6.99449e-05
6.13832e-05
7.79946e-05
1.35473e-05
2.29032e-08
5.57224e-06
8.76329e-06
9.38551e-06
1.00078e-05
1.14725e-05
1.40618e-05
1.79912e-05
2.31563e-05
2.83889e-05
3.14194e-05
3.0924e-05
2.78523e-05
2.39536e-05
2.0278e-05
1.71361e-05
1.45942e-05
1.23037e-05
1.03922e-05
8.84518e-06
7.74815e-06
7.6394e-06
8.79012e-06
1.07054e-05
1.04305e-05
1.45772e-05
2.37313e-05
3.53796e-05
4.43991e-05
3.84476e-05
2.39001e-05
3.03015e-05
6.66302e-05
6.51838e-05
7.70122e-06
4.50339e-08
3.38289e-06
5.99835e-06
7.12028e-06
8.00584e-06
9.27332e-06
1.10373e-05
1.31578e-05
1.52924e-05
1.70421e-05
1.81258e-05
1.84572e-05
1.81098e-05
1.72487e-05
1.61365e-05
1.48091e-05
1.41132e-05
1.29695e-05
1.24173e-05
1.32676e-05
9.78174e-06
8.92136e-06
9.53366e-06
5.31006e-06
2.00675e-06
4.32154e-06
5.18628e-06
4.63506e-06
4.75273e-06
8.1488e-06
1.63272e-05
3.33573e-05
8.44646e-05
3.56272e-05
1.54914e-06
9.4781e-08
2.99639e-06
5.37343e-06
6.41271e-06
7.37791e-06
8.69489e-06
1.02992e-05
1.1974e-05
1.34863e-05
1.47028e-05
1.56081e-05
1.62434e-05
1.66763e-05
1.7085e-05
1.80511e-05
2.13049e-05
3.28959e-05
3.94314e-05
2.84203e-05
2.04467e-05
1.06788e-05
9.61599e-06
1.7401e-05
4.21969e-05
7.0853e-05
5.46595e-05
2.50671e-05
7.23966e-06
1.13768e-06
4.48905e-06
2.23053e-05
1.0006e-05
4.73566e-06
2.15083e-05
6.72574e-06
8.10498e-08
3.10839e-06
5.31342e-06
6.68134e-06
8.23648e-06
1.0254e-05
1.2586e-05
1.48601e-05
1.67336e-05
1.80906e-05
1.89542e-05
1.93365e-05
1.92995e-05
1.93459e-05
2.10787e-05
2.25777e-05
1.95586e-05
2.19087e-05
3.22716e-05
5.82402e-05
0.000110638
0.00016706
0.000212417
0.000243974
0.00020696
0.00013283
7.99024e-05
5.4019e-05
4.23225e-05
3.50513e-05
2.47539e-05
1.63907e-05
2.55298e-05
8.2975e-05
1.11356e-05
3.88604e-08
2.89868e-06
5.09521e-06
7.3751e-06
1.02388e-05
1.43217e-05
1.99497e-05
2.62021e-05
3.04565e-05
3.09162e-05
2.84147e-05
2.47225e-05
2.09547e-05
1.73829e-05
1.41086e-05
1.08048e-05
6.70304e-06
3.58707e-06
5.17082e-06
1.1517e-05
1.89931e-05
2.69089e-05
3.55675e-05
4.55189e-05
6.55781e-05
0.00010686
0.000146864
0.000143336
0.000122549
0.000103251
8.32561e-05
6.68334e-05
7.39059e-05
8.45183e-05
1.03621e-05
6.96253e-08
2.28361e-06
4.3313e-06
6.68755e-06
9.46091e-06
1.28188e-05
1.65449e-05
1.99022e-05
2.20532e-05
2.26471e-05
2.19139e-05
2.03275e-05
1.82897e-05
1.59315e-05
1.38734e-05
1.30661e-05
1.26789e-05
1.39441e-05
1.42289e-05
1.2992e-05
1.42501e-05
1.25933e-05
1.12154e-05
1.21819e-05
1.24256e-05
1.69416e-05
3.01247e-05
5.47366e-05
7.85744e-05
7.96693e-05
6.55278e-05
5.69773e-05
6.31485e-05
7.96477e-05
9.50879e-06
2.58459e-07
2.4821e-06
4.89524e-06
7.49788e-06
1.02506e-05
1.31313e-05
1.57526e-05
1.77313e-05
1.88946e-05
1.91705e-05
1.8648e-05
1.7936e-05
1.88951e-05
2.49945e-05
2.00769e-05
1.55754e-05
1.53467e-05
1.82599e-05
1.74451e-05
1.01211e-05
9.41137e-06
1.68853e-05
3.4225e-05
3.13402e-05
2.14092e-05
2.01654e-05
3.04075e-05
4.35907e-05
4.2739e-05
3.72802e-05
4.047e-05
5.45561e-05
7.98047e-05
9.61589e-05
1.03976e-05
4.17818e-07
2.97351e-06
6.19986e-06
9.38582e-06
1.28465e-05
1.62225e-05
1.87955e-05
2.03224e-05
2.06021e-05
1.9219e-05
1.66616e-05
1.58139e-05
1.9614e-05
8.36231e-06
7.90208e-06
1.45101e-05
3.95244e-05
6.9446e-05
6.27335e-05
7.01445e-05
8.70745e-05
8.36316e-05
6.8244e-05
5.1972e-05
3.60682e-05
2.55348e-05
2.06938e-05
1.81461e-05
1.57175e-05
1.48849e-05
2.18063e-05
4.79898e-05
9.34027e-05
5.62117e-05
9.71457e-06
3.95437e-07
3.10467e-06
6.20453e-06
9.40456e-06
1.34596e-05
1.79192e-05
2.18999e-05
2.48903e-05
2.63751e-05
2.50547e-05
1.89588e-05
1.00873e-05
4.04241e-06
2.06153e-06
3.00053e-06
8.16587e-06
1.93583e-05
5.00987e-05
0.000133569
0.000223461
0.000193206
0.000150563
0.000119755
9.2902e-05
6.67927e-05
4.60744e-05
3.48086e-05
3.31477e-05
3.74073e-05
4.08204e-05
4.23501e-05
4.25826e-05
3.52618e-05
2.28951e-05
7.8466e-06
3.00582e-07
3.01821e-06
5.74235e-06
9.03127e-06
1.35654e-05
1.85532e-05
2.27491e-05
2.58444e-05
2.86592e-05
3.19105e-05
3.25599e-05
2.97869e-05
3.04027e-05
1.88671e-05
7.96752e-06
5.8217e-06
9.61114e-06
2.01185e-05
4.26578e-05
9.22581e-05
0.000214151
0.000357453
0.000348421
0.000306189
0.000228874
0.000119294
4.74938e-05
2.19872e-05
1.69566e-05
2.21322e-05
2.94335e-05
3.01549e-05
3.3682e-05
6.46927e-05
1.09823e-05
1.58251e-07
2.73631e-06
5.19489e-06
9.01809e-06
1.50459e-05
2.24467e-05
2.82947e-05
3.08305e-05
3.06347e-05
2.83616e-05
2.46393e-05
2.15044e-05
1.86741e-05
1.51182e-05
1.41233e-05
9.43742e-06
2.30443e-06
1.98401e-06
7.34499e-06
1.75672e-05
3.26564e-05
5.21613e-05
7.95194e-05
0.000130493
0.000202623
0.000229037
0.000184335
0.00011632
6.92104e-05
4.4378e-05
3.35422e-05
3.51055e-05
5.77494e-05
5.15236e-05
1.10984e-05
1.64933e-07
2.38043e-06
5.03759e-06
9.39161e-06
1.59205e-05
2.3548e-05
2.94483e-05
3.20383e-05
3.19317e-05
3.03621e-05
2.84235e-05
2.58974e-05
2.24931e-05
1.97972e-05
1.83921e-05
1.81955e-05
1.89222e-05
1.90169e-05
1.6871e-05
1.42252e-05
1.31507e-05
1.42306e-05
1.87701e-05
3.01359e-05
4.99822e-05
6.32031e-05
6.70992e-05
6.91269e-05
7.51755e-05
8.20822e-05
8.10618e-05
8.32792e-05
0.000104119
5.01072e-05
8.31676e-06
4.86339e-07
3.02782e-06
7.04221e-06
1.2977e-05
1.93531e-05
2.37856e-05
2.51329e-05
2.36152e-05
2.08186e-05
1.99547e-05
2.54348e-05
3.53238e-05
3.03389e-05
2.47638e-05
2.41736e-05
2.71264e-05
3.16788e-05
3.59809e-05
3.85011e-05
3.91683e-05
3.90885e-05
3.63926e-05
2.92244e-05
2.35055e-05
2.39173e-05
2.59568e-05
2.64585e-05
2.28011e-05
2.5675e-05
4.40376e-05
7.36422e-05
9.8641e-05
0.000103429
5.52629e-05
8.85889e-06
7.31698e-07
4.40089e-06
1.05874e-05
1.64126e-05
1.95589e-05
1.99115e-05
1.79909e-05
1.48786e-05
1.38237e-05
2.07555e-05
3.25952e-05
3.08158e-05
2.34197e-05
2.20854e-05
3.49335e-05
9.51842e-05
0.000230211
0.000244799
0.000197538
0.000128918
7.64884e-05
4.73754e-05
3.37778e-05
3.06446e-05
3.69341e-05
5.0888e-05
5.88988e-05
4.2492e-05
2.43207e-05
1.95238e-05
2.64983e-05
4.92906e-05
7.86609e-05
4.81916e-05
9.45802e-06
5.09078e-07
4.62042e-06
9.57603e-06
1.5179e-05
2.12558e-05
2.62714e-05
2.86542e-05
2.74347e-05
2.1075e-05
6.7127e-06
7.11616e-07
5.37035e-07
4.40115e-08
1.42533e-06
7.46124e-06
2.59313e-05
6.72529e-05
9.54587e-05
0.000109094
0.000134469
0.000153283
0.000142245
9.80708e-05
5.84058e-05
3.68784e-05
2.63006e-05
2.06164e-05
1.85812e-05
2.18182e-05
3.2983e-05
5.09747e-05
5.97354e-05
5.34206e-05
4.20554e-05
8.94748e-06
3.74118e-07
4.52697e-06
8.76218e-06
1.37355e-05
1.87475e-05
2.28403e-05
2.69354e-05
3.22736e-05
3.53803e-05
2.91527e-05
2.20636e-05
1.81433e-05
7.83808e-06
1.61552e-06
2.59678e-07
7.17299e-06
3.36027e-05
4.63828e-05
3.67567e-05
3.86146e-05
4.25685e-05
4.98097e-05
7.16726e-05
0.000135864
0.000290462
0.000385554
0.000311333
0.000137708
5.2944e-05
1.88838e-05
5.13364e-06
2.92979e-06
1.22915e-05
3.76722e-05
9.08744e-06
2.08449e-07
4.47605e-06
7.88448e-06
1.26189e-05
1.88645e-05
2.45751e-05
2.78882e-05
2.84111e-05
2.6454e-05
2.45543e-05
2.75469e-05
2.53428e-05
1.32069e-05
1.0538e-05
1.57945e-05
8.41861e-06
1.82533e-06
3.71339e-07
3.58547e-06
6.46213e-06
2.00139e-06
3.69893e-07
8.23374e-07
2.58387e-06
1.27941e-05
2.69547e-05
4.61054e-05
8.64327e-05
0.000124822
0.000100571
6.83585e-05
4.50646e-05
3.92691e-05
4.43779e-05
1.04965e-05
1.4645e-07
4.02553e-06
6.81185e-06
1.04413e-05
1.53256e-05
2.06309e-05
2.5153e-05
2.82578e-05
2.97506e-05
2.94815e-05
2.81121e-05
2.71922e-05
2.66201e-05
2.42052e-05
2.2079e-05
2.27024e-05
2.33542e-05
2.08648e-05
1.70732e-05
1.50684e-05
1.04494e-05
5.57615e-06
2.75254e-06
3.15651e-06
4.61198e-06
6.00724e-06
4.78928e-06
4.61305e-06
1.81332e-05
6.05174e-05
8.22026e-05
4.97767e-05
3.14473e-05
4.27809e-05
4.80543e-06
1.58165e-07
3.79821e-06
6.15509e-06
8.89737e-06
1.23244e-05
1.59472e-05
1.92796e-05
2.20245e-05
2.40279e-05
2.525e-05
2.57806e-05
2.5908e-05
2.59961e-05
2.62391e-05
2.64759e-05
2.66031e-05
2.56497e-05
2.42677e-05
2.08273e-05
1.51243e-05
1.0105e-05
7.21654e-06
9.38122e-06
1.00482e-05
1.06357e-05
1.81398e-05
1.95252e-05
5.75583e-06
2.39492e-06
3.74056e-06
1.32114e-06
1.13648e-05
1.96958e-05
2.25155e-05
8.56096e-06
1.39039e-07
3.79322e-06
5.58733e-06
7.74582e-06
1.06094e-05
1.3993e-05
1.76348e-05
2.12467e-05
2.4667e-05
2.78777e-05
3.0945e-05
3.39305e-05
3.6784e-05
3.93752e-05
4.15e-05
4.21741e-05
3.86632e-05
2.79693e-05
1.57825e-05
3.10387e-06
2.838e-06
3.33663e-06
1.59025e-05
6.72226e-05
0.000117059
6.51129e-05
3.05495e-05
1.10448e-05
1.05341e-05
2.30444e-05
3.9489e-05
5.42428e-05
7.69966e-05
0.000141921
1.40099e-05
7.3654e-08
3.51915e-06
4.67343e-06
6.49686e-06
9.4253e-06
1.37188e-05
1.95697e-05
2.68669e-05
3.51125e-05
4.31329e-05
4.87355e-05
5.02129e-05
4.8039e-05
4.38782e-05
3.95094e-05
3.74605e-05
3.88439e-05
3.1155e-05
1.71419e-05
8.49853e-06
9.86199e-06
2.23395e-05
6.24444e-05
0.00011029
0.000102399
0.000101938
0.000100405
9.32757e-05
8.74826e-05
8.28015e-05
8.75997e-05
0.000107157
0.000109656
5.26294e-05
1.26039e-05
6.3263e-08
2.82665e-06
3.65751e-06
5.38307e-06
8.35136e-06
1.30622e-05
2.01265e-05
2.97374e-05
4.02953e-05
4.75726e-05
4.8626e-05
4.60122e-05
4.31296e-05
4.12311e-05
4.03991e-05
4.02659e-05
3.95909e-05
3.66767e-05
3.26093e-05
3.30464e-05
3.88009e-05
3.64656e-05
1.98534e-05
5.9531e-06
2.00687e-06
9.06625e-06
2.03496e-05
3.24005e-05
5.36062e-05
0.000118388
0.000211739
0.00019611
0.000165009
7.3789e-05
7.92839e-06
6.36611e-08
2.11499e-06
3.56877e-06
6.04547e-06
1.01088e-05
1.67191e-05
2.7438e-05
4.32607e-05
5.84607e-05
5.99615e-05
5.32018e-05
4.87227e-05
4.74439e-05
4.82293e-05
5.00753e-05
5.21938e-05
5.40943e-05
5.57259e-05
5.73383e-05
5.86554e-05
5.87378e-05
5.75571e-05
5.53214e-05
4.92917e-05
3.79644e-05
2.32799e-05
1.35606e-06
5.12245e-06
9.78258e-06
1.54085e-05
2.99395e-05
0.000105535
0.000115879
6.73256e-05
1.01146e-05
8.26972e-07
3.33025e-06
6.65026e-06
1.28256e-05
2.37859e-05
4.18828e-05
6.3508e-05
7.31134e-05
6.2575e-05
4.99806e-05
4.6349e-05
4.97606e-05
5.75191e-05
6.87609e-05
8.21849e-05
9.48667e-05
0.000103686
0.000107651
0.000108237
0.000108179
0.000109471
0.00011176
0.000112694
0.000109444
0.000100287
8.46319e-05
6.08536e-05
3.20451e-05
2.20197e-06
2.98285e-06
4.60598e-06
1.50131e-05
4.53386e-05
7.04933e-05
9.53007e-06
3.45913e-06
6.95835e-06
2.06904e-05
3.64825e-05
4.32795e-05
5.41129e-05
6.98536e-05
7.0968e-05
5.39412e-05
4.94026e-05
6.21475e-05
9.09719e-05
0.000129864
0.000183347
0.000232032
0.0002494
0.000241335
0.000222863
0.00020336
0.000187091
0.00017573
0.000170118
0.000169649
0.000171733
0.000172491
0.000167745
0.000153586
0.000128813
0.000100817
4.12933e-05
5.58366e-06
4.09011e-06
1.3843e-05
7.63249e-05
1.21848e-05
4.0022e-06
9.71563e-06
2.11703e-05
2.84275e-05
4.13186e-05
5.19929e-05
4.58866e-05
3.55143e-05
3.88442e-05
4.69539e-05
2.92177e-05
2.57425e-05
3.23169e-05
5.35705e-05
9.66766e-05
0.000171312
0.000252575
0.000307273
0.000333615
0.000341443
0.000333365
0.000309696
0.000277439
0.000246681
0.00022193
0.000200692
0.000175258
0.000135877
7.68579e-05
1.80974e-05
2.02467e-06
1.80696e-05
6.28349e-05
0.000112974
1.45859e-05
2.15139e-06
5.8842e-06
1.32677e-05
2.42173e-05
2.43651e-05
1.43507e-05
1.19061e-06
9.76905e-07
9.67741e-07
1.03158e-06
2.04687e-06
6.3585e-07
6.50444e-06
2.7127e-05
5.79607e-05
0.000117823
0.000186058
0.000234634
0.00026871
0.000307207
0.000364421
0.000440873
0.000511632
0.000522826
0.000458839
0.000350186
0.000240622
0.00014275
6.29423e-05
1.44904e-05
3.1024e-06
1.20576e-05
8.76108e-05
4.77901e-05
1.27721e-05
2.39873e-06
7.45876e-06
1.60168e-05
2.51301e-05
3.58976e-05
3.527e-05
2.97951e-05
3.24144e-05
4.71729e-05
1.24854e-05
1.02146e-05
1.89478e-05
3.88208e-05
7.43273e-05
0.00012193
0.000150061
0.000163479
0.000180159
0.000200051
0.000231715
0.000262012
0.00026395
0.000254011
0.000265342
0.000307569
0.000362304
0.000372663
0.000288038
0.00015447
5.88632e-05
1.76779e-05
9.55838e-06
5.41727e-05
3.45847e-05
1.08746e-05
9.37043e-07
5.86268e-06
9.66342e-06
1.36936e-05
1.30603e-05
1.02486e-05
1.09114e-05
2.61847e-05
2.22688e-05
1.46888e-05
2.15302e-05
8.44004e-06
5.09276e-06
1.59066e-06
8.14293e-06
1.04619e-05
2.46972e-05
4.00143e-05
4.31373e-05
5.20798e-05
7.09135e-05
0.000109828
0.000187606
0.000319012
0.00039065
0.000287808
0.000188925
0.000143108
0.000122141
9.75423e-05
6.63882e-05
5.57346e-05
9.26924e-05
6.48633e-05
1.13003e-05
4.75847e-07
4.53527e-06
7.27263e-06
1.17293e-05
1.93742e-05
2.89814e-05
2.92892e-05
2.82645e-05
2.50454e-05
2.57615e-05
3.58457e-05
2.87763e-05
4.13135e-05
7.20103e-05
7.10779e-05
5.78158e-05
3.78431e-05
1.11113e-05
3.89595e-07
5.51472e-06
1.75804e-06
6.87221e-07
1.76636e-07
5.13e-06
3.83666e-05
0.000131655
0.000332091
0.000386718
0.000319206
0.000190164
9.4425e-05
5.57043e-05
5.78288e-05
8.81344e-05
1.00241e-05
2.58951e-07
4.1575e-06
6.90673e-06
1.08489e-05
1.59296e-05
2.20393e-05
2.90428e-05
3.72913e-05
4.47088e-05
4.75679e-05
5.10625e-05
5.29179e-05
4.82224e-05
4.5867e-05
4.24705e-05
3.58997e-05
2.92559e-05
2.79605e-05
2.93821e-05
3.67968e-05
5.3374e-05
5.69973e-05
3.05823e-05
1.1817e-05
2.58844e-06
4.28316e-06
1.82983e-05
5.31779e-05
0.000133611
0.000252768
0.000272874
0.000246069
0.000203467
9.83565e-05
9.28022e-06
1.53503e-07
3.79369e-06
5.89599e-06
8.34742e-06
1.18189e-05
1.71432e-05
2.52868e-05
3.64525e-05
4.78514e-05
5.58667e-05
5.92345e-05
5.65102e-05
5.08859e-05
4.80874e-05
4.95498e-05
5.60938e-05
6.95152e-05
8.72811e-05
0.000100474
0.000104462
0.00010295
0.000100662
9.8928e-05
9.47243e-05
8.04632e-05
5.40185e-05
2.97733e-05
1.67567e-05
2.48424e-05
5.18804e-05
0.000101851
0.000128106
0.000136557
0.000112187
9.95144e-06
1.44205e-07
3.45759e-06
5.34073e-06
7.99445e-06
1.25572e-05
2.06565e-05
3.55244e-05
5.80708e-05
7.03154e-05
6.51623e-05
5.95671e-05
5.87992e-05
6.2552e-05
6.95366e-05
7.79742e-05
8.57724e-05
9.10843e-05
9.44209e-05
9.87583e-05
0.000108694
0.000129117
0.000158476
0.000182266
0.000185232
0.000167186
0.000133838
9.3403e-05
5.04818e-05
5.4699e-06
5.54732e-06
4.01813e-05
9.28723e-05
0.000122924
0.000149296
1.24507e-05
2.03191e-07
3.2754e-06
5.59913e-06
9.50554e-06
1.66459e-05
3.07367e-05
5.61636e-05
6.33115e-05
5.19237e-05
4.76759e-05
4.96286e-05
5.5523e-05
6.40017e-05
7.37182e-05
8.28383e-05
8.87278e-05
9.35285e-05
0.000110205
0.000152157
0.000217694
0.000283921
0.000315765
0.000284868
0.000227666
0.000194284
0.000194648
0.000218261
0.000207552
0.000103246
2.88485e-05
1.16165e-05
4.96265e-05
0.000142582
9.57857e-05
1.22023e-05
1.69308e-06
5.05485e-06
9.81218e-06
2.02169e-05
4.00834e-05
5.53134e-05
5.11064e-05
4.09702e-05
4.04796e-05
4.96777e-05
6.80011e-05
9.55537e-05
0.000126022
0.000148341
0.00015954
0.000163554
0.000162865
0.000158033
0.000152439
0.000150429
0.000157788
0.000185907
0.000240455
0.00027614
0.000184107
0.000102254
6.04499e-05
6.40386e-05
8.74672e-05
7.72477e-05
3.79338e-05
3.47451e-05
6.1058e-05
0.00014176
1.26005e-05
5.21549e-06
1.00907e-05
3.17179e-05
3.42575e-05
3.20431e-05
3.95868e-05
3.65683e-05
3.66876e-05
6.05002e-05
0.000157999
0.000275283
0.00027526
0.000258765
0.000248151
0.000241125
0.000234501
0.000228322
0.000223767
0.000221017
0.000218763
0.000215331
0.000210502
0.000203512
0.000193149
0.000179923
0.000168722
0.000165383
0.000158749
0.000132502
8.03108e-05
3.65445e-05
3.90779e-05
9.82944e-05
0.000161295
1.40548e-05
7.17287e-06
1.69525e-05
2.53607e-05
2.30244e-05
1.83045e-05
2.94906e-05
5.16087e-05
5.10248e-05
6.73048e-05
8.54019e-05
9.03121e-05
9.50775e-05
0.000112315
0.000149404
0.00020117
0.000245701
0.000263095
0.000248599
0.000212292
0.000174473
0.000152973
0.000156482
0.000187638
0.000239611
0.000286517
0.000302404
0.000285377
0.000242995
0.000176183
9.51185e-05
3.80605e-05
2.63064e-05
7.78606e-05
9.78789e-05
1.43722e-05
4.74486e-06
9.08564e-06
2.61219e-05
3.34692e-05
2.18243e-05
4.00799e-06
1.11591e-06
3.74419e-06
3.33389e-06
8.13813e-06
1.43231e-05
1.85821e-05
3.01962e-05
5.65557e-05
0.000107327
0.000182728
0.000247152
0.000258883
0.000221568
0.000180008
0.000168203
0.000194362
0.000250594
0.000307562
0.000334866
0.000331583
0.000312814
0.000283831
0.000231538
0.000144495
6.35348e-05
3.46785e-05
6.25749e-05
9.70253e-05
1.42336e-05
4.98017e-06
1.47304e-05
3.25955e-05
4.08417e-05
4.26258e-05
3.86947e-05
3.03415e-05
1.77746e-05
8.75536e-06
4.09527e-06
1.24851e-06
9.83181e-07
1.03529e-05
3.79218e-05
0.000104227
0.00022618
0.000316024
0.000315898
0.000251515
0.000186208
0.000155151
0.000168661
0.000237851
0.000352971
0.000427906
0.000415399
0.000354621
0.00028159
0.00020997
0.000142388
8.33776e-05
5.35163e-05
7.69393e-05
0.000115737
1.4762e-05
4.57223e-06
7.50039e-06
1.2925e-05
1.51689e-05
1.92641e-05
2.90907e-05
5.05647e-05
5.02491e-05
4.94584e-05
2.55591e-05
9.26876e-06
4.1083e-06
1.37986e-05
4.88333e-05
0.000154164
0.000256172
0.000264056
0.000254808
0.000230067
0.000193105
0.000160782
0.000148055
0.000162454
0.000206031
0.00026636
0.000311724
0.00032175
0.000296109
0.000233282
0.000143679
7.62489e-05
5.51118e-05
9.25286e-05
0.000118003
1.53685e-05
2.40569e-06
4.43839e-06
7.80672e-06
1.17083e-05
1.44651e-05
1.71665e-05
2.33791e-05
2.9936e-05
3.60209e-05
5.26049e-05
2.78288e-05
1.95862e-05
3.29895e-05
7.40407e-05
0.000137103
0.000142497
0.000126513
0.000122314
0.000125019
0.000127681
0.000125913
0.000123096
0.000126187
0.00014367
0.000184284
0.00024096
0.000261959
0.000214178
0.000147832
0.000101042
7.62776e-05
8.15183e-05
0.000150843
0.000108257
1.51948e-05
2.27764e-06
7.80285e-06
1.92787e-05
3.61584e-05
5.1578e-05
5.94283e-05
4.75914e-05
4.09165e-05
5.06923e-05
4.5787e-05
4.25696e-05
3.12193e-05
9.06406e-06
6.45817e-06
1.02827e-05
9.3233e-06
1.07323e-05
1.89131e-05
2.88307e-05
3.89684e-05
4.82484e-05
5.70344e-05
6.92821e-05
8.42595e-05
8.66228e-05
8.11861e-05
8.97129e-05
0.000118903
0.000143295
0.000122068
9.26623e-05
0.000102489
0.000170404
8.15821e-05
1.32749e-05
1.89074e-06
9.37657e-06
1.94279e-05
2.31168e-05
2.39605e-05
2.91906e-05
4.16692e-05
5.16293e-05
5.31134e-05
4.69922e-05
3.80721e-05
4.30426e-05
6.67383e-05
8.40712e-05
7.08046e-05
5.1403e-05
4.05606e-05
3.8418e-05
2.11381e-05
1.45197e-05
1.4421e-05
5.32364e-06
8.58883e-06
8.43206e-06
3.29811e-05
8.13185e-05
0.000130042
0.000114632
8.58308e-05
8.25057e-05
0.000101872
0.000135882
0.00017843
8.7422e-05
1.1716e-05
4.03772e-07
3.36801e-06
3.49706e-06
4.38309e-06
7.14025e-06
1.39744e-05
2.84797e-05
4.97101e-05
5.48099e-05
5.14418e-05
6.20454e-05
7.88112e-05
7.98154e-05
7.00214e-05
6.76296e-05
9.00932e-05
0.00013624
0.000189191
0.000237993
0.00026425
0.000244485
0.000140249
4.26417e-05
7.5637e-06
2.85133e-06
1.85442e-06
2.75114e-05
8.91446e-05
0.000120286
8.33662e-05
6.98534e-05
9.50097e-05
0.000163032
0.0001212
1.26101e-05
4.06435e-07
3.6002e-06
7.41283e-06
1.28403e-05
2.21242e-05
4.87493e-05
0.000107377
0.000116709
0.00010935
0.000106481
9.8787e-05
9.16508e-05
0.000102613
0.000134952
0.00016239
0.000172153
0.000175211
0.000173114
0.000157754
0.000112478
7.18432e-05
7.07827e-05
0.000115941
8.71003e-05
1.08432e-05
3.37612e-06
1.33069e-06
2.758e-05
8.78233e-05
0.000154742
0.000124355
0.00011384
0.000161212
0.000119094
1.26858e-05
5.18807e-07
4.1835e-06
7.82867e-06
1.00595e-05
1.42234e-05
2.80868e-05
6.99819e-05
8.16507e-05
5.55858e-05
4.53493e-05
4.52768e-05
5.21675e-05
6.14217e-05
6.93719e-05
7.99035e-05
0.000100966
0.000140532
0.000200543
0.000268473
0.000324445
0.000361482
0.000352119
0.000292552
0.000234589
0.000148761
6.16847e-05
1.40194e-05
3.68422e-06
8.4726e-06
3.1648e-05
8.66823e-05
0.000153477
0.000191362
0.000104971
1.29507e-05
6.41958e-07
4.68049e-06
7.36376e-06
9.97578e-06
2.16555e-05
8.13637e-05
5.99188e-05
4.07331e-05
4.00529e-05
5.08365e-05
7.09245e-05
9.47338e-05
0.000121672
0.000152119
0.000180915
0.000209453
0.000236803
0.000256202
0.00026504
0.000265461
0.000262653
0.000263115
0.000266835
0.000264745
0.000246875
0.000208631
0.000145456
6.904e-05
2.0134e-05
8.04743e-06
2.46594e-05
6.90275e-05
0.000132448
9.9699e-05
1.292e-05
1.00128e-06
4.94552e-06
7.76132e-06
1.49154e-05
5.20611e-05
6.17532e-05
3.7712e-05
3.70251e-05
5.1217e-05
8.31124e-05
0.000120635
0.000139781
0.000143738
0.000142816
0.000144997
0.000155659
0.000176618
0.000206423
0.00024209
0.00028013
0.000315953
0.000344646
0.000362413
0.00036694
0.000356304
0.000328078
0.000278855
0.00020346
0.000101918
1.76069e-05
7.41804e-06
2.22308e-05
7.21003e-05
8.99485e-05
1.2955e-05
1.48872e-06
5.92147e-06
1.21992e-05
3.88251e-05
5.71764e-05
3.32905e-05
3.23995e-05
4.74219e-05
8.3576e-05
0.000121998
0.000139787
0.000148238
0.000155631
0.000164251
0.000175006
0.000189678
0.000210035
0.000235718
0.000264455
0.000294026
0.00032325
0.000351584
0.000378016
0.00040011
0.000413175
0.000409712
0.000379172
0.000307544
0.000182382
3.30234e-05
7.9113e-06
1.52054e-05
4.41538e-05
0.000109169
1.32549e-05
3.22247e-06
9.81411e-06
3.15755e-05
5.19883e-05
3.70254e-05
3.58513e-05
5.17603e-05
8.64777e-05
0.000117921
0.000143264
0.000168384
0.000189326
0.000203796
0.000213065
0.000219088
0.000222975
0.000225943
0.000230556
0.000240562
0.000259823
0.000291055
0.000334322
0.000385142
0.000434116
0.000468329
0.000473711
0.000437213
0.000346188
0.000195394
4.46317e-05
6.41982e-06
2.09491e-05
7.38846e-05
0.000115462
1.40807e-05
6.65888e-06
2.12437e-05
3.87686e-05
4.01004e-05
3.64709e-05
3.55098e-05
3.64608e-05
3.55461e-05
3.85781e-05
5.31829e-05
8.47703e-05
0.00013241
0.000184187
0.000229988
0.000268832
0.000302133
0.000328916
0.000345644
0.000349076
0.00034141
0.000333992
0.000342465
0.00037643
0.00043246
0.000488417
0.000508696
0.00046758
0.000356364
0.000184924
4.80688e-05
4.56974e-06
7.76325e-06
9.16312e-05
5.38319e-05