/*--------------------------------*- C++ -*----------------------------------*\
| =========                 |                                                 |
| \\      /  F ield         | OpenFOAM: The Open Source CFD Toolbox           |
|  \\    /   O peration     | Version:  v2006                                 |
|   \\  /    A nd           | Website:  www.openfoam.com                      |
|    \\/     M anipulation  |                                                 |
\*---------------------------------------------------------------------------*/
FoamFile
{
    version     2.0;
    format      ascii;
    class       volScalarField;
    location    "2";
    object      nut;
}
// * * * * * * * * * * * * * * * * * * * * * * * * * * * * * * * * * * * * * //

dimensions      [0 2 -1 0 0 0 0];


internalField   nonuniform List<scalar> 
78750
(
0.00110778
0.00245134
0.00169875
0.00072493
0.000133635
4.89351e-05
3.18338e-06
7.3016e-06
3.91911e-06
7.8482e-06
4.58486e-06
9.84559e-06
5.74772e-06
9.62935e-06
8.48154e-06
1.04065e-05
9.82458e-06
1.1691e-05
1.15008e-05
1.27858e-05
1.31295e-05
1.38839e-05
1.44776e-05
1.49867e-05
1.54625e-05
1.58185e-05
1.60631e-05
1.62073e-05
1.62209e-05
1.59992e-05
1.55097e-05
1.4784e-05
1.07424e-05
3.03674e-06
4.75295e-07
0.000139277
0.000120448
0.000201366
7.83303e-06
5.96768e-08
2.82429e-06
8.93764e-06
4.8218e-06
1.19326e-05
8.48151e-06
1.4892e-05
1.27883e-05
1.68011e-05
1.65956e-05
1.87494e-05
1.96288e-05
2.1296e-05
2.28583e-05
2.45137e-05
2.63466e-05
2.80514e-05
2.98633e-05
3.15378e-05
3.31867e-05
3.47282e-05
3.61831e-05
3.76042e-05
3.90865e-05
4.08714e-05
4.339e-05
4.65026e-05
4.61627e-05
2.43497e-05
3.25141e-06
8.28586e-07
5.47366e-06
1.42313e-06
2.69845e-06
7.91679e-06
7.5977e-06
1.50148e-05
1.51528e-05
2.32485e-05
2.13303e-05
2.27224e-05
1.82971e-05
1.74829e-05
1.46945e-05
1.41464e-05
1.26389e-05
1.24305e-05
1.18792e-05
1.21083e-05
1.24922e-05
1.32094e-05
1.40492e-05
1.48939e-05
1.57343e-05
1.65289e-05
1.72602e-05
1.78621e-05
1.81851e-05
1.80473e-05
1.7091e-05
1.48395e-05
1.10439e-05
6.84657e-06
5.34923e-06
8.76357e-06
3.18638e-06
3.00004e-06
1.28097e-05
1.34301e-05
1.71233e-05
2.53324e-05
2.78007e-05
2.83855e-05
2.68853e-05
2.68587e-05
2.62153e-05
2.66885e-05
2.61755e-05
2.61919e-05
2.65156e-05
2.7742e-05
2.76043e-05
2.59017e-05
2.38874e-05
2.30929e-05
2.41507e-05
2.66011e-05
2.92691e-05
3.13131e-05
3.26057e-05
3.31895e-05
3.30829e-05
3.23581e-05
3.12534e-05
3.01504e-05
2.90185e-05
2.70848e-05
1.8414e-05
2.19002e-06
1.7385e-06
3.46802e-06
1.62292e-07
4.88142e-07
1.37348e-06
1.66711e-07
8.76189e-07
1.24451e-07
2.27395e-07
4.74344e-07
6.44521e-07
1.06081e-06
1.96111e-06
1.13201e-06
4.10578e-06
5.7412e-06
8.5706e-06
1.16147e-05
1.57721e-05
2.05106e-05
2.31165e-05
2.23613e-05
2.07953e-05
1.97096e-05
1.90405e-05
1.85006e-05
1.78089e-05
1.68115e-05
1.54853e-05
1.38988e-05
1.21725e-05
1.01579e-05
7.39489e-06
5.07432e-06
5.81985e-06
1.13817e-05
5.34084e-06
2.69301e-07
7.35679e-06
7.57155e-06
6.01443e-06
9.28129e-06
1.54772e-05
1.90458e-05
2.03521e-05
2.04521e-05
2.10898e-05
2.34854e-05
2.86188e-05
3.56156e-05
4.04508e-05
3.87839e-05
3.38112e-05
2.97584e-05
2.7423e-05
2.609e-05
2.51249e-05
2.4281e-05
2.34921e-05
2.28037e-05
2.2194e-05
2.14627e-05
2.03693e-05
1.87251e-05
1.64733e-05
1.38547e-05
1.13386e-05
8.13596e-06
3.03619e-06
1.29832e-06
4.97958e-06
5.81182e-06
4.60521e-08
4.26637e-06
1.19766e-05
1.62265e-05
1.12542e-05
6.68211e-06
4.58195e-06
4.38871e-06
6.22955e-06
1.04462e-05
1.36083e-05
1.36357e-05
1.38808e-05
1.43822e-05
1.4842e-05
1.56663e-05
1.74593e-05
2.05267e-05
2.43191e-05
2.71383e-05
2.76094e-05
2.62813e-05
2.43645e-05
2.25031e-05
2.07693e-05
1.89295e-05
1.66858e-05
1.39046e-05
1.06444e-05
7.41095e-06
4.81853e-06
3.79595e-06
5.03253e-06
1.42297e-05
7.04474e-06
2.39818e-08
1.10332e-05
1.82176e-05
1.33547e-05
1.12942e-05
1.11442e-05
1.18745e-05
1.33184e-05
1.53408e-05
1.7589e-05
1.98037e-05
2.19329e-05
2.39601e-05
2.59069e-05
2.77694e-05
2.92863e-05
2.99997e-05
2.97398e-05
2.88585e-05
2.78342e-05
2.68727e-05
2.59298e-05
2.49266e-05
2.38046e-05
2.2532e-05
2.10032e-05
1.9009e-05
1.63133e-05
1.27276e-05
8.4416e-06
4.10395e-06
1.52258e-06
1.93593e-06
9.80388e-06
7.60302e-06
1.81878e-08
3.78495e-06
1.3125e-05
2.13263e-05
1.57181e-05
9.97171e-06
8.31676e-06
8.87927e-06
1.07878e-05
1.38581e-05
1.80579e-05
2.30078e-05
2.74454e-05
2.98409e-05
3.01487e-05
2.94426e-05
2.85437e-05
2.78007e-05
2.724e-05
2.67326e-05
2.61658e-05
2.55021e-05
2.4614e-05
2.34311e-05
2.19493e-05
2.0156e-05
1.79251e-05
1.4973e-05
1.11367e-05
7.11628e-06
4.26576e-06
3.3051e-06
4.55349e-06
1.74942e-05
8.50376e-06
1.40422e-08
9.83344e-06
2.17229e-05
2.23826e-05
1.28296e-05
1.00261e-05
1.00733e-05
1.14988e-05
1.37491e-05
1.6525e-05
1.95358e-05
2.24279e-05
2.48465e-05
2.65811e-05
2.76038e-05
2.79884e-05
2.78531e-05
2.73348e-05
2.65811e-05
2.57627e-05
2.49873e-05
2.42384e-05
2.34865e-05
2.26762e-05
2.17238e-05
2.05007e-05
1.87237e-05
1.58321e-05
1.13061e-05
6.00766e-06
2.41717e-06
1.53629e-06
3.33115e-06
1.80194e-05
9.20913e-06
1.04022e-08
5.6444e-06
1.96915e-05
2.39168e-05
1.66954e-05
1.11234e-05
1.01939e-05
1.11478e-05
1.31582e-05
1.6054e-05
1.97762e-05
2.3991e-05
2.77883e-05
3.00849e-05
3.06408e-05
3.00962e-05
2.91452e-05
2.81493e-05
2.71964e-05
2.62778e-05
2.53924e-05
2.44845e-05
2.34507e-05
2.22355e-05
2.08203e-05
1.91875e-05
1.72331e-05
1.46574e-05
1.10544e-05
6.84539e-06
3.77903e-06
2.7735e-06
5.41721e-06
2.85121e-05
9.58602e-06
1.39752e-08
1.18047e-05
2.01417e-05
2.19062e-05
1.23117e-05
1.00695e-05
1.03521e-05
1.18439e-05
1.41321e-05
1.69638e-05
1.9999e-05
2.279e-05
2.49465e-05
2.62925e-05
2.68634e-05
2.67975e-05
2.62516e-05
2.5368e-05
2.4279e-05
2.31078e-05
2.18823e-05
2.05815e-05
1.91997e-05
1.77206e-05
1.6123e-05
1.43706e-05
1.24073e-05
1.01692e-05
7.61233e-06
4.75135e-06
2.372e-06
1.47552e-06
4.39826e-06
2.41213e-05
9.68097e-06
1.23495e-08
9.225e-06
1.92964e-05
2.42332e-05
1.36337e-05
1.05731e-05
1.05524e-05
1.1807e-05
1.38275e-05
1.64066e-05
1.93214e-05
2.21867e-05
2.45015e-05
2.59073e-05
2.63758e-05
2.61293e-05
2.54397e-05
2.45092e-05
2.34451e-05
2.23025e-05
2.10824e-05
1.974e-05
1.82617e-05
1.66744e-05
1.50339e-05
1.34082e-05
1.18475e-05
1.03558e-05
8.41822e-06
6.35364e-06
4.67993e-06
3.78028e-07
1.43994e-06
1.17625e-05
1.07671e-05
1.6217e-08
1.33995e-05
2.01873e-05
1.68435e-05
1.08393e-05
9.62714e-06
1.01677e-05
1.15815e-05
1.35221e-05
1.57115e-05
1.78439e-05
1.96477e-05
2.09865e-05
2.18649e-05
2.23592e-05
2.25496e-05
2.24969e-05
2.22539e-05
2.18832e-05
2.14688e-05
2.10216e-05
2.05143e-05
1.99443e-05
1.93447e-05
1.88585e-05
1.90442e-05
2.22008e-05
2.91113e-05
5.74336e-06
2.78678e-06
3.83719e-06
5.77165e-06
8.44316e-06
3.99581e-05
1.15263e-05
1.48614e-08
1.3081e-05
1.97695e-05
1.96229e-05
1.21188e-05
1.0602e-05
1.11586e-05
1.27229e-05
1.49479e-05
1.75885e-05
2.03147e-05
2.27056e-05
2.44075e-05
2.52877e-05
2.54062e-05
2.49058e-05
2.39465e-05
2.26526e-05
2.11037e-05
1.93785e-05
1.75082e-05
1.55486e-05
1.36278e-05
1.18025e-05
1.00629e-05
8.52242e-06
7.24546e-06
5.65274e-06
5.27606e-06
6.96552e-06
1.18749e-05
2.73665e-05
8.35715e-05
4.20384e-05
1.12179e-05
1.79546e-08
1.36203e-05
2.06193e-05
1.51261e-05
1.1392e-05
1.09975e-05
1.22198e-05
1.46266e-05
1.81322e-05
2.24821e-05
2.67946e-05
2.95955e-05
2.99378e-05
2.82148e-05
2.5451e-05
2.24415e-05
1.95724e-05
1.69746e-05
1.46596e-05
1.26101e-05
1.08111e-05
9.25391e-06
7.91468e-06
6.79833e-06
6.05672e-06
5.11158e-06
6.19787e-06
5.0355e-06
4.90554e-06
5.40863e-06
6.41851e-06
1.27989e-05
1.78992e-05
4.73603e-05
2.99827e-06
2.57373e-08
9.06833e-06
1.26599e-05
1.07258e-05
9.47218e-06
9.56112e-06
1.05206e-05
1.20519e-05
1.3894e-05
1.57043e-05
1.7104e-05
1.78259e-05
1.7814e-05
1.71939e-05
1.61654e-05
1.49151e-05
1.3584e-05
1.22662e-05
1.10178e-05
9.87604e-06
8.88743e-06
7.9824e-06
7.53683e-06
6.58136e-06
6.76265e-06
4.64699e-06
8.99166e-06
3.49995e-06
3.07948e-06
4.31183e-07
9.18212e-07
4.40191e-06
2.05645e-06
1.743e-06
4.74334e-06
3.81092e-08
7.45399e-06
1.00606e-05
8.47185e-06
7.90251e-06
8.19017e-06
8.98663e-06
1.00639e-05
1.12243e-05
1.22836e-05
1.30962e-05
1.36121e-05
1.38493e-05
1.38475e-05
1.36492e-05
1.32997e-05
1.28509e-05
1.23722e-05
1.19382e-05
1.17407e-05
1.21256e-05
1.41485e-05
2.2136e-05
2.22971e-05
1.1759e-05
5.51547e-06
8.55287e-06
1.95571e-05
4.46064e-05
3.89862e-05
2.00901e-05
1.35792e-05
1.5579e-05
3.34905e-05
1.46626e-05
2.90365e-08
7.59214e-06
9.95629e-06
8.90277e-06
8.68483e-06
9.31987e-06
1.05919e-05
1.23108e-05
1.42189e-05
1.59962e-05
1.73809e-05
1.82676e-05
1.86451e-05
1.85379e-05
1.79985e-05
1.71091e-05
1.5978e-05
1.47112e-05
1.33953e-05
1.27778e-05
1.41776e-05
1.57852e-05
1.6925e-05
2.21791e-05
3.61459e-05
6.89495e-05
0.000116657
0.000123576
0.000110396
9.97778e-05
8.80706e-05
6.99449e-05
6.13832e-05
7.79946e-05
1.35473e-05
2.29032e-08
5.57224e-06
8.76329e-06
9.38551e-06
1.00078e-05
1.14725e-05
1.40618e-05
1.79912e-05
2.31563e-05
2.83889e-05
3.14194e-05
3.0924e-05
2.78523e-05
2.39536e-05
2.0278e-05
1.71361e-05
1.45942e-05
1.23037e-05
1.03922e-05
8.84518e-06
7.74815e-06
7.6394e-06
8.79012e-06
1.07054e-05
1.04305e-05
1.45772e-05
2.37313e-05
3.53796e-05
4.43991e-05
3.84476e-05
2.39001e-05
3.03015e-05
6.66302e-05
6.51838e-05
7.70122e-06
4.50339e-08
3.38289e-06
5.99835e-06
7.12028e-06
8.00584e-06
9.27332e-06
1.10373e-05
1.31578e-05
1.52924e-05
1.70421e-05
1.81258e-05
1.84572e-05
1.81098e-05
1.72487e-05
1.61365e-05
1.48091e-05
1.41132e-05
1.29695e-05
1.24173e-05
1.32676e-05
9.78174e-06
8.92136e-06
9.53366e-06
5.31006e-06
2.00675e-06
4.32154e-06
5.18628e-06
4.63506e-06
4.75273e-06
8.1488e-06
1.63272e-05
3.33573e-05
8.44646e-05
3.56272e-05
1.54914e-06
9.4781e-08
2.99639e-06
5.37343e-06
6.41271e-06
7.37791e-06
8.69489e-06
1.02992e-05
1.1974e-05
1.34863e-05
1.47028e-05
1.56081e-05
1.62434e-05
1.66763e-05
1.7085e-05
1.80511e-05
2.13049e-05
3.28959e-05
3.94314e-05
2.84203e-05
2.04467e-05
1.06788e-05
9.61599e-06
1.74011e-05
4.21969e-05
7.0853e-05
5.46595e-05
2.50671e-05
7.23966e-06
1.13768e-06
4.48905e-06
2.23053e-05
1.0006e-05
4.73566e-06
2.15083e-05
6.72574e-06
8.10498e-08
3.10839e-06
5.31342e-06
6.68134e-06
8.23648e-06
1.0254e-05
1.2586e-05
1.48601e-05
1.67336e-05
1.80906e-05
1.89542e-05
1.93365e-05
1.92995e-05
1.93459e-05
2.10787e-05
2.25777e-05
1.95586e-05
2.19087e-05
3.22716e-05
5.82402e-05
0.000110638
0.00016706
0.000212417
0.000243974
0.00020696
0.00013283
7.99024e-05
5.4019e-05
4.23225e-05
3.50513e-05
2.47539e-05
1.63907e-05
2.55298e-05
8.2975e-05
1.11356e-05
3.88604e-08
2.89868e-06
5.09521e-06
7.3751e-06
1.02388e-05
1.43217e-05
1.99497e-05
2.62021e-05
3.04565e-05
3.09162e-05
2.84147e-05
2.47225e-05
2.09547e-05
1.73829e-05
1.41086e-05
1.08048e-05
6.70304e-06
3.58707e-06
5.17082e-06
1.1517e-05
1.89931e-05
2.69089e-05
3.55675e-05
4.55189e-05
6.55781e-05
0.00010686
0.000146864
0.000143336
0.000122549
0.000103251
8.32561e-05
6.68334e-05
7.39059e-05
8.45183e-05
1.03621e-05
6.96253e-08
2.28361e-06
4.3313e-06
6.68755e-06
9.46091e-06
1.28188e-05
1.65449e-05
1.99022e-05
2.20532e-05
2.26471e-05
2.19139e-05
2.03275e-05
1.82897e-05
1.59315e-05
1.38734e-05
1.30661e-05
1.26789e-05
1.39441e-05
1.42289e-05
1.2992e-05
1.42501e-05
1.25933e-05
1.12154e-05
1.21819e-05
1.24256e-05
1.69416e-05
3.01248e-05
5.47366e-05
7.85744e-05
7.96693e-05
6.55278e-05
5.69773e-05
6.31485e-05
7.96477e-05
9.50879e-06
2.58459e-07
2.4821e-06
4.89524e-06
7.49788e-06
1.02506e-05
1.31313e-05
1.57526e-05
1.77313e-05
1.88946e-05
1.91705e-05
1.86481e-05
1.7936e-05
1.88951e-05
2.49945e-05
2.00769e-05
1.55754e-05
1.53467e-05
1.82599e-05
1.74451e-05
1.01211e-05
9.41137e-06
1.68854e-05
3.4225e-05
3.13402e-05
2.14092e-05
2.01654e-05
3.04075e-05
4.35907e-05
4.2739e-05
3.72802e-05
4.047e-05
5.45561e-05
7.98047e-05
9.61589e-05
1.03976e-05
4.17818e-07
2.97351e-06
6.19986e-06
9.38582e-06
1.28465e-05
1.62225e-05
1.87955e-05
2.03224e-05
2.06021e-05
1.9219e-05
1.66616e-05
1.58139e-05
1.9614e-05
8.36231e-06
7.90208e-06
1.45101e-05
3.95243e-05
6.9446e-05
6.27335e-05
7.01446e-05
8.70745e-05
8.36316e-05
6.8244e-05
5.1972e-05
3.60682e-05
2.55348e-05
2.06938e-05
1.81461e-05
1.57175e-05
1.48849e-05
2.18063e-05
4.79898e-05
9.34027e-05
5.62117e-05
9.71457e-06
3.95437e-07
3.10467e-06
6.20453e-06
9.40456e-06
1.34596e-05
1.79192e-05
2.18999e-05
2.48903e-05
2.63751e-05
2.50547e-05
1.89588e-05
1.00873e-05
4.04241e-06
2.06152e-06
3.00053e-06
8.16587e-06
1.93583e-05
5.00987e-05
0.000133569
0.000223461
0.000193206
0.000150563
0.000119755
9.2902e-05
6.67927e-05
4.60744e-05
3.48086e-05
3.31477e-05
3.74073e-05
4.08204e-05
4.23501e-05
4.25826e-05
3.52618e-05
2.28951e-05
7.8466e-06
3.00582e-07
3.01821e-06
5.74235e-06
9.03127e-06
1.35654e-05
1.85532e-05
2.27491e-05
2.58444e-05
2.86592e-05
3.19105e-05
3.25599e-05
2.97869e-05
3.04027e-05
1.88671e-05
7.96752e-06
5.8217e-06
9.61114e-06
2.01185e-05
4.26578e-05
9.22581e-05
0.000214151
0.000357453
0.000348421
0.000306189
0.000228874
0.000119294
4.74938e-05
2.19872e-05
1.69566e-05
2.21322e-05
2.94335e-05
3.01549e-05
3.3682e-05
6.46927e-05
1.09823e-05
1.58251e-07
2.73631e-06
5.19489e-06
9.01809e-06
1.50459e-05
2.24467e-05
2.82947e-05
3.08305e-05
3.06347e-05
2.83616e-05
2.46393e-05
2.15044e-05
1.86741e-05
1.51182e-05
1.41233e-05
9.43742e-06
2.30443e-06
1.98401e-06
7.34499e-06
1.75672e-05
3.26564e-05
5.21613e-05
7.95194e-05
0.000130493
0.000202623
0.000229037
0.000184335
0.00011632
6.92104e-05
4.43779e-05
3.35422e-05
3.51055e-05
5.77493e-05
5.15236e-05
1.10984e-05
1.64933e-07
2.38043e-06
5.03759e-06
9.39161e-06
1.59205e-05
2.3548e-05
2.94483e-05
3.20383e-05
3.19317e-05
3.03621e-05
2.84235e-05
2.58974e-05
2.24931e-05
1.97972e-05
1.83921e-05
1.81955e-05
1.89222e-05
1.90169e-05
1.6871e-05
1.42252e-05
1.31507e-05
1.42306e-05
1.87701e-05
3.01359e-05
4.99821e-05
6.3203e-05
6.70991e-05
6.91268e-05
7.51754e-05
8.20822e-05
8.10619e-05
8.32793e-05
0.000104119
5.01072e-05
8.31676e-06
4.86338e-07
3.02782e-06
7.04221e-06
1.2977e-05
1.93531e-05
2.37856e-05
2.51329e-05
2.36152e-05
2.08186e-05
1.99548e-05
2.54349e-05
3.53238e-05
3.0339e-05
2.47639e-05
2.41737e-05
2.71264e-05
3.16788e-05
3.59809e-05
3.85011e-05
3.91683e-05
3.90885e-05
3.63926e-05
2.92244e-05
2.35055e-05
2.39174e-05
2.59568e-05
2.64585e-05
2.28011e-05
2.5675e-05
4.40375e-05
7.3642e-05
9.86408e-05
0.000103429
5.52628e-05
8.85889e-06
7.31696e-07
4.40089e-06
1.05874e-05
1.64126e-05
1.95589e-05
1.99115e-05
1.79909e-05
1.48786e-05
1.38237e-05
2.07556e-05
3.25951e-05
3.08161e-05
2.342e-05
2.20855e-05
3.49332e-05
9.51821e-05
0.000230209
0.000244798
0.000197539
0.000128918
7.64885e-05
4.73754e-05
3.37778e-05
3.06445e-05
3.6934e-05
5.08879e-05
5.88989e-05
4.24921e-05
2.43209e-05
1.9524e-05
2.64985e-05
4.92908e-05
7.8661e-05
4.81917e-05
9.45802e-06
5.09076e-07
4.62042e-06
9.57602e-06
1.5179e-05
2.12558e-05
2.62714e-05
2.86543e-05
2.74348e-05
2.10752e-05
6.71279e-06
7.11635e-07
5.37023e-07
4.38641e-08
1.42516e-06
7.46097e-06
2.59306e-05
6.72513e-05
9.54586e-05
0.000109094
0.000134469
0.000153284
0.000142245
9.80712e-05
5.8406e-05
3.68785e-05
2.63006e-05
2.06163e-05
1.8581e-05
2.1818e-05
3.29828e-05
5.09746e-05
5.97353e-05
5.34205e-05
4.20554e-05
8.94747e-06
3.74117e-07
4.52696e-06
8.76217e-06
1.37355e-05
1.87475e-05
2.28403e-05
2.69354e-05
3.22736e-05
3.53803e-05
2.91527e-05
2.20636e-05
1.81435e-05
7.83835e-06
1.61566e-06
2.59642e-07
7.17249e-06
3.36022e-05
4.63836e-05
3.67571e-05
3.86149e-05
4.25688e-05
4.98098e-05
7.16723e-05
0.000135862
0.000290459
0.000385555
0.000311336
0.00013771
5.29443e-05
1.88838e-05
5.13355e-06
2.92965e-06
1.22915e-05
3.76721e-05
9.08744e-06
2.08449e-07
4.47604e-06
7.88447e-06
1.26189e-05
1.88645e-05
2.45751e-05
2.78883e-05
2.84112e-05
2.64541e-05
2.45543e-05
2.75467e-05
2.53431e-05
1.3207e-05
1.05379e-05
1.5794e-05
8.41911e-06
1.8255e-06
3.71392e-07
3.58547e-06
6.46216e-06
2.00143e-06
3.69875e-07
8.23282e-07
2.58359e-06
1.27935e-05
2.6954e-05
4.61042e-05
8.64303e-05
0.000124821
0.000100572
6.83595e-05
4.50652e-05
3.92694e-05
4.43783e-05
1.04965e-05
1.46451e-07
4.02551e-06
6.81184e-06
1.04413e-05
1.53256e-05
2.06309e-05
2.51529e-05
2.82577e-05
2.97505e-05
2.94814e-05
2.8112e-05
2.71921e-05
2.662e-05
2.42051e-05
2.20788e-05
2.27021e-05
2.33539e-05
2.08647e-05
1.70732e-05
1.50684e-05
1.04493e-05
5.57629e-06
2.75275e-06
3.15659e-06
4.61213e-06
6.00717e-06
4.78928e-06
4.61307e-06
1.81337e-05
6.05193e-05
8.22012e-05
4.97736e-05
3.14456e-05
4.27788e-05
4.80536e-06
1.58169e-07
3.7982e-06
6.1551e-06
8.89738e-06
1.23244e-05
1.59472e-05
1.92795e-05
2.20244e-05
2.40279e-05
2.52499e-05
2.57805e-05
2.59079e-05
2.5996e-05
2.6239e-05
2.64757e-05
2.66029e-05
2.56495e-05
2.42674e-05
2.08268e-05
1.51237e-05
1.01042e-05
7.2166e-06
9.38176e-06
1.00483e-05
1.06366e-05
1.81423e-05
1.95236e-05
5.75564e-06
2.39472e-06
3.74024e-06
1.32171e-06
1.13659e-05
1.96967e-05
2.25166e-05
8.56106e-06
1.39043e-07
3.79322e-06
5.58735e-06
7.74585e-06
1.06094e-05
1.3993e-05
1.76349e-05
2.12468e-05
2.4667e-05
2.78777e-05
3.0945e-05
3.39306e-05
3.67841e-05
3.93752e-05
4.14999e-05
4.21735e-05
3.86616e-05
2.79671e-05
1.57807e-05
3.10142e-06
2.83739e-06
3.33769e-06
1.5906e-05
6.72387e-05
0.000117056
6.51111e-05
3.05484e-05
1.10448e-05
1.05346e-05
2.30455e-05
3.94907e-05
5.42445e-05
7.69981e-05
0.00014192
1.401e-05
7.36555e-08
3.51916e-06
4.67345e-06
6.49689e-06
9.42535e-06
1.37188e-05
1.95698e-05
2.68671e-05
3.51127e-05
4.3133e-05
4.87355e-05
5.02127e-05
4.80386e-05
4.38776e-05
3.95089e-05
3.74603e-05
3.88438e-05
3.11532e-05
1.71405e-05
8.49806e-06
9.86223e-06
2.23405e-05
6.24471e-05
0.000110288
0.000102395
0.000101937
0.000100405
9.3276e-05
8.74841e-05
8.28032e-05
8.76006e-05
0.000107157
0.000109655
5.26289e-05
1.26039e-05
6.32634e-08
2.82667e-06
3.65752e-06
5.38309e-06
8.35139e-06
1.30622e-05
2.01266e-05
2.97375e-05
4.02953e-05
4.75725e-05
4.86258e-05
4.60121e-05
4.31296e-05
4.12311e-05
4.03991e-05
4.02659e-05
3.95907e-05
3.66763e-05
3.26088e-05
3.30462e-05
3.88007e-05
3.64648e-05
1.98527e-05
5.95245e-06
2.00645e-06
9.06612e-06
2.03495e-05
3.24006e-05
5.36062e-05
0.000118387
0.000211739
0.000196111
0.000165008
7.37882e-05
7.92827e-06
6.36605e-08
2.11499e-06
3.56877e-06
6.04545e-06
1.01088e-05
1.67191e-05
2.74378e-05
4.32604e-05
5.84604e-05
5.99614e-05
5.32019e-05
4.87228e-05
4.74439e-05
4.82293e-05
5.00752e-05
5.21938e-05
5.40942e-05
5.57259e-05
5.73384e-05
5.86554e-05
5.87378e-05
5.7557e-05
5.53213e-05
4.92915e-05
3.79642e-05
2.32798e-05
1.35631e-06
5.12243e-06
9.78249e-06
1.54086e-05
2.9938e-05
0.00010553
0.000115879
6.73255e-05
1.01146e-05
8.26952e-07
3.33023e-06
6.65022e-06
1.28255e-05
2.37856e-05
4.18823e-05
6.35074e-05
7.31134e-05
6.25756e-05
4.9981e-05
4.63491e-05
4.97604e-05
5.75187e-05
6.87604e-05
8.21843e-05
9.48661e-05
0.000103685
0.00010765
0.000108237
0.000108179
0.000109471
0.000111759
0.000112693
0.000109444
0.000100287
8.46318e-05
6.08537e-05
3.20452e-05
2.2019e-06
2.98268e-06
4.60545e-06
1.50122e-05
4.53369e-05
7.04931e-05
9.53005e-06
3.4591e-06
6.9583e-06
2.06902e-05
3.64824e-05
4.32794e-05
5.41125e-05
6.98531e-05
7.09686e-05
5.39419e-05
4.94026e-05
6.21462e-05
9.09692e-05
0.000129862
0.000183346
0.000232032
0.0002494
0.000241335
0.000222863
0.00020336
0.000187091
0.00017573
0.000170118
0.000169649
0.000171733
0.000172491
0.000167746
0.000153586
0.000128814
0.000100818
4.12953e-05
5.584e-06
4.08959e-06
1.38419e-05
7.63217e-05
1.21848e-05
4.0022e-06
9.71564e-06
2.11703e-05
2.84273e-05
4.13181e-05
5.19927e-05
4.58872e-05
3.55146e-05
3.88441e-05
4.69545e-05
2.92177e-05
2.57423e-05
3.23169e-05
5.3571e-05
9.66779e-05
0.000171314
0.000252576
0.000307273
0.000333615
0.000341442
0.000333364
0.000309695
0.000277438
0.000246681
0.00022193
0.000200693
0.00017526
0.00013588
7.68608e-05
1.8099e-05
2.02455e-06
1.80685e-05
6.28318e-05
0.000112975
1.45859e-05
2.15139e-06
5.88418e-06
1.32676e-05
2.42173e-05
2.43652e-05
1.4351e-05
1.1908e-06
9.76934e-07
9.67742e-07
1.03157e-06
2.04688e-06
6.35871e-07
6.50442e-06
2.71271e-05
5.7961e-05
0.000117823
0.000186057
0.000234633
0.000268709
0.000307206
0.000364421
0.000440873
0.000511631
0.000522827
0.00045884
0.000350189
0.000240625
0.000142753
6.29445e-05
1.44913e-05
3.1023e-06
1.20565e-05
8.7608e-05
4.77904e-05
1.27721e-05
2.39872e-06
7.45876e-06
1.60168e-05
2.51302e-05
3.58977e-05
3.52703e-05
2.97954e-05
3.24143e-05
4.71748e-05
1.24858e-05
1.02147e-05
1.89481e-05
3.88212e-05
7.43281e-05
0.000121932
0.000150061
0.000163479
0.000180158
0.00020005
0.000231713
0.000262011
0.000263949
0.000254012
0.000265343
0.00030757
0.000362305
0.000372665
0.000288042
0.000154473
5.88646e-05
1.76782e-05
9.55792e-06
5.41718e-05
3.45848e-05
1.08746e-05
9.37047e-07
5.86271e-06
9.66349e-06
1.36938e-05
1.30605e-05
1.02488e-05
1.09114e-05
2.61839e-05
2.22694e-05
1.46887e-05
2.15292e-05
8.44004e-06
5.0928e-06
1.59069e-06
8.14293e-06
1.0462e-05
2.46971e-05
4.00142e-05
4.31373e-05
5.20798e-05
7.09134e-05
0.000109827
0.000187605
0.000319012
0.00039065
0.000287809
0.000188925
0.000143109
0.000122142
9.75432e-05
6.63886e-05
5.57342e-05
9.26914e-05
6.48636e-05
1.13003e-05
4.75842e-07
4.53526e-06
7.27258e-06
1.17292e-05
1.93738e-05
2.8981e-05
2.92891e-05
2.82642e-05
2.50457e-05
2.5762e-05
3.58461e-05
2.87768e-05
4.13136e-05
7.20103e-05
7.10782e-05
5.78161e-05
3.78433e-05
1.11114e-05
3.89631e-07
5.51473e-06
1.75806e-06
6.87252e-07
1.76681e-07
5.13011e-06
3.83667e-05
0.000131655
0.00033209
0.000386718
0.000319206
0.000190164
9.44251e-05
5.57043e-05
5.7829e-05
8.81346e-05
1.00241e-05
2.58949e-07
4.15749e-06
6.90673e-06
1.0849e-05
1.59297e-05
2.20397e-05
2.90434e-05
3.72918e-05
4.47092e-05
4.75682e-05
5.10627e-05
5.29178e-05
4.82224e-05
4.5867e-05
4.24705e-05
3.58998e-05
2.9256e-05
2.79605e-05
2.9382e-05
3.67967e-05
5.33738e-05
5.69977e-05
3.05831e-05
1.18173e-05
2.5887e-06
4.28345e-06
1.82984e-05
5.31777e-05
0.00013361
0.000252768
0.000272875
0.000246071
0.000203468
9.83567e-05
9.28023e-06
1.53502e-07
3.79369e-06
5.89599e-06
8.34742e-06
1.18189e-05
1.71432e-05
2.52867e-05
3.64523e-05
4.78513e-05
5.58667e-05
5.92344e-05
5.651e-05
5.08858e-05
4.80874e-05
4.95498e-05
5.60938e-05
6.95151e-05
8.7281e-05
0.000100474
0.000104462
0.00010295
0.000100663
9.89289e-05
9.47251e-05
8.0464e-05
5.40193e-05
2.97741e-05
1.67573e-05
2.48434e-05
5.18819e-05
0.00010185
0.000128104
0.000136555
0.000112187
9.95146e-06
1.44206e-07
3.45759e-06
5.34074e-06
7.99447e-06
1.25573e-05
2.06566e-05
3.55248e-05
5.80714e-05
7.03156e-05
6.51622e-05
5.95671e-05
5.87992e-05
6.25521e-05
6.95368e-05
7.79746e-05
8.57727e-05
9.10844e-05
9.4421e-05
9.87587e-05
0.000108695
0.000129119
0.000158478
0.000182267
0.000185231
0.000167184
0.000133838
9.34036e-05
5.04812e-05
5.46838e-06
5.54748e-06
4.01833e-05
9.28742e-05
0.000122925
0.000149297
1.24508e-05
2.03193e-07
3.27541e-06
5.59915e-06
9.50558e-06
1.6646e-05
3.0737e-05
5.61638e-05
6.33113e-05
5.19235e-05
4.76757e-05
4.96285e-05
5.55229e-05
6.40016e-05
7.37182e-05
8.28382e-05
8.87274e-05
9.35283e-05
0.000110207
0.000152161
0.000217698
0.000283924
0.000315765
0.000284864
0.000227663
0.000194283
0.000194649
0.000218263
0.000207551
0.000103242
2.88473e-05
1.16175e-05
4.96297e-05
0.000142584
9.57855e-05
1.22023e-05
1.69309e-06
5.05487e-06
9.81222e-06
2.0217e-05
4.00836e-05
5.53132e-05
5.11063e-05
4.09701e-05
4.04794e-05
4.96775e-05
6.8001e-05
9.55537e-05
0.000126022
0.000148341
0.00015954
0.000163554
0.000162865
0.000158032
0.000152438
0.000150428
0.000157787
0.000185905
0.000240451
0.000276139
0.00018411
0.000102256
6.04505e-05
6.40384e-05
8.74657e-05
7.72446e-05
3.79334e-05
3.47462e-05
6.10602e-05
0.00014176
1.26005e-05
5.2155e-06
1.00907e-05
3.1718e-05
3.42575e-05
3.2043e-05
3.95867e-05
3.65682e-05
3.66873e-05
6.04996e-05
0.000157998
0.000275283
0.00027526
0.000258764
0.000248151
0.000241124
0.0002345
0.000228321
0.000223766
0.000221016
0.000218763
0.000215332
0.000210503
0.000203512
0.000193149
0.000179922
0.00016872
0.000165381
0.000158747
0.0001325
8.03089e-05
3.6544e-05
3.90786e-05
9.82965e-05
0.000161293
1.40548e-05
7.17287e-06
1.69524e-05
2.53608e-05
2.30243e-05
1.83042e-05
2.94899e-05
5.16079e-05
5.1024e-05
6.73047e-05
8.54026e-05
9.0313e-05
9.50785e-05
0.000112316
0.000149405
0.000201171
0.000245701
0.000263095
0.000248598
0.000212291
0.000174473
0.000152972
0.000156482
0.000187638
0.00023961
0.000286516
0.000302404
0.000285376
0.000242994
0.000176182
9.51181e-05
3.80606e-05
2.63068e-05
7.78614e-05
9.78788e-05
1.43722e-05
4.74486e-06
9.08569e-06
2.61223e-05
3.34695e-05
2.18249e-05
4.00844e-06
1.11604e-06
3.74426e-06
3.33398e-06
8.13852e-06
1.43235e-05
1.85825e-05
3.01965e-05
5.6556e-05
0.000107327
0.000182728
0.000247151
0.000258881
0.000221567
0.000180007
0.000168203
0.000194363
0.000250596
0.000307564
0.000334866
0.000331582
0.000312812
0.000283829
0.000231536
0.000144494
6.35348e-05
3.46788e-05
6.25755e-05
9.70255e-05
1.42336e-05
4.98019e-06
1.47306e-05
3.25957e-05
4.0842e-05
4.2626e-05
3.86947e-05
3.03415e-05
1.77745e-05
8.75496e-06
4.09498e-06
1.24832e-06
9.83027e-07
1.03528e-05
3.79216e-05
0.000104226
0.000226179
0.000316023
0.000315896
0.000251514
0.000186208
0.000155151
0.000168662
0.000237853
0.000352973
0.000427907
0.0004154
0.000354622
0.000281591
0.00020997
0.000142388
8.33775e-05
5.35163e-05
7.69394e-05
0.000115737
1.4762e-05
4.57223e-06
7.50041e-06
1.2925e-05
1.51688e-05
1.92637e-05
2.90897e-05
5.05633e-05
5.02479e-05
4.94574e-05
2.55586e-05
9.26833e-06
4.10784e-06
1.37981e-05
4.88326e-05
0.000154163
0.000256173
0.000264057
0.000254808
0.000230067
0.000193105
0.000160782
0.000148056
0.000162455
0.000206032
0.000266359
0.000311721
0.000321746
0.000296106
0.000233279
0.000143678
7.62488e-05
5.51121e-05
9.25295e-05
0.000118003
1.53685e-05
2.40568e-06
4.43838e-06
7.80666e-06
1.17083e-05
1.44651e-05
1.71668e-05
2.33795e-05
2.99364e-05
3.60213e-05
5.26052e-05
2.78285e-05
1.95857e-05
3.29891e-05
7.40408e-05
0.000137104
0.000142497
0.000126513
0.000122314
0.000125019
0.000127681
0.000125913
0.000123096
0.000126188
0.00014367
0.000184285
0.00024096
0.00026196
0.000214178
0.000147831
0.000101041
7.62773e-05
8.15185e-05
0.000150844
0.000108256
1.51947e-05
2.27765e-06
7.80287e-06
1.92787e-05
3.61585e-05
5.15783e-05
5.94287e-05
4.7592e-05
4.09172e-05
5.0693e-05
4.57874e-05
4.257e-05
3.12194e-05
9.06392e-06
6.45809e-06
1.02827e-05
9.32335e-06
1.07322e-05
1.89132e-05
2.88307e-05
3.89684e-05
4.82482e-05
5.70341e-05
6.92815e-05
8.4259e-05
8.66226e-05
8.11857e-05
8.97119e-05
0.000118902
0.000143293
0.000122068
9.26623e-05
0.000102489
0.000170404
8.15819e-05
1.32749e-05
1.89074e-06
9.37661e-06
1.94279e-05
2.31168e-05
2.39602e-05
2.91901e-05
4.16686e-05
5.16286e-05
5.31126e-05
4.69916e-05
3.8072e-05
4.30427e-05
6.67385e-05
8.40708e-05
7.08036e-05
5.14017e-05
4.05592e-05
3.8417e-05
2.11373e-05
1.45194e-05
1.44209e-05
5.32353e-06
8.58874e-06
8.43166e-06
3.29803e-05
8.1317e-05
0.000130042
0.000114633
8.58305e-05
8.25047e-05
0.000101871
0.000135882
0.00017843
8.74223e-05
1.1716e-05
4.03764e-07
3.368e-06
3.49703e-06
4.38305e-06
7.14019e-06
1.39743e-05
2.84796e-05
4.97101e-05
5.48102e-05
5.14424e-05
6.2046e-05
7.88112e-05
7.98152e-05
7.00211e-05
6.76294e-05
9.0093e-05
0.00013624
0.000189191
0.000237994
0.00026425
0.000244485
0.000140249
4.2642e-05
7.5638e-06
2.85125e-06
1.85399e-06
2.75099e-05
8.91423e-05
0.000120287
8.33662e-05
6.98527e-05
9.50087e-05
0.000163032
0.000121199
1.26101e-05
4.06428e-07
3.6002e-06
7.41283e-06
1.28403e-05
2.21241e-05
4.87485e-05
0.000107375
0.000116711
0.000109351
0.000106481
9.87868e-05
9.16503e-05
0.000102613
0.000134951
0.000162389
0.000172153
0.000175211
0.000173114
0.000157754
0.000112479
7.18434e-05
7.07817e-05
0.000115938
8.71023e-05
1.08445e-05
3.37591e-06
1.32942e-06
2.75777e-05
8.78192e-05
0.000154742
0.000124357
0.00011384
0.00016121
0.000119093
1.26858e-05
5.18793e-07
4.18347e-06
7.8286e-06
1.00594e-05
1.42232e-05
2.80862e-05
6.99804e-05
8.1651e-05
5.55859e-05
4.53492e-05
4.52767e-05
5.21672e-05
6.14215e-05
6.93717e-05
7.99032e-05
0.000100965
0.000140531
0.00020054
0.00026847
0.000324442
0.00036148
0.000352119
0.000292553
0.00023459
0.000148763
6.16868e-05
1.402e-05
3.68381e-06
8.4717e-06
3.16458e-05
8.66796e-05
0.000153477
0.000191361
0.00010497
1.29506e-05
6.41948e-07
4.68045e-06
7.36372e-06
9.97572e-06
2.16553e-05
8.13633e-05
5.99191e-05
4.07332e-05
4.00528e-05
5.08363e-05
7.09242e-05
9.47335e-05
0.000121672
0.000152118
0.000180915
0.000209453
0.000236803
0.000256203
0.000265041
0.000265463
0.000262655
0.000263116
0.000266836
0.000264745
0.000246876
0.000208632
0.000145459
6.90436e-05
2.01355e-05
8.04701e-06
2.46576e-05
6.9025e-05
0.000132447
9.96987e-05
1.292e-05
1.00127e-06
4.94551e-06
7.7613e-06
1.49154e-05
5.2061e-05
6.17529e-05
3.77118e-05
3.7025e-05
5.12169e-05
8.31124e-05
0.000120636
0.000139781
0.000143739
0.000142817
0.000144998
0.00015566
0.000176619
0.000206424
0.00024209
0.00028013
0.000315953
0.000344646
0.000362413
0.00036694
0.000356304
0.000328078
0.000278857
0.000203467
0.000101927
1.76092e-05
7.41774e-06
2.22291e-05
7.20964e-05
8.99492e-05
1.2955e-05
1.48873e-06
5.92147e-06
1.21993e-05
3.88253e-05
5.71758e-05
3.32902e-05
3.23994e-05
4.74221e-05
8.35769e-05
0.000122
0.000139788
0.000148239
0.000155632
0.000164252
0.000175007
0.000189679
0.000210036
0.00023572
0.000264458
0.00029403
0.000323254
0.000351587
0.000378019
0.000400112
0.000413177
0.000409714
0.000379174
0.000307549
0.000182392
3.30261e-05
7.91181e-06
1.52042e-05
4.41507e-05
0.000109172
1.32549e-05
3.22246e-06
9.81411e-06
3.15755e-05
5.19881e-05
3.70254e-05
3.58514e-05
5.17607e-05
8.64782e-05
0.000117921
0.000143263
0.000168383
0.000189326
0.000203795
0.000213064
0.000219087
0.000222974
0.000225942
0.000230556
0.000240563
0.000259826
0.000291059
0.000334328
0.000385149
0.000434123
0.000468335
0.000473717
0.000437218
0.000346191
0.000195396
4.46321e-05
6.41998e-06
2.0949e-05
7.38825e-05
0.000115465
1.40808e-05
6.65888e-06
2.12436e-05
3.87686e-05
4.01003e-05
3.64708e-05
3.55099e-05
3.64608e-05
3.5546e-05
3.8578e-05
5.31828e-05
8.47701e-05
0.000132409
0.000184187
0.000229988
0.000268832
0.000302133
0.000328916
0.000345643
0.000349073
0.000341408
0.000333991
0.000342467
0.000376434
0.000432466
0.000488424
0.000508701
0.000467583
0.000356364
0.000184921
4.80675e-05
4.56933e-06
7.76355e-06
9.16332e-05
5.38317e-05
1.27951e-05
7.68463e-06