/*--------------------------------*- C++ -*----------------------------------*\
| =========                 |                                                 |
| \\      /  F ield         | OpenFOAM: The Open Source CFD Toolbox           |
|  \\    /   O peration     | Version:  v2006                                 |
|   \\  /    A nd           | Website:  www.openfoam.com                      |
|    \\/     M anipulation  |                                                 |
\*---------------------------------------------------------------------------*/
FoamFile
{
    version     2.0;
    format      ascii;
    class       volScalarField;
    location    "57";
    object      k;
}
// * * * * * * * * * * * * * * * * * * * * * * * * * * * * * * * * * * * * * //

dimensions      [0 2 -2 0 0 0 0];


internalField   nonuniform List<scalar> 
78750
(
4.00195e-06
9.81893e-06
1.34965e-05
1.65423e-05
1.92206e-05
2.14561e-05
2.32175e-05
2.45379e-05
2.54546e-05
2.60043e-05
2.62216e-05
2.61379e-05
2.57821e-05
2.5182e-05
2.43655e-05
2.33628e-05
2.22068e-05
2.09321e-05
1.9581e-05
1.81678e-05
1.67144e-05
1.52445e-05
1.37748e-05
1.23208e-05
1.08992e-05
9.53093e-06
8.24342e-06
7.06884e-06
6.03528e-06
5.15328e-06
4.4019e-06
3.71575e-06
2.98704e-06
2.20869e-06
1.87621e-06
1.49838e-06
1.29942e-05
2.44193e-05
3.53745e-05
4.49644e-05
5.27154e-05
5.88143e-05
6.34293e-05
6.66123e-05
6.84642e-05
6.91064e-05
6.86654e-05
6.72663e-05
6.50293e-05
6.20722e-05
5.85242e-05
5.4526e-05
5.02257e-05
4.57695e-05
4.1279e-05
3.68792e-05
3.26708e-05
2.87134e-05
2.50431e-05
2.16803e-05
1.86291e-05
1.5886e-05
1.34393e-05
1.12717e-05
9.37564e-06
7.76669e-06
6.56293e-06
6.14947e-06
7.29955e-06
1.11985e-05
1.34034e-06
1.4827e-05
2.79548e-05
4.05155e-05
5.19112e-05
6.14701e-05
6.92019e-05
7.54151e-05
8.02182e-05
8.36595e-05
8.58022e-05
8.67175e-05
8.64805e-05
8.51698e-05
8.28283e-05
7.94827e-05
7.5241e-05
7.026e-05
6.47379e-05
5.89066e-05
5.30105e-05
4.72618e-05
4.1787e-05
3.66152e-05
3.17668e-05
2.72735e-05
2.31482e-05
1.93959e-05
1.60385e-05
1.31057e-05
1.07232e-05
9.28308e-06
9.43257e-06
1.19323e-05
1.77131e-05
2.34052e-06
1.95401e-05
3.59362e-05
5.1102e-05
6.44238e-05
7.54284e-05
8.39754e-05
9.06029e-05
9.57511e-05
9.95212e-05
0.000102003
0.000103293
0.000103499
0.00010268
0.000100852
9.80463e-05
9.43197e-05
8.97529e-05
8.44583e-05
7.85899e-05
7.23433e-05
6.59192e-05
5.94786e-05
5.31393e-05
4.69986e-05
4.11198e-05
3.54904e-05
3.01237e-05
2.50354e-05
2.02856e-05
1.62572e-05
1.37123e-05
1.35787e-05
1.65656e-05
2.33606e-05
3.34905e-06
2.4092e-05
4.3589e-05
6.11782e-05
7.61016e-05
8.79667e-05
9.68967e-05
0.000103636
0.000108695
0.000112222
0.000114349
0.000115212
0.000114945
0.000113644
0.00011135
0.000108131
0.000104082
9.93194e-05
9.39722e-05
8.81939e-05
8.21706e-05
7.60943e-05
7.00797e-05
6.41316e-05
5.82152e-05
5.23065e-05
4.63812e-05
4.03967e-05
3.43242e-05
2.82994e-05
2.28989e-05
1.92338e-05
1.8553e-05
2.15211e-05
2.86739e-05
4.8222e-06
2.93863e-05
5.21858e-05
7.2246e-05
8.86772e-05
0.000101276
0.000110526
0.00011729
0.00012218
0.000125446
0.00012724
0.000127719
0.000127
0.000125135
0.000122184
0.000118241
0.000113434
0.000107911
0.000101845
9.54286e-05
8.88954e-05
8.25151e-05
7.65027e-05
7.08754e-05
6.5488e-05
6.015e-05
5.46845e-05
4.89304e-05
4.27655e-05
3.62733e-05
3.00782e-05
2.55135e-05
2.41308e-05
2.66122e-05
3.3406e-05
6.20485e-06
3.41987e-05
5.99515e-05
8.21896e-05
9.98796e-05
0.000112999
0.000122367
0.000129087
0.000133813
0.000136789
0.000138191
0.000138185
0.000136854
0.000134241
0.000130425
0.000125528
0.000119712
0.000113168
0.000106109
9.87789e-05
9.14669e-05
8.45298e-05
7.82984e-05
7.28483e-05
6.80042e-05
6.34741e-05
5.89343e-05
5.40731e-05
4.86384e-05
4.26038e-05
3.6515e-05
3.17261e-05
2.99034e-05
3.17123e-05
3.75678e-05
7.81183e-06
3.93475e-05
6.80668e-05
9.24031e-05
0.000111255
0.000124873
0.000134431
0.000141147
0.000145725
0.000148458
0.000149554
0.00014913
0.000147226
0.00014389
0.000139216
0.000133354
0.000126497
0.000118871
0.000110723
0.000102331
9.40255e-05
8.62268e-05
7.93728e-05
7.36229e-05
6.8837e-05
6.47191e-05
6.08885e-05
5.69336e-05
5.24818e-05
4.73662e-05
4.19593e-05
3.74554e-05
3.54273e-05
3.64955e-05
4.10742e-05
9.26278e-06
4.38638e-05
7.51359e-05
0.000101277
0.000121136
0.000135206
0.000144957
0.000151704
0.000156187
0.00015875
0.000159575
0.000158732
0.000156248
0.000152179
0.000146645
0.000139824
0.000131948
0.000123279
0.000114104
0.000104738
9.55559e-05
8.7042e-05
7.96954e-05
7.36698e-05
6.88342e-05
6.49261e-05
6.15876e-05
5.83934e-05
5.49132e-05
5.08662e-05
4.64278e-05
4.25315e-05
4.05023e-05
4.08988e-05
4.41884e-05
1.08039e-05
4.84749e-05
8.22696e-05
0.000110161
0.000130983
0.000145495
0.00015545
0.000162257
0.000166689
0.000169115
0.000169683
0.000168438
0.000165406
0.000160653
0.000154315
0.000146602
0.000137774
0.000128129
0.000117983
0.000107685
9.76531e-05
8.8425e-05
8.05482e-05
7.41494e-05
6.90931e-05
6.51526e-05
6.20237e-05
5.93241e-05
5.66242e-05
5.35672e-05
5.01359e-05
4.6959e-05
4.50492e-05
4.48961e-05
4.70634e-05
1.22115e-05
5.2582e-05
8.85939e-05
0.000118039
0.000139741
0.000154688
0.000164863
0.000171774
0.00017621
0.000178525
0.000178854
0.00017723
0.000173678
0.000168273
0.000161175
0.000152622
0.00014291
0.000132368
0.000121347
0.000110237
9.94983e-05
8.97341e-05
8.15081e-05
7.48682e-05
6.9649e-05
6.56431e-05
6.26028e-05
6.02156e-05
5.80988e-05
5.58677e-05
5.33477e-05
5.0873e-05
4.91438e-05
4.85801e-05
4.98609e-05
1.36884e-05
5.67342e-05
9.49264e-05
0.000125876
0.000148414
0.000163772
0.000174156
0.000181162
0.000185592
0.000187794
0.000187889
0.000185901
0.000181854
0.000175833
0.000168019
0.000158674
0.000148124
0.00013673
0.000124875
0.000112986
0.000101573
9.13034e-05
8.27595e-05
7.59119e-05
7.0553e-05
6.64726e-05
6.34584e-05
6.12621e-05
5.95634e-05
5.79835e-05
5.62321e-05
5.4385e-05
5.28628e-05
5.20047e-05
5.26071e-05
1.5101e-05
6.05827e-05
0.000100759
0.00013308
0.000156389
0.000172141
0.000182739
0.000189854
0.000194296
0.000196405
0.000196289
0.000193964
0.000189453
0.000182854
0.000174367
0.000164281
0.000152947
0.000140758
0.000128127
0.000115523
0.000103505
9.28129e-05
8.40386e-05
7.70681e-05
7.16472e-05
6.75496e-05
6.45801e-05
6.25381e-05
6.11615e-05
6.00936e-05
5.8966e-05
5.76457e-05
5.63223e-05
5.5255e-05
5.53191e-05
1.65817e-05
6.44816e-05
0.000106611
0.000140255
0.000164285
0.000180397
0.000191193
0.000198407
0.000202856
0.000204869
0.000204545
0.000201892
0.000196936
0.000189787
0.000180663
0.000169872
0.000157792
0.000144838
0.000131454
0.000118145
0.000105525
9.44037e-05
8.53978e-05
7.83219e-05
7.28726e-05
6.87972e-05
6.58996e-05
6.40064e-05
6.28991e-05
6.22451e-05
6.16235e-05
6.07381e-05
5.95931e-05
5.83659e-05
5.79772e-05
1.80393e-05
6.82002e-05
0.00011215
0.000147019
0.000171716
0.000188171
0.000199163
0.000206484
0.000210952
0.000212886
0.000212374
0.000209419
0.000204051
0.000196392
0.000186676
0.000175232
0.000162456
0.000148784
0.000134684
0.0001207
0.000107497
9.59599e-05
8.67385e-05
7.95836e-05
7.41458e-05
7.01415e-05
6.73628e-05
6.56456e-05
6.47957e-05
6.44961e-05
6.4288e-05
6.37513e-05
6.27495e-05
6.13785e-05
6.05793e-05
1.95577e-05
7.19757e-05
0.000117723
0.000153776
0.000179099
0.000195872
0.000207048
0.000214469
0.000218953
0.000220809
0.000220114
0.000216869
0.000211109
0.000202969
0.000192697
0.000180637
0.000167201
0.00015284
0.000138041
0.000123385
0.000109583
9.75927e-05
8.81224e-05
8.08735e-05
7.54526e-05
7.15421e-05
6.89139e-05
6.73992e-05
6.68106e-05
6.68343e-05
6.69778e-05
6.67245e-05
6.58311e-05
6.43139e-05
6.31158e-05
2.10653e-05
7.56206e-05
0.000123062
0.000160222
0.00018613
0.00020321
0.000214575
0.000222106
0.000226621
0.000228418
0.000227564
0.000224059
0.000217944
0.000209367
0.000198588
0.000185965
0.000171918
0.000156912
0.000141446
0.00012613
0.000111724
9.92542e-05
8.95094e-05
8.21549e-05
7.6758e-05
7.29663e-05
7.05254e-05
6.92494e-05
6.89415e-05
6.92764e-05
6.97272e-05
6.97013e-05
6.88776e-05
6.71958e-05
6.5592e-05
2.26224e-05
7.93138e-05
0.00012843
0.000166665
0.000193129
0.000210501
0.000222049
0.000229692
0.00023424
0.000235983
0.000234981
0.000231232
0.000224786
0.000215801
0.000204551
0.000191403
0.000176784
0.000161162
0.00014505
0.000129078
0.000114044
0.000101039
9.09618e-05
8.34606e-05
7.80678e-05
7.43968e-05
7.21623e-05
7.11521e-05
7.11457e-05
7.17921e-05
7.25244e-05
7.26863e-05
7.19004e-05
7.00332e-05
6.80085e-05
2.41717e-05
8.28946e-05
0.000133596
0.000172844
0.000199838
0.000217501
0.000229242
0.00023701
0.00024161
0.00024332
0.000242196
0.000238236
0.000231496
0.000222148
0.000210477
0.000196854
0.000181708
0.000165509
0.000148782
0.000132164
0.000116489
0.000102906
9.24489e-05
8.47656e-05
7.93615e-05
7.58175e-05
7.38135e-05
7.31017e-05
7.34252e-05
7.43934e-05
7.53917e-05
7.57083e-05
7.49269e-05
7.28443e-05
7.03722e-05
2.57608e-05
8.65069e-05
0.000138777
0.000179016
0.000206524
0.000224473
0.000236409
0.000244307
0.000248965
0.000250652
0.000249418
0.000245265
0.000238257
0.000228578
0.000216521
0.000202462
0.000186827
0.000170087
0.000152765
0.000135511
0.000119174
0.000104952
9.40373e-05
8.61079e-05
8.06503e-05
7.72162e-05
7.54486e-05
7.50564e-05
7.5734e-05
7.70376e-05
7.82964e-05
7.87474e-05
7.79473e-05
7.56264e-05
7.26847e-05
2.73441e-05
9.00192e-05
0.000143781
0.000184965
0.000212972
0.000231214
0.000243359
0.000251402
0.000256135
0.000257817
0.000256496
0.000252178
0.000244938
0.000234969
0.000222574
0.000208127
0.000192052
0.000174816
0.000156933
0.000139059
0.000122052
0.000107149
9.57131e-05
8.74809e-05
8.19315e-05
7.8593e-05
7.70706e-05
7.7023e-05
7.80838e-05
7.97421e-05
8.12609e-05
8.18282e-05
8.09844e-05
7.83948e-05
7.49506e-05
2.8961e-05
9.35499e-05
0.000148788
0.000190906
0.000219411
0.000237951
0.000250312
0.000258507
0.000263318
0.000264999
0.0002636
0.000259134
0.000251685
0.00024146
0.000228763
0.000213971
0.000197502
0.000179811
0.0001614
0.000142918
0.000125231
0.000109598
9.75517e-05
8.8933e-05
8.32265e-05
7.99442e-05
7.86548e-05
7.89617e-05
8.04272e-05
8.24603e-05
8.42467e-05
8.49235e-05
8.40206e-05
8.1141e-05
7.71709e-05
3.05741e-05
9.69895e-05
0.00015364
0.000196662
0.000225665
0.00024452
0.000257114
0.000265471
0.000270366
0.000272054
0.00027059
0.000265995
0.000258369
0.000247925
0.000234974
0.000219887
0.000203075
0.000184979
0.000166083
0.000147023
0.000128663
0.000112279
9.95527e-05
9.0476e-05
8.45524e-05
8.12885e-05
8.02201e-05
8.08909e-05
8.27817e-05
8.5208e-05
8.72674e-05
8.80458e-05
8.70694e-05
8.38756e-05
7.93476e-05
3.22168e-05
0.000100434
0.000158482
0.000202409
0.000231929
0.000251122
0.000263966
0.000272481
0.00027745
0.000279135
0.000277603
0.000272891
0.000265107
0.000254476
0.000241308
0.000225972
0.000208867
0.000190416
0.000171076
0.000151468
0.000132442
0.000115281
0.000101791
9.21645e-05
8.5941e-05
8.26343e-05
8.17541e-05
8.27829e-05
8.51117e-05
8.79505e-05
9.02978e-05
9.11812e-05
9.0117e-05
8.65879e-05
8.14811e-05
3.38578e-05
0.000103789
0.000163173
0.000207988
0.000238051
0.000257632
0.000270762
0.000279419
0.000284434
0.000286099
0.0002845
0.000279685
0.000271773
0.000260992
0.000247652
0.000232116
0.00021477
0.000196016
0.000176286
0.000156173
0.000136509
0.000118575
0.000104266
9.40186e-05
8.74226e-05
8.40139e-05
8.32856e-05
8.46609e-05
8.7434e-05
9.06969e-05
9.33333e-05
9.43101e-05
9.31641e-05
8.92883e-05
8.35724e-05
3.55262e-05
0.000107133
0.000167827
0.000213531
0.000244176
0.000264231
0.000277649
0.000286441
0.000291439
0.000293056
0.000291386
0.000286482
0.000278465
0.000267566
0.000254093
0.000238401
0.000220861
0.000201855
0.000181783
0.000161209
0.000140933
0.000122222
0.000107037
9.60894e-05
8.90357e-05
8.54498e-05
8.48209e-05
8.65168e-05
8.97299e-05
9.3424e-05
9.63674e-05
9.74941e-05
9.62087e-05
9.19545e-05
8.56194e-05
3.71934e-05
0.000110385
0.00017232
0.000218875
0.000250111
0.000270551
0.000284246
0.000293223
0.000298285
0.000299858
0.000298132
0.000293161
0.000285068
0.000274085
0.000260519
0.000244715
0.000227031
0.000207825
0.000187468
0.000166485
0.000145643
0.000126181
0.000110098
9.83976e-05
9.08156e-05
8.69805e-05
8.63936e-05
8.83759e-05
9.20191e-05
9.61552e-05
9.94321e-05
0.00010074
9.93281e-05
9.46205e-05
8.76249e-05
3.88858e-05
0.000113621
0.000176764
0.000224154
0.000255988
0.000276799
0.000290771
0.000299943
0.000305097
0.000306622
0.000304844
0.000299817
0.000291667
0.000280628
0.000267002
0.000251125
0.000233341
0.000213983
0.000193391
0.000172053
0.000150688
0.000130499
0.000113497
0.000100992
9.28074e-05
8.86431e-05
8.80289e-05
9.02515e-05
9.43021e-05
9.88724e-05
0.000102483
0.000104012
0.00010249
9.72905e-05
8.95878e-05
4.0578e-05
0.00011677
0.000181053
0.000229226
0.000261611
0.000282774
0.000297023
0.000306406
0.000311687
0.000313226
0.000311403
0.000306336
0.000298153
0.000287088
0.000273436
0.000257525
0.000239684
0.000220224
0.000199453
0.000177817
0.000155989
0.000135121
0.000117216
0.000103884
9.50434e-05
9.04775e-05
8.97638e-05
9.21697e-05
9.6596e-05
0.000101603
0.000105612
0.00010732
0.000105675
9.99517e-05
9.15022e-05
4.22934e-05
0.0001199
0.000185305
0.000234271
0.000267151
0.000288641
0.000303159
0.000312757
0.000318182
0.000319779
0.000317896
0.000312796
0.000304599
0.000293532
0.000279884
0.000263973
0.000246112
0.000226592
0.000205689
0.000183809
0.000161572
0.000140074
0.000121288
0.000107113
9.75663e-05
9.25262e-05
9.16365e-05
9.41643e-05
9.89321e-05
0.000104375
0.000108807
0.000110673
0.000108883
0.000102603
9.33659e-05
4.40051e-05
0.000122924
0.000189382
0.000239137
0.000272433
0.000294229
0.000309017
0.000318838
0.000324421
0.000326092
0.000324186
0.000319086
0.000310905
0.000299865
0.000286251
0.000270372
0.000252528
0.000232991
0.000212005
0.00018994
0.00016736
0.000145299
0.000125686
0.00011068
0.0001004
9.48249e-05
9.36827e-05
9.62617e-05
0.000101323
0.000107184
0.00011204
0.000114052
0.0001121
0.000105233
9.51719e-05
4.57321e-05
0.000125901
0.000193355
0.000243853
0.000277561
0.000299666
0.000314729
0.000324781
0.000330535
0.0003323
0.00033039
0.0003253
0.000317145
0.000306146
0.000292587
0.000276767
0.00025897
0.000239451
0.000218426
0.000196225
0.000173362
0.000150802
0.000130419
0.000114603
0.000103574
9.74132e-05
9.59462e-05
9.85044e-05
0.000103807
0.000110056
0.000115322
0.000117462
0.000115323
0.000107838
9.69173e-05
4.74561e-05
0.000128784
0.000197164
0.000248355
0.000282441
0.000304837
0.000320167
0.000330452
0.000336388
0.000338275
0.000336411
0.000331332
0.000323215
0.00031228
0.000298803
0.00028307
0.000265354
0.00024589
0.000224868
0.000202584
0.0001795
0.000156517
0.000135446
0.000118862
0.000107092
0.000100311
9.84537e-05
0.000100915
0.000106391
0.000112983
0.000118631
0.000120881
0.00011854
0.000110408
9.85962e-05
4.91937e-05
0.000131617
0.00020087
0.000252717
0.000287159
0.000309837
0.000325431
0.000335948
0.00034207
0.000344088
0.000342299
0.00033723
0.000329165
0.000318314
0.00030494
0.00028932
0.00027171
0.00025233
0.000231346
0.000209023
0.000185774
0.000162438
0.000140759
0.000123458
0.000110963
0.000103538
0.000101235
0.000103528
0.000109114
0.000116003
0.000121991
0.000124317
0.000121745
0.000112939
0.000100205
5.09218e-05
0.000134359
0.000204419
0.000256867
0.000291634
0.000314576
0.000330424
0.000341169
0.000347477
0.000349632
0.00034793
0.000342898
0.000334911
0.00032417
0.000310925
0.000295441
0.000277965
0.000258699
0.000237788
0.000215468
0.000192111
0.000168494
0.000146301
0.000128352
0.000115172
0.000107103
0.000104309
0.000106363
0.000111974
0.000119078
0.000125374
0.000127754
0.000124931
0.000115423
0.000101738
5.2647e-05
0.000137039
0.000207858
0.000260874
0.000295942
0.000319131
0.000335221
0.000346187
0.00035268
0.000354979
0.000353376
0.000348398
0.000340507
0.000329892
0.000316794
0.000301466
0.000284142
0.000265011
0.000244199
0.000221918
0.000198499
0.000174666
0.000152043
0.000133517
0.000119698
0.000110995
0.000107681
0.000109434
0.00011501
0.000122312
0.000128809
0.000131192
0.000128088
0.000117854
0.000103195
5.43692e-05
0.000139651
0.000211175
0.000264693
0.000300014
0.000323427
0.00033975
0.000350935
0.000357616
0.000360061
0.000358564
0.000353653
0.000345878
0.000335417
0.00032249
0.000307341
0.000290193
0.000271221
0.000250535
0.000228324
0.000204886
0.000180899
0.000157931
0.000138911
0.000124517
0.000115206
0.000111356
0.000112759
0.000118239
0.000125686
0.000132304
0.000134634
0.000131215
0.000120227
0.000104571
5.60907e-05
0.000142216
0.000214407
0.000268362
0.000303901
0.00032752
0.000344066
0.000355465
0.000362333
0.000364931
0.000363552
0.000358726
0.000351078
0.000340774
0.000328035
0.000313086
0.000296132
0.000277338
0.000256799
0.000234684
0.000211264
0.000187174
0.000163937
0.000144504
0.000129603
0.000119726
0.000115338
0.00011635
0.00012167
0.000129191
0.000135853
0.000138077
0.000134306
0.00012254
0.000105869
5.77986e-05
0.000144715
0.000217545
0.000271832
0.000307544
0.000331349
0.000348106
0.000359714
0.000366767
0.00036952
0.000368269
0.000363547
0.000356048
0.000345926
0.000333387
0.000318652
0.000301918
0.000283324
0.000262954
0.000240962
0.000217592
0.000193448
0.000170011
0.000150249
0.000134913
0.00012452
0.000119611
0.000120208
0.000125312
0.000132834
0.000139464
0.000141523
0.000137362
0.000124792
0.00010709
5.94895e-05
0.000147115
0.00022054
0.000275112
0.00031098
0.000334961
0.000351922
0.000363732
0.000370967
0.000373876
0.000372758
0.000368152
0.000360814
0.000350887
0.000338565
0.000324056
0.000307548
0.000289181
0.000269001
0.000247157
0.000223871
0.000199716
0.000176144
0.000156128
0.000140425
0.000129563
0.00012415
0.000124313
0.000129151
0.000136604
0.000143128
0.000144969
0.000140379
0.000126981
0.000108236
6.11537e-05
0.000149409
0.000223361
0.000278175
0.000314172
0.000338313
0.000355466
0.000367469
0.000374881
0.000377945
0.000376967
0.000372491
0.000365329
0.000355612
0.000343524
0.00032926
0.000312995
0.000294858
0.000274899
0.000253228
0.000230059
0.00020594
0.000182299
0.000162114
0.000146117
0.000134838
0.000128942
0.000128657
0.00013318
0.000140495
0.000146842
0.000148411
0.000143356
0.000129107
0.000109304
6.27944e-05
0.000151609
0.000226034
0.000281053
0.000317158
0.000341445
0.00035878
0.000370968
0.000378551
0.000381768
0.000380931
0.000376594
0.000369616
0.00036012
0.000348276
0.00033427
0.000318264
0.000300374
0.000280641
0.000259173
0.000236151
0.000212112
0.000188465
0.000168193
0.000151973
0.000140333
0.000133981
0.000133236
0.0001374
0.000144506
0.000150603
0.000151846
0.000146291
0.000131168
0.000110297
6.43945e-05
0.000153689
0.000228527
0.000283712
0.000319906
0.000344324
0.000361829
0.000374192
0.00038194
0.000385307
0.000384613
0.000380425
0.000373642
0.000364376
0.000352788
0.00033905
0.000323316
0.000305691
0.000286202
0.00026495
0.00024211
0.000218194
0.000194608
0.000174333
0.000157967
0.000146025
0.00013925
0.000138044
0.000141805
0.000148635
0.00015441
0.000155275
0.000149183
0.000133167
0.00011122
6.59597e-05
0.000155672
0.000230874
0.000286192
0.000322453
0.00034699
0.000364653
0.000377182
0.000385086
0.000388598
0.000388048
0.000384015
0.000377433
0.000368402
0.000357075
0.000343615
0.000328163
0.000310813
0.000291582
0.000270565
0.00024793
0.00022418
0.000200715
0.000180517
0.000164074
0.000151888
0.000144724
0.000143056
0.000146378
0.000152865
0.000158256
0.000158695
0.000152032
0.000135107
0.000112081
6.74758e-05
0.000157534
0.000233046
0.000288462
0.000324772
0.000349414
0.000367225
0.00037991
0.000387963
0.000391617
0.000391212
0.000387342
0.000380966
0.000372178
0.00036112
0.000347943
0.00033278
0.000315714
0.000296755
0.000275989
0.000253582
0.000230045
0.000206763
0.000186717
0.000170268
0.000157895
0.000150378
0.000148252
0.000151105
0.000157191
0.000162137
0.000162105
0.000154842
0.000136993
0.000112889
6.89485e-05
0.000159299
0.000235077
0.000290559
0.0003269
0.000351633
0.00036958
0.000382412
0.000390607
0.000394397
0.000394135
0.000390432
0.000384268
0.000375726
0.000364941
0.000352052
0.000337183
0.000320408
0.000301729
0.000281228
0.000259067
0.000235762
0.000212732
0.000192909
0.000176519
0.000164014
0.000156182
0.000153608
0.000155966
0.000161601
0.000166047
0.000165503
0.000157612
0.000138831
0.000113653
7.03659e-05
0.000160946
0.000236939
0.000292457
0.000328812
0.000353624
0.000371696
0.000384665
0.000392995
0.000396917
0.0003968
0.000393273
0.000387325
0.000379034
0.000368524
0.000355928
0.000341358
0.000324882
0.000306493
0.000286272
0.000264385
0.000241358
0.000218639
0.000199095
0.000182818
0.00017023
0.000162116
0.000159104
0.000160949
0.000166086
0.000169982
0.00016889
0.000160347
0.000140626
0.00011438
7.17345e-05
0.000162495
0.000238662
0.000294189
0.00033054
0.000355418
0.000373603
0.0003867
0.000395156
0.000399206
0.000399231
0.000395885
0.000390156
0.000382118
0.000371887
0.000359585
0.000345318
0.000329145
0.000311054
0.000291127
0.000269536
0.000246825
0.000224479
0.000205262
0.000189144
0.000176516
0.000168156
0.000164718
0.000166035
0.000170638
0.000173941
0.000172268
0.000163052
0.000142393
0.000115077
7.30462e-05
0.000163931
0.000240226
0.000295732
0.000332063
0.000356995
0.000375284
0.000388498
0.000397073
0.000401244
0.000401411
0.00039825
0.000392745
0.000384963
0.000375013
0.00036301
0.000349051
0.000333187
0.000315406
0.000295789
0.00027452
0.000252168
0.000230267
0.000211414
0.000195493
0.000182863
0.000174284
0.000170436
0.000171212
0.000175246
0.000177918
0.000175636
0.000165731
0.000144132
0.000115748
7.43087e-05
0.000165274
0.000241659
0.000297118
0.000333412
0.000358385
0.000376765
0.000390087
0.000398771
0.000403057
0.000403363
0.000400393
0.000395114
0.000387589
0.00037792
0.000366215
0.000352565
0.000337016
0.000319551
0.000300259
0.000279336
0.000257385
0.000235996
0.000217547
0.000201857
0.000189256
0.000180486
0.00017624
0.000176472
0.00017991
0.000181918
0.000179002
0.00016839
0.000145849
0.000116396
7.55167e-05
0.000166511
0.000242944
0.000298329
0.000334571
0.000359572
0.000378033
0.000391454
0.000400241
0.000404637
0.000405081
0.000402307
0.000397257
0.000389988
0.000380599
0.000369194
0.000355854
0.000340623
0.000323483
0.00030453
0.000283978
0.000262469
0.000241655
0.000223653
0.000208231
0.000195689
0.000186749
0.000182115
0.000181794
0.000184615
0.000185933
0.000182363
0.000171031
0.000147544
0.000117021
7.66762e-05
0.00016766
0.000244106
0.000299391
0.000335564
0.000360581
0.000379112
0.000392622
0.000401504
0.000406004
0.000406584
0.000404009
0.000399188
0.000392175
0.000383065
0.000371956
0.000358925
0.000344014
0.000327205
0.000308601
0.000288441
0.000267411
0.00024723
0.000229721
0.000214608
0.000202158
0.000193074
0.000188061
0.000187188
0.000189362
0.000189968
0.000185726
0.000173663
0.000149223
0.000117627
7.77835e-05
0.000168714
0.000245134
0.000300293
0.00033638
0.000361402
0.000379992
0.000393584
0.000402553
0.000407154
0.00040787
0.000405499
0.000400909
0.000394151
0.000385318
0.000374502
0.00036178
0.000347188
0.000330713
0.000312469
0.000292721
0.000272204
0.000252709
0.000235736
0.000220968
0.000208644
0.000199442
0.000194072
0.000192666
0.000194151
0.000194019
0.000189089
0.000176283
0.000150888
0.000118217
7.88421e-05
0.000169683
0.000246044
0.000301052
0.000337039
0.000362052
0.000380692
0.000394355
0.000403405
0.000408104
0.000408956
0.000406793
0.000402435
0.000395932
0.000387373
0.000376848
0.000364429
0.000350154
0.000334013
0.000316136
0.000296817
0.000276844
0.000258084
0.000241688
0.000227306
0.000215146
0.000205859
0.000200157
0.000198229
0.000199001
0.000198103
0.000192468
0.000178906
0.000152549
0.0001188
7.985e-05
0.000170564
0.000246829
0.000301661
0.00033753
0.000362523
0.000381202
0.00039493
0.000404055
0.000408848
0.000409837
0.000407889
0.000403767
0.00039752
0.000389234
0.000378997
0.000366879
0.000352919
0.000337112
0.000319605
0.000300728
0.000281327
0.000263344
0.000247563
0.000233603
0.000221637
0.00021229
0.000206278
0.000203841
0.000203891
0.000202215
0.000195862
0.000181536
0.000154212
0.000119382
8.08108e-05
0.000171364
0.0002475
0.000302131
0.000337867
0.000362829
0.000381539
0.000395323
0.000404517
0.0004094
0.000410528
0.000408801
0.000404918
0.000398927
0.000390913
0.000380962
0.000369142
0.000355493
0.000340018
0.000322884
0.000304459
0.000285655
0.000268482
0.00025335
0.000239852
0.000228123
0.000218755
0.000212458
0.00020952
0.000208838
0.000206369
0.000199285
0.000184183
0.000155886
0.000119968
8.17227e-05
0.000172079
0.000248051
0.000302457
0.000338045
0.000362963
0.000381694
0.000395527
0.000404785
0.000409757
0.000411026
0.000409527
0.000405887
0.000400155
0.000392415
0.00038275
0.000371227
0.000357888
0.000342746
0.000325989
0.000308026
0.000289842
0.000273499
0.00025904
0.000246033
0.000234576
0.000225219
0.000218652
0.000215234
0.000213822
0.000210557
0.000202738
0.000186853
0.000157576
0.000120564
8.25901e-05
0.000172718
0.000248492
0.00030265
0.000338075
0.000362939
0.000381683
0.000395558
0.000404874
0.000409933
0.000411344
0.000410079
0.000406686
0.000401215
0.000393748
0.000384369
0.000373143
0.000360115
0.000345308
0.000328934
0.000311448
0.000293914
0.000278405
0.00026463
0.000252138
0.00024099
0.000231688
0.000224902
0.000221013
0.000218869
0.0002148
0.000206236
0.000189558
0.000159294
0.000121178
8.34118e-05
0.000173276
0.000248817
0.000302702
0.000337951
0.000362752
0.0003815
0.00039541
0.000404782
0.000409926
0.000411483
0.000410459
0.000407317
0.000402109
0.000394918
0.000385826
0.0003749
0.000362188
0.000347724
0.000331748
0.000314765
0.000297925
0.000283229
0.000270126
0.000258155
0.000247338
0.000238127
0.000231157
0.000226823
0.000223964
0.000219098
0.000209787
0.000192309
0.000161046
0.000121811
8.41935e-05
0.000173762
0.000249039
0.00030263
0.000337688
0.000362415
0.00038116
0.0003951
0.000404522
0.000409752
0.000411458
0.00041068
0.000407793
0.000402848
0.000395932
0.000387128
0.000376503
0.000364111
0.000350002
0.000334444
0.000318002
0.000301921
0.000288008
0.000275555
0.000264095
0.00025362
0.000244528
0.000237412
0.000232681
0.000229121
0.000223462
0.000213401
0.000195114
0.00016284
0.000122467
8.49346e-05
0.000174171
0.00024915
0.000302424
0.000337279
0.000361923
0.000380658
0.000394624
0.000404095
0.000409413
0.000411273
0.00041075
0.00040812
0.00040344
0.0003968
0.000388284
0.000377962
0.000365895
0.00035215
0.000337029
0.000321163
0.000305897
0.000292743
0.00028092
0.000269959
0.000259826
0.000250871
0.000243638
0.00023854
0.000234303
0.000227877
0.000217077
0.000197978
0.00016468
0.000123144
8.56406e-05
0.000174515
0.000249166
0.000302103
0.00033674
0.000361292
0.000380009
0.000393995
0.000403515
0.000408923
0.000410943
0.000410681
0.000408311
0.000403897
0.000397531
0.0003893
0.000379281
0.000367541
0.000354167
0.000339499
0.000324236
0.000309824
0.000297424
0.000286225
0.000275758
0.000265968
0.000257159
0.000249832
0.000244399
0.000239527
0.000232346
0.000220815
0.000200902
0.000166565
0.000123843
8.63137e-05
0.000174792
0.000249083
0.00030166
0.000336067
0.000360515
0.000379207
0.00039321
0.000402779
0.000408284
0.000410475
0.000410481
0.000408374
0.000404226
0.000398134
0.000390189
0.00038047
0.000369058
0.000356058
0.000341851
0.000327208
0.000313673
0.000302025
0.000291447
0.000281476
0.000272034
0.000263386
0.000255989
0.000250253
0.000244778
0.00023687
0.000224619
0.000203891
0.000168502
0.000124569
8.69592e-05
0.000175012
0.000248916
0.000301113
0.000335274
0.000359607
0.000378264
0.000392277
0.000401895
0.000407509
0.000409888
0.000410163
0.000408316
0.000404432
0.000398614
0.000390955
0.00038154
0.000370457
0.000357836
0.0003441
0.000330095
0.000317449
0.000306553
0.000296595
0.000287118
0.000278029
0.000269554
0.000262109
0.000256102
0.000250055
0.000241448
0.000228486
0.000206941
0.000170486
0.000125315
8.75826e-05
0.00017518
0.000248668
0.000300462
0.00033436
0.000358565
0.000377176
0.00039119
0.000400858
0.000406597
0.000409214
0.00040973
0.000408134
0.000404516
0.000398975
0.000391605
0.000382494
0.000371745
0.000359507
0.000346252
0.000332899
0.000321144
0.000310994
0.000301653
0.00029267
0.000283941
0.000275655
0.000268187
0.000261942
0.000255355
0.000246077
0.000232421
0.000210058
0.000172524
0.000126089
8.81882e-05
0.000175303
0.00024835
0.000299719
0.00033334
0.000357402
0.000375953
0.000389956
0.00039966
0.000405516
0.000408372
0.00040914
0.000407811
0.00040447
0.000399217
0.000392145
0.000383349
0.00037294
0.000361098
0.000348339
0.000335666
0.000324792
0.000315377
0.000306642
0.000298148
0.000289778
0.000281689
0.00027422
0.00026777
0.000260676
0.000250756
0.000236421
0.000213239
0.000174611
0.000126891
8.87796e-05
0.000175385
0.000247963
0.000298886
0.000332212
0.000356119
0.000374598
0.000388579
0.000398313
0.000404286
0.000407386
0.000408412
0.000407357
0.000404302
0.000399344
0.000392579
0.000384104
0.000374047
0.000362614
0.000350376
0.00033842
0.000328401
0.000319698
0.000311555
0.000303543
0.000295533
0.000287653
0.000280205
0.000273583
0.000266016
0.000255482
0.000240483
0.000216483
0.000176747
0.000127717
8.93592e-05
0.00017543
0.000247514
0.000297971
0.000330987
0.000354725
0.000373119
0.000387064
0.000396819
0.000402906
0.000406255
0.000407547
0.000406773
0.000404014
0.000399364
0.000392918
0.000384779
0.000375092
0.000364094
0.000352414
0.000341229
0.000332022
0.000323996
0.00031642
0.000308873
0.000301217
0.000293547
0.000286134
0.000279369
0.000271363
0.000260246
0.0002446
0.000219784
0.000178929
0.000128561
8.99258e-05
0.000175434
0.000246998
0.00029697
0.000329662
0.000353219
0.000371516
0.000385414
0.000395179
0.000401374
0.000404973
0.000406532
0.000406044
0.000403588
0.000399256
0.00039314
0.000385353
0.000376054
0.000365517
0.000354433
0.000344075
0.000335648
0.00032827
0.000321237
0.00031414
0.000306831
0.00029938
0.000292023
0.000285141
0.000276723
0.000265049
0.000248772
0.000223143
0.000181155
0.000129427
9.04826e-05
0.000175401
0.000246422
0.000295891
0.000328248
0.000351614
0.000369803
0.000383643
0.00039341
0.000399711
0.000403562
0.000405391
0.000405194
0.000403047
0.000399039
0.000393265
0.000385842
0.000376949
0.000366895
0.000356442
0.000346949
0.00033928
0.000332528
0.000326017
0.000319351
0.000312376
0.000305133
0.00029783
0.00029087
0.000282079
0.000269879
0.000252989
0.000226549
0.00018342
0.000130311
9.10258e-05