/*--------------------------------*- C++ -*----------------------------------*\
| =========                 |                                                 |
| \\      /  F ield         | OpenFOAM: The Open Source CFD Toolbox           |
|  \\    /   O peration     | Version:  v2006                                 |
|   \\  /    A nd           | Website:  www.openfoam.com                      |
|    \\/     M anipulation  |                                                 |
\*---------------------------------------------------------------------------*/
FoamFile
{
    version     2.0;
    format      ascii;
    class       volScalarField;
    location    "57";
    object      nut;
}
// * * * * * * * * * * * * * * * * * * * * * * * * * * * * * * * * * * * * * //

dimensions      [0 2 -1 0 0 0 0];


internalField   nonuniform List<scalar> 
78750
(
1.13389e-08
7.20499e-07
9.87973e-07
1.20859e-06
1.40191e-06
1.56279e-06
1.68924e-06
1.78383e-06
1.84939e-06
1.88865e-06
1.90412e-06
1.89808e-06
1.87258e-06
1.8296e-06
1.77109e-06
1.69918e-06
1.61618e-06
1.52454e-06
1.42726e-06
1.32536e-06
1.22038e-06
1.11403e-06
1.0075e-06
9.01942e-07
7.98555e-07
6.98879e-07
6.04942e-07
5.19117e-07
4.43491e-07
3.78859e-07
3.23695e-07
2.73185e-07
2.19402e-07
1.61894e-07
5.25336e-09
2.89343e-09
1.39846e-06
2.98423e-06
5.09626e-06
8.39481e-06
1.18147e-05
1.30489e-05
1.39672e-05
1.45929e-05
1.4954e-05
1.50783e-05
1.4992e-05
1.47186e-05
1.42794e-05
1.36944e-05
1.29858e-05
1.21779e-05
1.12977e-05
1.03728e-05
9.42716e-06
8.48692e-06
7.57449e-06
6.70437e-06
5.88656e-06
5.12784e-06
4.43139e-06
3.79853e-06
3.22854e-06
2.71901e-06
2.26963e-06
1.49578e-06
8.32539e-07
7.32733e-07
9.38865e-07
2.13412e-08
2.58825e-09
1.88995e-06
3.79066e-06
5.93733e-06
8.71323e-06
1.2716e-05
1.50947e-05
1.62899e-05
1.71991e-05
1.78427e-05
1.82401e-05
1.84087e-05
1.83643e-05
1.78344e-05
1.60066e-05
1.4529e-05
1.3363e-05
1.23976e-05
1.15938e-05
1.09479e-05
1.0466e-05
1.01068e-05
9.53037e-06
8.42645e-06
7.3739e-06
6.38254e-06
5.45837e-06
4.60559e-06
3.83226e-06
2.61923e-06
1.42022e-06
9.62224e-07
1.23254e-06
1.12741e-06
3.37154e-08
4.51957e-09
1.65123e-06
3.52157e-06
5.84061e-06
8.83372e-06
1.28094e-05
1.75387e-05
1.91273e-05
2.00605e-05
2.07355e-05
2.11756e-05
2.14026e-05
2.05924e-05
1.8655e-05
1.69072e-05
1.54057e-05
1.41072e-05
1.29845e-05
1.20244e-05
1.12309e-05
1.06194e-05
1.02022e-05
9.9698e-06
9.86587e-06
9.74658e-06
9.3491e-06
8.18192e-06
6.83579e-06
4.77916e-06
2.86516e-06
1.67535e-06
1.24997e-06
1.86986e-06
1.17865e-06
4.44251e-08
6.46695e-09
1.71911e-06
3.78131e-06
6.50454e-06
1.01275e-05
1.48051e-05
1.99528e-05
2.14679e-05
2.23536e-05
2.29637e-05
2.33283e-05
2.34745e-05
2.29001e-05
2.06435e-05
1.85158e-05
1.66814e-05
1.51039e-05
1.37384e-05
1.25541e-05
1.15446e-05
1.07289e-05
1.01413e-05
9.80391e-06
9.68914e-06
9.66935e-06
9.46604e-06
8.70866e-06
7.19417e-06
5.16165e-06
3.26848e-06
2.06524e-06
1.68377e-06
2.77046e-06
1.21899e-06
5.44873e-08
9.31134e-09
1.69437e-06
3.82881e-06
6.84659e-06
1.10151e-05
1.62099e-05
2.13878e-05
2.38372e-05
2.46642e-05
2.52102e-05
2.55075e-05
2.49925e-05
2.28995e-05
2.07534e-05
1.87835e-05
1.70268e-05
1.54699e-05
1.40791e-05
1.2826e-05
1.17012e-05
1.07229e-05
9.93444e-06
9.38097e-06
9.07106e-06
8.93671e-06
8.77873e-06
8.25382e-06
7.06069e-06
5.30678e-06
3.58057e-06
2.44294e-06
2.16112e-06
3.70615e-06
1.28233e-06
6.34417e-08
1.19809e-08
1.73157e-06
3.99978e-06
7.38526e-06
1.22406e-05
1.82263e-05
2.37891e-05
2.58196e-05
2.65961e-05
2.70799e-05
2.73053e-05
2.55785e-05
2.31772e-05
2.08623e-05
1.87971e-05
1.7004e-05
1.54453e-05
1.40665e-05
1.28196e-05
1.16775e-05
1.06442e-05
9.75959e-06
9.07846e-06
8.62205e-06
8.34627e-06
8.10565e-06
7.63071e-06
6.65029e-06
5.20099e-06
3.74179e-06
2.77698e-06
2.6953e-06
4.60635e-06
1.3399e-06
7.13078e-08
1.50834e-08
1.76072e-06
4.12529e-06
7.80238e-06
1.32142e-05
1.97335e-05
2.53505e-05
2.77902e-05
2.85215e-05
2.89534e-05
2.75709e-05
2.51861e-05
2.26725e-05
2.03368e-05
1.82929e-05
1.65428e-05
1.50379e-05
1.37171e-05
1.25263e-05
1.14281e-05
1.04128e-05
9.50841e-06
8.76576e-06
8.20836e-06
7.80401e-06
7.44553e-06
6.93829e-06
6.08589e-06
4.90937e-06
3.74393e-06
3.0096e-06
3.18663e-06
5.23937e-06
1.39515e-06
7.79281e-08
1.78845e-08
1.79919e-06
4.25702e-06
8.19178e-06
1.40951e-05
2.10825e-05
2.67504e-05
2.94702e-05
3.01694e-05
2.95933e-05
2.74541e-05
2.48052e-05
2.21514e-05
1.97579e-05
1.77085e-05
1.59832e-05
1.4521e-05
1.32541e-05
1.21234e-05
1.10858e-05
1.01248e-05
9.26034e-06
8.53287e-06
7.94947e-06
7.47235e-06
7.0146e-06
6.43965e-06
5.63073e-06
4.63421e-06
3.7087e-06
3.20188e-06
3.6629e-06
5.59791e-06
1.43989e-06
8.38009e-08
2.08595e-08
1.83144e-06
4.3559e-06
8.48607e-06
1.4766e-05
2.20545e-05
2.76394e-05
3.04311e-05
3.08377e-05
2.95096e-05
2.71326e-05
2.43499e-05
2.16339e-05
1.92248e-05
1.71836e-05
1.54771e-05
1.40403e-05
1.28061e-05
1.17145e-05
1.07213e-05
9.80794e-06
8.98857e-06
8.29337e-06
7.71162e-06
7.19509e-06
6.66792e-06
6.03775e-06
5.2522e-06
4.38484e-06
3.64814e-06
3.34251e-06
4.07255e-06
5.75755e-06
1.47779e-06
8.92177e-08
2.35767e-08
1.86114e-06
4.44008e-06
8.72749e-06
1.53127e-05
2.284e-05
2.83527e-05
3.08919e-05
3.10079e-05
2.94164e-05
2.68416e-05
2.3943e-05
2.1179e-05
1.87621e-05
1.6731e-05
1.50409e-05
1.36228e-05
1.24097e-05
1.13443e-05
1.03847e-05
9.51339e-06
8.74385e-06
8.0968e-06
7.54001e-06
7.01124e-06
6.43959e-06
5.76635e-06
4.98994e-06
4.20881e-06
3.61065e-06
3.47151e-06
4.44572e-06
5.79181e-06
1.50821e-06
9.44848e-08
2.64274e-08
1.88618e-06
4.50742e-06
8.92637e-06
1.57666e-05
2.34583e-05
2.88585e-05
3.11648e-05
3.10453e-05
2.92626e-05
2.65641e-05
2.36083e-05
2.08304e-05
1.84183e-05
1.63953e-05
1.47105e-05
1.32946e-05
1.20832e-05
1.10226e-05
1.00749e-05
9.22547e-06
8.48997e-06
7.88344e-06
7.35686e-06
6.8347e-06
6.24587e-06
5.5537e-06
4.79202e-06
4.07749e-06
3.58525e-06
3.58295e-06
4.76971e-06
5.76884e-06
1.53346e-06
9.96525e-08
2.9154e-08
1.9091e-06
4.56822e-06
9.10401e-06
1.61678e-05
2.39948e-05
2.92921e-05
3.13964e-05
3.10714e-05
2.91243e-05
2.63267e-05
2.33335e-05
2.05556e-05
1.81567e-05
1.61454e-05
1.44653e-05
1.30475e-05
1.18303e-05
1.07639e-05
9.81497e-06
8.97351e-06
8.25939e-06
7.68415e-06
7.18542e-06
6.67734e-06
6.08749e-06
5.3934e-06
4.65208e-06
3.99217e-06
3.58327e-06
3.69565e-06
5.0702e-06
5.71202e-06
1.55451e-06
1.04753e-07
3.20118e-08
1.93038e-06
4.62459e-06
9.27203e-06
1.65425e-05
2.44651e-05
2.96335e-05
3.15429e-05
3.10434e-05
2.89748e-05
2.61197e-05
2.31192e-05
2.03581e-05
1.79787e-05
1.59786e-05
1.42987e-05
1.28717e-05
1.16393e-05
1.0556e-05
9.59321e-06
8.74577e-06
8.0383e-06
7.48167e-06
7.00464e-06
6.51393e-06
5.93533e-06
5.25448e-06
4.54177e-06
3.93226e-06
3.59369e-06
3.8055e-06
5.34697e-06
5.64579e-06
1.57293e-06
1.0975e-07
3.4825e-08
1.95094e-06
4.67999e-06
9.4353e-06
1.68985e-05
2.48991e-05
2.99431e-05
3.16747e-05
3.10183e-05
2.88455e-05
2.59487e-05
2.2954e-05
2.02195e-05
1.78661e-05
1.58811e-05
1.42027e-05
1.2765e-05
1.1513e-05
1.04054e-05
9.41896e-06
8.55373e-06
7.84e-06
7.2899e-06
6.82643e-06
6.35189e-06
5.79099e-06
5.13357e-06
4.45613e-06
3.89559e-06
3.61975e-06
3.92173e-06
5.61587e-06
5.57469e-06
1.58935e-06
1.14638e-07
3.77553e-08
1.97167e-06
4.73615e-06
9.6001e-06
1.72482e-05
2.5299e-05
3.0201e-05
3.176e-05
3.09672e-05
2.87176e-05
2.58045e-05
2.28334e-05
2.01353e-05
1.78125e-05
1.58441e-05
1.41668e-05
1.27164e-05
1.14412e-05
1.0304e-05
9.28655e-06
8.39413e-06
7.66238e-06
7.10726e-06
6.64883e-06
6.18723e-06
5.64686e-06
5.01928e-06
4.38209e-06
3.87076e-06
3.65379e-06
4.04041e-06
5.87597e-06
5.50865e-06
1.60485e-06
1.19401e-07
4.06647e-08
1.99202e-06
4.79206e-06
9.76247e-06
1.75854e-05
2.56739e-05
3.04393e-05
3.18397e-05
3.09252e-05
2.86122e-05
2.56938e-05
2.2754e-05
2.00978e-05
1.78098e-05
1.58611e-05
1.41869e-05
1.2724e-05
1.14235e-05
1.02521e-05
9.19654e-06
8.26776e-06
7.50722e-06
6.93673e-06
6.47562e-06
6.02362e-06
5.5054e-06
4.9122e-06
4.31912e-06
3.85774e-06
3.69781e-06
4.16652e-06
6.13536e-06
5.44763e-06
1.61975e-06
1.24048e-07
4.36693e-08
2.01294e-06
4.84957e-06
9.92783e-06
1.79202e-05
2.60273e-05
3.06481e-05
3.18975e-05
3.08776e-05
2.85201e-05
2.56116e-05
2.27125e-05
2.01031e-05
1.78524e-05
1.59255e-05
1.4256e-05
1.27816e-05
1.14554e-05
1.02475e-05
9.1493e-06
8.17697e-06
7.37755e-06
6.78128e-06
6.30897e-06
5.86147e-06
5.36429e-06
4.80723e-06
4.26036e-06
3.84962e-06
3.74605e-06
4.29555e-06
6.3904e-06
5.39564e-06
1.63456e-06
1.28581e-07
4.66588e-08
2.03333e-06
4.90631e-06
1.00905e-05
1.82448e-05
2.63631e-05
3.08471e-05
3.19583e-05
3.08452e-05
2.84531e-05
2.55609e-05
2.27061e-05
2.01454e-05
1.79343e-05
1.60315e-05
1.4369e-05
1.28844e-05
1.1532e-05
1.02855e-05
9.14016e-06
8.11745e-06
7.27051e-06
6.63982e-06
6.14953e-06
5.70264e-06
5.22578e-06
4.70618e-06
4.2071e-06
3.84776e-06
3.8007e-06
4.43128e-06
6.64627e-06
5.35174e-06
1.64948e-06
1.33012e-07
4.9725e-08
2.05415e-06
4.96439e-06
1.02563e-05
1.85696e-05
2.66876e-05
3.10334e-05
3.2015e-05
3.08217e-05
2.84072e-05
2.55397e-05
2.2733e-05
2.02229e-05
1.80527e-05
1.61762e-05
1.45234e-05
1.3031e-05
1.16542e-05
1.03686e-05
9.17339e-06
8.09464e-06
7.19144e-06
6.51663e-06
6.00002e-06
5.54788e-06
5.08836e-06
4.60552e-06
4.15448e-06
3.84684e-06
3.85649e-06
4.56838e-06
6.89756e-06
5.31683e-06
1.66458e-06
1.37345e-07
5.27798e-08
2.07436e-06
5.02161e-06
1.04204e-05
1.88883e-05
2.70023e-05
3.12175e-05
3.20805e-05
3.08162e-05
2.83856e-05
2.55453e-05
2.27873e-05
2.0328e-05
1.81999e-05
1.6352e-05
1.47118e-05
1.32147e-05
1.18155e-05
1.04907e-05
9.24325e-06
8.10382e-06
7.13775e-06
6.41118e-06
5.86169e-06
5.39958e-06
4.95477e-06
4.5077e-06
4.10463e-06
3.84898e-06
3.91606e-06
4.71054e-06
7.14874e-06
5.28981e-06
1.68e-06
1.41588e-07
5.58993e-08
2.09481e-06
5.07996e-06
1.05881e-05
1.92106e-05
2.73139e-05
3.14002e-05
3.21523e-05
3.08262e-05
2.83866e-05
2.5577e-05
2.28685e-05
2.04603e-05
1.83754e-05
1.65586e-05
1.49347e-05
1.34371e-05
1.20188e-05
1.06563e-05
9.35508e-06
8.15094e-06
7.11511e-06
6.3278e-06
5.73734e-06
5.25882e-06
4.82422e-06
4.41022e-06
4.05375e-06
3.8497e-06
3.97452e-06
4.85236e-06
7.39432e-06
5.27066e-06
1.69565e-06
1.45745e-07
5.90113e-08
2.11461e-06
5.13761e-06
1.07558e-05
1.95318e-05
2.76224e-05
3.15862e-05
3.22353e-05
3.08532e-05
2.84069e-05
2.56276e-05
2.29674e-05
2.061e-05
1.85697e-05
1.67869e-05
1.51833e-05
1.36896e-05
1.22562e-05
1.08582e-05
9.50316e-06
8.23171e-06
7.1217e-06
6.26684e-06
5.62901e-06
5.12868e-06
4.70006e-06
4.31615e-06
4.00455e-06
3.85147e-06
4.03443e-06
4.99689e-06
7.6376e-06
5.25783e-06
1.71157e-06
1.49817e-07
6.21802e-08
2.13442e-06
5.19608e-06
1.09279e-05
1.986e-05
2.79348e-05
3.17785e-05
3.23303e-05
3.0897e-05
2.84462e-05
2.56971e-05
2.30845e-05
2.07779e-05
1.87836e-05
1.70376e-05
1.54588e-05
1.39742e-05
1.25305e-05
1.11003e-05
9.69212e-06
8.35099e-06
7.16204e-06
6.23174e-06
5.53904e-06
5.01028e-06
4.58209e-06
4.22399e-06
3.95444e-06
3.851e-06
4.09207e-06
5.13999e-06
7.87506e-06
5.25149e-06
1.72764e-06
1.53807e-07
6.53456e-08
2.15345e-06
5.25368e-06
1.11009e-05
2.01912e-05
2.82513e-05
3.19813e-05
3.2439e-05
3.09544e-05
2.8497e-05
2.57756e-05
2.32091e-05
2.09535e-05
1.9007e-05
1.73013e-05
1.57518e-05
1.42815e-05
1.28328e-05
1.13748e-05
9.9156e-06
8.5044e-06
7.23389e-06
6.22271e-06
5.46942e-06
4.90669e-06
4.4737e-06
4.13688e-06
3.90613e-06
3.85062e-06
4.14949e-06
5.28333e-06
8.10705e-06
5.24945e-06
1.74392e-06
1.57716e-07
6.85637e-08
2.17227e-06
5.3115e-06
1.12773e-05
2.05309e-05
2.85782e-05
3.21944e-05
3.25626e-05
3.10246e-05
2.85582e-05
2.58636e-05
2.3343e-05
2.11391e-05
1.92421e-05
1.75796e-05
1.60637e-05
1.46132e-05
1.31651e-05
1.1684e-05
1.01763e-05
8.69472e-06
7.33949e-06
6.24157e-06
5.42155e-06
4.81878e-06
4.3751e-06
4.05428e-06
3.85829e-06
3.84826e-06
4.20406e-06
5.42493e-06
8.33756e-06
5.25294e-06
1.76006e-06
1.6154e-07
7.17795e-08
2.19028e-06
5.36802e-06
1.14524e-05
2.08642e-05
2.8882e-05
3.23852e-05
3.26703e-05
3.10906e-05
2.86186e-05
2.59512e-05
2.3477e-05
2.13255e-05
1.94798e-05
1.78636e-05
1.63855e-05
1.49601e-05
1.35186e-05
1.20199e-05
1.04678e-05
8.91719e-06
7.47622e-06
6.28809e-06
5.39693e-06
4.74913e-06
4.28928e-06
3.97904e-06
3.81339e-06
3.84622e-06
4.25852e-06
5.56867e-06
8.56925e-06
5.26444e-06
1.77669e-06
1.65284e-07
7.50437e-08
2.2081e-06
5.42475e-06
1.16297e-05
2.11988e-05
2.91783e-05
3.25684e-05
3.27732e-05
3.11576e-05
2.86824e-05
2.60426e-05
2.36145e-05
2.15159e-05
1.97227e-05
1.81551e-05
1.67187e-05
1.53232e-05
1.3894e-05
1.23832e-05
1.07908e-05
9.17284e-06
7.64503e-06
6.36304e-06
5.39628e-06
4.69841e-06
4.21676e-06
3.91141e-06
3.77127e-06
3.84365e-06
4.31078e-06
5.71036e-06
8.79837e-06
5.28215e-06
1.79391e-06
1.68948e-07
7.83072e-08
2.22524e-06
5.48044e-06
1.18047e-05
2.15213e-05
2.94539e-05
3.27312e-05
3.28578e-05
3.12096e-05
2.87387e-05
2.61284e-05
2.37466e-05
2.17013e-05
1.99623e-05
1.8446e-05
1.70548e-05
1.56941e-05
1.42829e-05
1.27661e-05
1.11385e-05
9.45643e-06
7.84258e-06
6.46539e-06
5.42027e-06
4.66835e-06
4.15986e-06
3.85379e-06
3.73405e-06
3.84252e-06
4.36397e-06
5.85706e-06
9.02633e-06
5.3037e-06
1.81139e-06
1.72518e-07
8.16153e-08
2.2423e-06
5.53727e-06
1.19847e-05
2.18426e-05
2.97196e-05
3.2883e-05
3.29329e-05
3.12545e-05
2.87941e-05
2.62132e-05
2.38769e-05
2.18855e-05
2.02018e-05
1.87387e-05
1.73956e-05
1.60736e-05
1.46853e-05
1.31679e-05
1.151e-05
9.76715e-06
8.06837e-06
6.59502e-06
5.46894e-06
4.65922e-06
4.11906e-06
3.80684e-06
3.70248e-06
3.8436e-06
4.41847e-06
6.0071e-06
9.2538e-06
5.32966e-06
1.82918e-06
1.75991e-07
8.49159e-08
2.25838e-06
5.59265e-06
1.21642e-05
2.21513e-05
2.9965e-05
3.30142e-05
3.29885e-05
3.12811e-05
2.88324e-05
2.62842e-05
2.39964e-05
2.20609e-05
2.04344e-05
1.90267e-05
1.77345e-05
1.6455e-05
1.50944e-05
1.35819e-05
1.18992e-05
1.00997e-05
8.31871e-06
6.75025e-06
5.54209e-06
4.67187e-06
4.09585e-06
3.77231e-06
3.67829e-06
3.84837e-06
4.4753e-06
6.16063e-06
9.48035e-06
5.35817e-06
1.84704e-06
1.79355e-07
8.82461e-08
2.274e-06
5.64717e-06
1.23426e-05
2.24557e-05
3.01989e-05
3.31328e-05
3.30328e-05
3.12984e-05
2.88639e-05
2.63507e-05
2.41122e-05
2.22326e-05
2.06634e-05
1.93121e-05
1.80727e-05
1.68386e-05
1.55096e-05
1.40066e-05
1.23038e-05
1.04521e-05
8.59172e-06
6.92969e-06
5.63878e-06
4.70598e-06
4.09051e-06
3.751e-06
3.66255e-06
3.85791e-06
4.53515e-06
6.31752e-06
9.70616e-06
5.38967e-06
1.865e-06
1.82604e-07
9.15703e-08
2.28901e-06
5.70071e-06
1.25191e-05
2.275e-05
3.04142e-05
3.32318e-05
3.30573e-05
3.12962e-05
2.8877e-05
2.64041e-05
2.42159e-05
2.23924e-05
2.08821e-05
1.95893e-05
1.84053e-05
1.72196e-05
1.59258e-05
1.44367e-05
1.27186e-05
1.08191e-05
8.88333e-06
7.13072e-06
5.75764e-06
4.76111e-06
4.10344e-06
3.7439e-06
3.65652e-06
3.8733e-06
4.59874e-06
6.4783e-06
9.93064e-06
5.42273e-06
1.88287e-06
1.85726e-07
9.49205e-08
2.30373e-06
5.75402e-06
1.26958e-05
2.30394e-05
3.06174e-05
3.33171e-05
3.30683e-05
3.1281e-05
2.88778e-05
2.64481e-05
2.43104e-05
2.25436e-05
2.10933e-05
1.98604e-05
1.87335e-05
1.75981e-05
1.63423e-05
1.48704e-05
1.31412e-05
1.11983e-05
9.19104e-06
7.35131e-06
5.89717e-06
4.83637e-06
4.13427e-06
3.75117e-06
3.66085e-06
3.89573e-06
4.66752e-06
6.64365e-06
1.0154e-05
5.4577e-06
1.90067e-06
1.88715e-07
9.82521e-08
2.31804e-06
5.80668e-06
1.28712e-05
2.33197e-05
3.08032e-05
3.33835e-05
3.30601e-05
3.12474e-05
2.88611e-05
2.64749e-05
2.43897e-05
2.26818e-05
2.12935e-05
2.01224e-05
1.90544e-05
1.79714e-05
1.67557e-05
1.53041e-05
1.35672e-05
1.1585e-05
9.51065e-06
7.58807e-06
6.05512e-06
4.93057e-06
4.18283e-06
3.77345e-06
3.67649e-06
3.9256e-06
4.7409e-06
6.81377e-06
1.0376e-05
5.49368e-06
1.91828e-06
1.91561e-07
1.01578e-07
2.33202e-06
5.85855e-06
1.3044e-05
2.35916e-05
3.0976e-05
3.34347e-05
3.30352e-05
3.11955e-05
2.88258e-05
2.6485e-05
2.44554e-05
2.28092e-05
2.14844e-05
2.03762e-05
1.9368e-05
1.83386e-05
1.71647e-05
1.57355e-05
1.39939e-05
1.1976e-05
9.83898e-06
7.83811e-06
6.22913e-06
5.04184e-06
4.24781e-06
3.81e-06
3.70348e-06
3.96443e-06
4.82298e-06
6.98939e-06
1.05964e-05
5.53082e-06
1.93569e-06
1.94262e-07
1.04898e-07
2.34583e-06
5.91074e-06
1.32188e-05
2.38603e-05
3.11353e-05
3.34701e-05
3.2995e-05
3.11299e-05
2.87777e-05
2.64813e-05
2.45048e-05
2.29187e-05
2.16596e-05
2.06174e-05
1.96714e-05
1.86973e-05
1.7567e-05
1.61621e-05
1.44182e-05
1.23677e-05
1.01721e-05
8.09777e-06
6.41656e-06
5.16862e-06
4.32855e-06
3.86092e-06
3.74251e-06
4.01314e-06
4.91391e-06
7.1722e-06
1.08158e-05
5.5689e-06
1.95286e-06
1.96811e-07
1.08216e-07
2.35968e-06
5.96353e-06
1.33929e-05
2.41194e-05
3.12794e-05
3.34894e-05
3.29375e-05
3.10457e-05
2.87105e-05
2.64602e-05
2.45414e-05
2.30187e-05
2.18241e-05
2.08467e-05
1.99645e-05
1.90476e-05
1.79621e-05
1.6583e-05
1.48387e-05
1.27586e-05
1.0508e-05
8.36481e-06
6.61528e-06
5.30916e-06
4.4239e-06
3.92579e-06
3.79369e-06
4.07189e-06
5.01334e-06
7.3621e-06
1.10344e-05
5.60814e-06
1.9698e-06
1.99212e-07
1.11509e-07
2.37356e-06
6.01771e-06
1.35661e-05
2.43697e-05
3.14075e-05
3.34913e-05
3.28624e-05
3.09445e-05
2.86266e-05
2.6422e-05
2.45605e-05
2.31024e-05
2.19755e-05
2.10648e-05
2.02457e-05
1.93871e-05
1.83482e-05
1.69961e-05
1.52531e-05
1.31457e-05
1.08438e-05
8.63621e-06
6.82274e-06
5.46138e-06
4.53243e-06
4.00395e-06
3.85718e-06
4.14148e-06
5.12242e-06
7.56053e-06
1.12528e-05
5.64862e-06
1.98655e-06
2.01468e-07
1.14768e-07
2.38676e-06
6.07074e-06
1.3736e-05
2.46097e-05
3.15209e-05
3.34778e-05
3.27711e-05
3.0826e-05
2.85251e-05
2.63669e-05
2.45645e-05
2.31724e-05
2.21141e-05
2.12713e-05
2.05166e-05
1.97152e-05
1.87239e-05
1.74009e-05
1.56609e-05
1.35287e-05
1.11789e-05
8.91125e-06
7.0379e-06
5.62397e-06
4.65264e-06
4.094e-06
3.93191e-06
4.2212e-06
5.24067e-06
7.767e-06
1.14704e-05
5.69032e-06
2.00312e-06
2.03582e-07
1.17975e-07
2.39942e-06
6.12259e-06
1.39033e-05
2.48389e-05
3.16184e-05
3.34478e-05
3.26628e-05
3.06903e-05
2.8406e-05
2.62939e-05
2.45511e-05
2.32259e-05
2.22373e-05
2.14638e-05
2.07749e-05
2.00322e-05
1.9087e-05
1.77937e-05
1.60591e-05
1.39048e-05
1.1511e-05
9.1881e-06
7.25968e-06
5.79626e-06
4.78414e-06
4.19574e-06
4.0179e-06
4.31135e-06
5.36876e-06
7.98242e-06
1.16874e-05
5.73308e-06
2.0195e-06
2.05549e-07
1.21137e-07
2.41161e-06
6.17334e-06
1.40676e-05
2.5058e-05
3.17019e-05
3.34032e-05
3.25392e-05
3.05386e-05
2.82707e-05
2.62048e-05
2.45223e-05
2.32645e-05
2.23462e-05
2.16422e-05
2.10196e-05
2.03362e-05
1.94383e-05
1.81739e-05
1.64459e-05
1.42726e-05
1.18389e-05
9.4658e-06
7.48718e-06
5.97747e-06
4.92627e-06
4.30869e-06
4.11487e-06
4.41192e-06
5.50686e-06
8.20704e-06
1.19049e-05
5.77719e-06
2.03575e-06
2.07375e-07
1.24221e-07
2.42312e-06
6.22236e-06
1.42277e-05
2.52651e-05
3.17699e-05
3.3343e-05
3.23994e-05
3.03702e-05
2.81183e-05
2.60984e-05
2.44767e-05
2.32868e-05
2.24389e-05
2.18047e-05
2.12485e-05
2.06246e-05
1.97744e-05
1.85397e-05
1.68186e-05
1.46292e-05
1.21603e-05
9.74264e-06
7.71923e-06
6.1668e-06
5.07855e-06
4.43269e-06
4.22298e-06
4.52325e-06
5.65548e-06
8.44121e-06
1.21224e-05
5.82272e-06
2.05192e-06
2.09069e-07
1.27237e-07
2.43414e-06
6.27014e-06
1.43847e-05
2.54621e-05
3.18243e-05
3.32687e-05
3.22451e-05
3.01871e-05
2.79511e-05
2.59771e-05
2.44164e-05
2.32945e-05
2.25169e-05
2.19523e-05
2.1462e-05
2.08971e-05
2.00943e-05
1.88896e-05
1.71766e-05
1.49736e-05
1.24742e-05
1.00178e-05
7.95494e-06
6.36325e-06
5.23989e-06
4.56669e-06
4.34134e-06
4.64474e-06
5.81414e-06
8.68419e-06
1.23392e-05
5.86976e-06
2.06803e-06
2.10646e-07
1.30158e-07
2.44447e-06
6.31601e-06
1.45365e-05
2.56462e-05
3.18636e-05
3.31795e-05
3.20756e-05
2.99887e-05
2.77684e-05
2.58405e-05
2.43412e-05
2.32875e-05
2.258e-05
2.20844e-05
2.16593e-05
2.11527e-05
2.03965e-05
1.92216e-05
1.75178e-05
1.53036e-05
1.27792e-05
1.02903e-05
8.19365e-06
6.56637e-06
5.40997e-06
4.71038e-06
4.46966e-06
4.77616e-06
5.98275e-06
8.93571e-06
1.25552e-05
5.91841e-06
2.08414e-06
2.12125e-07
1.32996e-07
2.4543e-06
6.36048e-06
1.46847e-05
2.58199e-05
3.18898e-05
3.30768e-05
3.18922e-05
2.97764e-05
2.75722e-05
2.56906e-05
2.42531e-05
2.32675e-05
2.26299e-05
2.22027e-05
2.18418e-05
2.1392e-05
2.06811e-05
1.95355e-05
1.78418e-05
1.56191e-05
1.3073e-05
1.05584e-05
8.43379e-06
6.77475e-06
5.58758e-06
4.86281e-06
4.60726e-06
4.91709e-06
6.16106e-06
9.19536e-06
1.27704e-05
5.96871e-06
2.10028e-06
2.13521e-07
1.35727e-07
2.46345e-06
6.40293e-06
1.48273e-05
2.59808e-05
3.19017e-05
3.29597e-05
3.16942e-05
2.95497e-05
2.73622e-05
2.55273e-05
2.41522e-05
2.3235e-05
2.26669e-05
2.23073e-05
2.20094e-05
2.16149e-05
2.09479e-05
1.98306e-05
1.81475e-05
1.59196e-05
1.33577e-05
1.08238e-05
8.67602e-06
6.98847e-06
5.77246e-06
5.02355e-06
4.75372e-06
5.06722e-06
6.34887e-06
9.46279e-06
1.2985e-05
6.02072e-06
2.11647e-06
2.14847e-07
1.38364e-07
2.47207e-06
6.44388e-06
1.4966e-05
2.61314e-05
3.19009e-05
3.28294e-05
3.14826e-05
2.93099e-05
2.71399e-05
2.53524e-05
2.40403e-05
2.31917e-05
2.26926e-05
2.23995e-05
2.21633e-05
2.18224e-05
2.11974e-05
2.01072e-05
1.84353e-05
1.62048e-05
1.36326e-05
1.10858e-05
8.91945e-06
7.20654e-06
5.96376e-06
5.19193e-06
4.90847e-06
5.22612e-06
6.54583e-06
9.73755e-06
1.31992e-05
6.07449e-06
2.1329e-06
2.16117e-07
1.40891e-07
2.48006e-06
6.48292e-06
1.50994e-05
2.627e-05
3.18865e-05
3.26851e-05
3.1257e-05
2.90568e-05
2.69053e-05
2.51659e-05
2.39173e-05
2.31374e-05
2.27071e-05
2.24797e-05
2.23037e-05
2.20144e-05
2.14293e-05
2.03648e-05
1.87043e-05
1.64745e-05
1.38978e-05
1.13456e-05
9.16461e-06
7.42908e-06
6.1613e-06
5.36768e-06
5.07132e-06
5.39368e-06
6.75191e-06
1.00195e-05
1.3413e-05
6.12984e-06
2.14949e-06
2.17339e-07
1.43323e-07
2.48757e-06
6.52062e-06
1.52292e-05
2.63989e-05
3.18597e-05
3.25275e-05
3.10179e-05
2.87913e-05
2.66597e-05
2.49691e-05
2.37849e-05
2.30741e-05
2.2712e-05
2.25492e-05
2.24316e-05
2.21918e-05
2.16444e-05
2.0604e-05
1.8955e-05
1.67287e-05
1.41532e-05
1.16024e-05
9.41118e-06
7.65575e-06
6.36468e-06
5.55036e-06
5.2419e-06
5.56971e-06
6.9671e-06
1.03088e-05
1.36273e-05
6.18701e-06
2.16628e-06
2.18518e-07
1.4565e-07
2.4945e-06
6.55661e-06
1.53545e-05
2.65166e-05
3.18197e-05
3.2356e-05
3.07651e-05
2.85133e-05
2.64032e-05
2.47628e-05
2.36438e-05
2.30021e-05
2.27076e-05
2.26081e-05
2.25471e-05
2.23546e-05
2.18424e-05
2.08243e-05
1.9187e-05
1.6967e-05
1.43982e-05
1.18559e-05
9.65898e-06
7.88653e-06
6.57385e-06
5.73979e-06
5.41989e-06
5.75388e-06
7.19121e-06
1.06051e-05
1.38416e-05
6.24556e-06
2.1832e-06
2.19654e-07
1.47884e-07
2.50099e-06
6.59133e-06
1.54764e-05
2.66251e-05
3.17676e-05
3.21712e-05
3.04991e-05
2.82238e-05
2.6137e-05
2.45481e-05
2.34952e-05
2.29228e-05
2.26953e-05
2.26577e-05
2.26513e-05
2.25035e-05
2.20239e-05
2.10261e-05
1.94001e-05
1.71889e-05
1.46321e-05
1.21049e-05
9.90724e-06
8.1211e-06
6.78887e-06
5.93624e-06
5.60564e-06
5.94667e-06
7.42435e-06
1.09086e-05
1.40566e-05
6.3058e-06
2.20032e-06
2.20753e-07
1.50017e-07
2.50697e-06
6.62454e-06
1.55945e-05
2.67236e-05
3.17027e-05
3.19726e-05
3.02195e-05
2.79224e-05
2.58611e-05
2.43254e-05
2.33397e-05
2.28368e-05
2.26756e-05
2.26987e-05
2.2745e-05
2.26394e-05
2.21896e-05
2.12097e-05
1.95945e-05
1.73943e-05
1.48544e-05
1.23487e-05
1.01552e-05
8.35879e-06
7.00913e-06
6.13932e-06
5.79925e-06
6.14892e-06
7.66688e-06
1.12194e-05
1.42724e-05
6.36748e-06
2.2176e-06
2.21824e-07
1.52056e-07
2.51249e-06
6.65643e-06
1.57091e-05
2.68129e-05
3.16259e-05
3.17605e-05
2.99269e-05
2.76101e-05
2.55768e-05
2.40961e-05
2.31788e-05
2.27456e-05
2.26501e-05
2.27324e-05
2.28293e-05
2.27632e-05
2.234e-05
2.13754e-05
1.977e-05
1.75827e-05
1.50644e-05
1.25863e-05
1.04021e-05
8.59924e-06
7.23475e-06
6.34948e-06
6.00133e-06
6.36095e-06
7.9197e-06
1.1538e-05
1.44902e-05
6.43121e-06
2.2352e-06
2.22883e-07
1.53997e-07
2.5175e-06
6.68685e-06
1.58201e-05
2.68927e-05
3.15364e-05
3.15342e-05
2.96206e-05
2.72865e-05
2.5284e-05
2.38603e-05
2.30127e-05
2.26497e-05
2.26195e-05
2.276e-05
2.29057e-05
2.28765e-05
2.2477e-05
2.15251e-05
1.99282e-05
1.77548e-05
1.52619e-05
1.28171e-05
1.06472e-05
8.84165e-06
7.46477e-06
6.56556e-06
6.21071e-06
6.58177e-06
8.18236e-06
1.18644e-05
1.47095e-05
6.49669e-06
2.25307e-06
2.23939e-07
1.55848e-07
2.52206e-06
6.7159e-06
1.59275e-05
2.69632e-05
3.14345e-05
3.12941e-05
2.93012e-05
2.69527e-05
2.49838e-05
2.36193e-05
2.28426e-05
2.255e-05
2.25847e-05
2.27821e-05
2.29746e-05
2.29797e-05
2.2601e-05
2.16589e-05
2.00691e-05
1.79105e-05
1.54464e-05
1.30394e-05
1.08888e-05
9.08502e-06
7.6992e-06
6.78846e-06
6.42847e-06
6.81234e-06
8.45582e-06
1.21994e-05
1.49316e-05
6.5642e-06
2.2713e-06
2.25004e-07
1.57604e-07
2.5261e-06
6.74339e-06
1.60309e-05
2.70235e-05
3.13192e-05
3.10389e-05
2.8968e-05
2.66083e-05
2.46762e-05
2.33731e-05
2.26688e-05
2.24472e-05
2.25464e-05
2.27998e-05
2.30374e-05
2.30745e-05
2.27138e-05
2.17793e-05
2.01954e-05
1.80522e-05
1.56197e-05
1.32539e-05
1.11265e-05
9.32842e-06
7.93693e-06
7.01686e-06
6.65314e-06
7.05169e-06
8.73953e-06
1.25429e-05
1.51564e-05
6.63367e-06
2.28992e-06
2.26088e-07
1.59274e-07
2.52966e-06
6.76943e-06
1.61306e-05
2.70738e-05
3.11905e-05
3.07689e-05
2.86215e-05
2.62542e-05
2.43623e-05
2.31228e-05
2.24921e-05
2.23418e-05
2.2505e-05
2.28132e-05
2.30941e-05
2.31607e-05
2.28155e-05
2.18864e-05
2.03075e-05
1.81809e-05
1.57827e-05
1.34602e-05
1.1359e-05
9.57038e-06
8.17702e-06
7.25099e-06
6.88648e-06
7.30146e-06
9.03506e-06
1.28959e-05
1.53851e-05
6.70538e-06
2.30901e-06
2.27205e-07
1.60857e-07
2.53267e-06
6.79374e-06
1.62257e-05
2.71128e-05
3.1047e-05
3.04831e-05
2.82613e-05
2.58905e-05
2.40424e-05
2.28689e-05
2.23131e-05
2.22345e-05
2.24613e-05
2.28232e-05
2.31457e-05
2.32397e-05
2.29077e-05
2.19823e-05
2.04085e-05
1.83004e-05
1.59401e-05
1.36607e-05
1.15868e-05
9.81022e-06
8.41816e-06
7.48921e-06
7.1264e-06
7.56014e-06
9.34171e-06
1.32582e-05
1.56168e-05
6.7792e-06
2.32859e-06
2.2836e-07
1.62362e-07
2.53518e-06
6.8165e-06
1.63165e-05
2.71409e-05
3.0889e-05
3.01815e-05
2.78878e-05
2.55177e-05
2.37172e-05
2.2612e-05
2.21325e-05
2.21258e-05
2.24158e-05
2.28302e-05
2.31923e-05
2.33113e-05
2.299e-05
2.2067e-05
2.04988e-05
1.84124e-05
1.60944e-05
1.38567e-05
1.18102e-05
1.00475e-05
8.6595e-06
7.73071e-06
7.37289e-06
7.82891e-06
9.66044e-06
1.36301e-05
1.58508e-05
6.85489e-06
2.34865e-06
2.29557e-07
1.63789e-07
2.53711e-06
6.83736e-06
1.64023e-05
2.71568e-05
3.07151e-05
2.98632e-05
2.75004e-05
2.51359e-05
2.33871e-05
2.23529e-05
2.1951e-05
2.20166e-05
2.23694e-05
2.28351e-05
2.32351e-05
2.33768e-05
2.30641e-05
2.21421e-05
2.058e-05
1.8518e-05
1.6246e-05
1.40492e-05
1.20299e-05
1.02823e-05
8.90057e-06
7.9746e-06
7.62451e-06
8.10558e-06
9.98939e-06
1.40105e-05
1.60862e-05
6.93217e-06
2.3692e-06
2.30793e-07
1.65149e-07
2.53853e-06
6.85657e-06
1.64835e-05
2.71613e-05
3.05256e-05
2.95281e-05
2.70995e-05
2.47455e-05
2.30526e-05
2.20921e-05
2.17693e-05
2.19077e-05
2.23227e-05
2.28386e-05
2.32746e-05
2.34366e-05
2.313e-05
2.22075e-05
2.06516e-05
1.8616e-05
1.6393e-05
1.42371e-05
1.22457e-05
1.05145e-05
9.14117e-06
8.22052e-06
7.88105e-06
8.39071e-06
1.03301e-05
1.43994e-05
1.63224e-05
7.01072e-06
2.3902e-06
2.32073e-07
1.66445e-07
2.53938e-06
6.87394e-06
1.656e-05
2.71536e-05
3.03194e-05
2.91753e-05
2.66843e-05
2.43461e-05
2.27137e-05
2.183e-05
2.15881e-05
2.17998e-05
2.22769e-05
2.28419e-05
2.33122e-05
2.34923e-05
2.31895e-05
2.22648e-05
2.07149e-05
1.87066e-05
1.65338e-05
1.44192e-05
1.24565e-05
1.07436e-05
9.38087e-06
8.46819e-06
8.14227e-06
8.68386e-06
1.06817e-05
1.47967e-05
1.65596e-05
7.09067e-06
2.41171e-06
2.33401e-07
1.67688e-07
2.53975e-06
6.88972e-06
1.66321e-05
2.71343e-05
3.00966e-05
2.88048e-05
2.6255e-05
2.3938e-05
2.23706e-05
2.15675e-05
2.14078e-05
2.16931e-05
2.22319e-05
2.28452e-05
2.33483e-05
2.35443e-05
2.32432e-05
2.23149e-05
2.07705e-05
1.87904e-05
1.66685e-05
1.45954e-05
1.26622e-05
1.09691e-05
9.61918e-06
8.7172e-06
8.40806e-06
8.98539e-06
1.1045e-05
1.52032e-05
1.67972e-05
7.17125e-06
2.43358e-06
2.34767e-07
1.68888e-07
2.53963e-06
6.904e-06
1.67003e-05
2.7103e-05
2.98561e-05
2.84156e-05
2.58112e-05
2.35206e-05
2.20228e-05
2.13061e-05
2.12291e-05
2.15874e-05
2.2188e-05
2.28494e-05
2.33843e-05
2.35944e-05
2.32928e-05
2.23593e-05
2.08202e-05
1.88688e-05
1.67974e-05
1.47656e-05
1.28626e-05
1.11906e-05
9.85578e-06
8.96716e-06
8.67796e-06
9.29472e-06
1.14189e-05
1.56177e-05
1.70354e-05
7.25296e-06
2.45591e-06
2.36186e-07
1.70054e-07
2.53909e-06
6.91692e-06
1.67647e-05
2.70598e-05
2.95984e-05
2.80085e-05
2.53539e-05
2.30949e-05
2.16697e-05
2.10408e-05
2.10479e-05
2.14809e-05
2.21443e-05
2.28544e-05
2.34205e-05
2.36432e-05
2.33394e-05
2.23997e-05
2.08661e-05
1.89442e-05
1.69221e-05
1.49307e-05
1.3058e-05
1.14083e-05
1.00904e-05
9.21773e-06
8.9518e-06
9.612e-06
1.18041e-05
1.60401e-05
1.72729e-05
7.33503e-06
2.47858e-06
2.37657e-07
1.71193e-07
2.53815e-06
6.92857e-06
1.68256e-05
2.70049e-05
2.9323e-05
2.75835e-05
2.48837e-05
2.26617e-05
2.13126e-05
2.07733e-05
2.08657e-05
2.13743e-05
2.21016e-05
2.28606e-05
2.34575e-05
2.36917e-05
2.33842e-05
2.24376e-05
2.09102e-05
1.90194e-05
1.70437e-05
1.50909e-05
1.32481e-05
1.16217e-05
1.03226e-05
9.46851e-06
9.22914e-06
9.93675e-06
1.21996e-05
1.64693e-05
1.75093e-05
7.41723e-06
2.50154e-06
2.39173e-07
1.72309e-07
2.53683e-06
6.939e-06
1.6883e-05
2.6938e-05
2.90303e-05
2.71416e-05
2.4402e-05
2.22222e-05
2.09518e-05
2.05035e-05
2.06818e-05
2.12667e-05
2.20586e-05
2.28672e-05
2.34949e-05
2.37399e-05
2.34282e-05
2.24751e-05
2.0956e-05
1.90988e-05
1.71654e-05
1.52479e-05
1.3434e-05
1.18313e-05
1.05525e-05
9.71935e-06
9.50978e-06
1.02689e-05
1.26055e-05
1.69047e-05
1.77434e-05
7.49898e-06
2.52467e-06
2.40723e-07
1.73399e-07
2.53511e-06
6.94806e-06
1.69363e-05
2.68589e-05
2.87205e-05
2.66837e-05
2.39104e-05
2.17778e-05
2.05885e-05
2.02314e-05
2.04956e-05
2.11571e-05
2.20142e-05
2.28728e-05
2.35314e-05
2.37868e-05
2.34705e-05
2.25116e-05
2.10031e-05
1.9182e-05
1.72872e-05
1.54021e-05
1.36158e-05
1.2037e-05
1.07801e-05
9.97038e-06
9.79397e-06
1.06084e-05
1.3021e-05
1.7345e-05
1.79751e-05
7.58039e-06
2.54799e-06
2.42312e-07
1.74471e-07
2.53301e-06
6.9558e-06
1.69859e-05
2.67679e-05
2.83941e-05
2.62111e-05
2.34105e-05
2.13301e-05
2.02238e-05
1.99583e-05
2.03081e-05
2.10458e-05
2.19681e-05
2.2877e-05
2.35666e-05
2.38324e-05
2.35115e-05
2.25477e-05
2.10516e-05
1.92683e-05
1.74095e-05
1.55545e-05
1.37944e-05
1.22395e-05
1.10054e-05
1.02208e-05
1.00803e-05
1.09545e-05
1.34458e-05
1.77892e-05
1.82033e-05
7.66096e-06
2.5714e-06
2.43937e-07
1.75517e-07