/*--------------------------------*- C++ -*----------------------------------*\
| =========                 |                                                 |
| \\      /  F ield         | OpenFOAM: The Open Source CFD Toolbox           |
|  \\    /   O peration     | Version:  v2006                                 |
|   \\  /    A nd           | Website:  www.openfoam.com                      |
|    \\/     M anipulation  |                                                 |
\*---------------------------------------------------------------------------*/
FoamFile
{
    version     2.0;
    format      ascii;
    class       volScalarField;
    location    "57";
    object      omega;
}
// * * * * * * * * * * * * * * * * * * * * * * * * * * * * * * * * * * * * * //

dimensions      [0 0 -1 0 0 0 0];


internalField   nonuniform List<scalar> 
78750
(
352.939
13.628
13.6608
13.6873
13.7103
13.7293
13.7444
13.7557
13.7638
13.7687
13.771
13.7707
13.7682
13.7637
13.7574
13.7495
13.7403
13.7301
13.7193
13.7079
13.6961
13.6842
13.6722
13.6603
13.6487
13.6374
13.6268
13.617
13.6086
13.6021
13.5989
13.6016
13.6145
13.6428
357.144
517.854
4.15415
4.24505
4.33033
4.40354
4.46184
4.50723
4.54131
4.56471
4.57833
4.58316
4.58014
4.57017
4.55407
4.53265
4.50679
4.47745
4.44566
4.41247
4.37874
4.34541
4.31327
4.28279
4.25428
4.22796
4.2039
4.18213
4.16266
4.1455
4.1309
4.11956
4.11341
4.11683
4.13672
524.737
517.854
4.16927
4.27344
4.37066
4.45692
4.52791
4.58453
4.62956
4.6641
4.68872
4.70405
4.71068
4.70917
4.70009
4.68369
4.66009
4.62997
4.59433
4.55447
4.51198
4.46857
4.4258
4.38462
4.34527
4.30801
4.27313
4.24086
4.21139
4.18512
4.16272
4.14587
4.13869
4.14726
4.17793
525.37
517.863
4.20653
4.33476
4.44998
4.54872
4.62868
4.68986
4.73684
4.7731
4.79957
4.81701
4.8262
4.82792
4.82259
4.81029
4.79119
4.76559
4.73395
4.69694
4.65552
4.61097
4.56464
4.51765
4.47085
4.425
4.3806
4.33766
4.29643
4.2573
4.22119
4.19188
4.17645
4.18305
4.21745
525.842
517.872
4.24227
4.39291
4.52445
4.63312
4.71778
4.78057
4.82751
4.86255
4.88694
4.90174
4.90796
4.90653
4.8981
4.88292
4.86137
4.83404
4.80159
4.76483
4.72471
4.68245
4.63935
4.5962
4.55303
4.50961
4.46579
4.42145
4.37636
4.3305
4.28532
4.24603
4.22235
4.22476
4.25869
526.25
517.885
4.28344
4.45729
4.60481
4.72225
4.81043
4.87424
4.92048
4.95375
4.97599
4.98835
4.99194
4.98757
4.97557
4.95629
4.93027
4.89824
4.86111
4.81992
4.77591
4.73061
4.68588
4.64324
4.60288
4.56381
4.52471
4.48435
4.44164
4.39581
4.34787
4.30324
4.27312
4.27013
4.29992
526.561
517.897
4.32056
4.51474
4.67594
4.80038
4.89072
4.95433
4.99957
5.03128
5.05131
5.06095
5.06136
5.05308
5.03637
5.01166
4.97962
4.9412
4.89752
4.8499
4.79988
4.74939
4.70093
4.65689
4.61794
4.58294
4.54992
4.51661
4.48086
4.44098
4.39714
4.35402
4.32273
4.31641
4.34066
526.839
517.911
4.35989
4.57395
4.74783
4.87837
4.97064
5.03452
5.07904
5.10931
5.12748
5.13503
5.13276
5.12093
5.09979
5.06981
5.03183
4.98693
4.93643
4.88181
4.82485
4.76775
4.71343
4.66511
4.6241
4.58961
4.55967
4.53167
4.50279
4.47051
4.43399
4.39656
4.36787
4.36003
4.37837
527.078
517.924
4.39416
4.62499
4.80953
4.94522
5.03928
5.10357
5.14772
5.177
5.19386
5.19962
5.19474
5.17938
5.1538
5.1186
5.07476
5.02355
4.96649
4.90529
4.84195
4.77896
4.71975
4.66797
4.62501
4.59016
4.56178
4.53744
4.51426
4.48937
4.46111
4.43133
4.40754
4.39976
4.41286
527.303
517.937
4.42883
4.67588
4.87044
5.01089
5.10663
5.17141
5.21538
5.24398
5.25979
5.26387
5.25655
5.23794
5.20832
5.16838
5.11921
5.06225
4.99917
4.93188
4.86255
4.79396
4.72993
4.6745
4.62892
4.59253
4.56395
4.5412
4.52175
4.50276
4.48206
4.46006
4.44187
4.43505
4.44396
527.512
517.949
4.45952
4.72061
4.92391
5.06867
5.16615
5.2316
5.27574
5.30406
5.31902
5.3216
5.31202
5.29037
5.25696
5.21259
5.15848
5.09623
5.02769
4.95495
4.88043
4.80723
4.73961
4.68181
4.63456
4.59703
4.56802
4.54598
4.52891
4.51434
4.49992
4.48487
4.47205
4.46663
4.47248
527.714
517.962
4.4903
4.76492
4.97646
5.12517
5.22423
5.2903
5.33456
5.36255
5.37667
5.37781
5.36611
5.34163
5.30473
5.25627
5.19759
5.13043
5.05679
4.97893
4.89953
4.82199
4.75105
4.69113
4.64248
4.60401
4.57451
4.55274
4.53715
4.52577
4.51628
4.50707
4.49899
4.49516
4.49886
527.906
517.974
4.51866
4.80539
5.02432
5.17663
5.27721
5.34397
5.38848
5.41629
5.42973
5.42959
5.41596
5.38889
5.34876
5.29652
5.23362
5.16191
5.08357
5.001
4.91713
4.83574
4.76205
4.70064
4.6512
4.61234
4.58279
4.56141
4.54704
4.53813
4.53252
4.528
4.52388
4.52156
4.52377
528.091
517.987
4.54719
4.84563
5.0715
5.22703
5.32893
5.39627
5.44098
5.46858
5.48135
5.47997
5.46451
5.43499
5.39185
5.3361
5.26926
5.19331
5.1105
5.02342
4.93523
4.85002
4.77358
4.71067
4.66058
4.6216
4.59227
4.57148
4.55828
4.55143
4.54896
4.54824
4.54736
4.5464
4.5475
528.268
517.999
4.57424
4.88342
5.11558
5.27403
5.37717
5.44514
5.49011
5.51761
5.5298
5.52734
5.51022
5.47848
5.4326
5.37365
5.30322
5.22336
5.13643
5.04511
4.95279
4.86393
4.78483
4.72055
4.66999
4.63117
4.60242
4.58257
4.57072
4.56584
4.56604
4.56842
4.57011
4.57024
4.57036
528.439
518.012
4.60152
4.92112
5.15923
5.32029
5.42452
5.49303
5.53823
5.5656
5.57725
5.57375
5.55507
5.52126
5.47285
5.41095
5.33722
5.25373
5.16291
5.06752
4.97115
4.87856
4.79657
4.7307
4.67958
4.64096
4.61295
4.59425
4.58395
4.58105
4.58367
4.58867
4.59244
4.59339
4.59252
528.604
518.025
4.62772
4.95698
5.20052
5.36399
5.46925
5.53835
5.58386
5.61121
5.62244
5.61806
5.59801
5.56237
5.51172
5.4472
5.37051
5.28375
5.18934
5.09012
4.98982
4.89351
4.80847
4.74085
4.68909
4.65071
4.62363
4.60634
4.59784
4.59703
4.60197
4.60923
4.61467
4.61615
4.61416
528.763
518.039
4.6541
4.99277
5.24147
5.40712
5.51333
5.58299
5.62881
5.65616
5.667
5.6618
5.6405
5.6032
5.55051
5.48363
5.40426
5.31449
5.21676
5.1139
5.00975
4.9096
4.82118
4.75143
4.69875
4.66048
4.63432
4.61858
4.61205
4.61348
4.62071
4.63003
4.63682
4.6386
4.63535
528.918
518.052
4.67955
5.02698
5.28045
5.44815
5.55533
5.62562
5.67184
5.6993
5.70989
5.70404
5.68168
5.64295
5.58851
5.51957
5.43785
5.34541
5.24462
5.13837
5.0305
4.92648
4.83442
4.76221
4.70838
4.67011
4.64493
4.63089
4.62655
4.6304
4.63998
4.65122
4.65912
4.66095
4.65625
529.068
518.065
4.70508
5.06105
5.31909
5.48873
5.59683
5.66776
5.71441
5.74202
5.75241
5.74599
5.7227
5.68271
5.62671
5.55597
5.47218
5.37733
5.27377
5.16433
5.05286
4.94489
4.84883
4.77368
4.71825
4.67969
4.65535
4.64306
4.64105
4.64746
4.65946
4.67257
4.68141
4.68314
4.67681
529.213
518.079
4.72977
5.09375
5.35608
5.52758
5.63667
5.70833
5.7555
5.78335
5.79366
5.7868
5.76275
5.72171
5.66442
5.59218
5.50662
5.4097
5.30369
5.19132
5.07642
4.96451
4.86422
4.78572
4.72832
4.6892
4.6656
4.6551
4.65558
4.66475
4.67929
4.69424
4.70388
4.70532
4.69718
529.355
518.093
4.75446
5.12626
5.39276
5.56611
5.67621
5.74863
5.79635
5.82446
5.83471
5.82747
5.80276
5.76082
5.70245
5.62894
5.5419
5.44323
5.33508
5.22005
5.10187
4.98605
4.88127
4.79885
4.73892
4.69879
4.67565
4.66684
4.66988
4.68193
4.69911
4.71593
4.72633
4.72737
4.71728
529.494
518.106
4.77839
5.15756
5.42806
5.60328
5.71449
5.78777
5.8361
5.86452
5.87475
5.86721
5.84195
5.79929
5.74007
5.66557
5.57737
5.47728
5.36734
5.24998
5.12877
5.00915
4.89981
4.81305
4.75012
4.70858
4.68563
4.67843
4.68406
4.69913
4.71906
4.73777
4.74885
4.74939
4.7372
529.63
518.12
4.80224
5.18861
5.46308
5.64025
5.7527
5.82693
5.87585
5.90449
5.91465
5.9068
5.88106
5.83781
5.77793
5.70268
5.61361
5.51243
5.40104
5.28167
5.15771
5.03442
4.92045
4.82884
4.76231
4.71879
4.6956
4.68977
4.69795
4.71608
4.73888
4.75956
4.77134
4.77129
4.75686
529.762
518.134
4.82535
5.21852
5.49686
5.67615
5.79013
5.86551
5.91491
5.94364
5.95364
5.94548
5.91935
5.87567
5.81533
5.73959
5.64994
5.548
5.43551
5.3145
5.18813
5.06143
4.94293
4.84618
4.77561
4.72962
4.70579
4.70106
4.71169
4.73293
4.75865
4.78129
4.79367
4.79308
4.77634
529.892
518.148
4.84827
5.24802
5.53021
5.71184
5.82782
5.90435
5.95418
5.98265
5.99233
5.98384
5.95739
5.91342
5.85282
5.77682
5.68685
5.58445
5.4712
5.3489
5.22045
5.0906
4.96765
4.86547
4.79037
4.74135
4.71635
4.71236
4.72524
4.74953
4.77819
4.80289
4.81626
4.81472
4.7955
530.02
518.162
4.87047
5.27635
5.56219
5.74621
5.8637
5.94131
5.99188
6.02052
6.02992
6.02119
5.99454
5.95043
5.88975
5.81371
5.72369
5.62112
5.50744
5.38422
5.25409
5.12145
4.99431
4.88663
4.80671
4.7542
4.72755
4.72389
4.73878
4.76602
4.79768
4.8246
4.83915
4.83677
4.81456
530.146
518.176
4.89245
5.30423
5.5936
5.78006
5.89896
5.97765
6.02899
6.05798
6.06706
6.05811
6.03134
5.9872
5.92659
5.8507
5.76085
5.65837
5.54456
5.42076
5.28931
5.15425
5.02318
4.90997
4.82495
4.76849
4.73965
4.73584
4.75239
4.78242
4.817
4.84612
4.86211
4.859
4.83356
530.27
518.19
4.91375
5.33099
5.62361
5.81225
5.93248
6.01227
6.06448
6.094
6.10312
6.09399
6.06716
6.02311
5.96272
5.88716
5.79769
5.69556
5.58191
5.45788
5.32552
5.18846
5.05386
4.93534
4.84514
4.78441
4.7529
4.74844
4.76626
4.79884
4.83633
4.86806
4.88521
4.88128
4.85242
530.393
518.205
4.93484
5.35739
5.65331
5.84381
5.96522
6.04606
6.09916
6.1293
6.13868
6.12929
6.10245
6.05859
5.99856
5.92348
5.83457
5.73299
5.61975
5.49579
5.36288
5.22424
5.08651
4.96292
4.86754
4.80226
4.76761
4.76197
4.78062
4.81549
4.85586
4.89035
4.90849
4.90361
4.87113
530.514
518.219
4.95513
5.3826
5.68181
5.87374
5.99624
6.07815
6.13218
6.16302
6.17276
6.16331
6.13663
6.0931
6.03357
5.95913
5.87095
5.7701
5.65752
5.53392
5.40082
5.26104
5.12069
4.9925
4.89211
4.82217
4.78399
4.77666
4.79565
4.83246
4.87556
4.9128
4.93183
4.92589
4.88961
530.633
518.233
4.97502
5.40704
5.70931
5.90267
6.02628
6.10928
6.16429
6.19589
6.20609
6.19668
6.17021
6.12706
6.0681
5.99439
5.90706
5.80713
5.69538
5.5724
5.43943
5.29891
5.15642
5.02411
4.91894
4.84431
4.80231
4.79281
4.81163
4.85
4.89561
4.93546
4.95526
4.94811
4.90786
530.752
518.248
4.99422
5.43039
5.73544
5.93007
6.05472
6.13879
6.19479
6.22721
6.23801
6.2289
6.20263
6.15993
6.10163
6.02879
5.94246
5.84358
5.73287
5.61074
5.47821
5.33736
5.19325
5.05743
4.94788
4.86868
4.82268
4.81057
4.8287
4.86816
4.91595
4.95821
4.97865
4.97018
4.92579
530.87
518.262
5.01301
5.45301
5.76065
5.95645
6.08211
6.16722
6.22421
6.25747
6.26892
6.26026
6.23419
6.19198
6.13444
6.06256
5.97734
5.87966
5.77013
5.64903
5.51719
5.37637
5.23112
5.09239
4.97888
4.89532
4.84522
4.83014
4.8471
4.8872
4.93683
4.98119
5.00204
4.99207
4.94339
530.986
518.277
5.03113
5.47459
5.78454
5.98136
6.10795
6.19408
6.25204
6.28614
6.29828
6.29012
6.26437
6.22279
6.16613
6.09532
6.01133
5.91495
5.80673
5.68685
5.55594
5.41547
5.26956
5.12858
5.01164
4.92407
4.86993
4.85164
4.86693
4.90708
4.95799
5.00421
5.02531
5.01373
4.9606
531.101
518.291
5.04878
5.49542
5.80752
6.00526
6.1327
6.21979
6.27868
6.31363
6.32646
6.31887
6.29353
6.25265
6.19694
6.12729
6.04458
5.9496
5.84279
5.72424
5.59444
5.4546
5.30844
5.1658
5.04597
4.95478
4.89673
4.87505
4.88828
4.92807
4.9801
5.02747
5.04848
5.03511
4.9774
531.215
518.305
5.06592
5.51544
5.82935
6.02778
6.15596
6.24397
6.3038
6.3396
6.35315
6.34615
6.32127
6.2812
6.22656
6.15816
6.07685
5.98335
5.87806
5.76095
5.63242
5.49345
5.34741
5.20368
5.08155
4.98723
4.92553
4.90039
4.91124
4.95025
5.00304
5.051
5.07157
5.05619
4.99376
531.328
518.319
5.0827
5.53488
5.85024
6.04919
6.17805
6.26694
6.32768
6.36432
6.37863
6.37229
6.34796
6.30872
6.25515
6.18807
6.10825
6.0163
5.91259
5.79703
5.66988
5.53196
5.38636
5.24201
5.11816
5.02123
4.9562
4.92767
4.93588
4.97367
5.02675
5.07478
5.09456
5.07695
5.00965
531.44
518.333
5.099
5.5537
5.86994
6.0692
6.19865
6.28837
6.35001
6.3875
6.40257
6.39691
6.37323
6.33492
6.28254
6.21682
6.13852
6.04824
5.94619
5.83226
5.70661
5.56992
5.42502
5.2805
5.15549
5.05646
4.98851
4.95673
4.96217
4.99838
5.05123
5.09883
5.11745
5.09738
5.02508
531.55
518.347
5.11461
5.5716
5.88851
6.08803
6.21804
6.30856
6.37107
6.40938
6.42522
6.42028
6.39728
6.35997
6.30882
6.24452
6.16779
6.07917
5.9789
5.86668
5.74264
5.60733
5.46337
5.31907
5.1934
5.09276
5.02225
4.98737
4.98996
5.02425
5.07641
5.12311
5.14023
5.11748
5.04005
531.659
518.361
5.12949
5.58842
5.90581
6.10548
6.23598
6.32727
6.3906
6.42972
6.44632
6.44212
6.41988
6.38361
6.33376
6.27095
6.19585
6.10895
6.01045
5.90006
5.77774
5.64396
5.50119
5.35751
5.23172
5.12996
5.05728
5.01951
5.01916
5.05123
5.10225
5.14759
5.16287
5.13724
5.05455
531.766
518.375
5.14372
5.60432
5.92203
6.12177
6.25272
6.34472
6.40885
6.44875
6.46609
6.46264
6.44119
6.40601
6.35747
6.29619
6.22276
6.13763
6.04096
5.93239
5.81191
5.6798
5.53844
5.39574
5.27034
5.16795
5.0935
5.05305
5.04974
5.07931
5.12874
5.17225
5.18538
5.15663
5.06859
531.872
518.388
5.15714
5.61911
5.93698
6.13672
6.26807
6.36075
6.42564
6.46629
6.48436
6.48166
6.46105
6.42698
6.3798
6.32007
6.24835
6.16503
6.07023
5.96356
5.84494
5.71465
5.57492
5.43356
5.30906
5.20653
5.13074
5.08788
5.08162
5.10844
5.15583
5.19708
5.20773
5.17568
5.08217
531.977
518.401
5.1699
5.63301
5.9509
6.15057
6.28226
6.37557
6.44118
6.48254
6.50132
6.49937
6.47962
6.44667
6.40086
6.3427
6.27269
6.19121
6.09831
5.99356
5.87687
5.7485
5.6106
5.47091
5.34777
5.24554
5.16879
5.12377
5.11461
5.13847
5.18342
5.22202
5.22993
5.19438
5.09533
532.079
518.413
5.18187
5.64585
5.96362
6.16316
6.29516
6.38905
6.45534
6.49738
6.51685
6.51565
6.49679
6.465
6.42057
6.36398
6.29571
6.21606
6.12508
6.02228
5.90758
5.78119
5.64534
5.50764
5.3863
5.28481
5.20748
5.16057
5.14857
5.1693
5.21146
5.24706
5.25196
5.21275
5.10811
532.181
518.425
5.19319
5.65783
5.97537
6.17471
6.30695
6.40139
6.46831
6.51101
6.53113
6.53067
6.51271
6.48209
6.43905
6.38404
6.31749
6.23968
6.15061
6.04979
5.93709
5.81275
5.67902
5.54367
5.42452
5.32414
5.24659
5.19807
5.18333
5.2008
5.23988
5.27216
5.27382
5.2308
5.12053
532.281
518.437
5.20373
5.66881
5.98599
6.18508
6.31753
6.41247
6.47999
6.52331
6.54408
6.54436
6.52734
6.49789
6.45624
6.40281
6.33799
6.26202
6.17487
6.07603
5.96538
5.8432
5.7118
5.57911
5.46244
5.36349
5.28602
5.23612
5.21874
5.23288
5.26862
5.29729
5.29551
5.24856
5.13263
532.379
518.449
5.21364
5.67896
5.99567
6.19445
6.32707
6.42247
6.49055
6.53445
6.55584
6.55685
6.54078
6.51251
6.47225
6.42039
6.35728
6.28314
6.1979
6.10106
5.9925
5.87255
5.74365
5.61392
5.49998
5.40271
5.3256
5.27455
5.25465
5.2654
5.2976
5.32243
5.31704
5.26607
5.14451
532.475
518.459
5.22281
5.68817
6.00431
6.20272
6.33546
6.43128
6.49988
6.54433
6.56631
6.56805
6.55295
6.52587
6.48701
6.43671
6.37531
6.303
6.21969
6.12486
6.01844
5.90083
5.77462
5.64822
5.53717
5.4418
5.36526
5.31326
5.29097
5.2983
5.32678
5.34757
5.33843
5.28334
5.15618
532.57
518.47
5.23137
5.6966
6.01207
6.21006
6.34287
6.43906
6.50815
6.55311
6.57565
6.57809
6.56398
6.5381
6.50062
6.45187
6.39216
6.32166
6.24026
6.14746
6.04322
5.92804
5.80472
5.68197
5.57401
5.4807
5.40492
5.35215
5.32758
5.3315
5.35613
5.37273
5.3597
5.30043
5.16768
532.663
518.48
5.23926
5.70417
6.01887
6.21637
6.34922
6.44575
6.51528
6.56072
6.5838
6.58694
6.57384
6.54916
6.51305
6.46583
6.40779
6.33909
6.2596
6.16884
6.06681
5.95416
5.8339
5.71513
5.61046
5.51939
5.44453
5.39114
5.36437
5.36488
5.38557
5.39785
5.38086
5.31735
5.179
532.754
518.49
5.24658
5.71102
6.02484
6.22181
6.35464
6.45146
6.52139
6.56728
6.59088
6.59471
6.58263
6.55914
6.52438
6.47867
6.42228
6.35534
6.27775
6.18901
6.08923
5.97918
5.86215
5.74761
5.64645
5.55783
5.48408
5.43022
5.40136
5.39848
5.41511
5.42298
5.40194
5.33414
5.19019
532.843
518.499
5.25329
5.71709
6.02993
6.22631
6.35908
6.45616
6.52646
6.57277
6.59687
6.60138
6.59034
6.56804
6.53463
6.4904
6.43562
6.37042
6.29469
6.20799
6.11047
6.00308
5.88942
5.77936
5.6819
5.59591
5.52345
5.46929
5.43848
5.4324
5.44475
5.44808
5.42294
5.35081
5.20127
532.931
518.508
5.25947
5.72247
6.03424
6.22997
6.36264
6.45993
6.53058
6.57728
6.60185
6.60705
6.59707
6.57596
6.54387
6.5011
6.4479
6.38441
6.31051
6.2258
6.13055
6.02588
5.91571
5.81034
5.71677
5.6336
5.56263
5.50837
5.4758
5.46661
5.47459
5.47327
5.44395
5.36745
5.21229
533.017
518.517
5.26508
5.72713
6.03773
6.23274
6.36527
6.46274
6.5337
6.58077
6.60581
6.61169
6.6028
6.5829
6.55213
6.5108
6.45916
6.39733
6.32523
6.24249
6.1495
6.04758
5.941
5.8405
5.75098
5.67079
5.60147
5.54726
5.51309
5.50092
5.50451
5.49851
5.46497
5.38406
5.22329
533.1
518.525
5.27019
5.73113
6.04046
6.23471
6.36704
6.46466
6.5359
6.58331
6.60881
6.61539
6.60761
6.58892
6.55947
6.51957
6.46945
6.40926
6.33892
6.25812
6.16736
6.06821
5.96532
5.86981
5.78448
5.70746
5.64001
5.58608
5.55047
5.5354
5.5346
5.52388
5.48608
5.40074
5.23433
533.182
518.533
5.27477
5.73444
6.0424
6.23583
6.36794
6.46567
6.53716
6.5849
6.61084
6.61813
6.61149
6.59403
6.56591
6.52743
6.47883
6.42025
6.35165
6.27277
6.18424
6.08789
5.98876
5.8983
5.81722
5.7435
5.67809
5.62463
5.58769
5.56988
5.56476
5.54934
5.50729
5.41749
5.24545
533.262
518.54
5.27886
5.73713
6.04363
6.23617
6.36801
6.46582
6.53754
6.58558
6.61197
6.61997
6.61451
6.59829
6.57149
6.53442
6.48733
6.43036
6.36348
6.28651
6.20023
6.10671
6.01147
5.92602
5.84921
5.77887
5.71569
5.66293
5.62499
5.60454
5.59513
5.57502
5.52868
5.43441
5.25672
533.341
518.547
5.28245
5.73914
6.04409
6.2357
6.36724
6.4651
6.53703
6.58537
6.61219
6.62093
6.61666
6.60171
6.57625
6.54059
6.49501
6.43964
6.37449
6.29946
6.21547
6.1249
6.03375
5.95315
5.88049
5.81352
5.75264
5.7008
5.66206
5.63916
5.62561
5.60089
5.55031
5.45155
5.26817
533.418
518.554
5.2856
5.74057
6.04386
6.2345
6.3657
6.46359
6.53569
6.58431
6.61158
6.62106
6.61803
6.60435
6.58022
6.54597
6.50188
6.44811
6.38471
6.31165
6.23005
6.1426
6.05587
5.9799
5.91123
5.84752
5.78898
5.73818
5.69888
5.67384
5.65629
5.62703
5.57222
5.46896
5.27986
533.493
518.56
5.28826
5.74136
6.04291
6.23252
6.36335
6.46124
6.53352
6.58242
6.61014
6.6204
6.61864
6.60625
6.58345
6.55061
6.50801
6.45584
6.39419
6.32315
6.24401
6.15985
6.07779
6.00629
5.94144
5.88089
5.82466
5.77498
5.73529
5.7083
5.68692
5.65335
5.59441
5.48667
5.29179
533.567
518.567
5.29051
5.7416
6.04133
6.22985
6.36028
6.45815
6.53059
6.57976
6.60795
6.61903
6.61857
6.60747
6.586
6.55455
6.51342
6.46284
6.40295
6.33394
6.25732
6.17658
6.09938
6.03228
5.97117
5.91371
5.85975
5.81124
5.77128
5.74255
5.71764
5.67985
5.61688
5.50467
5.30398
533.64
518.573
5.29235
5.74127
6.03908
6.22647
6.35645
6.45427
6.52686
6.57632
6.60503
6.61696
6.61784
6.60805
6.58791
6.55785
6.51818
6.46917
6.41102
6.34405
6.26999
6.19272
6.12046
6.05771
6.0003
5.94589
5.89421
5.84692
5.80684
5.77657
5.74835
5.70654
5.63963
5.52299
5.31646
533.712
518.578
5.29383
5.74046
6.03626
6.22246
6.35194
6.44967
6.52238
6.57215
6.60142
6.6143
6.61652
6.60803
6.58921
6.56052
6.52232
6.47489
6.41848
6.35356
6.28209
6.20836
6.14108
6.08264
6.02888
5.97748
5.92807
5.88205
5.84197
5.81037
5.77904
5.73341
5.66266
5.54162
5.32919
533.783
518.584
5.29498
5.73918
6.03287
6.2178
6.34673
6.44433
6.51713
6.5672
6.59713
6.61121
6.61464
6.60739
6.5899
6.5626
6.52587
6.48001
6.42536
6.36249
6.29365
6.22353
6.1612
6.10699
6.05683
6.00841
5.96127
5.9166
5.87665
5.84391
5.8097
5.76045
5.68599
5.56059
5.34223
533.853
518.589
5.29586
5.73749
6.02897
6.21256
6.34088
6.43829
6.51112
6.56144
6.592
6.60729
6.61197
6.60605
6.58994
6.56408
6.52886
6.48461
6.43175
6.371
6.30485
6.23846
6.18099
6.13093
6.08427
6.03877
5.99387
5.95057
5.91087
5.87719
5.84032
5.78765
5.70959
5.57987
5.35553
533.924
518.595
5.29647
5.73541
6.02457
6.20675
6.3344
6.43156
6.50438
6.55492
6.58611
6.60264
6.60862
6.60406
6.58937
6.56499
6.53131
6.48871
6.43768
6.3791
6.31577
6.25327
6.20051
6.15444
6.11119
6.06853
6.02585
5.98395
5.94462
5.91019
5.87087
5.81498
5.73346
5.59944
5.36911
533.993
518.6
5.29686
5.73296
6.01972
6.20041
6.32734
6.42419
6.49693
6.54766
6.57947
6.59727
6.60458
6.60142
6.5882
6.56536
6.53329
6.4924
6.44329
6.38701
6.32666
6.26834
6.22003
6.17774
6.13772
6.09778
6.05726
6.01677
5.97787
5.94286
5.90131
5.8424
5.75754
5.61929
5.38292
534.063
518.605
5.29699
5.73014
6.01439
6.19354
6.31968
6.41617
6.48879
6.53965
6.57206
6.59113
6.59979
6.59806
6.58635
6.56508
6.53467
6.49558
6.44847
6.39461
6.33744
6.28357
6.23951
6.20082
6.16387
6.12656
6.08814
6.04906
6.01071
5.97527
5.93165
5.8699
5.78182
5.63939
5.39696
534.132
518.61
5.29689
5.72697
6.00864
6.18618
6.31149
6.40757
6.48002
6.53098
6.56397
6.58435
6.59437
6.59409
6.58391
6.56427
6.53557
6.49832
6.45331
6.40198
6.34815
6.29891
6.25897
6.22373
6.18972
6.1549
6.11848
6.08077
6.04294
6.00726
5.96182
5.89743
5.80626
5.65971
5.41121
534.202
518.615
5.29653
5.72341
6.00243
6.17832
6.30275
6.39839
6.47061
6.52164
6.5552
6.57687
6.58825
6.58943
6.58081
6.56281
6.53587
6.50053
6.45768
6.40899
6.35863
6.31414
6.27826
6.2464
6.21524
6.18282
6.14836
6.11206
6.07509
6.03902
5.99185
5.92499
5.83086
5.68024
5.42568
534.271
518.62
5.29596
5.71953
5.99583
6.17003
6.29355
6.38869
6.46066
6.51173
6.54587
6.56884
6.58158
6.58422
6.57717
6.56085
6.53569
6.50231
6.46169
6.41573
6.36897
6.32925
6.29736
6.26881
6.24042
6.21034
6.1778
6.14296
6.10703
6.07055
6.02173
5.95253
5.85555
5.70093
5.44031
534.341
518.625
5.29514
5.71529
5.98881
6.16127
6.28384
6.37846
6.45015
6.50126
6.53598
6.56025
6.57435
6.57843
6.57294
6.55831
6.53498
6.50362
6.46532
6.42221
6.3792
6.34426
6.3163
6.29099
6.26531
6.23752
6.20687
6.17353
6.13871
6.10187
6.05149
5.98008
5.88035
5.72179
5.45512
534.411
518.63
5.29418
5.71081
5.98147
6.15214
6.2737
6.36776
6.43916
6.49034
6.52569
6.55126
6.56669
6.57221
6.56828
6.55533
6.53386
6.50456
6.46867
6.42854
6.38947
6.3592
6.33509
6.31294
6.28992
6.26436
6.23558
6.20374
6.17008
6.13291
6.08106
6.00756
5.90517
5.74273
5.47003
534.481
518.635
5.29302
5.70602
5.97375
6.14256
6.26307
6.35651
6.4276
6.47891
6.51505
6.54186
6.55857
6.5655
6.56313
6.5519
6.53233
6.50517
6.47181
6.43486
6.40001
6.37423
6.3538
6.3347
6.31426
6.29089
6.26395
6.23363
6.20117
6.16374
6.1105
6.035
5.93005
5.76376
5.48505
534.552
518.639
5.29181
5.70109
5.96578
6.13264
6.252
6.34474
6.41548
6.46698
6.50417
6.53206
6.55003
6.55839
6.5576
6.54811
6.53046
6.50551
6.47481
6.44122
6.41086
6.38939
6.37249
6.35633
6.33837
6.31713
6.29199
6.26316
6.23191
6.19425
6.1397
6.06231
5.95485
5.78479
5.50009
534.623
518.644
5.29052
5.69597
5.9575
6.12231
6.24042
6.33235
6.40263
6.45425
6.49247
6.52158
6.54093
6.55082
6.55167
6.54397
6.5283
6.50562
6.47767
6.44762
6.42195
6.40463
6.39112
6.37778
6.36224
6.34308
6.31973
6.2924
6.2624
6.22456
6.16877
6.08956
5.97966
5.80583
5.51515
534.693
518.649
5.28924
5.69077
5.94901
6.11164
6.22838
6.3194
6.38915
6.4409
6.48024
6.51064
6.53145
6.54291
6.54546
6.53957
6.52591
6.50555
6.48043
6.45405
6.43318
6.41992
6.4097
6.39909
6.38587
6.36871
6.34708
6.32123
6.29248
6.2545
6.19754
6.11661
6.00434
5.8268
5.53018
534.765
518.654
5.28801
5.68549
5.94029
6.10058
6.21581
6.30576
6.37484
6.42666
6.46717
6.49896
6.52136
6.53454
6.5389
6.53492
6.52333
6.50535
6.48314
6.46052
6.44446
6.43516
6.42816
6.42023
6.40929
6.39411
6.3742
6.34982
6.32234
6.28424
6.22618
6.14357
6.02897
5.84775
5.54519
534.835
518.66
5.28683
5.68017
5.93137
6.08919
6.20276
6.29147
6.35975
6.41159
6.4533
6.48657
6.51067
6.5257
6.53198
6.53001
6.5206
6.50511
6.48593
6.46721
6.45589
6.45042
6.44651
6.44114
6.43238
6.4191
6.40085
6.37792
6.35173
6.31358
6.2545
6.17031
6.05345
5.86858
5.56014
534.907
518.665
5.28575
5.67481
5.92226
6.07745
6.18918
6.27647
6.34377
6.39555
6.43849
6.47333
6.49928
6.51629
6.52464
6.52482
6.51772
6.50485
6.48885
6.47424
6.46754
6.46577
6.46487
6.46202
6.4554
6.44398
6.42736
6.40585
6.38093
6.34272
6.28265
6.19693
6.07784
5.88935
5.57505
534.977
518.67
5.28471
5.66939
5.91295
6.06536
6.17509
6.26076
6.32692
6.37852
6.42266
6.45915
6.48704
6.5062
6.51678
6.51929
6.51468
6.50463
6.49205
6.4818
6.47946
6.48117
6.48308
6.48259
6.47801
6.46838
6.45333
6.43324
6.40963
6.37145
6.31048
6.2233
6.10204
5.90997
5.58985
535.049
518.676
5.28372
5.66391
5.90344
6.05294
6.1605
6.24436
6.30921
6.36054
6.40585
6.44399
6.47391
6.49531
6.50827
6.51327
6.51135
6.50435
6.49547
6.48991
6.49177
6.49681
6.50143
6.5032
6.50058
6.49269
6.47926
6.46088
6.43817
6.39991
6.33806
6.24949
6.1261
5.93048
5.60456
535.12
518.682
5.28272
5.6583
5.89369
6.04015
6.14539
6.22725
6.29062
6.34159
6.388
6.42778
6.45978
6.48353
6.49902
6.50667
6.50762
6.50387
6.49891
6.4982
6.50414
6.51238
6.51959
6.52355
6.52285
6.51672
6.50501
6.48843
6.46653
6.4281
6.36537
6.27543
6.14994
5.95081
5.61912
535.192
518.687
5.28167
5.65256
5.88371
6.02702
6.12978
6.20947
6.27125
6.32185
6.36919
6.41052
6.4446
6.47079
6.48893
6.49941
6.50343
6.50317
6.50239
6.50671
6.51668
6.52807
6.53782
6.5439
6.54506
6.54064
6.5306
6.51581
6.49464
6.45599
6.39239
6.30112
6.17358
5.97095
5.63355
535.262
518.693
5.28056
5.64667
5.87347
6.01349
6.11359
6.19091
6.25104
6.30149
6.34943
6.3922
6.42837
6.45707
6.47795
6.49139
6.49862
6.50203
6.50565
6.51501
6.52894
6.54345
6.55573
6.56395
6.567
6.56433
6.556
6.54301
6.52253
6.48363
6.41915
6.32656
6.19697
5.99087
5.64779
535.334
518.698
5.27941
5.64065
5.863
5.9996
6.09683
6.17151
6.22974
6.27988
6.32846
6.37277
6.41113
6.44243
6.46619
6.48275
6.49341
6.50075
6.50905
6.5234
6.54122
6.55878
6.57352
6.58382
6.58869
6.58772
6.58107
6.56985
6.55005
6.51089
6.44555
6.35168
6.22008
6.01054
5.66183
535.403
518.704
5.27827
5.63456
5.85232
5.98531
6.07947
6.1513
6.2075
6.25733
6.30656
6.35241
6.39298
6.42692
6.45362
6.47339
6.48764
6.49912
6.51241
6.53159
6.55319
6.57375
6.59097
6.60338
6.61014
6.6109
6.60594
6.59649
6.57731
6.53786
6.47165
6.3765
6.24289
6.02993
5.67564
535.475
518.71
5.27721
5.62844
5.84143
5.9706
6.06138
6.13005
6.18403
6.23353
6.28351
6.33105
6.37398
6.4107
6.44047
6.46361
6.48164
6.49752
6.51605
6.53986
6.56506
6.5885
6.60809
6.62255
6.63114
6.63361
6.63035
6.62265
6.60411
6.56438
6.49734
6.40095
6.26537
6.04901
5.6892
535.544
518.716
5.2763
5.62237
5.83038
5.95547
6.04255
6.10772
6.15929
6.20845
6.25926
6.30863
6.35403
6.39362
6.42654
6.45314
6.47508
6.49558
6.51954
6.54786
6.57661
6.6029
6.62489
6.64142
6.65186
6.65607
6.65448
6.64851
6.63055
6.59053
6.52266
6.42504
6.2875
6.06776
5.70248
535.615
518.722
5.27565
5.61639
5.81919
5.93989
6.02289
6.08414
6.13303
6.18184
6.23366
6.2851
6.33324
6.37589
6.41212
6.44231
6.4683
6.49354
6.52295
6.55563
6.58779
6.61685
6.64118
6.65975
6.67205
6.67799
6.67811
6.67388
6.6565
6.61618
6.54752
6.44869
6.30922
6.08615
5.71547
535.683
518.728
5.27519
5.61051
5.80788
5.9239
6.00238
6.05923
6.10509
6.15346
6.20635
6.26009
6.31119
6.35716
6.39689
6.43086
6.46109
6.49128
6.52611
6.56303
6.59856
6.63038
6.65705
6.67766
6.6918
6.69946
6.70124
6.69875
6.68196
6.64137
6.57193
6.47193
6.33054
6.10415
5.72812
535.754
518.735
5.27504
5.6048
5.79652
5.90755
5.98107
6.03298
6.07544
6.12322
6.1773
6.23358
6.28796
6.3375
6.38098
6.41894
6.45361
6.48896
6.52898
6.56995
6.60872
6.64323
6.6722
6.69489
6.71094
6.72047
6.7243
6.72317
6.70685
6.66599
6.59581
6.49467
6.35141
6.12174
5.74044
535.82
518.742
5.27505
5.59919
5.7851
5.89086
5.95895
6.00535
6.0439
6.09081
6.1461
6.20513
6.26308
6.31652
6.36406
6.40634
6.44579
6.48663
6.53163
6.57651
6.61843
6.65559
6.68688
6.71167
6.7297
6.7412
6.74716
6.74726
6.73129
6.6901
6.61918
6.51693
6.37182
6.1389
5.75237
535.889
518.749
5.27534
5.59378
5.77374
5.87397
5.93618
5.97653
6.01068
6.05637
6.11283
6.17474
6.23647
6.29406
6.34594
6.39279
6.43731
6.48388
6.53368
6.58232
6.62731
6.66709
6.70072
6.72765
6.74773
6.7613
6.76943
6.77075
6.75509
6.71357
6.64195
6.53862
6.3917
6.15561
5.76393
535.953
518.756
5.27584
5.58852
5.76241
5.85687
5.91276
5.9465
5.97576
6.01984
6.07727
6.14211
6.20782
6.26983
6.32634
6.3781
6.428
6.48051
6.53505
6.58742
6.63548
6.67791
6.71389
6.743
6.76519
6.78086
6.79121
6.79371
6.77832
6.73647
6.66416
6.55979
6.41109
6.17183
5.77507
536.021
518.764
5.2767
5.5835
5.75122
5.83967
5.88882
5.91542
5.93933
5.98133
6.03953
6.10729
6.1771
6.24371
6.30506
6.36194
6.41745
6.47594
6.53517
6.59129
6.64246
6.68759
6.726
6.75737
6.78172
6.79956
6.81214
6.81583
6.80074
6.7586
6.68565
6.5803
6.42989
6.18756
5.78578
536.083
518.771
5.27785
5.5787
5.74017
5.82238
5.86433
5.88325
5.90151
5.94074
5.99945
6.07015
6.14424
6.2157
6.28217
6.34447
6.40589
6.47031
6.53417
6.59402
6.64835
6.69624
6.73716
6.77087
6.79747
6.81753
6.83237
6.83727
6.82248
6.78006
6.70651
6.6002
6.44812
6.20275
5.79603
536.149
518.779
5.27926
5.57418
5.72933
5.8051
5.83938
5.84995
5.86195
5.89802
5.95705
6.03067
6.10913
6.18563
6.25745
6.32544
6.39308
6.46324
6.53165
6.59524
6.65278
6.70351
6.74702
6.78315
6.81206
6.8344
6.85153
6.85767
6.84322
6.80059
6.72653
6.61936
6.46569
6.21737
5.8058
536.208
518.788
5.28105
5.56998
5.7187
5.78778
5.81395
5.81556
5.82066
5.85315
5.91234
5.98892
6.07191
6.15364
6.23105
6.30501
6.37915
6.45485
6.52771
6.59504
6.65584
6.70952
6.75572
6.79437
6.82569
6.85037
6.86983
6.87721
6.86314
6.82034
6.74581
6.63782
6.48261
6.23139
5.81503
536.272
518.796
5.28313
5.56605
5.70829
5.77049
5.78813
5.78024
5.77774
5.8062
5.86528
5.94472
6.03227
6.11937
6.20258
6.28273
6.36355
6.44471
6.522
6.59309
6.65722
6.71391
6.7629
6.80417
6.83798
6.86507
6.88688
6.89554
6.88189
6.83902
6.76412
6.65541
6.49876
6.24475
5.82368
536.327
518.806
5.28564
5.56247
5.69811
5.7532
5.76184
5.74384
5.73323
5.75718
5.81591
5.89814
5.99032
6.08291
6.17206
6.25858
6.34616
6.43276
6.51453
6.58947
6.65704
6.71687
6.76877
6.81274
6.84912
6.87867
6.90288
6.91288
6.8997
6.8568
6.78158
6.67221
6.51417
6.25741
5.83169
536.39
518.815
5.28849
5.55915
5.68816
5.73595
5.73518
5.70647
5.68708
5.70598
5.76411
5.84907
5.94592
6.0441
6.13932
6.23233
6.32664
6.41864
6.50491
6.58379
6.6549
6.71798
6.7729
6.81973
6.85886
6.89121
6.91755
6.92881
6.91616
6.87333
6.79791
6.68798
6.52866
6.26927
5.839
536.442
518.825
5.29175
5.55615
5.67842
5.71874
5.70815
5.66821
5.63946
5.65294
5.71003
5.79761
5.89917
6.00307
6.10451
6.20418
6.30508
6.40244
6.49328
6.57622
6.65102
6.71751
6.77563
6.82549
6.86756
6.90283
6.93125
6.94374
6.93161
6.88889
6.81331
6.70289
6.54234
6.28038
5.84558
536.503
518.836
5.29531
5.55338
5.6689
5.70161
5.68082
5.62904
5.5902
5.59757
5.65337
5.74353
5.84993
5.95972
6.06755
6.17405
6.28129
6.38392
6.47933
6.56638
6.64498
6.71501
6.77646
6.82948
6.87459
6.91285
6.94335
6.95707
6.94552
6.90299
6.82737
6.71656
6.55491
6.29048
5.85128
536.552
518.847
5.29922
5.55088
5.65964
5.68465
5.65336
5.58924
5.53963
5.54018
5.59423
5.68676
5.79806
5.91393
6.02839