/*--------------------------------*- C++ -*----------------------------------*\
| =========                 |                                                 |
| \\      /  F ield         | OpenFOAM: The Open Source CFD Toolbox           |
|  \\    /   O peration     | Version:  v2006                                 |
|   \\  /    A nd           | Website:  www.openfoam.com                      |
|    \\/     M anipulation  |                                                 |
\*---------------------------------------------------------------------------*/
FoamFile
{
    version     2.0;
    format      ascii;
    class       surfaceScalarField;
    location    "57";
    object      phi;
}
// * * * * * * * * * * * * * * * * * * * * * * * * * * * * * * * * * * * * * //

dimensions      [1 0 -1 0 0 0 0];
oriented        oriented;


internalField   nonuniform List<scalar> 
228225
(
-3.37716e-06
6.56518e-08
1.83512e-07
-3.2238e-06
-4.01173e-07
2.47554e-07
-2.70595e-06
-7.78236e-07
2.60542e-07
-1.86458e-06
-1.09973e-06
2.58458e-07
-7.68688e-07
-1.34744e-06
2.51712e-07
4.94711e-07
-1.50667e-06
2.43482e-07
1.84514e-06
-1.5846e-06
2.34403e-07
3.22063e-06
-1.59958e-06
2.2434e-07
4.57491e-06
-1.56713e-06
2.13104e-07
5.8722e-06
-1.49755e-06
2.0055e-07
7.08449e-06
-1.39861e-06
1.86606e-07
8.18962e-06
-1.27611e-06
1.71275e-07
9.16991e-06
-1.13462e-06
1.54615e-07
1.00113e-05
-9.77872e-07
1.36725e-07
1.07032e-05
-8.09278e-07
1.17729e-07
1.12383e-05
-6.3268e-07
9.77756e-08
1.16139e-05
-4.52312e-07
7.69805e-08
1.18316e-05
-2.7285e-07
5.53909e-08
1.18995e-05
-1.00721e-07
3.29488e-08
1.18171e-05
7.37687e-08
8.74459e-09
1.158e-05
2.481e-07
-1.08392e-08
1.12076e-05
4.0231e-07
-2.99182e-08
1.072e-05
5.37728e-07
-5.01043e-08
1.01384e-05
6.5221e-07
-7.07215e-08
9.4867e-06
7.43147e-07
-9.14739e-08
8.79052e-06
8.08267e-07
-1.12159e-07
8.07614e-06
8.4692e-07
-1.32603e-07
7.36635e-06
8.62393e-07
-1.52649e-07
6.67218e-06
8.6625e-07
-1.72125e-07
5.97771e-06
8.85014e-07
-1.90614e-07
5.21712e-06
9.66867e-07
-2.06447e-07
4.25424e-06
1.17647e-06
-2.13888e-07
2.92728e-06
1.52556e-06
-1.99068e-07
1.27198e-06
1.7977e-06
-1.43046e-07
1.31523e-06
-4.4176e-08
-9.91198e-08
3.3061e-08
1.31369e-07
-1.7909e-07
-5.3359e-07
2.12653e-07
-1.85727e-07
-1.02311e-06
2.51192e-07
-8.74479e-08
-1.46373e-06
2.65866e-07
1.35819e-07
-1.83807e-06
2.67456e-07
4.79958e-07
-2.11452e-06
2.6379e-07
9.25437e-07
-2.2885e-06
2.58563e-07
1.44971e-06
-2.37594e-06
2.52289e-07
2.03141e-06
-2.39344e-06
2.44844e-07
2.64992e-06
-2.35207e-06
2.36251e-07
3.28533e-06
-2.26025e-06
2.26501e-07
3.91857e-06
-2.12465e-06
2.156e-07
4.53118e-06
-1.95046e-06
2.03565e-07
5.10498e-06
-1.74175e-06
1.90413e-07
5.62182e-06
-1.5019e-06
1.76138e-07
6.06553e-06
-1.23671e-06
1.6068e-07
6.42403e-06
-9.54446e-07
1.43974e-07
6.68801e-06
-6.62473e-07
1.25971e-07
6.84871e-06
-3.67829e-07
1.06702e-07
6.91258e-06
-7.60937e-08
8.62598e-08
6.89642e-06
1.99718e-07
6.47487e-08
6.79989e-06
4.56845e-07
4.21576e-08
6.63004e-06
6.89481e-07
1.82011e-08
6.39474e-06
8.93672e-07
-6.11166e-09
6.10057e-06
1.06515e-06
-2.78277e-08
5.75966e-06
1.20047e-06
-5.13151e-08
5.38217e-06
1.30032e-06
-7.59388e-08
4.97257e-06
1.37381e-06
-1.01868e-07
4.5231e-06
1.4453e-06
-1.29654e-07
4.00551e-06
1.56205e-06
-1.59546e-07
3.36456e-06
1.79674e-06
-1.89116e-07
2.53811e-06
2.21137e-06
-2.08721e-07
1.53708e-06
2.72539e-06
-1.99207e-07
5.48843e-07
2.92828e-06
-1.4293e-07
1.90787e-06
-4.46486e-08
1.57478e-07
-2.12062e-07
8.75912e-08
3.11106e-07
-8.44176e-07
1.56556e-07
4.85605e-07
-1.39453e-06
1.96691e-07
6.79164e-07
-1.8776e-06
2.20165e-07
8.93175e-07
-2.28515e-06
2.32854e-07
1.13913e-06
-2.59984e-06
2.39152e-07
1.42221e-06
-2.81429e-06
2.42542e-07
1.74058e-06
-2.93915e-06
2.44704e-07
2.08875e-06
-2.98766e-06
2.4594e-07
2.45985e-06
-2.96965e-06
2.46388e-07
2.8462e-06
-2.89279e-06
2.46109e-07
3.23982e-06
-2.76338e-06
2.45083e-07
3.6316e-06
-2.58552e-06
2.43291e-07
4.01015e-06
-2.36101e-06
2.40753e-07
4.36316e-06
-2.09227e-06
2.37441e-07
4.67904e-06
-1.78541e-06
2.32944e-07
4.94739e-06
-1.44933e-06
2.26676e-07
5.1595e-06
-1.09264e-06
2.18219e-07
5.30874e-06
-7.24101e-07
2.07215e-07
5.39257e-06
-3.53142e-07
1.93404e-07
5.40625e-06
9.54175e-09
1.76671e-07
5.3511e-06
3.54969e-07
1.57161e-07
5.23251e-06
6.72848e-07
1.35324e-07
5.05741e-06
9.57173e-07
1.11643e-07
4.83343e-06
1.20272e-06
8.6415e-08
4.56633e-06
1.40782e-06
5.97158e-08
4.25761e-06
1.57783e-06
3.11396e-08
3.90575e-06
1.72732e-06
-1.73187e-09
3.49377e-06
1.8885e-06
-3.13249e-08
3.00344e-06
2.12017e-06
-6.79347e-08
2.40923e-06
2.49934e-06
-1.08577e-07
1.70765e-06
3.05521e-06
-1.42506e-07
9.65481e-07
3.61555e-06
-1.48342e-07
3.20552e-07
3.68136e-06
-1.08637e-07
2.25877e-06
-3.10813e-08
1.17877e-07
-4.06267e-07
7.57501e-08
3.76126e-07
-1.24851e-06
1.46359e-07
7.4045e-07
-1.94643e-06
1.87309e-07
1.1696e-06
-2.51725e-06
2.10133e-07
1.62562e-06
-2.96292e-06
2.21552e-07
2.08457e-06
-3.28514e-06
2.26241e-07
2.53271e-06
-3.49022e-06
2.27667e-07
2.96333e-06
-3.59816e-06
2.2825e-07
3.37356e-06
-3.62675e-06
2.28707e-07
3.76203e-06
-3.58744e-06
2.29205e-07
4.12786e-06
-3.48862e-06
2.29907e-07
4.47053e-06
-3.33706e-06
2.30921e-07
4.78896e-06
-3.13648e-06
2.32452e-07
5.07994e-06
-2.8867e-06
2.34641e-07
5.33998e-06
-2.58961e-06
2.37237e-07
5.5664e-06
-2.25171e-06
2.39845e-07
5.75465e-06
-1.87965e-06
2.42055e-07
5.89886e-06
-1.48023e-06
2.434e-07
5.99214e-06
-1.06068e-06
2.43344e-07
6.02696e-06
-6.29169e-07
2.41264e-07
5.99621e-06
-1.96123e-07
2.36488e-07
5.89288e-06
2.29988e-07
2.28373e-07
5.71438e-06
6.34941e-07
2.16468e-07
5.46623e-06
1.00472e-06
2.0065e-07
5.15696e-06
1.33083e-06
1.81171e-07
4.79432e-06
1.61194e-06
1.58509e-07
4.38221e-06
1.85702e-06
1.32873e-07
3.91968e-06
2.08603e-06
1.03737e-07
3.40156e-06
2.33714e-06
6.93822e-08
2.82146e-06
2.6735e-06
2.66348e-08
2.17662e-06
3.16582e-06
-2.17932e-08
1.4868e-06
3.80937e-06
-6.45448e-08
8.19872e-07
4.36635e-06
-8.41457e-08
2.67683e-07
4.29727e-06
-6.41091e-08
2.54004e-06
-1.42042e-08
1.2181e-07
-5.88205e-07
5.99144e-08
3.9852e-07
-1.642e-06
1.16689e-07
7.7715e-07
-2.47285e-06
1.47525e-07
1.21179e-06
-3.11542e-06
1.63325e-07
1.66337e-06
-3.58517e-06
1.70571e-07
2.10639e-06
-3.90158e-06
1.73357e-07
2.53156e-06
-4.08969e-06
1.74222e-07
2.93741e-06
-4.17873e-06
1.74635e-07
3.32336e-06
-4.18791e-06
1.75136e-07
3.68846e-06
-4.12846e-06
1.75878e-07
4.03159e-06
-4.00887e-06
1.77095e-07
4.35093e-06
-3.83541e-06
1.78993e-07
4.64368e-06
-3.61104e-06
1.81777e-07
4.90761e-06
-3.33633e-06
1.85671e-07
5.1413e-06
-3.01404e-06
1.90712e-07
5.34281e-06
-2.64993e-06
1.96685e-07
5.50996e-06
-2.25016e-06
2.03339e-07
5.64017e-06
-1.82082e-06
2.10361e-07
5.72996e-06
-1.36784e-06
2.17362e-07
5.7742e-06
-8.97264e-07
2.2384e-07
5.76499e-06
-4.16061e-07
2.29144e-07
5.69572e-06
6.6794e-08
2.32449e-07
5.55838e-06
5.39478e-07
2.32792e-07
5.3458e-06
9.88048e-07
2.29237e-07
5.05585e-06
1.39961e-06
2.21137e-07
4.69164e-06
1.76783e-06
2.08272e-07
4.25946e-06
2.09851e-06
1.90634e-07
3.76412e-06
2.4135e-06
1.67785e-07
3.20835e-06
2.75486e-06
1.37963e-07
2.59689e-06
3.18675e-06
9.81224e-08
1.94378e-06
3.77088e-06
4.79566e-08
1.28605e-06
4.47115e-06
-4.14944e-09
6.85377e-07
4.99741e-06
-3.0528e-08
2.12261e-07
4.79665e-06
-2.6494e-08
2.75359e-06
-1.71959e-09
1.08414e-07
-7.45899e-07
4.90261e-08
3.82164e-07
-2.01166e-06
9.56021e-08
7.68885e-07
-2.97987e-06
1.20323e-07
1.21591e-06
-3.69555e-06
1.33034e-07
1.68131e-06
-4.18979e-06
1.39052e-07
2.13973e-06
-4.50144e-06
1.41281e-07
2.58167e-06
-4.67299e-06
1.41261e-07
3.00416e-06
-4.74116e-06
1.39886e-07
3.40553e-06
-4.72707e-06
1.37754e-07
3.78423e-06
-4.64259e-06
1.35366e-07
4.13853e-06
-4.4965e-06
1.33267e-07
4.4649e-06
-4.29388e-06
1.32039e-07
4.75747e-06
-4.0358e-06
1.3213e-07
5.01188e-06
-3.72458e-06
1.33789e-07
5.22635e-06
-3.36569e-06
1.37139e-07
5.39977e-06
-2.96562e-06
1.42234e-07
5.53173e-06
-2.5312e-06
1.49037e-07
5.6224e-06
-2.06897e-06
1.57426e-07
5.67211e-06
-1.58478e-06
1.67189e-07
5.68058e-06
-1.08378e-06
1.78004e-07
5.64601e-06
-5.70936e-07
1.89396e-07
5.56558e-06
-5.34838e-08
2.00673e-07
5.42937e-06
4.64786e-07
2.10864e-07
5.23017e-06
9.68457e-07
2.18746e-07
4.96026e-06
1.44648e-06
2.23003e-07
4.61505e-06
1.89049e-06
2.22504e-07
4.194e-06
2.30306e-06
2.16438e-07
3.69919e-06
2.7044e-06
2.03845e-07
3.13487e-06
3.13663e-06
1.82481e-07
2.511e-06
3.66148e-06
1.49085e-07
1.85112e-06
4.32736e-06
1.03373e-07
1.20233e-06
5.06634e-06
5.36e-08
6.32104e-07
5.55049e-06
1.71379e-08
1.93452e-07
5.22947e-06
5.74629e-09
2.93538e-06
1.13781e-08
1.14085e-07
-8.97603e-07
3.73414e-08
3.8444e-07
-2.35541e-06
7.32651e-08
7.50173e-07
-3.43887e-06
9.31928e-08
1.16142e-06
-4.21126e-06
1.04339e-07
1.58158e-06
-4.72012e-06
1.10024e-07
1.99171e-06
-5.02352e-06
1.11846e-07
2.3868e-06
-5.17889e-06
1.1074e-07
2.76662e-06
-5.22854e-06
1.07534e-07
3.13073e-06
-5.19424e-06
1.03011e-07
3.47789e-06
-5.08768e-06
9.78911e-08
3.80521e-06
-4.91673e-06
9.28643e-08
4.10729e-06
-4.6845e-06
8.84711e-08
4.37869e-06
-4.39238e-06
8.51314e-08
4.61523e-06
-4.04435e-06
8.3198e-08
4.81324e-06
-3.64671e-06
8.29649e-08
4.9701e-06
-3.2072e-06
8.46756e-08
5.08446e-06
-2.73411e-06
8.85188e-08
5.1562e-06
-2.23539e-06
9.46206e-08
5.18627e-06
-1.71795e-06
1.03029e-07
5.17605e-06
-1.18733e-06
1.13704e-07
5.12644e-06
-6.47873e-07
1.26474e-07
5.03531e-06
-1.03353e-07
1.40927e-07
4.90343e-06
4.40264e-07
1.56335e-07
4.72365e-06
9.76549e-07
1.71613e-07
4.4879e-06
1.49679e-06
1.85367e-07
4.18759e-06
1.99469e-06
1.96028e-07
3.81578e-06
2.47285e-06
2.01945e-07
3.36866e-06
2.95032e-06
2.01135e-07
2.84709e-06
3.46742e-06
1.90738e-07
2.26142e-06
4.07973e-06
1.67416e-07
1.64082e-06
4.8176e-06
1.30386e-07
1.04147e-06
5.57961e-06
8.61713e-08
5.29302e-07
6.01333e-06
4.94479e-08
1.51742e-07
5.57809e-06
2.90032e-08
3.06983e-06
1.71632e-08
9.75297e-08
-1.02572e-06
3.0552e-08
3.37179e-07
-2.65742e-06
6.20803e-08
6.6516e-07
-3.84848e-06
8.13741e-08
1.03576e-06
-4.67533e-06
9.33742e-08
1.41663e-06
-5.20107e-06
1.00036e-07
1.79211e-06
-5.5014e-06
1.02355e-07
2.15833e-06
-5.64632e-06
1.01134e-07
2.51438e-06
-5.68193e-06
9.72452e-08
2.85931e-06
-5.63091e-06
9.16623e-08
3.19111e-06
-5.50472e-06
8.5178e-08
3.50528e-06
-5.30937e-06
7.84297e-08
3.79554e-06
-5.04663e-06
7.18387e-08
4.05652e-06
-4.71918e-06
6.5792e-08
4.28348e-06
-4.33202e-06
6.06703e-08
4.47244e-06
-3.89255e-06
5.68428e-08
4.62052e-06
-3.40997e-06
5.46449e-08
4.72615e-06
-2.89418e-06
5.43969e-08
4.789e-06
-2.3547e-06
5.64014e-08
4.80993e-06
-1.79987e-06
6.0944e-08
4.79056e-06
-1.23629e-06
6.82741e-08
4.73282e-06
-6.68723e-07
7.85209e-08
4.63856e-06
-1.00746e-07
9.15796e-08
4.50729e-06
4.64348e-07
1.07103e-07
4.33686e-06
1.0225e-06
1.24397e-07
4.12156e-06
1.56969e-06
1.4231e-07
3.8527e-06
2.10425e-06
1.59225e-07
3.52029e-06
2.63208e-06
1.73116e-07
3.11573e-06
3.17339e-06
1.81453e-07
2.63562e-06
3.76658e-06
1.80925e-07
2.08888e-06
4.45869e-06
1.6781e-07
1.50716e-06
5.25895e-06
1.40458e-07
9.50589e-07
6.03305e-06
1.03303e-07
4.78676e-07
6.41746e-06
6.79896e-08
1.35578e-07
5.8796e-06
4.17627e-08
3.18595e-06
1.94181e-08
9.48837e-08
-1.14572e-06
2.49597e-08
3.18513e-07
-2.93419e-06
5.28827e-08
6.18469e-07
-4.22007e-06
7.14573e-08
9.54096e-07
-5.09488e-06
8.38298e-08
1.29755e-06
-5.63568e-06
9.10878e-08
1.63625e-06
-5.9341e-06
9.39115e-08
1.96743e-06
-6.07065e-06
9.30625e-08
2.29038e-06
-6.09442e-06
8.94481e-08
2.60416e-06
-6.0288e-06
8.40431e-08
2.90618e-06
-5.8844e-06
7.75976e-08
3.19192e-06
-5.66573e-06
7.0574e-08
3.45647e-06
-5.37459e-06
6.33559e-08
3.69502e-06
-5.01401e-06
5.62437e-08
3.90296e-06
-4.58952e-06
4.95188e-08
4.07638e-06
-4.10955e-06
4.35194e-08
4.2123e-06
-3.58461e-06
3.86469e-08
4.30887e-06
-3.02609e-06
3.52802e-08
4.36539e-06
-2.44508e-06
3.37874e-08
4.38233e-06
-1.85142e-06
3.45488e-08
4.36095e-06
-1.25294e-06
3.79566e-08
4.3031e-06
-6.553e-07
4.43429e-08
4.21041e-06
-6.20709e-08
5.39293e-08
4.08485e-06
5.23054e-07
6.67583e-08
3.92555e-06
1.09913e-06
8.25738e-08
3.72877e-06
1.66572e-06
1.0066e-07
3.48701e-06
2.22621e-06
1.19725e-07
3.18979e-06
2.7914e-06
1.3784e-07
2.82631e-06
3.3845e-06
1.52329e-07
2.3906e-06
4.04269e-06
1.59598e-07
1.89021e-06
4.80364e-06
1.55507e-07
1.35705e-06
5.65479e-06
1.37452e-07
8.50415e-07
6.43208e-06
1.07847e-07
4.22547e-07
6.77013e-06
7.54795e-08
1.17195e-07
6.13848e-06
4.67061e-08
3.28405e-06
1.91298e-08
8.12459e-08
-1.24934e-06
2.21172e-08
2.79766e-07
-3.1819e-06
4.91408e-08
5.50053e-07
-4.55873e-06
6.82505e-08
8.55267e-07
-5.48173e-06
8.14656e-08
1.17028e-06
-6.04028e-06
8.94392e-08
1.48368e-06
-6.34037e-06
9.2781e-08
1.79235e-06
-6.47172e-06
9.23371e-08
2.09497e-06
-6.48621e-06
8.91152e-08
2.3898e-06
-6.40777e-06
8.40917e-08
2.67376e-06
-6.24639e-06
7.79785e-08
2.94255e-06
-6.0058e-06
7.12165e-08
3.19161e-06
-5.68785e-06
6.41435e-08
3.41633e-06
-5.29572e-06
5.6939e-08
3.61252e-06
-4.83553e-06
4.9768e-08
3.7767e-06
-4.31665e-06
4.28886e-08
3.90616e-06
-3.75074e-06
3.66233e-08
3.99911e-06
-3.15042e-06
3.13399e-08
4.05464e-06
-2.5281e-06
2.74358e-08
4.07283e-06
-1.89495e-06
2.52797e-08
4.05455e-06
-1.26e-06
2.52749e-08
4.00132e-06
-6.30007e-07
2.78531e-08
3.91528e-06
-9.55799e-09
3.3436e-08
3.79727e-06
5.98621e-07
4.23466e-08
3.64776e-06
1.19386e-06
5.46964e-08
3.46419e-06
1.77897e-06
7.02324e-08
3.24028e-06
2.36188e-06
8.81626e-08
2.96625e-06
2.9584e-06
1.06981e-07
2.6311e-06
3.59536e-06
1.24257e-07
2.22807e-06
4.30932e-06
1.36416e-07
1.76383e-06
5.12892e-06
1.39039e-07
1.26893e-06
6.02121e-06
1.28651e-07
7.98692e-07
6.79675e-06
1.05852e-07
3.98604e-07
7.0936e-06
7.69547e-08
1.12167e-07
6.3775e-06
4.77058e-08
3.3782e-06
1.80838e-08
7.88553e-08
-1.3483e-06
1.99198e-08
2.66663e-07
-3.41587e-06
4.60244e-08
5.19944e-07
-4.87727e-06
6.50889e-08
8.04675e-07
-5.84512e-06
7.84952e-08
1.0978e-06
-6.4203e-06
8.67612e-08
1.3892e-06
-6.72237e-06
9.04999e-08
1.67617e-06
-6.84934e-06
9.05774e-08
1.95744e-06
-6.85555e-06
8.8005e-08
2.231e-06
-6.76508e-06
8.36873e-08
2.49389e-06
-6.58762e-06
7.82736e-08
2.74234e-06
-6.32651e-06
7.21905e-08
2.97219e-06
-5.98346e-06
6.57008e-08
3.17935e-06
-5.56187e-06
5.89335e-08
3.36027e-06
-5.06848e-06
5.19854e-08
3.512e-06
-4.51348e-06
4.50463e-08
3.63227e-06
-3.90942e-06
3.83597e-08
3.71945e-06
-3.26988e-06
3.22244e-08
3.77256e-06
-2.60826e-06
2.69917e-08
3.79131e-06
-1.93677e-06
2.29969e-08
3.77612e-06
-1.26552e-06
2.0614e-08
3.72799e-06
-6.02267e-07
2.03073e-08
3.64817e-06
4.75959e-08
2.25702e-08
3.53815e-06
6.80677e-07
2.7869e-08
3.39817e-06
1.2972e-06
3.65534e-08
3.22627e-06
1.90205e-06
4.87267e-08
3.01716e-06
2.50684e-06
6.40666e-08
2.76208e-06
3.13183e-06
8.15876e-08
2.45075e-06
3.80734e-06
9.93229e-08
2.07657e-06
4.56953e-06
1.13995e-07
1.64563e-06
5.43882e-06
1.21154e-07
1.18632e-06
6.36405e-06
1.1669e-07
7.48914e-07
7.13476e-06
9.97146e-08
3.7395e-07
7.39448e-06
7.44609e-08
1.05463e-07
6.60022e-06
4.60904e-08
3.46726e-06
1.64955e-08
7.20466e-08
-1.43942e-06
1.88441e-08
2.47112e-07
-3.63589e-06
4.47441e-08
4.85124e-07
-5.17931e-06
6.39158e-08
7.53302e-07
-6.19086e-06
7.74743e-08
1.02958e-06
-6.78261e-06
8.5946e-08
1.3044e-06
-7.08729e-06
8.99985e-08
1.57503e-06
-7.21062e-06
9.05407e-08
1.83999e-06
-7.20919e-06
8.85905e-08
2.09714e-06
-7.10733e-06
8.50177e-08
2.34352e-06
-6.91449e-06
8.04191e-08
2.57559e-06
-6.6338e-06
7.51732e-08
2.78964e-06
-6.26705e-06
6.94937e-08
2.98226e-06
-5.818e-06
6.34646e-08
3.1506e-06
-5.29401e-06
5.71474e-08
3.29235e-06
-4.70595e-06
5.06686e-08
3.40569e-06
-4.06702e-06
4.42049e-08
3.48922e-06
-3.39145e-06
3.79766e-08
3.54194e-06
-2.69329e-06
3.22464e-08
3.56327e-06
-1.98545e-06
2.7282e-08
3.55315e-06
-1.27888e-06
2.34081e-08
3.51194e-06
-5.822e-07
2.10581e-08
3.44042e-06
9.82926e-08
2.07245e-08
3.33927e-06
7.58813e-07
2.29192e-08
3.20864e-06
1.3996e-06
2.81184e-08
3.04682e-06
2.02711e-06
3.66659e-08
2.84924e-06
2.65573e-06
4.86159e-08
2.60822e-06
3.30931e-06
6.34843e-08
2.31466e-06
4.02102e-06
7.98658e-08
1.9627e-06
4.82655e-06
9.49824e-08
1.5581e-06
5.73893e-06
1.04616e-07
1.12697e-06
6.69112e-06
1.0431e-07
7.14705e-07
7.45536e-06
9.20182e-08
3.58202e-07
7.68113e-06
7.02513e-08
1.01698e-07
6.81353e-06
4.35253e-08
3.55409e-06
1.49702e-08
7.10169e-08
-1.5285e-06
1.78326e-08
2.40738e-07
-3.84893e-06
4.31571e-08
4.69279e-07
-5.46997e-06
6.20038e-08
7.24907e-07
-6.52194e-06
7.53554e-08
9.86732e-07
-7.12833e-06
8.37827e-08
1.24616e-06
-7.43482e-06
8.7991e-08
1.50085e-06
-7.5543e-06
8.88931e-08
1.74939e-06
-7.5453e-06
8.74786e-08
1.98972e-06
-7.43229e-06
8.45653e-08
2.21905e-06
-7.22458e-06
8.07018e-08
2.43417e-06
-6.92521e-06
7.62344e-08
2.63186e-06
-6.53614e-06
7.13543e-08
2.80931e-06
-6.06163e-06
6.61274e-08
2.96432e-06
-5.50966e-06
6.05951e-08
3.09515e-06
-4.89168e-06
5.48464e-08
3.20045e-06
-4.22138e-06
4.89933e-08
3.2791e-06
-3.51334e-06
4.31766e-08
3.33013e-06
-2.78196e-06
3.75763e-08
3.3528e-06
-2.04058e-06
3.23896e-08
3.34666e-06
-1.30069e-06
2.78778e-08
3.31154e-06
-5.71583e-07
2.44154e-08
3.24756e-06
1.39721e-07
2.24539e-08
3.15497e-06
8.2881e-07
2.24909e-08
3.0335e-06
1.49593e-06
2.50335e-08
2.88141e-06
2.14857e-06
3.0537e-08
2.69455e-06
2.80322e-06
3.92875e-08
2.46618e-06
3.48645e-06
5.11817e-08
2.18828e-06
4.23357e-06
6.53361e-08
1.85593e-06
5.07941e-06
7.95598e-08
1.47475e-06
6.03017e-06
9.00835e-08
1.06884e-06
7.00487e-06
9.24174e-08
6.79384e-07
7.76146e-06
8.37339e-08
3.40555e-07
7.95522e-06
6.51522e-08
9.65561e-08
7.01737e-06
4.05093e-08
3.63718e-06
1.35866e-08
6.78486e-08
-1.61386e-06
1.73675e-08
2.30801e-07
-4.05454e-06
4.24578e-08
4.49987e-07
-5.75042e-06
6.10833e-08
6.94229e-07
-6.84058e-06
7.42462e-08
9.43441e-07
-7.46027e-06
8.26167e-08
1.18966e-06
-7.76809e-06
8.69632e-08
1.43068e-06
-7.88362e-06
8.82057e-08
1.66509e-06
-7.86708e-06
8.72977e-08
1.89083e-06
-7.74311e-06
8.50031e-08
2.10528e-06
-7.52092e-06
8.18262e-08
2.30551e-06
-7.20359e-06
7.80869e-08
2.4888e-06
-6.79345e-06
7.39606e-08
2.65293e-06
-6.29533e-06
6.95072e-08
2.79632e-06
-5.71786e-06
6.47607e-08
2.91781e-06
-5.073e-06
5.978e-08
3.01647e-06
-4.37472e-06
5.46308e-08
3.09144e-06
-3.63776e-06
4.93918e-08
3.1418e-06
-2.87656e-06
4.41688e-08
3.16663e-06
-2.10458e-06
3.90881e-08
3.16509e-06
-1.33357e-06
3.43407e-08
3.13646e-06
-5.73284e-07
3.02296e-08
3.08027e-06
1.68661e-07
2.71508e-08
2.99617e-06
8.87244e-07
2.55706e-08
2.88345e-06
1.58255e-06
2.59963e-08
2.74025e-06
2.26275e-06
2.89308e-08
2.56273e-06
2.94587e-06
3.47879e-08
2.34491e-06
3.6605e-06
4.3716e-08
2.07989e-06
4.44335e-06
5.52434e-08
1.7637e-06
5.32793e-06
6.77363e-08
1.40211e-06
6.31395e-06
7.79804e-08
1.01763e-06
7.30793e-06
8.17049e-08
6.47919e-07
8.05593e-06
7.56373e-08
3.24858e-07
8.21891e-06
5.98077e-08
9.20522e-08
7.21319e-06
3.73535e-08
3.71702e-06
1.23231e-08
6.69578e-08
-1.69786e-06
1.68733e-08
2.25923e-07
-4.2551e-06
4.1413e-08
4.3792e-07
-6.0221e-06
5.95196e-08
6.72309e-07
-7.14735e-06
7.22622e-08
9.09958e-07
-7.77842e-06
8.04047e-08
1.14372e-06
-8.08669e-06
8.47652e-08
1.3717e-06
-8.19794e-06
8.62572e-08
1.59254e-06
-8.17379e-06
8.57855e-08
1.80426e-06
-8.03896e-06
8.40525e-08
2.00439e-06
-7.80264e-06
8.15159e-08
2.19032e-06
-7.46805e-06
7.84681e-08
2.35975e-06
-7.038e-06
7.50733e-08
2.511e-06
-6.51803e-06
7.13915e-08
2.64302e-06
-5.91739e-06
6.74525e-08
2.75519e-06
-5.24851e-06
6.32951e-08
2.84703e-06
-4.52556e-06
5.89528e-08
2.91794e-06
-3.76319e-06
5.44587e-08
2.96713e-06
-2.97567e-06
4.98591e-08
2.99356e-06
-2.1763e-06
4.52177e-08
2.99607e-06
-1.37682e-06
4.06545e-08
2.97346e-06
-5.8716e-07
3.6393e-08
2.92464e-06
1.84622e-07
3.27564e-08
2.84867e-06
9.32961e-07
3.01573e-08
2.74435e-06
1.65769e-06
2.90765e-08
2.60961e-06
2.36737e-06
3.00257e-08
2.44077e-06
3.08114e-06
3.34813e-08
2.23247e-06
3.82901e-06
3.97449e-08
1.97877e-06
4.64839e-06
4.86424e-08
1.67674e-06
5.57102e-06
5.90146e-08
1.33246e-06
6.59018e-06
6.82215e-08
9.67311e-07
7.601e-06
7.23859e-08
6.16036e-07
8.33952e-06
6.80857e-08
3.08436e-07
8.47241e-06
5.4545e-08
8.71199e-08
7.40065e-06
3.42215e-08
3.79309e-06
1.11692e-08
6.46109e-08
-1.77944e-06
1.67477e-08
2.1831e-07
-4.45001e-06
4.10625e-08
4.22557e-07
-6.2853e-06
5.88255e-08
6.47183e-07
-7.44334e-06
7.12344e-08
8.73897e-07
-8.08442e-06
7.91683e-08
1.09619e-06
-8.39261e-06
8.35118e-08
1.31238e-06
-8.4994e-06
8.51842e-08
1.52108e-06
-8.46762e-06
8.50543e-08
1.72035e-06
-8.32208e-06
8.37772e-08
1.90785e-06
-8.07198e-06
8.17754e-08
2.08124e-06
-7.72082e-06
7.93207e-08
2.2386e-06
-7.27199e-06
7.65685e-08
2.37872e-06
-6.73178e-06
7.35778e-08
2.50104e-06
-6.11014e-06
7.03746e-08
2.60537e-06
-5.41989e-06
6.69825e-08
2.69161e-06
-4.67528e-06
6.34098e-08
2.75945e-06
-3.89074e-06
5.96528e-08
2.8082e-06
-3.08019e-06
5.571e-08
2.83672e-06
-2.25649e-06
5.159e-08
2.84355e-06
-1.43109e-06
4.73487e-08
2.82704e-06
-6.1387e-07
4.31346e-08
2.78549e-06
1.86875e-07
3.91987e-08
2.71733e-06
9.65113e-07
3.5896e-08
2.62092e-06
1.72032e-06
3.36721e-08
2.49392e-06
2.46124e-06
3.30303e-08
2.33279e-06
3.20772e-06
3.44734e-08
2.13268e-06
3.99068e-06
3.83904e-08
1.88859e-06
4.84768e-06
4.4807e-08
1.59858e-06
5.80818e-06
5.29347e-08
1.26924e-06
6.85905e-06
6.06605e-08
9.21153e-07
7.88482e-06
6.45846e-08
5.86606e-07
8.61313e-06
6.13547e-08
2.9339e-07
8.71643e-06
4.96406e-08
8.27263e-08
7.5804e-06
3.12775e-08
3.86579e-06
1.01503e-08
6.33224e-08
-1.85959e-06
1.6621e-08
2.12832e-07
-4.64016e-06
4.05066e-08
4.10258e-07
-6.54055e-06
5.76967e-08
6.26066e-07
-7.72884e-06
6.9577e-08
8.42834e-07
-8.37847e-06
7.71652e-08
1.05467e-06
-8.68596e-06
8.14105e-08
1.26004e-06
-8.78808e-06
8.32183e-08
1.45759e-06
-8.74866e-06
8.3401e-08
1.64543e-06
-8.59254e-06
8.25565e-08
1.82135e-06
-8.32904e-06
8.10689e-08
1.98327e-06
-7.96199e-06
7.91891e-08
2.1296e-06
-7.49545e-06
7.70663e-08
2.25953e-06
-6.93654e-06
7.47613e-08
2.3729e-06
-6.29586e-06
7.22967e-08
2.46991e-06
-5.58665e-06
6.9686e-08
2.55082e-06
-4.82317e-06
6.69204e-08
2.6156e-06
-4.01955e-06
6.39704e-08
2.66371e-06
-3.18916e-06
6.07969e-08
2.69402e-06
-2.34422e-06
5.73611e-08
2.70482e-06
-1.49564e-06
5.36573e-08
2.69403e-06
-6.52932e-07
4.97566e-08
2.65937e-06
1.756e-07
4.583e-08
2.59864e-06
9.83575e-07
4.21632e-08
2.50963e-06
1.77006e-06
3.91547e-08
2.38975e-06
2.54373e-06
3.72876e-08
2.2355e-06
3.32481e-06
3.7075e-08
2.04252e-06
4.14465e-06
3.89603e-08
1.80666e-06
5.04044e-06
4.31083e-08
1.527e-06
6.03892e-06
4.9016e-08
1.21074e-06
7.12048e-06
5.50284e-08
8.77942e-07
8.15969e-06
5.82455e-08
5.58782e-07
8.87717e-06
5.55346e-08
2.79114e-07
8.95132e-06
4.52275e-08
7.85648e-08
7.7527e-06
2.86162e-08
3.93518e-06
9.2882e-09
6.12916e-08
-1.93779e-06
1.672e-08
2.05911e-07
-4.82537e-06
4.0403e-08
3.96311e-07
-6.78824e-06
5.71489e-08
6.03562e-07
-8.00477e-06
6.85622e-08
8.11002e-07
-8.66182e-06
7.5808e-08
1.01321e-06
-8.96817e-06
7.99077e-08
1.20878e-06
-9.06551e-06
8.17679e-08
1.39632e-06
-9.01846e-06
8.21632e-08
1.574e-06
-8.85195e-06
8.16488e-08
1.73973e-06
-8.57543e-06
8.05796e-08
1.89165e-06
-8.19317e-06
7.91893e-08
2.02847e-06
-7.70996e-06
7.76206e-08
2.14969e-06
-7.13375e-06
7.59328e-08
2.25546e-06
-6.47584e-06
7.41438e-08
2.34631e-06
-5.74981e-06
7.22544e-08
2.42278e-06
-4.96994e-06
7.02419e-08
2.48509e-06
-4.14999e-06
6.80573e-08
2.53288e-06
-3.30265e-06
6.56341e-08
2.56503e-06
-2.43936e-06
6.28968e-08
2.57972e-06
-1.5702e-06
5.97894e-08
2.57448e-06
-7.04096e-07
5.63146e-08
2.54647e-06
1.50944e-07
5.25658e-08
2.49283e-06
9.88349e-07
4.87542e-08
2.41083e-06
1.80674e-06
4.52207e-08
2.29752e-06
2.61453e-06
4.24157e-08
2.14944e-06
3.43196e-06
4.08468e-08
1.96265e-06
4.29041e-06
4.09875e-08
1.73383e-06
5.22617e-06
4.30988e-08
1.46302e-06
6.26292e-06
4.68961e-08
1.15813e-06
7.37447e-06
5.11102e-08
8.38903e-07
8.42592e-06
5.33222e-08
5.33651e-07
9.13214e-06
5.07063e-08
2.66368e-07
9.17763e-06
4.14276e-08
7.49569e-08
7.91816e-06
2.63228e-08
4.00165e-06
8.59719e-09
5.97617e-08
-2.01454e-06
1.67847e-08
2.00242e-07
-5.0061e-06
4.00771e-08
3.84405e-07
-7.02871e-06
5.617e-08
5.83974e-07
-8.27139e-06
6.69427e-08
7.83034e-07
-8.93471e-06
7.3736e-08
9.76607e-07
-9.23948e-06
7.76369e-08
1.16336e-06
-9.33188e-06
7.95265e-08
1.34193e-06
-9.27723e-06
8.01207e-08
1.5105e-06
-9.10053e-06
7.9924e-08
1.66713e-06
-8.81139e-06
7.92605e-08
1.81014e-06
-8.41459e-06
7.83476e-08
1.93849e-06
-7.9157e-06
7.73234e-08
2.05193e-06
-7.3235e-06
7.62479e-08
2.15087e-06
-6.64997e-06
7.51354e-08
2.23609e-06
-5.90907e-06
7.39776e-08
2.30839e-06
-5.11505e-06
7.27394e-08
2.36826e-06
-4.28128e-06
7.13566e-08
2.41553e-06
-3.41974e-06
6.97415e-08
2.44919e-06
-2.54089e-06
6.77885e-08
2.46732e-06
-1.65382e-06
6.53966e-08
2.46716e-06
-7.66542e-07
6.25046e-08
2.44537e-06
1.13511e-07
5.91276e-08
2.39841e-06
9.79799e-07
5.53961e-08
2.32295e-06
1.83051e-06
5.15844e-08
2.21566e-06
2.67361e-06
4.8101e-08
2.07307e-06
3.52903e-06
4.54393e-08
1.89163e-06
4.42771e-06
4.40907e-08
1.66879e-06
5.40464e-06
4.43873e-08
1.40557e-06
6.48e-06
4.6217e-08
1.11059e-06
7.62102e-06
4.86342e-08
8.03436e-07
8.68374e-06
4.96647e-08
5.10741e-07
9.37843e-06
4.68312e-08
2.5477e-07
9.39579e-06
3.82619e-08
7.16948e-08
8.07717e-06
2.44254e-08
4.06536e-06
8.08406e-09
5.80034e-08
-2.08966e-06
1.69311e-08
1.94314e-07
-5.18248e-06
3.99086e-08
3.72545e-07
-7.26247e-06
5.53908e-08
5.65007e-07
-8.52952e-06
6.55409e-08
7.56447e-07
-9.19814e-06
7.18712e-08
9.42265e-07
-9.50094e-06
7.5531e-08
1.12118e-06
-9.58827e-06
7.73848e-08
1.29181e-06
-9.52605e-06
7.81024e-08
1.45238e-06
-9.33933e-06
7.81473e-08
1.60105e-06
-9.03796e-06
7.78178e-08
1.73632e-06
-8.62725e-06
7.73161e-08
1.85734e-06
-8.11356e-06
7.6775e-08
1.96405e-06
-7.50653e-06
7.62531e-08
2.05706e-06
-6.81881e-06
7.57603e-08
2.13736e-06
-6.06471e-06
7.52795e-08
2.20595e-06
-5.25847e-06
7.47655e-08
2.26355e-06
-4.41309e-06
7.41432e-08
2.31022e-06
-3.53979e-06
7.33097e-08
2.3451e-06
-2.64799e-06
7.21382e-08
2.36627e-06
-1.74556e-06
7.04936e-08
2.37077e-06
-8.39396e-07
6.82616e-08
2.35479e-06
6.40029e-08
6.53846e-08
2.31418e-06
9.58384e-07
6.19098e-08
2.24497e-06
1.84159e-06
5.8034e-08
2.14338e-06
2.72098e-06
5.41097e-08
2.00587e-06
3.61586e-06
5.06028e-08
1.82919e-06
4.55634e-06
4.80098e-08
1.61153e-06
5.5756e-06
4.67153e-08
1.35485e-06
6.69004e-06
4.67451e-08
1.06849e-06
7.86016e-06
4.74266e-08
7.71974e-07
8.9334e-06
4.71872e-08
4.90463e-07
9.61645e-06
4.39087e-08
2.44615e-07
9.60631e-06
3.57736e-08
6.89062e-08
8.23027e-06
2.29612e-08
4.12661e-06
7.75276e-09
5.65969e-08
-2.16343e-06
1.69907e-08
1.89332e-07
-5.35482e-06
3.94429e-08
3.62394e-07
-7.4898e-06
5.41231e-08
5.48638e-07
-8.7794e-06
6.35117e-08
7.33396e-07
-9.45231e-06
6.93037e-08
9.12386e-07
-9.75272e-06
7.26933e-08
1.08438e-06
-9.83485e-06
7.45004e-08
1.24799e-06
-9.76509e-06
7.53326e-08
1.4015e-06
-9.56853e-06
7.56072e-08
1.54317e-06
-9.25531e-06
7.55964e-08
1.67162e-06
-8.83127e-06
7.54892e-08
1.78618e-06
-8.3036e-06
7.54142e-08
1.88692e-06
-7.68278e-06
7.5431e-08
1.9746e-06
-6.98211e-06
7.55471e-08
2.05036e-06
-6.21627e-06
7.57382e-08
2.11539e-06
-5.39952e-06
7.59515e-08
2.17064e-06
-4.54451e-06
7.61023e-08
2.2164e-06
-3.6617e-06
7.60757e-08
2.25199e-06
-2.75939e-06
7.57273e-08
2.27558e-06
-1.84413e-06
7.48932e-08
2.28408e-06
-9.21406e-07
7.34128e-08
2.27332e-06
3.48701e-09
7.11619e-08
2.23858e-06
9.2491e-07
6.81053e-08
2.1752e-06
1.8405e-06
6.43573e-08
2.07894e-06
2.75692e-06
6.02053e-08
1.94608e-06
3.69257e-06
5.60782e-08
1.77365e-06
4.67625e-06
5.24682e-08
1.5605e-06
5.73896e-06
4.9798e-08
1.3095e-06
6.89293e-06
4.82072e-08
1.03071e-06
8.09191e-06
4.72544e-08
7.43637e-07
9.17507e-06
4.57238e-08
4.72149e-07
9.84651e-06
4.18471e-08
2.35445e-07
9.80952e-06
3.39237e-08
6.63899e-08
8.37775e-06
2.19152e-08
4.18548e-06
7.59713e-09
5.51935e-08
-2.23586e-06
1.70303e-08
1.84673e-07
-5.52339e-06
3.89283e-08
3.53167e-07
-7.71123e-06
5.27999e-08
5.33952e-07
-9.02174e-06
6.14295e-08
7.12853e-07
-9.698e-06
6.66766e-08
8.85872e-07
-9.99562e-06
6.97683e-08
1.05183e-06
-1.00724e-05
7.14832e-08
1.20935e-06
-9.99508e-06
7.2375e-08
1.35676e-06
-9.78884e-06
7.28208e-08
1.49239e-06
-9.46409e-06
7.30696e-08
1.61499e-06
-9.02725e-06
7.32977e-08
1.72398e-06
-8.48629e-06
7.36293e-08
1.81953e-06
-7.85252e-06
7.41241e-08
1.9025e-06
-7.13993e-06
7.47881e-08
1.97415e-06
-6.36357e-06
7.55918e-08
2.03583e-06
-5.53775e-06
7.64771e-08
2.08868e-06
-4.67479e-06
7.73541e-08
2.13324e-06
-3.78443e-06
7.8101e-08
2.16907e-06
-2.87386e-06
7.85625e-08
2.19446e-06
-1.94816e-06
7.85539e-08
2.20632e-06
-1.01123e-06
7.7876e-08
2.20022e-06
-6.68658e-08
7.63448e-08
2.17092e-06
8.80269e-07
7.3844e-08
2.11308e-06
1.82783e-06
7.03987e-08
2.02195e-06
2.78174e-06
6.62201e-08
1.89353e-06
3.75922e-06
6.1688e-08
1.72504e-06
4.78741e-06
5.72816e-08
1.51593e-06
5.89464e-06
5.34549e-08
1.26989e-06
7.08864e-06
5.04392e-08
9.97694e-07
8.31633e-06
4.79857e-08
7.18898e-07
9.409e-06
4.51914e-08
4.56221e-07
1.0069e-05
4.06191e-08
2.27572e-07
1.00059e-05
3.27223e-08
6.42964e-08
8.52006e-06
2.13075e-08
4.24221e-06
7.62816e-09
5.41108e-08
-2.30711e-06
1.69441e-08
1.80915e-07
-5.68843e-06
3.80709e-08
3.45577e-07
-7.927e-06
5.09724e-08
5.21728e-07
-9.25676e-06
5.8743e-08
6.95622e-07
-9.93542e-06
6.34018e-08
8.63503e-07
-1.02298e-05
6.6185e-08
1.02424e-06
-1.0301e-05
6.78055e-08
1.17648e-06
-1.02162e-05
6.87509e-08
1.3186e-06
-1.00004e-05
6.93559e-08
1.44902e-06
-9.66443e-06
6.98466e-08
1.56654e-06
-9.21523e-06
7.03874e-08
1.67065e-06
-8.66156e-06
7.10991e-08
1.7616e-06
-8.01559e-06
7.20435e-08
1.84033e-06
-7.29195e-06
7.32264e-08
1.90815e-06
-6.50608e-06
7.46154e-08
1.96658e-06
-5.6724e-06
7.61487e-08
2.01691e-06
-4.80294e-06
7.77333e-08
2.05992e-06
-3.90676e-06
7.92434e-08
2.09539e-06
-2.98993e-06
8.05169e-08
2.12184e-06
-2.05606e-06
8.13539e-08
2.13625e-06
-1.10726e-06
8.1525e-08
2.13404e-06
-1.45555e-07
8.07938e-08
2.10953e-06
8.25705e-07
7.89671e-08
2.05679e-06
1.80448e-06
7.59787e-08
1.97046e-06
2.79602e-06
7.19546e-08
1.84623e-06
3.81614e-06
6.72146e-08
1.68144e-06
4.88994e-06
6.2215e-08
1.47602e-06
6.04264e-06
5.74323e-08
1.23442e-06
7.27715e-06
5.31824e-08
9.6809e-07
8.53347e-06
4.93896e-08
6.96662e-07
9.63533e-06
4.54157e-08
4.41864e-07
1.02841e-05
4.01097e-08
2.2046e-07
1.01956e-05
3.21024e-08
6.23939e-08
8.65734e-06
2.11053e-08
4.29683e-06
7.82733e-09
5.31637e-08
-2.37725e-06
1.67832e-08
1.7772e-07
-5.85022e-06
3.7062e-08
3.39189e-07
-8.13759e-06
4.89716e-08
5.11462e-07
-9.48504e-06
5.58856e-08