/*--------------------------------*- C++ -*----------------------------------*\
| =========                 |                                                 |
| \\      /  F ield         | OpenFOAM: The Open Source CFD Toolbox           |
|  \\    /   O peration     | Version:  v2006                                 |
|   \\  /    A nd           | Website:  www.openfoam.com                      |
|    \\/     M anipulation  |                                                 |
\*---------------------------------------------------------------------------*/
FoamFile
{
    version     2.0;
    format      ascii;
    class       volVectorField;
    location    "57";
    object      U;
}
// * * * * * * * * * * * * * * * * * * * * * * * * * * * * * * * * * * * * * //

dimensions      [0 1 -1 0 0 0 0];


internalField   nonuniform List<vector> 
78750
(
(-0.00602329 -0.001243 0.00347382)
(-0.006258 -0.00601295 0.00558894)
(-0.00554418 -0.00841213 0.00604)
(-0.00375744 -0.00992337 0.00599051)
(-0.0021557 -0.0109128 0.00577873)
(-0.000229166 -0.0114358 0.00553051)
(0.00193159 -0.0115539 0.00528334)
(0.00418863 -0.0113496 0.00504205)
(0.00644632 -0.0108912 0.00480544)
(0.00863965 -0.0102322 0.00457009)
(0.0107169 -0.00941454 0.00433231)
(0.0126364 -0.00847153 0.00408881)
(0.0143647 -0.0074304 0.00383698)
(0.0158757 -0.00631421 0.00357476)
(0.0171484 -0.00514381 0.00330058)
(0.0181679 -0.00393992 0.00301323)
(0.0189253 -0.00272393 0.00271214)
(0.0194193 -0.00151762 0.00239712)
(0.0196539 -0.000343855 0.00206815)
(0.0196428 0.000774812 0.00172625)
(0.0193848 0.00181393 0.0013727)
(0.0188807 0.00275647 0.00100764)
(0.0181615 0.00358662 0.000631717)
(0.0172672 0.00428679 0.00024452)
(0.0162365 0.00483785 -0.000155541)
(0.0151097 0.00522036 -0.000570738)
(0.0139307 0.00541958 -0.00100307)
(0.0127428 0.00543679 -0.00145267)
(0.0115799 0.00531273 -0.00191589)
(0.0104478 0.00517051 -0.00238207)
(0.00928965 0.00528029 -0.00282051)
(0.00793187 0.00610028 -0.00313382)
(0.00607018 0.00800085 -0.00307652)
(0.00357041 0.0100057 -0.00229315)
(0.000904169 0.00766282 -0.000716329)
(-0.00026035 0.00151017 0.00246774)
(-0.00018817 -0.00545768 0.00405159)
(-0.000321449 -0.0117596 0.00450182)
(-0.000254858 -0.0172425 0.00428217)
(-8.47738e-06 -0.0214516 0.00376637)
(0.00043717 -0.0241593 0.00324129)
(0.00109663 -0.0255295 0.00282499)
(0.00191676 -0.0258766 0.00251233)
(0.00284024 -0.0254602 0.00227535)
(0.00384024 -0.0244487 0.00209453)
(0.00488464 -0.0229648 0.00195263)
(0.00594142 -0.0210986 0.00183551)
(0.00697945 -0.0189185 0.00173153)
(0.00796831 -0.0164802 0.0016308)
(0.00887692 -0.0138347 0.00152392)
(0.0096782 -0.0110415 0.00140015)
(0.010348 -0.00816276 0.00125017)
(0.0108676 -0.00526007 0.00106698)
(0.0112214 -0.00239354 0.000846787)
(0.0114089 0.000378058 0.000590048)
(0.0114467 0.00299432 0.00030056)
(0.0113511 0.00540094 -1.7446e-05)
(0.011129 0.00754684 -0.000358789)
(0.0107906 0.00938089 -0.000718183)
(0.0103486 0.0108567 -0.00109037)
(0.00981826 0.0119418 -0.0014718)
(0.00921867 0.0126365 -0.00186252)
(0.00856459 0.013011 -0.00226682)
(0.00785582 0.0132745 -0.00269004)
(0.00707286 0.0138701 -0.00312464)
(0.0061514 0.015543 -0.00351624)
(0.0049702 0.0191531 -0.00370927)
(0.00344135 0.0244281 -0.00342109)
(0.00173114 0.0275111 -0.00241935)
(0.00017679 0.0188583 -0.000762087)
(3.75331e-05 -0.000488917 0.001656)
(0.000409986 -0.00570811 0.00303166)
(0.000657161 -0.0107336 0.00369503)
(0.000958581 -0.0154762 0.00393529)
(0.0012972 -0.0197597 0.00391961)
(0.00166516 -0.0232273 0.00377993)
(0.00209142 -0.025705 0.00362353)
(0.00259373 -0.0272627 0.0034995)
(0.00314965 -0.0280128 0.0034065)
(0.00374641 -0.0280409 0.00333982)
(0.00437497 -0.0274184 0.00329611)
(0.00502319 -0.0262075 0.00327267)
(0.00567402 -0.0244585 0.00326875)
(0.00631036 -0.0222092 0.00328444)
(0.00692314 -0.0194811 0.00331859)
(0.00748741 -0.0163386 0.00335481)
(0.00797523 -0.012904 0.00336499)
(0.00837531 -0.00928611 0.00332619)
(0.00867692 -0.00558938 0.00321811)
(0.00887143 -0.00192003 0.00302395)
(0.00895115 0.00161341 0.00273428)
(0.00891385 0.00490977 0.00235151)
(0.00876862 0.00790805 0.00189311)
(0.00852579 0.0105811 0.00138177)
(0.00819412 0.0128836 0.000836362)
(0.00778552 0.0147714 0.000272116)
(0.0073078 0.0162586 -0.000301068)
(0.00676163 0.0174762 -0.000880683)
(0.00613685 0.0187527 -0.00147122)
(0.00541026 0.0206927 -0.00206716)
(0.00452849 0.0241597 -0.00262258)
(0.00344651 0.0296738 -0.00297135)
(0.00221806 0.0357752 -0.00282139)
(0.00102166 0.0373013 -0.00198546)
(9.79812e-05 0.0235238 -0.000576274)
(5.08639e-07 -0.00362839 0.00147138)
(0.00037621 -0.0120023 0.00292942)
(0.000893083 -0.01913 0.00366639)
(0.00155952 -0.0251403 0.00394846)
(0.00230782 -0.0299925 0.00395718)
(0.0030795 -0.0336241 0.00382041)
(0.00381605 -0.036009 0.00363467)
(0.00453528 -0.0373128 0.00346931)
(0.00523964 -0.037727 0.00333891)
(0.00590392 -0.037384 0.00323998)
(0.00652852 -0.0363805 0.00317112)
(0.00711228 -0.0347935 0.00313227)
(0.00765667 -0.0326612 0.00313058)
(0.00816343 -0.029985 0.00317677)
(0.00862531 -0.0267995 0.00326803)
(0.00903023 -0.0231798 0.0033945)
(0.00937478 -0.0192014 0.00354583)
(0.00965205 -0.0149442 0.00370841)
(0.00985158 -0.0104958 0.00386342)
(0.00996104 -0.00595706 0.00398543)
(0.00996742 -0.00144601 0.00404314)
(0.00985796 0.00290361 0.00400351)
(0.00962434 0.00695389 0.00384005)
(0.00926798 0.0105852 0.00354144)
(0.00880155 0.0137258 0.00311618)
(0.00824417 0.0163846 0.00258934)
(0.0076018 0.0186676 0.00198678)
(0.00688118 0.0207656 0.00132579)
(0.00608196 0.0230647 0.000611075)
(0.00518097 0.026258 -0.000162044)
(0.00416673 0.0311882 -0.000950982)
(0.00303608 0.0380113 -0.00157212)
(0.0018849 0.0444343 -0.00171657)
(0.00085074 0.0445783 -0.00122865)
(9.24042e-05 0.0268977 -0.000274239)
(2.30399e-05 -0.00535413 0.00119516)
(0.000394543 -0.0155897 0.00242124)
(0.000943852 -0.0238912 0.00302184)
(0.00162962 -0.0305138 0.00324754)
(0.00237708 -0.0355365 0.00326756)
(0.00312845 -0.0390557 0.00319039)
(0.00383702 -0.0412305 0.00308357)
(0.0045157 -0.0423373 0.00298597)
(0.00517743 -0.0425783 0.00291116)
(0.00580249 -0.0420737 0.00285417)
(0.00639046 -0.0409116 0.00281235)
(0.00693885 -0.0391641 0.00278471)
(0.00744204 -0.0368774 0.00277305)
(0.00790408 -0.0340497 0.00278594)
(0.00832067 -0.0306862 0.00283198)
(0.00868289 -0.0268517 0.00291125)
(0.00898881 -0.0226155 0.00302514)
(0.0092359 -0.0180476 0.00317487)
(0.00941971 -0.013219 0.00335908)
(0.00953314 -0.00820671 0.00357046)
(0.00956559 -0.00310346 0.0037917)
(0.0095044 0.00197138 0.00399278)
(0.00933618 0.00686853 0.00413207)
(0.00904725 0.0114257 0.00416485)
(0.0086293 0.0155104 0.00405742)
(0.00808511 0.0190785 0.00379821)
(0.00742599 0.0222214 0.00339499)
(0.00666166 0.0251902 0.00285801)
(0.00579739 0.0284435 0.00218777)
(0.00483231 0.0326932 0.00137867)
(0.00377665 0.0386825 0.000480786)
(0.00265351 0.0461941 -0.000309595)
(0.00159434 0.0522896 -0.000680423)
(0.000694728 0.0508538 -0.00051907)
(6.45763e-05 0.0296746 -1.41277e-05)
(1.2624e-05 -0.00744519 0.00101817)
(0.000364531 -0.0204099 0.00207874)
(0.000920598 -0.0304986 0.00259204)
(0.00162583 -0.0381236 0.00279113)
(0.00239568 -0.0435364 0.00282325)
(0.00316921 -0.0470615 0.0027762)
(0.00390863 -0.049085 0.00270015)
(0.00461567 -0.049975 0.00262158)
(0.00530067 -0.0499598 0.00255159)
(0.00595224 -0.0491703 0.00248949)
(0.00656145 -0.0477053 0.00243373)
(0.00712206 -0.0456317 0.0023879)
(0.00763431 -0.042967 0.00235598)
(0.00809232 -0.0397253 0.00234021)
(0.00848332 -0.0359637 0.00234261)
(0.00880529 -0.0317465 0.00236769)
(0.00905828 -0.0271411 0.00242192)
(0.00924266 -0.0222127 0.00251324)
(0.00935904 -0.0170217 0.00264993)
(0.00940779 -0.0116249 0.00283836)
(0.00938771 -0.00608387 0.00307911)
(0.00929487 -0.000478243 0.00336158)
(0.00911897 0.00508026 0.00365891)
(0.00884468 0.0104464 0.00392688)
(0.00845762 0.0154676 0.0041118)
(0.00794803 0.0200462 0.00416558)
(0.00731439 0.0242188 0.00405777)
(0.00656015 0.0282201 0.00377177)
(0.00568798 0.0325272 0.00328955)
(0.00470312 0.0378578 0.00259257)
(0.00362654 0.0448546 0.00171879)
(0.00249548 0.0529743 0.000854196)
(0.00147517 0.0587598 0.000307949)
(0.000637756 0.0560165 0.000160399)
(6.28083e-05 0.0318898 0.000219196)
(2.6948e-05 -0.009044 0.000799411)
(0.000375367 -0.0240445 0.00164161)
(0.000912058 -0.0353639 0.00206257)
(0.00157018 -0.0435827 0.00224673)
(0.00227159 -0.049125 0.0023011)
(0.00296489 -0.0525188 0.00228823)
(0.0036231 -0.0543154 0.00224526)
(0.00425746 -0.0549583 0.00219281)
(0.00487789 -0.0546845 0.0021383)
(0.00547277 -0.0536239 0.0020811)
(0.00603025 -0.051873 0.00202184)
(0.00654894 -0.0494786 0.00196085)
(0.00702758 -0.0464463 0.00189979)
(0.0074522 -0.0428129 0.00184174)
(0.00781444 -0.0386426 0.00179057)
(0.00810967 -0.0340137 0.00175219)
(0.00833501 -0.0290101 0.00173484)
(0.0084894 -0.0237116 0.00174907)
(0.0085737 -0.0181879 0.00180728)
(0.0085901 -0.0124957 0.00192264)
(0.00854066 -0.00668322 0.00210651)
(0.00842511 -0.000800684 0.00236397)
(0.00824223 0.00508102 0.00268737)
(0.00798654 0.0108607 0.00304938)
(0.00764523 0.0164198 0.00340243)
(0.00720351 0.0216685 0.00368711)
(0.00664963 0.0266263 0.00384678)
(0.00597624 0.0315067 0.0038353)
(0.00517878 0.0367708 0.00361024)
(0.00426056 0.0430824 0.00313275)
(0.00324531 0.0509002 0.00241627)
(0.00218284 0.0593085 0.00161299)
(0.00125595 0.0645118 0.00100062)
(0.000520368 0.0604233 0.000635508)
(3.92253e-05 0.0336707 0.00035299)
(1.96559e-05 -0.0106715 0.000661745)
(0.000324895 -0.0278397 0.0013977)
(0.00080367 -0.0404977 0.00180136)
(0.00139639 -0.0494012 0.00200839)
(0.00203092 -0.0551608 0.00209549)
(0.00266083 -0.0585212 0.00211264)
(0.00326838 -0.0601956 0.00209259)
(0.00386102 -0.0606775 0.00205242)
(0.0044463 -0.0602134 0.0020034)
(0.00500943 -0.0589342 0.0019477)
(0.00554227 -0.0569162 0.00188622)
(0.00604498 -0.0541804 0.00181678)
(0.00650542 -0.0507524 0.00174006)
(0.00691256 -0.0466844 0.00165807)
(0.00725914 -0.042052 0.0015741)
(0.00753975 -0.0369487 0.00149317)
(0.00775079 -0.0314749 0.00142267)
(0.00789075 -0.0257271 0.00137272)
(0.00796013 -0.0197893 0.00135616)
(0.00796111 -0.0137286 0.00138804)
(0.00789693 -0.00759381 0.00148417)
(0.00777097 -0.00142449 0.00165834)
(0.00758474 0.00473577 0.00191687)
(0.00733638 0.0108279 0.00225146)
(0.00701925 0.0167825 0.00263305)
(0.00662124 0.0225515 0.00301228)
(0.00612727 0.0281749 0.00332804)
(0.00552247 0.0338646 0.00351736)
(0.00479497 0.0400589 0.00351658)
(0.00394372 0.04734 0.00326465)
(0.0029913 0.0559501 0.00274462)
(0.00199638 0.0646004 0.0020628)
(0.00114112 0.0692895 0.00144786)
(0.000468524 0.0640353 0.000944618)
(3.65634e-05 0.0350711 0.000424164)
(2.50009e-05 -0.0119771 0.000541125)
(0.000310458 -0.0308573 0.00118169)
(0.000751898 -0.0445468 0.001563)
(0.00129222 -0.0539611 0.00177908)
(0.00186583 -0.0598674 0.0018849)
(0.00243242 -0.0631861 0.00192211)
(0.00298182 -0.0647492 0.00192047)
(0.0035203 -0.0650829 0.00189515)
(0.00404981 -0.0644425 0.00185619)
(0.00456061 -0.0629504 0.00180712)
(0.00504796 -0.0606626 0.0017457)
(0.00550656 -0.0575972 0.00167275)
(0.00592621 -0.0537875 0.00158964)
(0.00629857 -0.0492921 0.00149784)
(0.00661645 -0.0441989 0.00139942)
(0.0068742 -0.0386182 0.00129795)
(0.00706781 -0.0326692 0.00119919)
(0.00719519 -0.0264671 0.00111164)
(0.00725619 -0.0201129 0.00104684)
(0.00725232 -0.0136871 0.0010191)
(0.00718628 -0.0072468 0.0010448)
(0.00706121 -0.000831719 0.00114075)
(0.00688031 0.00552616 0.00132031)
(0.00664495 0.0117974 0.0015873)
(0.00635176 0.0179615 0.0019294)
(0.00599155 0.0240301 0.00231428)
(0.00554964 0.0300954 0.00269137)
(0.00500827 0.0363968 0.00299718)
(0.00435153 0.0433548 0.0031579)
(0.0035752 0.0514471 0.0030957)
(0.00269984 0.0606697 0.00276577)
(0.00179112 0.0693792 0.00222814)
(0.00101661 0.0735168 0.00165555)
(0.000410388 0.0671584 0.00108776)
(2.91178e-05 0.0362661 0.000437749)
(1.84178e-05 -0.0132491 0.000474656)
(0.000268471 -0.0338601 0.00107723)
(0.000663507 -0.04863 0.00146005)
(0.00115395 -0.0586128 0.00168944)
(0.00167865 -0.0647233 0.00180928)
(0.00219998 -0.0680549 0.00185909)
(0.00271089 -0.0695528 0.00186866)
(0.00321484 -0.069777 0.00185305)
(0.00371006 -0.0689916 0.00182051)
(0.00419065 -0.0673092 0.00177473)
(0.00465051 -0.0647735 0.0017162)
(0.0050819 -0.0614065 0.00164662)
(0.00547696 -0.0572415 0.00156695)
(0.00582794 -0.0523426 0.00147762)
(0.0061283 -0.0468082 0.00137927)
(0.00637294 -0.0407614 0.00127362)
(0.00655817 -0.034336 0.00116437)
(0.00668177 -0.0276634 0.00105795)
(0.00674309 -0.0208611 0.000964059)
(0.0067429 -0.0140232 0.00089545)
(0.00668331 -0.00721914 0.00086766)
(0.00656745 -0.000495408 0.000897869)
(0.00639811 0.00611815 0.00100198)
(0.00617677 0.0126094 0.00119009)
(0.00590212 0.0189946 0.00146111)
(0.00556733 0.0253387 0.00179791)
(0.00515934 0.0317909 0.00216502)
(0.00466051 0.0386303 0.0025085)
(0.00405405 0.0462698 0.0027557)
(0.00333439 0.0550858 0.00282105)
(0.00251956 0.0648398 0.00263885)
(0.00167831 0.0735792 0.00222929)
(0.000959683 0.0772546 0.00171445)
(0.000390224 0.0699258 0.00113036)
(3.06198e-05 0.0373434 0.000426436)
(2.04518e-05 -0.0143275 0.000417783)
(0.000257049 -0.0364137 0.000978315)
(0.000628956 -0.0521103 0.00134701)
(0.00108853 -0.0625868 0.00157234)
(0.00157781 -0.0688818 0.00169212)
(0.00206216 -0.0722346 0.00174402)
(0.00253671 -0.0736822 0.00175681)
(0.00300531 -0.0738121 0.0017454)
(0.00346541 -0.0728903 0.00171654)
(0.00391118 -0.0710254 0.00167401)
(0.00433663 -0.0682559 0.00162056)
(0.00473513 -0.0646008 0.0015579)
(0.00509953 -0.0600958 0.00148672)
(0.00542308 -0.0548124 0.00140679)
(0.00570028 -0.0488595 0.00131754)
(0.00592687 -0.0423723 0.00121895)
(0.00609968 -0.0354974 0.00111264)
(0.00621654 -0.0283792 0.0010028)
(0.00627644 -0.0211485 0.000896883)
(0.00627944 -0.0139125 0.000805933)
(0.00622674 -0.00675221 0.000744523)
(0.00612033 0.000276735 0.000729661)
(0.00596268 0.00714173 0.000778313)
(0.00575562 0.0138411 0.00090375)
(0.0054983 0.0204203 0.00111131)
(0.0051852 0.0269906 0.00139406)
(0.00480488 0.0337555 0.00172894)
(0.00434109 0.0410354 0.00207323)
(0.00377784 0.0492385 0.0023609)
(0.00310924 0.0586456 0.00250597)
(0.00235079 0.0688029 0.00243058)
(0.0015723 0.0775003 0.00212552)
(0.000903725 0.0807425 0.00167253)
(0.000367072 0.0725099 0.00110357)
(2.84451e-05 0.0383755 0.000398138)
(1.70246e-05 -0.015398 0.00038841)
(0.000236001 -0.0389831 0.000930998)
(0.000584629 -0.0556336 0.00129438)
(0.001018 -0.0666216 0.00151777)
(0.00147943 -0.0731124 0.00163678)
(0.00193565 -0.0764972 0.00168894)
(0.00238293 -0.0779045 0.00170267)
(0.00282483 -0.0779494 0.00169276)
(0.00325806 -0.0769006 0.00166639)
(0.00367665 -0.0748637 0.00162779)
(0.00407485 -0.0718741 0.00157994)
(0.00444658 -0.0679505 0.00152489)
(0.00478563 -0.0631318 0.00146354)
(0.00508644 -0.0574955 0.00139548)
(0.00534471 -0.0511584 0.00131938)
(0.00555713 -0.0442637 0.00123381)
(0.00572111 -0.0369666 0.00113834)
(0.00583465 -0.0294204 0.00103464)
(0.00589647 -0.0217659 0.000927493)
(0.00590597 -0.0141212 0.000825501)
(0.0058634 -0.00657832 0.000741328)
(0.00576976 0.000796739 0.00069092)
(0.00562643 0.00796498 0.000691467)
(0.00543446 0.0149283 0.000758381)
(0.0051931 0.0217515 0.000901762)
(0.00489764 0.0285813 0.00112244)
(0.00453816 0.0356658 0.00140761)
(0.00410026 0.0433625 0.00172528)
(0.00356967 0.0520767 0.00201801)
(0.00294095 0.062005 0.00220348)
(0.0022273 0.0725059 0.00219787)
(0.00149826 0.081156 0.00197153)
(0.000867167 0.08402 0.00157629)
(0.000352901 0.0749567 0.00103968)
(2.79006e-05 0.0393713 0.000363413)
(1.81653e-05 -0.0163708 0.000360896)
(0.000230916 -0.0413172 0.000878606)
(0.000567563 -0.0588283 0.00122753)
(0.000982819 -0.0702727 0.00144141)
(0.00142137 -0.0769352 0.00155449)
(0.00185232 -0.0803465 0.00160351)
(0.00227362 -0.0817147 0.00161578)
(0.00268896 -0.0816776 0.00160544)
(0.00309481 -0.0805059 0.00157963)
(0.0034854 -0.0783028 0.00154289)
(0.0038554 -0.0751022 0.0014987)
(0.0041994 -0.070924 0.00144965)
(0.0045121 -0.0658121 0.00139702)
(0.00478905 -0.0598513 0.00134047)
(0.00502701 -0.0531656 0.00127827)
(0.00522358 -0.0459049 0.00120803)
(0.00537677 -0.03823 0.00112771)
(0.00548487 -0.0302998 0.00103686)
(0.00554647 -0.0222612 0.000937813)
(0.00556052 -0.0142398 0.000836774)
(0.00552648 -0.00633577 0.000744265)
(0.00544431 0.00137624 0.000674659)
(0.00531445 0.00885064 0.000644461)
(0.00513721 0.0160906 0.000669758)
(0.00491146 0.0231747 0.000763244)
(0.00463278 0.0302764 0.000930775)
(0.00429233 0.0376787 0.001167)
(0.00387741 0.0457669 0.00144895)
(0.0033756 0.0549398 0.00172809)
(0.0027822 0.0653163 0.00192829)
(0.00210866 0.0760911 0.00196498)
(0.00142411 0.0846657 0.00179597)
(0.000827222 0.087169 0.00145193)
(0.000335173 0.0773089 0.000956162)
(2.57935e-05 0.0403359 0.000325997)
(1.6751e-05 -0.0173472 0.000348183)
(0.000220951 -0.0436692 0.000855719)
(0.00054438 -0.0620442 0.00119811)
(0.000942514 -0.0739366 0.00140652)
(0.00136079 -0.0807603 0.00151516)
(0.00176992 -0.0841921 0.00156118)
(0.002169 -0.085519 0.00157162)
(0.00256159 -0.0853997 0.00156041)
(0.0029438 -0.0841065 0.00153482)
(0.00331 -0.0817419 0.00149969)
(0.00365529 -0.0783392 0.00145896)
(0.00397488 -0.0739214 0.00141567)
(0.00426438 -0.0685381 0.00137147)
(0.00452043 -0.0622806 0.00132619)
(0.00474082 -0.0552789 0.00127791)
(0.00492399 -0.0476867 0.0012235)
(0.00506856 -0.0396675 0.00115953)
(0.00517306 -0.0313826 0.00108349)
(0.00523598 -0.0229821 0.000995233)
(0.00525578 -0.0145966 0.0008983)
(0.00523113 -0.0063327 0.000800842)
(0.005161 0.00172708 0.000715541)
(0.00504479 0.00953005 0.000658278)
(0.00488192 0.0170783 0.000645854)
(0.00467077 0.0244596 0.000693171)
(0.00440705 0.0318676 0.000809951)
(0.00408277 0.0396118 0.000996472)
(0.00368681 0.0480975 0.0012369)
(0.00320865 0.0577127 0.0014906)
(0.00264455 0.0685042 0.00168823)
(0.00200487 0.0795213 0.00174732)
(0.00135842 0.0880182 0.00161866)
(0.000791247 0.0901845 0.00131831)
(0.000319201 0.0795626 0.000865996)
(2.42515e-05 0.0412616 0.000289342)
(1.71889e-05 -0.0182694 0.000337273)
(0.000217233 -0.0458797 0.000832365)
(0.000531581 -0.06505 0.001165)
(0.000915566 -0.0773434 0.00136532)
(0.00131558 -0.0843038 0.00146782)
(0.00170439 -0.0877472 0.00150973)
(0.00208242 -0.0890305 0.00151743)
(0.00245319 -0.0888292 0.00150445)
(0.00281265 -0.0874169 0.00147807)
(0.00315541 -0.0848953 0.00144341)
(0.00347694 -0.0812986 0.00140478)
(0.00377305 -0.0766544 0.00136568)
(0.00404018 -0.0710199 0.0013282)
(0.00427592 -0.0644936 0.00129255)
(0.00447898 -0.0572111 0.00125692)
(0.00464863 -0.0493288 0.00121793)
(0.0047841 -0.0410104 0.00117133)
(0.00488425 -0.0324166 0.00111312)
(0.00494758 -0.0236968 0.00104094)
(0.0049722 -0.0149827 0.000955652)
(0.00495608 -0.00638461 0.000862598)
(0.00489725 0.00200943 0.000772015)
(0.00479407 0.0101402 0.000698295)
(0.00464504 0.0180075 0.000658132)
(0.00444788 0.0257048 0.000667874)
(0.00419825 0.0334404 0.000740247)
(0.00388876 0.0415424 0.000880075)
(0.00350965 0.050428 0.00107757)
(0.00305219 0.0604686 0.0012993)
(0.00251379 0.0716402 0.00148306)
(0.00190439 0.0828607 0.00155051)
(0.0012927 0.0912622 0.00144943)
(0.000753679 0.0930954 0.00118589)
(0.000302012 0.0817292 0.000776588)
(2.23589e-05 0.0421484 0.000255287)
(1.61768e-05 -0.0191927 0.000336171)
(0.000209971 -0.0480911 0.000829867)
(0.00051362 -0.0680463 0.00115891)
(0.000882956 -0.080724 0.00135407)
(0.00126532 -0.087807 0.00145142)
(0.00163525 -0.0912544 0.0014894)
(0.00199415 -0.0924906 0.00149439)
(0.00234533 -0.0922056 0.00147975)
(0.00268453 -0.0906743 0.00145286)
(0.00300653 -0.0879983 0.00141907)
(0.00330715 -0.0842143 0.00138301)
(0.00358274 -0.0793558 0.00134849)
(0.00383046 -0.0734876 0.0013179)
(0.00404873 -0.0667158 0.00129165)
(0.00423709 -0.0591804 0.00126804)
(0.00439549 -0.0510393 0.00124348)
(0.00452368 -0.0424545 0.00121311)
(0.0046209 -0.0335838 0.00117171)
(0.00468564 -0.0245735 0.00111508)
(0.0047157 -0.015554 0.00104169)
(0.00470842 -0.00663645 0.0009542)
(0.00466088 0.0020871 0.000860401)
(0.0045704 0.0105518 0.000773062)
(0.00443454 0.018754 0.000708537)
(0.00425038 0.0267908 0.000684246)
(0.00401344 0.0348804 0.000715313)
(0.00371685 0.0433645 0.000810223)
(0.0033521 0.0526651 0.000964179)
(0.00291215 0.0631319 0.00115006)
(0.00239568 0.0746708 0.00131259)
(0.00181273 0.0860778 0.0013785)
(0.00123206 0.0943804 0.00129527)
(0.000718808 0.0958907 0.00106213)
(0.000286381 0.0838034 0.000693193)
(2.09423e-05 0.0429944 0.000225164)
(1.60759e-05 -0.020077 0.000336961)
(0.000205334 -0.0501964 0.00082811)
(0.000499978 -0.0708823 0.00115052)
(0.000856182 -0.083907 0.00133751)
(0.00122247 -0.0910938 0.00142768)
(0.00157519 -0.0945389 0.00146049)
(0.00191661 -0.0957265 0.00146193)
(0.00224983 -0.095359 0.00144503)
(0.00257042 -0.0937116 0.00141716)
(0.00287336 -0.0908865 0.00138386)
(0.00315483 -0.086924 0.00135005)
(0.00341165 -0.0818643 0.00131981)
(0.00364162 -0.0757813 0.00129583)
(0.00384387 -0.0687888 0.00127881)
(0.0040186 -0.0610312 0.00126728)
(0.00416638 -0.0526668 0.00125771)
(0.00428753 -0.043855 0.00124495)
(0.00438164 -0.0347478 0.00122296)
(0.00444735 -0.0254856 0.00118593)
(0.00448228 -0.016194 0.00112994)
(0.00448322 -0.00698192 0.00105469)
(0.00444637 0.00205716 0.000964968)
(0.00436798 0.0108535 0.000871171)
(0.00424457 0.0193991 0.000788666)
(0.0040725 0.0277914 0.000735496)
(0.00384707 0.036255 0.000728885)
(0.00356184 0.0451387 0.0007807)
(0.00320944 0.0548637 0.000890787)
(0.00278444 0.0657527 0.00103801)
(0.00228693 0.0776406 0.00117392)
(0.00172742 0.0892095 0.00123109)
(0.00117485 0.0974 0.0011584)
(0.000685565 0.0985882 0.000950268)
(0.000271558 0.0857951 0.000618422)
(1.96263e-05 0.0438033 0.000199737)
(1.5209e-05 -0.0209576 0.000343354)
(0.000198784 -0.0522893 0.000837719)
(0.000483622 -0.0736914 0.00115578)
(0.000826733 -0.0870466 0.00133503)
(0.00117771 -0.0943252 0.00141779)
(0.00151449 -0.0977619 0.00144519)
(0.00183997 -0.0988983 0.00144303)
(0.00215699 -0.0984468 0.00142405)
(0.00246095 -0.0966837 0.00139563)
(0.00274704 -0.0937124 0.00136347)
(0.00301173 -0.0895773 0.00133265)
(0.00325228 -0.0843269 0.00130743)
(0.00346702 -0.0780439 0.0012906)
(0.00365562 -0.0708496 0.00128296)
(0.00381883 -0.0628926 0.00128313)
(0.0039577 -0.0543314 0.00128763)
(0.00407302 -0.0453215 0.00129123)
(0.00416476 -0.0360085 0.00128741)
(0.00423174 -0.0265248 0.00126928)
(0.0042715 -0.0169883 0.00123106)
(0.00428042 -0.00750294 0.00116986)
(0.00425391 0.00183941 0.00108741)
(0.00418716 0.010966 0.000991398)
(0.00407563 0.0198641 0.000895557)
(0.00391488 0.0286294 0.000817863)
(0.00369992 0.0374889 0.000777047)
(0.0034247 0.0467944 0.000787867)
(0.00308288 0.0569604 0.000854409)
(0.00267061 0.068278 0.000961219)
(0.00218939 0.0805105 0.00106666)
(0.00165052 0.0922317 0.0011096)
(0.00112307 0.100309 0.00104153)
(0.000655573 0.101183 0.000853356)
(0.000258497 0.0877052 0.000554392)
(1.86643e-05 0.0445769 0.000179378)
(1.47138e-05 -0.0218067 0.000349782)
(0.000193606 -0.0542952 0.000844042)
(0.000469912 -0.076369 0.00115318)
(0.000801332 -0.0900249 0.00132083)
(0.00113854 -0.0973811 0.00139377)
(0.00146099 -0.100805 0.00141437)
(0.00177218 -0.101889 0.00140778)
(0.00207465 -0.101356 0.00138625)
(0.00236369 -0.0994802 0.00135706)
(0.00263469 -0.0963684 0.00132603)
(0.00288442 -0.0920698 0.00129842)
(0.00311047 -0.0866412 0.00127863)
(0.00331163 -0.0801747 0.00126957)
(0.00348802 -0.0727993 0.00127214)
(0.0036408 -0.0646676 0.00128505)
(0.00377146 -0.0559381 0.00130496)
(0.00388121 -0.0467618 0.00132659)
(0.00397041 -0.0372765 0.00134313)
(0.00403818 -0.0276046 0.00134683)
(0.0040821 -0.0178539 0.00133027)
(0.00409823 -0.00812007 0.00128801)
(0.00408131 0.00150974 0.00121861)
(0.00402552 0.0109615 0.00112655)
(0.00392515 0.0202173 0.00102329)
(0.00377492 0.0293689 0.000926128)
(0.00356944 0.0386416 0.000854871)
(0.00330296 0.0483852 0.000826908)
(0.00297015 0.0590026 0.000850431)
(0.00256869 0.0707489 0.000915609)
(0.00210148 0.0833148 0.000987663)
(0.00158081 0.0951711 0.00101218)
(0.00107587 0.103126 0.000944088)
(0.000628181 0.103688 0.000771585)
(0.000246656 0.0895425 0.000501348)
(1.78398e-05 0.0453189 0.000164019)
(1.39092e-05 -0.0226498 0.00035778)
(0.000187927 -0.0562824 0.000852612)
(0.000455915 -0.0790129 0.0011523)
(0.000776371 -0.0929545 0.00130764)
(0.00110094 -0.100378 0.00137027)
(0.00141048 -0.103784 0.00138381)
(0.00170892 -0.104814 0.00137274)
(0.00199849 -0.104197 0.00134874)
(0.00227438 -0.10221 0.00131899)
(0.00253217 -0.0989613 0.00128941)
(0.00276884 -0.0945052 0.00126535)
(0.00298233 -0.0889075 0.00125128)
(0.00317175 -0.0822699 0.00125012)
(0.00333757 -0.0747288 0.00126276)
(0.00348127 -0.0664408 0.00128798)
(0.00360468 -0.0575643 0.0013225)
(0.00370939 -0.0482462 0.00136117)
(0.00379614 -0.0386158 0.00139712)
(0.00386437 -0.0287846 0.00142218)
(0.00391183 -0.0188481 0.00142782)
(0.00393445 -0.0088904 0.00140654)
(0.00392642 0.00100958 0.00135391)
(0.00388097 0.0107796 0.00127094)
(0.00379129 0.0203973 0.00116613)
(0.00365109 0.0299486 0.00105521)
(0.00345452 0.0396536 0.000958254)
(0.00319596 0.0498554 0.00089475)
(0.00287105 0.0609402 0.000876731)
(0.00247885 0.0731235 0.000899936)
(0.0020237 0.0860223 0.000936579)
(0.00151901 0.0980091 0.000939319)
(0.00103401 0.105844 0.000867222)
(0.000604023 0.106103 0.000706203)
(0.000236403 0.09131 0.000460009)
(1.72711e-05 0.0460315 0.000153563)
(1.33489e-05 -0.0234669 0.000363928)
(0.000183231 -0.0581972 0.0008543)
(0.000444046 -0.0815469 0.00113983)
(0.000754933 -0.0957487 0.0012796)
(0.00106841 -0.103227 0.00133014)
(0.00136659 -0.106611 0.00133569)
(0.00165381 -0.107587 0.00131953)
(0.001932 -0.106888 0.00129266)
(0.00219628 -0.104792 0.0012621)
(0.00244241 -0.101411 0.00123379)
(0.00266759 -0.0968052 0.00121322)
(0.00287001 -0.091049 0.00120495)
(0.00304906 -0.0842535 0.00121192)
(0.00320545 -0.0765626 0.0012351)
(0.0033409 -0.068137 0.00127331)
(0.00345753 -0.059135 0.00132338)
(0.00355725 -0.0496993 0.00138023)
(0.00364121 -0.039951 0.00143696)
(0.00370921 -0.0299892 0.0014851)
(0.00375925 -0.0198955 0.0015152)
(0.00378726 -0.00973965 0.00151802)
(0.00378706 0.000410926 0.00148634)
(0.00375106 0.0104888 0.00141768)
(0.00367133 0.0204682 0.00131714)
(0.00354054 0.0304277 0.00119823)
(0.00335223 0.0405791 0.00108059)
(0.00310086 0.0512538 0.000985286)
(0.00278286 0.0628162 0.000927892)
(0.00239867 0.0754383 0.000909627)
(0.001954 0.0886626 0.000909792)
(0.00146343 0.100768 0.000888431)
(0.000996238 0.108477 0.00080923)
(0.000582179 0.108437 0.000656079)
(0.000227165 0.093014 0.000429486)
(1.67832e-05 0.0467171 0.000147466)
(1.269e-05 -0.0242776 0.000368968)
(0.000178696 -0.0600921 0.000852769)
(0.000433132 -0.0840459 0.00112284)
(0.000735614 -0.0984938 0.00124656)
(0.00103934 -0.106018 0.00128495)
(0.00132755 -0.109375 0.00128253)
(0.00160498 -0.110294 0.00126132)
(0.00187327 -0.109512 0.00123159)
(0.0021275 -0.107309 0.00120013)
(0.00236358 -0.103799 0.00117293)
(0.00257889 -0.0990486 0.00115551)
(0.0027718 -0.0931414 0.00115247)
(0.00294187 -0.0861978 0.0011668)
(0.00309001 -0.0783689 0.00119949)
(0.0032181 -0.0698194 0.00124951)
(0.00332848 -0.0607085 0.00131383)
(0.00342335 -0.0511748 0.0013876)
(0.00350424 -0.0413313 0.00146411)
(0.00357135 -0.0312648 0.00153485)
(0.00362303 -0.021041 0.00158985)
(0.00365536 -0.0107131 0.00161847)
(0.00366196 -0.00033336 0.00161101)
(0.00363457 0.0100396 0.00156145)
(0.00356422 0.0203788 0.00147107)
(0.00344248 0.0307548 0.0013504)
(0.00326212 0.0413674 0.00121785)
(0.00301754 0.0525324 0.00109535)
(0.00270584 0.0645873 0.00100162)
(0.00232868 0.0776568 0.000943193)
(0.00189309 0.0912086 0.000906514)
(0.00141487 0.103431 0.000859289)
(0.000963318 0.111019 0.000770256)
(0.000563288 0.110691 0.000621441)
(0.000219324 0.0946575 0.000409774)
(1.65228e-05 0.0473775 0.00014549)
(1.22452e-05 -0.0250668 0.000371127)
(0.000175086 -0.0619261 0.00084321)
(0.000424252 -0.0864518 0.00109417)
(0.000719666 -0.101123 0.00119977)
(0.00101505 -0.108681 0.00122506)
(0.00129471 -0.112007 0.00121418)
(0.0015637 -0.112867 0.00118756)
(0.00182342 -0.112003 0.00115464)
(0.00206894 -0.109695 0.00112197)
(0.00229632 -0.10606 0.0010955)
(0.00250308 -0.101171 0.00108081)
(0.0026877 -0.0951207 0.00108254)
(0.00284989 -0.0880382 0.00110375)
(0.00299067 -0.0800823 0.00114553)
(0.00311204 -0.0714221 0.00120695)
(0.0032165 -0.0622174 0.00128521)
(0.00330652 -0.0526036 0.00137569)
(0.00338394 -0.0426858 0.0014719)
(0.00344937 -0.0325384 0.00156547)
(0.00350157 -0.0222105 0.00164612)
(0.00353688 -0.0117368 0.00170219)
(0.00354892 -0.00115121 0.00172183)
(0.00352893 0.00950018 0.00169564)
(0.00346705 0.0201919 0.00162084)
(0.00335372 0.0309865 0.00150442)
(0.00318089 0.0420696 0.00136281)
(0.00294273 0.0537363 0.00121819)
(0.00263686 0.0662926 0.00109193)
(0.00226604 0.0798122 0.000995622)
(0.0018385 0.0936865 0.000922799)
(0.00137128 0.106017 0.000848961)
(0.000933702 0.113484 0.000748165)
(0.000546247 0.112872 0.00060064)
(0.00021223 0.0962445 0.000399536)
(1.63083e-05 0.048014 0.000146936)
(1.182e-05 -0.0258502 0.000370952)
(0.000171969 -0.0637414 0.00082842)
(0.000416763 -0.0888246 0.00105916)
(0.000706311 -0.103706 0.00114661)
(0.000994663 -0.111288 0.00115906)
(0.00126707 -0.114578 0.00113992)
(0.00152889 -0.115377 0.00110797)
(0.00178134 -0.11443 0.0010718)
(0.00201949 -0.112018 0.00103768)
(0.00223952 -0.108261 0.0010115)
(0.00243904 -0.103237 0.000998822)
(0.0026166 -0.0970488 0.00100432)
(0.00277199 -0.0898343 0.0010311)
(0.00290631 -0.0817595 0.00108037)
(0.00302166 -0.0729982 0.00115141)
(0.00312065 -0.0637113 0.00124167)
(0.00320595 -0.0540317 0.00134691)
(0.00327968 -0.0440571 0.00146108)
(0.00334284 -0.0338497 0.00157614)
(0.0033946 -0.0234419 0.0016819)
(0.00343168 -0.0128479 0.00176605)
(0.00344788 -0.00208044 0.00181498)
(0.00343413 0.00883105 0.00181607)
(0.00337983 0.0198664 0.00176227)
(0.00327435 0.0310806 0.00165636)
(0.0031087 0.0426433 0.00151198)
(0.00287671 0.0548251 0.00135083)
(0.00257634 0.0678956 0.00119637)
(0.0022113 0.0818736 0.00106499)
(0.0017909 0.0960735 0.000957208)
(0.00133337 0.108514 0.000856409)
(0.000908025 0.115864 0.000742212)