/*--------------------------------*- C++ -*----------------------------------*\
| =========                 |                                                 |
| \\      /  F ield         | OpenFOAM: The Open Source CFD Toolbox           |
|  \\    /   O peration     | Version:  v2006                                 |
|   \\  /    A nd           | Website:  www.openfoam.com                      |
|    \\/     M anipulation  |                                                 |
\*---------------------------------------------------------------------------*/
FoamFile
{
    version     2.0;
    format      ascii;
    class       volScalarField;
    location    "17";
    object      nut;
}
// * * * * * * * * * * * * * * * * * * * * * * * * * * * * * * * * * * * * * //

dimensions      [0 2 -1 0 0 0 0];


internalField   nonuniform List<scalar> 
78750
(
1.25454e-06
6.98351e-06
1.43168e-05
1.26052e-05
1.29766e-05
1.28976e-05
1.29516e-05
1.29963e-05
1.30538e-05
1.31203e-05
1.32038e-05
1.33018e-05
1.34062e-05
1.34684e-05
1.31618e-05
1.29006e-05
1.26774e-05
1.24937e-05
1.23538e-05
1.22581e-05
1.22049e-05
1.21889e-05
1.22052e-05
1.22452e-05
1.22949e-05
1.23245e-05
1.20239e-05
1.15488e-05
1.09777e-05
1.02988e-05
9.21989e-06
7.42024e-06
5.54535e-06
3.46843e-06
6.56049e-08
1.35779e-07
8.10312e-06
1.40014e-05
1.9664e-05
2.3819e-05
2.88172e-05
3.52244e-05
4.36044e-05
5.17185e-05
5.12756e-05
4.57171e-05
3.71827e-05
3.15272e-05
2.84387e-05
2.68005e-05
2.58931e-05
2.53745e-05
2.50892e-05
2.49667e-05
2.49672e-05
2.5082e-05
2.52886e-05
2.5527e-05
2.5704e-05
2.56934e-05
2.52954e-05
2.42129e-05
2.20983e-05
1.87554e-05
1.44346e-05
9.96385e-06
6.64133e-06
5.42252e-06
5.72358e-06
7.8647e-08
2.22255e-07
1.1778e-05
1.41959e-05
1.29824e-05
1.17562e-05
1.08981e-05
1.06216e-05
1.12092e-05
1.26563e-05
1.4547e-05
1.66723e-05
1.89492e-05
2.1166e-05
2.3133e-05
2.47392e-05
2.59584e-05
2.68178e-05
2.73657e-05
2.76505e-05
2.77141e-05
2.75957e-05
2.72629e-05
2.661e-05
2.55734e-05
2.41094e-05
2.21709e-05
1.97279e-05
1.67467e-05
1.32421e-05
9.48948e-06
6.23205e-06
4.33126e-06
4.4107e-06
7.37571e-06
9.37369e-08
1.82584e-07
1.27913e-05
2.91637e-05
2.23833e-05
1.81743e-05
1.57967e-05
1.46424e-05
1.38248e-05
1.28942e-05
1.20316e-05
1.18291e-05
1.26429e-05
1.45062e-05
1.73798e-05
2.12144e-05
2.58489e-05
3.07205e-05
3.47737e-05
3.69798e-05
3.71206e-05
3.57209e-05
3.33772e-05
3.05151e-05
2.74338e-05
2.43609e-05
2.1427e-05
1.86124e-05
1.57431e-05
1.25519e-05
9.01435e-06
5.82479e-06
3.97272e-06
4.13289e-06
7.86497e-06
9.26447e-08
1.52747e-07
7.48252e-06
2.89215e-05
2.04705e-05
1.41792e-05
1.06244e-05
8.63181e-06
7.31569e-06
6.45707e-06
6.25288e-06
6.88557e-06
8.44391e-06
1.09806e-05
1.45216e-05
1.9062e-05
2.44652e-05
3.01511e-05
3.48267e-05
3.70199e-05
3.63049e-05
3.34485e-05
2.95319e-05
2.53899e-05
2.15533e-05
1.83154e-05
1.57554e-05
1.37282e-05
1.19121e-05
9.85787e-06
7.31077e-06
4.84367e-06
3.43708e-06
3.96631e-06
5.95843e-06
9.46724e-08
1.12707e-07
5.06232e-06
2.43489e-05
2.19096e-05
1.45979e-05
1.0334e-05
7.73751e-06
5.66557e-06
4.38873e-06
4.29005e-06
5.34585e-06
7.4693e-06
1.06259e-05
1.47512e-05
1.96943e-05
2.51873e-05
3.07462e-05
3.54486e-05
3.80203e-05
3.76438e-05
3.45871e-05
2.98685e-05
2.46707e-05
1.99937e-05
1.63943e-05
1.39419e-05
1.24037e-05
1.14103e-05
1.04417e-05
8.83495e-06
6.49064e-06
4.68987e-06
4.91665e-06
8.762e-06
1.04431e-07
8.12002e-08
4.51327e-06
1.93099e-05
1.93266e-05
1.22755e-05
6.49195e-06
3.44734e-06
2.42405e-06
2.77028e-06
4.23035e-06
6.75391e-06
1.02672e-05
1.44609e-05
1.88091e-05
2.28982e-05
2.66593e-05
3.02709e-05
3.37652e-05
3.64567e-05
3.68174e-05
3.34573e-05
2.68403e-05
1.95949e-05
1.40195e-05
1.05488e-05
8.72716e-06
8.0242e-06
7.93067e-06
7.85347e-06
7.23277e-06
6.05571e-06
5.30551e-06
7.20186e-06
6.46032e-06
1.17346e-07
8.02561e-08
3.45533e-06
1.17171e-05
8.80344e-06
3.53077e-06
1.96227e-06
2.18743e-06
3.67659e-06
6.42909e-06
1.01662e-05
1.38018e-05
1.62858e-05
1.78511e-05
1.93269e-05
2.12412e-05
2.37703e-05
2.694e-05
3.07008e-05
3.45297e-05
3.65159e-05
3.3239e-05
2.43144e-05
1.55227e-05
1.00206e-05
7.19448e-06
6.15654e-06
6.35282e-06
7.03608e-06
7.17004e-06
6.57213e-06
6.03422e-06
6.88516e-06
1.51152e-05
4.28237e-06
9.46296e-08
9.60643e-08
2.99564e-06
8.34869e-06
3.44259e-06
2.42563e-06
3.23121e-06
5.50985e-06
8.75171e-06
1.11809e-05
1.20492e-05
1.2647e-05
1.39869e-05
1.63138e-05
1.94598e-05
2.30304e-05
2.66019e-05
2.9899e-05
3.27367e-05
3.46603e-05
3.43891e-05
2.99305e-05
2.17258e-05
1.38996e-05
8.60022e-06
5.47877e-06
3.89696e-06
3.52642e-06
4.23131e-06
5.5456e-06
6.51276e-06
7.34628e-06
9.88123e-06
1.57586e-05
3.3955e-06
5.89628e-08
1.12111e-07
2.76998e-06
7.54894e-06
3.33302e-06
3.36235e-06
5.02864e-06
7.59915e-06
9.86225e-06
1.11329e-05
1.18871e-05
1.26898e-05
1.39292e-05
1.59269e-05
1.88697e-05
2.26325e-05
2.67202e-05
3.04821e-05
3.34205e-05
3.52793e-05
3.59018e-05
3.4942e-05
3.1449e-05
2.44524e-05
1.60053e-05
9.54468e-06
5.60095e-06
3.3893e-06
2.34962e-06
2.30214e-06
3.33286e-06
5.53144e-06
9.48727e-06
1.56352e-05
3.672e-06
4.48142e-08
1.16258e-07
2.80789e-06
8.36596e-06
3.80882e-06
4.1615e-06
6.10436e-06
8.68865e-06
1.0521e-05
1.09085e-05
1.05483e-05
1.04144e-05
1.11301e-05
1.30762e-05
1.65189e-05
2.14089e-05
2.69556e-05
3.1727e-05
3.45763e-05
3.52339e-05
3.41918e-05
3.23241e-05
3.03548e-05
2.8303e-05
2.51243e-05
1.95444e-05
1.28131e-05
7.56046e-06
4.30926e-06
2.49445e-06
1.70182e-06
1.91107e-06
3.72738e-06
9.23546e-06
2.95694e-06
4.81324e-08
1.08972e-07
2.78492e-06
1.37756e-05
5.35989e-06
5.3529e-06
7.26764e-06
9.67565e-06
1.10664e-05
1.07826e-05
9.63516e-06
8.74263e-06
8.77657e-06
1.01028e-05
1.3034e-05
1.77547e-05
2.3743e-05
2.94614e-05
3.34801e-05
3.53825e-05
3.53245e-05
3.35637e-05
3.04965e-05
2.68443e-05
2.34228e-05
2.05232e-05
1.75253e-05
1.3453e-05
8.82287e-06
5.19069e-06
2.97241e-06
1.87881e-06
1.74649e-06
3.29193e-06
2.46295e-06
5.55317e-08
9.12528e-08
2.68096e-06
1.72245e-05
7.83241e-06
6.29523e-06
7.25303e-06
8.90415e-06
1.00268e-05
9.68942e-06
8.25324e-06
6.99247e-06
6.78251e-06
7.98481e-06
1.09181e-05
1.5927e-05
2.26327e-05
2.90107e-05
3.29824e-05
3.44439e-05
3.42849e-05
3.32394e-05
3.16121e-05
2.93175e-05
2.61346e-05
2.22008e-05
1.81508e-05
1.45039e-05
1.11163e-05
7.72349e-06
4.81642e-06
2.95292e-06
2.17141e-06
2.69598e-06
3.49495e-06
6.19712e-08
6.44096e-08
2.32531e-06
1.08105e-05
1.23742e-05
8.31498e-06
7.65662e-06
7.93173e-06
7.93507e-06
6.98058e-06
5.60787e-06
4.95558e-06
5.55556e-06
7.64184e-06
1.15394e-05
1.73525e-05
2.40821e-05
2.97646e-05
3.32833e-05
3.47895e-05
3.47561e-05
3.35581e-05
3.14967e-05
2.88656e-05
2.5917e-05
2.27661e-05
1.94005e-05
1.58616e-05
1.23066e-05
8.94506e-06
6.02829e-06
3.91736e-06
2.85851e-06
3.18548e-06
6.09236e-06
6.57158e-08
4.50121e-08
2.16659e-06
8.53986e-06
1.46749e-05
1.00387e-05
8.11866e-06
7.11654e-06
5.66427e-06
4.13525e-06
3.52327e-06
4.11432e-06
6.01175e-06
9.45996e-06
1.4518e-05
2.03717e-05
2.55995e-05
2.95156e-05
3.22228e-05
3.39145e-05
3.46507e-05
3.44015e-05
3.30835e-05
3.05885e-05
2.69336e-05
2.25335e-05
1.81671e-05
1.44476e-05
1.14498e-05
8.87144e-06
6.49343e-06
4.55014e-06
3.50456e-06
4.01568e-06
9.32961e-06
7.04638e-08
4.10613e-08
2.32319e-06
9.22274e-06
1.60512e-05
1.04908e-05
6.17273e-06
3.72145e-06
2.68702e-06
2.8266e-06
4.09979e-06
6.69243e-06
1.08394e-05
1.60628e-05
2.08732e-05
2.44447e-05
2.72392e-05
2.97923e-05
3.21605e-05
3.40513e-05
3.50766e-05
3.4919e-05
3.33948e-05
3.04879e-05
2.64374e-05
2.18173e-05
1.73668e-05
1.3601e-05
1.06126e-05
8.20975e-06
6.19708e-06
4.63752e-06
3.91616e-06
4.94349e-06
9.15913e-06
7.17444e-08
4.82637e-08
2.13728e-06
8.41349e-06
1.02226e-05
4.84958e-06
2.84016e-06
2.49745e-06
3.28083e-06
5.27387e-06
8.61198e-06
1.27854e-05
1.63032e-05
1.86146e-05
2.06068e-05
2.30076e-05
2.58674e-05
2.88294e-05
3.14819e-05
3.353e-05
3.47462e-05
3.48608e-05
3.35244e-05
3.04119e-05
2.56143e-05
2.00606e-05
1.50342e-05
1.12017e-05
8.50814e-06
6.61797e-06
5.23811e-06
4.31887e-06
4.16075e-06
6.14462e-06
6.10281e-06
6.83256e-08
5.75537e-08
2.00155e-06
9.20954e-06
5.31802e-06
2.99728e-06
2.72806e-06
3.60988e-06
5.63765e-06
8.53306e-06
1.14143e-05
1.37612e-05
1.60497e-05
1.87655e-05
2.18771e-05
2.50158e-05
2.78638e-05
3.03237e-05
3.23804e-05
3.3938e-05
3.4772e-05
3.45503e-05
3.28909e-05
2.95242e-05
2.46573e-05
1.92074e-05
1.42871e-05
1.04791e-05
7.7884e-06
5.96885e-06
4.77319e-06
4.13353e-06
4.2901e-06
7.0275e-06
4.82091e-06
6.31745e-08
6.51804e-08
2.00029e-06
1.0508e-05
4.05094e-06
2.94015e-06
3.4018e-06
4.88061e-06
7.18618e-06
9.7422e-06
1.21508e-05
1.44544e-05
1.68013e-05
1.92582e-05
2.18523e-05
2.45762e-05
2.73278e-05
2.99143e-05
3.21139e-05
3.37097e-05
3.44717e-05
3.41195e-05
3.2329e-05
2.88695e-05
2.39557e-05
1.8481e-05
1.35311e-05
9.69804e-06
7.01837e-06
5.28029e-06
4.26029e-06
3.87834e-06
4.3153e-06
7.67306e-06
3.98768e-06
5.94885e-08
6.76873e-08
2.14209e-06
1.24772e-05
4.26031e-06
3.41652e-06
4.12918e-06
5.69952e-06
7.74427e-06
9.73204e-06
1.15262e-05
1.3405e-05
1.57072e-05
1.85743e-05
2.18576e-05
2.51922e-05
2.8208e-05
3.06947e-05
3.25698e-05
3.37665e-05
3.41684e-05
3.36001e-05
3.18606e-05
2.88126e-05
2.45484e-05
1.95462e-05
1.45894e-05
1.03973e-05
7.29158e-06
5.22556e-06
4.01839e-06
3.57508e-06
4.00983e-06
7.26889e-06
3.63892e-06
5.80069e-08
6.39672e-08
2.18375e-06
1.47691e-05
5.48487e-06
4.04935e-06
4.46681e-06
5.56813e-06
6.9599e-06
8.40169e-06
9.95197e-06
1.18806e-05
1.44191e-05
1.75993e-05
2.11964e-05
2.48102e-05
2.80453e-05
3.06471e-05
3.24942e-05
3.35215e-05
3.36668e-05
3.28509e-05
3.09988e-05
2.81048e-05
2.43189e-05
1.99707e-05
1.55041e-05
1.1394e-05
8.03573e-06
5.61527e-06
4.10544e-06
3.44119e-06
3.69875e-06
6.52284e-06
3.55512e-06
5.84563e-08
5.30226e-08
2.06875e-06
1.19342e-05
7.62414e-06
4.8941e-06
4.6847e-06
5.20962e-06
6.0167e-06
7.03315e-06
8.37949e-06
1.0327e-05
1.31111e-05
1.67529e-05
2.09103e-05
2.49566e-05
2.83463e-05
3.08582e-05
3.2489e-05
3.3279e-05
3.32436e-05
3.23656e-05
3.06177e-05
2.8012e-05
2.46624e-05
2.0801e-05
1.67207e-05
1.27334e-05
9.18602e-06
6.39521e-06
4.50844e-06
3.5342e-06
3.5396e-06
5.89225e-06
3.69174e-06
6.10871e-08
4.10453e-08
1.92875e-06
8.80174e-06
1.05048e-05
6.1634e-06
5.07056e-06
4.90018e-06
5.08684e-06
5.71484e-06
6.98423e-06
9.10611e-06
1.22156e-05
1.61905e-05
2.05156e-05
2.45191e-05
2.78064e-05
3.02998e-05
3.19983e-05
3.28637e-05
3.2848e-05
3.19239e-05
3.01055e-05
2.74838e-05
2.42671e-05
2.07487e-05
1.71769e-05
1.36712e-05
1.03345e-05
7.40983e-06
5.20561e-06
3.91408e-06
3.66343e-06
5.64824e-06
4.09092e-06
6.52257e-08
3.36489e-08
1.90864e-06
8.10842e-06
1.14332e-05
6.57249e-06
4.89854e-06
4.40244e-06
4.55935e-06
5.46419e-06
7.25241e-06
1.00585e-05
1.3838e-05
1.81061e-05
2.20796e-05
2.53135e-05
2.79011e-05
3.00455e-05
3.17268e-05
3.27315e-05
3.2841e-05
3.19437e-05
3.00499e-05
2.7299e-05
2.3975e-05
2.04535e-05
1.70411e-05
1.38471e-05
1.08539e-05
8.11474e-06
5.86949e-06
4.42456e-06
4.03652e-06
6.01883e-06
4.34834e-06
7.21318e-08
3.10326e-08
1.89942e-06
8.22078e-06
1.09044e-05
6.12467e-06
4.50203e-06
4.20878e-06
4.78283e-06
6.2899e-06
8.79002e-06
1.22297e-05
1.61654e-05
1.98064e-05
2.26429e-05
2.48303e-05
2.68418e-05
2.89572e-05
3.09954e-05
3.24265e-05
3.2758e-05
3.17879e-05
2.96013e-05
2.65053e-05
2.29639e-05
1.94474e-05
1.6249e-05
1.34247e-05
1.08686e-05
8.4875e-06
6.40009e-06
4.93934e-06
4.50698e-06
6.68635e-06
4.42774e-06
8.15876e-08
3.0423e-08
1.99229e-06
9.82844e-06
9.20968e-06
5.30311e-06
4.35178e-06
4.6628e-06
5.97725e-06
8.34794e-06
1.17232e-05
1.5665e-05
1.92671e-05
2.1782e-05
2.32542e-05
2.43321e-05
2.57399e-05
2.7845e-05
3.03311e-05
3.22649e-05
3.27675e-05
3.15464e-05
2.88474e-05
2.52418e-05
2.13979e-05
1.78275e-05
1.47708e-05
1.22455e-05
1.01271e-05
8.25948e-06
6.62072e-06
5.41007e-06
5.16651e-06
8.12391e-06
4.0534e-06
9.34544e-08
3.09803e-08
2.15847e-06
1.18832e-05
8.04331e-06
5.18857e-06
4.94925e-06
5.98115e-06
8.1447e-06
1.13478e-05
1.51089e-05
1.84545e-05
2.05085e-05
2.11892e-05
2.11246e-05
2.11889e-05
2.21917e-05
2.46262e-05
2.81914e-05
3.14164e-05
3.26152e-05
3.12507e-05
2.79063e-05
2.36688e-05
1.9494e-05
1.58812e-05
1.29771e-05
1.07449e-05
9.03782e-06
7.66762e-06
6.51731e-06
5.68585e-06
5.86408e-06
1.0307e-05
3.56348e-06
1.05579e-07
3.24618e-08
2.53197e-06
1.30022e-05
7.67615e-06
5.77369e-06
6.25789e-06
8.08889e-06
1.10565e-05
1.47166e-05
1.80892e-05
2.01108e-05
2.04186e-05
1.95054e-05
1.82814e-05
1.76471e-05
1.83607e-05
2.10155e-05
2.55502e-05
3.01498e-05
3.20729e-05
3.04278e-05
2.63435e-05
2.15487e-05
1.71584e-05
1.35565e-05
1.08102e-05
8.88076e-06
7.64546e-06
6.89351e-06
6.36434e-06
6.11008e-06
7.08942e-06
1.35936e-05
3.0925e-06
1.13466e-07
3.59088e-08
2.8765e-06
1.4738e-05
8.71589e-06
7.27269e-06
8.36046e-06
1.08473e-05
1.4199e-05
1.74919e-05
1.95209e-05
1.96405e-05
1.81716e-05
1.59996e-05
1.40577e-05
1.30224e-05
1.33738e-05
1.56402e-05
2.02252e-05
2.59693e-05
2.94455e-05
2.8611e-05
2.46323e-05
1.97368e-05
1.5224e-05
1.15403e-05
8.82445e-06
7.06821e-06
6.17859e-06
5.93514e-06
6.01782e-06
6.48565e-06
8.55802e-06
1.40507e-05
2.67766e-06
1.12895e-07
4.13844e-08
3.24308e-06
1.72501e-05
1.08513e-05
9.56854e-06
1.09916e-05
1.37182e-05
1.68782e-05
1.93806e-05
2.02386e-05
1.91906e-05
1.67982e-05
1.40347e-05
1.17211e-05
1.03408e-05
1.01807e-05
1.16259e-05
1.52471e-05
2.07038e-05
2.48812e-05
2.49876e-05
2.20628e-05
1.80347e-05
1.38202e-05
1.00803e-05
7.27903e-06
5.51676e-06
4.73809e-06
4.77961e-06
5.41452e-06
6.69476e-06
9.71332e-06
1.07335e-05
2.32713e-06
1.00637e-07
4.53995e-08
3.13529e-06
1.66791e-05
1.52869e-05
1.3018e-05
1.36684e-05
1.57226e-05
1.82702e-05
2.04481e-05
2.13715e-05
2.04489e-05
1.78199e-05
1.44003e-05
1.12464e-05
8.99132e-06
7.86384e-06
8.04241e-06
1.00158e-05
1.42734e-05
1.86127e-05
1.92965e-05
1.80117e-05
1.64095e-05
1.3852e-05
1.03922e-05
7.19414e-06
4.91826e-06
3.6257e-06
3.22808e-06
3.60408e-06
4.8873e-06
7.84509e-06
7.46666e-06
1.96553e-06
8.44006e-08
3.87333e-08
2.75682e-06
1.2334e-05
1.97584e-05
1.79206e-05
1.72597e-05
1.79332e-05
1.92677e-05
2.07452e-05
2.18986e-05
2.22549e-05
2.13873e-05
1.90924e-05
1.56784e-05
1.20317e-05
9.14806e-06
7.57517e-06
7.59819e-06
9.7429e-06
1.34699e-05
1.38858e-05
1.24488e-05
1.2448e-05
1.33361e-05
1.31193e-05
1.05964e-05
7.27321e-06
4.72021e-06
3.24366e-06
2.68869e-06
2.99911e-06
4.73702e-06
6.63504e-06
1.81869e-06
7.5321e-08
2.60512e-08
2.31245e-06
8.1591e-06
1.7027e-05
1.93534e-05
1.91634e-05
1.88024e-05
1.86105e-05
1.86161e-05
1.87407e-05
1.86953e-05
1.79176e-05
1.59825e-05
1.33168e-05
1.0808e-05
9.08773e-06
8.49631e-06
9.44769e-06
1.23599e-05
1.49421e-05
1.31033e-05
1.06246e-05
9.74765e-06
1.03357e-05
1.19217e-05
1.33636e-05
1.26028e-05
9.38578e-06
6.13042e-06
4.10454e-06
3.27458e-06
3.83192e-06
8.77302e-06
2.10148e-06
7.53758e-08
1.63299e-08
2.39289e-06
7.75195e-06
1.50246e-05
1.70341e-05
1.71631e-05
1.7417e-05
1.74138e-05
1.60438e-05
1.32893e-05
1.0372e-05
8.11347e-06
6.61253e-06
5.76371e-06
5.52671e-06
6.00401e-06
7.66331e-06
1.08987e-05
1.23294e-05
1.04188e-05
9.00442e-06
8.85414e-06
9.80468e-06
1.17479e-05
1.44251e-05
1.6918e-05
1.76139e-05
1.54179e-05
1.13977e-05
7.74445e-06
5.55875e-06
5.21744e-06
9.59438e-06
3.31939e-06
8.26688e-08
1.59303e-08
2.79327e-06
8.37338e-06
1.50408e-05
1.62253e-05
1.20308e-05
7.71497e-06
5.18986e-06
3.86405e-06
3.22514e-06
3.06591e-06
3.32886e-06
4.06152e-06
5.55462e-06
8.47797e-06
1.1743e-05
1.1149e-05
9.26869e-06
8.33561e-06
8.64211e-06
1.05206e-05
1.44809e-05
2.03587e-05
2.63217e-05
2.98375e-05
2.92741e-05
2.50858e-05
1.95137e-05
1.43904e-05
1.04193e-05
7.8767e-06
7.29384e-06
1.10551e-05
3.83534e-06
8.75517e-08
2.33974e-08
2.06669e-06
7.11644e-06
7.13578e-06
4.50442e-06
3.32616e-06
3.00649e-06
3.22099e-06
3.90348e-06
5.21257e-06
7.77384e-06
1.27298e-05
1.81878e-05
1.70836e-05
1.3135e-05
1.10376e-05
1.14308e-05
1.47521e-05
2.1304e-05
2.91268e-05
3.38829e-05
3.505e-05
3.62691e-05
3.55882e-05
3.16972e-05
2.74408e-05
2.32048e-05
1.90264e-05
1.51446e-05
1.19391e-05
9.83391e-06
9.59346e-06
1.28459e-05
4.17287e-06
9.14963e-08
3.19005e-08
2.40423e-06
7.87804e-06
4.09748e-06
3.33268e-06
3.67984e-06
5.02285e-06
7.90711e-06
1.31199e-05
1.88153e-05
2.04456e-05
1.96069e-05
1.92275e-05
2.02547e-05
2.24015e-05
2.29149e-05
1.91089e-05
1.51405e-05
1.34455e-05
1.3579e-05
1.49655e-05
1.72009e-05
1.9755e-05
2.19194e-05
2.30802e-05
2.28206e-05
2.10282e-05
1.81306e-05
1.494e-05
1.22529e-05
1.07054e-05
1.11687e-05
1.42807e-05
3.92856e-06
9.81672e-08
3.53805e-08
3.66404e-06
6.77786e-06
3.9714e-06
4.0971e-06
5.55846e-06
7.88969e-06
9.91509e-06
1.13644e-05
1.30846e-05
1.56123e-05
1.87336e-05
2.14358e-05
2.24933e-05
2.13466e-05
1.8664e-05
1.58132e-05
1.36146e-05
1.23003e-05
1.19341e-05
1.2552e-05
1.41839e-05
1.66461e-05
1.91652e-05
2.06027e-05
2.04955e-05
1.925e-05
1.74379e-05
1.54385e-05
1.36348e-05
1.27017e-05
1.36822e-05
1.45534e-05
3.56243e-06
9.46544e-08
3.32344e-08
4.41197e-06
1.06637e-05
5.75401e-06
5.88294e-06
7.76847e-06
1.05857e-05
1.30042e-05
1.38553e-05
1.33224e-05
1.24535e-05
1.20261e-05
1.23739e-05
1.37136e-05
1.62819e-05
1.96082e-05
2.05197e-05
1.6413e-05
1.1778e-05
8.99763e-06
7.61563e-06
7.21506e-06
7.69755e-06
9.14641e-06
1.15552e-05
1.40099e-05
1.47389e-05
1.3637e-05
1.2261e-05
1.16436e-05
1.23561e-05
1.51124e-05
1.41701e-05
3.22813e-06
8.90452e-08
2.62458e-08
4.03811e-06
1.46949e-05
8.4968e-06
7.454e-06
8.54321e-06
1.09034e-05
1.43603e-05
1.85158e-05
2.19443e-05
2.26423e-05
2.04298e-05
1.71223e-05
1.44763e-05
1.32666e-05
1.36306e-05
1.55533e-05
1.8742e-05
2.12959e-05
1.8692e-05
1.24353e-05
8.08729e-06
5.82371e-06
4.79991e-06
4.74303e-06
5.75162e-06
7.98803e-06
1.1018e-05
1.31267e-05
1.34087e-05
1.36966e-05
1.59648e-05
1.51655e-05
3.40589e-06
8.31697e-08
2.40007e-08
4.0662e-06
1.45374e-05
1.01619e-05
8.68613e-06
9.3401e-06
1.09662e-05
1.29589e-05
1.48922e-05
1.65926e-05
1.80806e-05
1.94794e-05
2.08251e-05
2.18695e-05
2.22207e-05
2.19332e-05
2.17306e-05
2.2412e-05
2.424e-05
2.66517e-05
2.81026e-05
2.53236e-05
1.67288e-05
9.32319e-06
5.5278e-06
3.87319e-06
3.51997e-06
4.28807e-06
6.11406e-06
8.80963e-06
1.23186e-05
1.69854e-05
1.47479e-05
3.2612e-06
9.64206e-08
2.82727e-08
3.62349e-06
1.53357e-05
1.36301e-05
1.09515e-05
1.08238e-05
1.16221e-05
1.24256e-05
1.26972e-05
1.23261e-05
1.16028e-05
1.09723e-05
1.08442e-05
1.15855e-05
1.3578e-05
1.70236e-05
2.11406e-05
2.39541e-05
2.45547e-05
2.40496e-05
2.37288e-05
2.38829e-05
2.3561e-05
2.05419e-05
1.418e-05
8.28004e-06
4.93558e-06
3.6587e-06
3.91676e-06
5.43316e-06
7.97926e-06
1.21582e-05
1.60994e-05
3.35649e-06
1.04935e-07
2.64092e-08
3.21752e-06
1.52748e-05
1.85927e-05
1.45735e-05
1.29799e-05
1.29325e-05
1.3426e-05
1.38564e-05
1.38784e-05
1.34667e-05
1.29398e-05
1.27872e-05
1.34345e-05
1.518e-05
1.81396e-05
2.20307e-05
2.59115e-05
2.85185e-05
2.91405e-05
2.7846e-05
2.52112e-05
2.20043e-05
1.86808e-05
1.50608e-05
1.08718e-05
6.84584e-06
4.10735e-06
2.91641e-06
3.08972e-06
5.0893e-06
1.11265e-05
1.25129e-05
2.83738e-06
1.07813e-07
2.09297e-08
2.82608e-06
1.28347e-05
1.71115e-05
1.52444e-05
1.22595e-05
1.10503e-05
1.04643e-05
9.74785e-06
8.87438e-06
8.27186e-06
8.29248e-06
9.20223e-06
1.14039e-05
1.54665e-05
2.08785e-05
2.43718e-05
2.43251e-05
2.26999e-05
2.1231e-05
2.06066e-05
2.08931e-05
2.17445e-05
2.24321e-05
2.19676e-05
1.9452e-05
1.47829e-05
9.54016e-06
5.74801e-06
3.86071e-06
3.58704e-06
5.36464e-06
1.26085e-05
2.98779e-06
1.35372e-07
1.7945e-08
3.38742e-06
1.37656e-05
1.66839e-05
1.66339e-05
1.19658e-05
8.53037e-06
6.51446e-06
5.65935e-06
5.77595e-06
6.78057e-06
8.76845e-06
1.19026e-05
1.59651e-05
1.99342e-05
2.29002e-05
2.49935e-05
2.67338e-05
2.83985e-05
2.9881e-05
3.07712e-05
3.05741e-05
2.8989e-05
2.6087e-05
2.23136e-05
1.83284e-05
1.45809e-05
1.10691e-05
7.78265e-06
5.24023e-06
3.95037e-06
4.43371e-06
1.08173e-05
3.00343e-06
1.77769e-07
2.16106e-08
2.81177e-06
1.08264e-05
1.20731e-05
6.61386e-06
4.48254e-06
4.07416e-06
4.7399e-06
6.45479e-06
9.42963e-06
1.38286e-05
1.90956e-05
2.37241e-05
2.67267e-05
2.84069e-05
2.94406e-05
3.03484e-05
3.13933e-05
3.25563e-05
3.36356e-05
3.43294e-05
3.40687e-05
3.16506e-05
2.58826e-05
1.82421e-05
1.19477e-05
8.03776e-06
5.94837e-06
4.9273e-06
4.52582e-06
4.88801e-06
7.70823e-06
1.10182e-05
2.24858e-06
1.49633e-07
3.55551e-08
2.95545e-06
1.00744e-05
6.30296e-06
5.02872e-06
5.46998e-06
7.27434e-06
1.04608e-05
1.4378e-05
1.73467e-05
1.85073e-05
1.8841e-05
1.9478e-05
2.08116e-05
2.26564e-05
2.45551e-05
2.60904e-05
2.70892e-05
2.76462e-05
2.80114e-05
2.83521e-05
2.83657e-05
2.68977e-05
2.24523e-05
1.58214e-05
1.00333e-05
6.33305e-06
4.35308e-06
3.55799e-06
3.71113e-06
5.17975e-06
9.82811e-06
5.716e-06
1.73394e-06
9.39209e-08
5.61673e-08
3.13921e-06
9.17526e-06
5.5357e-06
5.3416e-06
6.5833e-06
8.62166e-06
1.09865e-05
1.3453e-05
1.61274e-05
1.90405e-05
2.2016e-05
2.47739e-05
2.70995e-05
2.88959e-05
3.00641e-05
3.04692e-05
3.01205e-05
2.93169e-05
2.85245e-05
2.8028e-05
2.76127e-05
2.65239e-05
2.37693e-05
1.90757e-05
1.36739e-05
9.16176e-06
6.13333e-06
4.44903e-06
3.91774e-06
4.75455e-06
7.56908e-06
4.82288e-06
1.58695e-06
6.312e-08
5.95009e-08
2.18192e-06
1.35852e-05
7.12884e-06
4.85595e-06
4.8341e-06
5.96986e-06
8.16536e-06
1.13152e-05
1.50049e-05
1.88238e-05
2.26183e-05
2.62292e-05
2.94229e-05
3.03796e-05
3.04535e-05
3.05663e-05
3.07664e-05
2.91106e-05
2.62535e-05
2.4271e-05
2.31355e-05
2.23993e-05
2.14774e-05
1.97743e-05
1.70261e-05
1.36522e-05
1.04487e-05
8.01571e-06
6.63299e-06
6.61704e-06
8.81234e-06
8.52235e-06
2.27277e-06
5.27186e-08
3.37416e-08
1.37383e-06
4.39946e-06
1.42535e-05
1.13862e-05
7.68445e-06
6.32363e-06
5.90238e-06
6.03458e-06
6.84946e-06
8.80265e-06
1.24458e-05
1.78375e-05
2.33372e-05
2.62558e-05
2.66657e-05
2.4745e-05
2.19311e-05
1.91605e-05
1.68739e-05
1.51845e-05
1.41188e-05
1.36925e-05
1.38484e-05
1.43863e-05
1.49521e-05
1.50607e-05
1.43444e-05
1.29403e-05
1.15413e-05
1.11677e-05
1.36021e-05
2.00164e-05
4.28777e-06
5.64017e-08
1.30727e-08
1.14703e-06
2.71926e-06
5.50931e-06
8.38611e-06
8.93778e-06
8.17504e-06
7.42033e-06
7.07062e-06
7.25345e-06
8.10441e-06
1.00034e-05
1.38115e-05
2.0017e-05
2.14568e-05
2.26474e-05
2.23433e-05
1.9178e-05
1.69677e-05
1.562e-05
1.48074e-05
1.42949e-05
1.3937e-05
1.36188e-05
1.32125e-05
1.27185e-05
1.23975e-05
1.24164e-05
1.26097e-05
1.27895e-05
1.33424e-05
1.57315e-05
2.09282e-05
5.56295e-06
7.33016e-08
8.01032e-09
1.25746e-06
2.84688e-06
3.87898e-06
3.9639e-06
3.86218e-06
3.88672e-06
4.11822e-06
4.61318e-06
5.44826e-06
6.74833e-06
8.79192e-06
1.20084e-05
1.66317e-05
2.08168e-05
2.1793e-05
2.26004e-05
2.01128e-05
1.66031e-05
1.39446e-05
1.20987e-05
1.06809e-05
9.35196e-06
8.15146e-06
7.55935e-06
8.04751e-06
9.71115e-06
1.20695e-05
1.41592e-05
1.53484e-05
1.6271e-05
1.85522e-05
2.07343e-05
4.9979e-06
9.61036e-08
7.48278e-09
2.75773e-06
2.84771e-06
2.82041e-06
3.04421e-06
3.4241e-06
3.97139e-06
4.74492e-06
5.84596e-06
7.5536e-06
1.0708e-05
1.66969e-05
1.9288e-05
1.9861e-05
1.59224e-05
1.28889e-05
1.07669e-05
8.90249e-06
7.4385e-06
6.81049e-06
7.20046e-06
8.46512e-06
1.02553e-05
1.23807e-05
1.49196e-05
1.77791e-05
2.04049e-05
2.20726e-05
2.23865e-05
2.17796e-05
2.15303e-05
2.27218e-05
1.96076e-05
4.32736e-06
1.0981e-07
4.34685e-09
1.90187e-06
2.7965e-06
3.83239e-06
5.11417e-06
6.85897e-06
9.46104e-06
1.30111e-05
1.51882e-05
1.26453e-05
9.37932e-06
8.1446e-06
8.6377e-06
1.03487e-05
1.2576e-05
1.44525e-05
1.58926e-05
1.76007e-05
2.01975e-05
2.36656e-05
2.48569e-05
2.5698e-05
2.6738e-05
2.4876e-05
2.26535e-05
2.13868e-05
2.08674e-05
2.08081e-05
2.09465e-05
2.11762e-05
2.16438e-05
2.20677e-05
1.57058e-05
3.88408e-06
1.14835e-07
8.68505e-09
2.40449e-06
4.57742e-06
7.47768e-06
1.13257e-05
1.45894e-05
1.6158e-05
1.69791e-05
1.72384e-05
1.62789e-05
1.40082e-05
1.16502e-05
1.02608e-05
1.00186e-05
1.08836e-05
1.30006e-05
1.66231e-05
2.14969e-05
2.50226e-05
2.69878e-05
2.88545e-05
2.99432e-05
2.76182e-05
2.4633e-05
2.20289e-05
2.01847e-05
1.90715e-05
1.85956e-05
1.86809e-05
1.92922e-05
2.03113e-05
2.05695e-05
1.2831e-05
3.42852e-06
1.10536e-07
1.07681e-08
3.77327e-06
5.32631e-06
6.78708e-06
8.21759e-06
9.72525e-06
1.15959e-05
1.39522e-05
1.59108e-05
1.60195e-05
1.43155e-05
1.19382e-05
9.79962e-06
8.23169e-06
7.25625e-06
6.82309e-06
6.9172e-06
7.60002e-06
9.00029e-06
1.12526e-05
1.42672e-05
1.74034e-05
1.9685e-05
2.07673e-05
2.10938e-05
2.10509e-05
2.0725e-05
2.01751e-05
1.95963e-05
1.92858e-05
1.93744e-05
1.89543e-05
1.21933e-05
3.42933e-06
1.00416e-07
2.65849e-08
8.46727e-06
8.71065e-06
7.57232e-06
6.94722e-06
6.91338e-06
7.58822e-06
8.83509e-06
1.02661e-05
1.19075e-05
1.43771e-05
1.75064e-05
1.84267e-05
1.57225e-05
1.23243e-05
9.73039e-06
7.90505e-06
6.62628e-06
5.7886e-06
5.35894e-06
5.337e-06
5.75078e-06
6.63204e-06
7.94755e-06
9.56379e-06
1.12609e-05
1.27892e-05
1.40226e-05
1.49881e-05
1.57532e-05
1.6259e-05
1.58597e-05
1.06604e-05
3.22456e-06
9.4991e-08
2.73086e-08
7.25217e-06
1.92159e-05
2.23866e-05
1.92206e-05
1.64441e-05
1.41966e-05
1.20978e-05
1.00446e-05
8.2784e-06
7.30067e-06
7.47951e-06
8.99074e-06
1.20174e-05
1.65412e-05
2.09477e-05
2.20063e-05
1.95349e-05
1.59606e-05
1.2685e-05
1.00207e-05
7.96749e-06
6.50708e-06
5.5937e-06
5.16911e-06
5.18655e-06
5.59128e-06
6.35428e-06
7.53845e-06
9.25189e-06
1.13875e-05
1.27445e-05
8.15124e-06
2.39279e-06
8.26328e-08
2.29557e-08
5.92975e-06
1.79276e-05
2.10409e-05
2.14902e-05
1.95408e-05
1.92326e-05
1.98448e-05
1.98289e-05
1.78223e-05
1.44581e-05
1.14067e-05
9.58029e-06
9.26882e-06
1.04171e-05
1.21594e-05
1.34657e-05
1.4641e-05
1.62901e-05
1.83709e-05
2.00441e-05
2.0078e-05
1.79909e-05
1.45916e-05
1.11649e-05
8.47408e-06
6.6716e-06
5.63671e-06
5.21282e-06
5.38726e-06
6.4987e-06
9.62719e-06
9.53508e-06
2.26552e-06
6.42738e-08
2.07553e-08
4.42063e-06
1.58967e-05
1.89669e-05
2.10875e-05
2.15866e-05
2.02089e-05
1.79064e-05
1.45961e-05
1.10761e-05
8.28691e-06
6.70921e-06
6.47727e-06
7.68302e-06
1.03354e-05
1.36674e-05
1.62408e-05
1.76849e-05
1.86438e-05
1.96635e-05
2.0869e-05
2.20167e-05
2.25825e-05
2.1999e-05
1.997e-05
1.67659e-05
1.32542e-05
1.02423e-05
8.08279e-06
6.80383e-06
6.45203e-06
7.57066e-06
1.1839e-05
3.22256e-06
5.20747e-08
2.09695e-08
3.13482e-06
1.16612e-05
1.76611e-05
1.86346e-05
1.68976e-05
1.45147e-05
1.18441e-05
9.16107e-06
6.99186e-06
5.80854e-06
5.79504e-06
7.14646e-06
1.02401e-05
1.48143e-05
1.86829e-05
2.0345e-05
2.08197e-05
2.13393e-05
2.23721e-05
2.38152e-05
2.52715e-05
2.62356e-05
2.62387e-05
2.49556e-05
2.23472e-05
1.87781e-05
1.50037e-05
1.17585e-05
9.40847e-06
8.08314e-06
8.01184e-06
9.64828e-06
3.84649e-06
4.54233e-08
2.34318e-08
2.50115e-06
8.39763e-06
1.42167e-05
1.43334e-05
1.25126e-05
9.99202e-06
7.53243e-06
5.83741e-06
5.1405e-06
5.55288e-06
7.46557e-06
1.17e-05
1.81966e-05
2.08122e-05
2.17001e-05
2.25188e-05
2.33525e-05
2.42921e-05
2.45249e-05
2.49569e-05
2.56115e-05
2.63037e-05
2.67847e-05
2.67162e-05
2.56525e-05
2.32475e-05
1.96875e-05
1.57836e-05
1.24514e-05
1.02679e-05
9.60584e-06
1.059e-05
4.3206e-06
4.26642e-08
2.50224e-08
2.11926e-06
7.53903e-06
1.55102e-05
1.33117e-05
8.98522e-06
6.30987e-06
5.06273e-06
4.84176e-06
5.70296e-06
8.14192e-06
1.30245e-05
2.0329e-05
2.19557e-05
2.24305e-05
2.27101e-05
2.29105e-05
2.31608e-05
2.23282e-05
2.16539e-05
2.21307e-05
2.33903e-05
2.49479e-05
2.63632e-05
2.72483e-05
2.71958e-05
2.58649e-05
2.32232e-05
1.97165e-05
1.61618e-05
1.34656e-05
1.25e-05
1.37215e-05
5.16012e-06
4.39361e-08
2.1747e-08
1.96506e-06
7.86633e-06
1.42198e-05
9.71933e-06
6.34977e-06
5.23779e-06
5.31532e-06
6.43752e-06
8.84472e-06
1.29468e-05
1.88667e-05
2.15687e-05
2.16101e-05
2.14839e-05
2.13293e-05
2.12826e-05
1.95008e-05
1.77922e-05
1.80768e-05
1.99234e-05
2.27249e-05
2.57605e-05
2.83119e-05
2.98077e-05
2.98786e-05
2.84702e-05
2.58897e-05
2.26885e-05
1.95254e-05
1.71754e-05
1.6618e-05
1.79655e-05
5.77516e-06
5.0794e-08
1.51879e-08
1.98726e-06
7.81089e-06
1.19957e-05
8.47752e-06
6.74987e-06
6.52175e-06
7.21079e-06
8.55636e-06
1.0501e-05
1.34514e-05
1.79578e-05
1.94673e-05
1.92696e-05
1.90906e-05
1.90461e-05
1.60212e-05
1.38257e-05
1.38163e-05
1.56376e-05
1.89234e-05
2.2977e-05
2.67689e-05
2.9439e-05
3.05587e-05
3.00293e-05
2.80932e-05
2.53288e-05
2.24239e-05
1.9984e-05
1.86144e-05
1.90324e-05
1.98707e-05
5.2996e-06
5.69976e-08
9.74534e-09
1.94867e-06
5.87459e-06
7.12731e-06
6.23097e-06
5.74422e-06
5.7982e-06
6.32836e-06
7.4393e-06
9.67729e-06
1.41658e-05
1.69188e-05
1.71855e-05
1.74681e-05
1.5812e-05
1.30887e-05
1.23313e-05
1.3331e-05
1.59294e-05
1.98705e-05
2.44353e-05
2.83948e-05
3.05275e-05
3.25532e-05
3.43272e-05
3.38254e-05
3.12433e-05
2.7747e-05
2.42538e-05
2.15115e-05
2.01823e-05
2.08105e-05
2.04261e-05
4.89956e-06
6.2161e-08
6.65556e-09
2.96771e-06
4.64517e-06
3.96739e-06
3.8866e-06
4.30526e-06
5.36971e-06
8.00448e-06
1.50482e-05
1.61812e-05
1.71698e-05
1.82442e-05
1.8503e-05
1.8118e-05
1.9622e-05
2.22767e-05
2.42773e-05
2.55414e-05
2.69011e-05
2.83759e-05
2.99615e-05
3.1629e-05
3.33219e-05
3.49552e-05
3.64213e-05
3.75991e-05
3.51729e-05
3.10218e-05
2.72319e-05
2.43415e-05
2.28123e-05
2.28311e-05
1.95835e-05
4.56718e-06
6.95947e-08
1.07034e-08
5.14461e-06
5.5743e-06
6.96499e-06
9.68618e-06
1.41958e-05
1.90767e-05
1.99379e-05
2.06889e-05
2.13846e-05
2.2074e-05
2.28132e-05
2.3651e-05
2.46192e-05
2.57264e-05
2.69595e-05
2.82964e-05
2.97044e-05
3.11461e-05
3.25844e-05
3.39816e-05
3.52996e-05
3.64983e-05
3.75329e-05
3.83507e-05
3.56924e-05
3.13514e-05
2.8034e-05
2.55532e-05
2.37689e-05
2.28827e-05
2.26642e-05
1.64133e-05
3.84854e-06
7.17826e-08
2.71445e-08
4.17906e-06
4.2143e-06
3.84537e-06
4.86434e-06
7.67905e-06
1.26609e-05
2.01325e-05
2.10133e-05
2.16138e-05
2.22638e-05
2.29334e-05
2.36265e-05
2.43667e-05
2.37623e-05
2.28336e-05
2.32192e-05
2.48057e-05
2.77062e-05
3.17284e-05
3.33802e-05
3.50004e-05
3.65013e-05
3.77717e-05
3.87013e-05
3.48734e-05
3.00074e-05
2.61694e-05
2.33999e-05
2.16366e-05
2.09631e-05
2.08352e-05
1.39501e-05
3.36765e-06
6.81233e-08
3.10688e-08
2.23422e-06
9.19292e-06
6.71363e-06
5.26994e-06
4.73361e-06
4.5404e-06
4.84843e-06
6.07994e-06
8.82277e-06
1.42872e-05
2.05385e-05
2.16149e-05
2.26178e-05
2.35515e-05
2.15851e-05
1.78736e-05
1.58651e-05
1.48723e-05
1.44715e-05
1.4607e-05
1.53041e-05
1.66257e-05
1.86184e-05
2.10773e-05
2.32778e-05
2.43067e-05
2.39226e-05
2.26594e-05
2.12605e-05
2.03606e-05
1.98317e-05
1.3301e-05
3.27103e-06
6.73991e-08