/*--------------------------------*- C++ -*----------------------------------*\
| =========                 |                                                 |
| \\      /  F ield         | OpenFOAM: The Open Source CFD Toolbox           |
|  \\    /   O peration     | Version:  v2006                                 |
|   \\  /    A nd           | Website:  www.openfoam.com                      |
|    \\/     M anipulation  |                                                 |
\*---------------------------------------------------------------------------*/
FoamFile
{
    version     2.0;
    format      ascii;
    class       surfaceScalarField;
    location    "17";
    object      phi;
}
// * * * * * * * * * * * * * * * * * * * * * * * * * * * * * * * * * * * * * //

dimensions      [1 0 -1 0 0 0 0];
oriented        oriented;


internalField   nonuniform List<scalar> 
228225
(
-2.28429e-05
7.94558e-07
1.25852e-06
-2.39993e-05
-5.92785e-07
1.74995e-06
-2.42566e-05
-1.27584e-06
1.53352e-06
-2.41023e-05
-1.53983e-06
1.38599e-06
-2.37255e-05
-1.64442e-06
1.26811e-06
-2.31765e-05
-1.75027e-06
1.20181e-06
-2.24794e-05
-1.87235e-06
1.17569e-06
-2.16587e-05
-1.99678e-06
1.17653e-06
-2.07477e-05
-2.1003e-06
1.18978e-06
-1.97602e-05
-2.1929e-06
1.20581e-06
-1.8674e-05
-2.30561e-06
1.21994e-06
-1.74374e-05
-2.4681e-06
1.23192e-06
-1.59939e-05
-2.68642e-06
1.24343e-06
-1.43162e-05
-2.93377e-06
1.25654e-06
-1.24116e-05
-3.17611e-06
1.27201e-06
-1.03088e-05
-3.39193e-06
1.28965e-06
-8.04701e-06
-3.57017e-06
1.30883e-06
-5.67037e-06
-3.70549e-06
1.32935e-06
-3.22539e-06
-3.79538e-06
1.3509e-06
-7.59912e-07
-3.83856e-06
1.37359e-06
1.67734e-06
-3.83422e-06
1.39748e-06
4.03697e-06
-3.78155e-06
1.42243e-06
6.26747e-06
-3.67859e-06
1.44861e-06
8.31484e-06
-3.5235e-06
1.47664e-06
1.01218e-05
-3.31412e-06
1.5077e-06
1.16271e-05
-3.048e-06
1.54318e-06
1.27647e-05
-2.72182e-06
1.58473e-06
1.34616e-05
-2.33039e-06
1.6341e-06
1.36353e-05
-1.86614e-06
1.69294e-06
1.3191e-05
-1.31801e-06
1.76279e-06
1.20133e-05
-6.68329e-07
1.84658e-06
9.9603e-06
1.0867e-07
1.945e-06
6.76442e-06
1.17668e-06
2.02001e-06
2.85389e-06
2.03039e-06
1.88112e-06
1.81354e-06
1.04115e-06
-3.91204e-06
4.08122e-06
6.25263e-07
-8.40921e-06
3.68555e-06
2.19463e-07
-1.22252e-05
2.89533e-06
-3.54524e-07
-1.53944e-05
2.29912e-06
-6.69277e-07
-1.78967e-05
1.68246e-06
-8.24244e-07
-1.97088e-05
9.4872e-07
-8.86465e-07
-2.0731e-05
4.32068e-08
-8.92995e-07
-2.12515e-05
-6.13631e-07
-8.62374e-07
-2.12672e-05
-1.28136e-06
-8.02824e-07
-2.08149e-05
-1.92047e-06
-7.2437e-07
-1.99498e-05
-2.53128e-06
-6.39117e-07
-1.87327e-05
-3.12766e-06
-5.57112e-07
-1.7222e-05
-3.71357e-06
-4.8325e-07
-1.54694e-05
-4.26883e-06
-4.17065e-07
-1.35235e-05
-4.76604e-06
-3.55633e-07
-1.14302e-05
-5.18804e-06
-2.96735e-07
-9.23359e-06
-5.52691e-06
-2.39436e-07
-6.97529e-06
-5.78016e-06
-1.83187e-07
-4.69467e-06
-5.94822e-06
-1.27334e-07
-2.42855e-06
-6.03268e-06
-7.15479e-08
-2.09492e-07
-6.03524e-06
-1.75864e-08
1.91214e-06
-5.95683e-06
5.41165e-08
3.90301e-06
-5.79643e-06
1.27428e-07
5.72882e-06
-5.55234e-06
2.03494e-07
7.35134e-06
-5.22237e-06
2.86205e-07
8.72832e-06
-4.80339e-06
3.78874e-07
9.81205e-06
-4.29006e-06
4.84968e-07
1.05453e-05
-3.67178e-06
6.08625e-07
1.0851e-05
-2.92603e-06
7.54708e-07
1.06111e-05
-2.00595e-06
9.28246e-07
9.63506e-06
-8.25071e-07
1.13336e-06
7.66392e-06
7.09783e-07
1.37068e-06
4.82045e-06
2.4109e-06
1.61008e-06
1.76418e-06
3.46661e-06
1.62097e-06
2.68104e-06
8.97401e-07
-4.55342e-07
4.26259e-06
2.73681e-07
-2.63083e-06
5.76221e-06
9.85864e-08
-5.15504e-06
5.61213e-06
-1.92234e-07
-7.53718e-06
5.02575e-06
-3.44043e-07
-9.63549e-06
4.18244e-06
-4.01276e-07
-1.14439e-05
3.17417e-06
-4.16622e-07
-1.30748e-05
2.08769e-06
-4.13131e-07
-1.42812e-05
9.90839e-07
-3.97694e-07
-1.51693e-05
-2.10584e-08
-3.71767e-07
-1.54728e-05
-1.2767e-06
-3.39867e-07
-1.52765e-05
-2.42126e-06
-3.05976e-07
-1.46199e-05
-3.51174e-06
-2.72146e-07
-1.35803e-05
-4.51342e-06
-2.39279e-07
-1.22451e-05
-5.39604e-06
-2.07586e-07
-1.06915e-05
-6.1425e-06
-1.76776e-07
-8.98706e-06
-6.74558e-06
-1.46418e-07
-7.19199e-06
-7.20528e-06
-1.1623e-07
-5.35948e-06
-7.52665e-06
-8.55394e-08
-3.53455e-06
-7.71879e-06
-5.38707e-08
-1.75452e-06
-7.79084e-06
-2.13648e-08
-5.45232e-08
-7.75027e-06
1.55498e-08
1.53133e-06
-7.60192e-06
5.97524e-08
2.97626e-06
-7.34755e-06
1.06707e-07
4.25322e-06
-6.98745e-06
1.58672e-07
5.33499e-06
-6.52106e-06
2.17432e-07
6.19517e-06
-5.94816e-06
2.85103e-07
6.80859e-06
-5.26781e-06
3.64835e-07
7.1485e-06
-4.47369e-06
4.62518e-07
7.18024e-06
-3.54291e-06
5.85681e-07
6.84816e-06
-2.41362e-06
7.40329e-07
6.05438e-06
-9.59862e-07
9.29284e-07
4.68284e-06
9.39045e-07
1.14328e-06
2.8011e-06
2.95956e-06
1.3344e-06
9.54634e-07
3.99712e-06
1.3174e-06
2.92157e-06
7.15334e-07
-7.42647e-08
4.18517e-06
1.51217e-07
-4.65025e-07
6.11726e-06
3.55989e-08
-7.48866e-07
6.05938e-06
-1.63055e-07
-1.09642e-06
5.6406e-06
-2.66704e-07
-1.55681e-06
4.95367e-06
-3.10189e-07
-2.07762e-06
4.02118e-06
-3.25585e-07
-2.60513e-06
2.94193e-06
-3.26196e-07
-3.07511e-06
1.77788e-06
-3.16647e-07
-3.31934e-06
5.22894e-07
-2.99434e-07
-3.52002e-06
-7.97356e-07
-2.78476e-07
-3.50062e-06
-2.18078e-06
-2.59731e-07
-3.21574e-06
-3.54768e-06
-2.48799e-07
-2.6806e-06
-4.80172e-06
-2.46637e-07
-1.93929e-06
-5.88682e-06
-2.50272e-07
-1.04264e-06
-6.78307e-06
-2.55771e-07
-3.78519e-08
-7.48992e-06
-2.60083e-07
1.0338e-06
-8.0152e-06
-2.61331e-07
2.13784e-06
-8.37191e-06
-2.58346e-07
3.24392e-06
-8.57434e-06
-2.50071e-07
4.32435e-06
-8.63517e-06
-2.3562e-07
5.35139e-06
-8.5627e-06
-2.14132e-07
6.29508e-06
-8.36044e-06
-1.84674e-07
7.12226e-06
-8.02798e-06
-1.46259e-07
7.79604e-06
-7.56273e-06
-9.79977e-08
8.27903e-06
-6.96375e-06
-3.97991e-08
8.53371e-06
-6.23597e-06
3.36294e-08
8.52879e-06
-5.3899e-06
1.27509e-07
8.24817e-06
-4.43308e-06
2.40502e-07
7.68049e-06
-3.35405e-06
3.7934e-07
6.80737e-06
-2.09103e-06
5.51098e-07
5.59099e-06
-5.04063e-07
7.61253e-07
4.03266e-06
1.50231e-06
9.95918e-07
2.29818e-06
3.5098e-06
1.18529e-06
7.52114e-07
4.39489e-06
1.14928e-06
3.06015e-06
6.14159e-07
4.68585e-07
3.59326e-06
1.22836e-07
5.36287e-07
5.95034e-06
9.92188e-08
3.99082e-07
6.1799e-06
1.69893e-08
1.31678e-07
5.93184e-06
-2.30587e-08
-2.61258e-07
5.36825e-06
-2.06096e-08
-7.29351e-07
4.48477e-06
5.40668e-09
-1.19448e-06
3.37212e-06
3.55686e-08
-1.5588e-06
2.07656e-06
6.59887e-08
-1.70513e-06
5.77761e-07
9.1622e-08
-1.50497e-06
-1.10601e-06
1.08566e-07
-9.80441e-07
-2.81665e-06
1.11411e-07
-2.30271e-07
-4.39499e-06
9.72725e-08
6.43939e-07
-5.74554e-06
6.98227e-08
1.56561e-06
-6.84396e-06
3.57817e-08
2.48656e-06
-7.70581e-06
2.1699e-09
3.38772e-06
-8.35752e-06
-3.31236e-08
4.25796e-06
-8.8235e-06
-6.14566e-08
5.093e-06
-9.12247e-06
-8.39641e-08
5.88844e-06
-9.26876e-06
-1.00486e-07
6.63623e-06
-9.27163e-06
-1.10789e-07
7.32262e-06
-9.13415e-06
-1.14392e-07
7.92617e-06
-8.85267e-06
-1.10773e-07
8.41598e-06
-8.41774e-06
-9.95044e-08
8.75284e-06
-7.81877e-06
-8.02846e-08
8.89656e-06
-7.05426e-06
-5.26982e-08
8.81782e-06
-6.14082e-06
-1.5911e-08
8.49525e-06
-5.11022e-06
4.33862e-08
7.92497e-06
-3.99295e-06
1.3063e-07
7.11495e-06
-2.7981e-06
2.54571e-07
6.07991e-06
-1.47913e-06
4.23669e-07
4.81127e-06
1.22803e-07
6.42342e-07
3.40705e-06
2.02064e-06
8.86517e-07
1.92326e-06
3.9306e-06
1.06365e-06
6.30311e-07
4.68905e-06
9.99259e-07
3.18059e-06
5.0994e-07
5.14454e-07
2.95688e-06
1.2138e-07
9.85941e-07
5.33962e-06
1.3923e-07
1.30419e-06
5.75917e-06
1.02756e-07
1.50437e-06
5.63732e-06
9.49397e-08
1.54742e-06
5.21267e-06
1.13384e-07
1.46445e-06
4.42572e-06
1.42888e-07
1.43552e-06
3.22524e-06
1.76476e-07
1.67247e-06
1.62548e-06
2.1454e-07
2.24026e-06
-2.39176e-07
2.49354e-07
3.15807e-06
-2.28532e-06
2.61613e-07
4.21648e-06
-4.11357e-06
2.38631e-07
5.26762e-06
-5.63278e-06
1.86845e-07
6.23462e-06
-6.8331e-06
1.20844e-07
7.09849e-06
-7.76003e-06
5.25575e-08
7.87141e-06
-8.46737e-06
-1.0935e-08
8.57691e-06
-8.99574e-06
-6.68065e-08
9.23705e-06
-9.36901e-06
-1.14126e-07
9.86533e-06
-9.59659e-06
-1.53636e-07
1.04633e-05
-9.67996e-06
-1.86213e-07
1.10211e-05
-9.61648e-06
-2.12434e-07
1.15182e-05
-9.3983e-06
-2.32446e-07
1.19198e-05
-9.00742e-06
-2.46229e-07
1.21713e-05
-8.41469e-06
-2.5405e-07
1.22051e-05
-7.59537e-06
-2.56641e-07
1.19654e-05
-6.55959e-06
-2.54523e-07
1.1436e-05
-5.36516e-06
-2.45717e-07
1.06416e-05
-4.09243e-06
-2.22945e-07
9.62433e-06
-2.80292e-06
-1.72378e-07
8.423e-06
-1.51889e-06
-7.74588e-08
7.1019e-06
-2.36685e-07
7.91165e-08
5.62364e-06
1.29232e-06
3.09241e-07
3.9911e-06
3.05647e-06
5.97234e-07
2.34075e-06
4.73415e-06
8.47265e-07
8.49753e-07
5.3364e-06
8.43854e-07
3.6014e-06
4.28735e-07
2.40777e-08
2.73115e-06
2.00887e-07
3.71949e-08
5.03024e-06
2.96084e-07
-9.11877e-08
5.56344e-06
3.24161e-07
-3.08613e-07
5.48577e-06
3.69209e-07
-4.51894e-07
4.92875e-06
4.27694e-07
-2.29729e-07
3.70165e-06
5.02498e-07
5.2512e-07
1.88528e-06
5.8559e-07
1.70871e-06
-1.96997e-07
6.39224e-07
3.11906e-06
-2.27889e-06
6.29636e-07
4.31905e-06
-4.04169e-06
5.56674e-07
5.21722e-06
-5.45712e-06
4.45747e-07
5.83839e-06
-6.58063e-06
3.2712e-07
6.27098e-06
-7.48635e-06
2.21164e-07
6.60478e-06
-8.22761e-06
1.34321e-07
6.90507e-06
-8.83156e-06
6.44734e-08
7.2119e-06
-9.30847e-06
6.48451e-09
7.53849e-06
-9.65965e-06
-3.53562e-08
7.89237e-06
-9.87828e-06
-7.159e-08
8.26768e-06
-9.95241e-06
-1.0226e-07
8.64812e-06
-9.86806e-06
-1.28263e-07
9.00677e-06
-9.60565e-06
-1.50712e-07
9.29697e-06
-9.12597e-06
-1.71065e-07
9.44071e-06
-8.36561e-06
-1.92261e-07
9.34733e-06
-7.28187e-06
-2.19586e-07
8.96812e-06
-5.92132e-06
-2.58589e-07
8.33664e-06
-4.42472e-06
-3.08524e-07
7.55088e-06
-2.9488e-06
-3.57504e-07
6.69209e-06
-1.55832e-06
-3.85449e-07
5.75603e-06
-2.13888e-07
-3.68544e-07
4.59253e-06
1.2085e-06
-2.81155e-07
3.25172e-06
2.72916e-06
-9.53101e-08
1.8701e-06
4.268e-06
1.71041e-07
7.69066e-07
5.3962e-06
4.39964e-07
4.37389e-08
5.5566e-06
5.05979e-07
3.4111e-06
2.34716e-07
-6.20998e-07
3.06654e-06
2.8486e-07
-1.5652e-06
5.4885e-06
4.85565e-07
-2.53557e-06
5.94642e-06
5.87131e-07
-3.25649e-06
5.52268e-06
6.8383e-07
-3.356e-06
4.25069e-06
7.77544e-07
-2.75418e-06
2.26291e-06
8.37025e-07
-1.75664e-06
8.06878e-08
8.07258e-07
-8.61754e-07
-1.77728e-06
6.85694e-07
-3.48094e-07
-3.30801e-06
5.15823e-07
-1.72525e-07
-4.56559e-06
3.48745e-07
-1.85966e-07
-5.65633e-06
2.13085e-07
-2.47621e-07
-6.63235e-06
1.13832e-07
-2.78147e-07
-7.49902e-06
4.36837e-08
-2.50775e-07
-8.24665e-06
-7.81575e-09
-1.76433e-07
-8.86808e-06
-3.7285e-08
-6.23464e-08
-9.36162e-06
-6.0381e-08
8.21474e-08
-9.72811e-06
-7.54643e-08
2.51851e-07
-9.96472e-06
-8.26787e-08
4.44995e-07
-1.00619e-05
-8.30671e-08
6.58761e-07
-1.00034e-05
-7.78051e-08
8.84521e-07
-9.76218e-06
-6.86299e-08
1.10175e-06
-9.28406e-06
-5.85536e-08
1.27261e-06
-8.48144e-06
-5.44592e-08
1.34581e-06
-7.28385e-06
-7.06758e-08
1.26682e-06
-5.7198e-06
-1.22045e-07
1.00097e-06
-3.95048e-06
-2.07963e-07
5.66509e-07
-2.20809e-06
-3.05872e-07
2.77276e-08
-6.34646e-07
-3.84492e-07
-5.05715e-07
7.40945e-07
-4.20833e-07
-9.46295e-07
2.04884e-06
-3.9889e-07
-1.28294e-06
3.37034e-06
-3.03238e-07
-1.4029e-06
4.51807e-06
-1.2849e-07
-1.1765e-06
5.09912e-06
7.22072e-08
-6.56821e-07
4.86824e-06
1.69851e-07
2.68236e-06
7.29437e-08
-7.71908e-07
3.4971e-06
3.40621e-07
-2.0798e-06
6.13646e-06
6.59348e-07
-3.34304e-06
6.38982e-06
8.19538e-07
-4.17023e-06
5.45102e-06
8.98769e-07
-4.3697e-06
3.56619e-06
8.84077e-07
-4.31345e-06
1.45087e-06
7.56025e-07
-4.44826e-06
-3.41504e-07
5.57321e-07
-4.86515e-06
-1.72284e-06
3.62797e-07
-5.45541e-06
-2.92699e-06
2.09619e-07
-6.03655e-06
-4.08374e-06
9.96881e-08
-6.48686e-06
-5.22646e-06
2.08824e-08
-6.77794e-06
-6.31422e-06
-2.65618e-08
-6.9318e-06
-7.28726e-06
-5.73797e-08
-6.99406e-06
-8.10501e-06
-7.88359e-08
-7.01413e-06
-8.75765e-06
-8.97709e-08
-7.02766e-06
-9.25791e-06
-8.9572e-08
-7.05159e-06
-9.62529e-06
-7.82726e-08
-7.08484e-06
-9.87449e-06
-5.63481e-08
-7.11052e-06
-1.00109e-05
-2.47125e-08
-7.10071e-06
-1.00292e-05
1.65924e-08
-7.01797e-06
-9.91054e-06
6.62407e-08
-6.80933e-06
-9.61326e-06
1.21189e-07
-6.40524e-06
-9.06199e-06
1.77112e-07
-5.75527e-06
-8.15441e-06
2.213e-07
-4.90569e-06
-6.80266e-06
2.34052e-07
-4.03036e-06
-5.0248e-06
1.99851e-07
-3.36286e-06
-2.99826e-06
1.23607e-07
-3.04645e-06
-9.83866e-07
3.37717e-08
-3.02563e-06
7.64871e-07
-4.37853e-08
-3.04408e-06
2.16293e-06
-9.46641e-08
-2.8245e-06
3.26901e-06
-1.17183e-07
-2.22135e-06
4.024e-06
-1.07954e-07
-1.37146e-06
4.30678e-06
-5.64892e-08
-5.01898e-07
3.98645e-06
1.3114e-08
2.16203e-06
1.91717e-08
-4.51189e-07
3.63792e-06
3.09663e-07
-1.4725e-06
6.4937e-06
6.63657e-07
-2.58444e-06
6.68864e-06
8.13021e-07
-3.46918e-06
5.54004e-06
7.95878e-07
-4.12926e-06
3.58956e-06
6.36993e-07
-4.80408e-06
1.7209e-06
4.05102e-07
-5.54352e-06
2.15024e-07
1.83201e-07
-6.2123e-06
-1.05853e-06
4.74672e-09
-6.77419e-06
-2.25999e-06
-1.04826e-07
-7.21533e-06
-3.46528e-06
-1.77022e-07
-7.54482e-06
-4.68117e-06
-2.15448e-07
-7.76191e-06
-5.86624e-06
-2.30489e-07
-7.86518e-06
-6.95144e-06
-2.32101e-07
-7.87224e-06
-7.87118e-06
-2.26271e-07
-7.81954e-06
-8.59468e-06
-2.15123e-07
-7.74776e-06
-9.13047e-06
-1.9863e-07
-7.69015e-06
-9.50611e-06
-1.76163e-07
-7.66896e-06
-9.74807e-06
-1.46979e-07
-7.69458e-06
-9.87443e-06
-1.1018e-07
-7.76311e-06
-9.89536e-06
-6.46588e-08
-7.84786e-06
-9.81476e-06
-1.0416e-08
-7.89439e-06
-9.62875e-06
6.26224e-08
-7.79183e-06
-9.31444e-06
1.50454e-07
-7.39131e-06
-8.80958e-06
2.55172e-07
-6.55772e-06
-8.00435e-06
3.68596e-07
-5.26801e-06
-6.77973e-06
4.65728e-07
-3.70315e-06
-5.07686e-06
5.14326e-07
-2.19808e-06
-2.98532e-06
4.97066e-07
-1.08339e-06
-7.7421e-07
4.25169e-07
-5.07032e-07
1.2574e-06
3.30026e-07
-2.81554e-07
2.80566e-06
2.38797e-07
-1.31248e-07
3.71665e-06
1.57959e-07
4.5216e-08
4.03265e-06
9.84404e-08
1.35993e-07
3.8071e-06
8.91388e-08
2.22068e-06
7.76934e-08
-1.91547e-07
3.59644e-06
2.32422e-07
-8.47881e-07
6.59734e-06
5.52417e-07
-1.67822e-06
6.86523e-06
6.53799e-07
-2.53115e-06
5.84726e-06
5.46015e-07
-3.33002e-06
4.07627e-06
3.12528e-07
-4.07029e-06
2.39638e-06
6.51299e-08
-4.73687e-06
1.0122e-06
-1.30316e-07
-5.34403e-06
-1.93916e-07
-2.57226e-07
-5.93733e-06
-1.34381e-06
-3.22672e-07
-6.50646e-06
-2.55643e-06
-3.39518e-07
-7.00333e-06
-3.86013e-06
-3.23917e-07
-7.36222e-06
-5.21341e-06
-2.93611e-07
-7.54058e-06
-6.51013e-06
-2.62541e-07
-7.54374e-06
-7.63085e-06
-2.36694e-07
-7.41507e-06
-8.50729e-06
-2.15512e-07
-7.20721e-06
-9.14168e-06
-1.96051e-07
-6.96255e-06
-9.57415e-06
-1.75978e-07
-6.71065e-06
-9.84533e-06
-1.53981e-07
-6.47337e-06
-9.98178e-06
-1.29249e-07
-6.26908e-06
-9.99792e-06
-1.01018e-07
-6.1131e-06
-9.90168e-06
-6.83197e-08
-6.01243e-06
-9.69865e-06
-3.00188e-08
-5.95167e-06
-9.39321e-06
1.87599e-08
-5.86394e-06
-8.9839e-06
8.73329e-08
-5.59875e-06
-8.44843e-06
1.79606e-07
-4.96464e-06
-7.71719e-06
3.04021e-07
-3.83133e-06
-6.66008e-06
4.50503e-07
-2.26291e-06
-5.13725e-06
5.84081e-07
-5.98184e-07
-3.09996e-06
6.61605e-07
7.17694e-07
-7.14376e-07
6.5653e-07
1.35302e-06
1.59415e-06
5.76866e-07
1.31458e-06
3.29746e-06
4.58384e-07
8.90315e-07
4.11898e-06
3.38677e-07
3.74679e-07
4.07145e-06
2.51948e-07
2.44499e-06
1.5083e-07
1.56925e-07
3.31132e-06
1.2755e-07
3.40052e-08
6.36961e-06
3.50379e-07
-3.0394e-07
6.82093e-06
3.82425e-07
-8.56649e-07
6.17136e-06
2.29081e-07
-1.5101e-06
4.73012e-06
7.54232e-11
-2.0826e-06
3.19626e-06
-2.27043e-07
-2.54285e-06
1.84617e-06
-3.73496e-07
-2.94196e-06
6.51672e-07
-4.46363e-07
-3.33169e-06
-4.94394e-07
-4.59622e-07
-3.75571e-06
-1.70401e-06
-4.28347e-07
-4.18774e-06
-3.05894e-06
-3.69068e-07
-4.55207e-06
-4.54691e-06
-3.02008e-07
-4.77977e-06
-6.03599e-06
-2.46141e-07
-4.85375e-06
-7.34665e-06
-2.0981e-07
-4.80267e-06
-8.36841e-06
-1.89464e-07
-4.67093e-06
-9.09565e-06
-1.77208e-07
-4.49194e-06
-9.58566e-06
-1.66882e-07
-4.28392e-06
-9.89774e-06
-1.54971e-07
-4.05496e-06
-1.00706e-05
-1.3952e-07
-3.80842e-06
-1.01247e-05
-1.19048e-07
-3.54751e-06
-1.00694e-05
-9.2488e-08
-3.28027e-06
-9.90575e-06
-5.94677e-08
-3.02291e-06
-9.62874e-06
-2.11412e-08
-2.80178e-06
-9.23068e-06
2.63632e-08
-2.6311e-06
-8.70392e-06
8.55595e-08
-2.47049e-06
-8.03687e-06
1.59861e-07
-2.19467e-06
-7.19501e-06
2.59952e-07
-1.63278e-06
-6.09129e-06
3.93027e-07
-7.08278e-07
-4.57258e-06
5.49007e-07
4.00128e-07
-2.50773e-06
6.85876e-07
1.25867e-06
-1.02962e-08
7.46867e-07
1.45573e-06
2.3965e-06
7.049e-07
1.02758e-06
3.96492e-06
5.83137e-07
4.01632e-07
4.26692e-06
4.31234e-07
2.62774e-06
2.19429e-07
4.5375e-07
2.81298e-06
4.38509e-08
9.01772e-07
5.76882e-06
1.52474e-07
1.10621e-06
6.48022e-06
1.36304e-07
1.08059e-06
6.19121e-06
6.01325e-09
8.13614e-07
5.18418e-06
-1.86749e-07
4.86135e-07
3.86007e-06
-3.36057e-07
2.15282e-07
2.53482e-06
-4.17624e-07
9.29463e-09
1.29213e-06
-4.344e-07
-1.63102e-07
7.93888e-08
-4.01387e-07
-2.90517e-07
-1.24364e-06
-3.32989e-07
-3.40765e-07
-2.76407e-06
-2.44646e-07
-2.87351e-07
-4.44071e-06
-1.59535e-07
-1.53726e-07
-6.0677e-06
-1.01702e-07
9.93563e-09
-7.43045e-06
-7.94956e-08
1.64491e-07
-8.43918e-06
-8.32829e-08
2.96638e-07
-9.12864e-06
-9.8568e-08
4.04923e-07
-9.57751e-06
-1.15794e-07
4.91515e-07
-9.85304e-06
-1.30618e-07
5.58566e-07
-9.99597e-06
-1.40946e-07
6.07906e-07
-1.00282e-05
-1.45196e-07
6.41884e-07
-9.96102e-06
-1.41679e-07
6.645e-07
-9.79903e-06
-1.28633e-07
6.81016e-07
-9.54027e-06
-1.04291e-07
6.93415e-07
-9.17505e-06
-6.73436e-08
6.93928e-07
-8.68524e-06
-1.85406e-08
6.5144e-07
-8.04683e-06
5.30949e-08
5.48677e-07
-7.23415e-06
1.42586e-07
4.26149e-07
-6.2176e-06
2.496e-07
4.02908e-07
-4.92871e-06
3.80287e-07
5.88076e-07
-3.22772e-06
5.35935e-07
8.89618e-07
-9.97195e-07
6.86682e-07
9.99092e-07
1.52344e-06
7.65057e-07
7.23045e-07
3.52709e-06
7.15328e-07
2.9868e-07
4.1422e-06
5.50362e-07
2.66469e-06
2.62743e-07
5.64796e-07
2.24546e-06
1.89483e-09
1.44898e-06
4.86682e-06
1.72052e-08
2.18193e-06
5.77005e-06
-2.31508e-08
2.74778e-06
5.73912e-06
-1.13951e-07
2.98119e-06
5.15081e-06
-2.00118e-07
2.93916e-06
4.15816e-06
-2.56112e-07
2.74228e-06
3.00041e-06
-2.68797e-07
2.498e-06
1.77594e-06
-2.39676e-07
2.32481e-06
4.29214e-07
-1.76845e-07
2.37162e-06
-1.20069e-06
-8.99866e-08
2.64953e-06
-3.04377e-06
1.64745e-09
3.03494e-06
-4.88462e-06
5.852e-08
3.36689e-06
-6.46964e-06
7.0215e-08
3.56248e-06
-7.66926e-06
4.36198e-08
3.63085e-06
-8.50737e-06
3.52589e-10
3.62312e-06
-9.07551e-06
-4.47831e-08
3.5866e-06
-9.45626e-06
-8.40681e-08
3.55063e-06
-9.70008e-06
-1.1629e-07
3.52925e-06
-9.83269e-06
-1.41193e-07
3.52636e-06
-9.86583e-06
-1.58743e-07
3.53842e-06
-9.80353e-06
-1.68829e-07
3.55588e-06
-9.64464e-06
-1.71115e-07
3.56473e-06
-9.3835e-06
-1.64891e-07
3.54872e-06
-9.00943e-06
-1.48874e-07
3.49064e-06
-8.50556e-06
-1.20872e-07
3.37038e-06
-7.84854e-06
-7.72919e-08
3.16502e-06
-7.01185e-06
-1.62107e-08
2.83823e-06
-5.97093e-06
8.0846e-08
2.39919e-06
-4.69287e-06
2.03976e-07
1.92699e-06
-3.10883e-06
3.5421e-07
1.52173e-06
-1.11511e-06
5.24286e-07
1.15152e-06
1.22354e-06
6.71421e-07
7.05584e-07
3.2703e-06
7.04079e-07
2.93142e-07
3.98537e-06
5.70573e-07
2.69087e-06
2.68089e-07
2.4799e-07
1.97495e-06
2.16868e-08
8.89898e-07
4.22481e-06
-6.6628e-10
1.60539e-06
5.08588e-06
-3.18955e-08
2.24212e-06
5.16243e-06
-6.0462e-08
2.63782e-06
4.81704e-06
-6.22506e-08
2.76382e-06
4.07448e-06
-4.26168e-08
2.79233e-06
2.97587e-06
-4.30543e-09
2.97306e-06
1.52592e-06
6.89129e-08
3.49756e-06
-2.48958e-07
1.53315e-07
4.32231e-06
-2.25273e-06
2.27083e-07
5.20008e-06
-4.17773e-06
2.56224e-07
5.8728e-06
-5.78532e-06
2.28287e-07
6.22808e-06
-6.98569e-06
1.61279e-07
6.31486e-06
-7.83761e-06
8.22145e-08
6.24808e-06
-8.44678e-06
6.87879e-09
6.11829e-06
-8.89422e-06
-5.07635e-08
5.98354e-06
-9.22198e-06
-9.87922e-08
5.86912e-06
-9.44743e-06
-1.37492e-07
5.78235e-06
-9.5771e-06
-1.68083e-07
5.72196e-06
-9.61321e-06
-1.91496e-07
5.68247e-06
-9.55519e-06
-2.08127e-07
5.65547e-06
-9.3991e-06
-2.17829e-07
5.62844e-06
-9.13583e-06
-2.19943e-07
5.58178e-06
-8.74874e-06
-2.1335e-07
5.48576e-06
-8.21237e-06
-1.96519e-07
5.30116e-06
-7.49603e-06
-1.67294e-07
4.98731e-06
-6.57466e-06
-1.22728e-07
4.51602e-06
-5.43941e-06
-5.9608e-08
3.88321e-06
-4.08881e-06
2.94089e-08
3.11262e-06
-2.49761e-06
1.60121e-07
2.29011e-06
-6.13699e-07
3.21996e-07
1.49832e-06
1.5237e-06
4.92672e-07
8.06013e-07
3.38013e-06
5.83488e-07
2.87958e-07
4.00643e-06
4.97978e-07
2.74753e-06
2.32177e-07
-2.0651e-07
2.10336e-06
7.72239e-08
-3.14063e-07
4.24338e-06
8.81226e-08
-2.92857e-07
4.99012e-06
7.38295e-08
-2.5988e-07
5.03342e-06
9.54269e-08
-2.40716e-07
4.6438e-06
1.53541e-07
-8.90868e-08
3.69396e-06
2.28386e-07
4.18455e-07
2.15397e-06
3.13884e-07
1.38521e-06
1.7075e-07
3.88077e-07
2.60736e-06
-1.88524e-06
4.14053e-07
3.7258e-06
-3.7423e-06
3.71344e-07
4.4898e-06
-5.21471e-06
2.73423e-07
4.85711e-06
-6.3095e-06
1.57461e-07
4.94841e-06
-7.13059e-06
5.42561e-08
4.9161e-06
-7.77932e-06
-2.53076e-08
4.86013e-06
-8.30872e-06
-8.14151e-08
4.82789e-06
-8.73522e-06
-1.26074e-07
4.82985e-06
-9.06189e-06
-1.61354e-07
4.86232e-06
-9.28968e-06
-1.89511e-07
4.91799e-06
-9.41996e-06
-2.12092e-07
4.9892e-06
-9.45357e-06
-2.30104e-07
5.06817e-06
-9.38925e-06
-2.44163e-07
5.14628e-06
-9.22195e-06
-2.54506e-07
5.21253e-06
-8.94041e-06
-2.60923e-07
5.25113e-06
-8.52398e-06
-2.6264e-07
5.23832e-06
-7.94055e-06
-2.58298e-07
5.13964e-06
-7.1509e-06
-2.45763e-07
4.91115e-06
-6.1237e-06
-2.2182e-07
4.50756e-06
-4.85326e-06
-1.81922e-07
3.8987e-06
-3.36001e-06
-1.19304e-07
3.09476e-06
-1.667e-06
-2.60144e-08
2.16504e-06
2.07261e-07
1.09424e-07
1.27022e-06
2.14892e-06
2.70234e-07
5.80994e-07
3.68437e-06
3.85503e-07
1.2172e-07
4.11784e-06
3.48363e-07
2.71588e-06
1.53856e-07
-4.12918e-07
2.38703e-06
1.28357e-07
-1.04041e-06
4.6581e-06
2.11887e-07
-1.61156e-06
5.30957e-06
2.5087e-07
-2.05023e-06
5.15654e-06
3.14833e-07
-2.13176e-06
4.32977e-06
3.94966e-07
-1.65739e-06
2.75729e-06
4.61901e-07
-6.95963e-07
7.10248e-07
4.82164e-07
3.9386e-07
-1.34964e-06
4.30737e-07
1.28821e-06
-3.09688e-06
3.17713e-07
1.81655e-06
-4.45262e-06
1.82542e-07
2.04575e-06
-5.50453e-06
6.12348e-08
2.13331e-06
-6.36727e-06
-2.91512e-08
2.19681e-06
-7.10504e-06
-8.84035e-08
2.28738e-06
-7.73531e-06
-1.33916e-07
2.40646e-06
-8.25714e-06
-1.69952e-07
2.54075e-06
-8.67021e-06
-1.98568e-07
2.67909e-06
-8.97877e-06
-2.20706e-07
2.81603e-06
-9.18877e-06
-2.37089e-07
2.94996e-06
-9.30458e-06
-2.48536e-07
3.08053e-06
-9.32745e-06
-2.55927e-07
3.20703e-06
-9.25493e-06
-2.60072e-07
3.32722e-06
-9.07981e-06
-2.61578e-07
3.43589e-06
-8.78761e-06
-2.60733e-07
3.52255e-06
-8.35252e-06
-2.57402e-07
3.56863e-06
-7.73479e-06
-2.51172e-07
3.54554e-06
-6.88555e-06
-2.41637e-07
3.41564e-06
-5.76503e-06
-2.28194e-07
3.13961e-06
-4.36786e-06
-2.08817e-07
2.69228e-06
-2.7346e-06
-1.7754e-07
2.08407e-06
-9.35178e-07
-1.23058e-07
1.38443e-06
9.41175e-07
-3.37168e-08
7.32602e-07
2.71442e-06
8.68336e-08
2.70334e-07
3.95514e-06
1.91897e-07
-2.23703e-09
4.19989e-06
1.9089e-07
2.63811e-06
7.58524e-08
-3.85978e-07
2.61723e-06
1.54902e-07
-1.09552e-06
5.05811e-06
3.08681e-07
-1.78166e-06
5.60124e-06
3.93699e-07
-2.26005e-06
5.17387e-06
4.60466e-07
-2.25879e-06
3.83546e-06
4.92712e-07
-1.82881e-06
1.86474e-06
4.62535e-07
-1.28403e-06
-1.97621e-07
3.6333e-07
-8.96559e-07
-1.96156e-06
2.2487e-07
-7.19307e-07
-3.36345e-06
8.98102e-08
-6.40579e-07
-4.51052e-06
-2.03042e-08
-5.49154e-07
-5.49974e-06
-9.56614e-08
-3.96036e-07
-6.36541e-06
-1.54374e-07
-1.93904e-07
-7.10768e-06
-1.98857e-07
2.82269e-08
-7.72461e-06
-2.32152e-07
2.4986e-07
-8.22212e-06
-2.55943e-07
4.62098e-07
-8.61028e-06
-2.71448e-07
6.62504e-07
-8.89831e-06
-2.80134e-07
8.50256e-07
-9.09228e-06
-2.83501e-07
1.02434e-06
-9.19504e-06
-2.82868e-07
1.18339e-06
-9.20645e-06
-2.79286e-07
1.3258e-06
-9.12305e-06
-2.73523e-07
1.44965e-06
-8.93682e-06
-2.66081e-07
1.55238e-06
-8.63239e-06
-2.57172e-07
1.63035e-06
-8.18307e-06
-2.46665e-07
1.67825e-06
-7.54783e-06
-2.34129e-07
1.68701e-06
-6.67423e-06
-2.19375e-07
1.64008e-06
-5.51435e-06
-2.03087e-07
1.51192e-06
-4.05276e-06
-1.8632e-07
1.2804e-06
-2.33485e-06
-1.67613e-07
9.53055e-07
-4.68013e-07
-1.39163e-07
5.84945e-07
1.39869e-06
-8.86953e-08
2.61161e-07
3.04779e-06
-8.83449e-09
5.75443e-08
4.09062e-06
6.88754e-08
-3.75696e-08
4.20979e-06
8.59465e-08
2.57015e-06
3.11262e-08
-2.66698e-07
2.73379e-06
1.49306e-07
-8.34898e-07
5.28826e-06
3.37316e-07
-1.42343e-06
5.75324e-06
4.35936e-07
-1.87581e-06
5.1595e-06
4.66348e-07
-2.03312e-06
3.57353e-06
4.19121e-07
-2.04233e-06
1.57081e-06
3.03271e-07
-2.08568e-06
-3.08568e-07
1.54582e-07
-2.18689e-06
-1.87254e-06
1.2588e-08
-2.27412e-06
-3.1825e-06
-9.32779e-08
-2.28764e-06
-4.32308e-06
-1.73412e-07
-2.22277e-06
-5.33301e-06
-2.31034e-07
-2.1004e-06
-6.2167e-06
-2.70475e-07
-1.94119e-06
-6.97027e-06
-2.95969e-07
-1.75887e-06
-7.59491e-06
-3.11338e-07
-1.56351e-06
-8.0975e-06
-3.19275e-07
-1.36371e-06
-8.48776e-06
-3.21589e-07
-1.16671e-06
-8.77501e-06
-3.19552e-07
-9.77827e-07
-8.96636e-06
-3.14057e-07
-8.00426e-07
-9.06594e-06
-3.0574e-07
-6.36285e-07
-9.07477e-06
-2.95049e-07
-4.85972e-07
-8.9903e-06
-2.82285e-07
-3.48951e-07
-8.80544e-06
-2.67604e-07
-2.23231e-07
-8.50632e-06
-2.50992e-07
-1.04636e-07
-8.06865e-06
-2.32208e-07
1.2911e-08
-7.45384e-06
-2.10712e-07
1.33966e-07
-6.60818e-06
-1.86295e-07
2.5249e-07
-5.47164e-06
-1.60428e-07
3.43915e-07
-4.00673e-06
-1.36653e-07
3.70127e-07
-2.24205e-06
-1.18201e-07
3.08973e-07
-3.03083e-07
-1.02926e-07
1.88805e-07
1.60052e-06
-8.07135e-08
7.20289e-08
3.20644e-06
-4.08237e-08
-2.60296e-10
4.15422e-06
9.76228e-09
-2.76206e-08
4.2066e-06
3.16234e-08
2.53079e-06
1.27975e-08
-7.93859e-08
2.70315e-06
1.09222e-07
-3.74301e-07
5.29959e-06
2.82935e-07
-7.54936e-07
5.76954e-06
3.63872e-07
-1.16503e-06
5.22368e-06
3.45663e-07
-1.55137e-06
3.72026e-06
2.39598e-07
-1.94517e-06
1.87266e-06
9.21087e-08
-2.33018e-06
1.27542e-07
-5.08302e-08
-2.65988e-06
-1.37967e-06
-1.62847e-07
-2.88392e-06
-2.7179e-06
-2.4016e-07
-2.98818e-06
-3.92817e-06
-2.90189e-07
-2.97998e-06
-5.01938e-06
-3.21306e-07
-2.88114e-06
-5.97486e-06
-3.40089e-07
-2.72132e-06
-6.77864e-06
-3.50829e-07
-2.52924e-06
-7.43039e-06
-3.55935e-07
-2.32667e-06
-7.94286e-06
-3.56521e-07
-2.12709e-06
-8.33331e-06
-3.53327e-07
-1.93781e-06
-8.61662e-06
-3.46961e-07
-1.76264e-06
-8.80289e-06
-3.3791e-07
-1.60369e-06
-8.89765e-06
-3.26519e-07
-1.46215e-06
-8.90261e-06
-3.12972e-07
-1.3385e-06
-8.81592e-06
-2.97293e-07
-1.23218e-06
-8.63168e-06
-2.79345e-07
-1.14034e-06
-8.33858e-06
-2.58813e-07
-1.05553e-06
-7.91754e-06
-2.35141e-07
-9.63042e-07
-7.33828e-06
-2.07241e-07
-8.41299e-07
-6.55516e-06
-1.73899e-07
-6.69136e-07
-5.5072e-06
-1.35686e-07
-4.44726e-07
-4.13369e-06
-9.6471e-08
-2.04143e-07
-2.41854e-06
-6.3054e-08
-1.04495e-08
-4.54613e-07
-4.10319e-08
9.13737e-08
1.52747e-06
-2.7534e-08
1.10641e-07
3.20038e-06
-1.18534e-08
7.65032e-08
4.17686e-06
1.28476e-08
2.60001e-08
4.23021e-06
2.82163e-08
2.53973e-06
1.83029e-08
1.52858e-07
2.49477e-06
5.47469e-08
2.2763e-07
5.04838e-06
1.75844e-07
1.47225e-07
5.62598e-06
2.23507e-07
-7.76357e-08
5.27141e-06
1.7684e-07
-4.91035e-07
4.07174e-06
6.18077e-08
-1.00559e-06
2.45916e-06
-7.19193e-08
-1.51259e-06
8.20323e-07
-1.85655e-07
-1.91611e-06
-7.13287e-07
-2.62641e-07
-2.19093e-06
-2.13453e-06
-3.08252e-07
-2.33492e-06
-3.45066e-06
-3.33125e-07
-2.36617e-06
-4.6409e-06
-3.46748e-07
-2.31469e-06
-5.67088e-06
-3.54901e-07
-2.21153e-06
-6.52119e-06
-3.59985e-07
-2.08083e-06
-7.1979e-06
-3.62522e-07
-1.93816e-06
-7.72237e-06
-3.62471e-07
-1.79274e-06
-8.11807e-06
-3.59962e-07
-1.65023e-06
-8.40325e-06
-3.55176e-07
-1.51452e-06
-8.58966e-06
-3.48232e-07
-1.38855e-06
-8.68377e-06
-3.39147e-07
-1.27455e-06
-8.68806e-06
-3.27825e-07
-1.17425e-06
-8.60146e-06
-3.14052e-07
-1.08861e-06
-8.4191e-06
-2.97491e-07
-1.01727e-06
-8.13153e-06
-2.77648e-07
-9.5693e-07
-7.72331e-06
-2.53813e-07
-8.98682e-07
-7.17112e-06
-2.24624e-07
-8.24715e-07
-6.44016e-06
-1.88115e-07
-7.07438e-07
-5.48013e-06
-1.43414e-07
-5.20877e-07
-4.22672e-06
-9.24793e-08
-2.68902e-07
-2.62767e-06
-4.16478e-08
-6.53706e-09
-7.12878e-07
-2.76426e-09
1.76014e-07
1.32091e-06
2.54731e-08
2.30967e-07
3.10793e-06
3.90586e-08
1.73251e-07
4.18709e-06
4.89967e-08
7.13185e-08
4.28114e-06
5.24201e-08
2.5784e-06
3.39407e-08
3.16504e-07
2.16422e-06
1.32816e-08
7.48941e-07
4.54386e-06
7.1526e-08
1.03693e-06
5.24923e-06
8.83149e-08
1.181e-06
5.08733e-06
3.96822e-08
1.05456e-06
4.25191e-06
-5.38946e-08
7.23146e-07
2.94183e-06
-1.51304e-07
3.10299e-07
1.45701e-06
-2.23798e-07
-8.62641e-08
-4.9523e-08
-2.67061e-07
-3.79202e-07
-1.55322e-06
-2.88113e-07
-5.55047e-07
-2.97548e-06
-2.98954e-07
-6.27278e-07
-4.25936e-06
-3.08814e-07
-6.28757e-07
-5.34803e-06
-3.20796e-07
-5.92222e-07
-6.22353e-06
-3.33567e-07
-5.39531e-07
-6.90508e-06
-3.44851e-07
-4.81302e-07
-7.42662e-06
-3.53293e-07
-4.21705e-07
-7.81855e-06
-3.58433e-07
-3.62701e-07
-8.10125e-06
-3.60329e-07
-3.06061e-07
-8.28643e-06
-3.59194e-07
-2.53801e-07
-8.38015e-06
-3.5522e-07
-2.08092e-07
-8.38464e-06
-3.48477e-07
-1.71143e-07
-8.29889e-06
-3.38863e-07
-1.45082e-07
-8.11842e-06
-3.26084e-07
-1.31645e-07
-7.83466e-06
-3.09642e-07
-1.31299e-07
-7.43422e-06
-2.88765e-07
-1.41523e-07
-6.89828e-06
-2.61917e-07
-1.53301e-07
-6.20099e-06
-2.26658e-07
-1.4585e-07
-5.30573e-06
-1.81023e-07
-8.75072e-08
-4.15943e-06
-1.24666e-07
4.50514e-08
-2.69854e-06
-6.05284e-08
2.32479e-07
-8.98202e-07
-7.21415e-10
3.80943e-07
1.11958e-06
5.44424e-08
4.05705e-07
3.00152e-06
8.33467e-08
2.93693e-07
4.20861e-06
9.2116e-08
1.22874e-07
4.36766e-06
8.57915e-08
2.65142e-06
5.11574e-08
2.73592e-07
1.89166e-06
-1.80521e-09
7.83869e-07
4.02014e-06
1.28585e-08
1.2643e-06
4.75799e-06
1.03105e-08
1.66059e-06
4.7195e-06
-2.88549e-08
1.84576e-06
4.14974e-06
-8.32509e-08
1.82071e-06
3.09719e-06
-1.30465e-07
1.68621e-06
1.75288e-06
-1.61403e-07
1.55226e-06
2.62379e-07
-1.77836e-07
1.47949e-06
-1.29033e-06
-1.89835e-07
1.47514e-06
-2.76246e-06
-2.08237e-07
1.50472e-06
-4.05197e-06
-2.36398e-07
1.53239e-06
-5.10532e-06
-2.69748e-07
1.54162e-06
-5.93038e-06
-3.01711e-07
1.53408e-06
-6.56844e-06
-3.28419e-07
1.51911e-06
-7.06221e-06
-3.48769e-07
1.50497e-06
-7.44075e-06
-3.63002e-07