/*--------------------------------*- C++ -*----------------------------------*\
| =========                 |                                                 |
| \\      /  F ield         | OpenFOAM: The Open Source CFD Toolbox           |
|  \\    /   O peration     | Version:  v2006                                 |
|   \\  /    A nd           | Website:  www.openfoam.com                      |
|    \\/     M anipulation  |                                                 |
\*---------------------------------------------------------------------------*/
FoamFile
{
    version     2.0;
    format      ascii;
    class       volScalarField;
    location    "17";
    object      T;
}
// * * * * * * * * * * * * * * * * * * * * * * * * * * * * * * * * * * * * * //

dimensions      [0 0 0 1 0 0 0];


internalField   nonuniform List<scalar> 
78750
(
297.934
296.663
296.971
296.944
296.96
296.969
296.977
296.985
296.993
297
297.007
297.014
297.02
297.026
297.032
297.036
297.04
297.043
297.045
297.046
297.046
297.046
297.044
297.041
297.037
297.032
297.025
297.017
297.005
296.991
296.974
296.965
297.03
297.37
298.211
298.888
297.557
297.111
297.018
297.012
297.022
297.035
297.048
297.062
297.075
297.089
297.103
297.116
297.128
297.138
297.147
297.154
297.16
297.165
297.168
297.17
297.17
297.169
297.166
297.162
297.155
297.146
297.134
297.12
297.102
297.084
297.083
297.185
297.557
298.375
299.164
298.003
297.37
297.068
296.982
296.988
297.013
297.036
297.056
297.075
297.095
297.115
297.133
297.15
297.165
297.177
297.187
297.195
297.201
297.205
297.207
297.208
297.207
297.204
297.198
297.19
297.178
297.162
297.142
297.12
297.106
297.144
297.334
297.777
298.589
299.282
298.249
297.705
297.377
297.17
297.062
297.013
296.999
297.007
297.032
297.066
297.105
297.141
297.173
297.198
297.218
297.234
297.245
297.254
297.26
297.264
297.267
297.268
297.266
297.262
297.255
297.244
297.229
297.209
297.189
297.182
297.238
297.458
297.921
298.734
299.411
298.442
297.91
297.56
297.282
297.102
297.014
296.992
297.01
297.051
297.1
297.147
297.187
297.219
297.244
297.262
297.275
297.284
297.291
297.296
297.3
297.302
297.302
297.299
297.294
297.285
297.271
297.252
297.23
297.215
297.231
297.343
297.644
298.19
299.071
299.511
298.643
298.129
297.787
297.499
297.277
297.139
297.078
297.075
297.109
297.156
297.204
297.244
297.274
297.296
297.312
297.323
297.331
297.337
297.342
297.346
297.349
297.351
297.35
297.345
297.336
297.322
297.303
297.282
297.267
297.282
297.397
297.718
298.276
299.147
299.563
298.781
298.288
297.955
297.676
297.447
297.297
297.231
297.227
297.254
297.288
297.317
297.338
297.35
297.358
297.363
297.367
297.371
297.375
297.379
297.382
297.385
297.386
297.383
297.374
297.356
297.332
297.305
297.281
297.274
297.314
297.47
297.824
298.404
299.293
299.585
298.848
298.35
297.992
297.688
297.463
297.347
297.314
297.322
297.343
297.361
297.373
297.381
297.386
297.39
297.394
297.399
297.405
297.411
297.418
297.424
297.431
297.435
297.433
297.42
297.394
297.36
297.327
297.31
297.331
297.43
297.662
298.026
298.583
299.513
299.573
298.812
298.272
297.868
297.565
297.403
297.352
297.357
297.378
297.399
297.413
297.421
297.424
297.426
297.427
297.428
297.43
297.434
297.439
297.447
297.456
297.467
297.48
297.492
297.499
297.498
297.494
297.501
297.538
297.629
297.795
298.06
298.421
298.976
299.927
299.577
298.81
298.243
297.824
297.546
297.428
297.404
297.416
297.435
297.451
297.461
297.464
297.464
297.462
297.46
297.458
297.459
297.461
297.464
297.47
297.478
297.49
297.507
297.531
297.562
297.598
297.637
297.681
297.747
297.864
298.059
298.347
298.717
299.279
300.244
299.582
298.814
298.242
297.83
297.573
297.471
297.452
297.464
297.483
297.5
297.51
297.512
297.508
297.502
297.496
297.492
297.49
297.49
297.492
297.495
297.498
297.502
297.508
297.518
297.535
297.566
297.616
297.689
297.789
297.931
298.144
298.462
298.879
299.487
300.46
299.603
298.857
298.33
297.945
297.681
297.564
297.528
297.529
297.542
297.557
297.567
297.568
297.559
297.545
297.533
297.525
297.522
297.523
297.527
297.533
297.542
297.553
297.564
297.575
297.587
297.602
297.626
297.673
297.758
297.901
298.126
298.466
298.958
299.659
300.653
299.632
298.927
298.459
298.112
297.833
297.677
297.61
297.593
297.6
297.616
297.628
297.627
297.611
297.587
297.566
297.552
297.545
297.543
297.546
297.55
297.558
297.567
297.579
297.594
297.613
297.635
297.665
297.707
297.777
297.905
298.13
298.492
299.028
299.758
300.742
299.693
299.095
298.651
298.331
298.077
297.897
297.793
297.746
297.734
297.735
297.726
297.696
297.655
297.616
297.59
297.578
297.575
297.578
297.584
297.593
297.604
297.616
297.629
297.644
297.661
297.682
297.709
297.746
297.808
297.924
298.144
298.526
299.101
299.833
300.785
299.741
299.237
298.834
298.547
298.322
298.147
298.033
297.965
297.915
297.857
297.783
297.707
297.648
297.613
297.597
297.594
297.598
297.605
297.613
297.622
297.633
297.646
297.662
297.681
297.705
297.735
297.772
297.818
297.88
297.984
298.183
298.549
299.13
299.836
300.741
299.757
299.291
298.928
298.679
298.486
298.318
298.173
298.036
297.902
297.78
297.69
297.639
297.621
297.621
297.628
297.637
297.645
297.652
297.66
297.669
297.681
297.695
297.712
297.735
297.764
297.802
297.85
297.91
297.99
298.11
298.314
298.672
299.225
299.901
300.79
299.765
299.317
298.969
298.712
298.485
298.261
298.054
297.882
297.762
297.698
297.677
297.675
297.678
297.68
297.68
297.679
297.68
297.683
297.69
297.699
297.711
297.728
297.75
297.778
297.817
297.869
297.938
298.024
298.135
298.287
298.518
298.883
299.408
300.083
301.012
299.765
299.313
298.958
298.662
298.377
298.125
297.935
297.821
297.766
297.745
297.735
297.727
297.72
297.714
297.711
297.711
297.714
297.72
297.727
297.738
297.751
297.768
297.791
297.822
297.865
297.927
298.011
298.123
298.266
298.454
298.717
299.098
299.611
300.282
301.228
299.76
299.296
298.93
298.61
298.302
298.068
297.924
297.85
297.816
297.797
297.784
297.773
297.763
297.755
297.749
297.746
297.747
297.75
297.756
297.766
297.779
297.796
297.82
297.852
297.899
297.965
298.06
298.191
298.364
298.589
298.885
299.286
299.796
300.466
301.424
299.755
299.28
298.915
298.597
298.3
298.095
297.979
297.921
297.89
297.867
297.846
297.826
297.807
297.793
297.784
297.779
297.779
297.782
297.789
297.798
297.811
297.829
297.851
297.882
297.925
297.989
298.083
298.221
298.412
298.665
298.994
299.419
299.943
300.624
301.589
299.761
299.294
298.953
298.665
298.391
298.201
298.089
298.026
297.985
297.949
297.914
297.882
297.854
297.832
297.818
297.81
297.808
297.81
297.815
297.825
297.837
297.854
297.875
297.903
297.942
297.999
298.084
298.214
298.407
298.676
299.033
299.489
300.042
300.744
301.717
299.782
299.355
299.035
298.775
298.536
298.355
298.237
298.16
298.1
298.044
297.989
297.939
297.899
297.87
297.851
297.841
297.838
297.841
297.847
297.857
297.87
297.887
297.908
297.935
297.971
298.021
298.095
298.209
298.387
298.654
299.028
299.517
300.108
300.838
301.82
299.81
299.436
299.139
298.908
298.707
298.54
298.414
298.314
298.223
298.134
298.051
297.982
297.931
297.897
297.878
297.868
297.866
297.868
297.875
297.886
297.899
297.916
297.938
297.965
298
298.046
298.111
298.209
298.364
298.609
298.977
299.484
300.109
300.867
301.857
299.829
299.493
299.222
299.014
298.834
298.67
298.526
298.394
298.267
298.151
298.056
297.986
297.941
297.914
297.9
297.895
297.896
297.902
297.911
297.922
297.937
297.955
297.979
298.008
298.045
298.093
298.157
298.248
298.387
298.609
298.957
299.462
300.102
300.878
301.88
299.842
299.532
299.282
299.087
298.907
298.729
298.556
298.392
298.246
298.128
298.044
297.989
297.955
297.937
297.928
297.927
297.93
297.936
297.945
297.957
297.973
297.992
298.017
298.049
298.09
298.142
298.209
298.298
298.427
298.629
298.953
299.441
300.078
300.864
301.881
299.844
299.541
299.301
299.102
298.901
298.694
298.498
298.327
298.191
298.095
298.033
297.995
297.973
297.962
297.958
297.96
297.966
297.974
297.985
297.999
298.017
298.039
298.069
298.107
298.156
298.218
298.294
298.392
298.525
298.724
299.035
299.506
300.122
300.902
301.94
299.84
299.53
299.287
299.075
298.849
298.626
298.43
298.275
298.164
298.09
298.044
298.016
298.001
297.995
297.995
297.999
298.006
298.016
298.028
298.044
298.063
298.089
298.124
298.171
298.231
298.306
298.397
298.507
298.65
298.855
299.167
299.632
300.226
300.993
302.053
299.827
299.495
299.239
299.011
298.769
298.547
298.367
298.236
298.147
298.091
298.057
298.038
298.031
298.031
298.037
298.044
298.053
298.064
298.076
298.093
298.116
298.149
298.194
298.257
298.338
298.438
298.555
298.691
298.856
299.078
299.4
299.861
300.417
301.153
302.235
299.813
299.458
299.193
298.959
298.718
298.508
298.347
298.235
298.161
298.116
298.09
298.079
298.078
298.084
298.092
298.1
298.106
298.112
298.121
298.137
298.163
298.202
298.261
298.343
298.452
298.587
298.743
298.915
299.111
299.359
299.697
300.151
300.685
301.412
302.505
299.799
299.42
299.148
298.917
298.683
298.488
298.344
298.247
298.186
298.151
298.135
298.132
298.139
298.15
298.161
298.166
298.165
298.161
298.16
298.17
298.194
298.238
298.31
298.415
298.558
298.742
298.957
299.189
299.429
299.697
300.036
300.466
300.996
301.741
302.824
299.802
299.424
299.15
298.932
298.725
298.547
298.412
298.32
298.262
298.229
298.215
298.215
298.224
298.237
298.248
298.249
298.238
298.216
298.193
298.18
298.183
298.21
298.27
298.371
298.522
298.736
299.014
299.342
299.69
300.041
300.413
300.839
301.366
302.103
303.137
299.825
299.478
299.206
299.005
298.835
298.684
298.561
298.47
298.407
298.369
298.349
298.343
298.347
298.357
298.367
298.368
298.353
298.318
298.27
298.225
298.191
298.174
298.185
298.233
298.325
298.478
298.714
299.053
299.487
299.979
300.49
301.006
301.553
302.249
303.209
299.86
299.576
299.333
299.151
299.01
298.89
298.789
298.707
298.644
298.599
298.57
298.552
298.54
298.528
298.508
298.476
298.427
298.368
298.308
298.258
298.22
298.194
298.184
298.193
298.229
298.3
298.42
298.621
298.943
299.412
300.009
300.673
301.313
302.023
302.957
299.882
299.644
299.436
299.274
299.146
299.04
298.956
298.894
298.847
298.807
298.762
298.707
298.639
298.558
298.469
298.379
298.294
298.226
298.179
298.153
298.145
298.155
298.178
298.21
298.251
298.305
298.379
298.491
298.671
298.969
299.427
300.043
300.709
301.447
302.391
299.893
299.685
299.515
299.395
299.305
299.221
299.122
298.996
298.845
298.678
298.51
298.355
298.224
298.121
298.052
298.02
298.016
298.038
298.081
298.141
298.205
298.261
298.305
298.341
298.378
298.424
298.488
298.586
298.738
298.974
299.334
299.84
300.439
301.164
302.142
299.901
299.701
299.516
299.335
299.123
298.87
298.604
298.356
298.148
297.994
297.902
297.875
297.9
297.961
298.054
298.167
298.277
298.357
298.402
298.419
298.425
298.427
298.431
298.442
298.463
298.501
298.565
298.666
298.822
299.055
299.39
299.845
300.392
301.096
302.099
299.853
299.56
299.282
298.983
298.643
298.333
298.11
297.996
297.976
298.01
298.067
298.127
298.179
298.217
298.243
298.265
298.29
298.323
298.36
298.396
298.427
298.452
298.474
298.496
298.524
298.565
298.627
298.725
298.879
299.114
299.452
299.902
300.433
301.135
302.164
299.794
299.403
299.046
298.696
298.38
298.166
298.053
298.001
297.976
297.965
297.965
297.979
298.006
298.045
298.097
298.159
298.23
298.305
298.382
298.455
298.521
298.577
298.624
298.667
298.714
298.773
298.856
298.974
299.143
299.381
299.71
300.135
300.648
301.351
302.389
299.77
299.344
298.999
298.697
298.444
298.284
298.193
298.14
298.105
298.078
298.056
298.038
298.028
298.025
298.032
298.051
298.083
298.135
298.208
298.301
298.409
298.523
298.634
298.735
298.823
298.908
299.005
299.141
299.339
299.615
299.971
300.39
300.881
301.557
302.55
299.791
299.402
299.118
298.886
298.677
298.519
298.406
298.327
298.27
298.228
298.196
298.166
298.137
298.107
298.076
298.046
298.024
298.015
298.022
298.053
298.118
298.224
298.368
298.542
298.731
298.917
299.087
299.243
299.409
299.621
299.91
300.279
300.731
301.38
302.381
299.807
299.451
299.193
298.983
298.787
298.625
298.501
298.412
298.35
298.309
298.284
298.267
298.255
298.245
298.232
298.216
298.193
298.164
298.133
298.106
298.089
298.09
298.123
298.21
298.367
298.59
298.858
299.148
299.445
299.75
300.081
300.455
300.917
301.622
302.708
299.812
299.457
299.199
298.991
298.794
298.622
298.487
298.387
298.315
298.264
298.226
298.196
298.169
298.145
298.123
298.107
298.1
298.1
298.108
298.123
298.142
298.165
298.192
298.228
298.289
298.401
298.593
298.867
299.202
299.576
299.995
300.469
300.997
301.718
302.792
299.827
299.494
299.248
299.064
298.898
298.747
298.624
298.533
298.469
298.425
298.391
298.361
298.33
298.294
298.256
298.219
298.186
298.16
298.142
298.132
298.133
298.143
298.168
298.209
298.275
298.379
298.545
298.802
299.167
299.624
300.136
300.641
301.154
301.825
302.782
299.852
299.562
299.34
299.173
299.03
298.9
298.788
298.698
298.624
298.558
298.491
298.423
298.353
298.289
298.236
298.199
298.178
298.17
298.174
298.187
298.207
298.23
298.255
298.279
298.304
298.336
298.389
298.492
298.696
299.047
299.546
300.127
300.694
301.368
302.363
299.855
299.579
299.376
299.226
299.102
298.988
298.872
298.749
298.62
298.492
298.376
298.279
298.206
298.159
298.133
298.125
298.129
298.142
298.162
298.187
298.218
298.253
298.295
298.342
298.397
298.459
298.526
298.595
298.682
298.84
299.159
299.695
300.361
301.242
302.542
299.868
299.614
299.41
299.239
299.054
298.839
298.62
298.428
298.283
298.192
298.15
298.143
298.156
298.178
298.201
298.224
298.246
298.268
298.292
298.322
298.36
298.41
298.475
298.561
298.682
298.849
299.065
299.315
299.571
299.844
300.2
300.717
301.398
302.35
303.644
299.826
299.496
299.219
298.959
298.694
298.474
298.333
298.269
298.254
298.26
298.27
298.274
298.271
298.263
298.253
298.242
298.234
298.231
298.236
298.252
298.283
298.335
298.413
298.528
298.697
298.944
299.285
299.709
300.18
300.661
301.144
301.641
302.214
302.949
303.865
299.789
299.382
299.048
298.76
298.526
298.397
298.352
298.349
298.36
298.37
298.376
298.378
298.378
298.375
298.37
298.364
298.357
298.351
298.348
298.35
298.362
298.388
298.436
298.513
298.635
298.822
299.099
299.481
299.957
300.484
301.007
301.484
301.949
302.481
303.184
299.823
299.45
299.147
298.896
298.679
298.55
298.507
298.511
298.528
298.539
298.543
298.538
298.528
298.514
298.497
298.478
298.46
298.443
298.429
298.419
298.417
298.424
298.446
298.487
298.554
298.659
298.817
299.046
299.36
299.753
300.189
300.618
301.03
301.523
302.259
299.885
299.63
299.378
299.174
299.012
298.882
298.795
298.752
298.741
298.742
298.74
298.729
298.71
298.685
298.658
298.628
298.596
298.563
298.531
298.501
298.475
298.457
298.449
298.457
298.487
298.543
298.633
298.765
298.952
299.205
299.526
299.898
300.282
300.787
301.654
299.925
299.76
299.595
299.449
299.333
299.243
299.178
299.136
299.11
299.089
299.065
299.031
298.989
298.944
298.9
298.858
298.818
298.779
298.741
298.703
298.664
298.624
298.584
298.545
298.516
298.508
298.54
298.628
298.785
299.022
299.345
299.746
300.19
300.784
301.738
299.943
299.824
299.716
299.62
299.534
299.456
299.384
299.316
299.251
299.186
299.123
299.063
299.006
298.956
298.915
298.88
298.852
298.828
298.806
298.781
298.752
298.719
298.682
298.637
298.584
298.532
298.505
298.531
298.629
298.814
299.095
299.459
299.882
300.464
301.4
299.911
299.741
299.583
299.431
299.289
299.163
299.057
298.973
298.912
298.871
298.852
298.85
298.859
298.872
298.889
298.908
298.931
298.956
298.977
298.982
298.964
298.926
298.874
298.814
298.751
298.692
298.649
298.636
298.674
298.784
298.985
299.284
299.689
300.321
301.36
299.826
299.481
299.166
298.902
298.712
298.608
298.585
298.629
298.718
298.843
298.999
299.161
299.292
299.366
299.375
299.328
299.241
299.136
299.035
298.95
298.887
298.848
298.832
298.838
298.863
298.905
298.961
299.034
299.134
299.278
299.485
299.774
300.181
300.83
301.839
299.689
299.104
298.652
298.393
298.321
298.375
298.493
298.635
298.784
298.936
299.091
299.247
299.391
299.508
299.581
299.597
299.554
299.46
299.329
299.177
299.019
298.872
298.747
298.652
298.601
298.607
298.672
298.793
298.964
299.177
299.428
299.722
300.108
300.711
301.667
299.539
298.76
298.282
298.108
298.131
298.212
298.284
298.353
298.436
298.544
298.675
298.828
298.996
299.173
299.35
299.516
299.661
299.772
299.841
299.86
299.823
299.734
299.599
299.429
299.24
299.059
298.913
298.831
298.835
298.941
299.155
299.489
300.002
300.868
302.2
299.643
299.071
298.677
298.399
298.208
298.073
297.98
297.939
297.948
297.994
298.057
298.127
298.205
298.298
298.418
298.566
298.74
298.935
299.148
299.371
299.595
299.81
300.004
300.163
300.277
300.342
300.366
300.368
300.384
300.46
300.65
301.01
301.62
302.632
304.036
299.721
299.245
298.938
298.737
298.594
298.501
298.454
298.447
298.463
298.477
298.462
298.402
298.308
298.208
298.127
298.075
298.055
298.07
298.126
298.229
298.383
298.586
298.838
299.131
299.46
299.814
300.18
300.55
300.917
301.287
301.67
302.093
302.621
303.343
304.257
299.777
299.379
299.113
298.93
298.791
298.684
298.606
298.554
298.522
298.504
298.491
298.479
298.465
298.445
298.42
298.393
298.365
298.34
298.319
298.306
298.306
298.324
298.367
298.447
298.574
298.763
299.023
299.356
299.758
300.214
300.698
301.172
301.626
302.148
302.876
299.817
299.477
299.236
299.063
298.926
298.821
298.743
298.685
298.643
298.61
298.576
298.531
298.473
298.408
298.346
298.296
298.258
298.235
298.227
298.234
298.256
298.291
298.339
298.4
298.476
298.573
298.698
298.865
299.088
299.377
299.737
300.155
300.603
301.161
302.009
299.846
299.545
299.312
299.147
299.023
298.926
298.851
298.79
298.732
298.665
298.586
298.499
298.416
298.346
298.295
298.261
298.238
298.225
298.222
298.227
298.241
298.266
298.302
298.352
298.419
298.508
298.625
298.779
298.978
299.231
299.55
299.943
300.415
301.04
301.959
299.886
299.652
299.455
299.307
299.189
299.086
298.987
298.88
298.763
298.641
298.528
298.435
298.369
298.326
298.298
298.277
298.262
298.251
298.243
298.24
298.243
298.253
298.273
298.306
298.356
298.427
298.526
298.665
298.857
299.118
299.459
299.882
300.381
301.02
301.936
299.905
299.71
299.536
299.397
299.269
299.13
298.976
298.82
298.678
298.564
298.483
298.433
298.404
298.384
298.368
298.353
298.338
298.322
298.306
298.292
298.281
298.278
298.283
298.3
298.33
298.377
298.447
298.55
298.699
298.912
299.21
299.6
300.067
300.675
301.576
299.887
299.666
299.479
299.33
299.188
299.035
298.888
298.766
298.674
298.612
298.571
298.543
298.521
298.5
298.481
298.461
298.441
298.42
298.398
298.377
298.361
298.353
298.355
298.367
298.392
298.431
298.49
298.576
298.7
298.879
299.132
299.472
299.894
300.482
301.417
299.884
299.655
299.468
299.322
299.192
299.07
298.964
298.876
298.803
298.739
298.683
298.635
298.594
298.558
298.527
298.5
298.474
298.45
298.427
298.408
298.395
298.392
298.4
298.419
298.452
298.503
298.575
298.678
298.822
299.019
299.285
299.626
300.043
300.642
301.612
299.91
299.732
299.579
299.451
299.331
299.213
299.098
298.988
298.886
298.796
298.722
298.664
298.617
298.579
298.549
298.522
298.499
298.48
298.465
298.455
298.45
298.451
298.46
298.479
298.51
298.556
298.623
298.719
298.856
299.046
299.301
299.625
300.021
300.602
301.56
299.886
299.672
299.478
299.288
299.1
298.924
298.771
298.652
298.574
298.527
298.502
298.492
298.489
298.486
298.481
298.472
298.462
298.454
298.449
298.449
298.457
298.473
298.497
298.531
298.575
298.631
298.702
298.797
298.927
299.105
299.343
299.648
300.041
300.641
301.627
299.759
299.338
298.998
298.739
298.577
298.496
298.467
298.463
298.473
298.486
298.499
298.509
298.516
298.518
298.517
298.512
298.505
298.497
298.491
298.49
298.495
298.511
298.537
298.577
298.63
298.7
298.792
298.913
299.068
299.265
299.514
299.825
300.234
300.866
301.856
299.723
299.214
298.804
298.519
298.383
298.361
298.385
298.415
298.44
298.459
298.475
298.489
298.504
298.519
298.537
298.556
298.577
298.598
298.618
298.638
298.657
298.678
298.702
298.732
298.772
298.827
298.905
299.014
299.16
299.351
299.595
299.899
300.308
300.946
301.938
299.803
299.408
299.101
298.877
298.719
298.635
298.606
298.597
298.584
298.557
298.526
298.5
298.48
298.467
298.463
298.468
298.485
298.515
298.556
298.608
298.668
298.736
298.81
298.889
298.973
299.062
299.16
299.274
299.417
299.601
299.842
300.155
300.59
301.276
302.326
299.859
299.565
299.308
299.119
298.981
298.887
298.835
298.818
298.815
298.809
298.784
298.739
298.683
298.625
298.568
298.516
298.475
298.449
298.442
298.455
298.489
298.544
298.623
298.726
298.853
299.003
299.177
299.373
299.593
299.844
300.136
300.49
300.955
301.651
302.658
299.91
299.714
299.53
299.384
299.277
299.198
299.142
299.099
299.055
298.999
298.927
298.846
298.77
298.703
298.641
298.586
298.537
298.492
298.455
298.432
298.424
298.434
298.465
298.518
298.601
298.721
298.883
299.093
299.35
299.653
299.997
300.372
300.817
301.455
302.388
299.933
299.789
299.656
299.545
299.453
299.366
299.278
299.186
299.086
298.981
298.874
298.778
298.7
298.636
298.582
298.537
298.496
298.46
298.431
298.411
298.399
298.397
298.407
298.432
298.476
298.546
298.654
298.814
299.036
299.329
299.688
300.092
300.55
301.198
302.191
299.929
299.785
299.653
299.527
299.393
299.252
299.106
298.963
298.829
298.712
298.62
298.558
298.52
298.498
298.486
298.477
298.468
298.457
298.444
298.431
298.422
298.416
298.417
298.426
298.449
298.491
298.562
298.68
298.866
299.141
299.517
299.972
300.482
301.161
302.15
299.872
299.637
299.417
299.19
298.965
298.756
298.576
298.435
298.338
298.284
298.264
298.272
298.303
298.348
298.393
298.427
298.446
298.454
298.456
298.455
298.454
298.454
298.453
298.454
298.457
298.468
298.496
298.554
298.666
298.864
299.181
299.613
300.104
300.744
301.715
299.806
299.451
299.138
298.857
298.627
298.46
298.354
298.301
298.286
298.3
298.335
298.384
298.433
298.471
298.493
298.499
298.496
298.49
298.488
298.491
298.498
298.509
298.521
298.529
298.528
298.516
298.495
298.478
298.487
298.56
298.761
299.148
299.693
300.509
301.833
299.789
299.401
299.077
298.818
298.629
298.507
298.439
298.411
298.413
298.437
298.477
298.528
298.579
298.62
298.643
298.644
298.627
298.603
298.584
298.58
298.592
298.618
298.658
298.712
298.771
298.815
298.831
298.83
298.846
298.944
299.2
299.672
300.38
301.472
303.011
299.774
299.361
299.022
298.756
298.569
298.457
298.405
298.398
298.421
298.463
298.521
298.59
298.667
298.743
298.808
298.851
298.869
298.863
298.847
298.836
298.849
298.897
298.979
299.096
299.242
299.392
299.527
299.65
299.795
300.01
300.34
300.811
301.496
302.495
303.703
299.74
299.282
298.925
298.661
298.495
298.413
298.39
298.404
298.44
298.486
298.54
298.601
298.675
298.763
298.864
298.967
299.061
299.135
299.187
299.223
299.256
299.303
299.38
299.495
299.643
299.816
300.003
300.203
300.427
300.691
301.016
301.435
302.012
302.791
303.757
299.735
299.307
298.981
298.727
298.565
298.487
298.468
298.484
298.518
298.559
298.603
298.649
298.699
298.755
298.827
298.923
299.043
299.177
299.315
299.448
299.573
299.69
299.802
299.918
300.045
300.188
300.352
300.541
300.761
301.021
301.334
301.728
302.25
302.94
303.852
299.769
299.394
299.125
298.914
298.755
298.649
298.585
298.553
298.544
298.552
298.571
298.599
298.632
298.67
298.712
298.762
298.826
298.911
299.026
299.173
299.344
299.531
299.726
299.923
300.116
300.302
300.481
300.656
300.838
301.041
301.287
301.61
302.064
302.713
303.616
299.855
299.6
299.409
299.261
299.142
299.047
298.97
298.905
298.85
298.803
298.765
298.735
298.714
298.7
298.695
298.696
298.706
298.725
298.759
298.816
298.904
299.031
299.203
299.422
299.678
299.959
300.255
300.557
300.858
301.156
301.451
301.761
302.154
302.736
303.586
299.91
299.725
299.538
299.34
299.14
298.954
298.796
298.669
298.575
298.51
298.473
298.458
298.465
298.488
298.526
298.577
298.638
298.705
298.775
298.839
298.892
298.929
298.948
298.96
298.988
299.054
299.177
299.379
299.673
300.057
300.515
301.021
301.529
302.124
302.958
299.817
299.432
299.028
298.636
298.305
298.059
297.894
297.795
297.744
297.728
297.734
297.757
297.792
297.834
297.883
297.939
298.002
298.073
298.155
298.246
298.346
298.451
298.553
298.646
298.726
298.792
298.846
298.896
298.969
299.109
299.374
299.805
300.38
301.11
302.073
299.687
299.094
298.604
298.259
298.071
298.003
298.005
298.041
298.09
298.142
298.193
298.24
298.284
298.323
298.358
298.388
298.411
298.43
298.447
298.464
298.487
298.515
298.55
298.589
298.632
298.679
298.734
298.806
298.914
299.093
299.39
299.844
300.44
301.21
302.223
299.716
299.222
298.875
298.66
298.536
298.452
298.382
298.321
298.272
298.242
298.234
298.246
298.275
298.316
298.366
298.42
298.472
298.516
298.545
298.556
298.552
298.537
298.517
298.502
298.499
298.516
298.559
298.636
298.768
298.984
299.316
299.778
300.344
301.049
301.989
299.776
299.372
299.039
298.758
298.527
298.344
298.205
298.104
298.036
297.999
297.99
298.006
298.043
298.097
298.163
298.242
298.334
298.437
298.543
298.642
298.724
298.779
298.803
298.795
298.761
298.717
298.68
298.671
298.714
298.832
299.055
299.404
299.875
300.532
301.5
299.805
299.441
299.135
298.885
298.693
298.55
298.446
298.367
298.303
298.249
298.2
298.156
298.122
298.103
298.101
298.12
298.16
298.221
298.308
298.427
298.574
298.734
298.893
299.036
299.146
299.215
299.244
299.247
299.252
299.299
299.435
299.706
300.152
300.864
301.946
299.733
299.256
298.886
298.613
298.423
298.298
298.223
298.184
298.169
298.167
298.171
298.174
298.171
298.16
298.141
298.122
298.109
298.11
298.129
298.17
298.242
298.357
298.527
298.746
298.993
299.25
299.498
299.724
299.925
300.118
300.346
300.669
301.151
301.887
302.96
299.693
299.179
298.819
298.565
298.391
298.278
298.214
298.182
298.173
298.176
298.186
298.2
298.213
298.223
298.228
298.223
298.208
298.185
298.159
298.139
298.13
298.141
298.183
298.272
298.433
298.674
298.983
299.347
299.75
300.18
300.635
301.129
301.694
302.406
303.362
299.711
299.233
298.924
298.709
298.543
298.421
298.338
298.289
298.265
298.259
298.263
298.272
298.281
298.287
298.287
298.282
298.271
298.255
298.237
298.215
298.19
298.166
298.145
298.133
298.143
298.194
298.314
298.526
298.846
299.276
299.808
300.425
301.103
301.835
302.724
299.774
299.378
299.109
298.917
298.769
298.653
298.563
298.499
298.457
298.432
298.42
298.415
298.411
298.405
298.392
298.371
298.344
298.314
298.284
298.257
298.234
298.216
298.203
298.197
298.199
298.212
298.243
298.308
298.434
298.655
299.007
299.513
300.169
300.91
301.81
299.828
299.516
299.286
299.114
298.978
298.872
298.789
298.727
298.681
298.647
298.619
298.592
298.56
298.52
298.472
298.42
298.367
298.317
298.273
298.235
298.206
298.184
298.172
298.171
298.181
298.204
298.245
298.308
298.406
298.561
298.81
299.193
299.744
300.454
301.387
299.866
299.626
299.441
299.298
299.185
299.094
299.015
298.944
298.875
298.805
298.731
298.651
298.568
298.485
298.407
298.337
298.279
298.233
298.198
298.172
298.156
298.149
298.153
298.169
298.199
298.247
298.314
298.406
298.534
298.716
298.979
299.354
299.869
300.56
301.507
299.901
299.717
299.568
299.437
299.308
299.173
299.034
298.893
298.753
298.619
298.494
298.383
298.29
298.217
298.165
298.131
298.111
298.103
298.105
298.113
298.128
298.148
298.175
298.211
298.258
298.322
298.408
298.522
298.677
298.889
299.179
299.568
300.077
300.756
301.699
299.888
299.668
299.447
299.208
298.964
298.732
298.528
298.358
298.226
298.132
298.075
298.049
298.045
298.057
298.081
298.111
298.142
298.172
298.198
298.218
298.234
298.249
298.266
298.289
298.321
298.369
298.442
298.55
298.707
298.931
299.237
299.637
300.142
300.811
301.749
299.794
299.382
298.982
298.619
298.336
298.156
298.075
298.061
298.085
298.126
298.17
298.207
298.235
298.253
298.264
298.27
298.274
298.278
298.284
298.291
298.301
298.315
298.332
298.356
298.39
298.438
298.507
298.608
298.752
298.959
299.246
299.625
300.106
300.758
301.698
299.683
299.103
298.657
298.376
298.251
298.219
298.221
298.226
298.224
298.22
298.217
298.218
298.224
298.234
298.248
298.265
298.286
298.31
298.335
298.362
298.391
298.42
298.451
298.486
298.528
298.582
298.656
298.758
298.9
299.095
299.357
299.698
300.139
300.771
301.728
299.659
299.084
298.667
298.409
298.296
298.258
298.248
298.246
298.245
298.245
298.244
298.243
298.243
298.244
298.248
298.255
298.269
298.289
298.319
298.357
298.405
298.462
298.527
298.599
298.677
298.761
298.854
298.967
299.111
299.306
299.568
299.907
300.341
300.971
301.941
299.758
299.323
299.014
298.79
298.625
298.515
298.447
298.405
298.377
298.355
298.337
298.32
298.302
298.284
298.265
298.246
298.231
298.22
298.217
298.225
298.248
298.29
298.355
298.445
298.562
298.706
298.873
299.06
299.266
299.497
299.769
300.099
300.511
301.121
302.088
299.819
299.479
299.229
299.042
298.888
298.767
298.677
298.612
298.568
298.537
298.516
298.501
298.488
298.473
298.453
298.426
298.393
298.357
298.323
298.291
298.264
298.242
298.232
298.241
298.286
298.381
298.534
298.748
299.023
299.351
299.722
300.136
300.595
301.222
302.194
299.837
299.528
299.294
299.119
298.971
298.844
298.742
298.664
298.606
298.562
298.527
298.498
298.469
298.44
298.41
298.383
298.362
298.349
298.343
298.343
298.347
298.353
298.358
298.361
298.365
298.376
298.415
298.514
298.715
299.041
299.488
300.026
300.613
301.327
302.306
299.866
299.602
299.394
299.235
299.103
298.991
298.896
298.819
298.757
298.707
298.662
298.619
298.574
298.527
298.481
298.439
298.402
298.373
298.352
298.338
298.33
298.328
298.332
298.341
298.354
298.373
298.399
298.444
298.54
298.741
299.108
299.657
300.329
301.109
302.084
299.883
299.651
299.466
299.32
299.198
299.094
299.002
298.919
298.843
298.769
298.697
298.627
298.56
298.501
298.453
298.418
298.395
298.382
298.378
298.38
298.389
298.404
298.423
298.444
298.467
298.49
298.514
298.544
298.596
298.707
298.946
299.381
299.999
300.754
301.711
299.891
299.674
299.497
299.355
299.234
299.125
299.02
298.918
298.82
298.728
298.643
298.569
298.51
298.467
298.438
298.421
298.412
298.409
298.412
298.42
298.433
298.451
298.473
298.499
298.527
298.558
298.59
298.627
298.675
298.759
298.929
299.266
299.801
300.514
301.473
299.901
299.701
299.531
299.394
299.272
299.152
299.035
298.921
298.814
298.716
298.634
298.571
298.526
298.496
298.475
298.461
298.452
298.448
298.449