/*--------------------------------*- C++ -*----------------------------------*\
| =========                 |                                                 |
| \\      /  F ield         | OpenFOAM: The Open Source CFD Toolbox           |
|  \\    /   O peration     | Version:  v2006                                 |
|   \\  /    A nd           | Website:  www.openfoam.com                      |
|    \\/     M anipulation  |                                                 |
\*---------------------------------------------------------------------------*/
FoamFile
{
    version     2.0;
    format      ascii;
    class       volVectorField;
    location    "17";
    object      U;
}
// * * * * * * * * * * * * * * * * * * * * * * * * * * * * * * * * * * * * * //

dimensions      [0 1 -1 0 0 0 0];


internalField   nonuniform List<vector> 
78750
(
(-0.0488711 -0.0152773 0.0154357)
(-0.0399343 -0.0188383 0.0244617)
(-0.0389283 -0.0193015 0.0198064)
(-0.0404921 -0.0188541 0.0207116)
(-0.0392727 -0.0180925 0.0208119)
(-0.0388046 -0.0178479 0.0209318)
(-0.0377127 -0.0178392 0.0210204)
(-0.0365197 -0.0180769 0.0211349)
(-0.0351115 -0.0185533 0.0213054)
(-0.0335689 -0.0193332 0.0215073)
(-0.0318742 -0.0204704 0.0216661)
(-0.029959 -0.0219347 0.0217564)
(-0.0277382 -0.0236007 0.0217916)
(-0.0251392 -0.0252901 0.021824)
(-0.02215 -0.0268673 0.0218817)
(-0.018817 -0.0282452 0.0219707)
(-0.0151968 -0.0293695 0.0220939)
(-0.0113505 -0.0302126 0.0222529)
(-0.00735311 -0.0307585 0.0224477)
(-0.00328212 -0.0309961 0.0226782)
(0.000783245 -0.0309154 0.0229455)
(0.00476191 -0.030504 0.0232528)
(0.00857076 -0.0297479 0.0236057)
(0.0121237 -0.028632 0.0240113)
(0.0153292 -0.0271389 0.0244771)
(0.018088 -0.0252518 0.0250121)
(0.0202991 -0.0229468 0.0256301)
(0.0218557 -0.0201803 0.0263497)
(0.0226258 -0.0168981 0.0271867)
(0.0224631 -0.013062 0.0281495)
(0.0212245 -0.00861322 0.0292386)
(0.0187027 -0.00339036 0.030382)
(0.0144612 0.00273443 0.0310335)
(0.00837227 0.00902599 0.0284901)
(0.00201153 0.00973652 0.0156224)
(-0.00443316 0.0274241 0.00831272)
(-0.0103682 0.00176639 0.00191861)
(-0.0175137 -0.012669 -0.00582723)
(-0.0233927 -0.0177819 -0.00962996)
(-0.0280338 -0.0198964 -0.0106046)
(-0.0314576 -0.0218574 -0.0103065)
(-0.033711 -0.0243159 -0.00944296)
(-0.0350799 -0.0269948 -0.00826675)
(-0.0355919 -0.0291896 -0.00675946)
(-0.0352006 -0.0308963 -0.00500309)
(-0.0339944 -0.032647 -0.00320282)
(-0.0321171 -0.0350709 -0.0016152)
(-0.0297595 -0.0384035 -0.000406814)
(-0.0270572 -0.0422553 0.000458015)
(-0.0240107 -0.0460621 0.00112627)
(-0.0206728 -0.0494704 0.00170555)
(-0.017118 -0.0523055 0.00225564)
(-0.0134231 -0.0544823 0.0028131)
(-0.00965679 -0.0559618 0.00340225)
(-0.00588187 -0.0567253 0.00404145)
(-0.00215801 -0.0567633 0.00474477)
(0.00144379 -0.0560708 0.00552834)
(0.00485777 -0.054617 0.00640693)
(0.00802722 -0.0523734 0.00740392)
(0.0108918 -0.0493088 0.00854636)
(0.0133845 -0.045386 0.00986483)
(0.0154319 -0.0405532 0.0113972)
(0.0169523 -0.034723 0.0131974)
(0.0178493 -0.0277337 0.0153469)
(0.0179913 -0.0192811 0.0179672)
(0.0171691 -0.00879485 0.0212253)
(0.0149539 0.00457334 0.0251909)
(0.0107649 0.0201458 0.028599)
(0.00558796 0.0318992 0.0273547)
(0.000975001 0.0264414 0.0152461)
(0.000113435 0.0543246 0.00335151)
(-0.00218606 0.0697449 0.00142373)
(-0.00646121 0.0674403 -0.000700517)
(-0.0107682 0.0598979 -0.00133973)
(-0.0145482 0.0492398 -0.000682753)
(-0.0177366 0.0365474 0.000347499)
(-0.0205183 0.0226904 0.00118226)
(-0.0229125 0.00843178 0.0017146)
(-0.0246614 -0.00505901 0.00214471)
(-0.0255589 -0.017569 0.00250856)
(-0.0256002 -0.029158 0.00278036)
(-0.0248508 -0.0397082 0.00294806)
(-0.0234204 -0.0490942 0.00301683)
(-0.0214364 -0.0572449 0.00300628)
(-0.0190303 -0.0641292 0.0029468)
(-0.0163204 -0.0697346 0.00287504)
(-0.013411 -0.0740695 0.00282792)
(-0.0103957 -0.0771638 0.00283755)
(-0.007356 -0.0790691 0.0029276)
(-0.00435908 -0.0798421 0.003112)
(-0.0014636 -0.0795338 0.00339787)
(0.00126504 -0.0781742 0.00378899)
(0.00377754 -0.0757709 0.0042925)
(0.00603842 -0.0723178 0.00491993)
(0.00799956 -0.0677967 0.00569254)
(0.00961517 -0.0621743 0.00664957)
(0.0108436 -0.0553853 0.00785615)
(0.0116418 -0.0472893 0.00940983)
(0.0119676 -0.0375632 0.0114553)
(0.0117668 -0.0254974 0.014199)
(0.0109358 -0.00976325 0.0178261)
(0.00925925 0.0108381 0.0219724)
(0.00630272 0.0327872 0.0245342)
(0.00307226 0.0443468 0.0223521)
(0.000570848 0.0325957 0.012089)
(3.39886e-05 0.0480407 0.00129138)
(-0.000351542 0.0661242 -0.000423242)
(-0.00105422 0.0640266 -0.00175621)
(-0.00160084 0.0583061 -0.00227378)
(-0.00225341 0.0500875 -0.00209706)
(-0.00306683 0.0399589 -0.00145891)
(-0.00395457 0.0289208 -0.000476527)
(-0.0047885 0.0175178 0.000791142)
(-0.00541018 0.00568119 0.00224084)
(-0.00575074 -0.00698154 0.00364967)
(-0.00588603 -0.0206406 0.00471699)
(-0.00561305 -0.0346076 0.00520084)
(-0.00490796 -0.0479116 0.00508668)
(-0.00383077 -0.0598093 0.00454235)
(-0.00246522 -0.0699037 0.00378189)
(-0.000896705 -0.0780402 0.00298155)
(0.00081976 -0.0842135 0.00226238)
(0.00262292 -0.0885229 0.001694)
(0.00445274 -0.0911228 0.0013079)
(0.00627143 -0.092166 0.00111053)
(0.00803102 -0.0917698 0.00109657)
(0.00967917 -0.0900101 0.00125573)
(0.0111619 -0.0869227 0.0015741)
(0.0124209 -0.0825176 0.00203573)
(0.0133936 -0.0768015 0.00263072)
(0.0140167 -0.0698043 0.00337482)
(0.014232 -0.0615699 0.00433312)
(0.0140014 -0.0520971 0.00564661)
(0.0133129 -0.0411979 0.00755998)
(0.0121542 -0.028202 0.0104493)
(0.0104746 -0.011624 0.014684)
(0.00817945 0.00999535 0.0196856)
(0.00513729 0.0330107 0.0225599)
(0.0023713 0.0447065 0.0202725)
(0.000500952 0.0328072 0.0108098)
(0.000464635 0.0441775 0.00100233)
(0.000934466 0.0686091 0.000259938)
(0.000814616 0.0693685 -0.000204959)
(0.000485002 0.0656036 4.92367e-05)
(-7.97784e-05 0.0583619 0.0010816)
(-0.000833929 0.0477016 0.0026698)
(-0.00165172 0.0347791 0.0045204)
(-0.00240147 0.020439 0.00640921)
(-0.00287859 0.00482628 0.00819815)
(-0.0028319 -0.0120073 0.0096171)
(-0.00216598 -0.0292605 0.0103044)
(-0.00103886 -0.0456351 0.0101098)
(0.000353685 -0.0600805 0.00922343)
(0.00186923 -0.0721387 0.00797673)
(0.0034056 -0.0817887 0.0066532)
(0.00491227 -0.0891854 0.00542878)
(0.00636864 -0.0945253 0.00438925)
(0.00776731 -0.0979989 0.00355776)
(0.00910946 -0.0997747 0.00292558)
(0.0103901 -0.0999739 0.00247386)
(0.01159 -0.0986521 0.00218263)
(0.0126754 -0.0958045 0.0020285)
(0.0135997 -0.0913822 0.00197778)
(0.0143025 -0.0853234 0.0019845)
(0.0147144 -0.0776144 0.00200574)
(0.0147742 -0.0683496 0.00204268)
(0.0144396 -0.0577313 0.00219383)
(0.0136949 -0.045932 0.00268172)
(0.0125582 -0.0328819 0.00387283)
(0.0110521 -0.017883 0.00630856)
(0.00916108 0.000645938 0.010571)
(0.00688055 0.023495 0.016051)
(0.004275 0.0449954 0.019407)
(0.00197401 0.0530327 0.0175091)
(0.000402625 0.0353294 0.00892506)
(0.000310754 0.0371903 0.00108753)
(0.00139947 0.0651337 0.000838996)
(0.00198603 0.0690043 0.000696019)
(0.00233505 0.0670656 0.00105237)
(0.002569 0.0617037 0.00191023)
(0.00253384 0.0526321 0.00316534)
(0.00234419 0.0407526 0.00488774)
(0.00238763 0.0262638 0.00732977)
(0.0030227 0.00848247 0.0101215)
(0.00435799 -0.011953 0.012153)
(0.00612064 -0.0325821 0.0125949)
(0.00793752 -0.0511686 0.0115997)
(0.00962224 -0.0666585 0.00982107)
(0.0111243 -0.0789768 0.00785762)
(0.0124603 -0.0884836 0.00605846)
(0.013669 -0.0956 0.0045594)
(0.0147885 -0.100651 0.00337241)
(0.015846 -0.103851 0.0024551)
(0.0168553 -0.105336 0.00175407)
(0.0178141 -0.105191 0.0012286)
(0.0186993 -0.103428 0.000852918)
(0.019463 -0.0999728 0.000597825)
(0.0200294 -0.0946669 0.000401627)
(0.020296 -0.0873434 0.000153596)
(0.0201523 -0.0779922 -0.000275488)
(0.0195261 -0.0668936 -0.000929294)
(0.0184192 -0.0545502 -0.00165261)
(0.0168962 -0.0414639 -0.0020874)
(0.015046 -0.0279116 -0.00174544)
(0.0129632 -0.0136253 -4.08386e-05)
(0.0106642 0.00266149 0.00375282)
(0.00806213 0.022965 0.00965436)
(0.00510075 0.0441417 0.0147111)
(0.00254917 0.0532121 0.0146162)
(0.000640098 0.0372104 0.00777414)
(-6.65266e-05 0.0307739 0.00271238)
(0.000108699 0.0559247 0.00353304)
(-8.02367e-06 0.0607033 0.00356563)
(-0.00029497 0.0597919 0.00397179)
(-0.000623035 0.0559995 0.00523628)
(-0.000698865 0.0480174 0.00804642)
(1.68064e-05 0.0334862 0.0122962)
(0.00170291 0.0122382 0.0161311)
(0.00399222 -0.0123825 0.0176443)
(0.00626327 -0.0360524 0.016544)
(0.00803816 -0.0559848 0.0138064)
(0.00926553 -0.0714733 0.0106801)
(0.0100902 -0.0831163 0.00796297)
(0.0106906 -0.0918688 0.00591233)
(0.011197 -0.0985063 0.00447152)
(0.0116901 -0.103497 0.00349347)
(0.0122121 -0.107052 0.00284561)
(0.0127759 -0.109179 0.0024282)
(0.0133792 -0.109789 0.00217071)
(0.0140039 -0.108773 0.00202833)
(0.0146179 -0.105982 0.00197455)
(0.0151633 -0.10113 0.00196092)
(0.0155439 -0.093739 0.00183641)
(0.0156274 -0.0833865 0.00129262)
(0.0152874 -0.0702182 -2.89592e-05)
(0.014476 -0.0551487 -0.00219785)
(0.01328 -0.0394114 -0.00474574)
(0.0118804 -0.02385 -0.00686923)
(0.0103846 -0.00861224 -0.00781082)
(0.00869302 0.00679726 -0.0069383)
(0.00666984 0.0232853 -0.00363512)
(0.00431629 0.0414546 0.00198729)
(0.00208861 0.0574805 0.00715213)
(0.000451575 0.0619437 0.00822001)
(-0.000203447 0.0402428 0.00398211)
(-0.000425143 0.03181 0.00451601)
(-0.00190404 0.0579501 0.00726818)
(-0.0034804 0.0644752 0.00864269)
(-0.00481018 0.0634688 0.0108614)
(-0.00565685 0.0549256 0.0146344)
(-0.00523213 0.0356985 0.0183294)
(-0.00370243 0.00977056 0.018975)
(-0.0019969 -0.0158526 0.0161069)
(-0.000833349 -0.0368423 0.011448)
(-0.000337322 -0.0524026 0.00711529)
(-0.000274836 -0.0641158 0.00415702)
(-0.0003803 -0.0737948 0.00251865)
(-0.000474101 -0.0824547 0.00173694)
(-0.000475601 -0.0903266 0.00139011)
(-0.000383252 -0.097246 0.00123555)
(-0.000219487 -0.102973 0.00119423)
(-3.28119e-06 -0.107328 0.00127303)
(0.000256374 -0.110153 0.00149415)
(0.000556177 -0.111275 0.00185775)
(0.000887137 -0.110504 0.00233964)
(0.00123589 -0.10758 0.00290413)
(0.0015846 -0.101956 0.00346796)
(0.00190209 -0.0927106 0.00374111)
(0.00213976 -0.079265 0.00307268)
(0.00222859 -0.0624132 0.00075077)
(0.00203131 -0.0443103 -0.00321554)
(0.00144152 -0.0272039 -0.00763787)
(0.000550086 -0.0117156 -0.0108614)
(-0.000399395 0.00332332 -0.0118717)
(-0.00120704 0.0193364 -0.0104277)
(-0.00184101 0.0365544 -0.00680173)
(-0.00223321 0.0526313 -0.00213879)
(-0.00222196 0.0617947 0.00105404)
(-0.00172196 0.0609045 0.00202818)
(-0.000535435 0.0351236 0.000543536)
(-0.000427538 0.0365691 0.00619248)
(-0.00247004 0.0641736 0.0118424)
(-0.00465049 0.0675624 0.0147273)
(-0.00634886 0.058812 0.0170293)
(-0.00720927 0.0387434 0.0176972)
(-0.00708732 0.0136271 0.014594)
(-0.00709927 -0.00836234 0.00917599)
(-0.00765046 -0.0247507 0.00454359)
(-0.00856558 -0.0378399 0.00192559)
(-0.00957788 -0.0501564 0.00093703)
(-0.0104574 -0.0625181 0.000769547)
(-0.011073 -0.0743169 0.000799569)
(-0.0114228 -0.0846821 0.000765208)
(-0.0115813 -0.0931828 0.000665832)
(-0.0116339 -0.0998378 0.000597853)
(-0.0116527 -0.104863 0.000654235)
(-0.0116811 -0.108463 0.000897562)
(-0.0117309 -0.11073 0.00136385)
(-0.0117857 -0.111616 0.00206875)
(-0.0118136 -0.110922 0.00301322)
(-0.0117735 -0.108256 0.00419382)
(-0.0115923 -0.102901 0.005586)
(-0.011138 -0.0938252 0.00700251)
(-0.0102582 -0.0801554 0.0078555)
(-0.00890191 -0.0618947 0.00721449)
(-0.00728423 -0.0405839 0.00439233)
(-0.00587836 -0.0192079 -0.000166624)
(-0.00510336 -0.000517745 -0.00466703)
(-0.00498696 0.0149445 -0.00722678)
(-0.00512525 0.0284909 -0.00733209)
(-0.00497265 0.0407682 -0.00568184)
(-0.00416792 0.0500995 -0.00348418)
(-0.00308942 0.0538279 -0.0018918)
(-0.00169605 0.0499841 -0.000914821)
(-0.000178074 0.0267523 -0.000346079)
(-0.000147613 0.0402473 0.00595702)
(-0.00160074 0.0709773 0.0126746)
(-0.0034537 0.0731563 0.0153291)
(-0.00506576 0.0608229 0.0151642)
(-0.0063349 0.0389192 0.0112966)
(-0.00737934 0.0172838 0.00519063)
(-0.00860235 -9.74867e-05 0.00011197)
(-0.00979512 -0.0146636 -0.00280374)
(-0.0108201 -0.0282192 -0.0040645)
(-0.0116518 -0.0414538 -0.00428729)
(-0.0122924 -0.0543303 -0.00391512)
(-0.0127457 -0.0665401 -0.00330299)
(-0.0130057 -0.0776295 -0.00273359)
(-0.0130846 -0.087139 -0.0023495)
(-0.0130317 -0.0948393 -0.00213621)
(-0.0129149 -0.100798 -0.00200093)
(-0.0127963 -0.10524 -0.00184751)
(-0.0127231 -0.108398 -0.00159858)
(-0.0127256 -0.110433 -0.00118682)
(-0.0128123 -0.111413 -0.000540081)
(-0.0129564 -0.111284 0.000433464)
(-0.013088 -0.109789 0.00186369)
(-0.0130878 -0.106245 0.00391657)
(-0.0127483 -0.0992804 0.00666136)
(-0.0117718 -0.0870777 0.00966391)
(-0.00995542 -0.0686685 0.0117224)
(-0.00743724 -0.045112 0.0115058)
(-0.00472655 -0.0196226 0.00860195)
(-0.00249668 0.00359777 0.0041615)
(-0.00118194 0.0216191 0.000322129)
(-0.000654801 0.0339432 -0.00141501)
(-0.000360563 0.0412322 -0.0013336)
(-7.71642e-05 0.0438687 -0.000638188)
(0.000200055 0.0411323 0.000224904)
(0.000237087 0.0234281 0.000857267)
(4.33871e-06 0.0408309 0.00461941)
(-0.000787253 0.0735397 0.0108184)
(-0.00211628 0.0755679 0.0124935)
(-0.0035047 0.0622271 0.0102678)
(-0.00492114 0.0407291 0.00443609)
(-0.00618068 0.0208874 -0.00176797)
(-0.00734387 0.00489018 -0.00593706)
(-0.00838516 -0.00881842 -0.00788614)
(-0.00937624 -0.021946 -0.00813292)
(-0.010354 -0.0354883 -0.0071649)
(-0.011263 -0.0496226 -0.00551229)
(-0.011987 -0.0637398 -0.0037922)
(-0.012426 -0.0767638 -0.00249868)
(-0.0125571 -0.0876987 -0.00178857)
(-0.0124336 -0.0960901 -0.00151598)
(-0.0121416 -0.102061 -0.00145583)
(-0.011759 -0.106 -0.00145609)
(-0.0113417 -0.108265 -0.00145035)
(-0.0109293 -0.109096 -0.0014198)
(-0.0105543 -0.108649 -0.00136013)
(-0.0102487 -0.107073 -0.00125727)
(-0.0100385 -0.104549 -0.00106012)
(-0.00991639 -0.101264 -0.000640071)
(-0.009809 -0.0971995 0.000256105)
(-0.0095627 -0.0917075 0.00200861)
(-0.00890366 -0.0831045 0.00493685)
(-0.00749184 -0.0690056 0.00870702)
(-0.00520329 -0.0480993 0.0119232)
(-0.00236858 -0.0218884 0.0129583)
(0.000289126 0.00519104 0.0111961)
(0.00196996 0.0273253 0.00773503)
(0.00233031 0.0406057 0.00477051)
(0.00190613 0.0452999 0.00350699)
(0.00115504 0.0432102 0.00321092)
(0.000246943 0.0257949 0.00232949)
(0.000199965 0.0389959 0.00252568)
(0.000253016 0.0729277 0.00687788)
(-0.000159875 0.0767253 0.00740647)
(-0.000925784 0.0671944 0.00452642)
(-0.0020303 0.049156 -0.00159461)
(-0.00304123 0.0316589 -0.00745116)
(-0.00387643 0.0169727 -0.0111949)
(-0.00456885 0.00405057 -0.0127735)
(-0.00521845 -0.00857906 -0.01258)
(-0.00590911 -0.0220606 -0.0109641)
(-0.00664577 -0.0369546 -0.00839161)
(-0.00731475 -0.0529251 -0.00562731)
(-0.00778365 -0.0686674 -0.00350133)
(-0.00800794 -0.082526 -0.00238859)
(-0.00801127 -0.0934709 -0.0020752)
(-0.00785496 -0.101457 -0.00213746)
(-0.00759916 -0.107014 -0.00227253)
(-0.00728062 -0.11069 -0.00233959)
(-0.00691999 -0.11283 -0.00228615)
(-0.00652663 -0.113593 -0.00209618)
(-0.00610511 -0.113006 -0.0017754)
(-0.00566198 -0.111006 -0.00135405)
(-0.00521569 -0.107505 -0.000890557)
(-0.00480544 -0.102502 -0.00045165)
(-0.00447313 -0.0961547 -3.12797e-05)
(-0.00420765 -0.0885821 0.00058857)
(-0.00389806 -0.0792574 0.00192296)
(-0.00330582 -0.0663923 0.00457307)
(-0.0021303 -0.0474071 0.00844975)
(-0.000330803 -0.0214629 0.0120631)
(0.00152192 0.0077099 0.0134013)
(0.00249395 0.0324518 0.0120313)
(0.00224322 0.0462661 0.00967408)
(0.00126381 0.0474382 0.00743316)
(0.000247116 0.0287283 0.00394917)
(0.00031144 0.0347972 0.000701239)
(0.00128924 0.0689749 0.00279639)
(0.00175741 0.075048 0.00266868)
(0.00182822 0.0699081 0.000403115)
(0.00157251 0.055742 -0.00449386)
(0.00105476 0.0390869 -0.00946551)
(0.000558106 0.0237628 -0.012719)
(0.000170634 0.0101728 -0.0139145)
(-0.000151188 -0.00266649 -0.0132367)
(-0.000431093 -0.016124 -0.0108844)
(-0.000606778 -0.0313783 -0.0072977)
(-0.000580099 -0.0484909 -0.00355738)
(-0.000366154 -0.0658155 -0.000951712)
(-0.000103217 -0.0810158 3.60859e-05)
(0.000169396 -0.0926834 -0.000146924)
(0.000417817 -0.100796 -0.000821709)
(0.000607576 -0.106093 -0.00156159)
(0.000760477 -0.109342 -0.00220784)
(0.000883857 -0.111047 -0.00271754)
(0.00097874 -0.1115 -0.00307296)
(0.00104657 -0.110875 -0.00325459)
(0.00109223 -0.109256 -0.00323577)
(0.00112434 -0.106621 -0.00298592)
(0.00115157 -0.102797 -0.00248452)
(0.00117084 -0.0974553 -0.00174778)
(0.00114855 -0.0902297 -0.000850496)
(0.00103825 -0.0808798 0.000131457)
(0.000836159 -0.0692389 0.00133408)
(0.000644803 -0.0544678 0.00331575)
(0.000692578 -0.0344995 0.00668141)
(0.0011394 -0.00803628 0.0107754)
(0.00164539 0.0207605 0.0133234)
(0.00155806 0.0420008 0.0129998)
(0.000904796 0.0476833 0.0104519)
(0.000220378 0.0299482 0.00514377)
(0.000267671 0.0283216 -0.000128714)
(0.00178907 0.0600949 7.9206e-05)
(0.00314884 0.0696204 -0.000473347)
(0.00412065 0.0681973 -0.00202108)
(0.00479774 0.0599054 -0.00479702)
(0.00499207 0.0470588 -0.00794929)
(0.00476907 0.0328683 -0.0101861)
(0.00435213 0.0187943 -0.0108076)
(0.00392995 0.00455501 -0.0094694)
(0.00375067 -0.0112618 -0.00618884)
(0.00403495 -0.0297631 -0.001981)
(0.00470269 -0.0498715 0.00129385)
(0.00540358 -0.0686573 0.00247594)
(0.00586247 -0.0837173 0.00190572)
(0.0060455 -0.0944906 0.000596903)
(0.00605603 -0.10173 -0.000715259)
(0.00599574 -0.106437 -0.00176923)
(0.00592326 -0.109334 -0.00254766)
(0.00587015 -0.110821 -0.00309353)
(0.00584925 -0.111097 -0.00345278)
(0.00585967 -0.110243 -0.00366588)
(0.00588981 -0.108274 -0.00376633)
(0.00591958 -0.105168 -0.00377679)
(0.00592311 -0.100882 -0.00370079)
(0.00587215 -0.095336 -0.00351077)
(0.00573551 -0.0883626 -0.00314091)
(0.00547828 -0.0796371 -0.00249766)
(0.00505209 -0.0686813 -0.00147549)
(0.00441687 -0.0548106 0.000100537)
(0.00360496 -0.0369706 0.00261322)
(0.00278689 -0.0138404 0.0064059)
(0.00214616 0.0134915 0.0104944)
(0.00151923 0.0369867 0.0123687)
(0.000836817 0.0451808 0.0108185)
(0.00025455 0.0299778 0.00540111)
(-3.92189e-06 0.0230237 0.000462861)
(0.000906635 0.0500049 0.000112875)
(0.00218557 0.0602804 -0.000682411)
(0.00326545 0.0608597 -0.0017812)
(0.00410846 0.0561069 -0.00327009)
(0.00460317 0.0469609 -0.00487252)
(0.00467381 0.0354148 -0.0056121)
(0.0047163 0.0221759 -0.00456141)
(0.00519172 0.00600524 -0.00150908)
(0.00633729 -0.0140603 0.00235409)
(0.0078968 -0.0363237 0.00491796)
(0.0093082 -0.0571533 0.00506638)
(0.0101844 -0.0737535 0.0033911)
(0.0105056 -0.0855946 0.00115967)
(0.0104713 -0.0936865 -0.000794163)
(0.0102776 -0.0992691 -0.00225057)
(0.0100419 -0.103164 -0.0032758)
(0.00982728 -0.105788 -0.00398513)
(0.00965846 -0.107326 -0.00446938)
(0.00953807 -0.107851 -0.00478641)
(0.00945872 -0.107376 -0.00496709)
(0.00940838 -0.105862 -0.00502377)
(0.00937019 -0.103209 -0.00495897)
(0.00931886 -0.0992249 -0.00477412)
(0.00921527 -0.0936152 -0.00447901)
(0.00900156 -0.0860287 -0.00409864)
(0.0086072 -0.0761951 -0.00365792)
(0.0079706 -0.0640407 -0.00311523)
(0.00706199 -0.0495201 -0.00226178)
(0.00588554 -0.0321591 -0.000657738)
(0.00450449 -0.0109554 0.00222517)
(0.00308815 0.0137936 0.00616267)
(0.00178815 0.0360179 0.0090719)
(0.000853595 0.0439982 0.00872153)
(0.000247458 0.0304417 0.0045757)
(-0.000232264 0.0220412 0.0015251)
(-0.000526916 0.045419 0.00164062)
(-0.000498373 0.053999 0.000828713)
(-0.000431315 0.0549034 5.21584e-05)
(-0.000387801 0.0519236 -0.000420391)
(-0.000327306 0.0445957 -3.51178e-06)
(0.000106184 0.0317207 0.00204108)
(0.00133565 0.0126409 0.0051038)
(0.00326445 -0.0109321 0.00725872)
(0.00534328 -0.0350016 0.00704265)
(0.00696326 -0.0554493 0.00461765)
(0.00786335 -0.0704295 0.00140696)
(0.00818098 -0.0806839 -0.00129792)
(0.00819566 -0.0879592 -0.00311575)
(0.00810793 -0.0935517 -0.00422705)
(0.00802761 -0.0980252 -0.00489664)
(0.00800128 -0.101506 -0.00531533)
(0.00803289 -0.103971 -0.00559297)
(0.00811 -0.105383 -0.00578435)
(0.00821873 -0.105723 -0.00591325)
(0.00834651 -0.10497 -0.00598771)
(0.00848036 -0.103079 -0.00600731)
(0.00860462 -0.0999535 -0.00596625)
(0.0086978 -0.0954186 -0.00585523)
(0.00872871 -0.0892081 -0.00566525)
(0.00865132 -0.0809909 -0.00539481)
(0.00840184 -0.0704715 -0.00505366)
(0.00790373 -0.0575128 -0.00463348)
(0.00708582 -0.0421098 -0.00401589)
(0.00591522 -0.024147 -0.00286976)
(0.00443726 -0.00333725 -0.000739017)
(0.00282855 0.0194357 0.00235293)
(0.00139848 0.0386842 0.00496611)
(0.000469685 0.0449308 0.00521469)
(5.08873e-05 0.03068 0.00271034)
(-0.000247061 0.0249614 0.0024146)
(-0.00127642 0.0492343 0.00376517)
(-0.00229625 0.0571348 0.0038111)
(-0.00309208 0.0569963 0.00399841)
(-0.00357801 0.0510274 0.00495485)
(-0.00332931 0.036923 0.00666734)
(-0.00204876 0.0153977 0.00779274)
(-0.00019134 -0.00925622 0.00685033)
(0.00154048 -0.0316577 0.00383876)
(0.00268855 -0.048794 0.000204945)
(0.00324513 -0.0610175 -0.00264396)
(0.0034647 -0.0703192 -0.00435541)
(0.00357614 -0.0782471 -0.00527194)
(0.0037037 -0.0853163 -0.00579598)
(0.00388291 -0.0914223 -0.00616438)
(0.00410033 -0.0963703 -0.00646174)
(0.00433149 -0.100099 -0.00669578)
(0.00456201 -0.102655 -0.00685522)
(0.00478737 -0.104105 -0.00693285)
(0.00500707 -0.10449 -0.00692791)
(0.00522077 -0.103799 -0.00684192)
(0.0054261 -0.101966 -0.00667423)
(0.00561686 -0.0988378 -0.00641934)
(0.00578078 -0.0941294 -0.0060679)
(0.00589587 -0.0873941 -0.0056177)
(0.00592545 -0.078089 -0.00510003)
(0.00581685 -0.0658067 -0.00460111)
(0.00550608 -0.0505486 -0.00421454)
(0.00493128 -0.0327643 -0.0038909)
(0.00406332 -0.0130719 -0.00330875)
(0.00294978 0.0078731 -0.00202096)
(0.00174099 0.0283915 -1.98961e-06)
(0.000746208 0.0435389 0.00177511)
(0.000102482 0.0471899 0.00220125)
(-7.83337e-05 0.0302601 0.00104487)
(-0.000171536 0.028074 0.0028608)
(-0.00127585 0.0543296 0.00548755)
(-0.00249432 0.0609177 0.00645023)
(-0.00345485 0.0575251 0.00709564)
(-0.00392794 0.0448997 0.00765498)
(-0.00346774 0.0239282 0.00702101)
(-0.0025028 2.73797e-05 0.00438374)
(-0.00170268 -0.0211154 0.000668372)
(-0.00129947 -0.0375453 -0.00252256)
(-0.00114192 -0.0505234 -0.00456296)
(-0.00101959 -0.0616351 -0.00575092)
(-0.000814322 -0.0714477 -0.006523)
(-0.000508285 -0.0798602 -0.0071108)
(-0.000143933 -0.0867512 -0.00756814)
(0.000230341 -0.0922043 -0.00788868)
(0.000591999 -0.0964057 -0.00807313)
(0.000935851 -0.0995128 -0.00813986)
(0.00125932 -0.101611 -0.00811447)
(0.0015607 -0.102727 -0.00801977)
(0.00183796 -0.102848 -0.00787059)
(0.00208853 -0.101928 -0.00767187)
(0.00230916 -0.0998715 -0.00741787)
(0.00249591 -0.0965095 -0.00709123)
(0.002644 -0.0915507 -0.0066629)
(0.00274736 -0.0845551 -0.00610056)
(0.00279627 -0.0749749 -0.00539932)
(0.00277491 -0.0623296 -0.0046329)
(0.00265255 -0.0464905 -0.00396296)
(0.00238 -0.0279046 -0.00350619)
(0.00192412 -0.00751752 -0.00311404)
(0.00132398 0.0133751 -0.00240197)
(0.000688676 0.0325081 -0.00122136)
(0.000215956 0.0452195 -0.000113238)
(-3.92732e-05 0.0472681 0.000355411)
(-5.54968e-05 0.029277 0.000141401)
(-8.70402e-05 0.0301966 0.00276954)
(-0.00093304 0.0583104 0.00608232)
(-0.00195373 0.0637783 0.00734003)
(-0.00280419 0.0575502 0.00751535)
(-0.00334745 0.0403123 0.00631214)
(-0.00336384 0.0174374 0.00325665)
(-0.00337353 -0.00451574 -0.000673071)
(-0.00354158 -0.0226202 -0.00396734)
(-0.00373253 -0.0373644 -0.0061258)
(-0.00382167 -0.0498768 -0.00742549)
(-0.00377394 -0.0607433 -0.00821151)
(-0.00361146 -0.0701657 -0.00868607)
(-0.00337126 -0.0782438 -0.00895474)
(-0.0030824 -0.0850536 -0.0090822)
(-0.00276425 -0.0906441 -0.00911203)
(-0.00243228 -0.0950561 -0.00907135)
(-0.00210002 -0.0983381 -0.00897491)
(-0.00177777 -0.10054 -0.00883044)
(-0.00147257 -0.1017 -0.00864228)
(-0.00118863 -0.101826 -0.00841201)
(-0.000928059 -0.10089 -0.00813691)
(-0.00069131 -0.0988048 -0.00780683)
(-0.000476533 -0.0954005 -0.00739999)
(-0.000277385 -0.0903737 -0.00687966)
(-8.09679e-05 -0.0832525 -0.00619915)
(0.000115281 -0.0734229 -0.00533009)
(0.000314789 -0.0602939 -0.00432043)
(0.000509524 -0.0436429 -0.00334975)
(0.000638468 -0.0240141 -0.002665)
(0.000623796 -0.00283094 -0.00233044)
(0.000453988 0.0179164 -0.00206387)
(0.000213284 0.0356692 -0.00155524)
(3.81921e-05 0.0464242 -0.00094577)
(-4.23983e-05 0.0472752 -0.000486679)
(-3.3572e-05 0.02865 -0.000173369)
(2.52974e-05 0.0306419 0.00205735)
(-0.000354257 0.0594452 0.00514475)
(-0.0009515 0.0643006 0.00611554)
(-0.00160088 0.0571739 0.00552754)
(-0.0022956 0.0389922 0.00294631)
(-0.00289082 0.0172595 -0.000923778)
(-0.0035525 -0.00257224 -0.00453731)
(-0.00417743 -0.0192841 -0.00698948)
(-0.00464796 -0.0336498 -0.00835152)
(-0.00492 -0.0464724 -0.00902622)
(-0.00499315 -0.0580315 -0.00936277)
(-0.00489368 -0.0682212 -0.00956938)
(-0.00466748 -0.0768593 -0.00972436)
(-0.00436624 -0.0839004 -0.00982894)
(-0.00403283 -0.0894527 -0.00986359)
(-0.00369562 -0.0936919 -0.0098183)
(-0.00337079 -0.0967765 -0.00969738)
(-0.00306699 -0.0988129 -0.00951407)
(-0.00278887 -0.0998558 -0.0092837)
(-0.00253911 -0.0999171 -0.00901819)
(-0.00231932 -0.0989693 -0.00872197)
(-0.00212988 -0.0969392 -0.00838831)
(-0.00196835 -0.0936886 -0.00799517)
(-0.00182636 -0.08898 -0.0074999)
(-0.00168679 -0.0824271 -0.00683662)
(-0.00151952 -0.073449 -0.00592885)
(-0.00128348 -0.0613091 -0.00474093)
(-0.000947609 -0.0453919 -0.00337623)
(-0.000532432 -0.0257699 -0.00213726)
(-0.00014081 -0.00378844 -0.00135983)
(0.000114048 0.0179543 -0.00105412)
(0.000194147 0.0361471 -0.000880872)
(0.000157705 0.0467547 -0.000622106)
(8.71379e-05 0.0473319 -0.000296798)
(1.44313e-05 0.0284901 1.54229e-05)
(0.000130774 0.0294187 0.000965793)
(0.000372473 0.0585001 0.00311165)
(0.000356063 0.0640845 0.00365835)
(0.000115724 0.0588926 0.00283682)
(-0.000431805 0.0434261 0.000172978)
(-0.00123932 0.0239833 -0.00325459)
(-0.00211838 0.00516907 -0.00610158)
(-0.00289183 -0.011822 -0.00785521)
(-0.00345906 -0.0272062 -0.00872034)
(-0.00379957 -0.0412642 -0.00911485)
(-0.00393227 -0.0539253 -0.00936576)
(-0.00390258 -0.0649281 -0.00961224)
(-0.00376507 -0.0741057 -0.00984704)
(-0.00356602 -0.0815028 -0.0100165)
(-0.00333666 -0.0872996 -0.0100866)
(-0.00309614 -0.0917055 -0.0100552)
(-0.00285608 -0.0948925 -0.00993985)
(-0.00262416 -0.0969776 -0.00976455)
(-0.00240605 -0.0980276 -0.00955158)
(-0.00220615 -0.0980676 -0.00931721)
(-0.00202784 -0.0970826 -0.00906897)
(-0.00187355 -0.0950142 -0.00880344)
(-0.00174397 -0.0917483 -0.00850289)
(-0.00163622 -0.0870978 -0.00812988)
(-0.00154129 -0.0807757 -0.00761984)
(-0.00143892 -0.0723493 -0.00687677)
(-0.00129196 -0.0611994 -0.00579147)
(-0.00105075 -0.046591 -0.00431915)
(-0.000680207 -0.0280782 -0.00262421)
(-0.000215736 -0.0063422 -0.00113724)
(0.000187053 0.0161297 -0.000255929)
(0.00037767 0.0353963 8.1296e-05)
(0.000356377 0.0468123 0.000229906)
(0.000219247 0.0476698 0.000384002)
(4.58896e-05 0.0287444 0.000394915)
(0.000177811 0.0262432 2.4499e-05)
(0.000971949 0.0541672 0.00096277)
(0.00155078 0.0613784 0.00116671)
(0.00187151 0.0585392 0.000474589)
(0.00191475 0.0471695 -0.0014562)
(0.00151356 0.0306185 -0.0039451)
(0.000855941 0.0129066 -0.00598048)
(0.000152794 -0.00426868 -0.00716662)
(-0.000431377 -0.0205353 -0.00769445)
(-0.000813502 -0.0357571 -0.00799284)
(-0.00100197 -0.0495459 -0.00837599)
(-0.00104799 -0.0614055 -0.00889354)
(-0.00101123 -0.0710843 -0.00942114)
(-0.000935119 -0.0786852 -0.00982809)
(-0.000843494 -0.0845094 -0.0100578)
(-0.000746566 -0.0888709 -0.0101189)
(-0.000648594 -0.0920018 -0.0100516)
(-0.000552492 -0.0940446 -0.00990293)
(-0.000461536 -0.095075 -0.0097146)
(-0.000379404 -0.0951218 -0.00951673)
(-0.000309829 -0.094175 -0.0093261)
(-0.000256525 -0.0921846 -0.0091457)
(-0.000222858 -0.0890531 -0.00896396)
(-0.000210802 -0.0846237 -0.00875124)
(-0.000219824 -0.0786638 -0.00845231)
(-0.000242341 -0.0708324 -0.00797471)
(-0.000255493 -0.0606287 -0.00718205)
(-0.000215387 -0.0473575 -0.00592197)
(-6.71073e-05 -0.030298 -0.0041455)
(0.000210452 -0.00941214 -0.00211101)
(0.000525913 0.0134809 -0.000392914)
(0.000688722 0.0342047 0.000600036)
(0.000610317 0.0470976 0.000984821)
(0.00036995 0.0485892 0.00107091)
(8.23433e-05 0.0294387 0.000734686)
(9.88312e-05 0.0225952 -0.000275987)
(0.000908607 0.0479022 -0.000233764)
(0.00177479 0.0562781 -0.000349511)
(0.00246554 0.0554389 -0.000861325)
(0.00296217 0.0481657 -0.00192224)
(0.00310293 0.0354999 -0.0032415)
(0.00292496 0.0200795 -0.0042454)
(0.00266027 0.00344753 -0.00479137)
(0.00248164 -0.0135599 -0.00518735)
(0.0024391 -0.0300137 -0.00583785)
(0.00248566 -0.0448211 -0.00684894)
(0.00254407 -0.0572104 -0.00799906)
(0.00257225 -0.0670373 -0.00899628)
(0.00256702 -0.0746268 -0.00967911)
(0.00254222 -0.0804312 -0.0100329)
(0.00251396 -0.0848123 -0.0101245)
(0.00249249 -0.0879921 -0.0100458)
(0.00248074 -0.0900897 -0.00988319)
(0.0024761 -0.0911643 -0.00970267)
(0.00247317 -0.0912373 -0.00954542)
(0.00246552 -0.0902963 -0.0094309)
(0.00244617 -0.0882915 -0.00936173)
(0.00240727 -0.0851296 -0.00932704)
(0.00233988 -0.0806692 -0.00930191)
(0.00223351 -0.0747234 -0.00924144)
(0.0020803 -0.0670571 -0.00906789)
(0.00188221 -0.0573542 -0.0086533)
(0.00165963 -0.0451269 -0.00781074)
(0.00145585 -0.0296766 -0.00634349)
(0.00132252 -0.010476 -0.0042342)
(0.00126171 0.0116312 -0.00190088)
(0.00115281 0.0330034 -5.50097e-05)
(0.000890293 0.0472687 0.000914714)
(0.000505509 0.0495789 0.00119118)
(0.00010384 0.0303646 0.000773654)
(-7.83304e-06 0.0202236 9.93139e-05)
(0.000414174 0.0425598 0.000106671)
(0.00104999 0.0504753 -4.80882e-05)
(0.00165249 0.0503472 -0.000351406)
(0.00220022 0.0448775 -0.000823561)
(0.00262835 0.034063 -0.00137709)
(0.00292659 0.0194833 -0.00188619)
(0.00325504 0.00270915 -0.00253921)
(0.0036614 -0.0146842 -0.00367117)
(0.00406536 -0.0309839 -0.00534422)
(0.00437154 -0.0448881 -0.00721804)
(0.00453993 -0.0559701 -0.00884724)
(0.00459249 -0.0645418 -0.00997646)
(0.00457444 -0.071188 -0.0105753)
(0.00452781 -0.0764029 -0.0107359)
(0.00448247 -0.080472 -0.0105953)
(0.00445343 -0.0835121 -0.0102982)
(0.00444295 -0.0855545 -0.00996929)
(0.00444561 -0.0866046 -0.00969266)
(0.00445322 -0.0866575 -0.00951034)
(0.00445737 -0.0856893 -0.00943366)
(0.00444948 -0.0836433 -0.0094555)
(0.00441983 -0.0804182 -0.00955765)