/*--------------------------------*- C++ -*----------------------------------*\
| =========                 |                                                 |
| \\      /  F ield         | OpenFOAM: The Open Source CFD Toolbox           |
|  \\    /   O peration     | Version:  v2006                                 |
|   \\  /    A nd           | Website:  www.openfoam.com                      |
|    \\/     M anipulation  |                                                 |
\*---------------------------------------------------------------------------*/
FoamFile
{
    version     2.0;
    format      ascii;
    class       volScalarField;
    location    "86";
    object      alphat;
}
// * * * * * * * * * * * * * * * * * * * * * * * * * * * * * * * * * * * * * //

dimensions      [1 -1 -1 0 0 0 0];


internalField   nonuniform List<scalar> 
78750
(
0.00124901
0.00271478
0.00184846
0.000648738
4.13838e-05
2.48587e-05
5.07519e-05
1.76239e-05
4.55755e-05
2.76397e-05
4.58712e-05
3.66456e-05
4.94225e-05
4.54871e-05
5.44231e-05
5.56112e-05
6.13003e-05
6.54607e-05
6.96962e-05
7.38573e-05
7.75865e-05
8.09399e-05
8.3828e-05
8.6233e-05
8.81372e-05
8.95062e-05
9.03872e-05
9.07258e-05
9.0239e-05
8.87806e-05
8.61923e-05
8.10564e-05
6.41811e-05
1.78107e-05
5.22859e-07
0.000134028
0.000131268
5.07713e-05
3.94367e-05
2.30919e-05
3.29774e-05
3.27159e-05
5.06038e-05
5.55248e-05
7.31426e-05
8.46885e-05
0.000102151
0.000117181
0.000133322
0.000147704
0.000159847
0.000169673
0.000176714
0.000182202
0.000186598
0.00019041
0.000193776
0.000196703
0.000199231
0.000201375
0.000203064
0.000204057
0.000203885
0.000201949
0.00019646
0.000179326
0.000132139
5.65117e-05
1.56729e-05
1.72672e-06
9.20846e-06
6.33634e-06
4.80451e-05
8.52797e-05
0.000228838
7.02447e-05
5.1488e-05
5.14138e-05
5.02438e-05
5.0594e-05
5.58724e-05
6.52045e-05
7.88172e-05
9.375e-05
0.00010718
0.000121357
0.000139772
0.000161845
0.000181363
0.000192217
0.000196176
0.000197421
0.000197845
0.000198088
0.000198107
0.000197006
0.000193296
0.00018554
0.000172037
0.000150012
0.000115881
7.15949e-05
3.39194e-05
1.64731e-05
3.06149e-06
1.83413e-06
1.71166e-05
4.22147e-05
9.37586e-05
0.000129517
0.000124134
9.87413e-05
7.8247e-05
6.78864e-05
6.27162e-05
5.89674e-05
5.57703e-05
5.39883e-05
5.6123e-05
6.60391e-05
8.27747e-05
8.50159e-05
7.87847e-05
8.26813e-05
9.86431e-05
0.000131323
0.000187422
0.000243769
0.000247125
0.000245274
0.000224315
0.000205683
0.000186198
0.000162153
0.000132188
9.45908e-05
5.27915e-05
2.30991e-05
1.34307e-05
3.92963e-06
1.90689e-06
2.43539e-05
5.48619e-05
8.2954e-05
0.000113045
0.000148902
0.000171338
0.000162028
0.000136775
0.000114851
9.9881e-05
8.79187e-05
7.60051e-05
6.40057e-05
5.36414e-05
4.90864e-05
5.80961e-05
9.80733e-05
0.000131599
8.97324e-05
7.04724e-05
7.91039e-05
0.000114572
0.000186921
0.000252128
0.000255157
0.000250415
0.000182493
0.000135056
9.89539e-05
6.49618e-05
3.70627e-05
2.2069e-05
1.94368e-05
5.01222e-06
4.05911e-06
2.0773e-05
5.78369e-05
0.00011741
0.000145905
0.000124087
9.11246e-05
6.87625e-05
5.71683e-05
5.37275e-05
5.87191e-05
7.52698e-05
0.00010241
0.000116288
9.4012e-05
6.65735e-05
5.30942e-05
5.62558e-05
9.73678e-05
0.000211427
0.000209159
0.000115849
9.20532e-05
0.000122597
0.000209299
0.000253061
0.00025741
0.000260577
0.000210365
0.000139467
8.45669e-05
3.83125e-05
1.59727e-05
1.4138e-05
5.64742e-06
6.16507e-06
4.41247e-05
0.000188233
0.000190717
0.000140109
0.000101997
8.4284e-05
7.95332e-05
7.83814e-05
7.50165e-05
7.2315e-05
7.7547e-05
9.29201e-05
0.000102814
8.60785e-05
6.28611e-05
6.11628e-05
0.00010604
0.000211824
0.000210927
0.000213283
0.00014496
0.000114987
0.000149421
0.000250477
0.000255493
0.000259501
0.000222965
0.000126819
7.69018e-05
4.7465e-05
2.8919e-05
2.04519e-05
2.61116e-05
6.73782e-06
7.53581e-06
3.88419e-05
0.000126563
0.000162156
0.00012012
7.52363e-05
5.39809e-05
4.85483e-05
5.2539e-05
6.10491e-05
6.89917e-05
7.51564e-05
8.18502e-05
8.67949e-05
8.1333e-05
6.70084e-05
6.09778e-05
8.47291e-05
0.000196768
0.000210141
0.000213184
0.000219201
0.000227374
0.000236214
0.000244483
0.000251601
0.000257265
0.000261217
0.000220905
0.000118723
5.25454e-05
2.20823e-05
1.47157e-05
2.46357e-05
7.15833e-06
7.05031e-06
4.65662e-05
0.000164615
0.000174897
0.000115673
7.26885e-05
5.13548e-05
4.28244e-05
4.38986e-05
5.42384e-05
6.9923e-05
7.80905e-05
7.29251e-05
6.37699e-05
6.19664e-05
8.07039e-05
0.000144311
0.000199454
0.000201935
0.000206524
0.000213041
0.000220965
0.000229604
0.000238287
0.000246508
0.000253937
0.000199504
0.000141123
0.000106257
8.2041e-05
5.51798e-05
2.80229e-05
1.76769e-05
3.20173e-05
7.56639e-06
7.43013e-06
3.84838e-05
0.000119056
0.00015909
0.000147042
0.000107727
7.05788e-05
4.93447e-05
3.98545e-05
3.82192e-05
4.3637e-05
5.65675e-05
7.48251e-05
8.90678e-05
8.99699e-05
8.24175e-05
7.85074e-05
9.00543e-05
0.000134975
0.000203292
0.000204092
0.000206602
0.000210749
0.00021625
0.000222621
0.00022921
0.000216182
0.000153807
0.000101616
6.69122e-05
4.45428e-05
2.67073e-05
1.73797e-05
2.9141e-05
8.03685e-06
7.03396e-06
3.97476e-05
0.000118343
0.000164593
0.000156106
0.000124975
9.32616e-05
6.84666e-05
5.16407e-05
4.21083e-05
3.90701e-05
4.28422e-05
5.52158e-05
7.72558e-05
0.000102419
0.000117039
0.000114602
0.000105769
0.000114455
0.000159807
0.000190971
0.000193888
0.000199694
0.000207629
0.000216704
0.000210726
0.00017716
0.000142824
0.000106092
6.7131e-05
3.75815e-05
2.23166e-05
1.79744e-05
3.88738e-05
8.88721e-06
7.09287e-06
3.36846e-05
0.000100276
0.00015571
0.000166244
0.000150695
0.000119473
8.72717e-05
6.364e-05
4.83966e-05
3.92797e-05
3.51196e-05
3.60964e-05
4.43967e-05
6.45965e-05
9.73417e-05
0.000125277
0.000134891
0.000131824
0.000130074
0.000148479
0.000190706
0.000194843
0.000198715
0.000199605
0.000164854
0.000131625
0.000104095
7.907e-05
5.30745e-05
3.09437e-05
2.06831e-05
2.32611e-05
7.06899e-05
9.00094e-06
6.09052e-06
2.84142e-05
8.31884e-05
0.000148786
0.000168109
0.000161375
0.000146898
0.000128205
0.000103716
7.7927e-05
5.81444e-05
4.56714e-05
3.84912e-05
3.55219e-05
3.81109e-05
5.09317e-05
8.1482e-05
0.000124587
0.000160536
0.000189727
0.000211518
0.000216523
0.000211729
0.00020236
0.000189965
0.000171776
0.000146881
0.000115507
8.12183e-05
5.03167e-05
2.77922e-05
1.79358e-05
2.40691e-05
9.31481e-05
8.91093e-06
7.35099e-06
3.12012e-05
9.62351e-05
0.000154388
0.000163879
0.000153114
0.000132626
0.000108578
8.61675e-05
6.82608e-05
5.59914e-05
4.91764e-05
4.56583e-05
4.24876e-05
3.97708e-05
4.11088e-05
5.28436e-05
8.82369e-05
0.000163208
0.000224401
0.00022366
0.000222767
0.000221545
0.000220066
0.000190954
0.000147081
0.000115179
9.26617e-05
7.2709e-05
5.05538e-05
2.9762e-05
1.82606e-05
2.40173e-05
9.61141e-05
8.93243e-06
8.09102e-06
3.81189e-05
0.000124764
0.000176721
0.000180144
0.000168532
0.000148924
0.000122586
9.26523e-05
6.67358e-05
5.01147e-05
4.298e-05
4.38084e-05
4.90452e-05
5.13223e-05
4.91667e-05
5.16812e-05
7.21657e-05
0.000136215
0.000228461
0.000227659
0.000227014
0.000226116
0.000224663
0.000222561
0.000161523
0.000107135
7.48531e-05
5.76087e-05
4.49786e-05
2.9818e-05
1.84084e-05
2.21144e-05
8.58028e-05
9.18026e-06
8.5532e-06
4.04268e-05
0.000131176
0.000175713
0.000175724
0.000160025
0.000136152
0.000108632
8.15624e-05
5.90961e-05
4.38529e-05
3.6241e-05
3.60116e-05
4.30161e-05
5.3738e-05
5.95938e-05
6.08838e-05
6.93335e-05
9.96182e-05
0.000164909
0.000230845
0.000231553
0.000232179
0.000232249
0.000231413
0.000176979
0.000119224
7.62058e-05
5.04129e-05
3.65515e-05
2.5631e-05
1.74137e-05
2.32055e-05
9.52481e-05
9.54297e-06
8.13727e-06
4.05552e-05
0.000130908
0.000178607
0.000177694
0.000160354
0.000137761
0.000113987
8.9393e-05
6.59331e-05
4.79143e-05
3.7649e-05
3.50041e-05
3.98173e-05
5.13718e-05
6.43839e-05
7.23212e-05
7.91004e-05
9.63089e-05
0.000136181
0.000197567
0.000233899
0.000235261
0.000236422
0.000236924
0.000208674
0.000144045
8.54186e-05
4.65368e-05
2.78583e-05
2.12943e-05
1.84581e-05
2.98712e-05
0.000117892
9.90115e-06
8.63547e-06
4.34691e-05
0.000140037
0.000183827
0.00018064
0.000161539
0.000138512
0.00011691
9.58863e-05
7.35729e-05
5.29823e-05
3.90479e-05
3.31338e-05
3.47731e-05
4.38592e-05
5.92303e-05
7.64648e-05
9.21069e-05
0.000110061
0.000137731
0.000178345
0.000224808
0.000247483
0.000249722
0.000251013
0.000205966
0.000145066
8.50986e-05
4.15296e-05
2.16131e-05
1.82261e-05
2.44689e-05
5.14927e-05
0.000106887
9.93866e-06
8.4078e-06
4.38393e-05
0.000136596
0.000180488
0.000177567
0.000155386
0.000130021
0.000110443
9.62909e-05
8.1992e-05
6.35639e-05
4.53718e-05
3.40478e-05
3.12774e-05
3.68143e-05
4.94757e-05
6.47008e-05
7.84754e-05
9.4869e-05
0.000121987
0.000159511
0.000191562
0.000205864
0.000204532
0.000191298
0.000167897
0.000135782
9.59537e-05
5.44873e-05
2.66759e-05
1.74278e-05
2.47388e-05
6.58519e-05
8.15857e-05
9.57102e-06
8.5228e-06
4.20603e-05
0.000134843
0.000186611
0.000183313
0.00015767
0.00012849
0.00010711
9.44826e-05
8.63268e-05
7.65309e-05
6.05908e-05
4.29308e-05
3.18043e-05
2.98776e-05
3.78124e-05
5.4709e-05
7.22688e-05
8.27157e-05
8.96377e-05
9.95786e-05
0.00011416
0.000128843
0.000137126
0.000136713
0.000129593
0.000119191
0.000107225
8.75848e-05
5.29047e-05
2.39875e-05
1.79559e-05
3.49927e-05
9.3777e-05
9.24442e-06
8.53766e-06
4.21256e-05
0.000131997
0.000183824
0.000175964
0.000143882
0.000112098
9.22861e-05
8.31264e-05
8.00028e-05
7.8433e-05
7.30681e-05
5.88799e-05
4.094e-05
2.95536e-05
2.78187e-05
3.77765e-05
6.33201e-05
0.00010128
0.000134205
0.000152238
0.000159729
0.000161069
0.000156779
0.000146838
0.000132629
0.000116297
0.000100957
8.99337e-05
7.48694e-05
3.81372e-05
1.63555e-05
2.32757e-05
0.000101305
9.69892e-06
9.0462e-06
4.22127e-05
0.00013031
0.000179143
0.000168729
0.000133904
0.000100859
8.20084e-05
7.41339e-05
7.15888e-05
7.09397e-05
7.05713e-05
6.76371e-05
5.65375e-05
4.05636e-05
3.07348e-05
3.05263e-05
4.19214e-05
6.63584e-05
9.88948e-05
0.000135315
0.000171756
0.000198076
0.00020483
0.000192567
0.000167399
0.000132155
8.95301e-05
6.00861e-05
4.97843e-05
3.48604e-05
1.97295e-05
3.04851e-05
0.000127948
1.07664e-05
8.99552e-06
4.10453e-05
0.000124994
0.00017522
0.000156756
0.000111314
7.77594e-05
6.39292e-05
6.195e-05
6.45403e-05
6.60035e-05
6.36711e-05
5.8851e-05
5.26977e-05
4.41788e-05
3.55153e-05
3.16752e-05
3.6783e-05
6.15435e-05
0.000128646
0.000194191
0.000209907
0.000220167
0.000234153
0.000235258
0.000203454
0.000137378
7.08264e-05
3.91372e-05
3.35802e-05
3.62513e-05
3.62743e-05
6.21501e-05
0.00012192
1.10419e-05
9.25381e-06
3.94612e-05
0.00011852
0.00016733
0.000146522
9.59698e-05
6.30693e-05
5.18645e-05
5.23782e-05
5.81337e-05
6.47274e-05
6.85626e-05
6.70086e-05
5.92593e-05
4.77438e-05
3.76075e-05
3.09235e-05
2.82827e-05
3.32368e-05
5.03033e-05
8.88643e-05
0.000155937
0.000195624
0.00019332
0.000189702
0.000180724
0.000132243
6.45189e-05
3.28613e-05
2.67685e-05
3.61315e-05
5.81877e-05
0.000107467
8.17625e-05
1.03811e-05
9.64385e-06
4.00989e-05
0.000119808
0.000158336
0.000125131
7.25389e-05
4.52612e-05
3.75791e-05
3.95473e-05
4.47409e-05
4.80424e-05
4.7262e-05
4.2583e-05
3.512e-05
2.83508e-05
2.85683e-05
4.7891e-05
0.000120171
0.000224555
0.0002124
0.000166954
0.000135322
0.00012393
0.000126694
0.000132394
0.000130301
0.000112266
7.48561e-05
4.17333e-05
2.8179e-05
3.16311e-05
5.96743e-05
0.000120685
6.3166e-05
9.82662e-06
1.0229e-05
4.09274e-05
0.000117823
0.000150704
0.000119772
7.01085e-05
4.21595e-05
3.33139e-05
3.42067e-05
3.86424e-05
4.32488e-05
4.88245e-05
5.51514e-05
5.75534e-05
5.29e-05
4.44028e-05
4.1018e-05
4.85813e-05
7.04575e-05
0.000110504
0.000155609
0.000173969
0.000164534
0.000143634
0.000122199
0.000104864
9.23035e-05
7.92292e-05
5.89747e-05
3.90029e-05
3.05943e-05
3.9633e-05
8.28516e-05
6.85657e-05
9.84294e-06
1.02997e-05
4.37167e-05
0.000123028
0.000145917
0.000111948
6.23708e-05
3.57958e-05
2.70478e-05
2.68795e-05
2.74007e-05
2.47585e-05
2.39995e-05
2.663e-05
2.87073e-05
3.11555e-05
3.75389e-05
4.7337e-05
6.73625e-05
0.000111381
0.000182496
0.00023995
0.000256746
0.000245602
0.000217677
0.000180652
0.00014296
0.000113413
9.49822e-05
8.02447e-05
5.94754e-05
3.87902e-05
3.37199e-05
5.71962e-05
8.54725e-05
1.03513e-05
9.79365e-06
4.21333e-05
0.000122255
0.00015032
0.000116649
6.47049e-05
3.53613e-05
2.41767e-05
2.12845e-05
1.83229e-05
1.42819e-05
1.82267e-05
3.13925e-05
2.6959e-05
2.41973e-05
4.57441e-05
0.000108207
0.000161251
0.000177585
0.000191029
0.000205715
0.000213996
0.000212315
0.000200224
0.000177601
0.00014708
0.000117306
9.67895e-05
8.31808e-05
6.54993e-05
4.37873e-05
3.62897e-05
6.08141e-05
9.8944e-05
1.10757e-05
9.83383e-06
4.11729e-05
0.00012316
0.000157962
0.000124307
7.58832e-05
4.26678e-05
2.65439e-05
2.17006e-05
2.25211e-05
1.93956e-05
1.43418e-05
2.18433e-05
5.22616e-05
4.29355e-05
2.68e-05
3.4091e-05
8.21816e-05
0.000170794
0.000242955
0.00027234
0.000262263
0.000235102
0.000203587
0.000170088
0.000135979
0.000107121
8.87676e-05
7.7286e-05
6.33569e-05
4.81498e-05
4.74554e-05
8.48577e-05
9.70037e-05
1.14472e-05
1.00511e-05
4.13875e-05
0.000131652
0.000156339
9.8907e-05
6.04567e-05
4.45363e-05
3.22912e-05
2.3791e-05
2.28323e-05
2.70546e-05
2.51845e-05
1.60124e-05
1.57277e-05
3.48619e-05
7.65849e-05
5.63673e-05
4.95821e-05
7.75065e-05
0.000153547
0.000214771
0.000246854
0.000253376
0.000227057
0.000178718
0.000128934
9.35535e-05
7.55236e-05
6.84313e-05
6.23509e-05
5.66377e-05
6.72025e-05
0.00011933
8.83325e-05
1.13712e-05
1.09632e-05
4.61841e-05
0.000139221
0.000137257
6.9737e-05
4.02589e-05
3.35865e-05
3.26217e-05
2.86121e-05
2.57543e-05
2.7595e-05
3.01864e-05
2.49249e-05
1.55573e-05
1.39319e-05
2.74409e-05
7.27768e-05
9.55431e-05
7.82739e-05
9.10139e-05
0.000144615
0.000196977
0.000216881
0.000217391
0.000187492
0.000136115
9.24529e-05
6.91778e-05
6.20686e-05
6.31318e-05
6.86051e-05
9.10915e-05
0.000143852
7.77606e-05
1.0968e-05
1.1922e-05
5.78305e-05
0.000147903
8.76423e-05
3.97158e-05
2.5101e-05
2.54626e-05
3.11634e-05
3.44427e-05
3.62769e-05
4.01607e-05
4.28873e-05
3.70887e-05
2.45079e-05
1.42148e-05
1.22067e-05
2.41436e-05
6.7199e-05
0.000119661
9.63665e-05
9.0725e-05
0.000116245
0.00015994
0.000180779
0.000174812
0.000141884
9.81481e-05
6.78723e-05
5.56795e-05
5.80282e-05
7.33354e-05
0.000105553
0.000145963
6.72842e-05
1.05772e-05
1.2079e-05
6.69033e-05
0.000124492
6.33573e-05
3.16198e-05
2.29964e-05
2.63217e-05
3.38815e-05
3.74414e-05
3.8746e-05
4.16176e-05
4.49087e-05
4.31795e-05
3.34275e-05
2.00978e-05
1.00193e-05
7.06336e-06
1.60283e-05
5.16181e-05
0.000118071
0.000102248
8.79889e-05
0.000100484
0.000132548
0.000148375
0.000137442
0.000106955
7.51488e-05
5.6889e-05
5.51138e-05
7.33144e-05
0.000115268
0.000147064
6.3886e-05
1.04802e-05
1.16368e-05
6.3354e-05
0.000126559
8.10236e-05
4.45721e-05
2.77937e-05
2.30417e-05
2.64996e-05
3.43256e-05
4.12358e-05
4.54058e-05
4.83007e-05
4.91817e-05
4.48748e-05
3.3628e-05
1.9186e-05
7.78914e-06
2.95748e-06
9.27707e-06
3.48062e-05
9.52455e-05
9.62034e-05
7.67071e-05
7.89951e-05
0.000101117
0.000119301
0.000115045
9.3044e-05
6.93154e-05
5.75472e-05
6.44261e-05
9.85778e-05
0.000144749
6.55671e-05
1.03862e-05
1.11129e-05
5.18194e-05
0.000133765
0.000141435
0.000101267
5.13363e-05
2.67201e-05
1.8261e-05
1.85769e-05
2.50581e-05
3.46293e-05
4.34912e-05
4.93371e-05
5.0865e-05
4.66486e-05
3.57833e-05
2.07081e-05
7.44021e-06
4.99519e-07
4.1959e-06
1.99222e-05
5.86332e-05
8.30966e-05
7.61845e-05
8.31634e-05
0.000107317
0.000124132
0.00011313
8.40209e-05
6.03351e-05
5.38228e-05
6.95071e-05
0.000115335
7.15862e-05
1.07025e-05
1.12003e-05
4.82279e-05
0.000134094
0.000156853
0.000140262
9.84876e-05
4.87647e-05
2.36408e-05
1.50959e-05
1.54841e-05
2.2274e-05
3.29042e-05
4.31945e-05
4.93645e-05
4.96741e-05
4.42281e-05
3.41979e-05
2.10536e-05
6.60481e-06
8.87378e-07
2.54689e-06
1.57335e-05
4.91369e-05
8.57133e-05
9.09663e-05
9.23005e-05
9.39328e-05
8.62194e-05
7.041e-05
5.76225e-05
5.72445e-05
7.84966e-05
0.000128775
8.51894e-05
1.17259e-05
1.13695e-05
4.9744e-05
0.00014235
0.000152652
0.000133659
0.000114365
7.97191e-05
3.83767e-05
1.79557e-05
1.14233e-05
1.25408e-05
1.91051e-05
2.8587e-05
3.64424e-05
3.91017e-05
3.64366e-05
3.02214e-05
2.1796e-05
1.14845e-05
1.6143e-06
5.14005e-07
1.06154e-06
1.554e-05
3.86311e-05
5.3386e-05
6.46751e-05
8.13097e-05
9.35044e-05
8.87555e-05
7.93506e-05
8.67087e-05
0.000123798
0.000167007
7.24288e-05
1.11415e-05
1.13841e-05
5.21127e-05
0.000141507
0.000151385
0.000134313
0.000114504
9.42117e-05
6.243e-05
3.07702e-05
1.48659e-05
9.6934e-06
1.06629e-05
1.52792e-05
2.0152e-05
2.18722e-05
1.96723e-05
1.69513e-05
7.79667e-06
2.55755e-06
1.66383e-06
6.51385e-07
3.57184e-08
5.30434e-06
2.43619e-05
5.44148e-05
8.80132e-05
0.0001215
0.000132551
0.000114444
9.36871e-05
9.38417e-05
0.000120107
0.00014431
5.29763e-05
9.53142e-06
1.09262e-05
5.16686e-05
0.000138857
0.000154525
0.000144143
0.000128197
0.000110186
8.5878e-05
5.19114e-05
2.53475e-05
1.16793e-05
6.28928e-06
5.79878e-06
6.97883e-06
6.36605e-06
1.10651e-06
2.09831e-06
1.13697e-06
1.79796e-06
1.0035e-06
2.42308e-06
2.22136e-06
5.32251e-06
3.43217e-05
8.30077e-05
0.000117279
0.000117491
9.90525e-05
8.35955e-05
7.36792e-05
7.36362e-05
8.98343e-05
0.00012004
8.25912e-05
1.197e-05
1.0212e-05
4.9063e-05
0.00013602
0.000158837
0.000151399
0.000136864
0.000125374
0.000112727
8.3028e-05
4.45046e-05
1.9732e-05
6.49376e-06
3.01574e-06
4.13515e-06
7.02171e-07
1.41792e-06
1.95537e-07
2.73882e-06
9.68731e-06
2.1016e-05
2.91225e-05
2.78074e-05
2.62479e-05
3.10631e-05
3.59399e-05
4.42835e-05
6.19597e-05
7.83615e-05
8.5303e-05
8.81141e-05
9.81909e-05
0.00012538
0.000165697
9.5999e-05
1.3237e-05
9.87881e-06
5.00383e-05
0.000134957
0.000155924
0.000147496
0.00012834
0.000114063
0.000112156
0.000108614
7.66924e-05
3.76522e-05
1.44178e-05
1.54784e-06
5.97827e-07
1.45213e-08
3.51141e-07
2.5097e-06
9.67085e-06
2.99549e-05
9.76129e-05
0.000193894
0.000138756
7.42774e-05
3.60682e-05
2.29472e-05
3.15322e-05
5.70705e-05
8.38334e-05
0.000103139
0.000120699
0.000140116
0.000153066
0.000106854
3.74042e-05
9.11025e-06
9.60979e-06
4.95608e-05
0.000133267
0.000157389
0.000151646
0.000130702
0.000105672
9.36225e-05
0.000100417
0.000111776
8.69165e-05
4.20893e-05
1.58352e-05
2.90796e-06
2.00883e-06
1.29447e-06
5.89651e-07
3.83264e-06
1.35669e-05
3.49426e-05
7.2478e-05
0.000117527
0.00012358
9.43403e-05
7.58334e-05
7.78987e-05
9.47753e-05
0.000110357
0.000120682
0.000128272
0.000128595
0.000103779
5.21297e-05
1.96214e-05
5.02659e-06
9.89234e-06
5.2144e-05
0.000143204
0.000162258
0.000149023
0.000128302
0.000107826
8.84881e-05
7.61695e-05
8.07157e-05
0.000106375
0.000125783
8.63926e-05
3.61848e-05
1.14115e-05
9.33935e-07
1.25386e-06
1.14551e-06
6.53503e-07
6.76803e-06
1.66112e-05
2.95466e-05
4.50537e-05
6.40344e-05
8.48147e-05
0.000114193
0.000152848
0.000184797
0.000199237
0.000194619
0.000161467
0.000102387
4.91048e-05
2.10411e-05
3.86716e-06
1.01408e-05
5.19875e-05
0.000146718
0.000171355
0.000155762
0.000128133
0.000106367
9.70265e-05
9.30976e-05
8.39113e-05
7.3698e-05
7.57948e-05
9.79397e-05
0.000127299
0.00010838
5.28989e-05
2.05773e-05
5.44563e-06
9.08995e-07
2.42402e-06
2.22966e-06
2.7607e-06
9.58055e-06
1.68817e-05
2.69381e-05
3.92371e-05
5.76494e-05
8.38384e-05
0.000114524
0.000132067
0.000119693
8.07751e-05
4.39883e-05
2.29549e-05
4.6348e-06
1.05648e-05
5.27236e-05
0.000153412
0.00017514
0.00015269
0.000121885
9.78483e-05
8.47424e-05
8.28508e-05
9.11063e-05
0.00010256
0.000104047
9.56141e-05
9.14856e-05
0.000100602
0.000120575
0.000122362
7.94755e-05
3.79771e-05
1.55124e-05
3.19404e-06
1.50273e-06
2.48235e-07
8.47258e-07
2.29488e-06
6.77672e-06
1.24724e-05
1.87558e-05
2.94834e-05
4.02737e-05
5.53454e-05
5.39573e-05
2.90491e-05
1.817e-05
5.95271e-06
1.09626e-05
5.34704e-05
0.000155442
0.00017287
0.000146241
0.000114962
9.44624e-05
8.5734e-05
8.46163e-05
8.80795e-05
9.60051e-05
0.00010831
0.000120608
0.000125405
0.000121847
0.000118214
0.00012183
0.000131666
0.00013012
9.38111e-05
4.89102e-05
2.25665e-05
7.84492e-06
4.0975e-06
7.15319e-08
2.40233e-06
1.89306e-06
1.68916e-06
1.54896e-06
4.77662e-06
4.52615e-06
9.87523e-06
8.06313e-06
1.22476e-05
8.12421e-06
1.12724e-05
5.44663e-05
0.000157098
0.000166529
0.000134819
0.000102823
8.4357e-05
7.8862e-05
8.27439e-05
9.25531e-05
0.000104929
0.000117682
0.00013022
0.000141615
0.000149237
0.000150889
0.000148503
0.000147197
0.00014938
0.000148549
0.0001264
7.83063e-05
3.90586e-05
1.79783e-05
2.98045e-06
3.58884e-06
4.94077e-06
1.39233e-06
2.68784e-06
3.87295e-06
2.62449e-06
3.31791e-06
3.93848e-06
1.4174e-05
9.51697e-06
1.13768e-05
5.51919e-05
0.000157446
0.000159501
0.000123958
9.28416e-05
7.75301e-05
7.51769e-05
8.18663e-05
9.45095e-05
0.000109939
0.000125407
0.000139594
0.000152316
0.000163176
0.000170848
0.000174032
0.000173263
0.000170769
0.00016672
0.000154346
0.000122141
7.50766e-05
3.93299e-05
1.89794e-05
7.77796e-06
4.30911e-06
1.21581e-06
3.64016e-06
2.14172e-06
3.95073e-06
2.29581e-06
5.47206e-07
3.30846e-05
1.01051e-05
1.12756e-05
5.54046e-05
0.000155379
0.000152281
0.000113903
8.36246e-05
7.05751e-05
7.01631e-05
7.83513e-05
9.24824e-05
0.000109898
0.000128051
0.000145398
0.000161365
0.000175564
0.000187165
0.000194853
0.000197226
0.000192867
0.000179288
0.000152571
0.000113029
7.26108e-05
4.2919e-05
2.26101e-05
6.91292e-06
2.71655e-06
2.93746e-06
1.02149e-05
2.05593e-05
2.682e-05
1.63331e-05
1.40231e-05
7.39493e-05
1.03108e-05
1.1034e-05
5.4841e-05
0.000151664
0.000147271
0.000107658
7.8224e-05
6.65366e-05
6.66674e-05
7.41154e-05
8.62494e-05
0.000101208
0.000117823
0.000135571
0.000153646
0.000169954
0.00018108
0.000183037
0.000172328
0.000148367
0.000116749
8.71402e-05
6.51885e-05
4.88606e-05
3.2677e-05
1.44749e-05
1.73568e-06
1.70393e-06
1.1114e-05
2.74895e-05
4.51009e-05
4.42355e-05
2.78301e-05
3.3123e-05
9.84532e-05
1.04526e-05
1.08877e-05
5.4539e-05
0.000150245
0.000143975
0.000102312
7.41032e-05
6.37094e-05
6.35179e-05
6.85209e-05
7.62401e-05
8.55227e-05
9.60114e-05
0.00010748
0.000118694
0.000127007
0.000129997
0.000128054
0.000124021
0.000118893
0.000109329
9.19866e-05
7.00097e-05
4.806e-05
2.68189e-05
9.17779e-06
2.96907e-06
8.50753e-06
2.26052e-05
4.24732e-05
5.82802e-05
5.34724e-05
4.22372e-05
5.92225e-05
9.30776e-05
1.04449e-05
1.10021e-05
5.52846e-05
0.000151129
0.000138497
9.48563e-05
7.03325e-05
6.38267e-05
6.61509e-05
7.13161e-05
7.63523e-05
8.06174e-05
8.53081e-05
9.28883e-05
0.000105935
0.000125108
0.000146379
0.000160528
0.000159322
0.000144366
0.000124648
0.000105592
8.59716e-05
6.25425e-05
3.57199e-05
1.3513e-05
4.27449e-06
9.06092e-06
2.73013e-05
5.01651e-05
5.9363e-05
5.63079e-05
5.71997e-05
8.83741e-05
8.25686e-05
1.02592e-05
1.11671e-05
5.56449e-05
0.000149245
0.000128798
8.44416e-05
6.47027e-05
6.37332e-05
7.26822e-05
8.51256e-05
9.58138e-05
0.00010164
0.000102518
0.000101067
0.000101072
0.000105627
0.000115636
0.00012876
0.000140431
0.00014733
0.00014766
0.000138848
0.000118579
8.82595e-05
5.38786e-05
2.44601e-05
8.3381e-06
6.82526e-06
2.08683e-05
4.82486e-05
6.34636e-05
5.96627e-05
6.69071e-05
0.000104964
7.50966e-05
9.98484e-06
1.13069e-05
5.69916e-05
0.000147644
0.000113944
7.08639e-05
5.64403e-05
5.98933e-05
7.34869e-05
9.19706e-05
0.000110132
0.000123244
0.00012789
0.000123366
0.000113295
0.000104249
0.000101851
0.000108839
0.000124522
0.000143461
0.000156223
0.000155093
0.000138276
0.000108323
7.21447e-05
3.92133e-05
1.67634e-05
7.61869e-06
1.18592e-05
3.04172e-05
5.92635e-05
7.02658e-05
7.85381e-05
0.00011139
6.80039e-05
9.66755e-06
1.13256e-05
5.63644e-05
0.000145212
0.000103392
6.26132e-05
5.24452e-05
5.9678e-05
7.60213e-05
9.50382e-05
0.000112054
0.000124683
0.000131492
0.000131065
0.000123244
0.000111429
0.000101751
9.9064e-05
0.00010468
0.000116173
0.00012736
0.000131034
0.000124028
0.000107428
8.33659e-05
5.5981e-05
3.19745e-05
1.5431e-05
9.07329e-06
1.42496e-05
3.11421e-05
5.97305e-05
9.19162e-05
0.000120232
6.04202e-05
9.38992e-06
1.1456e-05
5.52802e-05
0.000142117
9.47061e-05
5.49485e-05
4.68989e-05
5.63767e-05
7.59203e-05
9.85195e-05
0.000118258
0.000132454
0.000140283
0.000141071
0.000134371
0.000121677
0.000107601
9.76225e-05
9.4465e-05
9.71617e-05
0.0001019
0.000103923
0.000100624
9.28744e-05
8.14937e-05
6.39231e-05
4.28492e-05
2.65945e-05
1.55592e-05
1.06205e-05
1.51996e-05
3.18429e-05
6.81064e-05
0.000110741
6.10514e-05
9.2819e-06
1.1503e-05
5.39381e-05
0.000137076
8.57056e-05
4.8131e-05
4.22673e-05
5.43555e-05
7.78344e-05
0.000104347
0.000126488
0.000141813
0.000150358
0.00015206
0.000146516
0.000134313
0.000118675
0.000104817
9.64758e-05
9.35465e-05
9.28165e-05
9.06366e-05
8.59909e-05
8.04926e-05
7.17617e-05
5.03907e-05
3.12417e-05
2.50075e-05
2.52492e-05
2.2864e-05
1.76351e-05
2.05252e-05
3.43229e-05
6.43611e-05
6.94473e-05
9.86817e-06
1.14109e-05
5.20428e-05
0.000131841
7.88314e-05
4.23317e-05
3.72753e-05
5.08797e-05
7.85938e-05
0.000111537
0.00013986
0.000160088
0.000172231
0.000176156
0.000171181
0.000157533
0.000138486
0.000120229
0.000107613
0.000100624
9.5535e-05
8.92228e-05
7.96096e-05
5.79174e-05
3.1079e-05
2.16215e-05
2.45191e-05
3.45487e-05
4.65983e-05
4.45766e-05
2.66792e-05
1.85375e-05
2.64331e-05
5.96774e-05
7.82165e-05
1.11662e-05
1.1314e-05
5.11845e-05
0.000129213
7.50414e-05
3.87271e-05
3.37946e-05
4.83405e-05
7.98178e-05
0.000118976
0.000154086
0.000181468
0.000201274
0.000212647
0.000213094
0.00020033
0.000176756
0.000151698
0.000134204
0.00012448
0.00011177
7.9642e-05
3.49709e-05
1.65808e-05
1.7176e-05
2.86486e-05
4.67719e-05
5.52362e-05
5.33484e-05
4.6808e-05
3.4574e-05
2.98407e-05
4.68881e-05
0.000106115
6.16807e-05
1.12256e-05
1.12569e-05
5.12849e-05
0.000127506
7.0187e-05
3.48718e-05
3.00714e-05
4.48682e-05
7.94152e-05
0.00012466
0.0001662
0.000200017
0.000226953
0.000246091
0.000253507
0.000243452
0.000214769
0.000178496
0.00014858
0.000123742
8.18092e-05
3.17672e-05
1.3071e-05
1.25763e-05
2.3173e-05
5.23347e-05
8.01356e-05
5.80073e-05
4.26867e-05
4.43404e-05
5.34162e-05
6.61316e-05
9.96804e-05
0.000113924
3.9883e-05
9.60876e-06
1.13069e-05
5.33485e-05
0.000125594
6.56337e-05
3.23553e-05
2.76647e-05
4.21118e-05
7.66727e-05
0.000121838
0.000162735
0.000195462
0.000220791
0.000237599
0.000242151
0.000229703
0.000199161
0.00015857
0.000119805
8.67037e-05
5.2948e-05
2.21863e-05
9.92543e-06
1.03741e-05
1.89538e-05
4.33533e-05
9.43781e-05
8.75029e-05
5.70042e-05
4.75283e-05
5.81786e-05
8.60379e-05
0.000113241
8.84484e-05
3.07679e-05
7.89963e-06
1.13301e-05
5.54578e-05
0.00012291
6.47489e-05
3.15429e-05
2.54608e-05
3.76746e-05
6.94183e-05
0.000111824
0.000149943
0.000179417
0.000201111
0.000214663
0.000217945
0.000208414
0.000185394
0.000152605
0.000117445
8.57492e-05
5.78487e-05
3.1427e-05
1.2773e-05
7.65449e-06
1.08315e-05
2.03941e-05
3.97981e-05
7.31335e-05
0.000101071
0.000102539
9.91272e-05
0.000106036
0.000117455
8.8692e-05
2.87631e-05
7.0417e-06
1.13581e-05
5.76755e-05
0.000123642
7.42339e-05
3.62883e-05
2.49381e-05
3.0972e-05
5.44666e-05
9.10887e-05
0.000127872
0.000157339
0.000179212
0.000193977
0.000200889
0.000198548
0.000186008
0.000164072
0.000136127
0.000107059
8.0328e-05
5.61094e-05
3.29501e-05
1.49272e-05
8.28247e-06
9.91416e-06
1.62752e-05
2.67482e-05
4.36939e-05
7.82062e-05
0.000140285
0.00015678
0.000137061
9.13398e-05
2.9733e-05
6.98082e-06
1.12208e-05
5.69618e-05
0.000128267
9.94725e-05
5.28899e-05
2.91964e-05
2.47853e-05
3.53991e-05
6.11894e-05
9.64587e-05
0.000129605
0.000155311
0.000173826
0.000185631
0.000190313
0.00018714
0.000175866
0.000157512
0.00013462
0.000110552
8.77442e-05
6.65366e-05
4.5798e-05
2.62554e-05
1.37194e-05
1.02705e-05
1.23961e-05
1.77872e-05
2.66883e-05
4.37675e-05
8.76621e-05
0.000118718
8.52301e-05
3.11654e-05
7.38934e-06
1.11046e-05
5.45425e-05
0.00013275
0.000132131
9.32197e-05
4.76577e-05
2.65454e-05
2.29355e-05
3.26272e-05
5.69776e-05
9.22602e-05
0.000126937
0.000154103
0.000173349
0.000185279
0.000189862
0.000186937
0.000176854
0.000160909
0.000141332
0.000120705
0.000100923
8.2512e-05
6.47489e-05
4.67379e-05
2.99038e-05
1.84193e-05
1.37513e-05
1.40291e-05
1.74134e-05
2.41585e-05
5.16041e-05
9.61997e-05
3.65806e-05
8.05527e-06
1.09977e-05
5.20684e-05
0.000136119
0.000149816
0.000132537
9.12982e-05
4.61748e-05
2.50488e-05
2.0697e-05
2.92357e-05
5.29992e-05
9.03717e-05
0.000130275
0.000163117
0.000186327
0.00020002
0.000204571
0.000200582
0.00018942
0.000173271
0.000154522
0.000135302
0.000116998
0.000100018
8.39954e-05
6.82653e-05
5.2471e-05
3.73431e-05
2.52744e-05
1.83548e-05
1.35204e-05
1.48508e-05
3.5869e-05
5.81281e-05
8.94569e-06
1.10478e-05
5.08988e-05
0.000139757
0.000155589
0.000138274
0.000116561
8.20217e-05
4.27545e-05
2.34158e-05
1.99072e-05
2.9872e-05
5.64005e-05
9.85793e-05
0.000145587
0.000185963
0.000214433
0.000229819
0.0002329
0.000225662
0.000211206
0.000192929
0.000173425
0.000154247
0.000136027
0.000118802
0.000102419
8.69366e-05
7.16193e-05
5.35037e-05
3.78189e-05
2.07965e-05
6.30778e-06
1.3393e-05
7.98279e-05
1.02397e-05
1.11658e-05
5.07175e-05
0.000139867
0.000152454
0.00012714
0.000103383
8.85609e-05
6.49935e-05
3.58865e-05
2.17576e-05
2.22121e-05
3.79425e-05
7.27116e-05
0.000123282
0.000177154
0.000222654
0.000253414
0.000267132
0.000265383
0.000252796
0.000234455
0.000213913
0.000193012
0.00017243
0.000152316
0.000132731
0.00011385
9.39359e-05
6.24354e-05
3.56509e-05
1.74665e-05
5.90813e-06
1.45433e-05
0.000101202
1.13965e-05
1.13197e-05
5.13453e-05
0.000140249
0.000149753
0.000118664
8.98813e-05
7.57461e-05
6.71036e-05
4.8226e-05
2.88997e-05
2.22182e-05
3.01629e-05
5.65117e-05
0.000103077
0.000161623
0.000219027
0.000264766
0.00029227
0.000300234
0.000292766
0.000275885
0.000254416
0.000231026
0.000206717
0.000181632
0.000155404
0.000125683
8.56226e-05
4.01913e-05
2.05899e-05
1.27985e-05
1.02029e-05
2.76486e-05
0.000111145
1.17046e-05
1.13656e-05
5.18522e-05
0.000142013
0.000146933
0.000110921
8.21575e-05
7.0019e-05
6.50638e-05
5.51179e-05
3.76697e-05
2.62637e-05
2.78648e-05
4.60062e-05
8.43923e-05
0.000139851
0.000201395
0.000257197
0.000297609
0.000316931
0.000316257
0.000301835
0.00028001
0.000254389
0.000226081
0.000194583
0.000157703
0.000111207
5.69611e-05
2.30407e-05
1.46808e-05
1.41258e-05
1.95845e-05
5.72661e-05
7.01599e-05
1.11058e-05
1.13623e-05
5.14264e-05