/*--------------------------------*- C++ -*----------------------------------*\
| =========                 |                                                 |
| \\      /  F ield         | OpenFOAM: The Open Source CFD Toolbox           |
|  \\    /   O peration     | Version:  v2006                                 |
|   \\  /    A nd           | Website:  www.openfoam.com                      |
|    \\/     M anipulation  |                                                 |
\*---------------------------------------------------------------------------*/
FoamFile
{
    version     2.0;
    format      ascii;
    class       volScalarField;
    location    "86";
    object      k;
}
// * * * * * * * * * * * * * * * * * * * * * * * * * * * * * * * * * * * * * //

dimensions      [0 2 -2 0 0 0 0];


internalField   nonuniform List<scalar> 
78750
(
2.05699
0.659671
0.305058
0.0910569
0.00418965
0.00159485
0.00303979
0.00103616
0.00245113
0.00137672
0.00206586
0.0015255
0.00185886
0.00157777
0.00171166
0.0015974
0.00161738
0.00158345
0.00156846
0.00154916
0.0015301
0.00151001
0.00148846
0.00146504
0.0014393
0.00141072
0.00137865
0.00134226
0.00130032
0.00125092
0.00119059
0.00111367
0.00100993
0.00080871
0.000262227
0.0634831
0.0209204
0.00265448
0.0040085
0.00249387
0.00266237
0.00225849
0.0026167
0.00241217
0.00258509
0.00252492
0.00260019
0.00259698
0.00263175
0.00264449
0.00266392
0.00267734
0.00268942
0.00269867
0.0027051
0.00270819
0.00270743
0.00270221
0.00269204
0.00267645
0.00265472
0.00262587
0.00258885
0.00254258
0.0024859
0.00241636
0.00232375
0.00216181
0.00173536
0.0013614
0.00258818
0.000910208
0.00269457
0.0027011
0.00238269
0.00226366
0.00213189
0.0019408
0.00182163
0.00167609
0.00159135
0.00153228
0.0015193
0.00154221
0.00159736
0.00167261
0.00175689
0.00184185
0.00192278
0.00199772
0.00206627
0.00212885
0.00218647
0.00224017
0.00229054
0.00233765
0.00238112
0.00241998
0.00245252
0.00247595
0.00248528
0.00246815
0.00238589
0.00216272
0.00251388
0.000500566
0.00183024
0.00231893
0.0027103
0.00303356
0.00327429
0.00343354
0.00349598
0.00344754
0.00333333
0.0031649
0.00294527
0.00267078
0.00235651
0.0020514
0.00181753
0.00169416
0.00169501
0.00178686
0.00190721
0.00201379
0.00209476
0.00215494
0.00220289
0.00224321
0.00227735
0.00230659
0.00233172
0.00235345
0.0023709
0.00237932
0.00235978
0.00224113
0.00207482
0.00332684
0.000525069
0.00138496
0.00174547
0.00190001
0.00197774
0.00204392
0.00212056
0.00221265
0.00232557
0.00245817
0.00260008
0.00272702
0.0028068
0.00280752
0.0026991
0.00244824
0.0020967
0.00181772
0.00167944
0.00167055
0.00180251
0.00198985
0.00214117
0.00223905
0.00230347
0.00235094
0.00238663
0.00241275
0.00243018
0.00243853
0.00244347
0.00246231
0.00253867
0.00271672
0.00432716
0.00112231
0.00224422
0.00279483
0.00304942
0.0031661
0.003204
0.00316608
0.00303769
0.00282214
0.00256582
0.00235573
0.00226613
0.00229446
0.00238809
0.00250096
0.00256966
0.00248502
0.00220511
0.00189963
0.00175375
0.00170838
0.00175144
0.00192361
0.00212002
0.0022557
0.00234769
0.00241757
0.00246804
0.00249977
0.0025103
0.00248281
0.00237402
0.00216004
0.00237279
0.00490746
0.00175399
0.002708
0.00287283
0.00290278
0.00289883
0.0028762
0.00284493
0.00281026
0.00274973
0.00262886
0.00244837
0.00226903
0.00215672
0.00211368
0.0021086
0.00209678
0.00199561
0.00183575
0.00175754
0.00173386
0.001759
0.00184647
0.00202045
0.00220032
0.00231832
0.00240362
0.00247478
0.00253375
0.00258851
0.00264367
0.0026984
0.00277125
0.00286681
0.00327173
0.00596729
0.00239039
0.00294352
0.00306025
0.00307236
0.00303706
0.00294485
0.00280105
0.00265889
0.00255868
0.00248349
0.00240011
0.00230164
0.00220993
0.00214524
0.0021023
0.0020548
0.0019573
0.00181485
0.00174346
0.001732
0.0017671
0.00184841
0.00196637
0.00209993
0.00222922
0.00234343
0.00243564
0.00249998
0.00253517
0.00253776
0.002492
0.00242716
0.0026186
0.0034132
0.00639412
0.0020279
0.00284965
0.00305271
0.0031047
0.00308374
0.00297331
0.00276753
0.00251362
0.00229401
0.00215345
0.00207196
0.00200736
0.00193062
0.00183047
0.00171679
0.00162367
0.00158509
0.00158646
0.00161518
0.00167542
0.0017664
0.00188261
0.00201527
0.00215466
0.00229234
0.00242193
0.00255322
0.00270359
0.00286739
0.00300968
0.00306672
0.00296495
0.00293789
0.00382335
0.00683244
0.00238363
0.00337737
0.00364476
0.00371409
0.00371507
0.00365724
0.00351295
0.00326144
0.00294449
0.00264461
0.00241745
0.00226545
0.00216234
0.0020807
0.00200258
0.0019179
0.00182577
0.00173722
0.00167704
0.00165465
0.00165847
0.00168751
0.00174158
0.0018179
0.00191079
0.00201143
0.00211115
0.00221736
0.00234984
0.0025209
0.00272856
0.00289891
0.00297029
0.00379253
0.00720534
0.00201485
0.00298399
0.00328894
0.00340357
0.00344744
0.00344148
0.00338396
0.00326329
0.00306576
0.00280578
0.00253619
0.00231228
0.00215248
0.00204024
0.00195121
0.00186638
0.00177226
0.00166079
0.0015474
0.00148084
0.00146982
0.00150432
0.00158079
0.00169107
0.00182341
0.00196825
0.00212543
0.00229469
0.00246449
0.0026239
0.00276708
0.00291328
0.00314013
0.00422539
0.00801248
0.002187
0.00351081
0.00395431
0.00411879
0.00418573
0.00419227
0.00413916
0.00401549
0.00381347
0.00353514
0.00319845
0.00284706
0.00253731
0.00230919
0.00216261
0.00206696
0.00198724
0.00190004
0.00179338
0.00167196
0.00156874
0.0015204
0.00152542
0.00157615
0.00166448
0.0017894
0.00195904
0.00217307
0.00242398
0.00269301
0.00296103
0.00328265
0.00388102
0.00506162
0.00832947
0.00171832
0.00311019
0.00366613
0.00390359
0.00402344
0.00408455
0.00410163
0.0040779
0.00400709
0.00387404
0.00366835
0.00339787
0.00308089
0.00274517
0.00244222
0.00222772
0.00211318
0.00205806
0.0020204
0.0019798
0.00193253
0.00188355
0.00184133
0.00181684
0.00182152
0.00186448
0.00195213
0.00208774
0.00227261
0.0025092
0.0027993
0.00324119
0.00425659
0.00553941
0.00840339
0.00260057
0.00377212
0.00416278
0.00430751
0.00436471
0.00436809
0.00432146
0.00422069
0.00405998
0.00384117
0.00358824
0.00334884
0.00314715
0.00294984
0.00271919
0.00246647
0.00225458
0.00212984
0.0020735
0.00204595
0.00202448
0.00200011
0.00197051
0.00193751
0.00190355
0.00187622
0.0018832
0.00196573
0.00214326
0.00240363
0.00272806
0.00315994
0.00423212
0.00565387
0.0086015
0.00298609
0.00379252
0.00404724
0.0041498
0.00419549
0.00419931
0.00415898
0.00406593
0.00390428
0.00365647
0.00333394
0.00301551
0.00280295
0.00270306
0.00263737
0.00253338
0.00238322
0.00224495
0.00216675
0.00213048
0.0021082
0.00208786
0.00206292
0.00202892
0.0019851
0.00192752
0.00185645
0.00181377
0.00189627
0.00215052
0.00253567
0.00302268
0.00399927
0.0055792
0.00910793
0.0034371
0.00401915
0.00424573
0.00434857
0.00439851
0.00440199
0.0043513
0.00423331
0.00403104
0.00373181
0.00334984
0.00295259
0.00264784
0.00249178
0.00243369
0.00239533
0.00233587
0.00225862
0.00220147
0.00218005
0.00217724
0.00217991
0.00218036
0.00217084
0.00214607
0.00210158
0.0020288
0.00193105
0.00188672
0.00205189
0.00244158
0.0029842
0.00415192
0.00592694
0.00983864
0.00303751
0.00366403
0.00394337
0.00408137
0.00416024
0.00419412
0.00417882
0.00410461
0.00395736
0.00371969
0.00338909
0.00301507
0.00269277
0.00249058
0.00239374
0.00234756
0.00231333
0.00227421
0.00223832
0.00222257
0.00222618
0.00223893
0.00225427
0.00226554
0.00226506
0.00224789
0.00220712
0.0021333
0.00206049
0.00218231
0.00268473
0.00336722
0.00477627
0.00666869
0.0105744
0.00341118
0.00401464
0.00423403
0.00433349
0.00438535
0.00439933
0.00437111
0.00429153
0.00414725
0.00391774
0.00358344
0.00317055
0.00278555
0.00252795
0.00239524
0.00233336
0.0023085
0.00230376
0.00231729
0.00235045
0.00239752
0.00244812
0.00249369
0.00252833
0.00254535
0.00253784
0.00249558
0.00240867
0.00231073
0.00243008
0.00320976
0.00448125
0.00583592
0.00750322
0.0109108
0.00311415
0.00372719
0.00398027
0.00410707
0.00417988
0.0042123
0.00420359
0.00415011
0.00404826
0.00388848
0.00364528
0.00329138
0.00287564
0.00255235
0.00240046
0.00235044
0.00233058
0.00232235
0.00233988
0.00239912
0.00249089
0.00259334
0.00269323
0.00278443
0.00286106
0.00291518
0.0029326
0.00289579
0.00280893
0.00280044
0.00334111
0.0049774
0.00661801
0.00796672
0.0104931
0.0032323
0.00398624
0.00425548
0.00437251
0.00442955
0.00444536
0.00442167
0.00435858
0.00425924
0.00412532
0.00394652
0.00368737
0.00329778
0.00282271
0.00247433
0.00235956
0.00236648
0.00238137
0.00237998
0.00237717
0.00239584
0.00244817
0.00253029
0.00263087
0.00274163
0.00285688
0.00296809
0.00305643
0.00308854
0.00304193
0.00303493
0.00372059
0.00566583
0.00723916
0.0100533
0.00316972
0.00394806
0.00419942
0.00430071
0.00434093
0.00433737
0.00429132
0.00420694
0.00409607
0.00397018
0.00383338
0.00367673
0.00346205
0.00311611
0.00265707
0.0023228
0.00227766
0.0023932
0.00251524
0.00260286
0.00266726
0.00272414
0.00278283
0.00284637
0.00291543
0.00299013
0.00307069
0.00315813
0.00325102
0.00330712
0.00321207
0.00311545
0.00472694
0.00680261
0.0111123
0.00364951
0.00436652
0.00456112
0.00461811
0.00461788
0.0045702
0.00447264
0.00433464
0.00417477
0.00400378
0.0038255
0.0036448
0.00346523
0.00326245
0.00296172
0.0025717
0.00229478
0.00227089
0.00242967
0.00264442
0.00285025
0.00302333
0.00315951
0.00326625
0.00335292
0.00342527
0.0034851
0.00353134
0.00357514
0.00370911
0.00372335
0.00370854
0.00547729
0.00798953
0.0130732
0.00366691
0.00444132
0.00463966
0.00467463
0.00463916
0.0045386
0.00436888
0.00416694
0.00397528
0.00379914
0.00362201
0.00342558
0.00320557
0.00297721
0.00274906
0.00251303
0.00232101
0.00225675
0.00236822
0.00259095
0.00283078
0.00307375
0.00331868
0.00353818
0.00371145
0.00384113
0.00393987
0.00401607
0.00411883
0.00452062
0.00505994
0.00555024
0.0071461
0.0093722
0.0139408
0.00410176
0.00497221
0.00512587
0.00509641
0.00498603
0.00478254
0.00447601
0.00415507
0.00389437
0.00368988
0.0035135
0.00333958
0.00314363
0.002903
0.00260324
0.00226996
0.00197785
0.00177681
0.00175215
0.0018563
0.0020481
0.00231327
0.00262266
0.00295789
0.00328795
0.00355991
0.00375757
0.00391159
0.00413411
0.00477646
0.00593677
0.00695272
0.00812702
0.00966539
0.0131178
0.00444914
0.00526069
0.00536468
0.00529265
0.00511886
0.00479762
0.00431449
0.00384969
0.00352129
0.00329555
0.0031171
0.00294842
0.00275734
0.00252014
0.00226473
0.00219323
0.0025593
0.00286152
0.00289251
0.00284995
0.00278131
0.00271573
0.00270219
0.00280044
0.00303841
0.00338317
0.00375613
0.00408698
0.00438715
0.00488033
0.00596116
0.00734878
0.00836851
0.00951531
0.0123899
0.00516466
0.00571914
0.00578731
0.00569058
0.00547289
0.00506692
0.0044303
0.00379766
0.00336316
0.00309535
0.00294747
0.00290705
0.00292455
0.00293256
0.00289681
0.00279826
0.00271668
0.00281923
0.00302674
0.00320706
0.00329165
0.00329851
0.00326133
0.00321656
0.00321196
0.00330277
0.00352922
0.00387134
0.00424652
0.00463188
0.00522097
0.00631693
0.00755204
0.00892809
0.0124785
0.00552684
0.00579417
0.00585679
0.00576067
0.00551486
0.00502508
0.00421345
0.0033444
0.0027107
0.00226689
0.00195816
0.0018357
0.00183926
0.00186525
0.00197586
0.00225732
0.00254899
0.00288812
0.00327164
0.00357501
0.00376955
0.00388742
0.00395179
0.0039779
0.0039844
0.00400146
0.00407809
0.00426686
0.00455561
0.00485699
0.00513699
0.0056609
0.00694522
0.00878017
0.0134654
0.00518698
0.00582159
0.00598544
0.00593057
0.00572084
0.00526903
0.00445028
0.0034105
0.00254076
0.00189507
0.00151873
0.00163051
0.00184417
0.00173255
0.00174718
0.00239699
0.00319027
0.00361948
0.00387234
0.00407027
0.00423658
0.00437692
0.00449369
0.00458848
0.00466542
0.00473539
0.00482363
0.00497424
0.00520976
0.00547041
0.00567687
0.00606314
0.0074572
0.00963261
0.0148812
0.0050464
0.0058017
0.00592947
0.00587497
0.00571728
0.00542423
0.00490806
0.00405754
0.00315381
0.00244614
0.0018416
0.0015254
0.00189214
0.00225672
0.00213208
0.00195379
0.00231591
0.00326005
0.00404827
0.00449045
0.00474175
0.00490702
0.00503564
0.00515076
0.00526392
0.00538528
0.00553278
0.00573551
0.0060029
0.00628689
0.00657053
0.00714225
0.00855923
0.0106738
0.0156061
0.00530234
0.00595028
0.00594174
0.0057634
0.0054594
0.00503063
0.00460278
0.00408502
0.00336412
0.00273437
0.00226068
0.0017766
0.0013519
0.00147798
0.0021819
0.00249105
0.00244973
0.00256199
0.00310999
0.00387061
0.00447386
0.0048975
0.00519472
0.00541432
0.0055988
0.00578062
0.00599143
0.00626988
0.00663114
0.00702454
0.00747367
0.00824247
0.00948939
0.01125
0.0154112
0.00620663
0.0064006
0.00610543
0.0057075
0.00514013
0.00446422
0.00401196
0.00370757
0.00329134
0.00278029
0.00233617
0.00193842
0.00151261
0.00113292
0.00118041
0.00187773
0.00254712
0.0027062
0.00282447
0.00317398
0.00376701
0.00439298
0.00492382
0.00535095
0.00569672
0.00600293
0.00631435
0.00667905
0.0071375
0.00765449
0.00820729
0.00896154
0.00992162
0.0112838
0.0147441
0.00744079
0.00661963
0.00599069
0.00533491
0.00440609
0.00351894
0.00314286
0.00302072
0.00287428
0.0026616
0.00242035
0.00215566
0.00183475
0.00144342
0.001072
0.00106594
0.00178638
0.00266966
0.00293735
0.00303213
0.00324661
0.00368472
0.0042725
0.00484673
0.00535506
0.00581141
0.00625066
0.00672076
0.00727856
0.00793517
0.00858515
0.00923257
0.00995193
0.0110557
0.0142337
0.00760143
0.00634832
0.00566561
0.00492432
0.00389258
0.00305042
0.002782
0.00274425
0.00266431
0.00252303
0.0023519
0.00215991
0.00192483
0.0016181
0.00122295
0.000802272
0.000673096
0.00136678
0.00256013
0.00307899
0.00321867
0.00340273
0.00378652
0.00434878
0.0049424
0.00551916
0.00609604
0.00670051
0.00737759
0.00818281
0.00904886
0.00976621
0.0103954
0.0113311
0.014089
0.00679984
0.00597937
0.0055724
0.00508337
0.00432806
0.0034197
0.0027441
0.00248931
0.00245417
0.00243973
0.00237432
0.00225952
0.00210068
0.00188623
0.00158927
0.00117903
0.000665516
0.000316138
0.000924857
0.00222408
0.00309934
0.00337869
0.00358178
0.00394128
0.00448694
0.0050774
0.00566779
0.00627848
0.00693683
0.00768872
0.00858251
0.00945654
0.0101356
0.0110192
0.0139101
0.00589937
0.00605288
0.0060341
0.00592772
0.00563649
0.00491369
0.00373831
0.00268213
0.0021799
0.00208359
0.00209686
0.00208914
0.00203436
0.00192862
0.00176405
0.00151711
0.00114929
0.000615266
5.6027e-05
0.000469318
0.00163087
0.0027995
0.00335072
0.00373006
0.00417059
0.00465218
0.00510893
0.00556859
0.00608774
0.00670012
0.00739056
0.00815116
0.00892465
0.0101615
0.014757
0.00593044
0.00616112
0.00614283
0.00609045
0.0059788
0.00569327
0.00491646
0.00354586
0.00233913
0.00183681
0.00178147
0.00182656
0.001843
0.00180909
0.00172545
0.00158794
0.0013823
0.0010922
0.000530305
0.00010084
0.000297968
0.00142253
0.00272259
0.00347469
0.00400629
0.00452498
0.00501917
0.00552548
0.00615304
0.00696713
0.00788892
0.00887402
0.0099826
0.0117781
0.0172449
0.00629378
0.00596937
0.00583933
0.0057543
0.00564466
0.00545802
0.00507758
0.00415863
0.00271641
0.00165688
0.00132752
0.00134835
0.00142111
0.00145208
0.00142688
0.00134545
0.00121173
0.00102204
0.000710841
0.0001446
5.69055e-05
0.000106741
0.00126172
0.00277167
0.00403501
0.00524875
0.00639069
0.00730761
0.00807983
0.00891799
0.00994943
0.01104
0.012087
0.0134954
0.0166494
0.00661387
0.00599008
0.00588773
0.00584395
0.00576529
0.00559226
0.00526546
0.00466532
0.00350497
0.00205967
0.00117811
0.000931994
0.000937264
0.00096472
0.000946138
0.000852836
0.000790451
0.0004432
0.000186051
0.00016085
8.61423e-05
5.27273e-06
0.000678926
0.00236617
0.00416609
0.00570755
0.00689718
0.00763036
0.0081006
0.00859281
0.00924452
0.00988118
0.0102891
0.0107053
0.0134586
0.00650392
0.00588992
0.00590533
0.00594289
0.00594696
0.00588169
0.00568363
0.00524108
0.00437437
0.00291181
0.00139842
0.000585161
0.000361732
0.000314555
0.000264382
5.66648e-05
0.000161657
0.000128875
0.000255944
0.000149203
0.00033011
0.000248923
0.000425685
0.00183265
0.00330032
0.00434528
0.00499181
0.005601
0.00634767
0.00715473
0.00792435
0.00860588
0.00936257
0.0109139
0.0177087
0.00611021
0.00575224
0.00586928
0.00594112
0.00597207
0.00596406
0.00589219
0.005673
0.00512084
0.00395261
0.00217701
0.000636607
0.000197191
0.000192429
4.25858e-05
0.000158164
3.38914e-05
0.000521869
0.00139859
0.00178847
0.00160339
0.00126952
0.00111065
0.00134155
0.00182164
0.00275076
0.0043203
0.00600441
0.00751097
0.00883456
0.0100484
0.0113006
0.0128005
0.0152957
0.0213727
0.00584522
0.00563954
0.0057754
0.00584037
0.00585625
0.00583469
0.00579134
0.00571539
0.00550145
0.00488761
0.0035185
0.0015962
0.000142421
4.12861e-05
1.27504e-06
5.28392e-05
0.000549421
0.00215777
0.00426732
0.00532288
0.00519474
0.00456452
0.00367782
0.00269305
0.002221
0.00318397
0.00517959
0.00700545
0.00850614
0.00975853
0.0107967
0.0117397
0.0126848
0.0135285
0.0127086
0.0054272
0.00556
0.00577089
0.00587911
0.00592854
0.00591801
0.00585055
0.0057727
0.00574002
0.0056666
0.00524917
0.00400251
0.00197057
0.000333851
0.0001736
0.000125764
9.54486e-05
0.000875354
0.0030797
0.00573978
0.00746438
0.00831436
0.00833388
0.0077964
0.0072103
0.00721294
0.00787699
0.0086127
0.00928945
0.00987004
0.0103304
0.0106276
0.0106168
0.00960313
0.00500004
0.00538859
0.0056876
0.00584898
0.00592432
0.00596424
0.0059703
0.00592144
0.00578725
0.00559536
0.00549309
0.00555256
0.00556664
0.00511726
0.00370654
0.0015761
0.000126359
0.000142091
0.000134579
9.94675e-05
0.00123469
0.00317841
0.00541372
0.00741567
0.00916153
0.0104461
0.0116352
0.0125582
0.0131209
0.0133692
0.0134221
0.0132276
0.0127376
0.0117115
0.00929167
0.00370501
0.00529594
0.00566792
0.00582754
0.00591294
0.00596956
0.00600521
0.0060249
0.00602528
0.00596707
0.00578948
0.00551399
0.00530211
0.00527813
0.00530546
0.00504935
0.00412867
0.00245951
0.000765641
0.000123543
0.000301132
0.000279558
0.00038737
0.00152599
0.00293253
0.00476597
0.00652759
0.00832815
0.00988949
0.0111172
0.0118576
0.012148
0.011851
0.0104675
0.00771125
0.00420414
0.00544749
0.00576675
0.00585804
0.00590525
0.00593574
0.00594934
0.00594254
0.00592324
0.00591384
0.00592019
0.00590214
0.00580188
0.00560881
0.00538531
0.00521756
0.00511023
0.00493296
0.00445226
0.00343384
0.00193351
0.000438083
0.000189591
2.75261e-05
9.15634e-05
0.000266556
0.000857852
0.00163033
0.0024378
0.00334538
0.00397798
0.00483099
0.00522388
0.00450773
0.00363823
0.00514237
0.00569425
0.00584197
0.00587067
0.00589537
0.00591672
0.0059274
0.00592191
0.00590465
0.0058845
0.00586794
0.0058583
0.00585068
0.00582629
0.0057618
0.00564419
0.00548226
0.00530547
0.00513133
0.00492582
0.00456531
0.00381316
0.00252213
0.000986815
0.00046321
6.39657e-06
0.000186271
0.000148105
0.000150589
0.000135302
0.000419663
0.000444392
0.000613462
0.000545729
0.00110868
0.00732319
0.00601377
0.00592012
0.00587436
0.00586638
0.00586504
0.00585197
0.00581881
0.00578051
0.00576108
0.00576671
0.0057868
0.00580672
0.00581622
0.00580763
0.00577339
0.00570588
0.00560034
0.00545961
0.00529323
0.00510256
0.00485013
0.00438936
0.00341349
0.00196173
0.000293855
0.000262728
0.000316293
0.00010618
0.000228689
0.000362049
0.000240336
0.000192314
0.000260035
0.00100987
0.0099678
0.00624727
0.0059143
0.00582235
0.00579705
0.00578044
0.00574369
0.00567532
0.00559888
0.00555085
0.00554514
0.00557217
0.00561494
0.00565706
0.00568696
0.00569664
0.00568029
0.00563312
0.00555094
0.00543129
0.0052734
0.00506881
0.00477382
0.00425749
0.0032126
0.00166617
0.000589722
0.000318797
0.000111881
0.000363224
0.000197611
0.000286288
0.000158438
6.05127e-05
0.00238655
0.0114743
0.00633107
0.00587295
0.00577203
0.00573577
0.00569637
0.00561827
0.00548874
0.00533957
0.00522151
0.00516238
0.00515884
0.00519222
0.00524169
0.00528883
0.00532058
0.00532836
0.00530646
0.00525005
0.00515331
0.00500721
0.0047931
0.00446113
0.0039029
0.00298951
0.00165619
0.000491405
0.000237521
0.000321085
0.0010234
0.0016132
0.00178207
0.00155907
0.0017609
0.00456766
0.0119316
0.00622328
0.00582046
0.00575306
0.00572113
0.00566922
0.00556145
0.00538062
0.00515185
0.00492822
0.00475493
0.00464924
0.00460369
0.00459705
0.00460418
0.00460339
0.00457924
0.00452052
0.00441514
0.00424311
0.00396958
0.00354951
0.0029815
0.00232198
0.00158149
0.00073901
0.000121532
0.000184623
0.00130284
0.00250793
0.00317742
0.00333454
0.00316978
0.00383736
0.00643774
0.0120594
0.00607123
0.00581144
0.00576655
0.00573706
0.00568637
0.00558516
0.00540727
0.0051505
0.00484632
0.00454314
0.00428124
0.00407994
0.00393554
0.00382611
0.0037226
0.00359976
0.00344226
0.00324723
0.00302007
0.00276394
0.00246621
0.00210954
0.00168195
0.0011649
0.000579178
0.000301387
0.00109603
0.00263674
0.0038464
0.00453895
0.00475967
0.00478338
0.00561604
0.0077046
0.0119095
0.00610968
0.00585551
0.00577601
0.00573085
0.00568594
0.00562748
0.00553204
0.00536932
0.00512873
0.00482608
0.00449296
0.00416643
0.00388145
0.00365989
0.00350121
0.00338521
0.00328441
0.00317244
0.00302789
0.00283596
0.00259055
0.00228928
0.00193397
0.00149966
0.000946596
0.000522889
0.00138877
0.0034224
0.0046182
0.00531931
0.00572783
0.00606171
0.00690392
0.00847135
0.0115952
0.00626455
0.00589018
0.00574523
0.00566209
0.00559648
0.00555274
0.00552302
0.00547819
0.00539486
0.00525999
0.00506956
0.00482706
0.00454539
0.00424921
0.0039695
0.00372866
0.00352904
0.0033548
0.00318667
0.00300886
0.00280881
0.00257369
0.00228636
0.00192739
0.00145521
0.000921262
0.00113951
0.0032882
0.00505954
0.00577345
0.00619588
0.00670861
0.007535
0.00878201
0.0112929
0.00647336
0.00593358
0.00572368
0.00559716
0.00549725
0.00544283
0.00541236
0.00536673
0.00530084
0.00521691
0.00511039
0.00497164
0.00478897
0.0045543
0.00427488
0.00398242
0.00371782
0.00349993
0.00332088
0.00316018
0.0029972
0.00281372
0.00258688
0.00229174
0.00190442
0.00141801
0.00111328
0.00222008
0.00473535
0.00629599
0.00681488
0.00721513
0.0078678
0.00887623
0.0109883
0.00650046
0.00590878
0.00566734
0.00551142
0.00539283
0.00537332
0.0054094
0.00540921
0.00535175
0.00525154
0.00512295
0.00497252
0.00479944
0.00459752
0.00436082
0.00409621
0.00383285
0.00360328
0.00342039
0.00327478
0.00314843
0.00302202
0.00287616
0.00268776
0.00242601
0.0020627
0.00161368
0.00149486
0.00289119
0.00545693
0.00717497
0.00790701
0.00842826
0.00916385
0.0108098
0.00668283
0.00597658
0.00566441
0.00544472
0.00526007
0.00523228
0.00532241
0.00540005
0.00541692
0.00537396
0.00528209
0.00515078
0.00498556
0.0047872
0.00455291
0.00428301
0.00399454
0.00372242
0.00349694
0.00332467
0.00319413
0.00308926
0.00299544
0.00289833
0.00276549
0.00254576
0.00223677
0.00186854
0.00182277
0.00310184
0.00546367
0.00726533
0.00821788
0.00896234
0.0110723
0.00690443
0.00600737
0.0056311
0.00535429
0.00510246
0.00507212
0.00521498
0.00534802
0.00541309
0.00541172
0.00535354
0.00524654
0.00509621
0.00490459
0.00466989
0.00438974
0.00407258
0.00375079
0.00346558
0.00323885
0.00306762
0.00293922
0.00284472
0.00276367
0.00261292
0.00245158
0.00249944
0.00265729
0.0026481
0.00266207
0.00365729
0.00542775
0.00693869
0.00834474
0.0130263
0.00707592
0.00604123
0.00561764
0.00527663
0.0049208
0.00484383
0.00503197
0.00522243
0.00533239
0.0053646
0.00533062
0.00523859
0.00509374
0.0048978
0.00464781
0.00433816
0.0039721
0.00358092
0.00321876
0.00291978
0.00268378
0.00249499
0.0023108
0.00211221
0.00222204
0.00280709
0.00354205
0.00409251
0.00422144
0.00381128
0.00369108
0.00498234
0.006895
0.00946054
0.01677
0.00723115
0.00611468
0.00565201
0.00525013
0.00478888
0.00464519
0.0048703
0.00511362
0.00526179
0.00531986
0.00530139
0.00521437
0.0050634
0.00484939
0.00456734
0.00420675
0.00376459
0.00327381
0.00280644
0.00240901
0.00206398
0.00174158
0.00167267
0.00239021
0.00363607
0.00459706
0.00516136
0.00557475
0.00580511
0.00555803
0.00548776
0.00669294
0.00852606
0.0112337
0.0173646
0.00738026
0.00617184
0.0056555
0.00518342
0.0046093
0.00439256
0.00465961
0.00497394
0.00517473
0.00527108
0.00528022
0.00521018
0.00506456
0.0048432
0.00453954
0.00413914
0.00363043
0.00303712
0.00244226
0.00191118
0.00146257
0.00132627
0.00209044
0.00397816
0.00576468
0.00629217
0.00625022
0.00639818
0.00705405
0.00764302
0.0080564
0.00890462
0.0100417
0.0116097
0.0134843
0.00753608
0.00621739
0.00565078
0.00512295
0.00446509
0.00417368
0.00446767
0.00484001
0.00509481
0.00524013
0.00529468
0.00526596
0.00515601
0.00496295
0.00467938
0.00428852
0.00376933
0.00312221
0.00241842
0.00175497
0.0012244
0.00109526
0.00192565
0.00409638
0.006667
0.00783649
0.00769268
0.00726983
0.0073563
0.00807427
0.00885483
0.00952004
0.0100778
0.0104943
0.00968714
0.00753899
0.00617306
0.00559505
0.00504572
0.00433104
0.00392321
0.00419346
0.00463041
0.00496038
0.00517673
0.00529972
0.00533809
0.00529423
0.00516713
0.00495107
0.00463318
0.00419354
0.00361405
0.00291232
0.00216822
0.00147903
0.000992627
0.00107389
0.00226868
0.00463215
0.00708699
0.00857051
0.00897667
0.00874482
0.00850252
0.00855062
0.00877115
0.00890283
0.00879816
0.00774401
0.0074106
0.00614459
0.00563294
0.00513679
0.00443076
0.00380003
0.00384637
0.00428437
0.00470137
0.00501334
0.00522884
0.00535846
0.0054067
0.00537463
0.00526014
0.00505645
0.00475074
0.00432549
0.00376722
0.00308998
0.00235941
0.00166188
0.00112361
0.00104337
0.00184699
0.00360806
0.00580614
0.00785394
0.00933617
0.00993038
0.00975319
0.0093026
0.0088824
0.00834866
0.00731098
0.0069813
0.00606502
0.00572611
0.00538453
0.00482921
0.00403218
0.00355404
0.00373984
0.00419747
0.00463361
0.00497642
0.00522658
0.00539154
0.00547575
0.00548104
0.00540603
0.00524559
0.00499033
0.0046278
0.00414996
0.00356318
0.00290154
0.00222866
0.00162945
0.00126732
0.00141953
0.00229261
0.003843
0.00582777
0.00788402
0.00954891
0.010104
0.00987011
0.00922468
0.00806438
0.00656128
0.00611423
0.00597097
0.00581208
0.00550521
0.00485477
0.00388883
0.00332916
0.00347261
0.00395485
0.00444758
0.00484968
0.00515561
0.00537425
0.00551098
0.00556924
0.00555038
0.00545288
0.00527186
0.0050008
0.00463379
0.00417348
0.00363804
0.00306027
0.0024858
0.00198555
0.00168235
0.00174881
0.00233726
0.00350338
0.0052461
0.00769052
0.0088345
0.00906921
0.00939004
0.00625121
0.0061119
0.00609312
0.00606558
0.0059774
0.00571177
0.00498374
0.00382786
0.00309476
0.00317851
0.00368851
0.00423421
0.00468867
0.00504296
0.00530743
0.00549084
0.00559894
0.00563495
0.00559946
0.00549043
0.00530354
0.00503641
0.00469271
0.00428509
0.00383307
0.00335831
0.00288792
0.00246425
0.00215321
0.00206041
0.00230421
0.00331846
0.00572163
0.00745887
0.0109369
0.00628773
0.00614919
0.00612251
0.0061099
0.0060829
0.00600086
0.00573819
0.00492718
0.00363841
0.00287574
0.00300814
0.00355436
0.00412004
0.00458923
0.00495713
0.00523753
0.00544171
0.00557788
0.00564869
0.00565406
0.00559202
0.00546069
0.00525973
0.00499353
0.00467274
0.00431017
0.00392028
0.00351908
0.00310264
0.00268569
0.00234676
0.00150425
0.00351129
0.00666498
0.013419
0.00650831
0.00620878
0.00612351
0.00607351
0.00601614
0.00592794
0.00577447
0.00541626
0.0044687
0.00322845
0.00273349
0.00304051
0.00361112
0.00414783
0.00458359
0.0049256
0.00519106
0.00539031
0.00552827
0.0056061
0.0056217
0.00557197
0.00545509
0.00527229
0.00502893
0.0047336
0.00439725
0.00403074
0.00358593
0.00311014
0.00265371
0.0016715
0.00404622
0.008239
0.016223
0.00682574
0.00636526
0.00623717
0.0061582
0.0060634
0.00591964
0.00570195
0.00538242
0.00479667
0.00372774
0.00282932
0.00277079
0.00322752
0.00376866
0.00423744
0.00461638
0.00491765
0.00515349
0.00533108
0.00545279
0.0055162
0.00551638
0.00544833
0.00530906
0.00509874
0.00482102
0.00447953
0.00406154
0.00349385
0.00310948
0.00292931
0.0030423
0.00602177
0.010342
0.0175456
0.00700186
0.00645132
0.00631272
0.00623112
0.00613411
0.00598644
0.00575276
0.00540155
0.00488893
0.0040772
0.00311331
0.00271483
0.00296242
0.00344295
0.00391192
0.00430821
0.00463212
0.0048937
0.00510038
0.0052553
0.00535571
0.00539441
0.00536261
0.00525247
0.00505848
0.00477632
0.00439488
0.00387777
0.00324721
0.00323898
0.00380141
0.00501101
0.00775816
0.0112032
0.0165061
0.00711202
0.00653045
0.00636128
0.00625164
0.0061343
0.00600002
0.00582132
0.00552888
0.00507063
0.00439025
0.00349654
0.0028502
0.0028247
0.00318098
0.00361954
0.00401972
0.00435838
0.00463982
0.00487088
0.00505528
0.00519012
0.00526658
0.00527258
0.00519563
0.00502442
0.00474707
0.00434136
0.00376987
0.00315134
0.00347084
0.00486002
0.00654777
0.00864817
0.011045
0.0146118
0.00728746
0.00665521
0.00641115
0.00623408
0.00605242
0.00590632
0.00580207
0.00562959
0.00530026
0.00475198
0.00395585
0.00315348
0.00282611
0.00299382
0.00336711
0.00375724
0.00410452
0.00440226
0.00465561
0.00486893
0.00503959
0.00515828
0.0052111
0.00518224
0.00505602
0.00481625
0.00443684
0.00387662
0.00323437
0.00348168
0.00550724
0.00735886
0.00892567
0.0106091
0.0133404
0.00770085
0.0068485
0.00647526
0.00620221
0.00592745
0.00574871
0.00569069
0.00561132
0.00541117
0.00502796
0.0043957
0.00358187
0.0029963
0.00291331
0.00316697
0.00352253
0.00386923
0.00417826
0.00444937
0.00468699
0.00489025
0.00505136
0.00515655
0.00518867
0.00512954
0.00496092
0.00465662
0.00417191
0.00352131
0.00337239
0.00539591
0.00749467
0.00886042
0.0102385
0.0129612
0.00819621
0.00693135
0.00641054
0.00604242
0.00568971
0.00552279
0.00551849
0.00549271
0.00536324
0.00509278
0.00462911
0.00395655
0.00329813
0.00300352
0.00309416
0.00337329
0.00369517
0.00400155
0.00427982
0.00453142
0.00475709
0.00495142
0.00510221
0.00519269
0.00520426
0.00511725
0.00490693
0.00453408
0.00395306
0.0034712
0.00478855
0.00712422
0.00857682
0.00998996
0.0132395
0.00846232
0.00683724
0.00622376
0.00578903
0.00537775
0.00523376
0.00529148
0.00532072
0.00524763
0.0050499
0.00469593
0.00416696
0.00356964
0.00317862
0.00312804
0.00331098
0.00358658
0.00387578
0.00415077
0.00440695
0.0046447
0.00486065
0.00504463
0.00518087
0.00525107
0.00523505
0.0051087
0.00483759
0.00436639
0.00379495
0.00438978
0.00669128
0.00833
0.00996714
0.0137142
0.00830345
0.00665471
0.00607397
0.00563979
0.0051711
0.00491712
0.00495093
0.00502973
0.00502966
0.00491697
0.00466852
0.0042688
0.00377067
0.00335835
0.0032016
0.00328586
0.00350451
0.00377009
0.00403898
0.00429762
0.00454348
0.00477401
0.00498069
0.00514866
0.00525968
0.00529331
0.00522602
0.00502684
0.00465428
0.0041614
0.00448004
0.00661026
0.00834756
0.0101272
0.0137513
0.00791311
0.00658449
0.00613966
0.00577536
0.00527692
0.00475105
0.00456166
0.0046222
0.00469423
0.00467682
0.00453885
0.00426799
0.00389064
0.00351726
0.00329873
0.00328942