/*--------------------------------*- C++ -*----------------------------------*\
| =========                 |                                                 |
| \\      /  F ield         | OpenFOAM: The Open Source CFD Toolbox           |
|  \\    /   O peration     | Version:  v2006                                 |
|   \\  /    A nd           | Website:  www.openfoam.com                      |
|    \\/     M anipulation  |                                                 |
\*---------------------------------------------------------------------------*/
FoamFile
{
    version     2.0;
    format      ascii;
    class       volScalarField;
    location    "86";
    object      nut;
}
// * * * * * * * * * * * * * * * * * * * * * * * * * * * * * * * * * * * * * //

dimensions      [0 2 -1 0 0 0 0];


internalField   nonuniform List<scalar> 
78750
(
0.000859462
0.00186834
0.00126972
0.000443562
2.80799e-05
1.68104e-05
3.42096e-05
1.18521e-05
3.0569e-05
1.85037e-05
3.06446e-05
2.44422e-05
3.29115e-05
3.02527e-05
3.61545e-05
3.69079e-05
4.0646e-05
4.33643e-05
4.61252e-05
4.88285e-05
5.1237e-05
5.33879e-05
5.52225e-05
5.67294e-05
5.78976e-05
5.87052e-05
5.91842e-05
5.93009e-05
5.88741e-05
5.78162e-05
5.60377e-05
5.26473e-05
4.17493e-05
1.18014e-05
4.83726e-07
9.54519e-05
9.63214e-05
3.75109e-05
2.91287e-05
1.68725e-05
2.39305e-05
2.35501e-05
3.62154e-05
3.95174e-05
5.18235e-05
5.97633e-05
7.18393e-05
8.21589e-05
9.32244e-05
0.000103029
0.000111252
0.000117848
0.000122499
0.000126067
0.000128873
0.00013127
0.000133353
0.000135127
0.000136622
0.00013785
0.000138766
0.000139214
0.000138885
0.000137396
0.000133564
0.000121942
9.00616e-05
3.88905e-05
1.14055e-05
1.69218e-06
6.11858e-06
4.39817e-06
3.37054e-05
6.05197e-05
0.000163565
5.0488e-05
3.71898e-05
3.71765e-05
3.63193e-05
3.65174e-05
4.02314e-05
4.68122e-05
5.64024e-05
6.68717e-05
7.62193e-05
8.60657e-05
9.8886e-05
0.000114256
0.000127788
0.000135194
0.000137743
0.000138386
0.000138451
0.000138386
0.000138165
0.000137169
0.000134375
0.000128806
0.000119313
0.000104009
8.04514e-05
4.99876e-05
2.41901e-05
1.27692e-05
3.10686e-06
1.21879e-06
1.16797e-05
2.94187e-05
6.61533e-05
9.21411e-05
8.89105e-05
7.1176e-05
5.67626e-05
4.95221e-05
4.59559e-05
4.33556e-05
4.10972e-05
3.98187e-05
4.13571e-05
4.85307e-05
6.05728e-05
6.18881e-05
5.70226e-05
5.95205e-05
7.07022e-05
9.38225e-05
0.000133589
0.000173438
0.00017554
0.000173942
0.000158815
0.000145381
0.0001314
0.000114274
9.30775e-05
6.66317e-05
3.73559e-05
1.67216e-05
1.07285e-05
4.09607e-06
1.27798e-06
1.67784e-05
3.83209e-05
5.84912e-05
8.02986e-05
0.000106393
0.000122995
0.000116758
9.89012e-05
8.3327e-05
7.27074e-05
6.42087e-05
5.56794e-05
4.70143e-05
3.94726e-05
3.6122e-05
4.26335e-05
7.16421e-05
9.56678e-05
6.48865e-05
5.06788e-05
5.66574e-05
8.18699e-05
0.000133387
0.000179743
0.000181742
0.000178214
0.000129772
9.59868e-05
7.03619e-05
4.63516e-05
2.6782e-05
1.66212e-05
1.62981e-05
5.30415e-06
2.70356e-06
1.43636e-05
4.09179e-05
8.41535e-05
0.000105454
9.0282e-05
6.67021e-05
5.06022e-05
4.22319e-05
3.97604e-05
4.34497e-05
5.56398e-05
7.56334e-05
8.58502e-05
6.9418e-05
4.9188e-05
3.92384e-05
4.15074e-05
7.15656e-05
0.000154839
0.000152672
8.41983e-05
6.65426e-05
8.82588e-05
0.000150325
0.000181488
0.00018439
0.000186465
0.000150378
9.95772e-05
6.03054e-05
2.73539e-05
1.16907e-05
1.16465e-05
6.00034e-06
4.18266e-06
3.128e-05
0.00013527
0.000138009
0.000102014
7.47585e-05
6.21907e-05
5.9019e-05
5.83887e-05
5.59844e-05
5.39637e-05
5.77826e-05
6.91038e-05
7.63259e-05
6.37944e-05
4.64894e-05
4.50789e-05
7.78139e-05
0.000154945
0.000153859
0.000155123
0.000105078
8.30378e-05
0.000107631
0.000180233
0.000183772
0.000186671
0.000160491
9.14417e-05
5.56968e-05
3.47331e-05
2.16598e-05
1.61259e-05
2.28741e-05
7.26372e-06
5.12369e-06
2.73741e-05
9.0412e-05
0.000116722
8.70451e-05
5.49278e-05
3.9722e-05
3.59698e-05
3.91069e-05
4.55439e-05
5.14942e-05
5.60616e-05
6.09861e-05
6.45904e-05
6.04485e-05
4.97192e-05
4.51138e-05
6.24056e-05
0.000144376
0.00015372
0.000155479
0.00015939
0.000164861
0.00017084
0.000176447
0.000181265
0.000185068
0.000187682
0.000158579
8.52195e-05
3.78552e-05
1.62262e-05
1.15492e-05
2.18497e-05
7.76989e-06
4.81441e-06
3.30481e-05
0.00011825
0.000126495
8.41964e-05
5.32737e-05
3.78923e-05
3.17792e-05
3.27055e-05
4.04857e-05
5.22059e-05
5.82559e-05
5.43163e-05
4.73872e-05
4.59032e-05
5.95623e-05
0.000106164
0.000146376
0.00014788
0.00015093
0.000155398
0.000160917
0.000166992
0.00017315
0.00017903
0.000184397
0.000144903
0.000102579
7.73616e-05
5.99039e-05
4.05351e-05
2.09903e-05
1.41643e-05
2.91379e-05
8.2876e-06
5.04042e-06
2.70863e-05
8.50152e-05
0.000114502
0.000106499
7.85175e-05
5.17987e-05
3.64701e-05
2.96317e-05
2.85313e-05
3.26398e-05
4.23245e-05
5.59488e-05
6.65259e-05
6.71075e-05
6.1368e-05
5.83253e-05
6.67109e-05
9.96774e-05
0.000149737
0.000149972
0.000151455
0.00015414
0.000157834
0.000162207
0.000166807
0.000157228
0.000111865
7.3988e-05
4.88748e-05
3.27527e-05
1.99251e-05
1.36547e-05
2.59504e-05
8.72641e-06
4.78407e-06
2.79777e-05
8.43527e-05
0.00011815
0.000112721
9.07872e-05
6.8189e-05
5.04027e-05
3.8271e-05
3.13832e-05
2.92275e-05
3.20944e-05
4.13415e-05
5.7752e-05
7.64178e-05
8.7155e-05
8.51581e-05
7.83912e-05
8.4559e-05
0.000117703
0.000140302
0.00014213
0.000146095
0.000151634
0.000158034
0.000153502
0.000128955
0.000103948
7.73027e-05
4.9111e-05
2.77924e-05
1.69085e-05
1.44124e-05
3.50892e-05
9.67297e-06
4.791e-06
2.35147e-05
7.10155e-05
0.000111133
0.000119308
0.000108662
8.65515e-05
6.35545e-05
4.66315e-05
3.57086e-05
2.91845e-05
2.62476e-05
2.70774e-05
3.33375e-05
4.84514e-05
7.28588e-05
9.35467e-05
0.000100473
9.79154e-05
9.63109e-05
0.000109585
0.000140379
0.000143137
0.000145762
0.00014626
0.000120718
9.63683e-05
7.62619e-05
5.80647e-05
3.92313e-05
2.32868e-05
1.62601e-05
1.97701e-05
6.62739e-05
9.77511e-06
4.09922e-06
1.98066e-05
5.90558e-05
0.000106694
0.000121391
0.000117187
0.000107175
9.38892e-05
7.61893e-05
5.74122e-05
4.2983e-05
3.39052e-05
2.87133e-05
2.66192e-05
2.86443e-05
3.83009e-05
6.11875e-05
9.33441e-05
0.000119974
0.000141418
0.00015725
0.000160566
0.000156639
0.000149394
0.000140006
0.000126456
0.000108075
8.50191e-05
5.98841e-05
3.72907e-05
2.09332e-05
1.41915e-05
2.10615e-05
8.92988e-05
9.67441e-06
4.94037e-06
2.17614e-05
6.8383e-05
0.00011085
0.000118548
0.000111472
9.71265e-05
7.99671e-05
6.38086e-05
5.07977e-05
4.18283e-05
3.6828e-05
3.42455e-05
3.19153e-05
2.9928e-05
3.0975e-05
3.98036e-05
6.63315e-05
0.000122384
0.000167876
0.000166934
0.000165869
0.000164571
0.000163113
0.000141239
0.000108568
8.48806e-05
6.8249e-05
5.36294e-05
3.74749e-05
2.23758e-05
1.43431e-05
2.09948e-05
9.24722e-05
9.70864e-06
5.47844e-06
2.68875e-05
8.95672e-05
0.000128069
0.000131452
0.000123691
0.00010985
9.0832e-05
6.8953e-05
4.98952e-05
3.7652e-05
3.24297e-05
3.31338e-05
3.71156e-05
3.8832e-05
3.71909e-05
3.9064e-05
5.4445e-05
0.00010252
0.000171583
0.000170623
0.000169748
0.000168673
0.000167194
0.000165266
0.000119681
7.92002e-05
5.52323e-05
4.25059e-05
3.33023e-05
2.23141e-05
1.42461e-05
1.88583e-05
8.12507e-05
9.94314e-06
5.80316e-06
2.85504e-05
9.42482e-05
0.000127489
0.000128475
0.000117781
0.00010081
8.0866e-05
6.10063e-05
4.43931e-05
3.30788e-05
2.74492e-05
2.73637e-05
3.27323e-05
4.08861e-05
4.53018e-05
4.62216e-05
5.25346e-05
7.52882e-05
0.000124316
0.000173627
0.00017376
0.000173801
0.000173419
0.000172383
0.000131531
8.83939e-05
5.63683e-05
3.72561e-05
2.7093e-05
1.91927e-05
1.34775e-05
1.9764e-05
8.97025e-05
1.0243e-05
5.52096e-06
2.86924e-05
9.43137e-05
0.000129992
0.000130337
0.000118418
0.000102351
8.51412e-05
6.70817e-05
4.96746e-05
3.62226e-05
2.85491e-05
2.66159e-05
3.03318e-05
3.91565e-05
4.90534e-05
5.50412e-05
6.01049e-05
7.30301e-05
0.000103031
0.000149159
0.000176239
0.000176904
0.000177397
0.000177401
0.000155942
0.000107439
6.36025e-05
3.46588e-05
2.08921e-05
1.62565e-05
1.46218e-05
2.59765e-05
0.000111956
1.05555e-05
5.8678e-06
3.08033e-05
0.000100978
0.000133864
0.000132563
0.000119363
0.000102991
8.74194e-05
7.20533e-05
5.55247e-05
4.01362e-05
2.96739e-05
2.52406e-05
2.65319e-05
3.34894e-05
4.5221e-05
5.83296e-05
7.01602e-05
8.36773e-05
0.000104494
0.000135029
0.000169891
0.000186711
0.000188095
0.000188769
0.000154655
0.00010878
6.37947e-05
3.12628e-05
1.65712e-05
1.45927e-05
2.0747e-05
4.68013e-05
0.000104291
1.07881e-05
5.72905e-06
3.11515e-05
9.87638e-05
0.000131794
0.000130672
0.00011515
9.69813e-05
8.28614e-05
7.26011e-05
6.20656e-05
4.8273e-05
3.45564e-05
2.59951e-05
2.39159e-05
2.81594e-05
3.78274e-05
4.94245e-05
5.98695e-05
7.22513e-05
9.27187e-05
0.000121005
0.000145075
0.000155678
0.000154465
0.000144286
0.000126477
0.000102173
7.21885e-05
4.1142e-05
2.04889e-05
1.40788e-05
2.18445e-05
6.24582e-05
8.2167e-05
1.06171e-05
5.79049e-06
2.97989e-05
9.7292e-05
0.000136024
0.000134673
0.000116656
9.57081e-05
8.02854e-05
7.12099e-05
6.53518e-05
5.81332e-05
4.61487e-05
3.27785e-05
2.43409e-05
2.29016e-05
2.89857e-05
4.18968e-05
5.52652e-05
6.31468e-05
6.8296e-05
7.57071e-05
8.66132e-05
9.75784e-05
0.0001037
0.000103266
9.77912e-05
8.98529e-05
8.07382e-05
6.58867e-05
3.98958e-05
1.84318e-05
1.47902e-05
3.23318e-05
9.37234e-05
1.02183e-05
5.81379e-06
2.99749e-05
9.57002e-05
0.000134653
0.000129907
0.00010698
8.39209e-05
6.95313e-05
6.29724e-05
6.08651e-05
5.98544e-05
5.5873e-05
4.50803e-05
3.1377e-05
2.26778e-05
2.13649e-05
2.90056e-05
4.85659e-05
7.7576e-05
0.000102651
0.000116276
0.000121819
0.000122666
0.000119243
0.000111555
0.000100667
8.8208e-05
7.65198e-05
6.80689e-05
5.64849e-05
2.86961e-05
1.26573e-05
2.04569e-05
9.80023e-05
1.04976e-05
6.17168e-06
3.00751e-05
9.456e-05
0.000131323
0.000124668
9.96723e-05
7.5634e-05
6.19313e-05
5.63184e-05
5.46384e-05
5.43313e-05
5.41801e-05
5.20016e-05
4.34911e-05
3.12025e-05
2.36379e-05
2.34646e-05
3.21851e-05
5.08633e-05
7.56575e-05
0.000103314
0.000130903
0.000150751
0.000155744
0.000146354
0.000127243
0.000100551
6.82837e-05
4.60541e-05
3.8235e-05
2.65559e-05
1.53173e-05
2.65389e-05
0.000121806
1.13995e-05
6.14641e-06
2.93151e-05
9.09486e-05
0.0001288
0.000116155
8.31469e-05
5.85804e-05
4.85447e-05
4.73304e-05
4.95186e-05
5.07885e-05
4.90967e-05
4.54485e-05
4.07318e-05
3.41519e-05
2.74399e-05
2.44407e-05
2.83133e-05
4.72233e-05
9.84658e-05
0.000148396
0.000160226
0.000167924
0.000178535
0.000179442
0.000155397
0.000105273
5.47061e-05
3.07912e-05
2.70539e-05
2.94828e-05
3.02444e-05
5.59215e-05
0.000118285
1.19097e-05
6.32762e-06
2.81824e-05
8.61973e-05
0.000122934
0.000108543
7.17326e-05
4.76222e-05
3.95307e-05
4.0195e-05
4.48026e-05
5.00106e-05
5.30548e-05
5.19036e-05
4.593e-05
3.70134e-05
2.91464e-05
2.39395e-05
2.1854e-05
2.56062e-05
3.86135e-05
6.79984e-05
0.000119094
0.000149272
0.000147474
0.000144745
0.000138049
0.00010136
4.99404e-05
2.6107e-05
2.22484e-05
3.12738e-05
5.20817e-05
0.000100885
8.14789e-05
1.15349e-05
6.59872e-06
2.8631e-05
8.70775e-05
0.000116263
9.2708e-05
5.43052e-05
3.43037e-05
2.87966e-05
3.05266e-05
3.46751e-05
3.73106e-05
3.67427e-05
3.3125e-05
2.73343e-05
2.20852e-05
2.22842e-05
3.73322e-05
9.32877e-05
0.00017365
0.000163675
0.000128157
0.000103444
9.43869e-05
9.62811e-05
0.000100606
9.92229e-05
8.58828e-05
5.78142e-05
3.29507e-05
2.32776e-05
2.78533e-05
5.56675e-05
0.000117299
6.45442e-05
1.11257e-05
6.99637e-06
2.91731e-05
8.55002e-05
0.000110519
8.86503e-05
5.24494e-05
3.19581e-05
2.55723e-05
2.64848e-05
3.00614e-05
3.37186e-05
3.80853e-05
4.29964e-05
4.48191e-05
4.11415e-05
3.4502e-05
3.18759e-05
3.77593e-05
5.47066e-05
8.55824e-05
0.000120101
0.000133763
0.00012601
0.000109592
9.29687e-05
7.96916e-05
7.02589e-05
6.06263e-05
4.56494e-05
3.09558e-05
2.55087e-05
3.55136e-05
7.9089e-05
6.94993e-05
1.10418e-05
7.06161e-06
3.12391e-05
8.94623e-05
0.000107235
8.30653e-05
4.68025e-05
2.72385e-05
2.08715e-05
2.09487e-05
2.1478e-05
1.94717e-05
1.89081e-05
2.09891e-05
2.26099e-05
2.44842e-05
2.93944e-05
3.69482e-05
5.24711e-05
8.65821e-05
0.00014151
0.00018556
0.000197987
0.000188829
0.000166854
0.00013809
0.000109059
8.64865e-05
7.25979e-05
6.16953e-05
4.62838e-05
3.10261e-05
2.86493e-05
5.279e-05
8.47983e-05
1.13928e-05
6.70164e-06
3.01202e-05
8.91034e-05
0.000110809
8.68134e-05
4.86383e-05
2.68899e-05
1.86274e-05
1.65835e-05
1.43763e-05
1.12496e-05
1.4369e-05
2.47052e-05
2.11815e-05
1.89907e-05
3.5844e-05
8.45879e-05
0.000125761
0.000138197
0.000148327
0.000159371
0.000165419
0.000163768
0.000154133
0.000136485
0.000112898
9.00368e-05
7.44257e-05
6.42495e-05
5.10436e-05
3.48508e-05
3.04722e-05
5.55311e-05
9.72617e-05
1.20743e-05
6.71689e-06
2.94695e-05
9.01072e-05
0.000117033
9.30118e-05
5.72763e-05
3.24385e-05
2.03464e-05
1.68158e-05
1.76069e-05
1.5246e-05
1.13094e-05
1.72217e-05
4.10927e-05
3.36918e-05
2.10085e-05
2.67125e-05
6.43367e-05
0.000133451
0.00018944
0.000211952
0.000203773
0.00018242
0.000157821
0.000131821
0.000105472
8.32862e-05
6.9324e-05
6.07757e-05
5.04086e-05
3.92781e-05
4.08181e-05
7.83748e-05
9.58861e-05
1.25404e-05
6.86044e-06
2.97093e-05
9.67926e-05
0.000116595
7.4692e-05
4.61932e-05
3.42536e-05
2.48761e-05
1.83962e-05
1.7779e-05
2.11828e-05
1.97861e-05
1.26131e-05
1.24025e-05
2.74347e-05
6.01125e-05
4.41825e-05
3.88418e-05
6.06903e-05
0.000120118
0.000167805
0.000192651
0.000197592
0.000177052
0.000139494
0.000100919
7.36459e-05
6.00037e-05
5.5035e-05
5.0993e-05
4.77059e-05
5.95105e-05
0.000111824
8.79655e-05
1.25735e-05
7.50874e-06
3.33551e-05
0.00010301
0.000103108
5.31675e-05
3.11356e-05
2.61679e-05
2.54277e-05
2.22859e-05
2.01147e-05
2.16404e-05
2.37383e-05
1.96337e-05
1.22711e-05
1.09954e-05
2.16244e-05
5.71952e-05
7.49646e-05
6.13606e-05
7.13036e-05
0.000113236
0.000154168
0.000169734
0.000170254
0.000147141
0.000107295
7.35042e-05
5.5798e-05
5.105e-05
5.31375e-05
5.95779e-05
8.26392e-05
0.000136648
7.81297e-05
1.2276e-05
8.26584e-06
4.22588e-05
0.00011043
6.64727e-05
3.0669e-05
1.96703e-05
2.00493e-05
2.45088e-05
2.70379e-05
2.8475e-05
3.15642e-05
3.37507e-05
2.92155e-05
1.93215e-05
1.12164e-05
9.63621e-06
1.90383e-05
5.28564e-05
9.39562e-05
7.55877e-05
7.11084e-05
9.10675e-05
0.000125292
0.000141719
0.000137338
0.000111991
7.81954e-05
5.50146e-05
4.63615e-05
4.99476e-05
6.5415e-05
9.78666e-05
0.000140754
6.83723e-05
1.19617e-05
8.45688e-06
4.91535e-05
9.33155e-05
4.82788e-05
2.45544e-05
1.80956e-05
2.07879e-05
2.6746e-05
2.95334e-05
3.05521e-05
3.28213e-05
3.54278e-05
3.40728e-05
2.63837e-05
1.58678e-05
7.91437e-06
5.58171e-06
1.26573e-05
4.06692e-05
9.28502e-05
8.03236e-05
6.90753e-05
7.88581e-05
0.000104042
0.000116628
0.000108451
8.51065e-05
6.08006e-05
4.73994e-05
4.78988e-05
6.6692e-05
0.000109028
0.000144018
6.5572e-05
1.18941e-05
8.16219e-06
4.64582e-05
9.44425e-05
6.1318e-05
3.42841e-05
2.17123e-05
1.8179e-05
2.09775e-05
2.71732e-05
3.26158e-05
3.58891e-05
3.81625e-05
3.8851e-05
3.54448e-05
2.656e-05
1.51545e-05
6.15442e-06
2.33808e-06
7.33415e-06
2.74712e-05
7.50261e-05
7.56996e-05
6.03325e-05
6.21463e-05
7.96181e-05
9.41466e-05
9.12652e-05
7.46137e-05
5.67486e-05
4.88149e-05
5.73724e-05
9.20723e-05
0.000140517
6.67457e-05
1.17085e-05
7.71185e-06
3.75293e-05
9.84657e-05
0.000105195
7.61293e-05
3.91563e-05
2.07421e-05
1.43771e-05
1.47268e-05
1.98967e-05
2.74831e-05
3.44854e-05
3.90901e-05
4.02759e-05
3.69191e-05
2.83086e-05
1.63773e-05
5.88348e-06
3.95102e-07
3.32014e-06
1.57566e-05
4.63237e-05
6.56255e-05
6.01767e-05
6.5724e-05
8.48671e-05
9.82995e-05
8.99034e-05
6.73661e-05
4.94049e-05
4.59035e-05
6.25871e-05
0.000109055
7.1476e-05
1.189e-05
7.72113e-06
3.47845e-05
9.86058e-05
0.00011667
0.000105295
7.45939e-05
3.73651e-05
1.83964e-05
1.1903e-05
1.22898e-05
1.77087e-05
2.61513e-05
3.43017e-05
3.91704e-05
3.93898e-05
3.50521e-05
2.70906e-05
1.66716e-05
5.22806e-06
7.02112e-07
2.0152e-06
1.24525e-05
3.88687e-05
6.77954e-05
7.1999e-05
7.31053e-05
7.445e-05
6.8563e-05
5.65838e-05
4.74337e-05
4.91244e-05
7.09809e-05
0.000122106
8.52185e-05
1.29993e-05
7.8343e-06
3.59688e-05
0.000105115
0.000114213
0.000101125
8.7354e-05
6.13914e-05
2.98341e-05
1.41255e-05
9.06904e-06
9.99507e-06
1.52353e-05
2.27811e-05
2.90144e-05
3.11056e-05
2.89663e-05
2.4014e-05
1.73142e-05
9.12187e-06
1.28163e-06
4.07105e-07
8.37304e-07
1.22476e-05
3.0526e-05
4.23928e-05
5.17524e-05
6.56949e-05
7.64503e-05
7.38471e-05
6.79445e-05
7.73806e-05
0.000115449
0.000162036
7.39825e-05
1.26576e-05
7.87188e-06
3.78036e-05
0.000104685
0.000113388
0.000101712
8.75969e-05
7.27255e-05
4.85798e-05
2.41541e-05
1.17767e-05
7.72353e-06
8.51239e-06
1.21969e-05
1.60766e-05
1.7439e-05
1.56817e-05
1.35159e-05
6.22143e-06
2.04201e-06
1.32816e-06
5.20031e-07
2.85478e-08
4.23994e-06
1.95359e-05
4.40283e-05
7.20267e-05
0.00010041
0.000110452
9.64496e-05
8.06798e-05
8.37652e-05
0.000111851
0.000139885
5.41153e-05
1.08583e-05
7.5606e-06
3.7404e-05
0.000102379
0.000115287
0.000108705
9.76903e-05
8.47932e-05
6.66872e-05
4.0661e-05
2.00355e-05
9.30305e-06
5.02885e-06
4.64013e-06
5.58308e-06
5.09472e-06
8.87495e-07
1.69208e-06
9.24146e-07
1.47092e-06
8.21648e-07
1.96837e-06
1.78494e-06
4.26058e-06
2.75888e-05
6.71314e-05
9.50677e-05
9.52598e-05
8.06655e-05
6.89109e-05
6.20709e-05
6.41733e-05
8.16408e-05
0.000113583
8.17743e-05
1.29997e-05
7.04171e-06
3.54177e-05
0.000100067
0.00011827
0.00011396
0.000104119
9.63406e-05
8.73886e-05
6.48727e-05
3.5053e-05
1.5673e-05
5.1898e-06
2.41643e-06
3.31879e-06
5.66744e-07
1.16158e-06
1.63883e-07
2.33105e-06
8.1671e-06
1.71989e-05
2.31501e-05
2.16976e-05
2.02618e-05
2.38544e-05
2.76066e-05
3.4348e-05
4.89155e-05
6.30436e-05
7.00114e-05
7.41458e-05
8.53354e-05
0.000113002
0.000154871
9.44213e-05
1.46342e-05
6.81198e-06
3.61924e-05
9.95268e-05
0.000116389
0.000111281
9.78523e-05
8.78707e-05
8.71858e-05
8.50172e-05
6.03761e-05
2.983e-05
1.15016e-05
1.24119e-06
4.81434e-07
1.1816e-08
2.92669e-07
2.16529e-06
8.55323e-06
2.62762e-05
8.24619e-05
0.000157927
0.000109668
5.69941e-05
2.70165e-05
1.71536e-05
2.42328e-05
4.55037e-05
6.88892e-05
8.7155e-05
0.000105063
0.000126063
0.000143039
0.00010489
3.96598e-05
1.08557e-05
6.61777e-06
3.57899e-05
9.81118e-05
0.000117247
0.000114121
9.93388e-05
8.11447e-05
7.26309e-05
7.85529e-05
8.79165e-05
6.86302e-05
3.33854e-05
1.26347e-05
2.33151e-06
1.61733e-06
1.05291e-06
4.92215e-07
3.32585e-06
1.21367e-05
3.14545e-05
6.44502e-05
0.000102348
0.000104884
7.80704e-05
6.19193e-05
6.41368e-05
7.98531e-05
9.55467e-05
0.000107719
0.000118475
0.000123386
0.000104077
5.53161e-05
2.23606e-05
6.11504e-06
6.8133e-06
3.76485e-05
0.000105409
0.000120876
0.000112198
9.759e-05
8.28274e-05
6.86166e-05
5.96e-05
6.36319e-05
8.42297e-05
9.97882e-05
6.86282e-05
2.88169e-05
9.1251e-06
7.49925e-07
1.01264e-06
9.37293e-07
5.47558e-07
5.84101e-06
1.47244e-05
2.67145e-05
4.12321e-05
5.89802e-05
7.85924e-05
0.000106967
0.000145374
0.000178773
0.000196436
0.000196117
0.00016691
0.000109158
5.42857e-05
2.40138e-05
4.55274e-06
6.98252e-06
3.75206e-05
0.000107969
0.000127588
0.000117153
9.73407e-05
8.16354e-05
7.51897e-05
7.27389e-05
6.60184e-05
5.83453e-05
6.03022e-05
7.81315e-05
0.000101634
8.65363e-05
4.22548e-05
1.64617e-05
4.36922e-06
7.33153e-07
1.9738e-06
1.84261e-06
2.32717e-06
8.27051e-06
1.49584e-05
2.45334e-05
3.678e-05
5.56515e-05
8.32209e-05
0.000116497
0.000137205
0.000126442
8.63727e-05
4.72446e-05
2.42912e-05
5.1547e-06
7.27859e-06
3.80962e-05
0.00011308
0.000130671
0.000115128
9.2858e-05
7.53195e-05
6.58767e-05
6.49649e-05
7.19193e-05
8.13481e-05
8.28227e-05
7.63392e-05
7.32219e-05
8.06429e-05
9.67096e-05
9.81371e-05
6.37225e-05
3.04484e-05
1.24493e-05
2.57042e-06
1.21544e-06
2.02335e-07
6.9822e-07
1.91983e-06
5.7803e-06
1.08867e-05
1.67836e-05
2.7117e-05
3.78122e-05
5.32446e-05
5.27975e-05
2.80986e-05
1.70975e-05
6.2784e-06
7.55819e-06
3.86686e-05
0.000114691
0.000129137
0.000110453
8.77982e-05
7.29512e-05
6.68933e-05
6.65879e-05
6.97765e-05
7.64313e-05
8.65252e-05
9.65735e-05
0.000100578
9.78452e-05
9.50153e-05
9.79785e-05
0.000105911
0.000104658
7.54293e-05
3.93094e-05
1.81359e-05
6.3104e-06
3.30358e-06
5.78533e-08
1.95101e-06
1.54667e-06
1.39087e-06
1.29302e-06
4.0251e-06
3.89328e-06
8.68122e-06
6.92947e-06
1.05079e-05
8.37801e-06
7.78535e-06
3.94714e-05
0.000116151
0.000124678
0.000102106
7.88058e-05
6.54331e-05
6.18409e-05
6.54579e-05
7.36926e-05
8.39237e-05
9.44131e-05
0.000104686
0.000113997
0.000120233
0.000121626
0.000119739
0.000118699
0.000120454
0.000119763
0.000101873
6.30772e-05
3.14395e-05
1.44693e-05
2.4001e-06
2.88921e-06
3.97666e-06
1.1215e-06
2.17284e-06
3.1382e-06
2.14492e-06
2.72996e-06
3.17336e-06
1.19105e-05
9.90938e-06
7.86914e-06
4.00704e-05
0.000116623
0.000119672
9.41485e-05
7.14312e-05
6.04206e-05
5.92432e-05
6.50679e-05
7.55675e-05
8.82556e-05
0.000100934
0.00011254
0.000122925
0.00013177
0.00013801
0.000140601
0.000139979
0.000137947
0.000134649
0.000124618
9.85749e-05
6.05519e-05
3.16986e-05
1.52946e-05
6.25882e-06
3.4644e-06
9.78265e-07
2.93275e-06
1.72519e-06
3.18329e-06
1.84152e-06
4.39408e-07
2.86675e-05
1.06436e-05
7.8094e-06
4.02826e-05
0.000115247
0.000114433
8.6701e-05
6.45412e-05
5.52197e-05
5.55392e-05
6.25599e-05
7.4274e-05
8.85816e-05
0.000103431
0.000117577
0.000130559
0.000142072
0.000151454
0.00015765
0.000159534
0.000155964
0.000144936
0.000123291
9.12935e-05
5.86112e-05
3.46205e-05
1.82286e-05
5.56296e-06
2.18688e-06
2.37162e-06
8.25542e-06
1.65911e-05
2.1596e-05
1.31427e-05
1.16604e-05
6.68829e-05
1.08797e-05
7.64112e-06
3.98763e-05
0.000112523
0.000110726
8.2018e-05
6.04442e-05
5.21234e-05
5.28338e-05
5.92531e-05
6.9371e-05
8.17099e-05
9.53236e-05
0.000109788
0.000124459
0.000137655
0.000146627
0.00014816
0.00013944
0.000120003
9.43874e-05
7.04148e-05
5.26492e-05
3.9442e-05
2.63641e-05
1.16707e-05
1.39836e-06
1.37674e-06
9.0262e-06
2.23634e-05
3.66549e-05
3.59601e-05
2.28836e-05
2.87068e-05
9.23048e-05
1.11128e-05
7.53663e-06
3.96902e-05
0.000111635
0.00010845
7.81158e-05
5.73813e-05
4.99757e-05
5.03598e-05
5.47823e-05
6.13314e-05
6.90845e-05
7.77436e-05
8.71231e-05
9.62334e-05
0.000102949
0.00010533
0.000103709
0.000100401
9.62146e-05
8.84453e-05
7.43909e-05
5.65978e-05
3.88392e-05
2.16673e-05
7.41598e-06
2.40384e-06
6.92465e-06
1.8496e-05
3.48854e-05
4.80272e-05
4.43788e-05
3.58748e-05
5.31516e-05
8.96735e-05
1.12789e-05
7.62188e-06
4.02959e-05
0.000112516
0.000104583
7.26549e-05
5.46558e-05
5.02058e-05
5.25048e-05
5.69912e-05
6.13473e-05
6.50515e-05
6.90513e-05
7.53341e-05
8.59969e-05
0.000101587
0.000118844
0.000130291
0.000129265
0.000117083
0.000101048
8.55627e-05
6.96337e-05
5.06359e-05
2.89113e-05
1.09422e-05
3.47325e-06
7.42993e-06
2.25559e-05
4.16044e-05
4.95885e-05
4.77578e-05
5.00798e-05
8.13626e-05
8.09909e-05
1.12423e-05
7.74409e-06
4.06099e-05
0.000111296
9.74813e-05
6.49061e-05
5.05235e-05
5.03924e-05
5.79423e-05
6.82173e-05
7.70661e-05
8.19976e-05
8.29225e-05
8.19324e-05
8.2079e-05
8.58719e-05
9.40554e-05
0.000104733
0.000114199
0.000119764
0.000119982
0.000112773
9.62677e-05
7.16203e-05
4.37016e-05
1.98389e-05
6.77882e-06
5.60488e-06
1.74139e-05
4.05727e-05
5.37327e-05
5.14108e-05
5.97401e-05
9.82435e-05
7.45951e-05
1.10759e-05
7.86378e-06
4.17227e-05
0.000110432
8.6543e-05
5.4742e-05
4.43469e-05
4.76721e-05
5.89753e-05
7.41682e-05
8.90692e-05
9.98565e-05
0.00010376
0.000100204
9.21208e-05
8.48428e-05
8.29451e-05
8.86613e-05
0.000101435
0.000116838
0.000127195
0.000126234
0.000112508
8.8103e-05
5.86533e-05
3.18682e-05
1.36311e-05
6.23125e-06
9.88199e-06
2.59488e-05
5.13111e-05
6.18869e-05
7.14395e-05
0.000105831
6.84725e-05
1.08654e-05
7.88329e-06
4.12988e-05
0.000108715
7.86428e-05
4.84914e-05
4.13276e-05
4.7613e-05
6.11301e-05
7.6804e-05
9.08511e-05
0.000101311
0.000107001
0.00010676
0.00010046
9.08746e-05
8.3009e-05
8.08285e-05
8.54088e-05
9.47742e-05
0.000103881
0.000106856
0.000101121
8.75683e-05
6.79382e-05
4.56074e-05
2.60402e-05
1.25763e-05
7.45706e-06
1.20229e-05
2.72475e-05
5.39781e-05
8.57879e-05
0.000116339
6.15432e-05
1.06377e-05
7.97593e-06
4.05143e-05
0.000106444
7.21005e-05
4.26453e-05
3.70689e-05
4.51069e-05
6.11786e-05
7.97355e-05
9.59899e-05
0.000107739
0.000114287
0.000115065
0.000109696
9.93943e-05
8.79303e-05
7.97899e-05
7.72092e-05
7.94051e-05
8.32656e-05
8.49085e-05
8.22051e-05
7.5869e-05
6.65698e-05
5.2214e-05
3.49954e-05
2.17099e-05
1.27026e-05
8.74782e-06
1.2909e-05
2.83335e-05
6.33211e-05
0.000106818
6.17575e-05
1.04431e-05
8.01281e-06
3.95361e-05
0.000102681
6.52864e-05
3.74296e-05
3.35221e-05
4.36532e-05
6.29342e-05
8.4691e-05
0.000102908
0.00011557
0.000122691
0.000124205
0.000119772
0.000109864
9.7115e-05
8.57968e-05
7.89764e-05
7.65771e-05
7.59765e-05
7.41921e-05
7.03947e-05
6.59051e-05
5.87677e-05
4.12835e-05
2.56221e-05
2.05196e-05
2.06857e-05
1.8701e-05
1.45337e-05
1.7436e-05
3.05913e-05
6.04117e-05
6.90901e-05
1.0949e-05
7.94398e-06
3.81167e-05
9.86935e-05
6.00354e-05
3.29516e-05
2.96333e-05
4.09844e-05
6.37403e-05
9.07835e-05
0.000114083
0.000130773
0.000140842
0.000144169
0.000140187
0.000129072
0.000113505
9.85629e-05
8.82288e-05
8.25039e-05
7.83411e-05
7.3186e-05
6.53372e-05
4.75816e-05
2.55983e-05
1.78785e-05
2.03119e-05
2.85764e-05
3.83774e-05
3.6482e-05
2.1783e-05
1.54621e-05
2.32722e-05
5.58597e-05
7.80344e-05
1.24046e-05
7.87025e-06
3.74751e-05
9.67335e-05
5.71812e-05
3.01861e-05
2.69237e-05
3.90329e-05
6.48816e-05
9.70443e-05
0.000125935
0.000148515
0.000164885
0.000174329
0.000174792
0.00016439
0.000145087
0.000124542
0.000110194
0.000102232
9.18427e-05
6.55218e-05
2.88596e-05
1.37883e-05
1.44189e-05
2.41189e-05
3.92771e-05
4.6258e-05
4.45952e-05
3.907e-05
2.90075e-05
2.57753e-05
4.27704e-05
0.00010208
6.31133e-05
1.28328e-05
7.82748e-06
3.75728e-05
9.55813e-05
5.35903e-05
2.72576e-05
2.40303e-05
3.6331e-05
6.47117e-05
0.000101896
0.000136096
0.000163982
0.000186225
0.000202059
0.000208248
0.000200058
0.00017653
0.000146737
0.000122162
0.000101783
6.73805e-05
2.62651e-05
1.0914e-05
1.06786e-05
1.99635e-05
4.51291e-05
6.87627e-05
4.97502e-05
3.68902e-05
3.89185e-05
4.78394e-05
6.09954e-05
9.56138e-05
0.000114055
4.23947e-05
1.13264e-05
7.87265e-06
3.91758e-05
9.44266e-05
5.03033e-05
2.54064e-05
2.22016e-05
3.42116e-05
6.2635e-05
9.9796e-05
0.000133496
0.000160504
0.000181435
0.000195355
0.00019918
0.000188999
0.000163901
0.00013051
9.86114e-05
7.13896e-05
4.36595e-05
1.83796e-05
8.31963e-06
8.88428e-06
1.66391e-05
3.85782e-05
8.39561e-05
7.76835e-05
5.08583e-05
4.31816e-05
5.44357e-05
8.31501e-05
0.00011298
9.14422e-05
3.35448e-05
9.42681e-06
7.90253e-06
4.08074e-05
9.25938e-05
4.97288e-05
2.48211e-05
2.04862e-05
3.06884e-05
5.68422e-05
9.17811e-05
0.000123226
0.000147569
0.000165508
0.000176739
0.000179501
0.000171695
0.000152755
0.000125747
9.67728e-05
7.0656e-05
4.76893e-05
2.59657e-05
1.06266e-05
6.47217e-06
9.40969e-06
1.82611e-05
3.64349e-05
6.77579e-05
9.42175e-05
9.62416e-05
9.43571e-05
0.000103302
0.000117757
9.20077e-05
3.14113e-05
8.40132e-06
7.94021e-06
4.25202e-05
9.32377e-05
5.69929e-05
2.84843e-05
2.0027e-05
2.52362e-05
4.46626e-05
7.48899e-05
0.000105264
0.000129616
0.000147705
0.00015993
0.000165672
0.000163774
0.000153452
0.000135364
0.000112306
8.83154e-05
6.62578e-05
4.62952e-05
2.72363e-05
1.24129e-05
6.98847e-06
8.58517e-06
1.4575e-05
2.47826e-05
4.17117e-05
7.64391e-05
0.000139201
0.000157114
0.000139297
9.52248e-05
3.24793e-05
8.30609e-06
7.85044e-06
4.19833e-05
9.65394e-05
7.6006e-05
4.11278e-05
2.31977e-05
2.00747e-05
2.8987e-05
5.03464e-05
7.95216e-05
0.000106942
0.00012821
0.000143534
0.000153311
0.0001572
0.000154594
0.000145289
0.000130127
0.000111208
9.1313e-05
7.24614e-05
5.49476e-05
3.78528e-05
2.17725e-05
1.14794e-05
8.75367e-06
1.08795e-05
1.62156e-05
2.53923e-05
4.34724e-05
9.02974e-05
0.000124751
9.1075e-05
3.43419e-05
8.75951e-06
7.75573e-06
4.00979e-05
9.95691e-05
0.000100359
7.16766e-05
3.72215e-05
2.11548e-05
1.86086e-05
2.67601e-05
4.69661e-05
7.62046e-05
0.000104935
0.00012744
0.000143384
0.000153268
0.00015707
0.000154656
0.000146316
0.000133122
0.000116918
9.98412e-05
8.34633e-05
6.82268e-05
5.35453e-05
3.8692e-05
2.48427e-05
1.54324e-05
1.17145e-05
1.22803e-05
1.58406e-05
2.3112e-05
5.24886e-05
0.000101242
3.97249e-05
9.40488e-06
7.65863e-06
3.81847e-05
0.000101948
0.000113635
0.000101584
7.06979e-05
3.62372e-05
2.00135e-05
1.6816e-05
2.40098e-05
4.3751e-05
7.47622e-05
0.000107868
0.000135111
0.000154361
0.000165719
0.000169496
0.000166194
0.000156947
0.000143563
0.000128024
0.000112091
9.69165e-05
8.28408e-05
6.95661e-05
5.65493e-05
4.35053e-05
3.10419e-05
2.11338e-05
1.5529e-05
1.16805e-05
1.34444e-05
3.50278e-05
6.02498e-05
1.01181e-05
7.677e-06
3.72853e-05
0.000104714
0.000118216
0.000106307
9.05501e-05
6.43161e-05
3.38976e-05
1.88418e-05
1.62458e-05
2.45985e-05
4.66463e-05
8.16805e-05
0.000120724
0.000154257
0.000177902
0.000190683
0.000193249
0.000187249
0.000175258
0.000160092
0.000143909
0.000127994
0.000112875
9.85829e-05
8.49924e-05
7.21561e-05
5.94661e-05
4.44633e-05
3.15001e-05
1.73757e-05
5.30683e-06
1.22309e-05
7.90345e-05
1.12597e-05
7.75702e-06
3.71572e-05
0.000104849
0.000115967
9.80044e-05
8.07277e-05
6.99328e-05
5.17827e-05
2.88583e-05
1.77001e-05
1.82543e-05
3.13692e-05
6.02812e-05
0.000102327
0.00014712
0.000184954
0.000210537
0.000221954
0.000220518
0.000210073
0.000194844
0.000177787
0.00016043
0.00014334
0.000126641
0.000110386
9.47225e-05
7.82042e-05
5.20385e-05
2.98025e-05
1.46207e-05
4.95721e-06
1.32055e-05
9.96155e-05
1.24173e-05
7.86982e-06
3.76287e-05
0.000105115
0.00011387
9.14756e-05
7.02971e-05
6.00611e-05
5.37936e-05
3.89824e-05
2.35525e-05
1.82635e-05
2.49481e-05
4.68905e-05
8.56478e-05
0.000134378
0.000182162
0.000220244
0.000243155
0.00024981
0.000243623
0.000229605
0.000211769
0.000192335
0.00017214
0.000151303
0.000129523
0.00010484
7.15302e-05
3.36996e-05
1.73997e-05
1.08959e-05
8.86343e-06
2.58881e-05
0.000112211
1.30115e-05
7.90864e-06
3.80462e-05
0.000106566
0.00011187
8.56458e-05
6.43923e-05
5.56675e-05
5.2338e-05
4.47372e-05
3.07985e-05
2.16227e-05
2.30709e-05
3.82149e-05
7.02047e-05
0.000116417
0.000167705
0.000214216
0.000247914
0.00026405
0.000263531
0.00025156
0.000233422
0.000212124
0.00018859
0.000162402
0.000131733
9.30305e-05
4.78023e-05
1.95028e-05
1.26338e-05
1.23873e-05
1.78291e-05
5.55141e-05
7.27257e-05
1.26778e-05
7.90805e-06