/*--------------------------------*- C++ -*----------------------------------*\
| =========                 |                                                 |
| \\      /  F ield         | OpenFOAM: The Open Source CFD Toolbox           |
|  \\    /   O peration     | Version:  v2006                                 |
|   \\  /    A nd           | Website:  www.openfoam.com                      |
|    \\/     M anipulation  |                                                 |
\*---------------------------------------------------------------------------*/
FoamFile
{
    version     2.0;
    format      ascii;
    class       volVectorField;
    location    "86";
    object      U;
}
// * * * * * * * * * * * * * * * * * * * * * * * * * * * * * * * * * * * * * //

dimensions      [0 1 -1 0 0 0 0];


internalField   nonuniform List<vector> 
78750
(
(-0.630083 -0.31408 -0.163909)
(-0.550826 -0.2809 -0.158311)
(-0.533749 -0.232643 -0.145624)
(-0.452579 -0.186264 -0.133563)
(-0.36411 -0.141659 -0.122732)
(-0.332274 -0.123552 -0.116145)
(-0.306475 -0.101506 -0.112848)
(-0.273607 -0.0910738 -0.108125)
(-0.244948 -0.0756699 -0.104984)
(-0.216298 -0.0673888 -0.100333)
(-0.191973 -0.0566437 -0.0968565)
(-0.168817 -0.0500093 -0.092637)
(-0.148608 -0.0427643 -0.0892722)
(-0.1304 -0.0375225 -0.0857806)
(-0.113705 -0.0328896 -0.0829465)
(-0.0994164 -0.0290572 -0.0804139)
(-0.0860028 -0.0260933 -0.0783639)
(-0.0744 -0.0234927 -0.0766829)
(-0.0636665 -0.021343 -0.0752966)
(-0.0539677 -0.0194472 -0.0741709)
(-0.0450291 -0.0177389 -0.0732637)
(-0.0367498 -0.0161581 -0.0725464)
(-0.0290265 -0.0146541 -0.0719933)
(-0.0217831 -0.0131871 -0.0715796)
(-0.0149716 -0.0117232 -0.0712799)
(-0.00856344 -0.0102299 -0.0710657)
(-0.00254639 -0.00867435 -0.0709025)
(0.00302983 -0.00701768 -0.0707446)
(0.00812549 -0.0051967 -0.0705294)
(0.0126959 -0.00311662 -0.0701776)
(0.0165694 -0.00064097 -0.0695876)
(0.0194311 0.00240475 -0.068626)
(0.0208707 0.00664003 -0.0671015)
(0.0228071 0.0168832 -0.064437)
(0.0134769 0.0819166 -0.0381972)
(0.0916084 -0.557629 0.061512)
(-0.127171 -0.412086 0.0271671)
(-0.0470212 -0.433741 0.00728463)
(-0.0853471 -0.425685 -0.00694563)
(-0.0963799 -0.327117 -0.0304972)
(-0.099078 -0.276656 -0.0401226)
(-0.105086 -0.221515 -0.0528807)
(-0.105369 -0.188483 -0.0592376)
(-0.106811 -0.16035 -0.0655677)
(-0.106051 -0.139257 -0.0701453)
(-0.1051 -0.122612 -0.0738505)
(-0.102976 -0.10903 -0.0767302)
(-0.100176 -0.0978837 -0.0789154)
(-0.0963908 -0.0883702 -0.0805973)
(-0.0918646 -0.0801422 -0.0818533)
(-0.0865543 -0.0728991 -0.0827994)
(-0.0806462 -0.0664243 -0.0835168)
(-0.0742284 -0.0605805 -0.0840846)
(-0.067443 -0.0552659 -0.0845688)
(-0.0604193 -0.0503846 -0.0850155)
(-0.0532669 -0.0458495 -0.0854589)
(-0.0460756 -0.0415792 -0.085922)
(-0.0389118 -0.0374919 -0.0864222)
(-0.0318288 -0.0334971 -0.0869653)
(-0.0248751 -0.0294995 -0.0875401)
(-0.0180997 -0.0253974 -0.0881219)
(-0.0115571 -0.0210711 -0.0886689)
(-0.00530979 -0.0163667 -0.0891189)
(0.00055499 -0.0110717 -0.0893833)
(0.0058655 -0.00487873 -0.0893341)
(0.0103222 0.00275646 -0.088768)
(0.013646 0.0132083 -0.0872706)
(0.0155727 0.0316009 -0.083628)
(0.0148251 0.0838395 -0.0727367)
(0.00501176 0.228065 -0.0354786)
(-0.0465599 0.176714 0.0194362)
(-0.032084 -0.0665253 0.0442409)
(-0.069298 -0.119421 0.0260897)
(-0.0638484 -0.165875 0.0229182)
(-0.0677704 -0.188861 0.0217429)
(-0.0646041 -0.182084 0.02032)
(-0.056759 -0.154749 0.0153544)
(-0.0492282 -0.134644 0.0105411)
(-0.0414157 -0.1161 0.00581412)
(-0.0346439 -0.098937 0.000484405)
(-0.0292487 -0.0849769 -0.00541214)
(-0.0257769 -0.0749778 -0.0117206)
(-0.0241859 -0.0687113 -0.0181582)
(-0.0243701 -0.0654543 -0.0243838)
(-0.0258573 -0.0641281 -0.0301046)
(-0.0280135 -0.0637626 -0.0351551)
(-0.0301206 -0.0636481 -0.0395062)
(-0.0315371 -0.0631532 -0.0431761)
(-0.0319187 -0.0617481 -0.0462412)
(-0.0311644 -0.0592078 -0.0488373)
(-0.0293531 -0.0556484 -0.0510997)
(-0.0266689 -0.0513576 -0.0531328)
(-0.0233364 -0.0465416 -0.055017)
(-0.0195841 -0.041236 -0.0568143)
(-0.0155862 -0.0353971 -0.0585697)
(-0.0114899 -0.0289464 -0.0603009)
(-0.00739276 -0.0217331 -0.062009)
(-0.00337975 -0.0135075 -0.0636791)
(0.000460408 -0.00387708 -0.0652778)
(0.00400667 0.00784007 -0.0667459)
(0.00709772 0.0231078 -0.0680016)
(0.00951429 0.0457587 -0.0689236)
(0.0107008 0.087305 -0.0689616)
(0.00954287 0.176985 -0.0638234)
(0.00212063 0.309641 -0.0328268)
(0.0077685 -0.0884118 0.0167495)
(0.0239543 -0.223879 0.0123247)
(0.0261501 -0.29918 0.0105652)
(0.0266969 -0.332151 0.00744463)
(0.0275321 -0.343426 0.00560494)
(0.0284944 -0.344855 0.00553364)
(0.030283 -0.33522 0.00853024)
(0.0338692 -0.311746 0.0131709)
(0.0384285 -0.278458 0.0179188)
(0.0433403 -0.24071 0.0224709)
(0.0481975 -0.200924 0.0271578)
(0.0525878 -0.160074 0.0319716)
(0.055902 -0.119542 0.0361102)
(0.0573907 -0.0824153 0.0379897)
(0.0562866 -0.0536585 0.0360213)
(0.0525356 -0.0365078 0.0298959)
(0.0463632 -0.029709 0.0202365)
(0.0380214 -0.0305112 0.00816533)
(0.0288135 -0.0361462 -0.00415532)
(0.0203779 -0.0432657 -0.0148585)
(0.0135736 -0.0488869 -0.0232465)
(0.00897417 -0.051949 -0.0294037)
(0.00644969 -0.0523785 -0.0338541)
(0.00544694 -0.0502277 -0.037222)
(0.00557231 -0.0458174 -0.0398864)
(0.00648868 -0.0396544 -0.0420357)
(0.00789191 -0.0319678 -0.0438214)
(0.00947586 -0.022835 -0.0453581)
(0.0110153 -0.0118498 -0.0467585)
(0.0122578 0.00178283 -0.0481205)
(0.0129525 0.0198734 -0.0495485)
(0.0127577 0.0476532 -0.0511639)
(0.0106731 0.102919 -0.0525069)
(0.00672738 0.225984 -0.0484575)
(0.000172545 0.358182 -0.0234119)
(0.00142955 -0.0969523 0.0119314)
(0.00665081 -0.169153 -0.00038937)
(0.0129258 -0.198494 -0.0137112)
(0.0188445 -0.215536 -0.0236804)
(0.0240653 -0.226586 -0.0311344)
(0.0283601 -0.232221 -0.0366394)
(0.0313338 -0.233255 -0.0408707)
(0.0330337 -0.230079 -0.0442714)
(0.0337416 -0.222138 -0.0469471)
(0.0336979 -0.208883 -0.0483857)
(0.0333201 -0.190576 -0.0473898)
(0.0333329 -0.167733 -0.0426738)
(0.034471 -0.140216 -0.0336838)
(0.0370132 -0.107218 -0.0207202)
(0.040538 -0.0676171 -0.00466902)
(0.0439674 -0.022065 0.0119679)
(0.0449044 0.0200092 0.0230777)
(0.0424234 0.0444681 0.0246492)
(0.038289 0.0537201 0.0201165)
(0.0325411 0.0526291 0.0114995)
(0.0251656 0.0392487 -0.000926608)
(0.0185532 0.0196931 -0.0132612)
(0.0132551 0.00366453 -0.0227255)
(0.00972454 -0.00544254 -0.0290536)
(0.00765185 -0.00899043 -0.0332316)
(0.00655428 -0.00836724 -0.0360852)
(0.00621422 -0.00399655 -0.037921)
(0.00648818 0.00444261 -0.0388911)
(0.00716742 0.017742 -0.0391493)
(0.0079594 0.0361989 -0.0389837)
(0.00869823 0.0626557 -0.0387905)
(0.00920946 0.105871 -0.0392953)
(0.00894444 0.1854 -0.041327)
(0.00686124 0.310138 -0.0402848)
(0.000852529 0.404532 -0.0202683)
(0.00327037 -0.165661 0.00020422)
(0.0152824 -0.31112 0.00455866)
(0.0252392 -0.368717 0.0114907)
(0.0330345 -0.386461 0.017341)
(0.0388771 -0.385605 0.0214779)
(0.0434934 -0.37271 0.0241794)
(0.0466606 -0.347855 0.0250162)
(0.0476772 -0.311271 0.0225077)
(0.046426 -0.26684 0.0148151)
(0.0435394 -0.22174 0.00109212)
(0.039636 -0.183616 -0.0167431)
(0.0352905 -0.156368 -0.0334998)
(0.0313564 -0.13768 -0.0443429)
(0.0283683 -0.121816 -0.0480159)
(0.0263822 -0.103193 -0.0441325)
(0.0256133 -0.0765201 -0.0308847)
(0.0260152 -0.0392268 -0.00948438)
(0.0261366 0.00236127 0.0109886)
(0.0249359 0.0312674 0.0199085)
(0.0237935 0.0422439 0.0192163)
(0.0227728 0.0461933 0.0149804)
(0.0209327 0.0444591 0.00667053)
(0.0179633 0.0326454 -0.00695892)
(0.0157922 0.0184161 -0.0194053)
(0.0146748 0.00982931 -0.0274167)
(0.014186 0.00632497 -0.0326334)
(0.0140319 0.00661161 -0.0363714)
(0.014222 0.0102659 -0.0389565)
(0.0145512 0.0174453 -0.0405664)
(0.0147752 0.0295385 -0.0412803)
(0.0144085 0.048775 -0.0410545)
(0.0128031 0.0823137 -0.0397334)
(0.0089969 0.163004 -0.0367432)
(0.00538719 0.328889 -0.0308334)
(0.000137302 0.432771 -0.0132534)
(0.00332886 -0.209333 0.00517652)
(0.00790669 -0.307987 0.0162047)
(0.00918829 -0.31902 0.0168352)
(0.00997471 -0.314908 0.0155168)
(0.0105902 -0.302385 0.0134056)
(0.0106812 -0.280706 0.0101008)
(0.00988065 -0.251036 0.00566028)
(0.0081665 -0.21818 0.00105249)
(0.00613845 -0.185584 -0.00327813)
(0.00455645 -0.152929 -0.0085601)
(0.00379364 -0.120026 -0.0165726)
(0.0034845 -0.0900611 -0.0267851)
(0.00301849 -0.0662154 -0.0355891)
(0.00223885 -0.0466247 -0.0402477)
(0.00112955 -0.0263546 -0.0394929)
(-0.000333581 -0.000467213 -0.0303214)
(-0.00203062 0.0309823 -0.0116357)
(-0.00337837 0.0525873 0.00335319)
(-0.00348267 0.0600883 0.00770125)
(-0.00290048 0.0634062 0.00766028)
(-0.00180314 0.0642108 0.00466184)
(-0.000418158 0.06136 -0.00159819)
(0.00115877 0.0511986 -0.0121221)
(0.00236555 0.0386425 -0.0222286)
(0.00324285 0.0316405 -0.0284363)
(0.00408161 0.0296513 -0.0324822)
(0.00506484 0.0319176 -0.0353417)
(0.00613818 0.038691 -0.0371881)
(0.00745273 0.0521352 -0.038191)
(0.00904954 0.0767642 -0.0384117)
(0.0105743 0.116373 -0.0382709)
(0.0114097 0.181671 -0.0389022)
(0.00825337 0.288133 -0.040139)
(0.00313503 0.417847 -0.0343811)
(-0.00119746 0.471598 -0.0168792)
(0.00113795 -0.25538 0.019596)
(0.00108894 -0.369162 0.0339656)
(0.00114124 -0.392579 0.0374641)
(0.00130082 -0.393863 0.0384142)
(0.00168812 -0.383107 0.0382242)
(0.0022949 -0.357199 0.0361198)
(0.00269808 -0.314765 0.0307173)
(0.00212823 -0.264335 0.0221268)
(0.000244803 -0.217741 0.0124488)
(-0.00231182 -0.179882 0.00351782)
(-0.00453599 -0.148644 -0.00447502)
(-0.00589763 -0.121057 -0.0120134)
(-0.00662448 -0.0963092 -0.0187759)
(-0.0073144 -0.0740947 -0.0236136)
(-0.00831563 -0.0523311 -0.0254634)
(-0.00951527 -0.0274957 -0.0228396)
(-0.0101421 0.00219761 -0.0141666)
(-0.00941501 0.027999 -0.00401401)
(-0.00812341 0.0385881 -0.000510596)
(-0.00669601 0.0426415 -0.000749387)
(-0.0049115 0.043696 -0.00342732)
(-0.00295822 0.0420499 -0.00821497)
(-0.00116497 0.0384142 -0.0143647)
(0.000179526 0.0343073 -0.0207304)
(0.00108467 0.0312048 -0.0264065)
(0.00178107 0.0299573 -0.0310233)
(0.00239903 0.0309288 -0.0344417)
(0.00285246 0.0344003 -0.0365611)
(0.00314667 0.0410266 -0.0373408)
(0.00327547 0.0534003 -0.0365011)
(0.00334659 0.0796477 -0.0331267)
(0.00377634 0.141483 -0.0274177)
(0.00465418 0.281393 -0.0255607)
(0.00312882 0.445921 -0.0264821)
(-0.000260692 0.484617 -0.014536)
(-0.0020556 -0.229823 0.0252061)
(-0.00514733 -0.32482 0.0374939)
(-0.0068224 -0.339521 0.0399465)
(-0.00779964 -0.337454 0.0406893)
(-0.00832059 -0.323668 0.04063)
(-0.00787907 -0.295004 0.0392731)
(-0.00610443 -0.25146 0.0353802)
(-0.0033499 -0.198625 0.0278996)
(-0.000852669 -0.14739 0.0178757)
(0.000259046 -0.107409 0.00836037)
(-0.000179557 -0.079467 0.00156331)
(-0.00150683 -0.0579539 -0.00233249)
(-0.00301903 -0.0372073 -0.00390693)
(-0.00436728 -0.0141116 -0.0035383)
(-0.00546486 0.0108117 -0.00156262)
(-0.00609426 0.0320186 0.000810956)
(-0.00573963 0.0430233 0.00185697)
(-0.00486168 0.0473256 0.00162318)
(-0.00375791 0.0492776 0.000271061)
(-0.00247929 0.0498681 -0.00241938)
(-0.00130244 0.0491662 -0.00634612)
(-0.000182201 0.0476029 -0.0111788)
(0.000804898 0.0459229 -0.0164691)
(0.00161115 0.0450275 -0.0217705)
(0.0022518 0.0457535 -0.0267416)
(0.00275811 0.0487697 -0.0311664)
(0.00322548 0.0551493 -0.0353709)
(0.00368832 0.0669072 -0.0398962)
(0.00401129 0.0857135 -0.0446141)
(0.00394907 0.112284 -0.0485015)
(0.00319953 0.14902 -0.0494872)
(0.0016559 0.209679 -0.043322)
(0.000565596 0.334372 -0.0277228)
(0.00116159 0.484267 -0.0179433)
(-0.000200681 0.499567 -0.00784279)
(-0.00106432 -0.25002 0.0324927)
(-0.00361818 -0.380987 0.0475283)
(-0.00598333 -0.411163 0.0515664)
(-0.00745887 -0.417081 0.0539054)
(-0.00818226 -0.412257 0.0564608)
(-0.00786638 -0.396366 0.0596418)
(-0.00596888 -0.364525 0.0626612)
(-0.00214977 -0.313925 0.0630204)
(0.00313985 -0.250557 0.058125)
(0.00850381 -0.186414 0.0478095)
(0.0124105 -0.132906 0.0345984)
(0.01442 -0.094692 0.021947)
(0.0151602 -0.0690659 0.012065)
(0.0156416 -0.0504156 0.00531378)
(0.016627 -0.0339724 0.00124724)
(0.0184285 -0.0169254 -0.000446385)
(0.0207569 0.00124967 -8.39883e-06)
(0.0228024 0.0184191 0.00170637)
(0.0238329 0.0300017 0.00288912)
(0.0239384 0.0355376 0.00268238)
(0.0235865 0.0386159 0.00154924)
(0.0228566 0.040771 -0.000375976)
(0.0218161 0.0422681 -0.00301536)
(0.0205722 0.0436351 -0.0061676)
(0.0192357 0.0454875 -0.00956142)
(0.0178998 0.0484075 -0.0128904)
(0.0167127 0.05304 -0.0158984)
(0.0157074 0.0608639 -0.0187137)
(0.0149278 0.0749183 -0.0217838)
(0.014511 0.0993376 -0.0256446)
(0.0141891 0.140209 -0.0307958)
(0.0130244 0.207344 -0.0357317)
(0.0099237 0.332203 -0.0303325)
(0.00705989 0.49589 -0.0167516)
(0.0020522 0.517662 -0.00358331)
(-0.00222217 -0.223276 0.0250561)
(-0.00571368 -0.333197 0.0271425)
(-0.00732251 -0.361236 0.0263053)
(-0.0080515 -0.368144 0.0261768)
(-0.00807267 -0.36511 0.0268656)
(-0.00712474 -0.35332 0.0288088)
(-0.00477128 -0.332176 0.0326831)
(-0.00053304 -0.300415 0.0384708)
(0.00584049 -0.256568 0.0443751)
(0.0137502 -0.202258 0.0473233)
(0.0217459 -0.144309 0.0450805)
(0.0281626 -0.0925381 0.037911)
(0.0318526 -0.0539411 0.0284141)
(0.0328598 -0.0287718 0.019525)
(0.0321977 -0.0124609 0.0126691)
(0.0308967 -9.59264e-05 0.00791621)
(0.0297837 0.0116708 0.00501434)
(0.0293623 0.0246117 0.00381789)
(0.029497 0.0378444 0.00382099)
(0.0294877 0.047444 0.00353437)
(0.0290606 0.053352 0.00227693)
(0.0282359 0.0574866 7.39172e-05)
(0.0271083 0.0607674 -0.00309252)
(0.0258573 0.0637771 -0.00706218)
(0.0245811 0.0672114 -0.0115335)
(0.023317 0.071818 -0.0162365)
(0.022004 0.0785733 -0.0210718)
(0.0206191 0.0886691 -0.0258267)
(0.0192135 0.103651 -0.0299922)
(0.017745 0.127783 -0.0330092)
(0.0159321 0.172639 -0.0343939)
(0.0128222 0.259227 -0.0350491)
(0.0052997 0.400948 -0.0313126)
(0.00155299 0.547303 -0.0185452)
(-0.000215463 0.548087 -0.00561349)
(-0.00413446 -0.22993 0.0233833)
(-0.00641625 -0.382197 0.025071)
(-0.00660133 -0.427796 0.0234044)
(-0.00567849 -0.443373 0.0226011)
(-0.00407791 -0.44741 0.0226185)
(-0.00188423 -0.44308 0.0234322)
(0.000934563 -0.429453 0.0252641)
(0.00471655 -0.40373 0.0286719)
(0.00986896 -0.36374 0.0341841)
(0.0165327 -0.309633 0.041302)
(0.0244218 -0.244032 0.0479428)
(0.0326401 -0.173231 0.0511656)
(0.0397738 -0.106712 0.0488758)
(0.0443205 -0.0539027 0.0414553)
(0.0455213 -0.0192548 0.0319673)
(0.044111 0.000707835 0.0236848)
(0.0412905 0.013107 0.0177947)
(0.0379841 0.0230599 0.0141725)
(0.0349067 0.0330091 0.012519)
(0.0322939 0.0434978 0.0123733)
(0.0300168 0.0531066 0.0126735)
(0.0279665 0.0600349 0.0122344)
(0.0259626 0.0650478 0.0108257)
(0.0238707 0.0694281 0.00849122)
(0.0218192 0.0741355 0.00533901)
(0.0197979 0.0804299 0.00133792)
(0.0178312 0.0897963 -0.00378515)
(0.0160854 0.103721 -0.0101238)
(0.0146079 0.124459 -0.0173778)
(0.0133176 0.156973 -0.0247363)
(0.0120017 0.215144 -0.0305964)
(0.0102572 0.327323 -0.0331288)
(0.00337874 0.48487 -0.031875)
(0.000141904 0.584845 -0.0236398)
(0.000219338 0.559953 -0.013082)
(-0.000198839 -0.20041 0.00519814)
(0.00543993 -0.354901 -0.000375706)
(0.0104627 -0.409406 -0.00462198)
(0.0146954 -0.427587 -0.00682715)
(0.0183688 -0.431814 -0.00798617)
(0.0217075 -0.427939 -0.00839535)
(0.0246435 -0.41787 -0.0079688)
(0.0273143 -0.402416 -0.00647119)
(0.0300321 -0.38043 -0.00346813)
(0.0331602 -0.348365 0.00179339)
(0.0369702 -0.30273 0.009902)
(0.0415474 -0.243782 0.020421)
(0.0466808 -0.175634 0.0316392)
(0.0516718 -0.1044 0.0403562)
(0.0551725 -0.0387554 0.0426533)
(0.0557593 0.0106686 0.0372989)
(0.0532802 0.0394807 0.0280232)
(0.0490802 0.0538212 0.0192771)
(0.0444087 0.0614259 0.0126781)
(0.0399301 0.0663908 0.00827958)
(0.0359703 0.0704183 0.00566227)
(0.0324392 0.0743649 0.00425928)
(0.029118 0.0786254 0.00353944)
(0.0258501 0.0832391 0.00301204)
(0.0225517 0.0882169 0.00223194)
(0.0191858 0.0939484 0.000909918)
(0.0157484 0.101295 -0.00111699)
(0.0123286 0.111905 -0.00392843)
(0.00906785 0.128991 -0.00762878)
(0.00616743 0.159019 -0.0123444)
(0.00394882 0.217076 -0.0176051)
(0.00365667 0.337841 -0.0211016)
(0.00235697 0.52312 -0.0217171)
(0.00100087 0.603455 -0.0179917)
(0.000968889 0.563681 -0.0104472)
(0.00245979 -0.265438 0.00523034)
(0.0107173 -0.442623 -0.00556946)
(0.0165777 -0.491779 -0.0128953)
(0.0210358 -0.50372 -0.0163694)
(0.0249347 -0.50261 -0.0179513)
(0.0284784 -0.493228 -0.0181979)
(0.0314881 -0.476317 -0.0171546)
(0.0339089 -0.451311 -0.0148439)
(0.0356213 -0.41717 -0.0114957)
(0.0364375 -0.373127 -0.00780331)
(0.0362722 -0.319558 -0.00490596)
(0.0353846 -0.259459 -0.00307522)
(0.034543 -0.197314 0.000113153)
(0.0347091 -0.134805 0.00742905)
(0.0362656 -0.0714317 0.0178186)
(0.0383999 -0.0101784 0.0261261)
(0.0395291 0.0398175 0.0273265)
(0.0386078 0.0708243 0.0221165)
(0.0365142 0.0859066 0.015507)
(0.0342793 0.0933064 0.0100398)
(0.0318986 0.0980207 0.00570211)
(0.029362 0.101844 0.00242448)
(0.0268423 0.105565 0.000230694)
(0.0244179 0.109793 -0.00107308)
(0.0220195 0.115291 -0.00178638)
(0.0194174 0.123005 -0.00227674)
(0.0165682 0.133503 -0.00316971)
(0.0133748 0.147176 -0.00520511)
(0.00981492 0.165588 -0.00846508)
(0.00611523 0.193995 -0.012336)
(0.00281622 0.246037 -0.0160516)
(0.00139906 0.353853 -0.0174602)
(0.00227307 0.538923 -0.0138493)
(0.00266009 0.617778 -0.0101083)
(0.00155621 0.573016 -0.00390388)
(0.00329484 -0.291326 -0.0103485)
(0.00677679 -0.440261 -0.0292218)
(0.00909628 -0.472098 -0.0364016)
(0.0110555 -0.477156 -0.0391888)
(0.013086 -0.472768 -0.0402718)
(0.0152005 -0.462125 -0.0400156)
(0.0172533 -0.446011 -0.038267)
(0.0191842 -0.423952 -0.0346629)
(0.0209646 -0.39386 -0.0287103)
(0.0224824 -0.35217 -0.0204001)
(0.0233828 -0.296684 -0.0119504)
(0.0230364 -0.231923 -0.00806735)
(0.0212959 -0.169245 -0.00993747)
(0.0192071 -0.115891 -0.0120916)
(0.0180331 -0.0688634 -0.0095298)
(0.018412 -0.0220337 -0.00197336)
(0.0201824 0.0250314 0.00632294)
(0.021952 0.0630166 0.00974359)
(0.0227569 0.0842061 0.0084914)
(0.0229626 0.0947891 0.0059293)
(0.0228585 0.101755 0.00325895)
(0.0224757 0.107355 0.000784456)
(0.0219003 0.11226 -0.00108704)
(0.0211636 0.117223 -0.00215659)
(0.0203806 0.122896 -0.00244058)
(0.0195454 0.130428 -0.00201707)
(0.0185712 0.141797 -0.000949953)
(0.0174184 0.158688 -0.000250967)
(0.0158569 0.181882 -0.00211121)
(0.0137018 0.213013 -0.0070361)
(0.0112011 0.261964 -0.0127157)
(0.00899524 0.359977 -0.0157721)
(0.0068763 0.542559 -0.0110557)
(0.0058506 0.637846 -0.00545275)
(0.00303658 0.593272 0.000373141)
(0.000721416 -0.322363 -0.00945449)
(0.000117299 -0.473124 -0.0246668)
(-0.000146814 -0.503559 -0.0301992)
(-6.37501e-05 -0.50831 -0.0323946)
(0.000432511 -0.503437 -0.0331461)
(0.00128459 -0.49143 -0.0326993)
(0.00235627 -0.472596 -0.0309261)
(0.0034784 -0.446131 -0.0275256)
(0.00457514 -0.410118 -0.0221157)
(0.00573666 -0.361685 -0.0146501)
(0.00716395 -0.298868 -0.00658939)
(0.00862484 -0.225133 -0.00205192)
(0.00927413 -0.15254 -0.0045286)
(0.00889325 -0.0936386 -0.0107452)
(0.00825245 -0.0494839 -0.0147601)
(0.00814041 -0.012831 -0.0143721)
(0.00913225 0.0223869 -0.0105895)
(0.0112361 0.0557028 -0.00677525)
(0.0134823 0.0809241 -0.00598419)
(0.0151259 0.0957942 -0.0074608)
(0.0162728 0.104853 -0.00952486)
(0.0171766 0.111851 -0.0116079)
(0.0179444 0.118083 -0.0133676)
(0.0185501 0.123984 -0.0144232)
(0.0190077 0.130135 -0.0146156)
(0.0194039 0.137574 -0.0138865)
(0.0197759 0.148078 -0.0120099)
(0.0201718 0.164367 -0.00892445)
(0.0204693 0.189912 -0.00663977)
(0.0200653 0.228122 -0.00945592)
(0.0176334 0.286186 -0.0170415)
(0.0131766 0.393566 -0.0202055)
(0.00779015 0.57966 -0.0122465)
(0.00486258 0.668683 -0.00531358)
(0.0027196 0.621849 -0.000724071)
(0.000253043 -0.301263 -0.0192053)
(0.000127364 -0.436408 -0.0395214)
(-0.000118007 -0.465338 -0.0457817)
(-0.000346045 -0.470727 -0.0479826)
(-0.00043784 -0.466876 -0.0486141)
(-0.000356441 -0.456119 -0.0479381)
(-0.000112455 -0.439042 -0.0456676)
(0.000225484 -0.415725 -0.0412315)
(0.000670816 -0.385329 -0.0339153)
(0.0014243 -0.345168 -0.0233199)
(0.0027983 -0.291331 -0.0106736)
(0.00490937 -0.223477 -0.000357146)
(0.00713077 -0.15078 0.0023121)
(0.00858801 -0.0878287 -0.00214639)
(0.00926495 -0.0411724 -0.00778287)
(0.00978221 -0.00658869 -0.010837)
(0.0106016 0.0224914 -0.0110452)
(0.012008 0.0493907 -0.0097453)
(0.0139932 0.072953 -0.00900011)
(0.0160899 0.0903322 -0.00989067)
(0.017876 0.101645 -0.0117551)
(0.0194093 0.109822 -0.0138452)
(0.0208208 0.116849 -0.0158573)
(0.0221121 0.123446 -0.017481)
(0.023239 0.130059 -0.0184233)
(0.0242057 0.137425 -0.0185255)
(0.0250667 0.147155 -0.0175165)
(0.02576 0.16264 -0.0147631)
(0.0260376 0.190163 -0.0107075)
(0.0253219 0.241624 -0.0105649)
(0.0215893 0.329393 -0.0210196)
(0.0108603 0.459662 -0.0289846)
(0.00279389 0.634495 -0.0200559)
(0.000268257 0.698635 -0.0134928)
(0.000145073 0.6468 -0.00895643)
(0.000574353 -0.3202 -0.015519)
(0.000606318 -0.46033 -0.0291317)
(0.00062661 -0.488137 -0.0338923)
(0.000513592 -0.492502 -0.0362963)
(0.000451064 -0.487691 -0.0379503)
(0.000515341 -0.475773 -0.0391047)
(0.00070124 -0.457215 -0.0395743)
(0.000950325 -0.432407 -0.0387732)
(0.00125343 -0.40154 -0.0356353)
(0.0017753 -0.36329 -0.0286786)
(0.0029289 -0.313826 -0.0168313)
(0.0051632 -0.249369 -0.00230953)
(0.00817681 -0.173907 0.00761038)
(0.0106818 -0.10199 0.00761504)
(0.0118086 -0.0461315 0.0013193)
(0.0117383 -0.00678456 -0.00530228)
(0.0112607 0.0220669 -0.00997645)
(0.010905 0.0454952 -0.0130757)
(0.0107216 0.0656377 -0.0156167)
(0.0106097 0.082449 -0.0182705)
(0.0104465 0.0956945 -0.0209871)
(0.0102395 0.106005 -0.0234009)
(0.0100189 0.114549 -0.0252759)
(0.00978322 0.122444 -0.0264681)
(0.00950693 0.130509 -0.0267776)
(0.00912775 0.139714 -0.0259194)
(0.00857876 0.151723 -0.0233649)
(0.0077963 0.169816 -0.0184998)
(0.00669942 0.202692 -0.0113906)
(0.00527824 0.271817 -0.00640361)
(0.00444936 0.403941 -0.0147399)
(-0.00272712 0.56818 -0.0322191)
(-0.00830678 0.688507 -0.0306046)
(-0.00781912 0.720079 -0.0262111)
(-0.00417749 0.638261 -0.0196265)
(-0.000745251 -0.300803 -0.020901)
(-0.00169707 -0.427861 -0.0365506)
(-0.00166841 -0.454238 -0.0404367)
(-0.00152938 -0.459111 -0.0419765)
(-0.00126212 -0.454983 -0.0428955)
(-0.000869962 -0.443456 -0.0435517)
(-0.000418015 -0.424552 -0.0439495)
(-3.50482e-05 -0.398823 -0.0437274)
(0.00017861 -0.367916 -0.0420856)
(0.00030422 -0.332922 -0.0378341)
(0.000727762 -0.291973 -0.0293468)
(0.00212752 -0.239604 -0.015433)
(0.00499515 -0.171666 0.000621068)
(0.00849388 -0.0961698 0.0100725)
(0.0109787 -0.0308291 0.00979057)
(0.0119462 0.0163798 0.00542028)
(0.0117707 0.050302 0.00125249)
(0.0109837 0.0771631 -0.00229172)
(0.00994912 0.0996657 -0.00613586)
(0.00871955 0.117413 -0.0108616)
(0.00721911 0.129984 -0.0159555)
(0.00541194 0.138787 -0.0206298)
(0.00328547 0.145804 -0.0245242)
(0.000838634 0.152553 -0.0274868)
(-0.00193193 0.160129 -0.0293299)
(-0.00504061 0.169529 -0.0297174)
(-0.0085303 0.181978 -0.0281501)
(-0.0123279 0.199762 -0.0239815)
(-0.0160994 0.22904 -0.0166594)
(-0.0185729 0.287518 -0.00710312)
(-0.0158875 0.411662 -0.00189873)
(-0.00833296 0.604749 -0.0126158)
(-0.00586158 0.708509 -0.0241126)
(-0.00378815 0.719796 -0.0249107)
(-0.00167601 0.609214 -0.0178645)
(-0.000319632 -0.303256 -0.0212258)
(0.00156426 -0.445913 -0.0309618)
(0.00387329 -0.477769 -0.0332316)
(0.00593534 -0.484647 -0.0346023)
(0.0080051 -0.481694 -0.0360847)
(0.0100012 -0.470763 -0.0380407)
(0.0117574 -0.451537 -0.0405816)
(0.0131108 -0.424276 -0.0433537)
(0.0139531 -0.391074 -0.0453941)
(0.0143601 -0.354649 -0.0454746)
(0.0146059 -0.316078 -0.042288)
(0.0151963 -0.273015 -0.0340131)
(0.0169406 -0.218899 -0.01884)
(0.0203976 -0.148168 -0.000532118)
(0.0242807 -0.0705203 0.00944159)
(0.0264418 -0.00705052 0.00760927)
(0.026261 0.0353498 0.00184435)
(0.0247303 0.0646853 -0.00254508)
(0.0229329 0.0887535 -0.00525719)
(0.0213441 0.11082 -0.00738205)
(0.0199738 0.130925 -0.00988731)
(0.0185558 0.148207 -0.0130829)
(0.016855 0.162645 -0.0166722)
(0.014773 0.175222 -0.0202286)
(0.0122699 0.187227 -0.0234383)
(0.00930831 0.199867 -0.0260427)
(0.00582302 0.214156 -0.0277221)
(0.00178074 0.230746 -0.0279784)
(-0.00244524 0.250536 -0.026042)
(-0.00592572 0.279417 -0.0207764)
(-0.00626496 0.340887 -0.0111206)
(0.0036328 0.490311 -0.000748482)
(0.0103697 0.667952 -0.00404369)
(0.00974397 0.70875 -0.00442266)
(0.00549956 0.614517 0.000675314)
(0.000692733 -0.296085 -0.023271)
(0.00439464 -0.435573 -0.0276707)
(0.00848721 -0.467616 -0.0277469)
(0.0121344 -0.473969 -0.0283125)
(0.0157638 -0.469725 -0.0297519)
(0.0192523 -0.456404 -0.0324305)
(0.0222596 -0.433116 -0.036706)
(0.0244833 -0.400413 -0.0423097)
(0.0258367 -0.361843 -0.0479949)
(0.0264775 -0.321499 -0.0522487)
(0.0266134 -0.281729 -0.0538617)
(0.02651 -0.242511 -0.0516574)
(0.0266428 -0.20062 -0.0435538)
(0.0279572 -0.148222 -0.0266745)
(0.0312946 -0.0774722 -0.00458164)
(0.035158 0.00218248 0.0081958)
(0.0369916 0.0663156 0.00528833)
(0.0366312 0.105507 -0.00425057)
(0.0352725 0.128173 -0.012556)
(0.0337905 0.143736 -0.0184488)
(0.0326002 0.156989 -0.0228497)
(0.0318767 0.169665 -0.0265138)
(0.0316127 0.18223 -0.0298046)
(0.0316866 0.194969 -0.0328238)
(0.0319618 0.208372 -0.0355452)
(0.0323198 0.223131 -0.0378843)
(0.0326138 0.240098 -0.0397238)
(0.0325321 0.260293 -0.0408915)
(0.031342 0.284147 -0.041028)
(0.0285617 0.310353 -0.039284)
(0.0244901 0.346299 -0.0337703)
(0.0216682 0.447661 -0.016687)
(0.0190766 0.669109 0.00684802)
(0.0143783 0.747468 0.0147714)
(0.00789216 0.673935 0.0169642)
(0.000895724 -0.320493 -0.0184272)
(0.00508484 -0.474227 -0.0142784)
(0.0101223 -0.509545 -0.0117328)
(0.0149132 -0.516229 -0.0115983)
(0.0198935 -0.511161 -0.0131208)
(0.0248325 -0.495581 -0.0166567)
(0.0291261 -0.467675 -0.022879)
(0.0321659 -0.428327 -0.0313599)
(0.0338896 -0.382842 -0.0401178)
(0.0347632 -0.336118 -0.0473566)
(0.0351675 -0.290411 -0.0523029)
(0.0352073 -0.246515 -0.0547308)
(0.0348947 -0.204392 -0.0541478)
(0.0344007 -0.16129 -0.0484864)
(0.0345677 -0.10924 -0.0336551)
(0.036501 -0.0414644 -0.0119482)
(0.0391477 0.031 0.0033364)
(0.040055 0.0885768 0.0041752)
(0.0389345 0.125329 -0.00498461)
(0.0371211 0.148516 -0.0166404)
(0.0355183 0.164709 -0.0272123)
(0.0346893 0.177169 -0.0357449)
(0.0347888 0.187882 -0.0422089)
(0.0357351 0.198276 -0.047045)
(0.037429 0.209456 -0.0507319)
(0.0397257 0.222501 -0.0535817)
(0.0423613 0.239015 -0.0556975)
(0.0449408 0.262739 -0.0568363)
(0.046205 0.303036 -0.0565684)
(0.0429884 0.361243 -0.0577059)
(0.0325308 0.422517 -0.0575236)
(0.0175795 0.535322 -0.0392735)
(0.00935803 0.737095 -0.00419572)
(0.0049537 0.801256 0.00580519)
(0.00207511 0.738691 0.00601731)
(0.00117152 -0.32194 -0.0145839)
(0.0059904 -0.480376 -0.00125479)
(0.0116256 -0.51889 0.00442231)
(0.0169368 -0.526112 0.00539204)
(0.0224383 -0.519732 0.00364331)
(0.0280073 -0.499658 -0.00138991)
(0.0327369 -0.461737 -0.0112716)
(0.0355422 -0.409511 -0.0250814)
(0.0364957 -0.354227 -0.0386566)
(0.0364435 -0.302887 -0.0487937)
(0.0360412 -0.255875 -0.0545658)
(0.0355937 -0.210568 -0.0562257)
(0.0351619 -0.16479 -0.0544729)
(0.0347049 -0.117958 -0.0500975)
(0.0343138 -0.0684791 -0.0427988)
(0.034722 -0.0116323 -0.0314228)
(0.0368313 0.0531739 -0.0176219)
(0.0395654 0.116102 -0.00639026)
(0.0407686 0.162796 -0.00233658)
(0.0400508 0.18721 -0.00558206)
(0.0387214 0.198553 -0.0120948)
(0.0372319 0.204778 -0.0199227)
(0.0357104 0.209117 -0.0283663)
(0.0345813 0.213536 -0.036266)
(0.0341068 0.219832 -0.0426899)
(0.0342568 0.229676 -0.0475146)
(0.03481 0.246039 -0.0509761)
(0.0352227 0.277566 -0.0529713)
(0.0345689 0.346052 -0.0540298)
(0.0307039 0.45971 -0.0613345)
(0.0170688 0.567982 -0.0708475)
(-0.000130376 0.678772 -0.0592012)
(-0.00653735 0.800418 -0.0354165)
(-0.00703647 0.831815 -0.0270516)
(-0.00464455 0.740101 -0.0231353)
(0.0010999 -0.344295 -0.000411524)
(0.00655305 -0.527224 0.0230529)
(0.0123694 -0.572729 0.0309533)
(0.017823 -0.581265 0.0326016)
(0.0233794 -0.573652 0.0310668)
(0.0291 -0.548337 0.0255065)
(0.0340673 -0.497881 0.0130859)
(0.0369237 -0.429974 -0.00541177)
(0.0378536 -0.3626 -0.024118)
(0.0377673 -0.304232 -0.0389161)
(0.0371432 -0.254773 -0.0488416)
(0.036081 -0.211351 -0.0539999)
(0.0345014 -0.170935 -0.0543676)
(0.0321273 -0.130716 -0.0498939)
(0.0283493 -0.0876084 -0.0413985)
(0.0225955 -0.0384649 -0.0324716)
(0.0160922 0.0152626 -0.0254213)
(0.0115748 0.0729429 -0.0170873)
(0.0101456 0.128521 -0.00992524)
(0.0106334 0.171126 -0.00489931)
(0.0115956 0.200051 -0.00288761)
(0.0120643 0.21832 -0.00461961)
(0.0118606 0.229764 -0.00937175)
(0.0109218 0.237605 -0.0160978)
(0.00916839 0.244006 -0.0236467)
(0.0069579 0.25175 -0.0303063)
(0.00468636 0.265583 -0.0350732)
(0.00225371 0.296864 -0.0378138)
(6.75936e-05 0.373235 -0.0395416)
(0.00034441 0.51461 -0.0475315)
(-0.00308481 0.663838 -0.0648584)
(-0.0113052 0.763208 -0.0679774)
(-0.0132501 0.825234 -0.0590108)
(-0.0110367 0.831412 -0.0528704)
(-0.00549021 0.694799 -0.0407297)
(0.000172333 -0.357125 0.00879003)
(0.00386261 -0.549122 0.0327817)
(0.00748801 -0.595506 0.0397417)
(0.0110837 -0.602775 0.0414137)
(0.0147376 -0.591173 0.0405058)
(0.0182395 -0.555342 0.03586)
(0.0205145 -0.483815 0.0233921)
(0.0205475 -0.392497 0.00309661)
(0.0190371 -0.309056 -0.017149)
(0.0170957 -0.240955 -0.0321398)
(0.014947 -0.182994 -0.0415231)
(0.0124516 -0.129009 -0.04571)
(0.00957847 -0.0749522 -0.0439696)
(0.00635976 -0.0175389 -0.035371)
(0.00273235 0.0470767 -0.0221076)
(-0.000986216 0.119369 -0.018471)
(-0.00509478 0.177696 -0.0412466)
(-0.00911663 0.199275 -0.0600499)
(-0.0112987 0.206007 -0.06238)
(-0.0125941 0.212057 -0.0592085)
(-0.0133392 0.220845 -0.0527094)
(-0.0135448 0.233294 -0.043791)
(-0.0135545 0.248837 -0.0344462)
(-0.013871 0.265988 -0.0274159)
(-0.0149063 0.283413 -0.0245183)
(-0.0168955 0.300902 -0.0255227)
(-0.0198069 0.320537 -0.0285509)
(-0.023162 0.350058 -0.0312646)
(-0.0254906 0.409146 -0.0321601)
(-0.0229286 0.525892 -0.0333575)
(-0.0153338 0.687255 -0.0418968)
(-0.0104747 0.803772 -0.0523651)
(-0.0077726 0.840396 -0.0544952)
(-0.00520077 0.830418 -0.0516755)
(-0.00204895 0.665489 -0.0359135)
(0.00258119 -0.393518 0.0192824)