/*--------------------------------*- C++ -*----------------------------------*\
| =========                 |                                                 |
| \\      /  F ield         | OpenFOAM: The Open Source CFD Toolbox           |
|  \\    /   O peration     | Version:  v2006                                 |
|   \\  /    A nd           | Website:  www.openfoam.com                      |
|    \\/     M anipulation  |                                                 |
\*---------------------------------------------------------------------------*/
FoamFile
{
    version     2.0;
    format      ascii;
    class       volScalarField;
    location    "54";
    object      alphat;
}
// * * * * * * * * * * * * * * * * * * * * * * * * * * * * * * * * * * * * * //

dimensions      [1 -1 -1 0 0 0 0];


internalField   nonuniform List<scalar> 
78750
(
1.43555e-05
3.0262e-05
9.87292e-05
8.70592e-05
0.000101496
0.000106495
0.000115326
0.000131637
0.000153204
0.000174107
0.000191984
0.000201978
0.000206559
0.000207518
0.000206548
0.000205114
0.000204463
0.000202044
0.000200083
0.000197474
0.00019677
0.000196001
0.000196547
0.000201629
0.000216848
0.000243406
0.000271031
0.000278134
0.000264427
0.000246361
0.000224235
0.000252138
0.000170368
8.16692e-05
3.01013e-05
1.76574e-05
0.000104736
4.27375e-05
6.36595e-05
0.000115839
0.000123934
8.05385e-05
6.07684e-05
6.25096e-05
7.86484e-05
0.000101737
0.000126097
0.000151201
0.000176741
0.000200898
0.000223511
0.000247159
0.000274687
0.000307294
0.000344658
0.000386021
0.000429961
0.000470063
0.000494644
0.000495794
0.000476734
0.000443521
0.000397265
0.000338144
0.000269951
0.000209204
0.000171111
0.000162307
0.000130186
1.89982e-05
3.02882e-06
5.72567e-05
1.68802e-05
2.88633e-05
5.61984e-05
8.1626e-05
0.000124407
0.000187947
0.000218454
0.000209069
0.000192957
0.000187929
0.000199021
0.000222418
0.000251919
0.000284057
0.000318883
0.000356676
0.000395499
0.000431919
0.000463445
0.000493079
0.000528614
0.000577931
0.000627515
0.000625701
0.000622059
0.000616434
0.000608918
0.000599865
0.000544618
0.000405908
0.000333962
0.000264189
1.51388e-05
1.59758e-05
6.91204e-05
6.55916e-05
7.86949e-05
8.06319e-05
0.000113643
0.000168711
0.000230708
0.000271577
0.000288495
0.000305192
0.000338638
0.000383734
0.000416176
0.000418921
0.000395816
0.000360709
0.000328614
0.000308388
0.000300051
0.000299872
0.000305391
0.000316221
0.000332688
0.000354248
0.000377379
0.000391829
0.000381518
0.000338459
0.000274871
0.000213848
0.000170812
0.000139771
7.54351e-05
6.7655e-06
1.4556e-05
9.30324e-05
0.000228831
0.00031377
0.00031816
0.000333256
0.000378125
0.000422497
0.000450408
0.000467121
0.000479756
0.000490063
0.000495977
0.000495279
0.000486935
0.000473981
0.000459729
0.000446107
0.000433007
0.000419304
0.000404837
0.000390513
0.000376547
0.00036195
0.000345405
0.00032599
0.000303499
0.000278289
0.000250779
0.000221265
0.000190338
0.000156775
0.000112438
5.41856e-05
3.90547e-06
5.89845e-06
5.74975e-05
4.85109e-05
2.2183e-05
2.42904e-05
4.25454e-05
7.40643e-05
0.000118925
0.000164179
0.000197543
0.00021457
0.000216372
0.000213184
0.000213477
0.000217967
0.000221599
0.000219779
0.00021307
0.00020465
0.000196458
0.000189028
0.000182497
0.000176929
0.000172303
0.000168494
0.000165385
0.000162759
0.000160378
0.000157975
0.000154948
0.000150388
0.000143271
0.000131618
0.000105132
5.17951e-06
8.88604e-06
7.15876e-05
7.02455e-05
6.08156e-05
6.674e-05
9.45651e-05
0.00015373
0.000232114
0.000260612
0.000212617
0.000148604
0.000103705
7.65928e-05
5.95957e-05
5.79161e-05
7.60322e-05
0.000107693
0.000136998
0.000152446
0.000156931
0.000153828
0.00014504
0.000132411
0.000118501
0.000106057
9.71346e-05
9.17693e-05
8.76749e-05
8.25654e-05
7.56114e-05
6.7471e-05
5.92992e-05
5.11743e-05
4.22034e-05
2.84637e-06
3.20244e-06
3.29824e-05
5.64379e-05
8.6075e-05
0.000145548
0.000276011
0.000400315
0.000376966
0.000302545
0.000260004
0.000254974
0.000263659
0.000278756
0.000309264
0.000356681
0.000409221
0.000455054
0.000493457
0.000523937
0.00053294
0.000496126
0.000405117
0.000294
0.000210142
0.000168589
0.000163133
0.000182761
0.000208399
0.000220971
0.000203554
0.000151286
0.000102171
6.68204e-05
3.13809e-05
2.49605e-06
3.61749e-06
5.25405e-05
8.35944e-05
0.000115294
0.000156522
0.0002185
0.000320346
0.000469093
0.000515962
0.000526208
0.00053736
0.000549365
0.00056198
0.000574806
0.000587085
0.000598055
0.000607148
0.000614149
0.000619152
0.000622455
0.000624463
0.000625611
0.000613558
0.000538645
0.000473696
0.000426814
0.00037891
0.000283635
0.00016811
0.000108732
9.53055e-05
0.000120347
0.000210304
0.000117688
5.70238e-06
4.34884e-06
6.33246e-05
9.08797e-05
0.000131329
0.000188406
0.000263003
0.000358346
0.000461893
0.000534522
0.000555854
0.000546089
0.000533059
0.000529909
0.00053566
0.000546364
0.000558732
0.000569781
0.000577072
0.000578738
0.000573556
0.000561044
0.000541454
0.000515535
0.000483876
0.000446035
0.0003989
0.000334737
0.000247335
0.000164084
0.000117935
0.000105323
0.000117205
0.000140297
9.88961e-05
5.5318e-06
4.8744e-06
8.10912e-05
6.24804e-05
7.26029e-05
9.63047e-05
0.00013213
0.000184507
0.000258309
0.000350327
0.000439541
0.000497002
0.000516059
0.000512545
0.00050218
0.000492138
0.000483371
0.00047501
0.000465792
0.00045404
0.00043799
0.000416008
0.000386948
0.000350706
0.000308888
0.000265138
0.000224723
0.000192993
0.00017401
0.000170344
0.000182454
0.000202418
0.000215438
0.000199694
8.48644e-05
4.22478e-06
8.52411e-06
0.000159054
0.000162328
0.000120209
9.6633e-05
9.29897e-05
0.000102632
0.000122354
0.000152293
0.000196029
0.000258915
0.000341274
0.000425949
0.000485599
0.000511827
0.000514427
0.000503535
0.000484512
0.000459422
0.000428719
0.000392624
0.000352358
0.000311142
0.000273858
0.000245625
0.000230386
0.000230376
0.000245429
0.000271775
0.000300931
0.000323432
0.000333919
0.00028896
0.000108528
3.67265e-06
1.16121e-05
0.00017431
0.000191922
0.000180887
0.00017333
0.000165132
0.000156936
0.000152902
0.000155543
0.000166091
0.000186322
0.000218856
0.000265726
0.000324858
0.00038682
0.000437851
0.00046694
0.000471132
0.000454396
0.000424389
0.000390454
0.000360851
0.000340843
0.000333361
0.000341
0.000367782
0.000411553
0.000433811
0.000418392
0.000402405
0.000386004
0.00036889
0.000271797
9.62396e-05
3.43717e-06
1.20328e-05
0.000166509
0.000175664
0.000194671
0.000227262
0.000234677
0.000212249
0.000183961
0.000163344
0.000152042
0.000148431
0.000150942
0.000158545
0.000170687
0.000187283
0.000208692
0.000234499
0.000264408
0.000299344
0.000339268
0.000381378
0.000418832
0.00044233
0.000445001
0.000421595
0.000374813
0.000327221
0.000301408
0.000300745
0.000312619
0.000316263
0.000300143
0.000273916
0.000193893
3.24156e-06
1.02246e-05
0.000106476
0.000133263
0.000167834
0.000196705
0.000193651
0.000175472
0.00015494
0.000139024
0.00012925
0.000124973
0.000125437
0.000130175
0.000138915
0.000151423
0.000167582
0.000187224
0.000209571
0.000232058
0.000252471
0.000271162
0.000287889
0.000301318
0.000310634
0.000316921
0.000323104
0.000336294
0.000366503
0.000415553
0.000453061
0.000447023
0.000404436
0.0003172
0.000150863
4.70729e-06
9.65671e-06
7.04202e-05
6.90644e-05
9.19054e-05
0.000131892
0.000147684
0.00013422
0.000112089
9.4874e-05
8.33673e-05
7.55892e-05
7.04627e-05
6.75047e-05
6.64642e-05
6.72377e-05
6.99004e-05
7.46317e-05
8.17185e-05
9.17863e-05
0.000106025
0.000125683
0.000152494
0.000190538
0.000239735
0.000291776
0.000330577
0.000328704
0.000276977
0.000197469
0.000133499
0.000111781
0.000128232
0.000153737
8.82815e-05
1.36105e-06
9.66464e-06
3.61603e-05
3.67278e-05
4.2665e-05
5.86829e-05
8.4523e-05
0.000110057
0.000124106
0.000128384
0.000128005
0.000125546
0.000121768
0.000116898
0.000111077
0.000104343
9.66891e-05
8.83461e-05
7.97576e-05
7.13421e-05
6.37559e-05
5.71223e-05
5.08855e-05
4.63727e-05
4.34027e-05
3.9976e-05
3.55918e-05
2.90542e-05
2.75007e-05
4.0956e-05
7.56969e-05
9.77868e-05
7.04932e-05
5.56229e-05
5.98788e-05
2.05821e-06
5.07144e-06
1.50885e-05
3.51407e-05
7.97392e-05
0.000139405
0.000162426
0.000171287
0.000180049
0.000189717
0.000198669
0.000205513
0.000210032
0.00021274
0.000213662
0.000212126
0.000208533
0.000206146
0.000207526
0.000212748
0.00021962
0.000223219
0.000217666
0.000198067
0.000167539
0.000137615
0.000116452
0.000101365
9.14907e-05
9.6608e-05
0.000123354
0.000148263
0.00011327
6.85782e-05
5.91163e-05
2.78574e-06
1.02748e-05
6.94489e-05
0.000234616
0.00028153
0.000319833
0.000343607
0.000345438
0.00033548
0.000320234
0.000300423
0.000275788
0.000248155
0.000220327
0.000193351
0.000167594
0.000145399
0.000130251
0.00012437
0.000128125
0.000139984
0.000154297
0.00016052
0.000148733
0.00011611
7.69232e-05
5.10583e-05
4.04667e-05
4.0178e-05
4.99944e-05
7.40725e-05
9.31013e-05
8.00755e-05
7.06978e-05
6.99894e-05
5.43378e-06
1.14515e-05
6.6022e-05
0.000130025
0.000161651
0.000181689
0.000194619
0.000199707
0.00019777
0.000189417
0.000175828
0.000160632
0.000148674
0.000143059
0.000144704
0.000153027
0.000166253
0.000181938
0.000198667
0.000218039
0.000240713
0.00024871
0.000203112
0.000129995
8.28315e-05
5.74089e-05
4.17398e-05
3.39279e-05
3.31133e-05
3.67911e-05
4.31293e-05
5.999e-05
0.000102108
0.000124136
6.00276e-05
4.79831e-06
1.16436e-05
0.000103846
0.000265959
0.000272432
0.000269242
0.000265371
0.000256859
0.000238082
0.000208186
0.000175319
0.000150582
0.000139025
0.000140224
0.000152214
0.000172546
0.000196097
0.000211791
0.000205258
0.000173187
0.000132477
0.000101197
8.33918e-05
7.53356e-05
7.22679e-05
6.90754e-05
6.13882e-05
4.93776e-05
3.81396e-05
3.25989e-05
4.05366e-05
7.17075e-05
9.71846e-05
0.00010834
0.000107051
4.51993e-06
1.11928e-05
8.85846e-05
0.000208962
0.000229578
0.000228614
0.000219438
0.000204043
0.000183459
0.000161139
0.000143204
0.000134045
0.0001338
0.000140112
0.000151015
0.000165862
0.000182424
0.000191551
0.000177166
0.000136994
9.75706e-05
7.74069e-05
7.57358e-05
8.51039e-05
9.57842e-05
0.000100052
9.55481e-05
8.32611e-05
6.50231e-05
4.28098e-05
1.81547e-05
8.14301e-06
2.26178e-05
6.78568e-05
8.1779e-05
5.9591e-06
1.17343e-05
0.000106309
0.000256081
0.000261024
0.000245742
0.000225338
0.000202999
0.000179586
0.000157624
0.000140987
0.000131776
0.000129361
0.000132156
0.000139911
0.000154542
0.000178585
0.000210754
0.000237819
0.000230611
0.000170245
0.000102926
6.85903e-05
6.12242e-05
7.06825e-05
8.86465e-05
0.000105345
0.000111304
9.92699e-05
6.6545e-05
2.88782e-05
1.19374e-05
2.07848e-05
7.94061e-05
4.82461e-05
4.46135e-06
1.10787e-05
9.80994e-05
0.000234802
0.000240191
0.00022485
0.00020346
0.00018074
0.000158086
0.00013707
0.000121158
0.000113575
0.000115411
0.000126096
0.000144073
0.00016698
0.000191817
0.00021438
0.00022775
0.00022347
0.000197932
0.000157066
0.000115366
8.6089e-05
7.15352e-05
6.73778e-05
6.86243e-05
7.31112e-05
7.96806e-05
7.83033e-05
4.68493e-05
1.72367e-05
1.38985e-05
3.65125e-05
0.000106539
5.85626e-06
1.09704e-05
8.11555e-05
0.000232593
0.000249569
0.000233095
0.000208974
0.00018824
0.000174345
0.000163992
0.000152514
0.000139153
0.000127713
0.000122436
0.00012519
0.000136479
0.000157191
0.000188815
0.000230432
0.000270277
0.000280983
0.000245449
0.000189168
0.000146082
0.00012332
0.0001108
8.82065e-05
4.70201e-05
1.52536e-05
6.13849e-06
1.42177e-05
2.67037e-05
5.1486e-05
0.000104488
4.77121e-05
4.58341e-06
1.12128e-05
9.07953e-05
0.000233391
0.000228259
0.000191049
0.000152816
0.000128253
0.000116474
0.000110592
0.000106199
0.000104766
0.000110286
0.00012508
0.000147924
0.000174595
0.000201922
0.000229961
0.000256709
0.000271786
0.000263968
0.000237932
0.000210977
0.000195368
0.000191263
0.000186205
0.000156859
9.70992e-05
4.38067e-05
1.88945e-05
1.63574e-05
3.44137e-05
6.72827e-05
6.58851e-05
2.88932e-05
1.66436e-06
1.05437e-05
6.21443e-05
0.000189529
0.000206592
0.00018168
0.00014624
0.000123289
0.000120119
0.000131237
0.000143009
0.000139183
0.000120887
0.000104716
9.97506e-05
0.000105612
0.000119122
0.000137699
0.000160594
0.000187585
0.000215112
0.000234583
0.00023881
0.000231005
0.000221298
0.000215164
0.000210233
0.000199284
0.000171727
0.000126684
9.37282e-05
9.75162e-05
0.000151437
0.000193313
0.00010562
1.88802e-06
1.10483e-05
6.20548e-05
0.000171177
0.000181553
0.000149669
0.000108661
8.29634e-05
7.58638e-05
8.22178e-05
9.72271e-05
0.000114871
0.000127266
0.000130823
0.000130457
0.000132262
0.000138383
0.000149106
0.000164725
0.0001855
0.000209978
0.00023236
0.000244221
0.000244128
0.000242365
0.000250205
0.000268244
0.000285756
0.00029189
0.000285611
0.000271207
0.000249348
0.000211849
0.000158713
0.000124346
3.61686e-06
1.11006e-05
5.73478e-05
0.000158479
0.000168633
0.000144097
0.000109747
8.5738e-05
7.85302e-05
8.53974e-05
0.000101691
0.000118665
0.000124639
0.000117579
0.000108267
0.000105093
0.000107779
0.000114104
0.000124964
0.000141721
0.000164807
0.00019379
0.000226812
0.000259811
0.000286423
0.000300786
0.000302174
0.000296549
0.000291197
0.000284905
0.000255255
0.000171072
9.70425e-05
7.942e-05
0.00011205
5.15789e-06
1.11891e-05
5.94657e-05
0.000153995
0.0001616
0.000139949
0.00010797
8.18031e-05
6.91234e-05
6.89237e-05
7.93178e-05
9.76869e-05
0.000116029
0.000123095
0.000120196
0.000117905
0.000118467
0.000122255
0.000133292
0.000152275
0.000176955
0.000204348
0.000231133
0.00025469
0.00027444
0.000291697
0.000307354
0.000317641
0.000311605
0.000272723
0.000185954
9.39111e-05
6.20685e-05
7.22711e-05
0.000134657
6.00854e-06
1.11773e-05
6.29721e-05
0.000159936
0.000169581
0.000156338
0.000132128
0.000103869
8.08412e-05
6.79094e-05
6.47602e-05
6.94097e-05
7.82687e-05
8.46448e-05
8.40566e-05
7.99369e-05
7.95413e-05
9.2517e-05
0.000124133
0.000172682
0.000225639
0.000267971
0.00029324
0.000303017
0.000303023
0.000298875
0.000292242
0.000277152
0.000240965
0.000173285
9.373e-05
5.60903e-05
5.74558e-05
9.5405e-05
0.000136727
6.47094e-06
1.08512e-05
6.21305e-05
0.000169959
0.000195648
0.000190589
0.000171101
0.000139592
0.000104338
7.68589e-05
6.0802e-05
5.46283e-05
5.6531e-05
6.35846e-05
6.83278e-05
6.47175e-05
5.61474e-05
5.25118e-05
6.63358e-05
0.000101786
0.000159199
0.000224294
0.000273221
0.000294188
0.000288137
0.000259996
0.000218235
0.000173567
0.000132035
9.55696e-05
7.0959e-05
6.73002e-05
9.37682e-05
0.000163194
9.39874e-05
5.57478e-06
1.08665e-05
6.0455e-05
0.000180898
0.000216724
0.000212824
0.000197398
0.000176037
0.00014756
0.000112468
7.9675e-05
5.73001e-05
4.68968e-05
4.72016e-05
5.59813e-05
6.65415e-05
6.77355e-05
6.08389e-05
5.52849e-05
6.15783e-05
8.74515e-05
0.000139281
0.000214082
0.000277657
0.000292211
0.000258771
0.000200864
0.000146324
0.00010963
9.05698e-05
8.76144e-05
0.000106448
0.000156825
0.000197807
6.35321e-05
3.92856e-06
1.10019e-05
5.7413e-05
0.000174336
0.000214254
0.00020533
0.000186346
0.000170285
0.000162084
0.000156067
0.000134564
9.24407e-05
5.84454e-05
4.47195e-05
4.58774e-05
5.70109e-05
7.27245e-05
8.16938e-05
7.47655e-05
5.99064e-05
5.09428e-05
5.74853e-05
7.88753e-05
0.000117535
0.000169301
0.000210671
0.00021986
0.000201854
0.000174315
0.000154009
0.000153544
0.000182235
0.000230455
0.000224174
6.55193e-05
3.30781e-06
1.15474e-05
5.78655e-05
0.000169036
0.000200672
0.000186334
0.000159355
0.000131459
0.000113346
0.000110155
0.000117608
0.000113051
7.66446e-05
4.81546e-05
4.13593e-05
5.02271e-05
7.17456e-05
0.000101342
0.000125437
0.000127125
0.00010645
7.9127e-05
6.20353e-05
6.28249e-05
7.84394e-05
0.000106219
0.000141877
0.000173463
0.000189177
0.000192532
0.000198047
0.000214876
0.00023344
0.000217396
8.13847e-05
3.83445e-06
1.22986e-05
6.96452e-05
0.000188607
0.000208192
0.000189883
0.000161049
0.00012908
0.000101762
8.65596e-05
8.42037e-05
8.65519e-05
7.79375e-05
6.0139e-05
5.21545e-05
5.95887e-05
8.16399e-05
0.000114842
0.000149069
0.000167946
0.000161578
0.000133769
9.96908e-05
7.47984e-05
6.17223e-05
5.55734e-05
5.8595e-05
7.29989e-05
9.81284e-05
0.000128944
0.000158567
0.000182516
0.000196524
0.00018961
8.95623e-05
4.95008e-06
1.2513e-05
9.24831e-05
0.000210203
0.000197647
0.000165904
0.000132258
0.000103446
8.12879e-05
6.66513e-05
5.95689e-05
5.8505e-05
6.34292e-05
7.69512e-05
9.88097e-05
0.000122041
0.000140215
0.000150151
0.000151013
0.000144749
0.000135252
0.000125024
0.000104369
5.73499e-05
3.45562e-05
3.89531e-05
5.84408e-05
8.63811e-05
0.000117174
0.000146427
0.000171225
0.000189627
0.000198248
0.000183876
7.35111e-05
5.22008e-06
1.18945e-05
9.56044e-05
0.000201605
0.000180737
0.000144297
0.000112927
9.07393e-05
7.56881e-05
6.73407e-05
6.70556e-05
7.54713e-05
9.11774e-05
0.000108974
0.000123673
0.000136484
0.000150343
0.000164579
0.000173053
0.000163771
0.00012449
6.94625e-05
4.05286e-05
4.22055e-05
6.53104e-05
9.9159e-05
0.000124014
0.000138017
0.000148016
0.000158355
0.000169507
0.000178661
0.00017876
0.000145935
4.87083e-05
4.0103e-06
1.15281e-05
8.63185e-05
0.000205305
0.000185724
0.000145778
0.000116988
0.000102321
9.44726e-05
8.90509e-05
8.63702e-05
8.67101e-05
8.9605e-05
9.60544e-05
0.000107019
0.000121846
0.000139561
0.000159266
0.000174706
0.000164803
0.00011392
5.92587e-05
3.54028e-05
3.7899e-05
6.30438e-05
0.000111422
0.000156908
0.000173292
0.000172541
0.000169385
0.00016906
0.000169612
0.000162541
0.000124071
4.199e-05
3.018e-06
1.14199e-05
7.64243e-05
0.000202431
0.000195599
0.000157565
0.00012801
0.000119256
0.000123319
0.000123839
0.00011161
9.49361e-05
8.40902e-05
8.2576e-05
9.03986e-05
0.000105943
0.000125567
0.000144223
0.000156767
0.000159158
0.000149051
0.000121096
7.4446e-05
4.15783e-05
3.54619e-05
4.83473e-05
7.7152e-05
0.000116883
0.000152656
0.000172767
0.000179433
0.000177666
0.00016566
0.000129302
5.02012e-05
3.05716e-06
1.1766e-05
7.63292e-05
0.000200303
0.00020007
0.000159997
0.000121158
0.000105692
0.000113542
0.000137526
0.000158877
0.00015366
0.000125347
9.84257e-05
8.52206e-05
8.65138e-05
0.00010056
0.000123859
0.000149538
0.000169117
0.000176887
0.000173367
0.000161645
0.000132678
8.44343e-05
5.16616e-05
4.24542e-05
5.01577e-05
7.22918e-05
0.000105431
0.000137949
0.00015627
0.000156702
0.000135563
6.37232e-05
3.78167e-06
1.18535e-05
8.3846e-05
0.000206662
0.000196894
0.000153773
0.000115705
9.96934e-05
0.00010543
0.000131885
0.000175156
0.00021477
0.000215992
0.000171117
0.000121254
9.36138e-05
8.75882e-05
9.81592e-05
0.000121213
0.000151384
0.000181163
0.000202585
0.000211007
0.000206188
0.000184615
0.000138511
8.3907e-05
5.14037e-05
4.33972e-05
5.33074e-05
7.74498e-05
0.00010797
0.000129533
0.000130807
7.11128e-05
4.49145e-06
1.16609e-05
8.24836e-05
0.000201204
0.000192723
0.000153301
0.000117443
0.000101504
0.000104468
0.000123814
0.000158015
0.000201452
0.000238221
0.000242017
0.000197783
0.000138884
0.000102898
9.25349e-05
0.000101203
0.00012382
0.000155592
0.00019024
0.000219557
0.000235196
0.000231478
0.000203601
0.000147458
8.2395e-05
4.61699e-05
3.69652e-05
4.52497e-05
6.85974e-05
0.000101993
0.000121958
6.11637e-05
4.49734e-06
1.11243e-05
7.05833e-05
0.000184911
0.000186252
0.000155227
0.000117878
9.56477e-05
9.31359e-05
0.000107967
0.0001386
0.00018272
0.000232839
0.000273208
0.00028005
0.000234793
0.000164973
0.000118413
0.000102857
0.000110518
0.000135279
0.000171584
0.000210947
0.000240857
0.000249171
0.000228355
0.000172575
9.48027e-05
4.64279e-05
3.18185e-05
3.62132e-05
5.71679e-05
9.46759e-05
0.00011629
4.42032e-05
3.83152e-06
1.12223e-05
6.80797e-05
0.000182498
0.000186186
0.000158376
0.000120827
9.23147e-05
8.26853e-05
9.11961e-05
0.000116594
0.000158592
0.000214099
0.000273133
0.000318372
0.000326844
0.00027879
0.000197476
0.00013863
0.000116418
0.000122541
0.000149455
0.000188654
0.000225376
0.000242271
0.000229327
0.000182003
0.000107
5.05563e-05
3.07304e-05
3.27887e-05
5.39299e-05
9.39174e-05
0.000108218
3.4523e-05
3.27487e-06
1.13687e-05
7.30713e-05
0.000193831
0.000185898
0.000149023
0.000113614
9.14462e-05
8.42074e-05
9.19102e-05
0.000115466
0.000156132
0.000212913
0.000279214
0.000341409
0.00038057
0.000374903
0.000311974
0.000221565
0.000156383
0.000130084
0.000134435
0.000159958
0.000193397
0.000216369
0.000215465
0.000186058
0.00012817
6.69007e-05
3.61248e-05
3.09831e-05
4.66045e-05
8.57366e-05
0.000102208
3.12022e-05
3.13502e-06
1.15012e-05
7.75506e-05
0.000194951
0.000174734
0.000132589
0.000100831
8.68232e-05
8.68247e-05
9.81818e-05
0.000120926
0.000155924
0.00020284
0.000258881
0.000317789
0.000368432
0.00039362
0.00037404
0.000306432
0.000222997
0.000163751
0.00013896
0.000142086
0.000162879
0.000186538
0.000197261
0.000186024
0.000149116
9.32526e-05
4.98823e-05
3.39512e-05
3.94014e-05
6.98561e-05
0.000101167
3.14068e-05
3.29889e-06
1.11821e-05
7.36741e-05
0.000175806
0.000158802
0.000122514
9.39666e-05
8.14559e-05
8.30444e-05
9.613e-05
0.000119155
0.000151143
0.000191075
0.000237399
0.000287397
0.000335616
0.000371726
0.000380568
0.000349854
0.000285498
0.00021591
0.000168038
0.00014844
0.000151709
0.000167392
0.000181391
0.000181167
0.000159328
0.000114493
6.56834e-05
3.97562e-05
3.67149e-05
5.73061e-05
9.97934e-05
3.25205e-05
3.56676e-06
1.09368e-05
6.81386e-05
0.00016817
0.000164809
0.000138858
0.000107859
8.41022e-05
7.33326e-05
7.55759e-05
8.9752e-05
0.000115054
0.00015043
0.000193977
0.000242814
0.000292641
0.00033621
0.000362299
0.000358927
0.000322207
0.000264521
0.000209526
0.000174225
0.000161557
0.000165767
0.000175811
0.000178266
0.000162368
0.000123348
7.416e-05
4.34132e-05
3.6217e-05
5.21395e-05
9.82899e-05
3.2342e-05
3.7692e-06
1.07635e-05
6.48928e-05
0.000172034
0.000180044
0.00016024
0.000131267
0.00010096
7.74143e-05
6.5647e-05
6.64135e-05
7.92212e-05
0.000104065
0.000141067
0.000189103
0.00024425
0.000298613
0.000340333
0.000356759
0.000341451
0.00030035
0.000250387
0.000209397
0.00018629
0.000180143
0.000182919
0.000181826
0.000164233
0.000124086
7.45048e-05
4.34583e-05
3.57704e-05
5.10399e-05
9.76175e-05
3.0199e-05
3.85542e-06
1.09261e-05
6.51889e-05
0.000181019
0.000191374
0.000168729
0.000141394
0.000118107
9.76597e-05
7.8866e-05
6.59419e-05
6.32262e-05
7.22517e-05
9.38827e-05
0.000129329
0.000178382
0.000236039
0.000290254
0.000325143
0.000330679
0.000309669
0.000274881
0.000240882
0.000217112
0.000205341
0.000200132
0.000190766
0.000165762
0.000120654
7.12714e-05
4.2331e-05
3.58677e-05
5.24667e-05
9.70458e-05
2.72054e-05
3.84209e-06
1.10999e-05
6.62785e-05
0.000180629
0.000186711
0.000159342
0.000129313
0.000110668
0.000103901
0.000100808
9.1188e-05
7.62452e-05
6.67596e-05
6.94662e-05
8.70667e-05
0.000121308
0.00017068
0.000225992
0.000271513
0.00029471
0.000294701
0.000279889
0.000260694
0.000244216
0.000231985
0.000220001
0.000200497
0.000165529
0.000114912
6.73631e-05
4.18076e-05
3.75451e-05
5.69889e-05
9.67409e-05
2.49369e-05
3.77923e-06
1.12274e-05
6.6003e-05
0.000174378
0.000179175
0.000154307
0.000123633
0.000100388
9.00716e-05
9.19583e-05
0.000100359
0.000101618
8.59639e-05
6.7736e-05
6.38575e-05
7.97644e-05
0.000116741
0.000169871
0.000224932
0.000266607
0.000288583
0.000293542
0.000287388
0.000275138
0.000258878
0.000237234
0.000206055
0.000161149
0.000107185
6.35811e-05
4.22739e-05
4.12205e-05
6.52276e-05
9.70395e-05
2.36377e-05
3.69379e-06
1.12568e-05
6.7466e-05
0.000175957
0.000178752
0.00015487
0.000127123
0.000104624
9.00375e-05
8.4146e-05
8.76406e-05
9.83007e-05
0.00010399
8.77887e-05
6.50072e-05
6.12784e-05
8.30302e-05
0.00013212
0.000201144
0.000268001
0.000312459
0.000330543
0.000328529
0.000313385
0.000289328
0.000257373
0.00021564
0.000162205
0.000104786
6.27202e-05
4.4004e-05
4.60614e-05
7.49007e-05
9.73505e-05
2.30838e-05
3.60314e-06
1.12165e-05
7.1673e-05
0.000181675
0.000179845
0.000152362
0.000123887
0.000105302
9.5887e-05
9.001e-05
8.45912e-05
8.20717e-05
8.42613e-05
8.50266e-05
7.59415e-05
6.83873e-05
8.05688e-05
0.000122185
0.000193454
0.000273942
0.000332437
0.000356416
0.000353895
0.000335545
0.000307159
0.000270266
0.000223572
0.000166172
0.000106941
6.47426e-05
4.67056e-05
5.07267e-05
8.24546e-05
9.61604e-05
2.2743e-05
3.52253e-06
1.10366e-05
7.43729e-05
0.000180733
0.000176549
0.000146959
0.00011649
9.78327e-05
9.11325e-05
8.97364e-05
8.42443e-05
7.22695e-05
6.3275e-05
6.44079e-05
7.52087e-05
9.35937e-05
0.000121647
0.000162916
0.000212644
0.000258244
0.00028991
0.000305154
0.000306075
0.000295687
0.000275869
0.000246705
0.000206755
0.000155992
0.000103342
6.52211e-05
4.8739e-05
5.40342e-05
8.64177e-05
9.16574e-05
2.1761e-05
3.34806e-06
1.10152e-05
7.52977e-05
0.000182681
0.000176786
0.000145619
0.000114633
9.43933e-05
8.51149e-05
8.34567e-05
8.35461e-05
7.84234e-05
6.93424e-05
6.636e-05
7.54765e-05
9.67347e-05
0.000126419
0.000158704
0.000189555
0.000217278
0.000239735
0.000254187
0.000259183
0.000254744
0.000241169
0.000218061
0.000184578
0.000142111
9.87674e-05
6.68684e-05
5.29597e-05
5.97481e-05
9.14368e-05
8.82201e-05
2.12917e-05
3.07009e-06
1.11836e-05
7.69506e-05
0.000187478
0.000178885
0.0001461
0.000117872
0.000101292
9.33667e-05
9.2206e-05
9.8641e-05
0.00010995
0.000111148
8.8573e-05
6.33842e-05
5.5775e-05
6.74015e-05
9.89998e-05
0.000146246
0.000192404
0.000225081
0.000243672
0.000250705
0.000247709
0.00023532
0.000213438
0.000181737
0.000141996
0.000101687
7.18088e-05
5.90113e-05
6.69639e-05
9.75132e-05
8.92024e-05
2.17188e-05
2.90414e-06
1.12977e-05
8.05532e-05
0.000188419
0.000173308
0.000136358
0.000109509
9.94498e-05
0.000100347
0.000103691
0.00010545
0.000110475
0.000124476
0.000140504
0.000128061
8.26667e-05
5.51691e-05
5.63575e-05
8.35996e-05
0.000135775
0.000194929
0.000236213
0.000253399
0.000252576
0.000239409
0.000216862
0.000186417
0.000150092
0.000113282
8.48551e-05
7.23992e-05
8.10206e-05
0.000109181
9.61181e-05
2.33745e-05
2.8698e-06
1.11912e-05
8.14266e-05
0.000183801
0.000164808
0.000127145
0.000101204
9.25295e-05
9.74722e-05
0.000111106
0.000125587
0.000133531
0.000136886
0.00014253
0.000146776
0.000128764
8.58859e-05
5.82483e-05
5.92157e-05
8.75752e-05
0.000139345
0.00019378
0.000227599
0.000237165
0.00022948
0.000210349
0.000183209
0.000151457
0.000120485
9.74474e-05
8.89877e-05
0.00010003
0.000124462
0.00010656
2.63498e-05
3.01653e-06
1.10309e-05
7.75735e-05
0.000177982
0.000159544
0.000123601
0.000100043
9.24504e-05
9.6181e-05
0.000108127
0.00012686
0.000149313
0.000168916
0.000178363
0.000172223
0.000145773
0.000103236
6.67498e-05
5.33971e-05
6.43374e-05
9.99572e-05
0.000151313
0.000194629
0.000214671
0.000214153
0.000200141
0.00017748
0.000150197
0.000123806
0.000105252
0.000100879
0.000114479
0.000135886
0.000111806
2.76092e-05
3.02235e-06
1.09973e-05
7.57061e-05
0.000173396
0.000154195
0.000117641
9.50865e-05
9.02511e-05
9.74137e-05
0.000110344
0.000125015
0.000141323
0.00016115
0.00018457
0.000204803
0.000201994
0.000156105
9.38529e-05
5.8715e-05
5.38589e-05
7.40091e-05
0.000115464
0.000161215
0.000189657
0.000196002
0.000187033
0.000169852
0.000149879
0.000131906
0.000120804
0.000121427
0.00013553
0.000150194
0.000119629
3.02803e-05
3.13665e-06
1.10227e-05
7.70182e-05
0.000170169
0.000149767
0.000113148
9.03461e-05
8.57983e-05
9.56667e-05
0.000115431
0.000139039
0.000160747
0.000178692
0.000194605
0.000209117
0.00021415
0.000189312
0.000129667
7.55467e-05
5.37889e-05
5.97761e-05
8.98387e-05
0.000134288
0.000171192
0.000186729
0.000183171
0.000167733
0.00014752
0.000129617
0.000120243
0.000123513
0.00013884
0.000152102
0.000123009
3.2289e-05
3.35376e-06
1.09605e-05
7.85453e-05
0.000169775
0.000148808
0.000113067
9.01748e-05
8.4369e-05
9.24986e-05
0.000111466
0.000137463
0.000165613
0.000191808
0.000214381
0.000232957
0.000243078
0.000228613
0.00017289
0.000101964
6.00324e-05
5.10487e-05
6.72831e-05
0.000103048
0.000140943
0.000163727
0.000169075
0.000162405
0.000149328
0.000135627
0.000127978
0.000131984
0.00014737
0.000158599
0.00012254
3.1533e-05
3.27355e-06
1.09558e-05
8.12733e-05
0.000175208
0.000154795
0.000118845
9.44645e-05
8.66201e-05
9.25284e-05
0.000109361
0.000134031
0.000162642
0.000191422
0.000217968
0.000241429
0.000260337
0.000266206
0.000237004
0.000162179
8.80567e-05
5.39191e-05
5.28453e-05
7.65848e-05
0.000112047
0.000136943
0.000144687
0.000141827
0.000136088
0.000132851
0.000135365
0.000145318
0.000160153
0.000166813
0.000129783
3.44201e-05
3.5312e-06
1.10168e-05
8.67358e-05
0.000180442
0.000155801
0.000119206
9.65835e-05
9.00748e-05
9.63727e-05
0.000113044
0.000137607
0.000166766
0.000197108
0.000226078
0.000252259
0.00027457
0.000289303
0.000283372
0.00023369
0.000145331
7.50319e-05
4.79953e-05
5.25694e-05
8.35669e-05
0.000124098
0.00014596
0.000145246
0.000133118
0.000121591
0.000119154
0.000129212
0.000147583
0.000157594
0.000122837
3.28704e-05
3.62e-06
1.09161e-05
8.89407e-05
0.000180656
0.000149501
0.000112666
9.40638e-05
9.17055e-05
0.000101089
0.000119583
0.000144835
0.000173959
0.000204075
0.000232999
0.000259402
0.000282475
0.000300706
0.000308601
0.000291217
0.000228842
0.000136324
6.93959e-05
4.46026e-05
4.82289e-05
7.21388e-05
0.000100814
0.000120229
0.000128731
0.000129694
0.000130875
0.00014037
0.000157394
0.000164325
0.000117281
2.98583e-05
3.3727e-06
1.07302e-05
8.60037e-05
0.000179227
0.000143465
0.000106323
9.04885e-05
9.07722e-05
0.000102028
0.000121882
0.000148288
0.000178529
0.000209805
0.000239988
0.000267762
0.000292315
0.000312604
0.000326103
0.0003261
0.000298197
0.000227793
0.000134297
6.90886e-05
4.58212e-05
5.03208e-05
6.90709e-05
8.41184e-05
9.53148e-05
0.000110727
0.000131781
0.00015366
0.000170144
0.00017047
0.00012217
3.17413e-05
3.58099e-06
1.05835e-05
8.05843e-05
0.000171795
0.000127781
9.22322e-05
8.20738e-05
8.73639e-05
0.000102133
0.000124664
0.000154023
0.000188137
0.000224191
0.000259861
0.000294017
0.000326335
0.000354987
0.000370874
0.000363026
0.000353738
0.000308542
0.000208548
0.000107095
5.21128e-05
3.90511e-05
5.47992e-05
8.15655e-05
8.84893e-05
8.88964e-05
9.93945e-05
0.000122093
0.000143711
0.000145757
0.000100459
2.74368e-05
3.5894e-06
1.05491e-05
7.45824e-05
0.000156094
0.000103287
7.33007e-05
7.04904e-05
8.22544e-05
0.000102145
0.00012843
0.000161165
0.000199355
0.000240458
0.000281774
0.000322037
0.000360889
0.000386662
0.000381437
0.000374439
0.000365602
0.000350677
0.000258741
0.000147475
6.81015e-05
3.36431e-05
3.07627e-05
5.65242e-05
0.000100716
0.000114211
0.000113246
0.000121984
0.00013762
0.000138185
8.60911e-05
2.3313e-05
3.20471e-06
1.0704e-05