/*--------------------------------*- C++ -*----------------------------------*\
| =========                 |                                                 |
| \\      /  F ield         | OpenFOAM: The Open Source CFD Toolbox           |
|  \\    /   O peration     | Version:  v2006                                 |
|   \\  /    A nd           | Website:  www.openfoam.com                      |
|    \\/     M anipulation  |                                                 |
\*---------------------------------------------------------------------------*/
FoamFile
{
    version     2.0;
    format      ascii;
    class       surfaceScalarField;
    location    "54";
    object      phi;
}
// * * * * * * * * * * * * * * * * * * * * * * * * * * * * * * * * * * * * * //

dimensions      [1 0 -1 0 0 0 0];
oriented        oriented;


internalField   nonuniform List<scalar> 
228225
(
0.00113782
4.15213e-06
0.000129724
0.00158088
-2.1262e-05
5.05065e-05
0.00162029
3.88091e-07
3.87223e-05
0.00158146
8.9489e-06
3.19437e-05
0.0015347
8.24535e-06
2.80381e-05
0.00148105
8.90796e-06
2.5422e-05
0.00141859
5.05233e-06
2.32786e-05
0.0013503
-6.83168e-07
2.11567e-05
0.00128471
-5.44544e-06
1.92742e-05
0.00122504
-7.39991e-06
1.78856e-05
0.00117174
-7.91969e-06
1.69628e-05
0.00112393
-7.74681e-06
1.63887e-05
0.00108025
-7.2302e-06
1.60899e-05
0.00103936
-6.51933e-06
1.60667e-05
0.00100052
-5.73187e-06
1.63064e-05
0.000963767
-4.98054e-06
1.67327e-05
0.000929545
-4.3215e-06
1.72673e-05
0.000897728
-3.75045e-06
1.78868e-05
0.000867416
-3.20516e-06
1.86923e-05
0.000838426
-2.63709e-06
1.96843e-05
0.000811558
-2.01801e-06
2.08851e-05
0.000787445
-1.34057e-06
2.23192e-05
0.000764634
-6.27565e-07
2.41577e-05
0.000739312
8.68014e-08
2.65763e-05
0.000707062
9.94423e-07
2.93905e-05
0.000665783
2.12009e-06
3.21506e-05
0.000616355
3.58457e-06
3.44333e-05
0.000560485
5.65745e-06
3.58313e-05
0.000500191
8.72905e-06
3.59422e-05
0.000437956
1.29873e-05
3.49419e-05
0.000376061
1.8912e-05
3.26057e-05
0.000317315
2.61306e-05
2.88014e-05
0.0002633
3.07318e-05
2.45168e-05
0.000133998
4.94309e-05
2.10009e-05
8.12906e-05
8.71251e-06
6.53898e-05
-3.93514e-05
-1.41743e-05
0.000115563
-5.76935e-05
-1.14023e-05
0.000160007
-3.63015e-05
-1.06896e-05
0.000177965
1.41051e-06
-1.10477e-05
0.000178437
1.88109e-05
-1.11559e-05
0.000169706
2.80789e-05
-1.11683e-05
0.000153125
3.22849e-05
-1.12329e-05
0.000132264
3.15132e-05
-1.1146e-05
0.000110003
2.82768e-05
-1.07847e-05
8.82915e-05
2.48667e-05
-1.0404e-05
6.84385e-05
2.15183e-05
-1.01657e-05
5.15945e-05
1.8144e-05
-1.00483e-05
3.82384e-05
1.49575e-05
-9.98036e-06
2.83277e-05
1.21472e-05
-9.89902e-06
2.15724e-05
9.72299e-06
-9.74597e-06
1.75178e-05
7.64003e-06
-9.46516e-06
1.55815e-05
5.88638e-06
-9.02103e-06
1.51195e-05
4.48083e-06
-8.43477e-06
1.55709e-05
3.43605e-06
-7.75274e-06
1.64181e-05
2.80579e-06
-7.0027e-06
1.71792e-05
2.615e-06
-6.22327e-06
1.74054e-05
2.89355e-06
-5.46082e-06
1.67577e-05
3.667e-06
-4.82863e-06
1.50757e-05
4.93265e-06
-4.48671e-06
1.25335e-05
6.67559e-06
-4.5931e-06
9.28246e-06
8.87653e-06
-5.2224e-06
5.54239e-06
1.1485e-05
-6.39891e-06
1.84407e-06
1.44113e-05
-7.97782e-06
-1.20957e-06
1.75893e-05
-9.50187e-06
-3.52866e-06
2.10424e-05
-1.06107e-05
-5.83311e-06
2.49867e-05
-1.06993e-05
-1.07134e-05
2.97747e-05
-8.8952e-06
-2.28977e-05
3.51337e-05
-5.39384e-06
-2.72437e-05
3.90734e-05
-1.70229e-06
3.85475e-05
2.43673e-07
-3.6824e-05
-5.29904e-05
1.38696e-05
-7.42055e-05
-7.0067e-05
1.84802e-05
-4.82896e-05
-4.50942e-05
8.21188e-06
-1.17393e-05
-1.38941e-05
-4.28816e-07
1.59938e-05
2.62336e-06
-1.91798e-06
3.88731e-05
1.43721e-05
-2.56829e-06
5.60089e-05
2.2671e-05
-2.73455e-06
6.70102e-05
2.67265e-05
-2.52313e-06
7.23423e-05
2.80755e-05
-2.2124e-06
7.36237e-05
2.78303e-05
-1.94413e-06
7.22368e-05
2.651e-05
-1.72235e-06
6.91061e-05
2.44871e-05
-1.51288e-06
6.4697e-05
2.22539e-05
-1.29877e-06
5.92245e-05
2.01512e-05
-1.08805e-06
5.28394e-05
1.82666e-05
-8.99273e-07
4.56993e-05
1.65821e-05
-7.54044e-07
3.79815e-05
1.51063e-05
-6.77574e-07
2.98428e-05
1.3909e-05
-6.80698e-07
2.1386e-05
1.30641e-05
-7.49357e-07
1.2704e-05
1.25891e-05
-8.47195e-07
3.89062e-06
1.244e-05
-9.26576e-07
-4.88438e-06
1.25611e-05
-1.01239e-06
-1.33558e-05
1.29097e-05
-1.13974e-06
-2.12018e-05
1.34428e-05
-1.32623e-06
-2.80573e-05
1.41101e-05
-1.57785e-06
-3.35538e-05
1.48764e-05
-1.88075e-06
-3.74015e-05
1.57318e-05
-2.20451e-06
-3.94604e-05
1.6682e-05
-2.50187e-06
-3.97302e-05
1.77408e-05
-2.71294e-06
-3.83071e-05
1.89604e-05
-2.77083e-06
-3.5276e-05
2.04691e-05
-2.62e-06
-3.04245e-05
2.2285e-05
-2.23706e-06
-2.32168e-05
2.40231e-05
-1.6e-06
-1.35056e-05
2.47514e-05
-1.13741e-06
2.18276e-05
-1.76814e-06
-1.8665e-06
-3.28175e-05
-5.94398e-06
-3.16001e-05
-1.40632e-05
-1.05008e-05
-5.38072e-05
-7.98245e-06
-9.51959e-06
-5.43729e-05
-4.50414e-06
-8.06957e-06
-4.51278e-05
4.01223e-06
-8.29976e-06
-3.19968e-05
1.12209e-05
-7.92009e-06
-1.62559e-05
1.60643e-05
-7.26307e-06
-7.1135e-07
1.95501e-05
-6.56331e-06
1.32555e-05
2.17432e-05
-5.89288e-06
2.49927e-05
2.303e-05
-5.24951e-06
3.40323e-05
2.37602e-05
-4.63543e-06
3.99836e-05
2.42042e-05
-4.08058e-06
4.27695e-05
2.45157e-05
-3.60135e-06
4.25695e-05
2.47475e-05
-3.14624e-06
3.95889e-05
2.49013e-05
-2.62459e-06
3.39169e-05
2.49723e-05
-1.94575e-06
2.56717e-05
2.49827e-05
-1.18441e-06
1.52704e-05
2.49817e-05
-5.95023e-07
3.36925e-06
2.50079e-05
-2.99905e-07
-9.25399e-06
2.5034e-05
-3.23506e-07
-2.18524e-05
2.49947e-05
-6.25503e-07
-3.37867e-05
2.48428e-05
-1.14191e-06
-4.45507e-05
2.45675e-05
-1.79807e-06
-5.37247e-05
2.41857e-05
-2.5758e-06
-6.09417e-05
2.37214e-05
-3.50132e-06
-6.58629e-05
2.31908e-05
-4.59783e-06
-6.81503e-05
2.2608e-05
-5.8826e-06
-6.74906e-05
2.19869e-05
-7.33704e-06
-6.36555e-05
2.13571e-05
-8.88835e-06
-5.65691e-05
2.07913e-05
-1.03968e-05
-4.63905e-05
2.04008e-05
-1.15977e-05
-3.37436e-05
2.0232e-05
-1.20234e-05
-2.08548e-05
2.00643e-05
-1.02121e-05
-9.95618e-06
1.89487e-05
-6.06175e-06
1.37697e-05
-2.27153e-06
-3.17634e-05
-1.09365e-05
7.20517e-06
-5.0545e-05
-3.76898e-06
6.71197e-06
-6.37589e-05
-2.59577e-06
7.3451e-06
-7.32699e-05
-2.15296e-06
7.77695e-06
-7.7542e-05
2.00968e-06
7.79411e-06
-7.86365e-05
7.35733e-06
7.44567e-06
-7.81245e-05
1.17366e-05
6.92882e-06
-7.6592e-05
1.52464e-05
6.32648e-06
-7.46628e-05
1.79475e-05
5.726e-06
-7.29535e-05
2.01226e-05
5.22581e-06
-7.19073e-05
2.18821e-05
4.86923e-06
-7.1769e-05
2.33333e-05
4.62584e-06
-7.25423e-05
2.45551e-05
4.37799e-06
-7.40703e-05
2.55979e-05
4.02766e-06
-7.61783e-05
2.64658e-05
3.59096e-06
-7.86629e-05
2.71264e-05
3.08414e-06
-8.12962e-05
2.75476e-05
2.55207e-06
-8.38019e-05
2.77208e-05
2.01552e-06
-8.58635e-05
2.76602e-05
1.46463e-06
-8.71744e-05
2.73934e-05
8.5283e-07
-8.75388e-05
2.69525e-05
1.90902e-07
-8.70316e-05
2.63717e-05
-3.46913e-07
-8.55044e-05
2.56919e-05
-1.03803e-06
-8.28478e-05
2.49533e-05
-1.8649e-06
-7.89927e-05
2.41987e-05
-2.80429e-06
-7.39313e-05
2.34686e-05
-3.81674e-06
-6.77023e-05
2.27964e-05
-4.87193e-06
-6.03761e-05
2.22089e-05
-5.94851e-06
-5.20356e-05
2.17293e-05
-7.02483e-06
-4.27462e-05
2.13723e-05
-8.06075e-06
-3.25275e-05
2.11392e-05
-8.9942e-06
-2.14961e-05
2.09894e-05
-9.65058e-06
-1.05575e-05
2.07592e-05
-9.32173e-06
-2.23055e-06
1.98108e-05
-6.75841e-06
1.54773e-05
-1.97206e-06
-3.32489e-05
1.57282e-05
6.32788e-06
-5.92254e-05
1.40441e-05
7.23784e-06
-8.49606e-05
1.35578e-05
8.09207e-06
-0.000109886
1.25059e-05
8.72866e-06
-0.000130541
1.38492e-05
8.31186e-06
-0.000145677
1.63763e-05
7.28332e-06
-0.000156287
1.83903e-05
6.27244e-06
-0.000163156
1.94196e-05
5.53156e-06
-0.000166609
1.95128e-05
4.99071e-06
-0.000166824
1.90292e-05
4.58325e-06
-0.000164031
1.81616e-05
4.32022e-06
-0.000158726
1.73133e-05
4.1976e-06
-0.000151896
1.70985e-05
4.18123e-06
-0.000144792
1.78872e-05
4.21639e-06
-0.0001383
1.93517e-05
4.25725e-06
-0.000132581
2.07365e-05
4.28528e-06
-0.000127279
2.15173e-05
4.28089e-06
-0.000121981
2.1659e-05
4.22217e-06
-0.000116413
2.13457e-05
4.09484e-06
-0.000110399
2.07194e-05
3.89361e-06
-0.000103814
1.98684e-05
3.61774e-06
-9.65759e-05
1.88762e-05
3.26868e-06
-8.8649e-05
1.78295e-05
2.85021e-06
-8.00595e-05
1.68193e-05
2.37601e-06
-7.09101e-05
1.59562e-05
1.8566e-06
-6.13605e-05
1.53331e-05
1.29612e-06
-5.15435e-05
1.49756e-05
6.7361e-07
-4.16216e-05
1.4885e-05
2.78513e-08
-3.19946e-05
1.5105e-05
-4.2828e-07
-2.28282e-05
1.5694e-05
-9.76313e-07
-1.43831e-05
1.66668e-05
-1.55889e-06
-6.99376e-06
1.7963e-05
-2.1207e-06
-1.16966e-06
1.93614e-05
-2.47555e-06
1.95623e-06
2.02586e-05
-2.01047e-06
1.82086e-05
2.17688e-07
-2.06443e-06
1.76798e-05
-4.95426e-07
-1.48912e-05
2.59209e-05
-1.02082e-07
-3.3399e-05
3.00514e-05
5.72861e-07
-5.63327e-05
3.21686e-05
1.46719e-06
-7.90696e-05
3.2538e-05
2.15336e-06
-9.80006e-05
3.13127e-05
2.50843e-06
-0.000112697
2.93962e-05
2.79063e-06
-0.000124287
2.72203e-05
3.23128e-06
-0.000133781
2.47342e-05
3.83231e-06
-0.000141685
2.18857e-05
4.63561e-06
-0.000148331
1.86675e-05
5.68432e-06
-0.000154281
1.55216e-05
7.15504e-06
-0.00015986
1.31593e-05
8.80131e-06
-0.000164615
1.2023e-05
9.92986e-06
-0.000167789
1.18536e-05
1.0212e-05
-0.00016903
1.19579e-05
9.872e-06
-0.000168552
1.18256e-05
9.30459e-06
-0.000166761
1.13336e-05
8.7536e-06
-0.000163907
1.05177e-05
8.2645e-06
-0.000160053
9.38899e-06
7.82022e-06
-0.000155153
7.9517e-06
7.40733e-06
-0.00014909
6.23577e-06
7.01131e-06
-0.000141671
4.27137e-06
6.61735e-06
-0.000132665
2.11913e-06
6.21579e-06
-0.000122343
4.02917e-07
5.79617e-06
-0.000111304
-4.07381e-07
5.32546e-06
-9.99865e-05
-4.11581e-07
4.76347e-06
-8.83654e-05
-6.5292e-08
4.0953e-06
-7.6193e-05
4.60132e-07
3.30977e-06
-6.3043e-05
1.0557e-06
2.38991e-06
-4.9146e-05
2.42473e-06
1.29168e-06
-3.45369e-05
4.32905e-06
-3.26038e-08
-2.01631e-05
6.77703e-06
-9.20323e-07
-7.12737e-06
9.3291e-06
-1.45392e-06
1.14178e-05
-7.81946e-08
1.8826e-05
-6.32864e-07
-8.18428e-07
3.5613e-05
8.14349e-06
3.80826e-07
4.7661e-05
1.51763e-05
1.94777e-06
5.53652e-05
2.05888e-05
2.70808e-06
5.91005e-05
2.447e-05
2.89966e-06
5.92979e-05
2.67611e-05
2.79001e-06
5.6823e-05
2.76707e-05
2.62016e-06
5.23595e-05
2.76003e-05
2.53069e-06
4.59579e-05
2.69639e-05
2.67483e-06
3.69084e-05
2.59802e-05
3.54863e-06
2.58582e-05
2.46637e-05
3.78039e-06
1.40273e-05
2.31468e-05
3.13146e-06
2.43776e-06
2.15887e-05
2.30737e-06
-7.81292e-06
2.01047e-05
1.47484e-06
-1.60576e-05
1.87459e-05
7.15701e-07
-2.23711e-05
1.74839e-05
1.50104e-07
-2.73502e-05
1.6254e-05
-8.35082e-08
-3.13603e-05
1.49826e-05
-2.4308e-07
-3.46801e-05
1.36022e-05
-3.15542e-07
-3.75244e-05
1.20577e-05
-3.07564e-07
-4.00773e-05
1.03098e-05
-2.15745e-07
-4.24839e-05
8.32431e-06
-2.12061e-08
-4.48577e-05
6.06705e-06
3.0477e-07
-4.76355e-05
3.60158e-06
1.08554e-06
-5.08113e-05
1.28635e-06
2.17208e-06
-5.38531e-05
-6.30449e-07
3.28223e-06
-5.61059e-05
-2.03014e-06
4.0196e-06
-5.68254e-05
-3.44378e-06
4.33354e-06
-5.5163e-05
-5.30145e-06
4.39082e-06
-5.06644e-05
-7.43299e-06
4.32388e-06
-4.32914e-05
-8.72419e-06
4.1478e-06
-3.39376e-05
-8.3299e-06
3.77225e-06
-2.26677e-05
-7.04746e-06
3.24714e-06
-1.00011e-05
-5.16549e-06
2.83308e-06
-2.07155e-07
2.6065e-06
1.01743e-05
-1.04544e-05
-3.17119e-07
2.27058e-05
-3.86887e-06
-6.16562e-07
3.54108e-05
3.22342e-06
-9.67714e-07
4.69781e-05
9.73072e-06
-1.04076e-06
5.7318e-05
1.45817e-05
-9.15534e-07
6.61355e-05
1.80616e-05
-7.13025e-07
7.32374e-05
2.03616e-05
-4.93357e-07
7.8563e-05
2.17216e-05
-2.148e-07
8.2025e-05
2.24815e-05
2.08779e-07
8.3272e-05
2.28559e-05
1.04426e-06
8.25519e-05
2.29353e-05
1.62929e-06
8.0652e-05
2.27816e-05
1.49518e-06
7.81348e-05
2.24602e-05
9.45798e-07
7.54497e-05
2.2022e-05
1.4596e-07
7.26967e-05
2.14934e-05
-5.38215e-07
7.00968e-05
2.08847e-05
-1.27318e-06
6.77111e-05
2.01906e-05
-1.9572e-06
6.5519e-05
1.93992e-05
-2.56701e-06
6.34446e-05
1.84992e-05
-3.10163e-06
6.13699e-05
1.74839e-05
-3.56483e-06
5.91431e-05
1.63512e-05
-3.95949e-06
5.65781e-05
1.51009e-05
-4.28575e-06
5.34541e-05
1.37267e-05
-4.53839e-06
4.96191e-05
1.22133e-05
-4.70655e-06
4.52992e-05
1.05314e-05
-4.77918e-06
4.10022e-05
8.63158e-06
-4.74373e-06
3.74136e-05
6.42113e-06
-4.55922e-06
3.47406e-05
3.78394e-06
-4.12049e-06
3.27949e-05
4.68792e-07
-3.13169e-06
3.07848e-05
-3.43621e-06
-1.1326e-06
2.65777e-05
-5.95153e-06
1.93839e-06
1.99837e-05
-6.22697e-06
4.46627e-06
1.25266e-05
-5.33264e-06
5.53443e-06
5.18394e-06
-3.87336e-06
5.85437e-06
2.27763e-07
4.38543e-06
3.8365e-06
-1.78504e-05
3.60095e-06
1.05948e-05
-1.46301e-05
4.01116e-06
1.88971e-05
-8.12666e-06
2.99825e-06
2.7498e-05
-8.66257e-07
1.92045e-06
3.59337e-05
5.08466e-06
9.84678e-07
4.36821e-05
1.00529e-05
1.92006e-07
5.02121e-05
1.39624e-05
-1.93531e-07
5.54834e-05
1.67655e-05
-3.83218e-07
5.96352e-05
1.86433e-05
-3.95783e-07
6.27906e-05
1.98495e-05
-2.47556e-07
6.50693e-05
2.0599e-05
-5.19062e-08
6.66224e-05
2.10363e-05
8.37332e-08
6.76958e-05
2.12525e-05
4.00944e-08
6.84582e-05
2.13053e-05
-1.15772e-07
6.90608e-05
2.12277e-05
-3.74155e-07
6.96383e-05
2.1035e-05
-7.25542e-07
7.02793e-05
2.07291e-05
-1.13313e-06
7.10416e-05
2.0305e-05
-1.57346e-06
7.19634e-05
1.97539e-05
-2.02986e-06
7.30717e-05
1.90663e-05
-2.48893e-06
7.43888e-05
1.8233e-05
-2.93795e-06
7.59296e-05
1.7246e-05
-3.36183e-06
7.76903e-05
1.61013e-05
-3.74273e-06
7.96323e-05
1.48002e-05
-4.06066e-06
8.16584e-05
1.33522e-05
-4.29196e-06
8.3561e-05
1.17933e-05
-4.40372e-06
8.49303e-05
1.02005e-05
-4.34032e-06
8.50801e-05
8.67557e-06
-3.98371e-06
8.2737e-05
7.29859e-06
-3.067e-06
7.58607e-05
6.28477e-06
-1.33823e-06
6.37684e-05
5.97298e-06
1.08539e-06
4.79344e-05
6.40499e-06
3.23451e-06
3.05027e-05
7.21823e-06
4.33576e-06
1.29211e-05
8.21943e-06
4.70181e-06
9.01002e-06
3.60086e-06
-2.12007e-06
-1.90147e-05
3.46215e-06
-5.00248e-07
-1.99832e-05
4.03878e-06
4.98474e-06
-1.71719e-05
3.86964e-06
1.32679e-05
-1.24944e-05
3.58179e-06
2.23103e-05
-7.02111e-06
3.22459e-06
3.12271e-05
-1.5535e-06
2.79777e-06
3.91753e-05
3.76675e-06
2.33406e-06
4.59292e-05
8.22005e-06
1.88457e-06
5.14098e-05
1.17855e-05
1.49057e-06
5.56431e-05
1.45793e-05
1.17195e-06
5.87702e-05
1.66901e-05
9.35825e-07
6.10056e-05
1.81982e-05
7.7334e-07
6.25779e-05
1.92107e-05
6.5656e-07
6.36817e-05
1.98536e-05
5.52539e-07
6.44639e-05
2.02278e-05
4.42504e-07
6.50398e-05
2.03935e-05
3.14374e-07
6.55005e-05
2.03808e-05
1.62586e-07
6.58707e-05
2.02013e-05
3.77406e-08
6.61909e-05
1.98563e-05
-8.34985e-08
6.64535e-05
1.93403e-05
-1.57873e-07
6.66857e-05
1.86444e-05
-2.19928e-07
6.68966e-05
1.77605e-05
-2.50356e-07
6.70742e-05
1.66895e-05
-2.32534e-07
6.71686e-05
1.54578e-05
-1.56148e-07
6.69431e-05
1.41403e-05
9.04327e-08
6.58835e-05
1.28815e-05
6.35291e-07
6.3476e-05
1.1884e-05
1.31277e-06
5.91046e-05
1.13345e-05
2.09416e-06
5.23451e-05
1.1299e-05
2.82495e-06
4.34002e-05
1.16488e-05
3.33656e-06
3.31945e-05
1.21358e-05
3.5907e-06
2.28415e-05
1.25288e-05
3.67772e-06
1.30918e-05
1.26567e-05
3.72496e-06
4.69355e-06
1.23551e-05
3.71026e-06
1.06976e-05
2.77355e-06
2.44109e-06
-2.31443e-05
1.93962e-06
3.54384e-06
-2.43753e-05
3.61942e-06
6.02889e-06
-2.29633e-05
3.67293e-06
1.05904e-05
-2.02084e-05
3.5498e-06
1.6905e-05
-1.64012e-05
3.43467e-06
2.43089e-05
-1.20093e-05
3.34223e-06
3.24544e-05
-7.42931e-06
3.25211e-06
4.05998e-05
-2.94183e-06
3.14732e-06
4.81751e-05
1.27482e-06
3.02081e-06
5.46117e-05
5.32666e-06
2.87392e-06
5.98705e-05
8.76597e-06
2.71237e-06
6.39829e-05
1.15931e-05
2.54037e-06
6.71023e-05
1.37905e-05
2.35746e-06
6.94338e-05
1.54274e-05
2.16483e-06
7.11598e-05
1.66154e-05
1.97167e-06
7.24089e-05
1.74579e-05
1.78632e-06
7.32596e-05
1.80298e-05
1.61384e-06
7.37504e-05
1.83779e-05
1.4595e-06
7.38843e-05
1.85302e-05
1.33151e-06
7.36256e-05
1.85063e-05
1.24243e-06
7.28929e-05
1.83258e-05
1.20923e-06
7.15497e-05
1.80124e-05
1.25284e-06
6.94061e-05
1.75955e-05
1.39305e-06
6.62396e-05
1.71123e-05
1.6414e-06
6.18455e-05
1.66148e-05
1.98773e-06
5.61365e-05
1.61693e-05
2.38305e-06
4.92689e-05
1.58381e-05
2.73877e-06
4.16771e-05
1.56559e-05
2.96477e-06
3.39511e-05
1.55972e-05
3.0288e-06
2.65987e-05
1.55794e-05
2.97629e-06
1.98772e-05
1.54999e-05
2.90464e-06
1.37948e-05
1.5266e-05
2.90932e-06
8.23523e-06
1.47728e-05
3.01138e-06
3.27451e-06
1.37353e-05
3.15483e-06
1.09626e-05
2.8587e-06
6.64893e-07
-2.717e-05
3.38943e-06
-1.46083e-06
-2.73283e-05
5.11645e-06
-3.7926e-06
-2.53338e-05
4.76496e-06
-5.49058e-06
-2.26134e-05
4.20285e-06
-5.81989e-06
-1.96378e-05
3.70015e-06
-4.36457e-06
-1.66242e-05
3.30856e-06
-1.1708e-06
-1.35276e-05
3.0386e-06
3.37421e-06
-1.02672e-05
2.87606e-06
8.73606e-06
-6.8383e-06
2.79814e-06
1.45927e-05
-3.31561e-06
2.77984e-06
2.02929e-05
2.14583e-07
2.7974e-06
2.56376e-05
3.32595e-06
2.82894e-06
3.02381e-05
6.20899e-06
2.85576e-06
3.39447e-05
8.71217e-06
2.86049e-06
3.67413e-05
1.08214e-05
2.83521e-06
3.8669e-05
1.25719e-05
2.78882e-06
3.97851e-05
1.40034e-05
2.73754e-06
4.01303e-05
1.51581e-05
2.69818e-06
3.97276e-05
1.60629e-05
2.68658e-06
3.85831e-05
1.67363e-05
2.71935e-06
3.66856e-05
1.71985e-05
2.81094e-06
3.40168e-05
1.74756e-05
2.96558e-06
3.0579e-05
1.75894e-05
3.1698e-06
2.64397e-05
1.75465e-05
3.39293e-06
2.17853e-05
1.73327e-05
3.59139e-06
1.69576e-05
1.69095e-05
3.72533e-06
1.24082e-05
1.62449e-05
3.78008e-06
8.53953e-06
1.53857e-05
3.77621e-06
5.58634e-06
1.44546e-05
3.73428e-06
3.59128e-06
1.35618e-05
3.67852e-06
2.41576e-06
1.27454e-05
3.64347e-06
1.81029e-06
1.19998e-05
3.65841e-06
1.41132e-06
1.12705e-05
3.75107e-06
7.75836e-07
1.02788e-05
3.96866e-06
8.13153e-06
3.64238e-06
-8.17632e-06
-2.31154e-05
4.00429e-06
-1.70436e-05
-2.44304e-05
5.88414e-06
-2.47076e-05
-2.39192e-05
6.20168e-06
-3.00949e-05
-2.32194e-05
6.00059e-06
-3.29893e-05
-2.23703e-05
5.69269e-06
-3.34409e-05
-2.1413e-05
5.35242e-06
-3.16392e-05
-2.01883e-05
4.99512e-06
-2.7886e-05
-1.85251e-05
4.63994e-06
-2.25384e-05
-1.63807e-05
4.30852e-06
-1.59562e-05
-1.38359e-05
4.01683e-06
-8.44429e-06
-1.10334e-05
3.77182e-06
-5.7844e-07
-8.1211e-06
3.573e-06
7.38675e-06
-5.22465e-06
3.41654e-06
1.51725e-05
-2.46114e-06
3.29525e-06
2.25851e-05
7.86807e-08
3.2032e-06
2.91618e-05
2.69956e-06
3.13767e-06
3.48507e-05
5.04054e-06
3.09027e-06
3.96338e-05
7.12135e-06
3.04964e-06
4.35006e-05
8.96513e-06
3.01057e-06
4.64606e-05
1.05737e-05
2.96902e-06
4.85337e-05
1.19602e-05
2.92191e-06
4.975e-05
1.31416e-05
2.86855e-06
5.01414e-05
1.41368e-05
2.80962e-06
4.97349e-05
1.49608e-05
2.74219e-06
4.85466e-05
1.56189e-05
2.66154e-06
4.65733e-05
1.60933e-05
2.57016e-06
4.38103e-05
1.63475e-05
2.47903e-06
4.02885e-05
1.63768e-05
2.40744e-06
3.60607e-05
1.62506e-05
2.38435e-06
3.11389e-05
1.6081e-05
2.43764e-06
2.55221e-05
1.59075e-05
2.5678e-06
1.92903e-05
1.5682e-05
2.72332e-06
1.26074e-05
1.53133e-05
2.83785e-06
5.693e-06
1.44766e-05
2.95939e-06
1.15365e-05
2.80192e-06
-2.26363e-05
-7.07517e-06
6.61831e-06
-4.22218e-05
-1.26154e-05
7.97774e-06
-5.56903e-05
-1.77471e-05
7.62464e-06
-6.36649e-05
-2.20756e-05
7.26474e-06
-6.76928e-05
-2.47904e-05
6.96168e-06
-6.87252e-05
-2.65002e-05
6.69186e-06
-6.73835e-05
-2.73414e-05
6.42427e-06
-6.4139e-05
-2.72887e-05
6.1519e-06
-5.93556e-05
-2.6415e-05
5.87912e-06
-5.33264e-05
-2.48695e-05
5.60395e-06
-4.63482e-05
-2.27857e-05
5.32271e-06
-3.87523e-05
-2.02776e-05
5.03896e-06
-3.08919e-05
-1.74546e-05
4.76209e-06
-2.31411e-05
-1.4418e-05
4.503e-06
-1.58799e-05
-1.12558e-05
4.27118e-06
-9.11076e-06
-8.04421e-06
4.07467e-06
-3.131e-06
-4.84489e-06
3.91713e-06
1.77703e-06
-1.6476e-06
3.79812e-06
5.67644e-06
1.22369e-06
3.71451e-06
9.16491e-06
3.26416e-06
3.6616e-06
1.21655e-05
5.15254e-06
3.63163e-06
1.46415e-05
6.86968e-06
3.61455e-06
1.66189e-05
8.38206e-06
3.59851e-06
1.81919e-05
9.64616e-06
3.57007e-06
1.94684e-05
1.06629e-05
3.51671e-06
2.05177e-05
1.14588e-05
3.42985e-06
2.13446e-05
1.20629e-05
3.30412e-06
2.19175e-05
1.25001e-05
3.14067e-06
2.20814e-05
1.29373e-05
2.95898e-06
2.12679e-05
1.38577e-05
2.79302e-06
1.88295e-05
1.53346e-05
2.66886e-06
1.47977e-05
1.66533e-05
2.59212e-06
9.74378e-06
1.72321e-05
2.53587e-06
4.32124e-06
1.65978e-05
2.43309e-06
1.25731e-05
1.97447e-06
-1.92765e-05
4.56732e-06
8.03058e-06
-3.51793e-05
-5.96959e-06
9.77773e-06
-4.49798e-05
-1.65594e-05
9.13388e-06
-4.90511e-05
-2.57464e-05
8.29485e-06
-4.90086e-05
-3.1869e-05
7.64774e-06
-4.66507e-05
-3.54324e-05
7.25042e-06
-4.32239e-05
-3.70498e-05
7.0344e-06
-3.93915e-05
-3.72356e-05
6.95984e-06
-3.54533e-05
-3.64092e-05
6.99728e-06
-3.1496e-05
-3.48876e-05
7.08795e-06
-2.74919e-05
-3.28669e-05
7.17332e-06
-2.33698e-05
-3.04688e-05
7.21241e-06
-1.90645e-05
-2.77826e-05
7.18694e-06
-1.45353e-05
-2.48811e-05
7.08934e-06
-9.7673e-06
-2.18278e-05
6.91928e-06
-4.76974e-06
-1.86773e-05
6.6781e-06
4.23427e-07
-1.54758e-05
6.37539e-06
5.82144e-06
-1.22673e-05
6.02237e-06
1.11415e-05
-9.09595e-06
5.63044e-06
1.56569e-05
-6.01344e-06
5.21556e-06
1.93769e-05
-3.1101e-06
4.79921e-06
2.23985e-05
-4.99737e-07
4.40052e-06
2.42344e-05
2.37191e-06
4.03438e-06
2.48962e-05
4.93139e-06
3.72592e-06
2.46643e-05
6.94558e-06
3.48065e-06
2.35786e-05
8.66383e-06
3.29799e-06
2.13946e-05
1.03729e-05
3.1836e-06
1.70579e-05
1.28832e-05
3.16362e-06
1.01107e-05
1.57944e-05
3.29596e-06
2.1158e-06
1.76556e-05
3.6001e-06
-5.00504e-06
1.81986e-05
3.9333e-06
-9.5651e-06
1.69513e-05
4.12355e-06
-9.61079e-06
1.30869e-05
4.07877e-06
-5.26041e-06
8.39158e-06
3.64709e-06
4.58126e-06
2.50135e-06
7.04842e-06
-9.61868e-06
7.12673e-06
2.15214e-05
-2.78907e-05
7.48891e-06
3.81254e-05
-3.94936e-05
6.38693e-06
5.38714e-05
-4.65591e-05
5.07301e-06
6.76557e-05
-4.9705e-05
4.00037e-06
7.92449e-05
-5.03874e-05
3.27528e-06
8.886e-05
-4.96291e-05
2.84654e-06
9.69022e-05
-4.80516e-05
2.63225e-06
0.000103746
-4.60044e-05
2.59052e-06
0.000109628
-4.36572e-05
2.71601e-06
0.000114677
-4.10956e-05
3.00835e-06
0.000118976
-3.83648e-05
3.43948e-06
0.000122572
-3.54894e-05
3.98184e-06
0.000125471
-3.24814e-05
4.6177e-06
0.000127639
-2.934e-05
5.31972e-06
0.000129022
-2.6056e-05
6.04876e-06
0.000129558
-2.26301e-05
6.76545e-06
0.000129225
-1.91023e-05
7.42795e-06
0.000128046
-1.55281e-05
8.00499e-06
0.000126073
-1.19686e-05
8.47575e-06
0.000123316
-8.49446e-06
8.83211e-06
0.000119724
-5.12871e-06
9.09133e-06
0.000115769
-1.87068e-06
9.22799e-06
0.00011126
1.28904e-06
9.25847e-06
0.000104819
5.3451e-06
9.22187e-06
9.63819e-05
9.28163e-06
9.1227e-06
8.59864e-05
1.33983e-05
9.00103e-06
7.3533e-05
1.83387e-05
8.7501e-06
5.89468e-05
2.32416e-05
8.15999e-06
4.36039e-05
2.57897e-05
7.40858e-06
2.93758e-05
2.5582e-05
6.75473e-06
1.73817e-05
2.26578e-05
6.27988e-06
8.4736e-06
1.63084e-05
6.05344e-06
3.09469e-06
8.82929e-06
5.74207e-06
4.50592e-06
3.94792e-06
1.71234e-05
-2.78272e-05
1.22529e-06
3.60502e-05
-4.56026e-05
-8.90629e-07
5.0278e-05
-5.13769e-05
-1.93467e-06
5.9328e-05
-5.2767e-05
-2.39894e-06
6.46044e-05
-5.20815e-05
-2.46162e-06
6.7654e-05
-5.06536e-05
-2.34882e-06
6.95719e-05
-4.89335e-05
-2.17975e-06
7.10172e-05
-4.70601e-05
-2.0105e-06
7.23543e-05
-4.5068e-05
-1.86283e-06
7.37653e-05
-4.29466e-05
-1.7352e-06
7.53032e-05
-4.06684e-05
-1.61125e-06
7.6931e-05
-3.82092e-05
-1.4701e-06
7.85606e-05
-3.55622e-05
-1.29128e-06
8.00814e-05
-3.27296e-05
-1.06176e-06
8.13701e-05
-2.96984e-05
-7.79024e-07
8.22831e-05
-2.64418e-05
-4.39576e-07
8.26983e-05
-2.29712e-05
-5.27575e-08
8.24156e-05
-1.93999e-05
5.36257e-07
8.15362e-05
-1.59097e-05
1.16009e-06
8.03037e-05
-1.26874e-05
1.81296e-06
7.90256e-05
-9.82796e-06
2.46092e-06
7.79827e-05
-7.29839e-06
3.0716e-06
7.73215e-05
-4.95173e-06
3.62618e-06
7.69235e-05
-2.51928e-06
4.1283e-06
7.70647e-05
5.7713e-07
4.59936e-06
7.69459e-05
4.39996e-06
5.04428e-06
7.58149e-05
9.19638e-06
5.47842e-06
7.41301e-05
1.43244e-05
5.91654e-06
7.19792e-05
1.91571e-05
6.30255e-06
6.82459e-05
2.27253e-05
6.57108e-06
6.20664e-05
2.46021e-05
6.73831e-06
5.22958e-05
2.50702e-05
6.86823e-06
3.7212e-05
2.3904e-05
7.03044e-06
1.7794e-05
2.09301e-05
7.26672e-06
1.6749e-05
5.77116e-06
1.45706e-05
-4.03758e-05
-1.60819e-06
2.27377e-05
-5.15963e-05
-1.78503e-06
2.56007e-05
-5.27868e-05
-1.19499e-06
2.61183e-05
-5.23158e-05
-7.70498e-07
2.61355e-05
-5.14131e-05
-5.13178e-07
2.63314e-05
-5.02963e-05
-3.96802e-07
2.69249e-05
-4.89984e-05
-3.79726e-07
2.79391e-05
-4.74987e-05
-4.26821e-07
2.92871e-05
-4.57531e-05
-5.10224e-07
3.08135e-05
-4.37068e-05
-6.07521e-07
3.23244e-05
-4.13155e-05
-6.98434e-07
3.36359e-05
-3.85856e-05
-7.62625e-07
3.46383e-05
-3.55991e-05
-7.85547e-07
3.53411e-05
-3.24844e-05
-7.60064e-07
3.58814e-05
-2.93569e-05
-6.83865e-07
3.64855e-05
-2.62755e-05
-5.59769e-07
3.73951e-05
-2.3264e-05
-3.95646e-07
3.87782e-05
-2.03633e-05
-1.99441e-07
4.07035e-05
-1.76603e-05
2.74929e-08
4.31695e-05
-1.52568e-05
2.74798e-07
4.61136e-05
-1.31935e-05
5.58876e-07
4.94302e-05
-1.1394e-05
8.85946e-07
5.29435e-05
-9.64175e-06
1.25738e-06
5.62853e-05
-7.48752e-06
1.6786e-06
5.90201e-05
-4.2891e-06
2.14576e-06
6.02997e-05
5.02653e-07
2.61131e-06
6.04187e-05
6.0797e-06
3.03081e-06
5.90883e-05
1.23609e-05
3.42529e-06
5.62313e-05
1.83627e-05
3.83779e-06
5.13598e-05
2.34849e-05
4.25015e-06
4.39596e-05
2.74743e-05
4.6188e-06
3.44091e-05
2.97256e-05
5.00502e-06
2.27799e-05
3.01468e-05
5.50413e-06
9.32643e-06
2.86119e-05
5.88441e-06
2.16972e-05
4.43002e-06
6.85475e-06
-4.51187e-05
-1.7458e-06
1.18841e-05
-5.33366e-05
-2.98089e-06
1.65732e-05
-5.39885e-05
-3.21399e-06
2.11648e-05
-5.34488e-05
-3.20667e-06
2.54677e-05
-5.23064e-05
-3.18086e-06
2.9284e-05
-5.07429e-05
-3.16371e-06
3.24935e-05
-4.88574e-05
-3.16724e-06
3.50277e-05
-4.6677e-05
-3.19582e-06
3.68255e-05
-4.41657e-05
-3.25036e-06
3.7806e-05
-4.12513e-05
-3.32949e-06
3.78969e-05
-3.79056e-05
-3.42667e-06
3.71196e-05
-3.42456e-05
-3.52534e-06
3.56441e-05
-3.05273e-05
-3.59792e-06
3.37647e-05
-2.70258e-05
-3.61689e-06
3.18397e-05
-2.39309e-05
-3.56459e-06
3.02225e-05
-2.12999e-05
-3.43311e-06
2.91848e-05
-1.90704e-05
-3.2263e-06
2.88329e-05
-1.71082e-05
-2.95779e-06
2.90468e-05
-1.52635e-05
-2.64521e-06
2.94828e-05
-1.3407e-05
-2.30315e-06
2.9671e-05
-1.14544e-05
-1.93167e-06
2.91649e-05
-9.38053e-06
-1.49895e-06
2.76412e-05
-7.16683e-06
-9.27874e-07
2.5014e-05
-4.66947e-06
-1.61352e-07
2.16933e-05
-1.59951e-06
6.57041e-07
1.87521e-05
2.06967e-06
1.40171e-06
1.65259e-05
6.33931e-06
2.00905e-06
1.52859e-05
1.1135e-05
2.52153e-06
1.45963e-05
1.60798e-05
3.00662e-06
1.36422e-05
2.09101e-05
3.50737e-06
1.21471e-05
2.48536e-05
4.06268e-06
1.00412e-05
2.71709e-05
4.6044e-06
6.85023e-06
2.82648e-05
5.03948e-06
2.79463e-06
2.75569e-05
5.21561e-06
2.11026e-05
3.58338e-06
2.23833e-06
-4.5087e-05
-1.97788e-06
3.74134e-06
-5.22233e-05
-2.44785e-06
4.56857e-06
-5.22676e-05
-2.43756e-06
4.9731e-06
-5.14055e-05
-2.35839e-06
5.09065e-06
-5.0087e-05
-2.25378e-06
5.03021e-06
-4.84418e-05
-2.15826e-06
4.87086e-06
-4.65228e-05
-2.09204e-06
4.65333e-06
-4.43118e-05
-2.06361e-06
4.38062e-06
-4.17349e-05
-2.07458e-06
4.04925e-06
-3.87179e-05
-2.12236e-06
3.71105e-06
-3.52973e-05
-2.19864e-06
3.49105e-06
-3.16808e-05
-2.28692e-06
3.52098e-06
-2.81491e-05
-2.36987e-06
3.87054e-06
-2.49259e-05
-2.43459e-06
4.54594e-06
-2.21409e-05
-2.47404e-06
5.53025e-06
-1.98285e-05
-2.48423e-06
6.79703e-06
-1.79205e-05
-2.46014e-06
8.28052e-06
-1.62485e-05
-2.39603e-06
9.80067e-06
-1.45534e-05
-2.28641e-06
1.09665e-05
-1.24991e-05
-2.12594e-06
1.12825e-05
-9.90143e-06
-1.91183e-06
1.05004e-05
-6.99808e-06
-1.63075e-06
8.73416e-06
-4.15837e-06
-1.25846e-06
6.40794e-06
-1.55252e-06
-7.92959e-07
4.25191e-06
8.18821e-07
-2.5138e-07
2.93962e-06
3.08259e-06
3.23276e-07
2.80452e-06
5.58947e-06
9.20947e-07
4.01327e-06
8.42898e-06
1.53182e-06
6.2906e-06
1.16816e-05
2.10948e-06
9.09147e-06
1.53966e-05
2.58422e-06
1.06515e-05
2.01162e-05
2.91858e-06
9.75562e-06
2.46073e-05
3.2318e-06
7.12107e-06
2.73428e-05
3.58669e-06
3.44592e-06
2.76106e-05
3.75129e-06
2.23325e-05
2.46141e-06
2.04501e-07
-4.35654e-05
-1.63426e-06
1.44113e-06
-5.09836e-05
-2.38783e-06
2.94307e-06
-5.12898e-05
-2.39827e-06
4.45207e-06
-5.04928e-05
-2.34897e-06
5.88907e-06
-4.913e-05
-2.33042e-06
7.17928e-06
-4.73344e-05
-2.34338e-06
8.23605e-06
-4.51519e-05
-2.38404e-06
8.9789e-06
-4.2573e-05
-2.45028e-06
9.36338e-06
-3.9561e-05
-2.54093e-06
9.43655e-06
-3.61353e-05
-2.64997e-06
9.36411e-06
-3.24616e-05
-2.76101e-06
9.33875e-06
-2.87973e-05
-2.85082e-06
9.44156e-06
-2.53404e-05
-2.8975e-06
9.61519e-06
-2.21959e-05
-2.88845e-06
9.75069e-06
-1.94449e-05
-2.82181e-06
9.78646e-06
-1.71601e-05
-2.70425e-06
9.73976e-06
-1.53418e-05
-2.54206e-06
9.67339e-06
-1.38704e-05
-2.32913e-06
9.6544e-06
-1.25103e-05
-2.04097e-06
9.74996e-06
-1.09358e-05
-1.65999e-06
9.98628e-06
-8.86979e-06
-1.24382e-06
1.02472e-05
-6.3298e-06
-8.8864e-07
1.04627e-05
-3.7251e-06
-6.02528e-07
1.0692e-05
-1.40361e-06
-3.27487e-07
1.09763e-05
6.01328e-07
-7.65937e-09
1.13982e-05
2.3912e-06
3.39548e-07
1.21872e-05
4.12197e-06
7.61519e-07
1.35152e-05
5.9308e-06
1.2645e-06
1.53847e-05
8.06915e-06
1.83507e-06
1.71265e-05
1.12788e-05
2.41494e-06
1.60674e-05
1.81916e-05
2.97085e-06
1.13474e-05
2.60943e-05
3.24356e-06
5.88413e-06
2.94419e-05
3.44428e-06
1.15424e-06
2.90552e-05
3.43505e-06
2.14935e-05
2.09114e-06
2.23958e-06
-4.42189e-05
-1.41318e-06
3.82642e-06
-5.04721e-05
-1.97263e-06
5.0839e-06
-5.03239e-05
-2.14171e-06
6.1616e-06
-4.93488e-05
-2.16561e-06
7.05685e-06
-4.78472e-05
-2.13657e-06
7.74465e-06
-4.59045e-05
-2.08542e-06
8.22069e-06
-4.3571e-05
-2.03345e-06
8.50674e-06
-4.08514e-05
-1.99578e-06
8.64148e-06
-3.77147e-05
-1.98378e-06
8.65611e-06
-3.41612e-05
-2.00557e-06
8.55819e-06
-3.03256e-05
-2.06321e-06
8.35485e-06
-2.64691e-05
-2.14949e-06
8.08636e-06
-2.28405e-05
-2.24843e-06
7.80395e-06
-1.95835e-05
-2.33743e-06
7.51324e-06
-1.67629e-05
-2.39253e-06
7.16518e-06
-1.44143e-05
-2.39794e-06
6.71005e-06
-1.25384e-05
-2.35148e-06
6.16033e-06
-1.10711e-05
-2.25717e-06
5.62792e-06
-9.87973e-06
-2.10952e-06
5.32649e-06
-8.76851e-06
-1.87678e-06
5.39534e-06
-7.44085e-06
-1.49643e-06
5.67601e-06
-5.60879e-06
-9.77523e-07
5.90513e-06
-3.437e-06
-4.75113e-07
5.9416e-06
-1.32459e-06
-6.17315e-08
5.77333e-06
5.71625e-07
2.63615e-07
5.61841e-06
2.04478e-06
5.82144e-07
5.52245e-06
3.38848e-06
9.26916e-07
5.57208e-06
4.68004e-06
1.31348e-06
5.89232e-06
6.1247e-06
1.74769e-06
6.75028e-06
8.31027e-06
2.24076e-06