/*--------------------------------*- C++ -*----------------------------------*\
| =========                 |                                                 |
| \\      /  F ield         | OpenFOAM: The Open Source CFD Toolbox           |
|  \\    /   O peration     | Version:  v2006                                 |
|   \\  /    A nd           | Website:  www.openfoam.com                      |
|    \\/     M anipulation  |                                                 |
\*---------------------------------------------------------------------------*/
FoamFile
{
    version     2.0;
    format      ascii;
    class       volScalarField;
    location    "99";
    object      alphat;
}
// * * * * * * * * * * * * * * * * * * * * * * * * * * * * * * * * * * * * * //

dimensions      [1 -1 -1 0 0 0 0];


internalField   nonuniform List<scalar> 
78750
(
1.2945e-06
2.71631e-07
3.58892e-06
2.18063e-06
6.52134e-06
2.85114e-06
2.87336e-06
1.5725e-06
9.76647e-06
5.81511e-06
6.65591e-06
4.36465e-06
1.2763e-06
1.10913e-05
1.70075e-05
1.21216e-05
1.29931e-05
1.74828e-06
1.27949e-05
1.38116e-05
1.07388e-05
1.32167e-05
6.19114e-06
2.05968e-05
1.07676e-05
3.83835e-05
7.44255e-05
0.000118395
0.000175309
0.000246734
0.000315626
0.000348386
0.000357777
0.000344882
2.28853e-05
8.35865e-06
6.42839e-06
5.07212e-05
0.000165671
0.000285484
0.000584684
0.000373514
0.000275984
0.000258546
0.000264606
0.000272876
0.000278465
0.00028297
0.000289101
0.00030038
0.000316591
0.000336785
0.000360954
0.000389116
0.000420587
0.000455234
0.000491225
0.000527582
0.000568551
0.000621132
0.000693839
0.000798541
0.000940368
0.000947468
0.000931056
0.000905459
0.000867877
0.000814746
0.00074093
2.12e-05
1.53949e-05
6.77921e-05
0.000259496
0.000533476
0.000936523
0.000957576
0.000976551
0.000993679
0.00100904
0.00102269
0.00103472
0.00104536
0.00105485
0.00106337
0.00107098
0.00107759
0.00108304
0.00108709
0.0010895
0.00109003
0.00108844
0.00108451
0.00107798
0.00106857
0.00105598
0.00103979
0.00101952
0.00099451
0.000963941
0.000926695
0.000881357
0.000825931
0.000757242
0.000635096
1.44268e-05
3.26857e-05
0.000792904
0.000864529
0.000915128
0.000950345
0.000974713
0.000991401
0.00100259
0.00100998
0.00101489
0.00101834
0.00102107
0.00102358
0.00102614
0.00102887
0.00103179
0.00103488
0.00103805
0.00104123
0.00104431
0.00104713
0.00104951
0.00105118
0.00105179
0.00105084
0.00104766
0.00104142
0.00103104
0.00101524
0.000992333
0.000960161
0.00091577
0.000854921
0.000754965
2.07466e-05
3.71589e-05
0.000818657
0.000875155
0.00088823
0.000900245
0.000963705
0.000977355
0.000984972
0.000989011
0.000990587
0.000990589
0.000989705
0.000988442
0.000987166
0.000986122
0.000985453
0.000985233
0.000985495
0.000986256
0.000987526
0.000989305
0.00099158
0.000994312
0.000997428
0.00100081
0.00100422
0.00100734
0.00100966
0.00101034
0.001008
0.000935408
0.000799985
0.000713758
0.000614966
2.62991e-05
3.42382e-05
0.000811188
0.000871721
0.000912163
0.000938616
0.000955035
0.000964275
0.000968515
0.000969377
0.000968064
0.000965455
0.000962174
0.00095864
0.000955143
0.000951864
0.000948911
0.000946349
0.000944216
0.000942529
0.000941286
0.000940457
0.000939972
0.000939697
0.000939407
0.000938766
0.000937298
0.000934357
0.000929032
0.00092003
0.000905523
0.000883009
0.000849197
0.000799659
0.000727527
2.11205e-05
3.41378e-05
0.000809956
0.000869775
0.000910313
0.000936951
0.000953497
0.000962876
0.000967371
0.000968746
0.000968299
0.000966922
0.000965163
0.000963296
0.000961405
0.000959456
0.000957355
0.000954995
0.000952286
0.000949159
0.000945571
0.00094149
0.000936861
0.00093157
0.000925392
0.000917953
0.000908711
0.000896985
0.000881978
0.000862734
0.000838005
0.000806085
0.000764538
0.000709777
0.000635818
1.59078e-05
3.28195e-05
0.000789459
0.000848144
0.000887619
0.000913943
0.000931048
0.000941789
0.000948313
0.000952254
0.000954795
0.000956712
0.000958431
0.000960114
0.000961745
0.000963208
0.000964347
0.000965004
0.000965033
0.000964301
0.000962687
0.000960057
0.000956262
0.000951142
0.000944547
0.000936327
0.000926251
0.000913883
0.000898513
0.00087913
0.000854392
0.000822574
0.000781415
0.000727729
0.000656337
1.79518e-05
3.81552e-05
0.000828833
0.000882002
0.000916659
0.000938391
0.000951031
0.000957285
0.000959061
0.00095797
0.000955406
0.000952523
0.00095015
0.000948759
0.00094848
0.000949197
0.00095066
0.000952558
0.000954568
0.000956374
0.000957675
0.000958164
0.000957505
0.000955335
0.000951298
0.00094508
0.00093639
0.000924835
0.000909791
0.000890328
0.000865159
0.00083258
0.000790332
0.000735238
0.000662105
1.83043e-05
2.97196e-05
0.000740715
0.000797656
0.000836304
0.000861261
0.000875887
0.000883989
0.000891878
0.000899282
0.000904081
0.000904843
0.000902561
0.0008986
0.000893949
0.000889331
0.000885169
0.000881768
0.000879317
0.00087787
0.000877354
0.000877576
0.000878247
0.000879022
0.000879525
0.000879372
0.000878154
0.000875376
0.000870356
0.000862131
0.000849388
0.000830352
0.000802624
0.000762905
0.0007062
2.36383e-05
2.57028e-05
0.00064819
0.000770798
0.000812103
0.000842514
0.000864572
0.000880062
0.000890356
0.000896338
0.000898601
0.000897589
0.000893717
0.000887441
0.000879282
0.000869756
0.000859311
0.000848362
0.000837338
0.000826718
0.000817019
0.00080878
0.000802453
0.000798193
0.000795803
0.000794788
0.000794423
0.000793796
0.000791811
0.00078718
0.000747383
0.00064953
0.000550289
0.000458383
0.000330398
1.46792e-05
2.17284e-05
0.000384702
0.000546355
0.000647722
0.000706706
0.000729679
0.000735689
0.000741637
0.000757616
0.000782332
0.000792875
0.000795381
0.000796813
0.000797325
0.000797104
0.000795321
0.000795153
0.000793596
0.000791638
0.000789308
0.000786717
0.000784095
0.000781748
0.000779948
0.000778775
0.000777927
0.000776564
0.000773341
0.000766648
0.000754818
0.000736168
0.000709011
0.000650175
0.000493888
1.88898e-05
3.03463e-05
0.000670185
0.000708238
0.000735049
0.000753818
0.00076689
0.00077582
0.000718218
0.000678628
0.000668654
0.000677661
0.000697659
0.00072256
0.000745592
0.000756941
0.000746882
0.0007264
0.000723923
0.000742694
0.000736762
0.000731452
0.000726703
0.000722547
0.000719006
0.000715957
0.000713058
0.000709645
0.000704696
0.000696922
0.000685006
0.000667742
0.000643942
0.000524806
0.000355577
1.47237e-05
1.76293e-05
0.000158172
0.000222476
0.000260512
0.000338721
0.000489024
0.000699512
0.00078294
0.000786273
0.000786854
0.000785855
0.000784048
0.000781924
0.000707495
0.000591456
0.000544581
0.000545784
0.000569901
0.000606268
0.00065914
0.000740614
0.000757485
0.00074519
0.000731636
0.000720446
0.000712395
0.000705351
0.00069725
0.000686648
0.000672614
0.000654307
0.000630602
0.000600003
0.000430679
1.71995e-05
1.84965e-05
9.75723e-05
0.00011156
0.000176061
0.000299605
0.000434708
0.00055043
0.000641419
0.000686575
0.000663967
0.000602005
0.000547085
0.000513918
0.000495482
0.000483433
0.000472093
0.000458193
0.000442659
0.000427815
0.000414662
0.000403366
0.000392879
0.000381703
0.000370003
0.00036038
0.000357281
0.000364945
0.000386166
0.000428317
0.000519236
0.000658217
0.000640178
0.000612727
0.000574809
1.95309e-05
2.68214e-05
0.000214963
0.000282262
0.000415132
0.000623079
0.000773961
0.000768809
0.000761362
0.00075246
0.00074277
0.00069856
0.000592817
0.000520871
0.000479962
0.000452256
0.000429248
0.000409873
0.000395608
0.000389945
0.000396294
0.000410634
0.000428853
0.000449076
0.00046998
0.000490874
0.000512393
0.000535801
0.000563452
0.000601351
0.00065147
0.000647857
0.000637571
0.0006189
0.000483771
2.0056e-05
2.36239e-05
0.000238699
0.000321214
0.000375337
0.000430493
0.000465933
0.00047917
0.000472024
0.00044998
0.000422798
0.000400205
0.000389321
0.000393208
0.000408692
0.000425387
0.000433468
0.000430675
0.000420841
0.000408969
0.000398806
0.000392827
0.000391894
0.000395094
0.000400798
0.000407625
0.000415024
0.000423594
0.000435054
0.000451711
0.000475757
0.000512304
0.000570651
0.000622524
0.000533509
2.11162e-05
2.22337e-05
0.000201547
0.000342822
0.000426045
0.000527273
0.000645363
0.0007325
0.000752148
0.000720218
0.000663221
0.000601254
0.000552224
0.000523575
0.000516306
0.000526106
0.000544613
0.000560372
0.000558339
0.000529989
0.000496201
0.000475103
0.0004618
0.000452654
0.000445696
0.000439524
0.000433743
0.00042926
0.000428031
0.000432346
0.000443974
0.000463901
0.000489575
0.000500976
0.000376389
1.9148e-05
2.2142e-05
0.000237011
0.000404521
0.000519553
0.000663837
0.000734337
0.000735945
0.000735374
0.000732823
0.000728837
0.00072404
0.000718966
0.000697125
0.000667845
0.000647961
0.000633527
0.000618272
0.00059719
0.000566675
0.000528057
0.000492928
0.000472156
0.000459974
0.000451416
0.000444444
0.000438144
0.000432707
0.000429223
0.000429248
0.000435658
0.000453254
0.000483198
0.000506762
0.000403414
2.01723e-05
2.1263e-05
0.000248954
0.000457771
0.000519616
0.000567785
0.00062457
0.000680646
0.000724654
0.000726291
0.0007259
0.000723884
0.000720808
0.000717186
0.000713389
0.000709621
0.000706026
0.000702659
0.000699534
0.000696631
0.000693882
0.00067046
0.000584135
0.000531407
0.000499901
0.000478806
0.000463979
0.000454223
0.000450177
0.000453972
0.000469177
0.00049884
0.000539041
0.000563919
0.000428403
1.99092e-05
2.37503e-05
0.000271254
0.000593815
0.000613983
0.000553992
0.000552227
0.000639186
0.000774154
0.000773654
0.000772408
0.000770341
0.000767553
0.000764212
0.000760496
0.000756545
0.000752465
0.000748334
0.000744206
0.0007401
0.000736009
0.000691505
0.000609546
0.000562211
0.000531997
0.000508891
0.000490412
0.000477575
0.000473925
0.000485067
0.000516809
0.000569122
0.000623528
0.000621742
0.000352521
1.93375e-05
2.19525e-05
0.000187017
0.000511855
0.000687904
0.00070786
0.000649208
0.000602271
0.000625794
0.000732004
0.00075104
0.000748835
0.000747107
0.000745794
0.000744787
0.000743964
0.000743212
0.000742438
0.000741579
0.000740598
0.000739518
0.00066925
0.000612828
0.00057511
0.00055033
0.000534874
0.00052558
0.000518991
0.000513089
0.000508466
0.000507515
0.000510384
0.000510919
0.00048842
0.000318362
2.00011e-05
2.29954e-05
0.000664671
0.000322608
0.000224234
0.000345705
0.000657211
0.000663479
0.00067246
0.000683194
0.00069438
0.000705046
0.000714698
0.000723201
0.000730642
0.000737162
0.000742893
0.00074793
0.000752331
0.000756142
0.000759394
0.000762081
0.000764193
0.00076581
0.000767099
0.000764204
0.000700581
0.000639094
0.000590407
0.000558979
0.000543392
0.000538016
0.000536424
0.000532115
0.000437208
2.1913e-05
1.60888e-05
0.000141185
0.00067447
0.00069291
0.000640849
0.000505319
0.00041227
0.000379059
0.000415778
0.000521884
0.0006615
0.000763596
0.000764927
0.000766971
0.000769787
0.000773445
0.000766359
0.000727976
0.000702162
0.000696827
0.000717908
0.000765809
0.0008266
0.000840297
0.000847333
0.000852063
0.000826144
0.000803619
0.000791225
0.000779943
0.000756721
0.000706606
0.000599616
0.000297578
2.07148e-05
2.41894e-05
0.000538094
0.000510351
0.000463025
0.000527093
0.000618834
0.000633474
0.000627369
0.000670849
0.000732871
0.000771385
0.000790845
0.000796684
0.000790403
0.000772144
0.000742474
0.000702242
0.000652024
0.000593721
0.000531656
0.000471915
0.000421627
0.000387913
0.00037675
0.000391404
0.000427191
0.000468953
0.00050181
0.000519908
0.000519763
0.000494848
0.000438003
0.000329837
0.000151813
1.75893e-05
1.94005e-05
0.000162191
0.000601041
0.000634507
0.000526718
0.000433387
0.000328968
0.000240619
0.000248912
0.000425926
0.000763688
0.000768317
0.000773899
0.0007799
0.000785958
0.000791879
0.00079755
0.000762689
0.000717132
0.000662357
0.000600224
0.000535874
0.000474624
0.000421447
0.000382056
0.000361177
0.000360167
0.000374296
0.00039281
0.000403526
0.000393724
0.000349973
0.00025957
0.000113692
1.37024e-05
8.07742e-06
5.18473e-05
0.000151972
0.000508141
0.000731148
0.00074707
0.000739735
0.000488419
0.000416044
0.000477136
0.000634435
0.00083615
0.000849691
0.000852622
0.000855312
0.000858454
0.000862454
0.000867504
0.000873602
0.000880549
0.000887911
0.000894854
0.000900181
0.000847018
0.000738346
0.0006404
0.000558987
0.00048776
0.000420257
0.000355957
0.000301789
0.000261166
0.000184454
6.16553e-05
1.12403e-05
3.20014e-05
0.000449002
0.00102467
0.00103075
0.00103317
0.00103361
0.000944303
0.000879559
0.000946643
0.00101753
0.00100887
0.000998835
0.000988475
0.000978179
0.00096768
0.000956953
0.000946267
0.000936148
0.000927214
0.000841299
0.000701878
0.000637719
0.000617697
0.000584713
0.000518487
0.000439267
0.000369494
0.000321791
0.000304414
0.000315507
0.000322437
0.000266769
0.000169487
8.31305e-05
1.63431e-05
2.18281e-05
0.000208086
0.000390425
0.000556045
0.000727052
0.000891828
0.000962708
0.00084642
0.000451315
0.000288596
0.000308486
0.000507648
0.000888843
0.000882095
0.000877488
0.000852454
0.000790273
0.000793242
0.000798717
0.00078415
0.000756953
0.000729659
0.000701801
0.000660284
0.000599054
0.000533961
0.000488425
0.000470217
0.000466742
0.000465393
0.000479888
0.000478828
0.000403013
0.000310201
2.60294e-05
3.08924e-05
7.26359e-05
0.000182107
0.000482948
0.000711523
0.000642449
0.000471456
0.000349358
0.000313321
0.000375558
0.000546335
0.000688782
0.000704976
0.000683586
0.000667064
0.000659934
0.000655193
0.000648725
0.000642298
0.000638737
0.000639653
0.000645201
0.000652886
0.000659662
0.000669589
0.000690941
0.000685445
0.000505936
0.000274443
0.000176639
0.000165185
0.0001924
0.000216903
0.000251574
2.2548e-05
4.7221e-05
0.000163054
0.000260871
0.00039765
0.000507009
0.00056763
0.000590513
0.000591928
0.00058711
0.000585134
0.000590255
0.000602951
0.000622491
0.000648408
0.000680303
0.000714003
0.000737842
0.000737031
0.000709506
0.000670618
0.000638014
0.000617507
0.000592516
0.000517599
0.000375226
0.000232453
0.000143967
0.000104479
0.000101382
0.000146509
0.000301909
0.000553659
0.000248035
8.59357e-05
1.64631e-05
2.78135e-05
0.000246148
0.000417344
0.000507713
0.000544953
0.000543815
0.000526206
0.000507347
0.000492936
0.000478796
0.000461478
0.000450053
0.000450222
0.000454522
0.00045318
0.000442312
0.000422515
0.000395605
0.000363451
0.000328273
0.000293434
0.000262966
0.000239311
0.000221684
0.000206558
0.000190439
0.000175677
0.000173841
0.000199032
0.000248899
0.0002625
0.000210966
0.000129648
6.30475e-05
1.45183e-05
1.13216e-05
0.000101731
0.000203972
0.00016756
0.000143223
0.000146799
0.000173108
0.000208149
0.000213745
0.000213391
0.000235483
0.000277181
0.000331167
0.000390351
0.000445905
0.000488709
0.000514455
0.000524863
0.000522127
0.000505258
0.000474275
0.000434243
0.000392019
0.000352424
0.000318193
0.000291144
0.000273622
0.000268235
0.000274737
0.000285466
0.000285831
0.000259762
0.000200873
0.000120123
2.10483e-05
5.11702e-06
5.02824e-05
3.98402e-05
4.20236e-05
6.62778e-05
7.15325e-05
8.12691e-05
0.000119284
0.000194974
0.000307616
0.000416702
0.000482335
0.000505616
0.000505035
0.00049715
0.000491174
0.000491538
0.000502504
0.000530048
0.000580667
0.000657111
0.000749622
0.000826707
0.000850653
0.000816735
0.000750669
0.000678369
0.000617007
0.000572692
0.000533966
0.000467465
0.000337973
0.000229992
0.000164142
2.55758e-05
6.13962e-06
4.67827e-05
7.75421e-05
0.000188831
0.000157598
0.000134841
0.000147522
0.000188513
0.0002587
0.000357853
0.00048106
0.000600265
0.000667208
0.000668721
0.000633778
0.000587172
0.000543753
0.000511615
0.000494033
0.000492498
0.000507715
0.00054092
0.000595112
0.000671171
0.000756922
0.000820718
0.00083613
0.000818419
0.000794516
0.000756247
0.000598772
0.000337937
0.000233636
0.000218615
2.58879e-05
5.90247e-06
4.14184e-05
6.51396e-05
0.000182681
0.000149893
0.000155785
0.000195693
0.000223356
0.000247629
0.000285522
0.000351102
0.000440761
0.000551711
0.000717538
0.000894471
0.000893262
0.000891082
0.000889097
0.000888135
0.000888369
0.000889745
0.000865738
0.000821826
0.000798088
0.000813024
0.000851524
0.000842305
0.000748101
0.000598951
0.000315634
0.000129696
0.000120624
0.000223655
0.000326851
2.86613e-05
6.54095e-06
6.59341e-05
2.98036e-05
3.74535e-05
9.97425e-05
0.000150839
0.000143195
0.000148022
0.000133097
0.000136023
0.000173799
0.000242893
0.000299644
0.000312547
0.000301945
0.00030705
0.000359731
0.000503482
0.000839276
0.000939062
0.000926676
0.000915978
0.000907496
0.000845116
0.000681156
0.000576785
0.000535101
0.000539433
0.000521261
0.000350226
0.000170546
0.000148244
0.000237147
0.000339679
3.03358e-05
1.07604e-05
2.76196e-05
7.20472e-05
0.000101948
6.00715e-05
4.55585e-05
5.04189e-05
7.11623e-05
0.000118502
0.000208375
0.000351519
0.000382416
0.000243561
0.000143922
0.000114332
0.000115426
0.000128228
0.000165345
0.000227179
0.000313564
0.000460429
0.000763387
0.000927857
0.000900229
0.000870065
0.000842544
0.000643189
0.000458851
0.000328159
0.00026486
0.00024561
0.000231982
0.00024534
0.000290563
3.17385e-05
1.46922e-05
3.16455e-05
5.86723e-05
0.000262395
0.000157825
9.4904e-05
0.000107782
0.000136627
0.000215438
0.000304327
0.000209625
0.000103595
4.46947e-05
1.65839e-05
8.97574e-06
3.09124e-05
5.6547e-05
0.000112955
0.000220075
0.000301847
0.000321225
0.000335889
0.000352017
0.000365485
0.000380571
0.000419507
0.000509258
0.000535121
0.000350377
0.000185261
8.75728e-05
8.4955e-05
0.000177501
0.000403836
3.01968e-05
1.67723e-05
5.29753e-05
0.000104865
0.00024305
0.000274042
0.000330587
0.00055068
0.000664451
0.00067725
0.000688255
0.000697094
0.000543911
0.000290349
0.000152281
0.000119266
0.000153835
0.000151916
0.000124825
0.000151292
0.000222028
0.000251603
0.000205526
0.00017424
0.000158226
0.000136405
0.000109779
9.93445e-05
0.000112035
0.00015366
0.000231433
0.00027039
0.000162849
0.000134679
0.00017577
2.82248e-05
1.65399e-05
6.519e-05
9.25208e-05
0.000145198
0.000161346
0.000169822
0.00017841
0.000185198
0.000189825
0.000193985
0.000198245
0.000201029
0.000198399
0.000184708
0.000158608
0.000139495
0.000141308
0.000155276
0.000168601
0.000170375
0.000162604
0.000153914
0.000136682
0.00011928
0.000119471
0.000101351
8.09116e-05
0.000109973
0.000104757
7.42998e-05
5.27266e-05
6.13972e-05
9.10691e-05
0.000154607
2.4422e-05
5.63806e-06
2.49432e-05
4.96882e-05
5.11547e-05
5.08975e-05
5.13232e-05
5.20177e-05
5.30161e-05
5.44637e-05
5.64255e-05
5.89613e-05
6.21689e-05
6.58733e-05
7.02246e-05
7.47268e-05
7.94259e-05
8.31856e-05
8.60281e-05
8.64236e-05
8.5645e-05
7.88012e-05
8.09948e-05
6.26149e-05
4.32346e-05
3.21758e-05
3.09314e-05
1.67196e-05
1.9776e-05
6.90404e-06
1.53385e-06
1.3614e-05
4.55219e-05
0.000114205
0.000211245
2.19354e-05
9.73119e-06
3.80186e-05
7.08804e-05
9.50975e-05
0.000109416
0.00011927
0.000127999
0.000136497
0.000144944
0.000153507
0.000162424
0.00017219
0.00018431
0.000201052
0.000223133
0.00024636
0.000262265
0.00026329
0.000248988
0.0002191
0.000162072
9.09661e-05
4.48272e-05
1.64724e-05
3.43683e-06
2.75072e-07
2.16743e-06
8.6394e-07
1.11052e-05
4.50737e-05
8.77526e-05
0.000170262
0.000333912
0.000286295
2.54095e-05
1.10523e-05
5.11622e-05
0.000132106
0.000169847
0.000180517
0.000185748
0.000185331
0.000178263
0.000169352
0.000167168
0.000178512
0.000208976
0.000265629
0.000347583
0.000368917
0.000361337
0.000352137
0.000340516
0.000304033
0.000115315
4.78762e-05
2.36508e-05
8.49206e-06
1.47589e-06
6.52971e-07
1.2543e-06
3.31224e-06
7.27266e-06
3.985e-05
0.000100678
0.000191435
0.000317018
0.000396984
0.000312195
3.11145e-05
1.12726e-05
6.36156e-05
0.000156554
0.000192151
0.000199799
0.000191272
0.000167416
0.000140634
0.000125246
0.000125574
0.000140636
0.000167754
0.000201804
0.000235232
0.000259553
0.000263639
0.000231745
0.000162454
9.49255e-05
5.50755e-05
3.53836e-05
2.52093e-05
1.81941e-05
1.08035e-05
3.47305e-06
2.11847e-06
5.84694e-07
7.88848e-06
3.55492e-05
9.03679e-05
0.000184324
0.000316355
0.000395844
0.000320783
2.91044e-05
1.13405e-05
7.30571e-05
0.000195371
0.00021313
0.000198404
0.000168916
0.000137968
0.000118921
0.000115405
0.000125631
0.000146582
0.00017462
0.000205082
0.000231335
0.000243497
0.000229185
0.00018425
0.00012749
8.33144e-05
5.74895e-05
4.49315e-05
3.98645e-05
3.72654e-05
3.32046e-05
2.57904e-05
1.60249e-05
7.5097e-06
5.18505e-06
1.45774e-05
3.89013e-05
9.21558e-05
0.000227194
0.000376544
0.000164502
1.94399e-05
1.14056e-05
8.15045e-05
0.000206815
0.000216277
0.000191222
0.000154584
0.000125212
0.000110782
0.00011034
0.000121531
0.000141747
0.000166992
0.000191445
0.000207667
0.000207187
0.000184495
0.000145416
0.000106454
7.96764e-05
6.64726e-05
6.33756e-05
6.53472e-05
6.70785e-05
6.46464e-05
5.63871e-05
4.27286e-05
2.67971e-05
1.42016e-05
9.8079e-06
1.61788e-05
4.27539e-05
0.000139467
0.000288944
6.63046e-05
1.15489e-05
1.1442e-05
8.73214e-05
0.000220136
0.000215387
0.000176937
0.000137454
0.000113233
0.000104493
0.000107996
0.000121436
0.000142157
0.000165643
0.000185449
0.000194067
0.000185206
0.000159084
0.000125963
9.89419e-05
8.441e-05
8.23167e-05
8.90743e-05
9.82324e-05
0.000102865
9.92082e-05
8.70721e-05
6.81104e-05
4.5979e-05
2.67561e-05
1.52526e-05
1.32712e-05
2.75748e-05
9.73906e-05
0.000170269
3.56631e-05
7.97039e-06
1.15252e-05
9.43927e-05
0.000225597
0.000207945
0.000160712
0.000123769
0.000106356
0.000103179
0.000109707
0.000123711
0.000142793
0.000162499
0.000176373
0.000177795
0.000163872
0.000139396
0.000114747
9.85685e-05
9.45762e-05
0.000102757
0.000118855
0.000133641
0.000138305
0.000130271
0.000111652
8.60667e-05
5.87371e-05
3.60327e-05
2.19005e-05
1.72817e-05
2.75334e-05
8.61966e-05
0.00010375
2.51001e-05
6.74958e-06
1.14953e-05
9.92914e-05
0.000226186
0.000194227
0.000141743
0.000110635
0.000100706
0.000103199
0.000112664
0.000126732
0.000143305
0.000158211
0.000165256
0.000159313
0.000141382
0.000119739
0.000103689
9.83679e-05
0.000105369
0.000123317
0.000145422
0.000160481
0.000161352
0.000148479
0.000125512
9.66085e-05
6.72084e-05
4.33451e-05
2.84334e-05
2.35257e-05
3.46616e-05
8.9224e-05
8.02438e-05
2.17617e-05
6.32093e-06
1.15147e-05
0.000105694
0.000222831
0.00017875
0.000126809
0.000103088
0.000100232
0.000107607
0.000118426
0.000130334
0.000142737
0.00015314
0.000156164
0.000146971
0.000127678
0.000107994
9.70127e-05
9.86907e-05
0.000113403
0.000137763
0.000162177
0.000175012
0.000171639
0.000154801
0.000129317
9.99689e-05
7.17836e-05
4.93212e-05
3.53072e-05
3.18074e-05
4.69486e-05
0.000101517
7.75753e-05
2.13378e-05
6.06891e-06
1.14335e-05
0.000111342
0.000216595
0.000163103
0.000114875
9.82658e-05
0.000102244
0.000115483
0.000129125
0.000139736
0.000148188
0.000154694
0.000155677
0.000145398
0.00012371
0.000100848
8.84602e-05
9.17222e-05
0.000110971
0.000141302
0.000169687
0.000182652
0.000176436
0.000155125
0.000125147
9.38301e-05
6.79009e-05
5.05675e-05
4.20699e-05
4.46221e-05
6.91381e-05
0.000120156
7.76258e-05
2.0735e-05
5.47948e-06
1.13553e-05
0.000115895
0.000212577
0.000154126
0.000109559
9.77929e-05
0.000106648
0.000124733
0.000141725
0.000152635
0.000158611
0.000162283
0.00016324
0.00015622
0.000135485
0.000106256
8.4298e-05
8.0138e-05
9.65037e-05
0.000130315
0.000164989
0.000180489
0.000172715
0.000148003
0.000114897
8.27943e-05
5.92191e-05
4.67034e-05
4.51438e-05
5.73064e-05
9.06345e-05
0.000119453
6.6269e-05
1.84659e-05
4.60405e-06
1.11999e-05
0.000117732
0.000209638
0.000146773
0.000104652
9.64672e-05
0.000109391
0.00013256
0.000154895
0.000169234
0.000175028
0.000175551
0.000173578
0.000168016
0.000152893
0.000123892
9.10781e-05
7.19456e-05
7.47812e-05
0.000102374
0.000146673
0.000172318
0.000163914
0.000135895
0.000103253
7.50007e-05
5.54338e-05
4.60058e-05
4.80205e-05
6.51897e-05
9.52667e-05
0.000102688
5.41917e-05
1.65796e-05
3.95041e-06
1.10903e-05
0.000116843
0.000208773
0.000141225
9.99938e-05
9.39284e-05
0.000109033
0.000134977
0.000161525
0.000181011
0.000190822
0.000192444
0.000189086
0.000182945
0.000172444
0.000151585
0.000117423
8.22739e-05
6.33268e-05
6.6798e-05
9.59378e-05
0.000142135
0.00015867
0.000135751
0.000101617
7.38118e-05
5.64552e-05
4.92587e-05
5.32009e-05
7.06978e-05
9.32822e-05
9.31545e-05
5.1433e-05
1.67056e-05
3.67354e-06
1.09633e-05
0.000113237
0.000203318
0.000129196
9.074e-05
8.84095e-05
0.000107133
0.00013674
0.000167265
0.000191288
0.000205622
0.000210362
0.000207603
0.000200279
0.000190125
0.000175708
0.000152059
0.000116594
8.00178e-05
5.83139e-05
5.64254e-05
7.56897e-05
0.000114311
0.000138013
0.000121252
9.07056e-05
6.7984e-05
5.78135e-05
6.04686e-05
7.63009e-05
9.59009e-05
9.60883e-05
5.66751e-05
1.8128e-05
3.55015e-06
1.08136e-05
0.000103238
0.000190899
0.000113597
7.89174e-05
8.00903e-05
0.000102336
0.00013574
0.000169969
0.000197826
0.000216543
0.000225897
0.000226903
0.000221554
0.000212161
0.000200079
0.000184267
0.000160715
0.000126057
8.73139e-05
5.97594e-05
4.96001e-05
5.57422e-05
7.80374e-05
0.000106442
0.000112108
9.62854e-05
8.15339e-05
7.86902e-05
8.97705e-05
0.000107861
0.000111491
7.06893e-05
2.07552e-05
3.51014e-06
1.06075e-05
8.67655e-05
0.000170365
9.82943e-05
6.6263e-05
6.83644e-05
9.20397e-05
0.00012939
0.000169328
0.00020287
0.000226713
0.00024094
0.000246606
0.000245112
0.000238366
0.000228313
0.000215986
0.0002005
0.000178485
0.000145891
0.000105439
7.04523e-05
5.07964e-05
4.62555e-05
5.5212e-05
7.62959e-05
9.70313e-05
0.000103721
0.000105737
0.000113954
0.000127337
0.000130652
9.0783e-05
2.50585e-05
3.67194e-06
1.04613e-05
7.1921e-05
0.000151077
9.03654e-05
5.70169e-05
5.58972e-05
7.61364e-05
0.00011362
0.000159574
0.000202368
0.000235373
0.000257507
0.000269858
0.000273841
0.000271183
0.000263943
0.000253948
0.000241926
0.00022673
0.000205168
0.000173256
0.000131067
8.86885e-05
5.88887e-05
4.51207e-05
4.57317e-05
6.01799e-05
8.36428e-05
0.000103753
0.000119026
0.000131772
0.000135378
0.000104369
2.96059e-05
4.0502e-06
1.0477e-05
6.61254e-05
0.000144391
9.38895e-05
5.4925e-05
4.75278e-05
6.11535e-05
9.36849e-05
0.000141178
0.000192817
0.000237801
0.000271395
0.000293447
0.000305399
0.000309082
0.000306623
0.00030015
0.000291101
0.000279386
0.000263058
0.000238866
0.000203432
0.000156423
0.000106043
6.66244e-05
4.55763e-05
4.21084e-05
5.50037e-05
8.00955e-05
0.000104527
0.000123183
0.000132135
0.000110188
3.19493e-05
4.37502e-06
1.06564e-05
7.06366e-05
0.000154375
0.000111998
6.39844e-05
4.68117e-05
5.19136e-05
7.59666e-05
0.000118078
0.000171552
0.000225095
0.000270318
0.000304135
0.00032674
0.000339617
0.000344744
0.000344247
0.000339791
0.000331763
0.00031886
0.000298486
0.000267606
0.000223642
0.000167092
0.000107606
6.25182e-05
4.03653e-05
3.87617e-05
5.65406e-05
8.88142e-05
0.000116114
0.000130265
0.000110552
3.10791e-05
4.37059e-06
1.0878e-05
8.27226e-05
0.000176022
0.00014573
8.98639e-05
5.67048e-05
4.96689e-05
6.23453e-05
9.34853e-05
0.000140392
0.000194687
0.000246579
0.000290083
0.000323293
0.000346595
0.000361317
0.000368802
0.000369865
0.000364976
0.000356787
0.000340131
0.000312752
0.000272992
0.000219311
0.000154025
9.1334e-05
5.01604e-05
3.37778e-05
3.75895e-05
6.39935e-05
0.000103389
0.000122369
0.000100072
2.83384e-05
4.16319e-06
1.10276e-05
9.55637e-05
0.000199671
0.000186635
0.000137724
8.44171e-05
5.80063e-05
5.55414e-05
7.18911e-05
0.000105676
0.000153174
0.000206016
0.000255594
0.00029696
0.000328488
0.000350273
0.000363267
0.000368806
0.000367839
0.000360488
0.000346127
0.000323751
0.000292281
0.000250384
0.000196686
0.000134366
7.84859e-05
4.47773e-05
3.32635e-05
4.09425e-05
7.30455e-05
0.000106595
9.16395e-05
2.74391e-05
4.15538e-06
1.10536e-05
0.000103482
0.000217563
0.000218067
0.000190845
0.000138502
8.70897e-05
6.26336e-05
6.11886e-05
7.78807e-05
0.000111338
0.000157986
0.000209767
0.00025814
0.000297784
0.00032658
0.000344459
0.000352652
0.000352816
0.000346299
0.000333856
0.000315753
0.000292021
0.000262401
0.000225935
0.000181002
0.000128959
8.10163e-05
5.09706e-05
4.11313e-05
5.1411e-05
8.63874e-05
0.000102759
3.14986e-05
4.58066e-06
1.10097e-05
0.000108729
0.00023055
0.000236132
0.000221994
0.000194916
0.000146309
9.58271e-05
6.99668e-05
6.69619e-05
8.21657e-05
0.000114378
0.000160611
0.000213023
0.000262046
0.000300698
0.000326043
0.000338721
0.000341344
0.000336659
0.000326388
0.00031131
0.000291932
0.000268843
0.000242439
0.000212105
0.000175817
0.000132648
8.95717e-05
5.97749e-05
4.9712e-05
6.33203e-05
0.000107852
3.98564e-05
5.34655e-06
1.09478e-05
0.000113456
0.00023882
0.000242159
0.00022903
0.00021669
0.000199613
0.000160519
0.000110197
8.0158e-05
7.38873e-05
8.7056e-05
0.000118448
0.000165426
0.00021996
0.000270935
0.00030943
0.000332109
0.000340826
0.000339553
0.000331336
0.000317529
0.000298795
0.000276223
0.000251285
0.000224475
0.000193515
0.000153834
0.000106423
6.68741e-05
4.92999e-05
5.77629e-05
0.000108322
4.25671e-05
5.85952e-06
1.09079e-05
0.000117203
0.000239839
0.000234252
0.000214967
0.000206379
0.00020876
0.000207522
0.000179747
0.000128903
9.28224e-05
8.24889e-05
9.42631e-05
0.000126582
0.000176613
0.00023531
0.000289101
0.000327005
0.000346178
0.000350551
0.000344837
0.000331024
0.00030926
0.000280036
0.000244914
0.000205693
0.000163361
0.000119751
8.15228e-05
5.70354e-05
5.06557e-05
6.99397e-05
0.000125739
3.54758e-05
5.59719e-06
1.08627e-05
0.00011839
0.000235117
0.000215443
0.000188268
0.000181125
0.000192756
0.00021248
0.000222524
0.000200186
0.000147422
0.000105941
9.27952e-05
0.000105317
0.000141544
0.000197537
0.000261531
0.000316266
0.000348442
0.000356149
0.000354892
0.000340293
0.000311475
0.000268393
0.000213759
0.000156874
0.000111538
8.21127e-05
6.37045e-05
5.47034e-05
6.06877e-05
9.44281e-05
0.00012265
2.82073e-05
4.95147e-06
1.07202e-05
0.000114853
0.000221737
0.000181574
0.000151926
0.000151668
0.000172331
0.000203314
0.000231436
0.000239728
0.000211902
0.000157687
0.000117107
0.000106382
0.000124262
0.000168791
0.00023275
0.000297801
0.000341797
0.000352665
0.000350784
0.000332877
0.000295905
0.000243705
0.000180458
0.000120528
8.1283e-05
6.38115e-05
5.8949e-05
6.21919e-05
8.01682e-05
0.000119371
0.000111326
2.54955e-05
4.59139e-06
1.02842e-05
9.64486e-05
0.000181347
0.000127485
0.000107672
0.00011981
0.000152315
0.000194152
0.000231821
0.000251533
0.0002421
0.000202974
0.000155995
0.000128599
0.000130043
0.000161372
0.000219037
0.000286176
0.000335656
0.000352469
0.000344352
0.000317962
0.0002784
0.000226742
0.00016593
0.000108443
7.06292e-05
5.56283e-05
5.72789e-05
7.21578e-05
0.000102563
0.000137505
0.000109686
2.60727e-05
4.6236e-06
9.59771e-06
6.70953e-05