/*--------------------------------*- C++ -*----------------------------------*\
| =========                 |                                                 |
| \\      /  F ield         | OpenFOAM: The Open Source CFD Toolbox           |
|  \\    /   O peration     | Version:  v2006                                 |
|   \\  /    A nd           | Website:  www.openfoam.com                      |
|    \\/     M anipulation  |                                                 |
\*---------------------------------------------------------------------------*/
FoamFile
{
    version     2.0;
    format      ascii;
    class       surfaceScalarField;
    location    "99";
    object      phi;
}
// * * * * * * * * * * * * * * * * * * * * * * * * * * * * * * * * * * * * * //

dimensions      [1 0 -1 0 0 0 0];
oriented        oriented;


internalField   nonuniform List<scalar> 
228225
(
0.000460527
7.96098e-05
1.29687e-05
0.000449838
2.11433e-06
1.72921e-06
0.000462133
-1.87336e-05
2.96753e-07
0.000460631
-4.65478e-06
4.52067e-07
0.00044908
5.70836e-06
5.32472e-07
0.000431744
1.21404e-05
3.04033e-07
0.000411727
1.56957e-05
-6.33144e-08
0.000390784
1.75056e-05
-3.65664e-07
0.000369496
1.86089e-05
-4.42984e-07
0.000347951
1.94598e-05
-2.73907e-07
0.000326332
1.99181e-05
1.5013e-07
0.000304985
1.98269e-05
7.82202e-07
0.000284861
1.91879e-05
1.02552e-06
0.000266978
1.80129e-05
6.96485e-07
0.000252113
1.63573e-05
-1.03851e-07
0.000239953
1.45038e-05
-5.72105e-07
0.000230125
1.27512e-05
-8.20657e-07
0.000222184
1.12124e-05
-9.21979e-07
0.000215641
1.00085e-05
-9.60566e-07
0.000210043
9.28743e-06
-9.26924e-07
0.000205088
8.9802e-06
-8.26273e-07
0.000200903
8.84454e-06
-7.73556e-07
0.000197601
8.82391e-06
-8.07214e-07
0.000194333
9.11976e-06
-7.67686e-07
0.00018963
9.9336e-06
-4.85258e-07
0.000182005
1.12387e-05
3.1101e-07
0.000170303
1.27825e-05
1.75683e-06
0.000154392
1.42569e-05
3.30195e-06
0.0001348
1.53556e-05
4.73758e-06
0.000112647
1.58892e-05
5.81278e-06
8.92217e-05
1.58976e-05
6.43115e-06
6.55771e-05
1.55301e-05
6.66218e-06
4.24588e-05
1.49759e-05
6.61542e-06
2.02252e-05
1.44987e-05
6.43504e-06
1.40086e-05
5.92427e-06
1.02142e-05
7.01546e-05
-3.68099e-06
-1.07223e-06
1.60908e-05
-2.50723e-06
-1.54346e-05
-4.49066e-06
3.73235e-07
-2.06682e-05
5.98767e-08
5.66851e-07
-2.05719e-05
5.11141e-06
5.4186e-07
-1.71379e-05
8.42997e-06
4.05519e-07
-1.18011e-05
1.03233e-05
3.10261e-07
-5.28415e-06
1.10532e-05
3.97933e-07
2.03709e-06
1.12277e-05
7.25485e-07
9.90328e-06
1.12321e-05
1.22619e-06
1.78582e-05
1.11285e-05
1.87113e-06
2.53407e-05
1.08687e-05
2.64574e-06
3.18923e-05
1.03995e-05
3.50062e-06
3.7168e-05
9.6952e-06
4.3539e-06
4.0891e-05
8.78054e-06
5.15007e-06
4.30185e-05
7.73045e-06
5.88985e-06
4.37097e-05
6.62901e-06
6.58239e-06
4.31732e-05
5.57724e-06
7.20749e-06
4.16808e-05
4.67761e-06
7.74276e-06
3.95909e-05
4.01228e-06
8.17508e-06
3.71542e-05
3.63471e-06
8.49736e-06
3.43349e-05
3.57415e-06
8.70582e-06
3.10011e-05
3.84292e-06
8.80132e-06
2.72354e-05
4.43252e-06
8.78672e-06
2.33953e-05
5.30486e-06
8.66585e-06
1.99082e-05
6.39052e-06
8.43921e-06
1.70608e-05
7.60096e-06
8.09967e-06
1.48467e-05
8.8435e-06
7.64009e-06
1.29686e-05
1.0044e-05
7.06462e-06
1.10869e-05
1.11736e-05
6.36465e-06
8.93406e-06
1.22349e-05
5.52514e-06
6.43038e-06
1.32106e-05
4.53743e-06
3.77214e-06
1.40513e-05
3.36957e-06
1.59483e-06
1.46224e-05
1.97755e-06
1.46868e-05
1.17603e-06
3.90675e-05
3.12751e-05
2.61556e-06
3.76314e-05
1.52832e-05
4.00475e-06
1.70835e-05
1.20317e-05
4.58697e-06
1.32833e-06
1.15516e-05
4.53919e-06
-8.97693e-06
1.15341e-05
4.07373e-06
-1.54179e-05
1.14981e-05
3.50109e-06
-1.93353e-05
1.12554e-05
3.04147e-06
-2.18614e-05
1.07965e-05
2.76365e-06
-2.3602e-05
1.01727e-05
2.70004e-06
-2.481e-05
9.45116e-06
2.8185e-06
-2.56645e-05
8.67584e-06
3.06717e-06
-2.63598e-05
7.86779e-06
3.39727e-06
-2.71105e-05
7.03584e-06
3.7717e-06
-2.81308e-05
6.18531e-06
4.16261e-06
-2.95968e-05
5.32234e-06
4.55282e-06
-3.16019e-05
4.45983e-06
4.92344e-06
-3.41572e-05
3.61876e-06
5.25597e-06
-3.71863e-05
2.82532e-06
5.53722e-06
-4.05296e-05
2.10779e-06
5.75598e-06
-4.39667e-05
1.49393e-06
5.90244e-06
-4.72426e-05
1.00551e-06
5.96863e-06
-5.00911e-05
6.59945e-07
5.94978e-06
-5.22501e-05
4.68278e-07
5.84595e-06
-5.3476e-05
4.33673e-07
5.66018e-06
-5.35787e-05
5.59532e-07
5.39982e-06
-5.24621e-05
8.52354e-07
5.07806e-06
-5.01372e-05
1.30811e-06
4.71254e-06
-4.67149e-05
1.90785e-06
4.32305e-06
-4.23703e-05
2.62274e-06
3.92788e-06
-3.72944e-05
3.42483e-06
3.53912e-06
-3.16344e-05
4.26788e-06
3.15914e-06
-2.54537e-05
5.06526e-06
2.77164e-06
-1.86659e-05
5.68059e-06
2.31057e-06
-1.07351e-05
5.84544e-06
1.49639e-06
5.23678e-06
-6.58178e-07
1.21746e-05
1.34455e-05
6.12743e-06
6.11979e-06
1.38002e-05
7.67999e-06
-3.1531e-06
1.38004e-05
7.44956e-06
-1.20885e-05
1.33122e-05
6.95564e-06
-1.95564e-05
1.24692e-05
6.17912e-06
-2.50092e-05
1.13726e-05
5.11688e-06
-2.8478e-05
1.01318e-05
4.04558e-06
-3.02325e-05
8.82296e-06
3.11653e-06
-3.05424e-05
7.5296e-06
2.29608e-06
-2.96513e-05
6.31236e-06
1.56341e-06
-2.78172e-05
5.20378e-06
9.43177e-07
-2.52912e-05
4.21682e-06
4.34768e-07
-2.22955e-05
3.34839e-06
2.15616e-08
-1.91515e-05
2.59042e-06
-1.92298e-07
-1.60231e-05
1.92866e-06
-3.43316e-07
-1.30407e-05
1.34812e-06
-4.38144e-07
-1.02931e-05
8.31111e-07
-4.81492e-07
-7.81776e-06
3.57461e-07
-4.80068e-07
-5.5966e-06
-9.69029e-08
-4.38801e-07
-3.73517e-06
-3.8176e-07
-3.59933e-07
-2.17547e-06
-6.36273e-07
-2.43897e-07
-8.48077e-07
-8.50587e-07
-9.45252e-08
2.72485e-07
-1.0132e-06
1.32085e-07
1.15198e-06
-1.11318e-06
4.92219e-07
1.8226e-06
-1.13931e-06
9.19053e-07
2.28193e-06
-1.08287e-06
1.45013e-06
2.50861e-06
-9.3713e-07
2.09935e-06
2.46964e-06
-7.03044e-07
2.86422e-06
2.14285e-06
-3.979e-07
3.72193e-06
1.56812e-06
-7.36241e-08
4.62768e-06
7.19625e-07
3.35646e-07
5.517e-06
-2.18453e-07
5.91847e-07
6.30459e-06
-1.01951e-06
6.13828e-07
6.87269e-06
-1.35238e-06
2.34411e-07
6.93738e-06
-6.83026e-07
5.19227e-06
-2.56704e-06
9.436e-06
6.95683e-06
-7.79148e-06
1.13121e-05
8.00404e-06
-1.29357e-05
1.14799e-05
7.68468e-06
-1.75368e-05
1.07522e-05
7.29084e-06
-2.13048e-05
9.50002e-06
6.75529e-06
-2.39681e-05
7.96985e-06
5.96884e-06
-2.54342e-05
6.3514e-06
5.06737e-06
-2.58046e-05
4.75033e-06
4.21859e-06
-2.5256e-05
3.24675e-06
3.47958e-06
-2.39146e-05
1.90014e-06
2.80189e-06
-2.18774e-05
7.53726e-07
2.14408e-06
-1.92849e-05
-1.47315e-07
1.51378e-06
-1.59888e-05
-1.10893e-06
9.22138e-07
-1.21683e-05
-1.81769e-06
3.72264e-07
-7.95284e-06
-2.36608e-06
-1.09295e-07
-3.55109e-06
-2.78536e-06
-4.30571e-07
9.38506e-07
-3.09955e-06
-6.96432e-07
5.39071e-06
-3.32901e-06
-8.81049e-07
9.66296e-06
-3.49103e-06
-9.74882e-07
1.3767e-05
-3.59937e-06
-9.70679e-07
1.75844e-05
-3.66734e-06
-8.61993e-07
2.10105e-05
-3.70451e-06
-6.4303e-07
2.39565e-05
-3.71641e-06
-3.12456e-07
2.63564e-05
-3.70437e-06
1.19921e-07
2.80413e-05
-3.665e-06
7.66595e-07
2.89745e-05
-3.58997e-06
1.50089e-06
2.90959e-05
-3.46871e-06
2.34709e-06
2.83524e-05
-3.29183e-06
3.29374e-06
2.67075e-05
-3.05602e-06
4.3108e-06
2.41338e-05
-2.77449e-06
5.35682e-06
2.07645e-05
-2.47948e-06
6.40291e-06
1.65768e-05
-2.22597e-06
7.42272e-06
1.15712e-05
-2.08616e-06
8.2845e-06
5.84221e-06
-2.24338e-06
8.78266e-06
-2.82327e-06
8.16214e-06
-3.70989e-06
9.74172e-06
3.932e-06
-6.89114e-06
1.05995e-05
4.5091e-06
-9.03948e-06
1.05117e-05
3.76521e-06
-1.02362e-05
9.83629e-06
2.76171e-06
-1.04294e-05
8.75465e-06
1.55246e-06
-9.8847e-06
7.43922e-06
5.37113e-07
-8.88199e-06
6.0338e-06
-2.12168e-07
-7.64671e-06
4.64708e-06
-7.35517e-07
-6.15085e-06
3.34337e-06
-1.26476e-06
-4.34772e-06
2.1618e-06
-1.79446e-06
-2.17158e-06
1.11711e-06
-2.31369e-06
5.27e-07
1.59894e-07
-2.81145e-06
3.37057e-06
-4.99598e-07
-3.27824e-06
6.44149e-06
-1.02031e-06
-3.70327e-06
9.74802e-06
-1.43424e-06
-4.07572e-06
1.32525e-05
-1.74042e-06
-4.38445e-06
1.68906e-05
-1.94977e-06
-4.61804e-06
2.05778e-05
-2.07568e-06
-4.76513e-06
2.42134e-05
-2.13188e-06
-4.81472e-06
2.76847e-05
-2.1318e-06
-4.75583e-06
3.08667e-05
-2.08777e-06
-4.57801e-06
3.36261e-05
-2.01023e-06
-4.27222e-06
3.58236e-05
-1.9062e-06
-3.83082e-06
3.73201e-05
-1.77759e-06
-3.25266e-06
3.7994e-05
-1.61954e-06
-2.55531e-06
3.77674e-05
-1.41983e-06
-1.78432e-06
3.66216e-05
-1.16058e-06
-1.00344e-06
3.46009e-05
-8.23749e-07
-2.81194e-07
3.17669e-05
-4.04256e-07
3.6508e-07
2.82422e-05
9.19158e-08
8.67797e-07
2.40006e-05
8.49064e-07
1.15644e-06
1.92828e-05
1.5878e-06
1.19208e-06
1.42462e-05
2.29391e-06
9.98026e-07
8.49224e-06
2.85819e-06
1.0582e-06
3.37872e-06
2.8314e-06
-4.41963e-06
9.98195e-06
5.30744e-06
-7.64275e-06
1.11158e-05
3.72357e-06
-1.0084e-05
1.11538e-05
2.69416e-06
-1.21513e-05
1.06676e-05
1.97609e-06
-1.40983e-05
9.89357e-06
1.38202e-06
-1.6015e-05
8.94996e-06
8.25879e-07
-1.78594e-05
7.93015e-06
2.37821e-07
-1.9573e-05
6.89996e-06
-3.48761e-07
-2.10284e-05
5.90441e-06
-9.85436e-07
-2.20865e-05
4.97535e-06
-1.67828e-06
-2.26369e-05
4.13401e-06
-2.40936e-06
-2.26575e-05
3.39406e-06
-3.15964e-06
-2.19529e-05
2.76518e-06
-3.90776e-06
-2.05146e-05
2.24952e-06
-4.6327e-06
-1.83886e-05
1.84592e-06
-5.31427e-06
-1.56381e-05
1.55016e-06
-5.93298e-06
-1.23509e-05
1.35513e-06
-6.46963e-06
-8.63818e-06
1.25117e-06
-6.90527e-06
-4.6314e-06
1.22648e-06
-7.2218e-06
-4.79554e-07
1.26741e-06
-7.40133e-06
3.65427e-06
1.35885e-06
-7.42672e-06
7.59808e-06
1.48503e-06
-7.28348e-06
1.11781e-05
1.63126e-06
-6.96203e-06
1.42251e-05
1.78667e-06
-6.45799e-06
1.65805e-05
1.94775e-06
-5.77365e-06
1.81074e-05
2.1208e-06
-4.92483e-06
1.87144e-05
2.32169e-06
-3.95418e-06
1.83778e-05
2.5726e-06
-2.93198e-06
1.71341e-05
2.89565e-06
-1.93376e-06
1.50588e-05
3.30416e-06
-1.01595e-06
1.24454e-05
3.79284e-06
-2.05659e-07
9.37567e-06
4.32129e-06
4.71008e-07
5.99279e-06
4.80993e-06
1.01884e-06
2.57889e-06
5.02406e-06
1.42522e-06
4.67141e-06
1.52021e-06
-6.60157e-06
1.35618e-05
3.71502e-06
-1.24403e-05
1.4885e-05
2.78061e-06
-1.69666e-05
1.50126e-05
1.31534e-06
-2.11241e-05
1.46903e-05
6.98552e-07
-2.51697e-05
1.40956e-05
3.16089e-07
-2.91162e-05
1.3316e-05
-3.41887e-08
-3.29427e-05
1.24133e-05
-3.46828e-07
-3.64485e-05
1.14114e-05
-7.54168e-07
-3.94093e-05
1.03446e-05
-1.26848e-06
-4.16099e-05
9.25056e-06
-1.88818e-06
-4.28758e-05
8.16943e-06
-2.5949e-06
-4.31015e-05
7.14586e-06
-3.35474e-06
-4.225e-05
6.21997e-06
-4.13241e-06
-4.03432e-05
5.41935e-06
-4.8974e-06
-3.74468e-05
4.75806e-06
-5.62272e-06
-3.36606e-05
4.23992e-06
-6.28361e-06
-2.91124e-05
3.8617e-06
-6.85634e-06
-2.39552e-05
3.61558e-06
-7.31793e-06
-1.83642e-05
3.49045e-06
-7.6468e-06
-1.25341e-05
3.47276e-06
-7.82382e-06
-6.67377e-06
3.54689e-06
-7.83402e-06
-9.9749e-07
3.69582e-06
-7.67082e-06
4.29072e-06
3.9028e-06
-7.34231e-06
9.01286e-06
4.15436e-06
-6.87189e-06
1.30325e-05
4.44342e-06
-6.29754e-06
1.62479e-05
4.77111e-06
-5.64835e-06
1.85764e-05
5.14642e-06
-4.93634e-06
1.99484e-05
5.58291e-06
-4.1651e-06
2.03086e-05
6.09249e-06
-3.33781e-06
1.96198e-05
6.67686e-06
-2.46049e-06
1.78715e-05
7.31686e-06
-1.54518e-06
1.50846e-05
7.95847e-06
-6.09338e-07
1.1306e-05
8.50268e-06
3.41889e-07
6.3859e-06
8.79901e-06
1.42291e-06
8.69315e-06
2.69231e-06
-4.81902e-06
2.04073e-05
-4.33612e-07
-7.85711e-06
2.06454e-05
-1.23064e-06
-1.04897e-05
2.04796e-05
-1.46608e-06
-1.31216e-05
1.99811e-05
-1.44885e-06
-1.58676e-05
1.91506e-05
-1.26464e-06
-1.87942e-05
1.80639e-05
-9.3089e-07
-2.19782e-05
1.68412e-05
-4.87666e-07
-2.52903e-05
1.55827e-05
-2.21678e-07
-2.84965e-05
1.4318e-05
-2.37891e-07
-3.12834e-05
1.30163e-05
-5.44586e-07
-3.32499e-05
1.16459e-05
-1.15715e-06
-3.42021e-05
1.02928e-05
-1.91038e-06
-3.40871e-05
9.04257e-06
-2.70887e-06
-3.29078e-05
7.9436e-06
-3.51903e-06
-3.07074e-05
7.02603e-06
-4.31765e-06
-2.75471e-05
6.29641e-06
-5.09094e-06
-2.35132e-05
5.75293e-06
-5.81676e-06
-1.87203e-05
5.38727e-06
-6.46729e-06
-1.33155e-05
5.18726e-06
-7.01071e-06
-7.47986e-06
5.13857e-06
-7.41262e-06
-1.42894e-06
5.22572e-06
-7.63992e-06
4.59762e-06
5.43287e-06
-7.67026e-06
1.03452e-05
5.74507e-06
-7.49111e-06
1.55447e-05
6.15025e-06
-7.09023e-06
1.99423e-05
6.6413e-06
-6.48293e-06
2.3342e-05
7.21676e-06
-5.72529e-06
2.561e-05
7.8789e-06
-4.87263e-06
2.66553e-05
8.62964e-06
-3.95699e-06
2.64212e-05
9.46548e-06
-2.99812e-06
2.48844e-05
1.03712e-05
-2.01357e-06
2.20559e-05
1.13127e-05
-1.02364e-06
1.80119e-05
1.22255e-05
-8.31912e-08
1.26644e-05
1.29966e-05
9.87165e-07
6.2183e-06
1.33259e-05
2.04932e-06
1.25183e-05
2.53636e-06
5.29669e-06
1.58608e-05
1.93406e-07
8.18252e-06
1.80025e-05
6.8624e-07
9.75111e-06
1.85804e-05
1.22066e-06
1.03433e-05
1.86402e-05
1.57584e-06
1.0486e-05
1.8406e-05
1.34891e-06
1.14235e-05
1.79575e-05
-1.67984e-07
1.45031e-05
1.73448e-05
-2.97688e-06
1.63026e-05
1.65352e-05
-2.1596e-06
1.5437e-05
1.55851e-05
1.79916e-07
1.2787e-05
1.45601e-05
1.67513e-06
1.01964e-05
1.34584e-05
1.33795e-06
8.0396e-06
1.23188e-05
6.77604e-07
6.21801e-06
1.11934e-05
2.00462e-07
4.79075e-06
1.01316e-05
-2.57701e-07
3.71302e-06
9.17691e-06
-5.98765e-07
3.10454e-06
8.35346e-06
-1.00415e-06
3.05437e-06
7.67337e-06
-1.45742e-06
3.63061e-06
7.14438e-06
-1.95406e-06
4.85518e-06
6.78409e-06
-2.47694e-06
6.69698e-06
6.61354e-06
-3.00736e-06
9.06451e-06
6.65124e-06
-3.51746e-06
1.1806e-05
6.90666e-06
-3.97064e-06
1.47333e-05
7.37064e-06
-4.33475e-06
1.76425e-05
8.0168e-06
-4.57892e-06
2.0332e-05
8.8098e-06
-4.67641e-06
2.26166e-05
9.71323e-06
-4.60804e-06
2.43373e-05
1.06929e-05
-4.36418e-06
2.53661e-05
1.17171e-05
-3.94268e-06
2.55993e-05
1.27554e-05
-3.34235e-06
2.49369e-05
1.37828e-05
-2.55846e-06
2.32571e-05
1.47813e-05
-1.58561e-06
2.03955e-05
1.57119e-05
-4.06315e-07
1.59727e-05
1.64937e-05
1.16483e-06
9.27363e-06
1.69914e-05
3.30231e-06
1.69354e-05
5.19656e-06
3.75336e-06
1.0079e-05
2.37354e-06
6.60546e-06
1.26698e-05
2.87583e-06
9.04295e-06
1.3766e-05
2.77515e-06
1.10607e-05
1.4388e-05
2.63265e-06
1.26857e-05
1.46993e-05
2.47886e-06
1.39825e-05
1.47619e-05
2.29552e-06
1.50413e-05
1.46192e-05
2.06518e-06
1.57716e-05
1.43215e-05
1.88587e-06
1.62145e-05
1.39299e-05
1.61584e-06
1.65529e-05
1.34998e-05
1.11804e-06
1.68594e-05
1.30689e-05
4.60506e-07
1.70692e-05
1.26641e-05
-2.02955e-07
1.69864e-05
1.23072e-05
-7.04914e-07
1.63931e-05
1.20177e-05
-9.90802e-07
1.50828e-05
1.1815e-05
-1.05178e-06
1.28854e-05
1.17163e-05
-9.26e-07
9.75201e-06
1.17222e-05
-7.30571e-07
5.81939e-06
1.18191e-05
-6.32356e-07
1.29488e-06
1.20043e-05
-6.76521e-07
-3.5889e-06
1.22828e-05
-8.54615e-07
-8.56834e-06
1.26679e-05
-1.16754e-06
-1.34741e-05
1.31762e-05
-1.51455e-06
-1.81815e-05
1.38197e-05
-1.87747e-06
-2.25655e-05
1.46019e-05
-2.30159e-06
-2.64707e-05
1.5516e-05
-2.85902e-06
-2.97064e-05
1.65416e-05
-3.60977e-06
-3.20393e-05
1.76382e-05
-4.5941e-06
-3.31969e-05
1.87454e-05
-5.82324e-06
-3.28991e-05
1.97976e-05
-7.2687e-06
-3.08893e-05
2.0746e-05
-8.87963e-06
-2.69786e-05
2.15613e-05
-1.05742e-05
-2.111e-05
2.22001e-05
-1.22161e-05
-1.34944e-05
2.2583e-05
-1.35383e-05
-5.07426e-06
2.25747e-05
-1.38167e-05
2.12524e-05
-9.2013e-06
6.83382e-06
1.625e-05
-1.28046e-05
1.16791e-05
1.78806e-05
-9.88219e-06
1.5395e-05
1.86548e-05
-8.45226e-06
1.85187e-05
1.91512e-05
-7.75878e-06
2.14417e-05
1.93932e-05
-7.51271e-06
2.43488e-05
1.94623e-05
-7.52532e-06
2.72965e-05
1.94065e-05
-7.67037e-06
3.03072e-05
1.92461e-05
-7.88111e-06
3.34025e-05
1.90096e-05
-8.122e-06
3.65746e-05
1.87523e-05
-8.36563e-06
3.97807e-05
1.8507e-05
-8.57258e-06
4.29393e-05
1.82839e-05
-8.68352e-06
4.59167e-05
1.80875e-05
-8.63259e-06
4.85394e-05
1.7921e-05
-8.37218e-06
5.06216e-05
1.77875e-05
-7.88744e-06
5.20086e-05
1.76869e-05
-7.20357e-06
5.26546e-05
1.76222e-05
-6.41803e-06
5.25887e-05
1.76292e-05
-5.64302e-06
5.18305e-05
1.7764e-05
-4.93884e-06
5.03951e-05
1.80399e-05
-4.31447e-06
4.83339e-05
1.84301e-05
-3.75488e-06
4.5735e-05
1.89146e-05
-3.24878e-06
4.26967e-05
1.94905e-05
-2.78287e-06
3.92967e-05
2.01658e-05
-2.33721e-06
3.55651e-05
2.09537e-05
-1.88359e-06
3.14689e-05
2.18655e-05
-1.39235e-06
2.69597e-05
2.28933e-05
-8.84431e-07
2.21124e-05
2.39906e-05
-5.03048e-07
1.71595e-05
2.50776e-05
-3.99186e-07
1.23861e-05
2.60639e-05
-5.8955e-07
8.06822e-06
2.68613e-05
-1.01047e-06
4.47312e-06
2.73801e-05
-1.608e-06
1.80333e-06
2.75397e-05
-2.30228e-06
3.16756e-07
2.71172e-05
-3.06111e-06
2.46106e-05
-3.04687e-06
3.64787e-06
1.36445e-05
-9.81954e-07
2.56574e-06
1.89603e-05
9.01464e-08
-7.48341e-07
2.1766e-05
3.21218e-07
-5.3899e-06
2.37728e-05
1.73999e-07
-1.07399e-05
2.51999e-05
-2.70453e-07
-1.6256e-05
2.60576e-05
-8.65307e-07
-2.16619e-05
2.65091e-05
-1.4606e-06
-2.68952e-05
2.66603e-05
-1.93469e-06
-3.19018e-05
2.65436e-05
-2.27309e-06
-3.65779e-05
2.62254e-05
-2.53299e-06
-4.07681e-05
2.57431e-05
-2.774e-06
-4.43026e-05
2.5127e-05
-3.03266e-06
-4.70327e-05
2.44051e-05
-3.31439e-06
-4.88117e-05
2.35733e-05
-3.61053e-06
-4.94963e-05
2.26186e-05
-3.90627e-06
-4.90512e-05
2.16263e-05
-4.18312e-06
-4.76136e-05
2.07477e-05
-4.42128e-06
-4.54278e-05
2.00982e-05
-4.59309e-06
-4.27991e-05
1.97573e-05
-4.66017e-06
-4.00033e-05
1.97338e-05
-4.59283e-06
-3.72871e-05
1.99834e-05
-4.38964e-06
-3.4896e-05
2.04699e-05
-4.07005e-06
-3.30182e-05
2.11839e-05
-3.68909e-06
-3.17066e-05
2.21111e-05
-3.36089e-06
-3.08035e-05
2.32029e-05
-3.2349e-06
-3.00073e-05
2.43854e-05
-3.36941e-06
-2.91204e-05
2.56166e-05
-3.62805e-06
-2.80728e-05
2.68677e-05
-3.90497e-06
-2.67346e-05
2.80704e-05
-4.27627e-06
-2.48313e-05
2.91293e-05
-4.88696e-06
-2.20044e-05
2.99436e-05
-5.81072e-06
-1.78621e-05
3.04101e-05
-7.06741e-06
-1.21361e-05
3.04295e-05
-8.49646e-06
-5.19054e-06
2.98548e-05
-9.52887e-06
2.73377e-05
-7.6975e-06
8.75844e-07
7.71978e-06
5.33025e-06
-5.22014e-06
1.91268e-05
6.17403e-06
-1.48919e-05
2.54413e-05
6.11459e-06
-2.61036e-05
2.90966e-05
5.89195e-06
-3.71164e-05
3.08748e-05
5.27914e-06
-4.67471e-05
3.15885e-05
4.02508e-06
-5.45522e-05
3.17173e-05
2.52751e-06
-6.06784e-05
3.15107e-05
1.22065e-06
-6.52421e-05
3.10036e-05
6.95844e-08
-6.84037e-05
3.01943e-05
-8.15222e-07
-6.99029e-05
2.9103e-05
-1.83599e-06
-6.95379e-05
2.78023e-05
-2.97867e-06
-6.72238e-05
2.6408e-05
-4.21828e-06
-6.29892e-05
2.49935e-05
-5.5329e-06
-5.69284e-05
2.35758e-05
-6.89471e-06
-4.92497e-05
2.22571e-05
-8.19952e-06
-4.0365e-05
2.11959e-05
-9.25002e-06
-3.08162e-05
2.04576e-05
-9.85991e-06
-2.11559e-05
2.0031e-05
-9.91961e-06
-1.19024e-05
1.98701e-05
-9.40305e-06
-3.53253e-06
1.99179e-05
-8.33555e-06
3.48387e-06
2.01256e-05
-6.70302e-06
8.58088e-06
2.04857e-05
-4.41685e-06
1.13039e-05
2.10371e-05
-1.64975e-06
1.17857e-05
2.18098e-05
9.30515e-07
1.09202e-05
2.27961e-05
2.49696e-06
9.42905e-06
2.39808e-05
3.20113e-06
7.51406e-06
2.5348e-05
3.55388e-06
5.21701e-06
2.68529e-05
3.6913e-06
2.63237e-06
2.83557e-05
3.60162e-06
4.28678e-08
2.95624e-05
3.28263e-06
-2.18349e-06
3.03259e-05
2.68366e-06
-3.5748e-06
3.05347e-05
1.706e-06
-3.20494e-06
2.97807e-05
1.67682e-07
2.61596e-05
-1.50573e-06
-1.61104e-05
1.81779e-05
5.45532e-06
-3.30799e-05
2.98769e-05
5.95255e-06
-5.05369e-05
3.57341e-05
6.9623e-06
-6.73361e-05
3.82649e-05
7.52511e-06
-8.22781e-05
3.87184e-05
7.06526e-06
-9.52531e-05
3.83082e-05
6.28084e-06
-0.000106439
3.74509e-05
5.52709e-06
-0.000115946
3.63174e-05
4.81854e-06
-0.000123849
3.49756e-05
4.09534e-06
-0.000130176
3.34307e-05
3.30856e-06
-0.000134893
3.1671e-05
2.41546e-06
-0.000137909
2.97318e-05
1.3812e-06
-0.00013913
2.77629e-05
1.61739e-07
-0.00013864
2.59432e-05
-1.15753e-06
-0.00013643
2.43517e-05
-2.71926e-06
-0.000132431
2.30258e-05
-4.51812e-06
-0.000126576
2.19973e-05
-6.42336e-06
-0.000119003
2.12898e-05
-8.18621e-06
-0.000110049
2.09138e-05
-9.62771e-06
-0.000100099
2.08451e-05
-1.07238e-05
-8.94866e-05
2.10164e-05
-1.15126e-05
-7.8437e-05
2.13632e-05
-1.20883e-05
-6.69875e-05
2.18393e-05
-1.2604e-05
-5.50329e-05
2.24476e-05
-1.31668e-05
-4.25383e-05
2.32118e-05
-1.37009e-05
-2.98151e-05
2.41569e-05
-1.38943e-05
-1.75581e-05
2.53018e-05
-1.33974e-05
-6.64236e-06
2.66562e-05
-1.20485e-05
2.06394e-06
2.81978e-05
-9.86272e-06
7.9933e-06
2.97849e-05
-7.13769e-06
1.11758e-05
3.11647e-05
-4.53053e-06
1.1848e-05
3.22312e-05
-2.27601e-06
1.02056e-05
3.28384e-05
-2.8708e-07
6.26068e-06
3.27971e-05
1.36696e-06
3.10676e-05
1.85804e-06
-2.08488e-05
3.73044e-05
1.90774e-06
-3.67628e-05
4.44942e-05
1.33761e-06
-4.94139e-05
4.68152e-05
1.54978e-06
-6.01707e-05
4.73859e-05
1.61409e-06
-6.9514e-05
4.68144e-05
1.25073e-06
-7.7545e-05
4.57115e-05
6.54428e-07
-8.42081e-05
4.4262e-05
-1.00969e-07
-8.94569e-05
4.25122e-05
-8.77043e-07
-9.31189e-05
4.05454e-05
-1.81453e-06
-9.51601e-05
3.84481e-05
-2.85681e-06
-9.56645e-05
3.6303e-05
-3.97633e-06
-9.47574e-05
3.41784e-05
-5.16708e-06
-9.25304e-05
3.21673e-05
-6.41833e-06
-8.90507e-05
3.03723e-05
-7.68369e-06
-8.44007e-05
2.88529e-05
-8.92352e-06
-7.86469e-05
2.76166e-05
-1.01188e-05
-7.18418e-05
2.66631e-05
-1.12482e-05
-6.40425e-05
2.60064e-05
-1.2297e-05
-5.54588e-05
2.56642e-05
-1.31204e-05
-4.66973e-05
2.56167e-05
-1.33276e-05
-3.83321e-05
2.57896e-05
-1.29429e-05
-3.06936e-05
2.61009e-05
-1.21897e-05
-2.39159e-05
2.65102e-05
-1.12687e-05
-1.79799e-05
2.70178e-05
-1.03292e-05
-1.27695e-05
2.76403e-05
-9.45945e-06
-8.14462e-06
2.84051e-05
-8.68513e-06
-4.00332e-06
2.93426e-05
-7.97822e-06
-3.34017e-07
3.04758e-05
-7.26112e-06
2.77429e-06
3.17962e-05
-6.44957e-06
5.13205e-06
3.32234e-05
-5.51338e-06
6.44714e-06
3.4615e-05
-4.45873e-06
6.52085e-06
3.57879e-05
-3.28975e-06
5.23438e-06
3.64793e-05
-1.97758e-06
2.50966e-06
3.62758e-05
-3.5572e-07
3.31243e-05
8.06871e-07
-7.6193e-06
4.00624e-05
5.80644e-06
-1.95992e-05
5.08866e-05
6.64561e-06
-3.32471e-05
5.44529e-05
7.0228e-06
-4.77769e-05
5.56128e-05
7.24636e-06
-6.25198e-05
5.53214e-05
7.10657e-06
-7.6715e-05
5.40925e-05
6.62035e-06
-8.98208e-05
5.22344e-05
5.89323e-06
-0.00010148
4.99025e-05
4.99899e-06
-0.000111429
4.72336e-05
3.9704e-06
-0.000119477
4.43688e-05
2.81401e-06
-0.00012548
4.14239e-05
1.52861e-06
-0.000129298
3.85349e-05
4.42353e-08
-0.000131206
3.58677e-05
-1.29716e-06
-0.000131183
3.35315e-05
-2.77472e-06
-0.000129251
3.15889e-05
-4.33231e-06
-0.000125403
3.00407e-05
-5.98631e-06
-0.000119617
2.88646e-05
-7.73759e-06
-0.000111943
2.80444e-05
-9.48735e-06
-0.000102627
2.75861e-05
-1.10344e-05
-9.2189e-05
2.75118e-05
-1.21479e-05
-8.13135e-05
2.77755e-05
-1.26939e-05
-7.05746e-05
2.82576e-05
-1.27438e-05
-6.029e-05
2.88681e-05
-1.25038e-05
-5.05548e-05
2.95767e-05
-1.21649e-05
-4.13592e-05
3.03915e-05
-1.18233e-05
-3.26848e-05
3.13371e-05
-1.14835e-05
-2.45658e-05
3.24392e-05
-1.10868e-05
-1.71199e-05
3.37144e-05
-1.05419e-05
-1.05434e-05
3.51539e-05
-9.76894e-06
-5.05455e-06
3.66971e-05
-8.76733e-06
-8.0146e-07
3.82033e-05
-7.61537e-06
2.16756e-06
3.94429e-05
-6.38073e-06
3.77866e-06
4.01705e-05
-5.05714e-06
3.51998e-06
4.02249e-05
-3.45114e-06
3.81823e-05
-1.33842e-06
-8.00044e-06
4.11896e-05
6.21097e-06
-1.73296e-05
5.23321e-05
7.35603e-06
-2.6514e-05
5.58878e-05
7.4175e-06
-3.55869e-05
5.72074e-05
7.32944e-06
-4.44096e-05
5.71834e-05
6.96863e-06
-5.27029e-05
5.62887e-05
6.24421e-06
-6.03375e-05
5.48262e-05
5.29477e-06
-6.73636e-05
5.29386e-05
4.27877e-06
-7.38215e-05
5.07394e-05
3.24275e-06
-7.96485e-05
4.83611e-05
2.17381e-06
-8.47529e-05
4.59014e-05
1.04673e-06
-8.90096e-05
4.34527e-05
-1.75126e-07
-9.24353e-05
4.11228e-05
-1.30983e-06
-9.48725e-05
3.89757e-05
-2.48957e-06
-9.62268e-05
3.70659e-05
-3.63386e-06
-9.64341e-05
3.54253e-05
-4.73006e-06
-9.53846e-05
3.40587e-05
-5.84059e-06
-9.28001e-05
3.29657e-05
-7.14157e-06
-8.82389e-05
3.21614e-05
-8.80381e-06
-8.18723e-05
3.16895e-05
-1.02397e-05
-7.44611e-05
3.15782e-05
-1.09369e-05
-6.65892e-05
3.17921e-05
-1.11552e-05
-5.86378e-05
3.22622e-05
-1.1117e-05
-5.08237e-05
3.29345e-05
-1.09631e-05
-4.32596e-05
3.37871e-05
-1.07665e-05
-3.60182e-05
3.48221e-05
-1.05439e-05
-2.91824e-05
3.6052e-05
-1.02705e-05
-2.28738e-05
3.74848e-05
-9.89705e-06
-1.72464e-05
3.91011e-05
-9.38043e-06
-1.2436e-05
4.08214e-05
-8.72181e-06
-8.50833e-06
4.24725e-05
-7.96521e-06
-5.45134e-06
4.37874e-05
-7.15957e-06
-3.18959e-06
4.44622e-05
-6.31381e-06
-1.5683e-06
4.41014e-05
-5.26259e-06
4.01639e-05
-3.30883e-06
-1.10245e-05
4.45097e-05
5.65497e-06
-1.92261e-05
5.21763e-05
6.13179e-06
-2.59877e-05
5.45796e-05
6.06254e-06
-3.21509e-05
5.56772e-05
5.98634e-06
-3.80661e-05
5.59221e-05
5.77836e-06
-4.38307e-05
5.55171e-05
5.41263e-06
-4.93978e-05
5.45821e-05
4.9253e-06
-5.46627e-05
5.32084e-05
4.31503e-06
-5.94955e-05
5.15032e-05
3.5586e-06
-6.3748e-05
4.95875e-05
2.65147e-06
-6.73265e-05
4.75897e-05
1.62128e-06
-7.01637e-05
4.56156e-05
4.82278e-07
-7.23012e-05
4.37485e-05
-6.29672e-07
-7.36835e-05
4.20289e-05
-1.77007e-06
-7.42148e-05
4.04887e-05
-2.95298e-06
-7.38042e-05
3.91383e-05
-4.16015e-06
-7.23727e-05
3.79902e-05
-5.38217e-06
-6.98508e-05
3.70545e-05
-6.61684e-06
-6.61023e-05
3.63423e-05
-7.92462e-06
-6.08978e-05
3.58777e-05
-9.37869e-06
-5.43067e-05
3.57163e-05
-1.07099e-05
-4.69495e-05
3.59144e-05
-1.14586e-05
-3.93843e-05
3.64619e-05
-1.17431e-05
-3.19674e-05
3.72908e-05
-1.17496e-05
-2.49113e-05
3.83517e-05
-1.15932e-05
-1.83573e-05
3.96227e-05
-1.1321e-05
-1.2441e-05
4.10996e-05
-1.09225e-05
-7.32826e-06
4.27761e-05
-1.03537e-05
-3.18442e-06
4.46133e-05
-9.59735e-06
-9.23652e-08
4.6501e-05
-8.70739e-06
1.98649e-06
4.82298e-05
-7.77194e-06
3.17326e-06
4.9521e-05
-6.86106e-06
3.55331e-06
5.0125e-05
-5.986e-06
2.90653e-06
4.98226e-05
-4.99301e-06
4.65428e-05
-3.26889e-06
-2.49087e-06
4.25198e-05
5.5283e-06
-8.83722e-06
5.19328e-05
7.65769e-06
-1.62593e-05
5.4823e-05
8.24446e-06
-2.40072e-05
5.60184e-05
8.49023e-06
-3.18226e-05
5.63035e-05
8.53262e-06
-3.94156e-05
5.58977e-05
8.30909e-06
-4.65198e-05
5.49914e-05
7.77802e-06
-5.29333e-05
5.37167e-05
6.96249e-06
-5.8503e-05
5.21485e-05
5.94215e-06
-6.31552e-05
5.03991e-05
4.81199e-06
-6.69246e-05
4.86264e-05
3.65011e-06
-6.98911e-05
4.69349e-05
2.50268e-06
-7.21349e-05
4.53916e-05
1.38625e-06
-7.36719e-05
4.40135e-05
2.61001e-07
-7.46249e-05
4.28096e-05
-7.41726e-07
-7.4944e-05
4.17684e-05
-1.77083e-06
-7.45836e-05
4.08868e-05
-2.80239e-06
-7.34675e-05
4.01633e-05
-3.85277e-06
-7.14342e-05
3.9601e-05
-4.99691e-06
-6.81681e-05
3.92094e-05
-6.37401e-06
-6.34013e-05
3.90221e-05
-7.91334e-06
-5.75455e-05
3.91347e-05
-8.98168e-06
-5.11935e-05
3.96253e-05
-9.48811e-06
-4.47616e-05
4.04622e-05
-9.63815e-06
-3.85057e-05
4.15902e-05
-9.58218e-06
-3.2594e-05
4.29728e-05
-9.39294e-06
-2.71662e-05
4.45807e-05
-9.07458e-06
-2.23438e-05
4.63653e-05
-8.60555e-06
-1.81863e-05
4.82268e-05
-7.98897e-06
-1.46424e-05
4.99894e-05
-7.27064e-06
-1.15635e-05
5.14151e-05
-6.51813e-06
-8.78397e-06
5.22696e-05
-5.78979e-06
-6.17628e-06
5.23587e-05
-5.10263e-06
-3.55143e-06
5.12903e-05
-4.34974e-06
4.58221e-05
-3.0586e-06
1.03929e-06
3.9564e-05
3.55081e-06
-3.9024e-06
5.22696e-05
6.37396e-06
-1.05284e-05
5.60085e-05
7.04257e-06
-1.77321e-05
5.76334e-05
6.97419e-06
-2.50021e-05
5.80695e-05
6.66004e-06
-3.1739e-05
5.74605e-05
6.13965e-06
-3.73028e-05
5.60803e-05
5.32303e-06
-4.13531e-05
5.42704e-05
4.27615e-06
-4.40364e-05
5.23993e-05
3.1833e-06
-4.56491e-05
5.06306e-05
2.15087e-06
-4.64237e-05
4.90345e-05
1.19039e-06
-4.6519e-05
4.76744e-05
2.52854e-07
-4.61898e-05
4.65834e-05
-5.43538e-07
-4.55387e-05
4.57435e-05
-1.32839e-06
-4.46327e-05
4.5126e-05
-2.10684e-06
-4.35338e-05
4.46957e-05
-2.86536e-06
-4.2269e-05
4.44176e-05
-3.61116e-06
-4.08133e-05
4.42614e-05
-4.36882e-06
-3.90579e-05
4.4205e-05
-5.19644e-06
-3.67636e-05
4.42375e-05
-6.19997e-06
-3.36561e-05
4.44e-05
-7.41125e-06
-2.99811e-05
4.47807e-05
-8.30328e-06
-2.62229e-05
4.54107e-05
-8.6025e-06
-2.25584e-05
4.62594e-05
-8.61423e-06
-1.90647e-05
4.72984e-05
-8.45747e-06
-1.57896e-05
4.85058e-05
-8.16812e-06
-1.27748e-05
4.98629e-05
-7.75464e-06
-1.00599e-05
5.13353e-05
-7.22595e-06
-7.67459e-06
5.2844e-05
-6.60769e-06
-5.62918e-06
5.42401e-05
-5.94418e-06
-3.91493e-06
5.53147e-05
-5.28723e-06
-2.5086e-06
5.5851e-05
-4.67569e-06
-1.38217e-06
5.5643e-05
-4.10952e-06
-5.55924e-07
5.42336e-05
-3.48543e-06
4.79395e-05
-2.4707e-06
-1.54386e-05
5.06083e-05
2.3371e-06
-2.50018e-05
5.65394e-05
2.60259e-06
-3.03085e-05
5.66251e-05
1.84733e-06
-3.02393e-05
5.36784e-05
1.00606e-06
-2.57581e-05
5.0573e-05
1.62302e-07
-1.97009e-05
4.91422e-05
-5.31272e-07
-1.31548e-05
4.79437e-05
-1.08319e-06
-6.69667e-06
4.68762e-05
-1.55041e-06
-7.89644e-07
4.61347e-05
-1.92288e-06
4.29095e-06
4.56804e-05
-2.19685e-06
8.4965e-06
4.53858e-05
-2.39584e-06
1.19089e-05
4.52219e-05
-2.5663e-06
1.46774e-05
4.5197e-05
-2.74927e-06
1.69537e-05
4.5318e-05
-2.97318e-06
1.88782e-05
4.55821e-05
-3.2539e-06
2.0575e-05
4.59784e-05
-3.60172e-06
2.21611e-05
4.64918e-05
-4.03214e-06
2.37593e-05
4.71069e-05
-4.57004e-06
2.55003e-05
4.78102e-05
-5.23884e-06
2.74381e-05
4.85913e-05
-5.97381e-06
2.93478e-05
4.94735e-05
-6.47655e-06
3.09752e-05
5.05002e-05
-6.66498e-06
3.22029e-05
5.16831e-05
-6.66831e-06
3.2957e-05
5.30101e-05
-6.55448e-06
3.31908e-05
5.44524e-05
-6.35272e-06
3.28711e-05
5.59892e-05
-6.07694e-06
3.19648e-05
5.76125e-05
-5.73635e-06
3.04447e-05
5.9296e-05
-5.33933e-06
2.82857e-05
6.09798e-05
-4.89864e-06
2.5453e-05
6.25512e-05
-4.43301e-06
2.19026e-05
6.38416e-05
-3.96606e-06
1.76092e-05
6.4642e-05
-3.51851e-06
1.2594e-05
6.47093e-05
-3.09219e-06
6.83498e-06
6.36181e-05
-2.62274e-06
5.7936e-05
-1.92497e-06
-5.20398e-06
5.44724e-05
6.94985e-07
-1.12775e-05
6.14129e-05
1.39354e-07
-1.65703e-05
6.10755e-05
-4.59277e-07
-2.08394e-05
5.71649e-05
-8.78139e-07
-2.38021e-05
5.2955e-05
-1.33628e-06
-2.52848e-05
5.06992e-05
-1.88745e-06
-2.53934e-05
4.88049e-05
-2.41864e-06
-2.40555e-05
4.6978e-05
-2.9473e-06
-2.1294e-05
4.54843e-05
-3.46584e-06
-1.74907e-05
4.46034e-05
-3.94577e-06
-1.31076e-05
4.42574e-05
-4.36964e-06
-8.40016e-06
4.4209e-05
-4.73688e-06
-3.44209e-06
4.43003e-05
-5.05881e-06
1.76461e-06
4.44919e-05
-5.35229e-06
7.22739e-06
4.48019e-05
-5.63586e-06
1.29424e-05
4.52561e-05
-5.92405e-06
1.88683e-05
4.58833e-05
-6.21247e-06
2.48831e-05
4.67204e-05
-6.46124e-06
3.07589e-05
4.78054e-05
-6.60551e-06
3.61653e-05
4.91625e-05
-6.57007e-06
4.07684e-05
5.07963e-05
-6.33035e-06
4.43368e-05
5.26837e-05
-5.9304e-06
4.67368e-05
5.47808e-05
-5.43038e-06
4.78917e-05
5.70429e-05
-4.88034e-06
4.77488e-05
5.94326e-05