/*--------------------------------*- C++ -*----------------------------------*\
| =========                 |                                                 |
| \\      /  F ield         | OpenFOAM: The Open Source CFD Toolbox           |
|  \\    /   O peration     | Version:  v2006                                 |
|   \\  /    A nd           | Website:  www.openfoam.com                      |
|    \\/     M anipulation  |                                                 |
\*---------------------------------------------------------------------------*/
FoamFile
{
    version     2.0;
    format      ascii;
    class       volScalarField;
    location    "99";
    object      T;
}
// * * * * * * * * * * * * * * * * * * * * * * * * * * * * * * * * * * * * * //

dimensions      [0 0 0 1 0 0 0];


internalField   nonuniform List<scalar> 
78750
(
254.913
258.235
262.39
265.866
269.096
272.232
275.331
278.344
281.224
283.84
286.072
287.797
288.929
289.326
289.068
288.22
286.862
284.978
282.7
280.103
276.953
273.005
267.874
261.734
255.539
250.019
245.478
241.992
239.708
238.918
239.927
243.158
249.228
258.616
282.865
289.291
287.297
274.543
270.441
269.315
268.893
268.411
267.426
265.922
264.113
262.112
259.917
257.49
254.812
251.906
248.822
245.653
242.52
239.569
236.928
234.698
232.968
231.827
231.351
231.552
232.374
233.725
235.541
237.917
241.05
245.02
249.925
255.884
263.053
278.353
278.123
263.093
256.881
255.764
256.002
256.44
256.836
257.048
256.999
256.655
256.008
255.062
253.832
252.346
250.645
248.786
246.834
244.866
242.959
241.197
239.658
238.418
237.543
237.095
237.125
237.683
238.814
240.574
243.027
246.245
250.319
255.365
261.56
269.361
286.564
269.484
266.364
265.61
265.771
266.599
267.878
269.371
270.881
272.269
273.449
274.37
275.007
275.359
275.436
275.263
274.862
274.253
273.455
272.48
271.336
270.028
268.558
266.931
265.152
263.244
261.252
259.253
257.364
255.76
254.674
254.403
255.324
257.884
262.671
276.22
265.826
264.081
264.313
265.492
267.401
269.735
272.213
274.697
277.069
279.247
281.185
282.861
284.269
285.413
286.304
286.956
287.388
287.615
287.647
287.488
287.138
286.595
285.852
284.899
283.723
282.324
280.715
278.939
277.082
275.295
273.751
272.813
273.375
276.732
289.952
263.846
261.835
262.09
263.411
265.534
268.18
271.112
274.15
277.173
280.08
282.792
285.255
287.437
289.326
290.927
292.255
293.33
294.175
294.811
295.26
295.541
295.672
295.671
295.56
295.367
295.13
294.899
294.741
294.748
295.045
295.798
297.202
299.49
302.978
312.302
259.488
259.417
261.098
263.921
267.478
271.448
275.569
279.623
283.448
286.926
289.984
292.593
294.761
296.519
297.917
299.007
299.841
300.464
300.917
301.233
301.441
301.569
301.649
301.715
301.811
301.991
302.318
302.866
303.717
304.967
306.731
309.159
312.449
316.892
327.561
268.35
267.988
269.56
272.177
275.415
278.969
282.588
286.079
289.299
292.151
294.59
296.609
298.233
299.506
300.479
301.203
301.727
302.092
302.336
302.489
302.579
302.635
302.684
302.758
302.893
303.131
303.521
304.118
304.989
306.216
307.901
310.178
313.223
317.29
327.093
266.492
266.552
267.951
270.234
273.072
276.232
279.571
282.998
286.396
289.634
292.603
295.223
297.458
299.314
300.819
302.016
302.95
303.667
304.208
304.612
304.916
305.157
305.369
305.589
305.857
306.216
306.72
307.438
308.452
309.868
311.806
314.409
317.835
322.279
332.519
268.5
266.636
266.673
267.612
269.297
271.527
273.931
275.839
277.335
278.833
280.573
282.501
284.527
286.601
288.672
290.718
292.713
294.628
296.43
298.086
299.571
300.867
301.971
302.896
303.669
304.329
304.929
305.534
306.224
307.087
308.23
309.783
311.91
314.859
322.584
259.989
257.178
256.79
257.163
258.097
259.462
261.157
263.107
265.297
267.736
270.405
273.254
276.235
279.321
282.516
285.847
289.342
292.988
296.706
300.352
303.749
306.742
309.256
311.308
312.969
314.335
315.5
316.553
317.575
318.679
320.057
322.009
324.993
330.066
344.41
289.029
285.709
284.311
283.601
283.403
283.617
284.164
284.964
285.936
287.001
288.1
289.198
290.28
291.35
292.441
293.604
294.864
296.249
297.807
299.543
301.418
303.363
305.296
307.144
308.86
310.437
311.92
313.402
315.012
316.888
319.171
321.999
325.549
330.439
342.271
290.594
288.925
288.028
287.311
286.899
286.866
287.229
287.973
289.099
290.539
292.205
294.027
295.949
297.94
300.003
302.167
304.446
306.771
308.995
311.023
312.878
314.604
316.235
317.807
319.347
320.874
322.412
324.013
325.75
327.706
329.964
332.61
335.961
340.948
353.455
285.442
283.535
284.155
285.537
287.412
289.395
291.216
292.974
294.83
296.781
298.778
300.789
302.793
304.856
307.082
309.357
311.417
313.147
314.534
315.592
316.333
316.804
317.075
317.224
317.384
317.731
318.394
319.446
320.955
322.992
325.619
328.889
332.861
338.148
350.429
283.775
279.625
282.187
286.559
290.415
293.602
296.417
299.047
301.598
304.166
306.803
309.432
311.895
314.086
315.97
317.539
318.806
319.808
320.607
321.273
321.874
322.472
323.101
323.772
324.475
325.186
325.868
326.504
327.151
327.945
328.996
330.483
332.73
336.026
344.489
292.28
292.297
294.436
297.083
299.374
301.401
303.448
305.593
307.743
309.833
311.85
313.852
315.807
317.57
319.086
320.375
321.477
322.433
323.276
324.021
324.665
325.211
325.669
326.055
326.39
326.692
326.987
327.314
327.739
328.346
329.249
330.63
332.73
336.131
345.823
288.419
289.626
292.369
295.679
299.041
302.311
305.504
308.6
311.566
314.37
316.96
319.27
321.225
322.81
324.068
325.076
325.901
326.591
327.179
327.693
328.151
328.559
328.911
329.207
329.453
329.66
329.846
330.045
330.321
330.782
331.591
332.911
334.86
337.849
346.296
283.812
282.967
285.707
289.484
293.592
297.483
301.07
304.506
307.821
310.926
313.808
316.454
318.83
320.914
322.697
324.201
325.471
326.558
327.517
328.376
329.136
329.797
330.374
330.88
331.333
331.75
332.156
332.589
333.117
333.849
334.933
336.541
338.864
342.565
352.935
302.139
301.304
302.164
303.784
305.74
307.821
310.038
312.338
314.613
316.785
318.803
320.633
322.251
323.666
324.893
325.947
326.853
327.644
328.352
329.005
329.62
330.191
330.712
331.188
331.622
332.021
332.403
332.811
333.323
334.068
335.214
336.919
339.313
342.926
352.811
308.358
309.789
310.049
310.413
311.019
311.929
313.188
314.785
316.678
318.767
320.927
323.06
325.087
326.957
328.637
330.12
331.409
332.517
333.469
334.288
335.005
335.653
336.214
336.647
336.956
337.185
337.4
337.695
338.192
339.028
340.326
342.165
344.613
348.193
357.492
285.091
286.164
288.402
290.784
293.632
296.765
299.709
302.268
304.657
307.033
309.338
311.548
313.658
315.689
317.66
319.588
321.482
323.349
325.184
326.974
328.736
330.521
332.295
333.962
335.485
336.867
338.142
339.374
340.655
342.088
343.755
345.723
348.133
351.899
362.639
297.631
299.075
300.186
301.394
303.236
305.794
308.682
311.479
313.816
315.699
317.255
318.509
319.474
320.191
320.718
321.125
321.487
321.879
322.361
322.968
323.716
324.63
325.723
326.975
328.358
329.842
331.396
332.999
334.659
336.413
338.326
340.49
343.073
346.864
357.534
314.841
318.541
322.474
330.171
336.016
337.869
338.589
338.664
338.224
337.508
336.7
335.881
335.059
334.207
333.293
332.289
331.173
329.939
328.602
327.208
325.837
324.6
323.625
323.026
322.874
323.194
324.018
325.361
327.182
329.393
331.907
334.69
337.799
341.698
351.122
311.543
316.006
318.106
319.924
321.553
322.854
324.032
325.439
327.212
329.012
330.504
331.661
332.609
333.437
334.172
334.82
335.382
335.829
336.064
335.93
335.251
333.931
332.05
329.869
327.73
326.004
325.044
325.094
326.206
328.254
331.042
334.423
338.437
344.182
358.083
315.839
318.764
320.436
322.087
322.954
322.916
322.445
321.766
320.999
320.259
319.664
319.315
319.218
319.364
319.751
320.386
321.296
322.53
324.149
326.208
328.736
331.702
334.956
338.151
340.726
342.134
342.264
341.506
340.44
339.59
339.37
340.177
342.616
348.494
366.011
304.745
310.308
312.837
314.288
315.283
315.764
315.485
314.037
311.582
309.475
308.2
307.278
306.5
305.871
305.381
305.028
304.817
304.769
304.923
305.347
306.132
307.401
309.314
312.042
315.701
320.255
325.412
330.665
335.543
339.857
343.737
347.494
351.566
357.754
374.11
296.763
299.889
303.126
304.202
304.183
303.579
302.479
300.873
298.975
297.873
297.646
297.722
297.818
297.825
297.689
297.391
296.939
296.36
295.697
295.005
294.356
293.847
293.597
293.731
294.461
296.134
299.176
303.969
310.709
319.247
328.798
337.814
345.67
353.411
366.656
264.788
262.718
264.245
265.903
267.736
269.621
271.631
273.864
276.182
278.26
280.013
281.493
282.773
283.955
285.077
286.146
287.124
287.953
288.568
288.938
288.998
288.615
287.774
286.599
285.23
283.872
282.967
283.222
285.44
289.947
296.304
303.952
312.02
317.987
329.604
280.825
278.086
275.687
273.933
272.774
272.005
271.45
270.905
270.111
269.329
269.557
270.607
271.806
273.09
274.681
276.546
278.55
280.507
282.377
284.164
285.826
287.261
288.341
288.955
288.99
288.33
286.976
285.291
284.024
283.914
284.934
285.512
283.588
281.092
293.762
266.14
270.57
278.007
281.611
283.31
284.523
285.776
287.416
289.757
292.629
295.28
297.421
299.16
300.551
301.538
302.177
302.582
302.896
303.243
303.701
304.299
305.005
305.741
306.406
306.913
307.222
307.39
307.537
307.224
303.173
292.886
281.296
275.559
281.442
314.524
229.585
211.002
216.448
222.911
228.429
233.726
239.461
245.905
253.126
260.969
269.06
276.968
284.43
291.366
297.786
303.712
309.142
314.075
318.521
322.493
325.974
328.933
331.366
333.341
334.936
335.969
335.595
332.248
324.766
314.769
307.378
304.199
305.29
319.023
353.476
257.658
219.672
211.762
211.283
213.697
217.385
221.326
224.865
227.722
229.89
231.498
232.836
234.292
236.158
238.632
241.937
246.37
252.236
259.699
268.668
278.742
289.237
299.299
308.132
315.145
319.903
322.024
321.378
318.604
315.254
312.907
312.119
313.693
320.628
340.218
299.086
281.363
274.86
275.896
280.963
286.577
290.572
292.079
290.506
285.822
279.014
271.357
263.762
256.722
250.439
244.977
240.399
236.877
234.689
234.1
235.232
238.047
242.36
247.846
254.038
260.36
266.179
270.948
274.434
276.853
278.647
280.267
282.614
288.187
309.812
311.065
318.771
325.207
332.21
335.731
334.8
329.894
323.459
317.233
311.745
306.805
302.04
297.187
292.14
286.893
281.487
275.991
270.527
265.309
260.647
256.878
254.249
252.83
252.504
253.059
254.25
255.828
257.543
259.175
260.633
262.107
264.448
269.183
275.358
297.831
314.493
328.757
334.112
332.895
330.344
327.197
323.8
320.594
318.003
316.052
314.51
313.139
311.769
310.278
308.568
306.559
304.208
301.524
298.586
295.545
292.595
289.922
287.655
285.831
284.403
283.257
282.25
281.282
280.361
279.597
279.282
279.886
277.303
274.072
288.164
313.113
328.934
332.62
329.878
326.583
323.249
320.433
318.311
316.512
314.942
313.786
313.144
312.923
313.01
313.218
313.422
313.534
313.452
313.134
312.612
311.927
311.121
310.204
309.143
307.931
306.669
305.502
304.553
303.929
303.654
301.176
283.361
267.35
261.876
272.14
309.168
320.832
330.444
330.894
325.943
325.604
326.03
324.149
320.244
315.572
311.617
308.909
307.242
306.191
305.542
305.328
305.91
307.674
309.981
312.082
313.941
315.482
316.544
317.071
317.045
316.381
315.019
313.116
310.981
308.398
302.721
285.09
267.467
260.671
271.443
309.48
313.923
318.623
321.51
325.114
328.69
328.296
323.376
314.392
307.332
307.152
309.026
310.793
313.039
315.069
313.679
308.014
303.13
301.022
301.102
303.22
306.797
310.603
314.42
318.175
321.253
323.361
324.171
322.989
318.69
309.754
295.966
281.175
272.073
281.664
312.245
317.455
319.99
321.668
323.529
326.837
329.796
331.028
330.266
327.946
325.633
324.305
326.148
333.595
342.132
335.731
311.501
291.451
284.512
282.652
281.936
282.237
283.528
285.668
288.912
293.856
301.059
310.123
320.744
332.032
338.765
325.552
302.361
293.842
300.782
312.993
318.211
320.923
322.497
323.802
325.106
325.955
326.398
326.566
326.487
326.226
325.857
325.29
323.895
320.337
316.297
315.336
315.681
316.235
317.114
317.686
317.581
316.934
316.27
315.758
314.039
308.892
300.096
293.45
296.227
304.36
311.394
311.701
310.491
322.084
315.87
320.873
320.918
321.327
321.807
322.334
322.88
323.408
323.908
324.379
324.825
325.255
325.681
326.118
326.538
326.859
327.164
327.616
328.358
329.159
330.279
331.446
332.663
334.117
334.016
336.87
335.879
329.729
332.666
337.381
331.646
325.438
321.717
318.991
329.386
315.048
327.574
332.437
335.387
337.733
339.77
341.627
343.376
345.052
346.665
348.22
349.718
351.168
352.576
353.961
355.342
356.752
358.219
359.874
361.637
363.724
365.903
367.818
370.912
370.974
375.22
377.422
366.506
375.437
388.074
361.096
330.319
318.001
315.573
325.969
313.727
326.481
334.412
339.836
343.978
347.432
350.497
353.341
356.056
358.662
361.119
363.359
365.31
366.908
368.117
368.957
369.499
369.826
370.009
370.113
370.225
370.593
371.374
372.253
372.842
373.102
373.378
374.477
364.312
339.419
313.772
299.996
295.913
296.696
309.214
317.596
333.016
339.882
343.794
346.826
349.592
352.335
355.192
358.178
361.168
363.937
366.28
368.084
369.344
370.214
370.859
371.36
371.757
372.114
372.527
372.876
372.89
372.532
371.878
371.072
370.207
368.385
360.149
337.28
309.509
290.81
282.068
279.109
280.618
294.748
319.188
334.65
341.478
345.756
349.345
352.717
356.104
359.598
363.01
365.956
368.18
369.707
370.712
371.379
371.832
372.147
372.372
372.537
372.641
372.643
372.485
372.094
371.461
370.647
369.716
368.597
366.495
360.213
344.419
321.707
302.634
292.955
291.031
295.109
314.566
320.991
337.252
343.696
347.69
351.224
354.726
358.359
362.004
365.287
367.896
369.778
371.054
371.887
372.418
372.745
372.934
373.012
372.975
372.796
372.475
372.044
371.52
370.912
370.247
369.543
368.781
367.768
365.615
359.814
347.796
332.212
323.25
323.524
330.439
359.675
322.324
338.626
345.113
349.262
353.034
356.797
360.579
364.127
367.135
369.442
371.063
372.132
372.804
373.204
373.413
373.47
373.377
373.101
372.629
372.029
371.42
370.863
370.357
369.882
369.425
368.976
368.512
367.902
366.534
362.763
355.685
351.441
353.438
361.048
389.722
323.796
340.33
346.729
350.904
354.86
358.869
362.753
366.14
368.82
370.782
372.127
372.999
373.534
373.829
373.937
373.874
373.613
373.121
372.429
371.684
371.035
370.525
370.124
369.795
369.52
369.301
369.167
369.185
369.384
369.384
368.587
369.005
372.081
379.365
400.262
325.207
341.6
348.003
352.342
356.626
360.975
364.943
368.111
370.438
372.063
373.145
373.827
374.219
374.396
374.389
374.192
373.774
373.128
372.341
371.583
370.978
370.534
370.207
369.965
369.796
369.718
369.798
370.196
371.198
373.014
375.457
378.294
381.885
388.462
403.236
326.4
342.723
349.159
353.696
358.358
363.03
366.974
369.844
371.812
373.139
374.007
374.538
374.818
374.894
374.778
374.453
373.903
373.173
372.401
371.737
371.241
370.889
370.641
370.475
370.39
370.416
370.633
371.243
372.637
375.262
378.983
382.54
386.191
392.148
404.111
327.605
343.755
350.28
355.092
360.179
365.098
368.89
371.397
373.004
374.059
374.746
375.158
375.35
375.351
375.158
374.749
374.125
373.377
372.665
372.104
371.707
371.437
371.258
371.158
371.141
371.235
371.519
372.186
373.646
376.419
380.308
383.803
387.344
393.133
404.682
328.623
344.587
351.197
356.286
361.772
366.877
370.53
372.763
374.101
374.942
375.481
375.802
375.941
375.913
375.708
375.29
374.65
373.889
373.209
372.726
372.422
372.244
372.162
372.167
372.275
372.522
372.978
373.782
375.255
377.84
381.274
384.456
388.035
394.289
405.844
329.434
345.243
351.898
357.172
362.902
368.08
371.644
373.75
374.97
375.709
376.171
376.445
376.567
376.551
376.391
376.049
375.476
374.716
373.994
373.517
373.277
373.199
373.248
373.429
373.779
374.366
375.267
376.545
378.312
380.758
383.631
386.51
390.195
396.735
407.058
329.896
345.604
352.252
357.62
363.521
368.79
372.377
374.493
375.715
376.443
376.886
377.143
377.259
377.256
377.137
376.884
376.446
375.782
375.011
374.434
374.185
374.172
374.341
374.724
375.4
376.467
377.997
379.962
382.251
384.747
387.273
389.886
393.373
399.23
407.565
330.132
345.825
352.433
357.809
363.796
369.095
372.693
374.855
376.143
376.934
377.429
377.729
377.885
377.921
377.853
377.684
377.394
376.934
376.287
375.613
375.214
375.163
375.35
375.775
376.56
377.867
379.788
382.225
384.893
387.463
389.808
392.151
395.155
399.963
407.251
330.24
345.985
352.62
358.118
364.383
369.774
373.293
375.372
376.62
377.408
377.923
378.257
378.457
378.546
378.535
378.435
378.248
377.959
377.536
376.982
376.458
376.244
376.414
376.84
377.522
378.632
380.365
382.728
385.413
387.977
390.233
392.397
395.048
399.329
406.77
329.776
345.716
352.437
358.12
364.831
370.485
373.999
375.989
377.16
377.902
378.399
378.739
378.964
379.095
379.141
379.109
379.004
378.828
378.575
378.226
377.79
377.399
377.309
377.675
378.402
379.393
380.749
382.617
384.925
387.333
389.564
391.685
394.191
398.311
406.261
328.15
344.373
351.263
357.142
364.404
370.696
374.548
376.629
377.789
378.494
378.958
379.276
379.495
379.637
379.713
379.728
379.683
379.584
379.432
379.224
378.953
378.623
378.321
378.264
378.688
379.627
380.919
382.499
384.389
386.487
388.605
390.704
393.126
397.078
405.44
325.619
342.096
349.214
355.165
362.707
369.853
374.477
376.964
378.287
379.045
379.518
379.833
380.047
380.19
380.277
380.315
380.308
380.259
380.169
380.042
379.877
379.668
379.417
379.172
379.099
379.467
380.435
381.853
383.537
385.407
387.391
389.452
391.816
395.644
404.454
323.539
340.342
347.733
353.625
360.929
368.588
374.07
377.13
378.72
379.583
380.093
380.417
380.631
380.773
380.862
380.909
380.92
380.897
380.844
380.763
380.657
380.524
380.36
380.164
379.964
379.895
380.246
381.223
382.657
384.363
386.26
388.317
390.709
394.637
404.052
323.24
340.657
348.194
353.813
360.315
367.629
373.614
377.239
379.145
380.142
380.698
381.033
381.246
381.383
381.468
381.516
381.532
381.521
381.487
381.431
381.357
381.265
381.155
381.025
380.878
380.753
380.823
381.44
382.697
384.278
386.083
388.126
390.6
394.772
404.513
324.93
342.895
350.299
355.421
360.773
366.917
372.858
377.054
379.424
380.659
381.314
381.683
381.902
382.035
382.114
382.156
382.17
382.16
382.132
382.087
382.027
381.954
381.869
381.775
381.677
381.601
381.657
382.164
383.483
385.305
387.135
389.088
391.531
395.751
405.068
327.553
345.608
352.707
357.33
361.618
366.259
371.437
376.05
379.144
380.878
381.79
382.275
382.543
382.694
382.778
382.82
382.832
382.822
382.795
382.753
382.699
382.632
382.555
382.472
382.388
382.325
382.351
382.686
383.771
385.793
388.035
390.042
392.284
396.099
404.814
329.688
347.693
354.624
359.015
362.725
366.236
370.077
374.301
377.989
380.489
381.924
382.691
383.098
383.317
383.433
383.491
383.512
383.507
383.484
383.446
383.395
383.333
383.259
383.175
383.086
383.003
382.957
383.045
383.538
384.88
387.123
389.494
391.748
395.158
403.833
331.072
349.185
356.18
360.628
364.278
367.355
370.16
373.15
376.439
379.398
381.502
382.762
383.453
383.822
384.02
384.123
384.172
384.187
384.179
384.153
384.113
384.061
383.997
383.921
383.832
383.735
383.64
383.579
383.653
384.146
385.569
388.019
390.621
394.237
403.112
332.194
350.476
357.64
362.289
366.161
369.327
371.827
373.917
376.023
378.39
380.677
382.423
383.525
384.15
384.491
384.677
384.778
384.829
384.848
384.845
384.826
384.794
384.75
384.692
384.619
384.528
384.419
384.3
384.21
384.333
385.292
387.704
390.507
394.412
403.648
333.463
351.833
359.133
364
368.191
371.661
374.266
376.106
377.486
378.788
380.321
381.972
383.35
384.273
384.816
385.123
385.298
385.399
385.456
385.486
385.498
385.496
385.483
385.46
385.423
385.367
385.285
385.182
385.13
385.429
386.736
389.282
391.988
395.89
405.273
334.823
353.25
360.636
365.715
370.271
374.085
376.868
378.69
379.841
380.626
381.322
382.202
383.296
384.309
385.027
385.469
385.731
385.889
385.99
386.056
386.101
386.133
386.157
386.178
386.2
386.221
386.239
386.273
386.484
387.276
389.052
391.475
393.996
397.852
406.602
335.842
354.23
361.703
367.131
372.283
376.512
379.409
381.181
382.211
382.809
383.183
383.498
383.947
384.607
385.279
385.782
386.109
386.317
386.456
386.556
386.632
386.694
386.752
386.815
386.897
387.02
387.208
387.487
388.008
389.108
390.901
392.958
395.219
398.916
406.983
334.79
353.084
360.916
367.155
373.52
378.444
381.491
383.2
384.136
384.648
384.926
385.084
385.215
385.45
385.827
386.22
386.527
386.742
386.897
387.017
387.115
387.201
387.284
387.377
387.499
387.69
388.01
388.515
389.269
390.436
391.986
393.678
395.686
399.208
407.086
330.016
348.194
356.912
364.549
372.791
378.902
382.44
384.314
385.308
385.848
386.143
386.3
386.388
386.482
386.643
386.858
387.064
387.234
387.373
387.492
387.6
387.703
387.808
387.924
388.075
388.303
388.692
389.34
390.282
391.519
392.948
394.481
396.406
399.933
407.66
323.622
341.453
350.926
359.549
369.263
376.962
381.69
384.283
385.677
386.444
386.874
387.115
387.25
387.344
387.442
387.557
387.678
387.794
387.905
388.015
388.126
388.241
388.367
388.514
388.708
388.997
389.476
390.265
391.407
392.815
394.309
395.861
397.848
401.476
408.597
320.177
338.102
347.144
354.772
363.693
372.326
378.772
382.843
385.215
386.553
387.298
387.705
387.923
388.046
388.131
388.208
388.287
388.372
388.464
388.565
388.677
388.805
388.958
389.153
389.423
389.833
390.495
391.514
392.876
394.432
395.987
397.57
399.619
403.254
409.408
321.396
340.445
348.555
354.066
359.774
366.451
373.113
378.6
382.594
385.249
386.879
387.813
388.318
388.579
388.717
388.801
388.867
388.933
389.009
389.099
389.209
389.347
389.525
389.769
390.126
390.687
391.593
392.952
394.64
396.339
397.883
399.414
401.402
404.793
409.882
325.094
345.744
353.904
358.679
362.289
365.299
368.495
372.21
376.177
380.003
383.302
385.81
387.475
388.448
388.968
389.232
389.37
389.452
389.518
389.59
389.681
389.803
389.975
390.222
390.596
391.198
392.198
393.769
395.83
397.886
399.57
401.072
402.887
405.789
409.947
329.176
350.868
360.107
366.211
371.162
374.19
375.187
375.087
374.986
375.687
377.49
380.21
383.317
386.039
387.878
388.925
389.485
389.781
389.942
390.041
390.123
390.217
390.348
390.545
390.85
391.346
392.181
393.568
395.602
397.919
399.909
401.511
403.184
405.649
409.501
334.655
356.237
366.359
373.908
380.554
385.255
387.344
387.101
385.681
383.961
382.269
380.91
380.687
382.289
384.971
387.265
388.695
389.519
390.004
390.298
390.485
390.621
390.747
390.901
391.127
391.488
392.089
393.104
394.703
396.786
398.829
400.502
402.104
404.395
408.723
341.549
362.093
372.74
381.371
387.081
390.259
391.899
392.263
391.706
390.73
389.612
388.367
386.866
385.31
385.148
386.604
388.168
389.218
389.876
390.319
390.64
390.884
391.084
391.273
391.491
391.79
392.25
392.994
394.167
395.785
397.545
399.121
400.66
402.946
408.02
340.595
360.242
370.357
378.66
383.726
386.986
389.163
390.474
391.065
391.126
390.844
390.321
389.582
388.743
388.365
388.793
389.44
389.97
390.385
390.729
391.023
391.277
391.502
391.72
391.958
392.258
392.68
393.309
394.243
395.501
396.93
398.338
399.82
402.152
407.71
329.127
344.678
351.102
357.244
365.033
373.324
380.463
385.595
388.638
390.04
390.451
390.42
390.305
390.266
390.333
390.51
390.752
391.008
391.255
391.487
391.704
391.91
392.113
392.327
392.575
392.89
393.316
393.913
394.736
395.791
396.999
398.271
399.711
402.077
407.764
316.365
326.946
333.552
339.14
345.65
353.963
363.212
372.521
380.991
387.202
390.296
391.373
391.652
391.698
391.721
391.785
391.891
392.022
392.167
392.318
392.473
392.636
392.814
393.019
393.271
393.595
394.03
394.614
395.381
396.327
397.409
398.591
399.994
402.36
407.987
311.979
329.723
341.333
347.792
351.503
353.821
355.963
358.843
363.503
372.065
382.133
388.639
391.443
392.436
392.745
392.836
392.883
392.941
393.02
393.118
393.233
393.369
393.53
393.729
393.982
394.312
394.75
395.324
396.051
396.927
397.927
399.046
400.417
402.761
408.248
318.154
343.043
356.505
364.57
370.631
375.444
378.197
377.365
372.413
368.291
373.506
382.77
389.097
391.854
392.908
393.343
393.555
393.68
393.773
393.864
393.967
394.093
394.253
394.458
394.721
395.064
395.509
396.074
396.772
397.597
398.542
399.619
400.968
403.286
408.541
327.773
350.526
360.505
367.041
373.273
380.505
389.37
394.614
392.307
386.882
387.367
390.95
392.588
393.315
393.752
394.044
394.235
394.369
394.476
394.578
394.689
394.823
394.993
395.216
395.503
395.869
396.329
396.894
397.571
398.36
399.263
400.302
401.623
403.893
408.838
335.104
357.347
367.371
374.776
380.889
385.346
390.574
394.113
393.837
393.272
393.554
394.022
394.363
394.602
394.778
394.91
395.013
395.101
395.187
395.281
395.396
395.543
395.734
395.979
396.289
396.675
397.145
397.706
398.364
399.121
399.983
400.977
402.253
404.448
409.097
341.161
363.659
375.675
386.262
392.661
393.454
393.773
394.984
395.17
395.191
395.3
395.416
395.513
395.591
395.653
395.706
395.756
395.808
395.871
395.954
396.064
396.213
396.41
396.666
396.988
397.383
397.857
398.412
399.053
399.783
400.61
401.562
402.79
404.91
409.343
342.898
364.295
376.84
388.586
394.394
395.311
395.384
396.041
396.328
396.371
396.393
396.413
396.43
396.444
396.456
396.467
396.482
396.507
396.547
396.61
396.705
396.843
397.035
397.29
397.616
398.018
398.499
399.058
399.697
400.419
401.231
402.162
403.367
405.45
409.675
344.581
366.313
380.233
393.137
396.435
396.621
396.72
397.007
397.172
397.209
397.219
397.221
397.219
397.215
397.209
397.203
397.201
397.207
397.228
397.271
397.347
397.467
397.643
397.888
398.211
398.618
399.109
399.684
400.337
401.068
401.884
402.81
404.005
406.051
410.014
346.586
369.301
384.264
398.444
400.018
398.92
398.319
398.097
398.028
397.995
397.975
397.962
397.951
397.941
397.933
397.925
397.921
397.923
397.936
397.969
398.031
398.135
398.297
398.528
398.842
399.245
399.74
400.322
400.984
401.72
402.534
403.449
404.628
406.627
410.293
342.019
364.443
378.788
394.064
400.242
400.521
399.781
399.226
398.942
398.801
398.725
398.68
398.652
398.635
398.626
398.624
398.628
398.639
398.659
398.694
398.752
398.846
398.99
399.2
399.489
399.868
400.338
400.898
401.538
402.251
403.035
403.914
405.047
406.966
410.428
336.376
357.811
369.735
382.736
395.649
400.853
401.327
400.619
400.027
399.69
399.506
399.399
399.334
399.297
399.279
399.278
399.292
399.32
399.363
399.419
399.495
399.596
399.735
399.927
400.185
400.521
400.941
401.445
402.028
402.684
403.413
404.24
405.323
407.189
410.568
334.034
355.142
364.441
372.859
385.442
396.757
401.601
402.107
401.38
400.748
400.371
400.153
400.021
399.941
399.897
399.884
399.899
399.939
400.004
400.091
400.2
400.329
400.483
400.671
400.906
401.202
401.568
402.01
402.53
403.126
403.803
404.588
405.64
407.487
410.823
333.64
355.334
364.132
370.585
378.462
389.392
398.543
402.521
402.823
402.03
401.371
400.977
400.741
400.595
400.506
400.464
400.463
400.503
400.583
400.702
400.856
401.039
401.244
401.469
401.719
402.006
402.345
402.748
403.225
403.783
404.433
405.208
406.269
408.141
411.274
334.191
356.053
364.849
370.96
377.197
384.567
393.337
400.354
403.464
403.531
402.646
401.943
401.527
401.277
401.124
401.038
401.008
401.034
401.115
401.254
401.45
401.697
401.983
402.291
402.614
402.954
403.324
403.741
404.222
404.784
405.441
406.23
407.313
409.161
411.797
332.618
353.958
362.417
368.409
374.677
381.315
388.253
395.486
401.315
404.144
404.217
403.258
402.48
402.03
401.768
401.614
401.539
401.536
401.604
401.748
401.974
402.282
402.664
403.096
403.553
404.016
404.488
404.981
405.515
406.111
406.786
407.576
408.632
410.31
412.218
328.375
348.488
357.03
363.194
370.028
377.708
384.67
390.742
396.61
401.659
404.546
404.888
403.926
403.033
402.514
402.226
402.07
402.012
402.043
402.165
402.387
402.718
403.157
403.691
404.286
404.906
405.525
406.141
406.765
407.412
408.1
408.858
409.813
411.188
412.416
323.837
343.216
352.484
359.028
366.202
375.059
383.429
389.552
394.103
398.32
402.28
404.899
405.426
404.532
403.553
402.97
402.665
402.519
402.487
402.558
402.737
403.034
403.459
404.01
404.663
405.375
406.103
406.819
407.516
408.199
408.877
409.576
410.397
411.484
412.367
322.025
343.105
353.768
361.148
368.919
378.034
386.477
392.551
396.296
398.875
401.323
403.834
405.584
405.843
404.972
403.994
403.383
403.068
402.933
402.931
403.046
403.281
403.642
404.134
404.745
405.444
406.185
406.926
407.644
408.329
408.985
409.633
410.364
411.313
412.197
325.919
349.924
361.435
369.945
379.352
388.708
395.349
399.257
401.378
402.585
403.515
404.561
405.71
406.37
406.093
405.181
404.315
403.782
403.509
403.406
403.433
403.577
403.838
404.217
404.71
405.299
405.951
406.628
407.299
407.948
408.57
409.182
409.874
410.824
411.963
334.406
358.499
369.776
379.106
389.445
398.271
403.236
405.258
406.027
406.341
406.495
406.627
406.838
407.038
406.89
406.225
405.311
404.56
404.113
403.902
403.852
403.926
404.109
404.394
404.777
405.245
405.781
406.357
406.952
407.547
408.136
408.734
409.434
410.46
411.844
339.345
362.087
372.324
380.668
389.365
397.595
403.789
407.102
408.417
408.789
408.761
408.555
408.277
407.998
407.669
407.131
406.353
405.531
404.9
404.526
404.359
404.343
404.444
404.646
404.937
405.307
405.744
406.232
406.754
407.299
407.859
408.445
409.151
410.226
411.778
337.634
360.198
369.303
375.643
381.996
389.379
397.48
404.076
407.892
409.553
410.041
409.959
409.59
409.088
408.542
407.942
407.237
406.453
405.737
405.225
404.939
404.836
404.869
405.009
405.238
405.544
405.916
406.344
406.816
407.324
407.863
408.443
409.157
410.258
411.84
335.612
358.362
367.872
374.203
379.739
385.177
391.43
398.463
404.462
408.177
409.886
410.383
410.264
409.852
409.315
408.722
408.074
407.363
406.645
406.037
405.621
405.404
405.35
405.423
405.598
405.856
406.185
406.575
407.016
407.502
408.025
408.597
409.303
410.392
411.927
337.766
361.123
371.472
378.62
384.428
388.856
392.451
396.299
400.992
405.498
408.544
409.949
410.251
410.014
409.57
409.059
408.514
407.931
407.324
406.756
406.309
406.028
405.91
405.928
406.058
406.281
406.58
406.945
407.366
407.834
408.344
408.906
409.599
410.658
412.071
341.986
365.88
376.691
384.377
390.36
394.285
396.573
398.094
399.769
402.369
405.573
408.204
409.591
409.924
409.707
409.288
408.806
408.302
407.789
407.3
406.887
406.598
406.452
406.437
406.535
406.728
407.003
407.346
407.749
408.201
408.696
409.24
409.913
410.931
412.222
347.302
371.877
383.219
391.516
397.629
401.147
402.677
403.119
403.125
403.135
403.705
405.307
407.405
408.976
409.574
409.487
409.123