/*--------------------------------*- C++ -*----------------------------------*\
| =========                 |                                                 |
| \\      /  F ield         | OpenFOAM: The Open Source CFD Toolbox           |
|  \\    /   O peration     | Version:  v2006                                 |
|   \\  /    A nd           | Website:  www.openfoam.com                      |
|    \\/     M anipulation  |                                                 |
\*---------------------------------------------------------------------------*/
FoamFile
{
    version     2.0;
    format      ascii;
    class       volScalarField;
    location    "16";
    object      nut;
}
// * * * * * * * * * * * * * * * * * * * * * * * * * * * * * * * * * * * * * //

dimensions      [0 2 -1 0 0 0 0];


internalField   nonuniform List<scalar> 
78750
(
1.39068e-06
4.1865e-06
1.48942e-05
1.24014e-05
1.31371e-05
1.30507e-05
1.319e-05
1.32715e-05
1.33638e-05
1.31397e-05
1.2797e-05
1.24862e-05
1.22172e-05
1.199e-05
1.17911e-05
1.16158e-05
1.14638e-05
1.13359e-05
1.12339e-05
1.11568e-05
1.11021e-05
1.10674e-05
1.10483e-05
1.10386e-05
1.10264e-05
1.09878e-05
1.08791e-05
1.06282e-05
1.01299e-05
9.26895e-06
7.99528e-06
6.41488e-06
4.87134e-06
3.23109e-06
7.70462e-08
1.50668e-07
6.96204e-06
1.13484e-05
1.6311e-05
2.09658e-05
2.62198e-05
3.28989e-05
4.37511e-05
5.01482e-05
4.73491e-05
3.78816e-05
3.15331e-05
2.79293e-05
2.59848e-05
2.48987e-05
2.42357e-05
2.38282e-05
2.35942e-05
2.34764e-05
2.34327e-05
2.34406e-05
2.34741e-05
2.349e-05
2.34203e-05
2.31541e-05
2.25142e-05
2.12519e-05
1.90979e-05
1.5933e-05
1.20434e-05
8.21575e-06
5.49433e-06
4.6499e-06
5.44328e-06
9.64193e-08
2.22241e-07
1.12823e-05
1.1829e-05
1.02105e-05
9.09197e-06
8.67012e-06
9.19686e-06
1.05577e-05
1.23678e-05
1.46036e-05
1.7256e-05
2.00974e-05
2.27443e-05
2.48604e-05
2.63454e-05
2.72927e-05
2.78715e-05
2.82338e-05
2.84517e-05
2.85319e-05
2.84485e-05
2.81422e-05
2.7515e-05
2.64371e-05
2.47703e-05
2.24118e-05
1.93454e-05
1.56542e-05
1.15464e-05
7.47614e-06
4.25983e-06
2.61697e-06
2.88183e-06
6.27555e-06
1.18304e-07
1.82866e-07
1.2414e-05
1.83798e-05
1.21542e-05
1.02544e-05
1.01872e-05
1.08011e-05
1.12537e-05
1.14666e-05
1.19863e-05
1.32372e-05
1.5322e-05
1.81954e-05
2.17416e-05
2.57524e-05
2.98425e-05
3.34238e-05
3.59546e-05
3.72387e-05
3.7392e-05
3.66176e-05
3.50578e-05
3.27953e-05
2.98893e-05
2.64244e-05
2.25749e-05
1.85245e-05
1.43584e-05
1.01485e-05
6.26098e-06
3.41065e-06
2.0475e-06
2.45012e-06
4.91027e-06
9.8411e-08
1.64242e-07
6.98704e-06
2.02263e-05
1.08953e-05
7.8472e-06
6.78496e-06
6.26378e-06
5.94789e-06
6.13299e-06
7.06598e-06
8.8452e-06
1.14779e-05
1.4903e-05
1.90227e-05
2.36794e-05
2.85404e-05
3.30093e-05
3.62974e-05
3.7813e-05
3.7492e-05
3.56493e-05
3.27162e-05
2.9093e-05
2.51597e-05
2.12778e-05
1.77116e-05
1.45218e-05
1.15635e-05
8.6174e-06
5.70264e-06
3.30718e-06
1.97217e-06
2.14717e-06
3.45729e-06
8.28092e-08
1.27698e-07
5.00718e-06
2.45487e-05
1.43573e-05
8.90147e-06
6.5572e-06
5.06473e-06
4.13809e-06
4.19187e-06
5.34985e-06
7.56379e-06
1.07598e-05
1.47974e-05
1.94938e-05
2.46244e-05
2.98203e-05
3.44518e-05
3.77351e-05
3.9101e-05
3.84597e-05
3.61222e-05
3.25768e-05
2.83376e-05
2.39188e-05
1.98107e-05
1.63608e-05
1.36342e-05
1.1445e-05
9.43411e-06
7.24115e-06
4.96655e-06
3.33805e-06
3.18302e-06
6.10541e-06
8.53103e-08
9.51928e-08
4.19924e-06
1.91922e-05
1.29923e-05
6.8879e-06
3.91875e-06
2.59398e-06
2.52693e-06
3.62952e-06
5.8524e-06
9.0854e-06
1.30065e-05
1.71844e-05
2.13566e-05
2.54689e-05
2.94687e-05
3.31492e-05
3.60681e-05
3.76352e-05
3.73322e-05
3.49461e-05
3.07163e-05
2.53645e-05
1.99338e-05
1.53471e-05
1.19878e-05
9.72819e-06
8.19411e-06
6.95019e-06
5.65921e-06
4.38238e-06
3.60303e-06
4.35607e-06
5.84214e-06
1.04613e-07
8.77471e-08
3.52228e-06
1.41817e-05
7.95519e-06
3.38209e-06
1.99373e-06
2.17284e-06
3.60089e-06
6.14587e-06
9.35134e-06
1.24642e-05
1.51575e-05
1.77108e-05
2.04772e-05
2.35865e-05
2.6955e-05
3.03727e-05
3.36047e-05
3.62691e-05
3.7633e-05
3.65871e-05
3.21392e-05
2.4855e-05
1.74885e-05
1.21343e-05
8.91971e-06
7.22398e-06
6.37155e-06
5.71292e-06
4.84707e-06
3.97425e-06
3.71232e-06
6.02162e-06
4.26414e-06
1.05449e-07
9.63882e-08
3.08218e-06
9.0008e-06
3.24483e-06
1.88853e-06
2.30427e-06
4.04695e-06
6.85299e-06
9.75025e-06
1.18629e-05
1.34916e-05
1.53174e-05
1.76636e-05
2.05062e-05
2.36329e-05
2.67882e-05
2.98447e-05
3.27645e-05
3.53173e-05
3.66592e-05
3.49026e-05
2.8156e-05
1.8726e-05
1.13018e-05
6.85835e-06
4.50141e-06
3.5089e-06
3.39797e-06
3.61115e-06
3.74303e-06
3.94691e-06
5.24794e-06
1.31546e-05
2.76129e-06
7.2275e-08
1.16922e-07
2.77205e-06
6.19943e-06
2.58515e-06
2.57097e-06
4.10419e-06
6.69912e-06
9.12458e-06
1.04729e-05
1.12849e-05
1.23275e-05
1.4003e-05
1.64979e-05
1.98079e-05
2.3665e-05
2.76231e-05
3.12475e-05
3.42502e-05
3.63126e-05
3.6839e-05
3.47351e-05
2.89005e-05
2.04657e-05
1.28074e-05
7.58163e-06
4.45371e-06
2.78093e-06
2.16427e-06
2.37399e-06
3.0804e-06
3.98932e-06
5.895e-06
9.49461e-06
2.34635e-06
3.80713e-08
1.3663e-07
2.82783e-06
5.60231e-06
2.86364e-06
3.40907e-06
5.3078e-06
7.76084e-06
9.56669e-06
1.0344e-05
1.06405e-05
1.11362e-05
1.23818e-05
1.48116e-05
1.8669e-05
2.36938e-05
2.89313e-05
3.32335e-05
3.60041e-05
3.71749e-05
3.69349e-05
3.54984e-05
3.28181e-05
2.83423e-05
2.16342e-05
1.42115e-05
8.41899e-06
4.74285e-06
2.61677e-06
1.53515e-06
1.29192e-06
1.96808e-06
4.12823e-06
9.5049e-06
2.64033e-06
2.9155e-08
1.34133e-07
2.55146e-06
9.30624e-06
3.77449e-06
4.06952e-06
5.80202e-06
7.92173e-06
9.29407e-06
9.42122e-06
8.85803e-06
8.50681e-06
9.01397e-06
1.08474e-05
1.44704e-05
2.01029e-05
2.68724e-05
3.2665e-05
3.59767e-05
3.67269e-05
3.55289e-05
3.31868e-05
3.04841e-05
2.79596e-05
2.56325e-05
2.26816e-05
1.78761e-05
1.18565e-05
6.90951e-06
3.77697e-06
2.00307e-06
1.15823e-06
1.17189e-06
2.76735e-06
2.14517e-06
3.48981e-08
1.05498e-07
2.22376e-06
1.40673e-05
5.36147e-06
4.36567e-06
5.22043e-06
6.65981e-06
7.91303e-06
8.26712e-06
7.68517e-06
7.01164e-06
7.12392e-06
8.56424e-06
1.18294e-05
1.73933e-05
2.47373e-05
3.13761e-05
3.52202e-05
3.64069e-05
3.58114e-05
3.4021e-05
3.12779e-05
2.77348e-05
2.3805e-05
2.0207e-05
1.74126e-05
1.5019e-05
1.18741e-05
7.88668e-06
4.5698e-06
2.54586e-06
1.58903e-06
1.61547e-06
2.54261e-06
4.55105e-08
6.62478e-08
1.79809e-06
7.48049e-06
8.64988e-06
5.51024e-06
5.19914e-06
5.64244e-06
6.06333e-06
5.91567e-06
5.29066e-06
4.98192e-06
5.64421e-06
7.67629e-06
1.15153e-05
1.74679e-05
2.47484e-05
3.10584e-05
3.48069e-05
3.62025e-05
3.60137e-05
3.48413e-05
3.30343e-05
3.07006e-05
2.77198e-05
2.39214e-05
1.95127e-05
1.5255e-05
1.17411e-05
8.8093e-06
6.0833e-06
3.83859e-06
2.50842e-06
2.28902e-06
5.06647e-06
5.65456e-08
4.28248e-08
1.61042e-06
5.67143e-06
1.02118e-05
6.30648e-06
5.10652e-06
4.75755e-06
4.27688e-06
3.61441e-06
3.41377e-06
4.10654e-06
5.99025e-06
9.45111e-06
1.47516e-05
2.12371e-05
2.72568e-05
3.17279e-05
3.46509e-05
3.6236e-05
3.65585e-05
3.56154e-05
3.34061e-05
3.00369e-05
2.58761e-05
2.1604e-05
1.78307e-05
1.47268e-05
1.20147e-05
9.34574e-06
6.70876e-06
4.50552e-06
3.17317e-06
3.12981e-06
8.96325e-06
6.40764e-08
3.86136e-08
1.77904e-06
6.92711e-06
1.11061e-05
6.54196e-06
4.46302e-06
3.23107e-06
2.61036e-06
2.83328e-06
4.0383e-06
6.5015e-06
1.05597e-05
1.59011e-05
2.10564e-05
2.50122e-05
2.81787e-05
3.11148e-05
3.38115e-05
3.59156e-05
3.70324e-05
3.68777e-05
3.52788e-05
3.21492e-05
2.76209e-05
2.23634e-05
1.74044e-05
1.34533e-05
1.05548e-05
8.31416e-06
6.31463e-06
4.57801e-06
3.5468e-06
3.99122e-06
1.24898e-05
6.64527e-08
4.74303e-08
2.08252e-06
8.62791e-06
9.22085e-06
4.3154e-06
2.61289e-06
2.32054e-06
3.04909e-06
4.89639e-06
8.09327e-06
1.23489e-05
1.62214e-05
1.88561e-05
2.10982e-05
2.38403e-05
2.71601e-05
3.05777e-05
3.35335e-05
3.56469e-05
3.66428e-05
3.62188e-05
3.40262e-05
2.98759e-05
2.42811e-05
1.86054e-05
1.40248e-05
1.08092e-05
8.63363e-06
7.02135e-06
5.61584e-06
4.42452e-06
3.89205e-06
5.07296e-06
8.9042e-06
5.95268e-08
6.02558e-08
2.25438e-06
1.02392e-05
4.85289e-06
2.75444e-06
2.55894e-06
3.52165e-06
5.72338e-06
9.00039e-06
1.22076e-05
1.44028e-05
1.63022e-05
1.87965e-05
2.20044e-05
2.54937e-05
2.87787e-05
3.16278e-05
3.39716e-05
3.56956e-05
3.654e-05
3.60974e-05
3.38721e-05
2.95468e-05
2.36438e-05
1.76631e-05
1.28822e-05
9.60009e-06
7.51153e-06
6.15345e-06
5.13149e-06
4.35356e-06
4.20974e-06
6.0553e-06
6.62428e-06
5.04226e-08
7.12572e-08
2.36154e-06
1.01611e-05
3.71609e-06
2.79979e-06
3.36895e-06
5.04975e-06
7.52361e-06
9.97686e-06
1.2057e-05
1.41493e-05
1.65568e-05
1.92979e-05
2.23038e-05
2.54965e-05
2.87058e-05
3.16398e-05
3.39839e-05
3.54763e-05
3.58708e-05
3.4887e-05
3.22273e-05
2.7795e-05
2.21516e-05
1.64926e-05
1.18501e-05
8.56465e-06
6.47907e-06
5.26297e-06
4.57884e-06
4.24437e-06
4.49356e-06
6.93953e-06
5.25021e-06
4.3995e-08
7.43797e-08
2.50024e-06
1.01249e-05
3.69313e-06
3.15844e-06
4.00663e-06
5.82523e-06
8.16669e-06
1.04079e-05
1.22972e-05
1.40772e-05
1.61802e-05
1.89213e-05
2.23105e-05
2.60031e-05
2.94895e-05
3.23679e-05
3.44181e-05
3.55306e-05
3.55952e-05
3.44714e-05
3.20202e-05
2.82083e-05
2.32966e-05
1.79352e-05
1.30058e-05
9.16131e-06
6.5508e-06
4.97984e-06
4.16823e-06
3.92527e-06
4.34734e-06
6.90124e-06
4.73217e-06
4.27179e-08
6.89952e-08
2.46947e-06
1.28401e-05
4.37126e-06
3.58833e-06
4.29633e-06
5.76942e-06
7.53786e-06
9.13323e-06
1.05697e-05
1.22355e-05
1.45041e-05
1.75368e-05
2.1226e-05
2.51947e-05
2.89282e-05
3.19708e-05
3.40297e-05
3.49787e-05
3.47731e-05
3.33977e-05
3.08796e-05
2.73586e-05
2.31284e-05
1.85646e-05
1.4082e-05
1.01429e-05
7.12014e-06
5.11092e-06
3.98341e-06
3.58623e-06
3.96e-06
6.37503e-06
4.41293e-06
4.61182e-08
5.65336e-08
2.42933e-06
1.44776e-05
5.43142e-06
4.01542e-06
4.35763e-06
5.41225e-06
6.79427e-06
8.19096e-06
9.64527e-06
1.14693e-05
1.39717e-05
1.72822e-05
2.12508e-05
2.54248e-05
2.92272e-05
3.22075e-05
3.41335e-05
3.49299e-05
3.46091e-05
3.32087e-05
3.07921e-05
2.75071e-05
2.36094e-05
1.94231e-05
1.52481e-05
1.13598e-05
8.06862e-06
5.63211e-06
4.10247e-06
3.40548e-06
3.57614e-06
5.75303e-06
4.18131e-06
5.31587e-08
4.3246e-08
2.32545e-06
1.25803e-05
7.06909e-06
4.74655e-06
4.56858e-06
5.08246e-06
5.89245e-06
6.86979e-06
8.16342e-06
1.00526e-05
1.2745e-05
1.62446e-05
2.02823e-05
2.44056e-05
2.81794e-05
3.12669e-05
3.34024e-05
3.44012e-05
3.419e-05
3.27948e-05
3.03271e-05
2.70043e-05
2.31773e-05
1.92331e-05
1.54433e-05
1.19263e-05
8.78604e-06
6.22407e-06
4.42669e-06
3.45547e-06
3.38849e-06
5.25876e-06
4.17551e-06
6.27248e-08
3.42837e-08
2.45271e-06
1.26912e-05
7.93412e-06
5.17221e-06
4.66675e-06
4.9018e-06
5.5585e-06
6.63607e-06
8.31981e-06
1.08017e-05
1.4087e-05
1.78671e-05
2.16552e-05
2.51497e-05
2.83157e-05
3.11097e-05
3.329e-05
3.45104e-05
3.45117e-05
3.32018e-05
3.06506e-05
2.71149e-05
2.30495e-05
1.89533e-05
1.51545e-05
1.17618e-05
8.80451e-06
6.3656e-06
4.57535e-06
3.5476e-06
3.41461e-06
5.38278e-06
3.88591e-06
7.33073e-08
3.13059e-08
2.6602e-06
1.36238e-05
8.58707e-06
5.58314e-06
4.86782e-06
4.97762e-06
5.70158e-06
7.07813e-06
9.20678e-06
1.20427e-05
1.52532e-05
1.83697e-05
2.11765e-05
2.38284e-05
2.65742e-05
2.94373e-05
3.20767e-05
3.39161e-05
3.44349e-05
3.33551e-05
3.06916e-05
2.68155e-05
2.24156e-05
1.81686e-05
1.44183e-05
1.12039e-05
8.47511e-06
6.23535e-06
4.56449e-06
3.58891e-06
3.48125e-06
5.74564e-06
3.59978e-06
8.21828e-08
3.23403e-08
2.95776e-06
1.39014e-05
8.01615e-06
5.41529e-06
4.89478e-06
5.3112e-06
6.54727e-06
8.6097e-06
1.14199e-05
1.45743e-05
1.74648e-05
1.97863e-05
2.1735e-05
2.37252e-05
2.6072e-05
2.87993e-05
3.15462e-05
3.36552e-05
3.44463e-05
3.34577e-05
3.05999e-05
2.63315e-05
2.15469e-05
1.70318e-05
1.31381e-05
9.93654e-06
7.40951e-06
5.51097e-06
4.20978e-06
3.54979e-06
3.74109e-06
7.16168e-06
3.09158e-06
8.42132e-08
3.58951e-08
3.11183e-06
1.45907e-05
7.73073e-06
5.52455e-06
5.36895e-06
6.26508e-06
8.07096e-06
1.05798e-05
1.33025e-05
1.56177e-05
1.72702e-05
1.84917e-05
1.97109e-05
2.13249e-05
2.36004e-05
2.65612e-05
2.98351e-05
3.26378e-05
3.4045e-05
3.3357e-05
3.04391e-05
2.59921e-05
2.11314e-05
1.65775e-05
1.25759e-05
9.24634e-06
6.67953e-06
4.87881e-06
3.78948e-06
3.37867e-06
3.89913e-06
8.50893e-06
2.7139e-06
7.93613e-08
4.15514e-08
3.27993e-06
1.57831e-05
7.55534e-06
5.80621e-06
6.08708e-06
7.43589e-06
9.59864e-06
1.21591e-05
1.45228e-05
1.62518e-05
1.73307e-05
1.80774e-05
1.89235e-05
2.02753e-05
2.24294e-05
2.54425e-05
2.89348e-05
3.20237e-05
3.36012e-05
3.28162e-05
2.96708e-05
2.52465e-05
2.0685e-05
1.63769e-05
1.23988e-05
8.96431e-06
6.30662e-06
4.49598e-06
3.48887e-06
3.22184e-06
3.96944e-06
8.73215e-06
2.47862e-06
7.01709e-08
4.87734e-08
3.22934e-06
1.70449e-05
8.43434e-06
6.72252e-06
7.27981e-06
8.91033e-06
1.11423e-05
1.33543e-05
1.49242e-05
1.56475e-05
1.57805e-05
1.57833e-05
1.6113e-05
1.71614e-05
1.92524e-05
2.25382e-05
2.6685e-05
3.05932e-05
3.27026e-05
3.1908e-05
2.86808e-05
2.4772e-05
2.11521e-05
1.75723e-05
1.37231e-05
9.94777e-06
6.83102e-06
4.64671e-06
3.38052e-06
2.97275e-06
3.58224e-06
7.31919e-06
2.40546e-06
6.13365e-08
5.62578e-08
3.09438e-06
1.83841e-05
1.03612e-05
8.14951e-06
8.6356e-06
1.01752e-05
1.20791e-05
1.37489e-05
1.47275e-05
1.49196e-05
1.45916e-05
1.41819e-05
1.41345e-05
1.48681e-05
1.67968e-05
2.02366e-05
2.49252e-05
2.93795e-05
3.13181e-05
2.95286e-05
2.57138e-05
2.24664e-05
2.03686e-05
1.85609e-05
1.60115e-05
1.25046e-05
8.851e-06
5.92171e-06
4.01333e-06
3.13041e-06
3.29628e-06
5.88316e-06
2.69033e-06
5.4785e-08
5.86294e-08
2.74225e-06
1.6498e-05
1.49204e-05
1.08684e-05
1.04496e-05
1.14244e-05
1.2834e-05
1.4017e-05
1.44445e-05
1.39632e-05
1.29069e-05
1.18374e-05
1.12515e-05
1.154e-05
1.31522e-05
1.66605e-05
2.21145e-05
2.73329e-05
2.84781e-05
2.50107e-05
2.08603e-05
1.84946e-05
1.77336e-05
1.76233e-05
1.70783e-05
1.51764e-05
1.19131e-05
8.39276e-06
5.64688e-06
4.0412e-06
3.63791e-06
5.31879e-06
3.69959e-06
5.02297e-08
4.84455e-08
2.28631e-06
1.02376e-05
1.94627e-05
1.59566e-05
1.39834e-05
1.35945e-05
1.38416e-05
1.40837e-05
1.38478e-05
1.29032e-05
1.14247e-05
9.92933e-06
8.9416e-06
8.83237e-06
1.00479e-05
1.3415e-05
1.9597e-05
2.52657e-05
2.412e-05
1.91768e-05
1.56878e-05
1.43839e-05
1.46092e-05
1.5682e-05
1.68119e-05
1.69737e-05
1.52685e-05
1.19063e-05
8.3534e-06
5.82245e-06
4.72276e-06
5.78339e-06
6.79351e-06
4.86972e-08
3.10148e-08
1.89233e-06
6.51946e-06
1.48907e-05
1.67777e-05
1.57009e-05
1.47624e-05
1.42651e-05
1.38751e-05
1.30043e-05
1.1289e-05
9.17911e-06
7.47738e-06
6.5915e-06
6.67399e-06
8.10344e-06
1.19395e-05
1.88107e-05
2.14989e-05
1.70052e-05
1.31337e-05
1.14189e-05
1.12922e-05
1.2367e-05
1.43629e-05
1.67172e-05
1.83829e-05
1.81129e-05
1.55088e-05
1.16897e-05
8.35808e-06
6.54172e-06
7.10832e-06
7.97706e-06
5.18375e-08
1.75358e-08
1.84539e-06
5.54467e-06
1.20097e-05
1.51215e-05
1.51497e-05
1.40735e-05
1.20781e-05
9.51122e-06
7.14529e-06
5.46656e-06
4.55698e-06
4.34439e-06
4.84093e-06
6.35794e-06
9.94969e-06
1.62579e-05
1.72515e-05
1.30728e-05
1.02684e-05
9.20098e-06
9.42638e-06
1.08426e-05
1.35308e-05
1.73278e-05
2.13392e-05
2.39182e-05
2.34361e-05
1.97936e-05
1.49382e-05
1.09186e-05
8.75271e-06
9.13167e-06
6.12234e-06
6.25323e-08
1.52217e-08
1.93596e-06
5.3296e-06
9.90055e-06
1.01083e-05
7.09751e-06
4.71288e-06
3.42864e-06
2.87628e-06
2.82716e-06
3.2004e-06
4.05121e-06
5.62873e-06
8.98991e-06
1.5613e-05
1.52246e-05
1.03873e-05
8.09465e-06
7.49052e-06
8.19666e-06
1.0596e-05
1.53401e-05
2.20861e-05
2.87071e-05
3.31238e-05
3.44104e-05
3.2497e-05
2.80818e-05
2.24105e-05
1.69346e-05
1.28274e-05
1.08084e-05
1.12931e-05
4.7677e-06
7.15676e-08
2.21581e-08
1.69566e-06
6.23546e-06
5.8449e-06
3.64896e-06
2.99111e-06
3.07552e-06
3.64167e-06
4.62343e-06
6.1373e-06
8.95677e-06
1.55476e-05
2.31689e-05
1.51409e-05
8.85634e-06
6.65918e-06
7.22667e-06
1.11514e-05
2.02013e-05
3.23448e-05
4.27572e-05
4.4314e-05
4.52539e-05
4.21776e-05
3.7089e-05
3.26304e-05
2.87531e-05
2.51256e-05
2.15687e-05
1.81694e-05
1.53698e-05
1.39336e-05
1.35853e-05
4.32132e-06
7.69945e-08
3.17661e-08
2.87519e-06
8.08067e-06
4.35135e-06
4.01307e-06
4.78581e-06
6.43188e-06
8.76886e-06
1.11129e-05
1.29113e-05
1.52408e-05
1.95432e-05
2.24999e-05
1.92817e-05
1.6302e-05
1.54464e-05
1.55361e-05
1.6346e-05
1.84162e-05
2.17807e-05
2.5681e-05
2.90382e-05
3.11222e-05
3.17508e-05
3.10336e-05
2.91665e-05
2.64798e-05
2.34394e-05
2.05454e-05
1.8193e-05
1.67201e-05
1.64608e-05
1.51275e-05
3.98312e-06
7.8956e-08
3.52668e-08
4.99213e-06
8.40863e-06
5.2267e-06
5.47303e-06
6.97055e-06
8.69582e-06
9.47701e-06
9.49402e-06
9.67601e-06
1.076e-05
1.35445e-05
1.82501e-05
1.95045e-05
1.38289e-05
1.00887e-05
9.2395e-06
9.91778e-06
1.15181e-05
1.40165e-05
1.75806e-05
2.1985e-05
2.58788e-05
2.7499e-05
2.69054e-05
2.55941e-05
2.45842e-05
2.39883e-05
2.3413e-05
2.26173e-05
2.19673e-05
2.16327e-05
1.64116e-05
3.98146e-06
7.89291e-08
3.7242e-08
5.61921e-06
1.1513e-05
7.3029e-06
7.61907e-06
9.64593e-06
1.21241e-05
1.34389e-05
1.28944e-05
1.14375e-05
1.02609e-05
9.94382e-06
1.07633e-05
1.30572e-05
1.68438e-05
1.88914e-05
1.46246e-05
1.03609e-05
8.28105e-06
7.42236e-06
7.36923e-06
8.03649e-06
9.52055e-06
1.23048e-05
1.71032e-05
2.29987e-05
2.46913e-05
2.11902e-05
1.78357e-05
1.66638e-05
1.75432e-05
1.93927e-05
1.48578e-05
3.57109e-06
6.97356e-08
3.74657e-08
4.48354e-06
1.76411e-05
1.03944e-05
9.61658e-06
1.1495e-05
1.51648e-05
1.99777e-05
2.38541e-05
2.39744e-05
2.01787e-05
1.52298e-05
1.16785e-05
1.00288e-05
9.76119e-06
1.03703e-05
1.18583e-05
1.46331e-05
1.63126e-05
1.14276e-05
7.00721e-06
4.90751e-06
3.86941e-06
3.45412e-06
3.64601e-06
4.62396e-06
6.97257e-06
1.2172e-05
2.05571e-05
2.44465e-05
2.30429e-05
2.10827e-05
1.46645e-05
3.6153e-06
7.00522e-08
3.56467e-08
3.87301e-06
1.7813e-05
1.29908e-05
1.09136e-05
1.15295e-05
1.34509e-05
1.63255e-05
2.05587e-05
2.72351e-05
3.5335e-05
3.53432e-05
3.5364e-05
3.55336e-05
3.27705e-05
2.33274e-05
1.46902e-05
1.08438e-05
1.02902e-05
1.20885e-05
1.64854e-05
2.14654e-05
1.54778e-05
7.45326e-06
4.00368e-06
2.54357e-06
2.02229e-06
2.35673e-06
3.98683e-06
8.36429e-06
1.65916e-05
2.10706e-05
1.59426e-05
3.95008e-06
8.45783e-08
3.87374e-08
3.60094e-06
1.84705e-05
1.67983e-05
1.3111e-05
1.26286e-05
1.36362e-05
1.52199e-05
1.6766e-05
1.77874e-05
1.8055e-05
1.7669e-05
1.69981e-05
1.64907e-05
1.65298e-05
1.76935e-05
2.11073e-05
2.7257e-05
2.90991e-05
3.01503e-05
2.8098e-05
2.59208e-05
2.60663e-05
2.92158e-05
2.71838e-05
1.1881e-05
4.63139e-06
2.23128e-06
1.62023e-06
2.25489e-06
4.94425e-06
1.21078e-05
1.31712e-05
3.35054e-06
9.73455e-08
3.83796e-08
3.14552e-06
1.61187e-05
2.24151e-05
1.79986e-05
1.57361e-05
1.55664e-05
1.63652e-05
1.74773e-05
1.84322e-05
1.87939e-05
1.82824e-05
1.69552e-05
1.52449e-05
1.36956e-05
1.27154e-05
1.26004e-05
1.37361e-05
1.68283e-05
2.2461e-05
2.78342e-05
2.68228e-05
2.1374e-05
1.76047e-05
1.67824e-05
1.68257e-05
1.27767e-05
6.26874e-06
2.84841e-06
1.67583e-06
1.7862e-06
3.61145e-06
8.70559e-06
2.21182e-06
1.06234e-07
3.22334e-08
2.67942e-06
1.19252e-05
2.08166e-05
1.96978e-05
1.54953e-05
1.38516e-05
1.38326e-05
1.43304e-05
1.41464e-05
1.2796e-05
1.10818e-05
9.89634e-06
9.52761e-06
1.01188e-05
1.20487e-05
1.60265e-05
2.13719e-05
2.35786e-05
2.22629e-05
2.09432e-05
2.10614e-05
2.28924e-05
2.58846e-05
2.82736e-05
2.81286e-05
2.49253e-05
1.84032e-05
1.0143e-05
4.87653e-06
2.84128e-06
2.72495e-06
5.89674e-06
2.75641e-06
1.03567e-07
2.84357e-08
2.83333e-06
1.2326e-05
1.99521e-05
2.01624e-05
1.75925e-05
1.45605e-05
1.06873e-05
7.62409e-06
5.90875e-06
5.25424e-06
5.41919e-06
6.35214e-06
8.19613e-06
1.12467e-05
1.54428e-05
1.91231e-05
2.05769e-05
2.0736e-05
2.10869e-05
2.22581e-05
2.419e-05
2.63583e-05
2.80354e-05
2.86481e-05
2.78094e-05
2.51145e-05
2.04122e-05
1.45301e-05
9.17616e-06
5.85462e-06
5.03547e-06
8.6842e-06
4.01634e-06
8.76667e-08
3.57296e-08
2.64714e-06
9.14295e-06
1.61363e-05
1.29489e-05
7.07151e-06
4.23761e-06
3.30182e-06
3.42024e-06
4.38609e-06
6.30634e-06
9.66315e-06
1.51929e-05
2.16641e-05
2.45553e-05
2.37363e-05
2.23185e-05
2.20559e-05
2.36693e-05
2.73875e-05
3.27736e-05
3.86475e-05
4.36188e-05
4.63189e-05
4.53093e-05
4.00992e-05
3.2215e-05
2.40164e-05
1.70534e-05
1.18986e-05
8.79603e-06
8.21065e-06
1.17129e-05
4.63248e-06
5.47798e-08
5.14762e-08
2.39819e-06
9.34743e-06
8.51664e-06
4.70354e-06
3.29145e-06
3.28504e-06
4.51896e-06
7.5817e-06
1.40157e-05
2.47991e-05
3.40101e-05
3.71518e-05
3.75644e-05
3.71623e-05
3.64622e-05
3.59471e-05
3.57726e-05
3.60392e-05
3.67853e-05
3.79729e-05
3.85767e-05
3.80259e-05
3.71867e-05
3.57419e-05
3.34128e-05
3.00516e-05
2.56416e-05
2.06376e-05
1.59343e-05
1.25562e-05
1.15211e-05
1.4378e-05
8.05301e-06
4.22442e-08
5.42596e-08
1.88258e-06
8.50247e-06
7.03125e-06
3.79996e-06
3.21487e-06
3.95539e-06
6.13271e-06
1.02857e-05
1.6297e-05
2.2433e-05
2.69389e-05
2.94053e-05
3.00608e-05
2.91912e-05
2.70763e-05
2.41498e-05
2.11186e-05
1.87417e-05
1.74679e-05
1.73717e-05
1.83273e-05
2.01521e-05
2.26166e-05
2.53686e-05
2.78419e-05
2.92218e-05
2.87376e-05
2.62425e-05
2.25277e-05
1.91301e-05
1.78454e-05
1.98917e-05
9.19943e-06
5.43506e-08
4.10298e-08
1.54474e-06
5.96471e-06
6.81129e-06
3.84314e-06
3.35841e-06
4.06372e-06
5.99092e-06
9.67182e-06
1.59308e-05
2.49708e-05
3.37514e-05
3.79006e-05
3.7343e-05
3.40306e-05
2.94525e-05
2.46735e-05
2.05412e-05
1.76542e-05
1.63181e-05
1.66067e-05
1.8425e-05
2.14636e-05
2.51699e-05
2.88154e-05
3.15557e-05
3.26345e-05
3.17079e-05
2.91048e-05
2.57469e-05
2.28954e-05
2.19258e-05
2.25889e-05
8.51935e-06
6.87395e-08
2.61818e-08
1.98499e-06
7.02567e-06
6.48158e-06
4.63489e-06
4.53656e-06
5.73818e-06
8.55301e-06
1.38115e-05
2.23968e-05
3.28744e-05
3.93265e-05
3.97286e-05
3.70218e-05
3.1656e-05
2.60927e-05
2.11081e-05
1.70547e-05
1.41367e-05
1.25166e-05
1.23306e-05
1.36445e-05
1.63424e-05
1.99794e-05
2.37388e-05
2.66727e-05
2.80454e-05
2.76366e-05
2.59005e-05
2.3759e-05
2.22985e-05
2.25867e-05
2.3321e-05
7.52113e-06
8.45061e-08
1.44916e-08
2.81833e-06
5.69751e-06
5.04569e-06
4.98461e-06
5.86978e-06
7.78745e-06
1.08558e-05
1.51188e-05
2.04283e-05
2.62408e-05
3.12998e-05
3.3872e-05
3.31433e-05
2.99587e-05
2.57832e-05
2.16114e-05
1.78087e-05
1.44798e-05
1.18266e-05
1.01744e-05
9.80623e-06
1.09797e-05
1.3895e-05
1.83303e-05
2.31759e-05
2.66637e-05
2.75654e-05
2.61552e-05
2.3919e-05
2.25524e-05
2.33165e-05
2.40122e-05
6.74842e-06
1.04348e-07
8.80536e-09
3.95012e-06
4.36361e-06
5.10791e-06
6.35405e-06
8.13401e-06
1.04368e-05
1.32129e-05
1.63897e-05
1.9776e-05
2.2919e-05
2.50561e-05
2.49376e-05
2.15624e-05
1.65842e-05
1.25254e-05
9.90232e-06
8.38948e-06
7.93786e-06
8.77953e-06
1.12743e-05
1.57638e-05
2.21384e-05
2.8906e-05
3.3113e-05
3.35285e-05
3.17663e-05
2.94082e-05
2.69881e-05
2.47768e-05
2.33272e-05
2.30663e-05
2.06185e-05
5.74011e-06
1.21554e-07
9.6047e-09
3.54253e-06
5.87765e-06
8.21152e-06
1.06071e-05
1.28826e-05
1.50332e-05
1.74171e-05
2.00545e-05
2.06601e-05
1.70015e-05
1.22735e-05
8.67773e-06
6.54453e-06
6.1598e-06
7.81957e-06
1.20356e-05
1.89678e-05
2.72102e-05
3.14246e-05
3.30418e-05
3.46069e-05
3.61678e-05
3.77353e-05
3.78448e-05
3.20572e-05
2.77159e-05
2.50844e-05
2.3569e-05
2.29504e-05
2.31922e-05
2.35391e-05
1.70629e-05
4.3874e-06
1.19148e-07
1.73265e-08
4.5201e-06
8.81935e-06
1.17527e-05
1.26279e-05
1.24237e-05
1.27783e-05
1.41404e-05
1.32398e-05
1.11741e-05
1.1351e-05
1.38996e-05
1.82998e-05
2.37137e-05
2.71252e-05
2.84523e-05
2.99117e-05
3.14656e-05
3.30374e-05
3.45798e-05
3.6061e-05
3.74585e-05
3.87604e-05
3.99456e-05
3.45682e-05
2.79461e-05
2.41093e-05
2.21322e-05
2.11835e-05
2.09194e-05
2.09598e-05
1.97173e-05
1.17302e-05
3.3466e-06
7.99711e-08
1.73509e-08
7.09934e-06
9.56216e-06
9.95466e-06
9.13152e-06
8.22223e-06
8.03909e-06
8.79062e-06
1.09544e-05
1.52957e-05
2.01542e-05
2.01222e-05
1.73138e-05
1.53351e-05
1.45256e-05
1.43985e-05
1.47e-05
1.54199e-05
1.6535e-05
1.79741e-05
1.95522e-05
2.07459e-05
2.10579e-05
2.04532e-05
1.93744e-05
1.83997e-05
1.77717e-05
1.74254e-05
1.71724e-05
1.68107e-05
1.60132e-05
1.37744e-05
8.18654e-06
2.73993e-06
5.01624e-08
4.33739e-08
9.58795e-06
1.33371e-05
1.35791e-05
1.29373e-05
1.1608e-05
1.02088e-05
9.51221e-06
9.75975e-06
1.06725e-05
1.16558e-05
1.23102e-05
1.2863e-05
1.36371e-05
1.44773e-05
1.4674e-05
1.37336e-05
1.21589e-05
1.06351e-05
9.43707e-06
8.61949e-06
8.10534e-06
7.7872e-06
7.58042e-06
7.39948e-06
7.20563e-06
7.02342e-06
6.92099e-06
6.98217e-06
7.26958e-06
7.79113e-06
8.11647e-06
5.84909e-06
1.9824e-06
3.86647e-08
5.57079e-08
7.46842e-06
2.49922e-05
2.78949e-05
2.72326e-05
2.62684e-05
2.45773e-05
2.20971e-05
1.95532e-05
1.76354e-05
1.6408e-05
1.55697e-05
1.49318e-05
1.45735e-05
1.4747e-05
1.57924e-05
1.80654e-05
2.14532e-05
2.42452e-05
2.37108e-05
2.04391e-05
1.69635e-05
1.42536e-05
1.22286e-05
1.06284e-05
9.28381e-06
8.1171e-06
7.09689e-06
6.23312e-06
5.57114e-06
5.19295e-06
5.33734e-06
6.41933e-06
2.89659e-06
2.78864e-08
4.59203e-08
5.23923e-06
2.33668e-05
3.13048e-05
3.34054e-05
3.08555e-05
2.91711e-05
2.91621e-05
3.11788e-05
3.44628e-05
3.34659e-05
3.21973e-05
3.06309e-05
2.87769e-05
2.61928e-05
2.2674e-05
2.09306e-05
2.14063e-05
2.13314e-05
2.20185e-05
2.299e-05
2.07274e-05
1.91776e-05
1.86234e-05
1.87217e-05
1.89982e-05
1.89667e-05
1.81616e-05
1.63963e-05
1.39027e-05
1.12961e-05
9.30673e-06
8.88193e-06
1.28625e-05
2.6398e-08
2.92165e-08
3.43755e-06
1.27538e-05
2.40162e-05
2.6797e-05
2.80381e-05
3.0121e-05
3.23443e-05
3.24789e-05
3.20182e-05
3.09791e-05
2.61713e-05
2.0335e-05
1.54225e-05
1.21572e-05
1.04033e-05
9.97903e-06
1.08666e-05
1.29992e-05
1.56232e-05
1.73589e-05
1.79958e-05
1.83893e-05
1.90332e-05
1.99602e-05
2.10256e-05
2.19713e-05
2.23707e-05
2.16918e-05
1.97181e-05
1.70434e-05
1.47253e-05
1.34148e-05
9.88832e-06
3.47967e-08
2.51689e-08
2.75052e-06
8.23425e-06
1.47785e-05
1.79202e-05
1.88301e-05
1.86531e-05
1.77025e-05
1.59334e-05
1.35743e-05
1.13082e-05
9.61771e-06
8.61478e-06
8.31617e-06
8.78439e-06
1.02419e-05
1.29625e-05
1.61479e-05
1.74319e-05
1.6843e-05
1.63538e-05
1.70115e-05
1.9134e-05
2.2655e-05
2.6958e-05
3.0918e-05
3.34076e-05
3.35427e-05
3.08625e-05
2.60977e-05
2.11161e-05
1.75043e-05
1.53823e-05
8.96712e-06
3.63289e-08
3.07752e-08
2.32426e-06
7.28765e-06
1.34596e-05
1.46336e-05
1.26986e-05
1.00642e-05
8.1859e-06
7.15194e-06
6.75752e-06
6.94577e-06
7.92874e-06
1.04867e-05
1.61507e-05
2.25468e-05
2.39582e-05
2.24571e-05
1.96581e-05
1.96325e-05
2.17557e-05
2.52382e-05
2.94545e-05
3.41534e-05
3.87624e-05
3.99073e-05
4.08238e-05
4.13895e-05
3.97592e-05
3.38453e-05
2.76233e-05
2.26913e-05
1.96977e-05
1.82815e-05
9.47837e-06
3.90188e-08
3.09191e-08
2.17479e-06
9.09942e-06
1.32366e-05
7.93007e-06
5.93346e-06
5.40737e-06
5.66368e-06
6.74808e-06
9.36264e-06
1.52522e-05
2.20366e-05
2.26686e-05
2.35718e-05
2.47027e-05
2.59914e-05
2.73869e-05
2.88349e-05
3.02912e-05
3.17346e-05
3.31628e-05
3.45825e-05
3.59942e-05
3.73805e-05
3.8694e-05
3.98504e-05
4.0469e-05
3.766e-05
3.37431e-05
2.95371e-05
2.60273e-05
2.42544e-05
2.37232e-05
9.7428e-06
4.79209e-08
2.73385e-08
3.08752e-06
1.28124e-05
6.56873e-06
5.28974e-06
5.59608e-06
6.92674e-06
9.52818e-06
1.40155e-05
2.07332e-05
2.45056e-05
2.47831e-05
2.48971e-05
2.49067e-05
2.26689e-05
1.97311e-05
1.89667e-05
2.01555e-05
2.29394e-05
2.67718e-05
3.07936e-05
3.26764e-05
3.43916e-05
3.61127e-05
3.77791e-05
3.93042e-05
4.05755e-05
3.88202e-05
3.55465e-05
3.17714e-05
2.8577e-05
2.69398e-05
2.54303e-05
8.5694e-06
6.09926e-08
2.32025e-08
5.39354e-06
9.84051e-06
6.90282e-06
7.2148e-06
8.93121e-06
1.14365e-05
1.41077e-05
1.68383e-05
2.04079e-05
2.49454e-05
2.48153e-05
2.39494e-05
1.88758e-05
1.39948e-05
1.17247e-05
1.15509e-05
1.33158e-05
1.72534e-05
2.33037e-05
2.99579e-05
3.20353e-05
3.41075e-05
3.61147e-05
3.79924e-05
3.96654e-05
4.10272e-05
4.08008e-05
3.65288e-05
3.29203e-05
3.0955e-05
3.05873e-05
2.69555e-05
6.73787e-06
7.39125e-08
1.8881e-08
4.74397e-06
1.03705e-05
8.8864e-06
8.97523e-06
9.80599e-06
1.05938e-05
1.11345e-05
1.20426e-05
1.4868e-05
2.14917e-05
2.13192e-05
2.04304e-05
1.27142e-05
9.12247e-06
8.2457e-06
9.06223e-06
1.17752e-05
1.72402e-05
2.55238e-05
3.05476e-05
3.26788e-05
3.47726e-05
3.67546e-05
3.85409e-05
4.00335e-05
4.11138e-05
4.16499e-05
3.71895e-05
3.37853e-05
3.2492e-05
3.2693e-05
2.61483e-05
5.7374e-06
7.55569e-08
1.45276e-08
4.674e-06
9.3316e-06
8.28469e-06
7.77142e-06
7.57449e-06
7.48002e-06
7.7329e-06
9.10563e-06
1.34944e-05
1.8292e-05
1.80043e-05
1.10897e-05
8.32647e-06
8.18046e-06
9.95123e-06
1.40171e-05
2.08383e-05
2.92165e-05
3.13762e-05
3.3298e-05
3.52381e-05
3.71883e-05
3.91065e-05
4.09125e-05
4.24904e-05
4.36905e-05
4.43482e-05
4.22105e-05
3.82571e-05
3.54165e-05
3.27294e-05
2.25767e-05
5.38628e-06
8.1118e-08
1.64399e-08
7.59602e-06
7.71111e-06
5.98616e-06
5.3012e-06
5.19169e-06
5.98536e-06
9.11577e-06
1.62703e-05
1.82769e-05
1.80642e-05
1.6877e-05
1.68933e-05
1.82701e-05
2.1332e-05
2.66691e-05
2.97538e-05
3.17272e-05
3.35949e-05
3.53081e-05
3.6838e-05
3.81822e-05
3.93623e-05
4.0398e-05
3.8872e-05
3.3428e-05
3.07266e-05
3.01425e-05
3.03441e-05
3.04525e-05
2.99199e-05
2.73759e-05
1.61098e-05
4.17417e-06
7.73506e-08
3.19258e-08
4.71081e-06
7.99761e-06
5.40051e-06
4.29891e-06
4.13847e-06
5.01392e-06
6.93147e-06
9.88442e-06
1.58667e-05
2.23564e-05
2.3171e-05
2.20186e-05
1.61414e-05
1.34507e-05
1.24896e-05
1.25143e-05
1.33478e-05
1.50435e-05
1.7914e-05
2.26993e-05
3.06225e-05
3.93226e-05
4.11839e-05
4.26589e-05
4.35801e-05
4.04856e-05
3.35652e-05
2.88815e-05
2.65136e-05
2.56578e-05
2.4433e-05
1.53292e-05
4.02091e-06
6.50945e-08
3.4966e-08
2.83559e-06
1.40252e-05
1.4967e-05
1.11924e-05
8.8348e-06
6.9584e-06
5.31165e-06
4.29704e-06
4.45368e-06
6.2479e-06
1.08259e-05
2.0219e-05
2.5059e-05
2.56498e-05
1.82364e-05
1.40042e-05
1.18941e-05
1.06775e-05
9.87218e-06
9.38793e-06
9.25486e-06
9.52396e-06
1.02617e-05
1.17083e-05
1.43766e-05
1.88708e-05
2.45322e-05
2.82837e-05
2.87802e-05
2.76752e-05
2.53256e-05
1.59746e-05
4.26381e-06
6.54395e-08
2.34393e-08
2.07218e-06
7.40635e-06
1.27413e-05
1.33807e-05
1.31895e-05
1.2532e-05
1.11915e-05
9.54011e-06
8.24441e-06
7.6336e-06
8.02029e-06
9.7868e-06
1.24783e-05
1.41294e-05
1.47548e-05
1.60441e-05
1.84208e-05
2.09269e-05
2.19401e-05
2.08059e-05
1.83191e-05
1.55439e-05
1.3067e-05
1.11029e-05
9.7239e-06
9.0111e-06
9.15229e-06
1.0565e-05
1.38962e-05
1.87664e-05
2.11556e-05
1.49463e-05
3.99621e-06
8.4735e-08
1.91227e-08