/*--------------------------------*- C++ -*----------------------------------*\
| =========                 |                                                 |
| \\      /  F ield         | OpenFOAM: The Open Source CFD Toolbox           |
|  \\    /   O peration     | Version:  v2006                                 |
|   \\  /    A nd           | Website:  www.openfoam.com                      |
|    \\/     M anipulation  |                                                 |
\*---------------------------------------------------------------------------*/
FoamFile
{
    version     2.0;
    format      ascii;
    class       surfaceScalarField;
    location    "16";
    object      phi;
}
// * * * * * * * * * * * * * * * * * * * * * * * * * * * * * * * * * * * * * //

dimensions      [1 0 -1 0 0 0 0];
oriented        oriented;


internalField   nonuniform List<scalar> 
228225
(
-2.41654e-05
1.10443e-06
1.41281e-06
-2.57176e-05
-4.30933e-07
1.98375e-06
-2.62586e-05
-1.22491e-06
1.76641e-06
-2.63019e-05
-1.60743e-06
1.65119e-06
-2.60107e-05
-1.84127e-06
1.55059e-06
-2.54298e-05
-2.07667e-06
1.49628e-06
-2.45928e-05
-2.31457e-06
1.47805e-06
-2.35655e-05
-2.51127e-06
1.48452e-06
-2.24138e-05
-2.65202e-06
1.50084e-06
-2.11689e-05
-2.7618e-06
1.51744e-06
-1.98066e-05
-2.89281e-06
1.53107e-06
-1.8264e-05
-3.08435e-06
1.54233e-06
-1.64957e-05
-3.32162e-06
1.55382e-06
-1.44968e-05
-3.56535e-06
1.56707e-06
-1.22891e-05
-3.78957e-06
1.5824e-06
-9.90666e-06
-3.98127e-06
1.59944e-06
-7.38914e-06
-4.13452e-06
1.61759e-06
-4.77883e-06
-4.24642e-06
1.63669e-06
-2.11995e-06
-4.31488e-06
1.65659e-06
5.42563e-07
-4.33895e-06
1.67704e-06
3.16278e-06
-4.31753e-06
1.69791e-06
5.69272e-06
-4.24892e-06
1.71959e-06
8.08145e-06
-4.13071e-06
1.74259e-06
1.02738e-05
-3.95956e-06
1.76786e-06
1.2209e-05
-3.7311e-06
1.79653e-06
1.38197e-05
-3.43987e-06
1.8298e-06
1.50305e-05
-3.0792e-06
1.86896e-06
1.57566e-05
-2.64089e-06
1.91548e-06
1.59004e-05
-2.11406e-06
1.97081e-06
1.53477e-05
-1.48295e-06
2.03629e-06
1.39605e-05
-7.27227e-07
2.11503e-06
1.15594e-05
1.94668e-07
2.20719e-06
7.86278e-06
1.41767e-06
2.27981e-06
3.32188e-06
2.40834e-06
2.13406e-06
2.12172e-06
1.20253e-06
-3.99987e-06
4.28696e-06
8.16732e-07
-8.83586e-06
3.77429e-06
6.30522e-07
-1.29438e-05
2.8753e-06
8.08336e-09
-1.63866e-05
2.12224e-06
-2.86532e-07
-1.90339e-05
1.26083e-06
-4.54422e-07
-2.07386e-05
1.63014e-07
-5.34505e-07
-2.18064e-05
-6.89063e-07
-5.57215e-07
-2.22497e-05
-1.53181e-06
-5.35801e-07
-2.20961e-05
-2.32412e-06
-4.81049e-07
-2.14118e-05
-3.0372e-06
-4.08375e-07
-2.0283e-05
-3.68777e-06
-3.33405e-07
-1.87964e-05
-4.30469e-06
-2.65766e-07
-1.70276e-05
-4.88341e-06
-2.06472e-07
-1.50405e-05
-5.39967e-06
-1.52293e-07
-1.28885e-05
-5.83986e-06
-1.01151e-07
-1.06162e-05
-6.20013e-06
-5.29465e-08
-8.26008e-06
-6.48148e-06
-8.61948e-09
-5.87466e-06
-6.68665e-06
5.5358e-08
-3.48848e-06
-6.81668e-06
1.16191e-07
-1.13031e-06
-6.87278e-06
1.76236e-07
1.17052e-06
-6.85523e-06
2.3745e-07
3.38354e-06
-6.76287e-06
3.01522e-07
5.47607e-06
-6.59286e-06
3.70225e-07
7.412e-06
-6.34046e-06
4.45577e-07
9.15002e-06
-5.99867e-06
5.30169e-07
1.06418e-05
-5.5578e-06
6.26822e-07
1.1829e-05
-5.00446e-06
7.38745e-07
1.26375e-05
-4.31862e-06
8.69852e-07
1.29664e-05
-3.46672e-06
1.02453e-06
1.26657e-05
-2.3881e-06
1.20656e-06
1.15043e-05
-9.82008e-07
1.41685e-06
9.17008e-06
8.77089e-07
1.6526e-06
5.76628e-06
2.93221e-06
1.8902e-06
2.12238e-06
4.17632e-06
1.87734e-06
3.20254e-06
1.04373e-06
-4.61374e-07
4.32589e-06
4.21609e-07
-2.83742e-06
5.73304e-06
4.17119e-07
-5.65571e-06
5.5118e-06
1.8181e-07
-8.26233e-06
4.71245e-06
1.66561e-08
-1.04736e-05
3.53995e-06
-6.74822e-08
-1.24022e-05
2.21428e-06
-1.2216e-07
-1.38329e-05
9.02357e-07
-1.60335e-07
-1.4824e-05
-3.61795e-07
-1.78446e-07
-1.52576e-05
-1.71095e-06
-1.7916e-07
-1.51843e-05
-2.94104e-06
-1.6907e-07
-1.46397e-05
-4.07866e-06
-1.53261e-07
-1.37074e-05
-5.10265e-06
-1.33874e-07
-1.24812e-05
-5.99693e-06
-1.12199e-07
-1.10356e-05
-6.75577e-06
-8.89857e-08
-9.43047e-06
-7.37982e-06
-6.46981e-08
-7.71702e-06
-7.87331e-06
-3.97407e-08
-5.93972e-06
-8.24325e-06
-1.49795e-08
-4.14277e-06
-8.49841e-06
1.53695e-08
-2.36354e-06
-8.64709e-06
5.17342e-08
-6.29002e-07
-8.69599e-06
8.92394e-08
1.03639e-06
-8.64956e-06
1.29515e-07
2.61003e-06
-8.5094e-06
1.73483e-07
4.06951e-06
-8.27395e-06
2.22208e-07
5.39121e-06
-7.93877e-06
2.77233e-07
6.5483e-06
-7.49584e-06
3.40726e-07
7.50941e-06
-6.93362e-06
4.15352e-07
8.23717e-06
-6.23642e-06
5.04892e-07
8.68277e-06
-5.37956e-06
6.1607e-07
8.77561e-06
-4.31557e-06
7.56817e-07
8.40248e-06
-2.94521e-06
9.31154e-07
7.37683e-06
-1.09151e-06
1.13621e-06
5.55595e-06
1.34135e-06
1.35777e-06
3.14961e-06
3.78932e-06
1.55043e-06
9.48617e-07
4.87881e-06
1.49986e-06
3.35143e-06
8.01501e-07
-3.36433e-07
4.37192e-06
2.89952e-07
-1.21991e-06
6.28498e-06
3.31107e-07
-2.03672e-06
6.15404e-06
1.74961e-07
-2.81262e-06
5.44296e-06
4.60857e-08
-3.5093e-06
4.27905e-06
-4.18728e-08
-4.10555e-06
2.91906e-06
-1.08158e-07
-4.59143e-06
1.54163e-06
-1.53109e-07
-4.89556e-06
1.19597e-07
-1.77044e-07
-5.17697e-06
-1.24416e-06
-1.85171e-07
-5.25974e-06
-2.67243e-06
-1.85626e-07
-5.09481e-06
-4.05735e-06
-1.85966e-07
-4.68913e-06
-5.31885e-06
-1.8914e-07
-4.07594e-06
-6.41553e-06
-1.94195e-07
-3.2961e-06
-7.33656e-06
-1.986e-07
-2.38967e-06
-8.08579e-06
-1.99982e-07
-1.39288e-06
-8.67236e-06
-1.97229e-07
-3.38479e-07
-9.10714e-06
-1.89994e-07
7.44242e-07
-9.40261e-06
-1.77981e-07
1.82901e-06
-9.57047e-06
-1.60838e-07
2.89158e-06
-9.61991e-06
-1.38078e-07
3.90819e-06
-9.55657e-06
-1.09016e-07
4.85446e-06
-9.38211e-06
-7.29566e-08
5.70487e-06
-9.09381e-06
-2.99553e-08
6.42642e-06
-8.68507e-06
2.53497e-08
6.97953e-06
-8.14587e-06
9.75407e-08
7.32771e-06
-7.46464e-06
1.83472e-07
7.43373e-06
-6.62988e-06
2.88104e-07
7.26241e-06
-5.62415e-06
4.16611e-07
6.77867e-06
-4.40625e-06
5.7518e-07
5.94032e-06
-2.87587e-06
7.6988e-07
4.70303e-06
-8.51553e-07
9.98318e-07
3.16549e-06
1.65202e-06
1.228e-06
1.59423e-06
3.98338e-06
1.3785e-06
3.86734e-07
4.82064e-06
1.26713e-06
3.0909e-06
6.49071e-07
2.56907e-07
3.90129e-06
2.13013e-07
-3.70058e-08
6.27438e-06
3.04259e-07
-5.15301e-07
6.40216e-06
2.30536e-07
-1.15155e-06
5.92527e-06
1.5462e-07
-1.92109e-06
4.9401e-06
1.09177e-07
-2.72298e-06
3.63674e-06
8.47899e-08
-3.4362e-06
2.17429e-06
8.10257e-08
-3.9574e-06
5.47828e-07
9.33645e-08
-4.05437e-06
-1.25552e-06
1.08688e-07
-3.77304e-06
-3.06637e-06
1.12975e-07
-3.21179e-06
-4.72042e-06
1.02215e-07
-2.47864e-06
-6.13313e-06
8.15798e-08
-1.65572e-06
-7.29536e-06
5.73943e-08
-7.95068e-07
-8.23085e-06
3.41501e-08
7.3012e-08
-8.96771e-06
1.43699e-08
9.32206e-07
-9.52896e-06
-2.0416e-09
1.77197e-06
-9.93347e-06
-1.28713e-08
2.58511e-06
-1.01958e-05
-1.93448e-08
3.36389e-06
-1.03276e-05
-2.10959e-08
4.09869e-06
-1.03362e-05
-1.79363e-08
4.77714e-06
-1.02246e-05
-9.82997e-09
5.38162e-06
-9.991e-06
5.01246e-09
5.88626e-06
-9.62847e-06
3.06314e-08
6.26348e-06
-9.12527e-06
6.35969e-08
6.47962e-06
-8.46767e-06
1.06301e-07
6.5e-06
-7.64576e-06
1.61393e-07
6.29537e-06
-6.65918e-06
2.34604e-07
5.8494e-06
-5.51179e-06
3.34357e-07
5.17016e-06
-4.19474e-06
4.68535e-07
4.30212e-06
-2.65078e-06
6.43866e-07
3.33067e-06
-7.38593e-07
8.59578e-07
2.33667e-06
1.56339e-06
1.08397e-06
1.33487e-06
3.7621e-06
1.22477e-06
4.58401e-07
4.59317e-06
1.10595e-06
2.99789e-06
5.53894e-07
4.31026e-07
3.31103e-06
1.58625e-07
6.90181e-07
5.77813e-06
2.36936e-07
7.83397e-07
6.10964e-06
1.99346e-07
7.01154e-07
5.84332e-06
1.64557e-07
4.14585e-07
5.07663e-06
1.50605e-07
8.01366e-08
3.82179e-06
1.49889e-07
-6.5566e-08
2.15247e-06
1.67849e-07
1.01164e-07
1.81024e-07
2.00296e-07
6.44685e-07
-2.02203e-06
2.23187e-07
1.39201e-06
-4.02773e-06
2.14265e-07
2.20717e-06
-5.71149e-06
1.76197e-07
3.0138e-06
-7.06428e-06
1.24863e-07
3.78491e-06
-8.13901e-06
7.29501e-08
4.51926e-06
-8.99073e-06
2.59757e-08
5.22403e-06
-9.65775e-06
-1.42462e-08
5.90691e-06
-1.01638e-05
-4.74965e-08
6.57244e-06
-1.05242e-05
-7.42653e-08
7.22121e-06
-1.0749e-05
-9.50205e-08
7.84893e-06
-1.08447e-05
-1.10032e-07
8.44635e-06
-1.08138e-05
-1.19283e-07
8.99884e-06
-1.0654e-05
-1.22488e-07
9.48495e-06
-1.03574e-05
-1.19159e-07
9.87376e-06
-9.90799e-06
-1.08721e-07
1.01225e-05
-9.28281e-06
-9.0631e-08
1.01789e-05
-8.45902e-06
-6.44475e-08
9.99271e-06
-7.42963e-06
-2.94367e-08
9.52667e-06
-6.21482e-06
2.22252e-08
8.76547e-06
-4.85122e-06
1.01172e-07
7.72474e-06
-3.366e-06
2.12596e-07
6.45332e-06
-1.7488e-06
3.7016e-07
5.12474e-06
9.26514e-09
5.81628e-07
3.66166e-06
2.19945e-06
8.28211e-07
2.2133e-06
4.19476e-06
1.01733e-06
8.67955e-07
4.98437e-06
9.56304e-07
3.3856e-06
4.8306e-07
1.15248e-07
2.99844e-06
1.96742e-07
1.7418e-07
5.40776e-06
3.11263e-07
9.64901e-08
5.85238e-06
3.35034e-07
-5.47296e-08
5.63762e-06
3.57247e-07
-1.65724e-07
4.79979e-06
3.88344e-07
1.17056e-08
3.2109e-06
4.33969e-07
6.17982e-07
1.05869e-06
4.87956e-07
1.5795e-06
-1.2943e-06
5.14223e-07
2.52924e-06
-3.45605e-06
4.84703e-07
3.32971e-06
-5.23658e-06
4.08867e-07
3.96322e-06
-6.66027e-06
3.15801e-07
4.4842e-06
-7.8126e-06
2.27905e-07
4.95274e-06
-8.76112e-06
1.54163e-07
5.41017e-06
-9.54136e-06
9.37867e-08
5.8793e-06
-1.01697e-05
4.34046e-08
6.37286e-06
-1.06557e-05
-1.10489e-09
6.89038e-06
-1.10071e-05
-3.39941e-08
7.43431e-06
-1.12286e-05
-6.37884e-08
7.9998e-06
-1.13205e-05
-8.904e-08
8.57579e-06
-1.12793e-05
-1.09833e-07
9.14405e-06
-1.10955e-05
-1.26139e-07
9.67604e-06
-1.0751e-05
-1.37756e-07
1.01261e-05
-1.02127e-05
-1.44608e-07
1.04259e-05
-9.43482e-06
-1.47147e-07
1.04965e-05
-8.38265e-06
-1.46349e-07
1.02801e-05
-7.07024e-06
-1.42371e-07
9.76631e-06
-5.56889e-06
-1.31544e-07
8.98274e-06
-3.96306e-06
-1.03986e-07
7.95321e-06
-2.29163e-06
-4.41973e-08
6.68688e-06
-5.41265e-07
5.95312e-08
5.05431e-06
1.41771e-06
2.25012e-07
3.3307e-06
3.47572e-06
4.48457e-07
1.73616e-06
5.14218e-06
6.48601e-07
4.9364e-07
5.58727e-06
6.41517e-07
3.57747e-06
3.04156e-07
-3.80153e-07
3.12583e-06
2.52017e-07
-9.70732e-07
5.57323e-06
4.25066e-07
-1.59867e-06
5.98559e-06
4.94897e-07
-2.02519e-06
5.5166e-06
5.47876e-07
-1.93488e-06
4.10534e-06
6.04673e-07
-1.26633e-06
1.89075e-06
6.52181e-07
-3.07172e-07
-5.43308e-07
6.43384e-07
5.49137e-07
-2.71012e-06
5.60025e-07
1.11549e-06
-4.45666e-06
4.34764e-07
1.45128e-06
-5.88117e-06
3.09284e-07
1.68907e-06
-7.10153e-06
2.03972e-07
1.92895e-06
-8.17326e-06
1.21266e-07
2.21476e-06
-9.10346e-06
5.70141e-08
2.5582e-06
-9.88626e-06
1.96629e-09
2.94521e-06
-1.05211e-05
-3.51131e-08
3.37461e-06
-1.10151e-05
-6.94379e-08
3.84434e-06
-1.13775e-05
-9.88104e-08
4.35194e-06
-1.16125e-05
-1.23164e-07
4.89159e-06
-1.17167e-05
-1.4292e-07
5.45158e-06
-1.16801e-05
-1.58604e-07
6.01163e-06
-1.14839e-05
-1.71083e-07
6.536e-06
-1.10935e-05
-1.81231e-07
6.95995e-06
-1.04457e-05
-1.90428e-07
7.18327e-06
-9.45601e-06
-2.01579e-07
7.10215e-06
-8.08144e-06
-2.19582e-07
6.66775e-06
-6.38751e-06
-2.47917e-07
5.92354e-06
-4.54367e-06
-2.80679e-07
4.97866e-06
-2.7187e-06
-2.99179e-07
3.92638e-06
-9.58483e-07
-2.80518e-07
2.77273e-06
8.19649e-07
-2.06798e-07
1.58408e-06
2.67003e-06
-6.30102e-08
5.58945e-07
4.38766e-06
1.14202e-07
-5.97062e-08
5.48274e-06
2.79506e-07
-2.67489e-07
5.49092e-06
3.05852e-07
3.18985e-06
1.22274e-07
-7.01834e-07
3.52786e-06
2.99073e-07
-1.8315e-06
6.14966e-06
5.53005e-07
-2.92673e-06
6.40647e-06
6.74292e-07
-3.59278e-06
5.43844e-06
7.44279e-07
-3.63019e-06
3.37448e-06
7.6847e-07
-3.37735e-06
9.30023e-07
7.08182e-07
-3.27168e-06
-1.21587e-06
5.6727e-07
-3.45963e-06
-2.92665e-06
4.04932e-07
-3.81333e-06
-4.36929e-06
2.66811e-07
-4.16291e-06
-5.69348e-06
1.62421e-07
-4.40736e-06
-6.94182e-06
8.52738e-08
-4.51862e-06
-8.08797e-06
2.65293e-08
-4.5151e-06
-9.09102e-06
-1.53712e-08
-4.43131e-06
-9.92681e-06
-4.26365e-08
-4.29251e-06
-1.05949e-05
-6.43364e-08
-4.11682e-06
-1.1111e-05
-7.91512e-08
-3.91448e-06
-1.14923e-05
-8.68921e-08
-3.69009e-06
-1.17482e-05
-8.80459e-08
-3.44457e-06
-1.18782e-05
-8.33991e-08
-3.17747e-06
-1.1873e-05
-7.35301e-08
-2.88836e-06
-1.17125e-05
-5.97946e-08
-2.57995e-06
-1.13576e-05
-4.36993e-08
-2.26439e-06
-1.07326e-05
-2.79682e-08
-1.97133e-06
-9.72728e-06
-2.11217e-08
-1.75384e-06
-8.25764e-06
-4.06949e-08
-1.6896e-06
-6.35408e-06
-9.71837e-08
-1.8476e-06
-4.20406e-06
-1.81193e-07
-2.23206e-06
-2.07378e-06
-2.59922e-07
-2.83488e-06
-5.81303e-08
-2.96662e-07
-3.25126e-06
1.51307e-06
-2.75628e-07
-3.34997e-06
2.97366e-06
-2.02909e-07
-2.98929e-06
4.11968e-06
-9.02678e-08
-2.14038e-06
4.60986e-06
2.64685e-08
-9.69932e-07
4.25994e-06
6.30853e-08
2.20897e-06
1.39834e-08
-7.15561e-07
3.95468e-06
2.87932e-07
-2.00172e-06
6.85245e-06
5.82813e-07
-3.26376e-06
6.95731e-06
7.109e-07
-4.12539e-06
5.57681e-06
7.23119e-07
-4.66122e-06
3.28314e-06
6.27219e-07
-5.22737e-06
1.04977e-06
4.46641e-07
-5.97021e-06
-7.2658e-07
2.53919e-07
-6.79851e-06
-2.19575e-06
9.78462e-08
-7.57745e-06
-3.5729e-06
-1.69634e-08
-8.25106e-06
-4.93669e-06
-8.26662e-08
-8.78489e-06
-6.28289e-06
-1.24584e-07
-9.1645e-06
-7.5602e-06
-1.47626e-07
-9.39542e-06
-8.70072e-06
-1.58846e-07
-9.50888e-06
-9.65076e-06
-1.62046e-07
-9.54986e-06
-1.03955e-05
-1.57962e-07
-9.56042e-06
-1.09536e-05
-1.46279e-07
-9.57011e-06
-1.13553e-05
-1.26782e-07
-9.59443e-06
-1.16237e-05
-9.95617e-08
-9.6355e-06
-1.17717e-05
-6.48855e-08
-9.68242e-06
-1.18024e-05
-2.31042e-08
-9.71021e-06
-1.17097e-05
2.54767e-08
-9.67459e-06
-1.14729e-05
8.03213e-08
-9.50118e-06
-1.10458e-05
1.40393e-07
-9.08584e-06
-1.03428e-05
2.00802e-07
-8.34732e-06
-9.24375e-06
2.48247e-07
-7.31731e-06
-7.6448e-06
2.61459e-07
-6.17907e-06
-5.56485e-06
2.23482e-07
-5.1789e-06
-3.21476e-06
1.42011e-07
-4.37431e-06
-9.14199e-07
5.30095e-08
-3.8585e-06
1.00995e-06
-1.07844e-08
-3.27882e-06
2.43956e-06
-4.33309e-08
-2.43901e-06
3.33237e-06
-4.9997e-08
-1.42392e-06
3.62808e-06
-3.06712e-08
-4.53552e-07
3.29032e-06
2.13665e-09
1.74776e-06
1.11289e-08
-3.56682e-07
4.09621e-06
2.1426e-07
-1.29471e-06
7.29443e-06
4.95423e-07
-2.39325e-06
7.46164e-06
5.93847e-07
-3.43223e-06
6.09451e-06
5.21149e-07
-4.41056e-06
3.93069e-06
3.30874e-07
-5.38562e-06
1.91905e-06
1.06025e-07
-6.27721e-06
2.49227e-07
-8.38785e-08
-7.09707e-06
-1.15915e-06
-2.16339e-07
-7.84756e-06
-2.52762e-06
-2.94342e-07
-8.52563e-06
-3.93193e-06
-3.2617e-07
-9.0903e-06
-5.3935e-06
-3.2414e-07
-9.48198e-06
-6.86452e-06
-3.03375e-07
-9.66839e-06
-8.23691e-06
-2.76752e-07
-9.67207e-06
-9.39621e-06
-2.50214e-07
-9.55558e-06
-1.02873e-05
-2.2402e-07
-9.38617e-06
-1.09262e-05
-1.96226e-07
-9.21422e-06
-1.13614e-05
-1.65191e-07
-9.07225e-06
-1.16351e-05
-1.29949e-07
-8.98025e-06
-1.17732e-05
-8.98343e-08
-8.94784e-06
-1.17899e-05
-4.42559e-08
-8.97068e-06
-1.1693e-05
6.76283e-09
-9.0283e-06
-1.14855e-05
7.07617e-08
-9.05557e-06
-1.1163e-05
1.45038e-07
-8.93094e-06
-1.07022e-05
2.35261e-07
-8.47833e-06
-1.0039e-05
3.43047e-07
-7.52439e-06
-9.05593e-06
4.57577e-07
-6.02331e-06
-7.61603e-06
5.50504e-07
-4.17773e-06
-5.6468e-06
5.87006e-07
-2.37933e-06
-3.26146e-06
5.49661e-07
-1.01786e-06
-8.05934e-07
4.55532e-07
-2.3137e-07
1.30997e-06
3.44517e-07
1.45122e-07
2.71135e-06
2.46195e-07
2.96743e-07
3.30471e-06
1.73605e-07
2.54597e-07
3.19338e-06
1.41159e-07
1.90076e-06
1.04239e-07
2.93748e-07
3.70862e-06
9.29364e-08
1.884e-07
7.11047e-06
2.88525e-07
-2.83389e-07
7.59737e-06
3.35521e-07
-1.0993e-06
6.69759e-06
2.12593e-07
-2.05831e-06
4.88361e-06
6.08129e-09
-2.90876e-06
2.99831e-06
-2.28645e-07
-3.60743e-06
1.34069e-06
-3.92565e-07
-4.15837e-06
-1.24607e-07
-4.83297e-07
-4.66629e-06
-1.50924e-06
-5.10107e-07
-5.17747e-06
-2.93418e-06
-4.86165e-07
-5.66358e-06
-4.47869e-06
-4.28223e-07
-6.04182e-06
-6.12829e-06
-3.57449e-07
-6.23937e-06
-7.74546e-06
-2.93336e-07
-6.24516e-06
-9.14487e-06
-2.44966e-07
-6.10562e-06
-1.02161e-05
-2.10145e-07
-5.88493e-06
-1.09639e-05
-1.82308e-07
-5.63297e-06
-1.14563e-05
-1.56444e-07
-5.38043e-06
-1.17572e-05
-1.29792e-07
-5.14659e-06
-1.19056e-05
-1.00727e-07
-4.94573e-06
-1.19217e-05
-6.83645e-08
-4.79037e-06
-1.18153e-05
-3.23552e-08
-4.69174e-06
-1.15906e-05
7.1381e-09
-4.66265e-06
-1.12492e-05
5.78366e-08
-4.69057e-06
-1.07905e-05
1.16871e-07
-4.7124e-06
-1.02085e-05
1.92007e-07
-4.57846e-06
-9.4808e-06
2.915e-07
-4.07146e-06
-8.54254e-06
4.19943e-07
-3.02394e-06
-7.26057e-06
5.66536e-07
-1.50121e-06
-5.47722e-06
6.93259e-07
9.04783e-08
-3.14811e-06
7.50843e-07
1.22294e-06
-5.35409e-07
7.13558e-07
1.54251e-06
1.79123e-06
6.01577e-07
1.1731e-06
3.21046e-06
4.65181e-07
5.13749e-07
3.50762e-06
3.47229e-07
2.22132e-06
1.95955e-07
6.94187e-07
3.00138e-06
1.20401e-08
1.40493e-06
6.29703e-06
1.01664e-07
1.71711e-06
7.17501e-06
1.09411e-07
1.60177e-06
6.80473e-06
7.72118e-09
1.1508e-06
5.51943e-06
-1.85121e-07
6.40698e-07
3.85975e-06
-3.51497e-07
2.29569e-07
2.2095e-06
-4.57749e-07
-7.84422e-08
6.80606e-07
-4.97196e-07
-3.24415e-07
-7.83076e-07
-4.80092e-07
-5.39025e-07
-2.30031e-06
-4.19039e-07
-7.04698e-07
-3.98415e-06
-3.28514e-07
-7.86356e-07
-5.81459e-06
-2.31572e-07
-7.80461e-07
-7.59646e-06
-1.54343e-07
-7.13469e-07
-9.10208e-06
-1.09183e-07
-6.15374e-07
-1.02235e-05
-9.00399e-08
-5.07439e-07
-1.09873e-05
-8.3968e-08
-4.01431e-07
-1.14799e-05
-8.17385e-08
-3.0176e-07
-1.17775e-05
-7.87418e-08
-2.08238e-07
-1.19261e-05
-7.23582e-08
-1.17696e-07
-1.19507e-05
-6.09386e-08
-2.55814e-08
-1.18634e-05
-4.33019e-08
7.13402e-08
-1.16679e-05
-1.88996e-08
1.67015e-07
-1.13592e-05
1.50429e-08
2.40135e-07
-1.09244e-05
6.15043e-08
2.60156e-07
-1.03448e-05
1.17074e-07
2.01208e-07
-9.60465e-06
1.83579e-07
8.73703e-08
-8.69211e-06
2.64199e-07
4.05635e-08
-7.5808e-06
3.67788e-07
2.45169e-07
-6.18491e-06
5.03699e-07
7.72133e-07
-4.33486e-06
6.60249e-07
1.37246e-06
-1.91813e-06
7.82832e-07
1.59254e-06
7.69513e-07
8.02346e-07
1.19406e-06
2.90987e-06
7.00289e-07
4.99433e-07
3.67836e-06
5.25637e-07
2.46112e-06
2.61932e-07
7.51091e-07
2.27577e-06
-2.65212e-08
1.9532e-06
5.10918e-06
-1.53146e-08
2.94789e-06
6.21818e-06
-3.87944e-08
3.66548e-06
6.20615e-06
-1.19733e-07
3.93909e-06
5.45625e-06
-2.10997e-07
3.89009e-06
4.18954e-06
-2.81271e-07
3.68839e-06
2.72205e-06
-3.11233e-07
3.45598e-06
1.20979e-06
-2.97001e-07
3.30025e-06
-3.85528e-07
-2.41849e-07
3.38487e-06
-2.23223e-06
-1.52525e-07
3.70774e-06
-4.2593e-06
-4.73694e-08
4.15371e-06
-6.29723e-06
3.71138e-08
4.55985e-06
-8.07775e-06
7.56668e-08
4.82493e-06
-9.4405e-06
7.39003e-08
4.94496e-06
-1.03919e-05
4.89618e-08
4.96667e-06
-1.10257e-05
1.73287e-08
4.93735e-06
-1.14366e-05
-1.33378e-08
4.88622e-06
-1.16864e-05
-3.928e-08
4.82796e-06
-1.18078e-05
-5.93289e-08
4.7681e-06
-1.18172e-05
-7.28696e-08
4.70611e-06
-1.17217e-05
-7.89857e-08
4.63787e-06
-1.15223e-05
-7.66224e-08
4.55767e-06
-1.12138e-05
-6.44938e-08
4.45864e-06
-1.07834e-05
-4.12694e-08
4.3304e-06
-1.02085e-05
-7.3985e-09
4.13185e-06
-9.46022e-06
5.47838e-08
3.81854e-06
-8.51113e-06
1.33003e-07
3.35971e-06
-7.34906e-06
2.27778e-07
2.79813e-06
-5.96261e-06
3.40003e-07
2.27307e-06
-4.286e-06
4.76925e-07
1.89294e-06
-2.17349e-06
6.36156e-07
1.53574e-06
3.62989e-07
7.64414e-07
9.91341e-07
2.69146e-06
7.6374e-07
4.04117e-07
3.66219e-06
6.0454e-07
2.57912e-06
2.87523e-07
2.75455e-07
1.98359e-06
1.57459e-08
1.0448e-06
4.34118e-06
-2.32231e-09
1.94885e-06
5.33652e-06
-2.33455e-08
2.7816e-06
5.41971e-06
-4.71526e-08
3.35925e-06
4.93137e-06
-5.34762e-08
3.65608e-06
3.93406e-06
-4.19151e-08
3.81394e-06
2.57459e-06
-1.07692e-08
4.06962e-06
9.01732e-07
5.2242e-08
4.64185e-06
-1.09595e-06
1.38279e-07
5.48996e-06
-3.30655e-06
2.26448e-07
6.41878e-06
-5.46844e-06
2.80654e-07
7.15109e-06
-7.30748e-06
2.78345e-07
7.54212e-06
-8.69697e-06
2.28657e-07
7.62627e-06
-9.68205e-06
1.57951e-07
7.52312e-06
-1.03761e-05
8.80273e-08
7.34572e-06
-1.08748e-05
2.71633e-08
7.1632e-06
-1.12306e-05
-2.27622e-08
7.00661e-06
-1.14669e-05
-6.21772e-08
6.887e-06
-1.15932e-05
-9.42483e-08
6.80316e-06
-1.16136e-05
-1.19028e-07
6.74651e-06
-1.15279e-05
-1.36421e-07
6.70232e-06
-1.13314e-05
-1.4592e-07
6.64907e-06
-1.10131e-05
-1.46688e-07
6.55741e-06
-1.05533e-05
-1.37664e-07
6.39087e-06
-9.92366e-06
-1.17527e-07
6.1118e-06
-9.09623e-06
-8.41342e-08
5.69274e-06
-8.05657e-06
-3.47012e-08
5.11323e-06
-6.81089e-06
4.21639e-08
4.36615e-06
-5.36516e-06
1.50488e-07
3.47991e-06
-3.68593e-06
2.87072e-07
2.54233e-06
-1.68617e-06
4.51184e-07
1.65574e-06
6.33961e-07
6.16556e-07
8.69354e-07
2.79231e-06
6.86605e-07
3.16995e-07
3.64506e-06
5.70603e-07
2.63017e-06
2.67242e-07
-2.08476e-07
2.10366e-06
8.75171e-08
-2.20939e-07
4.23863e-06
1.14216e-07
1.58467e-09
4.99959e-06
1.1363e-07
2.74847e-07
5.0116e-06
1.34187e-07
5.23486e-07
4.50476e-06
1.77505e-07
8.52459e-07
3.37028e-06
2.34532e-07
1.48268e-06
1.63532e-06
3.0892e-07
2.53959e-06
-5.44371e-07
3.89158e-07
3.86917e-06
-2.86537e-06
4.39888e-07
5.12423e-06
-4.98945e-06
4.28006e-07
5.99958e-06
-6.69655e-06
3.53065e-07
6.41556e-06
-7.9703e-06
2.47308e-07
6.49139e-06
-8.91862e-06
1.46422e-07
6.40584e-06
-9.66015e-06
6.4345e-08
6.29345e-06
-1.02589e-05
-4.06048e-09
6.2039e-06
-1.07356e-05
-4.88266e-08
6.15755e-06
-1.10943e-05
-8.92015e-08
6.15316e-06
-1.13376e-05
-1.24103e-07
6.18386e-06
-1.1469e-05
-1.54161e-07
6.24117e-06
-1.14905e-05
-1.7956e-07
6.31547e-06
-1.14013e-05
-2.00092e-07
6.39491e-06
-1.11949e-05
-2.15197e-07
6.46284e-06
-1.08564e-05
-2.23935e-07
6.49343e-06
-1.03581e-05
-2.2501e-07
6.44697e-06
-9.65967e-06
-2.16801e-07
6.26986e-06
-8.72103e-06
-1.97362e-07
5.90464e-06
-7.52697e-06
-1.63644e-07
5.31088e-06
-6.10524e-06
-1.11105e-07
4.48748e-06
-4.50705e-06
-3.3815e-08
3.47217e-06
-2.75388e-06
8.43275e-08
2.36423e-06
-8.17901e-07
2.40933e-07
1.32427e-06
1.26046e-06
4.14879e-07
5.60414e-07
3.03748e-06
5.20221e-07
1.23814e-07
3.63622e-06
4.47068e-07
2.55339e-06
2.02548e-07
-4.74304e-07
2.43355e-06
1.43617e-07
-1.08548e-06
4.61334e-06
2.35903e-07
-1.54897e-06
5.18291e-06
2.79642e-07
-1.85394e-06
4.9773e-06
3.3873e-07
-1.80494e-06
4.04466e-06
4.1061e-07
-1.20752e-06
2.28817e-06
4.84258e-07
-7.32001e-08
-2.99003e-08
5.30587e-07
1.21987e-06
-2.34894e-06
5.11389e-07
2.27978e-06
-4.34551e-06
4.20396e-07
2.89276e-06
-5.89347e-06
2.91469e-07
3.11795e-06
-7.08929e-06
1.68169e-07
3.14917e-06
-8.07265e-06
7.18417e-08
3.15416e-06
-8.92022e-06
-2.61667e-09
3.1894e-06
-9.64753e-06
-4.70978e-08
3.26604e-06
-1.02468e-05
-8.80575e-08
3.37078e-06
-1.0715e-05
-1.24656e-07
3.49224e-06
-1.10582e-05
-1.56718e-07
3.62515e-06
-1.12856e-05
-1.84075e-07
3.76741e-06
-1.14035e-05
-2.06881e-07
3.9168e-06
-1.14136e-05
-2.25547e-07
4.06887e-06
-1.13121e-05
-2.40519e-07
4.21519e-06
-1.10884e-05
-2.52059e-07
4.34091e-06
-1.07212e-05
-2.60102e-07
4.42139e-06
-1.01736e-05
-2.64232e-07
4.42051e-06
-9.39426e-06
-2.6381e-07
4.2948e-06
-8.33649e-06
-2.58111e-07
4.00513e-06
-6.99151e-06
-2.45047e-07
3.53128e-06
-5.41196e-06
-2.18607e-07
2.88052e-06
-3.68789e-06
-1.67398e-07
2.09119e-06
-1.885e-06
-7.83056e-08
1.24198e-06
-2.10315e-08
5.39131e-08
5.14759e-07
1.77659e-06
2.13002e-07
8.22798e-08
3.14587e-06
3.26215e-07
-9.62087e-08
3.52507e-06
2.9222e-07
2.33989e-06
1.20659e-07
-4.72214e-07
2.73491e-06
1.70071e-07
-1.25264e-06
5.06763e-06
3.25638e-07
-1.96691e-06
5.48276e-06
4.13958e-07
-2.41617e-06
4.93827e-06
4.87849e-07
-2.30388e-06
3.39521e-06
5.36827e-07
-1.6946e-06
1.14862e-06
5.3015e-07
-9.87417e-07
-1.18305e-06
4.46168e-07
-4.97059e-07
-3.14743e-06
3.08627e-07
-3.25999e-07
-4.68508e-06
1.6918e-07
-3.30993e-07
-5.94512e-06
5.73779e-08
-3.41424e-07
-7.05432e-06
-2.38065e-08
-2.85853e-07
-8.04984e-06
-7.76493e-08
-1.66409e-07
-8.917e-06
-1.21929e-07
-1.52326e-08
-9.6395e-06
-1.58436e-07
1.44567e-07
-1.02181e-05
-1.8767e-07
3.04426e-07
-1.06644e-05
-2.0961e-07
4.63694e-07
-1.09916e-05
-2.25053e-07
6.23253e-07
-1.12091e-05
-2.35264e-07
7.83297e-07
-1.13212e-05
-2.41564e-07
9.43243e-07
-1.13276e-05
-2.45115e-07
1.10186e-06
-1.1223e-05
-2.46823e-07
1.25701e-06
-1.09954e-05
-2.4729e-07
1.40489e-06
-1.06215e-05
-2.46776e-07
1.53901e-06
-1.00618e-05
-2.45253e-07
1.64783e-06
-9.25964e-06
-2.42782e-07
1.7091e-06
-8.1568e-06
-2.40369e-07
1.68489e-06
-6.7274e-06
-2.39317e-07
1.53258e-06
-5.02198e-06
-2.37011e-07
1.23555e-06
-3.16853e-06
-2.21497e-07
8.27801e-07
-1.30251e-06
-1.73605e-07
4.00956e-07
4.87736e-07
-8.04246e-08
5.713e-08
2.0736e-06
4.87191e-08
-1.02897e-07
3.1512e-06
1.5697e-07
-1.17736e-07
3.38474e-06
1.57924e-07
2.16595e-06
5.96794e-08
-3.11196e-07
2.88079e-06
1.64516e-07
-9.39148e-07
5.33997e-06
3.55073e-07
-1.57383e-06
5.65825e-06
4.58818e-07
-1.98656e-06
4.84804e-06
5.02749e-07
-2.03305e-06
2.96712e-06
4.74591e-07
-1.92776e-06
6.73634e-07
3.69972e-07
-1.92389e-06
-1.40914e-06
2.22687e-07
-2.04919e-06
-3.10462e-06
8.30442e-08
-2.18576e-06
-4.52164e-06
-2.6268e-08
-2.24947e-06
-5.77985e-06
-1.00924e-07
-2.22423e-06
-6.92135e-06
-1.57523e-07
-2.13547e-06
-7.93957e-06
-1.983e-07
-2.00707e-06
-8.81812e-06
-2.26495e-07
-1.85229e-06
-9.54844e-06
-2.45027e-07
-1.6804e-06
-1.01331e-05
-2.56031e-07
-1.50071e-06
-1.05821e-05
-2.61107e-07
-1.32237e-06
-1.09075e-05
-2.61518e-07
-1.15252e-06
-1.11198e-05
-2.58279e-07
-9.95614e-07
-1.12249e-05
-2.52243e-07
-8.53549e-07
-1.12246e-05
-2.44141e-07
-7.25988e-07
-1.11151e-05
-2.34572e-07
-6.10303e-07
-1.08863e-05
-2.2396e-07
-5.00658e-07
-1.05179e-05
-2.12473e-07
-3.86283e-07
-9.97538e-06
-2.00038e-07
-2.52235e-07
-9.20629e-06
-1.86794e-07
-8.94798e-08
-8.1446e-06
-1.74477e-07
8.59519e-08
-6.73464e-06
-1.67812e-07
2.22111e-07
-4.98624e-06
-1.71511e-07
2.58884e-07
-3.02336e-06
-1.81393e-07
1.84185e-07
-1.04835e-06
-1.78599e-07
5.81514e-08
7.55473e-07
-1.40458e-07
-4.07833e-08
2.23427e-06
-6.00782e-08
-7.29438e-08
3.15531e-06
3.01345e-08
-5.72697e-08
3.31293e-06
5.86991e-08
2.08786e-06
2.40515e-08
-7.74476e-08
2.82735e-06
1.30052e-07
-3.87929e-07
5.33504e-06
3.14819e-07
-7.90472e-07
5.6536e-06
4.06875e-07
-1.18082e-06
4.83186e-06
4.06504e-07
-1.51276e-06
2.98356e-06
3.15727e-07
-1.86461e-06
8.55568e-07
1.70339e-07
-2.23323e-06
-1.0604e-06
2.04455e-08
-2.55298e-06
-2.68678e-06
-9.74447e-08
-2.77969e-06
-4.11198e-06
-1.82255e-07
-2.90618e-06
-5.41402e-06
-2.38601e-07
-2.93693e-06
-6.61658e-06
-2.73259e-07
-2.88206e-06
-7.70048e-06
-2.93179e-07
-2.76035e-06
-8.6349e-06
-3.04103e-07
-2.59651e-06
-9.40246e-06
-3.0897e-07
-2.41343e-06
-1.00064e-05
-3.08847e-07
-2.22768e-06
-1.04626e-05
-3.04343e-07
-2.04972e-06
-1.07884e-05
-2.96124e-07
-1.8858e-06
-1.09978e-05
-2.8492e-07
-1.73946e-06
-1.10989e-05
-2.71417e-07
-1.61239e-06
-1.10945e-05
-2.56182e-07
-1.50439e-06
-1.09825e-05
-2.39622e-07
-1.4127e-06
-1.07551e-05
-2.21939e-07
-1.32988e-06
-1.03968e-05
-2.0306e-07
-1.23983e-06
-9.882e-06
-1.82571e-07
-1.11468e-06
-9.17086e-06
-1.59837e-07
-9.19628e-07
-8.20426e-06
-1.34811e-07
-6.33512e-07
-6.90941e-06
-1.10992e-07
-2.83296e-07
-5.23932e-06
-9.69445e-08
4.30797e-08
-3.2491e-06
-1.00453e-07
2.53297e-07
-1.14259e-06
-1.15587e-07
3.24224e-07
8.0473e-07
-1.19419e-07
2.93227e-07
2.3567e-06
-9.02127e-08
2.01189e-07
3.28264e-06
-3.35733e-08
8.11061e-08
3.43134e-06
3.93209e-09
2.16127e-06
1.05485e-08
1.65914e-07
2.57883e-06
8.17726e-08
2.45594e-07
5.02406e-06
2.30709e-07
1.83441e-07
5.41634e-06
2.99213e-07
-4.72134e-08
4.79261e-06
2.7008e-07
-4.27481e-07
3.20711e-06
1.57117e-07
-8.83653e-07
1.29749e-06
1.47959e-08
-1.30932e-06
-5.19261e-07
-1.14855e-07
-1.63893e-06
-2.14794e-06
-2.08574e-07
-1.85023e-06
-3.63316e-06
-2.66832e-07
-1.94413e-06
-5.02113e-06
-2.98272e-07
-1.93774e-06
-6.3091e-06
-3.13126e-07
-1.85887e-06
-7.45909e-06
-3.19477e-07
-1.7358e-06
-8.43554e-06
-3.21601e-07
-1.59006e-06
-9.22681e-06
-3.20537e-07
-1.43558e-06
-9.84364e-06
-3.16395e-07
-1.28148e-06
-1.03063e-05
-3.09423e-07
-1.13446e-06
-1.06345e-05
-3.00038e-07
-9.99807e-07
-1.08428e-05
-2.88656e-07
-8.81518e-07
-1.09406e-05
-2.75572e-07
-7.82392e-07
-1.09317e-05
-2.60937e-07
-7.04049e-07
-1.08151e-05
-2.44773e-07
-6.46662e-07
-1.05845e-05
-2.26972e-07
-6.07858e-07
-1.02273e-05
-2.07275e-07
-5.79754e-07
-9.72396e-06
-1.8518e-07
-5.44219e-07
-9.0457e-06
-1.59785e-07
-4.68495e-07
-8.14938e-06
-1.29811e-07
-3.09353e-07
-6.97205e-06
-9.58983e-08
-4.34427e-08
-5.44111e-06
-6.37689e-08
2.83754e-07
-3.5309e-06
-4.52425e-08
5.54408e-07
-1.36338e-06
-4.97063e-08
6.64742e-07
7.62894e-07
-6.80911e-08
5.98785e-07
2.49826e-06
-7.47493e-08
4.03164e-07
3.53229e-06
-5.26499e-08
1.57487e-07
3.69827e-06
-1.93225e-08
2.31762e-06
3.65258e-09
3.09293e-07
2.22289e-06
4.58489e-08
7.1109e-07
4.47188e-06
1.49927e-07
9.87644e-07
4.94414e-06
1.9553e-07
1.07395e-06
4.54741e-06
1.59145e-07
9.0511e-07
3.32019e-06
5.6282e-08
5.87114e-07
1.68112e-06
-6.49785e-08
2.4272e-07
-5.69393e-09
-1.68455e-07
-2.95927e-08
-1.63712e-06
-2.37754e-07
-2.02137e-07
-3.18426e-06
-2.75593e-07
-2.73508e-07
-4.65664e-06
-2.92352e-07
-2.64386e-07
-6.01831e-06
-2.99117e-07
-2.04465e-07
-7.21509e-06
-3.03107e-07
-1.19746e-07
-8.21287e-06
-3.06532e-07
-2.63026e-08
-9.01058e-06
-3.08775e-07
6.84935e-08
-9.62852e-06
-3.08994e-07
1.61598e-07
-1.00915e-05
-3.0697e-07
2.51002e-07
-1.042e-05
-3.02911e-07
3.34231e-07
-1.0628e-05
-2.97091e-07
4.08564e-07
-1.07243e-05
-2.89667e-07
4.71428e-07
-1.0713e-05
-2.80618e-07
5.20472e-07
-1.05934e-05
-2.69754e-07
5.53575e-07
-1.03598e-05
-2.56736e-07
5.69188e-07
-1.00008e-05
-2.41082e-07
5.6725e-07
-9.49893e-06
-2.22112e-07
5.51604e-07
-8.83051e-06
-1.98607e-07
5.35342e-07
-7.96348e-06
-1.6878e-07
5.48182e-07
-6.85255e-06
-1.3161e-07
6.30001e-07
-5.43392e-06
-8.84863e-08
7.92152e-07
-3.64573e-06
-4.70606e-08
9.66167e-07
-1.51466e-06
-2.26562e-08
1.02461e-06
7.29176e-07
-2.45836e-08
8.88604e-07
2.67446e-06
-3.9713e-08
5.86481e-07
3.87673e-06
-4.13076e-08
2.27064e-07
4.08083e-06
-2.15958e-08
2.54395e-06
2.81949e-09
2.91466e-07
1.89943e-06
3.12528e-08
8.02101e-07
3.86223e-06
9.86932e-08
1.27724e-06
4.34363e-06
1.25294e-07
1.64042e-06
4.09271e-06
9.16868e-08
1.77979e-06
3.16809e-06
1.32221e-08
1.74874e-06
1.78974e-06
-7.6901e-08
1.65289e-06
2.39343e-07
-1.48424e-07
1.58802e-06
-1.37914e-06
-1.92315e-07
1.59886e-06
-2.9812e-06
-2.13102e-07
1.6794e-06
-4.51369e-06
-2.22685e-07
1.79152e-06
-5.89804e-06
-2.31584e-07
1.89574e-06
-7.07471e-06
-2.43752e-07
1.97221e-06
-8.03088e-06
-2.5758e-07
2.02198e-06
-8.78925e-06
-2.70169e-07
2.05607e-06
-9.38181e-06
-2.79826e-07
2.08513e-06
-9.83327e-06
-2.86314e-07
2.11481e-06
-1.01585e-05