/*--------------------------------*- C++ -*----------------------------------*\
| =========                 |                                                 |
| \\      /  F ield         | OpenFOAM: The Open Source CFD Toolbox           |
|  \\    /   O peration     | Version:  v2006                                 |
|   \\  /    A nd           | Website:  www.openfoam.com                      |
|    \\/     M anipulation  |                                                 |
\*---------------------------------------------------------------------------*/
FoamFile
{
    version     2.0;
    format      ascii;
    class       volVectorField;
    location    "16";
    object      U;
}
// * * * * * * * * * * * * * * * * * * * * * * * * * * * * * * * * * * * * * //

dimensions      [0 1 -1 0 0 0 0];


internalField   nonuniform List<vector> 
78750
(
(-0.053884 -0.0148353 0.0182222)
(-0.0417787 -0.0179969 0.0292814)
(-0.0416185 -0.0199866 0.0232116)
(-0.0442774 -0.0203934 0.0243279)
(-0.0428867 -0.020271 0.0243097)
(-0.0425846 -0.0205986 0.0244495)
(-0.0412978 -0.0209819 0.0246017)
(-0.0398772 -0.0214787 0.0248382)
(-0.0381058 -0.0221065 0.0251824)
(-0.0361307 -0.0230059 0.0255546)
(-0.0339504 -0.0242902 0.0258474)
(-0.0315357 -0.0259102 0.0260112)
(-0.0287856 -0.0276517 0.0261059)
(-0.0256606 -0.0293233 0.0261824)
(-0.0221735 -0.0308123 0.0262684)
(-0.0183692 -0.0320605 0.0263756)
(-0.0143086 -0.0330378 0.0265079)
(-0.0100601 -0.0337269 0.0266654)
(-0.00569522 -0.0341178 0.0268478)
(-0.00128689 -0.0342026 0.0270559)
(0.00309016 -0.0339715 0.0272914)
(0.00735844 -0.0334115 0.0275572)
(0.011437 -0.032505 0.0278572)
(0.0152388 -0.0312285 0.0281957)
(0.0186692 -0.0295521 0.0285782)
(0.0216237 -0.0274383 0.0290111)
(0.0239863 -0.0248413 0.0295023)
(0.0256275 -0.0217068 0.0300605)
(0.0264025 -0.017968 0.0306957)
(0.0261504 -0.0135354 0.0314201)
(0.0246819 -0.00828008 0.0322296)
(0.021747 -0.00200635 0.033101)
(0.0168276 0.00546444 0.0337574)
(0.00974554 0.0127668 0.0315518)
(0.0023604 0.0121805 0.0179312)
(-0.00493436 0.0316619 0.0124597)
(-0.0106431 0.00398304 0.0102278)
(-0.0184845 -0.0124971 0.00332333)
(-0.0249076 -0.0196375 -0.000767965)
(-0.0298029 -0.0240306 -0.00226758)
(-0.0331621 -0.0282254 -0.00257585)
(-0.0355155 -0.0327968 -0.00234742)
(-0.0369031 -0.0367168 -0.00161895)
(-0.0372098 -0.0395161 -0.000411238)
(-0.036415 -0.0414587 0.00112178)
(-0.0346704 -0.0434528 0.00264907)
(-0.032332 -0.0463142 0.00383088)
(-0.0296285 -0.049916 0.00462412)
(-0.0265391 -0.0536358 0.00519567)
(-0.0231257 -0.0570634 0.0056708)
(-0.0194633 -0.0600014 0.00611696)
(-0.0156273 -0.062365 0.00657014)
(-0.0116988 -0.0641172 0.00705345)
(-0.00774257 -0.0652213 0.00757756)
(-0.00380926 -0.0656623 0.00815564)
(5.41133e-05 -0.0654235 0.00880145)
(0.00379752 -0.064479 0.00953129)
(0.00736918 -0.0627922 0.0103637)
(0.0107123 -0.0603115 0.0113199)
(0.0137623 -0.0569692 0.0124227)
(0.0164452 -0.0526802 0.0136965)
(0.0186743 -0.0473361 0.0151691)
(0.0203463 -0.0407895 0.0168746)
(0.0213336 -0.0328152 0.0188579)
(0.0214643 -0.0230358 0.0211736)
(0.0204791 -0.0108278 0.0238808)
(0.0179062 0.00451719 0.0271218)
(0.0129366 0.0221326 0.0303068)
(0.0067085 0.0359062 0.0296264)
(0.00116659 0.0303635 0.0172089)
(8.15567e-05 0.0552687 0.0059962)
(-0.00226339 0.0696531 0.00684148)
(-0.00704911 0.0668089 0.00620858)
(-0.0118846 0.0578819 0.00621744)
(-0.0159345 0.0446263 0.00668191)
(-0.0192507 0.028785 0.00690249)
(-0.02203 0.0119534 0.00669065)
(-0.0239803 -0.0039317 0.00639505)
(-0.0250827 -0.0185919 0.00611162)
(-0.0253305 -0.0319846 0.00581774)
(-0.0247738 -0.0439368 0.00550318)
(-0.0235319 -0.0543201 0.00518926)
(-0.0217375 -0.0631462 0.00489873)
(-0.0195192 -0.0705119 0.00465038)
(-0.0169834 -0.076526 0.004459)
(-0.0142226 -0.0812906 0.0043357)
(-0.0113193 -0.0848996 0.00428989)
(-0.00834959 -0.0874394 0.00433041)
(-0.00537983 -0.0889703 0.0044627)
(-0.00246318 -0.0895355 0.00469217)
(0.000357945 -0.0891604 0.00502579)
(0.00304494 -0.0878472 0.00547345)
(0.00556113 -0.0855721 0.00604997)
(0.00786879 -0.0822835 0.00677738)
(0.00992629 -0.0778969 0.00768694)
(0.0116862 -0.0722876 0.00882232)
(0.0130944 -0.0652736 0.0102426)
(0.0140795 -0.0565712 0.0120213)
(0.0145518 -0.0456732 0.0142474)
(0.0143877 -0.0315858 0.0170088)
(0.0133923 -0.0124602 0.0202744)
(0.0112668 0.0132962 0.0236408)
(0.00741134 0.0405927 0.0257338)
(0.00324201 0.0542026 0.0236516)
(0.000427277 0.0387758 0.0130213)
(-0.00018277 0.0491579 0.00409359)
(-0.00118577 0.0663813 0.00555764)
(-0.00275368 0.0634667 0.00581851)
(-0.00416433 0.0544437 0.00592376)
(-0.00540183 0.0411999 0.00573907)
(-0.0064288 0.0265881 0.00526794)
(-0.00729295 0.012472 0.00496273)
(-0.00794088 -0.00101727 0.00511625)
(-0.00841739 -0.0145749 0.0056115)
(-0.0087096 -0.0285001 0.00608913)
(-0.00862574 -0.042323 0.00620703)
(-0.00813395 -0.0553178 0.00588546)
(-0.00727637 -0.0669369 0.00525537)
(-0.00611526 -0.0769047 0.0045004)
(-0.00471709 -0.0851349 0.00376455)
(-0.00314259 -0.0916454 0.00313343)
(-0.00144595 -0.0965188 0.00265074)
(0.000324853 -0.0998801 0.00233403)
(0.00212577 -0.101861 0.00218669)
(0.00391315 -0.102573 0.00220637)
(0.00564485 -0.102091 0.00239036)
(0.00728024 -0.100449 0.00273828)
(0.00877843 -0.097638 0.00325343)
(0.0100912 -0.0936121 0.00394644)
(0.01116 -0.0882777 0.00483645)
(0.0119205 -0.0815007 0.00596138)
(0.0123094 -0.0731116 0.00739661)
(0.0122681 -0.0628411 0.00927933)
(0.0117435 -0.0501318 0.0118334)
(0.0106734 -0.0337671 0.0153386)
(0.00900229 -0.0117089 0.0197752)
(0.00673582 0.016615 0.023856)
(0.00390328 0.0437428 0.0249649)
(0.00139449 0.05448 0.0212838)
(0.000157866 0.0360695 0.0108342)
(0.000363504 0.0471985 0.00307526)
(0.000286097 0.0718931 0.00519557)
(-0.000406514 0.0717152 0.0059237)
(-0.00132403 0.064602 0.00630003)
(-0.00257361 0.0517248 0.00637743)
(-0.00390836 0.0361183 0.00635553)
(-0.0052315 0.019857 0.00681338)
(-0.00631862 0.0029523 0.00787685)
(-0.00682838 -0.0148557 0.00902309)
(-0.0066039 -0.0328195 0.00954604)
(-0.00582677 -0.0496848 0.00919253)
(-0.00470844 -0.064525 0.00822144)
(-0.00340051 -0.0770361 0.00700622)
(-0.00200235 -0.0872921 0.0058055)
(-0.000579735 -0.0954816 0.00474518)
(0.000846976 -0.101793 0.00386886)
(0.00225524 -0.106395 0.00317929)
(0.00361988 -0.109434 0.00266469)
(0.00493698 -0.111035 0.00230951)
(0.00619453 -0.111282 0.00210045)
(0.00737278 -0.110216 0.00202887)
(0.00844554 -0.107832 0.00209095)
(0.00937689 -0.104073 0.00228615)
(0.0101222 -0.0988318 0.00261678)
(0.0106295 -0.0919779 0.00309125)
(0.0108406 -0.0833922 0.00373858)
(0.0106963 -0.0729953 0.0046372)
(0.0101581 -0.060679 0.00595243)
(0.00922409 -0.0461072 0.00796639)
(0.00793421 -0.0283479 0.0110469)
(0.00639072 -0.00578643 0.0153328)
(0.0047108 0.0217198 0.0197361)
(0.00292628 0.0465747 0.0214157)
(0.0013701 0.0545412 0.0182826)
(0.000334354 0.0341593 0.00905568)
(0.000300272 0.0409382 0.00205602)
(0.00107044 0.0690109 0.00352739)
(0.00129927 0.0715785 0.00393385)
(0.00126731 0.0679307 0.00414829)
(0.000963333 0.0588853 0.00422483)
(0.000377572 0.0454731 0.0044546)
(-0.00012708 0.029175 0.00564695)
(-0.000171083 0.00974696 0.0078529)
(0.000487486 -0.0123077 0.00986303)
(0.00167328 -0.0344368 0.0104481)
(0.00303399 -0.0542403 0.00962255)
(0.00438818 -0.0707428 0.00807689)
(0.00568445 -0.0840405 0.00641604)
(0.00691726 -0.0945795 0.00493741)
(0.00809851 -0.102786 0.0037244)
(0.00923971 -0.108979 0.00276414)
(0.0103499 -0.113391 0.00201552)
(0.0114345 -0.116197 0.00143804)
(0.0124916 -0.117525 0.00100226)
(0.0135107 -0.117456 0.000691811)
(0.0144717 -0.116012 0.000500317)
(0.0153445 -0.113156 0.000425496)
(0.0160863 -0.108791 0.000461241)
(0.0166368 -0.102763 0.000590003)
(0.0169157 -0.0949006 0.000783717)
(0.0168326 -0.0851086 0.00102867)
(0.0163071 -0.0734642 0.00138669)
(0.0152953 -0.0601655 0.00206313)
(0.0138025 -0.0453581 0.00344065)
(0.0118845 -0.0287526 0.00603409)
(0.00968039 -0.00916095 0.0102131)
(0.00727456 0.0147203 0.0153061)
(0.00469716 0.0389534 0.0183263)
(0.00248611 0.049654 0.0164202)
(0.000677658 0.0343525 0.00837161)
(1.8694e-05 0.0346844 0.0025801)
(0.00030249 0.0614938 0.00396613)
(0.00027313 0.0656742 0.00431582)
(7.58077e-05 0.0633097 0.00475068)
(-0.000194841 0.0555496 0.0057474)
(-0.000275981 0.0412894 0.00795244)
(0.000318406 0.0205111 0.011275)
(0.00171405 -0.00486111 0.0138898)
(0.00343873 -0.0305972 0.0141984)
(0.00494992 -0.0529665 0.0124625)
(0.00611945 -0.0707917 0.00995349)
(0.00703864 -0.0846578 0.00761861)
(0.00783146 -0.0955486 0.00578816)
(0.00858582 -0.104202 0.00443573)
(0.00934802 -0.111033 0.00343245)
(0.0101432 -0.116255 0.00266473)
(0.0109805 -0.119987 0.00205876)
(0.0118601 -0.122286 0.00157167)
(0.01278 -0.123181 0.0011806)
(0.0137284 -0.122659 0.000875489)
(0.0146828 -0.120661 0.000654051)
(0.0156062 -0.117052 0.000512779)
(0.0164381 -0.111589 0.000427607)
(0.0170859 -0.103926 0.000327251)
(0.0174259 -0.0937395 8.7792e-05)
(0.0173339 -0.0809664 -0.000404954)
(0.0167401 -0.0659591 -0.00110851)
(0.0156597 -0.049297 -0.0017189)
(0.0141611 -0.031385 -0.00172488)
(0.0122808 -0.0121438 -0.000482626)
(0.00990973 0.00898006 0.00269161)
(0.00704165 0.0316516 0.00764679)
(0.00408572 0.0515613 0.0116132)
(0.00169456 0.0586074 0.0112691)
(0.000214902 0.0391547 0.0054621)
(-0.000271095 0.0338002 0.00357451)
(-0.00118361 0.0606579 0.00559604)
(-0.00216313 0.0658488 0.00642407)
(-0.00298142 0.0632913 0.00780852)
(-0.00342407 0.052505 0.0105969)
(-0.0028059 0.0315346 0.0139618)
(-0.00130301 0.00431382 0.0153738)
(0.000311642 -0.0224673 0.0136874)
(0.00148127 -0.044618 0.0102827)
(0.00217159 -0.0619356 0.0070127)
(0.00260073 -0.0759412 0.0046839)
(0.00297208 -0.0878774 0.00323565)
(0.00339965 -0.0982417 0.00234323)
(0.00392405 -0.107087 0.00173853)
(0.00453456 -0.114367 0.00128051)
(0.00521567 -0.120084 0.000923122)
(0.00596339 -0.124295 0.000661797)
(0.00677558 -0.127047 0.00049895)
(0.00764602 -0.128331 0.000431992)
(0.00855974 -0.128086 0.000453405)
(0.00948836 -0.126184 0.000553605)
(0.0103844 -0.12238 0.000714072)
(0.0111722 -0.116214 0.000870288)
(0.0117331 -0.107 0.00084472)
(0.0119051 -0.0942359 0.00031852)
(0.0115433 -0.0782047 -0.000984033)
(0.0105998 -0.0600754 -0.00287897)
(0.00917267 -0.0411256 -0.00457819)
(0.00746679 -0.0217874 -0.00517491)
(0.00562818 -0.00150501 -0.00412789)
(0.00372064 0.0205295 -0.00129422)
(0.00179341 0.0433651 0.00269529)
(0.000299607 0.0606605 0.00560903)
(-0.000466187 0.0637271 0.00539459)
(-0.000350987 0.0390605 0.00188444)
(-0.000427523 0.0367813 0.0047822)
(-0.002211 0.0644176 0.00852296)
(-0.00403486 0.0680471 0.0105731)
(-0.00545773 0.0599866 0.0130006)
(-0.00611976 0.0393263 0.0152847)
(-0.0057335 0.0110367 0.0146091)
(-0.00535352 -0.0159185 0.0107336)
(-0.00549788 -0.03719 0.00628603)
(-0.00602537 -0.053877 0.00320373)
(-0.00664739 -0.0682267 0.00164908)
(-0.00715973 -0.0813346 0.00106653)
(-0.00746104 -0.0932147 0.000916472)
(-0.00754493 -0.103541 0.000880761)
(-0.00746094 -0.112133 0.000852094)
(-0.00726458 -0.119013 0.000840727)
(-0.00699489 -0.124338 0.000892747)
(-0.00667642 -0.128252 0.00104809)
(-0.00632059 -0.130797 0.00133073)
(-0.0059309 -0.131912 0.00174937)
(-0.00550948 -0.131437 0.00230023)
(-0.00506201 -0.129103 0.00297089)
(-0.00459422 -0.124417 0.00373363)
(-0.00410945 -0.116472 0.0044769)
(-0.00361759 -0.104078 0.00483376)
(-0.00314871 -0.0867114 0.00410263)
(-0.00278866 -0.0654203 0.00167204)
(-0.00273807 -0.0427126 -0.00212367)
(-0.00318667 -0.0210401 -0.00566452)
(-0.00410822 -0.00090926 -0.00720877)
(-0.00507203 0.0185407 -0.0063156)
(-0.00554009 0.0372095 -0.00390327)
(-0.00524892 0.052627 -0.00137052)
(-0.00434368 0.0598795 -8.14048e-05)
(-0.00281884 0.0569859 -9.0404e-05)
(-0.000665845 0.0308893 -0.000837557)
(-0.000366956 0.0418542 0.00496756)
(-0.00233111 0.0724437 0.00989952)
(-0.00448096 0.0742791 0.0123308)
(-0.00618982 0.0605853 0.0133958)
(-0.00728877 0.0352332 0.0115393)
(-0.00809229 0.0091664 0.00654528)
(-0.00924711 -0.0115817 0.00153252)
(-0.0106063 -0.0283066 -0.00152414)
(-0.0119557 -0.043593 -0.00277777)
(-0.0131791 -0.0585585 -0.00290042)
(-0.0141965 -0.0730688 -0.00245123)
(-0.0149591 -0.086525 -0.00183959)
(-0.0154556 -0.0983443 -0.00130831)
(-0.0157221 -0.108176 -0.000925541)
(-0.0158296 -0.115992 -0.000634665)
(-0.0158561 -0.121985 -0.000342266)
(-0.0158628 -0.126392 2.85426e-05)
(-0.0158869 -0.129377 0.000529155)
(-0.0159423 -0.130989 0.0011941)
(-0.0160222 -0.131163 0.00205044)
(-0.0161022 -0.129682 0.00312611)
(-0.0161367 -0.126096 0.00445665)
(-0.0160336 -0.119576 0.0060559)
(-0.0156209 -0.108889 0.00775226)
(-0.0146733 -0.0928656 0.008929)
(-0.0130834 -0.0713497 0.00857605)
(-0.0110752 -0.0461785 0.00598131)
(-0.00916091 -0.0210281 0.00175894)
(-0.00772505 0.000783446 -0.00208774)
(-0.00682429 0.0185204 -0.00385454)
(-0.00600377 0.0327822 -0.00369411)
(-0.00475793 0.0426792 -0.00283355)
(-0.0033056 0.0461611 -0.00219779)
(-0.00162585 0.041613 -0.00170272)
(-9.99876e-05 0.0213455 -0.000738391)
(-5.96499e-05 0.0455124 0.00398285)
(-0.00132773 0.0790396 0.00903858)
(-0.00314999 0.0792952 0.0107951)
(-0.00489588 0.0619661 0.00943456)
(-0.00652767 0.0362 0.00452698)
(-0.00813235 0.0129179 -0.00151384)
(-0.00970995 -0.00566514 -0.00584077)
(-0.0111387 -0.0217231 -0.00792759)
(-0.012442 -0.0370054 -0.00829122)
(-0.013642 -0.0522754 -0.00744078)
(-0.0146916 -0.0675638 -0.00589199)
(-0.0154883 -0.0823237 -0.00420878)
(-0.0159495 -0.0956445 -0.00285013)
(-0.0160791 -0.106712 -0.00198407)
(-0.0159623 -0.115251 -0.00150352)
(-0.0157095 -0.121499 -0.00121821)
(-0.015415 -0.125881 -0.000985929)
(-0.0151454 -0.128742 -0.000726866)
(-0.0149448 -0.130306 -0.0003945)
(-0.0148403 -0.130706 5.27491e-05)
(-0.0148405 -0.130004 0.000672177)
(-0.0149244 -0.128173 0.00155645)
(-0.0150184 -0.124968 0.00285423)
(-0.0149858 -0.119682 0.00476323)
(-0.014585 -0.110845 0.00739536)
(-0.0134695 -0.0964372 0.0103815)
(-0.0113854 -0.0752103 0.0125558)
(-0.00846706 -0.0482874 0.0125093)
(-0.00530637 -0.0196581 0.00979147)
(-0.00265158 0.00539591 0.00564728)
(-0.000933678 0.0232804 0.00217291)
(4.15238e-06 0.0331997 0.000558045)
(0.00041496 0.0363545 0.000363654)
(0.000552875 0.0337731 0.000799966)
(0.000306614 0.0192903 0.00119401)
(0.000367296 0.0444757 0.00172001)
(0.000540872 0.0816482 0.00547313)
(4.12364e-06 0.0850341 0.00634321)
(-0.00109842 0.0716927 0.00386339)
(-0.00268208 0.0493009 -0.00194981)
(-0.00419507 0.028163 -0.00795702)
(-0.00546805 0.0104195 -0.0119118)
(-0.00648529 -0.00529566 -0.013498)
(-0.00735902 -0.0205365 -0.0131185)
(-0.00821867 -0.0364977 -0.0111936)
(-0.00906892 -0.0536633 -0.00827067)
(-0.00978424 -0.071501 -0.00517193)
(-0.0102301 -0.0885107 -0.00274018)
(-0.0103653 -0.102987 -0.00134359)
(-0.0102375 -0.114029 -0.000771125)
(-0.00993521 -0.1218 -0.000617201)
(-0.00954357 -0.126971 -0.000597325)
(-0.00912435 -0.130127 -0.000580934)
(-0.00871833 -0.131609 -0.000522006)
(-0.00835327 -0.131591 -0.000409454)
(-0.00805084 -0.130172 -0.00024743)
(-0.00783305 -0.127452 -4.33123e-05)
(-0.0077249 -0.123588 0.000217927)
(-0.00772769 -0.118772 0.000629622)
(-0.00777918 -0.113039 0.00143804)
(-0.00772957 -0.10577 0.00307354)
(-0.00730227 -0.0951572 0.0059716)
(-0.00610732 -0.0784633 0.00991688)
(-0.00393813 -0.0541375 0.0134379)
(-0.00112758 -0.024346 0.0146247)
(0.00132688 0.00481817 0.0127531)
(0.00251901 0.026289 0.00925087)
(0.00241224 0.0366511 0.00653181)
(0.00153046 0.0369969 0.00509757)
(0.000359576 0.0228516 0.0031597)
(0.000486927 0.038391 -0.000248898)
(0.00198267 0.0770532 0.00147201)
(0.00271252 0.0843013 0.00178669)
(0.00278293 0.0774032 2.66276e-06)
(0.00228437 0.059298 -0.00454189)
(0.00144451 0.0384305 -0.00954235)
(0.000676287 0.0192751 -0.0130577)
(9.12136e-05 0.00239447 -0.0145292)
(-0.000370598 -0.0132046 -0.0140444)
(-0.000780393 -0.0289776 -0.0117824)
(-0.00112104 -0.0462062 -0.00814247)
(-0.00129431 -0.0650643 -0.00413902)
(-0.00128561 -0.0839654 -0.00108649)
(-0.00118389 -0.100498 0.000396248)
(-0.00104846 -0.113146 0.000652387)
(-0.000894898 -0.121897 0.00033964)
(-0.000732644 -0.127599 -0.000104441)
(-0.000571069 -0.131089 -0.0004984)
(-0.000415604 -0.132884 -0.000777744)
(-0.000265793 -0.133256 -0.000913929)
(-0.000116022 -0.132322 -0.000892554)
(4.03486e-05 -0.130077 -0.000713597)
(0.000205723 -0.126399 -0.00040087)
(0.000361187 -0.121081 -1.5736e-05)
(0.000456922 -0.113964 0.000347796)
(0.000433196 -0.105174 0.000646546)
(0.000265821 -0.0950596 0.00109458)
(6.54372e-05 -0.0833703 0.00234123)
(9.9021e-05 -0.068172 0.00524166)
(0.000650466 -0.0463032 0.00977588)
(0.00170655 -0.0172103 0.0138927)
(0.00260665 0.0129713 0.0149479)
(0.00251134 0.0343285 0.0129715)
(0.00152011 0.0407445 0.00982021)
(0.00033488 0.0264697 0.0049565)
(0.000370529 0.0293993 -0.0010679)
(0.0023788 0.0644182 -0.00140343)
(0.00423709 0.0763816 -0.00163991)
(0.00554307 0.0748896 -0.00275614)
(0.00636681 0.0643571 -0.0052332)
(0.00657213 0.0482149 -0.00830602)
(0.00633313 0.0305489 -0.0106883)
(0.00591813 0.0132511 -0.0115652)
(0.00552189 -0.00369695 -0.0104476)
(0.00539038 -0.0216267 -0.00722473)
(0.00573777 -0.0418344 -0.00272827)
(0.00649907 -0.0636651 0.00126181)
(0.00733211 -0.0843648 0.00332345)
(0.0079244 -0.101309 0.00345825)
(0.00820869 -0.113625 0.00256215)
(0.0082791 -0.121901 0.00143712)
(0.00824126 -0.127196 0.00044009)
(0.00815897 -0.130361 -0.0003549)
(0.0080622 -0.131909 -0.000961622)
(0.00796317 -0.132123 -0.00140706)
(0.00786388 -0.13116 -0.00171368)
(0.00775944 -0.129104 -0.00189257)
(0.00764134 -0.125969 -0.00193834)
(0.00750058 -0.121671 -0.00182754)
(0.00732304 -0.115958 -0.00152737)
(0.00706971 -0.108353 -0.00102329)
(0.0066694 -0.0982544 -0.00035217)
(0.00604583 -0.0853323 0.000448289)
(0.00517609 -0.0695875 0.00163746)
(0.00416823 -0.0503825 0.0040696)
(0.00330822 -0.0257772 0.00838995)
(0.00277291 0.0038587 0.0129129)
(0.00213511 0.0302356 0.0143937)
(0.00120743 0.0410977 0.0120863)
(0.000307085 0.0283943 0.00594671)
(-1.03058e-05 0.0231333 -0.000201676)
(0.0010261 0.0518545 -0.00116386)
(0.00260795 0.0643043 -0.00188291)
(0.00401721 0.0653619 -0.00269824)
(0.00516824 0.0592603 -0.00389403)
(0.00594943 0.0472651 -0.0052652)
(0.00626672 0.0321685 -0.00593366)
(0.006488 0.0154652 -0.00492479)
(0.00706425 -0.00353819 -0.00181554)
(0.00825445 -0.0259467 0.00246792)
(0.00986986 -0.0506415 0.00583528)
(0.0113869 -0.0741221 0.00678524)
(0.0123567 -0.0931688 0.00556572)
(0.0127016 -0.106809 0.00345308)
(0.0126237 -0.115964 0.00147799)
(0.0123526 -0.122046 -6.31403e-06)
(0.0120334 -0.126081 -0.00103618)
(0.0117419 -0.128609 -0.00173746)
(0.0115102 -0.129869 -0.00221553)
(0.0113438 -0.129955 -0.00253987)
(0.0112327 -0.128876 -0.00275173)
(0.0111573 -0.126575 -0.00287531)
(0.0110882 -0.122925 -0.00292836)
(0.0109841 -0.117723 -0.00293088)
(0.0107889 -0.110722 -0.0029073)
(0.0104372 -0.101751 -0.00286815)
(0.00987161 -0.0908041 -0.00276119)
(0.00905494 -0.0779404 -0.00242185)
(0.00796331 -0.0629195 -0.00155681)
(0.00658748 -0.0449267 0.000296633)
(0.00498666 -0.0226468 0.0037364)
(0.00339505 0.00412123 0.00846716)
(0.00197393 0.0296262 0.0117766)
(0.000938859 0.0405427 0.010981)
(0.000267766 0.0292209 0.00564072)
(-0.000262703 0.0221501 0.00127748)
(-0.000499082 0.0462427 0.00111185)
(-0.000201441 0.0556947 0.00036388)
(0.000237458 0.0562791 -0.000353923)
(0.000712534 0.0514153 -0.000905409)
(0.00116495 0.0411875 -0.000711469)
(0.00184122 0.0259785 0.00116479)
(0.00318303 0.0053123 0.00456176)
(0.00524493 -0.0200599 0.00769776)
(0.0075386 -0.0466212 0.00861889)
(0.00939164 -0.0699035 0.00693522)
(0.010434 -0.0873501 0.00392762)
(0.0107671 -0.0993396 0.00115921)
(0.0107134 -0.107758 -0.000716897)
(0.010529 -0.114155 -0.00181352)
(0.0103517 -0.119249 -0.00243577)
(0.0102366 -0.123194 -0.0028187)
(0.0101969 -0.125978 -0.00309435)
(0.0102229 -0.127579 -0.00332013)
(0.0103001 -0.127994 -0.00351232)
(0.0104136 -0.127217 -0.00366874)
(0.0105464 -0.125205 -0.0037808)
(0.0106757 -0.121843 -0.00384011)
(0.0107678 -0.116901 -0.00384504)
(0.0107716 -0.110002 -0.00381042)
(0.0106122 -0.100691 -0.00377794)
(0.0101926 -0.0886438 -0.0038003)
(0.00942064 -0.0739255 -0.00384187)
(0.00825297 -0.0568997 -0.00362212)
(0.00671419 -0.0376317 -0.00255969)
(0.0048966 -0.0154743 1.58057e-05)
(0.00301623 0.00945162 0.00404634)
(0.00137869 0.0320042 0.00749257)
(0.000440287 0.0403048 0.00758443)
(9.33062e-05 0.0292377 0.00406903)
(-0.00032453 0.0251011 0.00232797)
(-0.00141276 0.0486274 0.00323902)
(-0.002281 0.0559239 0.00303268)
(-0.00286204 0.0553688 0.00306944)
(-0.0031298 0.0486815 0.00407656)
(-0.00267511 0.0333979 0.00641907)
(-0.00119144 0.00989038 0.00880604)
(0.000986871 -0.0178335 0.00916215)
(0.00307239 -0.0439693 0.00683696)
(0.0044423 -0.0644812 0.00315453)
(0.00504454 -0.0790883 -3.33668e-05)
(0.0051946 -0.0899371 -0.00194077)
(0.00520354 -0.0989958 -0.00284208)
(0.00523573 -0.107019 -0.00326088)
(0.00533463 -0.113895 -0.00354003)
(0.00549289 -0.119369 -0.00380585)
(0.00568646 -0.123373 -0.00406235)
(0.0059002 -0.125984 -0.00428039)
(0.00612962 -0.127301 -0.0044375)
(0.0063727 -0.127376 -0.00452449)
(0.00662454 -0.126193 -0.00454114)
(0.00687439 -0.123656 -0.00449152)
(0.00710315 -0.11955 -0.00438311)
(0.00727973 -0.113495 -0.00423385)
(0.00735688 -0.104969 -0.00409073)
(0.00727163 -0.0935258 -0.00404633)
(0.00695451 -0.0791329 -0.00420172)
(0.00634829 -0.0623247 -0.00452119)
(0.00542914 -0.0438698 -0.00467881)
(0.00422382 -0.0241797 -0.00410149)
(0.00281688 -0.00323165 -0.00226865)
(0.00141359 0.0181112 0.000692173)
(0.000370098 0.0352416 0.00332265)
(-0.000134963 0.0405169 0.0038086)
(-0.000105637 0.0276536 0.00195498)
(-0.000237054 0.0289378 0.0029262)
(-0.00152489 0.0539206 0.00515734)
(-0.00279446 0.0592444 0.0060142)
(-0.00373832 0.0550261 0.00701013)
(-0.00412115 0.0406736 0.0084731)
(-0.00339452 0.0167572 0.0088758)
(-0.00211031 -0.0107962 0.00667159)
(-0.00107084 -0.0349958 0.00263345)
(-0.000606085 -0.0531846 -0.00104232)
(-0.000547632 -0.0670487 -0.00320885)
(-0.000593814 -0.0789672 -0.00415699)
(-0.000559602 -0.0898949 -0.00456595)
(-0.000402802 -0.0995886 -0.00485811)
(-0.000162247 -0.107645 -0.00514304)
(0.000102911 -0.11401 -0.00538515)
(0.00036822 -0.118873 -0.00554244)
(0.000634236 -0.122442 -0.00560618)
(0.000899927 -0.124843 -0.00558812)
(0.00116592 -0.126116 -0.00550389)
(0.0014319 -0.126243 -0.00536456)
(0.00169598 -0.125155 -0.00517422)
(0.00195438 -0.122711 -0.0049302)
(0.00220156 -0.118653 -0.00462568)
(0.0024307 -0.112538 -0.00426013)
(0.00263202 -0.103744 -0.00387223)
(0.00278651 -0.0916746 -0.00359474)
(0.00285045 -0.0761573 -0.00365207)
(0.00274573 -0.0578176 -0.00415904)
(0.00239461 -0.0378855 -0.00481298)
(0.00179594 -0.0174181 -0.00491781)
(0.00105712 0.00297329 -0.00389772)
(0.000337921 0.0219434 -0.00189353)
(-0.000119228 0.0354751 1.12102e-05)
(-0.000256167 0.0388583 0.000787402)
(-9.87499e-05 0.0252957 0.000421432)
(-0.00011175 0.0317471 0.00304302)
(-0.00107734 0.0587004 0.00625224)
(-0.00219154 0.0625989 0.00761945)
(-0.00305027 0.0545343 0.00829284)
(-0.00344728 0.0344233 0.00774574)
(-0.00322674 0.0084058 0.00486131)
(-0.00310387 -0.0158772 0.00066478)
(-0.00328188 -0.0353707 -0.00274133)
(-0.00354945 -0.0513561 -0.00467205)
(-0.00372349 -0.0654566 -0.0056077)
(-0.003748 -0.0781369 -0.00607061)
(-0.00364499 -0.0892791 -0.00631706)
(-0.00345737 -0.0988001 -0.00643968)
(-0.00321655 -0.106743 -0.00648173)
(-0.00293989 -0.113183 -0.00647421)
(-0.00264291 -0.118193 -0.00643472)
(-0.00234183 -0.121859 -0.0063672)
(-0.00205018 -0.124262 -0.00626755)
(-0.00177755 -0.125457 -0.00612849)
(-0.00152926 -0.125455 -0.0059412)
(-0.00130701 -0.124207 -0.00569382)
(-0.00110916 -0.121581 -0.00536826)
(-0.000929358 -0.117322 -0.00493697)
(-0.000753313 -0.110987 -0.00436691)
(-0.000556715 -0.101946 -0.0036527)
(-0.000310629 -0.0894996 -0.00289953)
(-8.85314e-06 -0.0732441 -0.00240739)
(0.000293105 -0.0536577 -0.00256265)
(0.000472932 -0.0323435 -0.00340507)
(0.000435422 -0.0112655 -0.00430281)
(0.000226816 0.00820327 -0.00440618)
(-9.21883e-06 0.0247177 -0.00349085)
(-0.000134298 0.0353663 -0.0022223)
(-0.000137649 0.0373969 -0.00122351)
(-4.79806e-05 0.0237231 -0.000433995)
(2.76185e-05 0.0322547 0.00259455)
(-0.000354847 0.0600769 0.00599401)
(-0.00101792 0.0632446 0.00726209)
(-0.00167128 0.0531146 0.00699911)
(-0.00225859 0.0312307 0.00459379)
(-0.00276632 0.00622946 0.000469017)
(-0.00339914 -0.015876 -0.00348278)
(-0.00400884 -0.034083 -0.0060795)
(-0.00447079 -0.0495657 -0.00739528)
(-0.00476178 -0.0633916 -0.0078754)
(-0.0048875 -0.0760346 -0.00791399)
(-0.00485957 -0.0874647 -0.00779986)
(-0.00470231 -0.0974051 -0.00769463)
(-0.00445543 -0.10563 -0.00763697)
(-0.00416041 -0.112128 -0.00759898)
(-0.00384987 -0.117049 -0.00754458)
(-0.00354523 -0.120578 -0.00745384)
(-0.00325969 -0.12286 -0.00732229)
(-0.00300114 -0.123976 -0.00715244)
(-0.00277402 -0.123948 -0.00694649)
(-0.00257997 -0.122743 -0.00670039)
(-0.00241725 -0.12026 -0.0063982)
(-0.002278 -0.116309 -0.00600574)
(-0.00214341 -0.110556 -0.00546566)
(-0.00197813 -0.102468 -0.00470732)
(-0.00172815 -0.0912825 -0.00370248)
(-0.00133183 -0.0761741 -0.00259879)
(-0.000774985 -0.0568813 -0.00183725)
(-0.000161889 -0.0345353 -0.00192852)
(0.000317116 -0.0116751 -0.00280946)
(0.000539898 0.0090537 -0.0036532)
(0.000532233 0.0256405 -0.00370756)
(0.000406585 0.0356903 -0.00303378)
(0.000242714 0.0374044 -0.00201357)
(4.84062e-05 0.0236566 -0.000666271)
(0.000131327 0.0306411 0.00180087)
(0.000401332 0.0587239 0.00471154)
(0.000393383 0.0626188 0.00559409)
(0.000156609 0.0542782 0.00478285)
(-0.000366818 0.0348448 0.00181224)
(-0.00108335 0.0124599 -0.00214461)
(-0.00184683 -0.00809402 -0.00542118)
(-0.00249291 -0.026057 -0.00731887)
(-0.00294518 -0.0422343 -0.00803403)
(-0.0031923 -0.0573177 -0.0080549)
(-0.00325173 -0.0713609 -0.00783922)
(-0.00316574 -0.0839688 -0.00767098)
(-0.0029869 -0.0947388 -0.00762541)
(-0.0027583 -0.103517 -0.00765213)
(-0.0025072 -0.110395 -0.0076817)
(-0.00225026 -0.115575 -0.00767443)
(-0.00199951 -0.119262 -0.00761959)
(-0.00176474 -0.121617 -0.00752172)
(-0.00155376 -0.122737 -0.00738934)
(-0.00137247 -0.122664 -0.00722898)
(-0.00122474 -0.121381 -0.00704132)
(-0.00111228 -0.118812 -0.00681728)
(-0.00103363 -0.114807 -0.00653234)
(-0.000981017 -0.109131 -0.0061387)
(-0.000934692 -0.101427 -0.00555856)
(-0.000856036 -0.0911497 -0.00469475)
(-0.000680768 -0.0775087 -0.00350487)
(-0.000336505 -0.0597201 -0.00218548)
(0.000184527 -0.0378511 -0.00131301)
(0.000735005 -0.0138469 -0.00145562)
(0.00107926 0.00884781 -0.00235805)
(0.00109162 0.0269826 -0.00304908)
(0.000850835 0.0377746 -0.00293507)
(0.000491824 0.0395937 -0.00210744)
(8.14961e-05 0.0250057 -0.00066941)
(0.000165975 0.0270654 0.00107226)
(0.000942104 0.0535986 0.00317048)
(0.00147587 0.0583546 0.00370222)
(0.00173576 0.0526701 0.00289427)
(0.00169903 0.0366668 0.00030314)
(0.00126035 0.0164438 -0.00298768)
(0.000670193 -0.00349434 -0.00566205)
(0.000135965 -0.0218028 -0.00717704)
(-0.000237165 -0.0386804 -0.00770293)
(-0.000428831 -0.0544631 -0.00770783)
(-0.000462743 -0.0690353 -0.00763205)
(-0.000390046 -0.0819543 -0.00770052)
(-0.000262382 -0.0928444 -0.00790763)
(-0.000113676 -0.101612 -0.00814411)
(4.05509e-05 -0.108411 -0.0083194)
(0.000195411 -0.113491 -0.00840028)
(0.000346866 -0.117081 -0.0083948)
(0.000490342 -0.119347 -0.00832721)
(0.000621765 -0.120394 -0.00822247)
(0.000736664 -0.120267 -0.00809876)
(0.000830818 -0.118959 -0.00796463)
(0.000900523 -0.116403 -0.00781694)
(0.000942739 -0.112472 -0.00763758)
(0.000955865 -0.106964 -0.00738782)
(0.00094143 -0.0995946 -0.00699808)
(0.000910808 -0.0899493 -0.00635902)
(0.000894901 -0.0774181 -0.00533762)
(0.000950483 -0.0611756 -0.00388301)
(0.00114181 -0.0405817 -0.00227725)
(0.00145423 -0.0163716 -0.00125257)
(0.00170229 0.00831404 -0.00133977)
(0.00164251 0.0289696 -0.00202118)
(0.00126112 0.0414251 -0.00229248)
(0.000710776 0.0435288 -0.00178915)
(0.000118454 0.0272845 -0.000568228)
(0.000102247 0.0230514 0.000643292)
(0.000974865 0.0468186 0.00192497)
(0.00179051 0.0524359 0.00217934)
(0.0024328 0.0491886 0.0014962)
(0.00290803 0.0377783 -0.00039769)
(0.00297145 0.0214001 -0.00281754)
(0.00281793 0.00354595 -0.00477412)
(0.00265703 -0.0143337 -0.00581679)
(0.00261023 -0.0319117 -0.00611414)
(0.00270592 -0.0488964 -0.00615434)
(0.00289109 -0.0646059 -0.00634992)
(0.00308518 -0.0782907 -0.00679893)
(0.00323565 -0.0895807 -0.00735154)
(0.00333355 -0.0985508 -0.00782297)
(0.00339558 -0.105498 -0.00811948)
(0.00344244 -0.110723 -0.00824039)
(0.00348823 -0.114449 -0.00823322)
(0.00353808 -0.116822 -0.00815486)
(0.00359018 -0.117932 -0.00805124)
(0.00363929 -0.117825 -0.00795165)
(0.00367876 -0.116496 -0.0078697)
(0.00370106 -0.11388 -0.00780583)
(0.0036973 -0.109853 -0.00774804)
(0.00365676 -0.104228 -0.00766875)
(0.0035666 -0.0967642 -0.00751635)
(0.00341682 -0.0871589 -0.0072029)
(0.0032067 -0.0750118 -0.00659555)
(0.00295438 -0.0597238 -0.00554173)
(0.00270583 -0.0405545 -0.00401485)
(0.00251662 -0.0173453 -0.00240836)
(0.002352 0.00797133 -0.00149287)
(0.00202495 0.0307892 -0.00150498)
(0.00146346 0.0453529 -0.0017062)
(0.000781719 0.0480282 -0.00143562)
(0.000118797 0.0299816 -0.000538117)
(-1.49184e-05 0.0200523 0.000526768)
(0.000498476 0.0402246 0.00119906)
(0.00112321 0.0451597 0.00117645)
(0.001739 0.0427379 0.000545809)
(0.00235243 0.0335044 -0.000841283)
(0.00275713 0.0191019 -0.00249994)
(0.003054 0.00216797 -0.00374823)
(0.0033763 -0.0157964 -0.00440838)
(0.00377023 -0.0338574 -0.00483484)
(0.00419012 -0.0509683 -0.00548219)
(0.00454033 -0.0660625 -0.00647355)
(0.00475947 -0.0785757 -0.0075806)
(0.0048532 -0.0885919 -0.00850861)
(0.00486681 -0.0965335 -0.0091022)
(0.00484883 -0.102809 -0.00935697)
(0.00483376 -0.107664 -0.00935415)
(0.00483877 -0.111207 -0.00920227)
(0.00486707 -0.113487 -0.00899804)
(0.00491383 -0.114535 -0.008807)
(0.00497106 -0.114366 -0.00866259)
(0.00502976 -0.11296 -0.00857411)
(0.00507985 -0.110248 -0.0085344)
(0.0051086 -0.106088 -0.00852341)
(0.00509918 -0.100275 -0.00850649)
(0.00502953 -0.0925498 -0.00842863)
(0.00487561 -0.0826224 -0.00820804)
(0.00461624 -0.070158 -0.00773335)