/*--------------------------------*- C++ -*----------------------------------*\
| =========                 |                                                 |
| \\      /  F ield         | OpenFOAM: The Open Source CFD Toolbox           |
|  \\    /   O peration     | Version:  v2006                                 |
|   \\  /    A nd           | Website:  www.openfoam.com                      |
|    \\/     M anipulation  |                                                 |
\*---------------------------------------------------------------------------*/
FoamFile
{
    version     2.0;
    format      ascii;
    class       volScalarField;
    location    "91";
    object      k;
}
// * * * * * * * * * * * * * * * * * * * * * * * * * * * * * * * * * * * * * //

dimensions      [0 2 -2 0 0 0 0];


internalField   nonuniform List<scalar> 
78750
(
1.75139
0.655348
0.318205
0.104851
0.0116853
0.000146136
0.00242511
0.00122974
0.00193819
0.00107938
0.00191328
0.00107693
0.00165325
0.00123113
0.00144882
0.00128682
0.00133652
0.00128303
0.00127453
0.00125094
0.00123221
0.00121283
0.00119365
0.00117421
0.00115416
0.00113321
0.00111119
0.00108785
0.00106135
0.0010295
0.000988713
0.000933783
0.000854324
0.000686469
0.000296355
0.0546692
0.00285118
0.00424231
0.000920755
0.00349436
0.00276074
0.00301061
0.00286811
0.00277308
0.00279924
0.00268554
0.00269094
0.00262768
0.0026069
0.00256964
0.00254439
0.00251861
0.00249726
0.00247864
0.00246297
0.00245003
0.00243976
0.0024314
0.00242454
0.00241907
0.00241523
0.00241377
0.00241533
0.00241927
0.00242339
0.00242188
0.00240028
0.00231258
0.00191052
0.00111828
0.00237236
0.000814577
0.000495373
0.000703878
0.000658134
0.00102582
0.00109502
0.00124286
0.0013398
0.00142395
0.00150655
0.0015772
0.00164509
0.00170541
0.00175457
0.00178635
0.00180447
0.00181522
0.00182299
0.00183046
0.00183923
0.00185033
0.00186372
0.00187928
0.0018969
0.00191644
0.00193782
0.00196085
0.00198532
0.00201098
0.00203718
0.00206257
0.00207896
0.00204622
0.00261389
0.000266465
0.000482362
0.000696555
0.000888066
0.00108369
0.00118149
0.00125024
0.00129994
0.00134237
0.00137424
0.00138753
0.0013785
0.00135189
0.00133072
0.00136062
0.00143901
0.00152179
0.001597
0.00166177
0.00171392
0.00175525
0.00178944
0.00182031
0.00185103
0.0018837
0.00191899
0.00195685
0.0019968
0.00203774
0.00207727
0.00210923
0.00211434
0.00202978
0.0018943
0.00334972
0.000614191
0.00136367
0.00164843
0.0017714
0.00180439
0.00176703
0.00170906
0.00166541
0.00163866
0.00161766
0.00159497
0.00156796
0.00154153
0.00152169
0.00151028
0.00150803
0.00151312
0.00152284
0.00153573
0.0015513
0.0015703
0.00159371
0.00162145
0.00165309
0.00168948
0.00173179
0.00177906
0.00183064
0.00188694
0.00195068
0.0020298
0.00213396
0.00224122
0.00243393
0.00455972
0.000988326
0.00166967
0.00179298
0.00178048
0.00165701
0.00150311
0.00142122
0.00139682
0.00139223
0.00139115
0.00139114
0.00139233
0.00139467
0.00139759
0.00140073
0.00140463
0.00140999
0.00141733
0.00142719
0.00144026
0.00145711
0.00147801
0.00150286
0.00153102
0.00156126
0.0015938
0.00162899
0.00166479
0.00169904
0.00173196
0.00177152
0.00184913
0.00204534
0.00254095
0.00528052
0.000938745
0.00201244
0.00232075
0.00240004
0.00230408
0.00204288
0.00175054
0.00152426
0.00138189
0.00130289
0.00126206
0.0012447
0.00124285
0.0012499
0.00126104
0.00127393
0.00128813
0.00130408
0.00132208
0.00134245
0.00136562
0.00139196
0.00142163
0.00145536
0.0014937
0.00153554
0.00157904
0.00162156
0.00165921
0.00168803
0.00170879
0.00176121
0.00204996
0.00287847
0.00605859
0.00117153
0.00266473
0.00306302
0.0031343
0.00307705
0.00287306
0.00256973
0.00224878
0.00197249
0.00175357
0.00157878
0.00144464
0.00135278
0.00129343
0.00125549
0.00123374
0.00122529
0.00122686
0.00123549
0.00124995
0.00126973
0.00129418
0.00132272
0.00135463
0.00139007
0.0014317
0.00148022
0.00153017
0.00157599
0.00161152
0.00163023
0.00165472
0.00196721
0.003066
0.00667154
0.00197421
0.00306783
0.00323576
0.00315998
0.00294004
0.00254896
0.00223568
0.00198519
0.00179392
0.00165999
0.00156781
0.00150239
0.00144871
0.00140218
0.00136319
0.00133176
0.00130788
0.00129152
0.00128269
0.00128134
0.00128736
0.00130048
0.00132028
0.00134608
0.00137675
0.00141023
0.00144885
0.00149674
0.00154784
0.00159278
0.0016213
0.00164404
0.00197238
0.00329907
0.00728977
0.00265253
0.00315647
0.00310969
0.00286943
0.00235274
0.00170053
0.00147337
0.00146779
0.0014711
0.00146363
0.00144913
0.00142969
0.00140842
0.00138724
0.00136741
0.00134977
0.00133507
0.00132403
0.00131725
0.0013153
0.00131861
0.00132742
0.00134179
0.00136142
0.00138546
0.00141202
0.00144206
0.00147939
0.00152248
0.00156487
0.00159798
0.00163643
0.00204131
0.00358033
0.00789626
0.00300891
0.00325418
0.00317069
0.00285939
0.00224069
0.00157559
0.00131868
0.00136563
0.0013963
0.00141255
0.00141936
0.00141861
0.00141241
0.00140324
0.00139309
0.00138352
0.00137538
0.00136926
0.00136566
0.00136518
0.00136839
0.00137571
0.00138744
0.0014036
0.00142368
0.00144642
0.00147211
0.0015032
0.00153966
0.00157756
0.00161095
0.0016624
0.00216107
0.00392077
0.00849119
0.00321186
0.00349135
0.00334453
0.00293535
0.00228857
0.00169104
0.00136201
0.00131221
0.00130817
0.0013168
0.00133584
0.00135699
0.00137469
0.00138641
0.0013924
0.00139449
0.0013947
0.0013946
0.00139522
0.0013972
0.00140111
0.00140745
0.00141654
0.00142842
0.0014429
0.00146031
0.00148156
0.00150746
0.0015384
0.0015747
0.00162315
0.00177595
0.00257297
0.00451981
0.0089312
0.00213441
0.00332457
0.00361366
0.00373287
0.00372992
0.00352068
0.00307354
0.00260407
0.00224615
0.00193295
0.00167566
0.00148595
0.00137029
0.00132271
0.00132398
0.00134955
0.00137917
0.00140093
0.00141382
0.00142203
0.00142929
0.00143722
0.00144625
0.00145658
0.00146859
0.00148272
0.00149885
0.00151656
0.0015357
0.00155782
0.00160744
0.00186295
0.00303054
0.00506473
0.00899726
0.00122321
0.00301214
0.00373523
0.00415205
0.00442668
0.0046263
0.004742
0.00469182
0.00445104
0.00410315
0.00368557
0.00321468
0.00271741
0.002228
0.00178835
0.00145187
0.00126344
0.0012181
0.0012626
0.00133542
0.00138944
0.00141792
0.00143399
0.00144742
0.00146143
0.00147673
0.00149258
0.00150778
0.00152183
0.0015372
0.00158337
0.00186905
0.00324558
0.00529273
0.0087878
0.000998284
0.00230572
0.00306566
0.00347742
0.00370446
0.00385219
0.00397839
0.00412244
0.00428205
0.00441891
0.00448777
0.00444636
0.00427362
0.00396884
0.00354616
0.00303077
0.00245507
0.00186786
0.00140035
0.00118459
0.00116536
0.0012385
0.00132233
0.00137961
0.00141385
0.00143788
0.00145892
0.00147824
0.00149468
0.001507
0.00153122
0.00172294
0.00293579
0.00505773
0.00864354
0.0019532
0.00342516
0.00408893
0.00439571
0.00451995
0.00452936
0.00444191
0.00426295
0.00401197
0.0037481
0.00355945
0.00351325
0.00360014
0.00372325
0.00378464
0.00372009
0.0034793
0.00304138
0.00243971
0.00182783
0.00141662
0.00125646
0.00123559
0.00127804
0.0013358
0.00138242
0.00141665
0.00144482
0.00147311
0.00150246
0.00153332
0.00164273
0.00256722
0.00472761
0.008786
0.00371079
0.00464347
0.0048199
0.00481417
0.00474474
0.00461473
0.00444677
0.00433533
0.00427288
0.00413531
0.0038612
0.00350768
0.00324235
0.00315642
0.00316917
0.0031966
0.00319736
0.00309493
0.00274481
0.00219263
0.00168076
0.00138243
0.00128835
0.00127802
0.00129921
0.00133456
0.00137007
0.00140187
0.0014346
0.00147623
0.00153646
0.00167827
0.00249272
0.00464853
0.00920732
0.00460957
0.00457359
0.00445151
0.0043283
0.00412855
0.00377134
0.00336579
0.0032214
0.00333666
0.00345289
0.00348454
0.00343402
0.00331727
0.0031857
0.00308189
0.0029985
0.00290679
0.00275858
0.00246221
0.00201082
0.00160127
0.0013887
0.0013261
0.00132011
0.00133544
0.00136044
0.00138827
0.00141627
0.00144606
0.0014823
0.00153342
0.00170735
0.00270257
0.00494926
0.0096648
0.00428626
0.00463563
0.00469946
0.00464125
0.0044328
0.00400611
0.00354191
0.00332483
0.00331515
0.00334401
0.00336441
0.00336509
0.00333526
0.00326494
0.00315389
0.0030107
0.00283115
0.00258691
0.00223885
0.00181983
0.00149839
0.00136259
0.00133056
0.00133471
0.00135347
0.0013792
0.00140795
0.00143931
0.00147766
0.00153509
0.0016428
0.00199372
0.00336993
0.00563019
0.0100406
0.00371363
0.00454727
0.00469402
0.0046734
0.00454432
0.00427118
0.00389631
0.00363167
0.00353576
0.00351
0.00349798
0.0034803
0.00344757
0.00339192
0.00330477
0.00317457
0.00298444
0.00271094
0.00233731
0.00191094
0.00157985
0.00142765
0.00138192
0.00137567
0.00138443
0.00140043
0.0014203
0.00144417
0.00147819
0.00154162
0.00169254
0.00226556
0.00412511
0.00637759
0.0104479
0.00376677
0.00454309
0.00469679
0.00468435
0.00457089
0.00431262
0.00386547
0.00348487
0.00342934
0.00349624
0.00354511
0.003561
0.00355065
0.00351508
0.00345032
0.00334723
0.00318646
0.00293306
0.00255369
0.00209252
0.00171264
0.00152274
0.00145652
0.00143634
0.00143292
0.00143782
0.00144812
0.00146456
0.00149647
0.0015805
0.00183497
0.00269685
0.00486955
0.00708346
0.0109732
0.00410928
0.00476373
0.00486079
0.00480912
0.00463891
0.00429917
0.00380044
0.00330086
0.00319278
0.00335174
0.00349286
0.00356884
0.0036016
0.00360309
0.00357437
0.00350981
0.00339511
0.00320002
0.00288144
0.00244839
0.00204324
0.00178785
0.00166044
0.00159735
0.00156119
0.00153733
0.00152065
0.00151083
0.00151684
0.00158362
0.00188244
0.00297109
0.00537955
0.00761324
0.0115225
0.00416974
0.00484434
0.00487854
0.00476217
0.00452251
0.0041538
0.00375407
0.00334387
0.0031271
0.00325103
0.003439
0.00356378
0.00363406
0.00366635
0.00366505
0.00362641
0.00353817
0.00337159
0.00307371
0.00260892
0.00211108
0.00181295
0.0016915
0.00163927
0.00161107
0.00159268
0.00157857
0.00156797
0.00157296
0.00165861
0.00204468
0.00331167
0.00581131
0.00807089
0.0120766
0.00422659
0.00503791
0.00502395
0.00483937
0.00452235
0.00414405
0.00385423
0.00351103
0.0031222
0.00306513
0.00327704
0.00348282
0.00361914
0.0037035
0.00374857
0.00375571
0.0037187
0.00362175
0.00343185
0.00310056
0.00263344
0.00219109
0.00192433
0.00179384
0.00172153
0.00167316
0.00163757
0.00161128
0.00160728
0.00171807
0.0022346
0.00366524
0.00617004
0.00843835
0.0125074
0.00501258
0.00532793
0.00507299
0.00470591
0.00415059
0.00365999
0.003573
0.00349581
0.003199
0.00296647
0.00310799
0.00337465
0.00356361
0.00369164
0.00378904
0.00385827
0.00389306
0.00388699
0.00383327
0.00371331
0.00348283
0.0031229
0.0027077
0.00235629
0.00211117
0.00194421
0.00182328
0.00173102
0.00167316
0.00176347
0.00240833
0.00403518
0.00646401
0.00868895
0.0127575
0.00598537
0.00538485
0.00485217
0.00424771
0.00331787
0.00268514
0.00284472
0.00304613
0.00302414
0.00294435
0.00309254
0.00334374
0.00353446
0.00367102
0.00378215
0.00387376
0.00393738
0.00396475
0.00394599
0.00385755
0.00366642
0.00336706
0.00301861
0.00270621
0.00246129
0.00226818
0.00210593
0.00196169
0.00184174
0.00187652
0.00256872
0.00438625
0.00670777
0.00885557
0.0128768
0.00619076
0.00520451
0.00463195
0.00390484
0.00274147
0.00201134
0.00235362
0.00264477
0.00273347
0.00287781
0.00313732
0.00333969
0.00347527
0.00357581
0.00365432
0.00371152
0.00374243
0.00373982
0.00369532
0.00360217
0.00345965
0.00327958
0.00308638
0.00290262
0.0027352
0.00257905
0.00242584
0.0022674
0.00210888
0.00207973
0.00273817
0.00469618
0.00691061
0.00896664
0.0128553
0.00563444
0.00505074
0.0046615
0.00403721
0.00284967
0.0015517
0.00170115
0.00224733
0.00243313
0.00259492
0.00284871
0.00303936
0.00316515
0.00325967
0.00333341
0.00338704
0.00341884
0.00342744
0.00341222
0.0033738
0.00331502
0.00324113
0.0031584
0.00307109
0.00297938
0.00287971
0.00276596
0.00262963
0.0024672
0.00236607
0.00284955
0.0047649
0.00696196
0.00898033
0.0127481
0.00563192
0.00519147
0.0048601
0.00429854
0.00316614
0.00146073
0.000825861
0.00163446
0.00206201
0.00231067
0.00255981
0.0027608
0.00288413
0.00297627
0.00305356
0.00311737
0.00316709
0.00320317
0.00322668
0.00323904
0.00324163
0.00323598
0.00322304
0.00320247
0.00317199
0.00312711
0.00306084
0.00296292
0.00282198
0.00268169
0.00296678
0.00467378
0.00692359
0.00897901
0.0127201
0.00512256
0.00491392
0.00474587
0.00436529
0.00359128
0.00230688
0.000908205
0.000878642
0.00134979
0.00180964
0.00216391
0.00238624
0.00254162
0.0026681
0.00277757
0.00287214
0.00295268
0.00302095
0.00307889
0.00312892
0.00317331
0.0032129
0.00324767
0.00327652
0.00329664
0.00330299
0.00328788
0.00324028
0.00314621
0.00302607
0.00321124
0.0046854
0.00694663
0.00904593
0.0127853
0.00431039
0.0050679
0.00526174
0.00528588
0.00517643
0.00471105
0.00350326
0.0018603
0.00103734
0.000858008
0.00115361
0.00156157
0.00188513
0.00212119
0.00230915
0.00246882
0.00260571
0.00272405
0.00282787
0.00292086
0.00300604
0.00308576
0.00316144
0.00323263
0.00329643
0.0033496
0.00338541
0.00339278
0.00335725
0.00328947
0.00347093
0.00483259
0.0070607
0.00916395
0.0128851
0.00375822
0.0051285
0.00541967
0.00547422
0.00548855
0.00554566
0.00562183
0.00520674
0.00396842
0.00251769
0.00131865
0.000681989
0.000658379
0.00100373
0.00140698
0.00174522
0.00201167
0.0022206
0.00239345
0.00254378
0.00267936
0.00280515
0.00292477
0.00304052
0.00315282
0.00325938
0.00335441
0.00342827
0.00346917
0.00348242
0.00368775
0.00497289
0.00717377
0.00928653
0.0130681
0.0043127
0.00535688
0.00543765
0.00529296
0.00502967
0.00467378
0.00457497
0.00511158
0.0056945
0.00566234
0.00485079
0.0035183
0.00206608
0.000833378
0.000209218
0.000353753
0.000830699
0.00130902
0.00168153
0.00195253
0.00216645
0.00235461
0.00253024
0.00269971
0.00286594
0.00302858
0.00318383
0.00332647
0.00345341
0.00358168
0.00391365
0.00520301
0.00737035
0.00950172
0.0133974
0.00586001
0.0059958
0.00572901
0.00544677
0.0050983
0.00464071
0.00415794
0.00394307
0.00439391
0.00508211
0.0055112
0.00559423
0.00517353
0.00406852
0.002613
0.0010038
0.00024762
5.73205e-05
0.00046863
0.00101577
0.00143435
0.00174222
0.00199348
0.00221968
0.00244066
0.00266527
0.00289338
0.00311959
0.00334511
0.0036128
0.00416779
0.00557984
0.0076708
0.00976904
0.0136635
0.00683859
0.00607069
0.00563217
0.00526305
0.00480448
0.00433703
0.00427145
0.00448086
0.00461356
0.00482051
0.00509366
0.00530522
0.00541768
0.00539763
0.00506366
0.00406873
0.00247657
0.000899075
0.000260029
5.96693e-05
0.000433495
0.000920798
0.00130507
0.00162502
0.00192302
0.002218
0.00252009
0.00282919
0.00314338
0.00351534
0.00426703
0.00596319
0.00802391
0.0100465
0.0138409
0.00611085
0.00555261
0.00532531
0.0050124
0.00447107
0.00369041
0.00320391
0.00364735
0.00436392
0.00485242
0.00514222
0.00531643
0.00540874
0.00543535
0.0054039
0.00527766
0.0048579
0.00370737
0.00187621
0.000355663
0.000122944
0.000187436
0.000612783
0.00103413
0.00140334
0.00175426
0.00211713
0.00250675
0.00291761
0.00335518
0.00407391
0.00586241
0.00805705
0.0101244
0.0140514
0.00583151
0.00590274
0.00583956
0.00559887
0.00510135
0.00420682
0.00303049
0.0026022
0.00317496
0.00394466
0.00456945
0.00500988
0.00529571
0.00545375
0.00550836
0.00548377
0.00538754
0.00514892
0.00441474
0.0027456
0.000810805
6.91379e-05
4.66617e-05
0.000416545
0.000833693
0.00122945
0.00163054
0.0020756
0.00258582
0.00313455
0.00382601
0.00551531
0.00797353
0.0103238
0.0148202
0.00606489
0.00578679
0.00575142
0.0056691
0.00543858
0.00494684
0.00411239
0.00314926
0.00278665
0.00302254
0.00351638
0.00405092
0.00452015
0.00488683
0.00514066
0.00528195
0.00532052
0.0052661
0.00508195
0.00449418
0.00317676
0.00167505
0.00058662
0.000264689
0.000455842
0.000816666
0.00123057
0.00170896
0.00232469
0.00306438
0.00383585
0.00537804
0.00800653
0.0106564
0.015795
0.00538904
0.00535348
0.00567659
0.00590744
0.0060465
0.00604311
0.00577299
0.00502185
0.00389562
0.00304414
0.00270994
0.0027984
0.00312098
0.0035211
0.00390068
0.00420605
0.00441192
0.00449711
0.00436908
0.00372662
0.00238138
0.000908519
0.000182592
0.000187346
0.000470084
0.000806062
0.00114546
0.00150733
0.00199774
0.00279201
0.00373461
0.00529241
0.00806502
0.0110805
0.0171626
0.0041438
0.00523396
0.00582777
0.00612627
0.00631871
0.00644866
0.00648995
0.00632146
0.0056991
0.00462123
0.00346153
0.00254331
0.00200208
0.00178175
0.00173269
0.0016841
0.00152624
0.00128242
0.00102655
0.000794994
0.000570875
0.000434729
0.000491838
0.000682438
0.000932186
0.00122959
0.00160837
0.002093
0.00261526
0.00334909
0.004659
0.00667076
0.00936216
0.0124828
0.0189457
0.00398459
0.00513987
0.0055778
0.00575557
0.00585793
0.00596544
0.00613874
0.00640274
0.00667157
0.00669154
0.0062187
0.00526282
0.00405711
0.00284169
0.00181809
0.00111546
0.000716018
0.000520082
0.000445392
0.000374239
0.000347134
0.000422985
0.000587952
0.000799484
0.00104363
0.0013537
0.00184766
0.00276109
0.00398483
0.00493036
0.00629915
0.00848917
0.0107138
0.0132984
0.0183041
0.00507818
0.00553303
0.00577659
0.00590905
0.0059649
0.00594515
0.00585332
0.00573951
0.00574092
0.00602622
0.00657399
0.00712662
0.00740291
0.00717736
0.00630951
0.00492519
0.0032326
0.00133155
0.000296631
0.000143534
1.21856e-05
0.000145024
0.000291576
0.000451574
0.000682418
0.00104497
0.00164397
0.00279986
0.00481144
0.00663388
0.00788151
0.00956024
0.0111039
0.0128506
0.0156534
0.00614649
0.00616689
0.00624363
0.00631922
0.00639154
0.0064488
0.0064608
0.00636073
0.0060446
0.00549372
0.00495295
0.00477127
0.00499904
0.00536611
0.00563623
0.00570566
0.00534832
0.00400872
0.00151145
3.3107e-05
0.000226255
7.98551e-05
0.000189296
0.000141888
0.000412954
0.000777971
0.00136572
0.00245996
0.00460462
0.00748224
0.00921678
0.0102855
0.0112121
0.0122438
0.0136749
0.00600493
0.00580417
0.00581759
0.00584753
0.00587462
0.00590924
0.00598656
0.00617057
0.00647972
0.0067637
0.00678238
0.00643556
0.0058803
0.00539548
0.00510094
0.0049389
0.00480138
0.00448925
0.0032224
0.000686705
0.000151149
0.000180493
3.50744e-05
0.000146613
0.000189091
0.000582181
0.00108162
0.00186802
0.00338471
0.00621707
0.00920836
0.0105471
0.0112385
0.011857
0.0132558
0.00646157
0.00606125
0.00601027
0.00600532
0.00598362
0.00590944
0.00575218
0.00553023
0.00539784
0.00557705
0.00601904
0.00642921
0.00662368
0.00656288
0.0062904
0.00593034
0.00557325
0.0051916
0.00458888
0.00300072
0.000578072
0.000278401
0.00027388
7.03735e-05
0.000142509
0.000227279
0.000692444
0.00129592
0.00212122
0.00370518
0.00658335
0.0090279
0.0102617
0.011221
0.0142526
0.00673832
0.00610368
0.00599537
0.00597363
0.00596746
0.00595799
0.00594593
0.00593045
0.00585583
0.00571424
0.00564916
0.00573679
0.00588959
0.00601465
0.00606666
0.00602027
0.00585939
0.00557142
0.00509703
0.00420141
0.00219341
0.000103507
0.000150954
0.000137485
5.2537e-05
0.000103171
0.000585221
0.00128854
0.00201235
0.00277968
0.00443183
0.00715814
0.00919287
0.0110865
0.0159053
0.00611726
0.00582033
0.00576861
0.00572252
0.0056379
0.00549111
0.00531302
0.00525394
0.00544333
0.005764
0.00602167
0.00616616
0.0062384
0.00627216
0.00627136
0.00622546
0.00612005
0.00593592
0.00563343
0.00509091
0.00395532
0.00160626
0.000458305
1.36537e-05
0.000197948
3.05566e-05
0.000584765
0.0015274
0.00263952
0.00354246
0.00461984
0.00690878
0.00913993
0.0114645
0.0163172
0.00638914
0.0062107
0.00614516
0.00608646
0.00599194
0.00580918
0.00547928
0.00502122
0.00466599
0.00469508
0.00505348
0.00548394
0.0058387
0.00609428
0.00625978
0.0063418
0.00634196
0.0062575
0.00607587
0.00575407
0.00514265
0.00384207
0.00171913
0.000317012
0.000369126
0.000265359
0.00040799
0.00132803
0.00267157
0.00409345
0.005459
0.00742805
0.00936726
0.0114315
0.0153498
0.00643803
0.00603557
0.00592454
0.00584774
0.00575136
0.00560811
0.00541768
0.00517222
0.00484227
0.00456532
0.00455583
0.00480362
0.00514911
0.00548075
0.00576054
0.00597572
0.00611529
0.00616616
0.00611156
0.00591873
0.00549267
0.0046009
0.00294949
0.00110374
0.000158928
5.91581e-05
0.000420681
0.00118772
0.00235022
0.00380725
0.0054937
0.00750853
0.00925373
0.0110848
0.0147617
0.00627221
0.00611539
0.00604324
0.00594144
0.0057738
0.00549414
0.00512221
0.00477672
0.00448469
0.00421321
0.00404694
0.00409318
0.0043199
0.00462901
0.00495094
0.00524602
0.00548351
0.00563087
0.00564493
0.00545418
0.00494259
0.0040133
0.00269112
0.00128798
0.000466546
0.000371504
0.000726061
0.00152278
0.00277968
0.00414988
0.00565456
0.00754544
0.00917388
0.0109492
0.0146068
0.0066099
0.00635419
0.00622233
0.00611015
0.00595394
0.00569286
0.00531066
0.00487294
0.00443379
0.00399579
0.00360084
0.00337104
0.0033666
0.00353272
0.00379751
0.0041091
0.0044164
0.0046557
0.00476561
0.00469568
0.00439093
0.00378922
0.00292051
0.00197787
0.00126517
0.000972962
0.00108219
0.00173027
0.00319116
0.00508817
0.00670881
0.00819704
0.00948555
0.0109818
0.0138516
0.00677884
0.00622803
0.00600594
0.00585091
0.0056575
0.00537162
0.00504515
0.00477178
0.00451815
0.00419553
0.00375827
0.00327494
0.00290425
0.0027353
0.00274752
0.00290267
0.00317998
0.00354811
0.00392389
0.00419674
0.00429101
0.00416792
0.0038105
0.00326245
0.00267464
0.00221416
0.00195039
0.00199671
0.00276477
0.00463525
0.00689951
0.00859639
0.00968347
0.0108209
0.0130499
0.00699197
0.0064018
0.00617577
0.00601038
0.005783
0.00540859
0.00493239
0.00454539
0.00432082
0.00417563
0.00399526
0.00370685
0.00334368
0.0030134
0.00277213
0.00261744
0.00254082
0.00257197
0.00279156
0.00320437
0.00365125
0.00399095
0.00416226
0.00415017
0.00398243
0.0037254
0.00343742
0.00315895
0.00304547
0.00365239
0.00542121
0.00747987
0.00890204
0.0102192
0.0133841
0.0070719
0.00631217
0.00606545
0.00590465
0.00568979
0.00533416
0.00485836
0.00439542
0.00402942
0.00376234
0.00355167
0.00334253
0.00310256
0.00285473
0.00263382
0.00245203
0.00230304
0.00218943
0.00221188
0.00262726
0.00329777
0.00395425
0.00445777
0.00478281
0.00494272
0.00495884
0.00484997
0.00462233
0.0042771
0.00402889
0.0046988
0.00645327
0.00826301
0.0102541
0.0153152
0.00699948
0.0062347
0.00600882
0.00585685
0.00564029
0.00527316
0.00479246
0.00435653
0.00400311
0.00368261
0.00336334
0.00303965
0.00272739
0.00245714
0.00223852
0.00205778
0.00189387
0.00174817
0.00182674
0.0025732
0.00356722
0.00439552
0.00499539
0.00541653
0.00570548
0.00587503
0.00591471
0.00580059
0.00550989
0.00520441
0.00560745
0.00716489
0.00901795
0.0113971
0.0173552
0.00694541
0.00624692
0.00605608
0.00592979
0.00573383
0.00536071
0.00480125
0.00426044
0.00387723
0.00358696
0.00329899
0.00297225
0.00261822
0.0022845
0.00200171
0.00176196
0.00154082
0.00136102
0.00157898
0.00275331
0.00405528
0.00494782
0.00554631
0.00598805
0.00634921
0.00665087
0.00685825
0.00688995
0.0067638
0.0067757
0.0074511
0.00886525
0.0103862
0.0124648
0.0173753
0.00685142
0.00615249
0.00597675
0.00587362
0.00572058
0.00541963
0.00491243
0.00431116
0.00381182
0.00344243
0.00312366
0.00279332
0.00244299
0.00210705
0.00180865
0.00154028
0.00127708
0.00105024
0.00127039
0.00268498
0.00432023
0.0053084
0.00593359
0.00640814
0.00684155
0.00729009
0.00774207
0.00804469
0.00813762
0.00835858
0.00908802
0.0101665
0.0112363
0.0126953
0.0158641
0.00679599
0.0061113
0.00592638
0.00581723
0.00567054
0.00540848
0.00497961
0.00442951
0.003905
0.00348373
0.00312666
0.00277468
0.00240769
0.0020538
0.00173446
0.00144373
0.00114705
0.00083652
0.000811915
0.00201663
0.00402027
0.00527949
0.00602597
0.00656487
0.00704581
0.00755489
0.00816377
0.00880759
0.00925372
0.00959294
0.0101326
0.0108054
0.0114605
0.0123903
0.0148859
0.00693247
0.00612705
0.00589284
0.00575844
0.00560145
0.00535667
0.00497878
0.00448694
0.00398004
0.0035397
0.00315778
0.00279085
0.00241849
0.00205593
0.00172488
0.00142124
0.0011051
0.000735947
0.00047198
0.00119154
0.00332646
0.00496255
0.00588762
0.00651196
0.00702607
0.007516
0.0080642
0.0087982
0.00963671
0.0103105
0.0108396
0.0112759
0.0116725
0.0123805
0.0154262
0.00698549
0.00600905
0.00571991
0.00555138
0.00537793
0.00516243
0.00486293
0.00446925
0.00403055
0.00361082
0.00322279
0.0028423
0.00245625
0.00208035
0.00173957
0.00142759
0.00109939
0.000699692
0.000312438
0.000658639
0.00267102
0.00474065
0.00582352
0.00648531
0.0070247
0.00755653
0.00807007
0.00865647
0.00953812
0.0104858
0.0111906
0.0116712
0.0121015
0.0129777
0.0168878
0.00700117
0.00593007
0.00560474
0.00540517
0.00521467
0.00502114
0.00477838
0.00446399
0.00409619
0.00371155
0.00332952
0.00294296
0.00254118
0.00214456
0.00178482
0.00145727
0.00111237
0.000689016
0.00025434
0.000429264
0.00229329
0.00490454
0.00622196
0.00680021
0.00723609
0.00783666
0.0086488
0.00930731
0.00990266
0.0105972
0.0112235
0.0117533
0.0123291
0.0134483
0.0173244
0.00682257
0.00573239
0.0053949
0.0051756
0.00498386
0.00483378
0.00466364
0.00443578
0.00415126
0.0038236
0.00346927
0.00309
0.0026863
0.00227978
0.001905
0.001563
0.0012059
0.000770183
0.000297874
0.000286052
0.0018112
0.00488568
0.00709741
0.007788
0.00795496
0.00827165
0.00931389
0.0105853
0.0113056
0.0117051
0.0120017
0.0122879
0.0126704
0.01346
0.0156509
0.0065506
0.00557306
0.00526122
0.0050404
0.00484672
0.00472682
0.00461854
0.00446616
0.00425785
0.00399475
0.00368494
0.00333406
0.00294734
0.00254525
0.00216428
0.00181667
0.00146572
0.00104849
0.000545643
0.00021006
0.00088249
0.00341404
0.00678151
0.00892223
0.00949845
0.00938391
0.00963704
0.0107506
0.0119347
0.0126984
0.0131093
0.0133037
0.0133706
0.0133395
0.0131413
0.00621291
0.0054278
0.00516067
0.00494891
0.00474194
0.00462188
0.0045554
0.00446746
0.00433242
0.00414504
0.00390615
0.00361805
0.00328481
0.00292131
0.00256039
0.00222963
0.00191324
0.00155753
0.00110865
0.000589214
0.000341513
0.00120677
0.00375188
0.00713942
0.00986246
0.0110681
0.011116
0.0110161
0.0112881
0.0118037
0.0123074
0.0126303
0.0126842
0.012264
0.0111466
0.00597305
0.00536633
0.00513672
0.00494007
0.00472215
0.0045769
0.00452467
0.00448488
0.00441433
0.00429911
0.0041348
0.00392062
0.00365788
0.00335445
0.00303327
0.00272814
0.00245316
0.00217695
0.00184516
0.00141297
0.000898108
0.000566822
0.00107484
0.00298484
0.00605045
0.00928416
0.0116215
0.0125022
0.0123518
0.0119145
0.0115465
0.0112944
0.0110233
0.0105349
0.01009
0.00584868
0.00533786
0.00512084
0.00493698
0.00472664
0.00456035
0.00449298
0.0044703
0.00444152
0.00438458
0.00428998
0.00415294
0.0039712
0.00374638
0.00348923
0.00322738
0.00299052
0.00277887
0.00255993
0.00228831
0.00191933
0.00144688
0.00101272
0.00104519
0.00210389
0.00439181
0.00749117
0.0105309
0.0126423
0.0133947
0.0131723
0.0125249
0.0117896
0.0110369
0.0102954
0.0058409
0.00531273
0.00507591
0.00489404
0.0047125
0.00458047
0.00452517
0.00451295
0.0045051
0.00448081
0.00443015
0.0043477
0.00423014
0.00407561
0.00388612
0.00367736
0.00347786
0.00330725
0.00315988
0.00301216
0.00282928
0.00257051
0.00220758
0.00177792
0.0014803
0.0017078
0.00285273
0.00501167
0.00790302
0.0109011
0.013068
0.0140093
0.0141491
0.0137929
0.0113185
0.00591318
0.00528265
0.00500194
0.00480092
0.00462897
0.00453995
0.00451866
0.00452563
0.00453505
0.00453296
0.00451157
0.00446633
0.00439444
0.00429323
0.00416175
0.0040071
0.00384977
0.00371323
0.00360731
0.00352711
0.00345715
0.00337428
0.00325134
0.00305723
0.00276998
0.00241678
0.00213407
0.00220093
0.00299257
0.0048949
0.00778853
0.0107069
0.0126598
0.0133151
0.0117816
0.00596798
0.00521726
0.00490226
0.00468442
0.00451405
0.00446574
0.00449286
0.00453254
0.00456185
0.00457469
0.00456808
0.0045399
0.00448892
0.00441416
0.00431441
0.0041925
0.00406131
0.00394384
0.00385646
0.00380352
0.00377909
0.00377306
0.00377356
0.00376548
0.00372316
0.00360501
0.00337688
0.00305321
0.00273048
0.00269388
0.00375586
0.00539115
0.00702087
0.00831556
0.012864
0.00598739
0.00515858
0.00483235
0.00459989
0.00439771
0.00433709
0.00438282
0.00444964
0.00450321
0.00453602
0.00454614
0.00453249
0.00449443
0.00443182
0.00434426
0.00423321
0.0041078
0.00398907
0.00389919
0.00384771
0.00383132
0.003844
0.00388019
0.00393398
0.00398909
0.00405354
0.00417015
0.00432101
0.00437962
0.00423364
0.0042944
0.00341905
0.00376395
0.00707621
0.0179176
0.00598454
0.00513659
0.00481739
0.00457669
0.004335
0.00423508
0.00427518
0.00435287
0.00441967
0.00446369
0.00448234
0.00447457
0.00443982
0.00437751
0.00428716
0.00416931
0.00403146
0.00389486
0.00378614
0.00371889
0.00368984
0.0036921
0.00372452
0.00379467
0.00398132
0.00443951
0.00510353
0.00573237
0.00609207
0.00599788
0.00531103
0.00396538
0.00599894
0.0113173
0.0225068
0.00601884
0.00518729
0.00485901
0.00458942
0.00428746
0.00411712
0.0041293
0.00421179
0.00429357
0.00435228
0.0043826
0.00438273
0.00435181
0.00428897
0.00419263
0.00406211
0.00390308
0.00373818
0.00359902
0.00350333
0.00344662
0.0034228
0.00344968
0.00364178
0.00430949
0.00544767
0.00646658
0.00710204
0.0073203
0.00705418
0.0064839
0.00674268
0.00948288
0.0139277
0.0211507
0.00617513
0.00532894
0.00494652
0.0046163
0.00425853
0.00405221
0.00403391
0.00410647
0.00419009
0.00425469
0.00429182
0.00429837
0.00427255
0.00421275
0.00411628
0.00398018
0.00380688
0.00361706
0.00344541
0.00331585
0.00322531
0.00317208
0.00321142
0.00358128
0.00472087
0.00645747
0.00761733
0.00803356
0.00814263
0.00809748
0.00822149
0.00921516
0.0111745
0.0136994
0.0160552
0.00648235
0.00551913
0.00501099
0.00455597
0.00410752
0.00392244
0.00392596
0.00400906
0.00410241
0.00417597
0.0042222
0.00423841
0.00422267
0.00417295
0.00408604
0.00395716
0.00378583
0.00358874
0.00339936
0.00324563
0.00312729
0.00304117
0.00303666
0.00333693
0.00443645
0.00650845
0.00827429
0.00878541
0.0088608
0.00903903
0.00949289
0.0103291
0.0113964
0.0125209
0.0126408
0.00699989
0.00575546
0.00506216
0.00443292
0.00386921
0.00375245
0.00382758
0.00393759
0.00404029
0.00412108
0.00417557
0.00420192
0.00419843
0.00416321
0.00409341
0.00398419
0.00383335
0.00365054
0.0034629
0.0033006
0.00316992
0.00306202
0.00298892
0.00306209
0.0036458
0.00527548
0.00763464
0.00912857
0.00948346
0.00969335
0.0100944
0.0106161
0.0111287
0.0115554
0.0114642
0.0075062
0.00586606
0.00500208
0.0042081
0.00351946
0.00347192
0.00365423
0.0038251
0.00395696
0.00405465
0.00412263
0.00416267
0.00417478
0.00415802
0.00411011
0.00402731
0.00390698
0.0037539
0.0035875
0.0034365
0.00331519
0.00321676
0.00312853
0.00306797
0.00318115
0.0038873
0.00566851
0.00802914
0.00950609
0.00999265
0.0103239
0.0106331
0.0108807
0.0110745
0.0114731
0.0077007
0.00585262
0.00499504
0.00417708
0.00336382
0.00319942
0.00338166
0.00359517
0.003771
0.00390542
0.00400384
0.00407051
0.0041077
0.0041163
0.00409561
0.00404365
0.00395858
0.00384253
0.0037086
0.00358241
0.00348451