/*--------------------------------*- C++ -*----------------------------------*\
| =========                 |                                                 |
| \\      /  F ield         | OpenFOAM: The Open Source CFD Toolbox           |
|  \\    /   O peration     | Version:  v2006                                 |
|   \\  /    A nd           | Website:  www.openfoam.com                      |
|    \\/     M anipulation  |                                                 |
\*---------------------------------------------------------------------------*/
FoamFile
{
    version     2.0;
    format      ascii;
    class       volScalarField;
    location    "91";
    object      nut;
}
// * * * * * * * * * * * * * * * * * * * * * * * * * * * * * * * * * * * * * //

dimensions      [0 2 -1 0 0 0 0];


internalField   nonuniform List<scalar> 
78750
(
0.000768963
0.00186274
0.00132001
0.000684883
9.82324e-05
2.07557e-06
3.17508e-05
1.60565e-05
2.6888e-05
1.63499e-05
3.3901e-05
2.08737e-05
3.64109e-05
2.92998e-05
3.71229e-05
3.50523e-05
3.81352e-05
3.84179e-05
3.94202e-05
4.00095e-05
4.03758e-05
4.05817e-05
4.06081e-05
4.05215e-05
4.03473e-05
4.01059e-05
3.98375e-05
3.96009e-05
3.9399e-05
3.92316e-05
3.90797e-05
3.86738e-05
3.31696e-05
8.87945e-06
5.4658e-07
0.000103049
1.16006e-05
5.40094e-05
7.64558e-06
3.15443e-05
3.21947e-05
4.23164e-05
5.15075e-05
5.73507e-05
6.84771e-05
7.32457e-05
8.06906e-05
8.51803e-05
8.99644e-05
9.39522e-05
9.68317e-05
9.87798e-05
9.95252e-05
9.96226e-05
9.95458e-05
9.93882e-05
9.89364e-05
9.82383e-05
9.74092e-05
9.66031e-05
9.59477e-05
9.54561e-05
9.50666e-05
9.45975e-05
9.35676e-05
9.05504e-05
8.11777e-05
5.05079e-05
1.22936e-05
1.39178e-06
5.61449e-06
5.18119e-06
8.44166e-06
2.25318e-05
4.06215e-05
4.00358e-05
3.54599e-05
3.55734e-05
3.75776e-05
4.03497e-05
4.63325e-05
5.59298e-05
6.81964e-05
7.53575e-05
7.58749e-05
7.87594e-05
8.4667e-05
9.15205e-05
9.75739e-05
0.00010122
0.00010159
9.97665e-05
9.72323e-05
9.481e-05
9.27041e-05
9.07615e-05
8.86229e-05
8.57718e-05
8.14539e-05
7.4373e-05
6.24731e-05
4.42428e-05
2.4812e-05
1.43962e-05
3.22892e-06
6.5186e-07
4.04511e-06
9.76888e-06
1.89114e-05
4.09613e-05
6.80736e-05
6.10126e-05
4.57272e-05
3.76293e-05
3.25755e-05
2.71164e-05
2.17652e-05
1.83453e-05
1.90153e-05
2.9214e-05
5.74745e-05
7.39579e-05
7.60022e-05
8.06328e-05
9.22177e-05
0.000112385
0.000138501
0.000158328
0.000159794
0.000151777
0.000137779
0.000123507
0.000109318
9.47957e-05
7.92131e-05
6.09113e-05
3.79358e-05
1.73128e-05
1.07753e-05
4.1239e-06
1.4924e-06
1.88522e-05
0.000100381
5.80604e-05
2.79833e-05
1.9544e-05
1.91595e-05
2.67515e-05
4.55617e-05
5.42021e-05
5.23851e-05
5.80051e-05
8.06958e-05
0.000115853
0.000111228
0.000100052
0.000101178
0.000111152
0.000129044
0.000144888
0.000145881
0.000147094
0.000148516
0.000150121
0.000138848
0.000124058
0.000111045
9.70284e-05
8.03932e-05
6.07291e-05
4.03099e-05
2.45749e-05
1.61217e-05
1.63553e-05
5.58362e-06
2.38569e-06
3.8641e-05
9.49195e-05
4.48284e-05
2.49124e-05
2.10774e-05
2.54826e-05
3.97074e-05
6.58971e-05
8.47424e-05
8.30583e-05
7.58113e-05
7.37147e-05
7.91545e-05
9.15249e-05
0.000108
0.000124903
0.000137736
0.000138276
0.000138986
0.000139894
0.000141012
0.000142329
0.000143808
0.00014538
0.000127183
0.00010887
9.40178e-05
7.82134e-05
5.879e-05
3.6242e-05
1.84459e-05
1.18326e-05
1.60556e-05
6.44647e-06
2.2679e-06
3.11062e-05
6.91521e-05
5.03082e-05
2.85636e-05
2.01844e-05
1.91092e-05
2.33303e-05
3.45921e-05
5.37275e-05
6.6935e-05
7.03491e-05
7.65334e-05
8.88622e-05
0.000105449
0.000123038
0.000130581
0.0001315
0.000132525
0.000133674
0.000134964
0.000136416
0.000138031
0.000130562
0.000117183
0.000105177
9.32112e-05
8.08582e-05
6.7171e-05
5.03284e-05
3.04468e-05
1.5134e-05
1.08793e-05
1.98287e-05
7.37233e-06
2.81933e-06
1.8757e-05
4.79999e-05
6.24345e-05
4.56655e-05
2.74381e-05
2.16637e-05
2.16424e-05
2.35429e-05
2.67196e-05
3.34247e-05
4.8606e-05
7.18924e-05
8.46806e-05
8.60503e-05
8.80128e-05
9.61926e-05
0.000112587
0.000127409
0.000128272
0.000129435
0.000130853
0.000132485
0.000134283
0.000129549
9.9571e-05
8.22361e-05
7.10335e-05
5.98113e-05
4.55646e-05
2.75572e-05
1.28505e-05
9.40861e-06
2.09036e-05
8.09776e-06
4.59634e-06
2.00264e-05
6.36185e-05
7.91791e-05
3.07893e-05
1.50271e-05
1.33674e-05
1.81539e-05
3.03814e-05
5.81473e-05
0.000123903
0.000142065
0.000139223
0.000136718
0.000134587
0.000132851
0.000131521
0.00013061
0.000130123
0.000130064
0.000130424
0.000131187
0.000132321
0.000133778
0.000135486
0.000137324
9.55295e-05
7.08637e-05
5.63056e-05
4.2147e-05
2.52189e-05
1.16178e-05
8.83468e-06
2.30272e-05
8.82594e-06
4.98272e-06
2.20991e-05
8.57931e-05
5.16479e-05
1.52071e-05
7.15541e-06
8.1201e-06
2.15823e-05
9.37894e-05
0.000139864
0.000139113
0.000131167
0.000127786
0.000129399
0.000133962
0.000133783
0.000132983
0.000132383
0.000132021
0.000131931
0.000132136
0.00013265
0.00013347
0.000134575
0.000135912
0.000136602
9.7169e-05
7.06323e-05
5.32185e-05
3.79207e-05
2.18845e-05
1.02391e-05
8.58785e-06
2.59186e-05
9.53695e-06
5.43725e-06
3.11617e-05
8.2724e-05
4.05254e-05
1.57459e-05
7.6905e-06
8.18207e-06
2.18759e-05
5.92387e-05
7.65393e-05
8.0889e-05
8.28382e-05
8.6612e-05
9.26923e-05
0.000100646
0.000109996
0.000120375
0.000131404
0.000134671
0.000134661
0.000134855
0.000135275
0.000135936
0.000136833
0.000137935
0.000128964
9.97093e-05
7.44978e-05
5.4631e-05
3.6453e-05
1.92986e-05
9.05106e-06
8.51844e-06
3.02275e-05
9.93582e-06
6.11237e-06
4.47955e-05
6.56476e-05
3.87572e-05
2.09051e-05
1.26626e-05
1.13387e-05
1.72473e-05
2.60666e-05
3.2714e-05
4.16448e-05
5.12394e-05
5.91452e-05
6.49242e-05
7.02738e-05
7.70816e-05
8.61516e-05
9.70002e-05
0.000108236
0.000118518
0.000127037
0.000133075
0.000136099
0.000134425
0.000124949
0.000108088
8.9163e-05
7.10946e-05
5.26277e-05
3.27541e-05
1.5895e-05
8.23499e-06
1.00028e-05
4.27976e-05
1.00495e-05
5.057e-06
3.34051e-05
7.34276e-05
0.000106565
0.000102787
5.60161e-05
3.03889e-05
2.27145e-05
2.09542e-05
1.97265e-05
1.9681e-05
2.14008e-05
2.60278e-05
3.53117e-05
4.88981e-05
5.77942e-05
5.879e-05
6.08529e-05
6.73704e-05
7.67363e-05
8.57344e-05
9.25139e-05
9.65207e-05
9.72543e-05
9.45103e-05
8.86663e-05
8.02892e-05
6.89045e-05
5.24659e-05
3.12208e-05
1.4095e-05
7.71192e-06
1.1883e-05
6.09084e-05
9.96248e-06
2.94045e-06
1.90081e-05
4.62906e-05
8.978e-05
0.00012745
0.000138554
0.000119532
7.95593e-05
5.41937e-05
4.20727e-05
3.44862e-05
2.88865e-05
2.46647e-05
2.15814e-05
2.00176e-05
2.17021e-05
3.16053e-05
5.4883e-05
5.44571e-05
4.91923e-05
5.14345e-05
5.68804e-05
6.26948e-05
6.73193e-05
6.94669e-05
6.86108e-05
6.50943e-05
5.90984e-05
4.88345e-05
3.16458e-05
1.45266e-05
7.70889e-06
1.30473e-05
7.19003e-05
9.75811e-06
2.40943e-06
1.3409e-05
3.85645e-05
8.5647e-05
0.000118717
0.000118443
0.000110466
0.000107971
0.000106398
9.87209e-05
8.55579e-05
7.14545e-05
5.88692e-05
4.77848e-05
3.8111e-05
2.98174e-05
2.29269e-05
1.8914e-05
2.0966e-05
3.76594e-05
4.89645e-05
4.40779e-05
4.7815e-05
5.46528e-05
5.97822e-05
6.20893e-05
6.09538e-05
5.65609e-05
4.91578e-05
3.58499e-05
1.75965e-05
7.98725e-06
1.17646e-05
6.11123e-05
9.66867e-06
4.25743e-06
1.7994e-05
4.91636e-05
9.13339e-05
0.000117455
0.00011517
9.08754e-05
6.58214e-05
5.09694e-05
4.52439e-05
4.66331e-05
5.55494e-05
7.37405e-05
9.68204e-05
0.000102128
7.76543e-05
5.06108e-05
3.2405e-05
2.24711e-05
1.97808e-05
2.6793e-05
5.30721e-05
6.4385e-05
5.87101e-05
6.21137e-05
6.85884e-05
6.8721e-05
6.10118e-05
5.07054e-05
3.89184e-05
2.17792e-05
8.97673e-06
1.05496e-05
4.8459e-05
9.80567e-06
6.16728e-06
3.00233e-05
0.000100573
0.000142915
0.000119677
7.92071e-05
5.66468e-05
5.26307e-05
5.96499e-05
6.53157e-05
5.87621e-05
5.06339e-05
5.4134e-05
7.78083e-05
0.000121874
0.000144947
0.000105842
5.43247e-05
2.98313e-05
2.10888e-05
2.11412e-05
3.45726e-05
8.78511e-05
0.000129483
0.000115506
0.00010416
9.50715e-05
7.8497e-05
5.86717e-05
4.07868e-05
2.23344e-05
9.66519e-06
1.04768e-05
4.5461e-05
1.01057e-05
7.01021e-06
4.19557e-05
0.000128225
0.000111355
6.14336e-05
3.32371e-05
2.45074e-05
2.91305e-05
5.30311e-05
9.45984e-05
0.000119418
0.000119662
0.000103336
9.49041e-05
9.6602e-05
9.40697e-05
7.51033e-05
4.7068e-05
2.81808e-05
2.05968e-05
2.18436e-05
3.66091e-05
7.43323e-05
0.000106209
0.000113037
0.00010723
9.3425e-05
7.47463e-05
5.62265e-05
3.90378e-05
1.95276e-05
8.87541e-06
1.12878e-05
5.37328e-05
1.03754e-05
6.78808e-06
4.25955e-05
0.000122098
9.60773e-05
4.92618e-05
2.92122e-05
2.56483e-05
3.65768e-05
7.32583e-05
0.000126439
0.000151612
0.000153106
0.000141683
0.000121939
0.000101481
8.21115e-05
6.05276e-05
3.97794e-05
2.60206e-05
2.06712e-05
2.41696e-05
4.18139e-05
7.1568e-05
8.94358e-05
9.22239e-05
8.73407e-05
7.68324e-05
6.20342e-05
4.58301e-05
3.00213e-05
1.52459e-05
9.01175e-06
1.48822e-05
7.64292e-05
1.05106e-05
6.37836e-06
3.70465e-05
0.000115788
0.000113067
6.70942e-05
3.70393e-05
2.68288e-05
2.94259e-05
4.65903e-05
8.20073e-05
0.000121468
0.000143904
0.000150588
0.000147225
0.000133661
0.000108608
7.74797e-05
5.01017e-05
3.24659e-05
2.50777e-05
2.75867e-05
4.41686e-05
7.41154e-05
9.40511e-05
9.53292e-05
8.74163e-05
7.47472e-05
5.86696e-05
4.1162e-05
2.4526e-05
1.21615e-05
8.97566e-06
1.90004e-05
9.81774e-05
1.06185e-05
6.34951e-06
3.29091e-05
0.000100272
0.000116738
8.63881e-05
4.6273e-05
2.57644e-05
2.10862e-05
2.84827e-05
5.27794e-05
9.94919e-05
0.000149867
0.000177925
0.000183056
0.00017117
0.000144431
0.000106154
6.83616e-05
4.30594e-05
3.19684e-05
3.3736e-05
5.32326e-05
9.0615e-05
0.000111879
0.000107932
9.40174e-05
7.60764e-05
5.54794e-05
3.49062e-05
1.90705e-05
1.0567e-05
1.00244e-05
2.4225e-05
0.000107576
1.07637e-05
6.59181e-06
3.52031e-05
0.000105714
0.000109272
6.92287e-05
4.08677e-05
2.67756e-05
2.08634e-05
2.47493e-05
4.502e-05
9.31954e-05
0.00015917
0.000204618
0.000219358
0.000211302
0.000184961
0.000143582
9.76108e-05
6.27408e-05
4.52883e-05
4.31942e-05
5.68273e-05
8.51649e-05
0.000107701
0.00010865
9.63901e-05
7.80542e-05
5.59292e-05
3.32037e-05
1.66593e-05
9.40461e-06
1.04048e-05
2.75785e-05
0.000106114
1.09207e-05
6.60049e-06
3.43538e-05
0.000101475
9.7974e-05
5.57755e-05
3.34643e-05
2.59549e-05
2.28146e-05
2.46824e-05
3.92882e-05
7.73204e-05
0.000137059
0.000187851
0.000211911
0.000212846
0.00019456
0.000158818
0.00011288
7.29225e-05
5.05627e-05
4.69006e-05
6.53765e-05
0.00010171
0.000118625
0.000112209
9.65251e-05
7.59531e-05
5.14976e-05
2.83802e-05
1.43647e-05
9.14802e-06
1.14576e-05
3.16244e-05
0.00010077
1.10924e-05
6.5983e-06
3.097e-05
9.24243e-05
9.29426e-05
5.20487e-05
3.2454e-05
2.7013e-05
2.39308e-05
2.19643e-05
2.82433e-05
5.28121e-05
0.00010611
0.000171507
0.000215136
0.000230318
0.0002233
0.000197952
0.00015755
0.00011236
7.77153e-05
6.17966e-05
6.65953e-05
9.64228e-05
0.000127331
0.000123044
0.000103364
7.95778e-05
5.14557e-05
2.55097e-05
1.24681e-05
9.00671e-06
1.2647e-05
3.5866e-05
9.47901e-05
1.12285e-05
7.10253e-06
3.14416e-05
9.40786e-05
7.80501e-05
3.52116e-05
2.28643e-05
2.45354e-05
2.78413e-05
2.51101e-05
2.52517e-05
3.99688e-05
8.90917e-05
0.00019112
0.000229987
0.000233159
0.000235387
0.000236498
0.000236302
0.000234037
0.000171223
0.000118011
8.97328e-05
8.26128e-05
9.10596e-05
0.000103535
0.00010316
8.70636e-05
5.82143e-05
2.64174e-05
1.15617e-05
8.96607e-06
1.41043e-05
4.10399e-05
8.79426e-05
1.12876e-05
7.58485e-06
3.54241e-05
0.000101107
5.16416e-05
1.98426e-05
1.34576e-05
1.9071e-05
2.96269e-05
3.23346e-05
3.34748e-05
4.88374e-05
9.58186e-05
0.000175573
0.000229411
0.000233021
0.000235957
0.000237976
0.00023884
0.000206263
0.000160139
0.000125846
0.000107692
0.000105309
0.00011463
0.000123671
0.000119523
0.000100233
6.68383e-05
2.9335e-05
1.18382e-05
9.15478e-06
1.56269e-05
4.68416e-05
8.16526e-05
1.13203e-05
7.55604e-06
3.92107e-05
9.20358e-05
3.60673e-05
1.35823e-05
9.35536e-06
1.63867e-05
2.74903e-05
3.20306e-05
4.24138e-05
7.4936e-05
0.000137473
0.000195505
0.00022282
0.000227693
0.00022194
0.000210179
0.000194149
0.000176258
0.000159988
0.00014827
0.000142987
0.000143492
0.000145097
0.000141208
0.000127911
0.000103804
6.79692e-05
3.08511e-05
1.25929e-05
9.48654e-06
1.71463e-05
5.33602e-05
7.61316e-05
1.13434e-05
7.10163e-06
3.64721e-05
9.45556e-05
4.76287e-05
1.56965e-05
6.47523e-06
9.6578e-06
2.15923e-05
2.7815e-05
3.88433e-05
7.46974e-05
0.000141344
0.000186859
0.000198893
0.000196122
0.000190606
0.000184903
0.000178789
0.000172467
0.000166728
0.000162328
0.000159289
0.000156384
0.000151327
0.00014182
0.000126176
0.000102676
6.98428e-05
3.48163e-05
1.45648e-05
9.81296e-06
1.7212e-05
5.46693e-05
7.38895e-05
1.1333e-05
7.11445e-06
3.85819e-05
9.48877e-05
5.90781e-05
2.10654e-05
6.10775e-06
3.91718e-06
1.35556e-05
2.36638e-05
3.27505e-05
5.95168e-05
0.000124249
0.000180987
0.000194792
0.000190699
0.000185886
0.000182214
0.000178615
0.000174916
0.000171347
0.000167876
0.000164022
0.000158887
0.000151326
0.00014022
0.000124483
0.000102548
7.27234e-05
3.94337e-05
1.72028e-05
1.0404e-05
1.6523e-05
5.18773e-05
7.5002e-05
1.13412e-05
6.94515e-06
4.16859e-05
9.06337e-05
6.35821e-05
3.22482e-05
1.29419e-05
4.36115e-06
5.47818e-06
1.31101e-05
2.70926e-05
5.63361e-05
9.45657e-05
0.000119051
0.000131036
0.000139138
0.000146655
0.00015322
0.00015784
0.000160169
0.000160457
0.000158887
0.000155451
0.000149994
0.000142156
0.000131466
0.000117219
9.80132e-05
7.20794e-05
4.2031e-05
1.96964e-05
1.15455e-05
1.65064e-05
4.99735e-05
7.76588e-05
1.13878e-05
6.54806e-06
3.55667e-05
9.71664e-05
0.000113489
8.96891e-05
4.65792e-05
2.0522e-05
9.25705e-06
5.79863e-06
6.17726e-06
1.33451e-05
3.49142e-05
6.71095e-05
8.37438e-05
9.3143e-05
0.000105487
0.000119662
0.000131941
0.00014086
0.000146306
0.000148123
0.000146357
0.00014133
0.000133419
0.000122861
0.000109488
9.22302e-05
6.94284e-05
4.25476e-05
2.11753e-05
1.25993e-05
1.70637e-05
4.97823e-05
8.04747e-05
1.14281e-05
6.06135e-06
2.8116e-05
8.54979e-05
0.000116965
0.000100131
7.53847e-05
6.00848e-05
4.22054e-05
2.54989e-05
1.47249e-05
7.94108e-06
5.08608e-06
7.86954e-06
2.50856e-05
6.16252e-05
7.31243e-05
8.03482e-05
9.45726e-05
0.000111664
0.000125302
0.000133345
0.000135937
0.00013351
0.000126818
0.000116758
0.000103802
8.75423e-05
6.68464e-05
4.26778e-05
2.25033e-05
1.36052e-05
1.75957e-05
4.92608e-05
8.42056e-05
1.14795e-05
6.42856e-06
2.66053e-05
7.69187e-05
0.000105963
7.97548e-05
4.6166e-05
3.62214e-05
4.83218e-05
7.68742e-05
7.86406e-05
4.89026e-05
2.70446e-05
1.40106e-05
5.88182e-06
2.02526e-06
7.24731e-06
3.77283e-05
5.39581e-05
6.93728e-05
8.7083e-05
0.000102471
0.000112757
0.000117217
0.00011568
0.000108789
9.76477e-05
8.25101e-05
6.27066e-05
4.0044e-05
2.21007e-05
1.44349e-05
1.88026e-05
5.1224e-05
8.67951e-05
1.15982e-05
7.56868e-06
3.3228e-05
9.4121e-05
0.00010588
7.47498e-05
4.39308e-05
2.838e-05
2.55714e-05
3.93215e-05
8.59331e-05
0.00016029
0.00016504
8.5757e-05
4.03607e-05
1.97886e-05
7.08634e-06
2.23869e-06
1.12816e-06
2.02478e-05
4.04269e-05
6.18122e-05
8.10442e-05
9.36535e-05
9.84693e-05
9.62735e-05
8.85373e-05
7.62682e-05
5.87769e-05
3.74713e-05
2.09873e-05
1.50315e-05
2.08299e-05
5.66541e-05
8.61263e-05
1.17202e-05
8.13653e-06
3.88625e-05
0.000103187
9.31827e-05
5.73772e-05
3.58513e-05
3.24068e-05
3.75243e-05
4.37532e-05
5.79705e-05
9.42672e-05
0.000160534
0.000222093
0.000199037
9.74259e-05
4.19561e-05
1.80599e-05
6.37188e-06
2.79302e-06
1.71515e-06
1.81078e-05
3.8125e-05
5.64727e-05
6.80401e-05
7.22036e-05
7.002e-05
6.31776e-05
5.18393e-05
3.5262e-05
2.01317e-05
1.49131e-05
2.23462e-05
6.27375e-05
8.37117e-05
1.18079e-05
7.52879e-06
3.45106e-05
9.36899e-05
9.0618e-05
5.88015e-05
3.05727e-05
2.07092e-05
2.67159e-05
4.58195e-05
6.81512e-05
8.59831e-05
0.000107706
0.000142511
0.000189527
0.000221924
0.00017903
8.15192e-05
3.23165e-05
1.25138e-05
2.94863e-06
2.17173e-06
6.8156e-06
2.3034e-05
3.98051e-05
5.14694e-05
5.56663e-05
5.30016e-05
4.60121e-05
3.515e-05
2.16012e-05
1.48401e-05
2.11947e-05
5.83276e-05
8.74539e-05
1.18978e-05
7.29188e-06
3.43042e-05
9.54622e-05
0.000105972
8.30476e-05
4.56668e-05
2.1131e-05
1.57447e-05
2.34745e-05
4.1355e-05
6.52541e-05
8.80913e-05
0.000107821
0.000128999
0.00015591
0.000184075
0.000185682
0.000118952
4.78769e-05
1.90799e-05
6.15154e-06
1.00509e-06
1.68785e-06
1.61708e-05
3.08075e-05
4.01513e-05
4.18407e-05
3.79129e-05
3.13535e-05
2.16984e-05
1.46533e-05
1.91537e-05
5.06053e-05
9.72542e-05
1.22019e-05
7.62037e-06
4.00755e-05
0.000103034
0.000112875
9.87842e-05
7.26905e-05
4.36342e-05
2.5743e-05
2.17071e-05
2.7e-05
3.85485e-05
5.46572e-05
7.24746e-05
8.92182e-05
0.000104879
0.000121336
0.00013783
0.00014245
0.000109215
5.5881e-05
2.76165e-05
1.54776e-05
8.57037e-06
7.65132e-06
1.7444e-05
2.81287e-05
3.27282e-05
2.98981e-05
2.58718e-05
2.13665e-05
1.56377e-05
1.86355e-05
4.61765e-05
0.000106083
1.24977e-05
7.19264e-06
3.7825e-05
9.92245e-05
0.000125935
0.000132624
0.000125423
9.78962e-05
5.96937e-05
3.58741e-05
2.66732e-05
2.58793e-05
3.10036e-05
4.07632e-05
5.33434e-05
6.77694e-05
8.44798e-05
9.92664e-05
9.72296e-05
6.86167e-05
3.72911e-05
1.97227e-05
9.80545e-06
3.97648e-06
7.37581e-06
1.89665e-05
2.96179e-05
3.53643e-05
3.02837e-05
2.12117e-05
1.70778e-05
1.41919e-05
1.75926e-05
4.41804e-05
0.000109643
1.28868e-05
6.09484e-06
2.87714e-05
8.28834e-05
0.000126507
0.000140335
0.000132829
0.000112881
8.80344e-05
6.19062e-05
4.21391e-05
3.0293e-05
2.37824e-05
2.09522e-05
2.02341e-05
2.00119e-05
1.9686e-05
1.95503e-05
1.95545e-05
1.85068e-05
1.59552e-05
1.292e-05
1.11303e-05
1.29731e-05
1.75645e-05
2.22072e-05
2.46793e-05
2.42582e-05
2.22427e-05
1.78551e-05
1.4614e-05
1.55247e-05
2.52269e-05
6.89626e-05
9.80583e-05
1.35743e-05
5.92339e-06
2.61868e-05
8.13271e-05
0.00012824
0.000130307
0.000117486
0.000105506
9.94318e-05
9.48888e-05
8.26602e-05
6.36159e-05
4.66012e-05
3.39563e-05
2.43292e-05
1.67419e-05
1.11997e-05
8.00008e-06
7.01152e-06
7.69388e-06
7.95154e-06
8.95928e-06
1.31605e-05
1.97084e-05
2.45805e-05
2.44757e-05
1.93745e-05
1.44961e-05
1.43184e-05
1.79667e-05
1.98287e-05
2.36276e-05
4.45944e-05
0.000118526
7.52323e-05
1.34041e-05
6.92306e-06
3.19736e-05
9.1728e-05
0.000131909
0.000136442
0.000126069
0.000108164
8.99756e-05
7.94026e-05
8.15596e-05
9.87394e-05
0.000126306
0.000135292
0.000102925
6.60396e-05
4.08315e-05
2.27938e-05
8.95186e-06
2.49922e-06
2.04734e-06
2.91465e-07
4.57102e-06
1.00928e-05
1.47617e-05
1.70155e-05
1.48306e-05
1.13814e-05
1.1024e-05
1.61626e-05
2.65397e-05
4.06344e-05
7.49626e-05
0.000138967
5.72565e-05
1.22174e-05
7.66869e-06
3.92255e-05
0.000112419
0.000143301
0.000144143
0.000132056
0.00011243
9.13927e-05
7.18401e-05
5.61431e-05
4.84021e-05
5.36133e-05
8.11697e-05
0.000145269
0.000224571
0.000218737
9.35562e-05
3.21236e-05
8.61588e-06
2.31173e-07
3.08376e-06
2.01347e-06
5.9744e-06
4.4718e-06
1.03164e-05
1.17437e-05
1.04336e-05
9.90932e-06
1.33629e-05
2.61793e-05
5.83595e-05
0.000107735
0.000128408
4.79287e-05
1.1191e-05
7.49247e-06
3.56532e-05
0.000103335
0.000130361
0.00012218
0.000101241
8.238e-05
7.55003e-05
8.22971e-05
9.74787e-05
0.00010321
8.98847e-05
7.66826e-05
7.79102e-05
9.89014e-05
0.000139063
0.000157991
8.06506e-05
2.33515e-05
3.73994e-06
1.20403e-06
3.05666e-06
9.26837e-07
4.02925e-06
4.34687e-06
9.42299e-06
1.04192e-05
9.79328e-06
1.07064e-05
1.78681e-05
4.38528e-05
0.000109102
0.00011821
4.56028e-05
1.09208e-05
7.6984e-06
3.79591e-05
0.000110843
0.000129944
0.000114657
8.8981e-05
6.68553e-05
5.35502e-05
4.98009e-05
5.87341e-05
8.53108e-05
0.000125356
0.000152854
0.000148264
0.000134318
0.000135381
0.000146813
0.000133946
6.50943e-05
2.00268e-05
3.27619e-06
2.48017e-06
4.85987e-06
1.80799e-06
3.47056e-06
4.09108e-06
8.49439e-06
1.02095e-05
9.90716e-06
1.1593e-05
2.24964e-05
5.854e-05
0.000113799
5.01476e-05
1.13022e-05
7.87946e-06
4.23577e-05
0.000125269
0.000128734
0.000103577
7.6513e-05
6.19726e-05
5.88084e-05
6.01327e-05
6.19634e-05
6.97174e-05
9.16499e-05
0.000130367
0.000174389
0.000203137
0.000205618
0.000187789
0.000156607
0.000105704
4.49555e-05
1.39673e-05
7.13437e-07
1.95065e-06
3.1777e-06
1.32065e-06
1.91642e-06
7.33422e-06
1.16507e-05
1.28836e-05
1.11466e-05
1.40963e-05
3.13591e-05
8.82533e-05
5.73559e-05
1.19995e-05
7.43399e-06
3.55569e-05
0.000107217
0.000118203
9.39804e-05
6.48603e-05
4.79521e-05
4.42912e-05
5.2846e-05
7.24005e-05
9.40492e-05
0.000108445
0.000120131
0.00013597
0.000156083
0.000175564
0.000187215
0.000182397
0.00015091
9.17611e-05
3.64699e-05
1.05471e-05
3.94072e-06
2.41516e-07
5.14857e-06
6.12606e-07
6.85491e-06
1.17881e-05
1.54085e-05
1.50651e-05
1.55099e-05
3.02289e-05
9.14591e-05
5.90197e-05
1.22776e-05
7.60169e-06
3.61133e-05
0.000107956
0.000120771
9.75223e-05
6.94501e-05
5.04381e-05
3.97243e-05
3.62229e-05
4.22487e-05
6.12367e-05
9.34325e-05
0.000129252
0.000156831
0.000174386
0.000185989
0.000193663
0.000194878
0.000182377
0.000145198
8.44889e-05
3.64452e-05
1.35962e-05
3.55958e-06
7.32543e-06
5.29317e-06
5.09416e-06
1.0009e-05
1.40868e-05
1.67311e-05
1.98734e-05
3.74823e-05
0.00010433
5.7848e-05
1.19941e-05
7.62612e-06
3.65744e-05
0.000109383
0.000118287
8.78714e-05
5.92322e-05
4.6839e-05
4.42131e-05
4.38428e-05
4.50818e-05
5.31544e-05
7.23648e-05
0.00010239
0.000136289
0.000165235
0.000185198
0.000196454
0.000198971
0.000188695
0.00015837
0.000107664
5.68123e-05
2.65535e-05
1.08684e-05
2.48121e-06
1.19694e-06
6.04148e-06
1.01132e-05
1.31068e-05
1.57463e-05
2.09228e-05
4.14146e-05
0.00010869
5.92974e-05
1.18239e-05
7.44383e-06
3.40265e-05
0.000100904
0.000116149
8.81609e-05
5.59565e-05
4.00412e-05
3.60342e-05
3.7667e-05
4.11711e-05
4.75591e-05
6.07049e-05
8.20643e-05
0.000108277
0.000133514
0.000153162
0.000163805
0.000161464
0.000143212
0.000112678
7.94788e-05
5.15248e-05
3.15069e-05
1.78865e-05
9.66518e-06
8.26123e-06
9.7872e-06
1.17632e-05
1.49346e-05
1.79776e-05
2.38745e-05
4.72568e-05
0.000114843
6.02499e-05
1.1888e-05
7.74471e-06
3.67676e-05
0.000106596
0.0001157
8.44934e-05
5.54465e-05
4.18278e-05
3.75714e-05
3.68281e-05
3.66464e-05
3.81228e-05
4.48116e-05
5.83294e-05
7.4558e-05
8.79103e-05
9.80243e-05
0.000107414
0.000116024
0.000118932
0.000110425
9.08788e-05
6.74908e-05
4.81089e-05
3.53417e-05
2.73571e-05
2.01432e-05
1.36002e-05
1.17756e-05
1.46086e-05
2.10173e-05
3.30058e-05
6.5339e-05
0.000125427
5.75053e-05
1.17184e-05
7.889e-06
3.74941e-05
0.000107878
0.000108808
7.30664e-05
4.65587e-05
3.70423e-05
3.74624e-05
4.11757e-05
4.15493e-05
3.81408e-05
3.64991e-05
4.08556e-05
5.22989e-05
6.64046e-05
7.56717e-05
7.94853e-05
8.3649e-05
9.13123e-05
9.87122e-05
9.83974e-05
8.78911e-05
7.23659e-05
5.83254e-05
4.82001e-05
3.93038e-05
2.73427e-05
1.66414e-05
1.3537e-05
1.77427e-05
3.20173e-05
7.28885e-05
0.000127836
5.70961e-05
1.14075e-05
8.04221e-06
3.88332e-05
0.000108173
0.000106574
7.21265e-05
4.58647e-05
3.50832e-05
3.43565e-05
3.97945e-05
4.61501e-05
4.68638e-05
4.33077e-05
4.23496e-05
4.74712e-05
5.77545e-05
6.71199e-05
6.74667e-05
6.00196e-05
5.57583e-05
5.99668e-05
6.88006e-05
7.49198e-05
7.47007e-05
7.05496e-05
6.61177e-05
6.20464e-05
5.43917e-05
3.87601e-05
2.25297e-05
1.68362e-05
2.27721e-05
4.68264e-05
0.000105982
6.46286e-05
1.14296e-05
8.12503e-06
4.0923e-05
0.000109666
0.00010158
6.72039e-05
4.39928e-05
3.49905e-05
3.41607e-05
3.74859e-05
4.18751e-05
4.425e-05
4.36361e-05
4.33256e-05
4.72637e-05
5.62891e-05
6.60924e-05
6.71258e-05
5.43712e-05
4.07966e-05
4.01743e-05
5.02362e-05
6.48213e-05
7.7021e-05
8.35543e-05
8.57229e-05
8.50519e-05
7.99451e-05
6.59082e-05
4.20066e-05
2.2991e-05
1.95259e-05
3.20238e-05
7.8228e-05
7.71268e-05
1.21158e-05
8.06796e-06
4.09033e-05
0.00010949
0.00010172
6.78418e-05
4.38878e-05
3.45264e-05
3.42682e-05
3.81207e-05
4.10403e-05
4.08987e-05
3.95047e-05
4.01775e-05
4.55804e-05
5.54417e-05
6.27832e-05
5.61954e-05
3.66897e-05
2.52707e-05
3.07942e-05
4.91794e-05
7.44265e-05
9.41178e-05
0.000101243
9.9119e-05
9.22173e-05
8.16267e-05
6.57385e-05
4.46605e-05
2.76789e-05
2.38349e-05
3.86894e-05
9.57127e-05
8.18239e-05
1.29585e-05
8.0525e-06
4.17034e-05
0.000109819
0.000102117
7.00201e-05
4.56987e-05
3.451e-05
3.26899e-05
3.68202e-05
4.16491e-05
4.24405e-05
4.03549e-05
3.97221e-05
4.36768e-05
5.20345e-05
5.63316e-05
4.34241e-05
2.33259e-05
1.7105e-05
2.80372e-05
5.58312e-05
9.33401e-05
0.000113539
0.000108915
9.29834e-05
7.82925e-05
6.80612e-05
5.74331e-05
4.41924e-05
3.51548e-05
3.84791e-05
6.74536e-05
0.000137648
7.04514e-05
1.3056e-05
8.00901e-06
4.23372e-05
0.000111366
0.000100678
6.9371e-05
4.7531e-05
3.66919e-05
3.32782e-05
3.52463e-05
3.90274e-05
4.00342e-05
3.828e-05
3.76811e-05
4.11204e-05
4.75159e-05
4.76703e-05
3.2349e-05
1.54743e-05
1.15465e-05
2.30697e-05
5.42092e-05
0.000100462
0.000119674
0.000106593
8.33678e-05
6.67641e-05
6.03971e-05
5.79821e-05
5.2459e-05
4.96412e-05
6.25017e-05
0.000106465
0.000153082
6.01599e-05
1.24637e-05
7.98585e-06
4.24753e-05
0.000112238
9.76333e-05
6.62874e-05
4.74274e-05
3.84963e-05
3.51437e-05
3.61018e-05
3.92037e-05
4.02317e-05
3.80135e-05
3.60606e-05
3.75147e-05
4.14922e-05
4.06323e-05
2.75259e-05
1.21141e-05
6.83358e-06
1.42151e-05
3.83605e-05
8.30512e-05
0.000112589
0.000108045
8.64124e-05
6.67356e-05
5.79735e-05
5.90372e-05
6.28353e-05
6.78881e-05
8.7183e-05
0.00013091
0.000157777
5.82295e-05
1.19989e-05
8.08553e-06
4.48976e-05
0.000113327
8.89011e-05
5.91268e-05
4.56894e-05
4.0756e-05
3.88151e-05
3.91785e-05
4.10715e-05
4.13779e-05
3.878e-05
3.61096e-05
3.63429e-05
3.90064e-05
3.79653e-05
2.638e-05
1.11799e-05
4.01231e-06
7.35553e-06
2.40622e-05
6.00891e-05
0.000100951
0.000112803
9.9567e-05
7.74108e-05
6.05007e-05
5.56695e-05
6.1991e-05
7.68992e-05
0.000103241
0.000140878
0.000158014
6.15889e-05
1.21708e-05
8.09382e-06
4.72355e-05
0.000110588
7.60246e-05
5.02108e-05
4.25333e-05
4.2707e-05
4.41301e-05
4.53682e-05
4.65172e-05
4.55659e-05
4.16536e-05
3.77509e-05
3.70236e-05
3.92727e-05
3.84238e-05
2.70074e-05
1.11715e-05
2.74358e-06
3.78894e-06
1.57848e-05
4.52004e-05
9.14899e-05
0.000111748
0.000103402
8.44e-05
6.4624e-05
5.37711e-05
5.74165e-05
7.70304e-05
0.000111168
0.000146488
0.000157063
6.5469e-05
1.27374e-05
8.06628e-06
5.00135e-05
0.000105317
6.53069e-05
4.45222e-05
4.16152e-05
4.6145e-05
5.0667e-05
5.27877e-05
5.32018e-05
5.11624e-05
4.61993e-05
4.10705e-05
3.93481e-05
4.15067e-05
4.13332e-05
2.91874e-05
1.16215e-05
2.30493e-06
2.37905e-06
1.15935e-05
3.75435e-05
9.03328e-05
0.000109113
8.6756e-05
6.92202e-05
6.40481e-05
6.25255e-05
6.77571e-05
8.87067e-05
0.000124917
0.000158045
0.000161357
6.37118e-05
1.29015e-05
7.93222e-06
5.19695e-05
9.66456e-05
5.58004e-05
3.96464e-05
4.08294e-05
5.01448e-05
5.88135e-05
6.25664e-05
6.22571e-05
5.86862e-05
5.23521e-05
4.59455e-05
4.30778e-05
4.49757e-05
4.61957e-05
3.4519e-05
1.44666e-05
2.96014e-06
1.62779e-06
8.06974e-06
2.72723e-05
7.61042e-05
0.000116044
8.12459e-05
5.57925e-05
5.63386e-05
7.58622e-05
0.000102616
0.000130841
0.00015889
0.000175086
0.000150422
5.34444e-05
1.21664e-05
7.75491e-06
5.16404e-05
9.19033e-05
5.25034e-05
3.77027e-05
4.02099e-05
5.20683e-05
6.39182e-05
6.9968e-05
7.04338e-05
6.64868e-05
5.92247e-05
5.13406e-05
4.64775e-05
4.662e-05
4.88363e-05
4.23931e-05
2.33791e-05
6.95301e-06
1.44979e-06
3.98933e-06
1.41876e-05
3.85056e-05
8.84505e-05
0.000104443
7.18471e-05
5.80319e-05
7.02218e-05
0.000105521
0.00014623
0.000169319
0.000169298
0.000123151
4.3264e-05
1.09075e-05
7.57892e-06
4.98076e-05
9.13587e-05
5.26741e-05
3.62273e-05
3.75014e-05
4.97806e-05
6.47454e-05
7.45428e-05
7.76647e-05
7.51344e-05
6.81787e-05
5.92614e-05
5.20668e-05
4.93777e-05
5.08236e-05
5.02118e-05
3.90282e-05
2.01882e-05
6.24168e-06
2.08002e-06
5.10311e-06
1.44813e-05
3.3082e-05
6.73272e-05
0.00010295
0.000102865
9.70271e-05
0.000106227
0.000129194
0.000152234
0.000155591
0.000108145
3.77218e-05
9.87696e-06
7.47794e-06
4.74812e-05
9.37114e-05
5.60171e-05
3.62631e-05
3.48911e-05
4.54405e-05
6.18152e-05
7.55786e-05
8.2782e-05
8.34981e-05
7.85873e-05
6.98728e-05
6.08216e-05
5.50332e-05
5.41223e-05
5.60974e-05
5.42699e-05
4.28279e-05
2.4679e-05
9.68997e-06
3.64026e-06
4.70777e-06
1.09446e-05
2.28439e-05
4.42705e-05
8.62438e-05
0.000147047
0.000172143
0.000173272
0.000171385
0.000158289
0.000103248
3.55038e-05
9.4794e-06
7.48562e-06
4.67709e-05
9.55794e-05
5.82423e-05
3.66594e-05
3.33375e-05
4.1575e-05
5.74353e-05
7.41671e-05
8.59762e-05
9.11376e-05
8.97852e-05
8.29319e-05
7.33002e-05
6.48495e-05
6.06925e-05
6.14921e-05
6.4321e-05
6.29435e-05
5.29549e-05
3.56729e-05
1.80802e-05
7.77687e-06
5.25865e-06
8.08073e-06
1.53872e-05
2.90539e-05
5.67521e-05
0.000114789
0.000166903
0.000164292
0.00014529
0.000100168
3.64859e-05
9.71259e-06
7.57473e-06
4.70063e-05
9.64122e-05
5.75437e-05
3.67076e-05
3.36479e-05
4.10727e-05
5.56615e-05
7.24967e-05
8.63072e-05
9.45784e-05
9.67303e-05
9.29329e-05
8.46121e-05
7.49442e-05
6.7631e-05
6.49102e-05
6.65786e-05
6.96205e-05
6.93465e-05
6.2722e-05
4.97285e-05
3.28329e-05
1.79217e-05
9.7959e-06
8.04521e-06
1.10208e-05
1.87089e-05
3.41487e-05
6.66091e-05
0.000119911
0.000140292
0.000106069
3.9348e-05
1.00558e-05
7.70278e-06
4.77702e-05
9.51056e-05
5.34908e-05
3.47584e-05
3.34471e-05
4.18118e-05
5.62565e-05
7.2657e-05
8.68329e-05
9.64668e-05
0.000100694
9.92556e-05
9.27338e-05
8.32809e-05
7.42824e-05
6.85905e-05
6.72666e-05
6.92283e-05
7.16491e-05
7.14692e-05
6.72378e-05
5.92598e-05
4.81091e-05
3.4683e-05
2.21136e-05
1.39341e-05
1.08253e-05
1.22752e-05
1.9644e-05
3.8975e-05
8.65652e-05
0.00011027
4.21026e-05
1.00636e-05
7.75736e-06
4.73046e-05
9.26765e-05
4.99832e-05
3.28007e-05
3.30932e-05
4.33085e-05
5.8889e-05
7.50076e-05
8.83922e-05
9.77973e-05
0.000102744
0.000102819
9.79969e-05
8.94509e-05
7.99108e-05
7.25188e-05
6.90745e-05
6.93386e-05
7.14321e-05
7.27973e-05
7.17589e-05
6.82993e-05
6.32019e-05
5.6304e-05
4.64276e-05
3.45265e-05
2.38058e-05
1.60895e-05
1.31519e-05
2.04252e-05
3.7669e-05
6.47998e-05
5.38578e-05
1.05353e-05
7.71161e-06
4.53828e-05
9.16778e-05
4.8817e-05
3.10904e-05
3.12354e-05
4.22069e-05
5.97072e-05
7.79228e-05
9.28255e-05
0.000103334
0.000109302
0.000110384
0.000106325
9.7915e-05
8.76681e-05
7.90125e-05
7.43542e-05
7.39327e-05
7.58197e-05
7.71532e-05
7.62636e-05
7.32795e-05
6.83995e-05
6.00513e-05
4.92129e-05
4.07386e-05
3.63388e-05
3.36942e-05
3.18786e-05
3.69881e-05
1.89598e-05
1.57234e-05
6.16346e-05
1.27359e-05
7.59394e-06
4.27462e-05