/*--------------------------------*- C++ -*----------------------------------*\
| =========                 |                                                 |
| \\      /  F ield         | OpenFOAM: The Open Source CFD Toolbox           |
|  \\    /   O peration     | Version:  v2006                                 |
|   \\  /    A nd           | Website:  www.openfoam.com                      |
|    \\/     M anipulation  |                                                 |
\*---------------------------------------------------------------------------*/
FoamFile
{
    version     2.0;
    format      ascii;
    class       volScalarField;
    location    "91";
    object      omega;
}
// * * * * * * * * * * * * * * * * * * * * * * * * * * * * * * * * * * * * * //

dimensions      [0 0 -1 0 0 0 0];


internalField   nonuniform List<scalar> 
78750
(
2277.6
351.819
241.063
133.961
52.8056
16.907
23.8206
18.9442
22.2198
17.9804
22.0971
18.0269
20.8789
18.82
19.8946
19.0792
19.3172
19.0346
18.9775
18.8423
18.7304
18.6138
18.4968
18.3771
18.2527
18.1222
17.985
17.8402
17.6777
17.486
17.2458
16.9296
16.4845
15.6087
542.199
410.626
20.1621
20.9824
11.2744
15.716
13.9115
14.5202
14.1882
13.9517
14.0204
13.7411
13.7558
13.5995
13.5488
13.4558
13.3931
13.3283
13.2745
13.2273
13.1872
13.1538
13.1271
13.1052
13.087
13.0722
13.0615
13.0568
13.0598
13.0689
13.0786
13.0747
13.0212
12.8031
11.7658
803.485
422.543
8.16866
6.71753
7.60068
7.40653
8.91148
9.16682
9.68611
10.0127
10.2853
10.5458
10.762
10.965
11.1414
11.2831
11.374
11.4257
11.4565
11.4789
11.5004
11.5256
11.5574
11.5957
11.64
11.6899
11.745
11.8049
11.8693
11.9374
12.009
12.0831
12.1591
12.227
12.2356
809.525
408.776
6.49374
7.51878
8.33466
9.09028
9.44935
9.69541
9.87074
10.0188
10.1306
10.1813
10.1597
10.0802
10.0157
10.1134
10.3632
10.6204
10.8483
11.0404
11.1926
11.3117
11.4094
11.4971
11.5838
11.6755
11.7738
11.8786
11.9885
12.1003
12.2079
12.2953
12.3128
12.1002
11.8231
812.271
411.545
10.0595
10.9753
11.351
11.4584
11.3619
11.1978
11.0676
10.984
10.9175
10.8466
10.7633
10.6819
10.6204
10.5846
10.5769
10.5918
10.621
10.6598
10.7069
10.7642
10.8347
10.9177
11.0117
11.1191
11.2427
11.3793
11.5268
11.6862
11.8654
12.0874
12.383
12.7108
13.3208
816.625
414.273
11.0241
11.3956
11.3698
11.0237
10.5695
10.3169
10.2376
10.2204
10.2151
10.2134
10.2158
10.2218
10.23
10.239
10.2506
10.2671
10.2902
10.3213
10.3626
10.4158
10.4815
10.5591
10.6463
10.7392
10.8381
10.9441
11.0505
11.1512
11.2474
11.3635
11.5957
12.1873
13.594
819.134
413.927
11.9853
12.8099
13.0174
12.7754
12.09
11.2794
10.6138
10.174
9.921
9.78631
9.7271
9.71896
9.74066
9.77633
9.81816
9.86462
9.91694
9.97605
10.0428
10.1184
10.2038
10.2994
10.4072
10.5284
10.659
10.7932
10.923
11.0368
11.1237
11.1882
11.3544
12.2198
14.4195
821.802
415.536
13.6749
14.614
14.7804
14.6556
14.1879
13.4615
12.6533
11.9189
11.3056
10.7917
10.3802
10.0883
9.8947
9.76842
9.69472
9.66513
9.66915
9.69699
9.74455
9.80977
9.89029
9.98389
10.0878
10.2025
10.336
10.4897
10.6459
10.7878
10.8975
10.9579
11.0442
11.9974
14.8507
823.875
420.849
14.6352
15.0278
14.8731
14.3909
13.4749
12.6792
12.0013
11.458
11.0621
10.7796
10.5753
10.4056
10.256
10.1287
10.0245
9.94421
9.88838
9.85748
9.85165
9.87052
9.91314
9.97787
10.062
10.1615
10.2694
10.3926
10.5438
10.7034
10.8431
10.9345
11.0182
12.0208
15.3705
825.948
425.098
14.8309
14.7486
14.2194
12.9966
11.2327
10.5238
10.4874
10.491
10.4647
10.4169
10.3535
10.2839
10.2142
10.1484
10.0892
10.0395
10.0015
9.97755
9.96963
9.97916
10.007
10.0531
10.1164
10.1938
10.279
10.3748
10.4928
10.6282
10.7612
10.868
11.0028
12.2236
15.9778
827.965
427.294
15.0428
14.8842
14.2029
12.7158
10.8537
10.021
10.1615
10.257
10.3064
10.3257
10.3213
10.2997
10.2687
10.2347
10.2025
10.1748
10.1537
10.1407
10.1379
10.1471
10.1697
10.2066
10.2577
10.3214
10.3934
10.4743
10.5718
10.6859
10.8048
10.9137
11.0949
12.574
16.6939
829.91
428.684
15.5764
15.2745
14.3729
12.7981
11.1367
10.116
9.96791
9.96509
9.9994
10.0641
10.1325
10.1878
10.223
10.2397
10.2443
10.2431
10.2412
10.2418
10.2468
10.2582
10.2773
10.3054
10.3424
10.3877
10.4421
10.5086
10.5898
10.6869
10.802
10.9611
11.4539
13.6616
17.8717
831.302
422.071
15.2115
15.8121
16.0448
16.0265
15.5788
14.5974
13.5008
12.6104
11.7816
11.0604
10.5036
10.1559
10.0156
10.0271
10.1114
10.2042
10.2702
10.3086
10.333
10.3548
10.3788
10.4062
10.4378
10.4746
10.5181
10.568
10.6232
10.6836
10.7557
10.9208
11.7142
14.7459
18.8605
831.466
415.994
14.5302
16.0911
16.9277
17.4568
17.8281
18.0325
17.9234
17.4585
16.7785
15.9296
14.9197
13.7796
12.5649
11.3746
10.3871
9.80629
9.67548
9.83362
10.0704
10.2378
10.3241
10.373
10.4144
10.4577
10.5049
10.5538
10.6011
10.6458
10.6968
10.8491
11.7193
15.1903
19.2371
830.764
414.325
12.7861
14.6362
15.5495
16.0348
16.3481
16.615
16.912
17.2282
17.4882
17.6086
17.5144
17.1669
16.5533
15.6739
14.5383
13.1626
11.6059
10.2248
9.54164
9.4953
9.75075
10.0253
10.2059
10.3122
10.3867
10.4523
10.5128
10.565
10.6059
10.6871
11.2793
14.4469
18.791
830.313
420.588
15.3561
16.7471
17.3581
17.6038
17.6296
17.4716
17.1358
16.654
16.1395
15.7721
15.6947
15.884
16.1345
16.2491
16.0998
15.5768
14.5997
13.1575
11.5245
10.3003
9.79079
9.72863
9.87456
10.0641
10.213
10.3209
10.4095
10.4991
10.5931
10.6941
11.0381
13.5621
18.1802
830.819
431.484
17.8323
18.1894
18.1957
18.0815
17.8552
17.5528
17.3433
17.2172
16.9422
16.3902
15.6574
15.0903
14.9069
14.9396
15.0021
15.0025
14.7658
13.9424
12.5535
11.1253
10.2085
9.90376
9.8702
9.94108
10.0572
10.1717
10.2731
10.3772
10.5099
10.7021
11.1473
13.3982
18.0457
832.226
436.962
17.7359
17.518
17.2914
16.9169
16.2224
15.3886
15.0757
15.3227
15.5694
15.6319
15.517
15.258
14.9665
14.7358
14.5492
14.3407
13.9943
13.2684
12.0806
10.8974
10.2334
10.0302
10.0104
10.0605
10.1417
10.231
10.32
10.4143
10.5295
10.6937
11.2455
13.9511
18.6237
833.727
435.191
17.8487
17.9695
17.8667
17.4837
16.6642
15.7197
15.2602
15.2457
15.3124
15.3584
15.3604
15.2953
15.1407
14.8946
14.5728
14.1597
13.5764
12.696
11.5459
10.5819
10.1494
10.0449
10.0582
10.1191
10.2021
10.2939
10.3932
10.5143
10.696
11.0356
12.0884
15.5071
19.8344
834.949
431.753
17.6879
17.9683
17.935
17.6978
17.1804
16.4486
15.9172
15.7212
15.6682
15.6431
15.6057
15.5359
15.4162
15.2268
14.9393
14.5099
13.8699
12.9449
11.8018
10.8336
10.3599
10.2134
10.1929
10.2206
10.2714
10.3342
10.4093
10.5167
10.7181
11.1923
12.8373
17.0762
21.0658
836.258
431.998
17.667
17.9638
17.948
17.7446
17.264
16.3929
15.6178
15.5055
15.6464
15.7474
15.7795
15.7568
15.6809
15.5423
15.3195
14.9657
14.3907
13.4855
12.2986
11.231
10.6598
10.4536
10.3896
10.3782
10.3931
10.4249
10.4761
10.5769
10.8426
11.6184
13.9265
18.4768
22.1557
837.918
434.032
18.0748
18.2661
18.1826
17.8812
17.253
16.2735
15.2249
14.9927
15.3391
15.6386
15.7972
15.8648
15.8671
15.8062
15.6693
15.4234
14.9959
14.2703
13.2221
12.1642
11.4502
11.0778
10.8885
10.7783
10.7046
10.6526
10.6219
10.6418
10.8552
11.7598
14.5726
19.3713
22.9345
839.63
434.417
18.2221
18.2975
18.0969
17.6655
16.972
16.1771
15.3141
14.8445
15.1225
15.5269
15.7886
15.9338
15.9997
15.9961
15.9149
15.729
15.3721
14.7123
13.6198
12.3462
11.5205
11.1686
11.0141
10.9297
10.8742
10.8313
10.7994
10.8172
11.088
12.2226
15.3406
20.0984
23.5855
841.339
434.702
18.5628
18.5564
18.239
17.6713
16.9622
16.3874
15.6735
14.8299
14.7093
15.1796
15.6195
15.9041
16.0777
16.1694
16.1833
16.1066
15.905
15.5032
14.7765
13.6873
12.5706
11.8467
11.4755
11.2641
11.1201
11.0131
10.9339
10.9243
11.2686
12.7378
16.0977
20.6815
24.092
842.644
439.209
19.075
18.6555
18.0146
16.9943
16.0318
15.845
15.6681
15.011
14.4802
14.798
15.3824
15.7849
16.0515
16.2509
16.3912
16.4613
16.4492
16.3408
16.0952
15.6117
14.8242
13.8613
12.9932
12.3535
11.8989
11.5588
11.293
11.1259
11.4053
13.1872
16.8509
21.1463
24.4285
843.385
444.787
19.1884
18.2738
17.1708
15.3185
13.9011
14.2551
14.6989
14.6309
14.4261
14.7513
15.3053
15.7153
16.0019
16.2309
16.4172
16.5453
16.6
16.562
16.3823
15.9879
15.3519
14.5796
13.8536
13.258
12.7692
12.3437
11.9533
11.6211
11.7316
13.5789
17.5257
21.5208
24.6478
843.732
446.079
18.8889
17.8748
16.4976
14.0128
12.1879
13.0593
13.76
13.9497
14.2631
14.8474
15.2948
15.587
15.7996
15.9633
16.0814
16.1447
16.1387
16.0462
15.8518
15.5504
15.162
14.735
14.3181
13.928
13.5544
13.1777
12.7773
12.3655
12.2952
13.974
18.0849
21.8229
24.7936
843.671
442.912
18.6012
17.9121
16.7384
14.2377
10.8657
11.2996
12.7753
13.2277
13.6006
14.1963
14.6351
14.9168
15.1244
15.284
15.3989
15.4664
15.4841
15.451
15.3682
15.2411
15.0803
14.8987
14.705
14.4992
14.2724
14.0094
13.688
13.296
13.0492
14.2292
18.1875
21.8923
24.8129
843.369
442.865
18.8562
18.2859
17.26
14.9628
10.5661
8.34827
11.0768
12.2754
12.9062
13.516
13.9994
14.2865
14.4968
14.6705
14.8122
14.9216
15.0004
15.0515
15.0782
15.0838
15.0717
15.0439
14.9997
14.934
14.8365
14.691
14.4733
14.1544
13.8321
14.5067
18.0151
21.8334
24.8156
843.312
440.049
18.3632
18.0625
17.3544
15.8078
12.8358
8.54468
8.51294
10.1938
11.5777
12.5377
13.1046
13.4858
13.7881
14.0447
14.2629
14.4461
14.5997
14.7287
14.8398
14.9378
15.0249
15.1013
15.1648
15.2097
15.2252
15.1949
15.095
14.8941
14.6363
15.0667
18.051
21.8763
24.9106
843.529
435.339
18.6077
18.9455
18.9839
18.7837
17.9285
15.5261
11.5565
9.02466
8.44513
9.56814
10.8798
11.8047
12.4345
12.9157
13.3118
13.6429
13.9231
14.1647
14.3779
14.5707
14.7492
14.9169
15.0733
15.2125
15.3286
15.4076
15.4266
15.3561
15.2209
15.6335
18.3328
22.0558
25.0706
843.844
431.957
18.7186
19.2403
19.3482
19.3879
19.4952
19.6074
18.836
16.4769
13.2653
9.92104
7.655
7.66326
9.05169
10.4045
11.409
12.1413
12.6884
13.1256
13.495
13.8202
14.1156
14.3912
14.6533
14.9037
15.1381
15.345
15.5051
15.5969
15.6365
16.0918
18.5943
22.2304
25.2349
844.418
435.073
19.0986
19.2637
19.03
18.5847
17.9733
17.8417
18.8271
19.7908
19.6792
18.2044
15.5715
12.1146
8.17271
5.28326
6.23938
8.39173
10.0787
11.2141
11.9741
12.5445
13.0271
13.4628
13.8706
14.2599
14.6312
14.978
15.291
15.5674
15.85
16.5614
19.0161
22.5292
25.5184
845.428
443.959
20.1759
19.7576
19.2927
18.6972
17.8807
16.9789
16.5927
17.5015
18.7597
19.4912
19.6104
18.8385
16.7422
13.5528
8.83055
5.49931
4.33076
6.79734
9.05604
10.4553
11.3774
12.0795
12.6802
13.242
13.7906
14.3273
14.8416
15.3394
15.9173
17.0668
19.6771
22.9758
25.8654
846.233
449.719
20.3491
19.6305
19.0052
18.2028
17.3566
17.247
17.6304
17.8691
18.2547
18.7502
19.1233
19.3176
19.2767
18.666
16.7665
13.2357
8.48772
5.62323
4.31683
6.59449
8.6861
10.0311
11.0298
11.8861
12.6775
13.4413
14.1823
14.8993
15.7084
17.2387
20.2936
23.47
26.212
846.788
445.756
19.4716
19.081
18.534
17.5484
16.0359
15.0667
16.0465
17.4506
18.3364
18.8407
19.138
19.2938
19.3383
19.2835
19.0602
18.2914
16.0321
11.6398
6.07945
4.81261
5.20466
7.42131
9.0956
10.3435
11.4057
12.4108
13.409
14.3897
15.3655
16.8445
20.0882
23.4953
26.3058
847.508
444.005
20.0404
19.9475
19.5455
18.6779
17.0092
14.5649
13.6471
15.0208
16.6393
17.8321
18.6216
19.1134
19.3771
19.4643
19.4187
19.2508
18.8268
17.4476
13.8793
8.1137
4.39483
4.26765
6.50857
8.34427
9.77701
11.0451
12.3042
13.6113
14.8937
16.3628
19.5015
23.3711
26.5603
849.948
445.386
19.886
19.8294
19.6822
19.2715
18.3747
16.7681
14.7728
14.0359
14.6533
15.761
16.8526
17.7452
18.4072
18.8479
19.0847
19.1433
19.0417
18.7074
17.5959
14.8686
11.0397
7.16269
5.61789
6.6932
8.28805
9.79565
11.2914
12.973
14.7507
16.4025
19.2853
23.4223
26.9782
852.967
441.701
19.1359
19.674
20.0522
20.2727
20.2543
19.7855
18.4576
16.3346
14.5914
13.9013
14.1687
14.9289
15.7943
16.5616
17.1468
17.5245
17.6686
17.4024
16.0849
12.9743
8.45649
5.05076
5.20323
6.78827
8.26349
9.52319
10.7102
12.1452
14.1707
16.2697
19.2431
23.5774
27.5422
857.155
434.345
18.9078
19.9321
20.4346
20.7544
20.965
21.0229
20.7287
19.6618
17.7319
15.4459
13.4071
12.0843
11.533
11.4243
11.2808
10.7816
9.97153
9.05139
8.13349
7.15125
6.52083
6.84311
7.72702
8.73876
9.81021
11.0333
12.4353
13.7992
15.5021
18.1566
21.5904
25.3896
29.1873
862.224
433.173
18.7386
19.5227
19.8354
20.017
20.207
20.5025
20.9317
21.3405
21.3296
20.5256
18.8818
16.6274
14.0303
11.4384
9.29064
7.84171
7.03255
6.67611
6.2948
6.14152
6.53882
7.3253
8.22256
9.15282
10.2233
11.745
14.1391
16.8335
18.6497
20.9588
24.1944
27.0498
30.0288
859.863
439.471
19.3891
19.8245
20.0545
20.1517
20.1243
19.9828
19.8166
19.8588
20.369
21.2545
22.0823
22.4558
22.0633
20.6623
18.2752
14.8861
9.87703
5.78246
5.01097
4.0518
5.03247
5.89546
6.71134
7.7602
9.17813
11.1401
14.1832
18.3385
21.4825
23.3438
25.585
27.4878
29.5019
851.799
445.71
20.4778
20.6196
20.7505
20.8721
20.9655
20.9818
20.813
20.2897
19.3702
18.4562
18.1794
18.6264
19.28
19.7347
19.8333
19.1726
16.6241
10.5321
4.10011
3.95349
4.61953
5.31303
4.96894
6.51227
8.14111
10.2325
13.2708
17.7995
22.603
25.1406
26.5126
27.6355
28.8425
846.014
444.98
19.893
19.9303
19.9893
20.0439
20.1136
20.256
20.5676
21.0597
21.4852
21.4884
20.9261
20.0286
19.2303
18.7402
18.4703
18.2335
17.6528
15.0324
7.66478
5.10455
5.31215
4.26872
5.04554
5.26444
7.29422
9.25602
11.6775
15.2799
20.4377
24.9184
26.7455
27.6274
28.3907
845.03
447.475
20.2951
20.2278
20.2283
20.1994
20.0844
19.8329
19.4749
19.2736
19.6029
20.344
20.9953
21.2872
21.1769
20.7347
20.1501
19.5603
18.9105
17.8278
14.552
7.24265
5.86605
5.85548
4.52228
5.01234
5.48724
7.78442
10.0076
12.3788
15.9288
21.0072
24.6646
26.3614
27.6303
848.282
449.164
20.3946
20.2287
20.2012
20.2001
20.1946
20.183
20.1583
20.0287
19.7899
19.688
19.8459
20.1062
20.3135
20.3971
20.3182
20.0501
19.566
18.7447
17.0819
12.5742
4.62803
5.10721
4.98968
4.37643
4.71473
7.35979
10.0529
12.2256
14.121
17.4813
22.07
25.0171
27.5005
853.213
445.678
19.9053
19.8271
19.7576
19.625
19.3907
19.1073
19.0329
19.3774
19.9165
20.3293
20.553
20.6634
20.7155
20.714
20.6407
20.4708
20.1699
19.6644
18.721
16.5679
10.8967
6.73884
4.05979
5.37114
4.18782
7.36203
10.8102
13.8397
15.8988
18.008
21.8069
24.9963
27.9468
854.182
447.122
20.5406
20.4477
20.36
20.2117
19.9153
19.365
18.5791
17.9643
18.0476
18.7045
19.4479
20.0349
20.4454
20.7055
20.8315
20.8284
20.6914
20.3967
19.864
18.808
16.3347
11.2397
5.95664
3.87009
5.76656
6.48914
10.142
13.8547
16.954
19.4868
22.6008
25.2927
27.8796
851.184
447.453
20.2724
20.1023
19.9847
19.8352
19.6078
19.2949
18.8715
18.2828
17.7837
17.7809
18.2441
18.8601
19.4295
19.8957
20.246
20.4688
20.5471
20.4554
20.1366
19.4152
17.8111
14.3998
9.28911
5.02878
4.37802
6.58009
9.68989
13.0696
16.3575
19.5
22.69
25.1259
27.4576
849.49
446.47
20.3784
20.2725
20.1142
19.8462
19.3887
18.7642
18.1657
17.638
17.1272
16.8097
16.906
17.3441
17.9201
18.4996
19.0148
19.4192
19.6648
19.6842
19.3549
18.4514
16.695
13.8326
9.96626
6.77863
6.32436
7.96116
10.7765
14.1495
17.1003
19.8211
22.768
25.0373
27.3093
849.031
448.342
20.7786
20.5848
20.4136
20.1678
19.7446
19.1026
18.3376
17.5357
16.696
15.9016
15.4229
15.4146
15.7622
16.3003
16.9122
17.496
17.9385
18.1386
18.0112
17.4458
16.2732
14.4153
12.0844
9.96793
8.95163
9.32628
11.3594
15.013
18.7901
21.5293
23.7318
25.474
27.3658
846.725
449.321
20.5783
20.2324
19.9879
19.6779
19.2086
18.6556
18.1741
17.7074
17.0911
16.22
15.2041
14.3788
13.9842
14.0067
14.3585
14.9728
15.7562
16.5222
17.0602
17.2462
17.0171
16.3228
15.1948
13.8815
12.757
12.0591
12.1543
14.015
17.8473
21.6873
24.2089
25.6892
27.1494
844.384
450.525
20.8534
20.5037
20.2436
19.8784
19.2594
18.4431
17.7553
17.3438
17.0673
16.7098
16.1215
15.3537
14.6239
14.0665
13.6939
13.4994
13.5636
14.0777
15.0115
15.9664
16.66
17.0058
16.9973
16.6883
16.194
15.6155
15.024
14.7466
15.9745
19.2475
22.5469
24.6119
26.4009
845.643
451.008
20.7243
20.3391
20.0845
19.7367
19.1424
18.3145
17.4714
16.7756
16.2486
15.8171
15.3708
14.8384
14.2682
13.7404
13.2894
12.9051
12.5988
12.6463
13.6952
15.236
16.6036
17.5797
18.1841
18.4796
18.5191
18.3362
17.9328
17.2905
16.8063
18.0757
21.0779
23.8087
26.5143
851.697
450.619
20.5946
20.2386
19.9963
19.6438
19.0283
18.1915
17.3976
16.722
16.0803
15.4118
14.7008
13.9782
13.3192
12.7597
12.2756
11.8163
11.3878
11.606
13.5853
15.8347
17.4789
18.5749
19.3072
19.7965
20.0826
20.1557
19.9763
19.504
19.0255
19.789
22.2949
24.9195
27.9367
857.632
450.316
20.6161
20.3187
20.1194
19.8016
19.1765
18.2001
17.2105
16.4747
15.8893
15.2799
14.5541
13.7232
12.8908
12.1401
11.4628
10.7969
10.2156
10.8765
14.005
16.8175
18.4911
19.5298
20.263
20.8472
21.3309
21.6688
21.7382
21.5715
21.6407
22.7125
24.7136
26.6756
29.1441
857.346
449.79
20.468
20.1958
20.0356
19.7899
19.2874
18.4038
17.3028
16.3381
15.5856
14.9004
14.1499
13.305
12.4403
11.618
10.8238
9.97986
9.17543
9.87818
13.7886
17.2965
19.1055
20.1622
20.9277
21.6054
22.2924
22.9799
23.452
23.6198
23.9588
24.9692
26.3644
27.6738
29.3678
852.755
449.449
20.3965
20.1115
19.9433
19.7103
19.2756
18.5319
17.5301
16.5231
15.6698
14.9062
14.1087
13.2228
12.3069
11.4166
10.5401
9.56083
8.40244
8.23284
12.0489
16.674
19.0321
20.2968
21.1599
21.8999
22.6572
23.5395
24.4634
25.1123
25.594
26.2989
27.1349
27.9249
29.0195
850.006
450.189
20.4268
20.0647
19.8566
19.6077
19.2015
18.5447
17.6486
16.6774
15.7888
14.9758
14.1485
13.2534
12.3172
11.3951
10.4777
9.42702
8.02217
6.79854
9.57408
15.2318
18.4748
20.0704
21.0753
21.8677
22.5967
23.3819
24.404
25.5556
26.4665
27.1552
27.7014
28.189
29.0449
851.892
450.484
20.2399
19.784
19.5173
19.2383
18.8765
18.3493
17.626
16.7839
15.9401
15.1201
14.27
13.3496
12.3864
11.4429
10.5044
9.41566
7.88655
6.02608
7.6081
13.7696
18.1113
19.998
21.0547
21.8785
22.6744
23.4255
24.2401
25.4194
26.6512
27.5449
28.1475
28.6837
29.7319
856.285
450.58
20.1152
19.5956
19.2742
18.9633
18.6352
18.2043
17.6245
16.9202
16.1533
15.3563
14.5059
13.564
12.5643
11.5829
10.61
9.47771
7.86646
5.744
6.59249
12.8372
18.4229
20.7036
21.5954
22.2269
23.0915
24.2655
25.1944
25.9702
26.8338
27.5983
28.2406
28.9316
30.2221
857.246
449.608
19.7937
19.2433
18.8819
18.5638
18.3076
18.0025
17.5797
17.0361
16.3892
15.662
14.8452
13.9233
12.9284
11.9379
10.9564
9.82799
8.2444
6.05393
5.85978
11.4655
18.2768
22.0442
23.1237
23.3477
23.7416
25.1279
26.8076
27.7431
28.2413
28.5951
28.9279
29.364
30.2377
851.924
448.099
19.5248
19.0088
18.6395
18.3155
18.1141
17.9226
17.6419
17.2486
16.7387
16.1189
15.3881
14.5408
13.604
12.6531
11.7201
10.6981
9.34069
7.36503
5.55258
8.39394
15.2058
21.321
24.5914
25.4846
25.3548
25.6117
26.9457
28.374
29.2958
29.7979
30.0426
30.1341
30.101
844.279
446.198
19.2741
18.8282
18.4704
18.1203
17.9207
17.8082
17.6489
17.3966
17.0391
16.5725
15.9926
15.2953
14.4967
13.6579
12.8434
12.0171
11.018
9.60936
7.62886
6.28352
9.46088
15.785
21.7148
25.6731
27.3838
27.5482
27.4059
27.6582
28.2153
28.7848
29.1641
29.2491
28.812
838.213
444.825
19.1632
18.7806
18.4475
18.0754
17.8309
17.7484
17.6816
17.5533
17.338
17.0251
16.6083
16.0826
15.4536
14.7587
14.0677
13.4179
12.7377
11.873
10.6397
8.92164
7.46654
9.09583
14.1334
19.9151
24.7517
27.8733
29.0935
29.0153
28.5145
28.0452
27.7067
27.3652
26.8054
835.076
444.112
19.1142
18.7539
18.4431
18.082
17.7957
17.6853
17.6519
17.6033
17.4998
17.3235
17.0636
16.7122
16.2671
15.7424
15.1899
14.6738
14.2005
13.6993
13.0554
12.1245
10.7978
9.34095
9.22514
12.1235
17.0254
22.157
26.3712
29.0746
30.1074
29.9776
29.3066
28.4964
27.6553
835.953
444.07
19.0721
18.6775
18.3702
18.0597
17.8326
17.742
17.7275
17.7184
17.677
17.5852
17.4327
17.2117
16.9163
16.5467
16.1296
15.7212
15.3654
15.055
14.7424
14.3505
13.7777
12.923
11.8001
10.8667
11.3103
13.9753
18.1628
22.741
26.8181
29.5534
30.7765
31.0585
30.7721
839.179
444.499
19.0227
18.5494
18.2065
17.9126
17.7622
17.7312
17.7498
17.7713
17.7702
17.7328
17.6503
17.5171
17.3273
17.0771
16.778
16.4683
16.1957
15.9832
15.8235
15.6873
15.5281
15.2897
14.9013
14.2944
13.4798
12.7216
12.7227
14.3704
17.9841
22.5932
26.5789
29.0129
29.8252
840.49
444.831
18.9086
18.3695
17.9926
17.7006
17.6272
17.6866
17.7648
17.8215
17.8466
17.8351
17.7832
17.6882
17.5479
17.3587
17.1247
16.8693
16.6378
16.4648
16.361
16.3154
16.3087
16.3183
16.3156
16.2508
16.0395
15.6051
14.9509
14.232
14.0525
16.1904
18.9719
21.4781
23.5305
844.446
444.944
18.8011
18.2372
17.8299
17.4778
17.3852
17.4833
17.6134
17.7149
17.776
17.7942
17.7677
17.6952
17.5759
17.4082
17.1934
16.9479
16.7127
16.5331
16.43
16.3975
16.4237
16.4977
16.6079
16.7238
16.8734
17.1483
17.4985
17.672
17.4378
17.4794
15.4593
16.3063
22.3566
860.291
444.904
18.7539
18.2016
17.7778
17.3506
17.187
17.2793
17.4331
17.5607
17.6429
17.6764
17.6599
17.5922
17.4718
17.2964
17.0655
16.7918
16.517
16.2957
16.1575
16.0967
16.0998
16.165
16.3121
16.7158
17.6587
18.9113
20.0031
20.5899
20.4179
19.2211
16.8953
20.7213
28.0302
872.911
445.048
18.8324
18.2691
17.7948
17.2529
16.9535
16.9965
17.1646
17.3237
17.4352
17.4913
17.4896
17.4286
17.3061
17.1174
16.859
16.5396
16.2025
15.9135
15.7117
15.5902
15.5378
15.5971
16.0196
17.394
19.4931
21.1632
22.1171
22.4259
22.036
21.2341
21.7905
25.6244
30.7472
867.794
445.868
19.07
18.4228
17.8454
17.2008
16.8258
16.8081
16.9595
17.1252
17.2504
17.3212
17.3327
17.282
17.1654
16.9763
16.7062
16.3565
15.9655
15.6042
15.3262
15.1286
15.0106
15.0965
15.8873
18.1147
21.0885
22.869
23.4538
23.6065
23.5787
23.818
25.197
27.6076
30.4076
852.68
447.522
19.3887
18.5367
17.7396
16.9224
16.5785
16.5974
16.7693
16.9559
17.1003
17.19
17.2213
17.1908
17.0945
16.925
16.6705
16.3263
15.9216
15.523
15.1924
14.9332
14.7406
14.7232
15.3541
17.5095
21.0502
23.7433
24.4992
24.6105
24.8699
25.4939
26.5583
27.8317
29.1127
842.759
450.358
19.7876
18.6325
17.5197
16.4695
16.252
16.4085
16.6315
16.8366
16.996
17.1026
17.1541
17.148
17.0805
16.9454
16.7315
16.4315
16.0604
15.6706
15.326
15.0441
14.8079
14.6418
14.7819
15.9604
18.9435
22.6964
24.8958
25.4318
25.7222
26.2429
26.8938
27.5154
28.0386
839.419
453.182
19.9827
18.5322
17.0948
15.7615
15.6862
16.0688
16.4164
16.6797
16.8723
17.0051
17.083
17.1067
17.0748
16.9825
16.8214
16.5843
16.2777
15.9378
15.6234
15.368
15.16
14.9718
14.8354
15.0507
16.4314
19.5854
23.2493
25.3868
26.0783
26.5177
26.9128
27.2299
27.5015
839.599
454.393
19.9733
18.5118
17.0085
15.4011
15.0995
15.5137
15.9652
16.3232
16.5905
16.7831
16.9122
16.9836
16.9996
16.959
16.8574
16.6901
16.4593
16.189
15.9306
15.7287
15.5923
15.4882
15.3696
15.2626
15.4602
16.7714
19.8332
23.4649
25.5657
26.379
26.8074
27.0952
27.4218
841.414
452.167
19.875
18.9076
17.812
16.1641
14.9575
14.7383
15.0467
15.4952
15.9086
16.2371
16.479
16.6439
16.7409
16.7746
16.7467
16.6565
16.5062
16.3121
16.1197
15.9797
15.9249
15.9418
15.9699
15.9499
15.887
16.0412
17.2279
20.243
23.7772
25.6597
26.5057
27.0108
27.5964
843.936
448.452
20.2331
19.9983
19.5819
18.589
16.8694
15.249
14.357
14.2577
14.6377
15.1445
15.593
15.9357
16.1774
16.3309
16.4066
16.4117
16.3517
16.2387
16.1118
16.028
16.044
16.1763
16.3769
16.5679
16.6703
16.6677
16.8029
17.9742
21.0887
24.2197
25.8604
26.7902
27.7738
846.853
445.547
20.6103
20.8623
20.9466
20.7943
20.0391
18.3765
16.273
14.4715
13.5841
13.6632
14.2103
14.7889
15.2499
15.5811
15.8004
15.9262
15.9718
15.9491
15.8884
15.8503
15.9171
16.1436
16.5044
16.9231
17.2958
17.5218
17.5772
17.7405
19.1573
22.3625
24.8792
26.3906
27.8825
850.085
445.038
20.6191
20.947
21.1992
21.417
21.5136
21.1304
19.7751
17.5254
15.0404
13.3067
12.9504
13.4518
14.1006
14.6281
15.0067
15.2615
15.4165
15.4866
15.4937
15.4936
15.5898
15.8834
16.3862
17.025
17.6756
18.1992
18.4951
18.5669
18.9003
21.0449
23.9699
26.0199
28.0558
853.263
446.861
20.6219
20.714
20.8252
20.9808
21.2103
21.4336
21.3225
20.3443
18.1734
15.2903
13.1106
12.612
13.1017
13.7333
14.2311
14.5833
14.8217
14.9666
15.0302
15.0533
15.162
15.5192
16.1767
17.0496
17.976
18.7786
19.3266
19.5649
19.6508
20.8755
23.6729
25.9808
28.3899
855.683
450.623
21.1506
21.0054
20.9446
20.895
20.8707
20.9339
21.0196
20.8713
20.0061
17.7435
14.6552
12.7598
12.6007
13.1229
13.6442
14.0286
14.2961
14.471
14.5631
14.604
14.7197
15.1403
15.977
17.118
18.3228
19.3662
20.1151
20.5239
20.7008
21.6281
24.1105
26.3236
28.7724
856.589
454.295
21.5389
21.2384
21.153
21.1214
21.0382
20.8708
20.6868
20.446
19.9697
18.7087
15.9954
13.4125
12.6116
12.8948
13.3362
13.6805
13.9231
14.0878
14.1795
14.2182
14.3431
14.8542
15.919
17.3585
18.8193
20.0412
20.9241
21.4718
21.8595
22.87
24.976
26.8513
29.0576
855.672
456.077
21.3121
20.8386
20.7389
20.836
20.9506
20.8555
20.5631
20.1294
19.5018
18.4136
16.2944
13.857
12.8495
12.9564
13.2749
13.5373
13.7245
13.8473
13.9085
13.9327
14.0841
14.7265
16.0541
17.7831
19.4583
20.8024
21.7741
22.4513
23.0753
24.1953
25.8572
27.3197
29.1493
853.339
454.98
20.693
20.122
19.9602
20.0809
20.3572
20.4511
20.272
19.846
19.1299
17.9497
16.1049
14.0674
13.156
13.1656
13.3643
13.5368
13.6574
13.7262
13.7466
13.7565
13.9489
14.7269
16.2943
18.2791
20.1345
21.5719
22.6176
23.4162
24.2089
25.2922
26.5172
27.6082
29.0429
850.397
452.661
20.3335
19.8228
19.5944
19.5261
19.6987
19.8775
19.8379
19.5288
18.8836
17.7524
16.0712
14.3192
13.4827
13.3993
13.4996
13.5994
13.6645
13.6879
13.6747
13.6732
13.8857
14.7253
16.436
18.6389
20.686
22.2336
23.3626
24.2598
25.1147
26.0468
26.9254
27.7213
28.8001
847.596
450.937
20.3076
19.8855
19.6217
19.3475
19.2409
19.3587
19.3995
19.2107
18.7175
17.7825
16.3069
14.6963
13.8075
13.6054
13.6232
13.6705
13.6995
13.6984
13.6722
13.6673
13.8644
14.6473
16.3352
18.6753
20.9571
22.6685
23.8924
24.8611
25.7129
26.4855
27.1299
27.7123
28.5161
845.48
450.287
20.255
19.8376
19.5783
19.2767
18.9968
18.9807
19.0366
18.9354
18.5875
17.8826
16.6828
15.1869
14.1559
13.7924
13.7228
13.723
13.7251
13.7118
13.6871
13.688
13.8522
14.4955
15.9824
18.2982
20.8227
22.8125
24.1764
25.1947
26.0208
26.6823
27.1907
27.6407
28.2743
844.245
449.816
19.9605
19.4953
19.2496
19.016
18.7646
18.6746
18.7244
18.6918
18.4656
17.9615
17.0535
15.753
14.5924
14.0164
13.8205
13.7588
13.7297
13.7046
13.6865
13.7065
13.8615
14.3678
15.545
17.5999
20.2115
22.5759
24.2153
25.3239
26.138
26.738
27.1778
27.5604
28.118
843.903
448.886
19.6154
19.139
18.8988
18.6891
18.4659
18.328
18.3644
18.4067
18.3064
17.9834
17.341
16.3073
15.1361
14.339
13.9679
13.812
13.7317
13.6777
13.6481
13.6785
13.8535
14.3111
15.2369
16.8728
19.2564
21.8561
23.8909
25.2232
26.1024
26.6987
27.1199
27.4852
28.0494
844.491
447.681
19.4153
19.0013
18.7874
18.5659
18.2661
17.9684
17.8894
17.9752
18.0108
17.8696
17.4684
16.7209
15.6874
14.7582
14.1958
13.9108
13.7525
13.6439
13.5703
13.5726
13.7562
14.2498
15.1164
16.4504
18.426
20.9196
23.2427
24.8874
25.933
26.5976
27.049
27.4411
28.0884
845.967
447.058
19.4031
19.05
18.8699
18.665
18.3136
17.8018
17.4196
17.3879
17.5074
17.5348
17.349
16.8687
16.0718
15.1718
14.4837
14.0684
13.8144
13.6294
13.4826
13.4156
13.567
14.126
15.1101
16.4054
18.0866
20.2889
22.6278
24.484
25.7101
26.4798
26.9951
27.4511
28.2445
847.866
447.402
19.4865
19.1315
18.9567
18.7796
18.4732
17.8982
17.1871
16.8013
16.8301
16.9562
16.9409
16.6788
16.1309
15.3971
14.7208
14.2382
13.905
13.6385
13.4014
13.2387
13.3344
13.9771
15.2051
16.7026
18.3436
20.3248
22.4973
24.339
25.6193
26.4434
27.0111
27.5382
28.4711
849.06
448.311
19.6536
19.2826
19.0881
18.8911
18.619
18.1193
17.2884
16.4673
16.1369
16.1991
16.2871
16.1969
15.8703
15.3585
14.8162
14.3646
14.0011
13.6712
13.3442
13.0777
13.1124
13.8439
15.3726
17.2104
18.9903
20.8991
22.9244
24.6217
25.8054
26.586
27.1472
27.6927
28.6426
848.634
449.121
19.9305
19.5966
19.4036
19.166
18.8652
18.4535
17.716
16.6626
15.7693
15.4483
15.49
15.5324
15.4173
15.1423
14.7888
14.4321
14.0862
13.7241
13.3275
12.9643
12.9175
13.6897
15.4997
17.7861
19.8123
21.644
23.5228
25.0905
26.1497
26.8425
27.3446
27.8302
28.6286
846.559
449.857
20.2123
19.9094
19.7509
19.5424
19.2527
18.9383
18.4209
17.5069
16.2682
15.222
14.8037
14.8068
14.8641
14.816
14.6591
14.43
14.1474
13.8036
13.3892
12.9608
12.7767
13.3764
15.202
17.9212
20.4793
22.3609
24.0013
25.4262
26.4116
27.0417
27.4749
27.8559
28.4104
843.939
450.652
20.2583
19.8947
19.7681
19.686
19.5524
19.388
19.1339
18.6099
17.6714
16.3141
15.0134
14.3516
14.2634
14.3425
14.3712
14.3029
14.1394
13.881
13.523
13.0963
12.7813
13.0384
14.4304
17.0922
20.2721
22.7553
24.3453
25.5351
26.4166
27.0087
27.4034
27.7089
28.0736
841.826
450.544
19.9264
19.4668
19.351
19.4209
19.5397
19.5718
19.5132
19.3098
18.8774
18.0688
16.7338
15.1681
14.1477
13.876
13.9308
14.0025
13.994
13.8807
13.6521
13.3128
12.952
12.8885
13.6494
15.6197
18.7306
22.0458
24.367
25.6837
26.4887
27.0174
27.3655
27.6123
27.8643
841.134
448.69
19.3731
18.9148
18.8034
18.9286
19.2165
19.4449
19.5107
19.4322
19.2216
18.8455
18.1717
16.9684
15.3429
14.129
13.7163
13.7088
13.7677
13.7728
13.6859
13.4895
13.2044
12.9962
13.2723
14.4432
16.657
19.8791
23.0543
25.1224
26.2454
26.8801
27.2645
27.5223
27.8042
842.411
446.294
18.9904
18.6028
18.4638
18.4793
18.7123
19.0734
19.3256
19.3637
19.2153
18.9217
18.4758
17.7771
16.6303
15.1499
14.093
13.7202
13.6691
13.6762
13.6464
13.5422
13.3516
13.1418
13.1914
13.9276
15.3845
17.7071
20.8676
23.6708
25.4077
26.3694
26.9338
27.3275
27.8407
845.115
445.488
19.0007
18.5886
18.365
18.2177
18.2319
18.5276
18.9835
19.2951
19.3424
19.1582
18.7828
18.2053
17.3457
16.1275
14.8428
14.0727
13.8071
13.7397
13.7013
13.6246
13.4796
13.2893
13.2556
13.848
15.0926
16.6659
19.0955
22.0374
24.2917
25.6664
26.505
27.14
28.0363
847.786
446.764
19.2285
18.6901
18.364
18.1198
18.0059
18.0734
18.4716
18.9973
19.322
19.3717
19.1876
18.7851
18.1183
17.1018
15.7866
14.6273
14.0071
13.7634
13.6544
13.5591
13.4251
13.254
13.2177
13.8597
15.4095
17.012
18.8015
21.3717
23.7774
25.3488
26.3462
27.1563
28.2773
847.818
448.704
19.4369
18.7875
18.3705
18.0296
17.9274
17.9611
18.1644
18.6381
19.1008
19.3418
19.357
19.1775
18.7909
18.1235
17.0949
15.859
14.8837
14.35
14.0752
13.8811
13.6735
13.4243
13.2628
13.7502
15.5134
17.715
19.4901
21.5225
23.7164
25.288
26.3134
27.1559
28.2059
845.134
449.08
19.451
18.8254
18.3816
17.8985
17.6876
17.8317
18.0711
18.4498
18.8937
19.2085
19.3365
19.2915
19.0704
18.6243
17.859
16.7348
15.5129
14.6311
14.1795
13.9649
13.8211
13.6591
13.5016
13.7278
15.1853
17.8606
20.3321
22.2384
23.9711
25.3089
26.2382
26.9992
27.8336
842.006
447.647
19.3089
18.7918
18.4031
17.8521
17.3523
17.3894
17.7246
18.1526
18.6258
19.0275
19.2904
19.412
19.3994
19.2437
18.9082
18.3318