/*--------------------------------*- C++ -*----------------------------------*\
| =========                 |                                                 |
| \\      /  F ield         | OpenFOAM: The Open Source CFD Toolbox           |
|  \\    /   O peration     | Version:  v2006                                 |
|   \\  /    A nd           | Website:  www.openfoam.com                      |
|    \\/     M anipulation  |                                                 |
\*---------------------------------------------------------------------------*/
FoamFile
{
    version     2.0;
    format      ascii;
    class       volScalarField;
    location    "8";
    object      k;
}
// * * * * * * * * * * * * * * * * * * * * * * * * * * * * * * * * * * * * * //

dimensions      [0 2 -2 0 0 0 0];


internalField   nonuniform List<scalar> 
78750
(
0.00424153
0.000647317
0.000930548
0.00193046
0.00218266
0.00200851
0.00198999
0.00200312
0.00195786
0.00192804
0.00188626
0.00183479
0.00178756
0.00172891
0.00167162
0.00161294
0.00154457
0.00147503
0.00140726
0.00132476
0.00126337
0.00117626
0.00112167
0.00103761
0.000983088
0.000923506
0.000848878
0.000822483
0.000787014
0.00067496
0.000716383
0.000591597
0.000197949
9.0911e-05
0.00017105
0.00238651
0.0056119
0.00125227
0.0037637
0.003114
0.00342628
0.00332823
0.00338724
0.00333365
0.00325951
0.00317
0.00307122
0.00296412
0.00284815
0.00271434
0.00256152
0.00238722
0.00219377
0.00198741
0.00177223
0.00154341
0.00130407
0.00106503
0.000840365
0.000618623
0.000381601
0.000213636
0.000219522
0.000371736
0.000547422
0.000648258
0.000630322
0.000652306
0.00129519
0.00494893
0.00114682
0.00307462
0.00128355
0.00576153
0.0019602
0.00378929
0.00256897
0.00267167
0.00241913
0.00227831
0.00217549
0.00212999
0.00212349
0.00213967
0.00216999
0.00220836
0.00224683
0.0022691
0.00224986
0.00217242
0.0020455
0.00189447
0.0017423
0.00157464
0.00137876
0.0012233
0.00115264
0.0011563
0.00119418
0.00123186
0.00125814
0.00130741
0.0015588
0.0023187
0.00463895
0.0038922
0.003201
0.00236963
0.00471811
0.00500383
0.00397249
0.00350561
0.00299308
0.00256179
0.00210463
0.00169698
0.00138364
0.00116602
0.00102931
0.000970399
0.000995795
0.00109303
0.00120806
0.00127237
0.00125866
0.0011923
0.00112732
0.0011012
0.00109856
0.00109234
0.00107747
0.0010627
0.00104846
0.00103242
0.00101675
0.00101548
0.00107876
0.00136794
0.00207514
0.0034162
0.0429642
0.00842152
0.00507418
0.00421747
0.00426324
0.00399888
0.00339642
0.00321603
0.00311584
0.00293841
0.00268479
0.00236647
0.00203844
0.00177023
0.00157306
0.00143582
0.00134532
0.00128388
0.00122146
0.00112518
0.000992868
0.00085972
0.000761645
0.00070706
0.000693637
0.000706247
0.000718045
0.000719803
0.000718776
0.000721362
0.000743674
0.000835344
0.00115199
0.00179301
0.00275356
0.0220033
0.00735065
0.00394315
0.00430185
0.00516622
0.00580599
0.00605096
0.00602567
0.00586327
0.0055412
0.00507072
0.00448812
0.0038256
0.00313377
0.00248488
0.00194695
0.00156463
0.00134428
0.00124968
0.00121242
0.00115116
0.00102614
0.000875315
0.000735868
0.000617682
0.000544594
0.000524967
0.000528535
0.000534561
0.000537951
0.000541968
0.000568799
0.000750313
0.00140387
0.00259327
0.00160028
0.00271513
0.00379753
0.00421811
0.00439355
0.00451771
0.00469036
0.00492319
0.00516934
0.00539193
0.00555458
0.00560622
0.00549461
0.0052001
0.00472891
0.00410254
0.00336953
0.00261214
0.00192681
0.00141869
0.00114984
0.00106242
0.00101099
0.000881037
0.00070311
0.000560112
0.000491994
0.000488147
0.000505656
0.000523196
0.00054864
0.000631619
0.000979488
0.0017039
0.00292516
0.000721221
0.00186058
0.00275086
0.0035329
0.00409314
0.00445114
0.00466716
0.00478584
0.00483942
0.00485574
0.00486712
0.00490594
0.00498425
0.00508514
0.00517101
0.00518808
0.00506954
0.00475421
0.00420629
0.00344326
0.00256133
0.00171427
0.00112576
0.000978429
0.0011428
0.0012866
0.00119435
0.000907457
0.000651788
0.000535577
0.000518895
0.000531476
0.000640018
0.00137991
0.00318353
0.00108963
0.00303948
0.00427522
0.0050178
0.00544397
0.0056812
0.00579569
0.00581302
0.00574196
0.00558559
0.00534904
0.00504963
0.00472614
0.00444224
0.00426769
0.00424011
0.00434016
0.0045065
0.00466211
0.00469961
0.00449601
0.00396718
0.0032178
0.00216585
0.000908988
0.000219731
8.82783e-05
0.000339595
0.000546918
0.000575311
0.000540187
0.000604262
0.00105926
0.0019348
0.00383489
0.00323072
0.00508012
0.00563921
0.00573612
0.00569729
0.00559702
0.00544617
0.00524136
0.00498943
0.00472226
0.00449822
0.00436027
0.00426915
0.00414203
0.00394019
0.00369261
0.00347231
0.00337193
0.00345385
0.00366267
0.00388089
0.00402368
0.00397036
0.00351979
0.00267338
0.00176121
0.00106754
0.000669919
0.000474554
0.000448951
0.000471883
0.000490044
0.000893887
0.0019344
0.00417424
0.0057234
0.00590692
0.0057847
0.00567683
0.00554578
0.00534667
0.00502136
0.00453756
0.00394147
0.00336178
0.00298713
0.00293982
0.003111
0.00330561
0.00342651
0.00345562
0.00338626
0.00321988
0.00305157
0.00302381
0.00312627
0.00325769
0.00335067
0.00334282
0.00313812
0.00269165
0.00210361
0.00153097
0.00106496
0.000745844
0.000586754
0.000580263
0.00108526
0.00224134
0.00460532
0.00479091
0.00509656
0.00533043
0.00544342
0.00546728
0.00535792
0.00502882
0.00444245
0.00370771
0.0030445
0.00266892
0.00261294
0.00271138
0.00283906
0.0029474
0.00302047
0.00306126
0.00307556
0.00307556
0.00309019
0.00313503
0.00320039
0.00327152
0.00331042
0.00318617
0.00277333
0.00215575
0.00155228
0.00107059
0.000695225
0.000483384
0.000446395
0.00097916
0.0023408
0.0049664
0.00394447
0.00550833
0.00585442
0.00592348
0.00588326
0.00572511
0.00540497
0.00491228
0.00430575
0.0037268
0.00328085
0.00298196
0.0028154
0.00276294
0.00276934
0.00277245
0.00274481
0.00267884
0.00257733
0.00246328
0.00236018
0.00226133
0.00214316
0.00198523
0.0017674
0.00148186
0.00116901
0.000879935
0.000641351
0.000488725
0.000444346
0.000574484
0.00140326
0.00284431
0.00512239
0.00408348
0.00559902
0.0058545
0.00586918
0.00580489
0.00569214
0.00557558
0.00544363
0.00514107
0.00459174
0.00387813
0.00315028
0.00254115
0.00213002
0.00191138
0.00181725
0.00178708
0.0017695
0.00172627
0.00164871
0.00154688
0.00143103
0.00130247
0.00116138
0.00101023
0.000856787
0.000715125
0.000600689
0.000529438
0.000516945
0.000603815
0.000971493
0.0020432
0.00326437
0.0049302
0.00439046
0.00579434
0.00608362
0.00608879
0.00598028
0.00578912
0.00561815
0.00565673
0.005858
0.00599938
0.00590775
0.00552465
0.00488789
0.00408779
0.00323349
0.00243616
0.0018331
0.00153787
0.00146156
0.00144944
0.00140824
0.00132528
0.00121821
0.00110101
0.00098363
0.000875586
0.000783509
0.000710435
0.00065725
0.000630072
0.000701598
0.00117391
0.00240057
0.00347752
0.00487173
0.00576753
0.00646585
0.00637237
0.00613771
0.00579849
0.0053283
0.00488333
0.0047009
0.00472324
0.00488081
0.00509562
0.00527798
0.00536475
0.00529788
0.00500194
0.00440567
0.00353765
0.00258577
0.0018083
0.00138132
0.00124247
0.00121051
0.00118128
0.00113072
0.00106621
0.000998786
0.000934969
0.000878285
0.000830817
0.000796335
0.000839894
0.00130735
0.00261735
0.00362809
0.00498857
0.00615637
0.00647745
0.00631789
0.00604549
0.00563988
0.00509571
0.00466075
0.0046694
0.00481207
0.00481648
0.00472018
0.00458792
0.00445312
0.00432447
0.00418996
0.0040166
0.00374207
0.00327192
0.00258074
0.00186052
0.00136387
0.00115976
0.00110078
0.00107661
0.0010502
0.00101368
0.000969123
0.000922011
0.000878128
0.000847811
0.000913179
0.00141267
0.00273158
0.00374863
0.00520839
0.00564223
0.00653515
0.00658703
0.00638024
0.00598386
0.00533333
0.00444239
0.00398997
0.00428028
0.00467236
0.00488927
0.00493832
0.00486464
0.00468989
0.00442983
0.00411768
0.00378757
0.00343513
0.00300446
0.00243256
0.00179416
0.00130304
0.00106207
0.000980846
0.000955763
0.000940867
0.000920564
0.000892833
0.000862292
0.000842733
0.000931805
0.0014723
0.00283427
0.00389942
0.00547441
0.00571614
0.00674321
0.00683454
0.00664607
0.00625236
0.00558381
0.00457581
0.0036449
0.00351852
0.00382243
0.00414386
0.00436389
0.00447178
0.00448532
0.00441929
0.00427282
0.00403475
0.00370226
0.00328329
0.00276891
0.00217218
0.00160277
0.00119608
0.000985588
0.000895616
0.000854804
0.000828704
0.000803527
0.000776337
0.000762341
0.000905518
0.00160591
0.00299153
0.00409532
0.00576968
0.0057947
0.00685803
0.00702119
0.00694529
0.00670346
0.00626164
0.0055711
0.00467597
0.00395346
0.00364643
0.00361444
0.0037126
0.00383174
0.00390609
0.00390821
0.00383329
0.00368071
0.00343863
0.00308248
0.00259333
0.00202551
0.00150332
0.00113167
0.000931908
0.00084202
0.000801314
0.000778968
0.000762155
0.000747723
0.000753295
0.000932625
0.00176454
0.00322302
0.00435661
0.00607745
0.0052262
0.00670598
0.00713092
0.00732501
0.00743021
0.00743691
0.00727707
0.00680498
0.00589137
0.00485352
0.00402802
0.00351978
0.00331023
0.00330369
0.00337289
0.00341387
0.00337117
0.00321982
0.00293763
0.00249714
0.00193687
0.00139497
0.00101105
0.000806991
0.000712878
0.000668354
0.000642909
0.000624158
0.00061034
0.000634373
0.000898083
0.00185716
0.00338592
0.00455539
0.00630636
0.00478326
0.00664162
0.00724488
0.00750743
0.0076657
0.00777974
0.00786484
0.00790205
0.00778964
0.00729455
0.00634235
0.0051804
0.00409192
0.00329597
0.00289505
0.00281877
0.00288019
0.0029127
0.00282845
0.00258219
0.00215235
0.00161115
0.00112613
0.000819658
0.000669441
0.000601363
0.000567782
0.000547507
0.000538395
0.000582294
0.000907578
0.00199471
0.00359301
0.00479815
0.00658521
0.00459133
0.00660003
0.00730763
0.00755138
0.00762168
0.00759379
0.00750381
0.00740564
0.0073778
0.00744465
0.00745498
0.00714248
0.00631317
0.00507728
0.00378787
0.00281996
0.00238467
0.00234556
0.00241325
0.00240169
0.00223109
0.00187597
0.00141326
0.000991184
0.000700794
0.000530438
0.000432304
0.000368835
0.000324277
0.000349028
0.000746655
0.00199909
0.00370708
0.00496353
0.00679958
0.00583833
0.00721458
0.00764512
0.00778985
0.00782069
0.0077611
0.00760048
0.00732649
0.00696078
0.00663363
0.00654418
0.00669422
0.00679204
0.00650138
0.00559792
0.00421809
0.00289772
0.00212437
0.00192463
0.00195675
0.00196499
0.00184527
0.0015797
0.00124415
0.000942194
0.000715616
0.000557758
0.000448153
0.000372928
0.000351239
0.000676056
0.0020063
0.00378933
0.0050819
0.00700728
0.00728832
0.00779765
0.00791193
0.00795118
0.00795079
0.00790024
0.00778203
0.00757873
0.00726872
0.00683487
0.00637348
0.00614836
0.00620411
0.0062569
0.00607108
0.0054103
0.00413949
0.00274805
0.00185918
0.00155221
0.0015057
0.00147259
0.00135727
0.00116559
0.000953993
0.000760132
0.000591905
0.00044823
0.000329117
0.000267565
0.000582189
0.00184416
0.00386483
0.00529962
0.00738755
0.00790207
0.00778517
0.00781819
0.00785339
0.00785523
0.007795
0.00765991
0.00746234
0.00723332
0.00698548
0.0066976
0.00640088
0.006215
0.00611123
0.00595822
0.00564658
0.00497774
0.00378835
0.00248417
0.00161628
0.00124071
0.00110318
0.00102095
0.000930295
0.000828238
0.000722733
0.000618138
0.000518674
0.000426199
0.000380427
0.000765117
0.00195913
0.00392793
0.00544438
0.00764564
0.00707348
0.00737564
0.00762647
0.00778027
0.0078624
0.00785196
0.00773473
0.00751801
0.00724577
0.00698141
0.0067543
0.00654653
0.00634655
0.00617776
0.00601751
0.00580526
0.00545675
0.00480093
0.00369726
0.00246277
0.00155383
0.00105824
0.000795081
0.000631329
0.000519801
0.000445894
0.000393487
0.000351172
0.000329805
0.000423427
0.00102251
0.00255831
0.0043115
0.00572696
0.00771569
0.00637501
0.00748741
0.00791635
0.00814889
0.00830426
0.00838224
0.00835919
0.00820415
0.00789922
0.00747302
0.00700443
0.00657467
0.00622675
0.00597462
0.00580944
0.00567952
0.00551204
0.00522155
0.00465833
0.00369511
0.00256927
0.00165939
0.00108141
0.000711922
0.000437456
0.000221602
8.31168e-05
3.21347e-05
6.41721e-05
0.000291637
0.00114989
0.00315698
0.00485525
0.00606331
0.00758372
0.00578741
0.00729999
0.00785254
0.00815344
0.00838276
0.00856893
0.00870007
0.00874232
0.00864397
0.00834861
0.00783537
0.00716084
0.00644394
0.00580699
0.00533492
0.00504465
0.00487078
0.00470779
0.00444737
0.00396341
0.00319798
0.00234239
0.0016293
0.00111917
0.000742812
0.000424419
0.000137581
0.000188084
0.000100454
4.64973e-05
0.000481359
0.00214605
0.00428772
0.0057144
0.00757161
0.00589547
0.00742535
0.0080095
0.0083106
0.00852461
0.00869696
0.00883895
0.00894983
0.00901197
0.00897964
0.00877658
0.00832733
0.00761621
0.00672416
0.00580055
0.00499574
0.00439259
0.00397141
0.00364082
0.00329696
0.00286103
0.00233761
0.00181721
0.00135775
0.000958203
0.000584169
0.000217149
0.000122492
0.000340318
0.000485802
0.00192969
0.00312138
0.00456657
0.00588186
0.00751167
0.00607653
0.00755091
0.00813367
0.00844251
0.00865959
0.00882297
0.00893898
0.00901428
0.00906266
0.00910153
0.00912672
0.00908789
0.00889993
0.00848125
0.00779835
0.0069017
0.00591787
0.00498847
0.00420262
0.00357376
0.00306079
0.00260573
0.00217235
0.00175525
0.00134644
0.000921809
0.000467947
4.99124e-05
1.7157e-06
0.000108988
0.00189281
0.00518546
0.00630879
0.00692143
0.00670248
0.006815
0.00787801
0.00833151
0.00861881
0.00885365
0.00905053
0.00919822
0.00927983
0.00928572
0.00922742
0.00914875
0.00910671
0.00912518
0.0091723
0.00917971
0.00907021
0.00877464
0.00825669
0.00752798
0.0066443
0.00567853
0.00470033
0.00378262
0.00299911
0.00238787
0.00191885
0.00152758
0.00114949
0.000736386
0.00025342
0.000106223
0.00131509
0.00432434
0.00572614
0.00571959
0.00707261
0.00787997
0.00831237
0.0086187
0.00888833
0.00913556
0.00935456
0.00953026
0.00963714
0.00964591
0.00953982
0.00933408
0.00908265
0.00885623
0.00870516
0.00863889
0.00862973
0.00862824
0.00857825
0.00842401
0.00811054
0.00758363
0.00679878
0.00575842
0.00461556
0.00358084
0.00275154
0.00221244
0.00185251
0.00157295
0.00110044
0.000392696
0.000634682
0.00205612
0.00591729
0.00716773
0.00793259
0.00836791
0.00866839
0.00892964
0.00917072
0.00939232
0.00959068
0.00975713
0.00987618
0.00992417
0.00987477
0.00971287
0.00944791
0.00911213
0.00874946
0.00840101
0.00809348
0.00783465
0.00761576
0.00741515
0.00719602
0.0068941
0.0063899
0.00555025
0.00434291
0.0032362
0.00274346
0.00194949
0.000681256
3.37431e-05
0.000547861
0.0017304
0.00484169
0.0114683
0.00725748
0.0079783
0.00838532
0.00866666
0.00891517
0.00914906
0.00936474
0.009551
0.00969646
0.00979913
0.00986401
0.00988999
0.00986505
0.00977303
0.00960357
0.009356
0.00903751
0.00865777
0.00822385
0.00774356
0.00723799
0.00673468
0.00621865
0.00556631
0.00447509
0.0022144
0.000496489
0.0017686
0.00251699
0.0016998
0.00157001
0.0030638
0.00548926
0.00819812
0.0123033
0.00776241
0.0081792
0.00846859
0.00869883
0.00892505
0.00915517
0.00938063
0.00957918
0.00972136
0.00978994
0.00979125
0.00974605
0.00967164
0.00957331
0.00944469
0.00927393
0.00904795
0.00875134
0.00836031
0.00784232
0.0071894
0.00643962
0.00553427
0.00420258
0.00207974
0.000244189
0.00266413
0.00719028
0.00793665
0.00689815
0.00606927
0.00606466
0.00651359
0.00681985
0.00608627
0.00760204
0.00801825
0.00831533
0.0085406
0.00875782
0.00898323
0.00921792
0.00944712
0.0096408
0.00976702
0.00980575
0.00975521
0.00962947
0.00945136
0.0092441
0.00902485
0.00880167
0.0085739
0.00833432
0.0080705
0.00776449
0.00739909
0.00696203
0.00638473
0.0054663
0.0039869
0.00247406
0.00273599
0.00445527
0.00597279
0.00709646
0.00769719
0.0080561
0.00782994
0.00324099
0.00764166
0.00812913
0.0083874
0.00856763
0.00873901
0.00892183
0.00911959
0.00932039
0.00950496
0.00965923
0.00977186
0.00982885
0.0098165
0.0097261
0.0095559
0.00931012
0.00899601
0.00861889
0.00817743
0.00766955
0.00712658
0.00666349
0.0064276
0.00632687
0.00595496
0.00521961
0.00416315
0.00296606
0.00226119
0.00236817
0.00339362
0.00465942
0.00552727
0.00512373
0.00263568
0.00805594
0.00821864
0.00836024
0.00849172
0.00863989
0.00881475
0.00901335
0.00921057
0.00937213
0.00948165
0.00954264
0.0095647
0.00955264
0.00950404
0.00941217
0.00926913
0.00906679
0.00879481
0.00843483
0.00795548
0.0073309
0.00664368
0.00635465
0.007389
0.00874425
0.00892072
0.00833954
0.00733691
0.00607845
0.00481972
0.0039554
0.00358602
0.00324715
0.00288081
0.00458791
0.00816691
0.00817223
0.00828466
0.00840073
0.00853368
0.00869219
0.00887892
0.00907687
0.00925199
0.00937816
0.00944861
0.00946829
0.00944689
0.00939226
0.00930891
0.00919821
0.00905907
0.00888711
0.00866991
0.00837607
0.00794244
0.00730731
0.00657485
0.0063791
0.00786946
0.009352
0.00975706
0.00949697
0.00881255
0.00767713
0.00607719
0.00442977
0.00366519
0.00426018
0.00710192
0.00807202
0.00815501
0.00826408
0.00836255
0.00847085
0.00859978
0.00875658
0.00893178
0.0090942
0.00921388
0.00927757
0.0092844
0.00923853
0.00914477
0.00900666
0.00882542
0.00859934
0.00832383
0.00799695
0.00763842
0.00729079
0.00692632
0.00647295
0.00634024
0.00774771
0.00973583
0.0103255
0.0101602
0.00942691
0.00799977
0.00623187
0.00516964
0.00518849
0.00598588
0.00785763
0.00834781
0.00823362
0.00826447
0.0083264
0.00840727
0.00850643
0.00862969
0.00877817
0.00893096
0.0090595
0.00914824
0.00919246
0.00919158
0.00914596
0.00905338
0.00890578
0.00868563
0.00836899
0.0079636
0.00760977
0.0075519
0.00771964
0.00779411
0.00776527
0.00799057
0.00893184
0.00988436
0.0101176
0.0096743
0.00863021
0.00728497
0.00640621
0.00617867
0.00625373
0.00637639
0.0084056
0.00815466
0.00819091
0.00826424
0.00834533
0.00842271
0.00849597
0.00857436
0.00865479
0.00872251
0.00877162
0.00880606
0.0088331
0.00886264
0.00890561
0.00897257
0.00906364
0.00913957
0.00910577
0.00886889
0.00839823
0.00773424
0.00702113
0.0066141
0.00681346
0.00739814
0.00815129
0.00883287
0.00915599
0.0089376
0.00830148
0.00763176
0.0071247
0.00659959
0.00560761
0.00835229
0.00813899
0.00821155
0.00829525
0.00837043
0.00842705
0.00846505
0.0084973
0.00852172
0.00851667
0.008474
0.00840415
0.00832559
0.00826014
0.00823504
0.00829101
0.00847862
0.00879594
0.00913489
0.00935716
0.00935798
0.00907599
0.00848174
0.00763626
0.00696477
0.00686547
0.00714073
0.00756353
0.00801433
0.00831031
0.00830104
0.00807271
0.00772576
0.0071495
0.00605918
0.00829697
0.00810294
0.00819313
0.00828223
0.00835384
0.00839059
0.00838422
0.00835251
0.00830878
0.00823217
0.00810662
0.00794188
0.00776526
0.00761575
0.0075565
0.00772162
0.00828358
0.00912426
0.00976281
0.00997467
0.00987396
0.00955934
0.00906764
0.00847246
0.00796542
0.00768889
0.00755443
0.00748409
0.00750441
0.00763838
0.00776226
0.00773384
0.00753811
0.00710835
0.00641634
0.00806493
0.008045
0.00820513
0.00833603
0.00844443
0.00851075
0.00851505
0.00846705
0.00839946
0.00830515
0.00814847
0.00791267
0.00760902
0.00728022
0.00701022
0.00695782
0.00732054
0.00810411
0.00895586
0.009494
0.00971681
0.00971027
0.00952347
0.00922317
0.00889362
0.00859006
0.0083028
0.00800574
0.00771767
0.00749668
0.00735408
0.0072195
0.00705928
0.00685242
0.00666362
0.00788526
0.00800832
0.00819987
0.00835261
0.0084897
0.00859705
0.00864864
0.00863455
0.00858581
0.00852703
0.00843044
0.00824897
0.00795004
0.00752312
0.00698169
0.00635095
0.00569141
0.00547851
0.00647862
0.00786449
0.00870878
0.00915072
0.00938805
0.00950082
0.00948488
0.00930444
0.00897139
0.00850325
0.0079398
0.00740656
0.00705334
0.00688562
0.00680874
0.00677211
0.00655681
0.00783303
0.0080063
0.00820748
0.00837248
0.00853175
0.0086744
0.00877404
0.00881157
0.0088002
0.00876929
0.00872477
0.00864519
0.00849746
0.00824628
0.00786318
0.00734625
0.00671721
0.00597773
0.00531809
0.00566535
0.00715464
0.00828231
0.00882191
0.00906925
0.00922891
0.00934699
0.00929988
0.00899365
0.00841611
0.00765484
0.00699067
0.00664853
0.00651189
0.00640831
0.00584392
0.00771619
0.00798016
0.00820086
0.00838239
0.008566
0.0087442
0.00888723
0.0089702
0.008999
0.00899793
0.00897471
0.00891896
0.00881511
0.00864657
0.00839415
0.0080365
0.0075502
0.0069128
0.00607894
0.00504116
0.00440474
0.00533625
0.00718975
0.00849367
0.00899704
0.00904834
0.00894866
0.00882315
0.00858679
0.00813618
0.00756237
0.00708289
0.00674941
0.00640957
0.0055794
0.00769552
0.00798104
0.0081892
0.00837096
0.0085748
0.0088
0.00901067
0.00916682
0.00926552
0.00932804
0.00937003
0.00938828
0.00937122
0.00930358
0.00917206
0.00896322
0.00866194
0.00824997
0.00770445
0.00697696
0.00595679
0.00470123
0.00409467
0.00519274
0.00726834
0.00878115
0.00919455
0.00896714
0.00856561
0.00817622
0.00782286
0.00751792
0.00725239
0.00691169
0.00603545
0.00779606
0.00798999
0.00814882
0.00831023
0.00851726
0.00877244
0.00903108
0.00924268
0.0093976
0.00951143
0.00959859
0.00966366
0.00970242
0.00970707
0.00966985
0.00958011
0.00942927
0.00920185
0.00887435
0.00841374
0.00777407
0.00687269
0.00562979
0.00433055
0.00395615
0.00526745
0.0075189
0.00898972
0.00911737
0.00870875
0.00821403
0.00780358
0.00748139
0.00709382
0.00612802
0.00791474
0.00798254
0.00809155
0.00823534
0.00845305
0.00875044
0.00906251
0.00932047
0.00951334
0.00966074
0.00978148
0.0098844
0.00996973
0.0100334
0.0100718
0.0100806
0.0100539
0.00998463
0.0098619
0.0096648
0.00936748
0.00892578
0.0082778
0.00734483
0.00610964
0.00489932
0.00457412
0.00585707
0.00779227
0.00858116
0.0085413
0.0082376
0.00787423
0.00738348
0.00627055
0.0080678
0.00794713
0.00798095
0.00808935
0.00830603
0.00864495
0.00901352
0.00931844
0.00954413
0.00971183
0.00984406
0.0099555
0.0100532
0.0101381
0.010211
0.010271
0.0103156
0.0103411
0.0103423
0.0103118
0.0102354
0.0100868
0.00982073
0.00937462
0.00866375
0.00760961
0.00623847
0.00506503
0.00547351
0.00707047
0.00799717
0.00821886
0.00810829
0.00772498
0.00676073
0.00823058
0.00789299
0.00784825
0.00791921
0.00813569
0.00851943
0.00893989
0.00927758
0.00951771
0.00968579
0.00980712
0.00989989
0.00997613
0.0100429
0.0101056
0.0101684
0.010233
0.0103008
0.0103742
0.010457
0.0105477
0.0106193
0.0106023
0.0104019
0.00993515
0.00915916
0.00803556
0.00655956
0.00538218
0.00601399
0.00724304
0.00786972
0.00802802
0.00789945
0.0076516
0.00827399
0.0077736
0.00766869
0.00770058
0.00790235
0.00831886
0.00879381
0.00917358
0.00943634
0.0096084
0.00971563
0.00977765
0.00981009
0.00982561
0.00983593
0.00985133
0.00987952
0.00992906
0.0100194
0.0101974
0.0105229
0.0109322
0.0111903
0.0111448
0.0107985
0.0101841
0.009279
0.00799492
0.00644435
0.00589474
0.00670327
0.00744201
0.0077858
0.00798164
0.00862395
0.00827393
0.00766657
0.00751112
0.00749579
0.00764801
0.00805632
0.00857946
0.00901634
0.0093199
0.00951306
0.00962147
0.00966429
0.00965795
0.0096181
0.00956105
0.00950333
0.00945868
0.00944235
0.00949473
0.00973315
0.0103133
0.0110538
0.0115193
0.0115977
0.0113697
0.0108844
0.0101086
0.00893214
0.00731984
0.00616263
0.00660015
0.00735534
0.00780102
0.00819394
0.00903594
0.00819416
0.00757356
0.00740417
0.00735055
0.0074203
0.00774282
0.00827559
0.00878065
0.00915177
0.00939461
0.00953257
0.00958357
0.00956263
0.00948537
0.00936958
0.00923569
0.00910161
0.00898275
0.00891625
0.009045
0.00966969
0.0107192
0.011485
0.011762
0.0116881
0.0113424
0.010698
0.00962731
0.00801158
0.00648205
0.00654885
0.00727125
0.00774762
0.0081642
0.00864453
0.00808569
0.00756101
0.00742036
0.00735038
0.00733204
0.00749296
0.00794673
0.00849488
0.0089436
0.00925714
0.00945127
0.00954168
0.00954022
0.00945921
0.00931451
0.00912647
0.00891505
0.0086941
0.00847842
0.0083533
0.00865948
0.00978001
0.0109813
0.0115807
0.011736
0.0115894
0.0111482
0.0103052
0.00889192
0.0072096
0.00668344
0.00713272
0.00753129
0.00790312
0.0082134
0.00796049
0.00759745
0.00752471
0.00747287
0.00740688
0.00739699
0.00767033
0.00819306
0.00870184
0.00908768
0.00934789
0.00949576
0.00954048
0.00948998
0.00935597
0.00915476
0.00890471
0.00862002
0.00830351
0.00797077
0.00780848
0.00845075
0.0100026
0.0110483
0.0114643
0.0115194
0.0112787
0.0106653
0.00951848
0.00797374
0.00710959
0.00720873
0.00744534
0.00772407
0.00799247
0.00785638
0.00768363
0.00769274
0.00768714
0.00763581
0.00754028
0.00759785
0.00800313
0.0085268
0.00896837
0.00928744
0.00949101
0.00958652
0.00957893
0.00947597
0.00928873
0.00903167
0.00871793
0.00835096
0.00791624
0.00743584
0.00726235
0.00832474
0.010065
0.0108888
0.011146
0.0110642
0.0106155
0.00970307
0.00849004
0.00771033
0.00760546
0.00766361
0.00775987
0.0076658
0.00784357
0.00774426
0.00779513
0.00783172
0.00783504
0.00777799
0.00773321
0.0079777
0.00844947
0.00890991
0.00926983
0.00952227
0.00967095
0.00971849
0.00966782
0.00952442
0.00929607
0.00899222
0.00861794
0.00816112
0.00758723
0.00693921
0.00678339
0.00817755
0.00996824
0.0106316
0.0107123
0.0103902
0.00964662
0.00871122
0.00811346
0.0079333
0.00786153
0.00775039
0.0071647
0.00790465
0.00778825
0.00782714
0.00787461
0.00792626
0.00797256
0.00800793
0.00818638
0.00857568
0.00900276
0.00936178
0.00963174
0.00981135
0.00990146
0.00990186
0.00981316
0.00963802
0.00938055
0.00904343
0.00862001
0.00808038
0.00737113
0.00655278
0.00633331
0.00781876
0.00965453
0.0102765
0.0102441
0.00975569
0.00902592
0.00847789
0.0081979
0.00799683
0.00769506
0.00678375
0.00814783
0.00784278
0.0077966
0.00780803
0.0078703
0.00801655
0.00822949
0.00850534
0.00888113
0.0092727
0.00960896
0.00987235
0.01006
0.0101715
0.0102052
0.0101597
0.0100347
0.00983096
0.00954887
0.00918341
0.00871687
0.00810512
0.00728048
0.00630981
0.00596988
0.00743878
0.0092594
0.00985383
0.00981978
0.00942555
0.0089799
0.00863514
0.00832563
0.00787169
0.00677813
0.00838339
0.00786659
0.00774714
0.00772261
0.00778917
0.0080302
0.00841179
0.0088164
0.00921732
0.00958827
0.00990493
0.0101607
0.0103529
0.0104796
0.0105388
0.0105281
0.0104458
0.010291
0.0100623
0.00975514
0.00935833
0.00884386
0.00815434
0.00720955
0.00608611
0.00568676
0.00728416
0.008953
0.00947444
0.0094977
0.00929032
0.0090121
0.00868873
0.00817838
0.00704605
0.00857531
0.00787122
0.00768341
0.00762417
0.00769852
0.00804232
0.0085895
0.00911875
0.0095611
0.00992857
0.0102344
0.0104844
0.010678
0.010813
0.0108878
0.0109002
0.0108477
0.0107281
0.0105389
0.0102768
0.00993446
0.00949382
0.00891508
0.00812383
0.00702451
0.00576025
0.00557056
0.00752045
0.00876067
0.00910386
0.00911173
0.00897036
0.00874287
0.0083438
0.00745793
0.00858018
0.00776656
0.00755595
0.00748632
0.00757151
0.00798029
0.00863524
0.00925104
0.00974293
0.0101388
0.0104656
0.0107347
0.0109479
0.0111036
0.0112017
0.0112407
0.0112183
0.011132
0.010978
0.0107531
0.0104526
0.0100626
0.00955105
0.0088594
0.00788958
0.00655318
0.0052426
0.00577982
0.00798303
0.00875929
0.00888687
0.00879835
0.00861018
0.00827798
0.0075118
0.00827191
0.00761974
0.00745602
0.00739343
0.00744293
0.00778806
0.00844509
0.009116
0.00967018
0.010122
0.0104981
0.0108118
0.0110667
0.0112624
0.0114002
0.0114798
0.0114997
0.0114577
0.011349
0.0111683
0.010913
0.0105705
0.0101114
0.00949363
0.00864279
0.00743641
0.00587165
0.00482948
0.0062867
0.00824664
0.00882001
0.00888688
0.00874357
0.00834961
0.00714172
0.00794809
0.00753723
0.00743935
0.00737833
0.00733844
0.00748354
0.00802152
0.00873753
0.00938104
0.00991313
0.0103577
0.0107321
0.0110431
0.0112918
0.0114807
0.0116114
0.0116837
0.0116963
0.0116463
0.0115293
0.0113388
0.0110632
0.0106847
0.0101731
0.00948032
0.00851647
0.00716301
0.00556591
0.00498763
0.00649306
0.00794981
0.00849116
0.00862908
0.00838909
0.00688719
0.00755533
0.00752786
0.007571
0.00756589
0.00748126
0.00736071
0.0075204
0.00811887
0.0088338
0.00946755
0.0100007
0.0104517
0.0108325
0.0111471
0.0113994
0.0115921
0.0117266
0.0118027
0.0118189
0.0117732
0.0116617
0.0114778
0.011211
0.0108444
0.010349
0.00967381
0.00873971
0.00746295
0.006074
0.00561087
0.00647223
0.00739802
0.00784462
0.00794793
0.00731147
0.00732271
0.00761575
0.0077961
0.00787783
0.00784759
0.00765339
0.00741757
0.00761674
0.00824961
0.00894398
0.00955366
0.0100715
0.0105122
0.0108839
0.0111925
0.0114411
0.0116318
0.011765
0.0118407
0.0118589
0.0118181
0.0117154
0.0115456
0.0112988
0.0109588
0.0105015
0.00989642
0.00908184
0.00800069
0.00683225
0.00624783
0.00657226
0.0070758
0.00757334
0.00846849
0.00724917
0.00768786
0.00797377
0.00815433
0.00823136
0.00813288
0.0078024
0.00754511
0.00785543
0.00849328
0.00913386
0.00969164
0.0101689
0.0105769
0.0109223
0.0112086
0.011438
0.0116116
0.0117296
0.0117921
0.0117984
0.0117468
0.0116333
0.0114517
0.0111917
0.01084
0.0103824
0.00978963
0.00900615
0.00796836
0.00687169
0.00656694
0.00705592
0.00787513
0.0094979
0.00721846
0.00772186
0.00807342
0.00832867
0.00850077
0.00852042
0.00830132
0.0078781
0.00778038
0.00821064
0.00880647
0.00936539
0.00985204
0.010273
0.0106338
0.0109382
0.01119
0.0113921
0.011542
0.0116359
0.0116732
0.0116524
0.0115685
0.0114143
0.0111808
0.0108555
0.0104268
0.00987589
0.00917478
0.00828011
0.00731297
0.00701457
0.00746207
0.00819767
0.00935024
0.00721461
0.00771561
0.0080979
0.00840287
0.00864583
0.0087565
0.00866093
0.00833176
0.00801231
0.00814892
0.00860604
0.00911385
0.00958004
0.00999394
0.010357
0.0106703
0.0109352
0.0111538
0.0113243
0.0114429
0.0115085
0.0115169
0.0114601
0.0113278
0.0111083
0.0107869
0.0103461
0.00976904
0.00906528
0.00829158
0.00761617
0.00748695
0.00778391
0.00819755
0.00841336
0.00703311
0.00763696
0.00808118
0.00844994
0.00876821
0.00896155
0.00895762
0.00872766
0.00836823
0.00823246
0.00847293
0.00888183
0.00930701
0.00970386
0.0100628
0.0103811
0.0106564
0.0108888
0.0110792
0.011227
0.011329
0.0113775
0.0113612
0.0112663
0.0110783
0.0107809
0.0103515
0.00976666
0.0090467
0.00833039
0.00784787
0.00778534
0.00792344
0.00806435
0.00762422
0.00676684
0.00747909
0.00797588
0.00841497
0.00884033
0.0091632
0.00929015
0.00917855
0.008858
0.00851886
0.00845914
0.00868307
0.00902668
0.00939016
0.00973696
0.0100549
0.0103391
0.0105886
0.0108043
0.010986
0.01113
0.0112274
0.0112643
0.0112246
0.0110922
0.0108497
0.0104741
0.00993395
0.0092287
0.00850085
0.00803945
0.0079409
0.00796776
0.00795577
0.00732631
0.00649835
0.00723108
0.00773246
0.00822073
0.00877249
0.00927896
0.0095982
0.00966498
0.00947392
0.00908469
0.0087268
0.00864024
0.00880442
0.0090867
0.00939949
0.00970531
0.00999015
0.0102506
0.0104874
0.0107009
0.0108874
0.011037
0.0111331
0.0111575
0.0110936
0.0109251
0.0106304
0.010176
0.00953918
0.00881584
0.00829777
0.00811431
0.00806128
0.00797747
0.00739535
0.00634278
0.00690297
0.00731261
0.00779151
0.00846755
0.00920607
0.0097684
0.0100568
0.0100724
0.00982657
0.0093829
0.00897627
0.00882797
0.00892218
0.00914047
0.00939927
0.00966129
0.00991474
0.0101581