/*--------------------------------*- C++ -*----------------------------------*\
| =========                 |                                                 |
| \\      /  F ield         | OpenFOAM: The Open Source CFD Toolbox           |
|  \\    /   O peration     | Version:  v2006                                 |
|   \\  /    A nd           | Website:  www.openfoam.com                      |
|    \\/     M anipulation  |                                                 |
\*---------------------------------------------------------------------------*/
FoamFile
{
    version     2.0;
    format      ascii;
    class       surfaceScalarField;
    location    "8";
    object      phi;
}
// * * * * * * * * * * * * * * * * * * * * * * * * * * * * * * * * * * * * * //

dimensions      [1 0 -1 0 0 0 0];
oriented        oriented;


internalField   nonuniform List<scalar> 
228225
(
-0.000139308
0.000460834
0.000309867
-0.000143624
-3.99921e-05
6.43945e-05
-9.66134e-05
-3.67994e-05
-6.94835e-06
-0.000113736
-1.59841e-05
3.39638e-05
-8.27638e-05
-3.10923e-05
1.91607e-06
-5.78128e-05
-3.33818e-05
9.29339e-06
-3.57123e-05
-2.79045e-05
6.81666e-06
-8.16901e-06
-3.19259e-05
5.37987e-06
1.61655e-05
-2.8375e-05
4.9421e-06
3.98527e-05
-2.72882e-05
4.47526e-06
6.23312e-05
-2.57602e-05
4.14341e-06
8.35161e-05
-2.42249e-05
3.89605e-06
0.000103451
-2.27773e-05
3.70121e-06
0.000122186
-2.14126e-05
3.53664e-06
0.000139663
-2.00145e-05
3.40816e-06
0.000155867
-1.85966e-05
3.26274e-06
0.000170664
-1.70162e-05
3.11247e-06
0.000183896
-1.53921e-05
3.02753e-06
0.000195635
-1.36833e-05
2.86868e-06
0.000205833
-1.2119e-05
2.75904e-06
0.00021441
-1.04348e-05
2.74108e-06
0.000221745
-9.08511e-06
2.60422e-06
0.000227057
-7.42114e-06
2.82846e-06
0.000230937
-5.8462e-06
2.87221e-06
0.000232154
-3.7394e-06
3.12611e-06
0.000231103
-1.67226e-06
3.50852e-06
0.000227419
1.03402e-06
3.42077e-06
0.000218108
5.35412e-06
4.30106e-06
0.000205212
1.01108e-05
3.90376e-06
0.000184227
1.54685e-05
5.44297e-06
0.000159745
2.02315e-05
5.30835e-06
0.000127361
2.61224e-05
6.79168e-06
8.94313e-05
2.98312e-05
7.7885e-06
5.07313e-05
3.66272e-05
5.57325e-06
4.4538e-05
7.01457e-06
-0.000117704
0.000283283
0.000299774
-2.82154e-05
-0.000108782
-6.73825e-06
-6.2584e-05
3.6105e-06
-5.71291e-06
-2.41548e-05
-4.43439e-05
-9.10833e-06
-2.96103e-05
-1.66097e-05
-8.65647e-06
-1.34785e-05
-3.86438e-05
-1.02796e-05
-3.58823e-06
-2.92528e-05
-8.16329e-06
5.80712e-06
-3.29647e-05
-7.98538e-06
1.56365e-05
-3.05934e-05
-7.30385e-06
2.35491e-05
-2.81099e-05
-6.80673e-06
3.01835e-05
-2.57655e-05
-6.33714e-06
3.59808e-05
-2.3851e-05
-5.8558e-06
4.12346e-05
-2.23312e-05
-5.35016e-06
4.60764e-05
-2.10437e-05
-4.81479e-06
5.05742e-05
-1.97977e-05
-4.26421e-06
5.46719e-05
-1.84286e-05
-3.75091e-06
5.84194e-05
-1.68332e-05
-3.35051e-06
6.17164e-05
-1.49338e-05
-3.12034e-06
6.45662e-05
-1.28005e-05
-3.07228e-06
6.70065e-05
-1.06795e-05
-3.20638e-06
6.94908e-05
-8.79219e-06
-3.46506e-06
7.18031e-05
-7.00152e-06
-3.74602e-06
7.41282e-05
-5.19246e-06
-3.92926e-06
7.55725e-05
-2.72192e-06
-3.94917e-06
7.52175e-05
1.06968e-06
-3.789e-06
7.27451e-05
5.0705e-06
-3.51385e-06
6.8199e-05
9.42607e-06
-2.98824e-06
6.24846e-05
1.40913e-05
-2.19708e-06
5.51253e-05
1.95341e-05
-1.35963e-06
4.59859e-05
2.54016e-05
-3.85593e-07
3.5153e-05
3.14192e-05
1.13013e-07
2.32973e-05
3.71032e-05
8.19196e-07
9.9052e-06
4.21215e-05
1.15584e-06
-1.25687e-06
4.54558e-05
1.92146e-06
3.9727e-05
2.3906e-06
-9.65427e-05
0.000205777
0.000157096
-0.000192782
-3.14295e-05
1.75719e-05
-0.000189682
-2.0249e-05
2.20854e-05
-0.000175657
-5.06745e-05
-5.49997e-06
-0.000150514
-4.47319e-05
3.11878e-06
-0.000132616
-5.43767e-05
-1.00575e-06
-0.000111894
-4.89402e-05
-7.16763e-07
-9.31462e-05
-5.03791e-05
-1.01095e-06
-7.55221e-05
-4.65908e-05
-1.47777e-06
-6.01886e-05
-4.15632e-05
-1.86155e-06
-4.77164e-05
-3.61296e-05
-2.19195e-06
-3.76982e-05
-3.1608e-05
-2.41231e-06
-2.95967e-05
-2.81281e-05
-2.49532e-06
-2.30098e-05
-2.54203e-05
-2.42731e-06
-1.77727e-05
-2.3057e-05
-2.21688e-06
-1.38655e-05
-2.06865e-05
-1.90613e-06
-1.12345e-05
-1.81488e-05
-1.57129e-06
-9.63144e-06
-1.54594e-05
-1.29719e-06
-8.7327e-06
-1.27139e-05
-1.15122e-06
-8.3188e-06
-1.00434e-05
-1.16138e-06
-8.29962e-06
-7.57149e-06
-1.30186e-06
-8.47276e-06
-5.35677e-06
-1.50729e-06
-8.70368e-06
-3.30933e-06
-1.68026e-06
-8.60737e-06
-1.13369e-06
-1.7174e-06
-8.83004e-06
2.65715e-06
-1.4074e-06
-1.01814e-05
7.18462e-06
-8.36316e-07
-1.21221e-05
1.15937e-05
-3.50204e-07
-1.40329e-05
1.58148e-05
-2.6411e-08
-1.50696e-05
2.01216e-05
1.03304e-07
-1.49867e-05
2.45484e-05
2.45626e-07
-1.37855e-05
2.91118e-05
3.99157e-07
-1.19604e-05
3.36002e-05
6.79506e-07
-9.58342e-06
3.77162e-05
9.32164e-07
-5.53655e-06
3.88733e-05
1.16383e-06
3.21486e-05
5.70979e-07
-6.46457e-05
0.000177157
9.77572e-05
-0.00014355
8.28655e-06
4.58669e-05
-0.00013857
-4.81396e-05
2.65866e-05
-0.00012728
-6.84639e-05
1.04006e-05
-9.98811e-05
-7.0493e-05
1.3414e-06
-9.14048e-05
-6.05955e-05
-7.05656e-07
-8.55728e-05
-5.25158e-05
-1.31512e-06
-8.61551e-05
-4.73715e-05
-1.94183e-06
-8.58285e-05
-4.41435e-05
-2.62701e-06
-8.3997e-05
-4.02315e-05
-3.32936e-06
-8.05675e-05
-3.6045e-05
-3.89433e-06
-7.63442e-05
-3.20443e-05
-4.22217e-06
-7.23458e-05
-2.82419e-05
-4.28006e-06
-6.92855e-05
-2.47482e-05
-4.08054e-06
-6.75042e-05
-2.1501e-05
-3.68261e-06
-6.71443e-05
-1.82474e-05
-3.191e-06
-6.81502e-05
-1.48737e-05
-2.71977e-06
-7.02246e-05
-1.15357e-05
-2.32449e-06
-7.29679e-05
-8.45305e-06
-1.98131e-06
-7.60882e-05
-5.68493e-06
-1.67363e-06
-7.9396e-05
-3.2142e-06
-1.43476e-06
-8.26372e-05
-1.13599e-06
-1.30192e-06
-8.5418e-05
4.39275e-07
-1.25004e-06
-8.74472e-05
1.81622e-06
-1.20227e-06
-8.74839e-05
3.53688e-06
-1.13294e-06
-8.51324e-05
5.58129e-06
-1.04944e-06
-8.06533e-05
7.76965e-06
-9.75296e-07
-7.42685e-05
1.00014e-05
-9.17341e-07
-6.59993e-05
1.23421e-05
-8.5702e-07
-5.5902e-05
1.48733e-05
-7.83282e-07
-4.41507e-05
1.77707e-05
-6.91207e-07
-3.14373e-05
2.13728e-05
-5.58804e-07
-1.91437e-05
2.60364e-05
-4.04044e-07
-8.55827e-06
2.8511e-05
-3.09541e-07
2.35597e-05
-7.85225e-07
-3.69503e-05
0.000123212
9.4234e-05
-6.3995e-05
-5.43694e-06
4.478e-05
-7.0687e-05
-5.43736e-05
1.59252e-05
-7.85817e-05
-6.30038e-05
3.71398e-06
-8.77883e-05
-6.23799e-05
8.44716e-07
-9.14003e-05
-5.85906e-05
5.84986e-07
-9.30257e-05
-5.23546e-05
3.73003e-07
-9.24796e-05
-4.83301e-05
-1.28998e-07
-8.95778e-05
-4.61731e-05
-8.66783e-07
-8.41483e-05
-4.40759e-05
-1.33152e-06
-7.70769e-05
-4.12368e-05
-1.54611e-06
-6.9572e-05
-3.7584e-05
-1.6283e-06
-6.26164e-05
-3.32514e-05
-1.66096e-06
-5.68746e-05
-2.86516e-05
-1.63096e-06
-5.26361e-05
-2.40962e-05
-1.51836e-06
-4.97886e-05
-1.97148e-05
-1.33504e-06
-4.80198e-05
-1.55764e-05
-1.09792e-06
-4.70969e-05
-1.17216e-05
-8.43355e-07
-4.70055e-05
-8.16706e-06
-5.48967e-07
-4.76608e-05
-4.99418e-06
-2.46948e-07
-4.87032e-05
-2.34418e-06
-3.60748e-08
-4.95985e-05
-4.40275e-07
2.5682e-08
-5.00419e-05
8.08822e-07
-5.74487e-08
-4.9572e-05
1.46868e-06
-2.12594e-07
-4.78664e-05
2.1488e-06
-3.7375e-07
-4.50728e-05
3.22183e-06
-4.77388e-07
-4.15339e-05
4.71516e-06
-5.32593e-07
-3.73483e-05
6.35101e-06
-5.89102e-07
-3.24255e-05
8.00569e-06
-6.35712e-07
-2.66259e-05
9.74451e-06
-6.88984e-07
-1.99013e-05
1.18724e-05
-7.51365e-07
-1.25746e-05
1.51577e-05
-8.22527e-07
-5.95185e-06
2.09154e-05
-8.93652e-07
-1.99964e-06
2.58495e-05
-9.66418e-07
2.21823e-05
-1.10267e-06
6.60515e-05
2.33887e-05
2.72551e-05
7.69427e-05
-2.60178e-05
6.27528e-06
5.91634e-05
-3.80469e-05
3.52471e-07
3.40225e-05
-3.8698e-05
-1.5427e-07
1.14458e-05
-4.15533e-05
2.68767e-07
-2.38775e-06
-4.63232e-05
4.12986e-07
-7.22034e-06
-4.84486e-05
3.77461e-07
-7.60123e-06
-4.83811e-05
1.88969e-07
-6.40258e-06
-4.73465e-05
-8.07562e-08
-4.66371e-06
-4.54626e-05
-2.60995e-07
-2.65216e-06
-4.28046e-05
-2.34099e-07
-4.34311e-07
-3.9447e-05
-4.16989e-08
2.02577e-06
-3.54512e-05
1.4192e-07
4.44598e-06
-3.09645e-05
3.53643e-07
6.52354e-06
-2.61988e-05
4.98605e-07
8.07285e-06
-2.13534e-05
5.24043e-07
8.98468e-06
-1.65747e-05
4.41404e-07
9.15846e-06
-1.19506e-05
3.12655e-07
8.47869e-06
-7.53911e-06
2.1893e-07
6.7333e-06
-3.38906e-06
2.36895e-07
3.84693e-06
2.0178e-07
3.86407e-07
-6.58382e-08
2.91836e-06
5.61585e-07
-4.59328e-06
4.69938e-06
6.16074e-07
-9.39081e-06
5.70532e-06
5.21868e-07
-1.36229e-05
6.02883e-06
3.12352e-07
-1.63986e-05
5.91498e-06
5.92684e-08
-1.72401e-05
5.69621e-06
-1.45692e-07
-1.63224e-05
5.73765e-06
-2.97149e-07
-1.41152e-05
6.23552e-06
-4.1452e-07
-1.09268e-05
7.12447e-06
-5.17728e-07
-6.95554e-06
8.62032e-06
-6.06565e-07
-2.81103e-06
1.19531e-05
-6.9494e-07
-3.10799e-07
1.95891e-05
-7.59927e-07
1.74412e-07
2.64164e-05
-8.41746e-07
2.30163e-05
-9.20408e-07
3.3671e-05
-1.15798e-05
4.68271e-07
3.57969e-05
-2.8466e-05
-1.65659e-07
3.48362e-05
-3.76589e-05
2.46626e-07
3.79884e-05
-4.23891e-05
4.98106e-07
4.01222e-05
-4.42536e-05
6.62417e-07
3.78515e-05
-4.46832e-05
7.1553e-07
3.32137e-05
-4.45169e-05
6.66083e-07
2.82402e-05
-4.40946e-05
5.28243e-07
2.38003e-05
-4.34379e-05
2.93868e-07
2.0504e-05
-4.24901e-05
3.15013e-08
1.88278e-05
-4.11283e-05
-3.29211e-07
1.87858e-05
-3.91944e-05
-5.26542e-07
2.01659e-05
-3.65839e-05
-4.68378e-07
2.26278e-05
-3.33417e-05
-1.58375e-07
2.58745e-05
-2.95852e-05
2.31312e-07
2.9429e-05
-2.54101e-05
7.56257e-07
3.28811e-05
-2.08822e-05
1.2475e-06
3.58769e-05
-1.60681e-05
1.60164e-06
3.8117e-05
-1.10324e-05
1.74686e-06
3.94317e-05
-5.95746e-06
1.67676e-06
3.95612e-05
-1.11319e-06
1.48756e-06
3.8028e-05
3.30872e-06
1.33939e-06
3.4484e-05
7.04664e-06
1.34234e-06
2.94303e-05
9.42626e-06
1.45115e-06
2.38314e-05
1.01969e-05
1.50066e-06
1.84494e-05
9.92727e-06
1.38603e-06
1.36591e-05
9.3617e-06
1.10024e-06
9.72479e-06
8.88151e-06
7.49786e-07
6.88628e-06
8.59318e-06
4.48981e-07
5.10613e-06
8.69264e-06
1.99999e-07
4.23631e-06
9.56731e-06
-5.14533e-08
4.26085e-06
1.23838e-05
-3.31074e-07
4.17309e-06
2.0513e-05
-5.628e-07
2.27687e-06
2.91395e-05
-6.89315e-07
2.57803e-05
-6.85613e-07
5.80359e-06
-1.60368e-05
-1.49035e-06
1.34016e-05
-3.34761e-05
-2.77646e-06
2.04852e-05
-4.26576e-05
-2.24371e-06
2.63393e-05
-4.71782e-05
-1.18202e-06
3.12972e-05
-4.90943e-05
-1.65238e-07
3.58226e-05
-4.96145e-05
4.22462e-07
3.97706e-05
-4.93107e-05
9.07054e-07
4.29554e-05
-4.84168e-05
1.22554e-06
4.52618e-05
-4.70119e-05
1.36963e-06
4.66612e-05
-4.51113e-05
1.32592e-06
4.72478e-05
-4.2708e-05
1.08072e-06
4.72709e-05
-3.98237e-05
6.48772e-07
4.70656e-05
-3.65227e-05
1.18796e-07
4.69303e-05
-3.28973e-05
-4.02884e-07
4.70461e-05
-2.90577e-05
-7.81592e-07
4.75276e-05
-2.51313e-05
-8.96649e-07
4.85009e-05
-2.12193e-05
-7.07794e-07
5.00586e-05
-1.73321e-05
-2.39157e-07
5.2135e-05
-1.33199e-05
4.34708e-07
5.43593e-05
-8.9615e-06
1.18631e-06
5.61922e-05
-4.23902e-06
1.84675e-06
5.69143e-05
9.44206e-07
2.2356e-06
5.62079e-05
5.97149e-06
2.2331e-06
5.37279e-05
1.01948e-05
1.91135e-06
4.88175e-05
1.36184e-05
1.49924e-06
4.19382e-05
1.55417e-05
1.26719e-06
3.4703e-05
1.54042e-05
1.32083e-06
2.81566e-05
1.41708e-05
1.45332e-06
2.23249e-05
1.31545e-05
1.42017e-06
1.72076e-05
1.26789e-05
1.19038e-06
1.3059e-05
1.28447e-05
8.62422e-07
9.78029e-06
1.51305e-05
4.863e-07
6.24936e-06
2.38788e-05
1.27375e-07
2.77437e-06
3.26657e-05
-1.33889e-07
2.86632e-05
-3.30624e-07
1.28293e-05
-2.63744e-05
-2.46036e-06
2.97388e-05
-4.62455e-05
-3.8838e-06
4.45637e-05
-5.30731e-05
-4.08725e-06
5.60534e-05
-5.48472e-05
-3.51318e-06
6.4607e-05
-5.46302e-05
-2.73992e-06
7.06488e-05
-5.34487e-05
-1.95631e-06
7.44655e-05
-5.16705e-05
-1.22812e-06
7.62658e-05
-4.94405e-05
-5.67609e-07
7.62952e-05
-4.68405e-05
-9.86987e-09
7.49517e-05
-4.3924e-05
3.29771e-07
7.25189e-05
-4.07205e-05
6.06136e-07
6.93896e-05
-3.72898e-05
7.5306e-07
6.60098e-05
-3.37201e-05
7.37559e-07
6.27916e-05
-3.00572e-05
5.29517e-07
6.00102e-05
-2.63087e-05
1.46335e-07
5.78174e-05
-2.24987e-05
-3.90565e-07
5.61856e-05
-1.86607e-05
-9.49399e-07
5.49497e-05
-1.48231e-05
-1.35415e-06
5.41351e-05
-1.10907e-05
-1.52851e-06
5.40598e-05
-7.61356e-06
-1.36586e-06
5.49294e-05
-4.29757e-06
-8.02839e-07
5.68385e-05
-8.78261e-07
8.28821e-08
5.84065e-05
3.623e-06
1.13476e-06
5.79914e-05
8.961e-06
2.25096e-06
5.40448e-05
1.5183e-05
3.19484e-06
4.66437e-05
2.01776e-05
3.43998e-06
3.76562e-05
2.17351e-05
2.91914e-06
2.88745e-05
2.07676e-05
2.16884e-06
2.13943e-05
1.89305e-05
1.63336e-06
1.57676e-05
1.69463e-05
1.31307e-06
1.17262e-05
1.58304e-05
1.02623e-06
8.916e-06
1.72952e-05
5.7033e-07
5.17568e-06
2.74428e-05
-2.41367e-08
1.93567e-06
3.58627e-05
-2.15691e-07
3.06507e-05
-3.21222e-07
1.63278e-05
-4.01649e-05
-2.03138e-06
2.80096e-05
-5.49297e-05
-2.31141e-06
3.52379e-05
-5.69439e-05
-2.82845e-06
4.03282e-05
-5.63097e-05
-3.241e-06
4.42363e-05
-5.48395e-05
-3.39599e-06
4.71376e-05
-5.27478e-05
-3.35655e-06
4.88775e-05
-5.00265e-05
-3.18608e-06
4.93283e-05
-4.68032e-05
-2.93857e-06
4.85497e-05
-4.33102e-05
-2.65618e-06
4.67045e-05
-3.96603e-05
-2.38069e-06
4.40124e-05
-3.58998e-05
-2.14541e-06
4.08491e-05
-3.22417e-05
-1.94249e-06
3.7749e-05
-2.89683e-05
-1.72766e-06
3.52245e-05
-2.61144e-05
-1.48809e-06
3.3628e-05
-2.34939e-05
-1.26272e-06
3.30831e-05
-2.08507e-05
-1.11393e-06
3.34102e-05
-1.78769e-05
-1.0955e-06
3.40647e-05
-1.42351e-05
-1.22242e-06
3.43344e-05
-9.91539e-06
-1.44316e-06
3.39077e-05
-5.56122e-06
-1.65038e-06
3.30624e-05
-1.75026e-06
-1.74825e-06
3.24266e-05
1.34033e-06
-1.63562e-06
3.27333e-05
4.43815e-06
-1.1371e-06
3.37367e-05
8.15257e-06
-1.0807e-07
3.53164e-05
1.27445e-05
1.04583e-06
3.60001e-05
1.74839e-05
2.17602e-06
3.3964e-05
2.10071e-05
2.81036e-06
2.903e-05
2.2722e-05
2.96109e-06
2.28535e-05
2.22748e-05
2.78516e-06
1.69524e-05
2.03718e-05
2.4076e-06
1.17382e-05
1.90035e-05
1.99434e-06
7.7379e-06
1.98716e-05
1.46768e-06
4.94623e-06
2.97697e-05
5.63087e-07
2.13774e-06
3.86097e-05
2.37491e-08
3.28313e-05
-2.35116e-07
5.45731e-06
-4.41658e-05
-1.0633e-06
6.69815e-06
-5.54406e-05
-6.56728e-07
6.987e-06
-5.64727e-05
-8.1176e-07
7.67834e-06
-5.5903e-05
-1.18244e-06
8.88458e-06
-5.44976e-05
-1.63783e-06
1.02372e-05
-5.20761e-05
-2.10813e-06
1.11025e-05
-4.84527e-05
-2.52035e-06
1.11924e-05
-4.41512e-05
-2.84474e-06
1.07257e-05
-3.98877e-05
-3.10501e-06
1.0068e-05
-3.58402e-05
-3.3636e-06
9.5472e-06
-3.19618e-05
-3.65373e-06
9.34279e-06
-2.83929e-05
-3.88865e-06
9.38049e-06
-2.53148e-05
-3.92338e-06
9.49532e-06
-2.27004e-05
-3.74253e-06
9.64922e-06
-2.03938e-05
-3.44928e-06
9.93854e-06
-1.81756e-05
-3.14153e-06
1.05073e-05
-1.57409e-05
-2.85868e-06
1.14674e-05
-1.27093e-05
-2.60336e-06
1.28193e-05
-8.93133e-06
-2.40951e-06
1.44416e-05
-4.91361e-06
-2.31306e-06
1.62953e-05
-1.37359e-06
-2.26198e-06
1.81837e-05
1.60626e-06
-2.18447e-06
2.03194e-05
4.28932e-06
-2.01752e-06
2.27502e-05
7.3502e-06
-1.654e-06
2.49063e-05
1.15445e-05
-9.64854e-07
2.57786e-05
1.65858e-05
2.77597e-08
2.48111e-05
2.10965e-05
8.73357e-07
2.21272e-05
2.3832e-05
1.5724e-06
1.80258e-05
2.4445e-05
1.95715e-06
1.30849e-05
2.33717e-05
1.9932e-06
8.43584e-06
2.19757e-05
1.74118e-06
4.61698e-06
2.25416e-05
1.29316e-06
2.07873e-06
3.1986e-05
5.99274e-07
6.15501e-07
4.00852e-05
9.25253e-08
3.35294e-05
-2.45914e-07
-2.83022e-06
-4.15731e-05
1.94618e-08
-4.02336e-06
-5.46631e-05
3.10777e-07
-4.66715e-06
-5.60761e-05
2.10734e-07
-4.88111e-06
-5.57131e-05
1.71699e-08
-4.70186e-06
-5.43121e-05
-3.50457e-07
-4.63212e-06
-5.12849e-05
-8.21186e-07
-5.42126e-06
-4.62195e-05
-1.3901e-06
-7.10897e-06
-4.04745e-05
-1.95843e-06
-9.00838e-06
-3.55221e-05
-2.4765e-06
-1.03435e-05
-3.15553e-05
-2.98379e-06
-1.05815e-05
-2.82643e-05
-3.49404e-06
-9.70649e-06
-2.5383e-05
-3.91793e-06
-8.17748e-06
-2.27096e-05
-4.17592e-06
-6.51627e-06
-2.01467e-05
-4.27036e-06
-5.04268e-06
-1.7703e-05
-4.23265e-06
-3.88571e-06
-1.52977e-05
-4.11298e-06
-3.03699e-06
-1.27109e-05
-3.96359e-06
-2.31511e-06
-9.7033e-06
-3.81441e-06
-1.39814e-06
-6.2494e-06
-3.67785e-06
-7.21256e-08
-2.73503e-06
-3.56891e-06
1.59556e-06
3.97403e-07
-3.48944e-06
3.39536e-06
3.18814e-06
-3.42334e-06
4.99757e-06
5.97706e-06
-3.32673e-06
6.1905e-06
9.18892e-06
-3.06024e-06
6.82116e-06
1.32799e-05
-2.35283e-06
6.83789e-06
1.78443e-05
-1.18305e-06
6.40649e-06
2.15908e-05
8.6752e-08
5.95256e-06
2.3532e-05
8.95474e-07
5.55427e-06
2.36295e-05
1.34419e-06
5.17294e-06
2.24349e-05
1.43677e-06
4.61383e-06
2.13868e-05
1.22144e-06
3.1502e-06
2.32301e-05
8.65801e-07
8.58693e-07
3.40569e-05
4.00593e-07
1.82074e-08
4.09433e-05
4.00641e-08
3.37208e-05
-3.54713e-07
-3.3846e-06
-3.86686e-05
4.6855e-07
-4.98797e-06
-5.39545e-05
9.53411e-07
-6.06542e-06
-5.60296e-05
1.0983e-06
-6.82458e-06
-5.59612e-05
1.07156e-06
-7.27434e-06
-5.47139e-05
9.11746e-07
-7.55654e-06
-5.1522e-05
5.87264e-07
-8.20092e-06
-4.55809e-05
1.04616e-07
-9.58276e-06
-3.84906e-05
-4.63393e-07
-1.16143e-05
-3.23383e-05
-9.71836e-07
-1.39202e-05
-2.75946e-05
-1.44111e-06
-1.61516e-05
-2.3935e-05
-1.88874e-06
-1.81278e-05
-2.09247e-05
-2.32433e-06
-1.9767e-05
-1.82223e-05
-2.75764e-06
-2.10354e-05
-1.56889e-05
-3.15594e-06
-2.19885e-05
-1.33064e-05
-3.45122e-06
-2.2753e-05
-1.09517e-05
-3.61573e-06
-2.34207e-05
-8.42724e-06
-3.66529e-06
-2.39782e-05
-5.58791e-06
-3.61491e-06
-2.4456e-05
-2.36093e-06
-3.46816e-06
-2.4822e-05
8.27115e-07
-3.24288e-06
-2.50707e-05
3.59794e-06
-2.97733e-06
-2.54575e-05
6.24622e-06
-2.67193e-06
-2.60497e-05
8.8854e-06
-2.29063e-06
-2.65377e-05
1.15344e-05
-1.80455e-06
-2.60052e-05
1.40341e-05
-1.20391e-06
-2.3605e-05
1.60827e-05
-5.31325e-07
-1.92922e-05
1.7319e-05
7.02841e-08
-1.36884e-05
1.7613e-05
4.09607e-07
-7.76009e-06
1.71982e-05
5.62235e-07
-2.64744e-06
1.68003e-05
5.20982e-07
3.72898e-07
1.79269e-05
3.67347e-07
-2.96105e-07
2.35805e-05
1.73803e-07
-2.24594e-06
3.59038e-05
-2.67145e-08
-1.28438e-06
4.01334e-05
-2.83189e-07
3.27702e-05
-5.32914e-07
-2.77742e-06
-3.67287e-05
8.29705e-07
-4.14573e-06
-5.39843e-05
1.33048e-06
-4.35036e-06
-5.75044e-05
1.65875e-06
-4.36916e-06
-5.78124e-05
1.87608e-06
-4.45219e-06
-5.66004e-05
1.98008e-06
-4.52737e-06
-5.33812e-05
1.94062e-06
-4.51216e-06
-4.72717e-05
1.70846e-06
-4.81734e-06
-3.94774e-05
1.39107e-06
-5.94209e-06
-3.21972e-05
1.15886e-06
-8.02309e-06
-2.62975e-05
1.01836e-06
-1.09473e-05
-2.16349e-05
8.83249e-07
-1.44535e-05
-1.7854e-05
6.7805e-07
-1.81564e-05
-1.46942e-05
3.69384e-07
-2.16977e-05
-1.19881e-05
-2.68204e-08
-2.49577e-05
-9.54406e-06
-4.30789e-07
-2.79631e-05
-7.10888e-06
-8.1385e-07
-3.06581e-05
-4.60488e-06
-1.13263e-06
-3.26808e-05
-2.22594e-06
-1.35578e-06
-3.35478e-05
-3.9195e-08
-1.47216e-06
-3.32839e-05
2.03598e-06
-1.48587e-06
-3.24176e-05
4.14357e-06
-1.4172e-06
-3.10524e-05
6.17052e-06
-1.28504e-06
-2.9103e-05
8.04932e-06
-1.0983e-06
-2.639e-05
9.71617e-06
-8.68995e-07
-2.27539e-05
1.1053e-05
-6.19965e-07
-1.81825e-05
1.19352e-05
-3.84206e-07
-1.29586e-05
1.23279e-05
-1.9587e-07
-7.59055e-06
1.23465e-05
-7.56646e-08
-2.64801e-06
1.22999e-05
-3.65111e-08
1.332e-06
1.28642e-05
-6.62933e-08
3.38955e-06
1.59139e-05
-1.34377e-07
1.87687e-06
2.50986e-05
-2.35101e-07
-7.64072e-08
3.79267e-05
-3.68883e-07
-3.73246e-08
4.03084e-05
-4.83869e-07
3.3018e-05
-5.38398e-07
4.52087e-06
-4.14575e-05
2.77744e-07
8.8792e-06
-5.86631e-05
4.47407e-07
1.26161e-05
-6.16973e-05
5.89443e-07
1.56553e-05
-6.14803e-05
7.65993e-07
1.78578e-05
-5.95969e-05
9.32127e-07
1.88552e-05
-5.52898e-05
1.04202e-06
1.83615e-05
-4.7655e-05
9.84263e-07
1.71167e-05
-3.88905e-05
7.21623e-07
1.59835e-05
-3.15023e-05
4.63873e-07
1.52107e-05
-2.5885e-05
3.77276e-07
1.47282e-05
-2.15701e-05
4.59794e-07
1.43802e-05
-1.80521e-05
6.4438e-07
1.39927e-05
-1.49953e-05
8.59745e-07
1.33808e-05
-1.21822e-05
1.04253e-06
1.23879e-05
-9.41706e-06
1.14365e-06
1.09809e-05
-6.54035e-06
1.11892e-06
9.23575e-06
-3.57468e-06
9.39335e-07
7.30962e-06
-8.16959e-07
6.49661e-07
5.00832e-06
1.97153e-06
3.49163e-07
2.81781e-06
4.13742e-06
1.10098e-07
1.15004e-06
5.86567e-06
-4.50936e-08
1.02709e-07
7.33786e-06
-1.12138e-07
-3.02875e-07
8.59265e-06
-1.29966e-07
-7.61797e-08
9.60956e-06
-1.13814e-07
7.11044e-07
1.03505e-05
-8.121e-08
1.88801e-06
1.08086e-05
-4.98488e-08
3.20483e-06
1.10404e-05
-3.16786e-08
4.40687e-06
1.11682e-05
-2.87711e-08
5.33261e-06
1.14069e-05
-4.1183e-08
5.93156e-06
1.23149e-05
-6.64586e-08
5.88149e-06
1.60276e-05
-9.91912e-08
4.1743e-06
2.68418e-05
-1.65369e-07
2.21748e-06
3.99105e-05
-3.00917e-07
1.09703e-06
4.15476e-05
-3.98293e-07
3.41967e-05
-3.49051e-07
5.53202e-06
-4.73865e-05
6.83218e-07
8.33267e-06
-6.23927e-05
1.15389e-06
9.83423e-06
-6.41077e-05
1.05439e-06
1.09663e-05
-6.3405e-05
9.02951e-07
1.17852e-05
-6.11108e-05
7.90182e-07
1.18347e-05
-5.59128e-05
6.63205e-07
1.05254e-05
-4.66206e-05
3.74634e-07
8.28459e-06
-3.64665e-05
-8.8335e-08
6.42458e-06
-2.90475e-05
-5.30719e-07
5.46485e-06
-2.41012e-05
-7.95467e-07
5.28701e-06
-2.0512e-05
-8.8261e-07
5.63897e-06
-1.75895e-05
-8.43576e-07
6.2917e-06
-1.4976e-05
-7.22453e-07
7.07728e-06
-1.24972e-05
-5.32562e-07
7.92198e-06
-1.00483e-05
-2.67595e-07
8.81258e-06
-7.5207e-06
7.21165e-08
9.60698e-06
-4.77095e-06
4.4455e-07
9.7766e-06
-1.64169e-06
7.53176e-07
9.49035e-06
1.48844e-06
8.85936e-07
8.57474e-06
4.32131e-06
8.25762e-07
7.31926e-06
6.5036e-06
6.75413e-07
6.19081e-06
7.96804e-06
5.28005e-07
5.3959e-06
8.98396e-06
4.16751e-07
4.94131e-06
9.72894e-06
3.39716e-07
4.74117e-06
1.02671e-05
2.83541e-07
4.66989e-06
1.06416e-05
2.36069e-07
4.60562e-06
1.09111e-05
1.90521e-07
4.46579e-06
1.11615e-05
1.43898e-07
4.22198e-06
1.15552e-05
9.54624e-08
3.87083e-06
1.26321e-05
4.37272e-08
3.38408e-06
1.65876e-05
-1.86429e-08
2.52427e-06
2.78722e-05
-8.07414e-08
1.48309e-06
4.10728e-05
-2.01025e-07
6.40705e-07
4.25159e-05
-2.744e-07
3.48438e-05
-1.98963e-07
-2.68545e-06
-4.59274e-05
1.2152e-06
-5.00863e-06
-6.20234e-05
1.88899e-06
-6.56452e-06
-6.44156e-05
1.81403e-06
-7.47425e-06
-6.41497e-05
1.61855e-06
-7.72898e-06
-6.23519e-05
1.45386e-06
-6.82977e-06
-5.81729e-05
1.29276e-06
-4.58303e-06
-4.99185e-05
9.81943e-07
-2.80642e-06
-3.87112e-05
4.35139e-07
-2.12744e-06
-2.9686e-05
-4.19556e-08
-1.90599e-06
-2.40091e-05
-2.9784e-07
-1.62979e-06
-2.03424e-05
-4.22337e-07
-1.11958e-06
-1.76103e-05
-4.64773e-07
-3.68616e-07
-1.52566e-05
-4.52358e-07
5.59094e-07
-1.30216e-05
-3.98313e-07
1.60239e-06
-1.07919e-05
-3.10432e-07
2.79865e-06
-8.55148e-06
-1.90435e-07
4.32324e-06
-6.29528e-06
-3.23129e-08
6.334e-06
-3.88786e-06
2.13773e-07
8.38041e-06
-1.06022e-06
5.17552e-07
9.83052e-06
2.14482e-06
7.84867e-07
1.02348e-05
5.27182e-06
8.92812e-07
9.74451e-06
7.63745e-06
8.64112e-07
8.88257e-06
9.08204e-06
7.87306e-07
8.00983e-06
9.9092e-06
7.04717e-07
7.24612e-06
1.04107e-05
6.26893e-07
6.59251e-06
1.0745e-05
5.54818e-07
6.01384e-06
1.10079e-05
4.86541e-07
5.47786e-06
1.12849e-05
4.189e-07
4.97592e-06
1.17176e-05
3.49226e-07
4.50778e-06
1.28488e-05
2.71236e-07
3.9069e-06
1.70805e-05
1.68707e-07
3.00991e-06
2.88662e-05
3.83227e-08
1.95373e-06
4.22484e-05
-8.78334e-08
8.76584e-07
4.36811e-05
-1.36282e-07
3.56673e-05
-7.29609e-08
-2.03451e-06
-4.54757e-05
1.37379e-06
-3.75249e-06
-6.27577e-05
2.34636e-06
-4.97717e-06
-6.55645e-05
2.3518e-06
-5.78389e-06
-6.55478e-05
2.22451e-06
-6.03529e-06
-6.42166e-05
2.15113e-06
-5.17881e-06
-6.11645e-05
2.1653e-06
-2.6464e-06
-5.46213e-05
2.1966e-06
4.55499e-07
-4.36241e-05
1.85103e-06
2.64416e-06
-3.29676e-05
1.1319e-06
3.87861e-06
-2.57184e-05
5.05521e-07
4.52249e-06
-2.10628e-05
1.00243e-07
4.92932e-06
-1.78898e-05
-1.06844e-07
5.38943e-06
-1.54861e-05
-2.0888e-07
6.04751e-06
-1.34114e-05
-2.41882e-07
6.90325e-06
-1.13963e-05
-2.20772e-07
7.87131e-06
-9.333e-06
-1.56842e-07
8.88016e-06
-7.21606e-06
-6.41654e-08
9.9738e-06
-5.02706e-06
6.32565e-08
1.13632e-05
-2.67047e-06
2.3942e-07
1.30315e-05
4.27186e-08
4.73199e-07
1.42264e-05
3.41878e-06
7.3241e-07
1.45115e-05
6.53266e-06
9.02206e-07
1.40085e-05
8.69792e-06
9.47207e-07
1.31066e-05
9.92584e-06
9.22418e-07
1.20722e-05
1.05976e-05
8.70629e-07
1.10298e-05
1.09943e-05
8.08742e-07
1.0035e-05
1.12723e-05
7.42282e-07
9.10866e-06
1.15503e-05
6.71217e-07
8.24928e-06
1.1994e-05
5.92266e-07
7.41329e-06
1.31946e-05
4.95974e-07
6.14228e-06
1.79923e-05
3.5258e-07
4.26617e-06
3.05934e-05
1.58638e-07
2.71238e-06
4.37975e-05
-5.3964e-09
1.25606e-06
4.51175e-05
-3.70094e-08
3.67828e-05
1.22466e-08
-3.3001e-07
-4.6872e-05
1.7827e-06
-3.42021e-06
-6.24274e-05
2.86368e-06
-7.05515e-06
-6.46719e-05
2.83787e-06
-1.06075e-05
-6.45631e-05
2.66689e-06
-1.38594e-05
-6.33747e-05
2.52224e-06
-1.6435e-05
-6.09137e-05
2.43994e-06
-1.7164e-05
-5.62534e-05
2.45203e-06
-1.47795e-05
-4.83332e-05
2.39315e-06
-1.06175e-05
-3.8993e-05
1.9256e-06
-6.43637e-06
-3.11522e-05
1.30475e-06
-3.09783e-06
-2.51385e-05
7.75659e-07
-7.69613e-07
-2.0583e-05
3.89337e-07
7.5556e-07
-1.71258e-05
1.27235e-07
1.81936e-06
-1.44425e-05
-2.79006e-08
2.77699e-06
-1.22509e-05
-1.01964e-07
3.88054e-06
-1.03068e-05
-1.28252e-07
5.18102e-06
-8.40195e-06
-1.09195e-07
6.58326e-06
-6.37144e-06
-4.77326e-08
7.9379e-06
-4.07796e-06
6.73367e-08
9.10625e-06
-1.34573e-06
2.42991e-07
1.02971e-05
1.80292e-06
4.68929e-07
1.11542e-05
5.04201e-06
7.01886e-07
1.14839e-05
7.57849e-06
8.60658e-07
1.13854e-05
9.1495e-06
9.29174e-07
1.10321e-05
1.00474e-05
9.41319e-07
1.05453e-05
1.05839e-05
9.23907e-07
9.9969e-06
1.09512e-05
8.89008e-07
9.42915e-06
1.12918e-05
8.40514e-07
8.85504e-06
1.17999e-05
7.77057e-07
8.17566e-06
1.31783e-05
6.89607e-07
6.76508e-06
1.88082e-05
5.32233e-07
4.30761e-06
3.2657e-05
2.58042e-07
2.52628e-06
4.54121e-05
4.63579e-08
1.0628e-06
4.64637e-05
-1.76355e-08
3.76277e-05
3.30193e-08
-4.97429e-06
-4.41838e-05
2.471e-06
-1.15627e-05
-5.9071e-05
3.28564e-06
-1.7792e-05
-6.17258e-05
3.24226e-06
-2.33509e-05
-6.21997e-05
3.109e-06
-2.80213e-05
-6.18134e-05
2.99036e-06
-3.12893e-05
-6.07018e-05
2.90595e-06
-3.19321e-05
-5.86465e-05
2.86647e-06
-2.83194e-05
-5.49436e-05
2.86278e-06
-2.12182e-05
-4.88773e-05
2.74856e-06
-1.32949e-05
-4.14601e-05
2.43782e-06
-6.28218e-06
-3.40846e-05
2.02835e-06
-9.1206e-07
-2.74573e-05
1.60351e-06
2.7262e-06
-2.18984e-05
1.2178e-06
4.92383e-06
-1.74779e-05
8.99958e-07
6.11586e-06
-1.40576e-05
6.58359e-07
6.72323e-06
-1.13726e-05
4.88611e-07
7.08481e-06
-9.12369e-06
3.82104e-07
7.42356e-06
-7.02403e-06
3.32966e-07
7.80808e-06
-4.78288e-06
3.42872e-07
8.16985e-06
-2.09473e-06
4.20367e-07
8.41784e-06
1.04009e-06
5.6569e-07
8.62099e-06
4.16769e-06
7.39199e-07
8.74097e-06
6.65404e-06
8.73252e-07
8.77154e-06
8.22959e-06
9.43428e-07
8.73364e-06
9.15527e-06
9.68903e-07
8.6491e-06
9.72781e-06
9.69078e-07
8.52829e-06
1.0141e-05
9.5254e-07
8.37146e-06
1.05432e-05
9.21702e-07
8.13959e-06
1.11678e-05
8.74878e-07
7.6026e-06
1.29092e-05
8.03196e-07
6.18889e-06
1.95089e-05
6.62112e-07
3.92156e-06
3.44068e-05
3.67371e-07
2.20539e-06
4.68552e-05
1.00548e-07
8.5924e-07
4.76414e-05
-1.56704e-08
3.82416e-05
2.51357e-08
-6.29534e-06
-4.016e-05
2.19022e-06
-1.05798e-05
-5.76662e-05
2.64644e-06
-1.34572e-05
-6.17661e-05
2.67e-06
-1.55921e-05
-6.29448e-05
2.62427e-06
-1.71785e-05
-6.30638e-05
2.5728e-06
-1.81833e-05
-6.24868e-05
2.52819e-06
-1.82788e-05
-6.13137e-05
2.50675e-06
-1.65924e-05
-5.94231e-05
2.54188e-06
-1.21485e-05
-5.61913e-05
2.6726e-06
-5.35866e-06
-5.11112e-05
2.79091e-06
2.27261e-06
-4.44497e-05
2.79286e-06
9.24025e-06
-3.69382e-05
2.66132e-06
1.45172e-05
-2.94072e-05
2.4148e-06
1.76552e-05
-2.25404e-05
2.09665e-06
1.87971e-05
-1.68252e-05
1.76384e-06
1.85038e-05
-1.2441e-05
1.46492e-06
1.7429e-05
-9.19603e-06
1.22507e-06
1.60833e-05
-6.66408e-06
1.04998e-06
1.482e-05
-4.39699e-06
9.39567e-07
1.38965e-05
-1.99884e-06
8.98867e-07
1.33199e-05
7.69611e-07
9.33731e-07
1.28752e-05
3.68879e-06
1.01747e-06
1.23702e-05
6.15124e-06
1.08954e-06
1.17851e-05
7.75204e-06
1.12211e-06
1.11972e-05
8.65877e-06
1.12592e-06
1.06601e-05
9.18079e-06
1.11404e-06
1.01903e-05
9.54123e-06
1.0919e-06
9.77752e-06
9.91162e-06
1.06059e-06
9.35724e-06
1.05778e-05
1.01726e-06
8.65081e-06
1.26478e-05
9.4994e-07
6.96602e-06
2.03058e-05
8.04781e-07
4.46011e-06
3.62266e-05
4.95117e-07
2.54841e-06
4.83463e-05
1.9206e-07
1.0152e-06
4.89079e-05
3.06999e-08
3.89438e-05
5.89745e-08
-3.20949e-06
-3.8763e-05
1.49249e-06
-3.03915e-06
-5.98426e-05
1.76774e-06
-1.53864e-06
-6.5276e-05
1.92955e-06
1.07722e-07
-6.66058e-05
2.01023e-06
1.51349e-06
-6.64831e-05
2.04439e-06
2.4419e-06
-6.53958e-05
2.03103e-06
2.68588e-06
-6.34658e-05
1.96826e-06
2.2877e-06
-6.08412e-05
1.86673e-06
2.09445e-06
-5.77656e-05
1.76785e-06
3.39316e-06
-5.42388e-05
1.76638e-06
6.80391e-06
-4.98236e-05
1.91772e-06
1.2032e-05
-4.42789e-05
2.15817e-06
1.79812e-05
-3.75934e-05
2.38923e-06
2.32453e-05
-3.00911e-05
2.51636e-06
2.6671e-05
-2.24774e-05
2.47536e-06
2.7785e-05
-1.56173e-05
2.27715e-06
2.69465e-05
-1.01971e-05
2.00213e-06
2.49887e-05
-6.31883e-06
1.73338e-06
2.26969e-05
-3.52021e-06
1.51317e-06
2.06554e-05
-1.21924e-06
1.35582e-06
1.91338e-05
1.12366e-06
1.27164e-06
1.80133e-05
3.66119e-06
1.26224e-06
1.69352e-05
6.04294e-06
1.28869e-06
1.56681e-05
7.79042e-06
1.30162e-06
1.42766e-05
8.80576e-06
1.29075e-06
1.28999e-05
9.32127e-06
1.26536e-06
1.16372e-05
9.59073e-06
1.23236e-06
1.05367e-05
9.83147e-06
1.19409e-06
9.5956e-06
1.03794e-05
1.14744e-06
8.65246e-06
1.25055e-05
1.07894e-06
7.16994e-06
2.07958e-05
9.40496e-07
4.86321e-06
3.77314e-05
6.3113e-07
2.84665e-06
4.98235e-05
3.08345e-07
1.17096e-06
5.02148e-05
1.28159e-07
3.97444e-05
1.1814e-07
3.80454e-06
-4.28613e-05
1.78269e-07
7.48841e-06
-6.37041e-05
2.84834e-07
1.03512e-05
-6.85868e-05
6.5839e-07
1.24931e-05
-6.9437e-05
9.36646e-07
1.4073e-05
-6.89466e-05
1.14614e-06
1.51988e-05
-6.7556e-05
1.30189e-06
1.59071e-05
-6.53064e-05
1.39772e-06
1.60729e-05
-6.21535e-05
1.41046e-06
1.54153e-05
-5.81582e-05
1.31085e-06
1.39135e-05
-5.36206e-05
1.11168e-06
1.23092e-05
-4.89705e-05
9.00217e-07
1.17482e-05
-4.44657e-05
8.08466e-07
1.31241e-05
-3.98876e-05
9.54374e-07
1.64552e-05
-3.46662e-05
1.33632e-06
2.06988e-05
-2.83536e-05
1.81112e-06
2.4241e-05
-2.10991e-05
2.17414e-06
2.59083e-05
-1.39184e-05
2.28018e-06
2.56386e-05
-8.02919e-06
2.15687e-06
2.41721e-05
-3.86242e-06
1.93803e-06
2.23112e-05
-9.78611e-07
1.72188e-06
2.05557e-05
1.42346e-06
1.54884e-06
1.91799e-05
3.69707e-06
1.4387e-06
1.80208e-05
5.909e-06
1.3949e-06
1.67379e-05