/*--------------------------------*- C++ -*----------------------------------*\
| =========                 |                                                 |
| \\      /  F ield         | OpenFOAM: The Open Source CFD Toolbox           |
|  \\    /   O peration     | Version:  v2006                                 |
|   \\  /    A nd           | Website:  www.openfoam.com                      |
|    \\/     M anipulation  |                                                 |
\*---------------------------------------------------------------------------*/
FoamFile
{
    version     2.0;
    format      ascii;
    class       volScalarField;
    location    "49";
    object      alphat;
}
// * * * * * * * * * * * * * * * * * * * * * * * * * * * * * * * * * * * * * //

dimensions      [1 -1 -1 0 0 0 0];


internalField   nonuniform List<scalar> 
78750
(
1.94139e-06
7.39574e-07
3.12215e-06
3.05269e-06
6.18266e-06
8.97118e-06
8.25377e-06
7.21849e-06
8.03061e-06
4.26424e-06
6.73185e-06
3.15127e-06
2.58957e-06
2.74513e-06
4.72893e-06
2.5995e-06
3.99785e-06
8.24031e-06
2.26155e-06
1.14679e-06
3.95657e-06
9.12326e-07
3.16006e-06
2.62225e-07
4.11185e-06
3.86732e-06
2.14186e-06
6.57284e-07
1.59593e-07
5.51176e-07
3.56129e-07
4.48396e-06
1.20054e-05
3.4458e-05
1.0918e-05
1.94406e-05
2.98794e-05
0.000157589
0.000284828
0.000380724
0.000350713
0.00024575
0.000226925
0.000253196
0.000284397
0.000300234
0.0002985
0.000287224
0.000270426
0.00025554
0.00024161
0.000229471
0.000216207
0.000204946
0.000196703
0.000194879
0.000196105
0.000196572
0.000187698
0.000168928
0.00014061
0.000109474
7.85153e-05
5.19105e-05
3.52988e-05
3.32099e-05
4.11258e-05
4.89039e-05
7.08415e-05
1.54325e-05
2.25525e-05
5.97969e-05
0.000335337
0.000622513
0.00062071
0.000617771
0.000546575
0.000454982
0.000416925
0.000406388
0.000403587
0.000398501
0.0003913
0.000385299
0.000383334
0.000385964
0.000393995
0.000407244
0.000423166
0.000433849
0.00043219
0.000418007
0.000397204
0.000372209
0.000343328
0.000311972
0.00028533
0.000273296
0.000276155
0.000274745
0.000228515
0.000171348
0.000165752
0.000163972
1.70739e-05
1.85716e-05
0.000326299
0.000344459
0.000296095
0.000269309
0.000266954
0.000276349
0.000299022
0.00033357
0.000363078
0.000380369
0.000385714
0.000380752
0.000369821
0.000354698
0.000335616
0.000313052
0.000290473
0.000279432
0.000299066
0.000361978
0.000442446
0.000487284
0.000490855
0.000467448
0.000422209
0.000357279
0.000294103
0.00026603
0.000269209
0.000268194
0.000253256
0.00023984
0.000197747
1.69128e-05
2.14885e-05
0.000332587
0.000551614
0.000585429
0.000591188
0.000594126
0.000594187
0.000516873
0.000446333
0.000499259
0.000576917
0.000574551
0.000573834
0.000574613
0.00057638
0.000578658
0.000581137
0.000575378
0.000427851
0.000317912
0.000252632
0.000227851
0.000239431
0.00028023
0.000318427
0.000324303
0.000306683
0.00027981
0.000252389
0.000235186
0.000237976
0.000252954
0.00026045
0.000198417
1.74765e-05
2.12042e-05
0.00033254
0.000599547
0.000603715
0.000548984
0.000503379
0.000480531
0.00045838
0.000415913
0.000365537
0.000317856
0.00028248
0.000267693
0.000272534
0.000291869
0.000320589
0.000356359
0.000399705
0.000453437
0.000519067
0.000581537
0.000593082
0.000536467
0.000469992
0.000430426
0.000416958
0.0004175
0.00040845
0.000359964
0.000284497
0.000233638
0.000224337
0.000238919
0.000200611
1.57123e-05
1.51033e-05
7.82155e-05
0.000155409
0.000221716
0.000280272
0.000339793
0.000396057
0.000437769
0.000464951
0.00048397
0.000501494
0.000522285
0.00054732
0.000570142
0.000579248
0.000567372
0.000538393
0.000503008
0.00047007
0.000443009
0.000420376
0.000396744
0.000366534
0.000332645
0.000307796
0.000297601
0.000284608
0.000252432
0.000223026
0.000215652
0.000220516
0.000232855
0.000233018
0.000112459
1.28589e-05
8.76965e-06
5.58438e-05
6.99262e-05
7.77648e-05
8.69287e-05
9.7547e-05
0.000110687
0.000126803
0.000145704
0.00016652
0.000187162
0.000205844
0.000222519
0.000237627
0.00025137
0.000265296
0.000282411
0.000304406
0.000330124
0.000356587
0.000379709
0.000396136
0.000404085
0.000401065
0.000381909
0.000347571
0.000316374
0.000300963
0.000288501
0.000267364
0.000252898
0.000252023
0.000228501
0.000120601
1.35461e-05
7.61997e-06
4.83617e-05
4.54422e-05
6.15182e-05
6.7123e-05
7.54407e-05
8.41032e-05
9.38477e-05
0.000103704
0.00011578
0.000132327
0.000155005
0.00018513
0.000224137
0.000273884
0.000339529
0.000428742
0.000536092
0.000622432
0.000643494
0.00060535
0.000544786
0.000486793
0.000436841
0.000386375
0.00033347
0.000300804
0.000299045
0.000289814
0.000228293
0.000183211
0.000181752
0.000203191
0.000246165
1.83126e-05
5.29848e-06
1.71543e-05
3.01199e-06
9.03289e-06
3.83746e-05
6.09225e-05
9.12866e-05
0.000122139
0.000142742
0.000148401
0.000149528
0.000151909
0.000156974
0.000163862
0.000170616
0.000180935
0.000199938
0.000232396
0.000284653
0.000364898
0.000477262
0.000596804
0.000647401
0.000582424
0.000473587
0.000396347
0.000366702
0.000362584
0.000341359
0.000309439
0.00031424
0.00034138
0.000210031
6.31651e-05
1.24185e-05
7.73704e-06
3.47396e-05
6.14559e-05
9.62694e-05
9.7926e-05
9.98173e-05
8.67424e-05
6.89609e-05
5.40396e-05
4.47531e-05
4.18523e-05
4.56412e-05
5.52534e-05
6.72211e-05
7.54207e-05
7.94799e-05
8.18852e-05
8.45282e-05
8.96544e-05
9.83656e-05
0.000111352
0.000129431
0.000153243
0.000182467
0.000215837
0.000252249
0.000290907
0.000328648
0.000357867
0.000367208
0.000339728
0.000240323
0.000103065
3.8345e-05
1.06571e-05
7.22245e-06
3.16092e-05
5.71223e-05
8.01069e-05
9.67131e-05
0.000102241
9.84593e-05
8.99777e-05
8.05518e-05
7.24398e-05
6.66398e-05
6.33895e-05
6.27084e-05
6.45735e-05
6.86679e-05
7.42718e-05
8.14827e-05
9.02857e-05
9.79795e-05
0.000100652
9.87233e-05
9.70028e-05
9.88808e-05
0.000105192
0.000115815
0.000130783
0.000151129
0.000179474
0.000215917
0.000247683
0.000252844
0.000213514
0.000125411
5.88256e-05
1.29862e-05
1.00908e-05
6.52306e-05
0.000142552
0.000152258
0.000144008
0.00013277
0.000119342
0.000104859
9.18312e-05
8.24607e-05
7.74942e-05
7.65742e-05
7.88312e-05
8.31772e-05
8.79231e-05
9.04831e-05
8.92796e-05
8.49543e-05
7.93473e-05
7.42783e-05
7.05546e-05
6.86228e-05
6.9127e-05
7.27153e-05
7.9834e-05
9.11334e-05
0.000107406
0.000127802
0.00015105
0.000178602
0.000204219
0.000203315
0.000149835
6.77237e-05
1.04359e-05
7.9218e-06
4.4332e-05
0.000108849
0.000160691
0.000185268
0.000191766
0.000185422
0.000168805
0.000144739
0.000118894
9.70823e-05
8.12735e-05
7.05708e-05
6.37536e-05
6.04302e-05
6.09195e-05
6.53262e-05
7.17205e-05
7.48527e-05
7.11364e-05
6.18878e-05
5.00458e-05
3.91982e-05
3.2551e-05
3.11326e-05
3.46133e-05
4.39174e-05
6.32509e-05
9.47674e-05
0.000128147
0.000145539
0.0001436
0.00014203
0.000103757
1.1083e-05
6.94386e-06
3.31371e-05
0.000103001
0.000182183
0.000190723
0.000172045
0.000152785
0.000141708
0.000140838
0.0001486
0.000158106
0.000157477
0.000140991
0.00011659
9.44723e-05
8.01949e-05
7.56039e-05
8.09087e-05
9.60509e-05
0.000118565
0.000137574
0.000139013
0.000120048
8.70784e-05
4.2831e-05
8.2808e-06
4.55231e-06
1.38428e-05
3.39269e-05
6.80533e-05
8.97103e-05
9.13389e-05
0.000106068
9.10983e-05
1.05222e-05
1.07116e-05
7.59887e-05
0.000205757
0.000187568
0.000161895
0.000146641
0.000139194
0.000135939
0.00013753
0.000149616
0.000177332
0.000214146
0.000230754
0.000197541
0.000138385
9.77461e-05
8.28937e-05
8.78737e-05
0.000109513
0.000146536
0.000190606
0.000215281
0.000199938
0.000158315
0.000111684
6.85251e-05
3.45985e-05
2.15826e-05
2.5017e-05
3.83014e-05
5.62346e-05
7.27851e-05
8.35827e-05
6.17078e-05
7.71621e-06
1.20483e-05
9.68901e-05
0.00017898
0.000148286
0.000139597
0.000146312
0.000155047
0.000157931
0.000153239
0.000148151
0.0001554
0.000182478
0.000222842
0.000242714
0.000198987
0.000126447
8.64026e-05
7.80266e-05
9.44166e-05
0.000135927
0.000194152
0.000240727
0.000256778
0.000246778
0.000218626
0.000177755
0.000131036
8.91533e-05
6.48222e-05
6.20092e-05
7.41605e-05
5.95624e-05
3.83787e-05
7.28932e-05
5.99222e-06
1.27616e-05
0.000147903
8.74611e-05
7.80645e-05
9.85208e-05
0.000127705
0.000150545
0.000166568
0.000180843
0.000195686
0.000208978
0.000216026
0.000211759
0.0001919
0.000161547
0.000140751
0.000146175
0.000181784
0.000226709
0.00024983
0.000254841
0.000254165
0.000249197
0.000238058
0.000221419
0.000200528
0.000175338
0.000145017
0.000107635
6.07283e-05
3.17488e-05
2.32549e-05
3.7319e-05
0.000123659
7.14956e-06
1.01072e-05
8.12496e-05
8.47912e-05
0.000149438
0.000226643
0.00019896
0.000175004
0.000163457
0.00014972
0.000131427
0.00011603
0.000111452
0.000124332
0.000158189
0.000201274
0.000227188
0.000229716
0.000226663
0.000232066
0.000246418
0.000263836
0.000277598
0.000283756
0.000281526
0.000271952
0.000256546
0.000231285
0.000176486
8.61668e-05
2.93368e-05
1.37455e-05
1.67903e-05
5.15739e-05
4.64383e-05
5.4175e-06
9.7124e-06
7.30607e-05
0.000176545
0.000188725
0.000120279
7.80234e-05
6.63598e-05
7.01148e-05
8.34049e-05
0.00010258
0.000123764
0.000144572
0.000159869
0.000167163
0.000172749
0.000183327
0.000201601
0.000227805
0.000261724
0.000301886
0.000325939
0.000320567
0.000314418
0.000307527
0.000299916
0.000291617
0.000282686
0.00026842
0.000131094
4.54125e-05
1.89103e-05
1.56022e-05
3.54024e-05
3.7919e-05
4.49784e-06
9.00164e-06
4.53695e-05
0.000109266
0.000129837
0.000108297
7.39967e-05
4.94627e-05
3.61159e-05
3.1813e-05
3.96274e-05
6.62133e-05
0.000108329
0.000139343
0.000152714
0.000159962
0.000166948
0.000173069
0.000177173
0.000181889
0.000191875
0.000208999
0.000229781
0.000247826
0.000259151
0.000262928
0.000257704
0.000238277
0.000192212
0.000117139
5.53017e-05
2.78738e-05
2.32957e-05
4.71491e-05
3.7737e-05
4.32561e-06
8.74449e-06
3.9011e-05
0.000112223
0.000169243
0.000174945
0.000159332
0.000127009
7.9547e-05
4.11678e-05
2.58848e-05
2.69792e-05
4.28846e-05
7.51335e-05
0.000117172
0.000157536
0.000189005
0.000208209
0.000215231
0.00021231
0.000203344
0.000194725
0.000192396
0.00019769
0.000206631
0.000213355
0.000214375
0.000207836
0.0001893
0.000149756
9.1035e-05
4.76352e-05
3.29978e-05
4.38872e-05
5.07317e-05
3.80116e-06
1.073e-05
6.08845e-05
0.000197682
0.000219697
0.000174661
0.000124637
9.41495e-05
7.28932e-05
4.46947e-05
2.71623e-05
2.64857e-05
4.50275e-05
0.000101479
0.000225245
0.000317295
0.000319645
0.000320341
0.000319708
0.000318196
0.000316261
0.000313721
0.000298591
0.000292127
0.000281063
0.000251917
0.000211194
0.000176701
0.000154585
0.000136353
0.000109241
7.23921e-05
4.91246e-05
5.20466e-05
7.15046e-05
4.58429e-06
1.12661e-05
7.45345e-05
0.000189999
0.000189763
0.000141067
8.13289e-05
4.75201e-05
3.28087e-05
2.9451e-05
3.84958e-05
6.47558e-05
0.000103026
0.000139486
0.000169604
0.000192999
0.000209742
0.000219152
0.000221412
0.000218333
0.000212434
0.000200829
0.000171547
0.000132966
0.000119925
0.000136047
0.000160958
0.000172507
0.000166277
0.000144799
0.000112197
8.01362e-05
6.40692e-05
7.34846e-05
7.0029e-05
5.64679e-06
1.08408e-05
7.19507e-05
0.000168806
0.000163688
0.000125086
8.35354e-05
5.65199e-05
4.20296e-05
3.58036e-05
3.84254e-05
5.43957e-05
8.544e-05
0.000123288
0.000158491
0.000188524
0.000213109
0.00022946
0.000230435
0.000206521
0.000156595
0.000100585
6.52721e-05
5.80877e-05
7.68303e-05
0.000115558
0.000151826
0.000166017
0.000158702
0.000136943
0.000110086
8.89276e-05
8.27047e-05
9.53186e-05
4.89864e-05
5.29436e-06
1.03706e-05
6.65964e-05
0.00020047
0.000225468
0.000210431
0.000175787
0.000122939
7.44801e-05
4.47943e-05
3.04782e-05
2.84716e-05
4.04581e-05
7.19848e-05
0.00012128
0.0001697
0.000203834
0.000223167
0.000225264
0.00020386
0.000158896
0.000106839
6.98403e-05
5.56667e-05
6.16787e-05
8.07726e-05
0.000100772
0.000113824
0.000119138
0.00011681
0.000108163
9.86892e-05
9.59905e-05
9.81069e-05
3.78961e-05
4.55766e-06
1.10903e-05
7.66851e-05
0.000215064
0.000220737
0.000181851
0.000139846
0.000115014
0.000103099
8.5978e-05
5.67373e-05
3.55227e-05
3.06391e-05
4.27498e-05
7.76092e-05
0.000136062
0.000195963
0.000232251
0.000241013
0.000226999
0.00019407
0.000148714
0.000104776
7.61713e-05
6.6233e-05
7.05832e-05
8.08978e-05
8.8591e-05
9.15436e-05
9.19834e-05
9.14084e-05
9.05602e-05
9.07264e-05
8.76598e-05
3.21082e-05
4.41839e-06
1.08755e-05
7.3038e-05
0.000190039
0.000203792
0.000186241
0.000151127
0.000113458
8.84873e-05
7.61513e-05
6.619e-05
4.90114e-05
3.49455e-05
3.49438e-05
5.36242e-05
9.67991e-05
0.000158588
0.000212582
0.000238541
0.000237077
0.000215495
0.000179811
0.000137288
9.87382e-05
7.32211e-05
6.27445e-05
6.46669e-05
7.29567e-05
7.94351e-05
8.10044e-05
8.0209e-05
7.98748e-05
8.0807e-05
7.73637e-05
2.76817e-05
4.48169e-06
1.04911e-05
7.15027e-05
0.000204967
0.000232812
0.000221017
0.000192828
0.000155412
0.000117384
8.89015e-05
7.1351e-05
5.81247e-05
4.40094e-05
3.56381e-05
4.08641e-05
6.5154e-05
0.00011131
0.000166605
0.000207292
0.000222812
0.000216561
0.000193934
0.000159387
0.000119252
8.30465e-05
5.86295e-05
4.80516e-05
4.97875e-05
5.96097e-05
6.98448e-05
7.56124e-05
7.81624e-05
7.97868e-05
7.46202e-05
2.63747e-05
4.4276e-06
1.03641e-05
6.61777e-05
0.000204946
0.000230797
0.000207366
0.000171141
0.000142286
0.000123998
0.000108456
9.11875e-05
7.44072e-05
5.86164e-05
4.45385e-05
3.89884e-05
4.80954e-05
7.73318e-05
0.000126989
0.000178459
0.000208852
0.000215082
0.000203865
0.000179969
0.000146578
0.000108666
7.43064e-05
5.05516e-05
3.93214e-05
3.93526e-05
4.80588e-05
6.03199e-05
7.05978e-05
7.67173e-05
7.25949e-05
2.70791e-05
4.33104e-06
1.04854e-05
6.51845e-05
0.000201469
0.000231604
0.00020634
0.000164432
0.000132985
0.000119536
0.000117064
0.000113979
0.000102405
8.40906e-05
6.38962e-05
4.76457e-05
4.25213e-05
5.31398e-05
8.41643e-05
0.000134055
0.000182564
0.000209119
0.00021321
0.000201726
0.000179106
0.000148164
0.000112771
7.9331e-05
5.42939e-05
4.01976e-05
3.63192e-05
4.10543e-05
5.16803e-05
6.31727e-05
6.58554e-05
2.59604e-05
4.22504e-06
1.06264e-05
6.38571e-05
0.00019852
0.000221985
0.000186993
0.000139792
0.000110727
0.000101945
0.000106297
0.000115863
0.00012104
0.000114218
9.57637e-05
7.24635e-05
5.42896e-05
4.9378e-05
6.21938e-05
9.7125e-05
0.000149787
0.000196391
0.000218708
0.000219803
0.000207394
0.000185662
0.000156891
0.000123731
9.06725e-05
6.33269e-05
4.53643e-05
3.7422e-05
3.90011e-05
4.93267e-05
5.96494e-05
2.31879e-05
4.02328e-06
1.08282e-05
6.51861e-05
0.000205038
0.0002234
0.000175184
0.000125222
0.00010296
0.000101909
0.000112365
0.000126232
0.000135959
0.000135845
0.000124057
0.000102774
7.81669e-05
6.01378e-05
5.62547e-05
7.08285e-05
0.000107011
0.000157527
0.000199337
0.000218356
0.000218758
0.00020755
0.000188352
0.000162854
0.000132638
0.000100706
7.23228e-05
5.29239e-05
4.53387e-05
5.08022e-05
6.51174e-05
2.53224e-05
3.83132e-06
1.11585e-05
6.93397e-05
0.000208887
0.000201497
0.000136206
9.28065e-05
8.1831e-05
9.11897e-05
0.000113349
0.000140323
0.000161424
0.000168276
0.000159347
0.000138473
0.000111243
8.49793e-05
6.83901e-05
6.75309e-05
8.58634e-05
0.000123334
0.000167518
0.0001987
0.000210738
0.000209101
0.000198957
0.000182541
0.000160658
0.000134123
0.000105605
8.09823e-05
6.71572e-05
6.85438e-05
8.22279e-05
3.53796e-05
3.83583e-06
1.11782e-05
7.1712e-05
0.000208457
0.000183038
0.000113501
8.04566e-05
7.94088e-05
9.8393e-05
0.000128241
0.000157641
0.000177616
0.000184565
0.000178849
0.000162751
0.000139127
0.000112079
8.8489e-05
7.60303e-05
7.94783e-05
0.000100443
0.000134397
0.000167299
0.000187172
0.000193839
0.000191841
0.00018395
0.000170861
0.00015255
0.000129965
0.000107031
9.10305e-05
8.87024e-05
9.77766e-05
4.84891e-05
3.98039e-06
1.10688e-05
6.93019e-05
0.000199466
0.000163495
9.4347e-05
6.62801e-05
6.7961e-05
9.01115e-05
0.000127331
0.000168158
0.000199331
0.000214328
0.000213301
0.000199247
0.000175597
0.000146222
0.000116913
9.52276e-05
8.71123e-05
9.49568e-05
0.00011696
0.000144058
0.000164244
0.000173531
0.00017519
0.000172368
0.000165582
0.000153928
0.00013722
0.000118056
0.000102869
9.89066e-05
0.000104513
5.46124e-05
4.13193e-06
1.08879e-05
6.50924e-05
0.000192381
0.000159303
9.07466e-05
6.22124e-05
6.28768e-05
8.36128e-05
0.0001203
0.000163493
0.00020068
0.000224538
0.000233866
0.000229852
0.000213624
0.000186753
0.000153886
0.000123607
0.000104343
0.00010024
0.000110894
0.000130353
0.000147569
0.000155543
0.000156153
0.000153888
0.000150342
0.000143854
0.000132529
0.000117787
0.000105654
0.000103273
0.000108504
5.45765e-05
4.23103e-06
1.09198e-05
6.13766e-05
0.000184012
0.000147642
7.96605e-05
5.31423e-05
5.32826e-05
7.19992e-05
0.00010913
0.000160338
0.000212603
0.000252902
0.000275535
0.000280269
0.000268383
0.000241415
0.000203445
0.000163316
0.000131546
0.000114581
0.000113191
0.000123221
0.000135213
0.000140016
0.00013684
0.000130984
0.000126805
0.00012428
0.000120381
0.00011386
0.000108489
0.000109901
0.000113897
5.1182e-05
4.27351e-06
1.10565e-05
6.18354e-05
0.000180508
0.000125521
6.53422e-05
4.7413e-05
5.18765e-05
7.27743e-05
0.000110582
0.000162116
0.000217116
0.000264373
0.000297435
0.000314048
0.000313139
0.00029372
0.000257351
0.000211652
0.000168831
0.000138762
0.000124594
0.000123559
0.000127974
0.000128408
0.000121297
0.000110928
0.000103685
0.000102359
0.000104566
0.000106439
0.000108424
0.000113957
0.000116641
4.71079e-05
4.32942e-06
1.12212e-05
6.49224e-05
0.000170172
9.98597e-05
5.17394e-05
4.14177e-05
5.10674e-05
7.71116e-05
0.000118675
0.000170601
0.000223808
0.000270353
0.00030582
0.000327994
0.000334751
0.00032354
0.000293566
0.000249477
0.000201987
0.00016262
0.000137551
0.00012633
0.000123249
0.000119471
0.000109209
9.465e-05
8.27649e-05
7.90141e-05
8.406e-05
9.40962e-05
0.000104484
0.000113553
0.000112419
4.0396e-05
4.27393e-06
1.11532e-05
6.76715e-05
0.000153968
9.04456e-05
4.94544e-05
4.0344e-05
5.03193e-05
7.64785e-05
0.000115575
0.000161087
0.000206551
0.000247752
0.000282432
0.000308889
0.000324685
0.000326305
0.000310623
0.000278127
0.000235337
0.000192766
0.000159203
0.000137747
0.000125749
0.000116615
0.000103872
8.66977e-05
7.04517e-05
6.13334e-05
6.20547e-05
7.18067e-05
8.64998e-05
9.92329e-05
9.65789e-05
3.16178e-05
4.08201e-06
1.08942e-05
6.5214e-05
0.000151234
0.000114845
6.60533e-05
4.30298e-05
4.09682e-05
5.45733e-05
8.29779e-05
0.000123765
0.00017009
0.000214771
0.000254013
0.000286186
0.000309426
0.000320597
0.000316191
0.000294838
0.000259916
0.000219433
0.000182352
0.000154206
0.000135154
0.000120781
0.000105212
8.58961e-05
6.62823e-05
5.23699e-05
4.76006e-05
5.23861e-05
6.52051e-05
7.95614e-05
7.67947e-05
2.4022e-05
3.83838e-06
1.06092e-05
6.04057e-05
0.000152711
0.000155214
0.000116509
6.56608e-05
4.03659e-05
3.60481e-05
4.60631e-05
7.04655e-05
0.000109884
0.000159002
0.00020823
0.000250968
0.0002845
0.000306556
0.000314308
0.000305905
0.000282335
0.000248277
0.000211046
0.000177606
0.000151267
0.00013086
0.000112099
9.12658e-05
6.92924e-05
5.12725e-05
4.1437e-05
4.09629e-05
4.98252e-05
6.41252e-05
6.26659e-05
1.95788e-05
3.6348e-06
1.03806e-05
5.68017e-05
0.000156589
0.00017859
0.000165669
0.000125562
7.1209e-05
4.03999e-05
3.12194e-05
3.59875e-05
5.48208e-05
9.10492e-05
0.000143087
0.000199936
0.000249652
0.000286341
0.000307757
0.000313009
0.000302714
0.000279506
0.000247973
0.000213776
0.00018178
0.000154258
0.00013015
0.00010663
8.2475e-05
6.04707e-05
4.53367e-05
3.96952e-05
4.4457e-05
5.84255e-05
6.10737e-05
1.93795e-05
3.63027e-06
1.03266e-05
5.59423e-05
0.000166447
0.000197722
0.000191001
0.000175148
0.000142771
8.72943e-05
4.70936e-05
3.07905e-05
3.00037e-05
4.34273e-05
7.50344e-05
0.000126318
0.000187642
0.000243269
0.000283162
0.000304355
0.000307627
0.000295921
0.000273435
0.000244819
0.000214364
0.000184987
0.00015758
0.000131253
0.000104862
7.94515e-05
5.916e-05
4.83791e-05
4.95967e-05
6.33583e-05
7.07496e-05
2.25943e-05
3.78351e-06
1.04134e-05
5.54101e-05
0.000168487
0.000202313
0.000188878
0.000166376
0.000151375
0.000139163
0.000103455
5.848e-05
3.40368e-05
2.81828e-05
3.84227e-05
6.85329e-05
0.000121121
0.000186381
0.000245144
0.000284657
0.000302647
0.000302283
0.000288454
0.0002662
0.00023985
0.000212407
0.000185311
0.000158523
0.00013142
0.000104406
8.06302e-05
6.53866e-05
6.32346e-05
7.62204e-05
8.80973e-05
2.88179e-05
4.07262e-06
1.07377e-05
5.69585e-05
0.000169232
0.000206624
0.000193863
0.000161861
0.000129828
0.000113909
0.000113757
0.000105554
6.76909e-05
3.73123e-05
2.84689e-05
3.90481e-05
7.23978e-05
0.000130815
0.000201655
0.000261443
0.000296667
0.000308213
0.00030244
0.000285648
0.000262689
0.00023686
0.000209961
0.000182574
0.000154669
0.000126722
0.000101304
8.35412e-05
7.89556e-05
9.03537e-05
0.000103055
3.47319e-05
4.33198e-06
1.11892e-05
6.20395e-05
0.00018186
0.000216065
0.000201912
0.000170593
0.000133288
0.000103485
9.09982e-05
9.48457e-05
9.61732e-05
6.54869e-05
3.70214e-05
3.17452e-05
4.96501e-05
9.48474e-05
0.000165505
0.000240385
0.000293358
0.000316702
0.000317328
0.000303935
0.000282666
0.000257257
0.000229771
0.000201165
0.000171872
0.000142704
0.000116192
9.72063e-05
9.12479e-05
0.000100915
0.000111593
3.75908e-05
4.49269e-06
1.16374e-05
7.09847e-05
0.000201696
0.000220127
0.000195491
0.000160545
0.000129376
0.00010486
8.78345e-05
8.15955e-05
8.34736e-05
7.60316e-05
5.04874e-05
3.59312e-05
4.48294e-05
8.26006e-05
0.00015202
0.000234954
0.000298016
0.000326522
0.000328406
0.000315023
0.000293382
0.00026714
0.000238261
0.000207856
0.000176785
0.000146494
0.000120024
0.000102065
9.72683e-05
0.000106785
0.000113042
3.60201e-05
4.46275e-06
1.16916e-05
7.72282e-05
0.000209183
0.000211998
0.000176597
0.000136601
0.000109245
9.43707e-05
8.55661e-05
7.91262e-05
7.43882e-05
6.69312e-05
5.26293e-05
4.23008e-05
5.02627e-05
8.71788e-05
0.000155652
0.000234953
0.000293038
0.000318578
0.000320191
0.00030817
0.000288329
0.000263517
0.000235329
0.000204916
0.000173571
0.000143498
0.000118358
0.000102662
0.000100024
0.000109541
0.000109266
3.23662e-05
4.25061e-06
1.14916e-05
7.95916e-05
0.000208985
0.000201365
0.000159569
0.000119393
9.49125e-05
8.28419e-05
7.69328e-05
7.22912e-05
6.63223e-05
5.85573e-05
5.08586e-05
4.91736e-05
6.31009e-05
0.000102825
0.000165519
0.000228442
0.000271401
0.000291125
0.000293689
0.000285141
0.000269105
0.000247614
0.00022205
0.000193733
0.000164455
0.000137
0.000115177
0.000102914
0.000102765
0.000111728
0.000103785
2.92063e-05
3.96164e-06
1.12055e-05
7.75279e-05
0.000207775
0.00019515
0.000148553
0.000110443
8.96797e-05
7.8655e-05
7.10065e-05
6.43182e-05
5.80599e-05
5.27107e-05
5.03736e-05
5.53315e-05
7.40189e-05
0.000112029
0.000163867
0.000213003
0.000247286
0.000264837
0.000269039
0.000263599
0.000251017
0.000232898
0.000210525
0.000185333
0.000159329
0.000135385
0.000117036
0.000107653
0.000108901
0.000115967
0.000100767
2.77268e-05
3.67367e-06
1.10785e-05
7.40521e-05
0.00020689
0.000192004
0.000139503
0.000102703
8.69733e-05
8.02043e-05
7.33893e-05
6.50235e-05
5.74512e-05
5.24889e-05
5.14353e-05
5.6876e-05
7.30474e-05
0.00010349
0.000145172
0.000187532
0.000220462
0.000240218
0.000247952
0.000246221
0.000237212
0.000222556
0.000203655
0.000182059
0.000159798
0.000139563
0.00012451
0.000117522
0.000119428
0.000124068
0.000103441
2.84877e-05
3.51362e-06
1.10185e-05
6.85815e-05
0.000197291
0.000184742
0.000128617
9.22316e-05
8.14055e-05
8.27866e-05
8.3166e-05
7.61472e-05
6.52326e-05
5.58193e-05
5.06993e-05
5.18848e-05
6.22746e-05
8.53062e-05
0.000121399
0.000163721
0.000200843
0.000225626
0.000237647
0.000239393
0.000233382
0.000221542
0.000205465
0.000186781
0.000167485
0.000150093
0.000137451
0.000131938
0.000133426
0.000134846
0.000109557
3.04422e-05
3.44971e-06
1.10693e-05
6.54163e-05
0.000186989
0.000177092
0.000119538
8.19153e-05
7.22624e-05
7.93103e-05
9.14239e-05
9.50891e-05
8.58875e-05
7.16167e-05
5.9685e-05
5.29019e-05
5.33059e-05
6.40418e-05
8.80482e-05
0.000124777
0.000166053
0.000200015
0.000220832
0.000229389
0.000228604
0.000221065
0.00020883
0.000193761
0.000177863
0.00016347
0.000153078
0.000148492
0.000148802
0.000146897
0.000118562
3.36353e-05
3.54439e-06
1.10969e-05
6.41033e-05
0.000181422
0.000172038
0.000114517
7.59263e-05
6.5275e-05
7.24013e-05
8.94448e-05
0.000104621
0.000105476
9.23067e-05
7.58479e-05
6.31973e-05
5.59197e-05
5.56218e-05
6.58879e-05
8.99783e-05
0.000127365
0.000168628
0.000200713
0.000218506
0.000224188
0.000221329
0.000212775
0.000200843
0.000187741
0.000175757
0.000167047
0.000162817
0.000161632
0.000156846
0.000126111
3.6435e-05
3.6939e-06
1.10785e-05
6.31477e-05
0.000179409
0.000171689
0.000113939
7.37981e-05
6.18001e-05
6.78551e-05
8.59501e-05
0.000108173
0.000121622
0.000117409
0.000100316
8.18928e-05
6.80012e-05
5.92089e-05
5.71204e-05
6.56034e-05
8.80075e-05
0.000123429
0.000161879
0.000190816
0.000206341
0.00021112
0.000208618
0.000201571
0.000192348
0.000183239
0.00017626
0.000172383
0.000170135
0.000163508
0.000131172
3.82497e-05
3.85665e-06
1.1102e-05
6.24397e-05
0.000178722
0.000173055
0.000114962
7.29025e-05
5.92228e-05
6.36875e-05
8.09007e-05
0.000105478
0.000127128
0.000134632
0.000125144
0.000106545
8.83751e-05
7.40614e-05
6.36507e-05
5.95789e-05
6.6596e-05
8.82197e-05
0.0001227
0.000158585
0.000183725
0.000196121
0.000199448
0.000197318
0.000192338
0.000186578
0.000181679
0.000178361
0.000175308
0.000167275
0.000133762
3.94232e-05
4.04543e-06
1.12689e-05
6.41271e-05
0.000181499
0.000171919
0.00011201
7.15287e-05
5.83378e-05
6.24189e-05
7.96188e-05
0.000106726
0.000135534
0.000153782
0.000153402
0.000137225
0.000115555
9.59887e-05
7.97555e-05
6.66859e-05
6.0331e-05
6.60923e-05
8.72074e-05
0.000120979
0.000154778
0.000177072
0.000187161
0.000189288
0.000187309
0.000183942
0.000180947
0.00017891
0.00017647
0.000168611
0.000134715
3.96962e-05
4.2383e-06
1.15378e-05
6.90025e-05
0.00018753
0.000162422
9.99401e-05
6.68342e-05
5.85521e-05
6.50748e-05
8.33177e-05
0.000111202
0.000142545
0.000167141
0.000176098
0.000167593
0.000147856
0.000125497
0.000104886
8.58702e-05
6.93272e-05
6.07127e-05
6.56063e-05
8.62395e-05
0.000118474
0.000149288
0.000169259
0.00017876
0.000181551
0.000181019
0.000179653
0.000178609
0.00017678
0.000169004
0.000133125
3.85037e-05
4.32318e-06
1.17727e-05
7.6519e-05
0.000191666
0.000145912
8.54927e-05
6.14558e-05
6.02043e-05
7.26906e-05
9.54763e-05
0.000125369
0.000156559
0.000181401
0.000193364
0.000190047
0.000174596
0.00015356
0.000132009
0.00011085
8.91456e-05
6.98316e-05
5.99479e-05
6.46017e-05
8.48439e-05
0.000114606
0.000140803
0.000157589
0.000167131
0.000172373
0.000175253
0.000176776
0.000176121
0.000168495
0.000131206
3.76208e-05
4.44069e-06
1.18833e-05
8.44676e-05
0.000190208
0.000128988
7.4816e-05
5.78932e-05
6.25187e-05
8.13025e-05
0.000109218
0.000140642
0.000170231
0.000193377
0.000206395
0.000207399
0.000197434
0.00018038
0.000160506
0.000139564
0.000116467
9.11815e-05
6.92363e-05
5.85524e-05
6.35059e-05
8.45548e-05
0.000113937
0.000137202
0.000150908
0.000159414
0.000165678
0.000170239
0.00017171
0.000165231
0.000127679
3.64147e-05
4.56251e-06
1.18249e-05
8.96891e-05
0.000186503
0.000120078
7.04219e-05
5.68939e-05
6.50168e-05
8.87976e-05
0.000121294
0.000154056
0.000181758
0.000202076
0.000213773
0.000216366
0.000210691
0.000199053
0.000184066
0.000166879
0.00014628
0.00012043
9.14665e-05
6.73795e-05
5.60831e-05
6.10599e-05
8.26316e-05
0.000112743
0.000135707
0.000148389
0.000156255
0.000162353
0.000165677
0.000160642
0.00012213
3.41772e-05
4.58221e-06
1.16566e-05
8.96407e-05
0.000185832
0.000123274
7.18401e-05
5.61165e-05
6.2806e-05
8.69067e-05
0.000122043
0.000158112
0.000187882
0.000208748
0.000220435
0.000223778
0.000220582
0.000213258
0.000203762
0.000192457
0.000177525
0.000155829
0.000126185
9.34571e-05
6.73735e-05
5.52034e-05
5.92837e-05
7.94057e-05
0.000108313
0.000131685
0.000145681
0.000154421
0.00015916
0.000154869
0.000115231
3.18574e-05
4.5457e-06
1.14763e-05
8.67445e-05
0.00018837
0.000136247
7.89741e-05
5.66767e-05
5.83944e-05
7.89922e-05
0.000114318
0.000154094
0.000187907
0.000210971
0.000222927
0.000225872
0.000223336
0.000218879
0.00021459
0.000210252
0.000203271
0.000189464
0.000165315
0.00013172
9.6256e-05
6.92132e-05
5.67135e-05
6.0048e-05
7.83306e-05
0.000104912
0.000127818
0.000142589
0.000150173
0.000147222
0.00010878
3.03439e-05
4.61201e-06
1.13509e-05
8.4393e-05
0.000192225
0.000149512
8.85273e-05
5.88293e-05
5.41416e-05
6.85697e-05
0.000101014
0.000144336
0.000184984
0.00021297
0.000225811
0.000226908
0.000222833
0.00021963
0.000220131
0.00022342
0.000225497
0.000220664
0.000203897
0.000173866
0.000135199
9.77239e-05
7.10663e-05
5.95105e-05
6.33554e-05
8.10572e-05
0.000105805
0.000126912
0.000139118
0.000138877
0.000102771
2.90284e-05
4.73217e-06
1.13757e-05
8.63972e-05
0.000198666
0.00015191
9.33893e-05
6.31537e-05
5.4598e-05
6.33463e-05
9.06763e-05
0.000133802
0.000179498
0.000212677
0.000226713
0.000225226
0.000218225
0.000214985
0.00021953
0.000230402
0.000241943
0.0002464
0.000237271
0.00021228
0.000174446
0.000131823
9.48311e-05
7.09826e-05
6.24739e-05
6.88698e-05
8.79125e-05
0.00011165
0.000129169
0.000132718
9.81321e-05
2.765e-05
4.81899e-06
1.15352e-05
9.3785e-05
0.000200788
0.000132573
8.35605e-05
6.38465e-05
5.81011e-05
6.4852e-05
8.90125e-05
0.000131848
0.000181659
0.000219125
0.000232889
0.000226509
0.000213951
0.000208143
0.000214472
0.000231193
0.000250991
0.000263698
0.000261243
0.000241111
0.000206003
0.000162497
0.000119987
8.74675e-05
6.95031e-05
6.6642e-05
7.82265e-05
0.000100552
0.000122219
0.000129304
9.38179e-05
2.60373e-05
4.7636e-06
1.17046e-05
0.000107802
0.000181128
9.75999e-05
6.6963e-05
6.22238e-05
6.54858e-05
7.54526e-05
9.95228e-05
0.000141185
0.000190004
0.000226372
0.000237155
0.000225273
0.000206471
0.000195983
0.000200615
0.000219389
0.000244646
0.000264296
0.000268364
0.000253888
0.000223529
0.000182928
0.000140007
0.000103579
7.9787e-05
7.06503e-05
7.64307e-05
9.59068e-05
0.000119527
0.000128703
9.03773e-05
2.46447e-05
4.60465e-06
1.16038e-05
0.000123491
0.000133284
6.70738e-05
5.45596e-05
6.29477e-05
7.79214e-05
9.60457e-05
0.000123072
0.000161399
0.000202075
0.000230111
0.000235114
0.00021905
0.000195742
0.000180204
0.000180341
0.00019678
0.00022339
0.000247882
0.000258407
0.000250616
0.000226657
0.000191529
0.000151994
0.000116058
9.04108e-05
7.83897e-05
8.12791e-05
9.88997e-05
0.000122474
0.000131056
8.83792e-05
2.38205e-05