/*--------------------------------*- C++ -*----------------------------------*\
| =========                 |                                                 |
| \\      /  F ield         | OpenFOAM: The Open Source CFD Toolbox           |
|  \\    /   O peration     | Version:  v2006                                 |
|   \\  /    A nd           | Website:  www.openfoam.com                      |
|    \\/     M anipulation  |                                                 |
\*---------------------------------------------------------------------------*/
FoamFile
{
    version     2.0;
    format      ascii;
    class       volScalarField;
    location    "49";
    object      k;
}
// * * * * * * * * * * * * * * * * * * * * * * * * * * * * * * * * * * * * * //

dimensions      [0 2 -2 0 0 0 0];


internalField   nonuniform List<scalar> 
78750
(
0.000639624
0.000810202
0.000480134
0.000796831
0.000767055
0.00075058
0.00071407
0.000596166
0.000645433
0.000342904
0.000538424
0.000250608
0.00020236
0.000213724
0.000375059
0.0002041
0.000317155
0.0006566
0.000177185
9.16361e-05
0.000320355
7.41057e-05
0.000256099
2.16249e-05
0.000345406
0.000330632
0.000187668
6.33018e-05
1.8795e-05
8.19868e-05
4.7221e-05
0.000523247
0.00223184
0.00386567
0.0027144
0.0136034
0.0165807
0.0182076
0.0172369
0.0164904
0.0159019
0.0154819
0.0152099
0.0150167
0.0148664
0.0147278
0.0145573
0.0143152
0.0139867
0.0135926
0.0131659
0.0127211
0.0122435
0.0117504
0.0112654
0.0107918
0.0101679
0.00927177
0.0080969
0.00680337
0.00553842
0.0043281
0.00323916
0.00233844
0.00183114
0.00188588
0.00262006
0.00384262
0.00523519
0.00628436
0.0112412
0.0119181
0.0119579
0.0119765
0.0120005
0.01198
0.0119269
0.0118687
0.0118234
0.0118215
0.0118675
0.0119487
0.0120537
0.0121772
0.0123188
0.0124775
0.0126426
0.012785
0.0128602
0.0128249
0.0126535
0.0123391
0.0118931
0.0113411
0.0107167
0.0100441
0.00932409
0.00854866
0.00772789
0.00697851
0.00648688
0.00640479
0.00671174
0.00723038
0.00788414
0.00670918
0.00857024
0.00932139
0.00979305
0.010058
0.0101445
0.0101192
0.0100667
0.0100364
0.010026
0.0100285
0.0100423
0.0100672
0.0101041
0.0101604
0.0102476
0.0103764
0.0105541
0.0107779
0.0110231
0.0112267
0.0113156
0.0112608
0.0110576
0.0107063
0.0102184
0.0096191
0.00899943
0.00857329
0.00833307
0.00813714
0.00804414
0.00811269
0.00832547
0.00866653
0.00884522
0.0112984
0.0120689
0.0125603
0.0129291
0.0131535
0.0132217
0.0131445
0.0129264
0.0126568
0.0124398
0.0122854
0.0121843
0.0121299
0.0120998
0.0120732
0.0120362
0.0119805
0.011895
0.0117493
0.0115051
0.0111687
0.0108272
0.0105874
0.0104711
0.0104268
0.0104085
0.010393
0.0103866
0.0104437
0.0106394
0.0108303
0.0109485
0.0109633
0.0104134
0.00963851
0.012043
0.0126922
0.013012
0.013214
0.0133471
0.013431
0.0134626
0.0134434
0.0133812
0.0132675
0.0131063
0.0129221
0.0127554
0.0126417
0.0125875
0.012583
0.0126058
0.0126241
0.0125967
0.0124886
0.012289
0.0120049
0.0116483
0.0112387
0.0107985
0.010348
0.00991976
0.00955506
0.00928592
0.00915233
0.0091547
0.00916803
0.00901538
0.00800679
0.00532912
0.012068
0.0149851
0.0167223
0.0179551
0.018906
0.0196751
0.0203326
0.0209066
0.0214192
0.021876
0.0222645
0.0225587
0.0227367
0.0227942
0.0227378
0.0225697
0.0222902
0.0219065
0.0214347
0.0208908
0.0202791
0.0195778
0.0187326
0.0176742
0.0163761
0.0148818
0.0132482
0.011598
0.0102591
0.00948636
0.00914375
0.00895877
0.00862667
0.00733055
0.00263775
0.00575678
0.00739634
0.00878716
0.0100178
0.0111706
0.0122574
0.0132656
0.0141692
0.014936
0.0155431
0.0160105
0.0163963
0.0167731
0.0171997
0.0177074
0.0182909
0.0189143
0.019536
0.0201195
0.0206374
0.0210743
0.0214152
0.0216401
0.0217224
0.0216124
0.0212056
0.0203779
0.0191006
0.0174347
0.0155444
0.0137093
0.0120836
0.010467
0.00775424
0.00249162
0.00579623
0.00624285
0.00624325
0.00636364
0.00702867
0.00790908
0.00885476
0.00970955
0.0105434
0.0113583
0.0121219
0.0128088
0.0134177
0.0139665
0.0144652
0.0149042
0.0152669
0.0155673
0.0158424
0.0161245
0.0164344
0.0167903
0.0171962
0.0176416
0.0180763
0.0183479
0.018247
0.0176454
0.0164721
0.0149523
0.0137822
0.0134674
0.0139956
0.0157237
0.00364532
0.00254434
0.00135254
0.00165517
0.00410222
0.00647097
0.00835699
0.00981536
0.0110275
0.0121779
0.0133654
0.014584
0.0157771
0.0168821
0.0178918
0.0188719
0.0197692
0.0205214
0.0210567
0.0212883
0.0211772
0.0207692
0.0201514
0.0193779
0.0184583
0.0174179
0.0163369
0.0153017
0.0143429
0.0134938
0.0128738
0.0125616
0.0124563
0.0120968
0.00996711
0.00236312
0.0038999
0.00453077
0.00532397
0.00549667
0.00522184
0.0047028
0.00406792
0.00343772
0.00295468
0.00274792
0.00291721
0.00348094
0.00430347
0.00525289
0.00647879
0.00799652
0.00982363
0.0119402
0.0142407
0.0165479
0.0186434
0.0203087
0.0213706
0.021742
0.0214539
0.0206676
0.0196269
0.0185666
0.0176522
0.0169633
0.0164654
0.0159119
0.0140613
0.00555106
0.00213102
0.00440181
0.00527595
0.0055638
0.00562606
0.00561145
0.00557112
0.00552064
0.00545636
0.00536494
0.00523977
0.00509177
0.0049496
0.00485083
0.00482047
0.00485658
0.0049868
0.00524998
0.00570898
0.00643057
0.00746624
0.00884187
0.0105253
0.0123961
0.0142628
0.0159228
0.0172337
0.0181482
0.0186862
0.018911
0.0189116
0.0187302
0.0182221
0.0163619
0.00693642
0.00348618
0.00520273
0.00548062
0.00547809
0.00539334
0.00526389
0.00510254
0.00491084
0.0046881
0.0044405
0.00418675
0.00395347
0.00375958
0.00361343
0.00351413
0.00345444
0.00342995
0.0034359
0.00348037
0.00359092
0.00381338
0.00420617
0.00482481
0.0056958
0.00679652
0.00805239
0.00934714
0.0105526
0.0115939
0.0124232
0.0129579
0.0131303
0.0128325
0.0114148
0.00614315
0.00235849
0.00434442
0.00523893
0.00583587
0.00629252
0.00664967
0.00691016
0.00706453
0.00709391
0.00697371
0.00669259
0.00627095
0.00575485
0.0051949
0.00463414
0.00410494
0.0036225
0.00318432
0.00277373
0.00239345
0.00206182
0.00181086
0.00169078
0.00177214
0.00213257
0.00281759
0.00379814
0.00493372
0.00593853
0.00668147
0.00722501
0.0076232
0.00779732
0.00757721
0.00690373
0.00220217
0.0043356
0.00531707
0.00577896
0.00604365
0.00623497
0.00640329
0.00657876
0.0067708
0.00695357
0.00707089
0.00706983
0.00692185
0.00662217
0.00618833
0.00568303
0.00519774
0.00478227
0.00440141
0.00400693
0.00356394
0.00303537
0.00240113
0.00168973
0.000959437
0.000352282
0.000382901
0.00153084
0.0032673
0.00473947
0.0057563
0.00637214
0.00659592
0.00656919
0.00647697
0.0046393
0.00576901
0.00601689
0.00614
0.0062537
0.00636018
0.00645229
0.00653668
0.00663092
0.00673681
0.00681632
0.00682091
0.00672668
0.00651147
0.00613078
0.00557599
0.00498919
0.00454511
0.00425979
0.00403728
0.00381224
0.00355748
0.0032511
0.00287003
0.00240486
0.00189412
0.00147493
0.00146377
0.00209664
0.00306513
0.0039821
0.00469395
0.00501043
0.0047855
0.00371673
0.00574564
0.00613837
0.00624493
0.00636387
0.00651734
0.00665003
0.00672789
0.00675667
0.00677114
0.00681547
0.00689837
0.00696662
0.00696594
0.00687818
0.00667409
0.00626036
0.00557516
0.00484405
0.00431427
0.0039926
0.00378436
0.00361648
0.00344946
0.00326497
0.00305776
0.00282963
0.00259018
0.0023703
0.00224242
0.00227665
0.00241847
0.00245797
0.00253456
0.00276179
0.00284002
0.00689734
0.00630454
0.00605386
0.00606867
0.0062447
0.00640987
0.00651399
0.0065512
0.00653214
0.00647593
0.00640078
0.00631285
0.00619733
0.00602038
0.00574317
0.00535898
0.0049441
0.00460515
0.00435521
0.00415162
0.00396442
0.00378129
0.00359844
0.00341393
0.00322704
0.00303893
0.00285207
0.00266901
0.00248734
0.00228292
0.00201805
0.00191057
0.00235818
0.00283167
0.00343751
0.00400535
0.0042271
0.00451075
0.0049502
0.00522279
0.00541917
0.00558261
0.0056794
0.00567816
0.0055719
0.00538342
0.005169
0.00499364
0.00488113
0.00479681
0.00470176
0.00457806
0.00442367
0.00424963
0.00406762
0.0038825
0.00369414
0.00350084
0.00330152
0.00309869
0.0028978
0.00270315
0.0025059
0.00226452
0.00190396
0.00151783
0.00164054
0.00217951
0.0025598
0.00272106
0.00333238
0.00484489
0.00492892
0.00480086
0.0046463
0.00454564
0.0045772
0.00472798
0.00492572
0.00508946
0.00516833
0.00517027
0.0051267
0.00505838
0.00497737
0.0048899
0.00479595
0.00469228
0.00457676
0.00445044
0.00431476
0.00416544
0.00399942
0.00381953
0.00362869
0.00343035
0.00322849
0.00302516
0.00277834
0.00238948
0.00186157
0.00160261
0.00185314
0.00211373
0.00227377
0.00301153
0.00509348
0.00533681
0.00526066
0.00504174
0.00469034
0.00425622
0.0038486
0.00358001
0.0036376
0.00393505
0.00421047
0.00437068
0.00442552
0.00441054
0.00436907
0.00432945
0.00430354
0.00429167
0.00428528
0.00426927
0.00422996
0.00416099
0.00406228
0.00393695
0.00378864
0.00361879
0.00342061
0.00316607
0.00279866
0.00230632
0.00191925
0.00192408
0.00205316
0.00219139
0.00322146
0.00529216
0.0059782
0.00625681
0.00637783
0.0063735
0.0061987
0.00575959
0.00487873
0.00389922
0.0035674
0.00379492
0.0041281
0.00434717
0.00443143
0.00441777
0.00434709
0.00425167
0.00415606
0.00407426
0.00401221
0.00396752
0.00392954
0.00388489
0.0038223
0.00373338
0.00361259
0.00345731
0.00326268
0.00300874
0.00266337
0.00226622
0.00201349
0.00190664
0.00190794
0.00517293
0.00573383
0.00578369
0.00574912
0.005672
0.00554609
0.00536571
0.00509741
0.0045263
0.00366893
0.00331159
0.00359007
0.00397033
0.00418857
0.00429721
0.00434763
0.00435403
0.00432505
0.00427258
0.00420846
0.00414162
0.00407324
0.00399576
0.00389491
0.00376399
0.0036128
0.00346317
0.00332845
0.0031964
0.00304028
0.00282447
0.0025243
0.00222848
0.00209768
0.00227134
0.00606901
0.00619768
0.0061145
0.00596504
0.00571667
0.0053098
0.00472434
0.00408081
0.00361826
0.00357815
0.00377706
0.00392581
0.00401562
0.00406161
0.00406959
0.0040428
0.00398418
0.00389715
0.00378769
0.00366351
0.00353233
0.00339988
0.00329242
0.00330082
0.00339005
0.00344835
0.00345031
0.00340437
0.00331569
0.00318098
0.00299124
0.00275551
0.00255707
0.00250778
0.00280827
0.00529979
0.00587039
0.00600373
0.00599573
0.00585518
0.00552679
0.00500615
0.00442233
0.00394721
0.00370795
0.00374932
0.00387024
0.00394796
0.00396961
0.00394324
0.00387535
0.00377049
0.00363108
0.00345389
0.00322653
0.00293877
0.00266162
0.00265219
0.00297834
0.00328734
0.00345778
0.00352549
0.00351938
0.00345097
0.00332334
0.00314099
0.00292908
0.00274752
0.00262547
0.00266593
0.00472289
0.00565468
0.00596504
0.00612498
0.00622458
0.00624331
0.0061003
0.00565535
0.00487002
0.00398787
0.00344638
0.0034098
0.00357933
0.00372159
0.00379293
0.00380123
0.00375505
0.00365917
0.00351329
0.00330918
0.00303748
0.00273616
0.00257471
0.00270824
0.00296561
0.00316959
0.0032966
0.00335794
0.00335825
0.00329537
0.0031666
0.0029811
0.00276927
0.00252652
0.00231059
0.00536204
0.00597053
0.00610093
0.0061323
0.00611419
0.00604492
0.00591859
0.00572196
0.00538648
0.0047869
0.00395437
0.00337528
0.00331591
0.00346789
0.00359948
0.00366749
0.00368037
0.00364494
0.0035627
0.00343195
0.00324968
0.00302351
0.00280778
0.00271633
0.0027898
0.0029327
0.0030505
0.00311581
0.00313337
0.00310372
0.00301657
0.00286208
0.00265063
0.00239112
0.00225076
0.00532177
0.00588779
0.00610362
0.00620912
0.00624425
0.00618682
0.00600495
0.0056901
0.00528653
0.00483092
0.00427051
0.00362252
0.00328323
0.00333383
0.00347433
0.00356784
0.0036057
0.00359751
0.00354671
0.00345225
0.00331152
0.00312359
0.00290048
0.00269394
0.0025983
0.00266918
0.00283718
0.00297852
0.00303584
0.00301053
0.00291396
0.00275227
0.00254413
0.00232189
0.00229353
0.00483334
0.0057636
0.00611134
0.00631008
0.00645289
0.00653334
0.00651493
0.00633455
0.0059421
0.00537995
0.00474742
0.00408821
0.00351354
0.00331432
0.0033939
0.0035061
0.00356961
0.00358281
0.00355087
0.00347374
0.00334807
0.00316908
0.00293295
0.0026503
0.00237805
0.00223867
0.00233507
0.00259855
0.00284286
0.00295808
0.00293325
0.00280042
0.00260621
0.00239228
0.00226659
0.00483645
0.00576459
0.00608063
0.00625703
0.00639792
0.00651436
0.00658676
0.00656826
0.00639489
0.00601184
0.00543138
0.00474157
0.00404231
0.0035289
0.00339563
0.00348096
0.00357871
0.00362915
0.00363098
0.00358575
0.00349056
0.00333985
0.00312627
0.00284357
0.00250027
0.00215429
0.00193776
0.00197627
0.00223472
0.0025302
0.00270831
0.00272981
0.00263155
0.00245442
0.00221058
0.00495517
0.00589122
0.00621062
0.00638728
0.00652947
0.00665744
0.00676358
0.00681303
0.00675875
0.00655537
0.00616287
0.00557152
0.0048349
0.00407794
0.00355822
0.00343192
0.00352092
0.00362553
0.00368531
0.0036962
0.0036585
0.00356827
0.00341943
0.0032049
0.0029189
0.0025676
0.00219531
0.00190593
0.00181763
0.00194851
0.00217031
0.00232708
0.00236386
0.00229901
0.00215535
0.00520584
0.00593316
0.00619492
0.00634837
0.00648141
0.00661342
0.00673513
0.00680834
0.00679735
0.00668469
0.00645549
0.00608454
0.00554978
0.00486477
0.00413978
0.00364024
0.00351584
0.0035967
0.00369897
0.00376446
0.00378632
0.00376189
0.00368604
0.00355263
0.00335555
0.00309046
0.0027612
0.00239587
0.00206656
0.0018722
0.00185369
0.0019297
0.00198978
0.00200744
0.00205611
0.0054595
0.0060441
0.00627127
0.00641725
0.00656301
0.0067366
0.00692183
0.00705091
0.00707332
0.00698176
0.00678481
0.00648375
0.00606832
0.00552589
0.00486404
0.0041799
0.0037082
0.00357882
0.00364247
0.0037396
0.00381293
0.00384997
0.00384533
0.00379273
0.0036858
0.00351919
0.00328957
0.00299916
0.00266734
0.00234603
0.00211169
0.00199825
0.00195569
0.00192395
0.00195492
0.0059221
0.00610211
0.00619906
0.00628633
0.00640702
0.00659702
0.00682868
0.00699907
0.00705278
0.00699698
0.00685126
0.00662331
0.00630831
0.00589616
0.00538041
0.00477759
0.00418092
0.00378907
0.00367669
0.00371872
0.00379733
0.00386556
0.00390829
0.00391683
0.00388311
0.00380014
0.00366272
0.00346803
0.0032197
0.00293529
0.00265777
0.00244133
0.00229508
0.00214962
0.0019482
0.00599972
0.0060273
0.00609652
0.00617869
0.00631498
0.00656182
0.0068774
0.00710855
0.0071922
0.00715312
0.00702194
0.00681347
0.00653144
0.00617493
0.00574251
0.0052367
0.00468025
0.00416929
0.00385452
0.0037558
0.00377722
0.00383775
0.00389981
0.00394654
0.00396604
0.00394797
0.00388405
0.00376837
0.00359946
0.00338192
0.0031344
0.00289487
0.00269072
0.00245408
0.0020133
0.00596231
0.00591527
0.00592933
0.0059614
0.00604229
0.00625873
0.00661516
0.00692854
0.00709191
0.00712101
0.00705102
0.00690128
0.00667887
0.00638581
0.00602311
0.00559277
0.00510149
0.00458771
0.00415357
0.00389681
0.00380594
0.00380896
0.00385156
0.00390507
0.00395193
0.00397682
0.00396578
0.0039077
0.00379596
0.00362764
0.00340887
0.00316651
0.00293588
0.00265647
0.00208806
0.00578938
0.00585082
0.00585471
0.00585414
0.0058793
0.00603511
0.00639727
0.0067853
0.00703435
0.00713412
0.00712023
0.00701838
0.00684168
0.00659718
0.00628918
0.00591912
0.00548624
0.00500205
0.00451935
0.00413511
0.00390871
0.00381666
0.00380587
0.00383785
0.00388975
0.003942
0.00397273
0.00396074
0.00389088
0.00375345
0.00354831
0.00330066
0.00305545
0.00275983
0.0021407
0.00591387
0.00587448
0.00578452
0.0057014
0.00563058
0.00569939
0.00604549
0.00650702
0.00685653
0.00704266
0.00710023
0.00706328
0.00695003
0.00676906
0.00652442
0.00621577
0.00583966
0.00539533
0.00490465
0.00443547
0.00407428
0.00385696
0.00375635
0.00373271
0.00375944
0.00381857
0.00388621
0.00392761
0.00390916
0.00381044
0.00362879
0.00339035
0.00314138
0.00283059
0.0021682
0.00618742
0.00591072
0.00572366
0.00557477
0.00545394
0.00553504
0.00591501
0.00639834
0.00677661
0.00699935
0.00709635
0.00710054
0.00703162
0.00689987
0.00670958
0.00646062
0.00614812
0.00576435
0.00531009
0.00481813
0.00436224
0.00401546
0.00379568
0.00367893
0.00363876
0.00366148
0.00373383
0.00381996
0.00386148
0.00381443
0.00367
0.0034533
0.00320772
0.00288464
0.00220484
0.00652825
0.00590025
0.00558748
0.00534693
0.00515517
0.00528022
0.00576842
0.00630885
0.00671107
0.00695792
0.00708512
0.00712352
0.0070915
0.00699893
0.00685009
0.00664548
0.00638079
0.00604688
0.00563528
0.00515434
0.00464974
0.00419851
0.00385726
0.00363083
0.00349858
0.00344794
0.00348025
0.00358484
0.00369866
0.00373239
0.00364852
0.00346717
0.00322765
0.00288343
0.00218786
0.00649783
0.00577195
0.00543656
0.00515751
0.00490719
0.00497732
0.00547573
0.00606604
0.00652737
0.0068357
0.00702129
0.00711234
0.00712745
0.00707779
0.00696988
0.00680677
0.00658722
0.00630496
0.00595073
0.00552018
0.00502964
0.00452949
0.0040853
0.00373482
0.00347833
0.00330553
0.00322076
0.00324106
0.00335021
0.0034509
0.00344316
0.00331252
0.00309121
0.00274131
0.00210111
0.0060889
0.00569153
0.00546801
0.00522496
0.00490384
0.00465271
0.00479889
0.00532068
0.00591106
0.00638817
0.0067195
0.00692746
0.00703647
0.00706339
0.00701947
0.00691166
0.00674235
0.00650918
0.00620554
0.00582444
0.00536874
0.0048665
0.00437154
0.00393458
0.00357738
0.0032942
0.00308153
0.00295798
0.00294972
0.00301798
0.00304785
0.00297004
0.00279299
0.00248883
0.00198335
0.00557689
0.00577196
0.0057595
0.00564432
0.00539154
0.0049441
0.00446843
0.00439935
0.00482021
0.00545422
0.00603575
0.0064649
0.0067463
0.00690661
0.00696972
0.00695017
0.00685652
0.00669216
0.00645508
0.00613913
0.00573993
0.00526655
0.00475147
0.00424822
0.00379952
0.00341755
0.00309694
0.00283972
0.00267074
0.00260745
0.00259563
0.00254977
0.00243871
0.00222942
0.00188003
0.00524085
0.00591175
0.00610288
0.00614964
0.0060854
0.00584004
0.00527837
0.00450034
0.00403695
0.00420744
0.00483162
0.00553289
0.00609232
0.00647572
0.00671429
0.00683841
0.00686793
0.00681461
0.00668204
0.0064684
0.00616933
0.00578323
0.00532007
0.00481123
0.00430039
0.00382272
0.00339383
0.00301781
0.00270726
0.00249088
0.00237618
0.00231555
0.0022529
0.00213047
0.00187387
0.00517651
0.00600356
0.00630357
0.00646391
0.00656517
0.00658496
0.00643767
0.00592154
0.00495416
0.00405014
0.00381875
0.00430343
0.00506003
0.00571606
0.00617897
0.00647936
0.00665609
0.00673254
0.00672033
0.00662349
0.00644102
0.00617103
0.00581565
0.0053871
0.00491015
0.00441589
0.00393079
0.00347163
0.00305412
0.00270911
0.00247656
0.00235649
0.00229119
0.00219526
0.00194705
0.00530063
0.00609515
0.00639581
0.00655768
0.00667671
0.00676844
0.00682025
0.00677412
0.00643545
0.00553157
0.00434375
0.00371509
0.00401715
0.00477295
0.00546546
0.00595862
0.00628285
0.00648139
0.00657853
0.0065861
0.00650772
0.00634406
0.0060972
0.00577323
0.00538531
0.00495234
0.00449574
0.00403325
0.00358127
0.00316784
0.00284196
0.00263888
0.0025245
0.00239741
0.00209034
0.00564327
0.00635555
0.00663889
0.00678181
0.0068643
0.00689806
0.00688766
0.00684832
0.00678599
0.00656653
0.00584501
0.00458109
0.00373347
0.00397335
0.00471445
0.00538165
0.00585006
0.00615715
0.00634562
0.00643802
0.00644349
0.00636591
0.00620761
0.00597307
0.00567079
0.00531324
0.004915
0.0044896
0.00405064
0.0036212
0.00324655
0.00297573
0.00280059
0.00261641
0.00222202
0.0061235
0.00657815
0.00680874
0.00694555
0.00703231
0.00705949
0.00700341
0.00685158
0.00665563
0.00648988
0.00626722
0.00564266
0.00444822
0.0038096
0.00422119
0.00492232
0.00548329
0.00586418
0.00611122
0.00625855
0.00632147
0.0063052
0.00621244
0.00604678
0.00581412
0.00552278
0.0051824
0.00480249
0.00439309
0.00397224
0.00357884
0.00326312
0.00303424
0.00278968
0.00230741
0.00671125
0.00673215
0.00684467
0.00694325
0.00702258
0.00705699
0.00700773
0.00683797
0.00655089
0.00622973
0.00594821
0.00561031
0.00492539
0.00408993
0.00413923
0.00474647
0.00530845
0.00569847
0.00595609
0.0061198
0.00620664
0.00622137
0.00616535
0.00604037
0.00584991
0.00559913
0.00529423
0.00494188
0.00455094
0.0041395
0.00374452
0.00341217
0.00315219
0.00286044
0.00229778
0.00693153
0.00666456
0.006706
0.00677237
0.00682447
0.0068243
0.00672975
0.00652298
0.0062224
0.00586817
0.0055129
0.00515843
0.00472674
0.00424197
0.00428335
0.00481083
0.00530607
0.00565236
0.0058857
0.00603902
0.00612563
0.00614865
0.0061078
0.00600291
0.00583482
0.00560547
0.00531756
0.00497515
0.00458699
0.00417451
0.00377757
0.00343842
0.0031584
0.0028293
0.00219315
0.0067886
0.00653805
0.00659407
0.00666168
0.00670055
0.00665673
0.00647402
0.0061526
0.00575874
0.00536049
0.00499365
0.00467168
0.00440794
0.00429244
0.00451901
0.00498631
0.00538605
0.0056702
0.00586766
0.00599916
0.00607217
0.00608822
0.00604627
0.00594488
0.00578292
0.00555974
0.00527548
0.0049328
0.00454201
0.00412896
0.00373588
0.00339928
0.00310967
0.00275449
0.00204577
0.00639944
0.00634485
0.0064433
0.00652649
0.00658238
0.00655373
0.00636125
0.00598083
0.00548109
0.0049718
0.00454608
0.00426105
0.00415789
0.00428416
0.00463508
0.00506442
0.00541427
0.00566865
0.00584849
0.00596813
0.0060331
0.00604462
0.00600154
0.00590185
0.00574334
0.00552386
0.00524228
0.00490101
0.00451173
0.00410214
0.00371338
0.00337637
0.00307472
0.00269104
0.00189627
0.00614348
0.00624808
0.00634216
0.00641986
0.00649626
0.00653475
0.00644297
0.00614176
0.00564105
0.00503364
0.00446616
0.00408143
0.00396077
0.00411544
0.00447852
0.00490774
0.00527308
0.005547
0.00574307
0.00587533
0.0059513
0.00597359
0.00594199
0.00585495
0.00571023
0.00550557
0.00523977
0.00491549
0.00454438
0.00415226
0.00377543
0.00343962
0.00312638
0.00271223
0.00181171
0.00603488
0.00616719
0.00624257
0.00630349
0.00637828
0.00646619
0.0065028
0.00638135
0.0060456
0.00550448
0.00483688
0.00420806
0.00381087
0.00376318
0.00404449
0.00450551
0.00495264
0.00530175
0.00555387
0.00572788
0.00583735
0.00588846
0.00588304
0.00582076
0.00570019
0.00551963
0.0052784
0.00497938
0.00463339
0.00426301
0.00389872
0.00356157
0.00323303
0.00278248
0.00177702
0.0061186
0.00619065
0.00624124
0.00627875
0.00632172
0.00638424
0.00645202
0.00644832
0.00630065
0.00597598
0.00546094
0.00479579
0.00413073
0.00368164
0.00360193
0.00389277
0.00437515
0.00483733
0.00519465
0.00544991
0.00562335
0.00572811
0.00577016
0.0057515
0.00567223
0.00553172
0.00532998
0.00506988
0.00476064
0.00442074
0.00407474
0.00374005
0.0034005
0.0029209
0.00182462
0.00621112
0.00622822
0.0062752
0.0063076
0.00633219
0.00635493
0.00638442
0.00638728
0.0063065
0.00611238
0.00578339
0.00529466
0.00466869
0.00403836
0.00360249
0.00351923
0.00380924
0.00429384
0.00475861
0.00511474
0.00536634
0.00553382
0.00562984
0.00565986
0.00562579
0.0055282
0.00536794
0.00514807
0.00487667
0.00456868
0.00424342
0.00391482
0.00356805
0.00306466
0.00190166
0.00622402
0.00629355
0.00636147
0.00639909
0.00641468
0.00640967
0.00640885
0.00640764
0.00635328
0.00621627
0.00598666
0.00564589
0.00517067
0.00458266
0.00399649
0.00358107
0.00348796
0.00375147
0.00421634
0.00466971
0.00501915
0.00526632
0.0054293
0.00551877
0.00553893
0.00549125
0.00537693
0.00519895
0.00496441
0.00468601
0.00437996
0.00405837
0.00370769
0.00318807
0.00198663
0.0062638
0.00641545
0.00650142
0.00653901
0.00653829
0.00649386
0.00645024
0.0064434
0.00641777
0.00632436
0.00615128
0.00589211
0.00553143
0.00505883
0.00450725
0.00397581
0.00360265
0.00351721
0.00376416
0.00420883
0.00463928
0.00496599
0.005193
0.00533774
0.00540939
0.00541116
0.00534441
0.00521138
0.00501743
0.0047724
0.00448948
0.00417953
0.00383058
0.00330414
0.00208569
0.00643987
0.00658438
0.00666771
0.00670499
0.00669867
0.00663001
0.00654417
0.00651642
0.00651166
0.00646371
0.00634691
0.00615543
0.00587972
0.00550511
0.00502959
0.0044942
0.00399125
0.00363677
0.00354503
0.00377633
0.00420715
0.00462082
0.00492822
0.00513436
0.00525572
0.00530138
0.00527551
0.00518144
0.00502424
0.00481225
0.00455639
0.00426594
0.00392905
0.00340831
0.00218782
0.0067409
0.00672157
0.00676537
0.00679445
0.00679145
0.00673109
0.00664849
0.00661
0.00660367
0.00657614
0.00649759
0.00635883
0.00615283
0.00586803
0.00549178
0.0050295
0.00452514
0.00405602
0.00371147
0.00360668
0.00382146
0.00423266
0.00462347
0.00491061
0.00509716
0.00519478
0.00521035
0.0051491
0.00501776
0.00482607
0.00458596
0.0043071
0.00397634
0.00345455
0.00223467
0.00699227
0.00678083
0.00677284
0.00678502
0.00678106
0.00674728
0.00672326
0.00673075
0.00674559
0.00673545
0.00668266
0.00658006
0.0064218
0.00619912
0.00589964
0.00551753
0.00506701
0.00458968
0.00414052
0.00379478
0.00367602
0.00387502
0.0042603
0.00461401
0.00486706
0.00502603
0.00509809
0.00508657
0.00499661
0.00483732
0.00462092
0.00435818
0.00403676
0.0035183
0.00229848
0.00707943
0.00675035
0.0067094
0.00670655
0.00669606
0.00668207
0.00671562
0.00678206
0.00683812
0.00686122
0.00684356
0.00678131
0.00667027
0.00650398
0.00627213
0.00596636
0.0055873
0.00515194
0.00468988
0.00423937
0.00387341
0.00373476
0.00392654
0.00430223
0.00462479
0.00483402
0.00494793
0.00497784
0.00492874
0.00480733
0.00462344
0.0043863
0.00408304
0.00357635
0.00236542
0.00692842
0.00662337
0.00659211
0.00659459
0.00658846
0.00659029
0.00666463
0.00677977
0.00687895
0.00694192
0.00696559
0.00694837
0.00688709
0.0067763
0.00660737
0.00637227
0.0060672
0.00569697
0.00527398
0.00481369
0.00434298
0.00393788
0.00376066
0.00393847
0.00431806
0.00463374
0.00481443
0.00488466
0.00486442
0.00476645
0.00460292
0.00438349
0.00409303
0.00359069
0.00237989
0.00663143
0.00646119
0.00646876
0.00648677
0.00648009
0.00645998
0.00652024
0.00665259
0.00678764
0.0068942
0.00696696
0.00700462
0.00700457
0.0069613
0.00686674
0.00671277
0.00649369
0.00620895
0.00586224
0.00545842
0.00500248
0.00451184
0.00406144
0.00382213
0.0039409
0.00428277
0.00457986
0.00473905
0.00477579
0.00471383
0.00457311
0.00436866
0.00408628
0.00358177
0.0023645
0.00631893
0.00633575
0.00640035
0.00644361
0.00644364
0.00638558
0.00637893
0.00648107
0.00662207
0.00675216
0.00685851
0.00693934
0.00699284
0.00701344
0.00699295
0.00692202
0.00679275
0.00660108
0.00634665
0.00603082
0.00565305
0.00521105
0.00471731
0.004239
0.00394319
0.00397678
0.00423083
0.0044689
0.00459081
0.00459657
0.00450594
0.00433697
0.00407976
0.00359449
0.00240245
0.00610197
0.00627498
0.00638479
0.00645214
0.00646831
0.00638464
0.0062797
0.0062998
0.00641227
0.00654373
0.0066645
0.0067702
0.00686019
0.0069309
0.0069751
0.00698184
0.0069393
0.00683876
0.00667687
0.00645389
0.00616911
0.00581822
0.00539494
0.00490624
0.00441805
0.0040885
0.00404522
0.00419172
0.00433762
0.00439727
0.00436216
0.00424248
0.00402874
0.00359004
0.00246849
0.00608214
0.00628795
0.00640788
0.00649324
0.00654344
0.00648539
0.00632562
0.0062404
0.00628163
0.00637869
0.00648406
0.00658568
0.00668265
0.00677554
0.00686091
0.0069279
0.00695933
0.00693908
0.00685948
0.00671974
0.00652001
0.00625767
0.00592393
0.005509
0.00502205
0.00453612
0.00420238
0.00411069
0.0041608
0.0042107
0.00420019
0.0041184
0.00394899
0.00356597
0.00251628
0.00627349
0.00632025
0.00638799
0.00646617
0.00654948
0.00654263
0.00640339
0.00626508
0.00623832
0.00628752
0.00636129
0.0064391
0.00651986
0.00660826
0.00670731
0.00681042
0.00689652
0.00694043
0.00692793
0.00685633
0.00672638
0.00653605
0.006278
0.00594045
0.00551463
0.00502097
0.00455091
0.00424152
0.00412528
0.0040988
0.00406828
0.00399569
0.00385099
0.00350409
0.00248781
0.00658246
0.00632627
0.00629302
0.0063508
0.00648209
0.00654422
0.00647283
0.00635432
0.00629309
0.00629382
0.00632325
0.00636197
0.00640778
0.00646728
0.00654985
0.00665781
0.00677319
0.0068634
0.00690423
0.00688819
0.0068147
0.00668255
0.00648589
0.00621409
0.00585463
0.00540692
0.00491538
0.00448904
0.00422163
0.00408701
0.00400096
0.00390787
0.00376209
0.00342406
0.00240359
0.00666951
0.00614118
0.0060197
0.00608596
0.00630683
0.006452
0.00646365
0.00641447
0.00637024
0.00634941
0.00634421
0.00634573
0.00635291
0.00637279
0.00641846
0.0065022
0.00661796
0.00673369
0.00681385
0.00684182
0.00681368
0.00672847
0.00658144
0.00636332
0.00606174
0.00566928
0.00520641
0.00474769
0.00439064
0.00416181
0.0040096
0.00387684
0.00370542
0.00334495
0.00228571
0.00629104
0.0057193
0.00559812
0.00573207
0.00606859
0.00631255
0.0064149
0.0064371
0.00642453
0.00640108
0.0063752
0.00634804
0.00632165
0.00630145
0.00630054
0.00633853
0.00642677
0.00654716
0.00665709
0.00672423
0.00673746
0.00669434
0.00659092
0.00641914
0.00616782
0.00582834
0.00541132
0.00496888
0.00458346
0.00430033
0.00409542
0.00391998
0.00370925
0.00330015
0.00216983
0.00555064
0.00523355
0.00519274
0.00531619
0.0056199
0.00594426
0.00618354
0.00632238
0.0063848
0.00639838
0.00638223
0.00634736
0.00630126
0.00625069
0.00620603
0.00618629
0.00621552
0.00630469
0.00642625
0.00653106
0.0065881
0.00658907
0.00653013
0.00640437
0.00620181
0.0059142
0.00554779
0.00514099
0.00476008
0.00445186
0.00420907
0.00399361
0.00373791
0.00326669
0.00206464
0.00493296
0.0051199
0.00516336
0.00515861
0.00517759
0.00532848
0.00562334
0.00593483
0.00615468
0.00627704
0.00632666
0.00632562
0.00628999
0.00623149
0.00616056
0.00609079
0.00604324
0.00605122
0.00613436
0.00625969
0.00636309
0.00641214
0.00640041
0.00632378
0.00617491
0.00594719
0.00564417
0.00529203
0.00493897
0.00462558
0.004356
0.00410464
0.0038058
0.00327589
0.00201353
0.00478228
0.00542325
0.00557382
0.00557515
0.00544362
0.00518194
0.00506392
0.00531641
0.00569753
0.00599229
0.00616806
0.00625317
0.00627358
0.00624736
0.00618734
0.00610318
0.00600643
0.00592118
0.00589227
0.00595815
0.00608554
0.00619218
0.00623363
0.00620339
0.00610013
0.00592218
0.00567543
0.00538102
0.00507251
0.004778
0.00450341
0.00423248
0.00390562
0.00333595
0.00202285
0.00536609
0.00581679
0.00599754
0.0061002
0.00613052
0.00589467
0.00533497
0.00511399
0.00538702
0.00576029
0.00602897
0.00618706
0.00626653
0.0062888
0.00626451
0.0062003
0.00610117
0.00597448
0.005844
0.00576415
0.00579255
0.00591268
0.00602974
0.006075
0.00603399
0.00590854
0.00570675
0.00545004
0.00517014
0.00489223
0.00462233
0.00434753
0.00401194
0.00342473
0.00206649
0.00638114
0.00597907
0.00590518
0.00595213
0.00612782
0.00619252
0.00585879
0.00550659
0.00561463
0.00591455
0.00614743
0.00628809
0.00637035
0.00640931
0.00640428
0.00635632
0.00627127
0.00615073
0.00599293
0.00581643
0.0056773
0.00564612
0.00573034
0.00584474
0.00589928
0.00586137
0.00573213
0.00552705
0.00527363
0.0050005
0.0047227
0.00443526
0.00408474
0.00347494
0.00207595
0.00669671
0.00573852
0.00546708
0.00542181
0.00565655
0.00592844
0.00599227
0.0060002
0.00614179
0.00631954
0.00645454
0.0065482
0.00660934
0.00663964
0.00663632
0.0065968
0.00652132
0.00640928
0.00625611
0.00605982
0.0058362
0.00563486
0.00552397
0.00553159
0.00560359
0.00565105
0.00562177
0.00550737
0.00532168
0.00508735
0.0048242
0.00453737
0.00418187
0.00356262
0.00210626
0.00577654
0.00515898
0.00503456
0.00507917