/*--------------------------------*- C++ -*----------------------------------*\
| =========                 |                                                 |
| \\      /  F ield         | OpenFOAM: The Open Source CFD Toolbox           |
|  \\    /   O peration     | Version:  v2006                                 |
|   \\  /    A nd           | Website:  www.openfoam.com                      |
|    \\/     M anipulation  |                                                 |
\*---------------------------------------------------------------------------*/
FoamFile
{
    version     2.0;
    format      ascii;
    class       volScalarField;
    location    "49";
    object      omega;
}
// * * * * * * * * * * * * * * * * * * * * * * * * * * * * * * * * * * * * * //

dimensions      [0 0 -1 0 0 0 0];


internalField   nonuniform List<scalar> 
78750
(
281.451
10.7467
14.1783
15.9046
15.4939
15.5811
15.271
14.6172
14.6511
12.7818
14.2683
11.6971
11.9941
12.5404
13.5038
12.1607
12.8701
10.1774
12.2744
11.5905
13.1759
11.0975
12.7704
10.4151
10.6141
10.8157
12.8641
11.4271
11.1901
11.5472
10.906
15.2314
23.7534
28.7757
399.719
490.826
33.2307
34.8467
33.9732
33.2667
32.6885
32.2689
31.994
31.7992
31.6485
31.5062
31.3265
31.0661
30.7079
30.2717
29.7945
29.2893
28.7414
28.1719
27.6119
27.0541
26.2807
25.1187
23.5158
21.6252
19.602
17.435
15.2283
13.1172
11.7466
11.8657
13.7554
16.3785
18.9533
598.372
478.438
28.2222
28.2995
28.3296
28.3651
28.3486
28.2882
28.2189
28.1652
28.163
28.2166
28.3101
28.4299
28.5705
28.7327
28.9173
29.113
29.287
29.3873
29.3611
29.1766
28.8236
28.312
27.6658
26.9165
26.0851
25.1629
24.1275
22.9799
21.8798
21.1244
20.9883
21.45
22.2307
605.32
454.981
24.0941
25.1195
25.73
26.0625
26.1686
26.1364
26.0703
26.0315
26.0162
26.0157
26.0277
26.0519
26.0894
26.15
26.2479
26.397
26.6065
26.8746
27.1746
27.4335
27.5584
27.5079
27.2756
26.8572
26.2584
25.5009
24.6967
24.1399
23.8292
23.5729
23.4536
23.5565
23.8588
608.662
467.443
27.6964
28.5953
29.1589
29.5774
29.8282
29.9016
29.811
29.5615
29.2545
29.0053
28.8267
28.7092
28.6458
28.6093
28.5758
28.5286
28.4576
28.3508
28.1737
27.876
27.4564
27.0154
26.6951
26.5393
26.4856
26.4713
26.4646
26.4702
26.5526
26.8071
27.0555
27.2127
27.2416
615.736
471.345
28.5751
29.3322
29.7051
29.9432
30.1037
30.2097
30.2583
30.2514
30.1967
30.0859
29.9205
29.7249
29.5423
29.4133
29.3474
29.3362
29.3568
29.3746
29.3435
29.2196
28.9858
28.6477
28.2151
27.7047
27.1381
26.5355
25.9379
25.4091
25.0085
24.8021
24.7937
24.815
24.6245
605.265
447.34
28.4957
31.7263
33.5113
34.728
35.6419
36.3669
36.9786
37.5064
37.9722
38.3825
38.7275
38.9869
39.1448
39.1998
39.1589
39.0249
38.7973
38.4809
38.0867
37.6253
37.0971
36.4794
35.7179
34.7352
33.4811
31.9653
30.2082
28.3016
26.6266
25.5779
25.0658
24.7675
24.2771
602.639
431.537
19.7836
22.3303
24.2967
25.9149
27.345
28.625
29.7582
30.731
31.525
32.1342
32.5967
32.9845
33.3733
33.8211
34.3488
34.9387
35.5482
36.137
36.6751
37.1436
37.5354
37.8425
38.0514
38.1412
38.0684
37.7347
37.0188
35.8723
34.3007
32.4088
30.4723
28.6718
26.8026
605.721
430.415
19.9266
20.7135
20.7674
20.832
21.8372
23.1375
24.4693
25.6182
26.6938
27.7025
28.6135
29.4074
30.094
30.7008
31.2416
31.7075
32.0819
32.385
32.6589
32.9331
33.2262
33.5581
33.9312
34.3302
34.6965
34.8816
34.7087
34.0707
32.8899
31.3887
30.2564
30.0263
30.7011
637.308
436.943
13.5176
10.2002
10.5501
16.2588
20.5952
23.5607
25.6401
27.232
28.6367
30.005
31.3446
32.6008
33.7228
34.7135
35.6485
36.4814
37.164
37.6435
37.8543
37.767
37.4133
36.8561
36.1359
35.2556
34.2293
33.1272
32.0403
31.0166
30.114
29.4709
29.1589
29.0525
28.5511
612.357
429.76
16.4055
17.5666
18.9789
19.3547
18.9413
18.0568
16.8869
15.6294
14.5842
14.0939
14.4367
15.6031
17.192
18.8568
20.824
23.0408
25.4731
28.051
30.6307
33.0378
35.1025
36.6833
37.6856
38.0769
37.8988
37.2783
36.4062
35.4801
34.6552
34.0168
33.5413
32.9858
31.0288
594.835
428.154
17.3759
18.9934
19.5157
19.6307
19.6056
19.533
19.4428
19.3314
19.1786
18.9735
18.7326
18.5013
18.34
18.2905
18.3478
18.5536
18.9694
19.6848
20.7751
22.2645
24.1219
26.2404
28.4351
30.4947
32.2454
33.596
34.5412
35.1197
35.392
35.4351
35.2831
34.7914
32.934
600.482
436.68
18.9055
19.3891
19.3773
19.223
18.9916
18.705
18.3644
17.9655
17.5154
17.0445
16.6018
16.2259
15.9371
15.7368
15.6126
15.5554
15.556
15.6292
15.8272
16.2335
16.9423
18.0179
19.4473
21.1317
22.9187
24.6414
26.1571
27.411
28.3818
28.9988
29.2005
28.8715
27.2484
596.882
429.882
17.3215
18.9403
19.9525
20.6948
21.2558
21.6526
21.8795
21.9139
21.7215
21.2834
20.6201
19.7867
18.8473
17.8611
16.8787
15.9277
15.0066
14.0849
13.1687
12.3072
11.5999
11.2178
11.3938
12.3116
13.9388
16.0121
18.1441
19.8493
21.0168
21.8315
22.4151
22.673
22.4013
600.398
428.544
17.26
19.0844
19.8893
20.3384
20.658
20.9346
21.2156
21.5131
21.7864
21.9528
21.9369
21.6975
21.2239
20.5327
19.71
18.8961
18.1752
17.4885
16.743
15.8581
14.7263
13.2292
11.3036
8.89711
6.18535
6.17983
10.5499
14.9848
17.9282
19.7036
20.6945
21.0311
20.9874
598.243
443.036
19.7999
20.2396
20.4542
20.646
20.8224
20.9746
21.1146
21.2698
21.4409
21.5677
21.5758
21.4283
21.0866
20.4708
19.5484
18.5347
17.7369
17.2081
16.7855
16.3467
15.8348
15.1959
14.3609
13.2688
11.9453
10.7028
10.5545
12.2237
14.5143
16.426
17.7889
18.3759
17.9899
585.918
449.501
20.4579
20.6533
20.8501
21.0917
21.2957
21.4132
21.4555
21.4782
21.5508
21.6851
21.7957
21.7989
21.6672
21.3516
20.6921
19.5565
18.2788
17.2986
16.6774
16.2641
15.9234
15.5765
15.1838
14.7309
14.2164
13.6537
13.1071
12.7537
12.7904
13.0941
13.1206
13.2803
13.891
582.136
456.462
20.8349
20.4266
20.4386
20.7113
20.9652
21.1208
21.1714
21.1358
21.0446
20.9255
20.7871
20.6045
20.3211
19.8664
19.2132
18.4771
17.8538
17.3833
16.9921
16.6241
16.2551
15.8775
15.4869
15.0811
14.6617
14.2338
13.8018
13.3566
12.8272
12.0966
11.7856
12.9897
14.1734
585.014
440.228
17.1751
17.6869
18.5064
19.007
19.3527
19.6283
19.7845
19.774
19.5864
19.2559
18.8727
18.5509
18.3418
18.1873
18.0142
17.7873
17.4995
17.1688
16.8155
16.4481
16.0652
15.6619
15.2343
14.7862
14.3291
13.8733
13.3978
12.7927
11.832
10.7162
11.0906
12.5974
13.5733
581.525
435.8
18.2296
18.4028
18.1961
17.9392
17.783
17.8652
18.1501
18.4981
18.7691
18.8872
18.8755
18.7895
18.6627
18.5144
18.3548
18.1832
17.9931
17.7796
17.5433
17.2861
16.9989
16.6735
16.3134
15.9223
15.5055
15.0699
14.6177
14.0503
13.1153
11.7381
11.0032
11.7381
12.4696
579.388
433.823
18.6763
19.0822
18.9369
18.5436
17.9092
17.1127
16.3516
15.8631
16.0331
16.6378
17.1566
17.4423
17.5284
17.4867
17.3975
17.3136
17.2571
17.229
17.2134
17.1812
17.1054
16.9725
16.7805
16.5336
16.2366
15.8899
15.4763
14.9307
14.1114
12.9385
11.9388
11.9646
12.3344
579.001
434.896
19.0314
20.1993
20.651
20.8396
20.8226
20.5254
19.7815
18.2399
16.439
15.8499
16.3519
17.0058
17.4107
17.5554
17.5174
17.3731
17.1822
16.9902
16.8242
16.6966
16.6037
16.5249
16.4332
16.3055
16.1234
15.8736
15.5477
15.1321
14.5774
13.795
12.8414
12.1994
11.9312
577.588
446.139
19.758
19.8842
19.8547
19.7511
19.5643
19.2777
18.8127
17.7379
16.0201
15.2759
15.8766
16.652
17.0806
17.2883
17.3815
17.3893
17.3288
17.2228
17.0936
16.9588
16.8209
16.6646
16.4593
16.1893
15.8732
15.5573
15.2704
14.9851
14.642
14.1576
13.4619
12.7497
12.4429
579.464
451.453
20.5514
20.4251
20.1893
19.7919
19.1247
18.12
16.9281
15.9765
15.851
16.254
16.5612
16.7421
16.8323
16.8462
16.7905
16.6704
16.4912
16.2632
16.0004
15.7165
15.4214
15.1769
15.2022
15.4079
15.5383
15.5438
15.4455
15.2543
14.9611
14.5432
14.0159
13.5688
13.4801
582.07
447.352
20.0515
20.2669
20.2504
20.0159
19.4616
18.5535
17.4905
16.5913
16.1314
16.2273
16.4715
16.624
16.6643
16.6094
16.471
16.2558
15.9657
15.5894
15.0919
14.4344
13.7627
13.7209
14.4877
15.1852
15.557
15.7033
15.693
15.5514
15.2831
14.8933
14.4313
14.0283
13.7611
581.325
443.857
19.6538
20.1821
20.45
20.6147
20.6451
20.4103
19.6703
18.3075
16.6611
15.5863
15.5308
15.889
16.1777
16.3188
16.3324
16.236
16.037
15.7309
15.293
14.6895
13.9851
13.5785
13.8806
14.4742
14.9322
15.2123
15.3482
15.3541
15.2262
14.9553
14.554
14.0806
13.5224
579.591
447.469
20.1819
20.4078
20.4677
20.4481
20.3472
20.1519
19.8321
19.26
18.191
16.61
15.4369
15.3252
15.6518
15.9253
16.0638
16.0884
16.0136
15.8411
15.564
15.1698
14.6651
14.1614
13.9299
14.089
14.4153
14.6839
14.8323
14.8742
14.8131
14.6257
14.2842
13.8021
13.1954
579.323
447.366
20.0598
20.4144
20.5851
20.642
20.5513
20.2608
19.7502
19.0773
18.2828
17.2425
15.9537
15.2471
15.3639
15.6642
15.8595
15.9371
15.919
15.8118
15.6114
15.3085
14.8941
14.3847
13.8899
13.6422
13.7989
14.1956
14.5306
14.6717
14.6242
14.4138
14.0497
13.5672
13.0441
579.544
444.562
19.8492
20.4276
20.7512
20.98
21.1065
21.0756
20.7877
20.1545
19.2197
18.1144
16.8817
15.7292
15.3188
15.4954
15.7336
15.8661
15.8931
15.8261
15.6635
15.395
15.0044
14.4723
13.8056
13.1232
12.7425
12.9671
13.6187
14.2143
14.5011
14.4653
14.1779
13.7373
13.2391
579.41
444.496
19.8391
20.3712
20.6635
20.8943
21.083
21.1991
21.17
20.8938
20.2741
19.3057
18.0965
16.7869
15.7632
15.4963
15.6824
15.8879
15.9926
15.9967
15.9033
15.7048
15.3851
14.9201
14.2808
13.461
12.5721
11.9625
12.0346
12.707
13.4611
13.9135
13.9901
13.7815
13.3805
579.13
445.158
20.05
20.5825
20.8718
21.1022
21.3079
21.4776
21.558
21.4765
21.1594
20.5319
19.5527
18.2686
16.8564
15.8244
15.5731
15.7663
15.9856
16.1096
16.133
16.0569
15.8717
15.561
15.1016
14.466
13.6429
12.7056
11.9107
11.6311
11.9705
12.5626
12.9816
13.0973
12.9669
578.846
446.575
20.1188
20.5583
20.8115
21.0281
21.2403
21.4343
21.5521
21.5399
21.3693
21.012
20.417
19.5281
18.3316
16.982
15.9953
15.7478
15.9216
16.1347
16.27
16.3162
16.2687
16.1166
15.844
15.4318
14.8587
14.1133
13.2331
12.3767
11.8272
11.7547
11.9597
12.1336
12.2077
578.346
447.984
20.3
20.6839
20.9256
21.1621
21.4376
21.7261
21.926
21.9639
21.8289
21.5304
21.0631
20.3989
19.4975
18.3403
17.0668
16.1363
15.8765
16.0125
16.2143
16.3654
16.4424
16.4359
16.3331
16.1194
15.7791
15.2969
14.6635
13.9026
13.1193
12.5106
12.2018
12.0874
12.0129
577.85
450.612
20.4041
20.5773
20.7267
20.9267
21.2319
21.5949
21.8584
21.9427
21.8606
21.6402
21.2891
20.793
20.1252
19.2575
18.1925
17.0753
16.3026
16.0766
16.1654
16.3276
16.4675
16.5557
16.5759
16.5122
16.3497
16.0748
15.6758
15.1511
14.5259
13.8869
13.3658
13.0029
12.6362
577.837
451.113
20.2908
20.4171
20.5592
20.7869
21.1851
21.6778
22.0304
22.1571
22.0992
21.902
21.5844
21.1469
20.5804
19.8721
19.0109
18.0169
17.0541
16.4342
16.2363
16.2815
16.4056
16.5323
16.628
16.6698
16.6376
16.5142
16.2858
15.9451
15.4943
14.9642
14.432
13.9632
13.403
578.179
450.939
20.1079
20.1441
20.2075
20.3526
20.7158
21.2857
21.7688
22.0147
22.0568
21.95
21.7214
21.3781
20.9177
20.3342
19.6203
18.7733
17.8452
17.0222
16.5173
16.3357
16.3429
16.4301
16.5391
16.6349
16.6874
16.6691
16.5574
16.337
15.9976
15.5443
15.0262
14.5178
13.8824
578.558
449.944
19.9956
20.0177
20.029
20.085
20.356
20.9468
21.5533
21.931
22.0791
22.0565
21.9012
21.6304
21.2507
20.7632
20.163
19.4384
18.5954
17.7159
16.9842
16.5389
16.3549
16.3338
16.3992
16.5052
16.6122
16.6769
16.6572
16.522
16.2489
15.831
15.3113
14.7813
14.1216
578.821
450.577
20.0304
19.9013
19.7768
19.6728
19.8012
20.3802
21.1203
21.6616
21.9434
22.0291
21.9722
21.7992
21.5205
21.1384
20.6472
20.0332
19.2837
18.4214
17.5583
16.8647
16.4339
16.2307
16.1825
16.2374
16.3588
16.4984
16.5861
16.5547
16.3618
15.9967
15.5036
14.9729
14.2873
578.958
452.058
20.0905
19.8036
19.5698
19.38
19.5246
20.1592
20.941
21.5342
21.8759
22.0231
22.0294
21.9249
21.7238
21.4303
21.0404
20.5411
19.9112
19.1394
18.2674
17.4214
16.7501
16.3106
16.0717
15.9879
16.034
16.1838
16.3635
16.4543
16.3671
16.0806
15.6375
15.1193
14.4122
579.138
453.977
20.0814
19.5818
19.1887
18.8738
19.0991
19.9246
20.803
21.4355
21.8149
22.0077
22.0655
22.017
21.8768
21.6495
21.3333
20.9173
20.3806
19.699
18.8717
17.9633
17.1112
16.4381
15.9756
15.698
15.5881
15.6535
15.8729
16.114
16.1925
16.0304
15.6621
15.1587
14.4057
579.042
453.915
19.8734
19.3194
18.8483
18.4236
18.5748
19.4574
20.4379
21.1683
21.6412
21.9202
22.0549
22.0759
21.9999
21.8358
21.586
21.2457
20.8001
20.2272
19.5084
18.656
17.7456
16.897
16.1964
15.6633
15.2916
15.1022
15.1403
15.3744
15.5949
15.5888
15.321
14.8489
14.0699
578.599
451.717
19.7269
19.3486
18.9323
18.3768
17.9612
18.2831
19.2298
20.2178
20.9725
21.479
21.7896
21.9492
21.9859
21.9169
21.7513
21.4905
21.1268
20.6441
20.0221
19.2525
18.368
17.4538
16.6061
15.88
15.2789
14.8089
14.5237
14.4957
14.6469
14.7199
14.5566
14.1661
13.467
578.008
448.833
19.8434
19.817
19.6202
19.187
18.4104
17.5914
17.5434
18.3687
19.4824
20.4316
21.0995
21.5244
21.7614
21.8515
21.8178
21.6722
21.4173
21.0458
20.5412
19.8863
19.0816
18.1669
17.2279
16.3464
15.5572
14.8617
14.2765
13.8734
13.7139
13.6847
13.5836
13.3295
12.8322
577.495
446.864
20.0704
20.3799
20.4504
20.3373
19.9194
18.9517
17.5831
16.7907
17.2119
18.4024
19.6135
20.5178
21.113
21.474
21.6575
21.6977
21.6126
21.4058
21.0709
20.5943
19.9637
19.181
18.284
17.3383
16.4062
15.5225
14.7041
13.9901
13.4672
13.1815
13.0347
12.8888
12.5953
577.473
446.438
20.2241
20.7152
20.9715
21.1288
21.1519
20.9003
20.0307
18.3625
16.7418
16.3976
17.4106
18.7967
19.9023
20.6436
21.1102
21.3788
21.4918
21.4693
21.3167
21.0295
20.599
20.0198
19.2997
18.4668
17.5637
16.6313
15.6992
14.8013
14.0153
13.4592
13.1653
13.008
12.776
577.85
447.092
20.3649
20.859
21.1219
21.315
21.4633
21.545
21.4635
20.897
19.3707
17.2648
16.1382
16.8309
18.27
19.4722
20.2814
20.7959
21.104
21.2515
21.26
21.1349
20.8752
20.479
19.9488
19.2965
18.5429
17.7151
16.8368
15.9332
15.0601
14.3344
13.8632
13.5926
13.2887
578.573
448.99
20.7784
21.2372
21.4657
21.599
21.6591
21.6547
21.6075
21.5168
21.1545
19.9401
17.7149
16.1568
16.7199
18.1415
19.3133
20.0928
20.5875
20.8847
21.0276
21.0335
20.9088
20.6551
20.2752
19.7762
19.1708
18.4745
17.7022
16.8697
16.0148
15.2305
14.6374
14.2415
13.8158
579.227
451.65
21.1373
21.513
21.7307
21.8676
21.9129
21.8333
21.6113
21.325
21.0801
20.7211
19.6551
17.5099
16.3258
17.1831
18.4916
19.4682
20.1035
20.5049
20.7399
20.8384
20.8108
20.6612
20.3931
20.0118
19.525
18.9415
18.2696
17.5181
16.712
15.923
15.2612
14.7638
14.2157
579.644
454.939
21.3934
21.5869
21.7484
21.8771
21.936
21.8674
21.6132
21.1737
20.6752
20.23
19.667
18.4459
16.8697
16.992
18.1491
19.1519
19.8176
20.2451
20.5119
20.6515
20.6746
20.584
20.3813
20.0693
19.6516
19.1323
18.515
17.8063
17.0306
16.2532
15.5708
15.0169
14.3729
579.592
456.245
21.3026
21.3823
21.4947
21.5844
21.5952
21.4621
21.1517
20.6818
20.1085
19.5167
18.906
18.1221
17.1841
17.2564
18.2486
19.1352
19.7315
20.1232
20.3762
20.5179
20.5557
20.4902
20.3202
20.0447
19.6626
19.1726
18.5736
17.8714
17.0955
16.3164
15.6225
15.0274
14.3001
579.078
455.531
21.1128
21.2119
21.3253
21.3942
21.3368
21.0647
20.5678
19.9356
19.2685
18.6264
18.0377
17.5304
17.285
17.7006
18.5608
19.2698
19.7583
20.0907
20.3092
20.4301
20.4577
20.391
20.2268
19.9609
19.5882
19.1031
18.5017
17.792
17.0113
16.2356
15.5429
14.9237
14.1314
578.354
453.387
20.8072
20.9765
21.1165
21.2123
21.1752
20.8801
20.2778
19.4566
18.5806
17.81
17.2651
17.0489
17.2731
17.9253
18.7061
19.3218
19.7577
20.0603
20.2596
20.3678
20.3885
20.3203
20.159
19.8987
19.5321
19.0513
18.4519
17.7441
16.9685
16.1995
15.5036
14.8554
13.9917
577.614
451.932
20.6477
20.8131
20.947
21.0771
21.145
21.0051
20.5276
19.7084
18.6694
17.6456
16.9142
16.6717
16.9647
17.651
18.4379
19.0852
19.5574
19.889
20.1102
20.2368
20.2752
20.2255
20.0846
19.8469
19.5053
19.0522
18.4843
17.8126
17.0747
16.3349
15.647
14.9787
14.0496
577.191
451.29
20.5093
20.6458
20.7547
20.8864
21.0382
21.1039
20.9146
20.3752
19.4761
18.3121
17.1498
16.3756
16.2794
16.8351
17.7132
18.529
19.1434
19.576
19.8695
20.0525
20.1383
20.1312
20.0306
19.8329
19.5323
19.1229
18.6028
17.9823
17.2937
16.5886
15.9086
15.2178
14.2183
577.016
451.734
20.5377
20.633
20.704
20.7864
20.904
21.0278
21.0309
20.7991
20.2734
19.4108
18.2422
17.0012
16.1133
15.9511
16.5387
17.4732
18.3268
18.9619
19.4034
19.6983
19.8749
19.9464
19.9174
19.7877
19.5543
19.2136
18.7649
18.217
17.5949
16.9381
16.2776
15.5794
14.5379
577.259
452.256
20.5928
20.6793
20.7403
20.7921
20.8472
20.9154
20.9352
20.8147
20.5059
19.9662
19.1351
18.0185
16.8255
15.9518
15.7788
16.3709
17.3194
18.1857
18.824
19.2627
19.5498
19.7133
19.7655
19.7107
19.549
19.2793
18.9024
18.4262
17.8702
17.2634
16.6277
15.9298
14.8595
577.648
452.332
20.6915
20.8094
20.8773
20.9137
20.9241
20.9452
20.9611
20.8856
20.6728
20.3039
19.7401
18.9243
17.8655
16.7478
15.9097
15.7133
16.2532
17.1705
18.0238
18.6561
19.0914
19.3736
19.5278
19.5643
19.4863
19.2946
18.991
18.5825
18.0852
17.5219
16.9096
16.2157
15.1303
578.077
452.527
20.8803
21.0264
21.0932
21.1022
21.0487
21.0024
21.0113
20.9833
20.8425
20.5697
20.1501
19.5487
18.7305
17.7295
16.7111
15.9569
15.7753
16.2785
17.1559
17.9686
18.5629
18.9654
19.2183
19.3435
19.3492
19.2379
19.0115
18.6754
18.2412
17.7261
17.1438
16.4636
15.3815
578.578
453.467
21.1479
21.2909
21.3567
21.3554
21.2612
21.1451
21.1205
21.127
21.0604
20.8814
20.5788
20.132
19.5067
18.6823
17.7094
16.7453
16.0295
15.8334
16.3017
17.1517
17.9348
18.4968
18.8648
19.0791
19.1608
19.119
18.9589
18.6865
18.3118
17.8487
17.3077
16.6583
15.6021
579.087
455.12
21.3698
21.4536
21.5078
21.5124
21.4296
21.3131
21.2661
21.2681
21.234
21.1173
20.9029
20.577
20.1156
19.4877
18.6868
17.7723
16.8773
16.1858
15.9622
16.3919
17.1999
17.9394
18.4657
18.8009
18.9755
19.0063
18.903
18.6757
18.3374
17.9038
17.3863
16.752
15.6999
579.321
456.541
21.4728
21.477
21.5064
21.5113
21.4698
21.4403
21.4588
21.489
21.4798
21.4035
21.2484
21.0039
20.6528
20.1694
19.534
18.7566
17.896
17.0459
16.3578
16.1061
16.4997
17.2538
17.9233
18.3888
18.6767
18.8081
18.7922
18.6378
18.3578
17.9689
17.4843
16.8722
15.8354
579.643
457.093
21.439
21.3897
21.3956
21.391
21.3802
21.4388
21.5454
21.6353
21.6742
21.6506
21.5584
21.3903
21.1343
20.7707
20.2801
19.6538
18.9083
18.0832
17.2395
16.5181
16.2267
16.6022
17.3353
17.9465
18.3333
18.5419
18.5993
18.5162
18.3029
17.9728
17.5367
16.9621
15.9558
579.973
456.336
21.2527
21.2149
21.2281
21.2303
21.2453
21.3687
21.5501
21.7039
21.8011
21.8385
21.814
21.7227
21.5555
21.297
20.931
20.4455
19.8396
19.1234
18.3118
17.4413
16.6506
16.2815
16.6258
17.3654
17.965
18.3016
18.4334
18.4018
18.2295
17.9352
17.5314
16.9813
15.9849
580.039
454.732
21.0011
21.0218
21.0585
21.0599
21.0432
21.1498
21.3613
21.571
21.734
21.8445
21.9017
21.9022
21.8378
21.6957
21.4616
21.1236
20.6753
20.1156
19.443
18.654
17.7643
16.9009
16.4121
16.6342
17.2988
17.8657
18.1663
18.2399
18.1333
17.8806
17.5044
16.9696
15.9684
579.964
452.99
20.7983
20.9091
20.9851
20.9957
20.9198
20.9267
21.0973
21.3202
21.5212
21.6834
21.8057
21.8863
21.9175
21.8873
21.7812
21.5859
21.2925
20.8961
20.3929
19.7741
19.0241
18.1481
17.2519
16.6625
16.7132
17.2041
17.6614
17.896
17.9143
17.7536
17.4433
16.9571
15.9966
580.155
451.738
20.6948
20.88
20.994
21.0281
20.9085
20.7603
20.8076
20.9922
21.1998
21.387
21.549
21.6859
21.7931
21.8603
21.8714
21.8085
21.6575
21.4112
21.0666
20.6177
20.0506
19.344
18.493
17.5967
16.9552
16.8569
17.1373
17.4202
17.5396
17.4808
17.261
16.856
15.9878
580.481
451.567
20.7127
20.918
21.0618
21.1486
21.066
20.8259
20.7054
20.7808
20.9384
21.1048
21.263
21.4125
21.5549
21.6855
21.7881
21.8373
21.8087
21.6899
21.4783
21.1711
20.7604
20.2255
19.5394
18.7004
17.819
17.1794
16.9921
17.0867
17.1863
17.172
17.0213
16.6985
15.9378
580.711
452.585
20.7668
20.8946
21.0305
21.1709
21.1668
20.9532
20.7421
20.7077
20.7906
20.9091
21.0319
21.158
21.2949
21.4477
21.6067
21.7397
21.8087
21.7922
21.6857
21.4892
21.197
20.7936
20.2534
19.5499
18.699
17.8464
17.2566
17.0269
16.9752
16.9194
16.7829
16.5039
15.8088
580.567
454.311
20.7879
20.7585
20.8659
21.0839
21.1866
21.0757
20.8898
20.7959
20.8
20.8482
20.9097
20.9814
21.0739
21.2019
21.3694
21.5485
21.6889
21.7539
21.7322
21.6227
21.4224
21.1196
20.693
20.1143
19.3683
18.5123
17.7325
17.2225
16.9603
16.7934
16.6133
16.3276
15.6419
580.154
454.886
20.512
20.3378
20.462
20.8264
21.0587
21.0753
20.9954
20.925
20.8927
20.8849
20.8871
20.8976
20.9274
20.9974
21.1271
21.3074
21.4882
21.614
21.6597
21.6195
21.4915
21.267
20.9283
20.4501
19.8096
19.0253
18.2124
17.5516
17.1143
16.8187
16.5585
16.218
15.4775
579.576
452.904
19.8348
19.6498
19.895
20.4627
20.8555
21.0133
21.0441
21.0218
20.9835
20.9419
20.898
20.8548
20.8207
20.8165
20.8735
21.0105
21.199
21.3718
21.4782
21.5013
21.4376
21.2804
21.0149
20.6194
20.0719
19.3773
18.6109
17.9153
17.386
16.9932
16.6507
16.231
15.385
579.003
448.781
18.9888
18.9318
19.1777
19.732
20.283
20.6669
20.8816
20.9746
20.9921
20.9639
20.9067
20.8316
20.7488
20.6745
20.639
20.6815
20.8206
21.0125
21.1785
21.2697
21.2737
21.1846
20.9905
20.6726
20.2117
19.6082
18.9149
18.2408
17.6757
17.2173
16.8004
16.2928
15.3151
578.478
445.187
18.7406
18.8255
18.838
18.9166
19.232
19.7623
20.2789
20.6269
20.815
20.8882
20.8825
20.8228
20.7267
20.6101
20.4942
20.4128
20.4206
20.5511
20.7514
20.9173
20.9969
20.9807
20.8623
20.6283
20.2642
19.7688
19.1765
18.563
18
17.5004
17.0211
16.4336
15.3382
578.224
444.17
19.2402
19.5
19.5024
19.2834
18.8678
18.7345
19.2258
19.8825
20.364
20.643
20.775
20.804
20.759
20.6599
20.5214
20.361
20.217
20.1636
20.2665
20.4731
20.6476
20.717
20.6715
20.5087
20.2232
19.8201
19.3278
18.7977
18.2768
17.7767
17.2687
16.6353
15.4699
578.272
447.341
19.9202
20.2402
20.4124
20.454
20.0527
19.1275
18.8054
19.3201
19.9629
20.4076
20.6641
20.7915
20.8265
20.7867
20.6823
20.5206
20.3119
20.0932
19.9539
19.9939
20.1904
20.3856
20.4645
20.403
20.2031
19.8745
19.4469
18.9689
18.4816
17.9955
17.4866
16.8445
15.6577
578.489
453.038
20.219
20.1373
20.2378
20.5315
20.6231
20.0536
19.4665
19.673
20.1898
20.5802
20.8124
20.9474
21.0121
21.0063
20.9318
20.797
20.6037
20.3471
20.0536
19.8144
19.7521
19.8875
20.0801
20.177
20.1222
19.9155
19.5779
19.1498
18.6758
18.1801
17.6525
16.9872
15.7636
578.54
455.055
19.8593
19.4258
19.3689
19.7804
20.228
20.3135
20.3101
20.5451
20.8414
21.0632
21.2156
21.3155
21.3667
21.3654
21.3072
21.192
21.0185
20.7777
20.4631
20.0958
19.7542
19.5563
19.5597
19.6791
19.7636
19.7221
19.5372
19.2277
18.8266
18.3637
17.8443
17.1785
15.9524
578.712
450.117
18.8732
18.6615
18.7567
19.2669
19.9476
20.4452
20.7785
21.035
21.2524
21.4325
21.5748
21.6795
21.7445
21.7661
21.7402
21.6633
21.5313
21.337
21.0712
20.7278
20.3185
19.8944
19.5461
19.3512
19.2968
19.2827
19.2113
19.0405
18.7683
18.4072
17.9633
17.37
16.253
579.379
444.804
18.5191
18.6476
18.7237
18.8514
19.2617
19.8356
20.3495
20.7569
21.0812
21.3452
21.5611
21.7359
21.8711
21.9653
22.0157
22.0191
21.9721
21.8699
21.7065
21.4741
21.1654
20.7815
20.3446
19.9084
19.5428
19.2843
19.1021
18.9292
18.7141
18.4322
18.0722
17.5863
16.6662
580.983
443.93
18.8263
18.9618
18.9665
18.8516
18.6367
18.7526
19.2778
19.8837
20.3942
20.8023
21.1352
21.4111
21.6383
21.8213
21.9625
22.0618
22.1174
22.1257
22.0825
21.981
21.8135
21.5718
21.2496
20.8499
20.3972
19.9431
19.5403
19.2007
18.8934
18.5795
18.231
17.801
17.0281
582.758
447.498
19.1046
19.0365
19.0835
19.2647
19.1994
18.8454
18.865
19.329
19.8794
20.3454
20.7079
21.0018
21.2583
21.4827
21.6728
21.8282
21.9513
22.0434
22.0976
22.1046
22.055
21.938
21.7409
21.4503
21.0599
20.5881
20.0897
19.6252
19.2137
18.8352
18.4579
18.021
17.2523
583.379
452.098
19.1148
18.5397
18.4645
19.0104
19.4376
19.4132
19.3751
19.6444
20.0063
20.3108
20.5577
20.78
20.9934
21.19
21.3667
21.5213
21.6575
21.7819
21.8904
21.9696
22.0018
21.9677
21.848
21.6242
21.2849
20.843
20.3491
19.8672
19.4273
19.0171
18.6021
18.088
17.1185
582.155
451.384
18.3713
17.5688
17.5258
18.4241
19.1678
19.5317
19.7539
19.9696
20.1699
20.3474
20.5079
20.6568
20.796
20.9263
21.0509
21.1753
21.3076
21.4549
21.6118
21.7536
21.8463
21.8599
21.7738
21.5755
21.2643
20.8618
20.413
19.964
19.5322
19.1029
18.6368
17.9979
16.717
580.229
445.765
17.4358
16.9198
16.7765
17.3488
18.2237
18.9352
19.4117
19.7275
19.9525
20.1257
20.2658
20.3827
20.4812
20.567
20.6511
20.7486
20.8797
21.0628
21.2871
21.4996
21.642
21.6828
21.6119
21.4295
21.1469
20.7893
20.3903
19.9766
19.5534
19.1042
18.5844
17.8264
16.2869
578.712
442.974
17.9022
17.5954
17.003
16.2769
16.2677
17.0595
18.027
18.7571
19.2381
19.5597
19.784
19.9431
20.0541
20.1298
20.1879
20.251
20.3542
20.5453
20.8379
21.1547
21.3803
21.4685
21.4276
21.2746
21.0294
20.7164
20.3599
19.9744
19.5596
19.0994
18.5484
17.7305
16.0851
578.053
445.526
18.9583
18.7655
18.3888
17.5922
16.2734
15.5041
16.0907
17.2404
18.1665
18.7806
19.1861
19.4577
19.6339
19.738
19.7922
19.8209
19.8603
19.9716
20.2257
20.6137
20.985
21.1929
21.2258
21.124
20.9212
20.6457
20.3203
19.9569
19.554
19.0971
18.5433
17.7246
16.093
578.024
451.871
19.4496
18.9565
18.6283
18.4201
17.8397
16.5746
15.9487
16.6386
17.6437
18.39
18.8579
19.1655
19.3799
19.516
19.5835
19.6002
19.5905
19.5955
19.691
19.9607
20.3792
20.7582
20.9479
20.954
20.8268
20.6031
20.3096
19.9635
19.5695
19.1189
18.5759
17.7891
16.2393
578.406
454.647
19.1381
18.1841
17.4846
17.3318
17.5662
17.3876
17.0736
17.4533
18.1348
18.6491
18.9866
19.223
19.396
19.5116
19.5681
19.5718
19.5332
19.4712
19.4296
19.4898
19.734
20.1259
20.4791
20.6507
20.6473
20.5148
20.285
19.9789
19.6087
19.1745
18.6512
17.9062
16.4496
578.913
448.974
18.2833
17.737
17.1401
16.7306
16.8734
17.2686
17.6519
18.0938
18.5466
18.9062
19.1749
19.3758
19.5217
19.6161
19.6583
19.65
19.5966
19.5052
19.3933
19.3035
19.3145
19.5051
19.8456
20.1651
20.3254
20.3211
20.1897
19.9566
19.6381
19.2414
18.7522
18.0579
16.6954
579.452
443.236
18.509
18.6555
18.4496
17.7948
16.9929
16.6706
16.9258
17.4972
18.1105
18.6144
18.9961
19.2816
19.4907
19.6332
19.7128
19.7322
19.6976
19.6143
19.489
19.3376
19.1985
19.1455
19.2606
19.5345
19.8176
19.9684
19.9673
19.8404
19.6069
19.2775
18.8454
18.2135
16.9327
579.919
443.031
19.0459
19.3981
19.5788
19.6226
19.1246
17.9903
16.8408
16.3219
16.6416
17.398
18.1274
18.6869
19.0978
19.3934
19.5926
19.7064
19.7463
19.7204
19.6348
19.4968
19.3205
19.1388
19.0198
19.0507
19.2462
19.4791
19.6078
19.599
19.4666
19.2219
18.8611
18.299
17.0983
580.37
446.578
18.9221
18.8984
19.089
19.7607
20.5008
20.6068
19.8148
18.2734
16.7169
16.194
16.7782
17.6331
18.3355
18.857
19.2371
19.5011
19.6661
19.7436
19.742
19.6686
19.5308
19.3409
19.1267
18.9503
18.9019
19.0125
19.1748
19.2589
19.2252
19.0734
18.7968
18.3169
17.2114
580.881
452.286
19.0016
18.1596
17.7913
18.4373
19.8286
20.8515
21.2164
20.9137
19.5953
17.5773
16.5863
16.9605
17.7197
18.3668
18.8543
19.2193
19.4872
19.6677
19.7644
19.7801
19.7185
19.5847
19.3882
19.1527
18.9356
18.8247
18.8509
18.9207
18.9307
18.8427
18.637
18.2338
17.2246
581.291
454.567
18.5941
17.4611
17.0358
17.6468
18.9183
20.0016
20.599
20.7684
20.4181
19.1374
17.6647
17.4091
17.9055
18.4319
18.8374
19.1637
19.4339
19.6388
19.7769
19.8484
19.8502
19.7806
19.6404
19.4351
19.1849
18.945
18.7942
18.7474
18.7243
18.6509
18.4855
18.1422
17.2244
581.602
450.135
17.7127
16.9517
16.5737
16.6997
17.426
18.3691
19.085
19.414
19.2948
18.7495
18.2102
18.2489
18.559
18.8693
19.1394
19.3745
19.5764
19.7422
19.8663
19.943
19.9669
19.9333
19.8386
19.6799
19.4591
19.1954
18.9424
18.7626
18.6479
18.5336
18.3608
18.0311
17.1386
581.372
445.838
18.392
18.0945
17.2245
15.7644
14.9868
15.5913
16.665
17.5287
18.0644
18.3809
18.5988
18.8102
19.0293
19.2387
19.4301
19.6007
19.7479
19.8699
19.9634
20.0239
20.0466
20.0265
19.9586
19.8375
19.6577
19.4187
19.1417
18.8812
18.6756
18.4975
18.2886
17.9351
16.9964
580.628
445.276
19.9559
20.2473
19.8831
18.5503
16.3397
14.7374
14.6208
15.4824
16.5517
17.4375
18.0827
18.5503
18.9021
19.1765
19.3962
19.5734
19.7184
19.8359
19.9261
19.9876
20.0182
20.0146
19.9721
19.8847
19.7436
19.5394
19.2737
18.98
18.7108
18.4721
18.2156
17.81
16.7552
579.477
444.64
20.2105
21.2475
21.8633
22.0438
21.3949
19.5884
17.2155
15.1563
14.2342
14.6374
15.7388
16.8533
17.7183
18.3383
18.7835
19.1092
19.3516
19.5344
19.6696
19.7645
19.8229
19.8465
19.837
19.7917
19.7025
19.5558
19.3395
19.0644
18.7749
18.4955
18.1925
17.7202
16.5146
578.488
444.192
19.4461
20.3999
21.3111
22.2643
23.0262
23.2956
22.7035
20.8922
18.1689
15.3298
13.6167
13.8517
15.1675
16.4575
17.4205
18.1052
18.5946
18.9463
19.197
19.3703
19.4825
19.5456
19.569
19.5592
19.5173
19.4347
19.2917
19.077
18.8119
18.5211
18.1807
17.6359
16.2747
577.839
445.836
19.1725
19.6265
20.2394
21.159
22.2078
23.0676
23.5337
23.5469
22.9212
21.1393
18.1798
15.0492
13.556
14.2419
15.5792
16.7104
17.5454
18.1478
18.5772
18.8755
19.0723
19.1891
19.2439
19.253
19.2322
19.1901
19.114
18.9757
18.7682
18.5012
18.1515
17.5628
16.1078
577.641
447.822
19.2481
19.5417
20.2443
21.2744
22.2236
22.9588
23.4332
23.639
23.6156
23.3416
22.5186
20.3724
17.0536
14.4308
14.2184
15.284
16.3962
17.2695
17.9111
18.3655
18.6717
18.8596
18.9523
18.9709
18.9389
18.8827
18.8137
18.7105
18.548
18.3145
17.9784
17.3821
15.9107
577.569
448.146
18.2295
18.0919
19.0385
20.8048
22.2706
23.1838
23.6906
23.912
23.9248
23.7817
23.4847
22.8805
21.35
18.3474
15.5253
14.8053
15.5099
16.4554
17.261
17.8718
18.3032
18.5821
18.7329
18.7763
18.7352
18.6411
18.5271
18.4004
18.2424
18.0287
17.7175
17.1548
15.7599
577.655
447.43
16.9045
15.9237
16.098
17.9201
20.1551
21.83
22.8643
23.4409
23.6963
23.717
23.5545
23.2054
22.5314
21.0415
18.4674
16.3217
15.7723
16.22
16.904
17.5337
18.0302
18.3799
18.5894
18.6704
18.6376
18.5168
18.3483
18.1658
17.9735
17.7497
17.4478
16.9173
15.6087
577.608
447.485
17.5384
16.5742
15.3235
14.5495
15.9294
18.2506
20.1773
21.4523
22.2001
22.57
22.6549
22.4838
21.9854
20.9115
19.0406
17.2113
16.5062
16.6616
17.1086
17.5919
18.0205
18.3527
18.5707
18.6687
18.6489
18.5258
18.333
18.1111
17.8801
17.6294
17.3166
16.7957
15.5362
577.455
447.884
19.3109
19.1997
18.3171
16.1594
14.1273
14.5559
16.4011
18.2154
19.4758
20.1595
20.3498
20.0795
19.4399
18.6663
17.9559
17.4726
17.3401
17.4801
17.7524
18.0607
18.3485
18.5788
18.7288
18.7853
18.7432
18.6093
18.4079
18.169
17.912
17.6322
17.2915
16.7421
15.4423
576.885
446.757
19.8887
20.4727
20.5994
19.9618
18.0056
15.6382
14.4466
14.885
16.2053
17.4173
18.1681
18.5217
18.58
18.4524
18.2735
18.1575
18.1552