/*--------------------------------*- C++ -*----------------------------------*\
| =========                 |                                                 |
| \\      /  F ield         | OpenFOAM: The Open Source CFD Toolbox           |
|  \\    /   O peration     | Version:  v2006                                 |
|   \\  /    A nd           | Website:  www.openfoam.com                      |
|    \\/     M anipulation  |                                                 |
\*---------------------------------------------------------------------------*/
FoamFile
{
    version     2.0;
    format      ascii;
    class       volVectorField;
    location    "49";
    object      U;
}
// * * * * * * * * * * * * * * * * * * * * * * * * * * * * * * * * * * * * * //

dimensions      [0 1 -1 0 0 0 0];


internalField   nonuniform List<vector> 
78750
(
(-0.861579 -0.290892 -0.148903)
(0.886592 -0.226029 -0.151056)
(0.948985 -0.238198 -0.211424)
(0.679893 -0.222517 -0.250031)
(0.547949 -0.194892 -0.273727)
(0.533073 -0.167152 -0.300561)
(0.559243 -0.143026 -0.315429)
(0.577751 -0.123755 -0.338503)
(0.581599 -0.10554 -0.348703)
(0.576514 -0.0908111 -0.367054)
(0.566658 -0.0762984 -0.371135)
(0.55836 -0.0650676 -0.383748)
(0.549148 -0.0539221 -0.383595)
(0.542403 -0.0451927 -0.392223)
(0.532687 -0.0368508 -0.390375)
(0.52313 -0.0299545 -0.397572)
(0.508597 -0.0230343 -0.394708)
(0.496109 -0.0170402 -0.399777)
(0.482849 -0.0103364 -0.393581)
(0.474394 -0.00518447 -0.392213)
(0.465255 2.69711e-05 -0.383067)
(0.458497 0.00244918 -0.377268)
(0.449999 0.00713774 -0.368544)
(0.438369 0.00846364 -0.361505)
(0.419505 0.0143682 -0.355201)
(0.396951 0.0172286 -0.352249)
(0.366329 0.0268185 -0.356232)
(0.330992 0.0338769 -0.374251)
(0.281524 0.0443942 -0.402876)
(0.224148 0.0616668 -0.498725)
(0.157578 0.0535117 -0.619157)
(0.103967 0.0621104 -0.673654)
(0.0640975 0.0414173 -0.516348)
(0.0435354 -0.0222647 -0.336926)
(0.0218464 -0.00186452 -0.270091)
(-0.118627 0.986182 -0.319704)
(0.0846073 0.116779 -0.574837)
(-0.0667243 -0.00686913 -0.60139)
(-0.0231783 0.0978687 -0.578735)
(-0.042005 0.168784 -0.561641)
(-0.050131 0.194799 -0.548527)
(-0.0565074 0.188517 -0.53699)
(-0.061075 0.167156 -0.524965)
(-0.0629517 0.15323 -0.51384)
(-0.0639861 0.149245 -0.50558)
(-0.0641604 0.149983 -0.500277)
(-0.0634572 0.151837 -0.498225)
(-0.0611895 0.153111 -0.498783)
(-0.0573874 0.15336 -0.501826)
(-0.051929 0.152704 -0.50605)
(-0.0452538 0.15145 -0.510841)
(-0.0373756 0.149592 -0.514814)
(-0.0282006 0.147348 -0.517496)
(-0.0174615 0.145512 -0.517076)
(-0.00551734 0.145837 -0.512545)
(0.00669056 0.150344 -0.502467)
(0.01771 0.160654 -0.488259)
(0.0264452 0.177428 -0.47173)
(0.0319628 0.200203 -0.455298)
(0.0344671 0.227752 -0.439817)
(0.0342257 0.257748 -0.426586)
(0.0317759 0.288631 -0.416586)
(0.0287819 0.317674 -0.411971)
(0.0239508 0.342296 -0.415368)
(0.0222014 0.358468 -0.432326)
(0.0192391 0.360088 -0.45768)
(0.0217027 0.36048 -0.462868)
(0.022889 0.354586 -0.399927)
(0.0231349 0.352239 -0.326462)
(0.0103283 0.360448 -0.255643)
(0.00664373 0.475283 -0.367259)
(0.0511906 0.138789 -0.442649)
(0.0299869 0.0900601 -0.447217)
(0.022523 0.0855863 -0.444945)
(0.0186676 0.0900975 -0.440254)
(0.0168637 0.0958668 -0.432373)
(0.0153495 0.101166 -0.422041)
(0.0128525 0.106495 -0.409918)
(0.00913268 0.112422 -0.397948)
(0.00482162 0.118698 -0.388531)
(0.000567593 0.124862 -0.382884)
(-0.00334339 0.130788 -0.381074)
(-0.00679224 0.136597 -0.382616)
(-0.00977819 0.142482 -0.386803)
(-0.0123444 0.1486 -0.392902)
(-0.0145302 0.155037 -0.400284)
(-0.0162862 0.161946 -0.408221)
(-0.0174851 0.169765 -0.415598)
(-0.0179669 0.179177 -0.420896)
(-0.0176469 0.190738 -0.42298)
(-0.0165261 0.204607 -0.421778)
(-0.0145722 0.220726 -0.4181)
(-0.0116789 0.239051 -0.412893)
(-0.00778581 0.259604 -0.406968)
(-0.00293702 0.282501 -0.400865)
(0.00279997 0.307911 -0.394836)
(0.00903256 0.335718 -0.388861)
(0.0148442 0.364578 -0.383284)
(0.018753 0.391592 -0.378976)
(0.0202011 0.413362 -0.375615)
(0.0186871 0.428014 -0.368596)
(0.0152656 0.435362 -0.347932)
(0.0114137 0.434248 -0.310146)
(0.0096933 0.432996 -0.274853)
(0.00550513 0.422337 -0.224436)
(0.0235687 0.160396 -0.315698)
(0.0313418 0.149527 -0.341987)
(0.0275864 0.157862 -0.349164)
(0.0188656 0.174714 -0.352098)
(0.00710373 0.198779 -0.350024)
(-0.00648187 0.22249 -0.341192)
(-0.0206291 0.239806 -0.325901)
(-0.0334524 0.250381 -0.307993)
(-0.0437363 0.257591 -0.292196)
(-0.0515885 0.263462 -0.280364)
(-0.0575935 0.268302 -0.272146)
(-0.0622772 0.27203 -0.266711)
(-0.0660864 0.274642 -0.263497)
(-0.0692987 0.276085 -0.262564)
(-0.0721016 0.276192 -0.264375)
(-0.07458 0.274677 -0.269722)
(-0.0766929 0.271282 -0.279663)
(-0.0782674 0.265982 -0.295321)
(-0.0789576 0.25931 -0.317068)
(-0.0782268 0.253149 -0.341922)
(-0.0758281 0.250451 -0.362529)
(-0.0724207 0.25262 -0.373362)
(-0.0688298 0.258698 -0.37582)
(-0.0652251 0.267788 -0.373611)
(-0.0613135 0.279712 -0.369567)
(-0.0565147 0.294367 -0.365556)
(-0.0500369 0.311746 -0.36249)
(-0.041292 0.332512 -0.360458)
(-0.0312919 0.35711 -0.358121)
(-0.0225959 0.38193 -0.354092)
(-0.0165095 0.403115 -0.347239)
(-0.0123902 0.421112 -0.334807)
(-0.00901806 0.436683 -0.316152)
(-0.00553283 0.449219 -0.29344)
(-0.00424779 0.441485 -0.245011)
(-0.00483297 0.2492 -0.267639)
(-0.0105554 0.281879 -0.295391)
(-0.0174907 0.295773 -0.303852)
(-0.0248662 0.306604 -0.30826)
(-0.0324475 0.31708 -0.31029)
(-0.0403235 0.325126 -0.308598)
(-0.0487694 0.328242 -0.300909)
(-0.0581324 0.326101 -0.286087)
(-0.068403 0.319763 -0.264006)
(-0.0772164 0.312874 -0.240164)
(-0.083537 0.308268 -0.220439)
(-0.0880727 0.305964 -0.204881)
(-0.0908374 0.30597 -0.192869)
(-0.0920918 0.308301 -0.184572)
(-0.0924956 0.312146 -0.179812)
(-0.0925938 0.316554 -0.178652)
(-0.0927791 0.320679 -0.181386)
(-0.0933763 0.323728 -0.188245)
(-0.0946485 0.325677 -0.200256)
(-0.0967447 0.327605 -0.220152)
(-0.0994111 0.33169 -0.249736)
(-0.101887 0.340142 -0.286109)
(-0.103336 0.353127 -0.321079)
(-0.103244 0.368545 -0.345448)
(-0.101636 0.384419 -0.355995)
(-0.0986503 0.4007 -0.355829)
(-0.0938994 0.418359 -0.348709)
(-0.0864423 0.438096 -0.337355)
(-0.0756825 0.460293 -0.324117)
(-0.0622034 0.484965 -0.310264)
(-0.0482022 0.509887 -0.29509)
(-0.0353902 0.529708 -0.278676)
(-0.0242555 0.541064 -0.26111)
(-0.0145587 0.540643 -0.239607)
(-0.00814338 0.496099 -0.192283)
(0.0143518 0.205178 -0.354846)
(0.0158932 0.239406 -0.388503)
(0.016745 0.252916 -0.393595)
(0.0155654 0.259514 -0.393111)
(0.0130537 0.262933 -0.389379)
(0.0103012 0.264827 -0.383495)
(0.00749992 0.266331 -0.376187)
(0.00406817 0.26771 -0.368099)
(-0.000949661 0.268577 -0.358595)
(-0.00812053 0.268416 -0.345754)
(-0.0171485 0.267041 -0.327509)
(-0.0270108 0.265407 -0.30367)
(-0.036667 0.26469 -0.276287)
(-0.0451005 0.26573 -0.249221)
(-0.0517759 0.268877 -0.225686)
(-0.0565946 0.273937 -0.206884)
(-0.0596849 0.280733 -0.192913)
(-0.0613467 0.288906 -0.183439)
(-0.0619591 0.297906 -0.178223)
(-0.061868 0.307066 -0.177364)
(-0.0612067 0.315452 -0.180892)
(-0.059977 0.322337 -0.188282)
(-0.0581776 0.327519 -0.198915)
(-0.0559043 0.330844 -0.212169)
(-0.0534382 0.33187 -0.226657)
(-0.0510886 0.330744 -0.239881)
(-0.0489099 0.329326 -0.24933)
(-0.0466351 0.330615 -0.253563)
(-0.0437604 0.337841 -0.25256)
(-0.0396041 0.35419 -0.247343)
(-0.0335348 0.380407 -0.239163)
(-0.0255832 0.410175 -0.22826)
(-0.0171267 0.433172 -0.214582)
(-0.00966431 0.44271 -0.196773)
(-0.00440504 0.415759 -0.156103)
(0.00880038 0.22186 -0.118975)
(0.0185993 0.327866 -0.266751)
(0.0308056 0.371646 -0.346408)
(0.0412673 0.394098 -0.402061)
(0.0500821 0.407711 -0.445619)
(0.0568631 0.415691 -0.480371)
(0.0617103 0.418481 -0.507382)
(0.0650846 0.417769 -0.528879)
(0.0673267 0.415545 -0.546939)
(0.068494 0.41318 -0.562261)
(0.0685641 0.411307 -0.574266)
(0.0674894 0.409535 -0.581743)
(0.0651895 0.406717 -0.583649)
(0.0616524 0.401654 -0.579578)
(0.0570198 0.393831 -0.569674)
(0.051555 0.383746 -0.554242)
(0.0455644 0.372657 -0.533618)
(0.0393413 0.362138 -0.508375)
(0.033137 0.353649 -0.479476)
(0.0271149 0.348179 -0.448129)
(0.0213687 0.346189 -0.415495)
(0.015972 0.347939 -0.382336)
(0.0109186 0.35401 -0.348755)
(0.00604113 0.365542 -0.314715)
(0.00099084 0.383274 -0.282004)
(-0.00456584 0.405373 -0.255983)
(-0.0106899 0.427762 -0.242461)
(-0.0174084 0.448219 -0.24296)
(-0.0245186 0.466798 -0.253598)
(-0.0302339 0.483684 -0.262672)
(-0.0324504 0.499185 -0.259384)
(-0.0308722 0.51147 -0.245819)
(-0.0263874 0.515731 -0.227442)
(-0.0191566 0.502879 -0.200526)
(-0.00978207 0.416475 -0.133947)
(0.00372323 0.00935823 0.219738)
(0.025235 0.0793068 0.221535)
(0.0468898 0.126438 0.2026)
(0.0753137 0.178239 0.175801)
(0.103692 0.223509 0.146856)
(0.131947 0.266343 0.116491)
(0.158977 0.306994 0.0863186)
(0.183723 0.34431 0.0584082)
(0.20536 0.377005 0.0343061)
(0.223407 0.403768 0.0147014)
(0.237837 0.423777 -0.000811028)
(0.249037 0.43771 -0.0139307)
(0.257465 0.447335 -0.0271351)
(0.263135 0.454664 -0.0428739)
(0.265923 0.461429 -0.0627584)
(0.265917 0.468357 -0.0868575)
(0.263315 0.475311 -0.113348)
(0.258453 0.481601 -0.139274)
(0.251432 0.486561 -0.162129)
(0.242318 0.489711 -0.180264)
(0.231241 0.490895 -0.19275)
(0.218302 0.490243 -0.199306)
(0.203853 0.488265 -0.199599)
(0.188483 0.486049 -0.193256)
(0.172594 0.485541 -0.180037)
(0.155951 0.489926 -0.160197)
(0.1381 0.502743 -0.137141)
(0.119233 0.523045 -0.120163)
(0.0999321 0.544141 -0.119156)
(0.0807301 0.558471 -0.137397)
(0.0632346 0.559584 -0.169422)
(0.0495763 0.545523 -0.200767)
(0.0396641 0.519938 -0.218968)
(0.0311108 0.4826 -0.219564)
(0.0173084 0.394093 -0.170732)
(-0.00234732 -0.185508 0.125146)
(-0.0298566 -0.287309 0.154007)
(-0.0496776 -0.214095 0.288054)
(-0.0272523 -0.176384 0.350267)
(0.0048011 -0.1751 0.345047)
(0.0352034 -0.142366 0.330698)
(0.0643129 -0.0957499 0.311318)
(0.0933723 -0.0417218 0.288973)
(0.122212 0.0159432 0.265293)
(0.150517 0.0762533 0.241615)
(0.17723 0.137312 0.218372)
(0.20142 0.196802 0.195585)
(0.222402 0.253038 0.172819)
(0.239751 0.304926 0.149264)
(0.25318 0.351828 0.124187)
(0.262652 0.393056 0.0976038)
(0.26819 0.427748 0.070813)
(0.270146 0.45566 0.0460815)
(0.269408 0.477945 0.0244583)
(0.266367 0.496106 0.00574386)
(0.260995 0.511289 -0.0102337)
(0.25325 0.52444 -0.0233568)
(0.242814 0.536286 -0.0331551)
(0.229646 0.547533 -0.0384293)
(0.213872 0.559502 -0.0371853)
(0.19521 0.575096 -0.0268397)
(0.17324 0.597501 -0.00825443)
(0.149299 0.624623 0.00825997)
(0.124965 0.649814 0.00918862)
(0.0995534 0.667427 -0.0165621)
(0.0740901 0.675334 -0.069142)
(0.0511574 0.683244 -0.123375)
(0.0306151 0.704106 -0.159834)
(0.0158991 0.733388 -0.175114)
(-0.000168484 0.729924 -0.155819)
(-0.0101341 0.0311755 0.464324)
(-0.0452832 0.233701 0.838722)
(-0.0991276 -0.108229 0.627178)
(-0.11046 -0.44552 0.38075)
(-0.1382 -0.361205 0.403562)
(-0.155966 -0.279573 0.362883)
(-0.164108 -0.217159 0.317181)
(-0.16474 -0.163892 0.27707)
(-0.15793 -0.11618 0.242701)
(-0.145608 -0.0668405 0.209868)
(-0.12908 -0.0142229 0.174295)
(-0.109333 0.042329 0.136687)
(-0.0867972 0.101358 0.0976812)
(-0.0622189 0.16111 0.0587529)
(-0.0358153 0.220711 0.0204827)
(-0.00864508 0.280749 -0.0182864)
(0.0176989 0.339699 -0.0559518)
(0.0413984 0.395563 -0.0900117)
(0.0608917 0.446747 -0.117903)
(0.0752158 0.492447 -0.137473)
(0.083864 0.532561 -0.148134)
(0.0870306 0.567583 -0.151209)
(0.0855939 0.598639 -0.148684)
(0.0802257 0.627389 -0.141598)
(0.0709085 0.655738 -0.129931)
(0.0576392 0.68545 -0.114644)
(0.0414562 0.716942 -0.100283)
(0.0242993 0.748355 -0.0939114)
(0.00741741 0.776995 -0.100462)
(-0.00897088 0.799927 -0.12017)
(-0.0238786 0.814461 -0.144603)
(-0.0359095 0.820087 -0.160376)
(-0.0468139 0.811285 -0.158957)
(-0.0483466 0.74819 -0.11838)
(-0.0196686 0.526696 -0.0144018)
(-0.00692994 -0.0965055 0.223732)
(0.0120273 -0.0986781 0.333916)
(0.027248 -0.126572 0.321483)
(0.0236938 -0.130827 0.291864)
(0.00591678 -0.149983 0.268922)
(-0.0030379 -0.174235 0.263583)
(-0.00742091 -0.19228 0.27226)
(-0.0115624 -0.201297 0.290974)
(-0.0163595 -0.199436 0.316062)
(-0.0221269 -0.187826 0.342622)
(-0.0284199 -0.16863 0.366346)
(-0.0345588 -0.143882 0.382778)
(-0.0393821 -0.114463 0.3888)
(-0.0420491 -0.0816556 0.384424)
(-0.0422622 -0.0459988 0.371166)
(-0.0404099 -0.00326789 0.34559)
(-0.0366983 0.048204 0.308006)
(-0.0310677 0.109764 0.257509)
(-0.0235388 0.181364 0.195966)
(-0.014684 0.261203 0.127641)
(-0.00548122 0.346151 0.0579444)
(0.00284918 0.43216 -0.00765369)
(0.00908109 0.515088 -0.0643897)
(0.0123358 0.591695 -0.109065)
(0.0122379 0.659794 -0.140629)
(0.00908108 0.71754 -0.16008)
(0.00378983 0.763283 -0.170213)
(-0.0024119 0.796398 -0.174741)
(-0.00832298 0.817724 -0.176543)
(-0.0130097 0.828076 -0.176092)
(-0.0157922 0.826746 -0.170724)
(-0.0163671 0.809881 -0.154813)
(-0.0142453 0.757954 -0.114021)
(-0.0157498 0.596384 -0.013171)
(0.00255884 0.212912 0.138167)
(-0.00152232 -0.168344 0.148157)
(0.00795924 -0.325337 0.141735)
(0.0186477 -0.404653 0.117759)
(0.0300969 -0.446176 0.105367)
(0.0424304 -0.461338 0.101131)
(0.0529232 -0.457992 0.101516)
(0.0612637 -0.44085 0.104996)
(0.0674706 -0.412125 0.110865)
(0.0713278 -0.373329 0.118775)
(0.0727016 -0.326057 0.128649)
(0.0714787 -0.272715 0.140244)
(0.0677539 -0.216366 0.15319)
(0.0618986 -0.16008 0.167093)
(0.0545056 -0.106211 0.181539)
(0.0462574 -0.055968 0.196185)
(0.0379107 -0.0092082 0.211296)
(0.03016 0.0349067 0.227959)
(0.0241755 0.0779749 0.243737)
(0.0204035 0.122201 0.255233)
(0.0189415 0.169993 0.259109)
(0.0197997 0.223524 0.252688)
(0.0227885 0.284145 0.23462)
(0.0274105 0.351596 0.205634)
(0.0329875 0.423814 0.168549)
(0.0387993 0.49736 0.127253)
(0.0442283 0.568011 0.085443)
(0.0489011 0.631315 0.0461289)
(0.0526705 0.682795 0.0122735)
(0.0553496 0.717903 -0.0126183)
(0.056826 0.734318 -0.02581)
(0.0571454 0.733038 -0.0256912)
(0.0561413 0.714007 -0.00979258)
(0.0529372 0.666132 0.0305217)
(0.042177 0.541608 0.116722)
(0.028589 0.250576 0.191575)
(0.000689641 -0.268343 0.0829264)
(0.000217754 -0.374764 0.0605849)
(-0.00355751 -0.392925 0.0496922)
(-0.0088002 -0.389552 0.0467212)
(-0.0151311 -0.377112 0.048927)
(-0.0211892 -0.358438 0.0555678)
(-0.0261227 -0.334009 0.0657194)
(-0.0295191 -0.303393 0.078242)
(-0.0311594 -0.266394 0.0918289)
(-0.0310901 -0.224167 0.105022)
(-0.0296881 -0.179344 0.116448)
(-0.0275063 -0.135045 0.125174)
(-0.025087 -0.0936467 0.131059)
(-0.0229345 -0.0562521 0.134648)
(-0.0214893 -0.0227657 0.136858)
(-0.0212037 0.00789382 0.138723)
(-0.0218517 0.0374088 0.141445)
(-0.0222822 0.0673635 0.145621)
(-0.0215972 0.0991917 0.151182)
(-0.0194943 0.133898 0.157301)
(-0.0156591 0.17227 0.162622)
(-0.00985266 0.215128 0.165868)
(-0.00181131 0.263129 0.166317)
(0.00833051 0.316289 0.164097)
(0.0199183 0.373599 0.16015)
(0.0319643 0.432778 0.155813)
(0.0431313 0.490058 0.152208)
(0.0522638 0.541278 0.149471)
(0.0592079 0.584298 0.147339)
(0.0638113 0.616491 0.147285)
(0.0654029 0.632894 0.150244)
(0.0635992 0.629605 0.155367)
(0.0584445 0.602029 0.163934)
(0.0463567 0.532567 0.184255)
(0.0236106 0.342275 0.188469)
(-0.00966033 -0.205284 0.0448084)
(-0.0105072 -0.334489 0.0238773)
(-0.00816087 -0.384192 0.0147534)
(-0.00400993 -0.409204 0.0099198)
(0.000992089 -0.42325 0.00659695)
(0.00612987 -0.42974 0.00411355)
(0.0109042 -0.429393 0.0028409)
(0.0150268 -0.421948 0.00391565)
(0.0185004 -0.406361 0.0090587)
(0.021587 -0.381134 0.0200382)
(0.0246229 -0.345447 0.037464)
(0.0278343 -0.300255 0.0598365)
(0.0311986 -0.247996 0.0840783)
(0.0344122 -0.191747 0.106807)
(0.0369281 -0.135081 0.125143)
(0.0381219 -0.0823952 0.137165)
(0.0377226 -0.0379865 0.142601)
(0.0356844 -0.0038008 0.143039)
(0.0317302 0.0219742 0.140771)
(0.0265422 0.0428065 0.137042)
(0.0213913 0.0619393 0.13216)
(0.0174129 0.0821537 0.125772)
(0.015555 0.10651 0.117147)
(0.0167338 0.138622 0.105673)
(0.0217522 0.181717 0.0917544)
(0.0306458 0.236877 0.0774868)
(0.0420895 0.301673 0.0668548)
(0.0530985 0.367332 0.0654399)
(0.0595771 0.419775 0.0750371)
(0.0611743 0.456999 0.0892273)
(0.0591241 0.485591 0.104173)
(0.0532366 0.510808 0.122936)
(0.0422998 0.530878 0.149195)
(0.0290462 0.528854 0.175438)
(0.0139674 0.447719 0.183151)
(0.00583921 -0.223247 0.00932034)
(0.0259323 -0.403189 -0.00193707)
(0.0397786 -0.462679 -0.00866758)
(0.0486544 -0.477257 -0.0140661)
(0.054869 -0.474274 -0.0202693)
(0.0590623 -0.460323 -0.0279675)
(0.0609476 -0.437446 -0.0372174)
(0.0606715 -0.407846 -0.0476389)
(0.0586661 -0.374674 -0.0580697)
(0.0555428 -0.341498 -0.066149)
(0.0521158 -0.310591 -0.0688902)
(0.049255 -0.28159 -0.0639985)
(0.0476658 -0.252049 -0.0503371)
(0.0477346 -0.218691 -0.0279687)
(0.0493131 -0.178221 0.00128468)
(0.0513574 -0.12852 0.0330205)
(0.0521156 -0.0724093 0.0603995)
(0.0497932 -0.0179753 0.0785396)
(0.0444661 0.0268863 0.0880159)
(0.0375499 0.0591237 0.0921865)
(0.029728 0.0805326 0.094069)
(0.0213552 0.0941807 0.0953149)
(0.0127835 0.102342 0.0963719)
(0.00471796 0.106806 0.0965031)
(-0.00177671 0.110747 0.0932848)
(-0.00598847 0.123128 0.0809865)
(-0.00653608 0.167408 0.0514935)
(-0.00186217 0.25663 0.0128574)
(0.00413666 0.35714 -0.0100888)
(0.0069329 0.432174 -0.00506704)
(0.00662057 0.480834 0.0228759)
(0.00379609 0.515613 0.0703805)
(-0.000241587 0.537366 0.125079)
(-0.00316614 0.53157 0.162814)
(-0.000933971 0.438935 0.163235)
(0.006627 -0.356467 0.010916)
(0.0175976 -0.471363 0.0121477)
(0.0217182 -0.480867 0.0068324)
(0.0242365 -0.471146 -0.000864682)
(0.0258375 -0.450884 -0.0113157)
(0.0257544 -0.422552 -0.0228918)
(0.0246158 -0.388642 -0.0342967)
(0.0232244 -0.350961 -0.0454517)
(0.0220002 -0.310869 -0.0568829)
(0.0208854 -0.270896 -0.0681698)
(0.0195789 -0.235132 -0.0770748)
(0.0179496 -0.206014 -0.0812804)
(0.0161231 -0.182133 -0.0798391)
(0.0142679 -0.159572 -0.0716876)
(0.0126407 -0.132929 -0.0541698)
(0.0117144 -0.0960842 -0.026237)
(0.0113539 -0.0481377 0.00406775)
(0.010514 0.00166581 0.0248294)
(0.00838965 0.0433886 0.0340234)
(0.00521644 0.0738306 0.0369209)
(0.00131872 0.0946586 0.0376568)
(-0.0032888 0.108908 0.0377929)
(-0.00887471 0.11905 0.0376023)
(-0.0158195 0.126611 0.0368545)
(-0.0243627 0.132891 0.0348864)
(-0.0342136 0.140615 0.0302919)
(-0.0439736 0.157252 0.0204128)
(-0.0501313 0.196036 0.00300415)
(-0.0493997 0.260077 -0.0159169)
(-0.0433138 0.328525 -0.0218437)
(-0.0341289 0.382516 -0.00806537)
(-0.023138 0.416776 0.0217684)
(-0.0129333 0.421973 0.059357)
(-0.00541385 0.397906 0.0918742)
(-4.29132e-05 0.308726 0.0999393)
(0.00656957 -0.403645 0.0247707)
(0.0147014 -0.49221 0.0180795)
(0.0174981 -0.500379 0.00257813)
(0.018613 -0.48598 -0.018028)
(0.0185084 -0.460056 -0.0389029)
(0.0169284 -0.430168 -0.0542932)
(0.0147581 -0.399815 -0.063691)
(0.0125705 -0.368815 -0.069447)
(0.0107111 -0.335255 -0.0746018)
(0.00946668 -0.297645 -0.0815963)
(0.00895211 -0.257921 -0.0903403)
(0.00890646 -0.221304 -0.0977244)
(0.00887408 -0.191066 -0.101015)
(0.00854943 -0.165964 -0.0994293)
(0.00777093 -0.141682 -0.091665)
(0.00642464 -0.111405 -0.0729536)
(0.00503975 -0.0675821 -0.0396227)
(0.00440471 -0.0143464 -0.00503675)
(0.0045724 0.0331727 0.0162634)
(0.00522963 0.066857 0.0251962)
(0.00620775 0.0890023 0.0281187)
(0.00714081 0.104486 0.0287503)
(0.00778913 0.116446 0.0284258)
(0.00790191 0.126333 0.027543)
(0.00726751 0.134756 0.0261921)
(0.00583922 0.142265 0.0242551)
(0.00391415 0.149961 0.0213243)
(0.00241803 0.16007 0.0166119)
(0.00308027 0.175284 0.00951328)
(0.00694354 0.193405 0.00178228)
(0.0121272 0.203876 -0.00172309)
(0.0182239 0.204718 0.00455856)
(0.0177989 0.248567 0.024534)
(0.0127322 0.305696 0.0485454)
(0.00629063 0.289356 0.0598819)
(-0.0019367 -0.472695 0.0586063)
(-0.00730006 -0.499437 0.0422905)
(-0.0148413 -0.472926 0.011316)
(-0.0234331 -0.420212 -0.0320122)
(-0.0287115 -0.368846 -0.0626582)
(-0.0318983 -0.326684 -0.0794692)
(-0.0338588 -0.290262 -0.0884666)
(-0.0351197 -0.256935 -0.0932588)
(-0.0358331 -0.225897 -0.0957572)
(-0.0360446 -0.197064 -0.0971321)
(-0.0360106 -0.170146 -0.0979969)
(-0.0361763 -0.144598 -0.0982622)
(-0.0368871 -0.119803 -0.0969417)
(-0.0382341 -0.0945979 -0.0923055)
(-0.0401527 -0.0671208 -0.0823041)
(-0.0422753 -0.0366836 -0.0661162)
(-0.0434729 -0.00669669 -0.0475519)
(-0.0425038 0.0177912 -0.0327919)
(-0.039277 0.0363379 -0.0229092)
(-0.0345553 0.0511052 -0.0162054)
(-0.0288439 0.0634052 -0.0113729)
(-0.0226662 0.0737814 -0.00775239)
(-0.0164107 0.0825766 -0.00495087)
(-0.0102111 0.0902135 -0.00268697)
(-0.00410676 0.0971772 -0.000769362)
(0.00186149 0.104014 0.000901297)
(0.00762922 0.111362 0.00232247)
(0.0131675 0.120009 0.0033886)
(0.0185008 0.131282 0.00400788)
(0.0237189 0.149282 0.00448629)
(0.0273552 0.190496 0.00510382)
(0.0214404 0.25735 0.00079113)
(0.00795792 0.329167 0.00166508)
(0.000800239 0.359752 0.00915889)
(-0.00146774 0.337059 0.0138535)
(-0.0166578 -0.335533 0.0710402)
(-0.0321787 -0.379683 0.048321)
(-0.0464342 -0.354433 0.0110208)
(-0.0541295 -0.329097 -0.0121651)
(-0.0549203 -0.31397 -0.0195864)
(-0.0539865 -0.296435 -0.026501)
(-0.0523828 -0.273935 -0.0341476)
(-0.051107 -0.24832 -0.040243)
(-0.0506267 -0.22032 -0.0433175)
(-0.0508051 -0.188676 -0.043411)
(-0.0512292 -0.152329 -0.0415734)
(-0.0515089 -0.112903 -0.0393667)
(-0.0514767 -0.0758501 -0.0379661)
(-0.0509913 -0.0470354 -0.0374096)
(-0.0498618 -0.0266652 -0.0368532)
(-0.0479407 -0.0109382 -0.0356406)
(-0.0450309 0.00308058 -0.0335907)
(-0.0413206 0.0165381 -0.0308816)
(-0.0372263 0.0291017 -0.0279206)
(-0.0329296 0.0400233 -0.0249916)
(-0.0285099 0.0490354 -0.0221748)
(-0.0240205 0.0563555 -0.0194205)
(-0.0194937 0.0623708 -0.0166085)
(-0.0149842 0.067489 -0.0135946)
(-0.010564 0.0721149 -0.0102669)
(-0.00632284 0.0766914 -0.00658523)
(-0.00239396 0.0817382 -0.00253875)
(0.00115214 0.0882109 0.00215659)
(0.00447218 0.0995352 0.00880239)
(0.00717208 0.129983 0.020316)
(0.00811166 0.211777 0.0307589)
(0.00505827 0.319184 0.0122036)
(-0.000487082 0.368781 -0.0090169)
(-0.00366561 0.371614 -0.0141651)
(-0.00249394 0.287641 -0.00568276)
(-0.0109624 -0.263504 0.083382)
(-0.0188625 -0.35226 0.098442)
(-0.0208889 -0.376157 0.103152)
(-0.0201759 -0.382557 0.103931)
(-0.017608 -0.372837 0.0986526)
(-0.0128315 -0.341357 0.0850093)
(-0.0079673 -0.293728 0.0642512)
(-0.00469869 -0.243051 0.0407985)
(-0.00430698 -0.197618 0.0186563)
(-0.00723209 -0.161004 0.000848431)
(-0.0118673 -0.132149 -0.0112104)
(-0.0158418 -0.108305 -0.0186393)
(-0.0180522 -0.087102 -0.0233822)
(-0.0186315 -0.0667173 -0.0268034)
(-0.0181114 -0.0465755 -0.0296185)
(-0.0170264 -0.0272825 -0.0321165)
(-0.0157023 -0.00972789 -0.0343456)
(-0.0142017 0.00553528 -0.03627)
(-0.0125617 0.0183691 -0.0378695)
(-0.0109152 0.0288409 -0.0391502)
(-0.00937125 0.0372883 -0.0401624)
(-0.00789589 0.0444415 -0.0409717)
(-0.00647273 0.0508011 -0.0415705)
(-0.00513699 0.0565157 -0.0418384)
(-0.00389936 0.0617932 -0.0415684)
(-0.0028015 0.0668917 -0.0404878)
(-0.00194008 0.0721254 -0.0383035)
(-0.00143844 0.0779493 -0.0347225)
(-0.00135452 0.0868011 -0.0282242)
(-0.00195679 0.109621 -0.0134897)
(-0.00250415 0.172513 0.0133102)
(-0.00088568 0.277569 0.0283866)
(0.00024446 0.344892 0.0193149)
(-7.21095e-05 0.35342 0.0127796)
(0.000180938 0.266481 0.0128528)
(-0.0088284 -0.234422 0.0712092)
(-0.00732093 -0.390934 0.0759639)
(-0.00590498 -0.438318 0.0758221)
(-0.00306564 -0.451762 0.0777788)
(0.000671695 -0.446787 0.0823373)
(0.00571206 -0.420972 0.089496)
(0.0128925 -0.370026 0.0967682)
(0.0224063 -0.296499 0.100372)
(0.032366 -0.205915 0.0969452)
(0.038809 -0.119728 0.0818132)
(0.0388789 -0.0646944 0.0592215)
(0.0340778 -0.0370778 0.0387086)
(0.0270367 -0.0213221 0.0228245)
(0.0193453 -0.00840955 0.0104297)
(0.0119713 0.00457091 0.000234228)
(0.00549221 0.0178221 -0.00880503)
(8.7162e-05 0.0310076 -0.0176335)
(-0.00432065 0.0440765 -0.0269736)
(-0.0078421 0.0569239 -0.0371201)
(-0.0105851 0.0690173 -0.0476864)
(-0.0126987 0.0795834 -0.057709)
(-0.0143366 0.0882495 -0.0662849)
(-0.0156148 0.0952391 -0.0730582)
(-0.0165524 0.101115 -0.0780538)
(-0.0171246 0.106456 -0.0813398)
(-0.0173176 0.111788 -0.0828759)
(-0.0171949 0.117718 -0.0824679)
(-0.0169283 0.125351 -0.0795828)
(-0.0166797 0.137597 -0.0725042)
(-0.016527 0.161754 -0.0565354)
(-0.015819 0.211564 -0.025585)
(-0.0122062 0.288049 0.0100354)
(-0.0073143 0.33905 0.0229763)
(-0.00349959 0.343256 0.0240021)
(-0.000283674 0.260841 0.0184288)
(0.00379308 -0.266099 0.0141021)
(0.0177365 -0.455676 -0.00348954)
(0.0259477 -0.513435 -0.0135559)
(0.0321574 -0.52991 -0.0182625)
(0.0375353 -0.531238 -0.0197835)
(0.0422681 -0.523512 -0.0176282)
(0.0463738 -0.506985 -0.00992164)
(0.0503132 -0.476116 0.00658167)
(0.0546448 -0.411607 0.038438)
(0.0603697 -0.291875 0.0772179)
(0.0628628 -0.157861 0.0924507)
(0.0586556 -0.0606234 0.0820046)
(0.0507449 -0.00438504 0.0630185)
(0.0422071 0.0278683 0.0457164)
(0.034158 0.0485851 0.0323106)
(0.0269427 0.063607 0.0221972)
(0.0205571 0.0756024 0.0141848)
(0.0148989 0.08592 0.00711543)
(0.00993585 0.0953436 1.25306e-05)
(0.00568089 0.104356 -0.00784356)
(0.00213384 0.113082 -0.016766)
(-0.000713405 0.121143 -0.0264489)
(-0.00287294 0.127843 -0.0360147)
(-0.00438667 0.132672 -0.0446302)
(-0.00533765 0.13571 -0.0518653)
(-0.00590292 0.137658 -0.0575432)
(-0.00628893 0.139699 -0.061534)
(-0.00666211 0.143369 -0.0636556)
(-0.00704488 0.150731 -0.0634231)
(-0.00725287 0.165752 -0.05927)
(-0.00671072 0.196865 -0.0470843)
(-0.00407501 0.25076 -0.0236938)
(-0.000159585 0.299987 -0.00210577)
(0.00226767 0.311559 0.00872674)
(0.00232626 0.248536 0.0117229)
(0.00970096 -0.391847 0.00322726)
(0.0224 -0.530434 0.0071776)
(0.029173 -0.549872 0.00799315)
(0.0332398 -0.544736 0.00697076)
(0.0365179 -0.527345 0.00396534)
(0.0383091 -0.496297 -0.0020048)
(0.0372747 -0.451147 -0.011286)
(0.0321528 -0.396925 -0.0196237)
(0.0218187 -0.330756 -0.012526)
(0.01108 -0.227461 0.021298)
(0.00369571 -0.100298 0.0480993)
(-0.00140219 -0.00312935 0.0474904)
(-0.00312591 0.0487298 0.0360253)
(-0.00256334 0.0730548 0.0271188)
(-0.00130358 0.0874096 0.0208368)
(0.000312042 0.0982703 0.015531)
(0.00220434 0.107524 0.0106928)
(0.00422868 0.115803 0.00629239)
(0.00632692 0.12347 0.00211942)
(0.00847477 0.130629 -0.00208536)
(0.0106163 0.137125 -0.00649489)
(0.0126429 0.142716 -0.0111313)
(0.0142404 0.147018 -0.0156749)
(0.0150651 0.150155 -0.0196814)
(0.0149602 0.153383 -0.0233889)
(0.0139156 0.158295 -0.0276092)
(0.0121484 0.165754 -0.0329457)
(0.0100242 0.175285 -0.0389031)
(0.00778834 0.186444 -0.0441261)
(0.00560843 0.200709 -0.0471635)
(0.00371081 0.222874 -0.0459133)
(0.00273445 0.260137 -0.036721)
(0.00304119 0.303147 -0.0212394)
(0.00352849 0.320234 -0.00940086)
(0.0021409 0.275555 -0.00028733)
(0.00116396 -0.448197 0.023372)
(-0.00215212 -0.568125 0.0379588)
(-0.00464116 -0.581808 0.0431964)
(-0.00738056 -0.57569 0.0466496)
(-0.010319 -0.555681 0.0496476)
(-0.0134791 -0.514071 0.0513164)
(-0.0170114 -0.440168 0.0487617)
(-0.0218658 -0.337346 0.0414674)
(-0.0292192 -0.222664 0.0346734)
(-0.0366029 -0.125128 0.0302682)
(-0.0398175 -0.0626093 0.0260131)
(-0.0383585 -0.0243473 0.0227698)
(-0.0343768 0.0015066 0.0201676)
(-0.0293793 0.020866 0.0179571)
(-0.0239804 0.036635 0.0160739)
(-0.0185376 0.0502639 0.0144913)
(-0.0131999 0.0626387 0.0131687)
(-0.00797365 0.0742923 0.0120269)
(-0.00287937 0.0856131 0.0108988)
(0.00194554 0.0969162 0.00950771)
(0.00614259 0.108626 0.00743462)
(0.00932241 0.121913 0.00392011)
(0.0109679 0.139219 -0.0028238)
(0.0103349 0.160519 -0.014738)
(0.00824221 0.179719 -0.0278802)
(0.00605449 0.194734 -0.0381549)
(0.00406361 0.207351 -0.0455743)
(0.00227175 0.219466 -0.0509094)
(0.000659871 0.232812 -0.0543579)
(-0.000900552 0.249763 -0.0554651)
(-0.00248503 0.273832 -0.0529567)
(-0.00363803 0.306954 -0.0452549)
(-0.00348018 0.338718 -0.0342357)
(-0.00245126 0.350462 -0.0241852)
(-0.00166232 0.300277 -0.0118942)
(-0.00504409 -0.404145 0.0199583)
(-0.0129743 -0.521585 0.0131974)
(-0.0196056 -0.538252 0.0121715)
(-0.0255081 -0.534533 0.0142981)
(-0.0316126 -0.515965 0.0195517)
(-0.0365239 -0.47773 0.0283364)
(-0.0383662 -0.415889 0.0387784)
(-0.0354486 -0.334927 0.0455037)
(-0.0282797 -0.24486 0.0455887)
(-0.0201275 -0.157999 0.0418804)
(-0.0142635 -0.092837 0.0364493)
(-0.0114042 -0.0521693 0.0312857)
(-0.0104292 -0.0256553 0.0275333)
(-0.0102293 -0.00596634 0.0250197)
(-0.0102488 0.0102098 0.0234331)
(-0.0102259 0.024327 0.0225766)
(-0.0100258 0.0371599 0.0223133)
(-0.00963448 0.0493674 0.0225087)
(-0.009097 0.0619087 0.0230098)
(-0.00850493 0.0765809 0.0235625)
(-0.00806864 0.0968198 0.0232936)
(-0.00819007 0.127304 0.018837)
(-0.00903295 0.165759 0.00360276)
(-0.0105339 0.197012 -0.0199409)
(-0.0121146 0.216042 -0.0390006)
(-0.013253 0.229164 -0.0511317)
(-0.0140243 0.240661 -0.0586599)
(-0.0145236 0.252818 -0.0630441)
(-0.0148011 0.267362 -0.0647616)
(-0.0148409 0.285992 -0.0637055)
(-0.014383 0.309731 -0.059464)
(-0.0128254 0.336077 -0.0521194)
(-0.0104037 0.355645 -0.043522)
(-0.00724865 0.357637 -0.0335548)
(-0.00277126 0.284028 -0.0162258)
(-0.000926452 -0.372978 -0.00241672)
(-0.0019031 -0.500818 -0.00772587)
(-0.00335418 -0.522961 -0.0081402)
(-0.0046839 -0.526258 -0.00735239)
(-0.00610089 -0.521684 -0.00524713)
(-0.00719349 -0.510282 -0.000949577)
(-0.00756916 -0.488748 0.0072171)
(-0.00648011 -0.447494 0.0208776)
(-0.00278032 -0.376473 0.0377112)
(0.00388097 -0.275934 0.0515386)
(0.0116686 -0.164647 0.0569737)
(0.0161926 -0.0779021 0.053216)
(0.0160823 -0.0268242 0.0461514)
(0.0135193 0.00174593 0.0401436)
(0.0100257 0.0200965 0.0358571)
(0.0062327 0.034101 0.032971)
(0.002504 0.0461272 0.0312152)
(-0.00100606 0.0573518 0.0304188)
(-0.00428241 0.0688934 0.030444)
(-0.0073574 0.082486 0.0311188)
(-0.0102024 0.101136 0.0319106)
(-0.0125 0.12891 0.030767)
(-0.0136411 0.166058 0.0229361)
(-0.0137191 0.202075 0.00627441)
(-0.013663 0.227687 -0.0124639)
(-0.0138174 0.24566 -0.0282357)
(-0.0140873 0.260546 -0.0405545)
(-0.0143696 0.274787 -0.0496723)
(-0.0145305 0.289738 -0.0555787)
(-0.0143348 0.306444 -0.0581814)
(-0.0133646 0.325163 -0.0574335)
(-0.0111824 0.343537 -0.0536101)