/*--------------------------------*- C++ -*----------------------------------*\
| =========                 |                                                 |
| \\      /  F ield         | OpenFOAM: The Open Source CFD Toolbox           |
|  \\    /   O peration     | Version:  v2006                                 |
|   \\  /    A nd           | Website:  www.openfoam.com                      |
|    \\/     M anipulation  |                                                 |
\*---------------------------------------------------------------------------*/
FoamFile
{
    version     2.0;
    format      ascii;
    class       volScalarField;
    location    "22";
    object      k;
}
// * * * * * * * * * * * * * * * * * * * * * * * * * * * * * * * * * * * * * //

dimensions      [0 2 -2 0 0 0 0];


internalField   nonuniform List<scalar> 
78750
(
0.000240749
0.00016145
0.000178431
0.000173659
0.000165628
0.00015703
0.000149179
0.000142299
0.000136237
0.000130823
0.000125959
0.000121576
0.000117599
0.000113964
0.000110617
0.00010751
0.000104595
0.000101825
9.91499e-05
9.65236e-05
9.38865e-05
9.11735e-05
8.83186e-05
8.5293e-05
8.19201e-05
7.81084e-05
7.37531e-05
6.8738e-05
6.29365e-05
5.62882e-05
4.88709e-05
4.08517e-05
3.16869e-05
2.0665e-05
9.19384e-06
4.71783e-05
0.000249878
0.000333184
0.000347629
0.000334334
0.000312717
0.000292529
0.000276602
0.000264416
0.000255019
0.000247569
0.000241474
0.000236243
0.000231616
0.00022746
0.000223705
0.000220202
0.000216826
0.000213483
0.000210122
0.000206482
0.000202343
0.00019767
0.000192457
0.000186522
0.00017968
0.000171749
0.000162533
0.000151452
0.000137547
0.000119962
9.8649e-05
7.56988e-05
5.17802e-05
2.47434e-05
5.63956e-05
0.000132558
0.000161649
0.000160652
0.000146195
0.000131628
0.000121643
0.000115594
0.000112179
0.000110503
0.000109466
0.000108749
0.000108241
0.000107893
0.00010768
0.000107584
0.000107596
0.00010771
0.000107916
0.000108206
0.000108576
0.000109042
0.000109672
0.000110539
0.000111517
0.000112458
0.000113139
0.00011316
0.000111887
0.000108332
0.000101213
8.96386e-05
7.49666e-05
5.59646e-05
2.90457e-05
4.474e-05
0.000101698
0.000128081
0.000139244
0.000141824
0.000140462
0.000138328
0.000136434
0.000134743
0.000132981
0.000130982
0.000128736
0.000126402
0.000124171
0.000122207
0.000120523
0.000119117
0.000117991
0.000117049
0.000116133
0.000115082
0.000113752
0.000112036
0.000109862
0.000107281
0.000104527
0.000101946
9.9818e-05
9.81502e-05
9.63824e-05
9.31193e-05
8.65648e-05
7.58816e-05
5.90067e-05
3.28996e-05
4.31411e-05
8.68166e-05
0.000109886
0.00012252
0.000129296
0.00013094
0.000128744
0.000123979
0.000117718
0.000110891
0.0001043
9.86488e-05
9.43888e-05
9.17456e-05
9.08255e-05
9.14939e-05
9.34344e-05
9.60885e-05
9.87515e-05
0.000100842
0.000102111
0.000102402
0.00010153
9.92878e-05
9.54629e-05
9.01646e-05
8.40819e-05
7.84034e-05
7.44899e-05
7.32786e-05
7.40418e-05
7.3782e-05
6.92381e-05
5.76627e-05
3.70933e-05
3.50696e-05
7.81486e-05
0.00010026
0.000112755
0.000120532
0.000123379
0.000121859
0.000117391
0.000111462
0.000105232
9.95082e-05
9.48626e-05
9.16694e-05
9.02102e-05
9.06732e-05
9.29962e-05
9.68227e-05
0.000101507
0.000106205
0.000110122
0.00011301
0.000114745
0.000115051
0.000113748
0.00011056
0.000104881
9.63928e-05
8.58132e-05
7.51999e-05
6.73187e-05
6.40179e-05
6.39371e-05
6.21384e-05
5.39429e-05
3.76435e-05
3.18123e-05
7.08044e-05
9.28905e-05
0.000105228
0.000112895
0.000116434
0.000116014
0.000112542
0.000107184
0.000100975
9.47404e-05
8.92687e-05
8.54795e-05
8.42064e-05
8.58625e-05
9.01064e-05
9.58745e-05
0.000101935
0.000107275
0.000111264
0.000113966
0.000115443
0.000115514
0.000113997
0.000110564
0.000104627
9.59582e-05
8.49827e-05
7.32184e-05
6.31735e-05
5.75023e-05
5.64597e-05
5.55508e-05
4.99108e-05
3.82346e-05
2.79011e-05
6.4733e-05
8.65511e-05
9.84728e-05
0.000105853
0.000109707
0.000109766
0.00010642
0.00010054
9.33231e-05
8.641e-05
8.17362e-05
8.08565e-05
8.41329e-05
9.06141e-05
9.86148e-05
0.000106604
0.00011354
0.0001189
0.000122797
0.000125502
0.00012704
0.00012732
0.000126179
0.000123308
0.000118185
0.000110407
9.98341e-05
8.71744e-05
7.45628e-05
6.46876e-05
5.92703e-05
5.56834e-05
4.88849e-05
3.68222e-05
2.4604e-05
5.89131e-05
8.04959e-05
9.21008e-05
9.86233e-05
0.00010133
9.97935e-05
9.41006e-05
8.57571e-05
7.78227e-05
7.35393e-05
7.45068e-05
8.02616e-05
8.90669e-05
9.87585e-05
0.000107722
0.000115113
0.000120636
0.000124575
0.000127331
0.00012906
0.000129783
0.000129478
0.000128001
0.000125034
0.000120206
0.000113298
0.000104261
9.36514e-05
8.26918e-05
7.30828e-05
6.62782e-05
6.05923e-05
5.17833e-05
3.76862e-05
2.27882e-05
5.50695e-05
7.5331e-05
8.50596e-05
8.88706e-05
8.80002e-05
8.26457e-05
7.50167e-05
6.92268e-05
6.86525e-05
7.40145e-05
8.38052e-05
9.54199e-05
0.000106481
0.000115786
0.000123014
0.000128342
0.0001321
0.000134731
0.00013648
0.000137392
0.00013747
0.000136654
0.000134744
0.000131437
0.000126526
0.000119879
0.000111458
0.000101779
9.16603e-05
8.2168e-05
7.44053e-05
6.711e-05
5.62432e-05
3.92288e-05
2.20898e-05
5.09741e-05
6.85936e-05
7.53951e-05
7.55694e-05
7.09655e-05
6.44921e-05
6.09347e-05
6.34792e-05
7.18958e-05
8.38899e-05
9.66294e-05
0.000107884
0.00011691
0.000123815
0.000128956
0.000132662
0.000135292
0.000137092
0.000138132
0.000138404
0.000137861
0.00013636
0.000133596
0.000129291
0.000123378
0.000116047
0.0001079
9.96587e-05
9.16538e-05
8.42111e-05
7.75274e-05
7.03756e-05
5.91519e-05
4.11744e-05
2.15472e-05
4.62394e-05
6.04924e-05
6.46053e-05
6.26944e-05
5.8495e-05
5.73752e-05
6.26096e-05
7.33925e-05
8.6952e-05
0.000100514
0.000112023
0.000120986
0.000127803
0.000132922
0.000136709
0.000139436
0.000141354
0.000142591
0.000143144
0.000142949
0.000141897
0.000139758
0.000136179
0.000130944
0.000124159
0.00011627
0.000108117
0.000100336
9.28776e-05
8.58086e-05
7.90717e-05
7.18219e-05
6.07197e-05
4.27333e-05
2.13738e-05
4.21363e-05
5.37196e-05
5.69838e-05
5.63385e-05
5.69234e-05
6.27188e-05
7.32568e-05
8.5729e-05
9.81188e-05
0.000108771
0.000117269
0.000123912
0.000129105
0.000133155
0.000136272
0.000138604
0.000140298
0.000141381
0.00014175
0.000141258
0.000139681
0.00013663
0.000131666
0.000124712
0.0001164
0.000108137
0.000101509
9.61544e-05
9.09987e-05
8.53399e-05
7.88989e-05
7.16033e-05
6.0782e-05
4.34258e-05
2.13553e-05
4.05845e-05
5.14749e-05
5.61466e-05
5.90596e-05
6.43959e-05
7.32185e-05
8.35568e-05
9.36542e-05
0.000103107
0.000111376
0.00011846
0.000124444
0.000129425
0.00013348
0.000136717
0.000139271
0.000141266
0.000142683
0.000143373
0.000143118
0.000141599
0.000138266
0.000132511
0.000124122
0.000113868
0.000103858
9.67931e-05
9.22347e-05
8.8527e-05
8.4035e-05
7.80495e-05
7.0683e-05
5.98332e-05
4.29525e-05
1.9951e-05
3.94748e-05
5.14612e-05
5.79861e-05
6.30041e-05
6.90921e-05
7.61837e-05
8.31419e-05
8.971e-05
9.67517e-05
0.000104159
0.000111435
0.000118071
0.000123735
0.000128331
0.00013198
0.000134942
0.000137406
0.000139366
0.00014069
0.000141136
0.000140323
0.000137617
0.000132237
0.000123673
0.000112388
0.000100662
9.2196e-05
8.73136e-05
8.45694e-05
8.14855e-05
7.64479e-05
6.93412e-05
5.85928e-05
4.25981e-05
1.67312e-05
3.6806e-05
5.03359e-05
5.81476e-05
6.39072e-05
6.9478e-05
7.45335e-05
7.88419e-05
8.30727e-05
8.87271e-05
9.64256e-05
0.000104886
0.000112825
0.000119475
0.000124677
0.000128678
0.000131908
0.000134695
0.000137136
0.000139171
0.000140598
0.000141059
0.000139925
0.00013629
0.000129241
0.000118405
0.000105038
9.31854e-05
8.49127e-05
8.05402e-05
7.78646e-05
7.40191e-05
6.78358e-05
5.79203e-05
4.34504e-05
1.3954e-05
3.37823e-05
4.8014e-05
5.65521e-05
6.24595e-05
6.72404e-05
7.07956e-05
7.3564e-05
7.68766e-05
8.23742e-05
9.09647e-05
0.000100428
0.000108918
0.000115598
0.000120519
0.000124143
0.000127038
0.000129637
0.000132134
0.000134532
0.000136672
0.000138249
0.000138697
0.000137156
0.000132634
0.000124249
0.000112104
9.88765e-05
8.71569e-05
7.918e-05
7.4824e-05
7.1357e-05
6.63298e-05
5.79372e-05
4.57744e-05
1.26818e-05
3.19037e-05
4.59699e-05
5.45134e-05
6.01166e-05
6.42126e-05
6.72708e-05
7.04414e-05
7.52768e-05
8.27239e-05
9.24626e-05
0.000101814
0.000109277
0.000114587
0.000118223
0.00012084
0.00012303
0.000125225
0.000127641
0.000130291
0.000133015
0.000135529
0.000137329
0.000137608
0.000135408
0.000129678
0.000119893
0.000107408
9.4092e-05
8.26495e-05
7.50511e-05
7.02645e-05
6.55955e-05
5.8551e-05
4.86216e-05
1.24577e-05
3.09053e-05
4.44013e-05
5.25342e-05
5.77702e-05
6.17314e-05
6.54199e-05
7.01538e-05
7.68059e-05
8.526e-05
9.44214e-05
0.000102099
0.000107565
0.000111056
0.000113247
0.000114818
0.000116315
0.000118129
0.000120474
0.000123368
0.000126663
0.000130095
0.000133218
0.000135261
0.0001353
0.000132239
0.00012529
0.000114979
0.00010218
8.90558e-05
7.86703e-05
7.19334e-05
6.68979e-05
6.05101e-05
5.18461e-05
1.24722e-05
3.02483e-05
4.31858e-05
5.10231e-05
5.63602e-05
6.10499e-05
6.61862e-05
7.25864e-05
8.02155e-05
8.84577e-05
9.60101e-05
0.000101504
0.000104834
0.000106517
0.000107288
0.000107817
0.000108604
0.000109996
0.000112198
0.00011524
0.000118997
0.000123261
0.000127625
0.000131343
0.000133491
0.000132958
0.00012886
0.000121171
0.000109886
9.64759e-05
8.40721e-05
7.506e-05
6.89358e-05
6.24826e-05
5.42972e-05
1.23629e-05
2.96805e-05
4.23573e-05
5.02607e-05
5.60995e-05
6.18045e-05
6.80975e-05
7.50896e-05
8.21981e-05
8.88947e-05
9.42696e-05
9.75655e-05
9.89742e-05
9.90897e-05
9.8612e-05
9.81829e-05
9.82677e-05
9.91703e-05
0.000101113
0.00010417
0.000108288
0.000113373
0.00011905
0.000124554
0.000128884
0.000130901
0.000129708
0.000124853
0.000115748
0.00010338
9.06049e-05
8.03381e-05
7.30677e-05
6.56443e-05
5.62251e-05
1.19325e-05
2.90118e-05
4.16951e-05
4.99335e-05
5.64461e-05
6.30706e-05
6.99935e-05
7.67811e-05
8.27785e-05
8.76783e-05
9.10408e-05
9.24774e-05
9.22908e-05
9.10504e-05
8.93814e-05
8.78922e-05
8.70466e-05
8.71418e-05
8.84328e-05
9.11096e-05
9.5276e-05
0.000101055
0.000108127
0.00011566
0.000122494
0.000127373
0.000129283
0.000127203
0.00012007
0.000108512
9.52717e-05
8.37536e-05
7.53039e-05
6.68807e-05
5.63258e-05
1.12252e-05
2.8315e-05
4.12693e-05
4.99972e-05
5.70865e-05
6.41751e-05
7.10264e-05
7.69312e-05
8.13299e-05
8.42128e-05
8.57206e-05
8.56689e-05
8.43019e-05
8.20302e-05
7.93449e-05
7.67793e-05
7.48008e-05
7.37485e-05
7.38993e-05
7.55896e-05
7.91708e-05
8.51504e-05
9.33958e-05
0.000103051
0.000112731
0.000121
0.000126699
0.000128138
0.000123949
0.000114457
0.000102033
9.00347e-05
8.02029e-05
6.97015e-05
5.61652e-05
1.02041e-05
2.73213e-05
4.05682e-05
4.974e-05
5.71328e-05
6.41902e-05
7.05524e-05
7.54588e-05
7.85258e-05
7.99601e-05
8.02766e-05
7.94101e-05
7.74449e-05
7.45963e-05
7.12459e-05
6.78609e-05
6.48865e-05
6.26943e-05
6.14835e-05
6.15627e-05
6.35084e-05
6.83088e-05
7.64911e-05
8.75922e-05
0.000100068
0.000112031
0.000121749
0.000126675
0.000125049
0.000116964
0.000104782
9.2205e-05
8.14145e-05
6.98288e-05
5.53882e-05
9.30012e-06
2.65196e-05
4.00057e-05
4.94728e-05
5.68898e-05
6.3562e-05
6.92222e-05
7.31729e-05
7.51871e-05
7.55689e-05
7.49627e-05
7.34747e-05
7.11119e-05
6.80742e-05
6.4803e-05
6.17725e-05
5.92867e-05
5.73947e-05
5.59644e-05
5.49245e-05
5.46591e-05
5.64e-05
6.17455e-05
7.15895e-05
8.51639e-05
0.000100567
0.000115154
0.000125281
0.000128426
0.000123853
0.000113195
0.000100166
8.77702e-05
7.39996e-05
5.72314e-05
8.75626e-06
2.58684e-05
3.93024e-05
4.8828e-05
5.61413e-05
6.24359e-05
6.75605e-05
7.0895e-05
7.22905e-05
7.20591e-05
7.08316e-05
6.88901e-05
6.64247e-05
6.39306e-05
6.21154e-05
6.14431e-05
6.17828e-05
6.2405e-05
6.25439e-05
6.1866e-05
6.04229e-05
5.91267e-05
6.00872e-05
6.55556e-05
7.62612e-05
9.11502e-05
0.000107087
0.000119749
0.000125898
0.000124076
0.000115294
0.000102993
9.05179e-05
7.64762e-05
5.99499e-05
9.02818e-06
2.6197e-05
3.96229e-05
4.91777e-05
5.64641e-05
6.25775e-05
6.7337e-05
7.00905e-05
7.07078e-05
6.95754e-05
6.7491e-05
6.5168e-05
6.32097e-05
6.24477e-05
6.35624e-05
6.65137e-05
7.02882e-05
7.33602e-05
7.47355e-05
7.43234e-05
7.22693e-05
6.95004e-05
6.84866e-05
7.20199e-05
8.13422e-05
9.59514e-05
0.000111971
0.00012535
0.000132809
0.000132229
0.000123772
0.000110746
9.68889e-05
8.12131e-05
6.25178e-05
9.68199e-06
2.69091e-05
4.0417e-05
5.01047e-05
5.75286e-05
6.36734e-05
6.82255e-05
7.05198e-05
7.05671e-05
6.89615e-05
6.66915e-05
6.47703e-05
6.39367e-05
6.48926e-05
6.79932e-05
7.28022e-05
7.80085e-05
8.19342e-05
8.35762e-05
8.29345e-05
8.01073e-05
7.59573e-05
7.35282e-05
7.66681e-05
8.69249e-05
0.000102582
0.00011775
0.000128738
0.000134054
0.000132886
0.000125292
0.000113488
9.99291e-05
8.30557e-05
6.06217e-05
9.69662e-06
2.6876e-05
4.07433e-05
5.08102e-05
5.84704e-05
6.47512e-05
6.94364e-05
7.19365e-05
7.21903e-05
7.06323e-05
6.79693e-05
6.50831e-05
6.29288e-05
6.24813e-05
6.47055e-05
6.99149e-05
7.70378e-05
8.38061e-05
8.81849e-05
8.9569e-05
8.77714e-05
8.25231e-05
7.57238e-05
7.25976e-05
7.8779e-05
9.61094e-05
0.000117982
0.000134991
0.000142359
0.00013993
0.000130031
0.000116422
0.000100998
8.16506e-05
5.66674e-05
8.32106e-06
2.45788e-05
3.82268e-05
4.84207e-05
5.62845e-05
6.26311e-05
6.74669e-05
7.05426e-05
7.15853e-05
7.06111e-05
6.78396e-05
6.38324e-05
5.991e-05
5.79974e-05
5.97831e-05
6.59216e-05
7.52176e-05
8.50134e-05
9.28258e-05
9.76972e-05
9.95272e-05
9.77038e-05
9.11855e-05
8.11473e-05
7.28072e-05
7.33318e-05
8.68634e-05
0.000107662
0.000125685
0.000133818
0.000130882
0.000120301
0.000105479
8.55858e-05
6.06085e-05
7.21162e-06
2.27096e-05
3.59326e-05
4.59674e-05
5.37303e-05
5.98669e-05
6.43401e-05
6.70239e-05
6.75683e-05
6.57551e-05
6.17778e-05
5.66753e-05
5.28937e-05
5.30356e-05
5.83449e-05
6.82565e-05
8.02405e-05
9.11452e-05
9.90335e-05
0.000103646
0.00010512
0.000103105
9.72254e-05
8.85712e-05
8.01626e-05
7.6266e-05
8.13749e-05
9.48726e-05
0.000111355
0.000123388
0.000126112
0.000119967
0.000107956
8.99904e-05
6.64671e-05
6.28651e-06
2.14868e-05
3.44142e-05
4.40092e-05
5.10965e-05
5.63327e-05
5.97169e-05
6.12464e-05
6.07194e-05
5.80264e-05
5.36857e-05
4.94148e-05
4.82216e-05
5.19782e-05
6.0772e-05
7.2933e-05
8.58098e-05
9.71329e-05
0.000105858
0.000111813
0.000114773
0.000114035
0.000108484
9.79363e-05
8.55536e-05
7.78512e-05
8.06099e-05
9.23664e-05
0.000107278
0.000119269
0.000123635
0.000119717
0.000109643
9.30004e-05
7.00034e-05
5.00279e-06
1.85868e-05
3.02881e-05
3.91266e-05
4.56516e-05
5.0361e-05
5.31797e-05
5.38992e-05
5.21928e-05
4.85975e-05
4.5137e-05
4.47704e-05
4.95533e-05
5.92762e-05
7.22638e-05
8.61838e-05
9.89419e-05
0.000109354
0.000117293
0.000123053
0.000126658
0.000127649
0.000125034
0.000117445
0.000104048
8.84638e-05
8.00883e-05
8.4861e-05
9.81813e-05
0.00011207
0.000119952
0.000119295
0.000111649
9.70956e-05
7.68537e-05
4.8906e-06
1.88823e-05
3.03699e-05
3.80595e-05
4.2254e-05
4.33462e-05
4.17413e-05
3.85256e-05
3.65243e-05
3.87363e-05
4.68662e-05
6.01555e-05
7.64041e-05
9.29969e-05
0.000107602
0.000118883
0.000126931
0.000132472
0.000136084
0.000137993
0.000138081
0.000135948
0.00013087
0.000122058
0.000109322
9.50802e-05
8.65204e-05
8.8727e-05
9.93627e-05
0.00011168
0.000119406
0.000119612
0.00011328
0.00010058
8.34648e-05
6.70953e-06
1.87297e-05
2.74651e-05
3.15158e-05
3.21808e-05
3.15017e-05
3.26003e-05
3.84215e-05
5.02007e-05
6.6598e-05
8.42041e-05
9.96843e-05
0.000111124
0.000118619
0.0001234
0.000126821
0.000129794
0.000132691
0.000135454
0.000137733
0.000138967
0.000138381
0.000134808
0.000126815
0.000113644
9.79166e-05
8.78044e-05
8.93993e-05
0.000100615
0.000113439
0.000121105
0.000121289
0.000115305
0.000103228
8.65803e-05
8.53565e-06
1.92271e-05
2.66803e-05
3.0695e-05
3.33548e-05
3.77034e-05
4.62899e-05
5.94029e-05
7.44746e-05
8.78757e-05
9.79858e-05
0.000105278
0.000110963
0.000116066
0.000121118
0.000126263
0.000131444
0.000136514
0.000141252
0.000145351
0.000148353
0.00014952
0.000147719
0.000141489
0.000129448
0.000112625
9.79921e-05
9.33007e-05
0.000101007
0.000113697
0.000122195
0.000122939
0.00011731
0.000105563
8.96099e-05
9.05319e-06
1.97767e-05
2.72434e-05
3.21519e-05
3.65331e-05
4.25877e-05
5.1694e-05
6.36818e-05
7.63444e-05
8.77824e-05
9.73953e-05
0.000105212
0.000111555
0.000116872
0.000121613
0.000126144
0.000130685
0.000135274
0.000139774
0.000143934
0.000147364
0.000149445
0.000149256
0.000145581
0.00013707
0.000123712
0.000109531
0.000100686
0.000102884
0.000113257
0.00012223
0.00012397
0.000119179
0.000108432
9.40184e-05
7.79132e-06
1.9361e-05
2.75369e-05
3.32683e-05
3.83377e-05
4.42767e-05
5.24446e-05
6.33911e-05
7.51645e-05
8.57708e-05
9.43438e-05
0.000100982
0.000106277
0.000110893
0.000115354
0.00012003
0.000125079
0.000130394
0.000135719
0.000140801
0.000145291
0.000148588
0.000149851
0.000148064
0.000142228
0.000132319
0.000120276
0.000109822
0.000107111
0.000113448
0.000121796
0.000124788
0.000121444
0.000112027
9.90252e-05
6.03e-06
1.74e-05
2.56749e-05
3.13769e-05
3.6112e-05
4.12953e-05
4.82799e-05
5.78116e-05
6.88146e-05
7.91627e-05
8.77597e-05
9.45188e-05
9.99353e-05
0.000104641
0.000109193
0.000114025
0.000119337
0.000125057
0.00013092
0.000136708
0.00014217
0.000146778
0.000149762
0.000150131
0.000146915
0.000139942
0.000130075
0.000119589
0.000113583
0.000115393
0.000121211
0.000124212
0.000121921
0.000114036
0.000103245
4.87508e-06
1.55657e-05
2.37068e-05
2.9707e-05
3.5241e-05
4.17638e-05
5.0057e-05
6.01643e-05
7.04451e-05
7.91504e-05
8.5764e-05
9.06586e-05
9.45584e-05
9.81361e-05
0.000101916
0.000106263
0.000111307
0.000116943
0.000122882
0.000128838
0.000134645
0.000140007
0.000144332
0.000146846
0.000146789
0.000143748
0.000137207
0.000128246
0.000121119
0.000120131
0.000123877
0.000126555
0.000124621
0.000117073
0.000106695
4.34955e-06
1.48305e-05
2.3178e-05
2.98302e-05
3.63105e-05
4.36182e-05
5.17349e-05
6.01834e-05
6.8015e-05
7.44402e-05
7.94385e-05
8.34452e-05
8.70049e-05
9.05737e-05
9.45043e-05
9.90827e-05
0.000104425
0.000110403
0.000116708
0.000122967
0.000129025
0.000134682
0.000139407
0.000142654
0.000144197
0.000143871
0.000140529
0.000134096
0.000127203
0.000123894
0.000124852
0.000126161
0.000123913
0.000116326
0.00010582
3.89642e-06
1.41839e-05
2.25753e-05
2.94981e-05
3.61768e-05
4.32655e-05
5.05913e-05
5.77116e-05
6.41726e-05
6.9539e-05
7.37368e-05
7.70321e-05
7.98462e-05
8.26211e-05
8.57897e-05
8.97367e-05
9.46722e-05
0.000100569
0.000107159
0.000114007
0.000120894
0.000127633
0.000133635
0.000138267
0.00014139
0.000142723
0.000141389
0.00013745
0.000132698
0.00012991
0.000129842
0.000129568
0.000125762
0.000116183
0.000103596
3.58298e-06
1.37645e-05
2.21825e-05
2.92815e-05
3.60833e-05
4.30637e-05
4.99813e-05
5.63066e-05
6.16766e-05
6.58625e-05
6.89076e-05
7.1113e-05
7.29249e-05
7.48166e-05
7.72289e-05
8.05624e-05
8.50814e-05
9.08055e-05
9.74908e-05
0.000104703
0.000112238
0.000119967
0.000127317
0.000133693
0.000138891
0.000141893
0.000141698
0.000138377
0.000133616
0.000130048
0.000128745
0.000127357
0.000122795
0.000112867
0.000100484
3.43374e-06
1.35624e-05
2.19996e-05
2.92191e-05
3.60825e-05
4.29303e-05
4.94541e-05
5.50115e-05
5.92924e-05
6.22665e-05
6.41043e-05
6.51415e-05
6.58353e-05
6.67017e-05
6.82339e-05
7.08831e-05
7.50119e-05
8.07044e-05
8.77356e-05
9.56189e-05
0.000104116
0.000113079
0.00012183
0.000129829
0.00013675
0.000141415
0.000143081
0.000141743
0.000138425
0.000134992
0.000132604
0.000129778
0.000123812
0.000112181
9.74502e-05
3.28376e-06
1.33696e-05
2.18408e-05
2.92078e-05
3.61448e-05
4.27942e-05
4.8777e-05
5.34348e-05
5.65349e-05
5.81775e-05
5.8644e-05
5.83141e-05
5.76555e-05
5.7222e-05
5.75897e-05
5.92795e-05
6.27769e-05
6.82858e-05
7.56605e-05
8.43926e-05
9.42452e-05
0.000105017
0.000115751
0.000125734
0.000133955
0.000139184
0.000141015
0.000139923
0.000137059
0.000133855
0.000131126
0.000127674
0.000121025
0.00010892
9.42379e-05
3.05167e-06
1.28705e-05
2.11798e-05
2.84616e-05
3.52483e-05
4.13832e-05
4.64791e-05
5.01241e-05
5.21789e-05
5.27824e-05
5.22317e-05
5.08975e-05
4.92407e-05
4.78382e-05
4.73529e-05
4.84065e-05
5.15332e-05
5.70755e-05
6.49509e-05
7.46406e-05
8.59736e-05
9.87146e-05
0.000111677
0.000124032
0.000134149
0.000140726
0.000143332
0.000142584
0.000139805
0.000136224
0.000132458
0.000128153
0.000121085
0.000108821
9.28685e-05
2.64706e-06
1.2063e-05
2.00908e-05
2.70329e-05
3.32777e-05
3.86087e-05
4.27048e-05
4.53705e-05
4.65516e-05
4.63294e-05
4.49096e-05
4.26468e-05
4.00494e-05
3.77595e-05
3.64889e-05
3.69293e-05
3.96775e-05
4.52342e-05
5.36704e-05
6.47124e-05
7.81742e-05
9.3399e-05
0.000108987
0.000123653
0.000135399
0.000142819
0.000145424
0.000143976
0.000140345
0.000136497
0.00013299
0.000128911
0.000121513
0.00010763
8.82644e-05
1.93341e-06
9.73106e-06
1.6523e-05
2.2333e-05
2.73699e-05
3.15634e-05
3.46789e-05
3.65536e-05
3.71546e-05
3.65687e-05
3.49906e-05
3.2822e-05
3.06286e-05
2.89258e-05
2.81462e-05
2.87419e-05
3.12202e-05
3.61477e-05
4.40751e-05
5.54219e-05
7.00706e-05
8.71794e-05
0.000105398
0.000122663
0.000136615
0.000145706
0.000149315
0.000147926
0.000143223
0.000137443
0.00013196
0.000126538
0.000118335
0.000104041
8.43849e-05
1.22604e-06
7.28289e-06
1.25108e-05
1.68686e-05
2.04606e-05
2.32979e-05
2.53354e-05
2.65616e-05
2.70073e-05
2.67851e-05
2.61037e-05
2.52528e-05
2.45478e-05
2.42731e-05
2.46735e-05
2.59975e-05
2.86307e-05
3.31208e-05
4.01942e-05
5.06463e-05
6.5099e-05
8.35056e-05
0.000104539
0.000125371
0.000142659
0.000153909
0.000158018
0.000155578
0.000149019
0.000141423
0.000134773
0.000128912
0.000120731
0.000105889
8.36548e-05
9.42045e-07
5.92162e-06
1.01e-05
1.34173e-05
1.59571e-05
1.78407e-05
1.91884e-05
2.0096e-05
2.06633e-05
2.0998e-05
2.12231e-05
2.15003e-05
2.20059e-05
2.29247e-05
2.44481e-05
2.68387e-05
3.04889e-05
3.58015e-05
4.30936e-05
5.28455e-05
6.59175e-05
8.32749e-05
0.000105127
0.000129561
0.000152572
0.000169906
0.000178576
0.00017756
0.000168444
0.000155431
0.000143107
0.000133292
0.000122662
0.0001058
8.15895e-05
7.80154e-07
4.79547e-06
8.21912e-06
1.10636e-05
1.35259e-05
1.57975e-05
1.79342e-05
1.98929e-05
2.16135e-05
2.30981e-05
2.44276e-05
2.57707e-05
2.73381e-05
2.93834e-05
3.22894e-05
3.64813e-05
4.2315e-05
4.99096e-05
5.90757e-05
6.94785e-05
8.12635e-05
9.51388e-05
0.000112001
0.000131875
0.000152941
0.000171844
0.000184791
0.000189035
0.000184015
0.000172158
0.00015804
0.00014545
0.000132051
0.000111682
8.24898e-05
1.20534e-06
6.09772e-06
1.06607e-05
1.51415e-05
1.96826e-05
2.41245e-05
2.81259e-05
3.14406e-05
3.40544e-05
3.61984e-05
3.82087e-05
4.03903e-05
4.29637e-05
4.60894e-05
4.99053e-05
5.45765e-05
6.02682e-05
6.69949e-05
7.47657e-05
8.39693e-05
9.53766e-05
0.000109863
0.000127875
0.000148707
0.000170098
0.000188786
0.000201424
0.000205388
0.000199713
0.000186079
0.000168848
0.000152596
0.000135693
0.000112387
8.17458e-05
2.37566e-06
8.53751e-06
1.44894e-05
2.04489e-05
2.61294e-05
3.10411e-05
3.49611e-05
3.79959e-05
4.03359e-05
4.21311e-05
4.35559e-05
4.48522e-05
4.63603e-05
4.85456e-05
5.19039e-05
5.68115e-05
6.3413e-05
7.15621e-05
8.07138e-05
8.99923e-05
9.92555e-05
0.000109471
0.000122345
0.000139448
0.000160515
0.000182664
0.000201385
0.000212328
0.000212847
0.000203
0.000186124
0.000167422
0.000147226
0.00012123
8.87326e-05
2.48718e-06
8.37034e-06
1.32623e-05
1.73969e-05
2.11057e-05
2.50648e-05
2.94925e-05
3.42681e-05
3.89163e-05
4.28259e-05
4.57461e-05
4.77653e-05
4.90326e-05
4.98878e-05
5.10466e-05
5.35209e-05
5.84808e-05
6.71092e-05
8.02665e-05
9.78467e-05
0.000117198
0.000135664
0.000151955
0.000166795
0.000181717
0.000197232
0.000211597
0.000221153
0.00022229
0.000213456
0.000196618
0.000176552
0.00015445
0.000127286
9.41353e-05
1.20117e-06
5.42041e-06
8.89261e-06
1.18796e-05
1.49495e-05
1.88395e-05
2.39909e-05
3.03296e-05
3.73731e-05
4.42676e-05
5.04708e-05
5.59401e-05
6.06412e-05
6.43641e-05
6.66826e-05
6.72183e-05
6.60666e-05
6.42735e-05
6.42063e-05
6.93315e-05
8.28738e-05
0.000104947
0.00013219
0.000159947
0.000184936
0.000205951
0.000222463
0.000233026
0.000235361
0.000227771
0.000211219
0.000189769
0.0001648
0.000134841
0.00010139
8.61869e-07
6.3946e-06
1.19862e-05
1.832e-05
2.5465e-05
3.29753e-05
4.02004e-05
4.65183e-05
5.14637e-05
5.48526e-05
5.70055e-05
5.83457e-05
5.92154e-05
5.98945e-05
6.06581e-05
6.17336e-05
6.31378e-05
6.47134e-05
6.65147e-05
6.98144e-05
7.73541e-05
9.19658e-05
0.000114661
0.000143067
0.000172595
0.000199119
0.000220111
0.000233883
0.00023886
0.000233875
0.00021973
0.00019918
0.000173864
0.000143897
0.000113915
1.36694e-06
1.17648e-05
2.1494e-05
3.05299e-05
3.80608e-05
4.35047e-05
4.68588e-05
4.86587e-05
4.96942e-05
5.05921e-05
5.1667e-05
5.30693e-05
5.48847e-05
5.70644e-05
5.94819e-05
6.20405e-05
6.47676e-05
6.7893e-05
7.20545e-05
7.86355e-05
8.86671e-05
0.000103804
0.000125322
0.000152279
0.000181249
0.000208013
0.000229222
0.000242704
0.000247078
0.000241906
0.000227736
0.000207053
0.000181276
0.000150849
0.000120632
1.07462e-06
7.95718e-06
1.40184e-05
1.94698e-05
2.42826e-05
2.85492e-05
3.23703e-05
3.58116e-05
3.88865e-05
4.15477e-05
4.38225e-05
4.58524e-05
4.77806e-05
4.97638e-05
5.20388e-05
5.47948e-05
5.80877e-05
6.19065e-05
6.65682e-05
7.31827e-05
8.34071e-05
9.87094e-05
0.000120267
0.000147665
0.000177884
0.000206539
0.000229715
0.000244853
0.000250612
0.000246557
0.000233237
0.000213173
0.000187513
0.000156415
0.000125456
8.6334e-07
7.01438e-06
1.30664e-05
1.90079e-05
2.43076e-05
2.84475e-05
3.15084e-05
3.42102e-05
3.7157e-05
4.01567e-05
4.26071e-05
4.41707e-05
4.48384e-05
4.5027e-05
4.55738e-05
4.72645e-05
5.04566e-05
5.50565e-05
6.09814e-05
6.85863e-05
7.87391e-05
9.30978e-05
0.00011362
0.000140646
0.000172014
0.000203044
0.000228896
0.000246293
0.000253896
0.000251048
0.000238673
0.000219511
0.000194501
0.000163321
0.000132582
1.13187e-06
8.47996e-06
1.51904e-05
2.07074e-05
2.46875e-05
2.80195e-05
3.28257e-05
4.06616e-05
5.05081e-05
5.93697e-05
6.49052e-05
6.6456e-05
6.40961e-05
5.87449e-05
5.26346e-05
4.83067e-05
4.72738e-05
4.95893e-05
5.46149e-05
6.18954e-05
7.13649e-05
8.41274e-05
0.000102404
0.000127915
0.000159544
0.000193021
0.000222713
0.000244251
0.000255519
0.000255291
0.000244758
0.000226959
0.000202765
0.000171797
0.000142399
1.29668e-06
6.66596e-06
1.1545e-05
1.59658e-05
2.14166e-05
3.10781e-05
4.74592e-05
6.87573e-05
8.91043e-05
0.000103191
0.000109431
0.000108708
0.000101697
8.92706e-05
7.43047e-05
6.09309e-05
5.24519e-05
4.99837e-05
5.27947e-05
5.93963e-05
6.82987e-05
7.96313e-05
9.52913e-05
0.000117778
0.00014776
0.000182167
0.000215213
0.000241082
0.000256036
0.00025849
0.000249825
0.00023345
0.0002105
0.000180681
0.000151784
2.01753e-06
7.67753e-06
1.39351e-05
2.2052e-05
3.51492e-05
5.63039e-05
8.39419e-05
0.000110814
0.000129901
0.000139384
0.000141287
0.000137614
0.000128742
0.000114652
9.69196e-05
7.88446e-05
6.4172e-05
5.56375e-05
5.39544e-05
5.80071e-05
6.56062e-05
7.59157e-05
9.0414e-05
0.000111311
0.000139219
0.000172087
0.000206082
0.000236446
0.000257154
0.000264311
0.000258707
0.000244036
0.000221546
0.000190652
0.00015779
2.40609e-06
7.61634e-06
1.40428e-05
2.36841e-05
3.931e-05
6.13651e-05
8.55473e-05
0.000105984
0.000120154
0.000128923
0.000133831
0.000135778
0.000134722
0.000129609
0.000119209
0.000103723
8.54215e-05
6.82791e-05
5.66684e-05
5.32277e-05
5.73813e-05
6.61036e-05
7.88807e-05
9.941e-05
0.000130468
0.00016774
0.000203127
0.000232893
0.000254678
0.000265162
0.000263103
0.000250907
0.000229176
0.000196178
0.000157928
1.74495e-06
7.2726e-06
1.4665e-05
2.60359e-05
4.22745e-05
6.14903e-05
7.99277e-05
9.48589e-05
0.000105688
0.000112997
0.000117722
0.000120871
0.000123243
0.000125128
0.000125806
0.000123067
0.000113971
9.71427e-05
7.4909e-05
5.37365e-05
4.20531e-05
4.4534e-05
5.7738e-05
7.66382e-05
0.000104008
0.000144523
0.000191261
0.000230554
0.000255178
0.000265941
0.000264754
0.000253811
0.000232145
0.0001964
0.000155799
1.87555e-06
1.22684e-05
2.5529e-05
4.30787e-05
6.30746e-05
8.16469e-05
9.57153e-05
0.000104521
0.000108952
0.000110366
0.000109854
0.000107989
0.00010504
0.000101519
9.87319e-05
9.86577e-05
0.000102026
0.000105761
0.000102928
8.68355e-05
5.9435e-05
3.41431e-05
2.64039e-05
3.949e-05
6.69614e-05
0.00010654
0.00015854
0.000213126
0.000252104
0.000269157
0.000269164
0.00025769
0.000234633
0.00019784
0.000162058
1.81389e-06
1.79409e-05
3.54084e-05
5.34817e-05
6.86863e-05
7.85853e-05
8.39418e-05
8.75102e-05
9.15075e-05
9.63299e-05
0.000100986
0.000104287
0.000105499
0.000104116
9.96169e-05
9.23899e-05
8.51975e-05
8.2141e-05
8.45198e-05
8.75343e-05
8.23107e-05
6.34955e-05
3.98386e-05
2.82774e-05
3.64994e-05
6.30117e-05
0.000107004
0.000165777
0.000223113
0.000260079
0.000272854
0.000267941
0.000247541
0.000211579
0.000178645
1.52578e-06
1.96103e-05
3.63235e-05
4.95271e-05
5.78756e-05
6.32446e-05
6.90102e-05
7.69283e-05
8.617e-05
9.48351e-05
0.000101663
0.000106414
0.000109359
0.000110712
0.000110324
0.00010765
0.000102317
9.51817e-05
8.85609e-05
8.40993e-05
8.02164e-05
7.2499e-05
5.89347e-05
4.57808e-05
4.21955e-05
5.35458e-05
8.14324e-05
0.00012726
0.000183861
0.000231726
0.000257479
0.000262638
0.000250473
0.000221134
0.000188587
2.13699e-06
1.7056e-05
2.91134e-05
3.77929e-05
4.47235e-05
5.23837e-05
6.18157e-05
7.2106e-05
8.17165e-05
8.96956e-05
9.58025e-05
0.000100176
0.000103089
0.000104817
0.000105608
0.000105696
0.000105189
0.000103932
0.000101918
9.94487e-05
9.6323e-05
9.09794e-05
8.20328e-05
7.09213e-05
6.19475e-05
6.13467e-05
7.43871e-05
0.000106222
0.000157038
0.00021061
0.000246831
0.00026073
0.000255209
0.000227475
0.000185562
2.10836e-06
1.04711e-05
1.77236e-05
2.49914e-05
3.34973e-05
4.33017e-05
5.36316e-05
6.37264e-05
7.3167e-05
8.15983e-05
8.86061e-05
9.39554e-05
9.77686e-05
0.000100309
0.000101834
0.000102705
0.000103389
0.000104099
0.000104873
0.000106096
0.00010799
0.00010968
0.000109644
0.000106743
0.000100659
9.46629e-05
9.41264e-05
0.000106911
0.000141247
0.000190227
0.000231921
0.000252367
0.000250922
0.000221599
0.000175376
2.77068e-06
1.19275e-05
2.23597e-05
3.45897e-05
4.78857e-05
6.12554e-05
7.41311e-05
8.61833e-05
9.67834e-05
0.000104987
0.000110428
0.000113335
0.000114328
0.000114061
0.000112994
0.000111686
0.000111212
0.000112499
0.000115245
0.000118673
0.000122745
0.000127291
0.000130868
0.000131579
0.000128418
0.000122605
0.000118863
0.000123515
0.000145627
0.000184874
0.000224214
0.000245887
0.000245469
0.00021497
0.000172253
5.34858e-06