/*--------------------------------*- C++ -*----------------------------------*\
| =========                 |                                                 |
| \\      /  F ield         | OpenFOAM: The Open Source CFD Toolbox           |
|  \\    /   O peration     | Version:  v2006                                 |
|   \\  /    A nd           | Website:  www.openfoam.com                      |
|    \\/     M anipulation  |                                                 |
\*---------------------------------------------------------------------------*/
FoamFile
{
    version     2.0;
    format      ascii;
    class       volScalarField;
    location    "22";
    object      omega;
}
// * * * * * * * * * * * * * * * * * * * * * * * * * * * * * * * * * * * * * //

dimensions      [0 0 -1 0 0 0 0];


internalField   nonuniform List<scalar> 
78750
(
358.805
14.8128
14.9334
14.8992
14.8424
14.7816
14.7259
14.6769
14.6334
14.5945
14.5593
14.5275
14.4986
14.472
14.4474
14.4245
14.403
14.3824
14.3625
14.343
14.3233
14.303
14.2816
14.2589
14.2335
14.2049
14.172
14.1341
14.0902
14.0396
13.9828
13.9223
13.8589
13.7974
357.337
524.252
5.75619
6.2121
6.28654
6.2153
6.09887
5.9884
5.89984
5.83114
5.77754
5.73467
5.69927
5.66873
5.64158
5.61712
5.5948
5.57385
5.55368
5.53364
5.5134
5.49136
5.46621
5.43771
5.40583
5.36937
5.32707
5.27766
5.21978
5.14957
5.06026
4.94535
4.8031
4.64658
4.48036
524.979
524.326
5.04018
5.22227
5.21288
5.11907
5.02396
4.95807
4.91786
4.89512
4.88398
4.8771
4.87236
4.86902
4.86677
4.86542
4.86485
4.865
4.86581
4.86721
4.86914
4.87153
4.87448
4.8784
4.8839
4.89011
4.89607
4.9003
4.90023
4.89174
4.86835
4.82145
4.74457
4.64599
4.51627
525.805
524.237
4.83458
5.00716
5.07749
5.09258
5.08297
5.06885
5.05652
5.04558
5.03418
5.02123
5.00664
4.99147
4.97696
4.96422
4.95334
4.94429
4.93712
4.93113
4.92525
4.9184
4.90959
4.89805
4.88325
4.8655
4.84632
4.82808
4.81282
4.80081
4.78857
4.76696
4.72399
4.65345
4.53972
525.994
524.226
4.73399
4.88824
4.97025
5.01317
5.02274
5.00753
4.97558
4.93365
4.88765
4.84292
4.80428
4.77505
4.75696
4.75093
4.75605
4.77006
4.78898
4.80783
4.82258
4.83158
4.83383
4.82805
4.81279
4.78645
4.74951
4.7065
4.66576
4.63727
4.62837
4.63476
4.63582
4.60832
4.53261
526.545
524.164
4.67383
4.82384
4.9062
4.95631
4.97374
4.9626
4.93211
4.89183
4.84937
4.81014
4.77816
4.75617
4.7463
4.74993
4.76661
4.79369
4.8265
4.85913
4.88617
4.90604
4.91803
4.92038
4.91187
4.8906
4.85228
4.79424
4.72067
4.64548
4.58884
4.56554
4.56741
4.55938
4.50806
527.063
524.14
4.62252
4.77405
4.85622
4.90616
4.92837
4.92442
4.90029
4.86354
4.82088
4.77781
4.73979
4.71347
4.70495
4.71719
4.74756
4.78823
4.83046
4.8673
4.89464
4.9131
4.92324
4.92393
4.91395
4.89106
4.85112
4.79217
4.71649
4.63405
4.56279
4.52302
4.51835
4.5169
4.48396
527.842
524.11
4.57937
4.73051
4.81069
4.85927
4.88386
4.88307
4.85949
4.81867
4.76843
4.72006
4.68743
4.68184
4.70575
4.75189
4.8079
4.86302
4.91028
4.94644
4.97255
4.9906
5.00086
5.00281
4.9954
4.97653
4.94268
4.89086
4.81965
4.73318
4.64595
4.5776
4.54203
4.52135
4.47954
528.076
524.085
4.53799
4.68894
4.76759
4.81063
4.82742
4.81527
4.77465
4.7156
4.6595
4.62966
4.63767
4.67968
4.74239
4.81006
4.8716
4.92166
4.95868
4.9849
5.00315
5.01455
5.01931
5.0173
5.00758
4.98801
4.95606
4.91005
4.84934
4.77738
4.70254
4.63723
4.59272
4.55748
4.50117
527.972
524.071
4.51032
4.6527
4.71862
4.74295
4.73469
4.69533
4.64039
4.59926
4.5963
4.63611
4.70657
4.78811
4.86413
4.92699
4.97518
5.01039
5.03507
5.05226
5.06364
5.06953
5.06996
5.06456
5.05199
5.0302
4.99775
4.95363
4.89734
4.83219
4.76374
4.69984
4.64905
4.60285
4.53237
527.78
524.067
4.4803
4.60446
4.65007
4.64881
4.61388
4.56628
4.54086
4.56054
4.62235
4.70816
4.79706
4.87397
4.93469
4.98063
5.01458
5.03893
5.05615
5.06788
5.07462
5.07632
5.07268
5.06275
5.04446
5.01591
4.97654
4.92745
4.87261
4.81704
4.76317
4.71375
4.67078
4.62575
4.55319
527.845
524.064
4.44529
4.54593
4.57279
4.5567
4.52488
4.51679
4.55576
4.63412
4.73029
4.82415
4.90223
4.96218
5.00733
5.04102
5.06582
5.08362
5.0961
5.10412
5.10767
5.10633
5.09939
5.08531
5.0617
5.02701
4.98178
4.92887
4.87396
4.82156
4.77164
4.72511
4.68202
4.63637
4.56494
528.02
524.063
4.41502
4.49701
4.51827
4.51179
4.51538
4.55767
4.63361
4.72171
4.80753
4.88005
4.9372
4.98151
5.01594
5.04268
5.06318
5.07848
5.08957
5.09664
5.09905
5.09581
5.08548
5.0654
5.03259
4.98628
4.93044
4.8745
4.82961
4.79371
4.7598
4.72332
4.68253
4.63655
4.56714
528.374
524.064
4.40366
4.48108
4.51297
4.53262
4.57046
4.63329
4.70605
4.77617
4.84101
4.89719
4.94495
4.98503
5.01819
5.04504
5.06638
5.08317
5.09625
5.10554
5.11008
5.10849
5.09866
5.07694
5.03918
4.98357
4.9147
4.84661
4.79838
4.76784
4.74407
4.71596
4.67855
4.63214
4.56262
528.754
524.053
4.39563
4.48155
4.52708
4.56182
4.60442
4.65414
4.70269
4.74832
4.79706
4.84804
4.89774
4.94269
4.98075
5.01142
5.03563
5.0552
5.07142
5.08432
5.09305
5.09609
5.09096
5.07352
5.0385
4.98207
4.90655
4.82664
4.76834
4.73516
4.71801
4.69989
4.66929
4.62491
4.55634
529.142
524.029
4.37599
4.47392
4.5291
4.56924
4.60796
4.64304
4.67292
4.70237
4.74188
4.79546
4.85379
4.90792
4.95281
4.98764
5.01425
5.03562
5.05399
5.07005
5.08343
5.09285
5.09605
5.08896
5.06564
5.01985
4.94837
4.85845
4.77714
4.72005
4.69104
4.67558
4.65347
4.61587
4.55355
529.442
524.008
4.35375
4.45761
4.51843
4.55983
4.59295
4.61735
4.63636
4.65954
4.69836
4.75865
4.82424
4.88232
4.92753
4.96055
4.98473
5.00397
5.02118
5.03767
5.05348
5.0676
5.07806
5.08124
5.07157
5.04251
4.98786
4.90733
4.81784
4.73742
4.68293
4.65523
4.63567
4.60641
4.55523
529.68
523.999
4.33999
4.44311
4.50423
4.54357
4.57186
4.59279
4.61484
4.6491
4.70186
4.77003
4.83457
4.88542
4.92128
4.94568
4.96319
4.9778
4.99242
5.00846
5.02601
5.04402
5.06063
5.07261
5.07476
5.06087
5.02393
4.95988
4.87673
4.78667
4.70864
4.65802
4.62893
4.60221
4.56077
529.847
523.998
4.33272
4.43186
4.49012
4.5269
4.55433
4.57999
4.61347
4.66076
4.72046
4.78429
4.83709
4.87431
4.89795
4.91274
4.92335
4.93344
4.94566
4.96139
4.98074
5.00268
5.02547
5.04618
5.05982
5.06048
5.04099
4.99593
4.92812
4.8428
4.7543
4.68466
4.64187
4.61257
4.57593
530.02
523.999
4.32789
4.42302
4.47924
4.51687
4.54974
4.58601
4.63149
4.68553
4.74338
4.79575
4.83346
4.85617
4.86762
4.87289
4.87653
4.88195
4.89147
4.90644
4.92702
4.95232
4.98087
5.00995
5.03469
5.04914
5.04614
5.01988
4.96989
4.89564
4.80638
4.72366
4.66527
4.62837
4.59132
530.22
523.999
4.32369
4.41703
4.47388
4.51529
4.55564
4.60029
4.64988
4.70002
4.74687
4.78413
4.80681
4.81647
4.81728
4.81406
4.8112
4.8119
4.81824
4.8317
4.85275
4.8809
4.91541
4.95367
4.99054
5.0195
5.03327
5.02608
4.99501
4.93587
4.85462
4.77038
4.70392
4.65922
4.61541
530.475
523.996
4.31874
4.41232
4.47179
4.51824
4.56533
4.61447
4.66246
4.70462
4.73884
4.76216
4.77206
4.77073
4.76215
4.75061
4.74034
4.73458
4.73542
4.74463
4.76347
4.79253
4.83247
4.88088
4.93195
4.97796
5.01082
5.02415
5.01155
4.96594
4.89089
4.80429
4.72966
4.67682
4.62584
530.706
523.992
4.31363
4.40949
4.47272
4.52348
4.57396
4.62251
4.66412
4.69494
4.71502
4.72544
4.72497
4.71532
4.69933
4.68042
4.66232
4.64839
4.64106
4.64237
4.65468
4.68038
4.72279
4.78053
4.84725
4.91334
4.96935
5.00804
5.01884
4.99306
4.93253
4.8524
4.77518
4.71303
4.64748
530.902
523.984
4.30634
4.40473
4.47143
4.52453
4.57483
4.61986
4.65433
4.67572
4.68559
4.68759
4.68127
4.66718
4.64677
4.6227
4.59826
4.57672
4.56084
4.55219
4.55309
4.56771
4.60299
4.66209
4.74084
4.82776
4.90982
4.97591
5.01008
5.00151
4.95076
4.8727
4.7917
4.72284
4.64948
530.996
523.978
4.30051
4.40101
4.47008
4.52347
4.57106
4.61106
4.63872
4.6526
4.65493
4.65025
4.63929
4.62201
4.59976
4.57563
4.55304
4.53435
4.52009
4.50946
4.50204
4.50073
4.51461
4.55497
4.62726
4.72447
4.83219
4.93221
5.00128
5.02436
4.99736
4.93049
4.84742
4.76812
4.67984
531.059
523.975
4.29578
4.39616
4.46583
4.51858
4.56352
4.59971
4.62295
4.63234
4.63016
4.62084
4.60633
4.5879
4.56905
4.5549
4.54895
4.55045
4.55428
4.55497
4.5501
4.54011
4.53178
4.54048
4.58215
4.66072
4.7669
4.87775
4.96458
5.00766
4.99873
4.94443
4.86656
4.78704
4.69724
531.084
523.978
4.29846
4.39879
4.46869
4.52125
4.56484
4.59835
4.61734
4.62105
4.61225
4.59654
4.57897
4.56386
4.55727
4.56425
4.58463
4.61113
4.63282
4.64262
4.63988
4.62568
4.60672
4.60079
4.62791
4.69602
4.79973
4.91072
5.00201
5.05358
5.05304
5.00156
4.91968
4.83149
4.73103
531.161
523.984
4.30394
4.40477
4.47557
4.52903
4.57274
4.60465
4.62028
4.61987
4.60763
4.59054
4.57585
4.56894
4.57498
4.59658
4.6305
4.66728
4.69502
4.70674
4.70252
4.68305
4.65432
4.63793
4.66148
4.73525
4.84518
4.94955
5.02444
5.06174
5.05732
5.01163
4.93814
4.85246
4.74442
531.262
523.985
4.30377
4.40732
4.4809
4.53603
4.58066
4.6135
4.63063
4.63178
4.62007
4.60043
4.57904
4.56279
4.5588
4.57409
4.61084
4.6611
4.70866
4.7394
4.74933
4.73729
4.70123
4.65397
4.63253
4.6775
4.8001
4.95112
5.06659
5.11774
5.10553
5.04504
4.95968
4.86158
4.73675
531.512
523.975
4.2863
4.38871
4.46359
4.52045
4.56577
4.59988
4.62126
4.62814
4.62069
4.60035
4.57093
4.54178
4.52701
4.53912
4.58274
4.64865
4.71743
4.77175
4.80548
4.81837
4.80648
4.76248
4.69351
4.63532
4.63965
4.73615
4.88173
5.00619
5.06421
5.04997
4.98542
4.89227
4.7648
531.598
523.967
4.2722
4.37189
4.44595
4.50236
4.54637
4.57804
4.59669
4.59994
4.58622
4.55675
4.51882
4.4903
4.49064
4.52895
4.60024
4.68522
4.7613
4.8156
4.84707
4.85712
4.84356
4.8038
4.745
4.68778
4.66199
4.69949
4.7952
4.91045
4.99505
5.01818
4.98311
4.90924
4.7959
531.72
523.96
4.26298
4.36075
4.43178
4.48339
4.52097
4.54484
4.55515
4.55051
4.5301
4.49757
4.46546
4.45617
4.48356
4.54754
4.63462
4.72504
4.80309
4.86233
4.9023
4.92196
4.91685
4.87947
4.80813
4.72402
4.67283
4.69559
4.78016
4.8846
4.96848
5.0021
4.98172
4.92109
4.81743
531.879
523.951
4.24065
4.32969
4.39558
4.44343
4.47748
4.49749
4.5021
4.48887
4.4616
4.43513
4.43164
4.46639
4.537
4.62993
4.72764
4.81552
4.88612
4.93931
4.97752
5.00123
5.00755
4.98998
4.93914
4.84879
4.74328
4.68894
4.72741
4.82361
4.92133
4.97808
4.97885
4.9343
4.84502
531.966
523.951
4.24292
4.33038
4.38777
4.41848
4.4259
4.41303
4.38775
4.37134
4.38669
4.44632
4.54304
4.65903
4.7748
4.87457
4.95032
5.00368
5.04007
5.06362
5.07594
5.07636
5.06228
5.02884
4.97051
4.88535
4.78946
4.73352
4.75387
4.83205
4.91962
4.97533
4.98157
4.94564
4.86904
532.161
523.966
4.24177
4.30808
4.33782
4.34153
4.33475
4.34139
4.38392
4.47062
4.58943
4.71408
4.82124
4.89902
4.94936
4.98121
5.00383
5.02338
5.04231
5.06025
5.07496
5.0828
5.07878
5.05524
5.0025
4.91486
4.8091
4.74214
4.75799
4.84048
4.93193
4.98747
4.99363
4.9601
4.88801
532.387
523.982
4.24514
4.30118
4.33028
4.34876
4.37996
4.44295
4.53864
4.64667
4.74081
4.81063
4.86037
4.89877
4.93298
4.96661
5.00063
5.03465
5.06771
5.09841
5.12483
5.14406
5.15147
5.13981
5.09954
5.02104
4.90982
4.81231
4.78379
4.8419
4.93315
4.99493
5.00517
4.97431
4.90501
532.631
523.987
4.24899
4.30488
4.34064
4.3721
4.41612
4.48275
4.56974
4.66013
4.74042
4.80691
4.86035
4.90328
4.93898
4.97057
5.00056
5.03041
5.06037
5.08958
5.11644
5.13848
5.15183
5.15066
5.12718
5.07238
4.98532
4.89181
4.83428
4.85355
4.9292
4.99499
5.01257
4.98786
4.92595
532.878
523.977
4.24563
4.30703
4.34917
4.386
4.4293
4.4891
4.56868
4.65291
4.72755
4.787
4.83251
4.86848
4.89961
4.9295
4.96064
4.99403
5.02893
5.06368
5.09662
5.12555
5.14669
5.1548
5.14347
5.10626
5.04257
4.96445
4.89662
4.88182
4.92953
4.99135
5.01776
5.0032
4.95084
533.091
523.964
4.23055
4.29308
4.33535
4.37
4.40794
4.45928
4.52902
4.60837
4.68178
4.7419
4.78863
4.82576
4.8578
4.8886
4.92109
4.95657
4.99448
5.03305
5.07083
5.10621
5.13584
5.15492
5.15727
5.13682
5.09238
5.02927
4.96217
4.92553
4.9426
4.98756
5.01427
5.00693
4.96494
533.3
523.956
4.21638
4.27821
4.32304
4.36401
4.41219
4.47326
4.54697
4.62079
4.68237
4.72858
4.76247
4.78931
4.81383
4.83963
4.86916
4.90322
4.94101
4.98053
5.01986
5.05791
5.09279
5.12074
5.13693
5.13668
5.11752
5.07615
5.0195
4.97571
4.97406
5.00521
5.02989
5.02504
4.9853
533.483
523.952
4.21079
4.2744
4.32434
4.37256
4.42663
4.4862
4.54755
4.60372
4.64929
4.68442
4.71242
4.7372
4.76196
4.78911
4.82057
4.85704
4.89753
4.93988
4.98158
5.0216
5.05869
5.08946
5.11053
5.12066
5.11904
5.09847
5.05859
5.01665
4.99964
5.01221
5.0277
5.0206
4.9802
533.581
523.95
4.20594
4.27007
4.32222
4.37205
4.42455
4.47832
4.53006
4.57655
4.61482
4.64453
4.66774
4.6875
4.70694
4.72909
4.75657
4.79075
4.83129
4.87621
4.92247
4.96858
5.01331
5.05281
5.08311
5.10355
5.11263
5.10496
5.08123
5.05332
5.03966
5.04522
5.05009
5.03271
4.97924
533.67
523.948
4.20287
4.26736
4.32097
4.37183
4.42356
4.47433
4.52027
4.5589
4.58876
4.61034
4.6259
4.63867
4.65203
4.66909
4.69261
4.72436
4.76429
4.81054
4.85999
4.91116
4.96314
5.01212
5.05427
5.0885
5.10856
5.1084
5.08877
5.06071
5.0416
5.03857
5.03584
5.01331
4.95728
533.655
523.948
4.20148
4.26622
4.32083
4.37221
4.42298
4.47084
4.51118
4.54196
4.56315
4.57614
4.5834
4.58827
4.59444
4.60544
4.62443
4.65388
4.6942
4.74356
4.79837
4.85682
4.91781
4.9767
5.02996
5.07568
5.10657
5.11839
5.11159
5.09304
5.07489
5.06459
5.05218
5.02022
4.9527
533.568
523.947
4.20012
4.26523
4.32103
4.373
4.42232
4.46623
4.50004
4.5223
4.5339
4.537
4.53439
4.52947
4.52628
4.52898
4.54132
4.56672
4.60643
4.6591
4.7208
4.78961
4.86389
4.93696
5.00406
5.05885
5.09375
5.10667
5.10117
5.0851
5.0679
5.05482
5.03798
5.00151
4.93109
533.583
523.947
4.19636
4.26035
4.31562
4.36656
4.41214
4.44963
4.47616
4.49089
4.49497
4.49063
4.48062
4.46831
4.45797
4.45447
4.46236
4.48547
4.52609
4.58321
4.65265
4.73276
4.82152
4.91044
4.99392
5.06156
5.1055
5.12358
5.12027
5.10461
5.08488
5.06504
5.04251
5.003
4.9309
533.448
523.944
4.19012
4.25209
4.30494
4.35195
4.39169
4.42193
4.44141
4.44983
4.44787
4.43707
4.42005
4.4006
4.38351
4.37411
4.37757
4.39826
4.43967
4.50184
4.58214
4.67849
4.78552
4.89305
4.99252
5.07121
5.12087
5.13902
5.13092
5.10897
5.08661
5.06789
5.04661
5.00488
4.92205
533.376
523.939
4.17189
4.22457
4.26907
4.30727
4.33881
4.36203
4.37584
4.38006
4.37541
4.36334
4.34689
4.33031
4.31755
4.31184
4.3166
4.33556
4.37275
4.43189
4.51538
4.62134
4.74266
4.86915
4.98667
5.08038
5.14147
5.16686
5.15987
5.13121
5.09571
5.06313
5.03218
4.98469
4.89867
533.31
523.935
4.15281
4.19362
4.22724
4.25469
4.2762
4.29151
4.3006
4.30376
4.30188
4.29658
4.29009
4.28482
4.28293
4.28628
4.29671
4.31705
4.35128
4.40447
4.48189
4.58705
4.71819
4.86435
5.00557
5.12058
5.19518
5.22399
5.21113
5.17146
5.12454
5.08397
5.04945
5.00138
4.91073
532.925
523.933
4.14212
4.17485
4.20055
4.22002
4.23432
4.24443
4.25113
4.25526
4.25769
4.25938
4.26158
4.26566
4.27302
4.2851
4.30382
4.33204
4.37254
4.42731
4.49937
4.59426
4.71763
4.86916
5.03399
5.18522
5.2972
5.35385
5.35055
5.29675
5.21722
5.14087
5.08042
5.01547
4.91036
532.824
523.933
4.13294
4.15961
4.18144
4.20005
4.21702
4.2329
4.24749
4.26039
4.27167
4.28197
4.2926
4.30514
4.32149
4.34447
4.37708
4.4216
4.47841
4.54559
4.62037
4.70362
4.79999
4.91501
5.04789
5.18581
5.30744
5.39044
5.41963
5.39218
5.32198
5.23622
5.15895
5.07653
4.94906
532.677
523.937
4.14222
4.17691
4.21039
4.24401
4.27682
4.30647
4.33122
4.35098
4.36751
4.3833
4.40063
4.42107
4.44565
4.47517
4.51059
4.55286
4.60178
4.65727
4.72191
4.80081
4.8994
5.01978
5.15616
5.29331
5.41118
5.49079
5.51797
5.48745
5.40811
5.30473
5.20527
5.10084
4.95489
532.816
523.947
4.15986
4.20429
4.24848
4.29061
4.32717
4.35642
4.37906
4.3965
4.40993
4.42076
4.43088
4.4429
4.46027
4.48652
4.52411
4.5736
4.63337
4.699
4.76405
4.82764
4.89654
4.98218
5.09448
5.23054
5.37097
5.48815
5.55738
5.56445
5.50958
5.41094
5.29858
5.17523
5.01424
532.847
523.949
4.15961
4.19657
4.2275
4.25513
4.28473
4.31778
4.35315
4.38727
4.41573
4.4368
4.45127
4.46038
4.46682
4.47602
4.49547
4.53351
4.59808
4.69395
4.81804
4.95037
5.07288
5.17808
5.27183
5.36476
5.46056
5.54896
5.6087
5.61915
5.57096
5.47403
5.3551
5.22155
5.05514
533.09
523.939
4.1375
4.16419
4.18684
4.20994
4.23923
4.27808
4.32574
4.37838
4.42951
4.47514
4.51506
4.54909
4.57577
4.59211
4.59553
4.58691
4.57399
4.57414
4.61242
4.71053
4.86522
5.04896
5.22906
5.38577
5.51424
5.61375
5.67778
5.69442
5.654
5.56065
5.43592
5.28718
5.10546
533.465
523.937
4.14453
4.18739
4.23549
4.28929
4.34537
4.39887
4.44531
4.48145
4.50612
4.52177
4.53153
4.53789
4.5429
4.54853
4.55639
4.56655
4.57788
4.5909
4.61499
4.66961
4.77349
4.93023
5.11936
5.30854
5.4728
5.59962
5.68209
5.71344
5.68798
5.60943
5.49167
5.34311
5.16417
533.844
523.942
4.18583
4.26002
4.328
4.3841
4.42444
4.44931
4.46272
4.47048
4.47719
4.48517
4.49555
4.50897
4.52502
4.54272
4.56132
4.58097
4.60333
4.633
4.67961
4.74996
4.85471
5.00037
5.17743
5.36138
5.52601
5.65337
5.73367
5.76135
5.73501
5.65692
5.5396
5.38999
5.21014
534.243
523.941
4.15663
4.20319
4.24475
4.28125
4.31345
4.3421
4.36761
4.39012
4.40949
4.42614
4.44122
4.45582
4.47099
4.48832
4.50903
4.53343
4.56135
4.59503
4.64227
4.71419
4.82003
4.96602
5.14638
5.33895
5.51586
5.65541
5.74563
5.78155
5.76184
5.68925
5.57665
5.42931
5.24704
534.578
523.94
4.14908
4.1955
4.24069
4.28063
4.31137
4.33336
4.35196
4.37203
4.39279
4.41027
4.42222
4.42864
4.43237
4.43899
4.45364
4.47861
4.51312
4.55658
4.6113
4.68293
4.78233
4.92148
5.10002
5.3009
5.49348
5.64987
5.75385
5.80076
5.78826
5.72163
5.61518
5.47303
5.29174
534.728
523.943
4.16044
4.21185
4.25346
4.28251
4.30517
4.33695
4.38988
4.45751
4.51895
4.55788
4.56984
4.55547
4.52115
4.48216
4.45593
4.45275
4.47267
4.51102
4.56442
4.63204
4.72117
4.8461
5.01622
5.22087
5.43067
5.61175
5.74111
5.80967
5.8126
5.75707
5.65937
5.52337
5.34531
534.918
523.945
4.14604
4.1829
4.21497
4.25272
4.31936
4.43334
4.58131
4.72158
4.81833
4.86193
4.8589
4.81374
4.73185
4.63204
4.54258
4.48711
4.47393
4.49767
4.54712
4.61127
4.69078
4.79829
4.94931
5.14511
5.36264
5.56553
5.72162
5.81248
5.83157
5.78745
5.69865
5.57082
5.4009
534.972
523.951
4.15328
4.19981
4.25834
4.35134
4.5006
4.69334
4.87815
5.0085
5.0738
5.0881
5.06497
5.00689
4.91326
4.79396
4.67114
4.57129
4.51464
4.50652
4.53827
4.59342
4.66585
4.76555
4.90666
5.09075
5.30076
5.51064
5.69337
5.81755
5.86404
5.83833
5.76053
5.63675
5.46172
535.112
523.956
4.15308
4.20119
4.27248
4.3873
4.54775
4.72094
4.86482
4.96278
5.0219
5.05371
5.06495
5.05566
5.01904
4.94722
4.8415
4.7168
4.60041
4.52359
4.50508
4.53875
4.60119
4.68909
4.82824
5.03481
5.27549
5.49586
5.67475
5.80313
5.86678
5.86048
5.79712
5.67871
5.49242
535.229
523.952
4.15092
4.20696
4.29248
4.41313
4.55355
4.68584
4.79124
4.86681
4.9176
4.95049
4.97238
4.98844
5.00018
5.00212
4.97938
4.91321
4.79525
4.64083
4.49484
4.41924
4.44695
4.54615
4.6771
4.86017
5.12551
5.42224
5.66314
5.80949
5.8734
5.87004
5.81244
5.69399
5.4918
535.351
523.953
4.18962
4.28999
4.42041
4.56586
4.69831
4.79726
4.85874
4.88946
4.89894
4.89499
4.88192
4.86188
4.83863
4.82124
4.82259
4.84589
4.86844
4.84304
4.72578
4.52959
4.34943
4.30281
4.40989
4.60932
4.87699
5.21236
5.55123
5.78749
5.89184
5.89746
5.83771
5.71143
5.50279
535.352
523.954
4.23397
4.36616
4.50021
4.61133
4.68323
4.72176
4.74616
4.77202
4.80266
4.83184
4.85184
4.85784
4.84643
4.81414
4.76406
4.71588
4.6983
4.71865
4.74057
4.70178
4.56566
4.39493
4.31574
4.3838
4.57606
4.8744
5.2523
5.60588
5.82989
5.91147
5.89197
5.78459
5.58529
535.254
523.952
4.24808
4.37583
4.47491
4.5364
4.57444
4.61386
4.66786
4.7309
4.78977
4.83581
4.86742
4.88643
4.89418
4.88952
4.8688
4.83006
4.78022
4.73603
4.70838
4.68456
4.63237
4.53844
4.44858
4.42991
4.51646
4.71006
5.0113
5.36771
5.6602
5.81813
5.85664
5.79739
5.63911
535.17
523.958
4.22996
4.32346
4.38898
4.43953
4.49446
4.562
4.63532
4.70296
4.75817
4.79961
4.82868
4.84755
4.85821
4.86232
4.8613
4.85574
4.84494
4.82989
4.81361
4.79462
4.76149
4.70437
4.63304
4.57722
4.57904
4.67114
4.88266
5.20716
5.53698
5.75625
5.84389
5.82149
5.67165
535.008
523.959
4.17794
4.23385
4.2884
4.35132
4.42323
4.49814
4.57021
4.6365
4.69487
4.74284
4.77913
4.80479
4.8217
4.83166
4.83714
4.84116
4.84489
4.84904
4.85747
4.87254
4.88833
4.89445
4.88242
4.84974
4.81647
4.81637
4.8998
5.11772
5.41971
5.67035
5.79375
5.79246
5.63122
534.884
523.965
4.18759
4.26654
4.35792
4.45573
4.55227
4.64339
4.72707
4.79959
4.85519
4.8918
4.9113
4.91779
4.91538
4.90691
4.89634
4.89143
4.89839
4.91475
4.93592
4.96327
4.9966
5.02634
5.03951
5.02881
5.0005
4.98294
5.01551
5.15473
5.39414
5.62761
5.75538
5.75791
5.5885
534.715
523.987
4.24969
4.36132
4.46337
4.54985
4.6258
4.6981
4.7643
4.81417
4.83989
4.84478
4.8356
4.82313
4.81616
4.81811
4.8295
4.85291
4.89345
4.95226
5.02571
5.11099
5.20236
5.27986
5.32166
5.31743
5.27291
5.21226
5.18156
5.2516
5.42491
5.61264
5.7171
5.70736
5.53797
534.689
524.017
4.28197
4.37473
4.43971
4.49763
4.57512
4.67026
4.75324
4.79707
4.80436
4.78619
4.76121
4.75192
4.76521
4.79332
4.82963
4.87694
4.94416
5.03965
5.16241
5.30325
5.44372
5.55693
5.62088
5.62663
5.57913
5.50049
5.43571
5.44209
5.53516
5.65156
5.7111
5.67216
5.4829
534.758
524.011
4.23404
4.28682
4.34387
4.45106
4.60881
4.75714
4.84796
4.88386
4.88543
4.8718
4.87364
4.91324
4.98651
5.07139
5.15505
5.2403
5.33185
5.42844
5.5249
5.61941
5.71103
5.79124
5.84331
5.85199
5.81329
5.7402
5.66518
5.62258
5.62781
5.65233
5.6486
5.56566
5.34521
535.17
523.986
4.145
4.1756
4.24158
4.348
4.47968
4.61757
4.7443
4.83375
4.86604
4.84767
4.8036
4.79038
4.85905
4.99477
5.13778
5.2478
5.3356
5.43508
5.56377
5.70406
5.82337
5.90493
5.94936
5.96014
5.93882
5.89047
5.82731
5.76452
5.71187
5.6626
5.59178
5.45639
5.21295
535.507
523.992
4.1721
4.23855
4.33462
4.45418
4.58778
4.71551
4.81201
4.8706
4.89253
4.86771
4.79068
4.68685
4.63534
4.72326
4.94936
5.22658
5.44374
5.56777
5.64802
5.73691
5.84911
5.959
6.03232
6.05413
6.02903
5.9698
5.88764
5.79281
5.69299
5.58951
5.46873
5.30547
5.07683
535.775
523.979
4.22218
4.3482
4.50554
4.69026
4.87839
5.02245
5.09583
5.11423
5.09653
5.05202
4.98281
4.88337
4.76089
4.67254
4.71497
4.929
5.25207
5.55936
5.75793
5.8398
5.85662
5.86639
5.90262
5.95918
6.00354
6.00553
5.95665
5.86281
5.73311
5.57764
5.40182
5.20791
4.99457
535.821
523.965
4.16571
4.23888
4.34289
4.48242
4.63516
4.76905
4.86833
4.92997
4.95889
4.96183
4.93775
4.8822
4.795
4.68299
4.57736
4.5504
4.67773
4.96702
5.34178
5.69717
5.94384
6.04196
6.02655
5.96121
5.8997
5.86273
5.83092
5.77472
5.67689
5.53411
5.35318
5.15569
4.95975
535.774
523.978
4.22927
4.38607
4.5913
4.79512
4.93917
5.00767
5.02766
5.0308
5.03197
5.03469
5.03678
5.03146
5.00882
4.95749
4.86714
4.73981
4.60982
4.54768
4.6241
4.85811
5.2044
5.58081
5.8965
6.07137
6.09102
6.01099
5.89803
5.78412
5.66544
5.52479
5.34897
5.15
4.96206
535.563
523.991
4.31797
4.51684
4.69459
4.79618
4.83298
4.8604
4.90589
4.95679
4.99561
5.01798
5.02552
5.01952
5.00322
4.98032
4.94902
4.89977
4.8184
4.69755
4.55437
4.44103
4.42892
4.57161
4.87666
5.28728
5.68712
5.95532
6.0208
5.947
5.81106
5.64641
5.45753
5.24729
5.04755
535.338
523.996
4.28795
4.40962
4.49687
4.54276
4.57771
4.63163
4.70962
4.80076
4.89181
4.97185
5.03466
5.07743
5.09723
5.09309
5.07002
5.03632
4.99703
4.94836
4.8755
4.7584
4.58817
4.38834
4.22303
4.20355
4.44644
4.87889
5.39273
5.73235
5.83492
5.78369
5.6407
5.43578
5.2118
535.09
523.968
4.19234
4.25069
4.2935
4.33192
4.37977
4.44474
4.52707
4.62323
4.72638
4.82525
4.90975
4.97812
5.03245
5.07207
5.09233
5.08794
5.05847
5.01145
4.9606
4.91701
4.87355
4.79658
4.64285
4.38762
4.10374
4.11564
4.31595
4.82411
5.30855
5.56628
5.63023
5.55115
5.3775
534.949
523.958
4.14928
4.20545
4.28008
4.38106
4.50601
4.64449
4.78355
4.91024
5.01231
5.08229
5.12336
5.14341
5.14847
5.14284
5.1307
5.11771
5.10892
5.10253
5.08626
5.04764
4.99319
4.94583
4.90815
4.83155
4.63868
4.32478
4.30152
4.24379
4.7185
5.19191
5.46405
5.55231
5.50093
534.862
523.968
4.22546
4.37804
4.56528
4.76207
4.94231
5.08814
5.19123
5.2465
5.25859
5.24152
5.21146
5.18479
5.16992
5.16419
5.15879
5.14749
5.13221
5.1204
5.11604
5.11652
5.11976
5.13051
5.15011
5.156
5.09211
4.87871
4.50099
4.16025
4.30865
4.83074
5.26446
5.50002
5.57693
534.852
523.999
4.40749
4.68082
4.91971
5.08857
5.17844
5.19614
5.16208
5.08586
4.97972
4.87652
4.81644
4.81929
4.86997
4.94023
5.01309
5.08154
5.14286
5.19774
5.24875
5.2977
5.34451
5.38826
5.42363
5.43734
5.39652
5.23934
4.8987
4.4472
4.30561
4.69876
5.16876
5.48043
5.61505
534.851
524.016
4.53005
4.79043
4.92837
4.98263
5.00834
5.03047
5.05005
5.0661
5.07759
5.0788
5.0689
5.05782
5.06141
5.09018
5.14298
5.21127
5.28608
5.36086
5.43141
5.49565
5.55223
5.59941
5.63015
5.62972
5.568
5.39643
5.07228
4.66793
4.52519
4.83583
5.23122
5.49918
5.56594
534.743
523.989
4.34592
4.51762
4.68177
4.85557
5.01581
5.13669
5.20855
5.23333
5.22075
5.18161
5.1288
5.07072
5.01698
4.98617
4.99706
5.05399
5.1451
5.25264
5.36312
5.46952
5.56783
5.65308
5.71742
5.74485
5.70413
5.54624
5.23782
4.86587
4.74065
5.00234
5.32455
5.52387
5.4978
534.55
524.05
4.41982
4.66487
4.88795
5.04611
5.11896
5.11922
5.06699
4.97034
4.85863
4.7802
4.76915
4.81394
4.88245
4.96019
5.05005
5.15344
5.26494
5.37819
5.48905
5.59492
5.69329
5.7792
5.84257
5.86515
5.81626
5.65468
5.3628
5.03419
4.92491
5.12709
5.3716
5.50052
5.40895
534.316
524.139
4.5983
4.86536
5.0362
5.11159
5.12782
5.11227
5.07407
5.02533
4.97879
4.95074
4.95734
5.00091
5.0671
5.14316
5.22529
5.31328
5.40679
5.50462
5.60466
5.70396
5.79864
5.88239
5.94503
5.96975
5.93009
5.79216
5.5409
5.24851
5.10246
5.19498
5.34822
5.41986
5.30591
534.118
524.135
4.51588
4.70817
4.85284
4.95856
5.02656
5.05643
5.05902
5.04563
5.02847
5.01784
5.01803
5.03624
5.07836
5.14289
5.22374
5.31541
5.41439
5.5181
5.6238
5.7284
5.82794
5.91667
5.98603
6.02267
6.00729
5.91617
5.73567
5.50307
5.33219
5.3062
5.34644
5.34934
5.22278
534.029
524.216
4.59363
4.81304
4.9578
5.01798
5.01496
4.97148
4.90467
4.84374
4.82427
4.86262
4.94269
5.03718
5.1311
5.22212
5.31231
5.40411
5.49906
5.59757
5.6987
5.79999
5.89717
5.98415
6.0522
6.08891
6.07856
6.00557
5.86464
5.68136
5.5179
5.427
5.3801
5.31599
5.16845
534.151
524.221
4.60754
4.80328
4.92692
5.00451
5.04754
5.05236
5.02304
4.96959
4.91322
4.8902
4.92097
4.99816
5.10055
5.21042
5.31833
5.42096
5.5183
5.61179
5.70302
5.79226
5.87809
5.95708
6.02296
6.06668
6.07662
6.0406
5.95219
5.82301
5.68267
5.56267
5.45558
5.32624
5.13198
534.423
524.113
4.43634
4.59194
4.71293
4.8057
4.86935
4.90095
4.89985
4.87216
4.829
4.78901
4.77971
4.82126
4.91282
5.04072
5.18735
5.33607
5.47447
5.59533
5.70058
5.79595
5.88399
5.96113
6.01826
6.04515
6.03415
5.9838
5.90066
5.79776
5.68557
5.57167
5.4457
5.28224
5.05739
534.976
524.031
4.33597
4.48984
4.6249
4.74602
4.85107
4.93006
4.97227
4.97173
4.92999
4.85464
4.76132
4.67941
4.63937
4.66071
4.75039
4.90087
5.09333
5.29914
5.48298
5.61691
5.70062
5.75245
5.7959
5.84327
5.88657
5.9056
5.88162
5.81008
5.70224
5.57149
5.41755
5.22386
4.97659
535.382
523.992
4.26692
4.37531
4.45
4.50944
4.57799
4.66973
4.78053
4.89203
4.98049
5.02544
5.01495
4.94663
4.82827
4.68182
4.54212
4.44392
4.42239
4.50942
4.71347
5.00652
5.32777
5.60191
5.7765
5.83858
5.80751
5.72287
5.63665
5.57419
5.51994
5.44838
5.33771
5.16555
4.92101
535.745
523.974
4.17524
4.24049
4.30699
4.37889
4.45254
4.52063
4.58106
4.64012
4.70775
4.79139
4.89116
4.99518
5.08111
5.1252
5.10826
5.01378
4.83459
4.59507
4.35963
4.20809
4.20017
4.35213
4.6422
5.01125
5.38166
5.65207
5.75466
5.71265
5.59124
5.44642
5.29894
5.1288
4.90893
535.647
523.974
4.16321
4.22321
4.28652
4.35639
4.43596
4.52699
4.6265
4.72416
4.80434
4.85281
4.86407
4.84347
4.80318
4.76311
4.75503
4.81441
4.95052
5.11483
5.22726
5.23668
5.1287
4.91395
4.6493
4.43671
4.38742
4.55615
4.88292
5.22508
5.42648
5.46062
5.38555
5.22778
4.99969
535.328
523.977
4.16177
4.22431
4.2981
4.38471
4.48143
4.58134
4.6753
4.75487
4.81513
4.85622
4.88348
4.90512
4.93014
4.96542
5.0101
5.05618
5.09673
5.13398
5.17621
5.22678
5.27672
5.30065
5.2636
5.13435
4.91811
4.68005
4.55289
4.66331
4.9501
5.20495
5.31845
5.2927
5.15295
535.072
523.995
4.20423
4.3009
4.4138
4.5367
4.65877
4.76832
4.8556
4.9137
4.93994
4.93614
4.91155
4.88192
4.86604
4.8778
4.91927
4.98939
5.08907
5.21789
5.36819
5.52185
5.65428
5.74227
5.76387
5.69777
5.52591
5.23765
4.87795
4.61438
4.65157
4.92351
5.15809
5.24676
5.22534
534.907
524.032
4.27836
4.41551
4.56079
4.69629
4.80593
4.87961
4.91237
4.90242
4.85572
4.79068
4.7393
4.7547
4.87317
5.07209
5.29474
5.49895
5.67305
5.8241
5.9612
6.08664
6.19443
6.27173
6.3001
6.25841
6.12484
5.87804
5.51324
5.10297
4.84951
4.90379
5.08869
5.20431
5.22124
534.327
524.063
4.32935
4.47915
4.61762
4.72701
4.8031
4.8474
4.8591
4.83843
4.79526
4.75598
4.77142
4.89224
5.10888
5.35136
5.55745
5.71533
5.84464
5.96542
6.08773
6.21178
6.33127
6.43554
6.50874
6.52835
6.46792
6.30471
6.02522
5.64852
5.28468
5.11613
5.1557
5.22116
5.19579
533.696
524.064
4.3167
4.44875
4.56855
4.67286
4.76446
4.83914
4.88477
4.88743
4.8396
4.74982
4.65205
4.61521
4.72047
4.96139
5.24974
5.51109
5.72026
5.89016
6.04426
6.19778
6.34935
6.48445
6.58564
6.63083
6.58479
6.40979
6.1015
5.72136
5.38973
5.22244
5.2011
5.19679
5.08159
533.432
524.041
4.28623
4.41032
4.5256
4.62948
4.72096
4.79642
4.84948
4.87065
4.85053
4.7883
4.70137
4.63337
4.65084
4.79951
5.05335
5.34492
5.61516
5.82461
5.96411
6.0545
6.12232
6.18893
6.26001
6.31661
6.32449
6.25147
6.08477
5.85049
5.61348
5.43453
5.30611
5.16779
4.9347
533.88
524.007
4.23628
4.33903
4.43477
4.52468
4.61311
4.70333
4.79351
4.87445
4.92838
4.93056
4.85932
4.71338
4.52549
4.36643
4.31916
4.42403
4.68066
5.05377
5.46387
5.82912
6.0992
6.23594
6.26232
6.20431
6.07998
5.92548
5.77511
5.63529
5.50156
5.36954
5.22411
5.04107
4.78695
534.693
523.99
4.18774
4.25964
4.32813
4.39355
4.45584
4.51525
4.57597
4.64902
4.74926
4.88402
5.03744
5.16646
5.21831
5.15015
4.94759
4.64358
4.33264
4.15705
4.16305
4.18696
4.48179
4.88568
5.34431
5.76817
6.07861
6.20496
6.16384
6.00007
5.76998
5.52879
5.29982
5.06732
4.79432
534.618
523.984
4.17525
4.24293
4.311
4.3795
4.44898
4.52048
4.59317
4.66166
4.71603
4.74707
4.75489
4.75486
4.77562
4.85105
4.99268
5.15414
5.24909
5.22168
5.06859
4.81597
4.49054
4.21983
4.22264
4.19553
4.38594
4.76784
5.22321
5.64143
5.83348
5.79335
5.60638
5.31762
4.95622
534.1
523.981
4.15636
4.20904
4.26193
4.31598
4.37255
4.43258
4.49596
4.56228
4.63194
4.70633
4.78587
4.86729
4.94218
4.999
5.02947
5.03686
5.0365