/*--------------------------------*- C++ -*----------------------------------*\
| =========                 |                                                 |
| \\      /  F ield         | OpenFOAM: The Open Source CFD Toolbox           |
|  \\    /   O peration     | Version:  v2006                                 |
|   \\  /    A nd           | Website:  www.openfoam.com                      |
|    \\/     M anipulation  |                                                 |
\*---------------------------------------------------------------------------*/
FoamFile
{
    version     2.0;
    format      ascii;
    class       volScalarField;
    location    "22";
    object      T;
}
// * * * * * * * * * * * * * * * * * * * * * * * * * * * * * * * * * * * * * //

dimensions      [0 0 0 1 0 0 0];


internalField   nonuniform List<scalar> 
78750
(
298.837
297.916
297.933
297.915
297.901
297.892
297.886
297.883
297.881
297.879
297.877
297.876
297.874
297.873
297.871
297.87
297.868
297.867
297.865
297.863
297.862
297.86
297.858
297.856
297.854
297.852
297.85
297.848
297.845
297.842
297.838
297.862
298.035
298.594
299.619
299.441
298.641
298.241
298.073
298.003
297.974
297.966
297.965
297.967
297.968
297.97
297.971
297.971
297.971
297.971
297.971
297.97
297.968
297.966
297.964
297.961
297.957
297.952
297.947
297.941
297.935
297.93
297.926
297.927
297.94
297.985
298.113
298.407
298.971
299.917
299.586
298.915
298.479
298.222
298.104
298.07
298.071
298.079
298.088
298.096
298.103
298.109
298.116
298.122
298.128
298.133
298.138
298.141
298.143
298.143
298.141
298.138
298.132
298.123
298.113
298.103
298.094
298.09
298.102
298.145
298.251
298.466
298.824
299.408
300.37
299.6
298.977
298.598
298.356
298.205
298.127
298.096
298.087
298.09
298.097
298.107
298.118
298.131
298.146
298.161
298.177
298.193
298.208
298.222
298.233
298.242
298.247
298.25
298.249
298.245
298.236
298.224
298.212
298.206
298.225
298.308
298.515
298.892
299.5
300.46
299.691
299.147
298.8
298.565
298.387
298.263
298.184
298.138
298.115
298.106
298.109
298.119
298.137
298.159
298.184
298.212
298.239
298.264
298.286
298.303
298.317
298.328
298.335
298.34
298.343
298.343
298.343
298.345
298.357
298.4
298.512
298.749
299.139
299.761
300.756
299.713
299.197
298.872
298.647
298.461
298.316
298.215
298.15
298.113
298.096
298.093
298.101
298.117
298.141
298.171
298.205
298.242
298.278
298.311
298.337
298.358
298.374
298.387
298.395
298.401
298.407
298.416
298.434
298.469
298.537
298.672
298.931
299.353
300.02
301.051
299.747
299.275
298.953
298.731
298.549
298.399
298.283
298.202
298.152
298.127
298.123
298.135
298.161
298.198
298.243
298.29
298.334
298.372
298.403
298.425
298.441
298.452
298.46
298.464
298.467
298.471
298.481
298.51
298.577
298.705
298.925
299.271
299.757
300.46
301.494
299.769
299.331
299.017
298.802
298.625
298.472
298.351
298.266
298.214
298.19
298.191
298.211
298.247
298.29
298.336
298.378
298.414
298.443
298.465
298.482
298.494
298.503
298.509
298.512
298.511
298.51
298.512
298.527
298.579
298.705
298.95
299.351
299.896
300.627
301.634
299.792
299.395
299.094
298.883
298.715
298.568
298.446
298.356
298.299
298.277
298.284
298.311
298.35
298.391
298.429
298.463
298.491
298.513
298.53
298.543
298.553
298.561
298.566
298.568
298.567
298.563
298.56
298.563
298.593
298.686
298.903
299.295
299.848
300.579
301.57
299.802
299.424
299.129
298.922
298.757
298.611
298.492
298.412
298.372
298.368
298.387
298.419
298.453
298.486
298.515
298.539
298.559
298.574
298.587
298.597
298.605
298.611
298.615
298.616
298.615
298.611
298.606
298.605
298.621
298.686
298.86
299.208
299.735
300.456
301.452
299.809
299.443
299.152
298.942
298.774
298.629
298.522
298.46
298.44
298.447
298.469
298.497
298.525
298.55
298.573
298.592
298.607
298.62
298.632
298.641
298.649
298.656
298.66
298.663
298.663
298.661
298.659
298.662
298.683
298.754
298.927
299.264
299.763
300.467
301.48
299.814
299.455
299.166
298.953
298.781
298.641
298.55
298.507
298.5
298.514
298.537
298.562
298.585
298.607
298.625
298.641
298.654
298.666
298.676
298.685
298.693
298.7
298.706
298.711
298.714
298.716
298.717
298.726
298.756
298.838
299.023
299.366
299.851
300.541
301.573
299.816
299.463
299.177
298.962
298.788
298.657
298.581
298.551
298.55
298.565
298.586
298.608
298.628
298.646
298.662
298.676
298.688
298.699
298.71
298.72
298.73
298.739
298.749
298.759
298.77
298.781
298.795
298.82
298.873
298.986
299.203
299.563
300.042
300.725
301.772
299.815
299.458
299.177
298.962
298.789
298.669
298.606
298.585
298.589
298.605
298.625
298.644
298.663
298.679
298.693
298.705
298.716
298.727
298.738
298.75
298.761
298.773
298.788
298.804
298.824
298.848
298.878
298.924
299.003
299.145
299.39
299.764
300.248
300.939
301.992
299.825
299.483
299.209
299.003
298.837
298.718
298.654
298.63
298.63
298.642
298.658
298.675
298.69
298.704
298.717
298.728
298.739
298.75
298.761
298.773
298.786
298.8
298.818
298.841
298.87
298.908
298.96
299.032
299.141
299.313
299.581
299.965
300.459
301.165
302.216
299.843
299.531
299.273
299.085
298.935
298.816
298.741
298.703
298.69
298.69
298.698
298.707
298.718
298.728
298.739
298.749
298.759
298.769
298.781
298.792
298.805
298.82
298.838
298.861
298.892
298.937
298.999
299.09
299.223
299.419
299.709
300.109
300.617
301.335
302.383
299.86
299.581
299.346
299.174
299.039
298.926
298.844
298.792
298.763
298.748
298.743
298.743
298.748
298.755
298.763
298.772
298.781
298.792
298.803
298.815
298.828
298.843
298.861
298.884
298.915
298.958
299.022
299.118
299.262
299.475
299.786
300.208
300.735
301.462
302.508
299.871
299.615
299.399
299.239
299.112
299.003
298.916
298.853
298.813
298.788
298.776
298.772
298.774
298.779
298.786
298.794
298.803
298.814
298.825
298.837
298.851
298.867
298.886
298.909
298.94
298.982
299.043
299.136
299.279
299.497
299.818
300.261
300.806
301.542
302.591
299.879
299.638
299.433
299.279
299.155
299.044
298.954
298.887
298.843
298.816
298.803
298.798
298.799
298.803
298.809
298.817
298.826
298.836
298.848
298.861
298.876
298.893
298.913
298.939
298.971
299.015
299.077
299.169
299.311
299.528
299.855
300.312
300.871
301.616
302.675
299.883
299.651
299.452
299.302
299.177
299.065
298.974
298.909
298.866
298.841
298.828
298.823
298.823
298.826
298.832
298.839
298.847
298.857
298.869
298.883
298.899
298.919
298.942
298.972
299.009
299.057
299.124
299.22
299.364
299.584
299.915
300.381
300.95
301.707
302.779
299.888
299.663
299.47
299.323
299.199
299.087
298.998
298.935
298.894
298.87
298.856
298.85
298.848
298.849
298.852
298.858
298.865
298.875
298.887
298.902
298.92
298.943
298.971
299.006
299.05
299.106
299.183
299.29
299.447
299.681
300.025
300.501
301.076
301.838
302.917
299.893
299.677
299.49
299.346
299.225
299.116
299.03
298.968
298.927
298.901
298.886
298.877
298.872
298.87
298.87
298.873
298.879
298.888
298.9
298.916
298.937
298.963
298.997
299.039
299.091
299.158
299.246
299.367
299.54
299.79
300.15
300.636
301.214
301.975
303.048
299.899
299.693
299.515
299.377
299.261
299.156
299.072
299.01
298.968
298.939
298.919
298.906
298.896
298.889
298.885
298.884
298.887
298.894
298.905
298.921
298.944
298.975
299.015
299.066
299.129
299.209
299.314
299.454
299.648
299.92
300.297
300.785
301.355
302.105
303.161
299.906
299.714
299.546
299.415
299.306
299.208
299.126
299.063
299.017
298.983
298.957
298.936
298.92
298.906
298.896
298.889
298.888
298.891
298.9
298.915
298.939
298.972
299.017
299.073
299.144
299.234
299.35
299.504
299.713
300.001
300.388
300.876
301.44
302.179
303.218
299.913
299.735
299.578
299.455
299.354
299.263
299.183
299.119
299.067
299.026
298.991
298.962
298.938
298.917
298.901
298.889
298.883
298.884
298.892
298.907
298.931
298.966
299.013
299.072
299.147
299.243
299.369
299.535
299.759
300.059
300.452
300.933
301.485
302.213
303.245
299.919
299.752
299.606
299.49
299.394
299.307
299.228
299.159
299.101
299.051
299.009
298.973
298.944
298.919
298.9
298.887
298.881
298.882
298.891
298.909
298.937
298.976
299.026
299.085
299.154
299.241
299.356
299.515
299.735
300.038
300.438
300.926
301.482
302.214
303.248
299.921
299.761
299.62
299.508
299.414
299.326
299.243
299.169
299.105
299.051
299.007
298.972
298.944
298.921
298.905
298.894
298.89
298.894
298.908
298.931
298.969
299.024
299.091
299.164
299.24
299.328
299.44
299.594
299.808
300.102
300.49
300.962
301.509
302.243
303.28
299.922
299.763
299.622
299.509
299.414
299.324
299.239
299.165
299.103
299.054
299.017
298.989
298.966
298.948
298.931
298.918
298.91
298.911
298.922
298.945
298.988
299.055
299.144
299.245
299.346
299.442
299.548
299.687
299.889
300.176
300.56
301.019
301.562
302.305
303.345
299.928
299.778
299.641
299.531
299.439
299.354
299.275
299.206
299.149
299.106
299.074
299.049
299.027
299.004
298.98
298.956
298.935
298.923
298.921
298.931
298.958
299.011
299.102
299.232
299.391
299.565
299.741
299.922
300.132
300.403
300.755
301.181
301.71
302.461
303.505
299.938
299.805
299.679
299.576
299.491
299.415
299.346
299.284
299.233
299.192
299.158
299.128
299.098
299.066
299.033
299
298.972
298.952
298.942
298.94
298.946
298.963
299
299.068
299.182
299.347
299.56
299.809
300.086
300.403
300.776
301.208
301.734
302.484
303.536
299.946
299.829
299.717
299.624
299.546
299.477
299.415
299.358
299.307
299.26
299.216
299.174
299.132
299.09
299.05
299.014
298.985
298.966
298.957
298.959
298.972
299.001
299.049
299.12
299.214
299.338
299.506
299.731
300.014
300.357
300.76
301.217
301.761
302.52
303.579
299.951
299.844
299.741
299.653
299.579
299.513
299.453
299.397
299.344
299.296
299.252
299.21
299.168
299.126
299.084
299.045
299.013
298.989
298.975
298.969
298.972
298.988
299.024
299.092
299.199
299.342
299.519
299.738
300.016
300.365
300.785
301.26
301.82
302.591
303.655
299.959
299.866
299.775
299.694
299.625
299.564
299.511
299.462
299.415
299.366
299.313
299.254
299.192
299.13
299.076
299.033
299.004
298.987
298.981
298.981
298.986
298.996
299.015
299.05
299.118
299.237
299.411
299.636
299.919
300.276
300.716
301.221
301.804
302.592
303.676
299.959
299.871
299.787
299.716
299.656
299.599
299.536
299.459
299.369
299.274
299.183
299.102
299.039
298.996
298.973
298.969
298.975
298.988
299.005
299.023
299.044
299.067
299.097
299.138
299.204
299.308
299.463
299.674
299.947
300.297
300.737
301.251
301.85
302.659
303.759
299.959
299.869
299.778
299.69
299.597
299.486
299.363
299.243
299.139
299.062
299.015
298.996
298.997
299.01
299.026
299.043
299.057
299.069
299.08
299.091
299.103
299.118
299.141
299.179
299.245
299.354
299.519
299.742
300.023
300.376
300.816
301.33
301.937
302.763
303.875
299.944
299.825
299.706
299.586
299.455
299.32
299.204
299.121
299.075
299.057
299.056
299.06
299.065
299.069
299.072
299.076
299.081
299.088
299.098
299.11
299.126
299.147
299.175
299.217
299.283
299.389
299.556
299.791
300.093
300.461
300.908
301.421
302.034
302.877
304.001
299.932
299.79
299.655
299.524
299.39
299.271
299.185
299.134
299.108
299.095
299.089
299.086
299.086
299.089
299.094
299.101
299.11
299.12
299.133
299.148
299.166
299.189
299.218
299.26
299.322
299.421
299.578
299.813
300.129
300.523
300.99
301.517
302.141
302.995
304.123
299.928
299.776
299.64
299.517
299.398
299.299
299.229
299.185
299.159
299.143
299.133
299.127
299.125
299.125
299.127
299.132
299.139
299.148
299.16
299.176
299.196
299.222
299.257
299.304
299.37
299.468
299.615
299.836
300.148
300.554
301.045
301.593
302.233
303.096
304.223
299.932
299.79
299.664
299.556
299.456
299.368
299.3
299.249
299.211
299.184
299.165
299.153
299.146
299.143
299.144
299.148
299.155
299.165
299.178
299.194
299.215
299.242
299.278
299.328
299.399
299.5
299.649
299.866
300.173
300.581
301.086
301.654
302.315
303.194
304.326
299.936
299.803
299.684
299.583
299.49
299.405
299.335
299.282
299.242
299.214
299.196
299.184
299.178
299.176
299.177
299.182
299.19
299.2
299.214
299.231
299.254
299.283
299.323
299.376
299.449
299.552
299.7
299.916
300.224
300.64
301.161
301.746
302.419
303.3
304.416
299.939
299.812
299.698
299.601
299.512
299.431
299.365
299.313
299.273
299.245
299.224
299.21
299.202
299.198
299.198
299.201
299.208
299.219
299.233
299.252
299.276
299.309
299.355
299.419
299.506
299.623
299.782
300.002
300.308
300.723
301.247
301.834
302.509
303.383
304.477
299.944
299.826
299.719
299.628
299.546
299.471
299.408
299.357
299.317
299.287
299.264
299.248
299.238
299.234
299.233
299.237
299.244
299.254
299.268
299.286
299.309
299.342
299.389
299.456
299.551
299.683
299.863
300.106
300.428
300.847
301.363
301.934
302.596
303.463
304.537
299.949
299.84
299.741
299.655
299.578
299.507
299.446
299.394
299.352
299.32
299.295
299.278
299.268
299.263
299.263
299.268
299.276
299.287
299.302
299.321
299.345
299.378
299.426
299.495
299.592
299.729
299.917
300.173
300.512
300.946
301.467
302.026
302.67
303.507
304.541
299.953
299.853
299.76
299.678
299.605
299.538
299.478
299.428
299.387
299.355
299.331
299.314
299.305
299.301
299.303
299.309
299.318
299.33
299.345
299.363
299.386
299.419
299.467
299.538
299.639
299.782
299.975
300.233
300.569
300.993
301.498
302.036
302.658
303.477
304.503
299.957
299.864
299.777
299.699
299.631
299.569
299.513
299.465
299.426
299.396
299.373
299.357
299.348
299.346
299.35
299.357
299.368
299.38
299.395
299.411
299.431
299.46
299.503
299.569
299.667
299.811
300.014
300.284
300.63
301.054
301.545
302.067
302.68
303.499
304.525
299.961
299.875
299.794
299.721
299.656
299.598
299.548
299.504
299.468
299.439
299.417
299.404
299.397
299.398
299.404
299.414
299.427
299.441
299.455
299.471
299.489
299.514
299.55
299.604
299.688
299.815
300.002
300.262
300.606
301.032
301.525
302.044
302.646
303.444
304.452
299.964
299.885
299.809
299.74
299.679
299.627
299.581
299.544
299.513
299.489
299.472
299.463
299.46
299.463
299.472
299.483
299.496
299.51
299.523
299.537
299.554
299.578
299.612
299.663
299.742
299.861
300.035
300.28
300.609
301.021
301.502
302.012
302.609
303.413
304.43
299.972
299.907
299.841
299.781
299.727
299.681
299.642
299.611
299.585
299.566
299.553
299.545
299.543
299.545
299.552
299.56
299.57
299.579
299.589
299.599
299.612
299.631
299.66
299.707
299.783
299.899
300.073
300.318
300.646
301.057
301.536
302.043
302.635
303.422
304.408
299.981
299.933
299.883
299.835
299.791
299.752
299.718
299.69
299.666
299.647
299.633
299.624
299.621
299.621
299.626
299.633
299.64
299.648
299.655
299.663
299.671
299.682
299.698
299.723
299.768
299.848
299.984
300.199
300.51
300.92
301.405
301.912
302.484
303.231
304.189
299.985
299.946
299.904
299.863
299.825
299.79
299.757
299.727
299.701
299.68
299.665
299.658
299.657
299.663
299.673
299.684
299.695
299.704
299.712
299.721
299.734
299.756
299.789
299.832
299.889
299.966
300.078
300.25
300.51
300.875
301.331
301.823
302.389
303.148
304.14
299.983
299.938
299.889
299.837
299.782
299.724
299.669
299.62
299.584
299.564
299.559
299.57
299.593
299.623
299.657
299.688
299.711
299.726
299.734
299.738
299.743
299.755
299.779
299.819
299.882
299.969
300.09
300.259
300.498
300.825
301.241
301.702
302.251
303.021
304.051
299.961
299.873
299.771
299.657
299.539
299.432
299.351
299.302
299.286
299.297
299.329
299.379
299.441
299.509
299.575
299.633
299.679
299.713
299.74
299.763
299.787
299.817
299.858
299.913
299.986
300.081
300.208
300.379
300.613
300.924
301.313
301.749
302.29
303.078
304.133
299.922
299.756
299.586
299.422
299.286
299.193
299.14
299.116
299.11
299.119
299.14
299.177
299.232
299.303
299.386
299.473
299.555
299.624
299.675
299.709
299.732
299.755
299.789
299.845
299.929
300.045
300.194
300.382
300.622
300.927
301.3
301.724
302.257
303.044
304.118
299.937
299.802
299.673
299.555
299.457
299.381
299.322
299.272
299.227
299.191
299.165
299.152
299.156
299.183
299.237
299.319
299.425
299.547
299.67
299.779
299.861
299.911
299.94
299.964
300.007
300.088
300.218
300.404
300.65
300.961
301.337
301.765
302.312
303.125
304.234
299.97
299.9
299.828
299.757
299.686
299.615
299.542
299.471
299.404
299.348
299.302
299.263
299.227
299.193
299.161
299.139
299.138
299.173
299.256
299.388
299.556
299.731
299.885
300.005
300.1
300.194
300.315
300.484
300.717
301.021
301.394
301.83
302.401
303.26
304.418
299.955
299.857
299.752
299.637
299.52
299.409
299.311
299.231
299.172
299.132
299.109
299.096
299.09
299.092
299.1
299.112
299.127
299.149
299.186
299.253
299.365
299.519
299.699
299.878
300.038
300.185
300.337
300.522
300.761
301.07
301.45
301.901
302.498
303.394
304.583
299.916
299.746
299.588
299.451
299.345
299.275
299.238
299.223
299.22
299.224
299.23
299.237
299.244
299.251
299.258
299.265
299.275
299.292
299.323
299.376
299.462
299.588
299.747
299.923
300.098
300.267
300.439
300.636
300.881
301.193
301.578
302.042
302.665
303.589
304.783
299.936
299.807
299.69
299.587
299.501
299.428
299.365
299.311
299.269
299.239
299.218
299.204
299.197
299.197
299.204
299.218
299.239
299.267
299.307
299.366
299.451
299.573
299.732
299.92
300.12
300.322
300.529
300.756
301.023
301.35
301.746
302.219
302.854
303.782
304.955
299.945
299.829
299.714
299.605
299.506
299.424
299.359
299.313
299.283
299.264
299.256
299.255
299.259
299.265
299.27
299.273
299.277
299.289
299.314
299.357
299.429
299.537
299.688
299.88
300.098
300.329
300.566
300.819
301.105
301.444
301.845
302.318
302.948
303.863
305.011
299.935
299.8
299.67
299.553
299.456
299.378
299.316
299.263
299.219
299.187
299.172
299.175
299.194
299.226
299.261
299.289
299.306
299.317
299.332
299.36
299.412
299.498
299.63
299.811
300.036
300.29
300.563
300.853
301.172
301.533
301.944
302.417
303.042
303.948
305.079
299.94
299.813
299.691
299.579
299.479
299.385
299.29
299.196
299.114
299.059
299.036
299.043
299.079
299.141
299.218
299.29
299.342
299.372
299.388
299.406
299.44
299.502
299.606
299.763
299.975
300.232
300.52
300.83
301.17
301.55
301.973
302.448
303.065
303.956
305.071
299.935
299.798
299.664
299.536
299.414
299.289
299.16
299.041
298.952
298.9
298.883
298.894
298.933
299.003
299.1
299.21
299.314
299.394
299.445
299.476
299.507
299.557
299.64
299.769
299.953
300.195
300.49
300.825
301.19
301.583
302.01
302.483
303.102
304
305.126
299.943
299.821
299.703
299.587
299.469
299.341
299.212
299.1
299.016
298.961
298.925
298.902
298.89
298.895
298.93
299.002
299.111
299.243
299.377
299.488
299.569
299.636
299.721
299.85
300.027
300.246
300.511
300.83
301.203
301.618
302.059
302.539
303.162
304.066
305.195
299.96
299.87
299.771
299.659
299.531
299.398
299.277
299.185
299.125
299.09
299.067
299.048
299.024
298.99
298.946
298.902
298.883
298.916
299.017
299.18
299.377
299.567
299.725
299.873
300.058
300.3
300.585
300.903
301.264
301.674
302.12
302.609
303.245
304.157
305.274
299.954
299.846
299.714
299.561
299.405
299.275
299.187
299.141
299.125
299.125
299.133
299.145
299.161
299.18
299.194
299.19
299.152
299.077
298.992
298.947
298.997
299.161
299.409
299.682
299.956
300.254
300.593
300.96
301.344
301.747
302.177
302.655
303.283
304.172
305.248
299.927
299.77
299.604
299.45
299.336
299.272
299.249
299.24
299.228
299.205
299.176
299.148
299.127
299.119
299.127
299.157
299.203
299.246
299.26
299.234
299.186
299.167
299.236
299.412
299.667
299.981
300.362
300.801
301.266
301.725
302.171
302.64
303.243
304.09
305.122
299.913
299.739
299.59
299.485
299.427
299.398
299.372
299.333
299.284
299.235
299.196
299.167
299.149
299.138
299.132
299.134
299.146
299.174
299.216
299.262
299.3
299.33
299.373
299.461
299.618
299.851
300.173
300.595
301.093
301.615
302.116
302.61
303.206
304.025
305.034
299.922
299.775
299.66
299.58
299.52
299.464
299.405
299.344
299.289
299.243
299.209
299.185
299.172
299.167
299.169
299.178
299.194
299.218
299.254
299.302
299.362
299.427
299.495
299.571
299.673
299.827
300.066
300.423
300.903
301.456
302.008
302.536
303.144
303.957
304.958
299.951
299.853
299.771
299.698
299.628
299.558
299.49
299.425
299.366
299.316
299.276
299.249
299.232
299.223
299.217
299.212
299.209
299.213
299.233
299.277
299.352
299.456
299.579
299.706
299.828
299.956
300.127
300.402
300.826
301.376
301.962
302.516
303.132
303.937
304.931
299.96
299.869
299.77
299.664
299.557
299.454
299.359
299.277
299.212
299.169
299.151
299.154
299.173
299.2
299.227
299.248
299.259
299.262
299.264
299.275
299.31
299.379
299.489
299.634
299.796
299.958
300.132
300.369
300.737
301.257
301.847
302.409
303.027
303.836
304.848
299.941
299.808
299.669
299.54
299.429
299.338
299.267
299.215
299.191
299.197
299.23
299.287
299.355
299.407
299.428
299.416
299.385
299.354
299.34
299.354
299.402
299.485
299.602
299.75
299.916
300.088
300.263
300.472
300.782
301.236
301.781
302.325
302.945
303.784
304.851
299.919
299.758
299.623
299.522
299.445
299.375
299.307
299.258
299.248
299.28
299.362
299.482
299.597
299.659
299.654
299.596
299.516
299.446
299.412
299.428
299.496
299.604
299.74
299.895
300.062
300.238
300.421
300.63
300.906
301.287
301.746
302.247
302.884
303.8
304.96
299.929
299.799
299.698
299.609
299.502
299.37
299.245
299.168
299.151
299.194
299.301
299.452
299.604
299.713
299.766
299.782
299.787
299.794
299.811
299.843
299.899
299.986
300.101
300.238
300.39
300.557
300.744
300.963
301.235
301.577
301.98
302.467
303.152
304.129
305.32
299.968
299.899
299.821
299.724
299.605
299.476
299.349
299.231
299.131
299.068
299.065
299.159
299.359
299.597
299.78
299.869
299.896
299.913
299.958
300.036
300.137
300.249
300.37
300.509
300.671
300.858
301.07
301.313
301.599
301.934
302.32
302.808
303.505
304.459
305.596
299.972
299.895
299.795
299.675
299.549
299.435
299.349
299.294
299.253
299.207
299.153
299.124
299.189
299.4
299.709
300.003
300.197
300.285
300.327
300.38
300.474
300.606
300.755
300.905
301.059
301.232
301.439
301.687
301.98
302.318
302.708
303.199
303.868
304.74
305.797
299.939
299.797
299.634
299.463
299.309
299.196
299.133
299.111
299.115
299.134
299.157
299.17
299.184
299.242
299.406
299.687
300.016
300.306
300.508
300.63
300.714
300.809
300.942
301.118
301.319
301.529
301.742
301.972
302.234
302.543
302.914
303.389
304.02
304.832
305.841
299.961
299.871
299.772
299.665
299.557
299.454
299.361
299.282
299.221
299.182
299.166
299.174
299.2
299.238
299.3
299.426
299.652
299.966
300.316
300.645
300.913
301.106
301.242
301.36
301.5
301.682
301.901
302.143
302.401
302.687
303.028
303.468
304.062
304.838
305.817
299.947
299.82
299.662
299.49
299.34
299.248
299.216
299.22
299.232
299.237
299.23
299.213
299.196
299.188
299.195
299.226
299.302
299.45
299.688
300.008
300.379
300.762
301.117
301.412
301.634
301.804
301.97
302.167
302.403
302.677
302.997
303.406
303.969
304.725
305.684
299.914
299.725
299.535
299.389
299.324
299.321
299.331
299.327
299.309
299.291
299.279
299.271
299.267
299.265
299.266
299.27
299.281
299.308
299.373
299.501
299.712
300.013
300.39
300.813
301.243
301.628
301.927
302.149
302.354
302.589
302.881
303.264
303.804
304.552
305.506
299.913
299.75
299.616
299.531
299.504
299.504
299.502
299.485
299.452
299.411
299.369
299.329
299.294
299.265
299.247
299.24
299.243
299.257
299.281
299.319
299.383
299.492
299.673
299.95
300.33
300.797
301.305
301.775
302.139
302.428
302.72
303.082
303.591
304.321
305.27
299.946
299.842
299.761
299.704
299.669
299.643
299.617
299.585
299.546
299.503
299.461
299.422
299.388
299.355
299.323
299.29
299.257
299.228
299.21
299.21
299.232
299.28
299.356
299.472
299.658
299.953
300.383
300.933
301.522
302.037
302.456
302.864
303.379
304.101
305.05
299.974
299.916
299.861
299.807
299.748
299.682
299.611
299.538
299.469
299.41
299.364
299.333
299.312
299.3
299.296
299.298
299.305
299.311
299.31
299.296
299.274
299.256
299.26
299.297
299.373
299.505
299.737
300.125
300.692
301.353
301.973
302.517
303.093
303.846
304.826
299.97
299.891
299.793
299.68
299.563
299.455
299.365
299.298
299.258
299.241
299.241
299.252
299.265
299.276
299.28
299.279
299.277
299.278
299.283
299.29
299.296
299.303
299.317
299.344
299.388
299.46
299.581
299.806
300.212
300.819
301.517
302.171
302.83
303.651
304.702
299.93
299.771
299.605
299.46
299.356
299.301
299.289
299.306
299.345
299.4
299.459
299.509
299.538
299.545
299.535
299.517
299.496
299.476
299.46
299.451
299.449
299.454
299.468
299.491
299.526
299.577
299.659
299.809
300.098
300.6
301.282
301.993
302.729
303.626
304.727
299.895
299.695
299.548
299.47
299.445
299.439
299.436
299.434
299.431
299.429
299.431
299.44
299.461
299.491
299.525
299.554
299.576
299.589
299.596
299.6
299.606
299.615
299.633
299.661
299.703
299.765
299.858
300.009
300.274
300.727
301.373
302.066
302.814
303.731
304.806
299.936
299.818
299.722
299.632
299.541
299.46
299.402
299.369
299.359
299.362
299.367
299.366
299.364
299.377
299.414
299.471
299.531
299.582
299.62
299.647
299.67
299.692
299.72
299.758
299.811
299.89
300.008
300.186
300.468
300.914
301.526
302.174
302.887
303.77
304.79
299.94
299.806
299.664
299.536
299.447
299.411
299.419
299.46
299.531
299.613
299.673
299.688
299.665
299.634
299.62
299.627
299.648
299.673
299.697
299.721
299.745
299.773
299.808
299.857
299.926
300.028
300.177
300.393
300.707
301.152
301.711
302.291
302.941
303.755
304.724
299.907
299.715
299.546
299.435
299.394
299.399
299.435
299.496
299.575
299.66
299.735
299.785
299.81
299.817
299.816
299.815
299.818
299.825
299.835
299.848
299.865
299.889
299.923
299.973
300.048
300.16
300.326
300.565
300.897
301.332
301.836
302.354
302.948
303.712
304.671
299.918
299.754
299.616
299.518
299.462
299.442
299.453
299.49
299.554
299.64
299.729
299.803
299.855
299.887
299.907
299.92
299.93
299.939
299.948
299.959
299.974
299.995
300.026
300.074
300.146
300.255
300.417
300.648
300.965
301.371
301.829
302.302
302.873
303.653
304.66
299.906
299.711
299.549
299.453
299.422
299.437
299.485
299.566
299.677
299.805
299.925
300.019
300.08
300.112
300.126
300.13
300.129
300.127
300.126
300.128
300.134
300.147
300.171
300.212
300.28
300.386
300.547
300.775
301.082
301.461
301.877
302.322
302.893
303.705
304.764
299.885
299.667
299.514
299.436
299.408
299.41
299.437
299.494
299.589
299.728
299.893
300.055
300.19
300.285
300.341
300.365
300.368
300.36
300.347
300.337
300.332
300.336
300.354
300.392
300.458
300.563
300.717
300.93
301.209
301.549
301.926
302.357
302.953
303.832
304.97
299.905
299.733
299.611
299.536
299.488
299.456
299.44
299.449
299.493
299.581
299.721
299.905
300.106
300.3
300.464
300.584
300.653
300.677
300.669
300.648
300.627
300.618
300.626
300.655
300.711
300.805
300.951
301.16
301.434
301.762
302.134
302.59
303.242
304.18
305.355
299.924
299.779
299.666
299.588
299.536
299.493
299.45
299.41
299.38
299.375
299.409
299.497
299.648
299.853
300.096
300.356
300.605
300.817
300.965
301.037
301.043
301.014
300.987
300.996
301.06
301.179
301.342
301.54
301.777
302.064
302.417
302.88
303.55
304.492
305.648
299.941
299.827
299.738
299.681
299.65
299.632
299.616
299.59
299.55
299.493
299.428
299.368
299.331
299.339
299.412
299.56
299.784
300.078
300.424
300.786
301.118
301.373
301.523
301.574
301.565
301.554
301.604
301.762
302.027
302.362
302.742
303.21
303.867
304.773
305.881
299.966
299.895
299.831
299.778
299.733
299.694
299.663
299.641
299.632
299.634
299.641
299.643
299.629
299.59
299.526
299.449
299.38
299.361
299.437
299.633
299.942
300.337
300.783
301.241
301.669
302.019
302.249
302.371
302.463
302.612
302.88
303.29
303.897
304.755
305.801
299.979
299.93
299.883
299.84
299.8
299.761
299.72
299.677
299.631
299.587
299.55
299.525
299.519
299.536
299.578
299.644
299.714
299.761
299.758
299.709
299.647
299.613
299.656
299.822
300.145
300.622
301.212
301.838
302.405
302.831
303.148
303.466
303.915
304.601
305.538
299.985
299.945
299.901
299.854
299.805
299.755
299.705
299.661
299.625
299.602
299.592
299.596
299.61
299.632
299.653
299.67
299.68
299.689
299.7
299.717
299.735
299.748
299.749
299.742
299.751
299.827
300.04
300.455
301.069
301.772
302.417
302.958
303.504
304.23
305.211
299.982
299.933
299.875
299.812
299.747
299.687
299.635
299.596
299.572
299.565
299.576
299.605
299.65
299.706
299.765
299.818
299.861
299.894
299.914
299.923
299.922
299.917
299.907
299.894
299.882
299.88
299.925
300.087
300.465
301.088
301.841
302.554
303.232
304.023
305.002
299.971
299.899
299.819
299.739
299.67
299.618
299.586
299.574
299.583
299.614
299.671
299.757
299.864
299.964
300.029
300.054
300.049
300.033
300.017
300.004
299.995
299.99
299.989
299.99
299.994
300.008
300.047
300.154
300.41
300.896
301.591
302.327
303.03
303.806
304.732
299.962
299.874
299.787
299.713
299.662
299.631
299.616
299.612
299.623
299.656
299.717
299.805
299.898
299.966
299.994
299.991
299.977
299.962
299.952
299.947
299.949
299.955
299.968
299.986
300.01
300.044
300.096
300.19
300.383
300.762
301.37
302.078
302.776
303.54
304.475
299.962
299.877
299.8
299.739
299.695
299.663
299.636
299.614
299.601
299.605
299.639
299.71
299.822
299.95
300.048
300.094
300.093
300.069
300.039
300.016
300.002
300.001
300.009
300.027
300.055
300.105
300.194
300.349
300.609
301.008
301.537
302.092
302.696
303.47
304.462
299.965
299.89
299.822
299.77
299.734
299.709
299.69
299.674
299.661
299.656
299.67
299.714
299.798
299.92
300.054
300.169
300.246
300.28
300.279
300.26
300.238
300.229
300.247
300.299
300.38
300.484
300.614
300.787
301.028
301.355
301.761
302.24
302.865
303.732
304.847
299.974
299.916
299.86
299.815
299.781
299.757
299.739
299.721
299.699
299.669
299.635
299.607
299.603
299.643
299.736
299.877
300.051
300.242
300.43
300.588
300.704
300.774
300.81
300.833
300.869
300.945
301.086
301.299
301.573
301.899
302.28
302.755
303.405
304.286
305.384
299.985
299.947
299.907
299.873
299.845
299.824
299.812
299.809
299.814
299.823
299.825
299.807
299.762
299.691
299.613
299.555
299.548
299.619
299.765
299.962
300.191
300.445
300.714
300.989
301.252
301.48
301.662
301.819
301.996
302.236
302.56
302.978
303.546
304.332
305.337
299.99
299.96
299.928
299.898
299.872
299.85
299.832
299.814
299.796
299.779
299.767
299.766
299.781
299.812
299.853
299.884
299.885
299.846
299.785
299.725
299.692
299.713
299.813
299.997
300.26
300.592
300.978
301.392
301.78
302.084
302.341
302.646
303.112
303.874
304.968
299.996
299.978
299.957
299.936
299.917
299.901
299.887
299.877
299.869
299.866
299.865
299.864
299.859
299.85
299.837
299.823
299.815
299.818
299.831
299.853
299.874
299.887
299.887
299.879
299.883