/*--------------------------------*- C++ -*----------------------------------*\
| =========                 |                                                 |
| \\      /  F ield         | OpenFOAM: The Open Source CFD Toolbox           |
|  \\    /   O peration     | Version:  v2006                                 |
|   \\  /    A nd           | Website:  www.openfoam.com                      |
|    \\/     M anipulation  |                                                 |
\*---------------------------------------------------------------------------*/
FoamFile
{
    version     2.0;
    format      ascii;
    class       volScalarField;
    location    "19";
    object      alphat;
}
// * * * * * * * * * * * * * * * * * * * * * * * * * * * * * * * * * * * * * //

dimensions      [1 -1 -1 0 0 0 0];


internalField   nonuniform List<scalar> 
78750
(
5.53804e-06
1.86222e-05
1.22488e-05
4.48278e-05
6.7124e-05
3.82023e-05
1.64368e-05
9.99355e-06
1.96095e-05
3.7447e-05
4.24126e-05
3.08007e-05
2.01879e-05
2.38069e-05
1.12255e-05
4.23461e-06
3.25168e-05
8.16308e-05
0.000103608
6.90554e-05
6.98318e-05
9.48999e-05
0.000123757
0.000121795
0.000119124
0.000117449
0.000113118
0.000110161
0.000108571
0.000106725
0.000103642
9.51565e-05
7.96903e-05
6.82986e-05
6.26897e-06
3.09159e-05
0.00020251
9.6365e-05
0.000144776
0.000219821
0.000310275
0.000398452
0.000544909
0.00069796
0.000735678
0.000669784
0.000609509
0.000556304
0.000523427
0.000445617
0.000191113
8.50032e-05
6.30468e-05
7.99794e-05
0.000146044
0.000196636
0.000199268
0.000221337
0.000269997
0.00028936
0.000275966
0.000270963
0.000276109
0.000277085
0.000268281
0.000237439
0.000149721
5.63237e-05
2.06986e-05
3.22012e-06
1.08093e-05
9.44097e-06
1.75834e-05
3.27506e-05
5.93274e-05
8.98319e-05
0.000145581
0.00019902
0.000240469
0.000266517
0.000280183
0.000290027
0.000305372
0.000332124
0.000363703
0.000323784
0.000196607
0.000134992
0.000115053
9.93726e-05
8.28227e-05
7.31172e-05
7.66706e-05
9.63177e-05
0.000130113
0.000167402
0.000195521
0.000210331
0.000210789
0.000202249
0.000193759
0.000177048
0.000104607
2.49086e-05
8.90543e-07
1.34455e-05
0.00014338
0.000130002
9.54107e-05
8.75719e-05
0.000117283
0.000187173
0.000241229
0.000250907
0.000243868
0.000234391
0.000227369
0.000226789
0.000235283
0.000248216
0.000242141
0.000201394
0.00016036
0.000142292
0.000149155
0.000181489
0.000222428
0.00022778
0.000203545
0.000176699
0.000155127
0.000147988
0.00016368
0.000203624
0.000254685
0.000289033
0.000297888
0.000271378
0.000118799
3.75043e-06
4.92446e-06
0.000161089
0.000245178
0.000348424
0.000447762
0.000458141
0.000408292
0.000394432
0.000399079
0.000402238
0.000393711
0.000369448
0.000336581
0.000305305
0.000277697
0.000251654
0.000233728
0.000235623
0.000261437
0.000299914
0.000327573
0.000339996
0.000349517
0.000357979
0.000355161
0.000331755
0.000292602
0.000257677
0.000241166
0.000241624
0.000245921
0.000237111
0.000203236
0.000120631
3.31029e-06
3.74516e-06
0.000102968
0.000127418
0.00015729
0.000197922
0.000251831
0.000322736
0.000406789
0.000448305
0.000452581
0.000456083
0.000459061
0.000461668
0.000463939
0.000465815
0.000467224
0.000468213
0.000469001
0.000469842
0.000470889
0.000465476
0.000432761
0.00041063
0.000407612
0.000423482
0.000452161
0.000478298
0.000476778
0.000459267
0.000411175
0.000349836
0.000281537
0.00021674
0.000144484
2.57302e-06
5.95058e-06
0.000182021
0.000258629
0.000342224
0.000435998
0.000445797
0.000453414
0.000459257
0.000463668
0.000466938
0.00046933
0.000471098
0.00047247
0.000473637
0.000474736
0.000475861
0.000477063
0.000478368
0.000479771
0.000481239
0.000482703
0.00048405
0.000485093
0.000485554
0.000485046
0.000483051
0.000478913
0.000471857
0.000461035
0.000445611
0.000424863
0.000376923
0.000317818
0.000252253
3.01004e-06
6.34096e-06
0.000220738
0.000335602
0.000429241
0.00044546
0.000458086
0.000467882
0.000475435
0.000481184
0.000485471
0.000488578
0.000490747
0.000492195
0.000493112
0.000493662
0.00049398
0.000494166
0.000494284
0.000494353
0.000494345
0.000494185
0.000493736
0.000492799
0.000491099
0.000488281
0.000483904
0.000477426
0.000468216
0.000455573
0.000438756
0.000417042
0.000370729
0.000326983
0.000281781
3.55119e-06
5.75174e-06
0.000213148
0.000382148
0.000430382
0.000449235
0.000464002
0.000475519
0.000484376
0.000491002
0.000495756
0.00049897
0.000500953
0.000501982
0.000502297
0.000502092
0.000501517
0.00050068
0.000499642
0.000498424
0.000497
0.000495307
0.000493234
0.000490626
0.00048728
0.000482934
0.000477265
0.000469871
0.000460255
0.000447806
0.000431744
0.000411088
0.000384551
0.000350322
0.000305496
3.84439e-06
4.67371e-06
0.000157068
0.000262304
0.000379063
0.00044154
0.000455565
0.000466962
0.000476046
0.000483088
0.000488333
0.00049202
0.000494382
0.000495642
0.000496002
0.000495633
0.000494664
0.000493183
0.000491232
0.000488815
0.000485898
0.000482421
0.000478297
0.000473422
0.000467673
0.000460909
0.000452968
0.000443655
0.000432722
0.000419829
0.000404495
0.000386018
0.000363376
0.000333903
0.000259486
3.89738e-06
4.40094e-06
0.000143577
0.000319491
0.000421573
0.000438159
0.000451773
0.000462869
0.000471793
0.000478823
0.000484193
0.000488115
0.000490781
0.000492368
0.000493032
0.000492901
0.000492073
0.00049061
0.000488542
0.000485867
0.000482553
0.000478543
0.000473757
0.000468092
0.000461424
0.000453605
0.000444462
0.000433791
0.000421357
0.000406894
0.000390108
0.000370698
0.000348372
0.00028228
0.00017999
3.65489e-06
4.35515e-06
0.000114828
0.000223023
0.000367306
0.000439738
0.000450993
0.000460471
0.000468313
0.000474656
0.000479634
0.000483377
0.000486012
0.000487661
0.000488436
0.000488431
0.000487719
0.000486352
0.000484354
0.000481722
0.000478433
0.000474436
0.000469657
0.000463998
0.000457338
0.000449527
0.000440389
0.000429714
0.000417258
0.000402742
0.00038585
0.000366248
0.000341838
0.000295035
0.000177114
3.67679e-06
4.71834e-06
0.000132135
0.00028583
0.000427643
0.000441616
0.000453182
0.000462757
0.000470636
0.000477034
0.000482115
0.000486014
0.000488848
0.000490719
0.000491714
0.000491907
0.000491353
0.000490093
0.000488148
0.000485523
0.000482205
0.000478156
0.00047331
0.000467571
0.000460809
0.000452866
0.000443546
0.000432619
0.000419816
0.00040483
0.000387332
0.000354485
0.000334591
0.000314814
0.000210555
3.79724e-06
4.43783e-06
0.0001065
0.000218535
0.000347613
0.000443873
0.00045389
0.000462229
0.000469057
0.000474541
0.00047884
0.000482094
0.000484423
0.00048592
0.000486652
0.000486659
0.00048596
0.000484563
0.000482475
0.000479712
0.000476317
0.00047234
0.000467824
0.000462781
0.00045717
0.000450871
0.000443671
0.000435266
0.000425266
0.000413207
0.000398549
0.000380669
0.000358843
0.000332209
0.000243701
4.3375e-06
4.62176e-06
8.76085e-05
0.000186043
0.00030526
0.000422858
0.000455411
0.00046262
0.000468395
0.000472869
0.000476212
0.000478601
0.000480206
0.000481172
0.000481615
0.000481619
0.000481233
0.000480474
0.000479289
0.000477573
0.000475192
0.000472018
0.000467967
0.000463002
0.000457098
0.00045022
0.000442298
0.000433194
0.00042268
0.000410417
0.00039594
0.000378654
0.000357819
0.000332538
0.000225226
4.3988e-06
4.6974e-06
7.84604e-05
0.000143483
0.000235112
0.000360018
0.000456978
0.00046311
0.000468107
0.000472069
0.000475114
0.000477363
0.000478933
0.00047992
0.000480398
0.00048041
0.000479975
0.000479091
0.000477736
0.000475872
0.000473447
0.000470391
0.000466618
0.000462069
0.000456678
0.00045037
0.000443041
0.000434532
0.000424618
0.00041298
0.000399191
0.000382692
0.000362784
0.000338613
0.000221395
4.6965e-06
5.27971e-06
9.40542e-05
0.000178775
0.000269285
0.000371047
0.000451232
0.000456941
0.000461769
0.00046587
0.000469352
0.000472289
0.000474731
0.000476709
0.000478236
0.000479306
0.000479891
0.000479943
0.000479406
0.000478219
0.000476327
0.000473667
0.000470171
0.000465767
0.000460395
0.000453988
0.000446456
0.000437658
0.0004274
0.000415416
0.000401354
0.000384769
0.000365109
0.000339024
0.000194325
4.66695e-06
5.86593e-06
0.000120148
0.000228037
0.000335048
0.000435899
0.000461561
0.000466692
0.000470767
0.000474001
0.000476556
0.000478552
0.000480073
0.000481179
0.00048191
0.000482286
0.000482312
0.000481972
0.000481236
0.000480058
0.000478379
0.000476131
0.000473234
0.000469594
0.0004651
0.000459622
0.000453016
0.000445115
0.000435708
0.000424522
0.000411212
0.000395339
0.000376357
0.000351027
0.00019616
5.02658e-06
5.05605e-06
0.000130503
0.00025867
0.000374925
0.000455288
0.000463652
0.000470213
0.000475366
0.000479398
0.00048251
0.000484847
0.000486523
0.000487629
0.000488241
0.000488412
0.000488176
0.000487543
0.000486499
0.000485
0.000482977
0.000480331
0.000476946
0.000472723
0.000467551
0.000461312
0.000453883
0.000445127
0.000434891
0.000422989
0.000405769
0.000387582
0.000372922
0.000336992
0.000182341
5.11914e-06
5.4958e-06
0.000122668
0.000177336
0.000237084
0.000308658
0.000384068
0.000450839
0.000478471
0.000481583
0.000484018
0.000485864
0.000487191
0.000488059
0.000488516
0.000488601
0.000488341
0.000487755
0.000486844
0.000485592
0.000483957
0.000481865
0.000479205
0.000475822
0.000471517
0.000466039
0.000459165
0.000450688
0.00044025
0.000425451
0.000413433
0.000396299
0.000376337
0.000353101
0.000160142
4.63591e-06
8.73073e-06
0.000186842
0.000172514
0.000180011
0.000206125
0.000245334
0.000292119
0.000341419
0.000389772
0.000435332
0.000475506
0.000493741
0.000494814
0.000495451
0.000495617
0.000495309
0.000494547
0.000493369
0.000491822
0.000489943
0.000486196
0.000467009
0.000447581
0.000431268
0.000420805
0.000419007
0.000428332
0.000445852
0.00044923
0.000439516
0.000427499
0.000412413
0.000357897
0.00019272
6.09086e-06
1.70857e-05
0.000358968
0.000310118
0.000241581
0.000204722
0.000193323
0.000193068
0.000197571
0.000205839
0.000217788
0.000233253
0.000251973
0.000273627
0.000297821
0.000323753
0.000350238
0.000375652
0.000398019
0.000415978
0.000428932
0.000431809
0.000416947
0.000385856
0.000349487
0.000318719
0.000297347
0.000281625
0.000264345
0.0002438
0.00022854
0.000229899
0.000253046
0.000269178
0.000159279
5.97487e-06
1.87472e-05
0.000221663
0.000252773
0.000237904
0.000216143
0.000190159
0.000166749
0.000149901
0.00013961
0.000134355
0.000132694
0.000133526
0.000136012
0.000139506
0.000143462
0.000147315
0.000150653
0.000152649
0.000152194
0.00015363
0.000162399
0.000178754
0.000199141
0.000215744
0.000221606
0.000219924
0.000219571
0.000228291
0.000247577
0.000269778
0.000282712
0.000280039
0.000239414
9.83646e-05
4.28878e-06
1.42676e-05
6.45679e-05
7.16421e-05
7.55813e-05
8.24505e-05
8.72205e-05
8.8469e-05
8.78045e-05
8.68432e-05
8.65079e-05
8.71773e-05
8.89183e-05
9.16529e-05
9.52004e-05
9.94584e-05
0.000104335
0.000105303
9.7332e-05
0.000104706
0.000114388
8.10822e-05
7.90739e-05
9.90691e-05
0.000137733
0.000184496
0.000217338
0.000225073
0.000216746
0.000203482
0.000191455
0.00018727
0.000196481
0.00021477
0.000180932
7.89031e-06
7.55021e-06
2.08873e-05
3.90867e-05
6.20436e-05
8.33661e-05
9.63424e-05
0.000101381
0.000103079
0.000104569
0.000106786
0.000109411
0.000111325
0.000110741
0.000105416
9.37451e-05
7.82094e-05
4.92305e-05
1.90326e-05
1.08025e-05
2.79949e-05
3.88263e-05
7.35625e-05
0.000159164
0.00029648
0.000389948
0.000386059
0.000337423
0.000285491
0.000245091
0.000221114
0.000213632
0.000214244
0.000191748
8.92236e-05
6.17335e-06
9.95423e-06
5.27906e-05
0.000192629
0.000212454
0.000169859
0.000139232
0.000128371
0.000130935
0.000140594
0.000153659
0.000168946
0.000185636
0.000201597
0.000214977
0.000228256
0.000250879
0.000295416
0.000340941
0.000238003
0.00015551
0.000133999
0.000147746
0.000168733
0.000182325
0.000185196
0.000178456
0.000165596
0.000151018
0.000137947
0.00012783
0.000123752
0.000130639
0.000136592
6.19672e-05
1.5247e-06
1.19882e-05
9.24509e-05
0.000179006
0.000144311
0.000108935
9.55246e-05
0.000100373
0.000116286
0.000137847
0.000163179
0.000192504
0.000223009
0.000245674
0.000251891
0.000242971
0.000227486
0.000212832
0.00020162
0.000195281
0.000199101
0.000213978
0.000232039
0.000245879
0.00025005
0.000242511
0.000226173
0.000204091
0.000176791
0.000147337
0.000127045
0.000129024
0.000154305
0.000174612
0.000112753
4.47601e-06
9.17015e-06
3.58954e-05
0.000104072
0.000122159
0.000103266
9.04114e-05
8.92e-05
9.20653e-05
9.27761e-05
9.13625e-05
9.22035e-05
9.99954e-05
0.000117993
0.000147238
0.000185664
0.000228602
0.000270541
0.000305692
0.000327835
0.000332591
0.00032174
0.000303251
0.000285344
0.000271205
0.000258171
0.000241569
0.000219027
0.000191984
0.000166332
0.000152834
0.000160453
0.000156935
8.38765e-05
4.37717e-05
3.19833e-06
1.23963e-05
7.68582e-05
0.000234424
0.000167813
0.000106034
9.25296e-05
0.000105368
0.000134345
0.000171311
0.000204704
0.0002265
0.000240366
0.000256886
0.00028053
0.000306465
0.000328779
0.000346435
0.000361238
0.000374137
0.00038446
0.000390752
0.00039126
0.000384058
0.000367572
0.000342244
0.000309958
0.00027099
0.000223793
0.000168366
0.000111318
5.67384e-05
5.86305e-06
5.20603e-06
2.2974e-06
1.14932e-06
1.22965e-05
8.24066e-05
0.000105177
5.81292e-05
4.63541e-05
5.79774e-05
8.62247e-05
0.000117608
0.000144106
0.000178564
0.000237918
0.000318766
0.000380477
0.000391455
0.000366886
0.000337919
0.000322987
0.000324078
0.000333619
0.000342633
0.000346019
0.000343335
0.000337298
0.000331445
0.000327595
0.000324475
0.000317715
0.000300996
0.000268488
0.000216098
0.000142865
6.68326e-05
3.0989e-05
5.69499e-06
5.50753e-07
1.12553e-05
6.99207e-05
0.000165376
0.000123978
9.40614e-05
9.0435e-05
0.000107402
0.00013685
0.000158582
0.000155172
0.000145865
0.000161639
0.000214251
0.000275503
0.00028223
0.000243481
0.000219815
0.000229121
0.000262933
0.000305871
0.000346025
0.000382173
0.000417641
0.000450988
0.000477119
0.000493155
0.000498509
0.000491031
0.000463937
0.000404158
0.000291048
0.000151203
9.21574e-05
0.000105085
7.9433e-06
1.10297e-05
6.28349e-05
0.00013132
9.78698e-05
6.11456e-05
4.64325e-05
5.08193e-05
7.20486e-05
0.000110122
0.000162338
0.000227471
0.000314391
0.0003937
0.000402655
0.000317278
0.000223048
0.000190194
0.000201765
0.000236948
0.000273132
0.000290483
0.000285426
0.000272929
0.000271143
0.000284982
0.000303095
0.00031027
0.000299057
0.000268805
0.000225178
0.000182464
0.000157476
0.000165797
0.000184268
1.15707e-05
9.19825e-06
4.9478e-05
0.00012782
0.000138694
0.000107817
6.64626e-05
4.9264e-05
5.17102e-05
6.58725e-05
8.92398e-05
0.000122352
0.000169462
0.000234336
0.00028854
0.000273516
0.000209835
0.000162884
0.000147859
0.000153631
0.000165011
0.000169065
0.000167217
0.000171984
0.000190702
0.000217324
0.000239351
0.000251663
0.00025662
0.00025799
0.000258509
0.00025775
0.000236789
0.000132461
3.94011e-05
3.69908e-06
1.11078e-05
6.63374e-05
0.000152536
0.000177961
0.000166993
0.000130534
8.24595e-05
5.58418e-05
4.75914e-05
4.97118e-05
5.95556e-05
7.5383e-05
9.4173e-05
0.000113314
0.00013521
0.000160192
0.000168164
0.000144163
0.000117723
0.000106552
0.000108006
0.000118025
0.000135416
0.000159334
0.00018605
0.000210619
0.000231959
0.000251672
0.000269145
0.00027826
0.000263181
0.000196564
0.000102903
4.16785e-05
2.23045e-06
1.03042e-05
6.62899e-05
0.00019146
0.000240812
0.000256333
0.000255366
0.000227078
0.000159974
9.57255e-05
6.33904e-05
5.0708e-05
4.81831e-05
5.27391e-05
6.38755e-05
8.19277e-05
0.000104639
0.000122457
0.000130671
0.000136971
0.000140558
0.000133112
0.0001208
0.000115109
0.000120268
0.000136836
0.000164033
0.000198699
0.000234521
0.000263517
0.00027728
0.00026757
0.000231071
0.000171626
8.70938e-05
3.58803e-06
1.02243e-05
4.68716e-05
0.000123826
0.000188135
0.000196249
0.00017486
0.000152377
0.000145379
0.000146173
0.000133844
0.000106506
8.15916e-05
6.46668e-05
5.36235e-05
4.74161e-05
4.81511e-05
6.06207e-05
8.97505e-05
0.000129513
0.000158086
0.000170421
0.000176217
0.000178783
0.000177698
0.000177329
0.000184808
0.000203294
0.000228248
0.00024852
0.000253831
0.000240171
0.000209654
0.00016666
9.9136e-05
3.63589e-06
1.14665e-05
5.31943e-05
0.000140936
0.000186413
0.000181217
0.000160345
0.000135292
0.000113663
9.91443e-05
9.36796e-05
0.000103012
0.000132016
0.000171015
0.000175785
0.000124926
7.44762e-05
5.0543e-05
4.88613e-05
6.90787e-05
0.000118232
0.000195933
0.000274632
0.000322173
0.000334044
0.000323404
0.000308823
0.000303375
0.000304866
0.00029786
0.00026959
0.000220691
0.000164627
0.000119533
7.09291e-05
3.31908e-06
1.27412e-05
7.24848e-05
0.000197535
0.000217916
0.000193115
0.000155093
0.000124199
0.00010771
9.42306e-05
7.51192e-05
6.64675e-05
8.2209e-05
0.000131785
0.000211477
0.000248973
0.000168304
8.79255e-05
6.14798e-05
7.00381e-05
0.000115187
0.000210034
0.000326915
0.000367978
0.000371519
0.000373664
0.000374128
0.000372759
0.000369543
0.000331776
0.000280747
0.000231857
0.000190627
0.000152322
8.0322e-05
3.8073e-06
1.20688e-05
8.45823e-05
0.00019526
0.00016837
0.000119027
7.84787e-05
6.14631e-05
6.64118e-05
9.00936e-05
0.000123182
0.000149312
0.00016055
0.000157619
0.000140613
0.000116576
0.000107019
0.000126277
0.000166221
0.00018808
0.000194858
0.000207651
0.000229951
0.000258585
0.000292033
0.000330546
0.000370398
0.000392785
0.000393459
0.000393187
0.000391672
0.000388607
0.000308086
0.000236667
0.000178831
6.73344e-06
1.11063e-05
6.91582e-05
0.000161537
0.000141354
9.522e-05
5.77104e-05
4.25521e-05
4.9544e-05
8.25723e-05
0.000132098
0.000147053
0.000129952
0.000121171
0.00014708
0.0002174
0.000270389
0.000255287
0.000231609
0.000225061
0.000232804
0.000248372
0.000266256
0.000281993
0.000296191
0.000314938
0.000341865
0.000370962
0.000382212
0.000351331
0.000282921
0.000218215
0.00019347
0.000222617
0.000277005
1.01772e-05
1.12408e-05
8.14453e-05
0.000170506
0.000149042
0.000110955
7.78446e-05
5.60564e-05
4.84756e-05
5.59638e-05
7.61895e-05
0.000107963
0.000158517
0.000223006
0.000262248
0.000269739
0.000273951
0.000281751
0.000277772
0.000252787
0.000221746
0.000203698
0.000206499
0.000229363
0.000262255
0.000285167
0.000284275
0.000262723
0.000231929
0.000203547
0.000186426
0.000186404
0.000204667
0.000206837
7.58259e-05
6.01341e-06
1.12145e-05
7.32942e-05
0.000189704
0.000184967
0.000153792
0.000117649
8.1374e-05
5.36945e-05
4.24718e-05
4.79581e-05
6.77726e-05
9.74845e-05
0.000125989
0.000143409
0.000156878
0.000175413
0.000197947
0.000216446
0.000221722
0.000207408
0.000181483
0.000162454
0.000159627
0.000172612
0.000195929
0.000219479
0.000233032
0.000234904
0.000231977
0.000230866
0.000229457
0.000208701
0.000131074
4.20636e-05
2.73091e-06
1.07977e-05
5.98285e-05
0.000170573
0.000179373
0.000150631
0.000126372
0.00011768
0.000108716
8.02745e-05
5.1107e-05
3.71916e-05
3.68343e-05
5.03282e-05
8.2044e-05
0.000128596
0.000168659
0.000189461
0.000196536
0.000196675
0.0001931
0.000186444
0.000175972
0.00016327
0.0001538
0.000151991
0.000159341
0.000177122
0.000207224
0.00024755
0.000285171
0.000298165
0.000264164
0.000178067
7.6259e-05
3.90581e-06
1.11527e-05
5.93366e-05
0.000166759
0.000182912
0.000154435
0.000117247
9.69411e-05
0.000100587
0.000123752
0.000132114
8.9499e-05
4.65217e-05
2.79026e-05
2.79092e-05
4.5972e-05
8.71043e-05
0.000150281
0.00021311
0.000247012
0.000247979
0.00023116
0.000210698
0.000193449
0.000181497
0.000174875
0.000173603
0.000180634
0.00020366
0.000249205
0.000300565
0.000302612
0.000245156
0.000196927
0.000146827
7.30642e-06
1.13639e-05
6.30656e-05
0.000171145
0.000193215
0.000180024
0.000150419
0.000114099
9.12459e-05
9.05879e-05
0.000112884
0.000144997
0.000124504
5.99139e-05
2.80128e-05
2.43874e-05
4.28177e-05
8.80147e-05
0.000158883
0.000224955
0.000255623
0.000256527
0.000245792
0.000234276
0.000225098
0.000216596
0.000206319
0.00019542
0.000185422
0.00017031
0.000146621
0.000129472
0.0001331
0.000158536
0.000174761
1.01369e-05
1.1322e-05
6.68094e-05
0.000177221
0.000194633
0.000182801
0.000160947
0.000135919
0.000113147
9.97567e-05
0.000100988
0.000116662
0.000131507
0.000101448
4.58619e-05
2.22659e-05
2.65741e-05
6.04929e-05
0.000134541
0.000223928
0.000274131
0.000272744
0.000235571
0.000186617
0.000147375
0.000123325
0.000115002
0.000119841
0.000127846
0.00012817
0.000129071
0.000148695
0.000196928
0.000240827
8.96553e-05
7.48023e-06
1.12639e-05
6.99786e-05
0.000182295
0.000206781
0.000203805
0.000190016
0.000167353
0.000139034
0.000114584
0.000102885
0.000106923
0.000124099
0.000134117
9.28275e-05
3.8381e-05
1.80108e-05
2.54636e-05
6.70253e-05
0.000145569
0.000189311
0.000164473
0.000127144
0.000107375
9.81942e-05
9.19669e-05
9.31712e-05
0.000106701
0.000129688
0.000150309
0.000167548
0.000188894
0.000200089
0.000143569
4.29453e-05
4.68333e-06
1.13021e-05
7.45813e-05
0.000197683
0.000223505
0.000219804
0.000206926
0.000189768
0.000168352
0.000142121
0.000117088
0.000102849
0.000103964
0.000120144
0.000136933
0.000105265
4.43758e-05
1.82115e-05
1.9833e-05
5.03086e-05
0.000107376
0.000131053
0.000116155
9.75243e-05
9.00927e-05
9.14419e-05
9.71151e-05
0.000108595
0.000128005
0.000151484
0.000171163
0.000180474
0.000171288
0.000124833
4.63079e-05
4.492e-06
1.12127e-05
7.50388e-05
0.000207189
0.000236592
0.000233722
0.000222117
0.000208083
0.000192894
0.000174551
0.000150992
0.000126031
0.000108465
0.00010411
0.000114243
0.000132002
0.000120772
5.89265e-05
2.14397e-05
1.21656e-05
2.51647e-05
6.12659e-05
9.51467e-05
0.000101055
9.30069e-05
8.87328e-05
9.47842e-05
0.000111863
0.000137608
0.00016575
0.000188516
0.00020008
0.00019495
0.000157509
6.41895e-05
5.24203e-06
1.12548e-05
7.49655e-05
0.000210291
0.000238327
0.000231445
0.000216985
0.000204234
0.000195354
0.000186713
0.000172518
0.000150745
0.000127133
0.000110752
0.000107115
0.000118176
0.000140403
0.000145578
8.66769e-05
3.40057e-05
1.51626e-05
1.94169e-05
4.51601e-05
8.22877e-05
0.000103592
0.000104496
0.000101383
0.000108062
0.000131889
0.000172815
0.00021502
0.000239094
0.000239029
0.000198566
7.39944e-05
5.42537e-06
1.13828e-05
7.55651e-05
0.000210209
0.000233262
0.000220105
0.000199729
0.000185093
0.00018189
0.000189057
0.000199496
0.000200653
0.000182167
0.000150595
0.000124886
0.000114655
0.000119147
0.000131218
0.00012944
8.51161e-05
3.78419e-05
1.7695e-05
1.91637e-05
3.98174e-05
7.20505e-05
9.6864e-05
0.000105967
0.000109119
0.000119955
0.000147934
0.000193298
0.000236922
0.000253905
0.000219593
7.34055e-05
5.27498e-06
1.14678e-05
7.74266e-05
0.000213133
0.000229622
0.000210687
0.000186015
0.000168633
0.000161855
0.000163838
0.000171365
0.000180213
0.0001843
0.000177531
0.000160965
0.000145309
0.000139838
0.000144517
0.00014801
0.000128179
7.81337e-05
3.72866e-05
2.06588e-05
2.39659e-05
4.50358e-05
7.52492e-05
9.88774e-05
0.000110862
0.000119657
0.000136086
0.000165406
0.000200816
0.000223302
0.000202139
6.43777e-05
4.99114e-06
1.15427e-05
7.91287e-05
0.000214354
0.000223062
0.000194276
0.000166786
0.000155212
0.000159288
0.000174655
0.000195439
0.000213719
0.00022089
0.000211755
0.000189565
0.00016561
0.000149973
0.0001447
0.00014335
0.000131941
9.94554e-05
5.85537e-05
3.25639e-05
2.44754e-05
3.25229e-05
5.25849e-05
7.50232e-05
9.18357e-05
0.000103917
0.000117637
0.000138736
0.000166716
0.000189845
0.000178349
5.51001e-05
4.94004e-06
1.17227e-05
8.58075e-05
0.000224791
0.000211986
0.000167529
0.000140104
0.000135416
0.000145106
0.000161913
0.000181516
0.000200729
0.000215521
0.000221214
0.000215259
0.000200427
0.000183806
0.000170365
0.000157654
0.000137148
0.000104028
6.70236e-05
4.05692e-05
2.91719e-05
3.25867e-05
4.79931e-05
6.70705e-05
8.25128e-05
9.44573e-05
0.000107575
0.000126522
0.000151372
0.000171748
0.000157001
4.60384e-05
4.8385e-06
1.16307e-05
8.56686e-05
0.000221895
0.000186411
0.000133398
0.000115286
0.000126274
0.000156435
0.000194866
0.000229485
0.000252218
0.000259961
0.000252504
0.000232712
0.000207505
0.000184905
0.00016856
0.000155463
0.000137933
0.000110464
7.76369e-05
5.07865e-05
3.62957e-05
3.45268e-05
4.31337e-05
5.63923e-05
6.89674e-05
8.05609e-05
9.44521e-05
0.00011428
0.000139742
0.000159993
0.000143443
4.01881e-05
4.83121e-06
1.16447e-05
8.70749e-05
0.000207417
0.000148512
9.97447e-05
9.11179e-05
0.000108806
0.000143367
0.00018476
0.000223091
0.000251894
0.000267739
0.000268933
0.000256023
0.000233126
0.00020683
0.000181757
0.000157541
0.000131068
0.000101898
7.45797e-05
5.4397e-05
4.36545e-05
4.2398e-05
4.84264e-05
5.71606e-05
6.55884e-05
7.49485e-05
8.87079e-05
0.000109705
0.000135752
0.000153508
0.000127937
3.44336e-05
4.63604e-06
1.1309e-05
8.06136e-05
0.000189146
0.000121276
8.13001e-05
8.16257e-05
0.000111062
0.000162987
0.000220192
0.00026465
0.000290103
0.000296999
0.000286928
0.000263042
0.000232071
0.000202301
0.000178183
0.000157857
0.000135807
0.000109122
8.19114e-05
6.09208e-05
4.91303e-05
4.59061e-05
4.85687e-05
5.37034e-05
5.97281e-05
6.80998e-05
8.20734e-05
0.000104194
0.000130776
0.000146211
0.00011388
2.99043e-05
4.3567e-06
1.11596e-05
7.43902e-05
0.000177179
0.000108958
6.84862e-05
6.58007e-05
8.82606e-05
0.000131778
0.000186756
0.000238316
0.000276211
0.000296799
0.000299471
0.00028542
0.000258922
0.000227389
0.000197636
0.000171577
0.000146128
0.000118286
9.04832e-05
6.86868e-05
5.62209e-05
5.20901e-05
5.26602e-05
5.46794e-05
5.80445e-05
6.51945e-05
7.93458e-05
0.000102256
0.000128037
0.000139307
9.97398e-05
2.62813e-05
4.02938e-06
1.09157e-05
6.62165e-05
0.000167425
0.000108813
6.34742e-05
5.66963e-05
7.60992e-05
0.00012012
0.000180161
0.000237362
0.00027848
0.000300132
0.000302931
0.000289294
0.000264348
0.000235357
0.000208386
0.000185055
0.00016231
0.000135867
0.000105998
7.92037e-05
6.16937e-05
5.42337e-05
5.31954e-05
5.42035e-05
5.64437e-05
6.28083e-05
7.70273e-05
0.000100469
0.000125216
0.000132816
8.90562e-05
2.3853e-05
3.73385e-06
1.08102e-05
5.97573e-05
0.000155205
0.000114466
6.03075e-05
4.42667e-05
5.29718e-05
8.40998e-05
0.000137796
0.000202528
0.000259619
0.000298384
0.000317189
0.000317869
0.00030363
0.000279228
0.00025023
0.000220725
0.000191371
0.000160161
0.000126309
9.4047e-05
7.02131e-05
5.78419e-05
5.45466e-05
5.52677e-05
5.72148e-05
6.27691e-05
7.62571e-05
9.90019e-05
0.000121864
0.000126362
8.16119e-05
2.2492e-05
3.53548e-06
1.08355e-05
5.99467e-05
0.000153025
0.000123451
6.75744e-05
4.36882e-05
4.55468e-05
6.92928e-05
0.000116317
0.000178095
0.000236681
0.000280096
0.000305608
0.00031466
0.000310127
0.000295518
0.000274311
0.000249057
0.0002206
0.000188239
0.000151711
0.000114245
8.27812e-05
6.29268e-05
5.49586e-05
5.50236e-05
5.84324e-05
6.46132e-05
7.74453e-05
9.86916e-05
0.0001196
0.000122518
7.84019e-05
2.20379e-05
3.41721e-06
1.08829e-05
6.07039e-05
0.000155432
0.000138471
8.03365e-05
4.48747e-05
3.75297e-05
5.07201e-05
8.68888e-05
0.000146437
0.000215076
0.000274225
0.000315687
0.000338671
0.000344223
0.000334467
0.00031323
0.000285204
0.000253824
0.000219897
0.000182476
0.000142073
0.000103617
7.44548e-05
5.85003e-05
5.46341e-05
5.90546e-05
6.81098e-05
8.21083e-05
0.000102497
0.000122248
0.000125073
8.12722e-05
2.27003e-05
3.39626e-06
1.1084e-05
6.49543e-05
0.000165999
0.000148897
9.37326e-05
5.33877e-05
3.85794e-05
4.34777e-05
6.90013e-05
0.000118986
0.000187253
0.000256102
0.000311189
0.000347147
0.000363349
0.000361542
0.000345559
0.000319883
0.000288545
0.000254068
0.000216778
0.000176099
0.000133729
9.56778e-05
6.89136e-05
5.61784e-05
5.63907e-05
6.73922e-05
8.63828e-05
0.000109476
0.000128825
0.000131103
8.69237e-05
2.39696e-05
3.42322e-06
1.12008e-05
6.67573e-05
0.000170097
0.000149594
9.48535e-05
5.75489e-05
4.08104e-05
4.0475e-05
5.82837e-05
0.000100388
0.000167984
0.000247363
0.000319444
0.000370859
0.00038655
0.000385807
0.000382807
0.000357339
0.000324915
0.000290056
0.000253594
0.000214594
0.000172266
0.000129071
9.17671e-05
6.70403e-05
5.70547e-05
6.14529e-05
7.96924e-05
0.00010656
0.000128618
0.000132545
9.19756e-05
2.53895e-05
3.53254e-06
1.15177e-05
7.5994e-05
0.00017704
0.000135488
8.14605e-05
5.52382e-05
4.54e-05
4.57165e-05
6.02995e-05
9.71909e-05
0.000161128
0.000244632
0.000328328
0.000383775
0.000385137
0.000385349
0.000384327
0.000382022
0.000353388
0.000315691
0.000279485
0.000244289
0.000207013
0.000166244
0.000124955
9.0302e-05
6.86404e-05
6.21791e-05
7.15398e-05
9.55991e-05
0.000121702
0.000130534
9.62907e-05
2.67541e-05
3.70167e-06
1.1485e-05
8.14315e-05
0.000175727
0.000122224
7.12692e-05
5.07624e-05
4.66564e-05
5.17104e-05
6.78384e-05
0.000102552
0.000160752
0.00023651
0.000312947
0.000367992
0.000383933
0.000384686
0.00038444
0.000382988
0.000358222
0.000324998
0.000291904
0.000261079
0.000230345
0.000196557
0.000158873
0.000121077
9.05138e-05
7.31867e-05
7.15457e-05
8.65644e-05
0.000113048
0.000129834
0.000103472
2.83387e-05
3.90481e-06
1.14936e-05
8.86254e-05
0.000174742
0.000112306
6.64044e-05
5.0154e-05
4.89991e-05
5.68563e-05
7.44217e-05
0.000107334
0.000160062
0.000227877
0.000296295
0.000348955
0.000377258
0.000383653
0.000383933
0.00037495
0.000353661
0.00032476
0.000294732
0.000266974
0.000240963
0.000213841
0.000182923
0.000148376
0.00011496
9.00965e-05
7.93196e-05
8.54314e-05
0.000108236
0.000131545
0.000112213
2.97513e-05
4.06086e-06
1.12942e-05
8.75767e-05
0.000171864
0.000107901
6.48965e-05
5.06443e-05
5.07633e-05
5.97437e-05
7.73999e-05
0.000107343
0.000153569
0.00021425
0.000279246
0.000334464
0.00036942
0.00038181
0.000382471
0.000372685
0.000351587
0.00032374
0.000294426
0.000267244
0.000242777
0.000219036
0.000193061
0.000163184
0.000131487
0.000104299
8.88226e-05
9.00224e-05
0.000110262
0.000137068
0.000120437
3.05823e-05
4.12075e-06
1.13868e-05
9.0974e-05
0.000174446
0.000106205
6.5092e-05
5.23059e-05
5.23413e-05
6.01941e-05
7.63906e-05
0.000104133
0.000147213
0.000205714
0.000272415
0.000333778
0.000374055
0.000379301
0.0003803
0.000379136
0.000356567
0.000325483
0.000293458
0.000264197
0.000238521
0.000215061
0.000191239
0.000165002
0.000137107
0.000112372
9.77599e-05
9.9277e-05
0.000120067
0.000146962
0.000126072
3.08396e-05
4.09631e-06
1.13529e-05
9.31199e-05
0.00016865
9.26458e-05
5.9261e-05
5.30437e-05
5.70564e-05
6.54435e-05
7.92568e-05
0.000102653
0.000140229
0.00019419
0.000260683
0.000327298
0.000373462
0.000376431
0.000377701
0.000378213
0.000358759
0.000324864
0.000289552
0.000257584
0.000229786
0.00020516
0.000181807
0.000158181
0.000134828
0.000115411
0.000105632
0.00011103
0.000133298
0.000155942
0.000126494