/*--------------------------------*- C++ -*----------------------------------*\
| =========                 |                                                 |
| \\      /  F ield         | OpenFOAM: The Open Source CFD Toolbox           |
|  \\    /   O peration     | Version:  v2006                                 |
|   \\  /    A nd           | Website:  www.openfoam.com                      |
|    \\/     M anipulation  |                                                 |
\*---------------------------------------------------------------------------*/
FoamFile
{
    version     2.0;
    format      ascii;
    class       volScalarField;
    location    "19";
    object      omega;
}
// * * * * * * * * * * * * * * * * * * * * * * * * * * * * * * * * * * * * * //

dimensions      [0 0 -1 0 0 0 0];


internalField   nonuniform List<scalar> 
78750
(
326.733
49.5559
69.9335
81.0864
71.3053
56.5293
36.851
25.7897
27.1743
29.1125
27.7958
23.5122
19.0722
20.3712
16.265
11.8378
20.8194
22.5528
25.2902
27.887
30.3409
32.0156
32.5631
32.4996
32.3275
32.2443
32.2308
32.1766
31.9686
31.5433
30.9167
30.041
28.7878
26.9311
394.442
951.483
100.343
83.9247
74.5543
69.2598
66.1376
64.0357
62.6399
61.8727
61.4657
61.1878
60.8788
60.4881
60.1248
60.3192
58.5053
46.9999
32.9445
24.5471
21.3023
20.2661
19.9119
19.9079
20.2362
20.7779
21.3896
21.9348
22.2729
22.3502
22.1727
21.7465
20.9843
19.4924
16.521
575.555
435.513
13.1934
14.9502
18.734
24.127
27.8289
33.0184
37.392
40.5244
42.7153
44.3738
45.7629
46.9674
47.9681
48.6079
47.8868
43.7129
37.429
31.3491
26.1013
21.8866
19.1037
18.1002
18.5225
19.4505
20.2091
20.6224
20.7279
20.5613
20.1252
19.44
18.5519
17.2911
14.6393
570.052
446.469
22.7872
26.5461
27.0291
25.1597
23.8244
23.7557
24.4477
25.5536
26.9352
28.4674
30.0389
31.5322
32.7832
33.5365
33.3636
31.883
29.4565
26.8999
24.8229
23.4729
22.7663
22.4748
22.3815
22.3077
22.1821
22.0456
21.903
21.6894
21.361
20.8935
20.2447
19.3284
17.6158
576.795
424.039
17.1302
18.9877
20.0397
20.7521
21.2819
21.7134
22.0733
22.3856
22.6849
22.9956
23.326
23.6632
23.9597
24.125
24.0488
23.7021
23.2186
22.7725
22.4448
22.2304
22.098
22.0194
21.9751
21.9534
21.9494
21.9587
21.9682
21.9443
21.8281
21.5493
21.0247
20.1049
18.2657
575.836
421.705
14.072
16.31
17.8808
19.0167
19.8128
20.3645
20.7425
21.0156
21.2293
21.4025
21.5459
21.6654
21.7618
21.8317
21.8726
21.8881
21.8887
21.8845
21.8814
21.8813
21.885
21.8918
21.8973
21.8926
21.8653
21.8008
21.6807
21.4787
21.1546
20.6461
19.8551
18.6132
16.5232
574.284
426.209
17.0381
18.8326
19.8495
20.4855
20.9426
21.2993
21.5741
21.7822
21.9357
22.0459
22.1234
22.178
22.2176
22.2479
22.2725
22.2933
22.3109
22.3252
22.3348
22.3377
22.3311
22.31
22.2673
22.193
22.0732
21.8895
21.6187
21.2325
20.6992
19.9851
19.0322
17.7124
15.7591
575.281
427.013
17.4182
19.1701
20.2178
20.9756
21.5652
22.0215
22.371
22.6334
22.8242
22.9562
23.0403
23.0866
23.1037
23.0992
23.0794
23.049
23.0115
22.9683
22.9196
22.8637
22.7972
22.7146
22.6084
22.4683
22.2809
22.0296
21.6936
21.248
20.6635
19.9068
18.9221
17.606
15.7768
576.631
425.827
17.2061
19.0206
20.1568
21.0423
21.7436
22.2966
22.7253
23.0468
23.2759
23.4271
23.5145
23.5513
23.549
23.5174
23.4643
23.3957
23.3157
23.2265
23.1287
23.0214
22.9018
22.7659
22.6076
22.4188
22.189
21.9047
21.5484
21.0976
20.5222
19.7818
18.8195
17.5495
15.8268
577.301
423.693
16.6097
18.7467
19.9701
20.8132
21.48
22.0246
22.4599
22.7969
23.0459
23.2174
23.3222
23.3712
23.3747
23.342
23.2808
23.1966
23.0935
22.9734
22.8369
22.6829
22.5097
22.314
22.0919
21.8385
21.5475
21.2112
20.8192
20.357
19.8039
19.1294
18.2883
17.2131
15.7022
577.6
423.125
16.8953
18.7757
19.8114
20.5923
21.2372
21.7649
22.1895
22.5228
22.7748
22.9553
23.0737
23.1393
23.1606
23.1453
23.0997
23.0285
22.9348
22.8202
22.6849
22.5278
22.3468
22.1385
21.8989
21.6226
21.3032
20.9326
20.5012
19.9969
19.4055
18.7107
17.8942
16.8839
15.4038
577.275
422.998
16.8985
18.9469
19.9572
20.615
21.1422
21.5858
21.9517
22.2457
22.4741
22.6432
22.7598
22.8308
22.8628
22.8617
22.8324
22.7786
22.7027
22.6058
22.4876
22.3467
22.1806
21.9859
21.758
21.4912
21.1788
20.8124
20.3818
19.8747
19.2761
18.5685
17.7321
16.7259
15.2891
577.354
423.712
17.2183
19.0512
19.967
20.6146
21.1525
21.5988
21.9668
22.2663
22.5052
22.6904
22.8282
22.9242
22.9831
23.0091
23.0053
22.9739
22.9163
22.8332
22.7246
22.5894
22.4257
22.2304
21.9989
21.7255
21.4032
21.0229
20.5735
20.0413
19.41
18.6564
17.7554
16.6787
15.2325
577.626
423.161
17.1467
19.1701
20.1432
20.7548
21.2304
21.6317
21.9667
22.2435
22.4697
22.6519
22.7953
22.9039
22.9801
23.0247
23.0377
23.0183
22.9659
22.8809
22.765
22.6212
22.4525
22.2612
22.0478
21.8095
21.54
21.2287
20.8614
20.4201
19.8824
19.2207
18.4002
17.3762
15.9695
578.802
423.508
17.1359
19.2666
20.2807
20.8733
21.3065
21.6657
21.962
22.2019
22.3934
22.5447
22.6634
22.7558
22.8266
22.8791
22.9148
22.9341
22.9338
22.9085
22.8515
22.7565
22.6198
22.441
22.2202
21.9581
21.654
21.3048
20.9032
20.4372
19.8889
19.2334
18.4375
17.4581
16.0807
579.003
423.628
16.94
19.2032
20.3303
20.9448
21.3396
21.647
21.9062
22.122
22.2998
22.4452
22.5633
22.6581
22.7325
22.7878
22.8241
22.8409
22.8365
22.8088
22.7554
22.6725
22.5566
22.4053
22.2169
21.9897
21.7209
21.4061
21.0377
20.6043
20.0892
19.4694
18.7138
17.7815
16.446
579.733
424.793
17.3729
19.2649
20.1743
20.6998
21.0528
21.3326
21.5759
21.7899
21.9799
22.1493
22.3006
22.435
22.553
22.6539
22.7359
22.7964
22.8322
22.8404
22.8182
22.7627
22.671
22.5403
22.3683
22.1533
21.8929
21.5826
21.2157
20.7822
20.2683
19.6548
18.9165
18.0194
16.6852
579.76
425.946
18.218
19.9795
20.7751
21.2269
21.544
21.7979
22.0056
22.1773
22.321
22.4423
22.5453
22.6327
22.7062
22.7666
22.8139
22.8473
22.8652
22.8655
22.8458
22.8033
22.7347
22.6365
22.5047
22.3348
22.1214
21.8589
21.5395
21.1527
20.6841
20.1146
19.4183
18.5598
17.2465
580.613
424.356
17.8789
19.7661
20.6469
21.191
21.5965
21.9222
22.1856
22.3997
22.5735
22.7139
22.8264
22.9156
22.9852
23.0381
23.0761
23.0999
23.1092
23.1022
23.0759
23.0259
22.9472
22.8354
22.6857
22.4929
22.252
21.9577
21.6039
21.1837
20.6876
20.1023
19.4097
18.5676
17.2709
580.881
425.062
17.339
19.519
20.6738
21.3381
21.7525
22.036
22.2528
22.431
22.5784
22.6993
22.7971
22.8746
22.9344
22.9788
23.0096
23.0283
23.0363
23.0341
23.0212
22.9964
22.9568
22.8976
22.8119
22.69
22.5222
22.2987
22.0079
21.6365
21.1697
20.5908
19.8798
19.0096
17.6087
580.002
430.642
18.0746
19.7754
20.7746
21.361
21.7351
22.0044
22.2195
22.4037
22.5673
22.7152
22.8492
22.9671
23.0654
23.1424
23.1977
23.2319
23.2464
23.2424
23.2211
23.1827
23.126
23.0472
22.9418
22.8051
22.6339
22.4269
22.184
21.9015
21.5657
21.1546
20.6333
19.9289
18.698
582.823
445.899
21.2489
22.1144
22.5408
22.6134
22.5094
22.3761
22.2741
22.2168
22.201
22.2193
22.2631
22.3253
22.3993
22.4795
22.5616
22.6423
22.7188
22.7878
22.8492
22.9034
22.9529
23.0004
23.0436
23.068
23.0433
22.9274
22.6788
22.2673
21.6863
20.9777
20.2075
19.3657
18.1099
583.084
453.078
24.15
24.4127
24.0404
23.4759
22.927
22.4759
22.1417
21.9075
21.7472
21.6401
21.5727
21.5371
21.5282
21.5423
21.5763
21.6282
21.6927
21.7814
21.9166
22.0568
22.1416
22.1545
22.1144
22.0583
22.0174
22.0086
22.0203
22.0055
21.9011
21.65
21.2038
20.4821
18.9765
579.111
446.121
21.1938
20.9292
20.3231
19.8434
19.5746
19.4636
19.4461
19.4755
19.5193
19.5535
19.5606
19.5284
19.4505
19.3213
19.1324
18.893
18.4036
17.7825
18.0882
19.3345
20.6577
21.5157
21.8722
21.8963
21.7377
21.4839
21.1879
20.8929
20.6336
20.4264
20.2326
19.9279
19.2137
586.678
431.52
15.8519
16.8803
17.615
18.2396
18.7884
19.2777
19.7153
20.0982
20.4155
20.6534
20.7992
20.8419
20.7681
20.5448
20.0872
19.3734
16.7032
11.4825
15.3645
21.2243
23.7893
24.2597
24.1451
23.9133
23.625
23.2719
22.8533
22.3855
21.892
21.3854
20.8411
20.1477
18.8429
583.424
447.141
20.6232
21.3842
21.7645
22.0539
22.3728
22.7494
23.1593
23.5603
23.9143
24.1965
24.401
24.5397
24.6349
24.7104
24.7843
24.8595
24.9274
24.8794
24.3399
23.3909
22.5535
21.8992
21.3213
20.7569
20.1785
19.5741
18.9515
18.3455
17.8077
17.3263
16.7546
15.9556
14.544
571.846
451.463
20.527
20.2639
20.0697
20.0262
20.1949
20.5062
20.8581
21.2015
21.5294
21.8464
22.1501
22.4296
22.6767
22.8834
23.0452
23.1615
23.2349
23.2682
23.2598
23.1963
23.0681
22.8728
22.6064
22.2585
21.805
21.2316
20.5092
19.5865
18.4218
17.2096
16.3849
16.0477
15.667
579.313
442.268
18.8739
19.4987
19.8749
20.2269
20.5982
20.9057
21.0796
21.1241
21.0922
21.0693
21.1449
21.354
21.6568
21.9857
22.2895
22.5426
22.7358
22.868
22.9413
22.9561
22.9093
22.7954
22.6072
22.3314
21.955
21.4503
20.7774
19.9033
18.8533
17.8152
17.0611
15.3521
12.5438
576.218
456.906
22.1784
22.0135
21.8881
21.9654
22.3235
22.7613
23.1012
23.2977
23.3727
23.3682
23.3417
23.3581
23.4514
23.6115
23.8095
24.0159
24.205
24.3573
24.4602
24.5052
24.4853
24.3924
24.2156
23.9361
23.524
22.9318
22.0656
20.749
18.7373
15.7248
7.66878
4.18493
5.56802
570.774
462.889
20.6482
19.4483
18.8668
19.0405
19.7248
20.3264
20.7372
21.0653
21.4118
21.8154
22.2533
22.7055
23.1837
23.7126
24.2965
24.8956
25.4389
25.8766
26.2004
26.4227
26.5566
26.6081
26.577
26.4571
26.2378
25.9029
25.4193
24.7188
23.6675
21.9631
18.8011
13.777
7.09339
567.383
454.126
20.1944
20.1094
20.1932
20.4981
21.0252
21.5872
21.9627
22.0929
22.0091
21.8051
21.7173
21.8988
22.272
22.7967
23.5291
24.4697
25.4118
26.1581
26.682
27.0373
27.2761
27.4283
27.5048
27.5066
27.4313
27.2767
27.0412
26.7199
26.2941
25.6889
24.6083
22.3338
19.5705
587.528
455.221
20.2433
19.5461
18.7429
17.9436
17.7295
18.3585
19.2756
19.974
20.3807
20.6033
20.7814
21.0051
21.3102
21.7619
22.464
23.3854
24.2036
24.7445
25.0573
25.2327
25.3403
25.4414
25.5951
25.8226
26.0723
26.2703
26.3586
26.2886
26.0044
25.43
24.491
23.2377
21.8747
595.553
444.155
20.3366
20.7712
20.4979
19.7415
18.67
18.0639
18.3872
19.1353
19.8502
20.3459
20.636
20.8385
21.0576
21.3589
21.8159
22.4586
23.1254
23.5516
23.66
23.5307
23.2994
23.1395
23.1785
23.3676
23.5659
23.6698
23.6201
23.3831
22.9407
22.2816
21.3704
19.9893
17.5016
577.821
448.949
21.9516
22.3918
22.2797
21.8047
20.8993
19.6136
18.5193
18.0376
18.1422
18.5707
19.0188
19.3064
19.4085
19.4397
19.5707
19.9022
20.4722
21.2616
22.0779
22.6692
22.9574
23.0279
22.9937
22.9156
22.7969
22.6219
22.3753
22.047
21.6289
21.1016
20.3889
19.2611
17.0541
574.147
443.935
20.258
21.3325
22.0377
22.5772
22.9042
22.8949
22.3633
21.2921
20.0745
19.1357
18.6619
18.6436
18.9349
19.3285
19.6553
19.8272
19.8534
19.8429
19.9267
20.166
20.5447
21.0008
21.4539
21.8358
22.1019
22.2354
22.2431
22.1402
21.9342
21.6113
21.1156
20.293
18.5839
577.368
444.018
20.9565
21.7603
22.0298
22.1625
22.3064
22.5507
22.8956
23.1633
23.1102
22.6115
21.7034
20.5549
19.4139
18.5415
18.2009
18.5031
19.1351
19.6924
20.0349
20.1901
20.2246
20.2088
20.1988
20.225
20.2893
20.3667
20.419
20.414
20.3265
20.123
19.7339
19.0002
17.4472
577.326
451.236
21.4076
21.8052
21.9754
22.0214
21.9487
21.7647
21.5396
21.4173
21.5907
22.2367
23.0427
23.4469
23.2407
22.3747
20.8244
19.0765
18.2014
18.435
19.0881
19.6574
20.039
20.2658
20.3746
20.3865
20.3116
20.1587
19.9389
19.657
19.2948
18.799
18.0772
17.0564
15.6043
576.649
463.702
22.8716
22.5735
22.4141
22.2798
22.1302
21.9693
21.7773
21.3879
20.7279
20.4499
21.1233
22.0423
22.5975
22.7457
22.3988
21.1517
19.6407
19.0903
19.3241
19.6987
19.9917
20.209
20.3648
20.4402
20.4218
20.3037
20.0895
19.7744
19.336
18.7558
18.0342
17.2113
16.1183
577.96
462.452
21.2424
20.7308
20.4666
20.1971
19.9213
19.935
20.5252
21.2333
21.568
21.5734
21.4499
21.3153
21.161
20.8909
20.4994
20.2724
20.2416
20.2929
20.408
20.5627
20.726
20.8796
21.012
21.1171
21.1915
21.232
21.2322
21.1806
21.0644
20.8721
20.5468
19.9335
18.8539
584.835
457.604
21.0025
20.771
20.4191
19.7521
18.7786
18.1503
18.7865
20.005
20.7056
20.9032
20.8051
20.6044
20.587
20.8148
21.0517
21.2526
21.4619
21.6971
21.9457
22.1883
22.4113
22.6091
22.7767
22.9016
22.971
22.9837
22.9434
22.8472
22.6734
22.3796
21.927
21.308
20.5244
592.465
453.482
21.1296
21.1109
20.9099
20.4306
19.5668
18.5063
17.9744
18.3981
19.1679
19.8301
20.3269
20.663
20.8811
21.0583
21.2615
21.5243
21.8633
22.3013
22.8564
23.4877
24.0613
24.4204
24.5095
24.3758
24.0779
23.6449
23.09
22.4343
21.7186
20.991
20.2735
19.5074
18.3137
583.531
451.823
20.7283
20.7852
20.8254
20.8321
20.6382
19.9566
18.7104
17.7111
17.7841
18.4197
19.0846
19.6075
19.9568
20.1606
20.2827
20.3969
20.5648
20.8408
21.2821
21.9368
22.7834
23.6517
24.305
24.6053
24.5596
24.2372
23.7072
23.0319
22.2725
21.4708
20.6021
19.4625
17.322
575.47
449.035
20.4334
20.6346
20.7308
20.838
20.9683
21.0131
20.6826
19.603
17.9085
16.5844
16.3451
17.1463
18.2909
19.2045
19.7877
20.1282
20.3139
20.4103
20.4754
20.5713
20.7644
21.1029
21.5779
22.1044
22.5663
22.8691
22.9641
22.8603
22.6069
22.2423
21.7484
20.9922
19.4086
578.339
451.469
21.0045
21.1533
21.1752
21.1492
21.1128
21.1313
21.2088
21.1688
20.6718
19.2992
17.0078
14.8939
14.6138
15.9631
17.411
18.4137
19.0577
19.4849
19.782
19.993
20.1444
20.2613
20.3696
20.4886
20.6253
20.7759
20.9273
21.0565
21.144
21.1868
21.188
21.0615
20.3329
586.209
453.124
20.9789
21.1618
21.2759
21.3344
21.3072
21.1706
20.9624
20.7722
20.6013
20.2926
19.4767
17.4733
14.5442
13.5915
14.928
16.3873
17.3695
18.0078
18.4613
18.8124
19.093
19.314
19.4813
19.6033
19.6973
19.7845
19.8734
19.9689
20.1241
20.4619
20.9405
21.1739
20.7847
592.54
453.583
21.014
21.2917
21.4903
21.6244
21.6644
21.5755
21.328
20.9332
20.4532
19.9308
19.3125
18.2954
16.0353
13.0384
13.0195
14.6947
15.9456
16.7271
17.2804
17.7437
18.1939
18.6881
19.229
19.724
20.0191
20.042
19.8973
19.7603
19.7767
19.9617
20.1228
20.0485
19.4162
586.93
452.644
21.1958
21.6768
21.9916
22.2048
22.3005
22.2641
22.0835
21.7524
21.2891
20.7333
20.1003
19.3141
18.0329
15.2271
11.8198
12.1252
13.9704
15.2897
16.1893
16.9618
17.7912
18.7531
19.7602
20.5688
20.9542
20.8903
20.5854
20.2638
20.0234
19.8451
19.6209
19.1617
17.891
580.545
452.226
21.2095
21.7658
22.1551
22.4574
22.6527
22.7152
22.6288
22.386
21.9934
21.4875
20.9204
20.3217
19.6362
18.5463
15.9795
12.0558
11.4152
13.2844
14.8617
15.9824
16.9407
17.9543
19.1012
20.2332
21.0803
21.5028
21.575
21.46
21.2664
21.0175
20.6667
20.0611
18.6106
580.163
451.473
21.1832
21.8146
22.2642
22.644
22.9411
23.1229
23.1567
23.0196
22.7043
22.2251
21.6237
20.9659
20.2976
19.6077
18.6885
16.7208
12.6985
9.87691
11.3401
13.4634
15.0068
16.2099
17.3104
18.4401
19.5477
20.4623
21.071
21.4009
21.5284
21.4938
21.2826
20.7911
19.5005
581.936
451.601
21.2879
21.915
22.3712
22.7852
23.1567
23.4552
23.6367
23.6579
23.4856
23.1062
22.5389
21.8532
21.1448
20.4798
19.8509
19.1269
17.8143
14.7091
10.9271
10.8587
12.798
14.4673
15.7284
16.7746
17.7562
18.6948
19.5033
20.0833
20.4243
20.5625
20.5027
20.1738
19.1331
582.353
452.522
21.2905
21.8386
22.2644
22.673
23.0672
23.4224
23.6968
23.8487
23.8501
23.6822
23.32
22.7406
21.9835
21.1659
20.3819
19.6347
18.8171
17.5709
14.9367
11.3959
10.7505
12.3753
14.0173
15.3068
16.3352
17.2194
17.9896
18.601
19.0044
19.2
19.2002
18.9644
18.1346
582.055
453.351
21.3656
21.8753
22.293
22.71
23.1218
23.494
23.7792
23.938
23.9496
23.8096
23.5208
23.0807
22.4845
21.7646
21.0046
20.2665
19.5284
18.6558
17.3015
14.746
11.806
11.384
12.7594
14.2171
15.4
16.3346
17.077
17.6341
17.9912
18.1505
18.1239
17.8868
17.1357
581.467
453.841
21.3753
21.8525
22.2692
22.7154
23.1843
23.6163
23.9442
24.135
24.1857
24.1029
23.8877
23.5308
23.0139
22.337
21.5535
20.7457
19.9469
19.0985
18.0177
16.3531
13.9
12.0432
12.2337
13.4148
14.6291
15.6467
16.448
17.0278
17.3789
17.5131
17.4561
17.2061
16.5113
581.439
455.252
21.4247
21.7857
22.1725
22.66
23.2204
23.7223
24.0559
24.202
24.1867
24.0396
23.78
23.4139
22.9371
22.3427
21.6406
20.8684
20.0579
19.1811
18.1178
16.6391
14.632
12.7724
12.4147
13.2664
14.3805
15.3891
16.1982
16.7695
17.0902
17.1795
17.0771
16.7929
16.0943
581.264
455.043
21.085
21.3521
21.7206
22.2901
23.0291
23.7051
24.1595
24.3881
24.4383
24.347
24.1312
23.7929
23.3238
22.7154
21.9794
21.1587
20.2997
19.4037
18.4012
17.1466
15.5262
13.8569
13.0587
13.3793
14.2256
15.1592
15.9855
16.5924
16.93
17.0145
16.8993
16.6058
15.9185
581.296
455.913
20.9263
21.0188
21.3204
21.9322
22.7783
23.5068
23.955
24.1606
24.191
24.0873
23.8672
23.5335
23.0787
22.4907
21.7662
20.924
19.9959
18.994
17.8877
16.6405
15.3127
14.1755
13.6696
13.8869
14.5208
15.2935
16.0271
16.5835
16.8839
16.9372
16.7972
16.4753
15.7353
580.835
454.318
20.3569
20.4163
20.7198
21.426
22.4472
23.3269
23.874
24.1556
24.2569
24.2204
24.0605
23.7756
23.3534
22.777
22.042
21.1748
20.2237
19.2195
18.1479
16.9875
15.7989
14.7949
14.279
14.3296
14.7719
15.403
16.0518
16.562
16.8338
16.8673
16.7121
16.365
15.5537
580.134
453.827
20.1615
20.0855
20.2308
20.7478
21.6846
22.6108
23.2433
23.6018
23.7661
23.7858
23.6814
23.4569
23.1041
22.6076
21.9537
21.149
20.2291
19.2343
18.1858
17.0986
16.0453
15.206
14.7789
14.7737
15.0695
15.5473
16.0767
16.5053
16.726
16.7327
16.5639
16.1932
15.3038
579.294
452.645
19.9066
19.7648
19.7826
20.0921
20.9469
22.0143
22.8176
23.3028
23.5617
23.6603
23.6271
23.4688
23.1801
22.7489
22.1654
21.4358
20.588
19.6591
18.6739
17.6459
16.6189
15.7373
15.2179
15.1122
15.2896
15.6348
16.048
16.3957
16.57
16.5568
16.3814
15.9958
15.0432
578.522
452.39
19.8984
19.6707
19.5011
19.4036
19.7833
20.7949
21.8043
22.4907
22.8943
23.1024
23.1647
23.1009
22.9149
22.6025
22.1565
21.5721
20.8566
20.0325
19.1268
18.1603
17.1624
16.2357
15.5911
15.3637
15.4436
15.6749
15.9691
16.2284
16.3574
16.3309
16.1574
15.7727
14.7984
578
452.504
20.1427
20.0156
19.873
19.6659
19.6061
20.2503
21.2379
22.0065
22.4869
22.7593
22.8822
22.8823
22.7688
22.5425
22.2
21.7393
21.1631
20.4802
19.7029
18.8405
17.9044
16.9471
16.1304
15.6748
15.605
15.7279
15.9
16.0507
16.1177
16.0717
15.9029
15.5354
14.5861
577.684
452.269
20.3376
20.3098
20.1911
19.9007
19.4392
19.4717
20.3262
21.2554
21.9047
22.304
22.5304
22.628
22.6146
22.4958
22.2704
21.9349
21.4869
20.9283
20.2663
19.5083
18.6592
17.7359
16.8215
16.1155
15.8116
15.8311
15.9334
15.9971
15.9911
15.9047
15.7244
15.3714
14.4745
577.624
453.033
20.6815
20.7395
20.7118
20.5263
20.0515
19.5652
19.909
20.744
21.4588
21.9378
22.2371
22.4063
22.471
22.4415
22.3193
22.1011
21.7826
21.3592
20.8294
20.1948
19.4573
18.6184
17.7014
16.8078
16.1589
15.9262
15.9698
16.0316
16.0128
15.9084
15.7144
15.3596
14.4858
577.695
453.461
20.726
20.7771
20.7715
20.6402
20.2499
19.6502
19.5829
20.2702
21.0473
21.6132
21.9804
22.2076
22.3321
22.3715
22.3303
22.2066
21.9961
21.6918
21.289
20.7855
20.1804
19.4716
18.6568
17.7549
16.8711
16.2291
15.9782
15.9651
15.9598
15.8792
15.7046
15.3735
14.5541
577.989
455.493
21.0033
20.975
20.9572
20.8502
20.5487
20.0972
19.8805
20.2897
20.9459
21.4868
21.8564
22.096
22.244
22.3222
22.3348
22.2776
22.1489
21.9431
21.6498
21.2641
20.7857
20.2139
19.543
18.7636
17.8902
17.0237
16.3681
16.0419
15.9145
15.8107
15.6486
15.3537
14.6229
578.446
455.257
20.8
20.7363
20.6938
20.5632
20.298
20.0549
20.0484
20.4151
20.9674
21.4486
21.7935
22.0281
22.184
22.2809
22.3243
22.3108
22.2375
22.0996
21.8897
21.6011
21.2316
20.7818
20.248
19.6193
18.8824
18.0495
17.2146
16.5517
16.1448
15.896
15.6768
15.3813
14.7231
578.988
454.901
20.7717
20.7194
20.686
20.5664
20.3171
20.1156
20.1699
20.5062
20.9804
21.4108
21.7342
21.9649
22.1269
22.236
22.2984
22.3134
22.2776
22.1867
22.0352
21.8179
21.5316
21.1762
20.7494
20.2437
19.644
18.934
18.1284
17.3231
16.6677
16.2114
15.8713
15.5213
14.8675
579.4
453.017
20.424
20.4192
20.4111
20.3324
20.1528
20.0201
20.1121
20.4346
20.8705
21.2841
21.6115
21.8537
22.0289
22.1519
22.2302
22.2654
22.2554
22.1968
22.0851
21.9166
21.6887
21.4003
21.0494
20.6304
20.1301
19.5272
18.8059
18.0004
17.2312
16.6211
16.1631
15.7362
15.0263
579.556
452.921
20.5138
20.5046
20.4912
20.4226
20.2421
20.0459
20.0392
20.2878
20.6884
21.0997
21.4421
21.7031
21.8953
22.0333
22.1274
22.1804
22.1904
22.1546
22.0696
21.9327
21.7421
21.4963
21.1936
20.8296
20.3932
19.8638
19.2193
18.4683
17.6969
17.0315
16.5022
16.0012
15.1925
579.494
452.663
20.339
20.2661
20.2224
20.1998
20.1487
20.0557
20.0401
20.2077
20.5372
20.9201
21.2648
21.5392
21.7455
21.8962
22.0034
22.0713
22.097
22.078
22.0115
21.8951
21.7272
21.5058
21.2292
20.8941
20.4918
20.0057
19.4177
18.7327
18.0158
17.3661
16.8106
16.2499
15.3287
579.334
453.388
20.4051
20.2145
20.08
20.0434
20.063
20.0508
20.0629
20.1868
20.4458
20.7792
21.1052
21.3795
21.5929
21.7528
21.8699
21.9492
21.9879
21.983
21.9326
21.8339
21.6843
21.4808
21.2209
20.9013
20.5154
20.0514
19.4985
18.8673
18.2115
17.6001
17.0445
16.4478
15.4429
579.248
453.614
20.2642
19.9176
19.6597
19.6427
19.8129
19.9459
20.039
20.1633
20.3705
20.65
20.947
21.2143
21.4321
21.5999
21.7243
21.8109
21.8599
21.8678
21.8329
21.7524
21.6223
21.4383
21.1968
20.8938
20.5237
20.0785
19.5546
18.968
18.3646
17.7902
17.243
16.627
15.5663
579.246
454.612
20.2783
19.728
19.2881
19.2234
19.4996
19.7414
19.9104
20.0638
20.2539
20.4965
20.7664
21.0249
21.2462
21.4219
21.5557
21.6523
21.7126
21.7347
21.7169
21.6563
21.5478
21.3863
21.1676
20.8876
20.542
20.1264
19.6412
19.1036
18.5487
18.0049
17.4641
16.8326
15.727
579.35
455.427
20.1554
19.3972
18.7504
18.5787
19.0072
19.4145
19.6867
19.8896
20.0864
20.3091
20.5572
20.8069
21.0314
21.2156
21.3599
21.4682
21.5419
21.5809
21.5836
21.5457
21.4611
21.3236
21.1278
20.8699
20.5481
20.1624
19.7179
19.2298
18.7214
18.2066
17.6725
17.0272
15.8803
579.493
456.212
20.1622
19.3237
18.5057
17.9356
18.341
18.9173
19.3276
19.6168
19.8539
20.0805
20.3175
20.5597
20.7869
20.9794
21.134
21.2543
21.3426
21.4008
21.4279
21.4185
21.3647
21.2578
21.0899
20.8553
20.552
20.1836
19.7613
19.3025
18.824
18.3305
17.8051
17.1556
15.9897
579.671
456.225
20.2908
19.5851
18.7573
17.6215
17.5628
18.2211
18.7923
19.1988
19.512
19.7814
20.0341
20.2785
20.5113
20.713
20.8782
21.0101
21.1124
21.1898
21.2425
21.265
21.248
21.1808
21.0526
20.8539
20.5796
20.2321
19.8253
19.3808
18.9169
18.4367
17.9222
17.2814
16.1233
579.931
456.189
20.6201
20.1365
19.4601
18.0929
17.0509
17.4178
18.0909
18.6252
19.0335
19.3698
19.6658
19.9381
20.1893
20.4051
20.5818
20.7249
20.841
20.9376
21.017
21.0741
21.0985
21.077
20.9968
20.8468
20.6186
20.3115
19.9362
19.514
19.064
18.5913
18.0794
17.4341
16.2541
580.051
455.561
20.7718
20.5081
20.0793
19.0525
17.3545
16.8345
17.3246
17.9282
18.4307
18.8472
19.2061
19.5241
19.8067
20.0471
20.2418
20.3972
20.5232
20.6328
20.7348
20.8267
20.8956
20.9227
20.8909
20.7887
20.6089
20.3502
20.0205
19.6361
19.2121
18.7522
18.2399
17.575
16.3322
579.942
453.922
20.7518
20.7675
20.6385
20.124
18.7658
17.2111
16.8153
17.1652
17.6853
18.1814
18.6233
19.0139
19.3531
19.6345
19.8549
20.0234
20.1578
20.277
20.3964
20.5211
20.6403
20.7259
20.7472
20.6872
20.5417
20.3143
20.0162
19.6627
19.2649
18.8225
18.3159
17.634
16.3188
579.608
451.123
20.6749
21.0468
21.2411
21.2279
20.7435
19.3231
17.7256
16.9377
16.9498
17.3536
17.8595
18.3529
18.7961
19.1636
19.4411
19.6388
19.7815
19.8956
20.0056
20.1335
20.2893
20.4485
20.5528
20.5598
20.4587
20.2586
19.9778
19.6379
19.2535
18.825
18.33
17.6486
16.2965
579.354
448.838
20.717
21.3589
21.7872
22.1203
22.2739
21.9699
20.7253
18.9396
17.4935
16.8977
17.0419
17.5204
18.0699
18.5781
18.9854
19.2727
19.4603
19.5834
19.6733
19.7609
19.8785
20.0439
20.224
20.3407
20.3357
20.2045
19.9676
19.6521
19.2806
18.861
18.3755
17.7053
16.3628
579.446
448.596
20.8359
21.5179
21.9881
22.4426
22.8791
23.2042
23.1883
22.3681
20.6309
18.6118
17.2649
16.9808
17.334
17.8908
18.4446
18.8927
19.2015
19.3918
19.4998
19.5601
19.6076
19.6814
19.8073
19.9576
20.0544
20.0375
19.898
19.6555
19.3324
18.9426
18.4774
17.8322
16.5445
579.967
451.893
21.326
21.8256
22.1957
22.5828
22.9945
23.3967
23.7212
23.8279
23.3899
21.9133
19.6392
17.8665
17.2922
17.5011
17.9935
18.5227
18.967
19.2775
19.4636
19.5566
19.5876
19.5883
19.5962
19.64
19.7063
19.7373
19.6829
19.5295
19.2838
18.9533
18.5321
17.9331
16.7358
580.755
457.925
22.0325
22.2466
22.5797
23.0215
23.4077
23.6677
23.8304
23.8965
23.8
23.3021
21.8357
19.7007
18.2734
17.9026
18.0983
18.4934
18.9191
19.2786
19.5301
19.6767
19.7377
19.7332
19.6855
19.6235
19.5729
19.5325
19.47
19.3518
19.1617
18.8924
18.5317
18.0052
16.9381
581.734
461.942
22.095
22.0441
22.5698
23.3502
23.8821
24.0908
24.0688
23.8873
23.5531
22.98
21.9516
20.4262
19.1925
18.7327
18.7468
18.9573
19.2444
19.5314
19.7621
19.9148
19.9905
19.997
19.9427
19.8396
19.7082
19.5691
19.4279
19.2708
19.0773
18.8296
18.5072
18.0378
17.0741
582.425
459.216
20.9933
20.9412
22.0566
23.2075
23.7369
23.8689
23.7576
23.4382
22.9033
22.1461
21.2379
20.4003
19.8748
19.6593
19.6277
19.7045
19.8498
20.02
20.1713
20.2783
20.3315
20.3295
20.2724
20.1613
20.0017
19.8065
19.5923
19.3686
19.131
18.8655
18.5497
18.1085
17.1992
582.692
452.796
19.497
19.6181
21.0777
22.2524
22.7479
22.9075
22.8312
22.5452
22.1177
21.6643
21.2706
20.9498
20.7068
20.5476
20.4658
20.4505
20.4864
20.5531
20.6232
20.6736
20.6907
20.6677
20.5998
20.4827
20.3132
20.0928
19.8325
19.5498
19.2578
18.9548
18.6202
18.1676
17.2246
582.234
448.585
18.679
18.4073
18.9059
20.2063
21.2241
21.7752
22.0256
22.0859
22.0286
21.8986
21.7236
21.5317
21.3498
21.1956
21.0774
20.9996
20.9636
20.963
20.979
20.9911
20.9838
20.9471
20.8732
20.7548
20.584
20.3554
20.0728
19.7538
19.4215
19.0842
18.7216
18.2304
17.1841
581.387
448.07
18.6355
17.9144
17.0819
17.4359
19.1735
20.5018
21.2478
21.6567
21.8617
21.927
21.8964
21.8068
21.6872
21.5572
21.4317
21.3245
21.2483
21.2086
21.194
21.1862
21.1682
21.1272
21.0534
20.9369
20.7675
20.5364
20.244
19.9072
19.552
19.189
18.7951
18.2488
17.0647
580.494
450.057
19.2239
18.6764
17.8394
16.3523
17.2267
19.04
20.2545
20.9498
21.3665
21.6174
21.7499
21.7924
21.7689
21.6983
21.5979
21.487
21.3888
21.3224
21.2882
21.2718
21.2542
21.2193
21.1543
21.0473
20.8862
20.6613
20.3725
20.0361
19.6755
19.2979
18.8762
18.2744
16.9591
579.909
452.51
19.4765
19.004
18.4589
17.1998
16.8864
18.3997
19.6918
20.4722
20.956
21.2777
21.4941
21.6278
21.6899
21.69
21.6386
21.5508
21.4507
21.3659
21.3118
21.2841
21.2654
21.2365
21.1807
21.0834
20.9312
20.7147
20.4348
20.1067
19.7482
19.3609
18.9146
18.264
16.8495
579.594
452.258
19.2001
18.6593
18.1135
17.4203
17.0566
18.1898
19.3633
20.1282
20.6284
20.9794
21.2345
21.4156
21.5314
21.5855
21.5829
21.532
21.4502
21.3639
21.2973
21.2595
21.24
21.2188
21.1754
21.092
20.9534
20.7507
20.4857
20.1713
19.8201
19.4296
18.9687
18.289
16.8245
579.581
449.49
19.1392
18.8645
18.4584
17.7011
16.8829
17.3276
18.5144
19.4596
20.0951
20.5401
20.869
21.1143
21.2899
21.4019
21.4528
21.4485
21.4001
21.3282
21.2586
21.2111
21.1866
21.1688
21.1354
21.0649
20.9403
20.7521
20.5021
20.2007
19.856
19.4639
18.9931
18.296
16.8112
579.66
448.585
19.6392
19.538
19.2902
18.7824
17.7267
16.6395
17.1056
18.2833
19.2327
19.8816
20.3428
20.687
20.9455
21.1318
21.2517
21.3094
21.3126
21.2742
21.2171
21.1671
21.1381
21.1229
21.1002
21.0457
20.9393
20.7701
20.5383
20.2518
19.9165
19.5279
19.0567
18.3608
16.8932
579.969
452.216
20.2383
19.8307
19.4119
19.1231
18.9218
17.7379
16.6398
17.2172
18.3526
19.2304
19.821
20.2427
20.5684
20.8212
21.0078
21.1337
21.1992
21.2091
21.1796
21.1358
21.1005
21.0795
21.0587
21.014
20.9229
20.7716
20.5579
20.2862
19.9605
19.5758
19.1045
18.4083
16.9521
580.221
460.006
20.8775
19.72
18.6965
18.2066
18.5447
18.4596
17.4181
17.3305
18.2788
19.1061
19.6188
20.0067
20.3466
20.6258
20.8386
20.992
21.0971
21.1528
21.16
21.1352
21.1021
21.0754
21.051
21.0097
20.9288
20.7926
20.5957
20.3394
20.025
19.6473
19.1799
18.4887
17.0512
580.527
464.944
20.6505
18.7313
17.1073
17.0582
17.8144
18.1304
17.99
18.31
19.0132
19.4855
19.8225
20.1154
20.387
20.6214
20.8084
20.9529
21.0628
21.1334
21.1604
21.1506
21.1209
21.0874
21.0531
21.0057
20.9257
20.797
20.6116
20.3671
20.0621
19.6901
19.2238
18.5278
17.0781
580.522
459.505
19.2342
17.3768
15.7051
16.3563
17.4617
18.091
18.6015
19.0988
19.4962
19.7973
20.0521
20.2812
20.4884
20.6713
20.8276
20.9587
21.0637
21.1376
21.1752
21.1782
21.1562
21.1214
21.0792
21.023
20.9383
20.8105
20.6307
20.394
20.0967
19.7305
19.2666
18.5655
17.0909
580.34
451.047
19.0606
18.2571
16.8024
15.6251
16.1251
17.2849
18.2351
18.8667
19.3142
19.6605
19.9476
20.1956
20.4123
20.6003
20.7631
20.9031
21.0187
21.1053
21.1583
21.177
21.1669
21.1365
21.0913
21.0284
20.9375
20.8069
20.6277
20.394
20.1004
19.737
19.2724
18.558
17.0314
579.887
448.326
20.3442
20.318
19.7041
17.7733
15.2524
14.6866
16.0908
17.4356
18.3291
18.942
19.3993
19.762
20.0633
20.3182
20.5364
20.724
20.882
21.0072
21.0957
21.1457
21.1602
21.1451
21.1056
21.0416
20.947
20.8135
20.6337
20.4015
20.1106
19.7496
19.2838
18.555
16.9689
579.47
449.545
20.514
20.7202
20.7553
20.5257
18.7506
14.9021
13.4364
15.0098
16.6762
17.7835
18.5345
19.0942
19.5359
19.8983
20.203
20.4609
20.6775
20.8532
20.9861
21.075
21.1213
21.1288
21.1013
21.04
20.9425
20.8042
20.6205
20.3862
20.0946
19.7329
19.2624
18.5146
16.8681
579.118
455.19
20.5185
20.0477
19.6384
19.3595
19.3896
17.283
13.5622
13.6177
15.5257
16.982
17.8783
18.5175
19.0467
19.4883
19.8641
20.193
20.4726
20.7001
20.8763
21.0027
21.0811
21.114
21.1034
21.05
20.9532
20.8117
20.6236
20.3853
20.0902
19.7242
19.2449
18.4743
16.7739
578.886
461.408
20.9296
19.7724
18.5935
17.2353
16.635
15.9673
13.7247
13.9492
15.8798
17.0359
17.7592
18.3538
18.8819
19.3343
19.7146
20.0491
20.351
20.6031
20.7993
20.9424
21.0362
21.0828
21.0828
21.0358
20.9413
20.7991
20.6085
20.3666
20.0669
19.6944
19.2029
18.4061
16.6587
578.612
461.503
20.1884
18.5033
16.5737
15.0788
14.2007
13.9293
14.1317
15.5824
16.7756
17.4605
17.9978
18.4819
18.9261
19.3308
19.7018
20.0404
20.338
20.5834
20.7737
20.9125
21.0035
21.0488
21.0481
21.0003
20.9044
20.7603
20.5674
20.3226
20.0192
19.6413
19.1399
18.3221
16.5386
578.237
457.175
19.0073
16.8959
13.9397
13.0316
13.1766
13.9156
15.0385
16.1768
16.9653
17.5545
18.0653
18.5312
18.963
19.3633
19.7304
20.059
20.3408
20.5704
20.7479
20.8761
20.9588
20.9979
20.993
20.9423
20.8444
20.6983
20.5026
20.254
19.9453
19.56
19.0465
18.2065
16.3863
577.706
454.258
18.7499
16.761
13.414
12.0441
12.4931
13.4558
14.6348
15.699
16.5403
17.2259
17.8208
18.3557
18.8425
19.2837
19.6772
20.0183
20.3022