/*--------------------------------*- C++ -*----------------------------------*\
| =========                 |                                                 |
| \\      /  F ield         | OpenFOAM: The Open Source CFD Toolbox           |
|  \\    /   O peration     | Version:  v2012                                 |
|   \\  /    A nd           | Website:  www.openfoam.com                      |
|    \\/     M anipulation  |                                                 |
\*---------------------------------------------------------------------------*/
FoamFile
{
    version     2.0;
    format      ascii;
    class       surfaceScalarField;
    location    "42";
    object      phi;
}
// * * * * * * * * * * * * * * * * * * * * * * * * * * * * * * * * * * * * * //

dimensions      [1 0 -1 0 0 0 0];
oriented        oriented;


internalField   nonuniform List<scalar> 
228225
(
-4.29136e-09
5.51109e-09
-1.46178e-09
-1.5427e-08
1.73305e-08
-6.18922e-09
-3.21336e-08
2.43325e-08
-7.6296e-09
-5.38692e-08
3.00597e-08
-8.32411e-09
-7.9724e-08
3.46677e-08
-8.80959e-09
-1.08624e-07
3.81493e-08
-9.25164e-09
-1.39523e-07
4.05972e-08
-9.6969e-09
-1.71387e-07
4.20423e-08
-1.01797e-08
-2.03303e-07
4.26197e-08
-1.07011e-08
-2.34398e-07
4.23795e-08
-1.12843e-08
-2.63944e-07
4.1473e-08
-1.19295e-08
-2.91254e-07
3.99697e-08
-1.2657e-08
-3.15796e-07
3.80032e-08
-1.34623e-08
-3.37073e-07
3.56362e-08
-1.43567e-08
-3.54711e-07
3.29607e-08
-1.53255e-08
-3.68382e-07
3.00452e-08
-1.63731e-08
-3.77896e-07
2.69883e-08
-1.74744e-08
-3.83132e-07
2.38301e-08
-1.85929e-08
-3.84028e-07
2.06327e-08
-1.97382e-08
-3.80572e-07
1.74358e-08
-2.08892e-08
-3.72852e-07
1.42868e-08
-2.20067e-08
-3.60989e-07
1.12069e-08
-2.30705e-08
-3.45165e-07
8.22952e-09
-2.4052e-08
-3.25611e-07
5.37096e-09
-2.49294e-08
-3.0259e-07
2.65666e-09
-2.56771e-08
-2.76426e-07
1.15325e-10
-2.62741e-08
-2.47467e-07
-2.26473e-09
-2.66983e-08
-2.16114e-07
-4.42288e-09
-2.69294e-08
-1.82833e-07
-6.33595e-09
-2.69448e-08
-1.4816e-07
-7.96054e-09
-2.67163e-08
-1.12729e-07
-9.23686e-09
-2.61903e-08
-7.74208e-08
-1.0071e-08
-2.52367e-08
-4.36552e-08
-1.02827e-08
-2.3484e-08
-1.42658e-08
-9.56742e-09
-1.98203e-08
-5.96944e-09
-8.29739e-09
-1.26231e-08
3.63683e-08
-1.82341e-08
-4.20482e-08
6.63844e-08
-1.9629e-08
-7.72486e-08
7.99375e-08
-2.04062e-08
-1.15108e-07
8.94084e-08
-2.14868e-08
-1.53395e-07
9.54598e-08
-2.25063e-08
-1.90563e-07
9.87221e-08
-2.34058e-08
-2.25403e-07
9.96805e-08
-2.42412e-08
-2.57105e-07
9.87704e-08
-2.50269e-08
-2.85063e-07
9.63543e-08
-2.57788e-08
-3.08926e-07
9.27362e-08
-2.64923e-08
-3.28476e-07
8.81997e-08
-2.71759e-08
-3.43683e-07
8.29965e-08
-2.78214e-08
-3.54586e-07
7.73417e-08
-2.84351e-08
-3.61353e-07
7.14116e-08
-2.90076e-08
-3.64175e-07
6.53313e-08
-2.95498e-08
-3.63305e-07
5.92245e-08
-3.00485e-08
-3.58992e-07
5.31814e-08
-3.05073e-08
-3.51515e-07
4.72732e-08
-3.09192e-08
-3.41151e-07
4.15545e-08
-3.12851e-08
-3.28196e-07
3.60797e-08
-3.15996e-08
-3.12922e-07
3.08782e-08
-3.18654e-08
-2.95611e-07
2.59718e-08
-3.20763e-08
-2.76522e-07
2.13726e-08
-3.22315e-08
-2.55916e-07
1.70905e-08
-3.23263e-08
-2.34036e-07
1.31352e-08
-3.2358e-08
-2.11112e-07
9.50998e-09
-3.23196e-08
-1.8739e-07
6.21631e-09
-3.22037e-08
-1.63075e-07
3.25938e-09
-3.19964e-08
-1.38378e-07
6.43776e-10
-3.16777e-08
-1.13517e-07
-1.6049e-09
-3.12158e-08
-8.87115e-08
-3.46768e-09
-3.05739e-08
-6.42008e-08
-4.88773e-09
-2.96958e-08
-4.03334e-08
-5.76825e-09
-2.83821e-08
-1.80369e-08
-5.81486e-09
-2.60478e-08
-3.2914e-09
-2.07157e-08
-1.11222e-08
5.42177e-08
-6.72811e-09
-2.82104e-08
9.16347e-08
-8.16125e-09
-4.70525e-08
1.0767e-07
-8.88956e-09
-6.63607e-08
1.18367e-07
-9.65146e-09
-8.52517e-08
1.248e-07
-1.04486e-08
-1.03084e-07
1.27879e-07
-1.13249e-08
-1.19392e-07
1.28254e-07
-1.22664e-08
-1.33819e-07
1.26489e-07
-1.32922e-08
-1.46123e-07
1.23029e-07
-1.437e-08
-1.56172e-07
1.18281e-07
-1.5498e-08
-1.63929e-07
1.12591e-07
-1.66333e-08
-1.69441e-07
1.06271e-07
-1.77623e-08
-1.72821e-07
9.95636e-08
-1.88434e-08
-1.74198e-07
9.26596e-08
-1.987e-08
-1.7377e-07
8.57237e-08
-2.08207e-08
-1.71716e-07
7.88676e-08
-2.16976e-08
-1.68218e-07
7.21698e-08
-2.24855e-08
-1.63446e-07
6.56904e-08
-2.31905e-08
-1.57558e-07
5.94733e-08
-2.38057e-08
-1.50707e-07
5.35631e-08
-2.43352e-08
-1.43032e-07
4.79811e-08
-2.47762e-08
-1.34668e-07
4.2741e-08
-2.51364e-08
-1.25717e-07
3.78385e-08
-2.5415e-08
-1.16278e-07
3.3269e-08
-2.56176e-08
-1.06439e-07
2.90366e-08
-2.57427e-08
-9.62754e-08
2.51418e-08
-2.57929e-08
-8.58736e-08
2.15795e-08
-2.57655e-08
-7.52978e-08
1.83381e-08
-2.56565e-08
-6.46057e-08
1.54091e-08
-2.54546e-08
-5.38539e-08
1.27823e-08
-2.51424e-08
-4.30785e-08
1.04498e-08
-2.46907e-08
-3.23296e-08
8.40617e-09
-2.40423e-08
-2.16751e-08
6.64338e-09
-2.30678e-08
-1.11832e-08
5.14887e-09
-2.1454e-08
3.20302e-09
-1.76783e-08
-1.23332e-08
5.79228e-08
8.62883e-09
-2.18121e-08
9.34134e-08
7.69883e-09
-2.97346e-08
1.08867e-07
6.72542e-09
-3.669e-08
1.19383e-07
5.93888e-09
-4.3004e-08
1.26006e-07
5.10928e-09
-4.87655e-08
1.29514e-07
4.12637e-09
-5.39975e-08
1.30546e-07
2.94085e-09
-5.86621e-08
1.29575e-07
1.57914e-09
-6.2633e-08
1.26967e-07
3.33516e-11
-6.57532e-08
1.23038e-07
-1.63519e-09
-6.78989e-08
1.18144e-07
-3.4085e-09
-6.90441e-08
1.12608e-07
-5.19032e-09
-6.92836e-08
1.06727e-07
-6.92505e-09
-6.87409e-08
1.00689e-07
-8.57151e-09
-6.75357e-08
9.4634e-08
-1.0116e-08
-6.57875e-08
8.86532e-08
-1.1534e-08
-6.36027e-08
8.28241e-08
-1.28388e-08
-6.10833e-08
7.71911e-08
-1.40203e-08
-5.83174e-08
7.17966e-08
-1.50899e-08
-5.53749e-08
6.66639e-08
-1.60423e-08
-5.23215e-08
6.18128e-08
-1.68863e-08
-4.92115e-08
5.7251e-08
-1.76193e-08
-4.60959e-08
5.29727e-08
-1.82511e-08
-4.30161e-08
4.89729e-08
-1.87826e-08
-4.00014e-08
4.52425e-08
-1.92201e-08
-3.70709e-08
4.17715e-08
-1.95615e-08
-3.42119e-08
3.85297e-08
-1.98103e-08
-3.13932e-08
3.54869e-08
-1.99657e-08
-2.85574e-08
3.2601e-08
-2.00279e-08
-2.56102e-08
2.98225e-08
-1.99895e-08
-2.23984e-08
2.70788e-08
-1.98391e-08
-1.87045e-08
2.4285e-08
-1.95737e-08
-1.4133e-08
2.13074e-08
-1.92359e-08
-8.23907e-09
1.80222e-08
-1.87646e-08
1.17909e-08
-1.6829e-08
-1.16013e-08
5.40319e-08
1.54921e-08
-1.54142e-08
8.24732e-08
1.47535e-08
-1.548e-08
9.52638e-08
1.36683e-08
-1.34431e-08
1.04448e-07
1.28993e-08
-1.02886e-08
1.10659e-07
1.21891e-08
-6.57373e-09
1.14467e-07
1.13333e-08
-2.69898e-09
1.1634e-07
1.03305e-08
1.09069e-09
1.16635e-07
9.15101e-09
4.69939e-09
1.15603e-07
7.75435e-09
8.1101e-09
1.13499e-07
6.12849e-09
1.12995e-08
1.1058e-07
4.3731e-09
1.4217e-08
1.07094e-07
2.59686e-09
1.67972e-08
1.0325e-07
8.97143e-10
1.8977e-08
9.92237e-08
-7.14042e-10
2.0727e-08
9.5114e-08
-2.23066e-09
2.20506e-08
9.10009e-08
-3.67012e-09
2.29444e-08
8.69437e-08
-5.01504e-09
2.34125e-08
8.29915e-08
-6.26833e-09
2.3452e-08
7.91774e-08
-7.41954e-09
2.30614e-08
7.55274e-08
-8.47295e-09
2.22414e-08
7.20548e-08
-9.4232e-09
2.1004e-08
6.87647e-08
-1.02753e-08
1.9347e-08
6.56559e-08
-1.10264e-08
1.72801e-08
6.27208e-08
-1.16805e-08
1.4816e-08
5.99429e-08
-1.22372e-08
1.19971e-08
5.72921e-08
-1.27027e-08
8.88792e-09
5.47212e-08
-1.3081e-08
5.5787e-09
5.21743e-08
-1.3379e-08
2.20147e-09
4.95789e-08
-1.36e-08
-1.06372e-09
4.68355e-08
-1.37481e-08
-3.97484e-09
4.38108e-08
-1.38221e-08
-6.16004e-09
4.03282e-08
-1.38572e-08
-6.99723e-09
3.61405e-08
-1.39961e-08
-5.58509e-09
3.09279e-08
-1.43173e-08
1.99414e-08
-1.37361e-08
-6.34502e-09
4.62852e-08
1.40905e-08
-6.35514e-09
6.926e-08
1.32263e-08
-3.0569e-09
7.9831e-08
1.21327e-08
2.19516e-09
8.77012e-08
1.14938e-08
8.53918e-09
9.33843e-08
1.09332e-08
1.54488e-08
9.72905e-08
1.02657e-08
2.25615e-08
9.9786e-08
9.44224e-09
2.95977e-08
1.01111e-07
8.48792e-09
3.62857e-08
1.01493e-07
7.42108e-09
4.23744e-08
1.01115e-07
6.29536e-09
4.7644e-08
1.00172e-07
5.13839e-09
5.19697e-08
9.87979e-08
3.97056e-09
5.53317e-08
9.70995e-08
2.78791e-09
5.77739e-08
9.51672e-08
1.61478e-09
5.93392e-08
9.30865e-08
4.60448e-10
6.0074e-08
9.09159e-08
-6.49043e-10
6.00147e-08
8.87115e-08
-1.70855e-09
5.92069e-08
8.65112e-08
-2.71147e-09
5.76901e-08
8.4346e-08
-3.65284e-09
5.55046e-08
8.22361e-08
-4.52336e-09
5.26905e-08
8.0193e-08
-5.32276e-09
4.9281e-08
7.82187e-08
-6.04622e-09
4.53266e-08
7.63066e-08
-6.69556e-09
4.08747e-08
7.44412e-08
-7.26926e-09
3.59946e-08
7.2595e-08
-7.77087e-09
3.0759e-08
7.07297e-08
-8.20176e-09
2.52582e-08
6.87885e-08
-8.5675e-09
1.96071e-08
6.66973e-08
-8.873e-09
1.3962e-08
6.43511e-08
-9.12604e-09
8.51438e-09
6.16139e-08
-9.33137e-09
3.52463e-09
5.82953e-08
-9.49456e-09
-6.37569e-10
5.41487e-08
-9.65821e-09
-3.33914e-09
4.88273e-08
-9.98594e-09
-3.72337e-09
4.19046e-08
-1.05933e-08
2.68509e-08
-1.06316e-08
-2.17956e-09
3.90474e-08
9.41694e-09
-8.46706e-10
5.9534e-08
8.39295e-09
2.56879e-09
6.90408e-08
7.37378e-09
7.27435e-09
7.6238e-08
6.75958e-09
1.26967e-08
8.16558e-08
6.30449e-09
1.84785e-08
8.56778e-08
5.83238e-09
2.43461e-08
8.86034e-08
5.31375e-09
3.00516e-08
9.06609e-08
4.74557e-09
3.53852e-08
9.20215e-08
4.1376e-09
4.01874e-08
9.28267e-08
3.48529e-09
4.4376e-08
9.31845e-08
2.8003e-09
4.78958e-08
9.31918e-08
2.08691e-09
5.07085e-08
9.29243e-08
1.36185e-09
5.27953e-08
9.24495e-08
6.30979e-10
5.41567e-08
9.18183e-08
-9.34497e-11
5.47925e-08
9.10757e-08
-7.93399e-10
5.47151e-08
9.0255e-08
-1.46802e-09
5.39548e-08
8.93848e-08
-2.11284e-09
5.25355e-08
8.84835e-08
-2.71788e-09
5.04918e-08
8.75621e-08
-3.28134e-09
4.78568e-08
8.66247e-08
-3.79754e-09
4.46765e-08
8.56665e-08
-4.26693e-09
4.09939e-08
8.46756e-08
-4.68664e-09
3.68661e-08
8.36277e-08
-5.05911e-09
3.23554e-08
8.24894e-08
-5.38395e-09
2.75415e-08
8.12096e-08
-5.66537e-09
2.25134e-08
7.97217e-08
-5.90532e-09
1.73901e-08
7.7931e-08
-6.11038e-09
1.23133e-08
7.57129e-08
-6.2851e-09
7.4656e-09
7.28972e-08
-6.43552e-09
3.07067e-09
6.9256e-08
-6.56497e-09
-5.56315e-10
6.44847e-08
-6.70963e-09
-2.89683e-09
5.81683e-08
-6.99941e-09
-3.23216e-09
4.9763e-08
-7.52553e-09
3.12576e-08
-7.63686e-09
-5.09157e-10
3.41732e-08
5.38431e-09
3.63701e-10
5.41108e-08
4.54909e-09
2.17843e-09
6.34027e-08
3.82368e-09
4.51663e-09
7.05072e-08
3.39174e-09
7.14764e-09
7.59584e-08
3.06716e-09
9.94401e-09
8.01355e-08
2.7457e-09
1.28179e-08
8.33319e-08
2.39775e-09
1.5683e-08
8.57641e-08
2.02916e-09
1.84669e-08
8.76014e-08
1.63871e-09
2.10884e-08
8.89709e-08
1.23326e-09
2.34854e-08
8.99744e-08
8.12795e-10
2.56031e-08
9.06894e-08
3.85357e-10
2.73945e-08
9.11789e-08
-4.62442e-11
2.88169e-08
9.1491e-08
-4.65874e-10
2.98502e-08
9.16647e-08
-8.78469e-10
3.04698e-08
9.17311e-08
-1.27452e-09
3.06641e-08
9.17131e-08
-1.65292e-09
3.04285e-08
9.16255e-08
-2.00603e-09
2.97692e-08
9.14769e-08
-2.33328e-09
2.86894e-08
9.12707e-08
-2.63009e-09
2.72113e-08
9.10019e-08
-2.89774e-09
2.53499e-08
9.06604e-08
-3.13362e-09
2.31411e-08
9.02253e-08
-3.34058e-09
2.06179e-08
8.9668e-08
-3.51776e-09
1.78308e-08
8.89449e-08
-3.66936e-09
1.48398e-08
8.79991e-08
-3.79602e-09
1.17131e-08
8.67504e-08
-3.90322e-09
8.5424e-09
8.50951e-08
-3.99327e-09
5.43907e-09
8.28894e-08
-4.0728e-09
2.53192e-09
7.9947e-08
-4.14351e-09
-1.31488e-11
7.60111e-08
-4.21035e-09
-1.98018e-09
7.07479e-08
-4.29422e-09
-3.02635e-09
6.36952e-08
-4.48279e-09
-2.69099e-09
5.4251e-08
-4.8231e-09
3.34243e-08
-4.85676e-09
-5.37216e-10
3.13552e-08
3.35511e-09
-5.74654e-10
5.12618e-08
2.88587e-09
-1.99624e-10
6.05327e-08
2.49518e-09
4.07028e-10
6.76428e-08
2.25707e-09
1.16994e-09
7.31272e-08
2.06921e-09
2.0521e-09
7.73797e-08
1.87416e-09
3.02643e-09
8.06924e-08
1.66441e-09
4.06661e-09
8.32865e-08
1.43898e-09
5.13495e-09
8.53271e-08
1.20431e-09
6.20611e-09
8.69407e-08
9.60071e-10
7.24473e-09
8.82228e-08
7.12923e-10
8.22361e-09
8.92471e-08
4.63607e-10
9.11426e-09
9.00696e-08
2.18172e-10
9.8914e-09
9.07335e-08
-1.92189e-11
1.05264e-08
9.1271e-08
-2.41451e-10
1.10021e-08
9.17057e-08
-4.49217e-10
1.12982e-08
9.20544e-08
-6.39287e-10
1.14098e-08
9.2327e-08
-8.11182e-10
1.13207e-08
9.25272e-08
-9.6087e-10
1.10275e-08
9.26539e-08
-1.09037e-09
1.05253e-08
9.26994e-08
-1.19675e-09
9.82435e-09
9.2647e-08
-1.28347e-09
8.92672e-09
9.24718e-08
-1.34966e-09
7.85714e-09
9.21393e-08
-1.40019e-09
6.63308e-09
9.1602e-08
-1.43517e-09
5.29762e-09
9.07967e-08
-1.46054e-09
3.88591e-09
8.96391e-08
-1.47733e-09
2.45657e-09
8.80175e-08
-1.49241e-09
1.06939e-09
8.57832e-08
-1.50754e-09
-1.94015e-10
8.27398e-08
-1.52905e-09
-1.24846e-09
7.86233e-08
-1.55768e-09
-1.97486e-09
7.30858e-08
-1.61115e-09
-2.19434e-09
6.56536e-08
-1.73912e-09
-1.67552e-09
5.56982e-08
-1.96753e-09
3.37865e-08
-2.03672e-09
-1.24159e-09
2.97128e-08
2.88499e-09
-2.30789e-09
4.9482e-08
2.84519e-09
-3.19106e-09
5.86661e-08
2.75069e-09
-3.93646e-09
6.56973e-08
2.69108e-09
-4.54413e-09
7.11141e-08
2.61925e-09
-5.00177e-09
7.53128e-08
2.52589e-09
-5.30707e-09
7.85886e-08
2.4094e-09
-5.46279e-09
8.11625e-08
2.27787e-09
-5.46866e-09
8.32015e-08
2.1332e-09
-5.34178e-09
8.48306e-08
1.9827e-09
-5.0907e-09
8.61457e-08
1.82769e-09
-4.73978e-09
8.72184e-08
1.67534e-09
-4.30057e-09
8.81042e-08
1.52668e-09
-3.79856e-09
8.88437e-08
1.38832e-09
-3.25602e-09
8.94684e-08
1.26032e-09
-2.69776e-09
8.99984e-08
1.14917e-09
-2.14637e-09
9.04486e-08
1.05384e-09
-1.6235e-09
9.08262e-08
9.78726e-10
-1.1518e-09
9.11331e-08
9.21639e-10
-7.4507e-10
9.13635e-08
8.85445e-10
-4.2009e-10
9.15072e-08
8.64866e-10
-1.77797e-10
9.15449e-08
8.61482e-10
-2.63428e-11
9.14507e-08
8.70103e-10
3.34055e-11
9.11868e-08
8.90894e-10
1.53316e-11
9.0705e-08
9.17348e-10
-7.75446e-11
8.99396e-08
9.48775e-10
-2.21185e-10
8.88063e-08
9.77758e-10
-4.01672e-10
8.71923e-08
1.00282e-09
-5.83236e-10
8.4951e-08
1.01585e-09
-7.45641e-10
8.18871e-08
1.01519e-09
-8.56946e-10
7.77424e-08
9.92564e-10
-8.85488e-10
7.2174e-08
9.38894e-10
-7.69961e-10
6.47216e-08
8.16385e-10
-4.53699e-10
5.477e-08
6.124e-10
3.29445e-08
3.88653e-10
-1.9155e-09
2.85869e-08
3.04066e-09
-3.62401e-09
4.78368e-08
3.35588e-09
-5.19684e-09
5.67593e-08
3.47785e-09
-6.61783e-09
6.35754e-08
3.54401e-09
-7.86864e-09
6.8808e-08
3.55734e-09
-8.93339e-09
7.28463e-08
3.52891e-09
-9.79368e-09
7.59795e-08
3.47154e-09
-1.0449e-08
7.84267e-08
3.39018e-09
-1.08927e-08
8.03512e-08
3.2945e-09
-1.11293e-08
8.18785e-08
3.18749e-09
-1.1162e-08
8.31017e-08
3.07755e-09
-1.10038e-08
8.40941e-08
2.96664e-09
-1.06714e-08
8.49087e-08
2.8623e-09
-1.01812e-08
8.55882e-08
2.76547e-09
-9.55766e-09
8.61615e-08
2.68264e-09
-8.82476e-09
8.66515e-08
2.61345e-09
-8.00871e-09
8.70707e-08
2.56298e-09
-7.13969e-09
8.74279e-08
2.52918e-09
-6.24422e-09
8.77222e-08
2.51541e-09
-5.34754e-09
8.79486e-08
2.51825e-09
-4.47244e-09
8.80919e-08
2.53992e-09
-3.63608e-09
8.81346e-08
2.57492e-09
-2.85819e-09
8.80474e-08
2.62353e-09
-2.1453e-09
8.7795e-08
2.67898e-09
-1.50638e-09
8.73264e-08
2.74042e-09
-9.46358e-10
8.65794e-08
2.80005e-09
-4.65428e-10
8.54689e-08
2.85615e-09
-5.99315e-11
8.38883e-08
2.9e-09
2.67028e-10
8.1694e-08
2.92893e-09
5.18165e-10
7.87017e-08
2.93342e-09
6.88263e-10
7.46639e-08
2.9095e-09
7.63626e-10
6.92568e-08
2.84134e-09
7.36771e-10
6.20451e-08
2.70377e-09
5.85908e-10
5.24482e-08
2.47281e-09
3.14642e-08
2.06599e-09
-2.11967e-09
2.77457e-08
2.95993e-09
-4.05966e-09
4.6306e-08
3.47131e-09
-5.89371e-09
5.48916e-08
3.70309e-09
-7.58241e-09
6.14301e-08
3.83263e-09
-9.08457e-09
6.64273e-08
3.88291e-09
-1.03777e-08
7.02558e-08
3.8836e-09
-1.1444e-08
7.31997e-08
3.84629e-09
-1.22696e-08
7.54699e-08
3.78296e-09
-1.28477e-08
7.72292e-08
3.699e-09
-1.31712e-08
7.85987e-08
3.60416e-09
-1.32455e-08
7.9674e-08
3.50225e-09
-1.30792e-08
8.05254e-08
3.40173e-09
-1.26852e-08
8.121e-08
3.30514e-09
-1.2086e-08
8.17681e-08
3.21979e-09
-1.13029e-08
8.22326e-08
3.14689e-09
-1.03686e-08
8.26243e-08
3.0923e-09
-9.31031e-09
8.29593e-08
3.05552e-09
-8.16929e-09
8.32434e-08
3.04068e-09
-6.97026e-09
8.3479e-08
3.04532e-09
-5.75238e-09
8.36586e-08
3.07164e-09
-4.54767e-09
8.37712e-08
3.11519e-09
-3.38367e-09
8.3795e-08
3.17635e-09
-2.28918e-09
8.37038e-08
3.24887e-09
-1.28113e-09
8.34581e-08
3.33157e-09
-3.84575e-10
8.30111e-08
3.4168e-09
3.9401e-10
8.22978e-08
3.50221e-09
1.04486e-09
8.12393e-08
3.5791e-09
1.5616e-09
7.97291e-08
3.64408e-09
1.93255e-09
7.76339e-08
3.68737e-09
2.15581e-09
7.47751e-08
3.70444e-09
2.21312e-09
7.09236e-08
3.68371e-09
2.08261e-09
6.57707e-08
3.61471e-09
1.74631e-09
5.89141e-08
3.46741e-09
1.16974e-09
4.98085e-08
3.21665e-09
2.99395e-08
2.69496e-09
-1.82538e-09
2.72881e-08
2.28307e-09
-3.63832e-09
4.53186e-08
2.8011e-09
-5.43474e-09
5.3639e-08
3.04641e-09
-7.12752e-09
5.99517e-08
3.17285e-09
-8.66393e-09
6.47454e-08
3.21756e-09
-1.00004e-08
6.83845e-08
3.20842e-09
-1.11091e-08
7.11451e-08
3.16211e-09
-1.19605e-08
7.32376e-08
3.08594e-09
-1.25436e-08
7.48208e-08
2.99031e-09
-1.28447e-08
7.60191e-08
2.88081e-09
-1.28641e-08
7.69263e-08
2.76676e-09
-1.26106e-08
7.76178e-08
2.65251e-09
-1.20939e-08
7.81496e-08
2.54625e-09
-1.1346e-08
7.85675e-08
2.45102e-09
-1.03897e-08
7.89033e-08
2.37366e-09
-9.26214e-09
7.91832e-08
2.31554e-09
-8.00718e-09
7.94213e-08
2.28164e-09
-6.66379e-09
7.96284e-08
2.27121e-09
-5.27512e-09
7.98037e-08
2.28702e-09
-3.88663e-09
7.99437e-08
2.32601e-09
-2.53695e-09
8.00334e-08
2.38873e-09
-1.26581e-09
8.00543e-08
2.46992e-09
-1.05673e-10
7.99756e-08
2.56809e-09
9.15048e-10
7.97608e-08
2.67617e-09
1.77735e-09
7.93584e-08
2.79108e-09
2.46488e-09
7.87074e-08
2.90445e-09
2.96527e-09
7.77253e-08
3.01205e-09
3.27804e-09
7.63117e-08
3.10456e-09
3.4018e-09
7.43333e-08
3.17685e-09
3.33818e-09
7.16213e-08
3.21871e-09
3.08256e-09
6.79526e-08
3.22362e-09
2.64334e-09
6.30361e-08
3.17643e-09
2.0162e-09
5.64873e-08
3.05422e-09
1.20795e-09
4.77923e-08
2.8237e-09
2.88236e-08
2.32387e-09
-1.20304e-09
2.74171e-08
1.07452e-09
-2.69244e-09
4.5356e-08
1.45147e-09
-4.3001e-09
5.36112e-08
1.63491e-09
-5.90047e-09
5.98409e-08
1.71241e-09
-7.40536e-09
6.45351e-08
1.71497e-09
-8.74905e-09
6.80564e-08
1.67048e-09
-9.87656e-09
7.06851e-08
1.58957e-09
-1.07539e-08
7.26317e-08
1.48216e-09
-1.1348e-08
7.40612e-08
1.35447e-09
-1.1645e-08
7.50993e-08
1.21615e-09
-1.16398e-08
7.5846e-08
1.07328e-09
-1.13313e-08
7.63777e-08
9.35041e-10
-1.0746e-08
7.67572e-08
8.05067e-10
-9.90192e-09
7.70318e-08
6.91409e-10
-8.83592e-09
7.72401e-08
5.97691e-10
-7.59171e-09
7.74079e-08
5.29919e-10
-6.21263e-09
7.75553e-08
4.89486e-10
-4.75914e-09
7.76912e-08
4.8009e-10
-3.27208e-09
7.78194e-08
5.00537e-10
-1.8152e-09
7.79328e-08
5.51852e-10
-4.29827e-10
7.80197e-08
6.30187e-10
8.32662e-10
7.80566e-08
7.34039e-10
1.93637e-09
7.80145e-08
8.57185e-10
2.84978e-09
7.78513e-08
9.9604e-10
3.54812e-09
7.75166e-08
1.14264e-09
4.02103e-09
7.69432e-08
1.29204e-09
4.26084e-09
7.60503e-08
1.4353e-09
4.27408e-09
7.47319e-08
1.5667e-09
4.07246e-09
7.28575e-08
1.67682e-09
3.67992e-09
7.02552e-08
1.75986e-09
3.11761e-09
6.67071e-08
1.80624e-09
2.42405e-09
6.19232e-08
1.80708e-09
1.64309e-09
5.5529e-08
1.74013e-09
8.35344e-10
4.70187e-08
1.58003e-09
2.8434e-08
1.22568e-09
-5.2501e-10
2.82522e-08
-3.10195e-10
-1.6501e-09
4.66299e-08
-1.48955e-10
-3.0382e-09
5.50596e-08
-6.0157e-11
-4.52897e-09
6.13847e-08
-5.44187e-11
-5.99304e-09
6.61082e-08
-1.07046e-10
-7.34531e-09
6.96078e-08
-2.00142e-10
-8.50846e-09
7.21721e-08
-3.23744e-10
-9.4277e-09
7.40233e-08
-4.72727e-10
-1.00589e-08
7.53322e-08
-6.39098e-10
-1.0378e-08
7.62346e-08
-8.16736e-10
-1.03714e-08
7.68357e-08
-9.96357e-10
-1.00432e-08
7.72217e-08
-1.17124e-09
-9.4152e-09
7.74587e-08
-1.33152e-09
-8.51224e-09
7.76018e-08
-1.4721e-09
-7.37608e-09
7.76913e-08
-1.58597e-09
-6.05923e-09
7.77597e-08
-1.6697e-09
-4.6125e-09
7.78271e-08
-1.71849e-09
-3.0973e-09
7.79072e-08
-1.73158e-09
-1.57221e-09
7.80018e-08
-1.70698e-09
-9.89065e-11
7.81067e-08
-1.64686e-09
1.26581e-09
7.82063e-08
-1.5522e-09
2.47347e-09
7.8278e-08
-1.42801e-09
3.47752e-09
7.82872e-08
-1.2779e-09
4.24922e-09
7.81913e-08
-1.10919e-09
4.75707e-09
7.79326e-08
-9.27426e-10
5.00054e-09
7.74425e-08
-7.41372e-10
4.97743e-09
7.66318e-08
-5.57521e-10
4.70065e-09
7.53924e-08
-3.84943e-10
4.20499e-09
7.3585e-08
-2.29956e-10
3.52329e-09
7.10348e-08
-1.00574e-10
2.71776e-09
6.75147e-08
-1.44806e-12
1.8536e-09
6.2731e-08
5.75112e-11
1.01849e-09
5.62986e-08
6.46932e-11
3.3043e-10
4.77056e-08
1.45261e-12
2.88994e-08
-1.34514e-10
9.72748e-12
2.97487e-08
-1.50681e-09
-8.08213e-10
4.89969e-08
-1.54972e-09
-1.99195e-09
5.7802e-08
-1.5565e-09
-3.36129e-09
6.43721e-08
-1.62027e-09
-4.7656e-09
6.92391e-08
-1.7279e-09
-6.08908e-09
7.28019e-08
-1.86671e-09
-7.25374e-09
7.53677e-08
-2.0323e-09
-8.18423e-09
7.71719e-08
-2.21895e-09
-8.83003e-09
7.83996e-08
-2.42127e-09
-9.16034e-09
7.91952e-08
-2.63066e-09
-9.15955e-09
7.96761e-08
-2.84029e-09
-8.83068e-09
7.99352e-08
-3.04157e-09
-8.19416e-09
8.00483e-08
-3.22735e-09
-7.27663e-09
8.00742e-08
-3.38922e-09
-6.12559e-09
8.00608e-08
-3.52167e-09
-4.78978e-09
8.00423e-08
-3.61846e-09
-3.32837e-09
8.00445e-08
-3.67663e-09
-1.81065e-09
8.00804e-08
-3.69283e-09
-2.96192e-10
8.01555e-08
-3.66723e-09
1.14859e-09
8.02629e-08
-3.59974e-09
2.45952e-09
8.03878e-08
-3.49375e-09
3.58699e-09
8.0503e-08
-3.35232e-09
4.48371e-09
8.05727e-08
-3.1817e-09
5.11636e-09
8.05473e-08
-2.98751e-09
5.45875e-09
8.03663e-08
-2.77804e-09
5.50882e-09
7.99523e-08
-2.5604e-09
5.27527e-09
7.92113e-08
-2.34372e-09
4.77866e-09
7.80246e-08
-2.13517e-09
4.06012e-09
7.62457e-08
-1.94304e-09
3.17909e-09
7.36871e-08
-1.77257e-09
2.2137e-09
7.0111e-08
-1.62925e-09
1.25458e-09
6.52066e-08
-1.51655e-09
4.24698e-10
5.85714e-08
-1.44325e-09
-1.19489e-10
4.96682e-08
-1.41829e-09
3.01394e-08
-1.35926e-09
2.89103e-10
3.17098e-08
-2.24953e-09
-3.40895e-10
5.20609e-08
-2.43491e-09
-1.37924e-09
6.13503e-08
-2.50873e-09
-2.63943e-09
6.82523e-08
-2.62173e-09
-3.96242e-09
7.33302e-08
-2.76691e-09
-5.23425e-09
7.70119e-08
-2.93844e-09
-6.35807e-09
7.96239e-08
-3.13282e-09
-7.26055e-09
8.14207e-08
-3.347e-09
-7.88484e-09
8.26e-08
-3.57481e-09
-8.20075e-09
8.33202e-08
-3.80951e-09
-8.19053e-09
8.3707e-08
-4.04231e-09
-7.85217e-09
8.38634e-08
-4.2653e-09
-7.20685e-09
8.38715e-08
-4.46957e-09
-6.28342e-09
8.37987e-08
-4.64804e-09
-5.12486e-09
8.36967e-08
-4.79337e-09
-3.79041e-09
8.36064e-08
-4.90064e-09
-2.3353e-09
8.35548e-08
-4.96515e-09
-8.27962e-10
8.35592e-08
-4.98501e-09
6.62276e-10
8.36238e-08
-4.95878e-09
2.06881e-09
8.37435e-08
-4.88792e-09
3.32997e-09
8.38999e-08
-4.77438e-09
4.39252e-09
8.4065e-08
-4.62287e-09
5.20633e-09
8.41971e-08
-4.43838e-09
5.73779e-09
8.42435e-08
-4.22828e-09
5.96749e-09
8.41357e-08
-3.99971e-09
5.8919e-09
8.37908e-08
-3.76161e-09
5.52065e-09
8.31046e-08
-3.52198e-09
4.88279e-09
8.19505e-08
-3.28958e-09
4.03049e-09
8.0169e-08
-3.07116e-09
3.02981e-09
7.7561e-08
-2.87282e-09
1.96902e-09
7.38706e-08
-2.69759e-09
9.53293e-10
6.87696e-08
-2.5482e-09
1.24436e-10
6.18283e-08
-2.42794e-09
-3.48528e-10
5.24802e-08
-2.34079e-09
3.19362e-08
-2.1432e-09
3.15586e-10
3.38822e-08
-2.48679e-09
-2.65261e-10
5.53669e-08
-2.72538e-09
-1.24814e-09
6.51594e-08
-2.82723e-09
-2.44742e-09
7.24112e-08
-2.96038e-09
-3.71309e-09
7.77189e-08
-3.1218e-09
-4.93042e-09
8.15364e-08
-3.30706e-09
-6.00413e-09
8.42123e-08
-3.51454e-09
-6.86046e-09
8.60171e-08
-3.74064e-09
-7.44375e-09
8.71642e-08
-3.98034e-09
-7.72093e-09
8.78227e-08
-4.22593e-09
-7.67262e-09
8.81299e-08
-4.46948e-09
-7.306e-09
8.81965e-08
-4.70189e-09
-6.63151e-09
8.81138e-08
-4.91506e-09
-5.68661e-09
8.79543e-08
-5.10081e-09
-4.51401e-09
8.77767e-08
-5.25269e-09
-3.16746e-09
8.76249e-08
-5.36471e-09
-1.7108e-09
8.75305e-08
-5.4331e-09
-2.06896e-10
8.75114e-08
-5.45491e-09
1.27294e-09
8.75739e-08
-5.42967e-09
2.66251e-09
8.77112e-08
-5.35786e-09
3.89895e-09
8.79047e-08
-5.24241e-09
4.92976e-09
8.8122e-08
-5.08712e-09
5.70688e-09
8.83187e-08
-4.89795e-09
6.19548e-09
8.84358e-08
-4.68141e-09
6.37791e-09
8.83997e-08
-4.4457e-09
6.24786e-09
8.81188e-08
-4.19895e-09
5.82128e-09
8.74816e-08
-3.95024e-09
5.12912e-09
8.63506e-08
-3.70757e-09
4.22245e-09
8.45554e-08
-3.47859e-09
3.16767e-09
8.18823e-08
-3.26834e-09
2.06093e-09
7.806e-08
-3.08034e-09
1.00714e-09
7.27389e-08
-2.91581e-09
1.46296e-10
6.54641e-08
-2.77744e-09
-3.42141e-10
5.56376e-08
-2.66635e-09
3.40117e-08
-2.41873e-09
1.65528e-10
3.6007e-08
-2.2893e-09
-4.74753e-10
5.8504e-08
-2.49868e-09
-1.46893e-09
6.87461e-08
-2.59087e-09
-2.65171e-09
7.63112e-08
-2.71812e-09
-3.88168e-09
8.18238e-08
-2.87539e-09
-5.04956e-09
8.57623e-08
-3.0581e-09
-6.06582e-09
8.84927e-08
-3.26363e-09
-6.86146e-09
9.03021e-08
-3.48859e-09
-7.38616e-09
9.14156e-08
-3.72721e-09
-7.60537e-09
9.20148e-08
-3.97223e-09
-7.5072e-09
9.22454e-08
-4.21507e-09
-7.09098e-09
9.22277e-08
-4.44715e-09
-6.37644e-09
9.2059e-08
-4.65987e-09
-5.39541e-09
9.18193e-08
-4.84561e-09
-4.19322e-09
9.15716e-08
-4.99741e-09
-2.82218e-09
9.13648e-08
-5.1099e-09
-1.34559e-09
9.12327e-08
-5.17875e-09
1.70202e-10
9.11959e-08
-5.2016e-09
1.6623e-09
9.12609e-08
-5.17741e-09
3.05973e-09
9.14209e-08
-5.1072e-09
4.30173e-09
9.16547e-08
-4.99333e-09
5.33554e-09
9.19283e-08
-4.84008e-09
6.11597e-09
9.21923e-08
-4.65284e-09
6.60672e-09
9.23834e-08
-4.43859e-09
6.79083e-09
9.24212e-08
-4.20491e-09
6.66125e-09
9.22078e-08
-3.96046e-09
6.23498e-09
9.16229e-08
-3.7138e-09
5.5371e-09
9.052e-08
-3.4735e-09
4.62322e-09
8.87175e-08
-3.24684e-09
3.55617e-09
8.59897e-08
-3.03954e-09
2.4216e-09
8.20491e-08
-2.85497e-09
1.32628e-09
7.65291e-08
-2.69545e-09
4.04381e-10
6.89508e-08
-2.56442e-09
-1.84753e-10
5.8689e-08
-2.46563e-09
3.60792e-08
-2.24912e-09
-9.07321e-11
3.78961e-08
-1.79644e-09
-8.59454e-10
6.1186e-08
-1.91665e-09
-1.92059e-09
7.17791e-08
-1.97207e-09
-3.11984e-09
7.95853e-08
-2.07403e-09
-4.33319e-09
8.52506e-08
-2.21272e-09
-5.46192e-09
8.92715e-08
-2.38052e-09
-6.42671e-09
9.20293e-08
-2.57356e-09
-7.16124e-09
9.38235e-08
-2.7874e-09
-7.61924e-09
9.48905e-08
-3.01605e-09
-7.77357e-09
9.54208e-08
-3.2518e-09
-7.6106e-09
9.55692e-08
-3.48624e-09
-7.1362e-09
9.54631e-08
-3.71068e-09
-6.36769e-09
9.5207e-08
-3.9168e-09
-5.33766e-09
9.48863e-08
-4.09692e-09
-4.09077e-09
9.45695e-08
-4.24444e-09
-2.68087e-09
9.43088e-08
-4.35386e-09
-1.1683e-09
9.41414e-08
-4.4212e-09
3.80934e-10
9.40895e-08
-4.4439e-09
1.90419e-09
9.41603e-08
-4.42117e-09
3.33052e-09
9.43463e-08
-4.35378e-09
4.60529e-09
9.46251e-08
-4.24426e-09
5.67137e-09
9.49594e-08
-4.09656e-09
6.48189e-09
9.52964e-08
-3.91619e-09
7.00717e-09
9.55677e-08
-3.70971e-09
7.22612e-09
9.56875e-08
-3.48483e-09
7.13301e-09
9.5551e-08
-3.24986e-09
6.73838e-09
9.50305e-08
-3.01348e-09
6.07092e-09
9.39713e-08
-2.7841e-09
5.17637e-09
9.21823e-08
-2.5694e-09
4.11349e-09
8.94269e-08
-2.37534e-09
2.96325e-09
8.54056e-08
-2.20631e-09
1.82148e-09
7.97368e-08
-2.06598e-09
8.10447e-10
7.19236e-08
-1.96113e-09
8.03131e-11
6.13196e-08
-1.90062e-09
3.79337e-08
-1.77429e-09
-3.78011e-10
3.94438e-08
-1.16869e-09
-1.29619e-09
6.3274e-08
-1.1705e-09
-2.4439e-09
7.41022e-08
-1.17533e-09
-3.67962e-09
8.2063e-08
-1.24217e-09
-4.89086e-09
8.78164e-08
-1.35443e-09
-5.99128e-09
9.18715e-08
-1.50067e-09
-6.90728e-09
9.46205e-08
-1.67503e-09
-7.583e-09
9.6372e-08
-1.87211e-09
-7.97898e-09
9.73714e-08
-2.08533e-09
-8.06882e-09
9.78169e-08
-2.3068e-09
-7.84122e-09
9.78708e-08
-2.52807e-09
-7.30526e-09
9.76672e-08
-2.7406e-09
-6.47818e-09
9.73167e-08
-2.93623e-09
-5.3949e-09
9.69103e-08
-3.10749e-09
-4.09789e-09
9.65209e-08
-3.24794e-09
-2.64137e-09
9.62047e-08
-3.35229e-09
-1.0843e-09
9.60017e-08
-3.41665e-09
5.07687e-10
9.59357e-08
-3.43858e-09
2.06932e-09
9.60145e-08
-3.41729e-09
3.54046e-09
9.62303e-08
-3.35354e-09
4.85738e-09
9.65588e-08
-3.24976e-09
5.96577e-09
9.69601e-08
-3.1098e-09
6.82532e-09
9.73778e-08
-2.93895e-09
7.39697e-09
9.77387e-08
-2.74364e-09
7.66355e-09
9.79518e-08
-2.53131e-09
7.61798e-09
9.79062e-08
-2.31013e-09
7.26957e-09
9.74678e-08
-2.08863e-09
6.64371e-09
9.64741e-08
-1.87523e-09
5.77613e-09
9.47266e-08
-1.67781e-09
4.72538e-09
9.19802e-08
-1.50289e-09
3.56058e-09
8.79258e-08
-1.35586e-09
2.36987e-09
8.21713e-08
-1.24237e-09
1.25924e-09
7.42074e-08
-1.1732e-09
3.6704e-10
6.3374e-08
-1.16425e-09
3.94589e-08
-1.15717e-09
-6.29432e-10
4.063e-08
-5.55534e-10
-1.68654e-09
6.47692e-08
-4.3992e-10
-2.91577e-09
7.57261e-08
-3.93541e-10
-4.18878e-09
8.37609e-08
-4.24361e-10
-5.4078e-09
8.9541e-08
-5.08916e-10
-6.48417e-09
9.35832e-08
-6.32034e-10
-7.36586e-09
9.62861e-08
-7.85884e-10
-7.99414e-09
9.79661e-08
-9.64206e-10
-8.33673e-09
9.88743e-08
-1.15985e-09
-8.37192e-09
9.92162e-08
-1.36488e-09
-8.09077e-09
9.91601e-08
-1.57085e-09
-7.50158e-09
9.88464e-08
-1.76947e-09
-6.62103e-09
9.83911e-08
-1.95271e-09
-5.48926e-09
9.78908e-08
-2.11348e-09
-4.14413e-09
9.74227e-08
-2.24548e-09
-2.64455e-09
9.70471e-08
-2.34369e-09
-1.04318e-09
9.68063e-08
-2.40431e-09
5.909e-10
9.67261e-08
-2.42509e-09
2.19666e-09
9.68149e-08
-2.4052e-09
3.70737e-09
9.70642e-08
-2.34546e-09
5.06567e-09
9.74482e-08
-2.24808e-09
6.21994e-09
9.79244e-08
-2.11685e-09
7.12234e-09
9.84323e-08
-1.95678e-09
7.73886e-09
9.88947e-08
-1.77414e-09
8.05178e-09
9.9215e-08
-1.57603e-09
8.0531e-09
9.9277e-08
-1.37044e-09
7.74427e-09
9.89401e-08
-1.16569e-09
7.15442e-09
9.80361e-08
-9.70167e-10
6.31285e-09
9.63595e-08
-7.91788e-10
5.2716e-09
9.3659e-08
-6.37676e-10
4.09243e-09
8.96184e-08
-5.14031e-10
2.85362e-09
8.38389e-08
-4.28534e-10
1.65392e-09
7.58038e-08
-3.95835e-10
6.21982e-10
6.48459e-08
-4.38829e-10
4.06299e-08
-5.50077e-10
-8.03332e-10
4.14927e-08
-5.95494e-11
-1.95402e-09
6.57724e-08
1.46903e-10
-3.24148e-09
7.67792e-08
2.35071e-10
-4.5416e-09
8.48267e-08
2.3466e-10
-5.76087e-09
9.05855e-08
1.74243e-10
-6.82542e-09
9.4576e-08
7.23626e-11
-7.67814e-09
9.7202e-08
-6.21695e-11
-8.27548e-09
9.87842e-08
-2.22853e-10
-8.5798e-09
9.95799e-08
-4.01238e-10
-8.57267e-09
9.97996e-08
-5.89607e-10
-8.25258e-09
9.9618e-08
-7.7984e-10
-7.62234e-09
9.91811e-08
-9.63603e-10
-6.70857e-09
9.86107e-08
-1.13385e-09
-5.54299e-09
9.80079e-08
-1.28347e-09
-4.16672e-09
9.74551e-08
-1.40656e-09
-2.63895e-09
9.70154e-08
-1.49817e-09
-1.01221e-09
9.67347e-08
-1.55482e-09
6.48338e-10
9.66399e-08
-1.57422e-09
2.27859e-09
9.67402e-08
-1.55574e-09
3.81638e-09
9.70265e-08
-1.5e-09
5.20201e-09
9.74715e-08
-1.40926e-09
6.3833e-09
9.80296e-08
-1.287e-09
7.31735e-09
9.86374e-08
-1.13814e-09
7.96871e-09
9.92125e-08
-9.68578e-10
8.3135e-09
9.96538e-08
-7.85417e-10
8.34802e-09
9.98394e-08
-5.95683e-10