/*--------------------------------*- C++ -*----------------------------------*\
| =========                 |                                                 |
| \\      /  F ield         | OpenFOAM: The Open Source CFD Toolbox           |
|  \\    /   O peration     | Version:  v2012                                 |
|   \\  /    A nd           | Website:  www.openfoam.com                      |
|    \\/     M anipulation  |                                                 |
\*---------------------------------------------------------------------------*/
FoamFile
{
    version     2.0;
    format      ascii;
    class       volVectorField;
    location    "42";
    object      U;
}
// * * * * * * * * * * * * * * * * * * * * * * * * * * * * * * * * * * * * * //

dimensions      [0 1 -1 0 0 0 0];


internalField   nonuniform List<vector> 
78750
(
(-3.44459e-06 -9.30721e-05 8.75616e-05)
(-1.35815e-05 -0.000112681 0.000151281)
(-3.71218e-05 -0.00010044 0.000186778)
(-6.99251e-05 -7.48218e-05 0.000215015)
(-0.000110168 -4.30538e-05 0.000238159)
(-0.000156261 -9.10923e-06 0.000257642)
(-0.000206591 2.39825e-05 0.000273965)
(-0.000259371 5.45006e-05 0.000287171)
(-0.000312978 8.10306e-05 0.000296804)
(-0.000365903 0.000103086 0.000302305)
(-0.000416805 0.00012022 0.000302931)
(-0.000464516 0.000132572 0.000298092)
(-0.000507994 0.000140148 0.00028729)
(-0.00054642 0.000143334 0.00027028)
(-0.000579007 0.000142395 0.00024717)
(-0.000605315 0.000137851 0.000218162)
(-0.000624691 0.000130205 0.000184385)
(-0.000637003 0.000119963 0.00014645)
(-0.000642148 0.000107287 0.000104598)
(-0.000640005 9.28073e-05 6.05004e-05)
(-0.000630617 7.68942e-05 1.55414e-05)
(-0.000614211 5.99282e-05 -2.90515e-05)
(-0.000591007 4.22291e-05 -7.19166e-05)
(-0.000561374 2.41494e-05 -0.000111771)
(-0.000525712 6.00677e-06 -0.00014734)
(-0.000484518 -1.1822e-05 -0.000177415)
(-0.000438343 -2.89403e-05 -0.000200856)
(-0.000387823 -4.48585e-05 -0.000216583)
(-0.000333695 -5.89809e-05 -0.000223633)
(-0.000276799 -7.05363e-05 -0.000221228)
(-0.000217851 -7.85333e-05 -0.000208785)
(-0.000157403 -8.16466e-05 -0.000186131)
(-9.74249e-05 -7.80519e-05 -0.00015352)
(-4.92189e-05 -6.55265e-05 -0.000112315)
(-1.51356e-05 -3.53325e-05 -4.76533e-05)
(-1.32553e-05 0.000269194 -0.000343347)
(-5.06047e-05 0.000537427 -0.000463844)
(-9.57455e-05 0.000670132 -0.000499012)
(-0.000158835 0.000768747 -0.000532469)
(-0.000224223 0.000837164 -0.00056078)
(-0.000287981 0.000878525 -0.000581432)
(-0.000348417 0.000897871 -0.000595501)
(-0.000404319 0.000897624 -0.000605164)
(-0.00045417 0.000882227 -0.00061105)
(-0.000497631 0.000853254 -0.000614495)
(-0.000533903 0.000814494 -0.000615746)
(-0.00056292 0.000767335 -0.000615709)
(-0.000584692 0.000714757 -0.00061449)
(-0.000599281 0.000657799 -0.00061275)
(-0.000607186 0.000598255 -0.000610813)
(-0.000608729 0.000537073 -0.00060887)
(-0.000604288 0.000475948 -0.000606829)
(-0.000594324 0.00041532 -0.000604936)
(-0.00057931 0.000356353 -0.000603021)
(-0.000559723 0.000299267 -0.000601198)
(-0.000536042 0.000244785 -0.00059929)
(-0.000508728 0.00019299 -0.000597249)
(-0.000478237 0.000144309 -0.000594792)
(-0.000444998 9.87482e-05 -0.000591765)
(-0.000409435 5.65539e-05 -0.000587811)
(-0.000371939 1.77245e-05 -0.000582568)
(-0.000332911 -1.75763e-05 -0.000575445)
(-0.000292723 -4.92859e-05 -0.00056565)
(-0.000251754 -7.7224e-05 -0.000551969)
(-0.000210377 -0.000101176 -0.000532663)
(-0.000168756 -0.000120746 -0.000505336)
(-0.000126522 -0.000135096 -0.000465343)
(-8.40281e-05 -0.000142272 -0.000401307)
(-5.0541e-05 -0.000137061 -0.000298692)
(-2.57699e-05 -8.43852e-05 -9.36335e-05)
(-1.2144e-05 0.000546108 -0.000142917)
(-3.67811e-05 0.000950986 -0.000216838)
(-6.0664e-05 0.00112317 -0.000247145)
(-9.3914e-05 0.00123787 -0.000269505)
(-0.00012688 0.00130574 -0.000288338)
(-0.000157926 0.001338 -0.000304952)
(-0.000186536 0.00134053 -0.000321059)
(-0.00021232 0.00132066 -0.000336754)
(-0.000234727 0.00128207 -0.000352809)
(-0.000253424 0.00123003 -0.000368538)
(-0.000268275 0.00116709 -0.000384074)
(-0.000279284 0.00109748 -0.000398402)
(-0.000286621 0.00102303 -0.000411429)
(-0.000290522 0.000946637 -0.000422359)
(-0.000291214 0.000869374 -0.000431682)
(-0.000289044 0.0007931 -0.000439004)
(-0.000284331 0.000718173 -0.000444673)
(-0.000277353 0.000645771 -0.000448515)
(-0.000268362 0.000575965 -0.000450932)
(-0.000257667 0.000509762 -0.000451668)
(-0.000245493 0.000447092 -0.000451063)
(-0.000232043 0.000388365 -0.000449083)
(-0.000217547 0.000333429 -0.000445977)
(-0.000202168 0.000282495 -0.000441679)
(-0.00018604 0.000235531 -0.000436211)
(-0.000169301 0.000192622 -0.000429412)
(-0.00015211 0.000153642 -0.000421155)
(-0.000134568 0.000118638 -0.000410966)
(-0.000116807 8.7601e-05 -0.000398184)
(-9.89247e-05 6.06606e-05 -0.000381622)
(-8.09496e-05 3.8e-05 -0.000359406)
(-6.25974e-05 1.99817e-05 -0.000327977)
(-4.36705e-05 7.01884e-06 -0.000280958)
(-2.73816e-05 3.22219e-08 -0.000211276)
(-1.60702e-05 1.59749e-06 -6.00548e-05)
(-1.53961e-05 0.000663225 0.000181476)
(-3.18352e-05 0.00109519 0.000187918)
(-4.19798e-05 0.00128151 0.000163635)
(-5.53375e-05 0.00140578 0.000140822)
(-6.68211e-05 0.00148161 0.00012265)
(-7.6962e-05 0.0015181 0.000103532)
(-8.61347e-05 0.00152391 8.19768e-05)
(-9.43396e-05 0.00150427 5.65997e-05)
(-0.000101804 0.00146537 2.78918e-05)
(-0.000107996 0.00141098 -4.20912e-06)
(-0.000112291 0.0013464 -3.82852e-05)
(-0.000114892 0.00127457 -7.36464e-05)
(-0.000115758 0.00119917 -0.000107952)
(-0.000115512 0.00112151 -0.000140654)
(-0.000114045 0.00104411 -0.000170336)
(-0.000111473 0.000967583 -0.000196847)
(-0.000108163 0.000893305 -0.000220101)
(-0.000104183 0.00082141 -0.000240545)
(-9.97392e-05 0.000752788 -0.000258083)
(-9.49421e-05 0.00068741 -0.000273118)
(-8.99026e-05 0.000625825 -0.000285567)
(-8.47631e-05 0.000567919 -0.000295724)
(-7.95323e-05 0.000513748 -0.000303672)
(-7.43282e-05 0.00046301 -0.000309732)
(-6.92301e-05 0.000415821 -0.000313851)
(-6.4282e-05 0.000372091 -0.000316059)
(-5.94529e-05 0.00033183 -0.0003162)
(-5.47348e-05 0.000294727 -0.000314291)
(-5.00476e-05 0.000260605 -0.000310027)
(-4.53032e-05 0.000229108 -0.000303058)
(-4.02647e-05 0.000199884 -0.000292731)
(-3.44097e-05 0.000172459 -0.000278959)
(-2.68358e-05 0.000146163 -0.000261876)
(-1.8576e-05 0.000120512 -0.000235239)
(-1.24098e-05 7.80994e-05 -0.000133136)
(-1.52984e-05 0.000633228 0.000322809)
(-2.50732e-05 0.000993704 0.000364061)
(-2.57331e-05 0.00115262 0.00034031)
(-2.4617e-05 0.00126346 0.000318082)
(-2.0177e-05 0.0013357 0.000302968)
(-1.43318e-05 0.0013776 0.000289341)
(-8.03685e-06 0.00139472 0.000274213)
(-1.55918e-06 0.00139251 0.00025692)
(4.72196e-06 0.00137308 0.000234589)
(1.0605e-05 0.00133985 0.000205928)
(1.61487e-05 0.0012953 0.000171274)
(2.1262e-05 0.00124357 0.000133937)
(2.59642e-05 0.00118755 9.69726e-05)
(3.0044e-05 0.0011302 6.26328e-05)
(3.33468e-05 0.00107218 3.0822e-05)
(3.58721e-05 0.00101493 1.285e-06)
(3.77233e-05 0.000958747 -2.59397e-05)
(3.88678e-05 0.000904533 -5.06741e-05)
(3.92993e-05 0.000852356 -7.30526e-05)
(3.90138e-05 0.000802776 -9.29536e-05)
(3.80035e-05 0.000755691 -0.000110555)
(3.62937e-05 0.000711394 -0.000125811)
(3.38618e-05 0.000669696 -0.000138872)
(3.07583e-05 0.000630776 -0.000149661)
(2.69676e-05 0.000594324 -0.00015835)
(2.25313e-05 0.000560222 -0.000164992)
(1.75527e-05 0.000527792 -0.000169906)
(1.21525e-05 0.000496672 -0.000173191)
(6.51022e-06 0.000466102 -0.00017506)
(8.59929e-07 0.000435332 -0.000175567)
(-4.47123e-06 0.00040309 -0.000175143)
(-8.91151e-06 0.000367953 -0.000175776)
(-1.11886e-05 0.000327639 -0.000181753)
(-1.00944e-05 0.000279463 -0.000187735)
(-8.54686e-06 0.000181143 -0.000132319)
(-9.25451e-06 0.000557978 0.000329941)
(-1.16898e-05 0.000839513 0.000365393)
(-8.33535e-06 0.00096811 0.000340485)
(-1.35848e-06 0.00106242 0.000320191)
(8.48097e-06 0.001129 0.000307669)
(1.97419e-05 0.00117236 0.000295947)
(3.15872e-05 0.00119749 0.00028178)
(4.35057e-05 0.00120682 0.000264501)
(5.50654e-05 0.00120377 0.000244283)
(6.58217e-05 0.00119053 0.00022174)
(7.54475e-05 0.00117039 0.000198001)
(8.35341e-05 0.00114479 0.000173559)
(8.99324e-05 0.0011155 0.000148713)
(9.47516e-05 0.00108339 0.000123794)
(9.80716e-05 0.00104999 9.93979e-05)
(9.99904e-05 0.0010157 7.58983e-05)
(0.000100552 0.000981575 5.35918e-05)
(9.98051e-05 0.000947805 3.25964e-05)
(9.78629e-05 0.000915061 1.31676e-05)
(9.47516e-05 0.000883362 -4.65227e-06)
(9.05755e-05 0.00085311 -2.07095e-05)
(8.5358e-05 0.000824126 -3.50613e-05)
(7.92019e-05 0.000796579 -4.76343e-05)
(7.2156e-05 0.000770128 -5.85598e-05)
(6.43468e-05 0.000744706 -6.78376e-05)
(5.58627e-05 0.000719756 -7.56812e-05)
(4.68644e-05 0.0006949 -8.2185e-05)
(3.74961e-05 0.000669247 -8.76871e-05)
(2.80038e-05 0.000641937 -9.23813e-05)
(1.86363e-05 0.000611493 -9.66754e-05)
(9.74741e-06 0.000576215 -0.000101163)
(1.86302e-06 0.000533571 -0.00010855)
(-3.79365e-06 0.000480309 -0.00012391)
(-5.54157e-06 0.000411984 -0.000142885)
(-5.80638e-06 0.000264814 -0.000113481)
(-4.09501e-06 0.000467596 0.000259344)
(-2.70743e-06 0.000702931 0.000272268)
(9.16715e-07 0.000811478 0.000244499)
(7.69233e-06 0.000893044 0.000221376)
(1.63729e-05 0.000953547 0.000206972)
(2.58762e-05 0.000997607 0.000195677)
(3.57183e-05 0.00102837 0.000184664)
(4.54648e-05 0.00104877 0.000173288)
(5.47666e-05 0.00106047 0.000161166)
(6.32874e-05 0.00106542 0.000148193)
(7.08236e-05 0.00106461 0.000134287)
(7.7276e-05 0.00105957 0.000119689)
(8.25729e-05 0.00105097 0.000104582)
(8.66782e-05 0.00103999 8.93402e-05)
(8.9556e-05 0.00102702 7.41382e-05)
(9.12136e-05 0.00101293 5.93081e-05)
(9.16862e-05 0.000997899 4.50113e-05)
(9.09848e-05 0.000982608 3.1502e-05)
(8.9149e-05 0.000967072 1.88381e-05)
(8.62542e-05 0.000951721 7.21648e-06)
(8.23306e-05 0.000936407 -3.38284e-06)
(7.74664e-05 0.00092136 -1.28363e-05)
(7.17154e-05 0.000906252 -2.1235e-05)
(6.51761e-05 0.000891086 -2.85243e-05)
(5.79357e-05 0.000875307 -3.48663e-05)
(5.01198e-05 0.000858622 -4.02752e-05)
(4.18603e-05 0.000840139 -4.49968e-05)
(3.33343e-05 0.000819097 -4.915e-05)
(2.47561e-05 0.000794008 -5.30773e-05)
(1.63796e-05 0.00076331 -5.69593e-05)
(8.51316e-06 0.00072445 -6.14711e-05)
(1.61504e-06 0.00067445 -6.86442e-05)
(-3.3226e-06 0.000608805 -8.27373e-05)
(-4.9551e-06 0.000521947 -0.000100132)
(-4.86344e-06 0.00033094 -8.10759e-05)
(-1.72041e-06 0.000404171 0.000173974)
(1.08467e-08 0.000626933 0.000175454)
(1.86266e-06 0.000730878 0.000154496)
(5.36101e-06 0.000810123 0.000136924)
(9.59921e-06 0.000870667 0.000125298)
(1.42012e-05 0.000916442 0.000115878)
(1.89637e-05 0.000950994 0.000106957)
(2.37882e-05 0.000976489 9.80187e-05)
(2.85327e-05 0.000995113 8.90339e-05)
(3.30738e-05 0.00100806 7.9862e-05)
(3.7291e-05 0.00101678 7.05993e-05)
(4.10785e-05 0.00102193 6.12181e-05)
(4.43694e-05 0.00102452 5.19159e-05)
(4.70596e-05 0.00102488 4.27076e-05)
(4.9114e-05 0.00102377 3.38396e-05)
(5.0529e-05 0.00102128 2.53249e-05)
(5.12023e-05 0.00101802 1.73085e-05)
(5.11646e-05 0.00101391 9.83753e-06)
(5.04271e-05 0.00100936 3.08479e-06)
(4.89689e-05 0.00100418 -3.02449e-06)
(4.68331e-05 0.000998601 -8.36126e-06)
(4.40335e-05 0.000992295 -1.30495e-05)
(4.06269e-05 0.000985318 -1.70058e-05)
(3.66589e-05 0.000977124 -2.04023e-05)
(3.22066e-05 0.00096752 -2.31997e-05)
(2.73561e-05 0.000955655 -2.56188e-05)
(2.22158e-05 0.000940932 -2.76728e-05)
(1.69188e-05 0.000921993 -2.96473e-05)
(1.16308e-05 0.000897546 -3.1604e-05)
(6.5468e-06 0.000865342 -3.38489e-05)
(1.8908e-06 0.00082285 -3.66375e-05)
(-1.98202e-06 0.000766235 -4.14538e-05)
(-4.43063e-06 0.000690717 -5.08611e-05)
(-4.82188e-06 0.000589579 -6.23609e-05)
(-3.93145e-06 0.000366526 -4.86028e-05)
(-1.44172e-06 0.000362792 0.000112892)
(-8.69032e-07 0.000584243 0.000115442)
(-6.99184e-07 0.000687564 0.000104752)
(7.73647e-08 0.000767056 9.52587e-05)
(1.23674e-06 0.000828281 8.83979e-05)
(2.63343e-06 0.000875783 8.24847e-05)
(4.1926e-06 0.000912581 7.66116e-05)
(5.88713e-06 0.00094135 7.07186e-05)
(7.65758e-06 0.000963694 6.47145e-05)
(9.45792e-06 0.000981262 5.87265e-05)
(1.12306e-05 0.000994882 5.27008e-05)
(1.29303e-05 0.00100564 4.68196e-05)
(1.44993e-05 0.00101391 4.10583e-05)
(1.59104e-05 0.00102045 3.56218e-05)
(1.71019e-05 0.00102539 3.04794e-05)
(1.80331e-05 0.00102928 2.57974e-05)
(1.86853e-05 0.00103208 2.15229e-05)
(1.90365e-05 0.00103416 1.78308e-05)
(1.90583e-05 0.00103534 1.46073e-05)
(1.87508e-05 0.00103586 1.19778e-05)
(1.80864e-05 0.00103538 9.83733e-06)
(1.70801e-05 0.00103402 8.27568e-06)
(1.57416e-05 0.00103123 7.0975e-06)
(1.40922e-05 0.00102694 6.35712e-06)
(1.21662e-05 0.00102034 5.8318e-06)
(1.00133e-05 0.00101104 5.5375e-06)
(7.70081e-06 0.00099783 5.21661e-06)
(5.30305e-06 0.00097975 4.8447e-06)
(2.9234e-06 0.00095488 4.13164e-06)
(6.69095e-07 0.000921306 3.038e-06)
(-1.31928e-06 0.00087582 1.15485e-06)
(-2.85821e-06 0.000814794 -2.27355e-06)
(-3.59733e-06 0.000732686 -9.03305e-06)
(-3.32069e-06 0.000622765 -1.75642e-05)
(-2.36193e-06 0.000380391 -1.35852e-05)
(-2.17816e-06 0.000340813 7.82324e-05)
(-3.05033e-06 0.000563039 8.96667e-05)
(-4.4691e-06 0.000666583 8.94727e-05)
(-5.9709e-06 0.000745994 8.77495e-05)
(-7.15531e-06 0.000807335 8.57633e-05)
(-8.04492e-06 0.000854862 8.31792e-05)
(-8.68155e-06 0.000892084 8.00552e-05)
(-9.06333e-06 0.000921271 7.64303e-05)
(-9.19719e-06 0.000944508 7.25557e-05)
(-9.09036e-06 0.000962977 6.84601e-05)
(-8.76885e-06 0.000977978 6.43671e-05)
(-8.25647e-06 0.000990086 6.02851e-05)
(-7.58997e-06 0.00100016 5.64285e-05)
(-6.79338e-06 0.00100842 5.27799e-05)
(-5.90393e-06 0.00101545 4.95324e-05)
(-4.9726e-06 0.00102125 4.66701e-05)
(-4.03811e-06 0.00102622 4.43627e-05)
(-3.12438e-06 0.0010302 4.25269e-05)
(-2.28499e-06 0.00103347 4.13074e-05)
(-1.54895e-06 0.00103574 4.05643e-05)
(-9.3e-07 0.0010372 4.03229e-05)
(-4.48492e-07 0.00103735 4.04149e-05)
(-1.19312e-07 0.00103619 4.08976e-05)
(5.7536e-08 0.00103302 4.1559e-05)
(8.83245e-08 0.00102757 4.24096e-05)
(-9.26017e-09 0.00101884 4.3207e-05)
(-2.16364e-07 0.00100616 4.39221e-05)
(-4.96778e-07 0.000987971 4.42751e-05)
(-8.12619e-07 0.000962885 4.41939e-05)
(-1.11367e-06 0.000928422 4.33598e-05)
(-1.36078e-06 0.000881894 4.15764e-05)
(-1.49655e-06 0.000819147 3.8052e-05)
(-1.42784e-06 0.000735143 3.16587e-05)
(-1.08581e-06 0.000622711 2.26399e-05)
(-5.59659e-07 0.000375918 1.44148e-05)
(-2.94939e-06 0.000325661 5.9457e-05)
(-4.81487e-06 0.000544242 8.05775e-05)
(-7.14979e-06 0.000645682 8.8322e-05)
(-9.86251e-06 0.000723412 9.24679e-05)
(-1.21803e-05 0.000783127 9.41276e-05)
(-1.41266e-05 0.000829429 9.4133e-05)
(-1.57283e-05 0.000865402 9.28983e-05)
(-1.69987e-05 0.000893722 9.08601e-05)
(-1.79139e-05 0.000916031 8.82102e-05)
(-1.84845e-05 0.000933945 8.52541e-05)
(-1.87016e-05 0.000948305 8.20939e-05)
(-1.8594e-05 0.000960139 7.89755e-05)
(-1.81722e-05 0.000969828 7.59524e-05)
(-1.74778e-05 0.000978062 7.32311e-05)
(-1.65328e-05 0.000984944 7.08235e-05)
(-1.53893e-05 0.000990952 6.88953e-05)
(-1.40795e-05 0.000996 6.74115e-05)
(-1.26613e-05 0.00100041 6.64886e-05)
(-1.11711e-05 0.00100396 6.60368e-05)
(-9.66294e-06 0.0010068 6.61412e-05)
(-8.17182e-06 0.00100852 6.66871e-05)
(-6.73523e-06 0.00100918 6.76927e-05)
(-5.37919e-06 0.0010082 6.89732e-05)
(-4.13047e-06 0.00100545 7.05102e-05)
(-2.9986e-06 0.0010001 7.20805e-05)
(-1.99712e-06 0.000991693 7.36281e-05)
(-1.12943e-06 0.000979027 7.48899e-05)
(-3.91798e-07 0.000961122 7.5762e-05)
(2.1722e-07 0.000936098 7.59232e-05)
(7.02114e-07 0.00090207 7.51947e-05)
(1.05506e-06 0.000855957 7.3104e-05)
(1.24119e-06 0.000794249 6.90574e-05)
(1.21061e-06 0.000711699 6.17957e-05)
(1.09792e-06 0.00060185 5.09133e-05)
(9.53794e-07 0.000361326 3.17659e-05)
(-3.13095e-06 0.000314315 4.42866e-05)
(-5.35903e-06 0.000525473 6.99615e-05)
(-8.065e-06 0.000623314 8.16701e-05)
(-1.12378e-05 0.000697914 8.86819e-05)
(-1.40125e-05 0.000755137 9.2168e-05)
(-1.63552e-05 0.000799083 9.33232e-05)
(-1.83304e-05 0.000833126 9.29505e-05)
(-1.99088e-05 0.000859494 9.14606e-05)
(-2.10893e-05 0.000880188 8.92529e-05)
(-2.18384e-05 0.000896399 8.65454e-05)
(-2.21724e-05 0.000909367 8.36308e-05)
(-2.2085e-05 0.000919702 8.06447e-05)
(-2.16127e-05 0.000928208 7.78176e-05)
(-2.0768e-05 0.000935149 7.5231e-05)
(-1.96035e-05 0.000941068 7.30677e-05)
(-1.81507e-05 0.000946002 7.13586e-05)
(-1.64733e-05 0.000950315 7.02336e-05)
(-1.46169e-05 0.000953875 6.96684e-05)
(-1.26485e-05 0.000956899 6.97356e-05)
(-1.06112e-05 0.000959109 7.03529e-05)
(-8.57469e-06 0.000960576 7.15348e-05)
(-6.58195e-06 0.000960865 7.31426e-05)
(-4.68556e-06 0.000959879 7.5137e-05)
(-2.92025e-06 0.000956984 7.73294e-05)
(-1.32393e-06 0.000951851 7.9633e-05)
(7.91169e-08 0.000943556 8.18151e-05)
(1.27468e-06 0.000931397 8.37405e-05)
(2.24958e-06 0.000913974 8.51226e-05)
(2.99323e-06 0.000889955 8.57565e-05)
(3.494e-06 0.000857109 8.52666e-05)
(3.73676e-06 0.000812984 8.32719e-05)
(3.64129e-06 0.000753855 7.90053e-05)
(3.13397e-06 0.000675241 7.13156e-05)
(2.45673e-06 0.000570717 5.92896e-05)
(1.77397e-06 0.000342641 3.48266e-05)
(-2.62036e-06 0.000306042 2.62709e-05)
(-4.71648e-06 0.000509544 4.92709e-05)
(-7.33351e-06 0.000603536 6.07257e-05)
(-1.0472e-05 0.000675051 6.77081e-05)
(-1.32701e-05 0.000729497 7.10126e-05)
(-1.56936e-05 0.000771104 7.19742e-05)
(-1.77373e-05 0.000802843 7.13185e-05)
(-1.93863e-05 0.000827202 6.95543e-05)
(-2.0587e-05 0.000845815 6.69839e-05)
(-2.13323e-05 0.000860202 6.39406e-05)
(-2.15942e-05 0.000871254 6.06346e-05)
(-2.13967e-05 0.00087994 5.73255e-05)
(-2.07401e-05 0.000886723 5.4164e-05)
(-1.96741e-05 0.000892246 5.13549e-05)
(-1.82314e-05 0.000896699 4.89979e-05)
(-1.64749e-05 0.000900509 4.72427e-05)
(-1.44625e-05 0.000903675 4.61298e-05)
(-1.22736e-05 0.000906456 4.5745e-05)
(-9.96845e-06 0.000908692 4.60631e-05)
(-7.63056e-06 0.00091049 4.71016e-05)
(-5.323e-06 0.000911535 4.87685e-05)
(-3.11868e-06 0.000911775 5.1015e-05)
(-1.07379e-06 0.000910721 5.36882e-05)
(7.58232e-07 0.000908125 5.66822e-05)
(2.33963e-06 0.00090327 5.97918e-05)
(3.63861e-06 0.000895628 6.28627e-05)
(4.63138e-06 0.000884134 6.56427e-05)
(5.30969e-06 0.000867811 6.79266e-05)
(5.67147e-06 0.000845012 6.94004e-05)
(5.72412e-06 0.000813978 6.97807e-05)
(5.45494e-06 0.000772037 6.86054e-05)
(4.82851e-06 0.00071602 6.52434e-05)
(3.79768e-06 0.000641415 5.85494e-05)
(2.71172e-06 0.000542482 4.7767e-05)
(1.77659e-06 0.000326616 2.53482e-05)
(-1.64271e-06 0.000303625 4.86115e-06)
(-3.33236e-06 0.000503128 1.90858e-05)
(-5.62613e-06 0.000595091 2.71429e-05)
(-8.482e-06 0.000664639 3.18261e-05)
(-1.11791e-05 0.000717308 3.34675e-05)
(-1.35841e-05 0.000757016 3.30904e-05)
(-1.56678e-05 0.00078696 3.13364e-05)
(-1.73521e-05 0.000809352 2.85668e-05)
(-1.85957e-05 0.000826108 2.51055e-05)
(-1.9341e-05 0.000838491 2.12079e-05)
(-1.95877e-05 0.000847704 1.71599e-05)
(-1.93175e-05 0.000854465 1.31825e-05)
(-1.85625e-05 0.000859559 9.43456e-06)
(-1.73511e-05 0.000863371 6.08971e-06)
(-1.57389e-05 0.00086642 3.33758e-06)
(-1.37858e-05 0.000868862 1.28542e-06)
(-1.15719e-05 0.000871018 5.12531e-08)
(-9.17935e-06 0.000872864 -3.29904e-07)
(-6.69887e-06 0.000874549 1.81495e-07)
(-4.21447e-06 0.000875882 1.54276e-06)
(-1.81834e-06 0.000876848 3.71422e-06)
(4.13634e-07 0.00087708 6.57932e-06)
(2.40661e-06 0.000876381 1.00268e-05)
(4.10343e-06 0.000874184 1.38777e-05)
(5.45818e-06 0.000870057 1.79647e-05)
(6.43867e-06 0.000863159 2.20623e-05)
(7.03423e-06 0.000852717 2.59618e-05)
(7.23775e-06 0.000837461 2.94029e-05)
(7.07383e-06 0.000816057 3.21397e-05)
(6.56586e-06 0.000786497 3.38773e-05)
(5.756e-06 0.000746465 3.42849e-05)
(4.64628e-06 0.000692624 3.28326e-05)
(3.29057e-06 0.000620892 2.86928e-05)
(2.0581e-06 0.000525515 2.14916e-05)
(1.16207e-06 0.000317442 7.39209e-06)
(-5.69456e-07 0.000308915 -1.61678e-05)
(-1.84593e-06 0.000510372 -1.32398e-05)
(-3.72814e-06 0.000602902 -9.97326e-06)
(-6.26907e-06 0.00067256 -8.5285e-06)
(-8.82667e-06 0.000724783 -9.20318e-06)
(-1.12226e-05 0.000763756 -1.13436e-05)
(-1.33467e-05 0.000792548 -1.45688e-05)
(-1.51091e-05 0.000813647 -1.86151e-05)
(-1.64176e-05 0.000828828 -2.32762e-05)
(-1.72217e-05 0.000839636 -2.83145e-05)
(-1.74819e-05 0.000847105 -3.34907e-05)
(-1.71975e-05 0.000852218 -3.85462e-05)
(-1.63854e-05 0.000855601 -4.32059e-05)
(-1.5091e-05 0.000857921 -4.72793e-05)
(-1.33644e-05 0.000859522 -5.06127e-05)
(-1.1291e-05 0.000860828 -5.30624e-05)
(-8.95402e-06 0.000861965 -5.45368e-05)
(-6.45151e-06 0.000863155 -5.49674e-05)
(-3.88262e-06 0.000864337 -5.43428e-05)
(-1.35032e-06 0.000865543 -5.26804e-05)
(1.04592e-06 0.000866525 -5.00533e-05)
(3.21775e-06 0.000867125 -4.65627e-05)
(5.08315e-06 0.000866892 -4.23581e-05)
(6.58036e-06 0.000865452 -3.76095e-05)
(7.65629e-06 0.000862111 -3.25236e-05)
(8.2864e-06 0.000856208 -2.73155e-05)
(8.46413e-06 0.000846708 -2.22223e-05)
(8.20425e-06 0.000832515 -1.74745e-05)
(7.54096e-06 0.000812043 -1.33098e-05)
(6.53892e-06 0.00078346 -9.93834e-06)
(5.26481e-06 0.000744216 -7.59637e-06)
(3.80802e-06 0.000691159 -6.58399e-06)
(2.28576e-06 0.00062001 -7.38685e-06)
(1.10027e-06 0.000525203 -9.78785e-06)
(3.30186e-07 0.000317928 -1.26632e-05)
(3.00934e-07 0.000322531 -3.29033e-05)
(-6.74522e-07 0.000531741 -4.03854e-05)
(-2.18081e-06 0.000627584 -4.17488e-05)
(-4.40385e-06 0.00069927 -4.35116e-05)
(-6.80866e-06 0.000752598 -4.64658e-05)
(-9.13436e-06 0.000791828 -5.03517e-05)
(-1.12487e-05 0.000820334 -5.49899e-05)
(-1.30222e-05 0.000840596 -6.02382e-05)
(-1.43588e-05 0.000854657 -6.59268e-05)
(-1.51828e-05 0.000864009 -7.18392e-05)
(-1.54613e-05 0.000869965 -7.7763e-05)
(-1.51788e-05 0.00087347 -8.34896e-05)
(-1.4361e-05 0.000875377 -8.87809e-05)
(-1.30431e-05 0.000876249 -9.34182e-05)
(-1.12927e-05 0.000876645 -9.72135e-05)
(-9.18688e-06 0.000876866 -0.000100012)
(-6.82104e-06 0.000877235 -0.000101701)
(-4.30068e-06 0.000877833 -0.00010221)
(-1.73613e-06 0.000878766 -0.000101518)
(7.65793e-07 0.000879908 -9.96455e-05)
(3.09611e-06 0.000881153 -9.66659e-05)
(5.15661e-06 0.000882162 -9.26912e-05)
(6.86772e-06 0.000882605 -8.78769e-05)
(8.15801e-06 0.000881907 -8.24093e-05)
(8.98092e-06 0.000879475 -7.65028e-05)
(9.30706e-06 0.000874431 -7.03859e-05)
(9.14833e-06 0.000865824 -6.4297e-05)
(8.52052e-06 0.000852328 -5.84605e-05)
(7.48595e-06 0.000832417 -5.30819e-05)
(6.11746e-06 0.000804019 -4.83137e-05)
(4.53594e-06 0.000764608 -4.42787e-05)
(2.85846e-06 0.000710768 -4.10881e-05)
(1.29349e-06 0.000638177 -3.88744e-05)
(2.31641e-07 0.000540968 -3.69153e-05)
(-4.19553e-07 0.000328011 -2.95835e-05)
(7.76497e-07 0.000342594 -4.25034e-05)
(-8.11906e-08 0.000563413 -5.67582e-05)
(-1.29664e-06 0.000664307 -6.12672e-05)
(-3.28531e-06 0.000739443 -6.52325e-05)
(-5.52163e-06 0.000794879 -6.97489e-05)
(-7.7452e-06 0.000835265 -7.48328e-05)
(-9.78133e-06 0.000864098 -8.04552e-05)
(-1.15032e-05 0.000884153 -8.65613e-05)
(-1.2797e-05 0.000897526 -9.30306e-05)
(-1.35946e-05 0.000905951 -9.96813e-05)
(-1.38513e-05 0.000910739 -0.000106287)
(-1.35556e-05 0.000913024 -0.000112616)
(-1.27201e-05 0.000913644 -0.000118426)
(-1.13914e-05 0.000913349 -0.000123503)
(-9.6271e-06 0.000912653 -0.00012765)
(-7.51672e-06 0.000912019 -0.000130712)
(-5.15491e-06 0.000911699 -0.000132568)
(-2.64796e-06 0.000911905 -0.000133151)
(-1.11014e-07 0.00091265 -0.000132431)
(2.34043e-06 0.000913909 -0.000130437)
(4.59716e-06 0.000915456 -0.000127238)
(6.56409e-06 0.000917024 -0.000122956)
(8.15049e-06 0.000918139 -0.000117745)
(9.28928e-06 0.000918272 -0.000111804)
(9.93096e-06 0.000916661 -0.000105347)
(1.00598e-05 0.000912453 -9.86167e-05)
(9.6755e-06 0.000904503 -9.18458e-05)
(8.81618e-06 0.000891481 -8.52599e-05)
(7.54363e-06 0.00087164 -7.90366e-05)
(5.9634e-06 0.000842863 -7.32932e-05)
(4.18969e-06 0.000802358 -6.80708e-05)
(2.38754e-06 0.000746598 -6.33561e-05)
(7.88978e-07 0.000670908 -5.90453e-05)
(-1.70388e-07 0.000569188 -5.41024e-05)
(-8.35681e-07 0.00034585 -3.99406e-05)
(8.63585e-07 0.000366442 -4.49461e-05)
(-3.49217e-08 0.000600263 -6.14899e-05)
(-1.13512e-06 0.000706924 -6.71997e-05)
(-3.01388e-06 0.000786035 -7.20384e-05)
(-5.15314e-06 0.000844083 -7.71873e-05)
(-7.28092e-06 0.00088598 -8.27617e-05)
(-9.23222e-06 0.000915522 -8.88003e-05)
(-1.08718e-05 0.000935625 -9.52698e-05)
(-1.20954e-05 0.000948609 -0.000102075)
(-1.28247e-05 0.000956284 -0.000109031)
(-1.30192e-05 0.000960143 -0.000115924)
(-1.26651e-05 0.000961358 -0.000122507)
(-1.17829e-05 0.000960921 -0.000128549)
(-1.04103e-05 0.000959592 -0.000133821)
(-8.61726e-06 0.000958012 -0.000138134)
(-6.48413e-06 0.00095663 -0.000141321)
(-4.11126e-06 0.000955798 -0.000143269)
(-1.60535e-06 0.000955691 -0.000143899)
(9.2002e-07 0.00095639 -0.000143191)
(3.34831e-06 0.000957805 -0.000141164)
(5.57113e-06 0.000959753 -0.000137898)
(7.48945e-06 0.000961874 -0.000133504)
(9.02035e-06 0.00096371 -0.000128151)
(1.00909e-05 0.000964613 -0.000122027)
(1.06596e-05 0.000963812 -0.000115362)
(1.07011e-05 0.00096031 -0.000108386)
(1.02267e-05 0.000952924 -0.000101347)
(9.27182e-06 0.000940154 -9.44587e-05)
(7.9109e-06 0.000920179 -8.79025e-05)
(6.23572e-06 0.000890671 -8.17715e-05)
(4.37995e-06 0.000848702 -7.60915e-05)
(2.50099e-06 0.000790463 -7.07957e-05)
(8.51636e-07 0.000711027 -6.57133e-05)
(-9.76347e-08 0.000603887 -5.97035e-05)
(-8.86414e-07 0.000368287 -4.31893e-05)
(6.66184e-07 0.000391041 -4.16337e-05)
(-3.77824e-07 0.000637237 -5.64572e-05)
(-1.49381e-06 0.000749387 -6.15686e-05)
(-3.37616e-06 0.00083234 -6.60546e-05)
(-5.47005e-06 0.000892911 -7.09696e-05)
(-7.52623e-06 0.000936332 -7.63919e-05)
(-9.38424e-06 0.000966594 -8.23221e-05)
(-1.09251e-05 0.00098683 -8.87186e-05)
(-1.20468e-05 0.000999483 -9.54633e-05)
(-1.26799e-05 0.00100653 -0.000102377)
(-1.27816e-05 0.00100954 -0.000109231)
(-1.23458e-05 0.00100982 -0.000115788)
(-1.13869e-05 0.00100841 -0.000121806)
(-9.95206e-06 0.00100618 -0.000127067)
(-8.10327e-06 0.00100379 -0.000131371)
(-5.92606e-06 0.00100178 -0.000134563)
(-3.51596e-06 0.0010005 -0.000136519)
(-9.84088e-07 0.00100018 -0.00013717)
(1.56078e-06 0.00100088 -0.000136485)
(4.00607e-06 0.00100254 -0.000134495)
(6.23896e-06 0.00100491 -0.000131266)
(8.16507e-06 0.00100764 -0.000126924)
(9.69967e-06 0.0010102 -0.000121623)
(1.07763e-05 0.00101191 -0.000115563)
(1.13466e-05 0.0010119 -0.000108961)
(1.13925e-05 0.00100912 -0.00010206)
(1.09167e-05 0.00100227 -9.5096e-05)
(9.96011e-06 0.000989754 -8.82982e-05)
(8.58679e-06 0.000969606 -8.18439e-05)
(6.89989e-06 0.000939373 -7.58489e-05)
(5.00896e-06 0.000895917 -7.035e-05)
(3.07149e-06 0.000835238 -6.53274e-05)
(1.32703e-06 0.000752098 -6.06658e-05)
(2.99781e-07 0.000639667 -5.5337e-05)
(-6.80542e-07 0.000392097 -4.04821e-05)
(2.86971e-07 0.000413821 -3.46592e-05)
(-9.45299e-07 0.000670307 -4.49453e-05)
(-2.18725e-06 0.000787028 -4.81777e-05)
(-4.1534e-06 0.000873144 -5.14173e-05)
(-6.24985e-06 0.000935773 -5.54772e-05)
(-8.25499e-06 0.000980372 -6.02719e-05)
(-1.00339e-05 0.00101113 -6.57189e-05)
(-1.1478e-05 0.00103134 -7.17169e-05)
(-1.24919e-05 0.00104358 -7.81258e-05)
(-1.30132e-05 0.00104992 -8.4742e-05)
(-1.30068e-05 0.00105207 -9.13356e-05)
(-1.24664e-05 0.0010514 -9.76622e-05)
(-1.14151e-05 0.00104904 -0.000103486)
(-9.89308e-06 0.00104592 -0.000108583)
(-7.96748e-06 0.00104278 -0.000112765)
(-5.72021e-06 0.00104016 -0.000115868)
(-3.24869e-06 0.00103849 -0.00011778)
(-6.59217e-07 0.00103799 -0.000118423)
(1.93912e-06 0.00103874 -0.000117776)
(4.43347e-06 0.00104066 -0.000115861)
(6.71787e-06 0.00104352 -0.000112752)
(8.69721e-06 0.00104689 -0.000108563)
(1.02845e-05 0.00105023 -0.000103455)
(1.1414e-05 0.00105279 -9.76172e-05)
(1.20438e-05 0.00105364 -9.12738e-05)
(1.21486e-05 0.00105165 -8.46602e-05)
(1.1732e-05 0.00104543 -7.80203e-05)
(1.08273e-05 0.00103329 -7.15829e-05)
(9.49847e-06 0.00101315 -6.55504e-05)
(7.83376e-06 0.00098242 -6.0061e-05)
(5.9378e-06 0.000937808 -5.52114e-05)
(3.94402e-06 0.000875124 -5.107e-05)
(2.07117e-06 0.000788902 -4.76945e-05)
(8.94428e-07 0.000672023 -4.4288e-05)
(-2.95651e-07 0.000414393 -3.39243e-05)
(-1.67262e-07 0.000433128 -2.62261e-05)
(-1.57859e-06 0.0006971 -3.06525e-05)
(-2.98117e-06 0.000817109 -3.13755e-05)
(-5.06818e-06 0.000905446 -3.29236e-05)
(-7.19599e-06 0.000969428 -3.58008e-05)
(-9.17149e-06 0.00101469 -3.97164e-05)
(-1.08818e-05 0.00104557 -4.44647e-05)
(-1.22333e-05 0.00106546 -4.98821e-05)
(-1.31445e-05 0.00107707 -5.57865e-05)
(-1.35589e-05 0.00108258 -6.1957e-05)
(-1.34436e-05 0.00108375 -6.81521e-05)
(-1.2798e-05 0.00108205 -7.4128e-05)
(-1.16453e-05 0.00107869 -7.9647e-05)
(-1.0031e-05 0.00107465 -8.44912e-05)
(-8.01872e-06 0.00107071 -8.84713e-05)
(-5.69157e-06 0.0010675 -9.14321e-05)
(-3.14421e-06 0.00106543 -9.32586e-05)
(-4.82858e-07 0.00106478 -9.38802e-05)
(2.18273e-06 0.00106561 -9.32724e-05)
(4.74578e-06 0.00106784 -9.14588e-05)
(7.10222e-06 0.00107122 -8.85093e-05)
(9.15195e-06 0.00107531 -8.45385e-05)
(1.08147e-05 0.0010795 -7.97008e-05)
(1.20247e-05 0.001083 -7.41855e-05)
(1.27325e-05 0.00108482 -6.82101e-05)
(1.29182e-05 0.00108376 -6.20118e-05)
(1.25803e-05 0.00107835 -5.58341e-05)
(1.17511e-05 0.00106681 -4.99173e-05)
(1.0482e-05 0.00104697 -4.44812e-05)
(8.8541e-06 0.00101612 -3.97053e-05)
(6.9597e-06 0.00097086 -3.57496e-05)
(4.90989e-06 0.000906855 -3.28081e-05)
(2.8939e-06 0.000818465 -3.11494e-05)
(1.5396e-06 0.000698373 -3.0279e-05)
(1.55605e-07 0.000433401 -2.57553e-05)
(-5.73774e-07 0.000448296 -1.83315e-05)
(-2.12663e-06 0.000716901 -1.70021e-05)
(-3.69318e-06 0.000838889 -1.52204e-05)
(-5.89713e-06 0.000928461 -1.50548e-05)
(-8.06438e-06 0.000993059 -1.67153e-05)
(-1.00226e-05 0.00103842 -1.97058e-05)
(-1.16802e-05 0.00106898 -2.37026e-05)
(-1.29612e-05 0.00108823 -2.84796e-05)
(-1.37864e-05 0.00109896 -3.3817e-05)
(-1.41098e-05 0.00110341 -3.94771e-05)
(-1.39029e-05 0.00110345 -4.52121e-05)
(-1.31683e-05 0.0011006 -5.07771e-05)
(-1.19263e-05 0.00109613 -5.59356e-05)
(-1.02268e-05 0.00109109 -6.04776e-05)
(-8.13442e-06 0.00108632 -6.42153e-05)
(-5.73128e-06 0.00108247 -6.70012e-05)
(-3.11185e-06 0.00108 -6.87214e-05)
(-3.7863e-07 0.00107918 -6.93104e-05)
(2.35817e-06 0.00108012 -6.87425e-05)