/*--------------------------------*- C++ -*----------------------------------*\
| =========                 |                                                 |
| \\      /  F ield         | OpenFOAM: The Open Source CFD Toolbox           |
|  \\    /   O peration     | Version:  v2012                                 |
|   \\  /    A nd           | Website:  www.openfoam.com                      |
|    \\/     M anipulation  |                                                 |
\*---------------------------------------------------------------------------*/
FoamFile
{
    version     2.0;
    format      ascii;
    class       surfaceScalarField;
    location    "35";
    object      phi;
}
// * * * * * * * * * * * * * * * * * * * * * * * * * * * * * * * * * * * * * //

dimensions      [1 0 -1 0 0 0 0];
oriented        oriented;


internalField   nonuniform List<scalar> 
228225
(
-5.7854e-09
8.11057e-09
-2.57924e-09
-2.09022e-08
2.32264e-08
-8.10903e-09
-4.29228e-08
3.19113e-08
-9.88862e-09
-7.09275e-08
3.87914e-08
-1.07856e-08
-1.03683e-07
4.41154e-08
-1.13637e-08
-1.39752e-07
4.78943e-08
-1.18195e-08
-1.77841e-07
5.03071e-08
-1.22228e-08
-2.16626e-07
5.14104e-08
-1.26253e-08
-2.54986e-07
5.14093e-08
-1.305e-08
-2.9187e-07
5.04245e-08
-1.35394e-08
-3.26459e-07
4.8703e-08
-1.41127e-08
-3.58031e-07
4.63736e-08
-1.48033e-08
-3.86013e-07
4.36001e-08
-1.56156e-08
-4.09888e-07
4.04328e-08
-1.65605e-08
-4.29262e-07
3.70006e-08
-1.76244e-08
-4.43832e-07
3.3379e-08
-1.88136e-08
-4.53452e-07
2.96679e-08
-2.00431e-08
-4.58e-07
2.58957e-08
-2.13481e-08
-4.57453e-07
2.21421e-08
-2.26919e-08
-4.51853e-07
1.84369e-08
-2.40356e-08
-4.41332e-07
1.48247e-08
-2.53452e-08
-4.26069e-07
1.13276e-08
-2.65916e-08
-4.06301e-07
7.97534e-09
-2.77428e-08
-3.82316e-07
4.78475e-09
-2.87707e-08
-3.54448e-07
1.77835e-09
-2.96473e-08
-3.23072e-07
-1.02644e-09
-3.03464e-08
-2.88621e-07
-3.61076e-09
-3.08432e-08
-2.51564e-07
-5.94327e-09
-3.11121e-08
-2.12447e-07
-7.99075e-09
-3.11268e-08
-1.71888e-07
-9.70489e-09
-3.08515e-08
-1.30645e-07
-1.10215e-08
-3.02233e-08
-8.97172e-08
-1.18343e-08
-2.90918e-08
-5.0729e-08
-1.19453e-08
-2.70447e-08
-1.68279e-08
-1.10264e-08
-2.28727e-08
-6.8566e-09
-9.97213e-09
-1.67371e-08
4.4786e-08
-1.99376e-08
-5.40953e-08
8.17468e-08
-2.11631e-08
-9.83792e-08
9.80903e-08
-2.18946e-08
-1.4563e-07
1.09101e-07
-2.30579e-08
-1.93001e-07
1.15676e-07
-2.41909e-08
-2.38461e-07
1.18568e-07
-2.52111e-08
-2.80414e-07
1.18432e-07
-2.61747e-08
-3.1771e-07
1.15806e-07
-2.70974e-08
-3.49541e-07
1.11238e-07
-2.79994e-08
-3.75656e-07
1.05405e-07
-2.88645e-08
-3.96113e-07
9.88428e-08
-2.96854e-08
-4.11111e-07
9.18148e-08
-3.04417e-08
-4.20901e-07
8.45302e-08
-3.11404e-08
-4.2584e-07
7.71556e-08
-3.17835e-08
-4.26271e-07
6.98097e-08
-3.23771e-08
-4.2258e-07
6.25964e-08
-3.29111e-08
-4.15103e-07
5.5583e-08
-3.33905e-08
-4.04227e-07
4.88288e-08
-3.38098e-08
-3.9031e-07
4.2398e-08
-3.41732e-08
-3.73712e-07
3.63185e-08
-3.44789e-08
-3.54766e-07
3.06064e-08
-3.47276e-08
-3.33794e-07
2.52721e-08
-3.49166e-08
-3.11094e-07
2.03205e-08
-3.50455e-08
-2.86949e-07
1.57522e-08
-3.51116e-08
-2.61625e-07
1.15651e-08
-3.51119e-08
-2.35366e-07
7.75633e-09
-3.50408e-08
-2.08411e-07
4.32306e-09
-3.48899e-08
-1.80973e-07
1.26508e-09
-3.46461e-08
-1.53268e-07
-1.40868e-09
-3.4287e-08
-1.2551e-07
-3.68262e-09
-3.37799e-08
-9.79212e-08
-5.52716e-09
-3.30847e-08
-7.07348e-08
-6.87642e-09
-3.2143e-08
-4.43276e-08
-7.61579e-09
-3.07379e-08
-1.97217e-08
-7.40234e-09
-2.82288e-08
-4.09743e-09
-2.24819e-08
-1.65749e-08
6.55496e-08
-4.18704e-09
-4.01418e-08
1.1049e-07
-5.17802e-09
-6.57034e-08
1.29398e-07
-5.74622e-09
-9.16721e-08
1.41567e-07
-6.49747e-09
-1.1685e-07
1.48259e-07
-7.40673e-09
-1.40316e-07
1.50559e-07
-8.52472e-09
-1.61305e-07
1.49269e-07
-9.84665e-09
-1.7926e-07
1.45171e-07
-1.1411e-08
-1.93855e-07
1.39042e-07
-1.32088e-08
-2.04958e-07
1.31713e-07
-1.52049e-08
-2.12658e-07
1.23715e-07
-1.7171e-08
-2.17215e-07
1.15326e-07
-1.89543e-08
-2.1897e-07
1.0678e-07
-2.04944e-08
-2.18305e-07
9.83198e-08
-2.18311e-08
-2.15566e-07
9.00492e-08
-2.29767e-08
-2.11047e-07
8.20488e-08
-2.39727e-08
-2.05004e-07
7.43697e-08
-2.48289e-08
-1.97657e-07
6.70462e-08
-2.55652e-08
-1.89198e-07
6.01188e-08
-2.61789e-08
-1.79801e-07
5.36067e-08
-2.66854e-08
-1.6963e-07
4.75238e-08
-2.70901e-08
-1.58809e-07
4.18578e-08
-2.74046e-08
-1.47463e-07
3.66056e-08
-2.76319e-08
-1.35703e-07
3.17714e-08
-2.77794e-08
-1.23632e-07
2.73447e-08
-2.78493e-08
-1.11342e-07
2.33089e-08
-2.78445e-08
-9.89049e-08
1.96502e-08
-2.77638e-08
-8.63886e-08
1.63512e-08
-2.76026e-08
-7.38465e-08
1.34e-08
-2.73504e-08
-6.13266e-08
1.07855e-08
-2.69882e-08
-4.88723e-08
8.50401e-09
-2.64861e-08
-3.65258e-08
6.55886e-09
-2.57823e-08
-2.43625e-08
4.9596e-09
-2.4738e-08
-1.2471e-08
3.71688e-09
-2.30117e-08
2.42485e-09
-1.89927e-08
-1.55584e-08
6.66166e-08
1.44908e-08
-2.63655e-08
1.07136e-07
1.41611e-08
-3.49459e-08
1.24646e-07
1.33332e-08
-4.2377e-08
1.36392e-07
1.26052e-08
-4.9338e-08
1.43485e-07
1.17351e-08
-5.61916e-08
1.4675e-07
1.06621e-08
-6.31245e-08
1.46884e-07
9.32052e-09
-7.01073e-08
1.44575e-07
7.57492e-09
-7.67804e-08
1.40485e-07
5.2334e-09
-8.25684e-08
1.35076e-07
2.42269e-09
-8.69408e-08
1.28711e-07
-6.23626e-10
-8.96839e-08
1.21654e-07
-3.58631e-09
-9.07976e-08
1.14178e-07
-6.28298e-09
-9.04452e-08
1.06553e-07
-8.58602e-09
-8.8877e-08
9.903e-08
-1.05503e-08
-8.63395e-08
9.17732e-08
-1.22613e-08
-8.30889e-08
8.48869e-08
-1.37676e-08
-7.93356e-08
7.83867e-08
-1.50936e-08
-7.52288e-08
7.22837e-08
-1.6272e-08
-7.0895e-08
6.65807e-08
-1.73069e-08
-6.64418e-08
6.12788e-08
-1.82102e-08
-6.19548e-08
5.63578e-08
-1.89861e-08
-5.75094e-08
5.18068e-08
-1.96465e-08
-5.317e-08
4.76229e-08
-2.01905e-08
-4.89721e-08
4.37739e-08
-2.06273e-08
-4.49368e-08
4.02326e-08
-2.096e-08
-4.10542e-08
3.69634e-08
-2.11946e-08
-3.72993e-08
3.39288e-08
-2.13332e-08
-3.36002e-08
3.10784e-08
-2.13775e-08
-2.98518e-08
2.83591e-08
-2.13221e-08
-2.58859e-08
2.56946e-08
-2.11569e-08
-2.14504e-08
2.30072e-08
-2.0884e-08
-1.60994e-08
2.017e-08
-2.05623e-08
-9.32041e-09
1.70796e-08
-2.01417e-08
1.13224e-08
-1.82175e-08
-1.23985e-08
5.79449e-08
2.10716e-08
-1.43522e-08
8.82298e-08
2.08582e-08
-1.18956e-08
1.02189e-07
1.99999e-08
-7.39586e-09
1.12367e-07
1.95258e-08
-2.15596e-09
1.19264e-07
1.89833e-08
3.04212e-09
1.23462e-07
1.80865e-08
7.66762e-09
1.25453e-07
1.68065e-08
1.14848e-08
1.25617e-07
1.51393e-08
1.45306e-08
1.24275e-07
1.31654e-08
1.69308e-08
1.21715e-07
1.09607e-08
1.88387e-08
1.18177e-07
8.62698e-09
2.03819e-08
1.13886e-07
6.2234e-09
2.1678e-08
1.09049e-07
3.83436e-09
2.28163e-08
1.03882e-07
1.53348e-09
2.38494e-08
9.8593e-08
-5.97574e-10
2.47429e-08
9.33801e-08
-2.4992e-09
2.5432e-08
8.83851e-08
-4.18762e-09
2.58644e-08
8.36635e-08
-5.71067e-09
2.59689e-08
7.92496e-08
-7.07028e-09
2.5681e-08
7.51522e-08
-8.28147e-09
2.49512e-08
7.13593e-08
-9.35185e-09
2.37439e-08
6.78565e-08
-1.02922e-08
2.20326e-08
6.4625e-08
-1.11066e-08
1.98222e-08
6.16367e-08
-1.18048e-08
1.7139e-08
5.88523e-08
-1.23925e-08
1.40203e-08
5.62285e-08
-1.28796e-08
1.05413e-08
5.37154e-08
-1.32716e-08
6.80426e-09
5.12455e-08
-1.35797e-08
2.95603e-09
4.87381e-08
-1.38118e-08
-7.95233e-10
4.60864e-08
-1.39765e-08
-4.17313e-09
4.31521e-08
-1.40784e-08
-6.75748e-09
3.97544e-08
-1.41645e-08
-7.81422e-09
3.56446e-08
-1.44163e-08
-6.29846e-09
3.05129e-08
-1.495e-08
1.96711e-08
-1.46475e-08
-6.26521e-09
4.70039e-08
1.72056e-08
-4.87339e-09
7.00566e-08
1.67823e-08
3.19493e-10
8.10218e-08
1.59729e-08
7.78452e-09
8.93631e-08
1.55397e-08
1.66013e-08
9.54359e-08
1.50117e-08
2.61462e-08
9.96517e-08
1.42664e-08
3.58862e-08
1.02393e-07
1.3319e-08
4.53829e-08
1.03893e-07
1.22277e-08
5.42645e-08
1.04381e-07
1.10115e-08
6.22483e-08
1.04025e-07
9.70614e-09
6.91054e-08
1.02992e-07
8.32729e-09
7.46699e-08
1.01416e-07
6.90686e-09
7.88321e-08
9.94269e-08
5.45887e-09
8.15753e-08
9.713e-08
4.00968e-09
8.29624e-08
9.46296e-08
2.57556e-09
8.31329e-08
9.2022e-08
1.18685e-09
8.22564e-08
8.94009e-08
-1.37397e-10
8.04276e-08
8.68383e-08
-1.34612e-09
7.77399e-08
8.43916e-08
-2.45548e-09
7.42719e-08
8.2082e-08
-3.46135e-09
7.00908e-08
7.99088e-08
-4.36887e-09
6.52587e-08
7.78652e-08
-5.17584e-09
5.98368e-08
7.59334e-08
-5.88717e-09
5.3892e-08
7.4088e-08
-6.50561e-09
4.74894e-08
7.22897e-08
-7.03774e-09
4.07183e-08
7.04912e-08
-7.48966e-09
3.36785e-08
6.86254e-08
-7.86982e-09
2.65015e-08
6.66105e-08
-8.18879e-09
1.93649e-08
6.43339e-08
-8.46024e-09
1.24965e-08
6.16546e-08
-8.69872e-09
6.18161e-09
5.83754e-08
-8.90824e-09
8.32926e-10
5.42416e-08
-9.13932e-09
-2.82239e-09
4.89022e-08
-9.60298e-09
-3.79604e-09
4.19391e-08
-1.04523e-08
2.67341e-08
-1.08586e-08
-3.06367e-09
3.8917e-08
1.11484e-08
-2.01238e-09
5.89877e-08
1.00216e-08
1.74306e-09
6.83853e-08
8.87728e-09
7.26734e-09
7.56133e-08
8.22726e-09
1.38668e-08
8.10949e-08
7.74041e-09
2.1089e-08
8.52079e-08
7.22363e-09
2.85798e-08
8.82453e-08
6.65563e-09
3.60226e-08
9.04172e-08
6.03361e-09
4.31521e-08
9.18851e-08
5.367e-09
4.97412e-08
9.27822e-08
4.65309e-09
5.56141e-08
9.32134e-08
3.90481e-09
6.06328e-08
9.32713e-08
3.12632e-09
6.46945e-08
9.30321e-08
2.33337e-09
6.77269e-08
9.25647e-08
1.53343e-09
6.96878e-08
9.19276e-08
7.40324e-10
7.05815e-08
9.11722e-08
-4.16098e-11
7.0431e-08
9.03372e-08
-7.87871e-10
6.93134e-08
8.9459e-08
-1.50174e-09
6.73118e-08
8.85635e-08
-2.17165e-09
6.45217e-08
8.76642e-08
-2.78998e-09
6.10114e-08
8.67673e-08
-3.3488e-09
5.68586e-08
8.58655e-08
-3.84847e-09
5.21352e-08
8.49449e-08
-4.2868e-09
4.6913e-08
8.39761e-08
-4.66771e-09
4.12747e-08
8.29221e-08
-4.9928e-09
3.53106e-08
8.17253e-08
-5.26874e-09
2.91207e-08
8.03144e-08
-5.50033e-09
2.28385e-08
7.85884e-08
-5.69746e-09
1.66239e-08
7.64182e-08
-5.86854e-09
1.06763e-08
7.36267e-08
-6.02354e-09
5.24128e-09
6.998e-08
-6.17021e-09
6.74367e-10
6.51651e-08
-6.35512e-09
-2.44366e-09
5.87566e-08
-6.73767e-09
-3.26801e-09
5.01973e-08
-7.43454e-09
3.12648e-08
-7.79765e-09
-3.14356e-10
3.31624e-08
6.06902e-09
3.69318e-10
5.31674e-08
5.13737e-09
1.96419e-09
6.24734e-08
4.31618e-09
4.15291e-09
6.95936e-08
3.83159e-09
6.69969e-09
7.50784e-08
3.47041e-09
9.49315e-09
7.93039e-08
3.10976e-09
1.24646e-08
8.25574e-08
2.71594e-09
1.55312e-08
8.50533e-08
2.29656e-09
1.86106e-08
8.69559e-08
1.85207e-09
2.16083e-08
8.83914e-08
1.39092e-09
2.44482e-08
8.94588e-08
9.15118e-10
2.70487e-08
9.02364e-08
4.34298e-10
2.93417e-08
9.07864e-08
-4.65926e-11
3.12543e-08
9.11599e-08
-5.09023e-10
3.27431e-08
9.13966e-08
-9.57251e-10
3.37666e-08
9.15292e-08
-1.38125e-09
3.42987e-08
9.15834e-08
-1.77707e-09
3.43171e-08
9.15787e-08
-2.14033e-09
3.38288e-08
9.15216e-08
-2.46888e-09
3.28357e-08
9.1416e-08
-2.75806e-09
3.13568e-08
9.12556e-08
-3.01005e-09
2.94167e-08
9.10286e-08
-3.22302e-09
2.70508e-08
9.0711e-08
-3.40128e-09
2.43017e-08
9.02712e-08
-3.54535e-09
2.1224e-08
8.96614e-08
-3.66131e-09
1.78787e-08
8.88215e-08
-3.75167e-09
1.43509e-08
8.76658e-08
-3.82413e-09
1.07377e-08
8.60861e-08
-3.88324e-09
7.15992e-09
8.39319e-08
-3.9382e-09
3.77116e-09
8.10102e-08
-3.99303e-09
7.53005e-10
7.7054e-08
-4.05537e-09
-1.64961e-09
7.17186e-08
-4.15171e-09
-3.03209e-09
6.45239e-08
-4.38591e-09
-2.85715e-09
5.48431e-08
-4.81916e-09
3.33947e-08
-4.98824e-09
-7.99836e-10
3.02844e-08
3.67771e-09
-1.14755e-09
5.03254e-08
3.19003e-09
-1.08878e-09
5.96449e-08
2.76966e-09
-7.97251e-10
6.67929e-08
2.5083e-09
-3.20611e-10
7.23062e-08
2.29625e-09
3.27518e-10
7.65826e-08
2.07231e-09
1.14122e-09
7.99162e-08
1.82893e-09
2.09746e-09
8.253e-08
1.56643e-09
3.16968e-09
8.45908e-08
1.29277e-09
4.32483e-09
8.62266e-08
1.00919e-09
5.52658e-09
8.75346e-08
7.24055e-10
6.73351e-09
8.85899e-08
4.39462e-10
7.90713e-09
8.94504e-08
1.62932e-10
9.00291e-09
9.01605e-08
-9.82853e-11
9.98294e-09
9.07542e-08
-3.36474e-10
1.08105e-08
9.12562e-08
-5.54327e-10
1.14565e-08
9.16838e-08
-7.44724e-10
1.18947e-08
9.20469e-08
-9.08459e-10
1.21081e-08
9.23491e-08
-1.04065e-09
1.20825e-08
9.25865e-08
-1.14433e-09
1.18064e-08
9.27487e-08
-1.21733e-09
1.12811e-08
9.28186e-08
-1.26498e-09
1.0511e-08
9.27702e-08
-1.2871e-09
9.50506e-09
9.25649e-08
-1.29013e-09
8.29139e-09
9.21516e-08
-1.2756e-09
6.90295e-09
9.14622e-08
-1.25195e-09
5.38304e-09
9.04075e-08
-1.22203e-09
3.79559e-09
8.88703e-08
-1.19536e-09
2.20673e-09
8.66951e-08
-1.17567e-09
7.10999e-10
8.36776e-08
-1.1719e-09
-5.91505e-10
7.95442e-08
-1.18685e-09
-1.56502e-09
7.39343e-08
-1.24266e-09
-2.00137e-09
6.63581e-08
-1.39872e-09
-1.63028e-09
5.61638e-08
-1.69136e-09
3.36348e-08
-1.86972e-09
-1.56734e-09
2.86178e-08
3.23483e-09
-3.07256e-09
4.85702e-08
3.25908e-09
-4.42704e-09
5.78114e-08
3.18867e-09
-5.64153e-09
6.48714e-08
3.1346e-09
-6.68531e-09
7.02984e-08
3.05301e-09
-7.53697e-09
7.44946e-08
2.93875e-09
-8.17191e-09
7.77585e-08
2.79249e-09
-8.58128e-09
8.0315e-08
2.62496e-09
-8.76399e-09
8.23339e-08
2.43994e-09
-8.7295e-09
8.39433e-08
2.24729e-09
-8.48648e-09
8.52419e-08
2.05015e-09
-8.05612e-09
8.6304e-08
1.85817e-09
-7.47012e-09
8.71876e-08
1.6739e-09
-6.74965e-09
8.79354e-08
1.50619e-09
-5.93253e-09
8.85811e-08
1.35614e-09
-5.05459e-09
8.91468e-08
1.23089e-09
-4.14894e-09
8.9648e-08
1.13053e-09
-3.25294e-09
9.00913e-08
1.0602e-09
-2.40057e-09
9.04788e-08
1.01679e-09
-1.61871e-09
9.08036e-08
1.00348e-09
-9.39933e-10
9.10536e-08
1.01485e-09
-3.79583e-10
9.12068e-08
1.05164e-09
5.01786e-11
9.12345e-08
1.10642e-09
3.42672e-10
9.10954e-08
1.17701e-09
5.01605e-10
9.07375e-08
1.25459e-09
5.36578e-10
9.00903e-08
1.33703e-09
4.66386e-10
8.90647e-08
1.41406e-09
3.10029e-10
8.75421e-08
1.48246e-09
1.05389e-10
8.53699e-08
1.53111e-09
-1.18721e-10
8.23454e-08
1.55664e-09
-3.25167e-10
7.82024e-08
1.54773e-09
-4.70171e-10
7.25878e-08
1.49257e-09
-4.86341e-10
6.50286e-08
1.34547e-09
-3.00477e-10
5.48913e-08
1.0877e-09
3.25793e-08
7.53728e-10
-2.39011e-09
2.75507e-08
3.45678e-09
-4.60727e-09
4.68975e-08
3.89026e-09
-6.70044e-09
5.58366e-08
4.0667e-09
-8.62947e-09
6.26467e-08
4.15427e-09
-1.03506e-08
6.78545e-08
4.16588e-09
-1.18298e-08
7.18537e-08
4.11966e-09
-1.30414e-08
7.49367e-08
4.03268e-09
-1.39636e-08
7.73265e-08
3.91243e-09
-1.45919e-08
7.91894e-08
3.77173e-09
-1.49196e-08
8.06548e-08
3.61597e-09
-1.49526e-08
8.18189e-08
3.45664e-09
-1.47055e-08
8.27589e-08
3.29781e-09
-1.41999e-08
8.35307e-08
3.14978e-09
-1.3458e-08
8.41803e-08
3.01515e-09
-1.25202e-08
8.47388e-08
2.90261e-09
-1.14174e-08
8.52315e-08
2.81275e-09
-1.01927e-08
8.56719e-08
2.75215e-09
-8.89059e-09
8.60694e-08
2.71885e-09
-7.55094e-09
8.64227e-08
2.71691e-09
-6.21555e-09
8.67273e-08
2.74162e-09
-4.92509e-09
8.69671e-08
2.79446e-09
-3.70794e-09
8.71211e-08
2.86864e-09
-2.5912e-09
8.7155e-08
2.96368e-09
-1.59676e-09
8.70302e-08
3.07022e-09
-7.35846e-10
8.66912e-08
3.18571e-09
-1.68303e-11
8.60714e-08
3.29935e-09
5.60191e-10
8.50803e-08
3.4074e-09
9.97466e-10
8.36066e-08
3.49789e-09
1.30222e-09
8.15003e-08
3.56603e-09
1.47436e-09
7.8572e-08
3.59901e-09
1.52005e-09
7.45671e-08
3.59075e-09
1.43174e-09
6.91553e-08
3.52116e-09
1.21042e-09
6.18919e-08
3.3588e-09
8.44414e-10
5.21859e-08
3.06938e-09
3.08909e-08
2.53381e-09
-2.55768e-09
2.67467e-08
3.36034e-09
-5.0092e-09
4.5337e-08
4.01467e-09
-7.38869e-09
5.39024e-08
4.31318e-09
-9.61099e-09
6.03985e-08
4.46897e-09
-1.1608e-08
6.53347e-08
4.51718e-09
-1.33378e-08
6.90864e-08
4.49693e-09
-1.47651e-08
7.19406e-08
4.42408e-09
-1.58652e-08
7.41117e-08
4.31428e-09
-1.66178e-08
7.57661e-08
4.17577e-09
-1.70134e-08
7.70292e-08
4.02191e-09
-1.70555e-08
7.80009e-08
3.85929e-09
-1.67511e-08
7.87561e-08
3.69977e-09
-1.61262e-08
7.9356e-08
3.54829e-09
-1.52058e-08
7.98451e-08
3.41507e-09
-1.40299e-08
8.02599e-08
3.30302e-09
-1.26414e-08
8.06239e-08
3.22016e-09
-1.10919e-08
8.09555e-08
3.16677e-09
-9.43267e-09
8.12613e-08
3.14814e-09
-7.71505e-09
8.15444e-08
3.16155e-09
-5.99317e-09
8.17956e-08
3.20931e-09
-4.31488e-09
8.20027e-08
3.28565e-09
-2.72423e-09
8.21404e-08
3.39005e-09
-1.26188e-09
8.2179e-08
3.51397e-09
4.07994e-11
8.20742e-08
3.65449e-09
1.15537e-09
8.17746e-08
3.80094e-09
2.06867e-09
8.12094e-08
3.94864e-09
2.76903e-09
8.02945e-08
4.08541e-09
3.25379e-09
7.89174e-08
4.20525e-09
3.5193e-09
7.69398e-08
4.29472e-09
3.56631e-09
7.41773e-08
4.34671e-09
3.39273e-09
7.03959e-08
4.34597e-09
2.9867e-09
6.52812e-08
4.27839e-09
2.35034e-09
5.84258e-08
4.10528e-09
1.46848e-09
4.92764e-08
3.79016e-09
2.92335e-08
3.12602e-09
-2.20978e-09
2.63981e-08
2.55968e-09
-4.53917e-09
4.44449e-08
3.21965e-09
-6.90301e-09
5.27332e-08
3.53188e-09
-9.16879e-09
5.89852e-08
3.68042e-09
-1.12435e-08
6.36926e-08
3.71658e-09
-1.30587e-08
6.72229e-08
3.6779e-09
-1.45582e-08
6.98557e-08
3.58609e-09
-1.57057e-08
7.18056e-08
3.4517e-09
-1.64645e-08
7.32364e-08
3.28884e-09
-1.68195e-08
7.42782e-08
3.10649e-09
-1.67684e-08
7.50304e-08
2.91794e-09
-1.6317e-08
7.55751e-08
2.73092e-09
-1.54919e-08
7.59739e-08
2.55725e-09
-1.43275e-08
7.62788e-08
2.40271e-09
-1.28717e-08
7.65262e-08
2.27696e-09
-1.11788e-08
7.67468e-08
2.18309e-09
-9.30723e-09
7.69577e-08
2.12786e-09
-7.32878e-09
7.71712e-08
2.1111e-09
-5.30776e-09
7.73874e-08
2.13618e-09
-3.31033e-09
7.76015e-08
2.19939e-09
-1.40734e-09
7.7796e-08
2.30062e-09
3.52137e-10
7.7949e-08
2.43275e-09
1.91368e-09
7.80245e-08
2.5925e-09
3.23866e-09
7.79807e-08
2.76987e-09
4.29415e-09
7.77593e-08
2.95906e-09
5.062e-09
7.72927e-08
3.14799e-09
5.53715e-09
7.64916e-08
3.32921e-09
5.71574e-09
7.52488e-08
3.48941e-09
5.61155e-09
7.34245e-08
3.62016e-09
5.23677e-09
7.08441e-08
3.70757e-09
4.61073e-09
6.72787e-08
3.74203e-09
3.75892e-09
6.24321e-08
3.70356e-09
2.70718e-09
5.59148e-08
3.56043e-09
1.51333e-09
4.72072e-08
3.26573e-09
2.81202e-08
2.62557e-09
-1.51873e-09
2.67371e-08
1.17842e-09
-3.5305e-09
4.4776e-08
1.67969e-09
-5.74547e-09
5.30284e-08
1.92222e-09
-7.97974e-09
5.92067e-08
2.01279e-09
-1.0092e-08
6.38073e-08
1.99629e-09
-1.19761e-08
6.7198e-08
1.91084e-09
-1.35584e-08
6.96651e-08
1.77148e-09
-1.47706e-08
7.14257e-08
1.59178e-09
-1.55663e-08
7.26521e-08
1.38114e-09
-1.59189e-08
7.34774e-08
1.15344e-09
-1.5818e-08
7.40112e-08
9.18695e-10
-1.5273e-08
7.43389e-08
6.90853e-10
-1.43102e-08
7.45316e-08
4.78706e-10
-1.29668e-08
7.46431e-08
2.93182e-10
-1.13008e-08
7.47197e-08
1.40123e-10
-9.37664e-09
7.47933e-08
2.89868e-11
-7.26848e-09
7.48887e-08
-3.81978e-11
-5.06049e-09
7.50172e-08
-5.57106e-11
-2.8311e-09
7.51839e-08
-2.47685e-11
-6.66821e-10
7.53801e-08
5.5822e-11
1.35832e-09
7.55912e-08
1.79888e-10
3.17415e-09
7.57887e-08
3.45373e-10
4.71898e-09
7.59373e-08
5.43033e-10
5.94488e-09
7.59869e-08
7.66408e-10
6.82152e-09
7.5879e-08
1.00362e-09
7.33049e-09
7.55372e-08
1.24576e-09
7.47203e-09
7.48715e-08
1.47913e-09
7.2606e-09
7.37671e-08
1.69394e-09
6.72231e-09
7.20849e-08
1.8763e-09
5.90466e-09
6.96449e-08
2.01722e-09
4.85637e-09
6.62224e-08
2.10461e-09
3.64512e-09
6.15201e-08
2.12525e-09
2.35257e-09
5.51577e-08
2.04703e-09
1.10643e-09
4.66214e-08
1.83136e-09
2.78726e-08
1.35537e-09
-7.93818e-10
2.78942e-08
-3.62925e-10
-2.45059e-09
4.65345e-08
-1.01988e-10
-4.48136e-09
5.50262e-08
3.36915e-11
-6.65364e-09
6.13348e-08
4.16883e-11
-8.7792e-09
6.59749e-08
-4.02634e-11
-1.07302e-08
6.93342e-08
-1.86355e-10
-1.23931e-08
7.17105e-08
-3.80598e-10
-1.36892e-08
7.33365e-08
-6.15447e-10
-1.4552e-08
7.43931e-08
-8.7912e-10
-1.49398e-08
7.50275e-08
-1.16107e-09
-1.48367e-08
7.5356e-08
-1.44743e-09
-1.42474e-08
7.54765e-08
-1.72742e-09
-1.31954e-08
7.54666e-08
-1.98693e-09
-1.17293e-08
7.53922e-08
-2.21496e-09
-9.91231e-09
7.53034e-08
-2.40028e-09
-7.82291e-09
7.52409e-08
-2.53729e-09
-5.54648e-09
7.52309e-08
-2.61862e-09
-3.17755e-09
7.5291e-08
-2.64237e-09
-8.12208e-10
7.5424e-08
-2.606e-09
1.45353e-09
7.56246e-08
-2.51229e-09
3.53778e-09
7.58728e-08
-2.36342e-09
5.35325e-09
7.61399e-08
-2.16673e-09
6.83704e-09
7.63825e-08
-1.92866e-09
7.93675e-09
7.65482e-08
-1.66034e-09
8.61687e-09
7.6568e-08
-1.37157e-09
8.87187e-09
7.63618e-08
-1.07605e-09
8.6992e-09
7.58282e-08
-7.85181e-10
8.13156e-09
7.48476e-08
-5.13057e-10
7.2171e-09
7.32691e-08
-2.69948e-10
6.0227e-09
7.09074e-08
-6.70795e-11
4.6339e-09
6.75249e-08
8.53329e-11
3.16136e-09
6.28175e-08
1.75255e-10
1.74762e-09
5.63901e-08
1.81349e-10
5.79465e-10
4.77181e-08
7.32178e-11
2.86108e-08
-1.59903e-10
-2.45434e-10
2.97909e-08
-1.65093e-09
-1.60404e-09
4.95045e-08
-1.61216e-09
-3.45069e-09
5.84554e-08
-1.58171e-09
-5.52483e-09
6.50585e-08
-1.65208e-09
-7.61375e-09
6.98642e-08
-1.79825e-09
-9.56634e-09
7.32856e-08
-1.99868e-09
-1.1256e-08
7.56446e-08
-2.24524e-09
-1.25796e-08
7.719e-08
-2.52915e-09
-1.34663e-08
7.81213e-08
-2.84174e-09
-1.38667e-08
7.85969e-08
-3.16989e-09
-1.37561e-08
7.87485e-08
-3.50122e-09
-1.31423e-08
7.86825e-08
-3.82072e-09
-1.2049e-08
7.84906e-08
-4.11658e-09
-1.0527e-08
7.82459e-08
-4.376e-09
-8.64331e-09
7.8009e-08
-4.58915e-09
-6.47904e-09
7.78243e-08
-4.74614e-09
-4.1326e-09
7.77254e-08
-4.8415e-09
-1.70376e-09
7.77304e-08
-4.87013e-09
7.08215e-10
7.78462e-08
-4.83171e-09
2.99396e-09
7.8064e-08
-4.72653e-09
5.06327e-09
7.83644e-08
-4.55961e-09
6.82748e-09
7.87117e-08
-4.33645e-09
8.21577e-09
7.90598e-08
-4.06689e-09
9.17948e-09
7.93463e-08
-3.76072e-09
9.68293e-09
7.94967e-08
-3.4314e-09
9.71696e-09
7.94187e-08
-3.0915e-09
9.29665e-09
7.90035e-08
-2.75579e-09
8.46301e-09
7.81178e-08
-2.43662e-09
7.28073e-09
7.66005e-08
-2.14695e-09
5.83096e-09
7.42502e-08
-1.89544e-09
4.23299e-09
7.08148e-08
-1.69048e-09
2.62155e-09
6.59689e-08
-1.53895e-09
1.17145e-09
5.92946e-08
-1.45785e-09
1.23258e-10
5.02365e-08
-1.46747e-09
3.02209e-08
-1.48724e-09
1.16975e-11
3.2189e-08
-2.41018e-09
-1.16502e-09
5.32053e-08
-2.5238e-09
-2.86702e-09
6.2725e-08
-2.56692e-09
-4.82927e-09
6.97121e-08
-2.69147e-09
-6.84173e-09
7.47539e-08
-2.87938e-09
-8.73531e-09
7.82975e-08
-3.11677e-09
-1.03815e-08
8.06878e-08
-3.39676e-09
-1.16757e-08
8.21966e-08
-3.71363e-09
-1.25356e-08
8.30389e-08
-4.05789e-09
-1.29106e-08
8.33909e-08
-4.41826e-09
-1.27774e-08
8.33955e-08
-4.78051e-09
-1.21368e-08
8.31739e-08
-5.13094e-09
-1.10188e-08
8.28255e-08
-5.45455e-09
-9.46813e-09
8.24351e-08
-5.7387e-09
-7.55811e-09
8.20691e-08
-5.97129e-09
-5.37125e-09
8.17814e-08
-6.14368e-09
-3.0046e-09
8.16084e-08
-6.24846e-09
-5.6675e-10
8.15733e-08
-6.28218e-09
1.84052e-09
8.16824e-08
-6.24273e-09
4.10711e-09
8.19284e-08
-6.13209e-09
6.13838e-09
8.22872e-08
-5.95364e-09
7.84366e-09
8.27211e-08
-5.71474e-09
9.15242e-09
8.31756e-08
-5.4241e-09
1.00094e-08
8.35826e-08
-5.09392e-09
1.03866e-08
8.38567e-08
-4.73709e-09
1.02768e-08
8.38972e-08
-4.36876e-09
9.70093e-09
8.35819e-08
-4.00286e-09
8.70673e-09
8.27666e-08
-3.65355e-09
7.36379e-09
8.12742e-08
-3.33211e-09
5.7746e-09
7.88881e-08
-3.04788e-09
4.06087e-09
7.5335e-08
-2.80654e-09
2.37456e-09
7.02681e-08
-2.61406e-09
9.13571e-10
6.32384e-08
-2.48144e-09
-8.2807e-11
5.36555e-08
-2.42338e-09
3.2434e-08
-2.29608e-09
1.56389e-11
3.47889e-08
-2.61584e-09
-1.11669e-09
5.71231e-08
-2.78381e-09
-2.76055e-09
6.72241e-08
-2.85702e-09
-4.65463e-09
7.46094e-08
-3.00244e-09
-6.60019e-09
7.99045e-08
-3.20658e-09
-8.43111e-09
8.35869e-08
-3.45753e-09
-1.00202e-08
8.60272e-08
-3.75066e-09
-1.12593e-08
8.75168e-08
-4.07998e-09
-1.2073e-08
8.82896e-08
-4.43764e-09
-1.24064e-08
8.8535e-08
-4.81157e-09
-1.2232e-08
8.8411e-08
-5.18866e-09
-1.15537e-08
8.80489e-08
-5.55351e-09
-1.03968e-08
8.75605e-08
-5.89097e-09
-8.81538e-09
8.70385e-08
-6.18611e-09
-6.87795e-09
8.65595e-08
-6.42746e-09
-4.67199e-09
8.61817e-08
-6.60561e-09
-2.29739e-09
8.59478e-08
-6.71466e-09
1.44701e-10
8.58823e-08
-6.75054e-09
2.54478e-09
8.5994e-08
-6.71237e-09
4.80188e-09
8.62735e-08
-6.6009e-09
6.8132e-09
8.66955e-08
-6.42009e-09
8.49329e-09
8.72171e-08
-6.17571e-09
9.76663e-09
8.77791e-08
-5.87708e-09
1.05813e-08
8.83043e-08
-5.53578e-09
1.0905e-08
8.86993e-08
-5.16697e-09
1.07362e-08
8.88516e-08
-4.78609e-09
1.00973e-08
8.86292e-08
-4.4087e-09
9.04076e-09
8.78735e-08
-4.04791e-09
7.63526e-09
8.63942e-08
-3.71566e-09
5.98567e-09
8.3957e-08
-3.41974e-09
4.21675e-09
8.02695e-08
-3.16599e-09
2.48493e-09
7.496e-08
-2.95857e-09
9.79923e-10
6.75499e-08
-2.80744e-09
-5.04291e-11
5.74122e-08
-2.72402e-09
3.49281e-08
-2.54602e-09
-1.54977e-10
3.73106e-08
-2.36603e-09
-1.35605e-09
6.08231e-08
-2.50025e-09
-3.01256e-09
7.14441e-08
-2.56239e-09
-4.88863e-09
7.91855e-08
-2.69964e-09
-6.79168e-09
8.47046e-08
-2.89676e-09
-8.57222e-09
8.85074e-08
-3.14205e-09
-1.00991e-08
9.09858e-08
-3.43e-09
-1.12782e-08
9.24508e-08
-3.75542e-09
-1.20291e-08
9.31512e-08
-4.11003e-09
-1.23025e-08
9.32916e-08
-4.48326e-09
-1.20716e-08
9.30412e-08
-4.86233e-09
-1.13353e-08
9.25437e-08
-5.23079e-09
-1.01259e-08
9.19203e-08
-5.57e-09
-8.49462e-09
9.12741e-08
-5.86471e-09
-6.52195e-09
9.06882e-08
-6.10393e-09
-4.28675e-09
9.02279e-08
-6.28012e-09
-1.89016e-09
8.99392e-08
-6.38778e-09
5.66147e-10
8.985e-08
-6.42405e-09
2.97859e-09
8.99691e-08
-6.38762e-09
5.24431e-09
9.02874e-08
-6.27971e-09
7.26673e-09
9.07764e-08
-6.10306e-09
8.95751e-09
9.139e-08
-5.86311e-09
1.02408e-08
9.20623e-08
-5.56723e-09
1.1062e-08
9.27099e-08
-5.22628e-09
1.13867e-08
9.3229e-08
-4.85571e-09
1.12162e-08
9.34981e-08
-4.47459e-09
1.05719e-08
9.33732e-08
-4.09965e-09
9.50409e-09
9.26844e-08
-3.74347e-09
8.08834e-09
9.12268e-08
-3.41651e-09
6.42118e-09
8.87513e-08
-3.12695e-09
4.62464e-09
8.49463e-08
-2.8799e-09
2.84635e-09
7.94192e-08
-2.68047e-09
1.2713e-09
7.16635e-08
-2.53914e-09
1.30987e-10
6.1021e-08
-2.46966e-09
3.73881e-08
-2.3274e-09
-4.33064e-10
3.9558e-08
-1.81487e-09
-1.77099e-09
6.40137e-08
-1.85212e-09
-3.50168e-09
7.50482e-08
-1.87383e-09
-5.40094e-09
8.30665e-08
-1.98181e-09
-7.29163e-09
8.87517e-08
-2.15615e-09
-9.03346e-09
9.26312e-08
-2.38205e-09
-1.05111e-08
9.51156e-08
-2.65292e-09
-1.16272e-08
9.65314e-08
-2.96286e-09
-1.2315e-08
9.71414e-08
-3.30414e-09
-1.25177e-08
9.7163e-08
-3.66722e-09
-1.22156e-08
9.67767e-08
-4.03916e-09
-1.14067e-08
9.61366e-08
-4.40083e-09
-1.01291e-08
9.53741e-08
-4.73178e-09
-8.43884e-09
9.46007e-08
-5.017e-09
-6.41146e-09
9.39073e-08
-5.24729e-09
-4.13128e-09
9.33646e-08
-5.41629e-09
-1.69604e-09
9.3023e-08
-5.51962e-09
7.96327e-10
9.29124e-08
-5.55466e-09
3.2443e-09
9.3043e-08
-5.52055e-09
5.54346e-09
9.34044e-08
-5.41811e-09
7.60389e-09
9.39665e-08
-5.24985e-09
9.33528e-09
9.46785e-08
-5.02008e-09
1.0664e-08
9.54695e-08
-4.73503e-09
1.15278e-08
9.62485e-08
-4.40381e-09
1.18949e-08
9.69034e-08
-4.04151e-09
1.17609e-08
9.73026e-08
-3.66883e-09
1.11459e-08
9.72919e-08
-3.30509e-09
1.01029e-08
9.66902e-08
-2.96327e-09
8.70342e-09
9.52802e-08
-2.65271e-09
7.03501e-09
9.27987e-08
-2.38104e-09
5.21711e-09
8.89188e-08
-2.15406e-09
3.38587e-09
8.32296e-08
-1.97807e-09
1.71057e-09
7.52035e-08
-1.86695e-09
4.16456e-10
6.41569e-08
-1.83953e-09
3.95982e-08
-1.79528e-09
-7.39377e-10
4.14315e-08
-1.1336e-09
-2.24353e-09
6.65621e-08
-1.04406e-09
-4.07206e-09
7.78869e-08
-1.01061e-09
-6.01672e-09
8.60893e-08
-1.07894e-09
-7.91279e-09
9.18698e-08
-1.22233e-09
-9.6292e-09
9.57715e-08
-1.42189e-09
-1.10642e-08
9.8219e-08
-1.66929e-09
-1.2127e-08
9.95516e-08
-1.9577e-09
-1.27495e-08
1.00044e-07
-2.27963e-09
-1.28836e-08
9.99243e-08
-2.62636e-09
-1.25083e-08
9.93837e-08
-2.98397e-09
-1.16256e-08
9.85862e-08
-3.33156e-09
-1.02748e-08
9.76726e-08
-3.64804e-09
-8.51942e-09
9.67628e-08
-3.9192e-09
-6.42876e-09
9.59552e-08
-4.13718e-09
-4.0918e-09
9.53258e-08
-4.29676e-09
-1.60469e-09
9.49293e-08
-4.39427e-09
9.35957e-10
9.47979e-08
-4.42747e-09
3.43195e-09
9.49429e-08
-4.39561e-09
5.78466e-09
9.53528e-08
-4.2994e-09
7.89495e-09
9.59953e-08
-4.14104e-09
9.68376e-09
9.68158e-08
-3.92412e-09
1.10687e-08
9.77376e-08
-3.65379e-09
1.19915e-08
9.86626e-08
-3.33781e-09
1.24165e-08
9.94705e-08
-2.99044e-09
1.23318e-08
1.0002e-07
-2.63289e-09
1.17613e-08
1.00148e-07
-2.28619e-09
1.07545e-08
9.96616e-08
-1.96428e-09
9.37732e-09
9.83336e-08
-1.67576e-09
7.7147e-09
9.58889e-08
-1.42802e-09
5.87342e-09
9.1988e-08
-1.2278e-09
3.98063e-09
8.62062e-08
-1.08318e-09
2.1968e-09
7.80003e-08
-1.01234e-09
7.23706e-10
6.66695e-08
-1.04115e-09
4.14477e-08
-1.12464e-09
-1.01045e-09
4.29202e-08
-4.82006e-10
-2.66135e-09
6.84875e-08
-2.69278e-10
-4.58643e-09
7.99917e-08
-1.8065e-10
-6.58214e-09
8.82928e-08
-2.08956e-10
-8.49213e-09
9.41018e-08
-3.20691e-10
-1.02013e-08
9.79725e-08
-4.92956e-10
-1.16056e-08
1.0034e-07
-7.1541e-10
-1.26272e-08
1.01553e-07
-9.8075e-10
-1.31975e-08
1.01897e-07
-1.28165e-09
-1.32749e-08
1.0161e-07
-1.60929e-09
-1.28324e-08
1.00892e-07
-1.94866e-09
-1.18863e-08
9.99167e-08
-2.27829e-09
-1.04713e-08
9.88348e-08
-2.57735e-09
-8.64988e-09
9.77748e-08
-2.83254e-09
-6.49836e-09
9.68417e-08
-3.03698e-09
-4.10488e-09
9.61179e-08
-3.18619e-09
-1.56091e-09
9.56619e-08
-3.27687e-09
1.03641e-09
9.55091e-08
-3.30779e-09
3.58598e-09
9.56711e-08
-3.27823e-09
5.99095e-09
9.6136e-08
-3.18888e-09
8.1606e-09
9.68686e-08
-3.04095e-09
1.00016e-08
9.78103e-08
-2.83771e-09
1.14465e-08
9.88786e-08
-2.58355e-09
1.24248e-08
9.99683e-08
-2.28531e-09
1.29022e-08
1.0095e-07
-1.9563e-09
1.28648e-08
1.01675e-07
-1.61741e-09
1.23343e-08
1.01968e-07
-1.29015e-09
1.13574e-08
1.01629e-07
-9.89539e-10
9.99737e-09
1.00419e-07
-7.24357e-10
8.33286e-09
9.80543e-08
-5.01815e-10
6.46503e-09
9.41852e-08
-3.29142e-10
4.51171e-09
8.83769e-08
-2.16479e-10
2.62243e-09
8.00753e-08
-1.86144e-10
9.94195e-10
6.85696e-08
-2.71002e-10
4.29203e-08
-4.78799e-10
-1.18576e-09
4.40774e-08
2.94052e-11
-2.94963e-09
6.99146e-08
3.35991e-10
-4.94768e-09
8.15192e-08
4.70053e-10
-6.98704e-09
8.98557e-08
4.74975e-10
-8.91512e-09
9.56421e-08
3.90108e-10
-1.06243e-08
9.94386e-08
2.41846e-10
-1.20151e-08
1.01689e-07
4.23929e-11
-1.30113e-08
1.0275e-07
-2.01967e-10
-1.35461e-08
1.02916e-07
-4.82635e-10
-1.35823e-08
1.02434e-07
-7.90618e-10
-1.3094e-08
1.01515e-07
-1.11062e-09
-1.20984e-08
1.00341e-07
-1.42106e-09
-1.06338e-08
9.90731e-08
-1.70197e-09
-8.76496e-09
9.78472e-08
-1.94142e-09
-6.56739e-09
9.67768e-08
-2.13332e-09
-4.12617e-09
9.59497e-08
-2.27382e-09
-1.53199e-09
9.54293e-08
-2.36014e-09
1.11311e-09
9.52534e-08
-2.38959e-09
3.71038e-09
9.54351e-08
-2.36138e-09
6.15962e-09
9.59611e-08
-2.27625e-09
8.37251e-09
9.67939e-08
-2.13688e-09
1.02592e-08
9.78698e-08
-1.94604e-09
1.17442e-08
9.9101e-08
-1.70749e-09
1.27634e-08
1.00374e-07
-1.42721e-09
1.32816e-08
1.01553e-07
-1.11777e-09