/*--------------------------------*- C++ -*----------------------------------*\
| =========                 |                                                 |
| \\      /  F ield         | OpenFOAM: The Open Source CFD Toolbox           |
|  \\    /   O peration     | Version:  v2012                                 |
|   \\  /    A nd           | Website:  www.openfoam.com                      |
|    \\/     M anipulation  |                                                 |
\*---------------------------------------------------------------------------*/
FoamFile
{
    version     2.0;
    format      ascii;
    class       volVectorField;
    location    "35";
    object      U;
}
// * * * * * * * * * * * * * * * * * * * * * * * * * * * * * * * * * * * * * //

dimensions      [0 1 -1 0 0 0 0];


internalField   nonuniform List<vector> 
78750
(
(-4.62913e-06 -9.75045e-05 6.20354e-05)
(-1.87982e-05 -0.000109115 0.000106908)
(-5.00054e-05 -8.87225e-05 0.000135045)
(-9.2812e-05 -5.49458e-05 0.000161355)
(-0.000144251 -1.62233e-05 0.000187362)
(-0.000202209 2.33952e-05 0.000213499)
(-0.000264634 6.10509e-05 0.000238901)
(-0.000329306 9.49522e-05 0.000262564)
(-0.00039414 0.00012361 0.000282931)
(-0.00045733 0.000146717 0.000298383)
(-0.000517293 0.000163915 0.000307273)
(-0.000572777 0.000175475 0.000308339)
(-0.000622693 0.00018144 0.00030067)
(-0.000666149 0.000182329 0.000283944)
(-0.000702361 0.000178509 0.000258298)
(-0.000730922 0.000170642 0.000224383)
(-0.000750968 0.000159439 0.000184036)
(-0.000762909 0.000145081 0.000136869)
(-0.000766233 0.000128321 8.52164e-05)
(-0.000761059 0.00010971 3.06955e-05)
(-0.00074753 8.96798e-05 -2.50319e-05)
(-0.00072592 6.8696e-05 -8.0271e-05)
(-0.000696566 4.71398e-05 -0.000133368)
(-0.000659917 2.54155e-05 -0.000182706)
(-0.000616485 3.89658e-06 -0.000226743)
(-0.000566866 -1.70065e-05 -0.000264009)
(-0.000511726 -3.68446e-05 -0.000293094)
(-0.000451829 -5.5085e-05 -0.000312665)
(-0.000388039 -7.10571e-05 -0.000321469)
(-0.000321331 -8.39203e-05 -0.00031841)
(-0.000252553 -9.25674e-05 -0.000302511)
(-0.000182357 -9.55398e-05 -0.000273137)
(-0.000112989 -9.08145e-05 -0.00022998)
(-5.74138e-05 -7.59464e-05 -0.000173757)
(-1.81169e-05 -4.07694e-05 -8.06669e-05)
(-1.83475e-05 0.000338406 -0.00039174)
(-6.51468e-05 0.000669507 -0.000515918)
(-0.000122462 0.000829851 -0.000548395)
(-0.000201659 0.000945335 -0.000581101)
(-0.000283017 0.00102224 -0.000609492)
(-0.000361453 0.00106406 -0.000629811)
(-0.00043506 0.0010776 -0.000643153)
(-0.000501473 0.00106605 -0.000651943)
(-0.000559336 0.00103544 -0.000657261)
(-0.000607777 0.000988645 -0.000660237)
(-0.000646637 0.000931495 -0.000660954)
(-0.000676106 0.000866595 -0.000659985)
(-0.000696556 0.000797577 -0.000657461)
(-0.000708745 0.000725024 -0.000654608)
(-0.000713052 0.000651451 -0.000651534)
(-0.000710179 0.000577828 -0.000648492)
(-0.000700705 0.000505757 -0.000645429)
(-0.000685225 0.000435631 -0.000642647)
(-0.000664379 0.00036842 -0.00064001)
(-0.000638759 0.000304261 -0.000637655)
(-0.000608955 0.000243708 -0.000635358)
(-0.000575503 0.000186776 -0.000633046)
(-0.000538931 0.000133744 -0.000630453)
(-0.000499714 8.45753e-05 -0.00062737)
(-0.000458319 3.93834e-05 -0.00062343)
(-0.000415162 -1.8491e-06 -0.000618196)
(-0.000370651 -3.90686e-05 -0.000611053)
(-0.000325159 -7.22059e-05 -0.000601098)
(-0.000279074 -0.000101157 -0.000587039)
(-0.000232776 -0.000125668 -0.000566965)
(-0.000186406 -0.000145357 -0.000538329)
(-0.000139513 -0.000159241 -0.000496094)
(-9.24763e-05 -0.000165191 -0.000427882)
(-5.55552e-05 -0.00015746 -0.000317717)
(-2.81283e-05 -9.62498e-05 -9.77761e-05)
(-1.92907e-05 0.000670293 -0.000105585)
(-5.23128e-05 0.00116582 -0.000156066)
(-8.54094e-05 0.00137251 -0.000175639)
(-0.000130382 0.00150505 -0.000191867)
(-0.000174658 0.00157633 -0.00020878)
(-0.000215576 0.00160004 -0.000227261)
(-0.000253091 0.00158395 -0.000249996)
(-0.000286289 0.00153664 -0.0002773)
(-0.000313141 0.00146449 -0.000309928)
(-0.000334423 0.00137998 -0.000346182)
(-0.000350295 0.00128932 -0.000383256)
(-0.000360218 0.00119598 -0.00041587)
(-0.000365083 0.0011011 -0.000441546)
(-0.000365932 0.00100782 -0.000460294)
(-0.00036294 0.000916168 -0.000473505)
(-0.000356772 0.000827503 -0.000482077)
(-0.00034786 0.00074175 -0.000487501)
(-0.000336592 0.000659853 -0.000490116)
(-0.000323328 0.000582274 -0.000490364)
(-0.000308335 0.000509524 -0.000488484)
(-0.000291945 0.000441422 -0.000485108)
(-0.000274365 0.000378186 -0.000480361)
(-0.000255815 0.000319646 -0.000474554)
(-0.000236482 0.000265854 -0.000467689)
(-0.000216554 0.000216649 -0.000459876)
(-0.000196183 0.000171986 -0.000450964)
(-0.000175517 0.000131752 -0.000440778)
(-0.000154659 9.5898e-05 -0.000428827)
(-0.000133738 6.44422e-05 -0.000414381)
(-0.000112843 3.74846e-05 -0.000396184)
(-9.19892e-05 1.53125e-05 -0.000372217)
(-7.08511e-05 -1.63495e-06 -0.000338674)
(-4.92218e-05 -1.26959e-05 -0.000288689)
(-3.07967e-05 -1.66302e-05 -0.000214762)
(-1.78191e-05 -6.9961e-06 -5.55074e-05)
(-1.95804e-05 0.000789109 0.000256195)
(-3.88148e-05 0.00130014 0.000300319)
(-4.98938e-05 0.00151664 0.000288354)
(-6.43412e-05 0.00165597 0.00027351)
(-7.6567e-05 0.00173406 0.00026174)
(-8.85929e-05 0.00176137 0.000248285)
(-0.000100296 0.0017481 0.000232787)
(-0.000111673 0.00170364 0.00021061)
(-0.000122971 0.00163899 0.000177438)
(-0.000133616 0.00156012 0.00013)
(-0.000142184 0.0014726 7.10854e-05)
(-0.000148197 0.00137904 5.34054e-06)
(-0.000151511 0.00128332 -5.95072e-05)
(-0.000152054 0.0011878 -0.000116456)
(-0.000149944 0.00109499 -0.000161644)
(-0.000146621 0.00100532 -0.000197887)
(-0.000141686 0.000919915 -0.000226674)
(-0.000135717 0.000838624 -0.000250152)
(-0.000129076 0.000761902 -0.000269467)
(-0.000122018 0.000689626 -0.000285499)
(-0.000114658 0.00062226 -0.000298311)
(-0.000107158 0.000559316 -0.000308517)
(-9.96422e-05 0.000500906 -0.00031626)
(-9.23012e-05 0.000447074 -0.000321688)
(-8.51635e-05 0.000397738 -0.000324868)
(-7.8293e-05 0.00035257 -0.000326018)
(-7.1687e-05 0.000311372 -0.000325104)
(-6.53351e-05 0.000273803 -0.000322189)
(-5.91521e-05 0.00023958 -0.000317037)
(-5.30295e-05 0.00020836 -0.000309343)
(-4.67037e-05 0.000179778 -0.000298546)
(-3.9581e-05 0.000153478 -0.00028482)
(-3.06645e-05 0.000128923 -0.000268853)
(-2.12364e-05 0.000105935 -0.000244045)
(-1.39241e-05 7.03902e-05 -0.000140207)
(-1.62275e-05 0.000699224 0.000376801)
(-2.45249e-05 0.00109411 0.000452599)
(-2.21138e-05 0.00126907 0.000443335)
(-1.66387e-05 0.00139226 0.000438775)
(-8.41091e-06 0.00147264 0.000440539)
(5.14342e-07 0.00151845 0.000439565)
(8.96366e-06 0.0015351 0.000431134)
(1.60962e-05 0.00152833 0.000414748)
(2.18492e-05 0.00150176 0.000389347)
(2.63639e-05 0.00145977 0.00035552)
(2.99085e-05 0.00140492 0.000313768)
(3.27453e-05 0.00134064 0.000265936)
(3.50499e-05 0.00126922 0.000214032)
(3.71799e-05 0.00119434 0.000161301)
(3.89359e-05 0.0011189 0.000110294)
(4.05826e-05 0.00104618 6.44718e-05)
(4.20697e-05 0.000977513 2.54226e-05)
(4.29432e-05 0.000913337 -7.82076e-06)
(4.33921e-05 0.000853404 -3.61221e-05)
(4.33206e-05 0.000797943 -5.99704e-05)
(4.24646e-05 0.000746548 -8.01183e-05)
(4.08814e-05 0.000699256 -9.68866e-05)
(3.84454e-05 0.000655694 -0.000110679)
(3.51628e-05 0.00061576 -0.000121715)
(3.10656e-05 0.000578822 -0.000130402)
(2.62034e-05 0.000544607 -0.000136951)
(2.06609e-05 0.000512524 -0.00014169)
(1.45816e-05 0.000482074 -0.000144897)
(8.18628e-06 0.000452416 -0.000146956)
(1.70971e-06 0.000422705 -0.000148142)
(-4.42469e-06 0.000391607 -0.000149225)
(-9.63666e-06 0.000357745 -0.000152893)
(-1.2406e-05 0.000318854 -0.000164882)
(-1.14214e-05 0.000272287 -0.000179785)
(-9.4638e-06 0.000177316 -0.000132752)
(-9.1611e-06 0.00057816 0.000364424)
(-1.02007e-05 0.000866752 0.000426259)
(-4.72043e-06 0.00100547 0.000416373)
(5.8882e-06 0.0011097 0.000410464)
(1.97375e-05 0.00118382 0.000408125)
(3.5386e-05 0.00123237 0.000402622)
(5.16921e-05 0.00126083 0.000392776)
(6.79246e-05 0.0012719 0.000379063)
(8.33931e-05 0.00126917 0.000361813)
(9.75853e-05 0.00125466 0.000341055)
(0.000110069 0.00123115 0.000317151)
(0.000120502 0.00120021 0.000290434)
(0.000128659 0.0011641 0.000261452)
(0.000134395 0.00112398 0.000230755)
(0.00013783 0.00108165 0.000199241)
(0.000139097 0.00103825 0.00016789)
(0.000138437 0.000995587 0.000137806)
(0.000136131 0.000954491 0.000109945)
(0.000132388 0.000916049 8.50492e-05)
(0.000127221 0.000880213 6.31118e-05)
(0.0001208 0.000847093 4.39305e-05)
(0.000113246 0.00081633 2.73032e-05)
(0.000104677 0.000787884 1.31466e-05)
(9.51547e-05 0.000761233 1.17703e-06)
(8.48232e-05 0.000736123 -8.75549e-06)
(7.37848e-05 0.000711858 -1.70353e-05)
(6.22109e-05 0.000687912 -2.38966e-05)
(5.02763e-05 0.000663277 -2.99112e-05)
(3.82581e-05 0.000636992 -3.55019e-05)
(2.64558e-05 0.000607517 -4.1358e-05)
(1.52389e-05 0.00057308 -4.8054e-05)
(5.16295e-06 0.000531016 -5.93738e-05)
(-2.2731e-06 0.000478032 -8.26001e-05)
(-5.13424e-06 0.000409906 -0.000112818)
(-5.75267e-06 0.000262685 -9.75974e-05)
(-5.39322e-06 0.000465244 0.000297368)
(-4.49533e-06 0.000694465 0.000315414)
(-9.22198e-07 0.000801549 0.000285859)
(6.80388e-06 0.000883733 0.000263273)
(1.71938e-05 0.000945261 0.000250162)
(2.89247e-05 0.000990757 0.00024021)
(4.13681e-05 0.00102334 0.000230421)
(5.39367e-05 0.00104559 0.000220241)
(6.6206e-05 0.00105903 0.000209246)
(7.77443e-05 0.00106545 0.000197299)
(8.82131e-05 0.00106581 0.000184237)
(9.73671e-05 0.0010615 0.000170185)
(0.000104984 0.00105321 0.000155254)
(0.000110939 0.00104211 0.000139767)
(0.000115117 0.00102873 0.000123909)
(0.000117522 0.00101404 0.000108014)
(0.000118091 0.000998334 9.2138e-05)
(0.000117038 0.000982375 7.68488e-05)
(0.000114396 0.000966338 6.23815e-05)
(0.000110367 0.000950734 4.9101e-05)
(0.000105077 0.000935445 3.711e-05)
(9.86576e-05 0.000920691 2.65683e-05)
(9.1219e-05 0.000906106 1.73931e-05)
(8.28883e-05 0.000891646 9.60338e-06)
(7.37898e-05 0.000876686 2.97999e-06)
(6.40628e-05 0.000860868 -2.57134e-06)
(5.38727e-05 0.000843216 -7.39937e-06)
(4.33981e-05 0.000822914 -1.17459e-05)
(3.29016e-05 0.0007984 -1.61103e-05)
(2.26425e-05 0.000768069 -2.08482e-05)
(1.29758e-05 0.000729292 -2.69126e-05)
(4.37603e-06 0.000679051 -3.69365e-05)
(-2.03316e-06 0.000612764 -5.63004e-05)
(-4.58159e-06 0.000524806 -8.14768e-05)
(-4.83289e-06 0.000330432 -7.19753e-05)
(-1.68841e-06 0.000398765 0.000195715)
(2.64024e-07 0.000620318 0.000197937)
(1.69127e-06 0.000723764 0.000174383)
(4.83465e-06 0.000803017 0.000154996)
(8.88279e-06 0.000863952 0.000142488)
(1.34062e-05 0.000910388 0.000132429)
(1.82478e-05 0.000945751 0.000122818)
(2.3319e-05 0.000972136 0.000113077)
(2.84844e-05 0.000991639 0.000103203)
(3.35918e-05 0.00100541 9.30672e-05)
(3.85021e-05 0.00101486 8.28131e-05)
(4.30737e-05 0.00102064 7.24434e-05)
(4.71925e-05 0.00102375 6.22058e-05)
(5.07295e-05 0.00102457 5.21559e-05)
(5.35943e-05 0.00102388 4.258e-05)
(5.56827e-05 0.00102183 3.35147e-05)
(5.70476e-05 0.00101902 2.5223e-05)
(5.74794e-05 0.0010155 1.7533e-05)
(5.70955e-05 0.00101165 1.07657e-05)
(5.58593e-05 0.00100727 4.8353e-06)
(5.37933e-05 0.00100263 -1.38725e-07)
(5.09287e-05 0.000997335 -4.31138e-06)
(4.73225e-05 0.000991437 -7.62023e-06)
(4.30341e-05 0.00098433 -1.02904e-05)
(3.81471e-05 0.000975806 -1.23149e-05)
(3.27565e-05 0.00096494 -1.39893e-05)
(2.69804e-05 0.000951114 -1.53722e-05)
(2.0976e-05 0.000932887 -1.68449e-05)
(1.49141e-05 0.000908933 -1.85339e-05)
(9.02568e-06 0.000876901 -2.08629e-05)
(3.55435e-06 0.000834194 -2.42115e-05)
(-1.09943e-06 0.000776831 -3.04013e-05)
(-4.21748e-06 0.00069988 -4.25603e-05)
(-4.98385e-06 0.000596362 -5.81036e-05)
(-4.15702e-06 0.000367019 -4.86625e-05)
(-1.87202e-06 0.000350142 0.000121948)
(-1.53677e-06 0.000572549 0.000125518)
(-1.88666e-06 0.000676225 0.000114115)
(-1.67629e-06 0.000756077 0.000103853)
(-1.03685e-06 0.000817656 9.62932e-05)
(-8.15735e-08 0.000865542 8.96471e-05)
(1.14118e-06 0.000902745 8.29333e-05)
(2.62942e-06 0.000931959 7.613e-05)
(4.33057e-06 0.000954777 6.91553e-05)
(6.20804e-06 0.000972868 6.21968e-05)
(8.18926e-06 0.000987049 5.52226e-05)
(1.02211e-05 0.00099843 4.84744e-05)
(1.22255e-05 0.00100739 4.19504e-05)
(1.4141e-05 0.00101471 3.58982e-05)
(1.58924e-05 0.00102049 3.0312e-05)
(1.74297e-05 0.00102533 2.54345e-05)
(1.86587e-05 0.00102916 2.11678e-05)
(1.95831e-05 0.00103242 1.77148e-05)
(2.01393e-05 0.00103485 1.49701e-05)
(2.03066e-05 0.00103674 1.30587e-05)
(2.0058e-05 0.00103768 1.18046e-05)
(1.93904e-05 0.0010378 1.127e-05)
(1.83142e-05 0.00103651 1.12075e-05)
(1.68235e-05 0.0010337 1.16905e-05)
(1.49587e-05 0.00102853 1.24197e-05)
(1.27698e-05 0.00102055 1.33625e-05)
(1.03203e-05 0.00100849 1.41728e-05)
(7.697e-06 0.000991358 1.47725e-05)
(5.01228e-06 0.000967119 1.4769e-05)
(2.38966e-06 0.000933814 1.40593e-05)
(-8.37361e-09 0.000888071 1.20946e-05)
(-1.97878e-06 0.000826167 7.92952e-06)
(-3.12924e-06 0.000742308 -6.15882e-07)
(-3.13977e-06 0.000629539 -1.20079e-05)
(-2.30068e-06 0.000379813 -1.1991e-05)
(-2.65893e-06 0.00032914 8.29866e-05)
(-3.97753e-06 0.000553539 9.75458e-05)
(-6.07475e-06 0.000657842 9.86094e-05)
(-8.41915e-06 0.000737737 9.741e-05)
(-1.03869e-05 0.00079937 9.53614e-05)
(-1.19798e-05 0.00084705 9.2278e-05)
(-1.32233e-05 0.000884344 8.8345e-05)
(-1.40965e-05 0.000913538 8.36744e-05)
(-1.4592e-05 0.000936772 7.86112e-05)
(-1.47111e-05 0.000955233 7.32397e-05)
(-1.44725e-05 0.000970276 6.78695e-05)
(-1.38984e-05 0.000982471 6.25579e-05)
(-1.30369e-05 0.000992735 5.75924e-05)
(-1.1931e-05 0.00100127 5.29987e-05)
(-1.06335e-05 0.00100874 4.90232e-05)
(-9.18961e-06 0.0010151 4.56393e-05)
(-7.68524e-06 0.00102081 4.30771e-05)
(-6.16434e-06 0.00102567 4.12517e-05)
(-4.68641e-06 0.00102998 4.02972e-05)
(-3.30655e-06 0.00103338 4.00696e-05)
(-2.07333e-06 0.00103605 4.06437e-05)
(-1.02747e-06 0.00103747 4.17919e-05)
(-2.01598e-07 0.00103766 4.35228e-05)
(4.06915e-07 0.00103584 4.55109e-05)
(7.82766e-07 0.00103175 4.77288e-05)
(9.39913e-07 0.00102429 4.98591e-05)
(8.99812e-07 0.00101276 5.18188e-05)
(6.98578e-07 0.000995514 5.32355e-05)
(3.8031e-07 0.00097112 5.39719e-05)
(5.87847e-09 0.000936971 5.36052e-05)
(-3.76417e-07 0.000890319 5.18478e-05)
(-6.99473e-07 0.000826835 4.7725e-05)
(-8.69023e-07 0.000741361 3.98427e-05)
(-7.46809e-07 0.000626454 2.8437e-05)
(-3.51353e-07 0.000373284 1.60191e-05)
(-3.6025e-06 0.000313698 6.20057e-05)
(-6.05704e-06 0.000533877 8.78384e-05)
(-9.15556e-06 0.000635754 9.79889e-05)
(-1.27922e-05 0.000713646 0.000103449)
(-1.59562e-05 0.000773296 0.000105459)
(-1.86503e-05 0.000819384 0.000105164)
(-2.08946e-05 0.000855013 0.000103156)
(-2.26858e-05 0.000882927 0.00010001)
(-2.39803e-05 0.000904777 9.6012e-05)
(-2.47828e-05 0.000922245 9.15763e-05)
(-2.50755e-05 0.00093618 8.68856e-05)
(-2.48916e-05 0.000947671 8.22779e-05)
(-2.42474e-05 0.000957103 7.78718e-05)
(-2.31937e-05 0.000965224 7.39484e-05)
(-2.17696e-05 0.000972131 7.05659e-05)
(-2.00487e-05 0.000978351 6.79424e-05)
(-1.80806e-05 0.000983777 6.60662e-05)
(-1.59516e-05 0.00098877 6.5082e-05)
(-1.37219e-05 0.000993056 6.48981e-05)
(-1.14706e-05 0.00099685 6.55784e-05)
(-9.25672e-06 0.000999714 6.69521e-05)
(-7.14929e-06 0.00100167 6.90334e-05)
(-5.18734e-06 0.00100205 7.15943e-05)
(-3.41809e-06 0.00100071 7.45634e-05)
(-1.86276e-06 0.000996765 7.76371e-05)
(-5.43196e-07 0.000989727 8.06919e-05)
(5.37306e-07 0.000978303 8.33716e-05)
(1.3802e-06 0.000961494 8.54933e-05)
(1.99458e-06 0.000937315 8.66311e-05)
(2.39218e-06 0.000903848 8.65168e-05)
(2.57273e-06 0.000857892 8.45489e-05)
(2.50365e-06 0.000795884 7.99652e-05)
(2.1336e-06 0.000712415 7.122e-05)
(1.68374e-06 0.000600915 5.77963e-05)
(1.31462e-06 0.000355971 3.36385e-05)
(-3.72919e-06 0.000302904 4.52411e-05)
(-6.53095e-06 0.000514717 7.62271e-05)
(-1.00318e-05 0.000612512 9.0806e-05)
(-1.41734e-05 0.000686813 9.94062e-05)
(-1.78396e-05 0.000743547 0.000103332)
(-2.09698e-05 0.000786833 0.000104138)
(-2.36158e-05 0.000820099 0.000102855)
(-2.57295e-05 0.000845592 0.000100041)
(-2.72893e-05 0.000865369 9.62201e-05)
(-2.82455e-05 0.000880645 9.17214e-05)
(-2.86131e-05 0.000892723 8.6949e-05)
(-2.8381e-05 0.000902233 8.21337e-05)
(-2.75966e-05 0.000910044 7.76006e-05)
(-2.62844e-05 0.000916434 7.3507e-05)
(-2.45172e-05 0.000922002 7.01057e-05)
(-2.2348e-05 0.000926789 6.74774e-05)
(-1.98729e-05 0.000931199 6.57931e-05)
(-1.71632e-05 0.000935087 6.50477e-05)
(-1.43204e-05 0.000938693 6.53227e-05)
(-1.14197e-05 0.000941705 6.65226e-05)
(-8.55986e-06 0.000944198 6.86384e-05)
(-5.80685e-06 0.000945684 7.14876e-05)
(-3.24216e-06 0.000946051 7.49782e-05)
(-9.18273e-07 0.000944596 7.88504e-05)
(1.10847e-06 0.000940965 8.29407e-05)
(2.80734e-06 0.00093415 8.69235e-05)
(4.15584e-06 0.000923422 9.05697e-05)
(5.14298e-06 0.000907295 9.34858e-05)
(5.76809e-06 0.000884404 9.53588e-05)
(6.03023e-06 0.000852431 9.56949e-05)
(5.92762e-06 0.000808888 9.39781e-05)
(5.38889e-06 0.000749958 8.92352e-05)
(4.35021e-06 0.000671111 7.99923e-05)
(3.18465e-06 0.000565804 6.52113e-05)
(2.18764e-06 0.000335208 3.54616e-05)
(-3.13029e-06 0.000295145 2.49038e-05)
(-5.79497e-06 0.000498658 5.27737e-05)
(-9.23435e-06 0.000592244 6.70275e-05)
(-1.33937e-05 0.000663108 7.54952e-05)
(-1.71543e-05 0.00071668 7.90557e-05)
(-2.04403e-05 0.000757226 7.94283e-05)
(-2.3217e-05 0.000787736 7.75705e-05)
(-2.54468e-05 0.000810753 7.41466e-05)
(-2.70467e-05 0.000827939 6.9585e-05)
(-2.79868e-05 0.000840882 6.43492e-05)
(-2.82348e-05 0.00085051 5.87719e-05)
(-2.78104e-05 0.000857868 5.32343e-05)
(-2.67255e-05 0.000863455 4.79941e-05)
(-2.50471e-05 0.000867985 4.33526e-05)
(-2.283e-05 0.000871679 3.94874e-05)
(-2.01747e-05 0.000875018 3.66122e-05)
(-1.71632e-05 0.000878012 3.48114e-05)
(-1.39179e-05 0.000880952 3.41993e-05)
(-1.0542e-05 0.000883665 3.47582e-05)
(-7.1564e-06 0.000886264 3.64964e-05)
(-3.86763e-06 0.000888392 3.9292e-05)
(-7.84605e-07 0.00088998 4.30506e-05)
(2.01215e-06 0.000890473 4.75541e-05)
(4.43791e-06 0.000889588 5.26155e-05)
(6.43803e-06 0.000886525 5.7935e-05)
(7.96508e-06 0.000880711 6.32495e-05)
(9.00265e-06 0.000870995 6.819e-05)
(9.54323e-06 0.000856352 7.2428e-05)
(9.59672e-06 0.000835056 7.55269e-05)
(9.1929e-06 0.000805303 7.70773e-05)
(8.34438e-06 0.000764351 7.64737e-05)
(7.0371e-06 0.000708991 7.28649e-05)
(5.24821e-06 0.000634648 6.47528e-05)
(3.52512e-06 0.000535526 5.12884e-05)
(2.18369e-06 0.000318313 2.40161e-05)
(-2.03667e-06 0.000294516 1.01579e-06)
(-4.30214e-06 0.000494417 1.90324e-05)
(-7.45044e-06 0.000586076 2.95033e-05)
(-1.14108e-05 0.000654915 3.5341e-05)
(-1.51827e-05 0.00070653 3.69054e-05)
(-1.85632e-05 0.000744864 3.55881e-05)
(-2.14878e-05 0.000773176 3.22578e-05)
(-2.38414e-05 0.000793724 2.74154e-05)
(-2.5541e-05 0.000808501 2.15111e-05)
(-2.65061e-05 0.000818828 1.49301e-05)
(-2.67189e-05 0.000826 8.09366e-06)
(-2.61672e-05 0.000830804 1.37401e-06)
(-2.48938e-05 0.000834122 -4.86699e-06)
(-2.2941e-05 0.000836398 -1.0396e-05)
(-2.04003e-05 0.00083823 -1.49612e-05)
(-1.73647e-05 0.000839817 -1.83516e-05)
(-1.39614e-05 0.000841536 -2.04076e-05)
(-1.03147e-05 0.00084337 -2.10575e-05)
(-6.57016e-06 0.000845492 -2.02483e-05)
(-2.86101e-06 0.000847684 -1.8032e-05)
(6.72942e-07 0.000849912 -1.44819e-05)
(3.91221e-06 0.000851754 -9.76967e-06)
(6.74481e-06 0.00085296 -4.08434e-06)
(9.07804e-06 0.000852879 2.29845e-06)
(1.08468e-05 0.00085101 9.09293e-06)
(1.20068e-05 0.000846413 1.59439e-05)
(1.25457e-05 0.000838242 2.24954e-05)
(1.24712e-05 0.000825129 2.83501e-05)
(1.18295e-05 0.000805672 3.3115e-05)
(1.06764e-05 0.000777776 3.63714e-05)
(9.0917e-06 0.000739068 3.77056e-05)
(7.11039e-06 0.000686136 3.63696e-05)
(4.83378e-06 0.000614849 3.11699e-05)
(2.86968e-06 0.000519375 2.16976e-05)
(1.50015e-06 0.000309995 3.8365e-06)
(-8.74444e-07 0.000302825 -2.21023e-05)
(-2.75442e-06 0.000506118 -1.66033e-05)
(-5.51552e-06 0.000598889 -1.14311e-05)
(-9.22909e-06 0.000668105 -9.22969e-06)
(-1.29491e-05 0.000719289 -1.03357e-05)
(-1.64167e-05 0.000756714 -1.37556e-05)
(-1.94708e-05 0.000783524 -1.89017e-05)
(-2.1978e-05 0.000802306 -2.53802e-05)
(-2.38051e-05 0.000814921 -3.28554e-05)
(-2.48666e-05 0.000823025 -4.09441e-05)
(-2.51045e-05 0.00082777 -4.92767e-05)
(-2.45177e-05 0.000830278 -5.74896e-05)
(-2.31252e-05 0.000831257 -6.51917e-05)
(-2.09963e-05 0.000831467 -7.19626e-05)
(-1.82188e-05 0.000831342 -7.75044e-05)
(-1.49171e-05 0.000831396 -8.16103e-05)
(-1.12259e-05 0.000831808 -8.41041e-05)
(-7.30054e-06 0.000832847 -8.48802e-05)
(-3.29998e-06 0.000834451 -8.39131e-05)
(6.12259e-07 0.000836651 -8.12374e-05)
(4.28595e-06 0.000839148 -7.6968e-05)
(7.57868e-06 0.00084173 -7.12786e-05)
(1.03623e-05 0.000843856 -6.44127e-05)
(1.25426e-05 0.00084506 -5.66614e-05)
(1.40406e-05 0.000844533 -4.83696e-05)
(1.48245e-05 0.000841505 -3.99059e-05)
(1.48814e-05 0.000834816 -3.16594e-05)
(1.42435e-05 0.000823264 -2.40165e-05)
(1.29755e-05 0.000805144 -1.73335e-05)
(1.11836e-05 0.000778528 -1.19377e-05)
(8.97539e-06 0.000740767 -8.24586e-06)
(6.48643e-06 0.000688629 -6.75567e-06)
(3.90887e-06 0.000617747 -8.25149e-06)
(1.92503e-06 0.000522457 -1.24899e-05)
(6.12598e-07 0.000312817 -1.8042e-05)
(3.71994e-08 0.000320663 -3.96191e-05)
(-1.58356e-06 0.000533889 -4.5368e-05)
(-3.97498e-06 0.00063087 -4.52583e-05)
(-7.40615e-06 0.00070263 -4.66063e-05)
(-1.10138e-05 0.000755132 -5.02835e-05)
(-1.44584e-05 0.00079277 -5.57303e-05)
(-1.75501e-05 0.000819056 -6.25901e-05)
(-2.01046e-05 0.000836601 -7.06075e-05)
(-2.19835e-05 0.00084759 -7.95036e-05)
(-2.30745e-05 0.000853655 -8.89301e-05)
(-2.33207e-05 0.000856242 -9.84921e-05)
(-2.27037e-05 0.000856419 -0.000107771)
(-2.12587e-05 0.000855209 -0.000116395)
(-1.90434e-05 0.00085333 -0.000124018)
(-1.61631e-05 0.000851463 -0.000130301)
(-1.27376e-05 0.000850008 -0.000134968)
(-8.9234e-06 0.00084937 -0.000137816)
(-4.88473e-06 0.000849672 -0.000138719)
(-7.91081e-07 0.000851042 -0.000137635)
(3.18005e-06 0.000853329 -0.0001346)
(6.86261e-06 0.000856383 -0.000129739)
(1.01011e-05 0.000859776 -0.00012325)
(1.27663e-05 0.00086308 -0.000115407)
(1.47518e-05 0.000865587 -0.000106538)
(1.59913e-05 0.000866568 -9.70268e-05)
(1.64381e-05 0.000864997 -8.72755e-05)
(1.61022e-05 0.000859772 -7.76912e-05)
(1.50253e-05 0.000849422 -6.8657e-05)
(1.33073e-05 0.000832278 -6.05174e-05)
(1.10637e-05 0.000806129 -5.35384e-05)
(8.45852e-06 0.00076831 -4.79519e-05)
(5.66764e-06 0.000715261 -4.40272e-05)
(2.97609e-06 0.000642513 -4.21717e-05)
(1.08051e-06 0.000544028 -4.15882e-05)
(-1.75844e-07 0.000326733 -3.59605e-05)
(5.05643e-07 0.000345515 -4.88043e-05)
(-1.04805e-06 0.000572674 -6.15994e-05)
(-3.1389e-06 0.000675678 -6.48448e-05)
(-6.33401e-06 0.000751481 -6.85627e-05)
(-9.77404e-06 0.000806372 -7.3927e-05)
(-1.31147e-05 0.000845192 -8.06879e-05)
(-1.61196e-05 0.000871622 -8.86579e-05)
(-1.86208e-05 0.000888613 -9.7682e-05)
(-2.04516e-05 0.000898433 -0.000107534)
(-2.15046e-05 0.000902997 -0.000117901)
(-2.17089e-05 0.000903793 -0.000128394)
(-2.10532e-05 0.000902142 -0.000138606)
(-1.95611e-05 0.00089906 -0.0001481)
(-1.73018e-05 0.000895471 -0.000156473)
(-1.43724e-05 0.000892042 -0.000163361)
(-1.09058e-05 0.000889368 -0.000168482)
(-7.05381e-06 0.000887797 -0.000171615)
(-2.98957e-06 0.000887606 -0.000172641)
(1.10827e-06 0.000888824 -0.000171507)
(5.06187e-06 0.000891407 -0.000168259)
(8.69669e-06 0.000895066 -0.000163013)
(1.18578e-05 0.000899437 -0.000155986)
(1.44072e-05 0.000903913 -0.000147461)
(1.62406e-05 0.00090781 -0.000137809)
(1.72823e-05 0.000910191 -0.000127439)
(1.75041e-05 0.000910021 -0.000116796)
(1.69113e-05 0.000905969 -0.000106288)
(1.55704e-05 0.000896525 -9.63064e-05)
(1.35748e-05 0.000879764 -8.71564e-05)
(1.10801e-05 0.00085339 -7.90576e-05)
(8.24842e-06 0.000814437 -7.21485e-05)
(5.30062e-06 0.000759192 -6.65669e-05)
(2.55065e-06 0.000682789 -6.24631e-05)
(7.57092e-07 0.000578893 -5.87277e-05)
(-5.77311e-07 0.000349052 -4.60187e-05)
(5.65148e-07 0.000374258 -5.00009e-05)
(-1.0645e-06 0.000616595 -6.48965e-05)
(-3.02229e-06 0.000726288 -6.93352e-05)
(-6.0968e-06 0.000806638 -7.39217e-05)
(-9.42606e-06 0.000864424 -7.98947e-05)
(-1.2655e-05 0.000904801 -8.7121e-05)
(-1.55634e-05 0.000931792 -9.54972e-05)
(-1.79677e-05 0.000948526 -0.000104902)
(-1.97175e-05 0.000957536 -0.000115158)
(-2.0697e-05 0.000960844 -0.000125956)
(-2.08369e-05 0.000960155 -0.000136931)
(-2.01123e-05 0.000956858 -0.000147638)
(-1.8555e-05 0.000952159 -0.000157605)
(-1.62334e-05 0.000947026 -0.000166366)
(-1.3255e-05 0.000942282 -0.000173549)
(-9.74964e-06 0.00093853 -0.000178863)
(-5.87536e-06 0.000936237 -0.000182121)
(-1.80234e-06 0.000935647 -0.000183206)
(2.29223e-06 0.000936867 -0.000182086)
(6.23049e-06 0.000939781 -0.000178788)
(9.84106e-06 0.000944137 -0.000173422)
(1.2964e-05 0.000949461 -0.000166169)
(1.54667e-05 0.000955138 -0.000157316)
(1.7236e-05 0.000960337 -0.00014724)
(1.82005e-05 0.000964079 -0.000136415)
(1.83232e-05 0.000965151 -0.000125326)
(1.76283e-05 0.000962154 -0.000114426)
(1.61778e-05 0.000953374 -0.000104075)
(1.40812e-05 0.000936777 -9.4579e-05)
(1.14788e-05 0.000909823 -8.61083e-05)
(8.55234e-06 0.000869368 -7.87715e-05)
(5.51292e-06 0.000811376 -7.26416e-05)
(2.69752e-06 0.000730676 -6.77872e-05)
(9.11622e-07 0.000620469 -6.30142e-05)
(-5.96376e-07 0.000376247 -4.81346e-05)
(3.3319e-07 0.000403476 -4.5137e-05)
(-1.46647e-06 0.000660142 -5.78748e-05)
(-3.43255e-06 0.000776157 -6.15599e-05)
(-6.50865e-06 0.000860858 -6.56688e-05)
(-9.78587e-06 0.00092141 -7.12828e-05)
(-1.29373e-05 0.00096333 -7.8241e-05)
(-1.57465e-05 0.00099088 -8.64022e-05)
(-1.80489e-05 0.00100744 -9.56661e-05)
(-1.96953e-05 0.00101571 -0.000105847)
(-2.05759e-05 0.00101789 -0.000116681)
(-2.06162e-05 0.00101581 -0.000127811)
(-1.9795e-05 0.00101102 -0.000138734)
(-1.81418e-05 0.00100481 -0.000148857)
(-1.5734e-05 0.000998288 -0.000157674)
(-1.26838e-05 0.000992331 -0.000164828)
(-9.12531e-06 0.000987645 -0.000170093)
(-5.2104e-06 0.000984713 -0.000173308)
(-1.10845e-06 0.000983841 -0.000174396)
(3.00604e-06 0.000985116 -0.000173318)
(6.96064e-06 0.000988445 -0.00017011)
(1.05861e-05 0.000993519 -0.000164843)
(1.37282e-05 0.000999848 -0.000157672)
(1.62482e-05 0.00100672 -0.000148817)
(1.8034e-05 0.00101326 -0.000138632)
(1.90055e-05 0.00101834 -0.000127632)
(1.91303e-05 0.00102066 -0.000116426)
(1.84251e-05 0.00101868 -0.000105527)
(1.69617e-05 0.00101057 -9.52889e-05)
(1.48456e-05 0.000994103 -8.59673e-05)
(1.22251e-05 0.000966584 -7.77434e-05)
(9.25924e-06 0.000924627 -7.07082e-05)
(6.15649e-06 0.000863959 -6.49801e-05)
(3.23516e-06 0.000779054 -6.06785e-05)
(1.3726e-06 0.000662737 -5.67474e-05)
(-3.55045e-07 0.000404609 -4.39522e-05)
(-9.77207e-08 0.00043048 -3.6586e-05)
(-2.09711e-06 0.000699207 -4.4232e-05)
(-4.18344e-06 0.000820535 -4.57999e-05)
(-7.3518e-06 0.000908842 -4.84715e-05)
(-1.06429e-05 0.000971636 -5.30629e-05)
(-1.37464e-05 0.0010147 -5.92363e-05)
(-1.64792e-05 0.00104255 -6.6774e-05)
(-1.86852e-05 0.00105873 -7.55315e-05)
(-2.02284e-05 0.00106612 -8.53313e-05)
(-2.09951e-05 0.00106708 -9.59333e-05)
(-2.0914e-05 0.00106357 -0.000106959)
(-1.99698e-05 0.00105725 -0.000117796)
(-1.81998e-05 0.00104954 -0.000127769)
(-1.56851e-05 0.00104163 -0.000136358)
(-1.25401e-05 0.00103449 -0.000143268)
(-8.89916e-06 0.0010289 -0.00014832)
(-4.91563e-06 0.00102538 -0.000151401)
(-7.53242e-07 0.00102426 -0.000152446)
(3.41955e-06 0.00102564 -0.000151434)
(7.42984e-06 0.00102943 -0.000148383)
(1.11145e-05 0.00103528 -0.000143356)
(1.43217e-05 0.00104266 -0.00013646)
(1.69138e-05 0.00105081 -0.000127868)
(1.87726e-05 0.00105874 -0.000117874)
(1.98173e-05 0.00106525 -0.000107)
(2.00106e-05 0.00106894 -9.59349e-05)
(1.93631e-05 0.00106812 -8.52972e-05)
(1.79419e-05 0.00106083 -7.54676e-05)
(1.58629e-05 0.00104472 -6.66786e-05)
(1.32572e-05 0.00101691 -5.91017e-05)
(1.0277e-05 0.000973827 -5.28742e-05)
(7.10607e-06 0.000910972 -4.8196e-05)
(4.04491e-06 0.000822549 -4.53735e-05)
(2.032e-06 0.000701046 -4.36049e-05)
(8.10921e-08 0.000431094 -3.58507e-05)
(-5.84592e-07 0.000453587 -2.67546e-05)
(-2.78187e-06 0.000731378 -2.79931e-05)
(-5.04551e-06 0.000856646 -2.67911e-05)
(-8.35177e-06 0.000947536 -2.7565e-05)
(-1.16887e-05 0.0010118 -3.07976e-05)
(-1.47712e-05 0.00105543 -3.59292e-05)
(-1.74429e-05 0.00108311 -4.26252e-05)
(-1.95682e-05 0.00109858 -5.06826e-05)
(-2.10115e-05 0.00110482 -5.99116e-05)
(-2.16627e-05 0.00110435 -7.00859e-05)
(-2.14602e-05 0.00109923 -8.07698e-05)
(-2.03926e-05 0.00109125 -9.12783e-05)
(-1.85006e-05 0.00108193 -0.000100884)
(-1.58703e-05 0.00107256 -0.000109089)
(-1.26185e-05 0.0010642 -0.000115642)
(-8.87768e-06 0.00105767 -0.000120412)
(-4.80465e-06 0.00105355 -0.000123314)
(-5.59872e-07 0.0010522 -0.000124301)
(3.69238e-06 0.00105374 -0.000123354)
(7.78616e-06 0.00105803 -0.000120491)
(1.15563e-05 0.00106474 -0.000115756)
(1.48532e-05 0.00107327 -0.000109231)
(1.75397e-05 0.00108279 -0.000101042)
(1.94942e-05 0.00109227 -9.14397e-05)
(2.06368e-05 0.00110038 -8.09223e-05)
(2.09226e-05 0.00110562 -7.02243e-05)
(2.03565e-05 0.00110619 -6.00361e-05)
(1.90036e-05 0.00110003 -5.07941e-05)
(1.69739e-05 0.00108463 -4.27209e-05)
(1.43958e-05 0.00105698 -3.60005e-05)
(1.1405e-05 0.00101335 -3.08295e-05)
(8.15891e-06 0.000949056 -2.75282e-05)
(4.93625e-06 0.000858107 -2.66304e-05)
(2.73118e-06 0.000732744 -2.76612e-05)
(5.669e-07 0.00045388 -2.6297e-05)
(-1.02536e-06 0.000472226 -1.78424e-05)
(-3.37189e-06 0.000756088 -1.29086e-05)
(-5.81489e-06 0.000883918 -8.98265e-06)
(-9.26223e-06 0.000976337 -7.86754e-06)
(-1.26566e-05 0.00104126 -9.73407e-06)
(-1.57407e-05 0.00108482 -1.38027e-05)
(-1.83773e-05 0.00111184 -1.96189e-05)
(-2.04422e-05 0.00112616 -2.6928e-05)
(-2.1805e-05 0.00113093 -3.55278e-05)
(-2.23623e-05 0.00112873 -4.51701e-05)
(-2.20542e-05 0.00112177 -5.53681e-05)
(-2.08781e-05 0.00111193 -6.53935e-05)
(-1.88799e-05 0.00110083 -7.45123e-05)
(-1.61413e-05 0.00108987 -8.22527e-05)
(-1.27832e-05 0.00108019 -8.83978e-05)
(-8.94498e-06 0.00107265 -9.28434e-05)
(-4.77786e-06 0.0010679 -9.55221e-05)
(-4.38894e-07 0.00106632 -9.64331e-05)
(3.90424e-06 0.00106803 -9.55613e-05)