/*--------------------------------*- C++ -*----------------------------------*\
| =========                 |                                                 |
| \\      /  F ield         | OpenFOAM: The Open Source CFD Toolbox           |
|  \\    /   O peration     | Version:  v2012                                 |
|   \\  /    A nd           | Website:  www.openfoam.com                      |
|    \\/     M anipulation  |                                                 |
\*---------------------------------------------------------------------------*/
FoamFile
{
    version     2.0;
    format      ascii;
    class       surfaceScalarField;
    location    "94";
    object      phi;
}
// * * * * * * * * * * * * * * * * * * * * * * * * * * * * * * * * * * * * * //

dimensions      [1 0 -1 0 0 0 0];
oriented        oriented;


internalField   nonuniform List<scalar> 
228225
(
-6.22384e-10
-7.48065e-10
1.13645e-09
-1.16658e-09
1.70794e-09
-1.16197e-09
-3.17582e-09
3.56238e-09
-1.55352e-09
-6.92827e-09
5.31895e-09
-1.56569e-09
-1.23024e-08
6.94819e-09
-1.57561e-09
-1.90185e-08
8.38865e-09
-1.67264e-09
-2.67744e-08
9.62116e-09
-1.86188e-09
-3.52643e-08
1.06238e-08
-2.13582e-09
-4.41966e-08
1.14048e-08
-2.47157e-09
-5.33005e-08
1.19595e-08
-2.85731e-09
-6.2331e-08
1.2306e-08
-3.27446e-09
-7.10627e-08
1.24475e-08
-3.71495e-09
-7.93072e-08
1.24065e-08
-4.16304e-09
-8.68788e-08
1.21871e-08
-4.61428e-09
-9.36343e-08
1.18134e-08
-5.05621e-09
-9.94437e-08
1.1292e-08
-5.48634e-09
-1.04191e-07
1.06454e-08
-5.89423e-09
-1.07795e-07
9.88004e-09
-6.2793e-09
-1.10179e-07
9.017e-09
-6.62979e-09
-1.11295e-07
8.06273e-09
-6.94735e-09
-1.11106e-07
7.03696e-09
-7.22446e-09
-1.09593e-07
5.9461e-09
-7.46086e-09
-1.06751e-07
4.80902e-09
-7.65066e-09
-1.02587e-07
3.63327e-09
-7.79563e-09
-9.71354e-08
2.43825e-09
-7.89234e-09
-9.04219e-08
1.23269e-09
-7.94506e-09
-8.25173e-08
5.04744e-11
-7.95412e-09
-7.34635e-08
-1.12613e-09
-7.92769e-09
-6.33613e-08
-2.23317e-09
-7.86959e-09
-5.232e-08
-3.25193e-09
-7.78862e-09
-4.05039e-08
-4.13591e-09
-7.67901e-09
-2.8177e-08
-4.82668e-09
-7.5038e-09
-1.58635e-08
-5.2101e-09
-7.09959e-09
-4.85659e-09
-5.12333e-09
-5.88446e-09
-3.60953e-09
-1.24749e-09
-1.81065e-09
1.20897e-08
-1.10243e-08
-9.35326e-09
2.18188e-08
-1.2572e-08
-1.89944e-08
2.65244e-08
-1.33183e-08
-2.97808e-08
3.01195e-08
-1.4016e-08
-4.09892e-08
3.27642e-08
-1.46086e-08
-5.21205e-08
3.46306e-08
-1.51088e-08
-6.28023e-08
3.58544e-08
-1.55528e-08
-7.2771e-08
3.6549e-08
-1.59551e-08
-8.18384e-08
3.6799e-08
-1.63274e-08
-8.98832e-08
3.66749e-08
-1.66709e-08
-9.68175e-08
3.62312e-08
-1.6991e-08
-1.02599e-07
3.55143e-08
-1.72855e-08
-1.07198e-07
3.45626e-08
-1.75574e-08
-1.10615e-07
3.34083e-08
-1.78035e-08
-1.12857e-07
3.20809e-08
-1.80262e-08
-1.13951e-07
3.06073e-08
-1.82217e-08
-1.13927e-07
2.90137e-08
-1.83919e-08
-1.12838e-07
2.73231e-08
-1.85332e-08
-1.1073e-07
2.55564e-08
-1.86474e-08
-1.07671e-07
2.37346e-08
-1.87308e-08
-1.03725e-07
2.1876e-08
-1.87852e-08
-9.89703e-08
1.99993e-08
-1.88074e-08
-9.34839e-08
1.8121e-08
-1.87986e-08
-8.73543e-08
1.62575e-08
-1.87552e-08
-8.066e-08
1.4421e-08
-1.86776e-08
-7.34881e-08
1.26239e-08
-1.85609e-08
-6.59131e-08
1.0878e-08
-1.8403e-08
-5.80395e-08
9.19364e-09
-1.8195e-08
-4.99215e-08
7.57927e-09
-1.7929e-08
-4.16289e-08
6.04159e-09
-1.75857e-08
-3.32069e-08
4.58632e-09
-1.71447e-08
-2.46909e-08
3.22451e-09
-1.65678e-08
-1.6126e-08
1.97926e-09
-1.57539e-08
-7.76407e-09
9.51327e-10
-1.44356e-08
1.39002e-10
-1.15131e-08
-3.07986e-10
2.16223e-08
-9.22461e-09
-3.63298e-09
3.61377e-08
-1.09932e-08
-7.96922e-09
4.25976e-08
-1.17389e-08
-1.27973e-08
4.72406e-08
-1.22915e-08
-1.77811e-08
5.04729e-08
-1.27265e-08
-2.26737e-08
5.26174e-08
-1.30936e-08
-2.73094e-08
5.39068e-08
-1.34148e-08
-3.15737e-08
5.45206e-08
-1.37107e-08
-3.53782e-08
5.45919e-08
-1.39863e-08
-3.86803e-08
5.42245e-08
-1.42508e-08
-4.1442e-08
5.34976e-08
-1.45027e-08
-4.36549e-08
5.2475e-08
-1.47462e-08
-4.53254e-08
5.12073e-08
-1.49772e-08
-4.64539e-08
4.97372e-08
-1.51982e-08
-4.70725e-08
4.81004e-08
-1.54044e-08
-4.71921e-08
4.63283e-08
-1.55977e-08
-4.686e-08
4.44505e-08
-1.57725e-08
-4.60968e-08
4.24921e-08
-1.59304e-08
-4.49477e-08
4.04755e-08
-1.60669e-08
-4.34528e-08
3.84214e-08
-1.61834e-08
-4.16498e-08
3.6349e-08
-1.62756e-08
-3.95812e-08
3.42746e-08
-1.63449e-08
-3.7287e-08
3.22144e-08
-1.63872e-08
-3.48086e-08
3.0183e-08
-1.64033e-08
-3.21881e-08
2.81902e-08
-1.63894e-08
-2.9461e-08
2.62401e-08
-1.63447e-08
-2.66525e-08
2.43341e-08
-1.62632e-08
-2.37872e-08
2.24679e-08
-1.61408e-08
-2.0871e-08
2.06301e-08
-1.59663e-08
-1.79045e-08
1.88006e-08
-1.57275e-08
-1.48611e-08
1.6946e-08
-1.54013e-08
-1.1705e-08
1.50186e-08
-1.49514e-08
-8.37544e-09
1.29453e-08
-1.42944e-08
-4.79163e-09
1.06225e-08
-1.32566e-08
6.18716e-09
-1.0839e-08
1.49152e-10
2.63427e-08
-4.86998e-09
-2.75701e-10
4.30425e-08
-6.47844e-09
-9.41991e-10
5.05358e-08
-7.27435e-09
-1.84955e-09
5.5955e-08
-7.8036e-09
-2.96038e-09
5.97833e-08
-8.20244e-09
-4.184e-09
6.23846e-08
-8.54285e-09
-5.4463e-09
6.40282e-08
-8.85922e-09
-6.68593e-09
6.49198e-08
-9.1602e-09
-7.85187e-09
6.52156e-08
-9.45753e-09
-8.91114e-09
6.50351e-08
-9.75153e-09
-9.83693e-09
6.44719e-08
-1.00481e-08
-1.06182e-08
6.35984e-08
-1.03431e-08
-1.12444e-08
6.24738e-08
-1.06395e-08
-1.17224e-08
6.11451e-08
-1.09314e-08
-1.20528e-08
5.96525e-08
-1.12204e-08
-1.22544e-08
5.80289e-08
-1.15002e-08
-1.23347e-08
5.63035e-08
-1.17718e-08
-1.2315e-08
5.45007e-08
-1.2029e-08
-1.22109e-08
5.26428e-08
-1.22724e-08
-1.20389e-08
5.07479e-08
-1.24965e-08
-1.1822e-08
4.88323e-08
-1.27015e-08
-1.15759e-08
4.69097e-08
-1.28823e-08
-1.13117e-08
4.4992e-08
-1.3039e-08
-1.10528e-08
4.30875e-08
-1.3166e-08
-1.07993e-08
4.12002e-08
-1.32627e-08
-1.05574e-08
3.93222e-08
-1.33245e-08
-1.03126e-08
3.74411e-08
-1.335e-08
-1.00479e-08
3.5534e-08
-1.33323e-08
-9.71586e-09
3.35649e-08
-1.32668e-08
-9.25555e-09
3.14814e-08
-1.31409e-08
-8.57361e-09
2.92061e-08
-1.29411e-08
-7.54353e-09
2.66333e-08
-1.26458e-08
-5.97628e-09
2.36096e-08
-1.22328e-08
-3.68177e-09
1.994e-08
-1.16088e-08
1.23959e-08
-9.89248e-09
-6.53671e-10
2.86411e-08
-1.6448e-09
-3.77874e-10
4.56719e-08
-2.90508e-09
3.51986e-10
5.34178e-08
-3.61127e-09
1.24867e-09
5.91234e-08
-4.06772e-09
2.18436e-09
6.32526e-08
-4.40292e-09
3.10207e-09
6.6167e-08
-4.70086e-09
3.98056e-09
6.81349e-08
-4.9847e-09
4.80243e-09
6.93632e-08
-5.2674e-09
5.56242e-09
7.00066e-08
-5.5502e-09
6.25103e-09
7.01865e-08
-5.84017e-09
6.86491e-09
6.99944e-08
-6.13463e-09
7.39458e-09
6.9504e-08
-6.43687e-09
7.83873e-09
6.87719e-08
-6.74182e-09
8.18776e-09
6.78455e-08
-7.05091e-09
8.43809e-09
6.67616e-08
-7.3582e-09
8.57894e-09
6.55525e-08
-7.66429e-09
8.60157e-09
6.42435e-08
-7.96307e-09
8.50067e-09
6.28574e-08
-8.25476e-09
8.26401e-09
6.14118e-08
-8.53342e-09
7.88908e-09
5.99223e-08
-8.79914e-09
7.36734e-09
5.84e-08
-9.04636e-09
6.69806e-09
5.68545e-08
-9.27494e-09
5.87823e-09
5.52904e-08
-9.47949e-09
4.91993e-09
5.37071e-08
-9.65994e-09
3.83345e-09
5.20972e-08
-9.81137e-09
2.64328e-09
5.04457e-08
-9.9335e-09
1.37937e-09
4.87265e-08
-1.00213e-08
8.67432e-11
4.69005e-08
-1.00734e-08
-1.17586e-09
4.49093e-08
-1.00834e-08
-2.31709e-09
4.26711e-08
-1.00461e-08
-3.23435e-09
4.00697e-08
-9.94896e-09
-3.76114e-09
3.69482e-08
-9.78665e-09
-3.67229e-09
3.30866e-08
-9.56639e-09
-2.68049e-09
2.81953e-08
-9.24628e-09
1.78074e-08
-8.09222e-09
-8.44927e-10
2.92812e-08
2.0496e-10
-5.19565e-10
4.60632e-08
-7.16284e-10
4.23834e-10
5.37675e-08
-1.29417e-09
1.68314e-09
5.95239e-08
-1.6596e-09
3.08313e-09
6.37863e-08
-1.93334e-09
4.53379e-09
6.68979e-08
-2.18164e-09
5.97761e-09
6.91204e-08
-2.4297e-09
7.37184e-09
7.06485e-08
-2.6796e-09
8.68331e-09
7.16329e-08
-2.93729e-09
9.88493e-09
7.2186e-08
-3.20125e-09
1.09571e-08
7.23964e-08
-3.47538e-09
1.18861e-08
7.23308e-08
-3.7556e-09
1.26586e-08
7.20435e-08
-4.04359e-09
1.32622e-08
7.15753e-08
-4.33424e-09
1.3691e-08
7.09611e-08
-4.62814e-09
1.39362e-08
7.02272e-08
-4.91982e-09
1.39936e-08
6.93964e-08
-5.20942e-09
1.38548e-08
6.84857e-08
-5.49147e-09
1.35224e-08
6.75099e-08
-5.76592e-09
1.29952e-08
6.64788e-08
-6.02752e-09
1.227e-08
6.53997e-08
-6.27618e-09
1.13573e-08
6.42749e-08
-6.507e-09
1.0264e-08
6.31029e-08
-6.71992e-09
9.00747e-09
6.18752e-08
-6.91047e-09
7.60521e-09
6.05771e-08
-7.07854e-09
6.08714e-09
5.91837e-08
-7.2199e-09
4.49036e-09
5.76578e-08
-7.33431e-09
2.86258e-09
5.59453e-08
-7.41755e-09
1.27032e-09
5.39698e-08
-7.46841e-09
-2.03507e-10
5.16256e-08
-7.4803e-09
-1.45317e-09
4.87666e-08
-7.44777e-09
-2.3319e-09
4.51963e-08
-7.3682e-09
-2.62343e-09
4.06432e-08
-7.26579e-09
-2.0679e-09
3.47561e-08
-7.11864e-09
2.20849e-08
-6.34358e-09
-7.4173e-10
2.90553e-08
9.65795e-10
-4.40028e-10
4.55013e-08
2.61924e-10
4.14818e-10
5.31016e-08
-1.89856e-10
1.56599e-09
5.88462e-08
-4.73088e-10
2.86176e-09
6.31733e-08
-6.84661e-10
4.22772e-09
6.64169e-08
-8.82385e-10
5.59963e-09
6.88267e-08
-1.07949e-09
6.93787e-09
7.05921e-08
-1.28211e-09
8.20754e-09
7.18541e-08
-1.49009e-09
9.37814e-09
7.27217e-08
-1.70739e-09
1.04321e-08
7.32758e-08
-1.93099e-09
1.13446e-08
7.35799e-08
-2.16282e-09
1.21046e-08
7.36817e-08
-2.39888e-09
1.27017e-08
7.36194e-08
-2.64004e-09
1.31234e-08
7.34214e-08
-2.8819e-09
1.3364e-08
7.31114e-08
-3.12475e-09
1.34178e-08
7.27063e-08
-3.36406e-09
1.32832e-08
7.22203e-08
-3.59992e-09
1.29591e-08
7.16622e-08
-3.82791e-09
1.24474e-08
7.10386e-08
-4.04807e-09
1.17528e-08
7.0351e-08
-4.25621e-09
1.08829e-08
6.95975e-08
-4.45239e-09
9.84749e-09
6.87702e-08
-4.63273e-09
8.66506e-09
6.78557e-08
-4.7974e-09
7.3535e-09
6.68313e-08
-4.94281e-09
5.94095e-09
6.56646e-08
-5.06917e-09
4.4646e-09
6.43082e-08
-5.17316e-09
2.969e-09
6.26966e-08
-5.25492e-09
1.50882e-09
6.07389e-08
-5.31085e-09
1.64688e-10
5.83119e-08
-5.33927e-09
-9.83594e-10
5.52465e-08
-5.33375e-09
-1.80602e-09
5.13171e-08
-5.2975e-09
-2.12227e-09
4.62141e-08
-5.25354e-09
-1.70519e-09
3.95323e-08
-5.19288e-09
2.50434e-08
-4.66429e-09
-4.87629e-10
2.84377e-08
1.10554e-09
-3.11614e-10
4.47253e-08
5.98681e-10
2.4705e-10
5.22799e-08
2.64677e-10
1.00662e-09
5.80277e-08
5.80652e-11
1.86976e-09
6.24069e-08
-9.77064e-11
2.783e-09
6.57452e-08
-2.41426e-10
3.7097e-09
6.82896e-08
-3.89059e-10
4.61772e-09
7.02232e-08
-5.40146e-10
5.4846e-09
7.16848e-08
-6.96971e-10
6.2871e-09
7.27773e-08
-8.57945e-10
7.00753e-09
7.358e-08
-1.02589e-09
7.63478e-09
7.41518e-08
-1.19781e-09
8.15313e-09
7.45381e-08
-1.37461e-09
8.55119e-09
7.47719e-08
-1.55302e-09
8.82783e-09
7.48799e-08
-1.73357e-09
8.97172e-09
7.48806e-08
-1.91279e-09
8.97945e-09
7.4789e-08
-2.09108e-09
8.85091e-09
7.46143e-08
-2.26494e-09
8.5839e-09
7.43631e-08
-2.43469e-09
8.18232e-09
7.40369e-08
-2.59695e-09
7.65115e-09
7.36347e-08
-2.75208e-09
6.99568e-09
7.31494e-08
-2.89691e-09
6.22691e-09
7.25699e-08
-3.03187e-09
5.36012e-09
7.18773e-08
-3.15402e-09
4.40952e-09
7.10446e-08
-3.26387e-09
3.40251e-09
7.00327e-08
-3.35872e-09
2.35963e-09
6.87881e-08
-3.43913e-09
1.32301e-09
6.72372e-08
-3.50257e-09
3.30209e-10
6.52791e-08
-3.54934e-09
-5.5956e-10
6.27786e-08
-3.57579e-09
-1.28596e-09
5.95514e-08
-3.58019e-09
-1.75712e-09
5.53519e-08
-3.56313e-09
-1.84189e-09
4.98453e-08
-3.54616e-09
-1.38253e-09
4.25913e-08
-3.51877e-09
2.68168e-08
-3.1554e-09
-3.88235e-10
2.76954e-08
1.12981e-09
-4.02871e-10
4.39298e-08
8.11606e-10
-1.93011e-10
5.14706e-08
5.99783e-10
1.33514e-10
5.72279e-08
4.7053e-10
5.30688e-10
6.16404e-08
3.7113e-10
9.64814e-10
6.50367e-08
2.74346e-10
1.41969e-09
6.76605e-08
1.75365e-10
1.87562e-09
6.96951e-08
7.13101e-11
2.31867e-09
7.12759e-08
-3.42344e-11
2.73385e-09
7.25058e-08
-1.43999e-10
3.1104e-09
7.34599e-08
-2.55385e-10
3.43651e-09
7.41962e-08
-3.71662e-10
3.70704e-09
7.47564e-08
-4.89834e-10
3.91824e-09
7.51733e-08
-6.10537e-10
4.05768e-09
7.54702e-08
-7.30815e-10
4.12577e-09
7.56646e-08
-8.51279e-10
4.1156e-09
7.57675e-08
-9.69308e-10
4.02976e-09
7.5787e-08
-1.08552e-09
3.86352e-09
7.57257e-08
-1.19733e-09
3.62139e-09
7.55839e-08
-1.3054e-09
3.30819e-09
7.53565e-08
-1.40723e-09
2.92368e-09
7.50352e-08
-1.50354e-09
2.48234e-09
7.46049e-08
-1.592e-09
1.98997e-09
7.40444e-08
-1.6734e-09
1.45657e-09
7.33228e-08
-1.74558e-09
8.99403e-10
7.23983e-08
-1.80943e-09
3.4079e-10
7.12128e-08
-1.86295e-09
-2.05283e-10
6.96883e-08
-1.90711e-09
-7.04214e-10
6.77185e-08
-1.93993e-09
-1.12543e-09
6.51617e-08
-1.9617e-09
-1.42917e-09
6.18252e-08
-1.96936e-09
-1.5648e-09
5.74534e-08
-1.96644e-09
-1.45088e-09
5.16979e-08
-1.96634e-09
-9.97059e-10
4.40983e-08
-1.96182e-09
2.75619e-08
-1.74085e-09
-4.81833e-10
2.69342e-08
1.2409e-09
-7.3767e-10
4.30743e-08
1.11332e-09
-8.56989e-10
5.05749e-08
1.01546e-09
-8.99029e-10
5.63096e-08
9.59255e-10
-8.86059e-10
6.07172e-08
9.1049e-10
-8.31543e-10
6.41242e-08
8.59494e-10
-7.49244e-10
6.67738e-08
8.02881e-10
-6.43189e-10
6.8847e-08
7.42892e-10
-5.24014e-10
7.04792e-08
6.78693e-10
-4.01629e-10
7.17705e-08
6.12179e-10
-2.79282e-10
7.27964e-08
5.42236e-10
-1.66833e-10
7.36118e-08
4.71461e-10
-6.7648e-11
7.42586e-08
3.98954e-10
1.24028e-11
7.47665e-08
3.26944e-10
7.06211e-11
7.51583e-08
2.53715e-10
1.0581e-10
7.54489e-08
1.81434e-10
1.13262e-10
7.56493e-08
1.09071e-10
9.83508e-11
7.57649e-08
3.93203e-11
5.27057e-11
7.5798e-08
-2.83558e-11
-1.75261e-11
7.57464e-08
-9.25423e-11
-1.11195e-10
7.56045e-08
-1.53177e-10
-2.27989e-10
7.53616e-08
-2.09879e-10
-3.60876e-10
7.50019e-08
-2.63321e-10
-5.07258e-10
7.4502e-08
-3.11665e-10
-6.59863e-10
7.38305e-08
-3.55991e-10
-8.08461e-10
7.29433e-08
-3.94719e-10
-9.49846e-10
7.17815e-08
-4.29109e-10
-1.06712e-09
7.02652e-08
-4.57824e-10
-1.15437e-09
6.82872e-08
-4.82286e-10
-1.19491e-09
6.57036e-08
-5.01106e-10
-1.17384e-09
6.23209e-08
-5.15485e-10
-1.07561e-09
5.7881e-08
-5.26768e-10
-8.65673e-10
5.20346e-08
-5.47476e-10
-5.12484e-10
4.43174e-08
-5.70024e-10
2.75411e-08
-4.9311e-10
-6.50329e-10
2.61658e-08
1.41816e-09
-1.11489e-09
4.20826e-08
1.45695e-09
-1.47473e-09
4.94796e-08
1.45518e-09
-1.76202e-09
5.5139e-08
1.45774e-09
-1.98939e-09
5.94928e-08
1.45194e-09
-2.16642e-09
6.28643e-08
1.43621e-09
-2.29795e-09
6.54921e-08
1.41377e-09
-2.39104e-09
6.75558e-08
1.38527e-09
-2.45334e-09
6.91874e-08
1.35348e-09
-2.48899e-09
7.04868e-08
1.31805e-09
-2.4996e-09
7.15268e-08
1.28106e-09
-2.49094e-09
7.23625e-08
1.24179e-09
-2.46984e-09
7.30337e-08
1.20206e-09
-2.43369e-09
7.35704e-08
1.16095e-09
-2.38963e-09
7.39923e-08
1.1207e-09
-2.33498e-09
7.43151e-08
1.08027e-09
-2.2742e-09
7.45474e-08
1.0413e-09
-2.20647e-09
7.46953e-08
1.00278e-09
-2.13428e-09
7.47593e-08
9.66305e-10
-2.05813e-09
7.47375e-08
9.30815e-10
-1.97442e-09
7.46228e-08
8.97818e-10
-1.88374e-09
7.44047e-08
8.6616e-10
-1.78459e-09
7.40662e-08
8.37246e-10
-1.67716e-09
7.35847e-08
8.0983e-10
-1.56061e-09
7.29274e-08
7.85167e-10
-1.42908e-09
7.20515e-08
7.61864e-10
-1.28662e-09
7.08978e-08
7.4094e-10
-1.13151e-09
6.93881e-08
7.20693e-10
-9.60343e-10
6.74161e-08
7.01731e-10
-7.80731e-10
6.48412e-08
6.81915e-10
-5.94545e-10
6.14727e-08
6.61245e-10
-4.05021e-10
5.70578e-08
6.34876e-10
-2.20087e-10
5.1254e-08
5.94252e-10
-4.72003e-11
4.36061e-08
5.39971e-10
2.70059e-08
4.87243e-10
-7.61825e-10
2.54307e-08
1.49609e-09
-1.33667e-09
4.101e-08
1.64771e-09
-1.81449e-09
4.82514e-08
1.70715e-09
-2.21852e-09
5.37934e-08
1.74849e-09
-2.55411e-09
5.80591e-08
1.76936e-09
-2.83027e-09
6.13629e-08
1.7775e-09
-3.05385e-09
6.39395e-08
1.77594e-09
-3.23069e-09
6.59634e-08
1.7686e-09
-3.36257e-09
6.7565e-08
1.75628e-09
-3.45815e-09
6.88404e-08
1.74144e-09
-3.5181e-09
6.98624e-08
1.72391e-09
-3.54225e-09
7.06834e-08
1.70555e-09
-3.54133e-09
7.13434e-08
1.68574e-09
-3.50421e-09
7.18704e-08
1.6661e-09
-3.44459e-09
7.22854e-08
1.64582e-09
-3.35776e-09
7.26021e-08
1.62635e-09
-3.24752e-09
7.28301e-08
1.60677e-09
-3.11432e-09
7.29736e-08
1.58843e-09
-2.95894e-09
7.30342e-08
1.5703e-09
-2.78333e-09
7.30084e-08
1.55364e-09
-2.58875e-09
7.28903e-08
1.53733e-09
-2.37426e-09
7.26682e-08
1.52251e-09
-2.14113e-09
7.23266e-08
1.50797e-09
-1.89543e-09
7.18418e-08
1.49472e-09
-1.63155e-09
7.11834e-08
1.4814e-09
-1.35583e-09
7.03082e-08
1.46883e-09
-1.07426e-09
6.91598e-08
1.45538e-09
-7.89681e-10
6.76615e-08
1.44146e-09
-5.07706e-10
6.57113e-08
1.42488e-09
-2.45131e-10
6.3172e-08
1.40525e-09
-1.2619e-11
5.98606e-08
1.37925e-09
1.70725e-10
5.55315e-08
1.34374e-09
2.81309e-10
4.98555e-08
1.28826e-09
2.82544e-10
4.2392e-08
1.21161e-09
2.62218e-08
1.06711e-09
-7.10373e-10
2.47895e-08
1.35122e-09
-1.26021e-09
4.00226e-08
1.53953e-09
-1.73573e-09
4.71033e-08
1.62172e-09
-2.14151e-09
5.25235e-08
1.6752e-09
-2.48203e-09
5.6695e-08
1.70617e-09
-2.76844e-09
5.99253e-08
1.72276e-09
-3.00252e-09
6.24427e-08
1.73074e-09
-3.18941e-09
6.44185e-08
1.73204e-09
-3.33368e-09
6.59791e-08
1.72959e-09
-3.43605e-09
6.722e-08
1.72384e-09
-3.50059e-09
6.82107e-08
1.71673e-09
-3.53024e-09
6.90042e-08
1.708e-09
-3.5233e-09
6.96383e-08
1.69915e-09
-3.48487e-09
7.01418e-08
1.6896e-09
-3.41468e-09
7.0534e-08
1.68064e-09
-3.31321e-09
7.08297e-08
1.67151e-09
-3.18329e-09
7.1037e-08
1.66337e-09
-3.02591e-09
7.11614e-08
1.65534e-09
-2.84425e-09
7.12031e-08
1.64848e-09
-2.63809e-09
7.11602e-08
1.6418e-09
-2.40854e-09
7.10256e-08
1.63625e-09
-2.15944e-09
7.07891e-08
1.63074e-09
-1.89515e-09
7.04343e-08
1.6261e-09
-1.61218e-09
6.99397e-08
1.62113e-09
-1.31957e-09
6.92742e-08
1.6165e-09
-1.02067e-09
6.83977e-08
1.61081e-09
-7.18192e-10
6.72542e-08
1.60445e-09
-4.23501e-10
6.57708e-08
1.59563e-09
-1.45817e-10
6.38481e-08
1.58415e-09
1.05673e-10
6.13547e-08
1.56734e-09
3.0848e-10
5.81132e-08
1.54372e-09
4.44484e-10
5.38877e-08
1.50809e-09
4.86934e-10
4.83606e-08
1.45317e-09
3.95443e-10
4.11082e-08
1.37343e-09
2.54178e-08
1.20071e-09
-5.03658e-10
2.43418e-08
9.53505e-10
-9.26269e-10
3.93358e-08
1.10747e-09
-1.30416e-09
4.63059e-08
1.17561e-09
-1.64122e-09
5.16406e-08
1.21913e-09
-1.93292e-09
5.57452e-08
1.24316e-09
-2.1859e-09
5.89207e-08
1.25651e-09
-2.39728e-09
6.13928e-08
1.26239e-09
-2.57178e-09
6.33289e-08
1.26389e-09
-2.71037e-09
6.48548e-08
1.26184e-09
-2.81261e-09
6.60634e-08
1.25818e-09
-2.87897e-09
6.70247e-08
1.25296e-09
-2.91163e-09
6.77896e-08
1.24758e-09
-2.91264e-09
6.83969e-08
1.24171e-09
-2.8818e-09
6.88739e-08
1.23649e-09
-2.81932e-09
6.92413e-08
1.23139e-09
-2.73068e-09
6.95124e-08
1.22739e-09
-2.61359e-09
6.96966e-08
1.22384e-09
-2.47267e-09
6.97983e-08
1.22163e-09
-2.30901e-09
6.98193e-08
1.21996e-09
-2.12472e-09
6.97562e-08
1.21962e-09
-1.92298e-09
6.96036e-08
1.21972e-09
-1.70392e-09
6.93505e-08
1.22092e-09
-1.47552e-09
6.8982e-08
1.22224e-09
-1.23336e-09
6.84759e-08
1.22423e-09
-9.9082e-10
6.78031e-08
1.22575e-09
-7.42439e-10
6.69233e-08
1.22719e-09
-4.99256e-10
6.57833e-08
1.22723e-09
-2.65794e-10
6.43108e-08
1.2259e-09
-4.91687e-11
6.24102e-08
1.22143e-09
1.41267e-10
5.99524e-08
1.21318e-09
2.88828e-10
5.67662e-08
1.19834e-09
3.81293e-10
5.26207e-08
1.17446e-09
3.98921e-10
4.72087e-08
1.13477e-09
3.10274e-10
4.01172e-08
1.07636e-09
2.47922e-08
9.38569e-10
-2.07789e-10
2.41568e-08
3.92815e-10
-4.37639e-10
3.91024e-08
4.63004e-10
-6.74385e-10
4.60484e-08
4.94549e-10
-9.09407e-10
5.13624e-08
5.12196e-10
-1.12866e-09
5.54472e-08
5.19402e-10
-1.33451e-09
5.86041e-08
5.20332e-10
-1.51579e-09
6.10572e-08
5.17847e-10
-1.67371e-09
6.29745e-08
5.12637e-10
-1.80702e-09
6.44806e-08
5.06246e-10
-1.91015e-09
6.56695e-08
4.98845e-10
-1.98758e-09
6.66098e-08
4.91734e-10
-2.03731e-09
6.7354e-08
4.84816e-10
-2.0586e-09
6.79397e-08
4.7873e-10
-2.0525e-09
6.83957e-08
4.73138e-10
-2.02201e-09
6.87415e-08
4.68957e-10
-1.96886e-09
6.89921e-08
4.65754e-10
-1.89093e-09
6.91559e-08
4.6424e-10
-1.79457e-09
6.92386e-08
4.63881e-10
-1.68249e-09
6.92409e-08
4.65322e-10
-1.55538e-09
6.9161e-08
4.67902e-10
-1.41497e-09
6.89923e-08
4.72159e-10
-1.26795e-09
6.87252e-08
4.77321e-10
-1.11229e-09
6.83438e-08
4.83825e-10
-9.55009e-10
6.78274e-08
4.90804e-10
-7.98366e-10
6.71461e-08
4.98582e-10
-6.40254e-10
6.62608e-08
5.06205e-10
-4.89286e-10
6.5118e-08
5.13859e-10
-3.46327e-10
6.36471e-08
5.2043e-10
-2.14094e-10
6.17525e-08
5.25892e-10
-9.7006e-11
5.93077e-08
5.28814e-10
-1.68576e-12
5.61419e-08
5.28669e-10
6.65157e-11
5.20283e-08
5.23257e-10
1.03566e-10
4.66618e-08
5.10508e-10
9.54687e-11
3.96349e-08
4.89313e-10
2.44566e-08
4.31971e-10
8.10234e-11
2.42632e-08
-1.872e-10
3.52583e-11
3.93605e-08
-2.13085e-10
-6.53816e-11
4.63748e-08
-2.24876e-10
-2.03537e-10
5.17364e-08
-2.36116e-10
-3.62069e-10
5.58535e-08
-2.48913e-10
-5.24768e-10
5.90301e-08
-2.61944e-10
-6.87773e-10
6.14938e-08
-2.75377e-10
-8.37014e-10
6.34141e-08
-2.88581e-10
-9.73601e-10
6.49179e-08
-3.01788e-10
-1.08935e-09
6.60996e-08
-3.14312e-10
-1.18299e-09
6.70301e-08
-3.26432e-10
-1.25372e-09
6.77618e-08
-3.37445e-10
-1.29997e-09
6.8334e-08
-3.47208e-10
-1.32439e-09
6.87749e-08
-3.55026e-10
-1.32701e-09
6.91058e-08
-3.61227e-10
-1.31022e-09
6.93408e-08
-3.65221e-10
-1.27707e-09
6.94898e-08
-3.67318e-10
-1.22934e-09
6.95577e-08
-3.67034e-10
-1.17025e-09
6.95464e-08
-3.64824e-10
-1.10188e-09
6.94533e-08
-3.60276e-10
-1.02773e-09
6.92727e-08
-3.53954e-10
-9.51959e-10
6.8994e-08
-3.45538e-10
-8.74214e-10
6.86024e-08
-3.35675e-10
-7.98393e-10
6.80759e-08
-3.24126e-10
-7.27667e-10
6.73854e-08
-3.11591e-10
-6.58359e-10
6.64906e-08
-2.97874e-10
-5.9535e-10
6.53386e-08
-2.83684e-10
-5.36873e-10
6.38571e-08
-2.68806e-10
-4.80316e-10
6.19511e-08
-2.53904e-10
-4.27074e-10
5.94921e-08
-2.38675e-10
-3.69064e-10
5.63092e-08
-2.23665e-10
-3.08317e-10
5.21734e-08
-2.08223e-10
-2.30577e-10
4.67782e-08
-1.9197e-10
-1.38142e-10
3.97129e-08
-1.70874e-10
2.44532e-08
-1.34753e-10
2.90402e-10
2.46171e-08
-6.44165e-10
3.84298e-10
4.00178e-08
-7.50302e-10
3.85029e-10
4.71701e-08
-7.98245e-10
3.24472e-10
5.26326e-08
-8.34467e-10
2.20507e-10
5.68212e-08
-8.64067e-10
9.21558e-11
6.00483e-08
-8.89674e-10
-4.81956e-11
6.25455e-08
-9.12295e-10
-1.87678e-10
6.44871e-08
-9.32931e-10
-3.21773e-10
6.60024e-08
-9.51658e-10
-4.40561e-10
6.71887e-08
-9.68888e-10
-5.45123e-10
6.81183e-08
-9.84305e-10
-6.30178e-10
6.88456e-08
-9.9811e-10
-6.9734e-10
6.94103e-08
-1.00986e-09
-7.47281e-10
6.98426e-08
-1.01967e-09
-7.75839e-10
7.01635e-08
-1.02703e-09
-7.91725e-10
7.03884e-08
-1.03212e-09
-7.95088e-10
7.05268e-08
-1.0345e-09
-7.86961e-10
7.05847e-08
-1.03443e-09
-7.72563e-10
7.05633e-08
-1.03158e-09
-7.54453e-10
7.0461e-08
-1.02629e-09
-7.34622e-10
7.02711e-08
-1.01835e-09
-7.15588e-10
6.99838e-08
-1.00819e-09
-7.01495e-10
6.95831e-08
-9.95691e-10
-6.91181e-10
6.90474e-08
-9.81341e-10
-6.87649e-10
6.83461e-08
-9.65036e-10
-6.88023e-10
6.74391e-08
-9.47267e-10
-6.93927e-10
6.62713e-08
-9.27858e-10
-6.99147e-10
6.47701e-08
-9.07141e-10
-7.00802e-10
6.28374e-08
-8.84668e-10
-6.91793e-10
6.03433e-08
-8.60346e-10
-6.62503e-10
5.71126e-08
-8.33124e-10
-6.00166e-10
5.29128e-08
-8.01654e-10
-4.90085e-10
4.74304e-08
-7.62041e-10
-3.16197e-10
4.02478e-08
-7.07715e-10
2.47312e-08
-5.95204e-10
3.79863e-10
2.51254e-08
-8.88706e-10
5.39785e-10
4.08952e-08
-1.03664e-09
5.98766e-10
4.82163e-08
-1.10406e-09
5.80427e-10
5.38027e-08
-1.15349e-09
5.12573e-10
5.80816e-08
-1.19234e-09
4.12334e-10
6.13733e-08
-1.22456e-09
2.94457e-10
6.3916e-08
-1.25253e-09
1.72519e-10
6.58883e-08
-1.27725e-09
4.90618e-11
6.74236e-08
-1.2996e-09
-6.29493e-11
6.86215e-08
-1.31968e-09
-1.63679e-10
6.95569e-08
-1.3378e-09
-2.49831e-10
7.02853e-08
-1.35369e-09
-3.20216e-10
7.08483e-08
-1.36743e-09
-3.75609e-10
7.12764e-08
-1.37865e-09
-4.16618e-10
7.1592e-08
-1.3874e-09
-4.4504e-10
7.18105e-08
-1.39331e-09
-4.64581e-10
7.19425e-08
-1.39651e-09
-4.76522e-10
7.19937e-08
-1.3967e-09
-4.83874e-10
7.19659e-08
-1.3941e-09
-4.93528e-10
7.1857e-08
-1.38851e-09
-5.02082e-10
7.16609e-08
-1.38024e-09
-5.14238e-10
7.13668e-08
-1.3692e-09
-5.36233e-10
7.09588e-08
-1.35578e-09
-5.62428e-10
7.04144e-08
-1.33992e-09
-5.96694e-10
6.97027e-08
-1.32202e-09
-6.3816e-10
6.87818e-08
-1.30201e-09
-6.81052e-10
6.75958e-08
-1.28016e-09
-7.25065e-10
6.60695e-08
-1.25616e-09
-7.60408e-10
6.4103e-08
-1.22988e-09
-7.7964e-10
6.15625e-08
-1.20044e-09
-7.68877e-10
5.8269e-08
-1.16683e-09
-7.13808e-10
5.39838e-08
-1.12644e-09
-5.93874e-10
4.83858e-08
-1.07446e-09
-3.90361e-10
4.10474e-08
-1.00247e-09
2.51904e-08
-8.50172e-10
3.50458e-10
2.56751e-08
-8.98825e-10
5.00382e-10
4.17883e-08
-1.04428e-09
5.60932e-10
4.92672e-08
-1.11141e-09
5.53952e-10
5.49706e-08
-1.16128e-09
4.99703e-10
5.93348e-08
-1.2002e-09
4.19456e-10
6.26884e-08
-1.2326e-09
3.20322e-10
6.52747e-08
-1.26063e-09
2.16923e-10
6.72773e-08
-1.28557e-09
1.15273e-10
6.88324e-08
-1.30802e-09
2.35336e-11
7.00429e-08
-1.3284e-09
-5.81083e-11
7.0985e-08
-1.34668e-09
-1.25519e-10
7.17163e-08
-1.36294e-09
-1.80654e-10
7.22791e-08
-1.3769e-09
-2.20165e-10
7.27053e-08
-1.38853e-09
-2.48722e-10
7.30176e-08
-1.39754e-09
-2.66081e-10
7.32324e-08
-1.4039e-09
-2.76184e-10
7.33601e-08
-1.40736e-09
-2.83003e-10
7.34072e-08
-1.408e-09
-2.84911e-10
7.33752e-08
-1.40565e-09
-2.89574e-10
7.32624e-08
-1.40049e-09
-3.00499e-10
7.30621e-08
-1.39246e-09
-3.14012e-10
7.27636e-08
-1.38182e-09
-3.35421e-10
7.23505e-08
-1.36861e-09
-3.69981e-10
7.17996e-08
-1.35312e-09
-4.09724e-10
7.10792e-08
-1.33541e-09
-4.58758e-10
7.01465e-08
-1.31575e-09
-5.12833e-10
6.89438e-08
-1.29407e-09
-5.6832e-10
6.73946e-08
-1.27039e-09
-6.15199e-10
6.5396e-08
-1.24427e-09
-6.50238e-10
6.28115e-08
-1.21514e-09
-6.57795e-10
5.94574e-08
-1.18167e-09
-6.20911e-10
5.50902e-08
-1.1416e-09
-5.27253e-10
4.93807e-08
-1.0899e-09
-3.51959e-10
4.18927e-08
-1.01958e-09
2.57095e-08
-8.71084e-10
2.30678e-10
2.61552e-08
-7.12928e-10
3.22693e-10
4.25163e-08
-8.17558e-10
3.47571e-10
5.01096e-08
-8.6774e-10
3.27745e-10
5.5898e-08
-9.06723e-10
2.75981e-10
6.03242e-08
-9.38031e-10
2.05786e-10
6.37225e-08
-9.64696e-10
1.29527e-10
6.63404e-08
-9.88375e-10
5.07028e-11
6.83645e-08
-1.00982e-09
-1.94107e-11
6.99338e-08
-1.02955e-09
-8.26361e-11
7.11526e-08
-1.04764e-09
-1.32512e-10
7.2099e-08
-1.06415e-09
-1.69919e-10
7.28316e-08
-1.0789e-09
-1.92498e-10
7.33939e-08
-1.09176e-09
-2.0256e-10
7.38182e-08
-1.10249e-09
-2.0237e-10
7.41279e-08
-1.11096e-09
-1.92939e-10
7.43397e-08
-1.11695e-09
-1.76191e-10
7.44647e-08
-1.12039e-09
-1.58477e-10
7.45089e-08
-1.12116e-09
-1.35852e-10
7.44746e-08
-1.11928e-09
-1.1956e-10
7.43594e-08
-1.11473e-09
-1.08332e-10
7.41571e-08
-1.10766e-09
-1.01389e-10
7.38565e-08
-1.09812e-09
-1.05259e-10
7.34408e-08
-1.08635e-09
-1.20381e-10
7.28864e-08
-1.07248e-09
-1.4562e-10
7.2161e-08
-1.05676e-09
-1.80276e-10
7.12208e-08
-1.03931e-09
-2.24482e-10
7.00072e-08
-1.02033e-09
-2.71281e-10
6.84422e-08
-9.99744e-10
-3.19225e-10
6.64211e-08
-9.77467e-10
-3.61025e-10
6.38049e-08
-9.52987e-10
-3.83629e-10
6.04069e-08
-9.25548e-10
-3.78971e-10
5.59796e-08
-8.9339e-10
-3.35503e-10
5.01887e-08
-8.53085e-10
-2.31954e-10
4.25913e-08
-8.00643e-10
2.61705e-08
-6.93829e-10
7.1246e-11
2.64868e-08
-4.03093e-10
7.0499e-11
4.296e-08
-4.42423e-10
3.88972e-11
5.06057e-08
-4.64792e-10
-1.15545e-11
5.6433e-08
-4.8572e-10
-7.00566e-11
6.08872e-08
-5.04253e-10
-1.31987e-10
6.4305e-08
-5.214e-10
-1.88379e-10
6.69359e-08
-5.3766e-10
-2.38972e-10
6.89679e-08
-5.5325e-10
-2.77863e-10
7.05412e-08
-5.68184e-10
-3.04561e-10
7.17613e-08
-5.8237e-10
-3.16335e-10
7.27069e-08
-5.95604e-10
-3.14116e-10
7.34375e-08
-6.07692e-10
-2.99376e-10
7.39968e-08
-6.18365e-10
-2.71782e-10
7.44179e-08
-6.27416e-10
-2.32432e-10
7.47243e-08
-6.3461e-10
-1.86339e-10
7.49331e-08
-6.39802e-10
-1.35479e-10
7.50555e-08
-6.42831e-10
-8.02163e-11
7.50978e-08
-6.43642e-10
-2.40539e-11
7.50621e-08
-6.42188e-10
2.54276e-11
7.49462e-08
-6.38524e-10
7.34329e-11
7.47438e-08
-6.32701e-10
1.1043e-10
7.44434e-08
-6.24881e-10
1.40871e-10
7.40281e-08
-6.15214e-10
1.54525e-10
7.3474e-08
-6.03945e-10
1.59093e-10
7.27484e-08
-5.91266e-10
1.48932e-10
7.1807e-08
-5.77453e-10
1.29173e-10
7.05907e-08
-5.627e-10
9.84316e-11
6.90205e-08
-5.47212e-10
6.10941e-11
6.69908e-08
-5.3107e-10
1.63585e-11
6.43617e-08
-5.14259e-10
-2.4717e-11
6.09449e-08
-4.96553e-10
-5.78313e-11
5.64909e-08
-4.77388e-10
-7.66187e-11
5.06632e-08
-4.55471e-10
-7.15804e-11
4.30167e-08
-4.31417e-10
2.64906e-08
-3.9045e-10
-8.97105e-11
2.66268e-08
-4.98778e-11
-1.85276e-10
4.30705e-08
-1.57558e-11
-2.75421e-10
5.07035e-08
-6.58001e-12
-3.57746e-10
5.6521e-08
-6.65003e-12
-4.26646e-10
6.09668e-08
-1.03815e-11
-4.83399e-10
6.4377e-08
-1.648e-11
-5.22409e-10
6.70006e-08
-2.41314e-11
-5.47914e-10
6.90254e-08
-3.28033e-11
-5.55162e-10
7.05916e-08
-4.20716e-11
-5.481e-10
7.18047e-08
-5.15414e-11
-5.22795e-10
7.27437e-08
-6.08423e-11
-4.85142e-10
7.34678e-08
-6.96437e-11
-4.30494e-10
7.40214e-08
-7.76303e-11
-3.66838e-10
7.44372e-08
-8.45353e-11
-2.90094e-10
7.47392e-08
-9.01217e-11
-2.06857e-10
7.49444e-08
-9.42081e-11
-1.19096e-10
7.50641e-08
-9.66514e-11
-2.90437e-11
7.51048e-08
-9.73692e-11
6.14066e-11
7.50685e-08
-9.63332e-11
1.48959e-10
7.49532e-08
-9.3569e-11
2.2802e-10
7.47522e-08
-8.91661e-11
3.01098e-10
7.44544e-08
-8.32531e-11
3.62196e-10
7.40425e-08
-7.60271e-11
4.12922e-10
7.34926e-08
-6.7715e-11
4.47344e-10
7.27718e-08
-5.8595e-11
4.68673e-10
7.18359e-08
-4.8965e-11
4.71305e-10
7.06254e-08
-3.91644e-11
4.59984e-10
6.90615e-08
-2.95466e-11
4.33899e-10
6.70387e-08
-2.0504e-11
3.90319e-10
6.44168e-08
-1.24301e-11
3.33857e-10
6.10081e-08
-6.01729e-12
2.62489e-10
5.65634e-08
-1.80817e-12
1.80931e-10
5.07469e-08
-9.64323e-13
8.93956e-11
4.31149e-08
-8.84433e-12
2.66229e-08
-4.15406e-11
-2.25911e-10
2.65749e-08
2.76865e-10
-4.0008e-10
4.28649e-08
3.80465e-10
-5.43779e-10
5.04282e-08
4.19226e-10
-6.52901e-10
5.61928e-08
4.38414e-10
-7.33207e-10
6.05979e-08
4.48391e-10
-7.84061e-10
6.3976e-08
4.52789e-10
-8.11356e-10
6.65739e-08
4.53404e-10
-8.15758e-10
6.85778e-08
4.51414e-10
-7.98738e-10
7.01267e-08
4.47646e-10
-7.61976e-10
7.13251e-08
4.42798e-10
-7.076e-10
7.22517e-08
4.37381e-10
-6.37249e-10
7.29654e-08
4.31851e-10
-5.52014e-10
7.35101e-08
4.26562e-10
-4.54831e-10
7.39185e-08
4.21829e-10
-3.48469e-10
7.42146e-08
4.17895e-10
-2.35947e-10
7.44154e-08
4.14964e-10
-1.15496e-10
7.45322e-08
4.13169e-10
4.15287e-12
7.45714e-08
4.12602e-10
1.23801e-10
7.45352e-08
4.13291e-10
2.41532e-10
7.44213e-08
4.15215e-10
3.51654e-10
7.42233e-08
4.18272e-10
4.52981e-10
7.39299e-08
4.22338e-10