/*--------------------------------*- C++ -*----------------------------------*\
| =========                 |                                                 |
| \\      /  F ield         | OpenFOAM: The Open Source CFD Toolbox           |
|  \\    /   O peration     | Version:  v2012                                 |
|   \\  /    A nd           | Website:  www.openfoam.com                      |
|    \\/     M anipulation  |                                                 |
\*---------------------------------------------------------------------------*/
FoamFile
{
    version     2.0;
    format      ascii;
    class       volVectorField;
    location    "94";
    object      U;
}
// * * * * * * * * * * * * * * * * * * * * * * * * * * * * * * * * * * * * * //

dimensions      [0 1 -1 0 0 0 0];


internalField   nonuniform List<vector> 
78750
(
(-6.97526e-07 -5.69667e-05 0.000122887)
(-5.78769e-07 -8.40223e-05 0.000215645)
(-3.08141e-06 -8.99725e-05 0.000263333)
(-7.84798e-06 -8.77428e-05 0.000296456)
(-1.54833e-05 -8.06379e-05 0.000318257)
(-2.56652e-05 -7.07123e-05 0.000331342)
(-3.78767e-05 -5.94648e-05 0.000337655)
(-5.15507e-05 -4.79107e-05 0.00033876)
(-6.62144e-05 -3.67795e-05 0.000335861)
(-8.13731e-05 -2.65233e-05 0.000329964)
(-9.6605e-05 -1.74742e-05 0.000321814)
(-0.000111517 -9.75695e-06 0.000312047)
(-0.000125763 -3.49336e-06 0.00030114)
(-0.000139031 1.33365e-06 0.000289531)
(-0.000151049 4.70347e-06 0.000277545)
(-0.000161584 6.69686e-06 0.000265501)
(-0.000170437 7.3351e-06 0.000253637)
(-0.000177438 6.72118e-06 0.000242197)
(-0.000182463 4.89283e-06 0.000231363)
(-0.0001854 1.95916e-06 0.000221325)
(-0.000186186 -2.03156e-06 0.000212214)
(-0.00018477 -6.96218e-06 0.000204166)
(-0.000181132 -1.2766e-05 0.000197246)
(-0.000175275 -1.93018e-05 0.000191506)
(-0.000167235 -2.64582e-05 0.000186907)
(-0.000157062 -3.40291e-05 0.000183359)
(-0.000144833 -4.18011e-05 0.000180642)
(-0.000130644 -4.94331e-05 0.000178426)
(-0.000114625 -5.6538e-05 0.000176205)
(-9.6942e-05 -6.25386e-05 0.000173252)
(-7.77254e-05 -6.67123e-05 0.000168502)
(-5.70487e-05 -6.80284e-05 0.000160458)
(-3.55822e-05 -6.51075e-05 0.000147024)
(-1.7717e-05 -5.6064e-05 0.000125197)
(-4.62959e-06 -3.27159e-05 7.60588e-05)
(-5.19677e-07 6.4745e-05 -0.000154375)
(-1.11408e-05 0.000140534 -0.000241839)
(-2.26603e-05 0.000183314 -0.000275595)
(-4.0102e-05 0.000218804 -0.000302984)
(-5.8957e-05 0.000246918 -0.000324698)
(-7.78586e-05 0.000268141 -0.000341513)
(-9.61767e-05 0.000283511 -0.000354661)
(-0.000113505 0.000293561 -0.000365385)
(-0.000129451 0.00029919 -0.000374122)
(-0.000143785 0.000300722 -0.000381422)
(-0.000156309 0.000298884 -0.000387347)
(-0.000166952 0.000293855 -0.000392228)
(-0.000175606 0.000286262 -0.000395998)
(-0.000182309 0.000276163 -0.000398913)
(-0.000187019 0.000264116 -0.000400865)
(-0.000189798 0.000250179 -0.000402049)
(-0.000190669 0.000234833 -0.000402351)
(-0.000189725 0.000218118 -0.000401944)
(-0.000187028 0.000200468 -0.00040071)
(-0.000182692 0.000181917 -0.000398798)
(-0.000176811 0.000162861 -0.000396097)
(-0.000169521 0.000143328 -0.000392732)
(-0.000160936 0.000123677 -0.000388578)
(-0.000151211 0.000103939 -0.000383708)
(-0.000140462 8.44459e-05 -0.000377948)
(-0.000128857 6.51817e-05 -0.000371279)
(-0.00011651 4.646e-05 -0.000363388)
(-0.000103584 2.83239e-05 -0.000354002)
(-9.02125e-05 1.10723e-05 -0.000342481)
(-7.65265e-05 -5.22979e-06 -0.000327985)
(-6.25423e-05 -2.02256e-05 -0.000309063)
(-4.80292e-05 -3.35966e-05 -0.000283229)
(-3.2856e-05 -4.42407e-05 -0.000244813)
(-2.01439e-05 -4.95613e-05 -0.000187181)
(-1.1562e-05 -3.68938e-05 -6.98491e-05)
(1.22667e-06 0.000201971 -0.00013395)
(-4.58364e-06 0.000346169 -0.000222094)
(-9.21083e-06 0.000409862 -0.000257828)
(-1.70179e-05 0.000455501 -0.00028159)
(-2.54874e-05 0.00048707 -0.000298091)
(-3.38565e-05 0.000508021 -0.000309869)
(-4.1873e-05 0.000520363 -0.000318694)
(-4.93311e-05 0.000526097 -0.000325411)
(-5.60971e-05 0.000526233 -0.000330803)
(-6.20402e-05 0.000522034 -0.000335092)
(-6.71184e-05 0.000513995 -0.000338672)
(-7.12659e-05 0.000502991 -0.000341514)
(-7.45123e-05 0.000489257 -0.000343862)
(-7.68362e-05 0.000473462 -0.000345601)
(-7.82931e-05 0.000455713 -0.000346914)
(-7.88865e-05 0.000436565 -0.00034767)
(-7.87039e-05 0.00041612 -0.00034798)
(-7.77682e-05 0.000394864 -0.000347709)
(-7.61621e-05 0.000372829 -0.000346999)
(-7.39322e-05 0.000350449 -0.000345717)
(-7.11674e-05 0.000327748 -0.000343985)
(-6.7913e-05 0.00030511 -0.000341676)
(-6.42589e-05 0.000282553 -0.00033888)
(-6.02483e-05 0.000260408 -0.000335452)
(-5.59861e-05 0.000238613 -0.000331453)
(-5.15016e-05 0.00021746 -0.000326664)
(-4.68739e-05 0.000196899 -0.000320984)
(-4.21233e-05 0.000177121 -0.000314003)
(-3.73028e-05 0.000158006 -0.000305297)
(-3.24056e-05 0.000139636 -0.000293996)
(-2.74248e-05 0.000121764 -0.000278887)
(-2.21498e-05 0.0001043 -0.00025761)
(-1.62953e-05 8.6741e-05 -0.000226138)
(-1.04952e-05 6.87406e-05 -0.000179611)
(-7.45435e-06 3.75949e-05 -7.63389e-05)
(1.20052e-06 0.000278396 -3.62633e-05)
(-1.02038e-06 0.000459702 -0.000100298)
(-9.10243e-07 0.000540615 -0.000133529)
(-2.18366e-06 0.000598624 -0.000156489)
(-3.93668e-06 0.000639186 -0.000171736)
(-5.9486e-06 0.000666089 -0.000182868)
(-8.04422e-06 0.000682524 -0.000191611)
(-1.01613e-05 0.000690504 -0.000199034)
(-1.21786e-05 0.000691986 -0.00020551)
(-1.40556e-05 0.000688026 -0.000211522)
(-1.57139e-05 0.000679897 -0.00021711)
(-1.71502e-05 0.000668146 -0.000222524)
(-1.83192e-05 0.000653668 -0.000227657)
(-1.92461e-05 0.000636747 -0.000232657)
(-1.99102e-05 0.000618065 -0.000237364)
(-2.03556e-05 0.000597769 -0.000241883)
(-2.05776e-05 0.000576417 -0.00024604)
(-2.06273e-05 0.00055408 -0.000249921)
(-2.05099e-05 0.000531229 -0.000253352)
(-2.02774e-05 0.000507888 -0.000256412)
(-1.99394e-05 0.000484458 -0.000258931)
(-1.95506e-05 0.000460921 -0.00026098)
(-1.91081e-05 0.000437618 -0.000262383)
(-1.86746e-05 0.00041454 -0.000263147)
(-1.8242e-05 0.000391972 -0.000263061)
(-1.78329e-05 0.000369707 -0.000262155)
(-1.74249e-05 0.000347834 -0.000260178)
(-1.70162e-05 0.000326056 -0.000256989)
(-1.65331e-05 0.000304246 -0.000252138)
(-1.59203e-05 0.00028187 -0.000245159)
(-1.50266e-05 0.000258431 -0.000235138)
(-1.35897e-05 0.000232958 -0.000221022)
(-1.10862e-05 0.000204281 -0.00020092)
(-7.62405e-06 0.000170675 -0.000170651)
(-6.0018e-06 0.000103665 -8.90586e-05)
(-2.86696e-07 0.00031156 2.47698e-05)
(-1.70875e-06 0.000502877 -1.55661e-05)
(-1.24573e-07 0.000589287 -4.24993e-05)
(1.3226e-06 0.000652422 -6.1813e-05)
(2.8628e-06 0.000697455 -7.4614e-05)
(4.41663e-06 0.000728717 -8.40142e-05)
(5.92166e-06 0.000749037 -9.18517e-05)
(7.34847e-06 0.000760996 -9.8726e-05)
(8.66911e-06 0.000766128 -0.000105161)
(9.88387e-06 0.000766047 -0.000111274)
(1.09687e-05 0.000761572 -0.000117343)
(1.19294e-05 0.000753774 -0.000123307)
(1.27404e-05 0.000743082 -0.000129314)
(1.34095e-05 0.000730264 -0.000135222)
(1.39082e-05 0.000715536 -0.000141123)
(1.42433e-05 0.000699486 -0.00014685)
(1.43779e-05 0.000682213 -0.000152467)
(1.43217e-05 0.000664189 -0.000157803)
(1.40379e-05 0.000645442 -0.000162909)
(1.35351e-05 0.000626354 -0.00016762)
(1.27846e-05 0.000606891 -0.000171981)
(1.17971e-05 0.000587374 -0.000175824)
(1.05477e-05 0.000567734 -0.000179173)
(9.06506e-06 0.000548167 -0.000181868)
(7.34645e-06 0.000528474 -0.000183925)
(5.44127e-06 0.000508691 -0.000185175)
(3.37375e-06 0.000488448 -0.000185591)
(1.22488e-06 0.000467532 -0.000184947)
(-9.40516e-07 0.000445267 -0.000183089)
(-2.98917e-06 0.000421015 -0.000179594)
(-4.79161e-06 0.000393544 -0.000174053)
(-6.05119e-06 0.000361468 -0.000166031)
(-6.23402e-06 0.000322532 -0.000155157)
(-4.83192e-06 0.000273977 -0.000137806)
(-4.45849e-06 0.000171872 -7.80668e-05)
(-8.88993e-07 0.00032627 5.58496e-05)
(-1.84609e-06 0.000516384 3.21608e-05)
(-2.11343e-07 0.000603289 1.17836e-05)
(1.686e-06 0.000667649 -3.52552e-06)
(3.93844e-06 0.000714892 -1.37198e-05)
(6.33984e-06 0.000748761 -2.15557e-05)
(8.78015e-06 0.000772431 -2.83202e-05)
(1.11624e-05 0.000787939 -3.46436e-05)
(1.34354e-05 0.000797208 -4.06546e-05)
(1.55393e-05 0.000801337 -4.6622e-05)
(1.74474e-05 0.00080155 -5.25523e-05)
(1.91199e-05 0.000798428 -5.85835e-05)
(2.05482e-05 0.0007928 -6.4622e-05)
(2.1697e-05 0.000784961 -7.07436e-05)
(2.2566e-05 0.000775516 -7.68116e-05)
(2.31273e-05 0.000764597 -8.28755e-05)
(2.33861e-05 0.000752671 -8.87867e-05)
(2.33161e-05 0.000739773 -9.45808e-05)
(2.29276e-05 0.00072627 -0.000100109)
(2.22061e-05 0.000712129 -0.0001054)
(2.11642e-05 0.000697628 -0.000110312)
(1.97897e-05 0.00068266 -0.000114869)
(1.81154e-05 0.000667399 -0.000118935)
(1.6143e-05 0.000651632 -0.000122533)
(1.39191e-05 0.000635392 -0.000125526)
(1.14642e-05 0.000618308 -0.000127922)
(8.85176e-06 0.000600169 -0.000129572)
(6.13484e-06 0.000580311 -0.000130454)
(3.42203e-06 0.000558106 -0.000130355)
(8.15409e-07 0.00053236 -0.00012912)
(-1.52717e-06 0.000501711 -0.00012642)
(-3.37399e-06 0.000464041 -0.000122316)
(-4.21819e-06 0.000416676 -0.00011697)
(-3.5584e-06 0.000355836 -0.000107463)
(-3.44355e-06 0.000225528 -6.39858e-05)
(-9.57067e-07 0.00032648 6.31234e-05)
(-1.50241e-06 0.00051205 4.8935e-05)
(-1.42591e-07 0.000597483 3.37143e-05)
(1.57577e-06 0.00066175 2.2005e-05)
(3.64912e-06 0.000709751 1.40837e-05)
(5.89673e-06 0.000745413 7.94967e-06)
(8.20373e-06 0.000771403 2.49006e-06)
(1.04815e-05 0.000790041 -2.59147e-06)
(1.26698e-05 0.00080277 -7.59762e-06)
(1.47198e-05 0.000811 -1.25731e-05)
(1.65828e-05 0.00081549 -1.76265e-05)
(1.82322e-05 0.000817148 -2.27099e-05)
(1.96319e-05 0.000816355 -2.78979e-05)
(2.0771e-05 0.000813735 -3.30915e-05)
(2.16228e-05 0.000809457 -3.83358e-05)
(2.21803e-05 0.000803977 -4.35117e-05)
(2.24256e-05 0.00079734 -4.86515e-05)
(2.23614e-05 0.000789889 -5.36331e-05)
(2.19761e-05 0.000781587 -5.84825e-05)
(2.12801e-05 0.000772687 -6.30802e-05)
(2.0268e-05 0.000763076 -6.74503e-05)
(1.89618e-05 0.000752911 -7.14783e-05)
(1.73633e-05 0.000741982 -7.5188e-05)
(1.55083e-05 0.000730313 -7.847e-05)
(1.34136e-05 0.000717544 -8.13458e-05)
(1.11309e-05 0.000703489 -8.37076e-05)
(8.69997e-06 0.000687528 -8.55688e-05)
(6.20248e-06 0.000669117 -8.68119e-05)
(3.70735e-06 0.000647175 -8.74076e-05)
(1.33182e-06 0.000620535 -8.71581e-05)
(-8.11865e-07 0.000587293 -8.59711e-05)
(-2.51306e-06 0.000545177 -8.394e-05)
(-3.37041e-06 0.000490797 -8.15566e-05)
(-2.94239e-06 0.000419902 -7.64787e-05)
(-2.75604e-06 0.000266393 -4.56634e-05)
(-7.45365e-07 0.000321278 5.79846e-05)
(-1.00538e-06 0.000503849 4.95523e-05)
(-1.32351e-07 0.000588425 3.89091e-05)
(9.94177e-07 0.000652524 3.05027e-05)
(2.36569e-06 0.000701219 2.478e-05)
(3.8671e-06 0.000738039 2.02045e-05)
(5.41633e-06 0.000765903 1.60945e-05)
(6.96107e-06 0.00078672 1.21419e-05)
(8.45226e-06 0.000802203 8.3161e-06)
(9.84998e-06 0.000813368 4.48746e-06)
(1.11306e-05 0.000821271 6.30271e-07)
(1.22602e-05 0.000826425 -3.30767e-06)
(1.32215e-05 0.000829508 -7.25653e-06)
(1.39892e-05 0.000830753 -1.12643e-05)
(1.45559e-05 0.000830624 -1.52408e-05)
(1.49084e-05 0.000829197 -1.9222e-05)
(1.50373e-05 0.000826802 -2.31127e-05)
(1.49359e-05 0.000823413 -2.6941e-05)
(1.46068e-05 0.000819265 -3.06124e-05)
(1.40458e-05 0.000814251 -3.41537e-05)
(1.32673e-05 0.000808516 -3.74728e-05)
(1.22708e-05 0.000801865 -4.05975e-05)
(1.10803e-05 0.000794328 -4.34395e-05)
(9.70642e-06 0.00078558 -4.60278e-05)
(8.18388e-06 0.000775476 -4.82768e-05)
(6.53764e-06 0.000763476 -5.02149e-05)
(4.81599e-06 0.00074914 -5.17566e-05)
(3.06307e-06 0.000731552 -5.29229e-05)
(1.35206e-06 0.000709756 -5.36059e-05)
(-2.49218e-07 0.00068217 -5.37702e-05)
(-1.6399e-06 0.000646917 -5.32793e-05)
(-2.6768e-06 0.000601226 -5.23404e-05)
(-3.0583e-06 0.00054157 -5.13136e-05)
(-2.54967e-06 0.00046304 -4.85864e-05)
(-2.14995e-06 0.000292393 -2.75612e-05)
(-6.70992e-07 0.000313614 4.96811e-05)
(-8.85397e-07 0.000495273 4.64329e-05)
(-5.24933e-07 0.000579585 4.02164e-05)
(-7.6211e-08 0.000643928 3.51183e-05)
(5.30665e-07 0.000693096 3.15201e-05)
(1.233e-06 0.000730874 2.8581e-05)
(1.98376e-06 0.00075987 2.58251e-05)
(2.75056e-06 0.00078226 2.31692e-05)
(3.50714e-06 0.000799438 2.05105e-05)
(4.23108e-06 0.000812688 1.78672e-05)
(4.89292e-06 0.000822726 1.51943e-05)
(5.48307e-06 0.000830348 1.25025e-05)
(5.98418e-06 0.000835898 9.74624e-06)
(6.39057e-06 0.000839878 6.99231e-06)
(6.68515e-06 0.000842421 4.22808e-06)
(6.85952e-06 0.000843867 1.52512e-06)
(6.90889e-06 0.000844217 -1.15349e-06)
(6.82991e-06 0.000843704 -3.7329e-06)
(6.6182e-06 0.00084224 -6.24745e-06)
(6.2777e-06 0.000839967 -8.62349e-06)
(5.81153e-06 0.000836714 -1.08947e-05)
(5.22753e-06 0.000832523 -1.29905e-05)
(4.53438e-06 0.000827112 -1.49459e-05)
(3.75138e-06 0.000820382 -1.66936e-05)
(2.88867e-06 0.000811877 -1.82699e-05)
(1.9732e-06 0.000801265 -1.96103e-05)
(1.03193e-06 0.00078779 -2.07517e-05)
(1.01579e-07 0.000770716 -2.16307e-05)
(-7.84021e-07 0.000748757 -2.22725e-05)
(-1.56847e-06 0.000720463 -2.25877e-05)
(-2.20086e-06 0.000683596 -2.25934e-05)
(-2.58373e-06 0.000635439 -2.23932e-05)
(-2.53956e-06 0.000572036 -2.23736e-05)
(-1.96024e-06 0.000488387 -2.14787e-05)
(-1.48351e-06 0.000306261 -9.55854e-06)
(-8.24682e-07 0.000305418 4.27314e-05)
(-1.18661e-06 0.00048651 4.50205e-05)
(-1.31427e-06 0.000570703 4.31332e-05)
(-1.47358e-06 0.000635024 4.11729e-05)
(-1.5123e-06 0.000684465 3.96578e-05)
(-1.45057e-06 0.000722587 3.82156e-05)
(-1.33264e-06 0.000752227 3.67436e-05)
(-1.17004e-06 0.000775305 3.51867e-05)
(-9.80233e-07 0.000793456 3.35992e-05)
(-7.74899e-07 0.000807691 3.19419e-05)
(-5.67729e-07 0.000818976 3.02654e-05)
(-3.67829e-07 0.000827808 2.85561e-05)
(-1.89142e-07 0.000834781 2.68756e-05)
(-4.05439e-08 0.000840117 2.51961e-05)
(7.72e-08 0.000844207 2.35326e-05)
(1.56439e-07 0.000847105 2.1858e-05)
(1.92576e-07 0.000849053 2.02375e-05)
(1.8708e-07 0.000849998 1.86361e-05)
(1.36234e-07 0.000850091 1.71131e-05)
(3.93758e-08 0.000849193 1.56325e-05)
(-9.8128e-08 0.000847366 1.42518e-05)
(-2.75713e-07 0.000844374 1.29354e-05)
(-4.84729e-07 0.000840166 1.17379e-05)
(-7.21483e-07 0.000834367 1.06186e-05)
(-9.72504e-07 0.000826744 9.62678e-06)
(-1.22795e-06 0.000816694 8.71739e-06)
(-1.47367e-06 0.000803673 7.93319e-06)
(-1.69403e-06 0.000786677 7.22261e-06)
(-1.86937e-06 0.000764614 6.62235e-06)
(-1.98401e-06 0.000735767 6.08123e-06)
(-2.01012e-06 0.000698068 5.61097e-06)
(-1.91614e-06 0.000648523 5.00222e-06)
(-1.61954e-06 0.000583301 3.96009e-06)
(-1.09105e-06 0.000497119 2.86781e-06)
(-7.11779e-07 0.000309708 6.16935e-06)
(-1.06064e-06 0.000296909 3.79194e-05)
(-1.62536e-06 0.000476337 4.54525e-05)
(-2.11136e-06 0.00055972 4.7211e-05)
(-2.70381e-06 0.000623558 4.792e-05)
(-3.1552e-06 0.000672618 4.81358e-05)
(-3.49306e-06 0.000710635 4.79944e-05)
(-3.74409e-06 0.000740209 4.7552e-05)
(-3.93014e-06 0.000763461 4.69288e-05)
(-4.05592e-06 0.000781785 4.61548e-05)
(-4.13781e-06 0.000796405 4.5308e-05)
(-4.17284e-06 0.000808044 4.43804e-05)
(-4.17455e-06 0.000817429 4.34295e-05)
(-4.14742e-06 0.000824906 4.2432e-05)
(-4.09827e-06 0.000830917 4.14368e-05)
(-4.02995e-06 0.00083558 4.04369e-05)
(-3.94784e-06 0.000839174 3.94771e-05)
(-3.8502e-06 0.000841701 3.85242e-05)
(-3.74284e-06 0.000843332 3.76236e-05)
(-3.62558e-06 0.000843975 3.67406e-05)
(-3.50174e-06 0.000843714 3.59193e-05)
(-3.36845e-06 0.000842368 3.51229e-05)
(-3.223e-06 0.000839924 3.43927e-05)
(-3.06528e-06 0.00083609 3.36889e-05)
(-2.89271e-06 0.000830712 3.30486e-05)
(-2.70699e-06 0.000823323 3.24269e-05)
(-2.49958e-06 0.00081354 3.18537e-05)
(-2.27208e-06 0.000800593 3.1274e-05)
(-2.02289e-06 0.000783698 3.07016e-05)
(-1.75075e-06 0.000761551 3.00622e-05)
(-1.45621e-06 0.000732656 2.93407e-05)
(-1.15152e-06 0.000694755 2.84088e-05)
(-8.37343e-07 0.000645075 2.70888e-05)
(-5.15774e-07 0.000579639 2.49621e-05)
(-1.57028e-07 0.000493383 2.19837e-05)
(3.40442e-10 0.000305977 1.79268e-05)
(-1.20411e-06 0.000288296 3.33316e-05)
(-1.89073e-06 0.000464381 4.41988e-05)
(-2.56703e-06 0.000546255 4.82921e-05)
(-3.36553e-06 0.000608893 5.06879e-05)
(-4.01282e-06 0.000657131 5.20517e-05)
(-4.5205e-06 0.000694461 5.27359e-05)
(-4.93454e-06 0.000723613 5.29985e-05)
(-5.2639e-06 0.000746479 5.29599e-05)
(-5.52169e-06 0.000764618 5.27474e-05)
(-5.70904e-06 0.000779035 5.2397e-05)
(-5.83859e-06 0.000790634 5.19825e-05)
(-5.90699e-06 0.000799925 5.15043e-05)
(-5.92642e-06 0.000807444 5.10137e-05)
(-5.89259e-06 0.000813422 5.04962e-05)
(-5.81226e-06 0.000818185 4.99941e-05)
(-5.68794e-06 0.000821798 4.94851e-05)
(-5.52383e-06 0.000824459 4.90069e-05)
(-5.31912e-06 0.000826127 4.85322e-05)
(-5.07813e-06 0.000826909 4.80959e-05)
(-4.80105e-06 0.000826677 4.76669e-05)
(-4.49182e-06 0.000825455 4.72768e-05)
(-4.14949e-06 0.00082302 4.68916e-05)
(-3.77543e-06 0.000819285 4.65383e-05)
(-3.37498e-06 0.000813895 4.6178e-05)
(-2.94859e-06 0.00080659 4.58311e-05)
(-2.49721e-06 0.000796794 4.54494e-05)
(-2.02944e-06 0.000783954 4.50387e-05)
(-1.55521e-06 0.000767108 4.45305e-05)
(-1.0774e-06 0.000745183 4.3899e-05)
(-6.17685e-07 0.000716532 4.30308e-05)
(-1.97283e-07 0.000679151 4.18211e-05)
(1.48377e-07 0.000630167 3.99935e-05)
(3.82546e-07 0.0005659 3.71429e-05)
(5.43658e-07 0.000481275 3.28529e-05)
(4.93976e-07 0.000297831 2.40118e-05)
(-1.10732e-06 0.000280249 2.73157e-05)
(-1.76594e-06 0.000452232 3.85899e-05)
(-2.43735e-06 0.000532159 4.3315e-05)
(-3.23687e-06 0.000593371 4.62473e-05)
(-3.88488e-06 0.000640458 4.79701e-05)
(-4.40934e-06 0.00067696 4.89661e-05)
(-4.83777e-06 0.000705389 4.94894e-05)
(-5.1887e-06 0.000727748 4.97223e-05)
(-5.46193e-06 0.000745397 4.97482e-05)
(-5.66879e-06 0.000759482 4.96587e-05)
(-5.80563e-06 0.000770717 4.9479e-05)
(-5.88496e-06 0.000779771 4.92635e-05)
(-5.90165e-06 0.000786997 4.90116e-05)
(-5.86444e-06 0.000792792 4.87617e-05)
(-5.77178e-06 0.000797301 4.8502e-05)
(-5.62878e-06 0.000800761 4.82632e-05)
(-5.43401e-06 0.000803192 4.80275e-05)
(-5.19415e-06 0.000804727 4.78212e-05)
(-4.90948e-06 0.000805295 4.76223e-05)
(-4.58538e-06 0.000804947 4.74539e-05)
(-4.22068e-06 0.000803528 4.72902e-05)
(-3.81973e-06 0.000800998 4.71504e-05)
(-3.39076e-06 0.000797095 4.70045e-05)
(-2.93177e-06 0.00079165 4.68667e-05)
(-2.45036e-06 0.000784237 4.67e-05)
(-1.95407e-06 0.000774472 4.65085e-05)
(-1.44992e-06 0.000761648 4.62414e-05)
(-9.47271e-07 0.000745008 4.58801e-05)
(-4.65766e-07 0.000723352 4.53417e-05)
(-1.55848e-08 0.000695256 4.45575e-05)
(3.70006e-07 0.000658634 4.33645e-05)
(6.52308e-07 0.000610873 4.15408e-05)
(7.78152e-07 0.000548296 3.86519e-05)
(8.08103e-07 0.000466146 3.42155e-05)
(6.55312e-07 0.000288273 2.40492e-05)
(-7.83817e-07 0.000273819 1.91824e-05)
(-1.2841e-06 0.000442228 2.78557e-05)
(-1.81359e-06 0.000520526 3.16587e-05)
(-2.45413e-06 0.000580441 3.40297e-05)
(-3.00284e-06 0.000626574 3.54201e-05)
(-3.45661e-06 0.00066226 3.62085e-05)
(-3.84384e-06 0.000690085 3.66355e-05)
(-4.16309e-06 0.000711877 3.68181e-05)
(-4.42584e-06 0.000729101 3.68544e-05)
(-4.62472e-06 0.000742744 3.67873e-05)
(-4.76663e-06 0.000753646 3.66706e-05)
(-4.84761e-06 0.000762323 3.65165e-05)
(-4.87605e-06 0.000769265 3.6359e-05)
(-4.84969e-06 0.000774719 3.61962e-05)
(-4.77187e-06 0.000778973 3.60532e-05)
(-4.64384e-06 0.000782118 3.59209e-05)
(-4.47214e-06 0.000784319 3.58195e-05)
(-4.25485e-06 0.000785562 3.57358e-05)
(-4.00008e-06 0.000785924 3.56861e-05)
(-3.70841e-06 0.000785312 3.56536e-05)
(-3.38493e-06 0.00078372 3.56513e-05)
(-3.03251e-06 0.000780965 3.56588e-05)
(-2.65737e-06 0.000776937 3.56848e-05)
(-2.26343e-06 0.00077133 3.57048e-05)
(-1.85682e-06 0.000763871 3.57214e-05)
(-1.44593e-06 0.000754048 3.57024e-05)
(-1.03229e-06 0.000741319 3.56389e-05)
(-6.32678e-07 0.00072481 3.54819e-05)
(-2.52353e-07 0.0007035 3.5196e-05)
(9.21868e-08 0.000675878 3.46944e-05)
(3.80493e-07 0.000640061 3.38783e-05)
(5.77983e-07 0.000593395 3.25514e-05)
(6.53673e-07 0.000532458 3.04148e-05)
(6.48146e-07 0.000452539 2.70389e-05)
(5.15156e-07 0.000279785 1.89122e-05)
(-3.23167e-07 0.000270117 9.82571e-06)
(-5.98805e-07 0.000436809 1.39033e-05)
(-8.97069e-07 0.000514279 1.57524e-05)
(-1.3142e-06 0.000573578 1.68655e-05)
(-1.70681e-06 0.000619168 1.74377e-05)
(-2.06677e-06 0.000654442 1.76949e-05)
(-2.38918e-06 0.000681859 1.77552e-05)
(-2.67438e-06 0.000703332 1.76981e-05)
(-2.91668e-06 0.000720206 1.75612e-05)
(-3.11602e-06 0.000733569 1.73882e-05)
(-3.26494e-06 0.000744145 1.7201e-05)
(-3.37312e-06 0.000752559 1.7029e-05)
(-3.43035e-06 0.000759186 1.68593e-05)
(-3.44359e-06 0.000764389 1.67096e-05)
(-3.41141e-06 0.000768342 1.65819e-05)
(-3.34116e-06 0.000771252 1.64916e-05)
(-3.23048e-06 0.000773168 1.64315e-05)
(-3.08384e-06 0.000774197 1.64143e-05)
(-2.90843e-06 0.000774301 1.64316e-05)
(-2.70781e-06 0.000773503 1.64916e-05)
(-2.48289e-06 0.000771685 1.6583e-05)
(-2.2419e-06 0.000768783 1.67102e-05)
(-1.98795e-06 0.000764576 1.68589e-05)
(-1.7252e-06 0.000758874 1.70301e-05)
(-1.46242e-06 0.000751301 1.72055e-05)
(-1.19786e-06 0.000741464 1.7382e-05)
(-9.39726e-07 0.000728719 1.75352e-05)
(-6.9181e-07 0.000712322 1.76534e-05)
(-4.61715e-07 0.000691162 1.77005e-05)
(-2.50426e-07 0.000663864 1.76461e-05)
(-7.29259e-08 0.000628479 1.74252e-05)
(6.41654e-08 0.000582509 1.69591e-05)
(1.46753e-07 0.000522505 1.60978e-05)
(2.04259e-07 0.00044394 1.46329e-05)
(1.73573e-07 0.000274188 1.07652e-05)
(1.27248e-07 0.000269733 8.42973e-07)
(6.2255e-08 0.00043704 -9.07461e-08)
(-1.29622e-08 0.000514795 -4.19632e-07)
(-2.09085e-07 0.000574246 -7.29972e-07)
(-4.66469e-07 0.000619938 -1.07139e-06)
(-7.39964e-07 0.00065521 -1.42865e-06)
(-1.01673e-06 0.00068261 -1.788e-06)
(-1.27871e-06 0.000703983 -2.14902e-06)
(-1.52022e-06 0.000720766 -2.503e-06)
(-1.73133e-06 0.000733968 -2.84968e-06)
(-1.90786e-06 0.000744406 -3.18361e-06)
(-2.04393e-06 0.000752622 -3.50364e-06)
(-2.14242e-06 0.000759083 -3.77919e-06)
(-2.20003e-06 0.000764069 -4.00834e-06)
(-2.22265e-06 0.000767845 -4.18519e-06)
(-2.20867e-06 0.000770534 -4.31143e-06)
(-2.16677e-06 0.000772278 -4.37769e-06)
(-2.09728e-06 0.000773097 -4.38887e-06)
(-2.00682e-06 0.000773044 -4.34055e-06)
(-1.89926e-06 0.000772057 -4.23836e-06)
(-1.77848e-06 0.000770106 -4.08104e-06)
(-1.65263e-06 0.000767039 -3.87646e-06)
(-1.52296e-06 0.000762725 -3.62529e-06)
(-1.39442e-06 0.000756887 -3.33719e-06)
(-1.27073e-06 0.000749236 -3.01403e-06)
(-1.15415e-06 0.000739292 -2.66598e-06)
(-1.04307e-06 0.0007265 -2.29468e-06)
(-9.4253e-07 0.000710028 -1.90842e-06)
(-8.46586e-07 0.000688851 -1.50621e-06)
(-7.577e-07 0.000661516 -1.09105e-06)
(-6.66199e-07 0.000626156 -6.5452e-07)
(-5.67854e-07 0.0005802 -1.79516e-07)
(-4.37481e-07 0.000520279 3.76297e-07)
(-2.86036e-07 0.000441812 1.03554e-06)
(-1.99585e-07 0.000272368 2.06329e-06)
(4.63493e-07 0.000272556 -6.20477e-06)
(5.38549e-07 0.000442612 -1.12337e-05)
(6.41036e-07 0.000521603 -1.33861e-05)
(6.10897e-07 0.000581971 -1.49045e-05)
(4.70909e-07 0.000628282 -1.60371e-05)
(2.67329e-07 0.000663999 -1.69263e-05)
(3.83643e-08 0.000691655 -1.76574e-05)
(-2.00274e-07 0.000713193 -1.8278e-05)
(-4.30006e-07 0.000730016 -1.88194e-05)
(-6.44029e-07 0.00074322 -1.92956e-05)
(-8.30663e-07 0.000753577 -1.97166e-05)
(-9.90297e-07 0.000761709 -2.00839e-05)
(-1.1165e-06 0.000768033 -2.03998e-05)
(-1.21439e-06 0.000772899 -2.06592e-05)
(-1.27838e-06 0.000776518 -2.08596e-05)
(-1.31476e-06 0.000779079 -2.09961e-05)
(-1.32952e-06 0.000780665 -2.10674e-05)
(-1.32415e-06 0.000781364 -2.10703e-05)
(-1.30389e-06 0.000781164 -2.10059e-05)
(-1.27506e-06 0.00078007 -2.08737e-05)
(-1.24244e-06 0.000777986 -2.0677e-05)
(-1.20844e-06 0.000774825 -2.04173e-05)
(-1.18025e-06 0.000770389 -2.00997e-05)
(-1.15903e-06 0.000764461 -1.97264e-05)
(-1.14757e-06 0.000756682 -1.93017e-05)
(-1.1448e-06 0.000746632 -1.88257e-05)
(-1.15179e-06 0.00073368 -1.8297e-05)
(-1.16148e-06 0.000717048 -1.77066e-05)
(-1.17101e-06 0.00069563 -1.70377e-05)
(-1.16817e-06 0.000668015 -1.62578e-05)
(-1.14322e-06 0.000632248 -1.53122e-05)
(-1.06405e-06 0.00058578 -1.40949e-05)
(-8.94113e-07 0.000525132 -1.24203e-05)
(-6.56284e-07 0.000445715 -1.00636e-05)
(-4.92929e-07 0.000274166 -5.05694e-06)
(6.19091e-07 0.000277717 -1.03533e-05)
(7.44716e-07 0.000451778 -1.75751e-05)
(9.40909e-07 0.000532609 -2.07122e-05)
(1.00472e-06 0.000594314 -2.28835e-05)
(9.31307e-07 0.000641608 -2.44422e-05)
(7.82548e-07 0.00067801 -2.56227e-05)
(5.93002e-07 0.000706159 -2.65614e-05)
(3.89279e-07 0.000728011 -2.73369e-05)
(1.81092e-07 0.000745049 -2.79972e-05)
(-1.69427e-08 0.000758357 -2.8569e-05)
(-1.96276e-07 0.000768773 -2.90676e-05)
(-3.52259e-07 0.000776893 -2.94989e-05)
(-4.8347e-07 0.000783191 -2.98649e-05)
(-5.87565e-07 0.000787985 -3.0164e-05)
(-6.67362e-07 0.000791537 -3.03944e-05)
(-7.24291e-07 0.000794001 -3.0553e-05)
(-7.62854e-07 0.000795508 -3.06381e-05)
(-7.87864e-07 0.000796104 -3.0648e-05)
(-8.02286e-07 0.000795827 -3.05827e-05)
(-8.15089e-07 0.000794634 -3.04426e-05)
(-8.29258e-07 0.000792475 -3.02298e-05)
(-8.45237e-07 0.000789216 -2.99465e-05)
(-8.73046e-07 0.000784697 -2.95962e-05)
(-9.13079e-07 0.000778653 -2.91809e-05)
(-9.63047e-07 0.000770761 -2.87025e-05)
(-1.02805e-06 0.000760542 -2.81588e-05)
(-1.09853e-06 0.000747396 -2.75436e-05)
(-1.17452e-06 0.000730481 -2.68411e-05)
(-1.24323e-06 0.000708707 -2.60232e-05)
(-1.29515e-06 0.000680586 -2.50404e-05)
(-1.30977e-06 0.000644155 -2.38108e-05)
(-1.25247e-06 0.000596768 -2.21837e-05)
(-1.07339e-06 0.000534897 -1.98971e-05)
(-8.02953e-07 0.000453816 -1.6618e-05)
(-6.27466e-07 0.000278659 -9.4316e-06)
(5.90043e-07 0.000283965 -1.14319e-05)
(6.80283e-07 0.000462246 -1.86892e-05)
(8.75465e-07 0.000545006 -2.18634e-05)
(9.48676e-07 0.000608147 -2.40629e-05)
(8.97124e-07 0.000656477 -2.56378e-05)
(7.76092e-07 0.000693638 -2.68295e-05)
(6.20541e-07 0.000722313 -2.77766e-05)
(4.47216e-07 0.000744539 -2.85597e-05)
(2.74151e-07 0.000761811 -2.92264e-05)
(1.10055e-07 0.000775276 -2.98053e-05)
(-3.50018e-08 0.000785765 -3.03105e-05)
(-1.60414e-07 0.000793923 -3.07495e-05)
(-2.62068e-07 0.000800209 -3.11228e-05)
(-3.40854e-07 0.000804982 -3.143e-05)
(-3.96625e-07 0.000808483 -3.16681e-05)
(-4.33855e-07 0.000810903 -3.1835e-05)
(-4.55498e-07 0.000812346 -3.19276e-05)
(-4.68314e-07 0.000812893 -3.19455e-05)
(-4.73774e-07 0.000812551 -3.18869e-05)
(-4.77961e-07 0.000811309 -3.17541e-05)
(-4.90017e-07 0.000809085 -3.15474e-05)
(-5.08772e-07 0.000805771 -3.12704e-05)
(-5.3778e-07 0.000801174 -3.09251e-05)
(-5.83758e-07 0.000795051 -3.05151e-05)
(-6.46054e-07 0.000787038 -3.00405e-05)
(-7.20929e-07 0.000776675 -2.9501e-05)
(-8.0855e-07 0.000763315 -2.88885e-05)
(-9.01593e-07 0.000746121 -2.8189e-05)
(-9.91406e-07 0.000723948 -2.73725e-05)
(-1.06419e-06 0.000695295 -2.63915e-05)
(-1.10814e-06 0.000658121 -2.51622e-05)
(-1.08198e-06 0.000609742 -2.35375e-05)
(-9.42564e-07 0.000546511 -2.12566e-05)
(-7.06511e-07 0.000463615 -1.79855e-05)
(-5.88265e-07 0.00028448 -1.07563e-05)
(4.19179e-07 0.000289975 -1.00441e-05)
(4.25895e-07 0.000471725 -1.55086e-05)
(5.52009e-07 0.000556085 -1.79156e-05)
(5.76989e-07 0.000620406 -1.96072e-05)
(5.15296e-07 0.000669606 -2.08451e-05)
(4.06944e-07 0.000707391 -2.18038e-05)
(2.80174e-07 0.000736516 -2.25854e-05)
(1.47647e-07 0.000759045 -2.3247e-05)
(2.15212e-08 0.000776528 -2.38235e-05)
(-9.0992e-08 0.000790116 -2.4333e-05)
(-1.862e-07 0.000800681 -2.47852e-05)
(-2.5884e-07 0.000808866 -2.51823e-05)
(-3.09234e-07 0.000815159 -2.55244e-05)
(-3.35661e-07 0.000819911 -2.58079e-05)
(-3.42516e-07 0.000823389 -2.60303e-05)
(-3.3407e-07 0.00082577 -2.61877e-05)
(-3.0998e-07 0.000827182 -2.6278e-05)
(-2.80224e-07 0.000827687 -2.62989e-05)
(-2.4534e-07 0.000827315 -2.62503e-05)
(-2.10931e-07 0.000826034 -2.61326e-05)
(-1.87264e-07 0.000823781 -2.59482e-05)
(-1.70527e-07 0.000820426 -2.56987e-05)
(-1.67591e-07 0.000815789 -2.53889e-05)
(-1.82552e-07 0.000809602 -2.50211e-05)
(-2.16647e-07 0.000801513 -2.4599e-05)
(-2.66928e-07 0.000791031 -2.41219e-05)
(-3.33775e-07 0.000777513 -2.35884e-05)
(-4.11625e-07 0.000760085 -2.29876e-05)
(-4.92722e-07 0.000737593 -2.23015e-05)
(-5.72261e-07 0.000708488 -2.14942e-05)
(-6.31921e-07 0.000670703 -2.05077e-05)
(-6.47609e-07 0.000621482 -1.92331e-05)
(-5.86002e-07 0.000557118 -1.74834e-05)
(-4.38048e-07 0.000472691 -1.5008e-05)
(-4.17292e-07 0.00029023 -9.56147e-06)
(1.77802e-07 0.000294649 -7.13639e-06)
(7.83502e-08 0.000478489 -9.64799e-06)
(9.03691e-08 0.000563812 -1.07728e-05)
(2.91756e-08 0.000628851 -1.16134e-05)
(-6.51957e-08 0.000678569 -1.22844e-05)
(-1.69997e-07 0.000716731 -1.28515e-05)
(-2.70891e-07 0.000746113 -1.33521e-05)
(-3.62287e-07 0.00076882 -1.38073e-05)
(-4.37316e-07 0.000786407 -1.42274e-05)
(-4.93232e-07 0.000800059 -1.46167e-05)
(-5.25343e-07 0.000810646 -1.49738e-05)
(-5.32978e-07 0.000818834 -1.52966e-05)
(-5.18671e-07 0.000825108 -1.55796e-05)
(-4.82373e-07 0.000829838 -1.58186e-05)
(-4.25295e-07 0.000833283 -1.6008e-05)
(-3.52856e-07 0.000835636 -1.61445e-05)
(-2.70697e-07 0.000837016 -1.6224e-05)
(-1.80486e-07 0.0008375 -1.62454e-05)
(-8.62062e-08 0.000837104 -1.62072e-05)
(3.20089e-09 0.000835811 -1.6111e-05)
(8.61885e-08 0.000833543 -1.5958e-05)
(1.57904e-07 0.000830179 -1.57521e-05)
(2.15415e-07 0.000825526 -1.54967e-05)
(2.52678e-07 0.000819323 -1.51978e-05)
(2.6818e-07 0.000811199 -1.48589e-05)
(2.63815e-07 0.000800668 -1.44856e-05)
(2.37662e-07 0.000787065 -1.40801e-05)
(1.95297e-07 0.000769517 -1.36434e-05)
(1.36682e-07 0.000746839 -1.31709e-05)
(6.64578e-08 0.000717476 -1.26519e-05)
(-9.33746e-09 0.000679323 -1.20638e-05)
(-7.39211e-08 0.000629602 -1.13652e-05)
(-1.09252e-07 0.000564549 -1.04808e-05)
(-8.32892e-08 0.000479203 -9.30381e-06)
(-1.75786e-07 0.000294742 -6.8008e-06)
(-7.41694e-08 0.000297302 -3.77495e-06)
(-2.67069e-07 0.000481592 -2.92965e-06)
(-3.79232e-07 0.000567132 -2.58775e-06)
(-5.29483e-07 0.000632322 -2.44822e-06)
(-6.6002e-07 0.000682148 -2.46319e-06)
(-7.67164e-07 0.000720368 -2.57297e-06)
(-8.47134e-07 0.000749781 -2.74351e-06)
(-9.01432e-07 0.000772487 -2.95337e-06)
(-9.28952e-07 0.000790059 -3.18669e-06)
(-9.28558e-07 0.000803674 -3.43013e-06)
(-9.01827e-07 0.000814222 -3.67199e-06)