/*--------------------------------*- C++ -*----------------------------------*\
| =========                 |                                                 |
| \\      /  F ield         | OpenFOAM: The Open Source CFD Toolbox           |
|  \\    /   O peration     | Version:  v2006                                 |
|   \\  /    A nd           | Website:  www.openfoam.com                      |
|    \\/     M anipulation  |                                                 |
\*---------------------------------------------------------------------------*/
FoamFile
{
    version     2.0;
    format      ascii;
    class       volScalarField;
    location    "16";
    object      nut;
}
// * * * * * * * * * * * * * * * * * * * * * * * * * * * * * * * * * * * * * //

dimensions      [0 2 -1 0 0 0 0];


internalField   nonuniform List<scalar> 
78750
(
0.000807168
0.00179964
0.0012518
0.000550875
5.92216e-06
2.44788e-05
2.42311e-05
1.3795e-05
2.20942e-05
1.70518e-05
2.38861e-05
1.93332e-05
2.45657e-05
2.30023e-05
2.57125e-05
2.5361e-05
2.73672e-05
2.79691e-05
2.92674e-05
3.05391e-05
3.19192e-05
3.34524e-05
3.51115e-05
3.68384e-05
3.85237e-05
4.01689e-05
4.18145e-05
4.34416e-05
4.49999e-05
4.64289e-05
4.76563e-05
4.77729e-05
4.32154e-05
1.15856e-05
4.42652e-07
3.72582e-05
5.14803e-05
7.57974e-06
2.99668e-05
2.30682e-05
3.27939e-05
3.66623e-05
4.45813e-05
4.92228e-05
5.45898e-05
5.73823e-05
6.03518e-05
6.20223e-05
6.35149e-05
6.45935e-05
6.57301e-05
6.66923e-05
6.75978e-05
6.84572e-05
6.9325e-05
7.02312e-05
7.12015e-05
7.2249e-05
7.33433e-05
7.44467e-05
7.54773e-05
7.6259e-05
7.65038e-05
7.57536e-05
7.35094e-05
6.93961e-05
6.17961e-05
4.26942e-05
1.45212e-05
1.56957e-06
2.6077e-06
5.20798e-06
3.01584e-05
2.65839e-05
3.43514e-05
4.15123e-05
4.77687e-05
5.28449e-05
5.6776e-05
5.97306e-05
6.20223e-05
6.37325e-05
6.50785e-05
6.61629e-05
6.69988e-05
6.75615e-05
6.8036e-05
6.85908e-05
6.92324e-05
6.99651e-05
7.08281e-05
7.18522e-05
7.30634e-05
7.44807e-05
7.61004e-05
7.78605e-05
7.95933e-05
8.09149e-05
8.10913e-05
7.89928e-05
7.26e-05
5.75997e-05
3.24561e-05
1.48523e-05
3.13194e-06
2.20455e-06
4.36631e-06
1.76914e-05
1.54515e-05
2.10679e-05
3.57967e-05
4.77115e-05
5.60884e-05
6.33718e-05
6.98054e-05
7.52523e-05
7.97685e-05
8.33947e-05
8.61756e-05
8.82032e-05
8.96126e-05
9.05597e-05
9.11726e-05
9.15647e-05
9.18251e-05
9.20276e-05
9.22275e-05
9.24593e-05
9.27293e-05
9.2997e-05
9.31419e-05
9.29039e-05
9.17992e-05
8.9008e-05
8.30768e-05
7.1247e-05
5.02295e-05
2.58123e-05
1.48042e-05
4.52932e-06
1.43504e-06
1.88823e-05
2.91767e-05
2.53134e-05
3.2042e-05
4.45288e-05
5.56688e-05
6.56504e-05
7.5901e-05
8.64314e-05
9.66789e-05
0.000105989
0.00011379
0.000119721
0.00012371
0.000125956
0.000126833
0.000126781
0.000126148
0.000125158
0.000123971
0.000122655
0.000121177
0.00011942
0.000117188
0.000114181
0.000109969
0.00010397
9.54113e-05
8.30687e-05
6.51094e-05
4.18786e-05
2.2449e-05
1.70194e-05
5.91414e-06
1.36763e-06
2.29202e-05
5.17455e-05
4.5607e-05
4.78334e-05
5.77779e-05
6.89589e-05
7.86633e-05
8.71009e-05
9.50713e-05
0.000103221
0.000111898
0.000121278
0.000131459
0.00014205
0.000151978
0.000157503
0.000158858
0.000160415
0.000162178
0.000159751
0.000154207
0.000147963
0.000141295
0.000134053
0.000125711
0.00011591
0.000104495
9.11352e-05
7.49036e-05
5.48197e-05
3.33881e-05
1.93615e-05
1.96515e-05
7.0549e-06
8.38606e-07
1.64406e-05
7.2709e-05
7.10302e-05
6.58068e-05
6.81266e-05
7.67607e-05
8.7661e-05
9.69535e-05
0.000103564
0.000108479
0.00011298
0.00011795
0.000123981
0.000131686
0.000141764
0.000149651
0.000151492
0.000153513
0.000155725
0.00015814
0.00016076
0.000163581
0.000159713
0.000138461
0.000122637
0.000110133
9.73079e-05
8.2664e-05
6.5494e-05
4.58925e-05
2.74092e-05
1.76056e-05
2.35853e-05
7.95542e-06
2.54822e-07
9.82629e-06
4.54474e-05
9.71467e-05
9.79988e-05
9.17856e-05
8.67105e-05
8.55591e-05
8.79313e-05
9.14225e-05
9.40214e-05
9.5566e-05
9.65999e-05
9.66728e-05
9.49668e-05
9.25414e-05
9.19924e-05
9.47459e-05
9.99439e-05
0.000105145
0.000107838
0.000107331
0.000106311
0.000109248
0.000114852
0.000110517
9.63777e-05
8.11362e-05
6.67967e-05
5.20389e-05
3.62564e-05
2.25033e-05
1.6902e-05
2.95817e-05
8.59485e-06
4.40169e-07
7.53915e-06
1.79881e-05
3.53878e-05
3.85588e-05
3.46535e-05
3.12964e-05
2.96878e-05
2.92773e-05
2.88157e-05
2.67354e-05
2.27969e-05
1.893e-05
1.6872e-05
1.72241e-05
2.05453e-05
2.75205e-05
3.77144e-05
4.93774e-05
6.21184e-05
7.49301e-05
8.00253e-05
7.22848e-05
5.48836e-05
4.37017e-05
4.64918e-05
5.81948e-05
6.36037e-05
5.76615e-05
4.45397e-05
2.95962e-05
1.862e-05
1.64547e-05
3.69096e-05
8.9997e-06
9.76515e-07
2.18149e-05
2.74942e-05
2.6877e-05
2.69611e-05
2.834e-05
3.09043e-05
3.44708e-05
3.88495e-05
4.38273e-05
4.90682e-05
5.39082e-05
5.72784e-05
5.83951e-05
5.7658e-05
5.63344e-05
5.52383e-05
5.34541e-05
4.73853e-05
3.87958e-05
3.8426e-05
2.77177e-05
7.63823e-06
8.76015e-07
5.57902e-06
1.65873e-05
3.02314e-05
4.36423e-05
4.01598e-05
3.29463e-05
2.42584e-05
1.62932e-05
1.63224e-05
4.37584e-05
9.2904e-06
8.7587e-07
1.75838e-05
2.60895e-05
3.09844e-05
3.54915e-05
4.01806e-05
4.527e-05
5.09712e-05
5.7397e-05
6.4464e-05
7.19737e-05
7.98206e-05
8.80471e-05
9.66047e-05
0.000104956
0.000111793
0.000115312
0.00011393
0.000107385
9.90191e-05
9.34173e-05
7.93139e-05
4.16658e-05
1.93065e-05
1.26764e-05
1.43999e-05
2.07589e-05
2.31061e-05
2.8098e-05
2.81986e-05
2.03221e-05
1.40479e-05
1.60252e-05
4.90908e-05
9.66491e-06
2.66972e-06
2.70707e-05
6.23194e-05
7.86394e-05
8.04229e-05
7.72183e-05
7.41805e-05
7.43658e-05
8.00694e-05
9.34528e-05
0.000115025
0.000141366
0.000166425
0.000184623
0.000190959
0.000182232
0.000160815
0.000134887
0.000112585
9.67502e-05
8.45724e-05
6.98858e-05
5.05553e-05
3.46922e-05
2.58277e-05
2.24716e-05
2.44534e-05
3.23058e-05
3.53532e-05
2.93403e-05
1.8158e-05
1.18692e-05
1.52791e-05
5.40713e-05
9.81027e-06
3.20087e-06
2.98209e-05
6.83197e-05
8.30611e-05
8.16398e-05
7.30691e-05
6.25258e-05
5.30432e-05
4.70333e-05
4.70502e-05
5.55274e-05
7.32791e-05
9.64137e-05
0.000118517
0.000134213
0.000137721
0.000127986
0.000111886
9.67497e-05
8.51538e-05
7.60091e-05
6.70682e-05
5.66193e-05
4.45603e-05
3.22927e-05
2.34995e-05
2.07562e-05
2.59719e-05
3.6459e-05
3.08465e-05
1.64017e-05
1.0648e-05
1.58901e-05
6.47349e-05
1.00494e-05
2.70067e-06
1.66595e-05
4.74778e-05
7.42159e-05
8.08918e-05
7.8447e-05
7.12772e-05
5.94342e-05
4.50768e-05
3.37998e-05
2.92698e-05
3.27127e-05
4.49534e-05
6.42074e-05
8.61377e-05
0.000107402
0.000122861
0.000125742
0.000115855
0.000100743
8.60967e-05
7.23193e-05
5.77183e-05
4.19496e-05
2.85736e-05
2.10789e-05
1.98372e-05
2.60507e-05
3.63751e-05
3.00815e-05
1.41992e-05
9.33835e-06
1.64213e-05
7.52837e-05
1.02269e-05
5.16074e-06
2.8375e-05
8.66853e-05
7.72648e-05
6.43052e-05
6.41275e-05
7.15881e-05
7.66938e-05
6.70917e-05
4.89556e-05
3.77996e-05
3.81316e-05
5.24593e-05
8.37148e-05
0.000125379
0.000161257
0.00017543
0.000164074
0.000140111
0.000116477
9.71205e-05
8.01296e-05
6.23771e-05
4.37074e-05
2.91504e-05
2.19933e-05
2.1736e-05
2.8836e-05
3.79903e-05
3.02334e-05
1.27003e-05
8.51277e-06
1.71274e-05
8.35277e-05
1.03352e-05
6.33269e-06
3.81697e-05
6.22171e-05
3.64419e-05
3.45754e-05
4.20271e-05
5.52695e-05
6.95557e-05
7.26144e-05
6.17192e-05
5.30208e-05
5.89198e-05
8.71602e-05
0.000133201
0.000166947
0.000177025
0.0001711
0.000154206
0.000132202
0.000111867
9.51409e-05
7.9316e-05
6.12905e-05
4.25219e-05
2.88755e-05
2.28266e-05
2.37547e-05
3.14733e-05
3.85221e-05
2.90969e-05
1.13648e-05
7.9841e-06
1.80766e-05
9.03205e-05
1.04379e-05
6.59608e-06
4.1381e-05
2.15101e-05
1.79692e-05
2.99148e-05
4.83268e-05
6.29998e-05
6.76264e-05
6.27514e-05
5.55215e-05
5.54441e-05
7.12212e-05
0.000106876
0.00014216
0.000159364
0.000163611
0.000158576
0.000142708
0.00011841
9.38547e-05
7.49395e-05
6.13272e-05
4.98469e-05
3.91659e-05
3.13e-05
2.84952e-05
3.15183e-05
3.80952e-05
3.87731e-05
2.48015e-05
1.00898e-05
8.39781e-06
2.07727e-05
9.65367e-05
1.05578e-05
5.53318e-06
2.78662e-05
4.24826e-06
5.45932e-06
1.85821e-05
4.12652e-05
5.50602e-05
5.95137e-05
6.47221e-05
7.7344e-05
9.61161e-05
0.000110556
0.000118601
0.000124851
0.000129758
0.000130753
0.0001249
0.000110498
9.00952e-05
6.99168e-05
5.46648e-05
4.5365e-05
4.05159e-05
3.79906e-05
3.70295e-05
3.83586e-05
4.15591e-05
4.28165e-05
3.67611e-05
2.05471e-05
9.0868e-06
8.97051e-06
2.38927e-05
9.73754e-05
1.06498e-05
4.23808e-06
1.73814e-05
2.75124e-05
2.50788e-06
1.00881e-06
3.77457e-06
1.97541e-05
5.19854e-05
8.51864e-05
9.92331e-05
9.82665e-05
9.79489e-05
0.000103476
0.000111088
0.000115181
0.000113228
0.000105161
9.18065e-05
7.5477e-05
5.96298e-05
4.71029e-05
3.91741e-05
3.58242e-05
3.61038e-05
3.85162e-05
4.14859e-05
4.30739e-05
4.08827e-05
3.20455e-05
1.72161e-05
8.58098e-06
9.57872e-06
2.6606e-05
9.37623e-05
1.0654e-05
6.03896e-06
2.59655e-05
6.05181e-05
2.24322e-05
1.73536e-06
2.0424e-07
1.66151e-06
9.11194e-06
2.9797e-05
5.39453e-05
7.3244e-05
8.69194e-05
9.65163e-05
0.000102088
0.000103576
0.000101547
9.65158e-05
8.87672e-05
7.87288e-05
6.74547e-05
5.64558e-05
4.73839e-05
4.14342e-05
3.8769e-05
3.85251e-05
3.90592e-05
3.84143e-05
3.46705e-05
2.59587e-05
1.4205e-05
7.91533e-06
9.71528e-06
2.77117e-05
9.04972e-05
1.05985e-05
6.94031e-06
4.51906e-05
5.6193e-05
4.73582e-05
2.78977e-05
1.29993e-05
8.63485e-06
9.08132e-06
1.27527e-05
1.8899e-05
2.77676e-05
3.94293e-05
5.26517e-05
6.38957e-05
6.99947e-05
7.11653e-05
6.9318e-05
6.58256e-05
6.14785e-05
5.69299e-05
5.25789e-05
4.87258e-05
4.56147e-05
4.33637e-05
4.16825e-05
3.97621e-05
3.65211e-05
3.08831e-05
2.19341e-05
1.19035e-05
7.08571e-06
9.56213e-06
2.79377e-05
8.92682e-05
1.05505e-05
5.64593e-06
2.85058e-05
5.56745e-05
8.77525e-05
0.000110518
8.88802e-05
5.29045e-05
3.479e-05
2.6077e-05
2.15968e-05
1.92313e-05
1.84592e-05
1.93346e-05
2.22693e-05
2.78538e-05
3.5997e-05
4.42346e-05
4.87807e-05
4.92375e-05
4.74491e-05
4.45068e-05
4.12175e-05
3.81169e-05
3.54716e-05
3.33362e-05
3.13947e-05
2.90044e-05
2.52363e-05
1.89557e-05
1.06737e-05
6.01066e-06
8.51988e-06
2.5908e-05
9.04337e-05
1.0514e-05
4.34481e-06
2.23509e-05
5.82966e-05
0.000117397
0.000156574
0.000172112
0.00017137
0.000143931
0.000101552
7.13072e-05
5.31711e-05
4.13856e-05
3.30805e-05
2.69648e-05
2.24911e-05
1.95844e-05
1.86121e-05
2.04895e-05
2.64042e-05
3.50065e-05
3.9912e-05
4.00352e-05
3.83259e-05
3.51589e-05
3.04038e-05
2.48787e-05
1.96681e-05
1.54564e-05
1.19405e-05
8.06259e-06
4.86645e-06
6.84372e-06
2.1804e-05
9.25348e-05
1.05522e-05
3.11737e-06
1.33315e-05
3.55035e-05
7.39197e-05
0.000116737
0.000143477
0.000154222
0.000156135
0.00015298
0.00014586
0.000134462
0.000118785
0.000100344
8.13892e-05
6.39239e-05
4.90148e-05
3.68745e-05
2.73847e-05
2.03361e-05
1.58987e-05
1.51219e-05
2.05634e-05
2.91168e-05
3.1124e-05
3.06525e-05
2.75574e-05
2.11088e-05
1.2746e-05
5.57332e-06
2.82758e-06
3.31495e-06
5.63958e-06
1.9238e-05
9.27406e-05
1.07781e-05
3.9395e-06
1.51637e-05
3.8473e-05
7.21928e-05
0.000102752
0.000117155
0.00011558
0.000102622
8.63513e-05
7.4622e-05
7.01199e-05
7.23618e-05
8.0889e-05
9.63706e-05
0.000118897
0.000139745
0.000134428
9.96234e-05
6.50991e-05
4.12756e-05
2.55112e-05
1.52456e-05
9.62232e-06
1.08958e-05
1.87092e-05
2.0704e-05
1.9892e-05
1.39545e-05
2.51765e-06
1.95423e-06
2.13051e-06
5.49907e-06
1.98389e-05
9.67408e-05
1.11289e-05
5.98748e-06
2.65122e-05
7.43951e-05
0.00013143
0.00016497
0.000176967
0.000169794
0.00014604
0.000119791
0.000102469
9.22149e-05
8.34458e-05
7.56365e-05
7.20252e-05
7.69058e-05
9.70962e-05
0.000143208
0.000220022
0.000276959
0.000197554
9.33668e-05
4.46246e-05
2.16136e-05
9.21881e-06
2.34835e-06
1.03579e-06
5.19507e-06
4.80983e-06
4.64006e-06
4.87264e-07
1.98723e-06
7.01577e-06
2.52239e-05
9.72669e-05
1.14446e-05
7.37844e-06
3.62955e-05
0.000112956
0.000142674
0.000139138
0.000122568
9.42269e-05
6.84125e-05
5.78891e-05
6.42943e-05
8.87393e-05
0.00012848
0.000160822
0.000156211
0.00012632
0.000107559
0.000114019
0.000150381
0.000213235
0.000267134
0.000244365
0.000131385
5.22675e-05
2.07626e-05
6.42642e-06
4.00649e-06
8.48092e-06
3.4996e-06
1.33767e-06
8.32025e-07
1.83196e-06
9.20249e-06
3.43398e-05
8.24995e-05
1.15614e-05
7.28615e-06
3.80698e-05
0.000110076
0.000132922
0.000131403
0.000113182
8.31643e-05
5.90672e-05
4.90392e-05
5.29755e-05
7.38816e-05
0.000116807
0.000173078
0.000217678
0.000232819
0.000205435
0.000162107
0.000142737
0.000151546
0.000176605
0.000192946
0.000166452
9.69203e-05
3.99636e-05
1.44537e-05
1.02054e-06
1.6395e-06
5.5504e-06
1.76369e-06
1.72427e-06
2.16017e-06
1.02089e-05
3.98042e-05
7.19436e-05
1.14954e-05
6.87138e-06
3.62898e-05
0.000118441
0.000145153
0.000136973
0.000113608
8.61226e-05
6.67154e-05
5.93805e-05
6.28873e-05
7.64174e-05
0.000100737
0.000135073
0.000172357
0.000203217
0.000223964
0.000232145
0.00022142
0.00019853
0.000183524
0.000179593
0.000169632
0.000132357
7.32665e-05
2.95315e-05
9.04049e-06
7.57045e-07
5.37867e-07
2.50529e-06
2.09216e-07
7.66886e-07
7.80549e-06
3.29917e-05
7.31947e-05
1.13973e-05
6.70139e-06
3.14179e-05
9.84392e-05
0.00012682
0.00012062
0.000101853
7.71793e-05
5.46946e-05
4.21772e-05
4.23462e-05
5.61285e-05
8.51276e-05
0.00012653
0.000169999
0.000206406
0.000232967
0.000250545
0.000261164
0.000264846
0.00025786
0.000238279
0.000209615
0.00017139
0.000117388
5.79409e-05
2.19873e-05
4.66209e-06
2.55996e-06
5.16856e-06
9.6374e-07
2.0643e-06
4.14632e-06
2.32228e-05
8.40383e-05
1.12872e-05
6.77361e-06
3.104e-05
9.57417e-05
0.000130558
0.000128321
0.000113026
9.16386e-05
6.73812e-05
4.50304e-05
3.31229e-05
3.50296e-05
5.27396e-05
9.22013e-05
0.000155069
0.000223698
0.000275955
0.000305137
0.000310634
0.000308018
0.0002979
0.000280478
0.000256179
0.00022118
0.000170607
0.000103933
4.60188e-05
1.68777e-05
1.86953e-06
3.23906e-06
3.60444e-07
1.73333e-06
1.45284e-06
1.68962e-05
9.63107e-05
1.13175e-05
6.8284e-06
3.05854e-05
9.60536e-05
0.000136425
0.000131553
0.000108157
8.26336e-05
6.58777e-05
5.41782e-05
4.19898e-05
3.65245e-05
4.43274e-05
7.04424e-05
0.000122505
0.000199199
0.000274697
0.00031255
0.000313348
0.000312702
0.000310698
0.000307482
0.000287944
0.000251472
0.000208129
0.000153806
8.80596e-05
4.04479e-05
1.67256e-05
2.70516e-06
6.40001e-06
1.3313e-06
7.33578e-07
1.43162e-05
9.51989e-05
1.14194e-05
6.96012e-06
3.05422e-05
9.26158e-05
0.000128219
0.000120584
9.29222e-05
6.35102e-05
4.59791e-05
3.97333e-05
3.99145e-05
4.34568e-05
5.37022e-05
7.7516e-05
0.000120938
0.000182443
0.000247418
0.000297277
0.000316338
0.00031631
0.00031494
0.000312276
0.000308443
0.000278746
0.000234204
0.000176962
0.000110404
5.56454e-05
2.50117e-05
9.16433e-06
2.20742e-06
1.32604e-06
1.99442e-08
1.14267e-05
8.15415e-05
1.16321e-05
7.18624e-06
3.27187e-05
0.000101174
0.000133816
0.000120134
8.8683e-05
6.18302e-05
4.6145e-05
3.77709e-05
3.5133e-05
4.01788e-05
5.64721e-05
8.75224e-05
0.000134408
0.000191571
0.000247161
0.000290635
0.000316786
0.000320874
0.000319112
0.000312935
0.000281511
0.000227992
0.000158655
9.39307e-05
5.14085e-05
2.61538e-05
1.23256e-05
2.09507e-06
2.3423e-06
1.24417e-07
1.91178e-06
1.51501e-05
9.71575e-05
1.2021e-05
7.27423e-06
3.09554e-05
9.56099e-05
0.000126929
0.000105505
7.00823e-05
4.79998e-05
4.05568e-05
4.007e-05
3.87694e-05
3.83899e-05
4.76846e-05
7.3857e-05
0.000121165
0.000184506
0.000247363
0.000295444
0.00032354
0.00032711
0.00032688
0.000324776
0.000308058
0.000275159
0.000227234
0.000163722
9.95967e-05
5.72068e-05
3.35931e-05
1.62056e-05
9.15362e-07
1.14083e-06
4.65197e-06
2.15093e-05
0.000111891
1.22569e-05
7.60981e-06
3.2685e-05
9.98993e-05
0.000121315
9.04295e-05
5.41474e-05
3.51507e-05
2.97024e-05
3.39642e-05
4.26577e-05
4.78214e-05
5.54823e-05
7.77419e-05
0.000121016
0.000181513
0.000243503
0.000292631
0.000323892
0.000333852
0.000335961
0.000336265
0.000334713
0.000312472
0.000270855
0.000210602
0.000139347
8.30174e-05
5.05826e-05
2.87438e-05
5.05477e-06
2.47305e-06
7.22228e-06
2.86257e-05
0.000106564
1.23317e-05
7.89931e-06
3.77932e-05
0.000114132
0.000111532
6.93298e-05
3.88574e-05
2.68308e-05
2.53016e-05
3.1986e-05
4.43926e-05
5.78207e-05
7.69863e-05
0.000111323
0.000161234
0.000215059
0.000259478
0.000289746
0.000306877
0.000312733
0.000309306
0.000296991
0.000274598
0.000241317
0.000198429
0.000150451
0.00010589
7.25529e-05
4.87367e-05
2.3458e-05
5.61023e-06
5.17499e-06
1.22003e-05
4.29088e-05
8.66782e-05
1.23572e-05
7.53992e-06
3.52201e-05
0.000105018
0.00010264
6.04101e-05
3.25741e-05
2.19602e-05
2.13255e-05
3.08897e-05
4.81525e-05
5.94681e-05
7.0638e-05
9.9885e-05
0.00015212
0.000208118
0.00024978
0.000273954
0.000283591
0.000282578
0.000273453
0.000257325
0.000234913
0.000206999
0.000175036
0.00014145
0.000109808
8.21697e-05
5.3404e-05
1.92418e-05
6.594e-06
7.93933e-06
1.89487e-05
6.45761e-05
6.82462e-05
1.21143e-05
7.22771e-06
3.27945e-05
0.00010004
0.000111515
7.44493e-05
4.0924e-05
2.50243e-05
1.78326e-05
1.88209e-05
3.46242e-05
6.29852e-05
7.31018e-05
7.44417e-05
9.77069e-05
0.000156163
0.000226553
0.000272959
0.000290264
0.000288828
0.000277485
0.000260811
0.000240869
0.000218469
0.000193891
0.000167185
0.000137979
0.000104955
6.35457e-05
2.29747e-05
8.5527e-06
9.66178e-06
2.43522e-05
8.23279e-05
5.76576e-05
1.16467e-05
7.2226e-06
3.12534e-05
9.46387e-05
0.000111659
7.40627e-05
4.19107e-05
2.93948e-05
2.21667e-05
1.48975e-05
1.52586e-05
3.29855e-05
7.17929e-05
0.000110349
0.000140217
0.000183
0.000245446
0.000287036
0.000292772
0.000297796
0.000293436
0.00027284
0.00025249
0.000232366
0.000211019
0.000186856
0.000157939
0.000121774
7.58046e-05
3.13123e-05
1.17557e-05
1.05536e-05
2.62004e-05
8.78737e-05
5.42369e-05
1.12618e-05
7.32291e-06
3.06474e-05
9.23513e-05
0.000106667
6.41632e-05
3.41976e-05
2.63121e-05
2.69407e-05
2.31079e-05
1.50097e-05
1.66857e-05
3.58158e-05
7.66107e-05
0.00014327
0.000226127
0.000272719
0.000280445
0.000287461
0.000293692
0.000289054
0.000267779
0.000248551
0.0002305
0.000211684
0.000190522
0.000165219
0.000133557
9.26707e-05
4.67464e-05
1.81378e-05
1.15397e-05
2.36893e-05
8.01151e-05
5.6622e-05
1.10535e-05
7.64765e-06
3.32852e-05
0.000101158
0.000102798
5.50147e-05
2.89869e-05
2.28666e-05
2.61936e-05
2.93807e-05
2.35308e-05
1.80891e-05
3.00851e-05
6.85233e-05
0.000125952
0.000186685
0.000239193
0.000271721
0.000280442
0.000274745
0.000261563
0.000246562
0.000231391
0.00021624
0.000200698
0.000183834
0.000164201
0.000139788
0.000107651
6.62671e-05
2.94786e-05
1.46179e-05
2.08507e-05
6.3606e-05
6.36212e-05
1.09644e-05
8.01535e-06
3.54692e-05
0.000102765
9.26524e-05
4.5867e-05
2.48651e-05
2.19148e-05
2.94939e-05
4.16032e-05
4.02323e-05
2.478e-05
1.52717e-05
2.64669e-05
8.20804e-05
0.000187718
0.000242501
0.000255097
0.000264505
0.000254348
0.000241005
0.000228069
0.000215303
0.000202376
0.000189128
0.000175157
0.000159585
0.000140889
0.000116491
8.29056e-05
4.41687e-05
2.05626e-05
2.03717e-05
5.15738e-05
7.36853e-05
1.09339e-05
8.36441e-06
4.09995e-05
0.000106211
8.15673e-05
3.94967e-05
2.10389e-05
1.88221e-05
2.83091e-05
4.89765e-05
7.5123e-05
7.75642e-05
4.88861e-05
2.57288e-05
1.87071e-05
4.01032e-05
0.000102797
0.000184517
0.000239459
0.000256101
0.000250469
0.000235323
0.000217581
0.000200712
0.000185507
0.000171336
0.000157046
0.000141134
0.00012131
9.38719e-05
5.76647e-05
2.83264e-05
2.23203e-05
4.62182e-05
8.42897e-05
1.09726e-05
8.08786e-06
4.10436e-05
0.000104058
8.58304e-05
4.56112e-05
2.23269e-05
1.63046e-05
2.26239e-05
3.68708e-05
4.96245e-05
5.78267e-05
5.5751e-05
3.93096e-05
2.50951e-05
3.05517e-05
7.95289e-05
0.000152634
0.000208619
0.000232048
0.000232186
0.000221182
0.000206375
0.000191287
0.000177184
0.000164014
0.000150983
0.000136794
0.000119426
9.56533e-05
6.35817e-05
3.44503e-05
2.59495e-05
4.72019e-05
9.02714e-05
1.11107e-05
7.94554e-06
3.88941e-05
0.000101191
0.000106189
7.7133e-05
3.50326e-05
1.63349e-05
1.50998e-05
2.7325e-05
4.65963e-05
5.60659e-05
5.19017e-05
4.06548e-05
2.81789e-05
2.28116e-05
4.15938e-05
9.31364e-05
0.000145868
0.000181439
0.000197926
0.000199281
0.000191688
0.000180276
0.000168009
0.000155945
0.000143829
0.00013054
0.000114183
9.20778e-05
6.34011e-05
3.77435e-05
3.01209e-05
5.1975e-05
9.14114e-05
1.12699e-05
7.87743e-06
3.99861e-05
0.00010565
0.000110441
8.90652e-05
5.25528e-05
2.25157e-05
1.1404e-05
1.3644e-05
2.79531e-05
4.78186e-05
5.53842e-05
4.75762e-05
3.57952e-05
2.87369e-05
3.50216e-05
6.45236e-05
9.90411e-05
0.000129018
0.000154162
0.00016931
0.000172475
0.000167349
0.000158285
0.000147843
0.000136667
0.000123964
0.00010793
8.64652e-05
6.04428e-05
3.91415e-05
3.44738e-05
5.93294e-05
8.90403e-05
1.13941e-05
7.67392e-06
3.87603e-05
0.000105158
0.000118604
0.000109039
8.24583e-05
4.16218e-05
1.72966e-05
9.9556e-06
1.3736e-05
2.62466e-05
3.94729e-05
4.35281e-05
4.04776e-05
3.79912e-05
4.20906e-05
5.52442e-05
7.02112e-05
8.59904e-05
0.000106948
0.00012956
0.000144805
0.000148969
0.000145149
0.000137376
0.000127743
0.000116193
0.000101122
8.08093e-05
5.73301e-05
3.98884e-05
3.86427e-05
6.73131e-05
8.55443e-05
1.14952e-05
7.67014e-06
3.91352e-05
0.000107646
0.000122319
0.000113711
9.9234e-05
7.37547e-05
3.46831e-05
1.40027e-05
8.4074e-06
1.25941e-05
2.46125e-05
3.68401e-05
4.33732e-05
4.85423e-05
5.73834e-05
6.74002e-05
7.03028e-05
7.0862e-05
7.94163e-05
9.74486e-05
0.000117551
0.000130037
0.00013229
0.000127533
0.000119189
0.00010848
9.44679e-05
7.57479e-05
5.4793e-05
4.05091e-05
4.24536e-05
7.49366e-05
8.22204e-05
1.1607e-05
7.52037e-06
3.74074e-05
0.000106758
0.000125811
0.000115945
0.000100541
8.88057e-05
6.95539e-05
3.24347e-05
1.261e-05
7.04693e-06
1.07042e-05
2.2454e-05
3.73582e-05
5.22564e-05
6.96978e-05
8.53979e-05
8.54538e-05
7.34795e-05
6.87952e-05
7.76361e-05
9.59412e-05
0.000113294
0.00012118
0.000119479
0.000111933
0.000101139
8.7414e-05
7.02896e-05
5.23915e-05
4.14952e-05
4.6931e-05
8.36531e-05
7.83162e-05
1.17119e-05
7.51049e-06
3.57716e-05
0.000102052
0.000126839
0.000116933
9.56485e-05
7.97516e-05
7.44722e-05
6.29812e-05
2.97457e-05
1.12077e-05
6.22424e-06
1.05704e-05
2.39084e-05
4.39154e-05
6.84359e-05
9.28996e-05
0.000100946
8.52746e-05
6.81608e-05
6.61384e-05
7.84401e-05
9.7132e-05
0.00011035
0.000112544
0.000106189
9.50518e-05
8.09939e-05
6.50313e-05
5.02371e-05
4.30267e-05
5.24663e-05
9.31758e-05
7.38605e-05
1.17611e-05
7.58516e-06
3.53418e-05
0.000101731
0.000125471
0.000111986
8.72206e-05
6.84647e-05
6.16124e-05
6.39825e-05
5.46235e-05
2.4426e-05
8.9743e-06
6.40824e-06
1.42503e-05
3.45563e-05
6.64928e-05
0.000100904
0.000117759
0.000103793
7.67014e-05
6.22858e-05
6.57259e-05
8.16065e-05
9.89354e-05
0.000106365
0.000102438
9.15069e-05
7.70988e-05
6.16675e-05
4.89844e-05
4.48386e-05
5.80165e-05
0.000101079
7.03043e-05
1.17824e-05
7.6581e-06
3.42138e-05
9.80248e-05
0.000122822
0.000107777
8.13845e-05
6.26056e-05
5.42258e-05
5.29583e-05
5.45233e-05
3.86235e-05
1.62457e-05
7.10947e-06
9.90411e-06
2.64103e-05
6.09124e-05
0.000106561
0.000135756
0.000126853
9.40544e-05
6.70096e-05
5.9258e-05
6.80788e-05
8.55107e-05
9.85554e-05
9.92534e-05
9.00684e-05
7.59834e-05
6.07627e-05
4.8905e-05
4.63967e-05
6.19444e-05
0.000105887
6.85677e-05
1.18674e-05
7.81771e-06
3.45685e-05
9.9956e-05
0.000117215
9.23904e-05
6.38987e-05
5.03363e-05
4.76166e-05
4.86215e-05
4.78133e-05
3.9373e-05
2.1342e-05
9.5921e-06
1.04766e-05
2.75486e-05
6.75418e-05
0.000123947
0.000160912
0.000152392
0.000115356
7.87803e-05
5.99907e-05
6.02671e-05
7.38209e-05
8.97748e-05
9.54097e-05
8.87701e-05
7.54792e-05
6.07392e-05
4.95531e-05
4.82243e-05
6.58461e-05
0.000110816
6.75037e-05
1.20544e-05
7.89082e-06
3.49964e-05
0.000101698
0.00011215
8.015e-05
5.19458e-05
4.1284e-05
4.09817e-05
4.35621e-05
4.19035e-05
3.31367e-05
2.05677e-05
1.1673e-05
1.44151e-05
3.69494e-05
8.48951e-05
0.000145338
0.000181484
0.000172807
0.000134935
9.30092e-05
6.52436e-05
5.6999e-05
6.47298e-05
8.02219e-05
8.92883e-05
8.48415e-05
7.25926e-05
5.96245e-05
5.09063e-05
5.25379e-05
7.44471e-05
0.000119596
6.46249e-05
1.21971e-05
7.913e-06
3.60277e-05
0.000103913
0.000104316
6.64436e-05
4.14826e-05
3.38292e-05
3.47146e-05
3.69653e-05
3.43813e-05
2.63322e-05
1.80556e-05
1.45583e-05
2.34707e-05
5.44675e-05
0.000106371
0.000162241
0.000194651
0.000188329
0.0001526
0.000107997
7.31831e-05
5.67291e-05
5.7389e-05
6.94749e-05
8.05482e-05
7.87299e-05
6.83988e-05
5.86809e-05
5.45536e-05
6.17046e-05
8.97685e-05
0.000128125
5.9225e-05
1.20798e-05
7.85673e-06
3.63722e-05
0.00010423
0.000100101
6.02446e-05
3.68495e-05
2.98932e-05
3.01666e-05
3.06709e-05
2.70279e-05
2.05989e-05
1.61466e-05
1.87314e-05
3.50545e-05
6.87681e-05
0.000114621
0.000162235
0.000194026
0.000195551
0.000168175
0.000125651
8.55668e-05
6.04043e-05
5.22922e-05
5.77315e-05
6.89277e-05
7.25839e-05
6.62384e-05
5.98479e-05
6.05405e-05
7.41375e-05
0.000106047
0.000130013
5.38367e-05
1.17155e-05
7.86261e-06
3.64569e-05
0.000104686
9.94338e-05
5.78713e-05
3.45866e-05
2.74307e-05
2.70381e-05
2.68962e-05
2.33043e-05
1.80199e-05
1.57913e-05
2.16591e-05
3.99108e-05
7.03753e-05
0.00010879
0.000149164
0.000180375
0.000190995
0.00017783
0.000145984
0.000106265
7.264e-05
5.37143e-05
4.93775e-05
5.5487e-05
6.38261e-05
6.53415e-05
6.33884e-05
6.76472e-05
8.54586e-05
0.000116637
0.000128487
5.07195e-05
1.13442e-05
7.96905e-06
3.67288e-05
0.000106697
9.80152e-05
5.48245e-05
3.32786e-05
2.69668e-05
2.67347e-05
2.67791e-05
2.32432e-05
1.70575e-05
1.36284e-05
1.92014e-05
3.63034e-05
6.25971e-05
9.5516e-05
0.000131398
0.000162306
0.000179557
0.000179015
0.000161548
0.000131003
9.53906e-05
6.61989e-05
5.02983e-05
4.7084e-05
5.24181e-05
5.97847e-05
6.51585e-05
7.38598e-05
9.39841e-05
0.000122886
0.000128886
5.01785e-05
1.11593e-05
8.16752e-06
3.77252e-05
0.000110332
9.01927e-05
4.69594e-05
3.01421e-05
2.65716e-05
2.78002e-05
2.86567e-05
2.55456e-05
1.8563e-05
1.22089e-05
1.37835e-05
2.78985e-05
5.12639e-05
8.03792e-05
0.000112925
0.000142919
0.000163296
0.000170515
0.00016451
0.000146522
0.000118989
8.7952e-05
6.26862e-05
4.90162e-05
4.65144e-05
5.1674e-05
6.08304e-05
7.44574e-05
9.74833e-05
0.000126407
0.00013241
5.17712e-05
1.12088e-05
8.38661e-06
3.91797e-05
0.000113121
7.51701e-05
3.72758e-05
2.62059e-05
2.60026e-05
2.95232e-05
3.14245e-05
2.82989e-05
2.07368e-05
1.25557e-05
1.00907e-05
1.85452e-05
3.82609e-05
6.51966e-05
9.61387e-05
0.00012485
0.000144863
0.00015436
0.000154423
0.000146299
0.000130437
0.000107633
8.19095e-05
6.0859e-05
4.98231e-05
4.87696e-05
5.54689e-05
6.9477e-05
9.35345e-05
0.000124992
0.000137713
5.5099e-05
1.14747e-05
8.56408e-06
4.0849e-05
0.000112502
5.78123e-05
2.9169e-05
2.32383e-05
2.58906e-05
3.14177e-05
3.41105e-05
3.07654e-05
2.26037e-05
1.27241e-05
6.79211e-06
1.2294e-05
2.88515e-05
5.30565e-05
8.11108e-05
0.000106339
0.000123529
0.000132683
0.000136187
0.000135605
0.000130377
0.000118452
9.92379e-05
7.71735e-05
6.01365e-05
5.26597e-05
5.45945e-05
6.53983e-05
8.71894e-05
0.000120117
0.000142503
5.95905e-05
1.19144e-05
8.73773e-06
4.35866e-05
0.000104946
4.26668e-05
2.33987e-05
2.19298e-05
2.73226e-05
3.43559e-05
3.67971e-05
3.22653e-05
2.30137e-05
1.21332e-05
4.77476e-06
8.40159e-06
2.14062e-05
4.34306e-05
6.95197e-05
9.1116e-05
0.000104576
0.00011273
0.000119254
0.000124896
0.000127414
0.000123157
0.000109876
8.9945e-05
7.07637e-05
5.92139e-05
5.74621e-05
6.57856e-05
8.64306e-05
0.000120494
0.000147632
6.31947e-05
1.23831e-05
8.91969e-06
4.87581e-05
8.5163e-05
3.07223e-05
1.94397e-05
2.2031e-05
3.00286e-05
3.77316e-05
3.9281e-05
3.37128e-05
2.38342e-05
1.26465e-05
4.66618e-06
5.65926e-06
1.56914e-05
3.67685e-05
6.04838e-05
7.69792e-05
8.66487e-05
9.58373e-05
0.000107438
0.000118501
0.000124301
0.000122184
0.000111763
9.50244e-05
7.7514e-05
6.57835e-05
6.34832e-05
7.24154e-05
9.52343e-05
0.000130633
0.000153584
6.33041e-05
1.26514e-05
9.00621e-06
5.67687e-05
6.02895e-05
2.26523e-05
1.73724e-05
2.42651e-05
3.4553e-05
4.079e-05
4.02256e-05
3.37037e-05
2.33607e-05
1.15162e-05
2.80241e-06
2.40144e-06
9.39298e-06
2.72107e-05
5.0092e-05
6.5166e-05
7.21676e-05
8.23761e-05
9.95763e-05
0.000115396
0.000120005
0.000114896
0.000105503
9.40825e-05
8.22925e-05
7.43168e-05
7.47389e-05
8.7042e-05
0.000113203
0.000146308
0.000155862
6.04115e-05
1.26126e-05
8.82326e-06
6.17303e-05
4.7624e-05
1.98113e-05
1.70538e-05
2.61683e-05
3.62734e-05
4.05557e-05
3.94273e-05
3.34251e-05
2.35687e-05
1.15268e-05
2.50936e-06
2.05388e-06
4.66525e-06
1.69516e-05
3.91661e-05
5.40685e-05
5.95155e-05
6.84771e-05
8.8754e-05
0.000112492
0.00011803
0.000107435
9.65229e-05
9.09438e-05
8.8261e-05
8.73089e-05
9.21885e-05
0.00010771
0.000133586
0.000158684
0.000152137
5.67575e-05
1.23138e-05
8.42117e-06
5.56053e-05
5.71348e-05
2.58453e-05
1.86342e-05
2.24932e-05
2.90935e-05
3.38043e-05
3.53972e-05
3.2737e-05
2.56412e-05
1.45841e-05
3.59575e-06
1.68582e-06
3.0624e-06
5.64641e-06
2.11401e-05
4.32383e-05
5.19735e-05
5.57092e-05
6.9295e-05
9.67743e-05
0.000119741
0.000113348
9.56237e-05
8.64345e-05
8.86474e-05
9.80469e-05
0.000111321
0.000129116
0.000149879
0.000164422
0.000144252
5.23727e-05
1.1764e-05
7.97152e-06
4.40296e-05
8.83792e-05
5.12797e-05
2.65274e-05
1.90536e-05
1.89138e-05
2.20631e-05
2.67944e-05
2.98738e-05
2.84281e-05
2.17258e-05
1.02044e-05
7.43556e-06
2.64219e-06
3.98859e-06
3.57808e-06
1.95173e-05
4.19104e-05
5.10714e-05
5.50215e-05
6.75764e-05
9.19034e-05
0.00011574
0.000115867
0.000101248
9.33935e-05
9.91229e-05
0.000116282
0.000138418
0.00015759
0.000165355
0.000134091
4.6919e-05
1.09623e-05
7.6522e-06
3.76332e-05
9.33149e-05
9.54774e-05
5.79006e-05
2.96111e-05
1.8527e-05
1.45553e-05
1.50096e-05
1.94636e-05
2.49551e-05
2.6343e-05
2.15556e-05
1.079e-05
8.08204e-06
3.06588e-06
1.26044e-06
1.50558e-06
1.37431e-05
3.51275e-05
4.98368e-05
5.57582e-05
6.34052e-05
7.77772e-05
9.85007e-05
0.000116076
0.000120501
0.00011938
0.000125287
0.000140766
0.000158244
0.000164248
0.000127683
4.31201e-05
1.02398e-05
7.47751e-06
3.5991e-05
9.73767e-05
0.00011734
0.000110569
7.29561e-05
3.64901e-05
1.94505e-05
1.19259e-05
1.00776e-05
1.36225e-05
2.07812e-05
2.5498e-05
2.36326e-05
1.49654e-05
3.02411e-06
8.36096e-07
3.32081e-06
3.15512e-06
6.73179e-06
2.42112e-05
4.3661e-05
5.54632e-05
6.13373e-05
6.78692e-05
8.08908e-05
0.000102901
0.000127695
0.000144267
0.000154177
0.000161988
0.000161951
0.00012802
4.3842e-05
1.01632e-05
7.5068e-06
3.66418e-05