/*--------------------------------*- C++ -*----------------------------------*\
| =========                 |                                                 |
| \\      /  F ield         | OpenFOAM: The Open Source CFD Toolbox           |
|  \\    /   O peration     | Version:  v2006                                 |
|   \\  /    A nd           | Website:  www.openfoam.com                      |
|    \\/     M anipulation  |                                                 |
\*---------------------------------------------------------------------------*/
FoamFile
{
    version     2.0;
    format      ascii;
    class       volVectorField;
    location    "16";
    object      U;
}
// * * * * * * * * * * * * * * * * * * * * * * * * * * * * * * * * * * * * * //

dimensions      [0 1 -1 0 0 0 0];


internalField   nonuniform List<vector> 
78750
(
(-0.581453 -0.267391 -0.236182)
(-0.511347 -0.236247 -0.233069)
(-0.493729 -0.19505 -0.22065)
(-0.422659 -0.162073 -0.203299)
(-0.340626 -0.138133 -0.175022)
(-0.304262 -0.133 -0.153784)
(-0.286457 -0.116742 -0.151297)
(-0.255089 -0.111151 -0.141392)
(-0.229516 -0.0994083 -0.138321)
(-0.202194 -0.0946537 -0.130759)
(-0.179413 -0.0860186 -0.126986)
(-0.157138 -0.0816115 -0.120831)
(-0.136653 -0.0755879 -0.11651)
(-0.117949 -0.0715445 -0.111311)
(-0.100284 -0.0670503 -0.106616)
(-0.0839795 -0.0635219 -0.101621)
(-0.0684571 -0.0601692 -0.0967679)
(-0.0543458 -0.0571411 -0.0917259)
(-0.0409174 -0.0544125 -0.0866381)
(-0.0286913 -0.0518678 -0.0814968)
(-0.0174236 -0.0494681 -0.0763639)
(-0.00720175 -0.0471403 -0.071317)
(0.00198389 -0.0448232 -0.0664184)
(0.0100737 -0.04245 -0.0616737)
(0.0171188 -0.0399434 -0.0570257)
(0.0231934 -0.0372443 -0.052393)
(0.0282534 -0.0343012 -0.0476975)
(0.0322254 -0.0310658 -0.0428941)
(0.0350123 -0.027495 -0.0379918)
(0.036491 -0.0235599 -0.0331044)
(0.0364659 -0.0192774 -0.0285548)
(0.0346813 -0.0148154 -0.0248035)
(0.0314708 -0.0102003 -0.022303)
(0.0287133 -0.000824407 -0.0235237)
(0.0139726 0.0723799 -0.0111581)
(0.0799012 -0.464853 -0.0211208)
(-0.114134 -0.281174 -0.110323)
(-0.0298149 -0.243781 -0.17887)
(-0.0769654 -0.230842 -0.214006)
(-0.0702207 -0.182767 -0.231678)
(-0.0800797 -0.149857 -0.235938)
(-0.0814256 -0.121699 -0.239768)
(-0.0821965 -0.0998664 -0.243051)
(-0.0807833 -0.0832499 -0.244046)
(-0.077788 -0.0696296 -0.244473)
(-0.0738315 -0.0588337 -0.243434)
(-0.0687179 -0.0497401 -0.241939)
(-0.063053 -0.0422387 -0.239558)
(-0.0566871 -0.0357928 -0.236741)
(-0.0499204 -0.0303245 -0.23335)
(-0.0428486 -0.025594 -0.229609)
(-0.0357148 -0.0214672 -0.225467)
(-0.0285087 -0.0177909 -0.220957)
(-0.0213184 -0.0144235 -0.216041)
(-0.0141895 -0.0112695 -0.210732)
(-0.00718463 -0.00825759 -0.205041)
(-0.000357589 -0.00531153 -0.198966)
(0.00621898 -0.00235079 -0.192486)
(0.0124854 0.000722294 -0.185548)
(0.0183866 0.00402164 -0.178055)
(0.0238335 0.00767675 -0.169863)
(0.0287079 0.011842 -0.160771)
(0.0328582 0.0166711 -0.150537)
(0.0360794 0.0223265 -0.138878)
(0.0380716 0.0289913 -0.125482)
(0.0383818 0.0368815 -0.110137)
(0.0365294 0.046336 -0.0929006)
(0.0323514 0.0592647 -0.0732557)
(0.0248481 0.0919317 -0.0467415)
(0.00742646 0.22044 -0.00723251)
(-0.042527 0.228638 -0.0813549)
(-0.0616861 0.0807947 -0.110103)
(-0.0857839 0.0685298 -0.10935)
(-0.0922803 0.0503319 -0.12061)
(-0.105547 0.038484 -0.129275)
(-0.108654 0.0342858 -0.136394)
(-0.112169 0.0303949 -0.1425)
(-0.111987 0.0285644 -0.147312)
(-0.110691 0.0273286 -0.151158)
(-0.107873 0.0267541 -0.15414)
(-0.104184 0.0266144 -0.156463)
(-0.0997438 0.0267709 -0.158277)
(-0.0947593 0.0271312 -0.15968)
(-0.089354 0.0275738 -0.16075)
(-0.0836364 0.0280481 -0.161533)
(-0.0775745 0.0284925 -0.162087)
(-0.0711449 0.028924 -0.162421)
(-0.0644449 0.0293844 -0.162511)
(-0.0575574 0.0299328 -0.162322)
(-0.0505271 0.0306077 -0.161855)
(-0.0434013 0.031466 -0.161098)
(-0.0362278 0.03258 -0.160028)
(-0.0290557 0.0340372 -0.158605)
(-0.0219379 0.0359473 -0.156772)
(-0.0149332 0.0384452 -0.154437)
(-0.00810924 0.0417029 -0.151476)
(-0.00154643 0.0459414 -0.147715)
(0.00464183 0.0514523 -0.142917)
(0.0102949 0.0586457 -0.136777)
(0.0151731 0.0680917 -0.128918)
(0.0188956 0.0806198 -0.11888)
(0.0210178 0.0979654 -0.105838)
(0.0209344 0.126422 -0.0871852)
(0.0170774 0.192525 -0.0564506)
(0.00417918 0.321112 -0.00989236)
(0.000733579 0.155896 0.000238982)
(0.00915081 0.0879777 0.082212)
(-0.0117007 0.0506727 0.117851)
(-0.0170234 0.0485094 0.0814701)
(-0.0291961 0.0482016 0.0249446)
(-0.0357119 0.0422144 -0.00563827)
(-0.0411149 0.0385421 -0.0245498)
(-0.0453283 0.0374438 -0.0390719)
(-0.0484331 0.0378358 -0.050635)
(-0.05051 0.0389928 -0.0600124)
(-0.0516879 0.0405477 -0.0677962)
(-0.052059 0.0422871 -0.0743916)
(-0.0517083 0.0440864 -0.080066)
(-0.0507114 0.0458767 -0.0850041)
(-0.0491402 0.0476273 -0.0893387)
(-0.0470597 0.0493318 -0.0931671)
(-0.0445276 0.0509889 -0.0965612)
(-0.0415944 0.0526155 -0.0995722)
(-0.0383027 0.0542447 -0.102234)
(-0.0346892 0.055922 -0.104567)
(-0.030788 0.0577097 -0.106578)
(-0.0266335 0.0596885 -0.108262)
(-0.0222625 0.0619605 -0.1096)
(-0.0177159 0.064654 -0.110556)
(-0.0130418 0.0679308 -0.111072)
(-0.00829897 0.071997 -0.111063)
(-0.00356169 0.0771192 -0.110407)
(0.00107561 0.0836471 -0.108937)
(0.00548594 0.0920613 -0.106423)
(0.00947629 0.10308 -0.102533)
(0.0127422 0.118 -0.0967101)
(0.0149182 0.139969 -0.087735)
(0.0153054 0.179438 -0.0722868)
(0.0125646 0.268832 -0.0443023)
(0.00265984 0.388987 -0.00322964)
(0.00254413 0.113966 0.0484199)
(0.000321863 0.138156 0.0902358)
(-0.0117033 0.144511 0.0880684)
(-0.0204191 0.141887 0.0568723)
(-0.0277749 0.131697 0.0228621)
(-0.032787 0.120367 0.00157972)
(-0.0371307 0.110955 -0.0129817)
(-0.0407389 0.103207 -0.0242663)
(-0.0435511 0.0967649 -0.0332733)
(-0.0455865 0.0914517 -0.0405316)
(-0.0469034 0.0871589 -0.0464653)
(-0.0475542 0.0837867 -0.0514035)
(-0.0475874 0.0812323 -0.0555844)
(-0.0470487 0.0793864 -0.0591813)
(-0.0459823 0.0781422 -0.062325)
(-0.0444317 0.0774034 -0.0651148)
(-0.0424415 0.0770915 -0.0676268)
(-0.0400567 0.0771518 -0.0699168)
(-0.0373204 0.0775574 -0.0720194)
(-0.0342715 0.0783123 -0.0739583)
(-0.0309487 0.0794524 -0.075747)
(-0.0273895 0.0810441 -0.0773822)
(-0.0236306 0.0831863 -0.0788504)
(-0.0197083 0.0860142 -0.0801275)
(-0.0156617 0.0897038 -0.0811773)
(-0.0115354 0.0944808 -0.0819477)
(-0.00738175 0.100639 -0.0823628)
(-0.00326573 0.108583 -0.0823111)
(0.000721651 0.118908 -0.0816219)
(0.00443131 0.132586 -0.0800113)
(0.00763333 0.151569 -0.0769352)
(0.0099987 0.1808 -0.0710633)
(0.010713 0.234757 -0.0587049)
(0.00871638 0.340834 -0.0340843)
(0.001302 0.440493 0.00110358)
(0.000935713 0.0895083 0.0625579)
(-0.00491481 0.136916 0.0866542)
(-0.0120221 0.144466 0.0818501)
(-0.0168616 0.143005 0.0665259)
(-0.0207655 0.136176 0.0480071)
(-0.0234414 0.127478 0.0332885)
(-0.0256231 0.119403 0.0220897)
(-0.0274849 0.112353 0.0128686)
(-0.0291131 0.106195 0.00482839)
(-0.0305585 0.10077 -0.00234788)
(-0.0318304 0.0959814 -0.0087861)
(-0.0329086 0.0917877 -0.0145487)
(-0.033773 0.0881567 -0.0196881)
(-0.0343786 0.0850559 -0.024248)
(-0.0346561 0.0824995 -0.0282819)
(-0.0345509 0.080522 -0.0318518)
(-0.0340349 0.0791687 -0.035031)
(-0.0330956 0.0784681 -0.0379154)
(-0.0317315 0.0784154 -0.0405647)
(-0.0299654 0.0790245 -0.0429983)
(-0.0278135 0.0803512 -0.0452559)
(-0.0252948 0.0824484 -0.0473768)
(-0.0224521 0.0853687 -0.0493676)
(-0.0193392 0.0892138 -0.0512201)
(-0.0160301 0.0941345 -0.0529005)
(-0.0125847 0.100347 -0.0543453)
(-0.00905751 0.108173 -0.0554953)
(-0.00549996 0.118061 -0.056276)
(-0.00198798 0.130699 -0.0565734)
(0.00134565 0.147314 -0.0561934)
(0.00430663 0.170619 -0.0547265)
(0.00658933 0.207719 -0.0510929)
(0.00735848 0.277509 -0.0420179)
(0.00600293 0.397535 -0.0224178)
(0.000672329 0.475026 0.0055247)
(0.00360871 0.0619788 0.0439135)
(0.00261399 0.138053 0.0666417)
(-0.00125475 0.144565 0.0680548)
(-0.00482585 0.140568 0.0643776)
(-0.00847347 0.133055 0.0578922)
(-0.0114974 0.124125 0.050445)
(-0.0139751 0.116044 0.0433642)
(-0.0159689 0.109724 0.0370374)
(-0.017521 0.105019 0.0313595)
(-0.01869 0.101463 0.0261077)
(-0.0195457 0.0985761 0.0211023)
(-0.020162 0.0959669 0.0162391)
(-0.0206056 0.0933745 0.0114743)
(-0.02093 0.0906821 0.00680093)
(-0.0211767 0.0878932 0.00224027)
(-0.0213734 0.0851333 -0.00214329)
(-0.0215235 0.0826528 -0.00627181)
(-0.021597 0.0806668 -0.010176)
(-0.0215366 0.0792742 -0.0138924)
(-0.0212615 0.0785833 -0.0173865)
(-0.0206843 0.0787573 -0.0206345)
(-0.0197699 0.0799874 -0.0236208)
(-0.0185086 0.0824641 -0.0263183)
(-0.0168751 0.0864639 -0.0287757)
(-0.0147789 0.0923202 -0.0311376)
(-0.0122114 0.100127 -0.0334504)
(-0.00931492 0.109811 -0.0356031)
(-0.00620085 0.121763 -0.0374816)
(-0.00300673 0.136872 -0.0389453)
(8.53769e-05 0.156792 -0.0397592)
(0.00282925 0.185136 -0.0394428)
(0.00483062 0.231166 -0.0367656)
(0.00506463 0.316912 -0.0285863)
(0.00377805 0.444428 -0.0120401)
(0.000163331 0.498011 0.00898753)
(0.00181655 -0.0146622 0.0208132)
(0.00685649 0.07753 0.0242292)
(0.00685055 0.103878 0.0233017)
(0.00567005 0.106183 0.0221422)
(0.00398435 0.102888 0.0209148)
(0.00181759 0.0968525 0.020101)
(-0.000467601 0.0890757 0.0201256)
(-0.00259303 0.0806848 0.0209841)
(-0.00441317 0.0727919 0.0222299)
(-0.00591467 0.0661302 0.0233768)
(-0.00717333 0.0609863 0.0241336)
(-0.00831729 0.0573712 0.0243695)
(-0.00951557 0.0551839 0.0240262)
(-0.0109565 0.0543105 0.0231013)
(-0.0127842 0.054654 0.02167)
(-0.0150007 0.0560779 0.01992)
(-0.017401 0.058297 0.0180724)
(-0.0196187 0.0608862 0.0162196)
(-0.021284 0.0635097 0.01429)
(-0.0221464 0.0660683 0.0121521)
(-0.0220656 0.0686594 0.00966983)
(-0.0209677 0.0714749 0.00674009)
(-0.0188816 0.0747666 0.00334293)
(-0.0161461 0.0787525 -0.000450709)
(-0.0133884 0.0837206 -0.00455978)
(-0.0109993 0.0905062 -0.00882865)
(-0.00892303 0.100249 -0.0129588)
(-0.00682284 0.113812 -0.0166881)
(-0.00442786 0.132029 -0.0198616)
(-0.00175505 0.156678 -0.0224022)
(0.000903209 0.192305 -0.0240786)
(0.00298166 0.250607 -0.0237739)
(0.00307962 0.354255 -0.0178265)
(0.00205687 0.482485 -0.00430745)
(-3.25424e-05 0.512045 0.0111493)
(-0.00297505 -0.0353218 0.0376288)
(-0.00336631 0.0397127 0.0394279)
(-0.000699867 0.0813615 0.0352848)
(0.00266284 0.0945776 0.0353073)
(0.00628534 0.0968693 0.0374584)
(0.0104066 0.093712 0.0408503)
(0.0147896 0.0869113 0.0447371)
(0.0190384 0.0782209 0.0482748)
(0.022834 0.0693105 0.0508597)
(0.0259347 0.0614574 0.0522695)
(0.0282058 0.0555911 0.052674)
(0.0295975 0.0525051 0.0525763)
(0.0300833 0.0528363 0.0527015)
(0.0297419 0.0563908 0.0537144)
(0.0287287 0.0616922 0.0557708)
(0.0272292 0.0662079 0.0581962)
(0.0254318 0.0675176 0.0597646)
(0.0234741 0.0648094 0.0595605)
(0.021396 0.0589457 0.057394)
(0.0191813 0.0514575 0.0534017)
(0.0170135 0.0439715 0.0477002)
(0.0152159 0.0380285 0.0401411)
(0.0133729 0.035119 0.0298906)
(0.00986603 0.0387005 0.0172268)
(0.00446322 0.0550955 0.00996004)
(9.31893e-05 0.0771257 0.00964042)
(-0.00165447 0.0953401 0.00895381)
(-0.00156971 0.111354 0.00596481)
(-0.000585203 0.129524 0.00157307)
(0.000802723 0.154512 -0.00312412)
(0.00223977 0.194125 -0.00704088)
(0.00331102 0.264168 -0.00875179)
(0.00283083 0.386346 -0.00541291)
(0.00177536 0.511654 0.00419704)
(0.000342051 0.520516 0.014316)
(-0.00376007 -0.0215289 0.0864658)
(-0.00244679 -0.00198063 0.115477)
(0.00440968 0.00742647 0.116441)
(0.014563 0.00811429 0.11385)
(0.026423 0.00323764 0.110681)
(0.0387647 -0.0037303 0.107413)
(0.0510133 -0.0104938 0.104067)
(0.0627458 -0.0159368 0.10064)
(0.073564 -0.0197215 0.0971458)
(0.0831287 -0.0219817 0.0935107)
(0.0912078 -0.0230795 0.0894853)
(0.0977004 -0.0234002 0.0846662)
(0.102652 -0.0231824 0.0786624)
(0.106224 -0.0224355 0.0713033)
(0.108622 -0.0209524 0.0627771)
(0.110003 -0.0184131 0.0536718)
(0.110402 -0.0145788 0.0448803)
(0.10975 -0.00942047 0.037249)
(0.107965 -0.00238054 0.0315506)
(0.104572 0.00856112 0.0298329)
(0.0995065 0.0211417 0.0313042)
(0.0936231 0.0276024 0.0288599)
(0.0862742 0.0499111 0.0433116)
(0.0736257 0.105784 0.0929994)
(0.0576092 0.132725 0.114784)
(0.0428554 0.11835 0.0909155)
(0.0312406 0.103643 0.0593821)
(0.023026 0.106057 0.0389971)
(0.0170456 0.123882 0.0265349)
(0.0131884 0.154992 0.0170571)
(0.0111712 0.201718 0.00896228)
(0.00969675 0.280866 0.00389131)
(0.00689463 0.417063 0.0057665)
(0.00441055 0.537652 0.0129852)
(0.00181046 0.531911 0.018911)
(0.00166473 -0.0587652 0.0464236)
(0.0121382 -0.102073 0.0527258)
(0.0246334 -0.124132 0.0477451)
(0.0386334 -0.137689 0.0410595)
(0.0528221 -0.144225 0.0340897)
(0.0663231 -0.144484 0.027026)
(0.0786298 -0.139631 0.0198846)
(0.0894597 -0.131083 0.0127414)
(0.0986921 -0.120231 0.00578133)
(0.10634 -0.108204 -0.000714396)
(0.112524 -0.0957399 -0.00645664)
(0.117377 -0.0831942 -0.0112715)
(0.120944 -0.070694 -0.0151786)
(0.12319 -0.0582733 -0.0183653)
(0.124074 -0.0459256 -0.0210519)
(0.123606 -0.0335984 -0.0233728)
(0.121852 -0.0211896 -0.0253493)
(0.118904 -0.00855681 -0.0268582)
(0.114832 0.00449422 -0.027567)
(0.109726 0.0180846 -0.0269145)
(0.104023 0.0318234 -0.0248958)
(0.0980872 0.0451659 -0.0224388)
(0.0911688 0.0616074 -0.0158679)
(0.0843819 0.0952602 0.0130989)
(0.0792192 0.138351 0.0586139)
(0.0717823 0.166903 0.0939395)
(0.0595223 0.174018 0.108009)
(0.0446892 0.168517 0.101435)
(0.0320737 0.166703 0.0825388)
(0.0233643 0.179927 0.0614027)
(0.0174548 0.217273 0.041259)
(0.0138632 0.300242 0.0239822)
(0.00988456 0.450637 0.0177271)
(0.00659062 0.568627 0.0213115)
(0.00322404 0.55363 0.023766)
(0.0024861 -0.144124 0.0189734)
(0.0101474 -0.219731 0.0158656)
(0.0178784 -0.240657 0.0112912)
(0.0255293 -0.243631 0.00690542)
(0.0333565 -0.236926 0.00186655)
(0.0410592 -0.222917 -0.0044341)
(0.0483307 -0.203355 -0.012275)
(0.0549068 -0.180333 -0.0216344)
(0.0604546 -0.156309 -0.032164)
(0.0645701 -0.13376 -0.0430282)
(0.067154 -0.114227 -0.0530671)
(0.0686411 -0.0976499 -0.0614882)
(0.0695826 -0.0830028 -0.0681367)
(0.0703299 -0.0692142 -0.0731876)
(0.0710001 -0.055451 -0.0768847)
(0.0715739 -0.0410521 -0.0793872)
(0.0719524 -0.025437 -0.0806819)
(0.0719569 -0.00814494 -0.0805799)
(0.0714102 0.0109452 -0.0786994)
(0.0702792 0.0313557 -0.0747922)
(0.0685627 0.0522946 -0.0688788)
(0.0662207 0.0736199 -0.0607228)
(0.0631663 0.0966984 -0.0481376)
(0.059931 0.123884 -0.0261313)
(0.0575002 0.15395 0.00581395)
(0.0551257 0.181107 0.0416751)
(0.0500604 0.199322 0.0731533)
(0.0418698 0.207115 0.0909892)
(0.0326716 0.210375 0.0934898)
(0.0240324 0.218012 0.0844454)
(0.0168823 0.244326 0.0672833)
(0.0120861 0.323054 0.0450197)
(0.00793828 0.485371 0.030264)
(0.0049875 0.601994 0.0291206)
(0.00260531 0.578051 0.0273018)
(-0.00311216 -0.15429 0.0327407)
(-0.000926972 -0.23136 0.0412216)
(0.00353517 -0.254256 0.0399975)
(0.00883629 -0.261176 0.0380941)
(0.0146883 -0.258959 0.03627)
(0.0209147 -0.248818 0.0344752)
(0.0273935 -0.231069 0.0324079)
(0.0340372 -0.205885 0.0292778)
(0.0405494 -0.174094 0.0235868)
(0.0461012 -0.139185 0.0135661)
(0.0494966 -0.107839 -0.000971749)
(0.0502937 -0.0847991 -0.017325)
(0.0492056 -0.0690567 -0.0324478)
(0.047268 -0.0571207 -0.0451552)
(0.0452349 -0.0461851 -0.0554972)
(0.0434759 -0.034487 -0.0638546)
(0.0421379 -0.0208804 -0.0704666)
(0.0413124 -0.00471414 -0.0751951)
(0.0410029 0.0140193 -0.0775847)
(0.0410977 0.0346547 -0.0772168)
(0.041425 0.0563272 -0.0739191)
(0.0418091 0.0785611 -0.0675934)
(0.0421079 0.101536 -0.0577566)
(0.0422683 0.12603 -0.0431378)
(0.042349 0.153322 -0.021454)
(0.0417387 0.184161 0.0109379)
(0.0386082 0.213092 0.0501039)
(0.0327913 0.231185 0.0795179)
(0.0263643 0.239994 0.0912889)
(0.0202368 0.248824 0.0897631)
(0.0144366 0.273507 0.0779306)
(0.0100029 0.354671 0.0569562)
(0.00588949 0.524824 0.0388039)
(0.00324501 0.631295 0.0342694)
(0.00182855 0.596653 0.0285273)
(0.000846439 -0.156314 0.0127267)
(0.0130527 -0.294969 -4.41139e-05)
(0.02299 -0.340712 -0.0099475)
(0.0314161 -0.352984 -0.0154131)
(0.0381403 -0.350437 -0.0182439)
(0.0429601 -0.33896 -0.018283)
(0.0459529 -0.321104 -0.0145296)
(0.0478356 -0.296749 -0.00618193)
(0.0494053 -0.262719 0.00671359)
(0.051174 -0.214599 0.0212581)
(0.0525911 -0.155148 0.0293029)
(0.0520429 -0.0996722 0.0241516)
(0.0493287 -0.0605837 0.00925133)
(0.0457354 -0.0369633 -0.00804139)
(0.0422498 -0.0222644 -0.0236617)
(0.0393049 -0.0112958 -0.0365435)
(0.0369884 -0.00113755 -0.0468155)
(0.0352769 0.0098695 -0.0548924)
(0.0342177 0.0227695 -0.0609783)
(0.0338127 0.0380738 -0.0648519)
(0.0339699 0.0556813 -0.0660033)
(0.0344889 0.0752714 -0.0639032)
(0.035126 0.097021 -0.0578494)
(0.0356295 0.12223 -0.046163)
(0.0356911 0.153431 -0.0248426)
(0.0346441 0.190496 0.00994682)
(0.0315432 0.223623 0.050172)
(0.026983 0.242924 0.0786063)
(0.0223631 0.251932 0.0905032)
(0.0179518 0.260512 0.091093)
(0.0135638 0.285003 0.0824095)
(0.00981372 0.372682 0.0635697)
(0.00565813 0.554642 0.044245)
(0.00312018 0.650966 0.0373442)
(0.00199869 0.607337 0.0286993)
(0.00677255 -0.246354 -0.00652566)
(0.0213801 -0.362593 -0.022194)
(0.0294109 -0.378117 -0.0321639)
(0.0341697 -0.365324 -0.0410621)
(0.0369835 -0.336933 -0.0516418)
(0.0365656 -0.301693 -0.0621809)
(0.033613 -0.268189 -0.0690184)
(0.0294912 -0.239518 -0.0693798)
(0.0250836 -0.212527 -0.061474)
(0.0211106 -0.179386 -0.0438916)
(0.0185798 -0.132509 -0.0216027)
(0.0170443 -0.079674 -0.00834976)
(0.0157607 -0.038405 -0.00927426)
(0.0150386 -0.0135565 -0.0173256)
(0.0148712 0.000899618 -0.0261277)
(0.0150189 0.0108416 -0.0337713)
(0.0154425 0.0194414 -0.0402663)
(0.0161261 0.0284292 -0.0459584)
(0.0170491 0.0389139 -0.0509811)
(0.0182312 0.0515751 -0.0550446)
(0.0196527 0.0666009 -0.0574801)
(0.0212189 0.0839096 -0.0574417)
(0.0227842 0.103802 -0.0538343)
(0.0241793 0.127713 -0.0444909)
(0.0251572 0.158177 -0.0248603)
(0.0252283 0.194387 0.00824779)
(0.0238175 0.226208 0.0455056)
(0.021326 0.244977 0.0716416)
(0.0185732 0.254534 0.0838136)
(0.0157151 0.263835 0.0867606)
(0.0125538 0.289391 0.0818443)
(0.00933099 0.386401 0.0663549)
(0.00524154 0.578903 0.0474531)
(0.00291188 0.666177 0.039154)
(0.00210687 0.615504 0.0286699)
(0.00545363 -0.322594 0.00601043)
(0.0119572 -0.422773 0.00334315)
(0.0145737 -0.418415 -0.00160875)
(0.0143655 -0.378473 -0.00965463)
(0.0118323 -0.321191 -0.0215632)
(0.00856155 -0.267461 -0.034219)
(0.00591556 -0.224074 -0.0445925)
(0.00376191 -0.190268 -0.05101)
(0.00162992 -0.160991 -0.0532847)
(-0.00085249 -0.130266 -0.0509061)
(-0.00329967 -0.0940789 -0.043779)
(-0.00467496 -0.0575644 -0.0369927)
(-0.0043092 -0.0314095 -0.0350884)
(-0.00262823 -0.0155942 -0.0361465)
(-0.000380769 -0.00465046 -0.0381503)
(0.00208811 0.00471437 -0.0405744)
(0.00455231 0.0139172 -0.0432627)
(0.00692813 0.0237358 -0.0461024)
(0.00923595 0.034896 -0.0490106)
(0.0114592 0.0479659 -0.0517759)
(0.0135044 0.0631394 -0.0538783)
(0.0152617 0.0805396 -0.0544528)
(0.0166564 0.100956 -0.0520722)
(0.0176387 0.126369 -0.0438664)
(0.0181662 0.158881 -0.024808)
(0.0181971 0.19538 0.00684102)
(0.0175994 0.225273 0.0405803)
(0.0164843 0.242665 0.0637381)
(0.0151279 0.252478 0.0753966)
(0.0134968 0.26289 0.0797481)
(0.0112349 0.29108 0.0778248)
(0.00832634 0.400149 0.0659525)
(0.0041673 0.602325 0.0486588)
(0.00186931 0.680357 0.0398911)
(0.00164574 0.623507 0.0284665)
(0.00229575 -0.390513 0.0213646)
(0.00276098 -0.482395 0.0124156)
(0.00115548 -0.453353 0.00278938)
(-0.00440444 -0.371295 -0.00751289)
(-0.0127344 -0.302246 -0.0142616)
(-0.018471 -0.256775 -0.0185698)
(-0.0217525 -0.222391 -0.0218468)
(-0.0237115 -0.191513 -0.0245505)
(-0.0250178 -0.159788 -0.0268719)
(-0.025811 -0.124476 -0.0288112)
(-0.0255636 -0.0867691 -0.0303105)
(-0.0236084 -0.0548678 -0.0317979)
(-0.020464 -0.0346167 -0.033312)
(-0.0170261 -0.0213866 -0.0345953)
(-0.013522 -0.010766 -0.0358222)
(-0.0100389 -0.00088223 -0.0370946)
(-0.00671507 0.00906465 -0.0383675)
(-0.00359662 0.0197583 -0.0395758)
(-0.000673103 0.0321459 -0.0406659)
(0.00199096 0.0473453 -0.0414672)
(0.00421138 0.0660181 -0.0415082)
(0.00579144 0.0878981 -0.0399202)
(0.00667415 0.112589 -0.0352781)
(0.00702512 0.140411 -0.0252089)
(0.00721883 0.171008 -0.00707345)
(0.00773855 0.200303 0.0178278)
(0.00861039 0.222092 0.0415702)
(0.00945018 0.235572 0.0578201)
(0.0100187 0.245544 0.0670345)
(0.0101195 0.259399 0.071573)
(0.00912745 0.298208 0.0714186)
(0.0063896 0.426558 0.0624799)
(0.002369 0.628469 0.047315)
(0.000300248 0.693214 0.0387592)
(0.000684616 0.62855 0.0273945)
(-0.00740604 -0.377126 0.0291297)
(-0.0168742 -0.466219 0.0149545)
(-0.0205523 -0.406058 0.00541458)
(-0.0208167 -0.296933 -0.00199872)
(-0.0215992 -0.225812 -0.0069212)
(-0.026953 -0.190875 -0.0100226)
(-0.0333597 -0.166621 -0.0115915)
(-0.0392213 -0.142582 -0.0125596)
(-0.0433042 -0.117649 -0.0140415)
(-0.0448481 -0.094922 -0.0164909)
(-0.0438647 -0.0769601 -0.0191683)
(-0.0412708 -0.0626403 -0.0212984)
(-0.0378056 -0.0500443 -0.0229084)
(-0.0339442 -0.0383873 -0.02419)
(-0.0300712 -0.027311 -0.0251966)
(-0.0263783 -0.0163912 -0.0259091)
(-0.0229475 -0.00505697 -0.0262859)
(-0.0198316 0.00746321 -0.0262384)
(-0.0169721 0.0222233 -0.0255613)
(-0.0143125 0.0404203 -0.0238581)
(-0.0119363 0.0627838 -0.0205109)
(-0.00992654 0.0886181 -0.0149363)
(-0.00827889 0.115829 -0.00682592)
(-0.00676667 0.142397 0.00407966)
(-0.00500288 0.166789 0.0177752)
(-0.00273965 0.187152 0.0326876)
(-0.000121877 0.20235 0.0457856)
(0.00245589 0.21386 0.0553447)
(0.00462713 0.225366 0.0616966)
(0.00614624 0.24455 0.0656612)
(0.00631785 0.297824 0.066473)
(0.00399114 0.448873 0.0595688)
(0.000921378 0.648854 0.0458327)
(-0.000545947 0.701765 0.0375371)
(0.000117789 0.627296 0.0267253)
(-0.00913258 -0.304175 0.0349328)
(-0.0168173 -0.47844 0.0290973)
(-0.0190441 -0.486768 0.0382676)
(-0.0125467 -0.43818 0.0543335)
(-0.00349534 -0.296785 0.0653733)
(-0.00042169 -0.191385 0.0596715)
(-0.00442567 -0.141474 0.0460208)
(-0.00968525 -0.121083 0.0339634)
(-0.0140557 -0.11097 0.0252495)
(-0.0172655 -0.102321 0.0185886)
(-0.019415 -0.0918416 0.0128936)
(-0.0205254 -0.079344 0.00787293)
(-0.0207888 -0.0664711 0.0037134)
(-0.0204955 -0.0542838 0.000492152)
(-0.0198245 -0.0426139 -0.00190926)
(-0.01889 -0.0308566 -0.00359662)
(-0.0177955 -0.0183979 -0.00455242)
(-0.0165943 -0.00456412 -0.00462161)
(-0.0153961 0.0114951 -0.00350721)
(-0.0142746 0.0306273 -0.00072072)
(-0.0131239 0.0531675 0.00427066)
(-0.0118286 0.078222 0.0116363)
(-0.0103275 0.103475 0.020748)
(-0.00858015 0.126406 0.0304608)
(-0.00652147 0.145722 0.039836)
(-0.00415929 0.161367 0.0481772)
(-0.00164713 0.17421 0.0549216)
(0.000763822 0.186108 0.0599234)
(0.0027996 0.200504 0.0634416)
(0.00427319 0.226457 0.0657429)
(0.00466556 0.294486 0.0658927)
(0.00289952 0.463724 0.0596365)
(0.000825834 0.660359 0.046659)
(-0.00035302 0.705203 0.0386374)
(5.5923e-05 0.621202 0.0283671)
(0.00264997 -0.349266 0.0130354)
(-0.00150313 -0.534497 -0.00597769)
(-0.0113673 -0.584656 -0.00221164)
(-0.0210983 -0.576057 0.0160773)
(-0.0237806 -0.46381 0.0578577)
(-0.015739 -0.312978 0.087287)
(-0.00961367 -0.208212 0.0917032)
(-0.00503392 -0.150134 0.0839635)
(-0.00326673 -0.1207 0.0739801)
(-0.00315095 -0.102996 0.0645793)
(-0.00403418 -0.0898197 0.0559816)
(-0.00530452 -0.078562 0.0482983)
(-0.00653234 -0.0681646 0.0416513)
(-0.00751696 -0.058023 0.0359843)
(-0.0082265 -0.0476673 0.031145)
(-0.00868295 -0.0367347 0.0270351)
(-0.00892539 -0.0249316 0.0236654)
(-0.00899047 -0.0119569 0.0211555)
(-0.0088635 0.00254231 0.0197362)
(-0.00848728 0.0189353 0.0198146)
(-0.00781549 0.0373974 0.021912)
(-0.00678522 0.0576095 0.0264303)
(-0.0053814 0.0784068 0.0332218)
(-0.00368845 0.0980778 0.0413469)
(-0.00184837 0.115391 0.0495201)
(-1.52986e-07 0.130272 0.0567815)
(0.00172659 0.143664 0.0626842)
(0.00321121 0.157375 0.0671485)
(0.00435099 0.174997 0.0702574)
(0.00507838 0.206734 0.0719163)
(0.00518535 0.285609 0.0708773)
(0.00367663 0.468218 0.0639408)
(0.00191073 0.665229 0.0514438)
(0.000773908 0.707343 0.0436456)
(0.000687423 0.617199 0.0332956)
(-0.00348852 -0.35854 -0.00492029)
(-0.0234531 -0.428678 -0.0260781)
(-0.0421859 -0.427984 -0.0222165)
(-0.0605631 -0.420859 -0.00623535)
(-0.0706873 -0.412775 0.0196077)
(-0.0656338 -0.365016 0.0498943)
(-0.0541549 -0.301717 0.0715147)
(-0.0396193 -0.238217 0.084744)
(-0.0257547 -0.186887 0.0905293)
(-0.0139768 -0.148045 0.0914997)
(-0.00496543 -0.119435 0.0894285)
(0.00119758 -0.0984336 0.085466)
(0.00468755 -0.0826432 0.0804055)
(0.0060361 -0.069978 0.0748084)
(0.00590448 -0.0587393 0.0690518)
(0.0048611 -0.0476825 0.0634155)
(0.00341548 -0.0359982 0.0581179)
(0.00195498 -0.023201 0.0533284)
(0.000710356 -0.00903225 0.0492284)
(-0.000268275 0.00653454 0.0461059)
(-0.000735714 0.0232523 0.0443706)
(-0.000557495 0.040634 0.0443226)
(0.000116961 0.0579795 0.0461512)
(0.00111566 0.0745593 0.0496818)
(0.00224678 0.0899246 0.0543915)
(0.00332982 0.104198 0.0596535)
(0.00422767 0.118174 0.0649693)
(0.00485255 0.133471 0.0700124)
(0.00517826 0.153672 0.0745585)
(0.00523101 0.189457 0.0781011)
(0.00545776 0.275352 0.0783012)
(0.00481388 0.467925 0.0708642)
(0.00341561 0.666853 0.0587956)
(0.00227009 0.70898 0.051277)
(0.00156981 0.616616 0.0402309)
(-0.0149796 -0.23835 0.00157516)
(-0.0341782 -0.354009 -0.0110602)
(-0.0446589 -0.416108 -0.0156949)
(-0.0504804 -0.454397 -0.0201129)
(-0.0537435 -0.474826 -0.0220848)
(-0.0554245 -0.480669 -0.0169454)
(-0.0516053 -0.462084 -0.000960104)
(-0.0421525 -0.423094 0.0209766)
(-0.0289757 -0.372655 0.0432598)
(-0.0138044 -0.31735 0.0635297)
(0.00162134 -0.261571 0.0807749)
(0.015856 -0.208566 0.0943484)
(0.0277268 -0.161052 0.103694)
(0.0365198 -0.120945 0.108513)
(0.0419111 -0.089123 0.109004)
(0.0440032 -0.065156 0.105941)
(0.0432514 -0.0473274 0.10048)
(0.0403318 -0.0332377 0.0938202)
(0.0360792 -0.0205934 0.0870058)
(0.0314708 -0.00774733 0.0808059)
(0.0271875 0.00614615 0.0756905)
(0.0234746 0.0212021 0.0718053)
(0.0205486 0.0369725 0.0692876)
(0.0183423 0.0528085 0.0681777)
(0.0166758 0.0682052 0.0683801)
(0.0153578 0.0831267 0.06968)
(0.0142146 0.0982018 0.0718298)
(0.0131019 0.114911 0.0746405)
(0.0119415 0.136481 0.0780266)
(0.0107529 0.172346 0.0819048)
(0.0100627 0.256371 0.0846208)
(0.00965928 0.455655 0.0794326)
(0.00796815 0.6664 0.0675398)
(0.00596183 0.713931 0.0598958)
(0.0035151 0.623737 0.0476403)
(-0.00633244 -0.171894 -0.00576645)
(-0.0090813 -0.347301 -0.0311312)
(-0.0115677 -0.426664 -0.0493935)
(-0.0142354 -0.461055 -0.0588216)
(-0.0171587 -0.479837 -0.0640617)
(-0.0199271 -0.492765 -0.0678152)
(-0.0219355 -0.502008 -0.0699276)
(-0.0220581 -0.504092 -0.0683456)
(-0.0190484 -0.493774 -0.0609103)
(-0.0124032 -0.468762 -0.0473714)
(-0.00267264 -0.43097 -0.0290292)
(0.00937322 -0.383153 -0.00683035)
(0.022826 -0.328166 0.0182944)
(0.0366276 -0.268912 0.0449131)
(0.0496376 -0.208293 0.0710628)
(0.0607411 -0.149469 0.0943434)
(0.0689724 -0.0960511 0.112161)
(0.0736544 -0.0517805 0.122378)
(0.0745698 -0.0191876 0.124446)
(0.0720722 0.00221187 0.120031)
(0.0668367 0.0158531 0.112168)
(0.0597783 0.0259865 0.103865)
(0.0522193 0.0356177 0.097073)
(0.0452906 0.0458821 0.0923071)
(0.0393616 0.0570117 0.0892784)
(0.0343962 0.0691313 0.0875738)
(0.0303099 0.0826762 0.0868514)
(0.0270344 0.0989371 0.0868135)
(0.0244715 0.121116 0.0872453)
(0.0227459 0.157871 0.088061)
(0.0206916 0.238018 0.0883851)
(0.0181608 0.432933 0.0854619)
(0.014172 0.665249 0.0754087)
(0.0103337 0.727176 0.0676373)
(0.00568904 0.644789 0.0538509)
(0.000239958 -0.173084 0.00461546)
(0.00960829 -0.335105 -0.00496632)
(0.0171095 -0.41189 -0.0133545)
(0.0233743 -0.451122 -0.0192513)
(0.0285077 -0.471444 -0.0244784)
(0.0326997 -0.481285 -0.030122)
(0.0357935 -0.48443 -0.0371483)
(0.037614 -0.483133 -0.0463671)
(0.0382884 -0.478554 -0.0578766)
(0.03822 -0.470184 -0.0706086)
(0.0379842 -0.456317 -0.0824557)
(0.0382227 -0.435355 -0.0905829)
(0.0395739 -0.406831 -0.0920258)
(0.0425358 -0.371294 -0.0846734)
(0.0474005 -0.329361 -0.0677498)
(0.0541725 -0.281361 -0.041755)
(0.0624548 -0.227544 -0.00816673)
(0.0714244 -0.168643 0.0304643)
(0.079788 -0.106688 0.0701083)
(0.0859606 -0.0459508 0.104962)
(0.0885322 0.005862 0.127926)
(0.0869893 0.0410036 0.134964)
(0.0815781 0.0592179 0.1293)
(0.0732268 0.0674437 0.118932)
(0.0638936 0.0724936 0.11019)
(0.0553393 0.0774485 0.104709)
(0.0480645 0.0834825 0.101714)
(0.0420745 0.0919954 0.100261)
(0.0373729 0.106498 0.0995769)
(0.0345297 0.140498 0.0990433)
(0.0319225 0.236133 0.093941)
(0.025906 0.435274 0.0872985)
(0.0180511 0.683698 0.0789691)
(0.0119186 0.758845 0.071232)
(0.00635746 0.681528 0.0557173)
(0.00364988 -0.230405 -0.0013659)
(0.0225166 -0.423387 -0.020973)
(0.0401397 -0.512469 -0.0270632)
(0.0545306 -0.555317 -0.0275802)
(0.065708 -0.574347 -0.0264833)
(0.0747132 -0.579588 -0.0251219)
(0.0819896 -0.574522 -0.0239271)
(0.087495 -0.559587 -0.0233733)
(0.0909388 -0.534146 -0.0245756)
(0.0919808 -0.498813 -0.0292538)
(0.0906457 -0.456984 -0.0388233)
(0.0874062 -0.413459 -0.0536104)
(0.0828702 -0.372205 -0.0724536)
(0.0776221 -0.335577 -0.0924225)
(0.0722879 -0.304224 -0.109391)
(0.067561 -0.276968 -0.119703)
(0.06406 -0.250535 -0.120564)
(0.0626532 -0.220956 -0.108896)
(0.0642486 -0.185286 -0.0821334)
(0.0686789 -0.141516 -0.0406445)
(0.0749332 -0.0876574 0.0125042)
(0.0809149 -0.0244173 0.0707631)
(0.0841329 0.0383766 0.119461)
(0.0822627 0.0810421 0.139947)
(0.0755314 0.0980876 0.134829)
(0.0665043 0.101573 0.122585)
(0.0576311 0.101646 0.11359)
(0.0501948 0.102483 0.109051)
(0.044096 0.106203 0.107463)
(0.0386153 0.130422 0.107331)
(0.0360013 0.250754 0.100351)
(0.0271961 0.470532 0.0848791)
(0.0159248 0.721225 0.074764)
(0.0084975 0.796373 0.0666664)
(0.00451775 0.717878 0.0503442)
(0.00845676 -0.334927 -0.0189875)
(0.027699 -0.527028 -0.0348033)
(0.0427978 -0.587419 -0.0399244)
(0.0536364 -0.606284 -0.0419296)
(0.0613077 -0.609927 -0.0437016)
(0.0665311 -0.605426 -0.0463344)
(0.0694755 -0.594347 -0.0505066)
(0.0702117 -0.576041 -0.0570433)
(0.0686332 -0.54915 -0.0666727)
(0.0647924 -0.513997 -0.0782126)
(0.0596203 -0.472445 -0.0875724)
(0.0546377 -0.425755 -0.0914871)
(0.0508256 -0.37489 -0.0911408)
(0.0482048 -0.321828 -0.0911205)