/*--------------------------------*- C++ -*----------------------------------*\
| =========                 |                                                 |
| \\      /  F ield         | OpenFOAM: The Open Source CFD Toolbox           |
|  \\    /   O peration     | Version:  v2012                                 |
|   \\  /    A nd           | Website:  www.openfoam.com                      |
|    \\/     M anipulation  |                                                 |
\*---------------------------------------------------------------------------*/
FoamFile
{
    version     2.0;
    format      ascii;
    class       surfaceScalarField;
    location    "70";
    object      phi;
}
// * * * * * * * * * * * * * * * * * * * * * * * * * * * * * * * * * * * * * //

dimensions      [1 0 -1 0 0 0 0];
oriented        oriented;


internalField   nonuniform List<scalar> 
22800
(
-2.8052e-10
-2.80766e-10
-2.80492e-10
-1.55591e-10
-6.26155e-11
-6.27733e-11
-6.04033e-11
-4.72848e-11
-4.73569e-11
-3.33809e-11
-1.3667e-11
-1.38465e-11
-1.60194e-11
-8.72928e-12
-8.53919e-12
-9.58515e-12
-3.42911e-12
-3.05856e-12
-5.77068e-12
-1.8908e-12
-1.97442e-12
-3.70402e-12
-1.04285e-12
-8.41493e-13
-3.19359e-12
-6.54361e-13
-7.65898e-13
-1.85027e-12
-2.42193e-13
-4.78551e-13
-1.17368e-12
-4.18426e-13
-2.17954e-13
-1.50066e-12
-2.3258e-13
-1.62303e-13
-1.01845e-12
-2.26102e-13
3.54272e-14
-7.18795e-13
2.0027e-13
-6.28661e-14
-6.72163e-13
-2.53281e-13
4.6523e-13
-3.74043e-13
1.2741e-13
3.21028e-14
-5.41574e-14
1.00695e-13
-5.09773e-14
2.13794e-13
-4.88329e-13
4.88812e-13
-1.47722e-13
-1.43883e-13
-4.80811e-13
1.03657e-13
-1.24509e-13
-6.22546e-11
-1.55282e-10
-6.25773e-11
-4.81141e-11
-4.83005e-11
-2.91868e-11
-3.09455e-11
-3.87288e-11
-2.48427e-11
-2.13623e-11
-1.3814e-11
-1.04454e-11
-1.39622e-11
-8.94493e-12
-6.36539e-12
-9.7147e-12
-3.86994e-12
-3.06914e-12
-6.7581e-12
-2.50242e-12
-1.60366e-12
-4.68446e-12
-1.35406e-12
-7.6117e-13
-3.61166e-12
-1.21798e-12
-9.61414e-13
-2.51321e-12
-5.66878e-13
-2.65429e-13
-2.23584e-12
-4.26933e-13
-1.74079e-13
-2.18015e-12
-5.8811e-13
-9.97403e-14
-1.11568e-12
1.48294e-13
-1.65011e-13
-1.42907e-12
2.06587e-13
-1.6333e-13
-6.95671e-13
2.9986e-14
-1.52963e-13
-1.10927e-12
-3.70091e-13
-5.97104e-13
-6.5322e-13
2.97313e-13
-1.8767e-13
-4.47244e-13
-1.5197e-13
1.37305e-13
-3.03989e-13
2.22445e-13
-1.21447e-13
3.99714e-13
4.65519e-13
-4.73723e-11
-6.1214e-11
-4.76012e-11
-3.88435e-11
-3.12389e-11
-2.50917e-11
-2.86909e-11
-2.86023e-11
-2.1628e-11
-1.95264e-11
-1.28628e-11
-9.21062e-12
-1.33652e-11
-9.2642e-12
-6.19153e-12
-9.34275e-12
-4.42708e-12
-2.56977e-12
-6.38095e-12
-2.75834e-12
-1.69441e-12
-5.07996e-12
-2.2351e-12
-1.48525e-12
-3.85443e-12
-1.53233e-12
-6.57915e-13
-3.12403e-12
-9.27923e-13
-2.90934e-13
-2.37018e-12
-6.24448e-13
2.70065e-14
-1.87538e-12
-5.37645e-13
8.36411e-14
-1.36065e-12
-2.34528e-13
-1.39391e-13
-1.16145e-12
-3.55124e-13
-3.69548e-13
-1.07122e-12
1.70803e-14
-2.43137e-13
-4.49623e-13
2.03375e-13
-8.27084e-14
-1.4747e-13
5.74815e-13
-1.84302e-13
-4.06896e-13
-3.7556e-13
-2.67286e-13
-1.92538e-13
6.57559e-14
-8.67129e-14
-5.27202e-13
3.10117e-13
-1.35998e-11
-3.33481e-11
-1.3378e-11
-1.36105e-11
-2.11022e-11
-9.78574e-12
-1.31082e-11
-1.98267e-11
-9.2761e-12
-1.03773e-11
-1.05469e-11
-4.42926e-12
-8.41185e-12
-7.70519e-12
-3.22849e-12
-6.45063e-12
-4.45104e-12
-1.80347e-12
-5.40765e-12
-3.57237e-12
-1.68443e-12
-4.28952e-12
-2.24188e-12
-9.16149e-13
-3.19838e-12
-1.20675e-12
-2.96596e-13
-2.56391e-12
-1.12158e-12
6.64873e-15
-2.18982e-12
-9.67565e-13
-1.65286e-14
-1.6778e-12
-5.09315e-13
9.12451e-14
-1.81015e-12
-4.57755e-13
-2.11724e-13
-1.10642e-12
-5.73957e-14
-2.18949e-13
-9.31644e-13
-2.12549e-13
-3.71203e-13
-4.28103e-13
2.21192e-15
-9.45339e-14
-3.58721e-13
1.9286e-13
-2.98402e-13
1.06213e-13
4.82359e-14
-1.36684e-13
-2.23565e-13
2.87026e-14
1.30953e-13
-2.39628e-13
6.11982e-13
-8.57287e-12
-1.62206e-11
-8.91226e-12
-8.85536e-12
-1.37582e-11
-6.62898e-12
-9.55891e-12
-1.36583e-11
-6.42521e-12
-7.77708e-12
-8.19541e-12
-3.51815e-12
-6.95188e-12
-6.58218e-12
-2.55491e-12
-5.15896e-12
-4.30464e-12
-1.17935e-12
-4.56397e-12
-3.54506e-12
-1.22311e-12
-3.43481e-12
-2.21065e-12
-2.38625e-13
-2.77986e-12
-2.17673e-12
-3.16437e-13
-2.26451e-12
-1.36488e-12
-1.4919e-13
-1.91551e-12
-1.11542e-12
7.9889e-14
-1.88793e-12
-1.1907e-12
-3.80996e-13
-1.80137e-12
-4.44565e-13
1.50754e-13
-9.58212e-13
-5.48259e-14
1.69388e-14
-8.88308e-13
-6.32266e-13
3.68618e-14
-5.37298e-13
6.64592e-14
-1.7722e-13
-2.2262e-13
2.81663e-13
-1.29059e-13
-1.68425e-13
-2.08191e-13
-2.57055e-13
-4.14801e-13
-2.92792e-13
4.15204e-13
-3.75457e-13
7.60603e-15
-3.19239e-12
-9.57734e-12
-2.90334e-12
-4.36091e-12
-9.36515e-12
-3.10228e-12
-5.15641e-12
-9.21911e-12
-3.1844e-12
-4.88364e-12
-6.31472e-12
-1.66747e-12
-4.52897e-12
-5.22635e-12
-1.45915e-12
-3.64151e-12
-4.10221e-12
-5.84067e-13
-3.3667e-12
-3.35988e-12
-7.43576e-13
-3.20838e-12
-2.09003e-12
-6.03695e-13
-2.12683e-12
-1.98227e-12
-2.9957e-13
-2.14674e-12
-1.50663e-12
-2.18372e-13
-1.80018e-12
-1.12827e-12
1.73231e-13
-1.54683e-12
-7.81787e-13
5.58275e-14
-1.16973e-12
-5.60146e-13
2.26817e-13
-8.99834e-13
-3.56308e-13
-2.73368e-13
-7.9102e-13
-6.19811e-13
-3.39434e-13
-1.35448e-13
1.50339e-13
2.05824e-13
-5.40651e-13
-4.42201e-14
-1.71738e-13
-5.30443e-15
-2.31142e-13
-1.75939e-13
1.13871e-13
-1.62226e-13
3.22821e-13
-4.45498e-13
1.52659e-13
-1.85071e-12
-5.5387e-12
-1.80336e-12
-2.94604e-12
-7.17075e-12
-2.02363e-12
-3.40181e-12
-6.78638e-12
-1.8313e-12
-3.2983e-12
-4.88134e-12
-1.43904e-12
-3.05467e-12
-4.36785e-12
-8.37586e-13
-2.66655e-12
-3.30965e-12
-8.08476e-13
-2.07753e-12
-2.55306e-12
-4.7785e-13
-2.16719e-12
-1.8716e-12
-6.59146e-13
-1.6071e-12
-1.78722e-12
-3.74506e-13
-1.37202e-12
-1.21253e-12
-2.04285e-13
-1.3274e-12
-1.20764e-12
-1.26797e-13
-1.42501e-12
-1.1798e-12
-2.31555e-13
-9.49873e-13
-5.9657e-13
-4.67676e-15
-4.25818e-13
-5.38695e-13
-2.01116e-13
-4.3888e-13
-1.51753e-14
-3.55039e-13
-3.326e-13
-5.64267e-14
4.00519e-14
-5.33096e-13
1.39306e-13
-5.68803e-14
-8.47577e-14
-4.40933e-13
3.74869e-14
-3.13186e-13
-2.89813e-13
-3.72573e-13
-5.18404e-13
-8.72739e-15
-1.44179e-12
-4.29222e-12
-1.00328e-12
-1.54283e-12
-4.64087e-12
-1.00049e-12
-2.2769e-12
-4.6129e-12
-1.09163e-12
-2.20086e-12
-3.75513e-12
-8.6598e-13
-2.21931e-12
-3.6126e-12
-5.3709e-13
-2.48374e-12
-3.31816e-12
-6.70916e-13
-1.95273e-12
-2.41845e-12
-2.70355e-13
-2.135e-12
-1.86595e-12
-3.35677e-13
-1.75965e-12
-1.30002e-12
-5.84513e-14
-1.19935e-12
-1.04266e-12
-1.90879e-13
-1.39601e-12
-8.38699e-13
1.19368e-13
-1.10806e-12
-7.45336e-13
-2.27613e-13
-1.25982e-12
-4.18778e-13
4.0634e-14
-6.33124e-13
2.0165e-13
2.04337e-13
-5.70623e-13
1.10103e-13
-1.45508e-13
-3.34613e-13
-3.58865e-13
-4.02072e-13
-4.49333e-13
-1.91956e-13
-3.87494e-14
1.47423e-13
-6.15019e-13
-3.30925e-14
-4.48786e-13
-2.45538e-13
2.49086e-15
-1.48244e-13
-1.75059e-13
-4.5265e-13
-2.5591e-12
-8.22663e-13
-7.623e-13
-3.65292e-12
-2.70325e-13
-1.54727e-12
-3.83128e-12
-5.62921e-13
-1.58013e-12
-2.94118e-12
-5.12692e-13
-1.67558e-12
-3.13546e-12
-6.92667e-13
-1.37597e-12
-2.25657e-12
-2.21639e-13
-1.42729e-12
-2.3443e-12
-4.37478e-13
-1.12027e-12
-1.56239e-12
-4.46393e-13
-1.16578e-12
-1.57887e-12
-2.23946e-13
-7.37901e-13
-9.26984e-13
3.00985e-13
-1.19896e-12
-1.25889e-12
-1.07057e-13
-7.57341e-13
-7.61079e-13
5.50136e-14
-5.96803e-13
-2.90558e-13
9.4593e-14
-3.0896e-13
-1.03607e-13
4.23643e-13
-7.31262e-13
-4.3679e-13
4.4273e-14
-2.56727e-13
-4.13196e-13
1.23821e-13
-3.01187e-13
-1.35953e-13
-4.41521e-14
4.63073e-14
3.8761e-13
3.07126e-13
-2.94949e-13
3.3253e-14
5.40478e-14
8.42129e-14
3.62359e-14
5.66041e-15
-1.69142e-12
-2.16455e-13
-4.86024e-13
-3.00963e-12
-5.71919e-13
-9.13413e-13
-3.27827e-12
-3.74742e-13
-1.57669e-12
-2.61929e-12
-5.51567e-13
-1.01459e-12
-1.75652e-12
-1.11086e-13
-1.51832e-12
-2.08449e-12
-1.09428e-13
-1.04307e-12
-1.32557e-12
1.38986e-13
-1.41796e-12
-1.51912e-12
-1.75885e-13
-9.29752e-13
-1.14826e-12
-1.86266e-13
-1.0625e-12
-1.22219e-12
1.31767e-13
-6.19839e-13
-7.85736e-13
5.03753e-14
-7.0471e-13
-9.55283e-13
2.8081e-13
-6.57403e-13
-8.93627e-13
-1.93624e-13
-3.98808e-13
-5.96408e-13
5.0832e-14
-5.18016e-13
-7.13723e-13
1.02223e-13
-1.79099e-13
-1.42124e-13
7.73146e-14
1.50565e-13
-2.88125e-14
-1.7126e-13
-3.42606e-13
-1.7108e-13
1.76975e-13
-1.41924e-13
7.91185e-14
-1.8311e-13
3.09299e-13
9.39343e-14
-2.14426e-13
-1.34903e-12
-2.44566e-13
-5.11315e-13
-2.20995e-12
-2.72095e-13
-6.97178e-13
-2.38541e-12
-8.03133e-14
-6.34506e-13
-1.89115e-12
1.74047e-13
-1.19425e-12
-2.10462e-12
-1.4062e-13
-9.75266e-13
-1.37947e-12
-2.69029e-14
-8.88244e-13
-1.32646e-12
-2.26304e-14
-9.81565e-13
-1.02564e-12
1.6546e-14
-1.07957e-12
-1.19232e-12
-3.65939e-13
-9.86092e-13
-8.01838e-13
-3.40228e-13
-7.08067e-13
-1.04445e-12
4.74902e-13
-6.2811e-13
-9.62697e-13
-1.47259e-14
-9.9524e-13
-7.69952e-13
-2.47025e-13
-7.46592e-13
-5.01793e-13
1.2008e-13
-2.27175e-13
-1.02075e-13
-1.95497e-13
-6.14136e-13
-7.15935e-13
-7.77674e-14
-1.01332e-13
-1.86178e-13
-3.5648e-13
2.0296e-13
-2.18501e-13
-1.20995e-13
1.41011e-13
-4.75566e-13
2.53412e-13
1.64555e-13
8.79772e-14
6.85917e-14
-1.02457e-12
2.57934e-13
-5.58017e-13
-2.06638e-12
2.6011e-13
-4.90159e-13
-1.47568e-12
5.34983e-14
-6.54631e-13
-1.56367e-12
2.34258e-13
-7.80797e-13
-1.33039e-12
-1.42123e-13
-1.30402e-12
-1.62023e-12
-4.52426e-13
-6.63461e-13
-1.04633e-12
-1.79045e-13
-1.1746e-12
-1.49216e-12
-5.898e-13
-7.01447e-13
-1.28325e-12
-5.81959e-14
-1.12143e-12
-9.19014e-13
-2.10965e-13
-3.89137e-13
-3.66709e-13
1.61877e-13
-7.63942e-13
-6.69871e-13
-2.27414e-14
-9.97992e-13
-1.10525e-12
-3.52582e-13
-5.24981e-13
-8.89964e-13
3.71598e-13
-7.39773e-13
-5.34777e-13
2.16687e-13
-8.87311e-13
-3.42698e-13
1.13783e-13
-1.60484e-13
1.94686e-13
1.02507e-13
-2.76666e-13
-5.03957e-13
1.00117e-14
5.27349e-13
2.01536e-13
4.99601e-13
-3.46315e-13
-1.32397e-13
-2.62072e-13
-1.18733e-12
-7.94876e-14
1.36731e-13
-1.39416e-12
1.57337e-13
-5.70528e-13
-1.27741e-12
-3.08295e-13
-1.07183e-13
-1.37332e-12
-1.30961e-13
-9.76e-13
-1.90235e-12
-3.68686e-13
-6.31913e-13
-8.95353e-13
1.51772e-13
-7.61794e-13
-9.09351e-13
-6.63848e-14
-6.72815e-13
-7.08697e-13
-2.06069e-13
-3.58997e-13
-6.13121e-13
1.88582e-13
-1.91989e-13
-4.95991e-13
1.75454e-13
-5.93545e-13
-8.63238e-13
3.70451e-14
-7.39129e-13
-7.97357e-13
5.41048e-14
-3.19697e-13
-1.2317e-13
-1.37416e-13
-1.11674e-13
-5.21435e-13
1.12943e-13
-1.02399e-13
-1.9136e-13
-1.03453e-13
-3.26564e-13
-3.26298e-13
-1.64605e-14
-3.4251e-13
1.64315e-13
-2.53383e-13
3.69098e-13
-1.11275e-13
1.45085e-13
-9.41885e-14
-4.82504e-13
-1.85046e-13
-3.27635e-14
2.2338e-13
5.08009e-14
-5.4129e-13
-1.48567e-13
-2.46595e-13
-1.01854e-12
-1.86835e-13
-2.08816e-13
-1.03192e-12
-1.2955e-13
-4.40702e-13
-7.31353e-13
-5.79402e-14
-7.6739e-14
-5.70491e-13
-1.39457e-13
-9.29629e-13
-1.04338e-12
1.34806e-13
-4.42941e-13
-8.63145e-13
4.34416e-13
-4.98943e-13
-8.42858e-13
1.20474e-13
-8.05866e-13
-5.84757e-13
-2.70922e-13
-7.14058e-13
-6.31337e-13
-2.27839e-14
-6.18403e-13
-4.19012e-13
2.83052e-14
-8.29613e-14
-1.85235e-13
-1.10906e-13
-5.85528e-13
-5.2005e-13
-4.79708e-13
-1.32109e-13
-3.39399e-13
-1.6622e-15
-1.30659e-13
-5.01132e-13
1.16328e-13
6.38554e-14
-2.03222e-13
2.37667e-13
-1.65953e-13
-1.42291e-13
5.38115e-14
1.13836e-13
-2.70557e-13
-3.28155e-13
4.12107e-13
-2.43388e-13
3.36409e-13
-6.21861e-13
-1.28341e-13
-1.63124e-15
-2.99947e-13
3.98301e-13
-3.19351e-13
-7.2127e-13
-2.92393e-15
-1.7126e-13
-5.49018e-13
3.77601e-13
-1.61469e-13
-6.37758e-13
2.60836e-13
-6.61107e-13
-6.97863e-13
-2.4618e-13
-7.08003e-13
-5.06684e-13
2.76563e-14
-7.3223e-13
-4.89724e-13
2.33108e-13
-5.28395e-13
-5.79712e-13
2.9943e-13
-9.18927e-13
-2.51132e-13
-2.85716e-14
-7.44123e-13
-4.50941e-13
1.88926e-13
-1.86919e-13
-5.91235e-13
8.71487e-14
-6.11765e-13
-5.85273e-13
-3.72279e-13
-4.63284e-13
-2.37424e-13
-3.11099e-13
-3.13464e-13
-1.45631e-13
1.53639e-13
1.80547e-13
-2.01153e-13
4.42917e-14
1.83562e-13
-4.11463e-13
7.60833e-14
2.93456e-13
2.62585e-13
-2.67466e-13
1.54928e-13
-4.59457e-13
1.03819e-13
1.57498e-13
-1.68266e-14
2.91939e-13
-2.96732e-13
2.97346e-13
-1.95481e-13
-6.77143e-13
8.30945e-14
4.35676e-14
-5.20436e-13
3.05591e-14
-2.77696e-13
-8.30244e-13
-1.51808e-13
-1.96604e-13
-4.09997e-13
-8.41842e-15
-3.96771e-13
-4.95846e-13
2.77673e-13
-8.0675e-13
-8.67828e-13
5.09747e-13
-7.82359e-13
-5.86654e-13
3.52257e-13
-6.26471e-15
-2.46109e-13
8.02632e-14
-7.34066e-13
-6.65171e-13
1.40602e-13
-3.50846e-13
-8.58432e-14
6.12677e-13
2.14245e-14
-8.93197e-14
1.06546e-13
-2.94194e-13
-5.13016e-13
8.49754e-14
-1.49363e-14
1.31758e-13
-1.97383e-13
-2.50664e-13
-3.42425e-13
-1.59208e-13
-4.27402e-13
-5.55205e-13
8.95881e-14
4.00423e-13
-1.78423e-13
1.80913e-13
-1.94277e-13
-2.60793e-13
-2.79719e-13
-1.3652e-13
-3.51672e-13
-3.59944e-14
1.73186e-13
-1.21868e-13
3.41574e-13
-2.66714e-13
2.22607e-13
3.15214e-13
-4.55834e-13
5.36624e-14
-2.08044e-14
-5.38754e-13
-1.90099e-13
-1.36573e-13
-5.58779e-13
7.46342e-14
-5.75494e-13
-8.70882e-13
-3.81275e-13
-4.91082e-13
-7.96123e-13
-9.85318e-14
-2.31029e-13
1.88997e-14
2.93363e-13
-2.8117e-13
-3.18953e-13
3.10959e-13
-1.40378e-14
-1.90297e-13
2.37628e-13
-3.23169e-13
-2.79202e-13
-9.19618e-15
-3.50092e-13
-5.58749e-13
9.76655e-14
-6.72776e-13
-2.93409e-13
-2.93598e-13
-9.10761e-14
-3.79458e-13
2.28837e-14
-1.82955e-13
-1.79604e-13
2.45937e-13
-2.71799e-13
-3.51097e-13
-1.89161e-13
-1.86923e-13
-1.30382e-13
2.8301e-13
-4.79674e-13
-9.83445e-14
-3.34788e-13
-1.04081e-13
2.9651e-13
4.58278e-13
-2.82455e-13
-6.33098e-13
2.75545e-13
-2.0087e-13
-4.98692e-13
-5.46869e-14
-1.64292e-13
-5.41554e-14
4.72092e-13
-4.32919e-14
-1.70432e-13
6.79682e-14
-2.75666e-13
1.3887e-14
2.4739e-13
-1.9659e-13
3.14262e-13
2.04918e-13
-2.28007e-13
-1.41388e-13
3.54847e-13
1.00945e-13
1.19689e-13
-4.54793e-13
-3.18133e-13
1.83651e-13
-3.26233e-13
1.00678e-13
4.67613e-13
-4.01355e-14
-4.89824e-14
3.64529e-13
-5.82001e-13
-2.31182e-13
1.55455e-13
1.36942e-13
-7.10911e-14
-3.82535e-14
-9.52335e-13
-3.24926e-13
-8.49504e-14
-4.29478e-13
-4.06611e-13
-8.80402e-15
-2.04781e-13
3.08898e-14
-1.14374e-13
7.73754e-14
-1.7945e-13
2.35034e-13
-3.44565e-13
1.37459e-13
-9.10981e-14
-2.33289e-13
3.0407e-13
-4.55306e-13
-2.66069e-13
-6.27656e-13
1.88486e-13
2.23233e-13
-3.89435e-13
-8.24256e-15
1.14339e-13
-3.12379e-13
-2.82424e-14
6.71303e-14
4.7243e-13
-1.23487e-13
1.78953e-14
-1.13775e-13
-2.94829e-13
5.55767e-14
-1.8718e-13
1.21094e-13
-3.60625e-13
1.25648e-13
2.888e-13
-2.23316e-13
-2.65924e-14
-4.44841e-13
-3.71847e-13
-3.9256e-14
-2.45335e-13
1.37442e-13
1.9719e-13
-5.52606e-13
-3.81457e-14
1.21586e-13
-5.35012e-13
8.76938e-14
7.55451e-14
-1.70039e-13
2.1873e-13
-2.11492e-13
1.80304e-15
1.59604e-13
2.20332e-13
-7.08356e-13
-5.54209e-13
-2.93919e-13
7.49261e-14
9.12199e-14
3.6178e-14
-3.21467e-13
3.60782e-13
5.84215e-14
-3.03171e-13
9.58939e-14
-4.61524e-13
-1.34085e-14
-1.34203e-16
2.32775e-13
-2.45563e-13
8.88066e-14
-3.78696e-15
1.99765e-13
1.62077e-13
8.81785e-13
8.4463e-15
-1.70511e-13
1.32338e-13
-6.67264e-14
-3.06578e-13
-1.25672e-13
2.76056e-13
2.04339e-13
8.12214e-14
1.04953e-13
-4.52007e-13
3.28822e-13
-9.34697e-14
1.09905e-13
-3.56538e-13
-5.01573e-14
-2.75057e-13
4.48496e-13
-3.16345e-13
1.27177e-13
1.23724e-13
1.02011e-13
-6.48992e-13
-6.54032e-13
-1.7283e-13
1.29972e-13
-4.35221e-13
-3.62115e-13
1.80203e-13
-3.87299e-13
-5.01567e-14
7.55502e-14
-2.66528e-13
1.94078e-13
-3.12583e-13
4.35435e-14
-3.46943e-14
3.05686e-13
1.37163e-13
3.77211e-13
5.17408e-14
1.46585e-13
-7.63928e-14
2.65772e-13
6.72207e-14
2.59931e-13
4.62716e-14
-6.22678e-11
-6.30134e-11
-1.55275e-10
-4.78044e-11
-2.91805e-11
-4.79105e-11
-3.11377e-11
-2.49252e-11
-3.90749e-11
-2.11242e-11
-1.02673e-11
-1.34016e-11
-1.35796e-11
-6.55206e-12
-8.93891e-12
-9.75746e-12
-3.41899e-12
-3.86193e-12
-6.78452e-12
-1.86438e-12
-2.57358e-12
-5.04933e-12
-6.25905e-13
-1.2489e-12
-3.8384e-12
-6.52129e-13
-8.18666e-13
-3.09031e-12
-3.6084e-13
-6.40874e-13
-2.19076e-12
-8.29585e-14
-3.56548e-13
-1.61014e-12
-1.15639e-13
-3.67209e-13
-1.15896e-12
-3.26183e-13
-2.07338e-13
-8.96883e-13
2.18505e-13
4.94834e-14
-1.06553e-12
-3.48179e-13
-1.92056e-15
-7.58664e-13
-3.41984e-13
5.48856e-15
-6.01324e-13
-4.05718e-13
2.33124e-13
-7.65813e-13
-1.31901e-13
9.60143e-14
-3.55298e-14
-1.29684e-13
1.12014e-14
2.02457e-13
1.75987e-13
-2.89879e-11
-4.84311e-11
-4.81687e-11
-2.87438e-11
-2.89773e-11
-2.8792e-11
-2.60311e-11
-2.5866e-11
-2.57407e-11
-2.07263e-11
-1.26481e-11
-1.2498e-11
-1.63913e-11
-8.78867e-12
-8.89299e-12
-1.2468e-11
-4.54539e-12
-4.96764e-12
-9.58177e-12
-3.7328e-12
-3.62262e-12
-7.71541e-12
-2.3401e-12
-2.20621e-12
-5.41284e-12
-1.38051e-12
-1.13913e-12
-4.60055e-12
-1.07486e-12
-7.70053e-13
-3.71254e-12
-7.70978e-13
-5.09719e-13
-3.01187e-12
-3.22196e-13
-4.81308e-13
-2.01573e-12
-1.38654e-13
-4.5096e-13
-2.16877e-12
-6.12076e-14
-2.92623e-13
-1.43197e-12
1.51019e-13
8.41133e-14
-9.1803e-13
1.39638e-13
-3.42337e-13
-6.19356e-13
-2.99241e-14
-5.10868e-13
-3.46994e-13
-4.61709e-13
-2.55464e-13
2.76581e-13
-3.16697e-13
-2.66521e-13
-1.24525e-13
-3.10329e-13
-2.47451e-11
-3.10565e-11
-3.90213e-11
-2.59378e-11
-2.61336e-11
-2.61863e-11
-2.50982e-11
-2.49787e-11
-2.32843e-11
-1.98765e-11
-1.41642e-11
-1.20381e-11
-1.56209e-11
-1.02504e-11
-8.63978e-12
-1.23605e-11
-6.13287e-12
-4.63439e-12
-9.48736e-12
-4.71159e-12
-3.55629e-12
-7.39451e-12
-3.21438e-12
-1.87186e-12
-5.73622e-12
-1.99647e-12
-1.39001e-12
-4.77366e-12
-1.52311e-12
-5.51298e-13
-3.62109e-12
-9.27816e-13
-4.39595e-13
-3.32266e-12
-5.27362e-13
-3.90426e-13
-2.13327e-12
-3.82679e-13
-1.39093e-13
-1.9865e-12
-5.75574e-13
-5.44243e-13
-1.63079e-12
-2.22993e-13
-4.60378e-13
-1.57841e-12
-7.17095e-14
-2.80883e-13
-1.06645e-12
-2.33607e-14
-4.08414e-13
-1.98176e-13
-1.72687e-13
-1.15906e-13
1.49245e-13
-1.76944e-13
1.14464e-13
3.07527e-13
-9.42422e-14
-1.01807e-11
-2.1383e-11
-1.41285e-11
-1.27659e-11
-2.10469e-11
-1.23119e-11
-1.44246e-11
-2.03097e-11
-1.18491e-11
-1.27467e-11
-1.33092e-11
-7.23449e-12
-1.10839e-11
-9.7513e-12
-5.86276e-12
-9.51806e-12
-6.53446e-12
-3.74945e-12
-7.85998e-12
-4.92509e-12
-2.55344e-12
-6.66608e-12
-3.15265e-12
-1.73454e-12
-4.95006e-12
-2.17225e-12
-1.21844e-12
-3.99462e-12
-1.96444e-12
-4.77274e-13
-3.44341e-12
-1.50536e-12
-3.94443e-13
-3.37055e-12
-1.26379e-12
-6.59747e-13
-2.56606e-12
-5.55006e-13
-1.58647e-13
-1.71169e-12
-4.27401e-13
-7.19707e-14
-1.31326e-12
-5.47695e-13
-1.03307e-13
-1.44143e-12
-6.92497e-13
-4.39931e-13
-7.55203e-13
-8.17562e-14
-1.5247e-13
-4.55642e-13
-2.0274e-13
-1.12703e-13
5.63394e-16
-5.34615e-14
-2.35673e-13
-1.27667e-13
-8.76612e-14
-6.61539e-12
-1.34543e-11
-9.4524e-12
-9.09947e-12
-1.6447e-11
-8.94542e-12
-1.07097e-11
-1.61592e-11
-8.32856e-12
-9.97623e-12
-1.09682e-11
-5.58447e-12
-9.31161e-12
-8.85716e-12
-4.21652e-12
-7.92066e-12
-6.50381e-12
-2.94529e-12
-6.69633e-12
-5.12678e-12
-2.24788e-12
-5.77067e-12
-3.33522e-12
-1.38958e-12
-4.89375e-12
-2.40039e-12
-6.44906e-13
-3.93022e-12
-1.89235e-12
-3.17424e-13
-3.46514e-12
-1.25136e-12
-6.63675e-13
-2.85899e-12
-1.05106e-12
-4.25328e-13
-2.13331e-12
-4.06087e-13
-3.07948e-13
-1.49076e-12
-1.11e-12
-5.05524e-13
-1.29321e-12
-5.43409e-13
-7.70894e-14
-1.1072e-12
-9.19612e-14
-4.7917e-14
-9.9066e-13
-4.49785e-13
-2.68641e-13
-5.49284e-13
-4.27206e-13
-2.38656e-13
-3.59851e-13
-1.10339e-13
-2.24943e-14
-6.15722e-15
-2.49644e-13
-3.23341e-12
-9.16854e-12
-4.18775e-12
-5.25568e-12
-1.22254e-11
-4.56027e-12
-6.13628e-12
-1.16193e-11
-4.70009e-12
-6.77265e-12
-9.75328e-12
-3.53121e-12
-6.51242e-12
-7.56597e-12
-3.17993e-12
-5.8516e-12
-6.13376e-12
-2.12612e-12
-4.91142e-12
-4.61029e-12
-1.39495e-12
-4.47371e-12
-3.1804e-12
-1.208e-12
-3.83495e-12
-2.72106e-12
-9.22854e-13
-3.27629e-12
-2.19697e-12
-6.89312e-13
-3.18435e-12
-1.95705e-12
-6.00151e-13
-2.46563e-12
-1.3298e-12
-6.47932e-13
-2.33162e-12
-9.45348e-13
-7.23302e-13
-1.10721e-12
-7.70447e-13
1.70881e-13
-1.10318e-12
-3.62854e-13
-1.6205e-13
-9.84319e-13
-4.04067e-13
2.51395e-16
-7.06789e-13
-5.26633e-15
-6.37002e-14
-5.74998e-13
1.02348e-13
9.7758e-14
-4.72434e-13
-4.39347e-13
-5.31985e-14
3.93753e-14
-1.72415e-13
-1.92676e-12
-6.39208e-12
-2.82785e-12
-3.38638e-12
-9.69711e-12
-3.70263e-12
-4.64517e-12
-9.41575e-12
-3.65025e-12
-4.52599e-12
-8.01186e-12
-2.73823e-12
-5.22791e-12
-6.68284e-12
-2.23146e-12
-4.44541e-12
-5.05016e-12
-1.55093e-12
-4.47026e-12
-4.23137e-12
-1.61046e-12
-3.98056e-12
-3.0861e-12
-1.1403e-12
-3.1992e-12
-2.15736e-12
-1.22943e-12
-3.04185e-12
-1.85267e-12
-1.86512e-13
-2.331e-12
-1.34188e-12
-3.40848e-13
-2.11754e-12
-1.33657e-12
-5.58009e-13
-1.87417e-12
-1.0569e-12
-6.007e-13
-1.3865e-12
-1.07152e-12
-3.74823e-13
-1.18214e-12
-4.89774e-13
-3.93651e-13
-1.08775e-12
-4.1562e-13
5.64052e-14
-6.85288e-13
-2.18767e-13
2.60623e-13
-8.32277e-13
-3.06266e-13
-2.28463e-13
-1.1219e-13
-2.96252e-13
-1.65163e-13
-7.30075e-14
-2.24759e-13
-1.37524e-12
-5.24602e-12
-1.2523e-12
-1.9192e-12
-7.09541e-12
-1.79936e-12
-3.3549e-12
-7.68017e-12
-2.45566e-12
-3.10742e-12
-6.20319e-12
-1.93179e-12
-3.48747e-12
-5.58437e-12
-1.32576e-12
-3.72806e-12
-4.37915e-12
-9.65614e-13
-3.61041e-12
-3.48299e-12
-6.03525e-13
-3.10744e-12
-2.93131e-12
-5.31214e-13
-3.0369e-12
-2.35398e-12
-1.19109e-12
-2.08888e-12
-1.49735e-12
-5.00517e-13
-2.38349e-12
-1.66129e-12
-4.53995e-13
-1.89037e-12
-1.28814e-12
-3.17249e-13
-1.46565e-12
-8.60471e-13
1.94053e-13
-1.82397e-12
-9.43797e-13
-2.282e-13
-1.55201e-12
-3.96106e-13
-5.16628e-14
-9.46793e-13
-2.76085e-13
-3.38411e-13
-6.35166e-13
-5.82234e-13
-5.6972e-13
-3.91132e-13
-5.00025e-13
-3.58066e-13
-1.21961e-13
-3.59571e-13
-2.0547e-13
-1.15811e-13
-5.07785e-13
-9.84684e-14
-3.49305e-12
-8.69155e-13
-1.28948e-12
-6.30311e-12
-1.07087e-12
-1.92615e-12
-6.05533e-12
-1.52338e-12
-2.69126e-12
-5.63065e-12
-1.51593e-12
-2.3958e-12
-4.33566e-12
-9.54002e-13
-2.64534e-12
-3.77335e-12
-5.06086e-13
-3.07122e-12
-3.37089e-12
-5.45052e-13
-2.55954e-12
-2.54426e-12
-1.11882e-12
-2.39607e-12
-2.49798e-12
-6.97565e-13
-1.91612e-12
-1.65834e-12
-4.27687e-13
-1.71296e-12
-1.5834e-12
-4.37729e-13
-1.40111e-12
-1.08462e-12
1.07364e-13
-1.00422e-12
-1.01926e-12
2.96054e-13
-9.43246e-13
-9.38985e-13
9.28781e-14
-8.64567e-13
-7.55919e-13
2.26866e-13
-7.06305e-13
-7.49326e-13
-2.92998e-13
-3.1415e-13
-8.71578e-13
-4.92709e-13
1.48349e-13
-2.88399e-13
-1.80606e-13
-3.01721e-13
-4.49235e-13
-3.96459e-13
2.3299e-13
-1.28515e-13
-6.82516e-13
-2.86387e-12
-9.11409e-13
-4.1842e-13
-4.62069e-12
-5.87818e-13
-1.61144e-12
-4.68151e-12
-9.44869e-13
-1.98259e-12
-3.86821e-12
-2.62805e-13
-2.27483e-12
-3.12425e-12
-2.24374e-13
-2.57236e-12
-3.04057e-12
-7.00326e-13
-2.1891e-12
-2.74042e-12
-3.93198e-13
-2.16229e-12
-2.52205e-12
-6.36263e-13
-1.83968e-12
-2.11759e-12
-3.59594e-13
-1.85272e-12
-1.63946e-12
-3.92268e-14
-1.54568e-12
-1.1513e-12
-2.72302e-13
-1.37739e-12
-1.4306e-12
8.3267e-14
-1.12644e-12
-1.1453e-12
-1.36058e-13
-8.39374e-13
-7.15586e-13
-4.22816e-14
-1.03887e-12
-9.07002e-13
-1.28907e-13
-6.63168e-13
-4.15016e-13
-7.17962e-14
-4.53803e-13
-9.91625e-13
-9.42515e-14
-2.71708e-13
-5.55736e-13
-4.17571e-13
-1.96568e-13
-1.05153e-13
-2.13068e-13
-2.10301e-13
1.20565e-13
-3.13688e-13
-2.26803e-12
-4.75844e-13
-9.14458e-13
-3.63482e-12
-7.50235e-13
-1.13197e-12
-3.37948e-12
-5.28152e-13
-1.56292e-12
-3.0259e-12
-8.69484e-13
-1.90976e-12
-3.00812e-12
-8.21129e-13
-2.27809e-12
-3.25378e-12
-5.45992e-13
-1.89035e-12
-2.57251e-12
-5.34899e-13
-1.62084e-12
-2.38337e-12
-1.00829e-14
-1.48045e-12
-1.82259e-12
-3.87545e-13
-1.43484e-12
-1.50275e-12
-7.50251e-13
-1.5399e-12
-1.35489e-12
-1.96832e-13
-1.01938e-12
-6.50149e-13
3.37483e-13
-1.12435e-12
-9.23397e-13
-7.95572e-14
-7.87761e-13
-6.74545e-13
-2.08409e-14
-5.35394e-13
-9.64498e-13
-1.52427e-13
-1.04452e-12
-6.5384e-13
-5.58786e-13
-2.66512e-13
-4.43737e-13
1.26172e-13
3.32498e-13
-4.48528e-13
7.97475e-14
-3.01288e-13
-7.60761e-13
1.22935e-13
-2.2894e-13
3.16496e-13
-3.6607e-13
-1.83021e-12
1.64634e-13
-6.01891e-13
-2.87395e-12
-3.28057e-13
-5.09658e-13
-2.64102e-12
-4.82693e-13
-9.79533e-13
-2.61011e-12
-5.06164e-13
-1.19648e-12
-2.74497e-12
-5.44472e-13
-1.00791e-12
-2.02423e-12
-7.11711e-13
-1.41795e-12
-2.09341e-12
-7.41122e-13
-1.51253e-12
-1.73238e-12
-3.06016e-13
-1.5269e-12
-1.25107e-12
-1.64295e-13
-1.73806e-12
-1.46388e-12
-1.43555e-13
-1.36776e-12
-1.0999e-12
-2.06993e-13
-1.39401e-12
-9.66466e-13
-3.59478e-13
-1.24553e-12
-9.00463e-13
-3.13127e-13
-9.92909e-13
-8.09768e-13
2.93948e-13
-7.25924e-13
-9.90732e-13
1.28738e-13
-5.13322e-13
-5.72194e-13
-1.79347e-13
-7.47677e-13
-8.63756e-13
-4.71352e-13
-4.09364e-13
5.82007e-14
1.41027e-13
-4.75055e-14
-5.88269e-13
5.37284e-13
-2.31406e-13
6.21978e-14
-2.23433e-13
-1.69237e-12
-2.14512e-13
-3.9098e-13
-2.5633e-12
-1.50152e-13
-8.3625e-13
-1.91216e-12
-1.851e-13
-9.32891e-13
-2.13856e-12
-4.85494e-13
-9.4713e-13
-2.23094e-12
-4.63515e-14
-1.09141e-12
-1.91919e-12
-4.35348e-13
-1.17428e-12
-1.51681e-12
-1.68856e-13
-8.51923e-13
-7.36223e-13
-3.27408e-13
-1.30966e-12
-1.28373e-12
-5.59737e-13
-1.05621e-12
-1.08828e-12
-1.57619e-13
-1.06025e-12
-1.24657e-12
-2.35839e-13
-9.5359e-13
-1.42245e-12
-1.97887e-13
-8.27084e-13
-9.732e-13
-1.24995e-13
-8.96523e-13
-6.46398e-13
1.76357e-14
-7.92083e-13
-7.53693e-13
-1.70102e-13
-7.79139e-13
-3.71898e-13
-5.71585e-14
1.10119e-13
-5.86618e-13
-5.99049e-14
-6.27247e-13
-7.50734e-13
-4.44008e-13
7.80974e-14
-2.74231e-13
2.77968e-13
-2.73154e-13
1.36419e-13
-1.91673e-13
-7.16825e-13
-1.13498e-13
-3.36897e-13
-1.98322e-12
-4.92931e-14
-8.71874e-13
-1.51787e-12
-3.47355e-13
-7.9973e-13
-1.63007e-12
1.79933e-13
-4.30812e-13
-1.33565e-12
1.19708e-14
-7.42901e-13
-2.25354e-12
-3.12476e-13
-9.4419e-13
-1.18427e-12
8.62466e-14
-1.21216e-12
-8.37346e-13
-2.22914e-13
-9.55216e-13
-9.20537e-13
-2.68072e-13
-1.29266e-12
-1.08181e-12
-1.92385e-13
-1.02692e-12
-1.01917e-12
4.70022e-14
-9.6097e-13
-1.04128e-12
-6.0167e-14
-3.72452e-13
-3.70546e-13
-1.63532e-13
-4.48407e-13
-3.5699e-13
-3.03534e-13
-3.47451e-13
-5.611e-13
5.49558e-14
-5.68319e-13
-6.21688e-13
-4.45293e-13
-2.20451e-13
-7.19128e-13
2.49096e-13
2.0531e-13
-5.01737e-13
-2.947e-13
-4.4642e-13
-8.38245e-13
-3.38718e-13
-1.35472e-13
1.82079e-13
-1.90616e-13
-6.62725e-13
-7.86548e-14
-1.36655e-13
-1.53836e-12
-6.27524e-14
-4.20996e-13
-1.46569e-12
-3.05442e-13
-4.55378e-13
-1.20968e-12
-1.85166e-13
-8.13577e-13
-1.0409e-12
-3.026e-13
-7.89431e-13
-1.24191e-12
2.7032e-13
-1.11775e-12
-9.51785e-13
1.88811e-13
-1.02853e-12
-9.72057e-13
-1.89886e-13
-1.09137e-12
-1.22703e-12
-5.22733e-13
-1.31528e-12
-8.08892e-13
-2.59548e-13
-7.51754e-13
-5.67342e-13
3.47201e-13
-9.09658e-13
-7.24963e-13
-1.67842e-13
-1.53623e-13
-1.75373e-13
-1.06036e-13
-3.01595e-13
-9.66872e-13
-2.25147e-13
-4.67072e-13
-6.30224e-13
-4.13467e-13
-1.6168e-13
-2.53397e-13
1.13601e-13
1.44148e-13
-5.41332e-13
-1.22597e-13
8.00451e-14
-6.30903e-13
-3.68027e-13
-2.58092e-13
-4.45262e-13
-1.39166e-13
-2.73292e-14
3.7699e-13
7.62615e-14
-3.66721e-13
3.06021e-13
-4.05563e-13
-1.48396e-12
-5.25384e-13
-3.51236e-13
-9.4104e-13
-4.61211e-13
-2.62946e-13
-1.03653e-12
-3.96149e-13
-6.36602e-13
-1.03682e-12
-1.72712e-13
-9.39995e-13
-1.07906e-12
-6.68321e-14
-6.74211e-13
-9.54849e-13
-3.12095e-13
-5.40086e-13
-1.01112e-12
-3.19676e-13
-5.5841e-13
-1.07765e-12
-1.65826e-13
-7.82993e-13
-8.47459e-13
-2.32111e-13
-7.93594e-13
-8.58839e-13
-4.97593e-13
-6.31252e-13
-3.69239e-13
-2.28271e-13
-6.09264e-13
-9.08336e-14
-4.85153e-14
-1.50926e-13
-1.58599e-13
4.21961e-15
-5.0606e-13
-3.9985e-13
-1.97222e-13
-3.41386e-13
-4.39358e-13
-1.00039e-13
-4.09514e-13
-7.2108e-13
-4.47417e-13
-1.47577e-13
-2.10237e-13
1.47784e-13
-2.74759e-13
-3.56182e-13
2.77405e-13
-1.0652e-13
4.2598e-14
-8.40101e-15
-8.37566e-13
-3.68677e-13
1.72534e-13
-1.07389e-12
4.85778e-14
-4.89761e-13
-1.05727e-12
-8.94659e-14
-5.55477e-13
-9.13265e-13
-2.18157e-13
-5.6749e-13
-5.78372e-13
5.26224e-14
-9.49557e-13
-6.33896e-13
-1.47305e-13
-7.60855e-13
-1.4632e-13
-1.40796e-13
-3.94101e-13
-6.32078e-13
2.47827e-13
-5.23885e-13
-9.7176e-13
1.08826e-13
-7.13078e-13
-5.50133e-13
-3.88995e-14
-8.53102e-13
-6.5982e-13
-6.41352e-13
-6.84158e-13
-9.26762e-14
-2.8821e-13
-7.16066e-13
-6.07672e-13
4.19963e-14
-4.38418e-13
-4.57435e-13
-1.06147e-13
-3.77197e-13
-3.59382e-13
-4.53661e-13
-2.62772e-14
-7.08712e-13
-6.78195e-13
-1.28529e-13
-5.4454e-13
-1.70467e-14
-1.94275e-13
-7.87936e-13
-4.23896e-13
-2.12484e-14
-1.65521e-13
-2.00904e-13
1.73396e-13
-1.21349e-13
2.22112e-13
-4.15413e-13
-7.9587e-14
-3.48286e-13
-8.70477e-13
-1.2728e-13
-4.24692e-13
-6.39026e-13
3.27661e-14
-3.84942e-13
-6.40052e-13
-6.64672e-13
-1.26669e-13
-1.83404e-13
2.51259e-13
7.12399e-14
-1.42716e-13
5.38584e-14
-6.78171e-13
-4.04064e-13
-2.59388e-13
-2.2292e-13
1.68365e-14
5.81511e-13
-5.6685e-13
-9.37793e-13
3.89567e-14
-6.4025e-13
-5.1477e-13
-4.76124e-13
-5.21302e-13
-6.83966e-13
-1.75558e-13
-8.83472e-13
-3.22413e-13
-4.85562e-13
-4.02454e-13
-3.46564e-13
-4.32803e-13
-8.08863e-13
-5.74106e-13
5.7039e-14
-8.20111e-13
2.31203e-13
1.52119e-13
-1.10631e-13
2.90457e-14
7.81881e-15
-8.5439e-13
1.29747e-14
-2.14113e-13
-3.00583e-13
9.71794e-14
-6.64368e-15
-4.3374e-13
1.1822e-13
-6.74561e-14
1.37253e-13
1.94791e-13
3.86102e-13
9.60824e-14
-1.28742e-13
-1.15854e-13
-3.85566e-13
-4.56332e-13
-1.78173e-13
-2.76445e-13
-2.00701e-13
-5.8764e-14
-1.93561e-13
-4.56563e-15
-2.18009e-13
-2.08067e-13
-1.04878e-13
-3.03692e-13
3.41209e-13
4.4611e-13
-8.73554e-13
-2.53327e-13
-4.02049e-13
-7.39281e-13
3.51497e-14
6.72599e-14
-4.31037e-13
1.67433e-13
1.23114e-13
-7.51005e-13
-1.12166e-13
2.69437e-13
-5.01409e-13
-3.41119e-13
-2.92432e-14
-4.10901e-13
-1.65664e-13
5.69359e-14
-6.42856e-13
3.89164e-13
-1.26906e-14
-4.151e-13
1.23873e-13
9.17715e-14
-4.13331e-13
8.15752e-15
2.11633e-13
-9.70385e-14
7.44488e-14
1.26234e-13
-3.11551e-13
9.98926e-14
1.82819e-13
-4.53766e-13
-6.51366e-14
-3.21533e-13
-2.92135e-13
3.23197e-13
8.11255e-14
1.77121e-13
-2.33653e-13
3.6177e-13
-4.70185e-13
-5.69408e-13
-1.48567e-13
-2.46867e-13
2.54729e-13