/*--------------------------------*- C++ -*----------------------------------*\
| =========                 |                                                 |
| \\      /  F ield         | OpenFOAM: The Open Source CFD Toolbox           |
|  \\    /   O peration     | Version:  v2012                                 |
|   \\  /    A nd           | Website:  www.openfoam.com                      |
|    \\/     M anipulation  |                                                 |
\*---------------------------------------------------------------------------*/
FoamFile
{
    version     2.0;
    format      ascii;
    class       volVectorField;
    location    "70";
    object      U;
}
// * * * * * * * * * * * * * * * * * * * * * * * * * * * * * * * * * * * * * //

dimensions      [0 1 -1 0 0 0 0];


internalField   nonuniform List<vector> 
8000
(
(-8.45923e-08 -8.46092e-08 -8.45827e-08)
(-9.30846e-08 -1.69353e-08 -1.69906e-08)
(-2.14178e-08 -1.17233e-08 -1.17578e-08)
(-1.80794e-08 -3.35242e-09 -3.39255e-09)
(-5.98723e-09 -2.01173e-09 -2.01642e-09)
(-4.61689e-09 -7.64629e-10 -7.10308e-10)
(-2.23482e-09 -4.09627e-10 -4.15761e-10)
(-1.60095e-09 -1.82436e-10 -1.4973e-10)
(-1.11331e-09 -9.89301e-11 -1.15579e-10)
(-8.82121e-10 -3.18831e-11 -8.6101e-11)
(-4.6894e-10 -7.95707e-11 -6.69847e-11)
(-4.41985e-10 -5.52272e-11 -3.04763e-12)
(-4.165e-10 -1.82196e-11 2.39858e-11)
(-2.86289e-10 3.4758e-11 -4.5897e-11)
(-2.35203e-10 -2.0865e-11 8.49138e-11)
(-1.45103e-10 -2.91211e-12 -1.11713e-11)
(-5.3635e-11 2.89401e-12 -4.68475e-11)
(2.6223e-11 -6.0611e-11 9.22103e-11)
(2.29569e-11 -4.87267e-11 -1.02957e-10)
(-3.8525e-11 9.25843e-12 1.00868e-11)
(-1.68944e-08 -9.30831e-08 -1.69371e-08)
(-2.37612e-08 -2.38964e-08 -7.35038e-09)
(-1.04561e-08 -1.86682e-08 -6.01039e-09)
(-1.01036e-08 -5.63813e-09 -2.43931e-09)
(-5.01771e-09 -3.59036e-09 -1.37874e-09)
(-4.29201e-09 -1.37431e-09 -6.45142e-10)
(-2.58382e-09 -7.95995e-10 -3.095e-10)
(-1.96944e-09 -4.17223e-10 -1.66316e-10)
(-1.34375e-09 -3.25397e-10 -1.64947e-10)
(-1.00093e-09 -1.19121e-10 -1.91398e-11)
(-8.15875e-10 -1.51956e-10 -5.52838e-11)
(-7.61952e-10 -1.14885e-10 4.87038e-12)
(-5.27119e-10 -2.03073e-11 -3.38858e-11)
(-3.94552e-10 6.36639e-11 -1.76555e-11)
(-3.66582e-10 -5.99871e-11 -3.25404e-12)
(-2.85022e-10 -2.66777e-11 -1.01874e-10)
(-2.18444e-10 6.62044e-11 4.55378e-11)
(-1.94901e-10 -1.08709e-10 -5.39493e-12)
(-1.25076e-10 3.25445e-11 -1.26007e-11)
(-3.16198e-11 1.08893e-10 1.1735e-10)
(-1.17131e-08 -2.15073e-08 -1.17977e-08)
(-1.87172e-08 -1.05109e-08 -6.04981e-09)
(-9.45373e-09 -9.40674e-09 -5.0245e-09)
(-9.22721e-09 -4.09289e-09 -2.05376e-09)
(-4.80551e-09 -2.86635e-09 -1.2554e-09)
(-4.05777e-09 -1.39145e-09 -5.37184e-10)
(-2.50474e-09 -8.93683e-10 -3.06854e-10)
(-1.93479e-09 -6.40083e-10 -2.87039e-10)
(-1.4638e-09 -4.85975e-10 -6.50057e-11)
(-1.19871e-09 -2.28283e-10 -7.12957e-11)
(-9.31273e-10 -1.20596e-10 5.61328e-11)
(-6.81462e-10 -1.32653e-10 6.28617e-11)
(-5.45952e-10 2.45489e-11 3.46717e-11)
(-4.43033e-10 -3.14883e-12 -6.90603e-11)
(-3.77643e-10 3.29366e-12 -7.60647e-12)
(-2.20541e-10 -2.30223e-11 -2.58318e-11)
(-9.83282e-11 1.33295e-10 -3.90001e-11)
(-5.20525e-11 -9.12093e-11 -3.16044e-11)
(-8.08848e-11 5.9176e-11 -6.77294e-12)
(-6.52153e-11 -3.93925e-11 7.55133e-11)
(-3.31863e-09 -1.82261e-08 -3.27185e-09)
(-5.60409e-09 -1.01234e-08 -2.29487e-09)
(-4.13306e-09 -9.26611e-09 -2.07225e-09)
(-4.42787e-09 -4.46208e-09 -9.25304e-10)
(-2.96426e-09 -3.21178e-09 -6.40187e-10)
(-2.66308e-09 -1.64835e-09 -3.03801e-10)
(-1.91583e-09 -1.15608e-09 -2.75416e-10)
(-1.67522e-09 -8.01145e-10 -8.75517e-11)
(-1.24105e-09 -4.6089e-10 -5.26186e-11)
(-9.96356e-10 -3.58882e-10 1.22608e-11)
(-7.99592e-10 -2.89831e-10 -4.25279e-11)
(-6.35974e-10 -1.90498e-10 4.65087e-11)
(-5.91522e-10 -9.52207e-11 6.98125e-12)
(-5.00244e-10 -6.5012e-11 -3.67903e-11)
(-3.5984e-10 6.15474e-11 -8.05245e-11)
(-1.72662e-10 4.55611e-11 -1.92221e-11)
(-1.36964e-10 1.59351e-10 -4.42874e-11)
(-7.22266e-11 -7.27006e-13 -1.38434e-11)
(1.95084e-11 -5.70032e-12 5.19057e-11)
(-5.46762e-11 -1.04712e-10 1.64291e-10)
(-2.01807e-09 -6.02235e-09 -2.04942e-09)
(-3.51932e-09 -4.98375e-09 -1.45503e-09)
(-2.89496e-09 -4.94346e-09 -1.30889e-09)
(-3.2828e-09 -2.94397e-09 -7.43666e-10)
(-2.361e-09 -2.28874e-09 -4.53382e-10)
(-2.15692e-09 -1.40988e-09 -2.12923e-10)
(-1.59258e-09 -1.18182e-09 -1.73294e-10)
(-1.38566e-09 -7.51626e-10 -8.07113e-12)
(-1.02971e-09 -5.52853e-10 5.80956e-11)
(-8.41973e-10 -4.36365e-10 1.02337e-11)
(-7.44713e-10 -3.8632e-10 6.59653e-11)
(-6.06676e-10 -2.7185e-10 -5.49165e-11)
(-6.15498e-10 -1.79714e-10 6.16339e-11)
(-5.11042e-10 -2.33872e-12 7.54274e-12)
(-3.0232e-10 -1.85182e-10 4.65215e-11)
(-2.0479e-10 8.14051e-12 -3.91944e-11)
(-9.56505e-11 6.16817e-11 -3.28767e-11)
(-4.41453e-11 -6.31606e-12 -5.59646e-11)
(-1.07695e-10 1.56448e-11 1.39204e-10)
(-8.95204e-11 -9.26293e-11 3.74611e-11)
(-7.09861e-10 -4.64428e-09 -6.29588e-10)
(-1.41899e-09 -4.12772e-09 -6.36743e-10)
(-1.59837e-09 -4.05541e-09 -6.45988e-10)
(-1.87318e-09 -2.59843e-09 -3.16158e-10)
(-1.56433e-09 -2.07161e-09 -2.44434e-10)
(-1.42505e-09 -1.50768e-09 -7.11914e-11)
(-1.16501e-09 -1.25318e-09 -1.18004e-10)
(-1.16358e-09 -7.87989e-10 -8.72539e-11)
(-8.74574e-10 -7.67161e-10 -3.77273e-11)
(-7.15366e-10 -5.09822e-10 -4.844e-11)
(-6.68064e-10 -3.34756e-10 7.78385e-11)
(-5.93784e-10 -3.42222e-10 2.43559e-11)
(-4.36105e-10 -1.37237e-10 6.34154e-11)
(-3.60089e-10 -5.47872e-11 -3.07522e-11)
(-2.7407e-10 -2.19145e-10 -8.42774e-11)
(-9.09444e-11 5.32328e-11 1.79006e-11)
(-1.28775e-10 1.96708e-11 -8.25166e-12)
(-5.79244e-11 -6.63927e-11 -1.09631e-11)
(2.77811e-11 -8.00395e-11 1.09621e-10)
(1.73329e-12 -1.74715e-10 8.76638e-11)
(-3.69273e-10 -2.1825e-09 -3.90208e-10)
(-9.17797e-10 -2.62228e-09 -3.64557e-10)
(-1.07448e-09 -2.54181e-09 -3.23313e-10)
(-1.20286e-09 -1.80027e-09 -2.43832e-10)
(-1.08469e-09 -1.60469e-09 -1.20945e-10)
(-9.99996e-10 -1.26318e-09 -1.58305e-10)
(-8.00712e-10 -9.67786e-10 -4.22669e-11)
(-7.17246e-10 -6.19996e-10 -8.3069e-11)
(-6.29588e-10 -6.56166e-10 -6.52786e-11)
(-5.02806e-10 -4.46972e-10 2.065e-11)
(-4.54209e-10 -4.03024e-10 -2.10351e-12)
(-4.87675e-10 -3.67573e-10 2.9789e-11)
(-4.00362e-10 -2.12283e-10 3.08829e-11)
(-2.29648e-10 -1.58012e-10 -2.28766e-11)
(-8.54754e-11 -5.99037e-11 -4.45208e-11)
(-1.14166e-10 2.8781e-11 5.8367e-11)
(-1.58167e-10 1.77429e-11 -1.94553e-11)
(-9.50585e-11 -1.17894e-10 -2.27978e-11)
(-4.81587e-11 -9.98141e-11 -6.90196e-11)
(-3.98702e-11 -1.50714e-10 1.25211e-11)
(-2.67376e-10 -1.70687e-09 -2.41236e-10)
(-5.32877e-10 -2.02117e-09 -1.87041e-10)
(-6.87034e-10 -1.94497e-09 -2.09225e-10)
(-7.81671e-10 -1.49605e-09 -8.77658e-11)
(-7.44143e-10 -1.38906e-09 -7.4563e-11)
(-8.5426e-10 -1.14255e-09 -8.21341e-11)
(-7.17348e-10 -8.61432e-10 -5.17758e-11)
(-7.10935e-10 -6.60811e-10 -7.21311e-11)
(-6.63181e-10 -5.26883e-10 -1.24033e-11)
(-5.12898e-10 -3.7443e-10 4.69395e-12)
(-4.25743e-10 -3.54001e-10 2.41619e-11)
(-4.18551e-10 -2.86268e-10 9.05049e-12)
(-3.76612e-10 -1.44149e-10 1.32726e-11)
(-2.76458e-10 -1.88615e-11 1.37827e-11)
(-2.15079e-10 5.57181e-11 -6.05658e-11)
(-1.75334e-10 -7.4166e-11 -4.98116e-11)
(-1.09659e-10 1.18107e-11 2.21557e-11)
(-7.96413e-12 -1.62523e-10 1.8918e-11)
(-5.6663e-11 -1.12948e-11 -2.56227e-11)
(-8.76941e-11 -8.74172e-11 -2.73064e-11)
(-1.07259e-10 -1.08447e-09 -1.75019e-10)
(-1.96043e-10 -1.30137e-09 -2.72933e-11)
(-3.73944e-10 -1.3667e-09 -3.14971e-11)
(-5.84312e-10 -1.11997e-09 -2.9023e-11)
(-5.17254e-10 -1.12595e-09 -1.01822e-10)
(-5.41807e-10 -9.0779e-10 -2.25752e-11)
(-4.9358e-10 -8.30614e-10 -4.3144e-11)
(-4.64214e-10 -5.71275e-10 -1.09626e-10)
(-3.28e-10 -4.56293e-10 4.15468e-11)
(-2.93738e-10 -3.01116e-10 4.82164e-11)
(-3.74149e-10 -3.31625e-10 5.75687e-12)
(-3.0297e-10 -2.39083e-10 2.01386e-11)
(-2.47086e-10 -7.45932e-11 3.23069e-11)
(-1.20526e-10 1.22573e-11 9.12942e-11)
(-1.96006e-10 -6.74114e-11 -7.74374e-11)
(-1.24807e-10 -1.0887e-10 1.6833e-11)
(-6.11152e-11 -5.43477e-11 -2.61138e-11)
(-3.34454e-11 -2.71808e-11 1.20913e-10)
(-1.27857e-11 -6.32048e-11 5.94849e-12)
(-1.13686e-10 -2.34667e-11 1.93642e-11)
(-2.07459e-11 -7.04879e-10 -7.50167e-11)
(-6.04804e-11 -1.16843e-09 -2.13182e-11)
(-2.35907e-10 -1.22651e-09 2.76393e-12)
(-4.63549e-10 -9.21516e-10 -7.52892e-11)
(-4.07289e-10 -8.09424e-10 2.15608e-11)
(-4.8571e-10 -7.36029e-10 -6.67293e-11)
(-4.01965e-10 -5.87775e-10 4.77798e-11)
(-4.13187e-10 -5.2814e-10 -3.29138e-11)
(-4.13889e-10 -4.74438e-10 7.94844e-11)
(-3.19683e-10 -3.76737e-10 3.31253e-11)
(-3.01331e-10 -3.49465e-10 6.80856e-12)
(-1.94854e-10 -2.86663e-10 5.02179e-11)
(-2.7144e-10 -2.14619e-10 -3.8471e-11)
(-1.12718e-10 -1.18848e-10 1.30832e-11)
(-1.6999e-10 -1.90675e-10 8.68942e-12)
(-1.31917e-10 -8.69069e-11 1.59539e-11)
(4.37611e-11 -5.64818e-11 3.95172e-12)
(-4.66111e-11 5.91238e-11 7.85581e-11)
(-6.81081e-11 8.00965e-12 -3.5201e-11)
(-4.8189e-11 5.7579e-11 4.00854e-11)
(-6.72753e-12 -4.83708e-10 -1.2202e-11)
(-8.1905e-11 -8.7728e-10 -5.02543e-11)
(-2.11644e-10 -9.60281e-10 2.06381e-11)
(-2.20881e-10 -7.83261e-10 5.12728e-11)
(-3.22142e-10 -6.65296e-10 9.32092e-12)
(-3.56665e-10 -6.21727e-10 4.45433e-11)
(-3.16758e-10 -4.75285e-10 3.3327e-12)
(-3.08576e-10 -4.41139e-10 6.55875e-12)
(-3.32187e-10 -4.11065e-10 2.60136e-11)
(-3.74242e-10 -3.87934e-10 -4.39584e-11)
(-2.5793e-10 -2.88293e-10 1.09083e-10)
(-2.15699e-10 -2.70746e-10 3.34478e-11)
(-2.83124e-10 -2.73725e-10 -5.04533e-11)
(-2.68462e-10 -1.50582e-10 4.56865e-11)
(-1.69843e-10 -9.43074e-11 -3.79583e-11)
(-1.22665e-10 -1.32443e-10 3.10747e-11)
(-1.06718e-10 -6.37915e-12 -2.99258e-11)
(1.70023e-11 -3.99977e-11 1.14132e-11)
(9.28774e-11 -4.02447e-11 5.591e-11)
(-5.86513e-12 1.05909e-10 6.39497e-11)
(5.42856e-11 -3.71233e-10 1.68254e-11)
(-6.01843e-11 -7.0093e-10 6.20986e-11)
(-1.76962e-10 -6.54669e-10 1.57506e-11)
(-1.63959e-10 -5.81825e-10 1.02307e-10)
(-2.59608e-10 -5.76889e-10 -1.24844e-11)
(-3.45343e-10 -4.61174e-10 -4.74565e-11)
(-3.24848e-10 -3.93736e-10 1.99486e-11)
(-3.25116e-10 -4.02881e-10 -1.01032e-10)
(-3.20517e-10 -3.97254e-10 5.24805e-11)
(-3.20757e-10 -2.40636e-10 -6.35153e-11)
(-1.71979e-10 -2.80055e-10 4.18832e-11)
(-1.63316e-10 -2.64738e-10 -3.25691e-11)
(-3.2059e-10 -3.14796e-10 -9.56262e-12)
(-2.32389e-10 -2.40427e-10 1.05707e-10)
(-2.099e-10 -1.20479e-10 8.55979e-11)
(-2.65421e-10 -1.87002e-10 6.23806e-11)
(-1.86686e-10 -4.33655e-11 2.83358e-11)
(-7.6127e-11 -1.52016e-10 -3.89078e-11)
(7.79428e-11 -3.23437e-11 2.63593e-11)
(9.80642e-11 -3.25796e-11 -4.45777e-11)
(1.62047e-11 -4.05065e-10 -3.80785e-11)
(-5.16144e-12 -6.12718e-10 4.03591e-11)
(-8.93307e-11 -4.38174e-10 -5.84812e-11)
(-1.19017e-10 -4.82181e-10 -4.51483e-11)
(-1.84654e-10 -5.21233e-10 -8.33846e-12)
(-2.24752e-10 -4.03309e-10 2.32649e-11)
(-2.26022e-10 -2.97441e-10 1.21574e-11)
(-2.66298e-10 -3.64257e-10 -6.64448e-11)
(-1.5532e-10 -3.51251e-10 5.00198e-11)
(-4.63514e-11 -2.31952e-10 3.84968e-11)
(-1.71285e-10 -2.19674e-10 6.57403e-13)
(-2.31743e-10 -2.35404e-10 2.37638e-11)
(-1.61993e-10 -2.14473e-10 -2.62058e-11)
(-7.50823e-11 -2.40382e-10 6.44231e-11)
(-6.14429e-12 -9.21841e-11 -3.9427e-11)
(-8.13371e-11 -1.03135e-10 4.02904e-11)
(-8.98165e-11 1.06872e-10 1.28836e-11)
(-8.69519e-12 -7.67876e-11 1.55513e-11)
(4.94566e-11 -5.60842e-11 2.34138e-11)
(2.44859e-11 -6.16503e-11 5.26698e-12)
(1.24968e-11 -2.50735e-10 -2.82415e-11)
(-4.71718e-11 -4.05917e-10 -2.42291e-11)
(-4.23617e-11 -3.68292e-10 -1.71455e-11)
(-9.11795e-11 -3.65839e-10 3.02197e-11)
(-7.43033e-11 -4.46271e-10 -4.08573e-12)
(-1.64873e-10 -3.52782e-10 5.04522e-12)
(-2.47266e-10 -3.17394e-10 1.02815e-10)
(-1.38963e-10 -2.77989e-10 8.83707e-12)
(-2.29796e-10 -1.77042e-10 -2.62211e-11)
(-2.10169e-10 -2.23198e-10 6.80416e-12)
(-2.27967e-10 -1.45954e-10 -7.04818e-13)
(-1.23799e-10 -9.11342e-11 -4.73543e-11)
(-5.61786e-11 -1.00181e-10 -5.32959e-11)
(-1.36133e-10 -1.03242e-10 7.70536e-12)
(-5.76569e-11 -1.08524e-10 2.13241e-11)
(1.83457e-11 -2.3259e-11 3.10338e-11)
(-1.69406e-11 -1.65264e-11 -5.52142e-12)
(-3.8569e-11 -3.12649e-11 -8.94376e-11)
(1.14114e-10 -1.62914e-10 7.42911e-11)
(8.91561e-11 -1.0573e-10 -4.86541e-12)
(-1.35531e-12 -1.11641e-10 9.16562e-11)
(-6.18936e-11 -2.69552e-10 2.26747e-11)
(-6.16342e-11 -2.671e-10 1.16028e-10)
(-1.68803e-11 -1.86298e-10 9.49902e-11)
(-1.63857e-10 -1.86158e-10 -2.96986e-11)
(-1.69853e-10 -2.51364e-10 1.2733e-11)
(-2.78623e-10 -2.48454e-10 2.01152e-11)
(-2.43124e-10 -2.52499e-10 3.03131e-11)
(-2.2459e-10 -1.22199e-10 -1.71739e-11)
(-2.67519e-10 -1.56736e-10 5.38942e-11)
(-8.52832e-11 -1.81004e-10 5.63514e-11)
(-1.20997e-10 -1.23743e-10 -4.65169e-11)
(-1.53624e-10 -1.2484e-10 -2.78277e-11)
(-1.25282e-10 -1.18729e-10 6.1034e-11)
(1.74466e-11 -1.17269e-10 -1.82119e-12)
(3.87135e-11 -1.12001e-10 2.86898e-12)
(6.58072e-11 -1.98478e-11 -7.26333e-11)
(9.48036e-11 -1.53179e-10 7.50476e-11)
(3.82932e-11 1.02733e-11 2.21224e-11)
(1.12741e-11 -1.656e-10 9.27816e-11)
(-5.1592e-11 -1.84355e-10 6.41419e-11)
(-2.22796e-11 -2.20581e-10 4.39396e-11)
(-3.49657e-11 -2.53979e-10 -2.28595e-11)
(-3.8573e-11 -1.9591e-10 -6.82083e-12)
(-8.08523e-11 -1.70258e-10 2.89006e-11)
(-1.9236e-10 -2.22092e-10 8.4147e-11)
(-2.34473e-10 -1.57086e-10 6.86945e-11)
(-1.66006e-10 -7.13283e-11 -2.29872e-12)
(-9.01788e-11 -1.42228e-10 1.5661e-11)
(-1.56562e-10 -6.78178e-11 3.23549e-11)
(-6.84458e-11 -1.07771e-10 2.03047e-11)
(-1.97224e-11 -1.79666e-10 7.48002e-11)
(-7.0785e-11 3.01783e-11 -5.06256e-11)
(3.69992e-12 -2.25178e-11 -1.10526e-11)
(-1.26951e-10 -1.57382e-10 5.01516e-11)
(1.01943e-11 -9.53414e-11 -2.63202e-11)
(5.00447e-11 4.62008e-11 -9.28227e-12)
(-8.8863e-11 -9.11019e-11 -1.68401e-12)
(4.82054e-11 -3.15717e-11 -7.32937e-12)
(-7.37633e-12 -1.06712e-10 4.73578e-11)
(7.31589e-11 -1.68604e-10 1.33764e-12)
(7.80286e-11 -1.63793e-10 -5.08103e-11)
(-6.33366e-11 -2.1508e-10 3.43348e-12)
(-1.23563e-10 -2.37474e-10 -1.4888e-11)
(-1.59515e-10 -1.96109e-10 4.20409e-11)
(-9.94605e-11 -1.39421e-10 5.51517e-11)
(-8.79133e-11 -1.34301e-10 1.72261e-11)
(-4.87607e-11 -6.83007e-11 5.38853e-11)
(-4.59072e-11 -1.74678e-10 -2.26577e-11)
(-1.24153e-10 -1.18882e-10 5.80047e-12)
(-1.84405e-10 -6.80776e-11 -2.66783e-11)
(-1.25905e-10 -1.33367e-10 -1.78345e-11)
(1.63096e-11 -8.0255e-12 1.83397e-11)
(-1.12601e-10 -1.05191e-10 -7.23756e-11)
(-5.0613e-11 -7.37169e-11 8.93946e-11)
(-8.42221e-11 -5.55358e-11 -7.8397e-11)
(-1.063e-10 1.70846e-11 8.33588e-11)
(-9.4205e-11 -1.30718e-10 4.87851e-11)
(-9.36824e-11 -1.05825e-10 3.69168e-11)
(2.02714e-11 -6.2645e-11 3.16785e-11)
(1.19162e-10 -9.76205e-11 -8.41085e-11)
(7.6366e-11 -1.52296e-10 3.02154e-11)
(-4.57805e-13 -7.77434e-11 3.18314e-11)
(1.11946e-10 -1.29851e-10 1.84803e-11)
(1.09334e-10 -1.06411e-10 4.71156e-11)
(-9.2072e-11 -7.30988e-11 8.18107e-11)
(-9.04888e-11 -4.46878e-11 8.01491e-11)
(-4.48593e-11 -1.2951e-11 9.46608e-11)
(-1.09455e-10 -4.61703e-11 2.62814e-11)
(-2.58947e-11 -8.83339e-11 -4.1198e-11)
(-1.46231e-10 -7.57082e-11 4.26491e-12)
(-2.36562e-10 -1.23523e-10 3.45707e-11)
(-1.34079e-10 -6.61095e-11 -1.00722e-11)
(2.23391e-11 -1.07969e-10 9.17835e-11)
(-1.80015e-11 2.32538e-11 2.78595e-11)
(-1.36433e-10 3.68088e-11 -1.06929e-10)
(-7.01298e-11 -6.00524e-11 8.01612e-11)
(-5.18253e-12 -1.91342e-10 8.92915e-12)
(6.95449e-11 -1.28629e-10 -1.01062e-11)
(5.62547e-11 -1.8391e-11 9.13425e-11)
(-5.37003e-11 6.10398e-12 5.54335e-12)
(-8.43528e-11 -2.14625e-11 3.5281e-11)
(-9.36958e-13 -1.06245e-10 4.52007e-11)
(9.1631e-11 -8.2475e-11 6.13011e-12)
(-1.24171e-11 -4.18636e-11 -1.12147e-11)
(-1.39355e-10 1.85043e-12 3.11095e-12)
(-1.20222e-10 5.52584e-11 -1.12824e-11)
(-1.82806e-10 8.61456e-12 -1.57255e-11)
(-1.19155e-10 2.40745e-11 -2.88393e-11)
(-3.61472e-12 2.43831e-11 8.47863e-11)
(-1.38088e-10 -1.18034e-10 -8.6719e-11)
(-9.93631e-11 -3.5711e-11 2.82547e-11)
(3.37579e-11 9.70734e-11 2.28638e-11)
(-1.5869e-10 3.74956e-11 -9.94568e-11)
(-6.40073e-11 1.41543e-11 1.07812e-10)
(6.04749e-12 1.11934e-10 -1.62393e-11)
(-3.54961e-11 -9.76131e-11 1.56293e-10)
(1.62223e-11 -7.18465e-11 1.70201e-11)
(-1.7273e-11 -1.13395e-10 -3.37745e-11)
(2.21965e-11 5.65241e-11 3.80903e-11)
(7.68983e-12 5.10133e-11 9.89244e-12)
(-6.99544e-11 7.34156e-11 1.41043e-10)
(-7.31241e-11 -8.44794e-11 4.13112e-11)
(-3.97751e-11 -5.54815e-11 -2.61729e-11)
(-1.06652e-10 -2.70146e-11 8.03922e-11)
(-1.016e-10 5.5577e-11 -1.42032e-11)
(1.00337e-11 -1.31725e-11 2.10897e-11)
(-8.54711e-11 -2.46458e-12 -1.12897e-10)
(-1.75203e-10 -2.77062e-11 2.01122e-12)
(-6.69704e-11 9.27052e-12 -1.00743e-11)
(-2.68993e-11 -1.2575e-10 -8.00467e-11)
(2.49873e-11 -2.84007e-13 4.62936e-11)
(-3.99023e-11 6.27355e-11 1.49568e-11)
(-9.37711e-11 -3.79355e-11 7.47026e-12)
(-6.22186e-11 1.47478e-11 -1.59145e-11)
(9.15556e-12 -4.33469e-11 9.85844e-11)
(3.04461e-11 2.90057e-11 4.09295e-12)
(-1.44442e-11 -4.51609e-11 1.93537e-11)
(-6.22054e-12 -4.46795e-11 3.47011e-11)
(-2.43044e-12 3.53929e-11 9.17223e-12)
(-1.68904e-08 -1.70343e-08 -9.30017e-08)
(-2.37156e-08 -7.36237e-09 -2.38682e-08)
(-1.04136e-08 -6.01826e-09 -1.87601e-08)
(-1.01179e-08 -2.38627e-09 -5.60016e-09)
(-4.91879e-09 -1.45276e-09 -3.52103e-09)
(-4.21454e-09 -7.10971e-10 -1.28963e-09)
(-2.5974e-09 -3.41808e-10 -8.7067e-10)
(-2.01693e-09 -6.42746e-11 -3.62063e-10)
(-1.45883e-09 -1.03587e-10 -2.83542e-10)
(-1.17773e-09 -1.19862e-12 -1.62662e-10)
(-9.0046e-10 -6.30508e-12 -4.35725e-11)
(-6.45201e-10 8.14798e-13 -8.88238e-11)
(-4.50103e-10 -7.63808e-11 -7.30416e-12)
(-2.79432e-10 2.77025e-11 3.85329e-12)
(-3.13991e-10 -7.47233e-11 7.8307e-11)
(-3.18723e-10 -6.0347e-11 2.80775e-11)
(-2.18499e-10 -5.44296e-11 -5.77022e-12)
(-2.51021e-10 1.67814e-11 1.28006e-10)
(-1.16208e-10 -5.60041e-11 -6.12042e-11)
(8.27247e-12 -5.50405e-12 -7.76157e-12)
(-7.35487e-09 -2.40207e-08 -2.38767e-08)
(-1.18138e-08 -1.18969e-08 -1.18493e-08)
(-8.44797e-09 -1.03097e-08 -1.02705e-08)
(-8.87664e-09 -4.38138e-09 -4.42542e-09)
(-5.77925e-09 -2.9145e-09 -2.87642e-09)
(-5.16389e-09 -1.45296e-09 -1.4591e-09)
(-3.60791e-09 -1.01004e-09 -9.42445e-10)
(-2.95757e-09 -4.85711e-10 -5.10434e-10)
(-2.16982e-09 -2.93677e-10 -3.80985e-10)
(-1.6998e-09 -2.03094e-10 -1.42496e-10)
(-1.44215e-09 -1.29245e-10 -7.28312e-11)
(-1.1041e-09 -6.4853e-11 -5.37448e-11)
(-8.46364e-10 -8.69366e-11 -8.99318e-11)
(-7.16163e-10 3.75671e-11 -8.45428e-11)
(-6.08118e-10 -1.19845e-12 -2.01638e-11)
(-3.86672e-10 -3.54232e-11 -1.42083e-10)
(-2.45174e-10 -5.82013e-11 -1.25561e-10)
(-1.41828e-10 -7.96351e-11 4.81129e-12)
(3.05023e-11 -8.83515e-11 -7.07384e-11)
(4.49859e-11 1.29505e-11 3.14825e-11)
(-5.99784e-09 -1.04879e-08 -1.87603e-08)
(-1.03087e-08 -8.51914e-09 -1.04105e-08)
(-8.11542e-09 -8.08345e-09 -9.0663e-09)
(-8.45044e-09 -4.48961e-09 -4.03041e-09)
(-5.6239e-09 -3.23146e-09 -2.82081e-09)
(-4.93865e-09 -1.83668e-09 -1.29593e-09)
(-3.5767e-09 -1.48826e-09 -9.3705e-10)
(-2.90445e-09 -1.00769e-09 -5.78088e-10)
(-2.18641e-09 -6.1977e-10 -2.99818e-10)
(-1.78521e-09 -4.83686e-10 -1.37526e-10)
(-1.44775e-09 -2.66055e-10 -3.42692e-11)
(-1.13458e-09 -8.79782e-11 -5.42244e-11)
(-9.32596e-10 -2.48346e-11 -7.28657e-11)
(-7.04387e-10 -6.81764e-11 -1.33979e-10)
(-5.96183e-10 -1.77732e-11 -1.1348e-10)
(-5.70755e-10 2.58686e-11 -7.95773e-11)
(-4.49123e-10 -1.55204e-11 -8.37263e-11)
(-1.66477e-10 -1.21392e-10 -5.42944e-11)
(3.0494e-11 -5.85259e-11 2.54304e-11)
(1.9525e-11 6.26872e-11 8.53613e-11)
(-2.37744e-09 -1.0143e-08 -5.63221e-09)
(-4.3947e-09 -8.94742e-09 -4.24091e-09)
(-4.54638e-09 -8.50102e-09 -4.02958e-09)
(-5.08973e-09 -5.11615e-09 -2.11609e-09)
(-3.89174e-09 -3.69055e-09 -1.64561e-09)
(-3.62049e-09 -2.3114e-09 -9.69817e-10)
(-2.90094e-09 -1.7253e-09 -7.46159e-10)
(-2.52284e-09 -1.1808e-09 -4.55911e-10)
(-1.95781e-09 -7.32963e-10 -2.32758e-10)
(-1.49589e-09 -5.93066e-10 -2.62415e-11)
(-1.26552e-09 -4.28637e-10 -4.34452e-11)
(-1.15617e-09 -3.146e-10 -6.31768e-11)
(-1.03763e-09 -1.50001e-10 -5.06688e-11)
(-7.13249e-10 -1.4151e-10 -3.54424e-11)
(-4.99452e-10 -1.12885e-10 -1.13927e-10)
(-4.47961e-10 -1.11954e-10 -9.44073e-11)
(-3.81799e-10 1.81033e-11 -8.22197e-11)
(-1.84722e-10 -4.58671e-11 -4.86742e-11)
(-3.05729e-11 -3.97776e-11 1.09829e-11)
(-3.73027e-11 2.06701e-12 1.02354e-10)
(-1.44408e-09 -4.96364e-09 -3.7177e-09)
(-2.98231e-09 -5.86333e-09 -2.95288e-09)
(-3.36104e-09 -5.82745e-09 -2.81147e-09)
(-3.80477e-09 -3.97189e-09 -1.64548e-09)
(-3.22497e-09 -3.07027e-09 -1.2139e-09)
(-3.03904e-09 -2.19482e-09 -7.10094e-10)
(-2.43941e-09 -1.71933e-09 -5.99026e-10)
(-2.15324e-09 -1.0797e-09 -2.08048e-10)
(-1.78447e-09 -7.61318e-10 -1.28964e-10)
(-1.52333e-09 -6.41806e-10 -4.22251e-11)
(-1.26611e-09 -4.84659e-10 -7.1951e-11)
(-1.0689e-09 -4.30034e-10 -1.04407e-10)
(-8.57678e-10 -1.97934e-10 -1.9655e-11)
(-5.9293e-10 -2.70114e-10 -7.0396e-11)
(-4.50857e-10 -2.2311e-10 -2.38078e-11)
(-3.98112e-10 -1.49319e-10 -4.551e-11)
(-3.5124e-10 -9.12518e-11 -5.05882e-11)
(-2.74979e-10 -6.83123e-11 -9.49658e-11)
(-1.44329e-10 2.25949e-11 9.45063e-11)
(-3.59996e-11 3.07993e-12 -5.58431e-11)
(-6.42762e-10 -4.06694e-09 -1.3311e-09)
(-1.54203e-09 -5.11238e-09 -1.40245e-09)
(-1.96666e-09 -4.89377e-09 -1.41746e-09)
(-2.35338e-09 -3.6627e-09 -8.98006e-10)
(-2.26967e-09 -2.91086e-09 -8.26399e-10)
(-2.16887e-09 -2.24562e-09 -4.40416e-10)
(-1.80939e-09 -1.72251e-09 -3.31201e-10)
(-1.62224e-09 -1.13019e-09 -2.79747e-10)
(-1.40195e-09 -9.44443e-10 -2.06599e-10)
(-1.21275e-09 -7.58748e-10 -1.08556e-10)
(-1.12708e-09 -5.39259e-10 -5.0486e-11)
(-9.96666e-10 -3.84052e-10 -7.22832e-11)
(-7.84868e-10 -1.9685e-10 -6.33975e-11)
(-5.77474e-10 -3.27493e-10 2.74952e-12)
(-3.64642e-10 -1.32606e-10 -8.61416e-11)
(-3.41798e-10 -2.31361e-11 4.3922e-11)
(-2.65021e-10 -7.17396e-11 -4.09859e-11)
(-1.97368e-10 -3.95607e-11 -1.35478e-11)
(-2.201e-10 -4.74007e-11 6.90469e-11)
(-5.48072e-11 2.19501e-11 4.10207e-12)
(-3.51863e-10 -2.41939e-09 -8.69384e-10)
(-9.63638e-10 -3.57566e-09 -1.01814e-09)
(-1.40206e-09 -3.40982e-09 -9.82274e-10)
(-1.64303e-09 -2.9797e-09 -7.27971e-10)
(-1.67683e-09 -2.40177e-09 -5.51611e-10)
(-1.66698e-09 -1.89452e-09 -3.76594e-10)
(-1.52923e-09 -1.48596e-09 -3.11147e-10)
(-1.50502e-09 -1.04841e-09 -2.52227e-10)
(-1.16731e-09 -7.92167e-10 -2.66865e-10)
(-1.08566e-09 -6.71088e-10 -4.38128e-11)
(-9.24208e-10 -5.81666e-10 -5.46968e-11)
(-7.32246e-10 -4.6425e-10 -1.31429e-10)
(-7.25391e-10 -3.24751e-10 -9.94452e-11)
(-5.11729e-10 -3.3101e-10 -8.58773e-11)
(-4.30671e-10 -1.30113e-10 -1.36146e-10)
(-4.11457e-10 -1.36201e-10 1.1038e-11)
(-2.70834e-10 1.89982e-11 4.18043e-11)
(-2.82872e-10 -1.88339e-11 -2.87694e-11)
(-1.7113e-10 -1.6638e-10 -7.35888e-11)
(-1.75581e-12 -3.24622e-11 1.32288e-11)
(-2.26765e-10 -1.97125e-09 -4.03306e-10)
(-5.66732e-10 -2.86444e-09 -4.89974e-10)
(-9.48089e-10 -2.95821e-09 -6.09321e-10)
(-1.14802e-09 -2.44502e-09 -4.84109e-10)
(-1.11777e-09 -2.11698e-09 -3.01419e-10)
(-1.2508e-09 -1.62769e-09 -2.65654e-10)
(-1.25588e-09 -1.34191e-09 -1.60244e-10)
(-1.22001e-09 -1.06092e-09 -1.38603e-10)
(-1.01122e-09 -7.82748e-10 -1.78135e-10)
(-8.74551e-10 -5.55599e-10 -1.16175e-10)
(-7.84151e-10 -4.90746e-10 -4.67951e-11)
(-7.1034e-10 -4.41884e-10 -8.40119e-11)
(-5.50759e-10 -3.22907e-10 4.79837e-11)
(-5.57635e-10 -3.55718e-10 8.10667e-13)
(-6.15604e-10 -1.58743e-10 -2.95323e-11)
(-4.2303e-10 -1.1306e-10 -1.42574e-10)
(-2.53089e-10 -1.19744e-10 -1.07257e-10)
(-1.7918e-10 -1.16707e-10 -8.55165e-11)
(-6.00712e-11 -5.67178e-11 -3.11784e-11)
(1.81988e-11 2.602e-11 -1.3042e-10)
(-8.20818e-12 -1.46542e-09 -2.84998e-10)
(-1.98444e-10 -2.21138e-09 -1.92705e-10)
(-5.79285e-10 -2.30748e-09 -3.52346e-10)
(-8.34277e-10 -1.9901e-09 -3.05855e-10)
(-8.35076e-10 -1.67478e-09 -2.52681e-10)
(-8.69575e-10 -1.39108e-09 -1.01694e-10)
(-1.01519e-09 -1.15861e-09 -1.49792e-10)
(-9.72705e-10 -9.43294e-10 -2.68154e-10)
(-8.42327e-10 -8.42598e-10 -1.17208e-10)
(-7.60962e-10 -5.24288e-10 2.18005e-11)
(-5.80118e-10 -5.70842e-10 -3.38483e-11)
(-5.38194e-10 -3.95626e-10 6.81736e-11)
(-4.23416e-10 -3.06988e-10 6.10842e-11)
(-3.26518e-10 -3.06505e-10 7.87073e-11)
(-2.99473e-10 -1.62486e-10 4.98597e-11)
(-2.67504e-10 -1.51226e-10 -3.18547e-11)
(-1.81073e-10 -2.81479e-10 -6.75668e-11)
(1.05667e-11 -1.76777e-10 -7.67501e-12)
(-8.79043e-12 -1.62254e-10 -7.76937e-11)
(-7.14831e-11 -7.97405e-12 3.96783e-12)
(-7.85181e-11 -1.07196e-09 -1.58051e-10)
(-1.79294e-10 -1.86995e-09 -1.77961e-10)
(-3.34229e-10 -1.82745e-09 -1.91656e-10)
(-5.94569e-10 -1.64311e-09 -7.89153e-11)
(-7.71366e-10 -1.27226e-09 -1.97758e-11)
(-8.54856e-10 -1.13281e-09 -7.78703e-11)
(-8.20545e-10 -1.01255e-09 -1.8669e-11)
(-7.46258e-10 -8.30988e-10 -8.21505e-11)
(-6.70893e-10 -7.95663e-10 -6.10272e-11)
(-6.22706e-10 -5.95855e-10 3.7599e-11)
(-5.89919e-10 -4.73334e-10 -7.48998e-12)
(-5.21804e-10 -4.46993e-10 8.70597e-11)
(-3.78704e-10 -4.055e-10 -4.26823e-11)
(-3.44144e-10 -2.53933e-10 2.29517e-12)
(-3.26752e-10 -3.21684e-10 2.84287e-11)
(-2.55405e-10 -2.11946e-10 1.49588e-11)
(-2.17261e-10 -3.1138e-10 -9.87334e-11)
(-1.12155e-10 -8.89751e-11 -2.96465e-11)
(-5.60644e-11 -6.24943e-11 -8.32703e-11)
(-4.47628e-11 2.88079e-11 2.4374e-11)
(-4.62796e-11 -8.71662e-10 -1.16617e-10)
(-1.86949e-10 -1.44847e-09 -1.47853e-10)
(-3.72846e-10 -1.35927e-09 -2.86939e-11)
(-4.40803e-10 -1.16595e-09 -5.72717e-11)
(-6.13953e-10 -1.01222e-09 -1.35633e-10)
(-7.24692e-10 -1.11538e-09 -8.03332e-11)
(-7.18201e-10 -9.42962e-10 -7.4953e-11)
(-5.94531e-10 -8.72641e-10 6.77816e-11)
(-5.13504e-10 -6.69458e-10 -9.72578e-11)
(-5.33001e-10 -5.40181e-10 -1.40753e-10)
(-4.55155e-10 -3.69641e-10 8.84815e-11)
(-4.62332e-10 -3.47108e-10 6.70106e-11)
(-3.60629e-10 -3.51195e-10 -4.34894e-11)
(-3.20795e-10 -2.03829e-10 2.93838e-12)
(-2.24008e-10 -2.90578e-10 -4.74363e-11)
(-2.51225e-10 -1.58602e-10 -1.30983e-10)
(-2.30692e-10 -2.25019e-10 -5.86694e-11)
(4.20944e-11 -1.44618e-10 -2.54146e-11)
(1.48036e-11 -1.25904e-10 3.9276e-11)
(-7.49419e-11 -5.26399e-11 4.87443e-11)
(-1.23503e-11 -6.69985e-10 7.76694e-11)
(-1.51088e-10 -1.04836e-09 8.07463e-11)
(-1.99923e-10 -9.95527e-10 -5.15244e-11)
(-2.12121e-10 -9.25874e-10 -1.0054e-11)
(-4.17729e-10 -9.83534e-10 -1.23706e-10)
(-3.38968e-10 -9.00827e-10 -1.50714e-10)
(-3.66882e-10 -8.22374e-10 -1.42813e-10)
(-5.13362e-10 -7.4849e-10 -1.25827e-10)
(-5.46657e-10 -5.43672e-10 -4.36569e-11)
(-5.76675e-10 -4.72536e-10 -4.60099e-11)
(-5.10062e-10 -4.50176e-10 1.06891e-11)
(-4.73437e-10 -2.55184e-10 -4.50127e-11)
(-4.3088e-10 -2.7143e-10 -1.25116e-10)
(-4.21932e-10 -2.27984e-10 1.29786e-10)
(-2.52285e-10 -3.51239e-10 8.63587e-11)
(-1.95175e-10 -1.6257e-10 -3.44906e-11)
(-2.06155e-10 -2.33354e-10 -9.46344e-11)
(-2.00423e-10 -8.71792e-11 4.5778e-11)
(-6.83313e-11 -2.11804e-10 1.89703e-10)
(4.54839e-11 -1.01963e-10 -1.22454e-12)
(3.66911e-12 -6.17593e-10 -5.69427e-11)
(-8.87307e-11 -8.99173e-10 5.68412e-12)
(-2.00101e-10 -7.72088e-10 -9.18235e-11)
(-2.65436e-10 -7.88067e-10 -8.69446e-11)
(-3.75917e-10 -8.75507e-10 -4.70611e-11)
(-3.30344e-10 -6.24864e-10 -4.97417e-12)
(-3.37574e-10 -5.96019e-10 -5.51361e-12)
(-3.67937e-10 -3.76638e-10 -4.38185e-11)
(-3.762e-10 -4.18039e-10 -6.68877e-11)
(-3.84815e-10 -4.85339e-10 3.31439e-11)
(-3.87784e-10 -4.05388e-10 -4.49161e-12)
(-3.57947e-10 -4.04347e-10 -2.75075e-11)
(-2.32922e-10 -3.506e-10 -8.25871e-11)
(-3.33569e-10 -2.51882e-10 -5.70652e-12)
(-2.61293e-10 -3.01958e-10 -6.39421e-11)
(-2.18017e-10 -2.02094e-10 -4.64312e-11)
(-1.46057e-10 -2.08396e-10 -5.99867e-11)
(-5.0258e-11 -1.07921e-10 -9.95915e-11)
(-8.15982e-11 -7.4855e-11 1.64862e-12)
(-1.63908e-11 -4.09809e-11 5.8949e-11)
(1.20895e-11 -4.3607e-10 -3.47392e-11)
(-9.96807e-11 -7.99906e-10 -2.79631e-11)
(-2.08196e-10 -5.58452e-10 -6.20021e-11)
(-2.50784e-10 -6.54151e-10 6.31555e-11)
(-2.52032e-10 -5.65229e-10 -3.36753e-11)
(-1.61317e-10 -7.39885e-10 -3.90332e-12)
(-2.37546e-10 -4.55402e-10 1.06819e-10)
(-4.14959e-10 -2.40766e-10 5.57195e-12)
(-3.84893e-10 -3.3755e-10 -5.73901e-11)
(-3.7192e-10 -2.98459e-10 -2.93537e-12)
(-3.7787e-10 -3.24613e-10 1.94972e-11)
(-3.12701e-10 -3.82321e-10 -3.1051e-11)
(-2.01799e-10 -2.04548e-10 -9.11777e-11)
(-9.5544e-11 -1.42429e-10 -5.02125e-11)
(-1.7473e-10 -2.21922e-10 1.99528e-12)
(-1.31294e-10 -1.41118e-10 -1.35673e-11)
(-1.16259e-10 -2.19606e-10 5.92366e-11)
(-1.60446e-11 -1.8557e-10 -1.11966e-10)
(4.09996e-12 -2.5596e-10 2.37564e-11)
(-9.8984e-11 -7.26044e-11 1.75821e-11)
(-6.92771e-11 -1.6506e-10 3.85936e-11)
(-3.01667e-12 -5.90616e-10 -1.49294e-11)
(-7.1267e-11 -5.24654e-10 2.63513e-11)
(-1.76181e-10 -4.90829e-10 3.5241e-11)
(-2.03098e-10 -4.25586e-10 -1.1886e-10)
(-2.34604e-10 -6.19656e-10 5.38789e-11)
(-3.09768e-10 -3.31561e-10 9.77296e-11)
(-4.09094e-10 -2.97797e-10 3.8637e-11)
(-3.11998e-10 -4.02758e-10 -1.03336e-10)
(-3.90364e-10 -3.40772e-10 1.55527e-11)
(-3.61518e-10 -2.81762e-10 7.29592e-11)
(-2.64489e-10 -2.44459e-10 -6.26717e-11)
(-1.91608e-10 -6.97174e-11 -2.42906e-11)
(-7.23742e-11 -2.13154e-10 -2.34959e-11)
(-6.81308e-11 -1.64571e-10 -5.88366e-11)
(-1.3003e-10 -1.25132e-10 3.95889e-11)
(1.19443e-11 -1.84058e-10 -7.75257e-11)
(6.42031e-11 -1.88942e-10 -4.55356e-11)
(-5.80454e-11 -2.03869e-10 5.43885e-11)
(-3.38001e-11 -3.19209e-11 1.32859e-10)
(-9.57556e-12 -1.53414e-10 6.04772e-11)
(-9.13001e-11 -5.15104e-10 -1.22365e-10)
(-7.3526e-11 -3.91713e-10 -9.90775e-11)
(-5.04777e-11 -3.58223e-10 -3.41094e-11)
(-1.70954e-10 -3.57468e-10 4.54542e-11)
(-2.64298e-10 -3.87429e-10 1.13291e-10)
(-2.98114e-10 -3.26543e-10 4.6258e-11)
(-1.89428e-10 -3.32547e-10 -6.1205e-11)
(-1.91652e-10 -3.64304e-10 -7.03555e-13)
(-1.90684e-10 -2.9221e-10 1.08056e-10)
(-2.00343e-10 -2.6768e-10 -5.63558e-11)
(-2.46846e-10 -1.71163e-10 -1.64886e-11)
(-2.20217e-10 -2.40951e-11 -3.03493e-11)
(-5.42914e-11 -1.66785e-10 -2.99364e-11)
(-1.38865e-10 -1.83246e-10 -1.79299e-11)
(-1.10695e-10 -1.0394e-10 2.30837e-11)
(-3.58046e-11 -1.9255e-10 -1.35746e-10)
(-1.51013e-10 -1.18703e-10 3.62212e-11)
(-4.74198e-11 -9.59677e-11 1.44206e-10)
(-4.87267e-11 -2.10064e-11 7.98587e-11)
(2.48871e-11 -2.12943e-10 -5.55875e-11)
(4.51613e-11 -4.12613e-10 -1.94269e-11)
(-9.02897e-11 -3.17596e-10 -3.0232e-11)
(-1.40897e-10 -3.3007e-10 -1.33042e-10)
(-1.76752e-10 -1.74724e-10 -4.04465e-11)
(-2.85225e-10 -2.79487e-10 4.86415e-11)