/*--------------------------------*- C++ -*----------------------------------*\
| =========                 |                                                 |
| \\      /  F ield         | OpenFOAM: The Open Source CFD Toolbox           |
|  \\    /   O peration     | Version:  v2012                                 |
|   \\  /    A nd           | Website:  www.openfoam.com                      |
|    \\/     M anipulation  |                                                 |
\*---------------------------------------------------------------------------*/
FoamFile
{
    version     2.0;
    format      ascii;
    class       volScalarField;
    location    "1500/rightSolid";
    object      T;
}
// * * * * * * * * * * * * * * * * * * * * * * * * * * * * * * * * * * * * * //

dimensions      [0 0 0 1 0 0 0];


internalField   nonuniform List<scalar> 
130
(
468.5483
468.2001
467.7737
467.3064
466.8295
466.3665
465.9357
465.5504
465.2203
464.9513
464.7482
464.6136
464.549
468.9675
468.5285
468.0175
467.4799
466.9485
466.4453
465.9857
465.5804
465.2367
464.959
464.7505
464.6133
464.5482
469.8478
469.1907
468.4941
467.8136
467.1781
466.6013
466.0908
465.651
465.2842
464.9915
464.7742
464.632
464.5649
471.2078
470.1144
469.1095
468.2233
467.4536
466.7896
466.2226
465.7458
465.3549
465.0468
464.8199
464.6725
464.6032
472.8463
471
469.6175
468.5302
467.6481
466.9188
466.3128
465.8126
465.4075
465.0907
464.8585
464.7079
464.6369
472.847
471.0006
469.6181
468.5309
467.6488
466.9195
466.3136
465.8134
465.4084
465.0915
464.8593
464.7087
464.6377
471.2097
470.1163
469.1114
468.2253
467.4557
466.7918
466.2249
465.7483
465.3576
465.0494
464.8222
464.6749
464.6058
469.8508
469.1937
468.4972
467.8168
467.1815
466.6049
466.0947
465.655
465.2886
464.9959
464.7783
464.6363
464.5695
468.9716
468.5326
468.0217
467.4843
466.9532
466.4503
465.991
465.586
465.2426
464.9651
464.7568
464.6199
464.555
468.5525
468.2046
467.7784
467.3113
466.8347
466.372
465.9416
465.5567
465.2269
464.9584
464.7557
464.6217
464.5579
)
;

boundaryField
{
    maxX
    {
        type            zeroGradient;
    }
    minZ
    {
        type            zeroGradient;
    }
    maxZ
    {
        type            zeroGradient;
    }
    rightSolid_to_bottomAir
    {
        type            compressible::turbulentTemperatureRadCoupledMixed;
        refValue        nonuniform List<scalar> 
130
(
470.255
470.0041
469.6858
469.3216
468.9272
468.515
468.0951
467.675
467.2587
466.8446
466.4245
465.9912
465.5991
471.0739
470.7589
470.3642
469.9237
469.4582
468.9826
468.5083
468.0435
467.5917
467.1501
466.7071
466.2445
465.7992
471.9806
471.546
471.0487
470.5164
469.9651
469.4086
468.8616
468.3345
467.8305
467.3459
466.8674
466.3736
465.8996
473.4975
472.5992
471.8105
471.0932
470.4134
469.7629
469.1444
468.5599
468.0076
467.4828
466.9704
466.4477
465.9525
476.3643
473.8826
472.4955
471.5106
470.689
469.9525
469.278
468.6567
468.0772
467.5313
467.0021
466.4665
465.9651
476.3661
473.8836
472.4961
471.5111
470.6894
469.9529
469.2785
468.6572
468.0778
467.532
467.0028
466.4672
465.9659
473.4978
472.5998
471.8115
471.0945
470.4149
469.7646
469.1462
468.5618
468.0096
467.4849
466.9725
466.4499
465.9549
471.9824
471.5482
471.0513
470.5193
469.9682
469.4118
468.8649
468.3379
467.834
467.3495
466.8711
466.3773
465.9036
471.0772
470.7627
470.3683
469.9281
469.4628
468.9872
468.513
468.0483
467.5966
467.1552
466.7123
466.2499
465.805
470.2595
470.0092
469.6913
469.3273
468.9332
468.5211
468.1013
467.6813
467.2651
466.8512
466.4313
465.9983
465.6068
)
;
        refGradient     nonuniform List<scalar> 
130
(
-0.000959025
-0.000959025
-0.000959025
-0.000959025
0.03967016
0.03967016
0.03967016
0.03967016
0.05507922
0.05507922
0.05507922
0.05507922
0.05573255
-0.000959025
-0.000959025
-0.000959025
-0.000959025
0.03967016
0.03967016
0.03967016
0.03967016
0.05507922
0.05507922
0.05507922
0.05507922
0.05573255
-0.04314682
-0.04314682
-0.04314682
-0.04314682
0.02410873
0.02410873
0.02410873
0.02410873
0.04976323
0.04976323
0.05573255
0.05573255
0.05573255
-0.04314682
-0.04314682
-0.04314682
-0.04314682
0.02410873
0.02410873
0.02410873
0.02410873
0.04976323
0.04976323
0.05573255
0.05573255
0.05573255
-0.07259798
-0.07259798
-0.07259798
-0.07259798
0.01850351
0.01850351
0.01850351
0.01850351
0.04976323
0.04976323
0.05529276
0.05529276
0.05529276
-0.07259798
-0.07259798
-0.07259798
-0.07259798
0.01850351
0.01850351
0.01850351
0.01850351
0.04976323
0.04976323
0.05529276
0.05529276
0.05529276
-0.04259031
-0.04259031
-0.04259031
-0.04259031
0.02494202
0.02494202
0.02494202
0.02494202
0.05469103
0.05469103
0.05469103
0.05469103
0.05529276
-0.04259031
-0.04259031
-0.04259031
-0.04259031
0.02494202
0.02494202
0.02494202
0.02494202
0.05469103
0.05469103
0.05469103
0.05469103
0.05529276
-0.0009177753
-0.0009177753
-0.0009177753
-0.0009177753
0.03997124
0.03997124
0.03997124
0.03997124
0.05512308
0.05512308
0.05512308
0.05512308
0.05512308
-0.0009177753
-0.0009177753
-0.0009177753
-0.0009177753
0.03997124
0.03997124
0.03997124
0.03997124
0.05512308
0.05512308
0.05512308
0.05512308
0.05512308
)
;
        valueFraction   nonuniform List<scalar> 
130
(
0.0003213253
0.0003213253
0.0003213253
0.0003213253
0.0003213253
0.0003213253
0.0003213253
0.0003213253
0.0003213253
0.0003213253
0.0003213253
0.0003213253
0.0003213253
0.0003213253
0.0003213253
0.0003213253
0.0003213253
0.0003213253
0.0003213253
0.0003213253
0.0003213253
0.0003213253
0.0003213253
0.0003213253
0.0003213253
0.0003213253
0.0003213253
0.0003213253
0.0003213253
0.0003213253
0.0003213253
0.0003213253
0.0003213253
0.0003213253
0.0003213253
0.0003213253
0.0003213253
0.0003213253
0.0003213253
0.0003213253
0.0003213253
0.0003213253
0.0003213253
0.0003213253
0.0003213253
0.0003213253
0.0003213253
0.0003213253
0.0003213253
0.0003213253
0.0003213253
0.0003213253
0.0003213253
0.0003213253
0.0003213253
0.0003213253
0.0003213253
0.0003213253
0.0003213253
0.0003213253
0.0003213253
0.0003213253
0.0003213253
0.0003213253
0.0003213253
0.0003213253
0.0003213253
0.0003213253
0.0003213253
0.0003213253
0.0003213253
0.0003213253
0.0003213253
0.0003213253
0.0003213253
0.0003213253
0.0003213253
0.0003213253
0.0003213253
0.0003213253
0.0003213253
0.0003213253
0.0003213253
0.0003213253
0.0003213253
0.0003213253
0.0003213253
0.0003213253
0.0003213253
0.0003213253
0.0003213253
0.0003213253
0.0003213253
0.0003213253
0.0003213253
0.0003213253
0.0003213253
0.0003213253
0.0003213253
0.0003213253
0.0003213253
0.0003213253
0.0003213253
0.0003213253
0.0003213253
0.0003213253
0.0003213253
0.0003213253
0.0003213253
0.0003213253
0.0003213253
0.0003213253
0.0003213253
0.0003213253
0.0003213253
0.0003213253
0.0003213253
0.0003213253
0.0003213253
0.0003213253
0.0003213253
0.0003213253
0.0003213253
0.0003213253
0.0003213253
0.0003213253
0.0003213253
0.0003213253
0.0003213253
0.0003213253
)
;
        value           nonuniform List<scalar> 
130
(
468.5363
468.188
467.7614
467.2939
466.817
466.3538
465.9228
465.5374
465.2071
464.938
464.7347
464.6
464.5353
468.9558
468.5166
468.0054
467.4676
466.9362
466.4328
465.973
465.5675
465.2237
464.9458
464.7371
464.5998
464.5346
469.8362
469.1789
468.4821
467.8013
467.1659
466.5888
466.0782
465.6381
465.2712
464.9784
464.7609
464.6186
464.5513
471.1968
470.103
469.0978
468.2113
467.4415
466.7773
466.21
465.7329
465.342
465.0336
464.8066
464.6591
464.5896
472.8362
470.9889
469.6059
468.5182
467.6361
466.9065
466.3002
465.7997
465.3946
465.0776
464.8452
464.6944
464.6233
472.8369
470.9896
469.6065
468.5189
467.6368
466.9072
466.301
465.8006
465.3955
465.0784
464.846
464.6952
464.6241
471.1987
470.1049
469.0997
468.2133
467.4436
466.7795
466.2123
465.7354
465.3447
465.0363
464.8089
464.6615
464.5922
469.8393
469.1819
468.4852
467.8046
467.1693
466.5925
466.082
465.6422
465.2756
464.9828
464.765
464.6228
464.5559
468.9599
468.5207
468.0097
467.4721
466.9409
466.4377
465.9782
465.5731
465.2296
464.9519
464.7435
464.6064
464.5414
468.5405
468.1924
467.7661
467.2989
466.8222
466.3594
465.9287
465.5436
465.2138
464.9451
464.7422
464.6081
464.5443
)
;
        Tnbr            T;
        qrNbr           qr;
        qr              none;
        thermalInertia  false;
        thicknessLayers List<scalar> 0();
        kappaLayers     List<scalar> 0();
        kappaMethod     solidThermo;
        kappa           none;
        alphaAni        none;
        alpha           none;
    }
    rightSolid_to_topAir
    {
        type            compressible::turbulentTemperatureRadCoupledMixed;
        refValue        nonuniform List<scalar> 
130
(
375.1916
376.1569
376.5665
376.4389
375.8329
374.8336
373.5383
372.0577
370.5363
369.1764
368.2367
368.1882
369.1853
364.2768
363.7657
362.8228
361.5756
360.1297
358.5426
356.8434
355.0849
353.4136
352.0875
351.4718
352.467
354.4524
365.3231
364.4466
362.6722
360.0555
356.795
353.2059
349.6273
346.3755
343.7825
342.0089
341.2525
342.3206
345.6307
374.4867
376.2795
377.5091
377.9793
377.4755
375.849
373.1314
369.5723
365.6479
362.302
360.5953
362.6854
366.6847
376.5227
378.9049
381.0764
383.0187
384.6775
385.9649
386.782
387.0676
386.8665
386.4129
386.217
387.46
390.7905
376.5231
378.9052
381.0767
383.019
384.6778
385.9652
386.7823
387.0678
386.8668
386.4135
386.2178
387.4606
390.791
374.4875
376.2802
377.5098
377.9798
377.4757
375.8489
373.1311
369.5716
365.6477
362.303
360.597
362.6869
366.6861
365.3236
364.4468
362.672
360.0549
356.7942
353.2052
349.6269
346.3764
343.7847
342.0123
341.2569
342.3257
345.6365
364.2784
363.7673
362.8244
361.5773
360.1316
358.5446
356.8456
355.0875
353.4168
352.0917
351.4771
352.4736
354.4594
375.1939
376.1592
376.5688
376.4412
375.8353
374.8361
373.541
372.0607
370.5397
369.1805
368.2416
368.1943
369.1925
)
;
        refGradient     nonuniform List<scalar> 
130
(
-2.608892
-2.608892
-2.608892
-2.608892
-2.47694
-2.47694
-2.47694
-2.47694
-2.366605
-2.366605
-2.366605
-2.366605
-2.372175
-2.608892
-2.608892
-2.608892
-2.608892
-2.47694
-2.47694
-2.47694
-2.47694
-2.366605
-2.366605
-2.366605
-2.366605
-2.372175
-2.761147
-2.761147
-2.761147
-2.761147
-2.605898
-2.605898
-2.605898
-2.605898
-2.502451
-2.502451
-2.372175
-2.372175
-2.372175
-2.761147
-2.761147
-2.761147
-2.761147
-2.605898
-2.605898
-2.605898
-2.605898
-2.502451
-2.502451
-2.372175
-2.372175
-2.372175
-2.818452
-2.818452
-2.818452
-2.818452
-2.638097
-2.638097
-2.638097
-2.638097
-2.502451
-2.502451
-2.327496
-2.327496
-2.327496
-2.818452
-2.818452
-2.818452
-2.818452
-2.638097
-2.638097
-2.638097
-2.638097
-2.502451
-2.502451
-2.327496
-2.327496
-2.327496
-2.760908
-2.760908
-2.760908
-2.760908
-2.604817
-2.604817
-2.604817
-2.604817
-2.454542
-2.454542
-2.454542
-2.454542
-2.327496
-2.760908
-2.760908
-2.760908
-2.760908
-2.604817
-2.604817
-2.604817
-2.604817
-2.454542
-2.454542
-2.454542
-2.454542
-2.327496
-2.608534
-2.608534
-2.608534
-2.608534
-2.475008
-2.475008
-2.475008
-2.475008
-2.348884
-2.348884
-2.348884
-2.348884
-2.348884
-2.608534
-2.608534
-2.608534
-2.608534
-2.475008
-2.475008
-2.475008
-2.475008
-2.348884
-2.348884
-2.348884
-2.348884
-2.348884
)
;
        valueFraction   nonuniform List<scalar> 
130
(
0.0003213253
0.0003213253
0.0003213253
0.0003213253
0.0003213253
0.0003213253
0.0003213253
0.0003213253
0.0003213253
0.0003213253
0.0003213253
0.0003213253
0.0003213253
0.0003213253
0.0003213253
0.0003213253
0.0003213253
0.0003213253
0.0003213253
0.0003213253
0.0003213253
0.0003213253
0.0003213253
0.0003213253
0.0003213253
0.0003213253
0.0003213253
0.0003213253
0.0003213253
0.0003213253
0.0003213253
0.0003213253
0.0003213253
0.0003213253
0.0003213253
0.0003213253
0.0003213253
0.0003213253
0.0003213253
0.0003213253
0.0003213253
0.0003213253
0.0003213253
0.0003213253
0.0003213253
0.0003213253
0.0003213253
0.0003213253
0.0003213253
0.0003213253
0.0003213253
0.0003213253
0.0003213253
0.0003213253
0.0003213253
0.0003213253
0.0003213253
0.0003213253
0.0003213253
0.0003213253
0.0003213253
0.0003213253
0.0003213253
0.0003213253
0.0003213253
0.0003213253
0.0003213253
0.0003213253
0.0003213253
0.0003213253
0.0003213253
0.0003213253
0.0003213253
0.0003213253
0.0003213253
0.0003213253
0.0003213253
0.0003213253
0.0003213253
0.0003213253
0.0003213253
0.0003213253
0.0003213253
0.0003213253
0.0003213253
0.0003213253
0.0003213253
0.0003213253
0.0003213253
0.0003213253
0.0003213253
0.0003213253
0.0003213253
0.0003213253
0.0003213253
0.0003213253
0.0003213253
0.0003213253
0.0003213253
0.0003213253
0.0003213253
0.0003213253
0.0003213253
0.0003213253
0.0003213253
0.0003213253
0.0003213253
0.0003213253
0.0003213253
0.0003213253
0.0003213253
0.0003213253
0.0003213253
0.0003213253
0.0003213253
0.0003213253
0.0003213253
0.0003213253
0.0003213253
0.0003213253
0.0003213253
0.0003213253
0.0003213253
0.0003213253
0.0003213253
0.0003213253
0.0003213253
0.0003213253
0.0003213253
0.0003213253
)
;
        value           nonuniform List<scalar> 
130
(
468.4953
468.1474
467.721
467.2536
466.777
466.3136
465.8824
465.4966
465.1664
464.897
464.6935
464.5589
464.4946
468.911
468.4718
467.9604
467.4223
466.891
466.3872
465.9271
465.5212
465.1773
464.8991
464.6904
464.5536
464.4891
469.7911
469.1336
468.4364
467.755
467.119
466.541
466.0293
465.5884
465.2211
464.9279
464.7108
464.569
464.5029
471.1541
470.0612
469.0566
468.1705
467.4011
466.7366
466.1686
465.6906
465.2989
464.9896
464.7627
464.616
464.548
472.7932
470.9474
469.5655
468.4788
467.5978
466.8689
466.2631
465.7629
465.3583
465.0413
464.8097
464.6595
464.5896
472.7939
470.9481
469.5662
468.4795
467.5985
466.8696
466.2639
465.7637
465.3592
465.0422
464.8106
464.6603
464.5905
471.156
470.0631
469.0585
468.1725
467.4032
466.7388
466.171
465.6931
465.3018
464.9925
464.7647
464.6181
464.5508
469.7941
469.1367
468.4395
467.7582
467.1224
466.5446
466.0332
465.5925
465.2257
464.9325
464.7146
464.5729
464.5077
468.9151
468.4759
467.9647
467.4268
466.8957
466.3922
465.9323
465.5267
465.1833
464.9053
464.6968
464.5602
464.496
468.4995
468.1518
467.7257
467.2586
466.7823
466.3192
465.8883
465.5029
465.1731
464.9041
464.7011
464.5671
464.5037
)
;
        Tnbr            T;
        qrNbr           qr;
        qr              none;
        thermalInertia  false;
        thicknessLayers List<scalar> 0();
        kappaLayers     List<scalar> 0();
        kappaMethod     solidThermo;
        kappa           none;
        alphaAni        none;
        alpha           none;
    }
    rightSolid_to_heater
    {
        type            compressible::turbulentTemperatureCoupledBaffleMixed;
        refValue        nonuniform List<scalar> 10(468.7752 469.2749 470.3653 472.247 475.4895 475.4903 472.2489 470.3684 469.2791 468.7804);
        refGradient     uniform 0;
        valueFraction   nonuniform List<scalar> 10(0.5000003 0.5000003 0.5000003 0.5000003 0.5000003 0.5000003 0.5000003 0.5000003 0.5000003 0.5000003);
        value           nonuniform List<scalar> 10(468.6555 469.115 470.1005 471.7216 474.1625 474.1632 471.7235 470.1036 469.1191 468.6602);
        Tnbr            T;
        thicknessLayers List<scalar> 0();
        kappaLayers     List<scalar> 0();
        kappaMethod     solidThermo;
        kappa           none;
        alphaAni        none;
        alpha           none;
        field           T;
    }
}


// ************************************************************************* //
