/*--------------------------------*- C++ -*----------------------------------*\
| =========                 |                                                 |
| \\      /  F ield         | OpenFOAM: The Open Source CFD Toolbox           |
|  \\    /   O peration     | Version:  v2006                                 |
|   \\  /    A nd           | Website:  www.openfoam.com                      |
|    \\/     M anipulation  |                                                 |
\*---------------------------------------------------------------------------*/
FoamFile
{
    version     2.0;
    format      ascii;
    class       volScalarField;
    location    "23";
    object      k;
}
// * * * * * * * * * * * * * * * * * * * * * * * * * * * * * * * * * * * * * //

dimensions      [0 2 -2 0 0 0 0];


internalField   nonuniform List<scalar> 
78750
(
0.00152771
0.00215652
0.00628644
0.00776243
0.0099491
0.00966579
0.0102797
0.0100161
0.0103799
0.0100946
0.0104304
0.010198
0.010446
0.0103653
0.0105529
0.0106263
0.0108028
0.0109774
0.0111755
0.0113766
0.0115657
0.0117283
0.0118676
0.0119706
0.0120508
0.0120693
0.012074
0.0119745
0.0119099
0.011608
0.0113058
0.010223
0.00824182
0.00514621
0.00221502
0.000753177
0.00105164
0.000111334
0.000325258
5.57292e-06
0.000376897
0.000411132
0.000141499
9.54855e-05
0.000108018
0.000244944
0.000389132
0.000414004
0.000308059
0.000571362
0.000160279
0.00094613
0.000937467
0.00124522
0.00149961
0.00176598
0.00202592
0.0022684
0.00248311
0.00266419
0.00280254
0.00291391
0.00297544
0.00302243
0.00297746
0.00292611
0.00264249
0.00230822
0.00200323
0.00397672
0.000176183
0.000124973
0.000111937
0.00122475
0.00121098
0.00133785
0.00141778
0.00150913
0.00152101
0.00162061
0.00151144
0.00156769
0.00137834
0.00130078
0.001093
0.00107587
0.000855258
0.000807303
0.000716966
0.000676869
0.000656916
0.000661017
0.000678757
0.000705854
0.000734794
0.000768276
0.000805774
0.000840707
0.000875405
0.000898879
0.000921652
0.000910399
0.00096745
0.00123998
0.00247189
9.81278e-05
0.000514123
0.00121674
0.00153994
0.00184433
0.00216152
0.00240238
0.00262912
0.00277086
0.0028568
0.00291649
0.00291322
0.00288787
0.0028072
0.00269438
0.00251411
0.00231713
0.0020824
0.00184079
0.0016009
0.0013768
0.0011777
0.00101005
0.000877276
0.00077971
0.000714386
0.00067643
0.000660245
0.000661216
0.000677352
0.000717691
0.000818508
0.00106417
0.00144057
0.00243415
0.000918662
0.00186322
0.00274512
0.00326531
0.00359522
0.00384664
0.00409931
0.0042984
0.00445997
0.00459811
0.00470779
0.00479504
0.00485359
0.00488276
0.00487574
0.00482943
0.00473311
0.00457901
0.00435709
0.00406033
0.00368731
0.00324488
0.00274898
0.00223296
0.00174283
0.00131941
0.000992323
0.000770488
0.000652182
0.000621748
0.000663594
0.000749764
0.000966589
0.00141271
0.00246715
0.000339357
0.00153225
0.00233376
0.00285664
0.0032234
0.00349372
0.0036886
0.00383997
0.00396633
0.00407772
0.00418023
0.00427636
0.00436943
0.00446243
0.0045585
0.00466018
0.0047683
0.00488036
0.00498918
0.00508249
0.00514412
0.00515421
0.0050859
0.00489529
0.00451944
0.00390173
0.00307916
0.00218196
0.00139656
0.000848541
0.000617627
0.000782899
0.00107309
0.00151026
0.00268316
0.000336193
0.0011218
0.00204506
0.00268028
0.0031246
0.00345541
0.00371184
0.00390886
0.00406077
0.00418041
0.00426906
0.00432298
0.00434118
0.00432782
0.00429021
0.00423659
0.00417683
0.00412447
0.00409405
0.00410015
0.0041558
0.00426613
0.00442629
0.00462084
0.00481584
0.00496803
0.00504516
0.00498974
0.00454622
0.00325823
0.00159083
0.000627578
0.000972415
0.0016301
0.0030763
0.00238416
0.00395753
0.00465583
0.0050133
0.00525592
0.00545776
0.00563118
0.0057755
0.00588891
0.00596838
0.00600731
0.00599647
0.00592868
0.00580194
0.00562024
0.00539577
0.00515469
0.00493842
0.00476348
0.00459095
0.0043889
0.00417362
0.00398236
0.00386925
0.00388565
0.00401929
0.00418154
0.00427713
0.0042716
0.00403274
0.00292334
0.00131731
0.00094426
0.00177305
0.00339028
0.00439686
0.0046241
0.00469457
0.00483622
0.00509237
0.00542074
0.00575652
0.00605378
0.00629391
0.00647395
0.00659621
0.00666481
0.00668173
0.00664748
0.00656204
0.00642595
0.00624112
0.00601251
0.00575222
0.00547831
0.00519764
0.00489432
0.00456888
0.00426268
0.00402262
0.00384988
0.00375462
0.00375887
0.00378015
0.00372295
0.00339381
0.00215303
0.00112309
0.00175032
0.00350986
0.00364816
0.00372402
0.00375674
0.00381444
0.0039437
0.00413442
0.00434628
0.0045563
0.00476443
0.00497555
0.00519251
0.00541062
0.00561695
0.00579355
0.00592222
0.00598908
0.00598614
0.00591158
0.00576924
0.00556949
0.00532913
0.00506596
0.00478551
0.00449676
0.00422245
0.00397536
0.00374887
0.00354334
0.00338334
0.00322846
0.00290863
0.00207235
0.00122626
0.00191116
0.00360688
0.00302419
0.00379905
0.00412797
0.00431187
0.00445673
0.00459239
0.00469735
0.00474246
0.00473047
0.00469254
0.00467147
0.00470125
0.00479216
0.00493169
0.00509328
0.00524486
0.00535666
0.00540748
0.0053869
0.00529694
0.00515246
0.00496841
0.00475506
0.0045264
0.00429508
0.00407078
0.00385627
0.00362423
0.00336393
0.0031329
0.00286756
0.00233459
0.00166021
0.0021768
0.00352044
0.00455133
0.00468107
0.00459483
0.0045155
0.00455131
0.00475971
0.00500522
0.00515771
0.00519936
0.00516462
0.00509957
0.00504543
0.00502613
0.00504543
0.0050922
0.00514637
0.00518459
0.00518754
0.00514744
0.0050636
0.00493382
0.00476227
0.0045594
0.00433931
0.00411599
0.00390206
0.00370805
0.00352979
0.00335277
0.00317538
0.00296973
0.00259269
0.00202843
0.00231493
0.0033548
0.0049364
0.00425565
0.00390297
0.00365987
0.00361688
0.00379339
0.00400378
0.00416032
0.00427709
0.00437688
0.00447459
0.00457872
0.00469108
0.00480384
0.00490046
0.00496196
0.00497681
0.00494216
0.00486055
0.00473873
0.00458431
0.00439932
0.00418792
0.00396201
0.00373324
0.00351217
0.00328184
0.00303092
0.00282033
0.00266607
0.00250279
0.00224281
0.00203824
0.00243769
0.00326415
0.00367863
0.00386842
0.00388345
0.00376545
0.00353144
0.00328326
0.00316241
0.00315532
0.00318777
0.00323349
0.00330236
0.00341661
0.00358928
0.0038138
0.00405231
0.00425474
0.00439097
0.00445475
0.0044521
0.00439277
0.00428665
0.004144
0.00397617
0.00379472
0.00360883
0.00342243
0.00323476
0.00304715
0.00286721
0.00269564
0.00250718
0.00226356
0.00216639
0.00254445
0.00311611
0.00420583
0.00466166
0.00471595
0.00462914
0.00442355
0.00408931
0.00372357
0.0034627
0.00328146
0.00312471
0.002995
0.00292252
0.00293747
0.0030583
0.00326654
0.00350056
0.00370123
0.00384241
0.00392127
0.00394451
0.0039205
0.00385741
0.00376305
0.00364512
0.00351122
0.00336826
0.0032222
0.00307664
0.00292831
0.00275863
0.00252577
0.00220315
0.00213197
0.00251102
0.00293676
0.00411616
0.0042717
0.00430014
0.00425348
0.00412053
0.00387191
0.00349394
0.00308484
0.00277595
0.00257405
0.00244353
0.00237505
0.00238129
0.00247525
0.00264326
0.0028426
0.00303309
0.00318737
0.00329553
0.00335596
0.00337137
0.00334745
0.00329127
0.00320985
0.00311003
0.00299791
0.00287849
0.00275433
0.0026233
0.00247696
0.00230563
0.00215368
0.00230285
0.00264876
0.00296796
0.00417568
0.00474548
0.0049868
0.0051079
0.00514873
0.00507901
0.00484151
0.0044056
0.00388762
0.00341758
0.00301654
0.00267456
0.00239889
0.00220676
0.00211216
0.00211253
0.0021874
0.00230924
0.00244668
0.0025726
0.00266628
0.00271532
0.00271774
0.00267801
0.00260295
0.00249929
0.00237274
0.00222743
0.00206482
0.00188165
0.00167103
0.00153303
0.00199251
0.00251161
0.00289368
0.00414713
0.00441239
0.00448211
0.00451257
0.00453864
0.00456742
0.00458891
0.00455703
0.00440562
0.00414814
0.00385118
0.00353662
0.00319523
0.00283196
0.00247024
0.00213999
0.00187787
0.00171499
0.00165431
0.00168723
0.00180336
0.00195866
0.00209774
0.00219121
0.00223081
0.00221964
0.00216472
0.00207375
0.00195324
0.00180466
0.00162798
0.00156147
0.00209173
0.00260897
0.00307771
0.00403011
0.00444122
0.00454278
0.00456114
0.00455012
0.00452746
0.00451321
0.0045204
0.00449066
0.00434889
0.00411043
0.00386471
0.00366612
0.00348595
0.00326743
0.00298721
0.00264845
0.00224846
0.00181357
0.00143596
0.00121022
0.00115236
0.00124469
0.00144631
0.00165402
0.00180807
0.00189288
0.00190887
0.00186314
0.00175954
0.00156315
0.00133151
0.0018896
0.00253302
0.00321827
0.00392932
0.00469309
0.00480528
0.0047487
0.00462363
0.00446445
0.00434182
0.00442877
0.00467337
0.00480369
0.00466325
0.00426654
0.00376227
0.00332536
0.0030215
0.00280262
0.00260756
0.00241467
0.00219798
0.00190657
0.00151789
0.00113641
0.000912101
0.000854495
0.000957522
0.00122505
0.00151366
0.00174067
0.00189132
0.00197075
0.00195874
0.00186963
0.00228404
0.00283825
0.0036054
0.00462783
0.00529241
0.00531147
0.00512995
0.00481748
0.00435264
0.00374842
0.0034919
0.00389799
0.00452524
0.00496549
0.00509421
0.00490199
0.00444708
0.00390177
0.00342116
0.00303672
0.00273516
0.00250385
0.00228248
0.00203473
0.00172197
0.00124105
0.000548541
8.55444e-05
0.000228556
0.000614882
0.00103334
0.00137343
0.00161983
0.00176294
0.00188128
0.00243783
0.00301753
0.00385707
0.00512215
0.00608821
0.00624644
0.00609621
0.0057316
0.00508402
0.00404902
0.00324029
0.00337719
0.00393595
0.00440775
0.00465737
0.00469508
0.00452976
0.00418234
0.00374322
0.0033223
0.00299441
0.0027331
0.00247586
0.00219536
0.00187787
0.00143016
0.000674683
0.000119712
0.000104494
9.70048e-05
0.000531006
0.00109657
0.00158829
0.0019541
0.00227191
0.00282019
0.00335929
0.00422662
0.00611963
0.00682698
0.0068487
0.00661597
0.00616763
0.00539411
0.00419301
0.00326593
0.00353675
0.00423414
0.00474447
0.00498918
0.00502144
0.00487806
0.00457316
0.00414994
0.00369416
0.00329871
0.00301007
0.00274967
0.00246793
0.00217545
0.00181673
0.00122256
0.000392249
0.000232083
5.27381e-05
0.000265055
0.000580241
0.00125265
0.00179129
0.00228126
0.00293366
0.00350611
0.00449116
0.00721951
0.00717021
0.00692669
0.00656389
0.00598855
0.00507109
0.00380341
0.00286929
0.00317716
0.00392766
0.00450598
0.00484742
0.00499337
0.0049811
0.00482558
0.00454053
0.00417556
0.00381785
0.00352784
0.00326518
0.00298856
0.00269992
0.00241261
0.00205335
0.00142363
0.000537058
0.000100145
6.12813e-05
0.000371242
0.00128111
0.00198476
0.00253019
0.0032403
0.0038779
0.00489664
0.00729591
0.00715643
0.00700279
0.00673857
0.0062823
0.005543
0.00445355
0.00326141
0.00292505
0.00341959
0.00402436
0.0044978
0.00480001
0.00494475
0.00495197
0.00483864
0.00462815
0.00436307
0.00409592
0.00385579
0.00361645
0.00335845
0.00309288
0.00283283
0.00254439
0.00210836
0.0012745
0.000353833
0.000203425
0.00115397
0.00246634
0.00317315
0.00371604
0.00421867
0.00492179
0.00696236
0.0071024
0.00717494
0.00715134
0.00697901
0.00656222
0.00576916
0.00451183
0.00323871
0.00287873
0.00320316
0.00373189
0.00421793
0.00457359
0.00478586
0.00486843
0.00484324
0.00473612
0.00457647
0.00439123
0.00419731
0.0039867
0.00375183
0.00349943
0.00323478
0.00296113
0.00264586
0.00216793
0.00131425
0.000519658
0.0012446
0.00267049
0.00349365
0.00396945
0.00469411
0.00644489
0.00704693
0.00738969
0.00760915
0.00773317
0.00769003
0.00738123
0.00665296
0.00534826
0.00388559
0.00306318
0.00295701
0.0032697
0.00371871
0.00413018
0.00442868
0.00459978
0.0046597
0.00463619
0.00455483
0.00443229
0.00427503
0.00408274
0.00385723
0.0036029
0.00332268
0.00302395
0.00273205
0.00240405
0.00167533
0.000940384
0.002108
0.00351322
0.00442239
0.0059851
0.0059613
0.00690911
0.00738998
0.0077229
0.00802346
0.0082793
0.00842462
0.00835357
0.00789506
0.00679638
0.00521891
0.0038304
0.00304881
0.00288263
0.00311813
0.00351216
0.00388622
0.00415071
0.00428902
0.00432589
0.00428989
0.00419105
0.00403317
0.00382379
0.00357246
0.00329431
0.00301812
0.0027137
0.00210266
0.00175468
0.00168916
0.00244103
0.00391097
0.00506039
0.0068223
0.00595572
0.00691096
0.00733936
0.00759813
0.00783324
0.00809966
0.00841893
0.00875871
0.0090166
0.00901933
0.00849577
0.00724272
0.00556263
0.00404025
0.00306136
0.00272209
0.0028556
0.00320187
0.0035397
0.00375384
0.00384383
0.00383895
0.00374389
0.00356063
0.00329783
0.00298039
0.00256928
0.0019819
0.00190379
0.0030315
0.00386519
0.003905
0.00432889
0.00481506
0.00521929
0.00606233
0.00718629
0.00765291
0.00787949
0.0080144
0.00811131
0.00822265
0.00841802
0.00874894
0.00916809
0.00951158
0.00956134
0.00907854
0.00785246
0.00605209
0.00425128
0.0029508
0.00238482
0.00243834
0.00278686
0.00314257
0.00338398
0.00349381
0.00346818
0.00329711
0.00297891
0.00254053
0.00210934
0.00212668
0.00319515
0.00472678
0.00538804
0.00557563
0.00540784
0.00380851
0.00642981
0.00759498
0.00805921
0.00829958
0.00845415
0.0085564
0.00861841
0.00865754
0.00871999
0.00887639
0.00915915
0.00949578
0.00974075
0.00975655
0.00939135
0.00840565
0.00666893
0.00459994
0.00288024
0.00197602
0.00187109
0.00219912
0.0026007
0.00291399
0.00310375
0.00316321
0.00308376
0.00287291
0.0026348
0.0026754
0.00320452
0.00384705
0.00463688
0.00499789
0.00302572
0.00714253
0.00804282
0.00841964
0.00863857
0.008802
0.00893743
0.00906081
0.00918801
0.00932136
0.00943462
0.00951168
0.0095714
0.00962646
0.00965536
0.00962121
0.0094832
0.00915743
0.00843057
0.00696226
0.00483225
0.0028015
0.00163582
0.00137879
0.00160058
0.00194063
0.00225286
0.00249515
0.0026703
0.00278395
0.00281869
0.00288377
0.0029597
0.00264116
0.00212888
0.00356839
0.00782835
0.00847572
0.00883562
0.0090758
0.0092659
0.00941819
0.00954152
0.00966343
0.00982442
0.0100129
0.0101589
0.0102124
0.0101676
0.0100391
0.0098448
0.00959868
0.0093036
0.00893416
0.00842798
0.00757377
0.0059562
0.00372702
0.0018602
0.00101464
0.000932707
0.00115384
0.00147769
0.00176225
0.00181951
0.00175555
0.0018998
0.00104549
0.000636553
0.00233184
0.00831964
0.00854152
0.00892298
0.00922654
0.00946376
0.00967944
0.00987379
0.0100413
0.0101858
0.0103336
0.0104961
0.0106336
0.0107002
0.0106773
0.0105664
0.0103801
0.0101335
0.00982284
0.00941778
0.00888647
0.00821464
0.00722487
0.00542021
0.00288311
0.00080346
0.000174125
0.00035448
0.000744239
0.00147875
0.00346392
0.00539035
0.00576625
0.00504066
0.00511178
0.00650359
0.0095988
0.00891335
0.00905651
0.00927873
0.00948743
0.00970654
0.0099351
0.0101703
0.0104051
0.0106305
0.0108379
0.011005
0.0111033
0.0111186
0.0110512
0.0109103
0.0107129
0.0104669
0.0101575
0.00976539
0.00927726
0.00866761
0.00785475
0.00636947
0.00294763
0.00022463
2.92621e-05
0.000362619
0.0010429
0.00198479
0.00341932
0.0042763
0.00473057
0.00525535
0.00592582
0.00629059
0.00890695
0.00901304
0.00922068
0.00941609
0.00961574
0.00981889
0.0100353
0.0102842
0.0105731
0.0108764
0.0111455
0.0113383
0.0114354
0.0114372
0.0113541
0.0112013
0.0109788
0.0106713
0.0102656
0.00974751
0.00909992
0.00819472
0.00665194
0.00386786
0.000402824
0.000449295
0.00158351
0.00487639
0.00645857
0.00608154
0.00526973
0.00499535
0.00502137
0.00518835
0.00496371
0.00865742
0.00898891
0.00931201
0.00957156
0.00979966
0.00998495
0.0101219
0.0102375
0.0104014
0.0106686
0.0110053
0.0113216
0.0115524
0.0116808
0.0117154
0.0116703
0.011556
0.0113752
0.0111199
0.0107693
0.0102928
0.00966306
0.00884219
0.00765338
0.00563842
0.00249003
0.00102647
0.000948534
0.00275024
0.0059715
0.00697296
0.00678388
0.00644766
0.00574629
0.00206734
0.0085527
0.00908626
0.00950828
0.00983689
0.0101386
0.0104036
0.0105885
0.0106537
0.010631
0.010651
0.0108296
0.0111344
0.0114436
0.0116756
0.0118127
0.0118653
0.0118457
0.0117618
0.0116186
0.0114198
0.0111659
0.0108548
0.0104875
0.010066
0.00956514
0.00891334
0.00789287
0.00633681
0.00455765
0.00357158
0.00387441
0.00503544
0.00600569
0.00422988
0.000453302
0.00878243
0.00925141
0.00960499
0.00990049
0.0102214
0.0105829
0.010927
0.0111456
0.0111852
0.0111082
0.0110733
0.0111864
0.0113852
0.0115563
0.0116498
0.0116655
0.011612
0.0114918
0.0113079
0.0110644
0.0107658
0.0104376
0.0101292
0.00979311
0.00927975
0.0084776
0.00799437
0.00786392
0.00750908
0.00696294
0.0060768
0.0043335
0.00290106
0.00193899
0.00466877
0.00954019
0.00954659
0.00968326
0.00988143
0.0101878
0.0106258
0.0111124
0.0114781
0.0116341
0.0116184
0.0115473
0.011539
0.0115898
0.0116153
0.0115737
0.0114536
0.0112391
0.0109225
0.0105169
0.0100584
0.00953906
0.00888142
0.00861006
0.00996431
0.0106186
0.0105554
0.0100574
0.00917838
0.00775941
0.00568485
0.00361569
0.00288051
0.00352675
0.00471843
0.00732302
0.0103174
0.00964928
0.00957283
0.00970631
0.0100414
0.0105875
0.0112239
0.0117447
0.0120443
0.0121434
0.0121161
0.0120632
0.0120538
0.012065
0.0120442
0.01196
0.0117927
0.0115221
0.0111263
0.010589
0.00991159
0.00910495
0.0082038
0.0075453
0.00756542
0.00790087
0.00810503
0.00799027
0.00745357
0.00645096
0.00511603
0.00420217
0.00414346
0.00435478
0.00393214
0.0104372
0.00938932
0.00927381
0.00943752
0.00983889
0.0104437
0.011123
0.01172
0.0121564
0.0124288
0.0125613
0.0125885
0.0125541
0.012494
0.0124216
0.0123344
0.012225
0.0120858
0.0119078
0.0116773
0.0113697
0.0109475
0.0103726
0.00964131
0.00883927
0.0080997
0.00748092
0.00693898
0.00637785
0.00579452
0.00548315
0.0054915
0.00557885
0.00545684
0.00297904
0.00946642
0.00881467
0.00890765
0.00916843
0.00956657
0.0100882
0.0106974
0.0113038
0.0118205
0.0122091
0.0124658
0.0126028
0.0126422
0.012609
0.0125239
0.0124022
0.0122532
0.012083
0.0118963
0.0116961
0.0114849
0.0112636
0.0110223
0.0107181
0.0102792
0.00964131
0.00881243
0.00789043
0.00696968
0.00622349
0.00604463
0.00610242
0.00587687
0.00522497
0.00332782
0.00839254
0.00855831
0.00885073
0.00908891
0.00930632
0.00954543
0.0099064
0.0104295
0.0110173
0.0115391
0.011925
0.0121596
0.0122555
0.0122366
0.0121289
0.0119534
0.0117248
0.0114568
0.0111691
0.0108757
0.0105845
0.0103484
0.0103489
0.0106402
0.0107877
0.0106117
0.0101908
0.0095893
0.00883137
0.00787888
0.00663984
0.00571038
0.00578849
0.00616926
0.0069475
0.007863
0.00862955
0.00904175
0.00930735
0.00948518
0.00955576
0.00956327
0.00968057
0.0100423
0.0105773
0.0111234
0.0115629
0.0118458
0.011963
0.0119288
0.0117655
0.0114829
0.0110829
0.0105841
0.0100012
0.00928247
0.00840571
0.00776317
0.00794439
0.00857403
0.00901927
0.00915245
0.00895961
0.00836194
0.00731562
0.00631261
0.00614391
0.00639996
0.00650607
0.00546634
0.00786237
0.00874328
0.00927031
0.00968825
0.0100544
0.01028
0.0102612
0.0100086
0.00975739
0.00977604
0.0101007
0.0105906
0.0110876
0.0114907
0.0117531
0.0118593
0.0118066
0.0115922
0.011204
0.0106177
0.00979497
0.00868691
0.00727429
0.00576501
0.00459365
0.00396742
0.00379143
0.00391974
0.00424455
0.00463029
0.00494723
0.00515555
0.00506764
0.00426214
0.00176481
0.00813068
0.00884024
0.00936359
0.00985734
0.0103891
0.0108764
0.0111798
0.0111787
0.0108438
0.0103372
0.00995703
0.00989247
0.0101215
0.0105061
0.0109127
0.0112602
0.0115119
0.0116523
0.0116687
0.0115443
0.0112547
0.0107661
0.010034
0.00900878
0.00766609
0.00610058
0.00453036
0.00317986
0.00226827
0.00199016
0.00232244
0.00283697
0.00319483
0.00311297
0.00118452
0.00826777
0.00886322
0.0093537
0.00985008
0.0104201
0.0110085
0.0115111
0.0118273
0.0118928
0.0116778
0.0112197
0.0106827
0.0102875
0.0101493
0.0102356
0.0104483
0.0106966
0.0109258
0.0111086
0.0112317
0.0112843
0.0112524
0.0111153
0.0108397
0.0103855
0.0097279
0.00888345
0.00789681
0.00681397
0.00572256
0.00489849
0.0045819
0.00452342
0.00435427
0.0022421
0.00807416
0.00875438
0.00929362
0.00984721
0.0104913
0.0111448
0.0116972
0.0120852
0.0122889
0.0123058
0.0121351
0.0117862
0.0113117
0.0108307
0.0104725
0.0102902
0.0102525
0.0102975
0.0103749
0.0104552
0.0105243
0.0105763
0.0106078
0.0106103
0.0105592
0.0104119
0.0101323
0.00969498
0.00909695
0.008383
0.00764585
0.00697466
0.00640735
0.00590068
0.00465489
0.00803995
0.00860898
0.0090764
0.00963862
0.0104085
0.0112552
0.0119705
0.0124636
0.0127357
0.0128104
0.0127133
0.0124656
0.0120819
0.0115841
0.0110312
0.0105219
0.0101346
0.00987885
0.00971687
0.00960594
0.00951831
0.00944226
0.00938319
0.00939391
0.00965428
0.0102176
0.0105519
0.0104693
0.0100797
0.00944837
0.00859966
0.00767089
0.0069682
0.00650007
0.00567646
0.00826877
0.00838543
0.0086054
0.00905106
0.00988616
0.0109694
0.0119552
0.0126701
0.0131114
0.0133202
0.013332
0.0131766
0.0128777
0.0124477
0.0118912
0.0112298
0.010535
0.00990652
0.00939843
0.00899331
0.00863822
0.00828126
0.00790257
0.00763763
0.0079897
0.00916268
0.0101022
0.0103686
0.0101819
0.00965357
0.00883768
0.00787854
0.00698109
0.00596911
0.00384474
0.00826565
0.0079054
0.00788207
0.00814161
0.00885742
0.0100257
0.0113187
0.0123996
0.0131469
0.0135962
0.0138029
0.0138083
0.0136478
0.0133503
0.0129299
0.01238
0.0116873
0.0108742
0.0100329
0.00926819
0.0086052
0.00799828
0.0073902
0.00677549
0.00633399
0.00645275
0.00708072
0.00768444
0.00798603
0.0079333
0.00755429
0.00692598
0.00611096
0.00489891
0.00240845
0.00764078
0.00732178
0.00729585
0.0073721
0.00764191
0.00832156
0.00957221
0.0111284
0.012432
0.0133214
0.0138683
0.0141495
0.0142125
0.0140932
0.0138252
0.0134328
0.0129205
0.0122721
0.0114743
0.0105636
0.00964728
0.00881332
0.00806077
0.00733837
0.00661611
0.00595499
0.00549362
0.00528229
0.00523806
0.00522793
0.00513911
0.0049195
0.00454491
0.00384583
0.00211746
0.00690131
0.00739852
0.00768973
0.00774599
0.00760591
0.00736439
0.00756017
0.00897703
0.0108325
0.012307
0.0133042
0.0139445
0.0143204
0.0144812
0.0144552
0.0142645
0.0139274
0.0134533
0.012839
0.0120815
0.0112091
0.0102977
0.0094265
0.00862403
0.00786986
0.00713321
0.0064075
0.00572439
0.00514021
0.00470461
0.00442323
0.00424177
0.00406739
0.0037016
0.00233195
0.00710115
0.00824017
0.00891895
0.00925592
0.00929416
0.00887697
0.00796552
0.00818004
0.0098139
0.0114924
0.0127199
0.0135556
0.0141141
0.014464
0.0146405
0.0146608
0.0145332
0.0142594
0.0138365
0.0132632
0.0125534
0.0117509
0.0109207
0.010116
0.00936011
0.00864347
0.0079452
0.00725324
0.00657803
0.00595987
0.00545302
0.0050737
0.00475946
0.00429047
0.00270295
0.00813128
0.00877947
0.00942518
0.00996641
0.0104153
0.0105865
0.0101593
0.00993109
0.0109056
0.0121167
0.0130656
0.0137548
0.0142475
0.0145849
0.0147924
0.0148789
0.0148431
0.0146857
0.0144023
0.0139812
0.0134249
0.0127628
0.012045
0.0113212
0.0106206
0.00994762
0.00929472
0.00865023
0.00800873
0.00737755
0.00677865
0.00623231
0.00571637
0.00503543
0.00315044
0.00878867
0.00867206
0.00892889
0.00931231
0.00985801
0.0105024
0.0111136
0.011738
0.0125333
0.0132735
0.0138759
0.0143524
0.0147172
0.0149778
0.0151385
0.0152014
0.0151664
0.0150318
0.0147933
0.0144452
0.0139876
0.0134379
0.0128298
0.0121989
0.011568
0.0109458
0.01033
0.00971284
0.00908674
0.00844556
0.00778617
0.00711259
0.00642477
0.00558266
0.00354301
0.00851651
0.0083912
0.00851388
0.00877778
0.0092586
0.0100219
0.0110284
0.0120848
0.012992
0.013713
0.0142879
0.0147458
0.0150983
0.0153495
0.0155021
0.0155587
0.015521
0.0153888
0.0151598
0.0148314
0.0144063
0.0139001
0.0133409
0.0127583
0.0121718
0.0115885
0.0110042
0.0104095
0.00979152
0.00913301
0.00841483
0.00763908
0.00683705
0.00591413
0.00384448
0.00819924
0.00841908
0.00863843
0.00895235
0.00940473
0.0100323
0.0108754
0.0118696
0.0128333
0.0136444
0.0143011
0.0148293
0.0152432
0.0155488
0.0157493
0.0158485
0.0158483
0.01575
0.0155542
0.0152599
0.0148678
0.0143882
0.0138426
0.013258
0.0126583
0.0120571
0.0114551
0.0108431
0.0102033
0.0095087
0.00873117
0.00787899
0.00702171
0.00607827
0.00406359
0.00817889
0.00855887
0.00884447
0.00926903
0.00980132
0.0104047
0.0111493
0.0120388
0.0129364
0.0137227
0.0143783
0.014918
0.0153503
0.0156778
0.0159071
0.0160403
0.0160726
0.0160021
0.0158312
0.0155619
0.0151917
0.0147248
0.0141813
0.0135879
0.0129679
0.0123374
0.0116996
0.0110463
0.0103574
0.00960269
0.00876111
0.0078712
0.00702766
0.00609898
0.00414133
0.0083475
0.00861091
0.00887522
0.0094531
0.0101867
0.0109506
0.011772
0.0126316
0.0134304
0.0141175
0.0146998
0.0151896
0.0155907
0.0159069
0.016141
0.0162868
0.016335
0.0162808
0.0161238
0.0158685
0.0155129
0.0150524
0.0145002
0.0138813
0.0132201
0.0125375
0.0118413
0.0111257
0.0103707
0.00954809
0.00865273
0.0077533
0.00694784
0.00605318
0.00415167
0.00795111
0.00821281
0.0085673
0.00940955
0.0104032
0.0113848
0.0123121
0.0131375
0.0138487
0.0144624
0.0149954
0.0154554
0.0158433
0.0161575
0.0163948
0.0165501
0.0166175
0.0165911
0.0164667
0.0162414
0.0159109
0.0154729
0.0149333
0.014308
0.013617
0.012882
0.0121172
0.0113232
0.0104856
0.00958354
0.00862788
0.00771086
0.0069301
0.00607514
0.00426811
0.00621425
0.00710782
0.00760075
0.0082642
0.00902457
0.00991933
0.010934
0.0119837
0.0129773
0.013846
0.0145713
0.0151693
0.0156598
0.0160548
0.0163594
0.0165743
0.0166976
0.0167266
0.0166576
0.0164865
0.016209
0.0158228
0.0153307
0.0147413
0.0140682
0.0133263
0.0125309
0.0116874
0.0107868
0.00981409
0.00878964
0.00782571
0.00703772
0.00621312
0.00453299
0.00436912
0.0060511
0.00605236
0.00582617
0.00566342
0.00576112
0.00629504
0.00730053
0.00883077
0.0106138
0.0121608
0.0133587
0.0142776
0.014991
0.0155408
0.0159523
0.0162404
0.0164128
0.0164725
0.0164197
0.0162529
0.015971
0.0155749
0.0150698
0.0144645
0.0137691
0.0129955
0.0121499
0.0112263
0.0102123
0.00913331
0.00811975
0.00731255
0.00650673
0.00492736
0.0039119
0.00632756
0.00643587
0.00611948
0.0055823
0.00484654
0.00410112
0.00318874
0.00241948
0.00383474
0.0066475
0.00928129
0.0112727
0.0127284
0.013799
0.0145964
0.015183
0.0155974
0.0158624
0.0159912
0.0159898
0.0158602
0.0156036
0.0152235
0.0147255
0.0141163
0.0134032
0.0125904
0.0116709
0.0106327
0.00950787
0.00844867
0.00761731
0.00681059
0.0053049
0.00481062
0.00745769
0.00832634
0.00868126
0.00876248
0.00855563
0.0081056
0.00691389
0.00292189
0.00149615
0.00147017
0.00482338
0.00788177
0.0101525
0.011797
0.0129868
0.0138609
0.0145121
0.0149877
0.0153041
0.0154742
0.015507
0.0154043
0.0151668
0.014797
0.0142978
0.0136732
0.0129224
0.0120345
0.010998
0.00985768
0.00878573
0.00794482
0.00712754
0.00567303
0.00715311
0.0082625
0.00866526
0.00884492
0.00890364
0.00884349
0.0086078
0.00780841
0.00457383
0.00119063
0.00204315
0.00540763
0.0082047
0.00987055
0.011095
0.0121538
0.0130329
0.0137391
0.0142838
0.0146781
0.0149314
0.0150519
0.0150469
0.0149155
0.0146494
0.0142447
0.0136996
0.0130072
0.0121533
0.0111354
0.0100219
0.00898878
0.00816191
0.0073219
0.00587425
0.0100059
0.00899932
0.00840669
0.00792168
0.00737505
0.00660497
0.00540239
0.0032255
0.00193884
0.00363794
0.0065184
0.00839335
0.00952675
0.0104501
0.0113293
0.0121316
0.0128313
0.0134186
0.0138911
0.0142492
0.0144943
0.0146312
0.0146624
0.0145799
0.0143722
0.0140299
0.0135441
0.0129008
0.0120855
0.0111116
0.0100696
0.00911556
0.00832228
0.00746365
0.00597017
0.0105295
0.00899407
0.00848776
0.00804653
0.0073384
0.00603469
0.00389252
0.00211272
0.00373184
0.00649329
0.00802575
0.00909086
0.00993017
0.0106726
0.0113632
0.0120028
0.0125765
0.0130698
0.013476
0.0137959
0.014031
0.0141778
0.0142278
0.0141694
0.0139903
0.0136795
0.0132244
0.0126115
0.0118376
0.0109363
0.0100017
0.00914375
0.0083808
0.00747878
0.00582299
0.00972875
0.00862058
0.00842803
0.00819656
0.00761233
0.00634259
0.00444462
0.00313188
0.00411955
0.00659578
0.0079326
0.00889743
0.00968527
0.0103805
0.0110155
0.011597
0.0121201
0.0125787
0.0129687
0.0132873
0.0135305
0.0136915
0.0137603
0.013725
0.0135736
0.0132933
0.0128708
0.0122964
0.0115782
0.0107613
0.00992803
0.00914841
0.00840836
0.00746728
0.0056384
0.00983888
0.00852071
0.00810246
0.00767088
0.00684052
0.00524578
0.00311801
0.00228989
0.00403421
0.00650343
0.00762155
0.00847322
0.00921688
0.00989588
0.0105235
0.0110991
0.0116162
0.0120694
0.0124556
0.0127726
0.013017
0.0131827
0.0132615
0.0132425
0.0131131
0.0128605
0.0124742
0.0119513
0.0113081
0.0105891
0.00985567
0.00914718
0.00843014
0.00745507
0.0054457
0.00938971
0.00835156
0.00801771
0.00754017
0.00649784
0.00458522
0.00236025
0.00208152
0.00458774
0.00631735
0.00717665
0.0079376
0.00867203
0.00936633
0.0100132
0.0106061
0.0111365
0.0115983
0.0119894
0.0123092
0.0125565
0.0127281
0.0128169
0.0128129
0.012704
0.0124787
0.0121294
0.0116585
0.0110853
0.0104483
0.00979036
0.00913349
0.00843559
0.00743847
0.00528892
0.00835163
0.00825083
0.0083432
0.00824382
0.0077164
0.00645808
0.00428425
0.00216628
0.00323699
0.00521358
0.00612662
0.00693603
0.00774533
0.00852453
0.00925097
0.00991368
0.0105016
0.0110075
0.0114306
0.011774
0.0120409
0.0122321
0.0123438
0.0123677
0.0122933
0.0121096
0.0118111
0.0114021
0.0109019
0.0103417
0.00975299
0.00914984
0.00849036
0.00751817
0.00531031
0.00762342
0.00795392
0.00823165
0.00843027
0.00844172
0.00799867
0.00674171
0.00429725
0.00190776
0.00314865
0.00432182
0.00529602
0.00626041
0.00720798
0.00810685
0.00893494
0.00967258
0.0103056
0.0108298
0.0112523
0.0115801
0.0118192
0.011971
0.0120317
0.0119939
0.0118492
0.0115932
0.0112313
0.0107825
0.0102748
0.0097338
0.00916932
0.00853956
0.00758813
0.00535011
0.00750814
0.00790596
0.0081594
0.00838435
0.0085574
0.00851582
0.00811305
0.00711474
0.00480103
0.00166733
0.00182447
0.00308633
0.00430211
0.00538166
0.00643662
0.00745921
0.00840431
0.00922869
0.00991612
0.0104721
0.0109091
0.0112402
0.0114743
0.0116121
0.0116479
0.0115733
0.0113833
0.0110833
0.0106927
0.0102395
0.00974848
0.00922887
0.00864397
0.0077485
0.00556851
0.00748143
0.00801105
0.00832566
0.00861308
0.00886029
0.0089481
0.00882036
0.00848765
0.00783448
0.00612359
0.00256091
0.00125866
0.00208888
0.00342562
0.00462295
0.00578111
0.00694551
0.00802105
0.00894262
0.00969543
0.0102929
0.010752
0.0110846
0.0113013
0.0114041
0.0113896
0.0112537
0.0110006
0.0106493
0.0102305
0.00977143
0.00928244
0.00872906
0.00787309
0.00576635
0.00729419
0.00784904
0.00822914
0.00863701
0.00903923
0.0092576
0.0092149
0.00894971
0.0085368
0.00798072
0.00686955
0.00397588
0.00146116
0.00117746
0.00247694
0.00381263
0.00505002
0.00633156
0.00755777
0.00858255
0.00938058
0.00998973
0.0104522
0.0107911
0.01101
0.0111021
0.0110591
0.0108829
0.0105927
0.0102221
0.00980278
0.0093486
0.00882926
0.00801681
0.00600502
0.00719957
0.00769025
0.00806603
0.00853305
0.00907179
0.00946482
0.00961429
0.00954643
0.00930925
0.00895286
0.00850849
0.00781292
0.00597261
0.0022825
0.000754604
0.00198697
0.00345157
0.00476442
0.00605565
0.00731607
0.00841691
0.00929507
0.00994808
0.0104105
0.010718
0.0108869
0.0109176
0.0108089
0.0105756
0.0102503
0.00986631
0.00944006
0.00894349
0.00815329
0.00619579
0.00705463
0.00750976
0.00788697
0.00838597
0.00899273
0.00947064
0.00970964
0.00972125