/*--------------------------------*- C++ -*----------------------------------*\
| =========                 |                                                 |
| \\      /  F ield         | OpenFOAM: The Open Source CFD Toolbox           |
|  \\    /   O peration     | Version:  v2006                                 |
|   \\  /    A nd           | Website:  www.openfoam.com                      |
|    \\/     M anipulation  |                                                 |
\*---------------------------------------------------------------------------*/
FoamFile
{
    version     2.0;
    format      ascii;
    class       volScalarField;
    location    "23";
    object      nut;
}
// * * * * * * * * * * * * * * * * * * * * * * * * * * * * * * * * * * * * * //

dimensions      [0 2 -1 0 0 0 0];


internalField   nonuniform List<scalar> 
78750
(
4.76714e-07
7.92955e-07
5.91782e-06
7.79447e-06
2.17027e-05
2.12055e-05
0.000111741
6.63166e-05
8.17659e-05
7.42075e-05
0.000102538
8.94169e-05
0.00011363
0.000108356
0.000124978
0.000130575
0.000139547
0.000147979
0.000155858
0.000162087
0.000166937
0.000170236
0.000173166
0.00017531
0.000176634
0.000174904
0.000171804
0.000166316
0.000151703
9.34811e-05
4.25394e-05
2.81166e-05
2.67578e-05
3.06189e-05
2.9584e-06
1.07511e-06
6.91594e-06
5.44861e-07
1.55419e-06
4.38746e-08
2.32192e-06
3.18786e-06
1.26785e-06
8.89641e-07
1.05475e-06
2.29892e-06
4.42309e-06
4.58091e-06
3.65332e-06
7.47484e-06
2.15981e-06
1.27737e-05
1.416e-05
1.88052e-05
2.36119e-05
2.8923e-05
3.49478e-05
4.16607e-05
4.88067e-05
5.56644e-05
6.14177e-05
6.60009e-05
6.46422e-05
5.66515e-05
4.15002e-05
3.22734e-05
2.39686e-05
1.95116e-05
2.23462e-05
5.93708e-06
4.35764e-07
7.96104e-07
5.57517e-07
1.51749e-05
1.6175e-05
2.77873e-05
1.9375e-05
2.75897e-05
2.15492e-05
2.83639e-05
2.45228e-05
3.24192e-05
2.73087e-05
2.97532e-05
2.39879e-05
2.47057e-05
1.99652e-05
1.82526e-05
1.60271e-05
1.46592e-05
1.38004e-05
1.36425e-05
1.37634e-05
1.39663e-05
1.41164e-05
1.42247e-05
1.46111e-05
1.52124e-05
1.60929e-05
1.66216e-05
1.66217e-05
1.24357e-05
9.96387e-06
1.98271e-05
4.07295e-06
2.43588e-07
6.95279e-06
1.46539e-05
2.46656e-05
5.34981e-05
6.6869e-05
0.000111108
8.57263e-05
0.000123423
9.51278e-05
0.000105515
8.86347e-05
8.20974e-05
7.20661e-05
6.3953e-05
5.69789e-05
5.10394e-05
4.6438e-05
4.29116e-05
4.00473e-05
3.7389e-05
3.43253e-05
3.05058e-05
2.60821e-05
2.14512e-05
1.71354e-05
1.36113e-05
1.10799e-05
9.52982e-06
8.82816e-06
8.91686e-06
1.00245e-05
1.54681e-05
4.83668e-05
4.01112e-06
2.24435e-06
2.58706e-05
2.44523e-05
5.00227e-05
0.000102467
0.000111961
0.000120808
0.000134271
0.000135299
0.000138723
0.000136986
0.000135266
0.000130562
0.000125327
0.000119077
0.000112302
0.000104782
9.60937e-05
8.62848e-05
7.5875e-05
6.55876e-05
5.59613e-05
4.72648e-05
3.97543e-05
3.36726e-05
2.88095e-05
2.38483e-05
1.69093e-05
1.06335e-05
7.23194e-06
5.85276e-06
5.5157e-06
7.18887e-06
1.95603e-05
4.06422e-06
8.37818e-07
1.27796e-05
2.90901e-05
6.10592e-05
8.16396e-05
0.000100037
0.000114618
0.000122937
0.000127826
0.000131143
0.000133662
0.000135141
0.000134945
0.000132381
0.000127964
0.000123237
0.000119856
0.000119094
0.000121439
0.000126314
0.000131422
0.000131887
0.000121987
0.000101178
7.6338e-05
5.47519e-05
3.92855e-05
2.99643e-05
2.64222e-05
2.00558e-05
5.42281e-06
4.30714e-06
6.77349e-06
2.43274e-05
4.41244e-06
8.30381e-07
6.39552e-06
1.6636e-05
3.27803e-05
5.3195e-05
7.14584e-05
8.42022e-05
9.15403e-05
9.61673e-05
0.000100646
0.000105478
0.000110224
0.00011456
0.000118703
0.000123498
0.000129933
0.000138219
0.000146164
0.000148328
0.00013964
0.000125013
0.000113795
0.000109405
0.000113273
0.000126783
0.000143875
0.000139977
9.59557e-05
4.5631e-05
2.29546e-05
1.59054e-05
3.8245e-06
3.93342e-06
1.4315e-05
5.0438e-06
4.42129e-06
2.43434e-05
7.28958e-05
0.000113925
0.000117937
0.000113874
0.0001103
0.00010945
0.000112052
0.000117971
0.000126202
0.000135312
0.000144049
0.000151445
0.000156453
0.000157575
0.000153633
0.000147508
0.000147454
0.000161109
0.00018995
0.000217897
0.000203384
0.000158277
0.000126486
0.000120017
0.000143571
0.000187182
0.00015226
5.22356e-05
2.20173e-05
1.14456e-05
4.34595e-06
1.34496e-05
5.54562e-06
6.83757e-06
5.69313e-05
9.88292e-05
9.43414e-05
9.31441e-05
9.66011e-05
0.00010491
0.000117812
0.00013499
0.000155689
0.000178296
0.000200426
0.000219562
0.000233869
0.000242508
0.000245359
0.000242718
0.000236386
0.00023363
0.000245856
0.000275321
0.000266888
0.000257524
0.000248379
0.000240951
0.000171139
0.000114063
0.000102879
0.000120687
0.000103281
3.73292e-05
1.56674e-05
5.45502e-06
1.1851e-05
5.73586e-06
6.5656e-06
6.14326e-05
9.36717e-05
8.7393e-05
8.22792e-05
8.35334e-05
8.99699e-05
9.90729e-05
0.000109213
0.000119491
0.000129144
0.000137601
0.000144861
0.000151408
0.000157835
0.000164588
0.000171881
0.000180113
0.000191161
0.000209053
0.000236427
0.000264598
0.000263726
0.000255333
0.000247087
0.000230768
0.000184794
0.000140629
0.000116983
8.27371e-05
3.80956e-05
1.56396e-05
5.7421e-06
1.32761e-05
5.89019e-06
5.30424e-06
2.88584e-05
7.84637e-05
8.75756e-05
8.00807e-05
7.29466e-05
7.11302e-05
7.26712e-05
7.58068e-05
8.0707e-05
8.84018e-05
9.93441e-05
0.000112712
0.000127114
0.000141913
0.000157482
0.000174285
0.000192284
0.000212013
0.000236854
0.00026732
0.000268977
0.000262919
0.00025626
0.000249338
0.000242429
0.000235658
0.000151415
9.52188e-05
6.78466e-05
3.99113e-05
1.76943e-05
8.46467e-06
1.8131e-05
5.75282e-06
6.82967e-06
5.04588e-05
0.000114968
8.35365e-05
5.90088e-05
5.64396e-05
6.88358e-05
8.8921e-05
0.000108256
0.000123005
0.000134938
0.000146246
0.000156872
0.000166054
0.000174472
0.000184371
0.000199426
0.000225212
0.000261352
0.000271615
0.000267982
0.000263105
0.00025722
0.000250677
0.000243855
0.000237133
0.000230858
0.000208447
0.000139808
8.96749e-05
4.94817e-05
2.16355e-05
1.09044e-05
2.04202e-05
5.48897e-06
7.14304e-06
6.48393e-05
7.86205e-05
4.76518e-05
3.64888e-05
4.24452e-05
6.42849e-05
9.80967e-05
0.000130512
0.000152901
0.000164063
0.000166092
0.000163385
0.000161021
0.00016251
0.000168729
0.000178772
0.00019191
0.00020893
0.000231018
0.000253759
0.000252457
0.000246058
0.00023903
0.000231694
0.000224386
0.000158181
0.000102519
7.83419e-05
6.26412e-05
3.93835e-05
1.93024e-05
1.27355e-05
2.86567e-05
5.34417e-06
5.88829e-06
3.62243e-05
8.21075e-05
6.99806e-05
4.73769e-05
3.53692e-05
3.58065e-05
4.66947e-05
6.56197e-05
8.65921e-05
0.00010325
0.000112541
0.000115356
0.000116905
0.000122301
0.000132997
0.000147566
0.000163536
0.000178816
0.000192354
0.000203829
0.000213454
0.000221553
0.000227465
0.000227161
0.000212355
0.000180365
0.000141676
0.000105434
7.1093e-05
3.92234e-05
1.83138e-05
1.35092e-05
3.31692e-05
5.10751e-06
6.57327e-06
4.49953e-05
9.80007e-05
9.76313e-05
7.63222e-05
4.8922e-05
3.58659e-05
3.63933e-05
4.73252e-05
6.61341e-05
8.63923e-05
0.00010111
0.000107595
0.000108497
0.00011072
0.000118516
0.000131354
0.000146472
0.00016116
0.000173666
0.00018315
0.000189456
0.000192778
0.000193265
0.00019089
0.000185426
0.000176418
0.000160863
0.000130477
8.29942e-05
3.97952e-05
1.73359e-05
1.36651e-05
3.68822e-05
4.82007e-06
6.49057e-06
4.48542e-05
9.56796e-05
9.11581e-05
7.53004e-05
5.51518e-05
3.84258e-05
3.09515e-05
3.28031e-05
4.35154e-05
6.11779e-05
7.79299e-05
8.84741e-05
9.58558e-05
0.000103486
0.000112197
0.000121149
0.00012891
0.000135187
0.000140472
0.000144792
0.000147597
0.0001483
0.000146709
0.000143014
0.000137294
0.000128973
0.000116006
9.50852e-05
6.55417e-05
3.52389e-05
1.7299e-05
1.65664e-05
5.00966e-05
4.87013e-06
6.56113e-06
4.65534e-05
0.000115273
0.000125312
0.00011888
9.82346e-05
6.77704e-05
4.50832e-05
3.53232e-05
3.47579e-05
4.10171e-05
5.33555e-05
6.93224e-05
8.40591e-05
9.64282e-05
0.000107207
0.000113596
0.000114013
0.000111566
0.000109852
0.000110235
0.000112144
0.000114157
0.000115025
0.000114078
0.000111189
0.000106378
9.88096e-05
8.56783e-05
6.2199e-05
2.99121e-05
1.17669e-05
1.30776e-05
4.49444e-05
4.75091e-06
6.65606e-06
4.76548e-05
0.000116373
0.000121284
0.000109224
9.56803e-05
8.4006e-05
6.93726e-05
5.34411e-05
4.38398e-05
4.20001e-05
4.67117e-05
5.75454e-05
7.328e-05
8.87286e-05
9.85731e-05
0.000106257
0.000117853
0.000125935
0.000113909
9.64741e-05
8.83477e-05
8.7369e-05
8.96787e-05
9.27205e-05
9.463e-05
9.4075e-05
8.9652e-05
7.84522e-05
5.52508e-05
2.47346e-05
1.10894e-05
1.4278e-05
5.34442e-05
5.04602e-06
6.29461e-06
3.49234e-05
9.21835e-05
0.000102351
9.26628e-05
7.70402e-05
6.52827e-05
6.13237e-05
5.95979e-05
5.32714e-05
4.54638e-05
4.20494e-05
4.51e-05
5.5981e-05
7.69754e-05
0.00010654
0.000128439
0.000126249
0.000111759
0.000107926
0.000125778
0.000122312
8.89233e-05
7.04979e-05
6.7774e-05
7.06489e-05
7.56254e-05
8.12789e-05
8.48457e-05
7.29076e-05
2.78009e-05
8.60824e-06
1.09802e-05
4.60044e-05
5.27086e-06
6.03665e-06
2.74277e-05
7.13135e-05
8.97686e-05
8.49655e-05
6.80785e-05
5.0265e-05
4.4919e-05
5.12405e-05
6.11905e-05
6.22627e-05
5.29258e-05
4.39083e-05
4.11627e-05
4.63438e-05
6.30379e-05
0.00010002
0.000154617
0.000168115
0.000128121
9.05468e-05
7.97165e-05
0.000106859
0.000102802
6.04075e-05
4.51843e-05
4.72915e-05
5.10184e-05
4.8452e-05
3.6394e-05
2.08142e-05
1.16779e-05
1.58692e-05
6.54641e-05
5.88795e-06
6.385e-06
2.58783e-05
6.71639e-05
8.67852e-05
8.06491e-05
5.86708e-05
3.37215e-05
2.49199e-05
3.03008e-05
4.79525e-05
7.46185e-05
9.18841e-05
8.45642e-05
6.86365e-05
6.00384e-05
6.17389e-05
7.65811e-05
0.000117542
0.000187049
0.000177976
0.000167274
9.46442e-05
4.25612e-05
1.7713e-05
7.08051e-06
1.0015e-05
1.64121e-05
2.52595e-05
3.17813e-05
2.73536e-05
1.56241e-05
1.01806e-05
1.62257e-05
7.10047e-05
6.28736e-06
6.58296e-06
2.81862e-05
8.17246e-05
0.000109011
0.000101346
6.9667e-05
3.35133e-05
1.98686e-05
2.17395e-05
3.36918e-05
5.49598e-05
8.0333e-05
9.44898e-05
8.98223e-05
7.98473e-05
7.8848e-05
9.73966e-05
0.000153256
0.000196045
0.000185942
0.000174283
0.000141544
4.78812e-05
1.4631e-05
3.46536e-06
1.02942e-05
2.17295e-06
7.86698e-06
1.42447e-05
1.64395e-05
1.38178e-05
1.27983e-05
2.28461e-05
7.14547e-05
6.87131e-06
7.28538e-06
3.57675e-05
0.000108101
0.000136317
0.000119532
7.45255e-05
3.39101e-05
2.01827e-05
2.41856e-05
3.97126e-05
6.30159e-05
8.71637e-05
0.000101247
9.92117e-05
8.85589e-05
8.21001e-05
8.91529e-05
0.000123111
0.000203821
0.000196704
0.000185658
0.000173468
8.46153e-05
2.60158e-05
6.67039e-06
6.85411e-06
2.41175e-06
3.48639e-06
5.73342e-06
1.08425e-05
1.11237e-05
1.1642e-05
2.24756e-05
7.15384e-05
7.2875e-06
8.12868e-06
5.00476e-05
0.000133054
0.000137115
0.000110557
6.35597e-05
2.91306e-05
1.77744e-05
2.29543e-05
4.05902e-05
6.59519e-05
9.26923e-05
0.000113154
0.000120997
0.000116987
0.000110785
0.000114733
0.000141945
0.000202088
0.000215534
0.000205673
0.000194862
0.000183487
7.48683e-05
2.61142e-05
9.20767e-06
6.4053e-06
8.5712e-07
2.5906e-06
7.83448e-06
1.09166e-05
1.3786e-05
2.98366e-05
6.2644e-05
7.71323e-06
8.352e-06
5.51062e-05
0.000126199
0.000131353
0.000116971
8.56168e-05
4.55449e-05
2.34865e-05
2.05266e-05
3.01464e-05
4.66923e-05
6.63386e-05
8.56004e-05
0.000100948
0.000110405
0.000115558
0.00012211
0.000139114
0.000178511
0.00023527
0.000227492
0.000218801
0.000209483
0.000199946
0.000129269
4.71873e-05
2.17096e-05
1.22121e-05
1.40188e-06
5.10092e-06
1.09414e-05
1.82306e-05
4.37783e-05
5.32215e-05
7.78621e-06
8.30391e-06
5.67672e-05
0.000129296
0.00013849
0.000132943
0.00011714
8.32471e-05
4.39748e-05
2.45437e-05
2.24706e-05
3.02964e-05
4.43025e-05
6.2271e-05
8.15075e-05
9.94267e-05
0.000115156
0.000130149
0.00014753
0.000171756
0.000207749
0.000245938
0.000239423
0.000231935
0.000223604
0.000214523
0.000204719
0.00014878
7.38963e-05
3.65256e-05
3.16253e-06
4.83292e-06
1.24508e-05
3.17505e-05
6.18756e-05
7.50218e-06
7.96018e-06
5.28709e-05
0.000133627
0.000151659
0.000153224
0.000148088
0.00013354
9.95854e-05
5.65968e-05
3.23077e-05
2.49237e-05
2.69532e-05
3.55069e-05
4.93362e-05
6.70458e-05
8.73929e-05
0.000110433
0.000137361
0.000168357
0.000200745
0.000230124
0.00024826
0.00024241
0.000235344
0.000227102
0.000217661
0.000207136
0.000196306
9.68488e-05
1.56188e-05
3.70955e-06
7.29694e-06
2.2236e-05
6.59116e-05
8.08166e-06
7.63135e-06
4.84776e-05
0.000134168
0.000162922
0.000167746
0.00016605
0.00016288
0.000155685
0.000131087
8.64888e-05
5.12279e-05
3.37446e-05
2.75589e-05
2.91986e-05
3.75482e-05
5.22608e-05
7.3758e-05
0.000104722
0.000150756
0.000211395
0.000248432
0.000245518
0.000240719
0.000234164
0.000226021
0.000216639
0.000206885
0.00012652
2.02666e-05
8.71834e-06
6.45778e-06
1.00988e-05
3.60864e-05
5.91439e-05
8.61229e-06
7.54069e-06
4.47478e-05
0.000128309
0.000159726
0.000159955
0.000149353
0.000140637
0.000142869
0.000156536
0.000165989
0.000142843
9.56014e-05
5.92898e-05
3.92673e-05
3.04171e-05
3.0483e-05
3.91836e-05
5.81406e-05
9.34441e-05
0.000158896
0.000234167
0.000234127
0.000231156
0.000225201
0.000216329
0.000205096
9.57435e-05
1.54754e-05
7.40529e-06
1.28133e-05
2.83837e-05
4.56561e-05
8.58872e-05
3.57555e-05
7.79382e-06
7.56852e-06
4.08023e-05
0.000113959
0.000151978
0.000157702
0.000146475
0.000124171
0.000105087
0.000101214
0.000117312
0.000152877
0.000185244
0.000172581
0.000118943
7.14193e-05
4.36547e-05
2.99506e-05
2.71377e-05
3.53291e-05
5.74348e-05
9.43682e-05
0.000127739
0.000135416
0.000125112
0.000107492
8.41007e-05
4.82061e-05
1.77032e-05
8.95448e-06
1.14373e-05
2.77395e-05
8.01876e-05
7.09161e-05
2.6084e-05
6.21018e-06
7.75503e-06
3.90345e-05
0.000108971
0.000148136
0.000154359
0.000146694
0.000129218
0.00010745
9.05087e-05
8.5034e-05
9.4985e-05
0.000125705
0.000178891
0.000228977
0.000229038
0.000164081
9.15675e-05
4.92547e-05
2.8319e-05
2.07217e-05
2.38211e-05
3.66678e-05
5.50568e-05
6.87582e-05
7.18793e-05
6.69189e-05
5.71452e-05
4.35066e-05
2.70932e-05
1.81057e-05
1.91807e-05
2.69001e-05
5.31437e-05
3.62367e-05
4.96284e-06
8.05621e-06
3.87346e-05
0.000108442
0.000143949
0.000146456
0.000135493
0.000117266
0.000101219
9.35331e-05
9.31951e-05
9.76017e-05
0.000108281
0.000131158
0.000173032
0.00023417
0.000293611
0.000303709
0.000220875
0.000113806
5.49686e-05
2.75782e-05
1.66288e-05
1.62009e-05
2.25427e-05
3.15937e-05
3.91063e-05
4.13875e-05
3.92526e-05
3.99447e-05
4.83976e-05
6.92696e-05
7.35293e-05
2.05519e-05
1.4538e-05
5.82519e-06
8.34851e-06
4.18189e-05
0.000119527
0.000152413
0.000151573
0.000136276
0.000113325
9.50487e-05
8.95345e-05
9.71223e-05
0.000114552
0.000136884
0.00016144
0.000191114
0.000230767
0.000280858
0.000332038
0.000363383
0.000337637
0.000209255
9.87578e-05
4.62714e-05
2.24083e-05
1.38958e-05
1.48556e-05
1.92798e-05
2.65604e-05
4.80766e-05
6.45529e-05
2.83295e-05
1.81018e-05
5.2303e-06
2.18268e-06
1.29797e-05
9.68003e-06
8.71333e-06
4.86875e-05
0.000139941
0.000167037
0.000160876
0.000140422
0.000115505
9.81261e-05
9.3828e-05
0.000102903
0.000123871
0.00015344
0.000187893
0.000227406
0.000276218
0.000332948
0.000381441
0.000373363
0.000362523
0.000348421
0.000222218
9.66079e-05
3.96504e-05
1.23193e-05
3.61898e-06
7.4036e-06
7.77028e-06
7.54163e-06
1.60914e-05
3.37008e-05
3.67233e-05
2.85909e-05
3.92354e-05
0.000109038
1.02984e-05
8.98265e-06
5.52414e-05
0.000150257
0.000171329
0.000163039
0.000141841
0.000118806
0.000104187
0.000101387
0.000110411
0.000130867
0.000161207
0.000197881
0.000238544
0.000287057
0.00034787
0.000394007
0.000388037
0.000380338
0.000370527
0.000357876
0.000340542
0.000115161
3.33824e-05
3.31272e-06
4.76909e-07
2.90295e-06
4.27237e-06
6.86193e-06
1.74185e-05
4.07879e-05
7.17706e-05
0.000117747
3.91056e-05
8.39605e-06
9.03857e-06
5.54859e-05
0.000144481
0.000163841
0.000157827
0.000139919
0.000118581
0.000103639
9.98611e-05
0.000107798
0.000127311
0.000158494
0.000200932
0.000253868
0.000318137
0.000388424
0.00040362
0.000397816
0.000390023
0.000379837
0.000366704
0.00026191
0.000115849
3.94513e-05
3.74422e-06
3.00902e-06
7.3234e-06
2.22341e-05
4.38888e-05
6.32674e-05
5.35251e-05
5.72389e-05
8.97491e-05
3.23827e-05
7.60875e-06
8.97512e-06
5.31132e-05
0.00014021
0.000161353
0.000156557
0.00014147
0.000121799
0.000103721
9.36015e-05
9.48485e-05
0.000108375
0.000134235
0.000171445
0.000216976
0.000265074
0.000307431
0.000335018
0.000340059
0.000319851
0.000282368
0.000245532
0.000223292
0.000205532
0.000151959
6.8068e-05
1.71918e-05
4.30236e-06
2.80254e-06
8.63457e-06
3.73318e-05
9.74247e-05
7.89784e-05
4.76889e-05
1.91827e-05
3.41601e-06
8.89603e-06
5.18101e-05
0.00014495
0.000169429
0.00016196
0.000146173
0.000130623
0.000115977
0.00010194
9.35348e-05
9.62716e-05
0.000112622
0.000142918
0.000184303
0.000228956
0.000266407
0.000289663
0.00029838
0.000295439
0.000281878
0.000257488
0.000226851
0.000198438
0.000174077
0.000150645
0.000127399
9.43408e-05
5.30115e-05
2.57783e-05
1.64397e-05
2.27153e-05
6.85667e-05
4.24383e-05
1.45887e-05
7.59723e-07
8.92315e-06
5.25419e-05
0.000151338
0.00017433
0.000158804
0.000137674
0.000126095
0.000123193
0.000120282
0.000113701
0.000111383
0.000123295
0.00015577
0.00021153
0.000283757
0.00035183
0.00039401
0.000405635
0.000393953
0.000362467
0.000329005
0.000318148
0.000312122
0.000247309
0.000180321
9.43806e-05
6.24214e-05
6.9801e-05
0.00010067
0.0001205
6.94962e-05
3.23299e-05
2.47992e-05
2.01864e-05
7.09051e-06
9.32206e-06
5.91588e-05
0.000161179
0.000167453
0.000139117
0.00011573
0.000110344
0.000118064
0.000127655
0.000130421
0.000132091
0.000147925
0.000191666
0.000270488
0.000369346
0.000412303
0.000408322
0.000402415
0.000394759
0.000385955
0.000263965
8.95667e-05
5.40765e-05
8.4416e-05
0.000195281
0.000248167
0.000247817
0.00019613
0.000107075
4.80191e-05
2.32292e-05
2.12135e-05
4.81854e-05
7.20106e-05
9.60802e-06
9.7941e-06
7.1405e-05
0.000164435
0.000147033
0.000113814
9.75369e-05
0.000101302
0.000119353
0.000140765
0.000152413
0.000153413
0.000157607
0.000178326
0.000219072
0.000271427
0.000319835
0.00035204
0.000362661
0.0003507
0.000317984
0.000266004
0.000187107
0.000102891
6.54942e-05
6.37305e-05
7.84528e-05
9.58549e-05
0.000109135
0.000109588
8.71127e-05
5.80552e-05
5.29339e-05
8.1488e-05
4.0663e-05
6.40754e-06
9.86756e-06
8.16935e-05
0.000153639
0.000125857
9.92151e-05
9.16787e-05
0.000101169
0.000122162
0.000147391
0.000170115
0.000187177
0.000199848
0.000212959
0.000230854
0.00025303
0.00027472
0.000290634
0.00029726
0.000291947
0.000272234
0.000239684
0.000203649
0.000173381
0.00014913
0.000129855
0.000118576
0.000110215
9.2855e-05
6.55359e-05
4.57867e-05
4.71107e-05
8.19521e-05
0.000136527
4.09907e-05
4.88821e-06
9.42968e-06
7.81513e-05
0.000146173
0.000125833
0.000103727
9.62681e-05
0.000104215
0.000123798
0.000148974
0.000174967
0.000201261
0.000229113
0.000257845
0.000284417
0.000305474
0.000318886
0.000323844
0.000319937
0.000306333
0.000283841
0.000259154
0.000241354
0.000229517
0.000206034
0.000163049
0.000122458
9.8926e-05
8.52628e-05
6.9969e-05
6.00445e-05
7.84385e-05
0.000139133
0.000138696
5.33374e-05
5.44434e-06
8.96433e-06
6.88214e-05
0.00014882
0.000144309
0.000120751
9.86709e-05
9.15164e-05
0.00010098
0.000124416
0.000156877
0.000193434
0.000232097
0.000273163
0.000316302
0.000358264
0.000392225
0.000410655
0.000411797
0.000391573
0.000332601
0.000238157
0.000154633
0.000116977
0.000122254
0.00015871
0.000199533
0.000214511
0.000201007
0.00016581
0.000110372
5.92264e-05
4.31607e-05
6.22891e-05
9.68596e-05
9.52802e-06
8.83536e-06
6.52703e-05
0.000151039
0.000158283
0.000140891
0.000112402
9.07005e-05
8.52748e-05
9.63242e-05
0.000121877
0.000158475
0.000201998
0.000250081
0.000302162
0.000356709
0.000404202
0.000412452
0.000405093
0.000395718
0.000351709
0.000221748
0.000122243
8.21345e-05
8.41699e-05
0.000116498
0.000157639
0.000173835
0.000148723
9.41478e-05
5.31342e-05
3.94393e-05
5.43495e-05
0.000119805
4.31292e-05
7.88008e-06
8.99527e-06
6.96127e-05
0.000162238
0.000170524
0.000158949
0.000140755
0.000117738
9.73792e-05
8.90329e-05
9.5566e-05
0.000116647
0.000150712
0.000194188
0.00024174
0.000287624
0.000326552
0.000353675
0.000363248
0.000349263
0.000310846
0.000253128
0.000182715
0.00011493
7.05611e-05
5.03731e-05
4.36274e-05
4.10682e-05
3.83089e-05
3.613e-05
3.79893e-05
5.12761e-05
8.30968e-05
5.15658e-05
1.70573e-05
2.92397e-06
9.31529e-06
7.91201e-05
0.000173541
0.000176223
0.000163603
0.000155219
0.000151488
0.000141766
0.000122783
0.000106634
0.000102486
0.000111997
0.000134822
0.000169563
0.000211939
0.000253978
0.000286612
0.0003039
0.000304714
0.000291288
0.000267095
0.000234748
0.000194818
0.000149546
0.000106112
7.13322e-05
4.63272e-05
2.92874e-05
1.95962e-05
1.83493e-05
2.87313e-05
4.49144e-05
3.21872e-05
1.51056e-05
1.97165e-06
9.47437e-06
8.46115e-05
0.000174969
0.000172874
0.00015655
0.000146597
0.000148938
0.000159916
0.000168395
0.000162411
0.000144738
0.000129762
0.00012619
0.000135719
0.00015761
0.000189381
0.000225351
0.000256879
0.000275923
0.000279314
0.000269074
0.000249143
0.000223382
0.000196253
0.000172394
0.000153655
0.000137025
0.00011634
9.05717e-05
7.17325e-05
7.6494e-05
0.000117437
0.000113966
4.56935e-05
3.69911e-06
9.35203e-06
8.27581e-05
0.000173938
0.000170928
0.000155802
0.0001478
0.000149257
0.000158264
0.000172567
0.000187087
0.000193214
0.000185699
0.000170763
0.000160464
0.000162252
0.000177845
0.000205043
0.000237596
0.000265915
0.000281105
0.000279878
0.000266092
0.000249684
0.000241257
0.000239687
0.000222674
0.000183022
0.000149267
0.000132319
0.000124741
0.000119414
0.00011454
0.000121409
0.000115817
7.54263e-06
9.28422e-06
8.19999e-05
0.000172683
0.00015932
0.000141608
0.000141245
0.000153455
0.000169227
0.000184816
0.000200745
0.000216008
0.000225469
0.000223187
0.000210284
0.000197574
0.000196914
0.000214237
0.000248832
0.000292445
0.000329324
0.000340444
0.000310136
0.000236943
0.00015487
0.000113468
0.00011638
0.000149973
0.000186818
0.000193858
0.00016608
0.00013031
0.000118035
0.000147488
0.000161791
9.13546e-06
9.28858e-06
7.79398e-05
0.000158513
0.000132499
0.00011205
0.000117413
0.00014175
0.000172217
0.000197671
0.000216742
0.000233725
0.000250311
0.000262344
0.000262414
0.000247808
0.000227806
0.000217801
0.000227308
0.000254764
0.000281708
0.000273652
0.000213225
0.000132974
8.00112e-05
6.55485e-05
8.644e-05
0.000145384
0.000206875
0.000218336
0.000194063
0.000166076
0.000157597
0.000161273
6.92642e-05
6.26967e-06
9.05515e-06
6.44374e-05
0.000132732
0.000108939
8.68826e-05
8.82781e-05
0.000111475
0.000151646
0.000195141
0.000228041
0.000249266
0.00026553
0.000281277
0.00029393
0.000294957
0.000277011
0.000245168
0.000216639
0.000203662
0.000203788
0.000201414
0.000180122
0.00013829
9.17587e-05
6.21979e-05
5.6093e-05
6.98561e-05
9.70231e-05
0.000123263
0.000136226
0.000136625
0.000129433
0.0001016
3.57486e-05
3.96963e-06
8.443e-06
4.74004e-05
0.000110045
0.000104031
7.80878e-05
6.3206e-05
6.90769e-05
9.86808e-05
0.000151548
0.000211515
0.000258699
0.000287883
0.000304769
0.000316269
0.000324072
0.000322855
0.000304342
0.000267727
0.000226381
0.000196027
0.000180804
0.000172949
0.000159828
0.000134477
0.000101815
7.50585e-05
6.16855e-05
5.99233e-05
6.60864e-05
7.64397e-05
8.54394e-05
8.71074e-05
7.25693e-05
2.87959e-05
3.49762e-06
7.85171e-06
3.845e-05
9.92836e-05
0.000113301
9.40939e-05
5.74784e-05
4.23498e-05
5.30947e-05
9.12696e-05
0.000157665
0.000235709
0.000302368
0.000347915
0.000372905
0.000381405
0.000377088
0.000360391
0.000329857
0.00028801
0.000244682
0.000211096
0.000191305
0.00018086
0.000170815
0.000154065
0.000130194
0.000104989
8.54279e-05
7.50382e-05
7.45057e-05
8.23681e-05
9.1863e-05
8.85192e-05
3.77385e-05
3.84522e-06
8.00373e-06
4.17955e-05
0.000113151
0.000139731
0.000129033
8.23155e-05
4.42343e-05
4.0142e-05
6.45287e-05
0.000121245
0.000206646
0.000298606
0.000376515
0.000431717
0.000461225
0.000464889
0.000445342
0.00040711
0.000357308
0.000306283
0.000263956
0.000235518
0.000220246
0.000212487
0.000204452
0.000190475
0.000170083
0.000147357
0.000128716
0.000120413
0.000126152
0.000142277
0.000147341
6.87031e-05
4.44403e-06
8.77515e-06
5.90233e-05
0.000151726
0.000160898
0.000135756
9.72501e-05
6.38089e-05
5.61847e-05
7.99763e-05
0.00013855
0.000221124
0.000306541
0.00038191
0.000438889
0.000469462
0.000470809
0.000470206
0.000455725
0.000409177
0.000353508
0.000306706
0.000275272
0.000258375
0.00025132
0.000247308
0.00023991
0.000226305
0.000208069
0.000189737
0.000177334
0.000176355
0.000186702
0.000191915
0.000111587
5.16214e-06
9.40427e-06
8.59842e-05
0.000164608
0.000137793
0.00010222
8.17727e-05
7.80001e-05
9.27245e-05
0.000132153
0.000192611
0.000257114
0.0003159
0.00036745
0.000410433
0.000442073
0.000460212
0.000463511
0.000449617
0.00041816
0.000376388
0.000336585
0.000307488
0.000290737
0.000282896
0.000278247
0.000271568
0.00026018
0.000244081
0.000225137
0.00020678
0.000193919
0.000190771
0.000192146
0.00013662
5.78839e-06
9.54237e-06
9.13414e-05
0.00014597
0.000113352
8.50009e-05
7.62275e-05
8.64162e-05
0.000116811
0.000165855
0.000222554
0.000276722
0.000325469
0.000369089
0.000407105
0.000437614
0.000457702
0.000463898
0.00045345
0.000426966
0.000390773
0.000354923
0.000327333
0.000310437
0.000301593
0.00029542
0.000286908
0.000273414
0.000254537
0.000231374
0.000206693
0.000185971
0.00017662
0.000178502
0.000136969
6.26703e-06
9.65428e-06
9.14266e-05
0.000131326
0.000105655
8.70943e-05
8.22469e-05
9.17731e-05
0.000119841
0.000169063
0.000230906
0.000292116
0.000346736
0.0003944
0.000435459
0.000468071
0.00048625
0.000486229
0.000484679
0.000469147
0.000435249
0.000397382
0.000364419
0.000340291
0.000323947
0.000311034
0.000296708
0.00027773
0.000252894
0.00022289
0.000191377
0.000166701
0.000158649
0.000166515
0.000127727
6.61375e-06
9.93341e-06
0.000103611
0.000125509
0.000105236
9.53277e-05
9.40316e-05
0.000104187
0.000133075
0.000184485
0.000250218
0.000316326
0.000376504
0.000430799
0.000475341
0.000487195
0.000489231
0.000489706
0.000488597
0.000485927
0.000468779
0.000427388
0.000388784
0.000359755
0.000338356
0.000319641
0.000298865
0.000272982
0.000240933
0.000204369
0.000169622
0.000147389
0.000146119
0.000160502
0.000108205
6.73659e-06
1.02498e-05
0.000121465
0.000107704
9.81231e-05
0.000103065
0.000111956
0.000130159
0.000167882
0.000225723
0.000290668
0.000351503
0.00040649
0.000454568
0.000487254
0.000490831
0.000493033
0.000493738
0.000492877
0.000490439
0.00048647
0.00045018
0.000407033
0.000371213
0.000343224
0.000318684
0.000292822
0.00026237
0.000226117
0.000186397
0.000151391
0.000132675
0.000137132
0.000155486
8.95919e-05
6.75285e-06
1.02253e-05
0.000104557
8.53724e-05
9.74362e-05
0.000127607
0.00015714
0.000187774
0.000223119
0.000261147
0.000299071
0.000336071
0.00037223
0.000406728
0.000437214
0.00046105
0.000477019
0.000485995
0.000488748
0.000483228
0.000465737
0.000436894
0.000402923
0.000370141
0.00034109
0.000314273
0.000286446
0.000254723
0.000217809
0.00017793
0.000143396
0.000125948
0.000132445
0.000152348
8.02796e-05
6.93623e-06
9.41193e-06
0.000101838
0.000115633
0.000143532
0.000156445
0.000157763
0.000162752
0.000176018
0.000199483
0.000229602
0.000261359
0.000292557
0.000322665
0.000351094
0.000376879
0.000398902
0.000415556
0.000425207
0.00042655
0.000418582
0.000402107
0.000380049
0.000355883
0.000331699
0.000307404
0.00028121
0.000251104
0.000215999
0.00017762
0.000143498
0.000125458
0.00013148
0.000152149
7.8736e-05
7.35255e-06
7.69931e-06
5.48044e-05
9.39583e-05
9.42673e-05
7.58996e-05
6.13815e-05
5.60232e-05
5.78341e-05
7.42091e-05
0.000112132
0.000161509
0.00020613
0.000244328
0.000278865
0.000310475
0.000338519
0.000361683
0.000378389
0.000387177
0.000387287
0.00037931
0.000365162
0.000347145
0.000326994
0.000305177
0.000280775
0.000252311
0.000218759
0.000181404
0.000147151
0.000128061
0.000133232
0.000154369
8.09741e-05
7.96996e-06
6.48116e-06
2.58889e-05
5.16977e-05
6.5303e-05
6.18153e-05
4.88496e-05
3.52555e-05
1.81055e-05
9.78773e-06
1.71526e-05
4.65989e-05
0.000105121
0.00017097
0.00022673
0.00027486
0.000318285
0.000355665
0.000384176
0.000401034
0.000405751
0.000400001
0.000386198
0.000366948
0.000344549
0.000320045
0.000293059
0.000262379
0.000227004
0.000188087
0.000152473
0.000132428
0.000137115
0.000157356
8.0731e-05
8.55831e-06
6.82803e-06
2.38974e-05
5.7584e-05
8.97075e-05
0.00010194
0.00010225
9.95924e-05
5.92554e-05
1.05113e-05
4.01394e-06
5.10669e-06
3.05096e-05
9.78747e-05
0.000202874
0.00030867
0.000400182
0.000453476
0.000464366
0.000472176
0.00047731
0.000480059
0.000461392
0.000424946
0.00038908
0.000353438
0.000317204
0.000279
0.00023777
0.000195052
0.000158303
0.000139314
0.000145463
0.000163634
7.7897e-05
8.59949e-06
8.01087e-06
3.14574e-05
8.09171e-05
0.000129633
0.000145487
0.000143363
0.000121078
5.8513e-05
1.62269e-05
3.20228e-06
7.00333e-06
3.73608e-05
0.000151397
0.000381781
0.000405184
0.000424493
0.000439905
0.000451915
0.000460971
0.00046742
0.000471519
0.000473457
0.000469632
0.00041383
0.000364734
0.000321043
0.000278094
0.000234335
0.000192459
0.000160325
0.000147514
0.000157748
0.00017083
7.06693e-05
8.52949e-06
9.23738e-06
4.81295e-05
0.00011999
0.000137319
0.000117852
7.46862e-05
3.0732e-05
1.04167e-05
5.56646e-06
1.50951e-05
5.80752e-05
0.000187744
0.000351917
0.000393661
0.00041007
0.000424518
0.000436742
0.000446755
0.000454654
0.00046055
0.00046454
0.000452982
0.000408159
0.000365586
0.000327923
0.000291545
0.000253942
0.000215773
0.000181718
0.000159521
0.000156089
0.000170709
0.000175457
6.36888e-05
8.51072e-06
9.35931e-06
5.2649e-05
0.000117165
0.000112915
8.11867e-05
3.81892e-05
1.30818e-05
5.53086e-06
1.43259e-05
6.30849e-05
0.000150109
0.000235925
0.000304764
0.000352519
0.000383934
0.000405221
0.000420325
0.000428794
0.000427512
0.000414797
0.000393063
0.000366405
0.000338081
0.000309751
0.000281296
0.000251957
0.000221902
0.000193491
0.000171479
0.000161641
0.000167639
0.000183284
0.000173717
5.61816e-05
8.36552e-06
9.06168e-06
5.41676e-05
0.000125127
0.000118628
7.96918e-05
3.83223e-05
1.55896e-05
8.35256e-06
1.61034e-05
7.67885e-05
0.000177135
0.000260372
0.000320442
0.000359098
0.00038123
0.000392859
0.0003973
0.00039495
0.000385411
0.000369195
0.000348073
0.000324403
0.000300141
0.000276129
0.000252182
0.000227975
0.000204318
0.000183953
0.000171177
0.000170148
0.000181288
0.000193646
0.000170025
5.14299e-05
8.2191e-06
9.2104e-06