/*--------------------------------*- C++ -*----------------------------------*\
| =========                 |                                                 |
| \\      /  F ield         | OpenFOAM: The Open Source CFD Toolbox           |
|  \\    /   O peration     | Version:  v2006                                 |
|   \\  /    A nd           | Website:  www.openfoam.com                      |
|    \\/     M anipulation  |                                                 |
\*---------------------------------------------------------------------------*/
FoamFile
{
    version     2.0;
    format      ascii;
    class       surfaceScalarField;
    location    "23";
    object      phi;
}
// * * * * * * * * * * * * * * * * * * * * * * * * * * * * * * * * * * * * * //

dimensions      [1 0 -1 0 0 0 0];
oriented        oriented;


internalField   nonuniform List<scalar> 
228225
(
-0.000470556
-4.74288e-05
0.000830727
-0.000339692
-0.000107498
7.21933e-05
-0.000279401
-5.28768e-05
1.299e-05
-0.000196586
-6.82496e-05
-1.89196e-06
-0.000148596
-4.04235e-05
-6.12036e-06
-8.85616e-05
-4.79024e-05
-9.74847e-06
-4.79488e-05
-3.06915e-05
-9.84116e-06
-1.69073e-06
-3.49908e-05
-1.08043e-05
3.01827e-05
-2.21653e-05
-9.96242e-06
6.84251e-05
-2.82182e-05
-9.89577e-06
9.2658e-05
-1.53938e-05
-9.04034e-06
0.000125477
-2.45698e-05
-8.21588e-06
0.000145202
-1.26499e-05
-7.12786e-06
0.00017044
-1.88041e-05
-6.38079e-06
0.000187071
-1.12467e-05
-5.32935e-06
0.000204792
-1.31278e-05
-4.51044e-06
0.000217784
-9.29848e-06
-3.60818e-06
0.00022893
-7.97064e-06
-3.09584e-06
0.000237289
-5.41639e-06
-2.87645e-06
0.000243491
-3.15944e-06
-2.99323e-06
0.000247807
-7.92999e-07
-3.49624e-06
0.000250082
1.65443e-06
-3.91935e-06
0.000250086
3.87364e-06
-3.8798e-06
0.000247572
5.94178e-06
-3.42336e-06
0.000242489
7.84647e-06
-2.75845e-06
0.000234823
9.6038e-06
-1.89223e-06
0.000224484
1.12764e-05
-9.08189e-07
0.000211578
1.27918e-05
2.67026e-07
0.000195608
1.43632e-05
1.65417e-06
0.000176631
1.58398e-05
3.4691e-06
0.000152272
1.75631e-05
7.23578e-06
0.000120878
1.79791e-05
1.44464e-05
8.07394e-05
1.96659e-05
2.14376e-05
3.77377e-05
1.80763e-05
2.65099e-05
1.99002e-05
1.76483e-05
-5.16569e-05
-1.13447e-05
3.73507e-05
-0.000125393
-2.72764e-05
-4.24257e-06
-0.000161397
-2.27115e-05
8.67641e-06
-0.000185055
-3.61224e-05
-7.79596e-06
-0.00020501
-2.57161e-05
6.08154e-06
-0.000205846
-3.85318e-05
-7.91855e-06
-0.000211065
-2.87087e-05
3.99336e-06
-0.000202076
-3.63444e-05
-7.35641e-06
-0.000198335
-2.80697e-05
2.73019e-06
-0.000184351
-3.51416e-05
-6.42474e-06
-0.000175919
-2.43547e-05
3.46311e-07
-0.000160945
-3.41647e-05
-4.46959e-06
-0.000148615
-2.28044e-05
-2.44818e-06
-0.00013313
-2.97887e-05
-3.89281e-06
-0.000118192
-2.22547e-05
-3.98671e-06
-0.000103026
-2.46458e-05
-3.38186e-06
-8.74367e-05
-2.06702e-05
-4.13493e-06
-7.22422e-05
-1.92376e-05
-3.81903e-06
-5.69518e-05
-1.67265e-05
-3.8979e-06
-4.19991e-05
-1.41048e-05
-3.93639e-06
-2.74636e-05
-1.12432e-05
-4.02011e-06
-1.358e-05
-8.09464e-06
-4.06859e-06
-3.94433e-07
-5.13914e-06
-4.09889e-06
1.15687e-05
-1.8399e-06
-4.09143e-06
2.29301e-05
6.16703e-07
-4.02223e-06
3.33486e-05
3.21094e-06
-3.88626e-06
4.23354e-05
6.12237e-06
-3.66339e-06
4.95242e-05
9.18573e-06
-3.35648e-06
5.46276e-05
1.24225e-05
-2.88739e-06
5.70211e-05
1.58089e-05
-1.99644e-06
5.59822e-05
1.94725e-05
-4.38941e-07
4.9761e-05
2.33481e-05
1.34196e-06
3.72563e-05
2.85777e-05
3.8719e-06
1.45466e-05
3.41024e-05
6.27543e-06
2.842e-05
5.26993e-06
-1.2488e-05
-1.15975e-05
1.3287e-05
-1.66104e-05
-2.98268e-05
5.79137e-06
-1.71818e-05
-2.81777e-05
7.36163e-06
-3.05657e-05
-2.90749e-05
6.71216e-06
-3.21512e-05
-2.67001e-05
3.72289e-06
-4.63297e-05
-3.00454e-05
6.62452e-06
-4.90453e-05
-2.81463e-05
3.30045e-06
-6.14055e-05
-2.92199e-05
6.2091e-06
-6.3295e-05
-2.8621e-05
3.64255e-06
-7.51141e-05
-2.80473e-05
5.51935e-06
-7.43048e-05
-2.804e-05
3.94611e-06
-8.52407e-05
-2.72571e-05
4.76657e-06
-8.40326e-05
-2.71558e-05
3.97556e-06
-9.11776e-05
-2.62213e-05
4.23061e-06
-9.1072e-05
-2.55942e-05
3.85028e-06
-9.44449e-05
-2.4468e-05
3.70754e-06
-9.48244e-05
-2.33884e-05
3.5208e-06
-9.49086e-05
-2.20981e-05
3.29071e-06
-9.37205e-05
-2.07168e-05
3.07273e-06
-9.12289e-05
-1.92259e-05
2.83619e-06
-8.73098e-05
-1.76081e-05
2.59813e-06
-8.17992e-05
-1.58636e-05
2.36659e-06
-7.50063e-05
-1.40156e-05
2.15514e-06
-6.6743e-05
-1.20181e-05
1.95312e-06
-5.80283e-05
-9.84837e-06
1.75524e-06
-4.89975e-05
-7.39942e-06
1.54817e-06
-3.97918e-05
-4.49397e-06
1.33728e-06
-3.08085e-05
-1.06254e-06
1.14405e-06
-2.2598e-05
3.0427e-06
9.96761e-07
-1.55392e-05
7.61043e-06
9.24426e-07
-9.89661e-06
1.25943e-05
1.00074e-06
-5.78553e-06
1.78526e-05
1.20006e-06
-3.20822e-06
2.41369e-05
1.80289e-06
-5.97324e-07
2.91335e-05
2.42688e-06
2.56377e-05
2.01369e-06
4.05954e-06
-1.90914e-05
3.66262e-06
-4.1754e-06
-2.19589e-05
8.07083e-07
-5.1177e-06
-2.48683e-05
-1.48688e-06
-8.44902e-06
-2.34858e-05
-1.3735e-06
-9.27042e-06
-2.57524e-05
8.74055e-07
-1.37823e-05
-2.55495e-05
8.82381e-07
-1.57067e-05
-2.68941e-05
1.50296e-06
-1.80521e-05
-2.74953e-05
1.38455e-06
-1.9718e-05
-2.78287e-05
1.60796e-06
-2.05009e-05
-2.80516e-05
1.54246e-06
-2.14991e-05
-2.79819e-05
1.68772e-06
-2.1943e-05
-2.77579e-05
1.72902e-06
-2.29393e-05
-2.72399e-05
1.89287e-06
-2.37765e-05
-2.6563e-05
2.02969e-06
-2.50667e-05
-2.56541e-05
2.23017e-06
-2.64697e-05
-2.46236e-05
2.45428e-06
-2.81907e-05
-2.34708e-05
2.69992e-06
-3.01075e-05
-2.22667e-05
2.95949e-06
-3.2146e-05
-2.10545e-05
3.20695e-06
-3.41585e-05
-1.98665e-05
3.4209e-06
-3.59375e-05
-1.87199e-05
3.57973e-06
-3.72595e-05
-1.76085e-05
3.66607e-06
-3.79345e-05
-1.65043e-05
3.66732e-06
-3.77612e-05
-1.53602e-05
3.57641e-06
-3.65841e-05
-1.40988e-05
3.38915e-06
-3.42577e-05
-1.25984e-05
3.10342e-06
-3.06543e-05
-1.0668e-05
2.71914e-06
-2.58812e-05
-8.01948e-06
2.24404e-06
-2.02624e-05
-4.31911e-06
1.69966e-06
-1.45041e-05
5.49876e-07
1.131e-06
-9.32828e-06
6.50508e-06
5.99924e-07
-5.82773e-06
1.37709e-05
1.75179e-07
-3.58224e-06
2.15076e-05
3.686e-08
-1.46236e-06
2.63592e-05
3.84849e-07
2.31293e-05
6.62075e-07
-9.38814e-06
-1.18887e-05
2.40394e-06
-1.60306e-05
-1.7721e-05
2.78767e-06
-1.82837e-05
-2.41241e-05
1.77915e-06
-1.4309e-05
-2.92303e-05
1.86553e-06
-1.05593e-05
-3.12301e-05
1.76828e-06
-5.09487e-06
-3.28014e-05
1.80176e-06
2.63864e-08
-3.38095e-05
1.7627e-06
4.97675e-06
-3.4284e-05
1.78357e-06
9.61328e-06
-3.43391e-05
1.80696e-06
1.36565e-05
-3.40563e-05
1.88641e-06
1.70895e-05
-3.34795e-05
1.9908e-06
1.98056e-05
-3.2661e-05
2.12235e-06
2.191e-05
-3.16352e-05
2.24738e-06
2.33975e-05
-3.04158e-05
2.3578e-06
2.43639e-05
-2.90194e-05
2.44567e-06
2.48021e-05
-2.74585e-05
2.51927e-06
2.47179e-05
-2.57608e-05
2.59446e-06
2.40635e-05
-2.39636e-05
2.69077e-06
2.27717e-05
-2.21168e-05
2.82908e-06
2.07756e-05
-2.02797e-05
3.02555e-06
1.80282e-05
-1.85141e-05
3.28768e-06
1.45257e-05
-1.68717e-05
3.61012e-06
1.03225e-05
-1.53827e-05
3.97276e-06
5.55611e-06
-1.40612e-05
4.33866e-06
5.14355e-07
-1.29292e-05
4.65506e-06
-4.2743e-06
-1.20249e-05
4.85984e-06
-7.99385e-06
-1.13575e-05
4.89764e-06
-9.63356e-06
-1.0769e-05
4.72808e-06
-8.31935e-06
-9.74262e-06
4.32062e-06
-3.97719e-06
-7.36452e-06
3.67324e-06
1.56329e-06
-1.88539e-06
2.81761e-06
4.65832e-06
8.55432e-06
1.8999e-06
4.16089e-06
2.05268e-05
1.12209e-06
2.11087e-06
2.74915e-05
5.95932e-07
2.44568e-05
4.64211e-07
-1.35472e-06
-1.0352e-05
-4.27706e-07
3.7543e-06
-2.31936e-05
-1.1301e-07
1.13392e-05
-3.19778e-05
-2.09292e-07
1.89668e-05
-3.63421e-05
-9.64684e-07
2.70818e-05
-3.87142e-05
-1.02142e-06
3.47979e-05
-3.97814e-05
-1.06129e-06
4.18578e-05
-3.99663e-05
-1.16965e-06
4.81693e-05
-3.95383e-05
-1.27941e-06
5.35891e-05
-3.86503e-05
-1.30251e-06
5.79883e-05
-3.74228e-05
-1.21285e-06
6.13083e-05
-3.59671e-05
-1.01215e-06
6.35783e-05
-3.43675e-05
-7.55497e-07
6.48173e-05
-3.2677e-05
-4.13186e-07
6.50674e-05
-3.0918e-05
2.02678e-09
6.45467e-05
-2.9095e-05
3.05292e-07
6.33109e-05
-2.72157e-05
6.59473e-07
6.1511e-05
-2.5294e-05
9.63736e-07
5.93334e-05
-2.33507e-05
1.17447e-06
5.69411e-05
-2.13985e-05
1.28567e-06
5.44114e-05
-1.94289e-05
1.32054e-06
5.1685e-05
-1.7403e-05
1.31632e-06
4.85802e-05
-1.52907e-05
1.31372e-06
4.48466e-05
-1.30967e-05
1.36257e-06
4.02329e-05
-1.08741e-05
1.52188e-06
3.45838e-05
-8.79723e-06
1.85525e-06
2.78933e-05
-7.14135e-06
2.40438e-06
2.0289e-05
-6.11921e-06
3.13641e-06
1.21113e-05
-5.71416e-06
3.8887e-06
4.29257e-06
-5.67786e-06
4.35995e-06
-1.11671e-06
-5.84541e-06
4.31278e-06
-1.74946e-06
-4.5744e-06
3.52136e-06
2.10397e-06
2.59693e-06
2.05686e-06
2.67373e-06
1.86795e-05
1.00284e-06
1.12914e-06
2.80395e-05
6.388e-07
2.46902e-05
4.85713e-07
9.65763e-06
-2.14701e-05
1.35762e-06
2.21571e-05
-3.66778e-05
8.20659e-07
3.42829e-05
-4.34741e-05
-6.51904e-07
4.57417e-05
-4.61172e-05
-1.4993e-06
5.54956e-05
-4.6476e-05
-1.63598e-06
6.35539e-05
-4.55565e-05
-1.80826e-06
7.02138e-05
-4.38705e-05
-2.20688e-06
7.57553e-05
-4.17035e-05
-2.78743e-06
8.02515e-05
-3.92532e-05
-3.28987e-06
8.3607e-05
-3.66766e-05
-3.50217e-06
8.57928e-05
-3.40919e-05
-3.47716e-06
8.6895e-05
-3.15767e-05
-3.33224e-06
8.70828e-05
-2.91748e-05
-3.15752e-06
8.65447e-05
-2.69085e-05
-2.97256e-06
8.54069e-05
-2.47871e-05
-2.71195e-06
8.36999e-05
-2.28105e-05
-2.29085e-06
8.13954e-05
-2.09699e-05
-1.67535e-06
7.84927e-05
-1.92488e-05
-9.30222e-07
7.49558e-05
-1.76255e-05
-5.24693e-08
7.10153e-05
-1.60607e-05
6.59292e-07
6.68386e-05
-1.44851e-05
1.24184e-06
6.27542e-05
-1.28175e-05
1.49585e-06
5.89854e-05
-1.0989e-05
1.46662e-06
5.55304e-05
-8.93421e-06
1.27233e-06
5.21156e-05
-6.65327e-06
1.01763e-06
4.82745e-05
-4.32763e-06
7.86224e-07
4.34528e-05
-2.1557e-06
6.33323e-07
3.72659e-05
-3.33099e-07
6.38585e-07
2.96523e-05
9.38521e-07
1.11258e-06
2.0763e-05
1.05714e-06
2.60288e-06
1.31592e-05
-4.80973e-07
4.24581e-06
1.07689e-05
1.07952e-06
4.19574e-06
9.33748e-06
1.75948e-05
2.21219e-06
4.31158e-06
3.13784e-05
1.0816e-06
2.79476e-05
6.07306e-07
1.54173e-05
-3.76714e-05
1.26255e-06
2.82266e-05
-4.91566e-05
5.46786e-07
3.64493e-05
-5.06126e-05
-1.08115e-07
4.10915e-05
-4.94233e-05
-4.02748e-07
4.34351e-05
-4.71693e-05
-7.7494e-07
4.41531e-05
-4.43386e-05
-1.11492e-06
4.37761e-05
-4.11999e-05
-1.535e-06
4.27603e-05
-3.79484e-05
-2.05266e-06
4.15091e-05
-3.473e-05
-2.6641e-06
4.02583e-05
-3.16487e-05
-3.24988e-06
3.90777e-05
-2.8764e-05
-3.69692e-06
3.79802e-05
-2.60957e-05
-4.00119e-06
3.70073e-05
-2.364e-05
-4.23598e-06
3.62414e-05
-2.1382e-05
-4.47755e-06
3.57741e-05
-1.93024e-05
-4.7644e-06
3.56837e-05
-1.73777e-05
-5.11008e-06
3.5973e-05
-1.55803e-05
-5.46474e-06
3.63515e-05
-1.3886e-05
-5.5476e-06
3.62439e-05
-1.22919e-05
-5.05004e-06
3.52672e-05
-1.0836e-05
-4.08215e-06
3.33806e-05
-9.57251e-06
-2.86478e-06
3.06862e-05
-8.4789e-06
-1.48406e-06
2.74367e-05
-7.43708e-06
-1.44907e-07
2.41543e-05
-6.26246e-06
7.50469e-07
2.12055e-05
-4.71563e-06
1.11217e-06
1.87109e-05
-2.90682e-06
1.13291e-06
1.61882e-05
-6.17042e-07
1.00915e-06
1.36644e-05
1.37628e-06
8.10295e-07
1.09434e-05
3.00066e-06
6.21291e-07
7.36134e-06
3.88237e-06
6.83665e-07
1.41725e-06
3.67758e-06
1.84045e-06
-3.67915e-06
3.22417e-06
3.36199e-06
-2.19236e-06
1.40661e-05
2.56545e-06
-9.31349e-07
2.91879e-05
1.11131e-06
2.63322e-05
5.06695e-07
4.28581e-06
-4.07405e-05
-6.14273e-07
3.44114e-06
-4.65265e-05
-1.40738e-06
7.64434e-07
-4.60325e-05
-1.75785e-06
-2.36809e-06
-4.43574e-05
-1.90984e-06
-5.70917e-06
-4.20145e-05
-1.88323e-06
-9.08799e-06
-3.93391e-05
-1.77398e-06
-1.22853e-05
-3.66014e-05
-1.62593e-06
-1.50605e-05
-3.39476e-05
-1.49991e-06
-1.71869e-05
-3.14319e-05
-1.47057e-06
-1.85121e-05
-2.90652e-05
-1.55995e-06
-1.89819e-05
-2.68388e-05
-1.74395e-06
-1.86111e-05
-2.47329e-05
-1.99934e-06
-1.74621e-05
-2.27238e-05
-2.30268e-06
-1.56278e-05
-2.07909e-05
-2.63254e-06
-1.321e-05
-1.89203e-05
-2.97631e-06
-1.03065e-05
-1.7106e-05
-3.32235e-06
-7.02479e-06
-1.53477e-05
-3.63451e-06
-3.51767e-06
-1.3646e-05
-3.84456e-06
-3.04364e-08
-1.20123e-05
-3.84633e-06
3.10482e-06
-1.05043e-05
-3.5329e-06
5.57156e-06
-9.20082e-06
-2.89326e-06
7.10092e-06
-8.09673e-06
-1.95399e-06
7.56638e-06
-7.10157e-06
-8.2539e-07
7.20629e-06
-6.13775e-06
2.34668e-07
6.75094e-06
-5.18228e-06
9.44847e-07
6.75154e-06
-4.15993e-06
1.2967e-06
7.55984e-06
-2.7522e-06
1.38839e-06
8.53073e-06
-8.57774e-07
1.3233e-06
9.33145e-06
1.0435e-06
1.19789e-06
9.80292e-06
2.37262e-06
1.05961e-06
9.20377e-06
3.13583e-06
1.18359e-06
6.42654e-06
3.71074e-06
2.59926e-06
3.6904e-06
1.3825e-05
3.27769e-06
1.5494e-06
2.94984e-05
1.92008e-06
2.68598e-05
8.48693e-07
-4.65449e-06
-3.65844e-05
1.14497e-07
-6.841e-06
-4.57717e-05
1.03642e-06
-7.93876e-06
-4.6694e-05
1.36732e-06
-8.02504e-06
-4.58525e-05
1.19317e-06
-7.1277e-06
-4.39714e-05
7.22121e-07
-5.5408e-06
-4.13309e-05
1.43431e-07
-3.67445e-06
-3.83424e-05
-3.14128e-07
-1.8009e-06
-3.53182e-05
-6.33672e-07
-5.03445e-08
-3.23945e-05
-8.77214e-07
1.51432e-06
-2.96202e-05
-1.07258e-06
2.89918e-06
-2.70226e-05
-1.25053e-06
4.16842e-06
-2.46164e-05
-1.43135e-06
5.40849e-06
-2.23911e-05
-1.62046e-06
6.6895e-06
-2.03135e-05
-1.81096e-06
8.04624e-06
-1.83467e-05
-1.98825e-06
9.47857e-06
-1.64675e-05
-2.13323e-06
1.09578e-05
-1.46694e-05
-2.22268e-06
1.24301e-05
-1.29567e-05
-2.22792e-06
1.38091e-05
-1.13415e-05
-2.11648e-06
1.49562e-05
-9.85654e-06
-1.86026e-06
1.56876e-05
-8.56042e-06
-1.43404e-06
1.58276e-05
-7.45534e-06
-8.4135e-07
1.53399e-05
-6.46789e-06
-2.05402e-07
1.42732e-05
-5.54059e-06
4.1396e-07
1.28563e-05
-4.6536e-06
8.41878e-07
1.13417e-05
-3.78588e-06
1.10671e-06
1.02076e-05
-2.86099e-06
1.22658e-06
9.78259e-06
-1.6671e-06
1.24878e-06
9.68925e-06
-3.33375e-08
1.22059e-06
9.34905e-06
1.59687e-06
1.1943e-06
8.3115e-06
2.90543e-06
1.38827e-06
5.18786e-06
4.70176e-06
2.33097e-06
1.57287e-06
1.44559e-05
3.10465e-06
4.92009e-08
2.89519e-05
1.95913e-06
2.58489e-05
8.29318e-07
1.81566e-06
-3.82054e-05
-3.31716e-07
6.23052e-06
-4.94851e-05
-5.22267e-07
1.12804e-05
-5.06836e-05
-6.97306e-07
1.61326e-05
-4.94203e-05
-8.17605e-07
2.00102e-05
-4.63316e-05
-9.8039e-07
2.25586e-05
-4.21248e-05
-1.19268e-06
2.40615e-05
-3.79269e-05
-1.38175e-06
2.49217e-05
-3.4202e-05
-1.4934e-06
2.53878e-05
-3.09095e-05
-1.52757e-06
2.5584e-05
-2.79314e-05
-1.51566e-06
2.55931e-05
-2.52109e-05
-1.49831e-06
2.54985e-05
-2.27342e-05
-1.50601e-06
2.53803e-05
-2.04813e-05
-1.54759e-06
2.52977e-05
-1.84091e-05
-1.61278e-06
2.52795e-05
-1.64721e-05
-1.68094e-06
2.53247e-05
-1.4641e-05
-1.72827e-06
2.54114e-05
-1.29106e-05
-1.73247e-06
2.55186e-05
-1.13017e-05
-1.67666e-06
2.56327e-05
-9.84646e-06
-1.54796e-06
2.56884e-05
-8.53618e-06
-1.33628e-06
2.55498e-05
-7.36662e-06
-1.0354e-06
2.50769e-05
-6.31729e-06
-6.62282e-07
2.42244e-05
-5.34865e-06
-2.77096e-07
2.3009e-05
-4.43739e-06
9.12961e-08
2.15112e-05
-3.57637e-06
3.91859e-07
1.98067e-05
-2.70295e-06
5.89651e-07
1.8081e-05
-1.86404e-06
6.88948e-07
1.64986e-05
-8.46234e-07
7.13146e-07
1.49714e-05
7.46647e-07
7.27921e-07
1.32139e-05
2.61568e-06
7.78746e-07
1.07434e-05
4.51481e-06
9.60063e-07
6.78984e-06
7.15511e-06
1.65708e-06
2.84993e-06
1.58321e-05
2.68677e-06
9.43693e-07
2.88205e-05
1.93439e-06
2.576e-05
8.2306e-07
8.25214e-06
-4.61201e-05
3.45056e-07
1.06953e-05
-5.26577e-05
1.27849e-06
1.09699e-05
-5.17282e-05
1.19504e-06
1.00402e-05
-4.88351e-05
7.47578e-07
7.84651e-06
-4.37264e-05
1.00998e-08
4.71298e-06
-3.78461e-05
-7.6543e-07
1.62182e-06
-3.31152e-05
-1.44426e-06
-7.82411e-07
-2.97357e-05
-1.89551e-06
-2.26769e-06
-2.71922e-05
-2.15204e-06
-2.8194e-06
-2.50807e-05
-2.27713e-06
-2.53687e-06
-2.31764e-05
-2.3262e-06
-1.5825e-06
-2.13631e-05
-2.34311e-06
-1.44048e-07
-1.95773e-05
-2.35313e-06
1.60009e-06
-1.77854e-05
-2.36293e-06
3.50171e-06
-1.59832e-05
-2.3664e-06
5.44763e-06
-1.41945e-05
-2.35016e-06
7.34678e-06
-1.2456e-05
-2.29752e-06
9.11832e-06
-1.08166e-05
-2.19215e-06
1.07014e-05
-9.33848e-06
-2.02344e-06
1.20581e-05
-8.02902e-06
-1.79641e-06
1.31277e-05
-6.85478e-06
-1.51728e-06
1.38302e-05
-5.76895e-06
-1.19219e-06
1.41145e-05
-4.73202e-06
-8.49563e-07
1.39767e-05
-3.72155e-06
-5.35437e-07
1.34347e-05
-2.72527e-06
-2.7648e-07
1.25668e-05
-1.7383e-06
-7.5051e-08
1.13487e-05
-7.26359e-07
9.1971e-08
9.80825e-06
5.11953e-07
1.76322e-07
8.22022e-06
2.11449e-06
1.95367e-07
6.75696e-06
3.87968e-06
1.89812e-07
5.28526e-06
5.79236e-06
2.45323e-07
3.17833e-06
8.76165e-06
6.84762e-07
7.54849e-07
1.68528e-05
1.76891e-06
2.19595e-07
2.78579e-05
1.70599e-06
2.50567e-05
8.28326e-07
-5.16618e-06
-4.29548e-05
1.8438e-06
-9.77132e-06
-5.09097e-05
2.61115e-06
-1.37722e-05
-5.05199e-05
2.51371e-06
-1.69324e-05
-4.8041e-05
2.07383e-06
-1.89193e-05
-4.33416e-05
1.29084e-06
-2.00481e-05
-3.74081e-05
3.82862e-07
-2.09681e-05
-3.21407e-05
-3.2692e-07
-2.17288e-05
-2.83871e-05
-8.20949e-07
-2.20462e-05
-2.5852e-05
-1.2252e-06
-2.17345e-05
-2.40055e-05
-1.56571e-06
-2.07472e-05
-2.24692e-05
-1.85334e-06
-1.9143e-05
-2.10136e-05
-2.09426e-06
-1.70528e-05
-1.94946e-05
-2.29475e-06
-1.46421e-05
-1.78403e-05
-2.4576e-06
-1.20617e-05
-1.60687e-05
-2.57568e-06
-9.41449e-06
-1.42651e-05
-2.63695e-06
-6.76572e-06
-1.25141e-05
-2.63254e-06
-4.18497e-06
-1.0863e-05
-2.56075e-06
-1.78213e-06
-9.33043e-06
-2.42545e-06
3.4088e-07
-7.92425e-06
-2.23365e-06
2.11834e-06
-6.63942e-06
-1.99267e-06
3.5109e-06
-5.4424e-06
-1.71493e-06
4.5116e-06
-4.30162e-06
-1.4245e-06
5.1459e-06
-3.20277e-06
-1.14545e-06
5.47966e-06
-2.16258e-06
-8.88972e-07
5.56937e-06
-1.15968e-06
-6.62411e-07
5.40861e-06
-9.62182e-08
-4.66519e-07
4.98826e-06
1.21496e-06
-2.79502e-07
4.44016e-06
2.77589e-06
-9.7894e-08
3.89221e-06
4.36787e-06
1.01222e-07
3.28187e-06
6.15232e-06
3.44141e-07
1.95929e-06
9.39681e-06
8.89795e-07
-4.4517e-07
1.78229e-05
1.74917e-06
-6.26045e-07
2.66058e-05
1.61618e-06
2.35449e-05
7.87051e-07
-5.25536e-06
-4.00658e-05
1.8922e-06
-8.24797e-06
-5.05978e-05
2.32058e-06
-1.01165e-05
-5.13998e-05
2.45575e-06
-1.07437e-05
-5.0172e-05
2.46124e-06
-9.5268e-06
-4.71985e-05
2.3456e-06
-7.03443e-06
-4.20937e-05
2.01603e-06
-5.07974e-06
-3.55916e-05
1.48367e-06
-4.52737e-06
-2.97732e-05
9.17446e-07
-4.97643e-06
-2.57062e-05
4.08862e-07
-5.75614e-06
-2.30779e-05
-5.3009e-08
-6.49409e-06
-2.12448e-05
-4.07966e-07
-6.94789e-06
-1.97366e-05
-7.59127e-07
-7.02042e-06
-1.82685e-05
-1.10175e-06
-6.70707e-06
-1.6685e-05
-1.4293e-06
-6.05946e-06
-1.4963e-05
-1.72713e-06
-5.14689e-06
-1.31904e-05
-1.97254e-06
-4.03606e-06
-1.14716e-05
-2.14668e-06
-2.7935e-06
-9.86104e-06
-2.24264e-06
-1.49378e-06
-8.36811e-06
-2.2626e-06
-2.25058e-07
-6.98145e-06
-2.21342e-06
9.21493e-07
-5.68423e-06
-2.10449e-06
1.88344e-06
-4.46037e-06
-1.9476e-06
2.63748e-06
-3.30272e-06
-1.75753e-06
3.17039e-06
-2.19004e-06
-1.55128e-06
3.45956e-06
-1.11433e-06
-1.34421e-06
3.49362e-06
-5.57586e-08
-1.14593e-06
3.34359e-06
1.00411e-06
-9.58257e-07
3.2507e-06
2.0825e-06
-7.78549e-07
3.43856e-06
3.19989e-06
-6.03907e-07
3.84546e-06
4.41708e-06
-4.24852e-07
4.19e-06
6.06365e-06
-1.79724e-07
3.7503e-06
9.55663e-06
4.44947e-07
1.87213e-06
1.85522e-05
1.39514e-06
7.48174e-07
2.64309e-05
1.43161e-06
2.34014e-05
7.80577e-07
1.12324e-06
-4.18887e-05
8.64101e-07
6.7584e-07
-5.11453e-05
1.14691e-06
-3.76614e-07
-5.17486e-05
1.54147e-06
-1.50971e-06
-5.07713e-05
1.84423e-06
-2.12516e-06
-4.86307e-05
2.0848e-06
-1.70418e-06
-4.47879e-05
2.21183e-06
-6.53833e-07
-3.87939e-05
2.08227e-06
-2.38355e-07
-3.18972e-05
1.70999e-06
-1.04585e-06
-2.61222e-05
1.27698e-06
-2.70241e-06
-2.22417e-05
8.85139e-07
-4.59919e-06
-1.982e-05
5.32768e-07
-6.28659e-06
-1.81777e-05
1.88339e-07
-7.51477e-06
-1.68225e-05
-1.53832e-07
-8.19228e-06
-1.54625e-05
-4.77536e-07
-8.29415e-06
-1.39798e-05
-8.17858e-07
-7.88129e-06
-1.24048e-05
-1.14571e-06
-7.05575e-06
-1.08223e-05
-1.43381e-06
-5.93044e-06
-9.29008e-06
-1.66489e-06
-4.61372e-06
-7.82834e-06
-1.83216e-06
-3.19965e-06
-6.44062e-06
-1.93569e-06
-1.76604e-06
-5.12328e-06
-1.97926e-06
-3.79e-07
-3.86646e-06
-1.96903e-06
8.73719e-07
-2.63382e-06
-1.91289e-06
1.97897e-06
-1.47008e-06
-1.81976e-06
2.89448e-06
-3.29062e-07
-1.69872e-06
3.59457e-06
8.00826e-07
-1.55774e-06
4.07912e-06
1.92081e-06
-1.40408e-06
4.39144e-06
3.01526e-06
-1.246e-06
4.5926e-06
4.09685e-06
-1.08973e-06
4.68204e-06
5.27835e-06
-9.18882e-07
4.48577e-06
6.97762e-06
-6.34492e-07
3.44694e-06
1.07362e-05
3.03697e-08
1.31307e-06
1.97063e-05
1.17069e-06
3.55136e-07
2.61551e-05
1.30907e-06
2.28781e-05
7.64497e-07
-1.56162e-06
-4.12043e-05
9.56012e-07
-3.1786e-06
-5.05193e-05
1.14885e-06
-4.85954e-06
-5.12005e-05
1.29435e-06
-6.52903e-06
-5.03835e-05
1.43169e-06
-7.93674e-06
-4.86887e-05
1.58803e-06
-8.41307e-06
-4.60321e-05
1.78635e-06
-7.3163e-06
-4.18773e-05
1.98527e-06
-5.40874e-06
-3.58394e-05
2.02719e-06
-4.26719e-06
-2.90863e-05
1.85962e-06
-4.66365e-06
-2.3359e-05
1.5858e-06
-6.36971e-06
-1.93203e-05
1.28844e-06
-8.74272e-06
-1.67049e-05
9.84195e-07
-1.11612e-05
-1.49795e-05
6.63842e-07
-1.31628e-05
-1.36873e-05
3.19051e-07
-1.44541e-05
-1.25459e-05
-5.32106e-08
-1.49875e-05
-1.14262e-05
-3.68166e-07
-1.47928e-05
-1.02786e-05
-6.77104e-07
-1.39946e-05
-9.07939e-06
-9.62013e-07
-1.27521e-05
-7.82051e-06
-1.21427e-06
-1.1221e-05
-6.51729e-06
-1.42593e-06
-9.52898e-06
-5.20079e-06
-1.59057e-06
-7.76675e-06
-3.90282e-06
-1.70452e-06
-5.99456e-06
-2.61938e-06
-1.7665e-06
-4.24855e-06
-1.41991e-06
-1.77646e-06
-2.57799e-06
-2.44335e-07
-1.73522e-06
-1.01385e-06
9.02102e-07
-1.64389e-06
4.16244e-07
2.02078e-06
-1.50508e-06
1.68659e-06
3.1019e-06
-1.32452e-06
2.7856e-06
4.15486e-06
-1.10927e-06
3.72479e-06
5.27729e-06
-8.60266e-07
4.4637e-06
6.91156e-06
-5.37565e-07
4.4101e-06
1.10013e-05
8.65201e-09
2.45409e-06
2.09769e-05
8.91636e-07
1.02767e-06
2.66247e-05
1.02316e-06
2.30671e-05
7.15676e-07
-7.29058e-07
-4.07705e-05
4.1391e-07
-1.50328e-06
-5.00573e-05
4.19203e-07
-2.37019e-06
-5.08806e-05
6.31965e-07
-3.25298e-06
-5.02494e-05
8.22305e-07
-4.02533e-06
-4.88429e-05
9.99171e-07
-4.46291e-06
-4.66992e-05
1.18098e-06
-4.01759e-06
-4.36488e-05
1.39329e-06
-2.16097e-06
-3.92693e-05
1.6227e-06
5.25491e-07
-3.34629e-05
1.75653e-06
2.64187e-06
-2.70944e-05
1.73808e-06
3.23577e-06
-2.13648e-05
1.62029e-06
2.21566e-06
-1.69559e-05
1.46506e-06
5.08843e-08
-1.39161e-05
1.29744e-06
-2.61868e-06
-1.19455e-05
1.11563e-06
-5.2356e-06
-1.06662e-05
9.10052e-07
-7.41913e-06
-9.76599e-06
6.7491e-07
-8.94836e-06
-9.03322e-06
4.11681e-07
-9.70956e-06
-8.33753e-06
1.23398e-07
-9.6989e-06
-7.59332e-06
-1.56359e-07
-9.01592e-06
-6.72545e-06
-4.13425e-07
-7.83434e-06
-5.67682e-06
-6.59512e-07
-6.35065e-06
-4.47383e-06
-8.75804e-07
-4.68801e-06
-3.19867e-06
-1.05018e-06
-2.98305e-06
-1.91727e-06
-1.17447e-06
-1.28479e-06
-6.65214e-07
-1.2418e-06
3.90042e-07
5.12141e-07
-1.24489e-06
1.9868e-06
1.6472e-06
-1.17641e-06
3.45349e-06
2.72447e-06
-1.03182e-06
4.74087e-06
3.75554e-06
-8.13085e-07
5.80765e-06
4.8463e-06
-5.30968e-07
6.52443e-06
6.53841e-06
-1.86502e-07
5.98955e-06
1.13122e-05
4.34971e-07
3.64834e-06
2.23534e-05
1.08698e-06
1.54497e-06
2.76545e-05
1.08294e-06
2.373e-05
7.65278e-07
-6.09686e-07
-4.06259e-05
5.02773e-07
-4.31702e-07
-5.10716e-05
8.45674e-07
-8.32052e-08
-5.23336e-05
1.0595e-06
3.12228e-07
-5.19386e-05
1.20024e-06
6.56273e-07
-5.06119e-05
1.2992e-06
8.33842e-07
-4.83686e-05
1.36343e-06
9.13117e-07
-4.52459e-05
1.40535e-06
1.54379e-06
-4.14564e-05
1.45439e-06
3.52205e-06
-3.70696e-05
1.52972e-06
6.66566e-06
-3.18984e-05
1.58925e-06
9.84989e-06
-2.61455e-05
1.58692e-06
1.19134e-05
-2.04855e-05
1.52992e-06
1.23158e-05
-1.56456e-05
1.44939e-06
1.11812e-05
-1.20205e-05
1.36514e-06
9.0094e-06
-9.60274e-06
1.27928e-06
6.37117e-06
-8.1347e-06
1.18518e-06
3.73662e-06
-7.29412e-06
1.07303e-06
1.45563e-06
-6.82228e-06
9.33551e-07
-2.12813e-07
-6.52989e-06
7.63236e-07
-1.10837e-06
-6.24237e-06
5.60421e-07
-1.18218e-06
-5.80336e-06
3.22933e-07
-4.74856e-07
-5.14804e-06
5.48507e-08
8.03029e-07
-4.23466e-06
-1.8082e-07
2.35617e-06
-3.03851e-06
-3.85656e-07
3.97607e-06
-1.68819e-06
-5.56011e-07
5.50294e-06
-2.96608e-07
-6.77293e-07
6.85183e-06
1.07782e-06
-7.36339e-07
7.97332e-06
2.36893e-06
-7.19267e-07
8.81891e-06
3.57539e-06
-6.1411e-07
9.35118e-06
4.78686e-06
-4.14316e-07
9.52808e-06
6.55287e-06
-1.19517e-07
8.43705e-06
1.20419e-05
4.39139e-07
5.46237e-06
2.4353e-05
1.0046e-06
2.49996e-06
2.95732e-05
1.01024e-06
2.53256e-05
7.86738e-07
-2.45021e-06
-3.91295e-05
7.15024e-07
-9.51647e-07
-5.38855e-05
1.05419e-06
2.13346e-06
-5.68588e-05
1.20559e-06
5.82096e-06
-5.71607e-05
1.30085e-06
9.7682e-06
-5.61774e-05
1.37092e-06
1.36403e-05
-5.39049e-05
1.41989e-06
1.6737e-05
-4.9988e-05
1.44483e-06
1.83975e-05
-4.46974e-05
1.44754e-06
1.91304e-05
-3.93482e-05
1.45415e-06
2.01191e-05
-3.44606e-05
1.48575e-06
2.19112e-05
-2.95454e-05
1.51642e-06
2.40496e-05
-2.41939e-05
1.49782e-06
2.55786e-05
-1.86197e-05
1.41604e-06
2.57737e-05
-1.34964e-05
1.30124e-06
2.44779e-05
-9.44169e-06
1.19153e-06
2.19969e-05
-6.67909e-06
1.10281e-06
1.88403e-05
-5.07506e-06
1.03345e-06
1.54638e-05
-4.30001e-06
9.81522e-07
1.21933e-05
-4.02979e-06
9.43338e-07
9.3367e-06
-4.08339e-06
8.94414e-07
7.25751e-06
-4.32884e-06
8.00903e-07
6.21055e-06
-4.56503e-06
6.57037e-07
6.19872e-06
-4.51932e-06
4.63771e-07
7.12142e-06
-4.07513e-06
2.245e-07
8.73939e-06
-3.20326e-06
-3.54816e-08
1.04928e-05
-1.7708e-06
-2.32188e-07
1.20798e-05
-7.43725e-08
-3.95038e-07
1.33268e-05
1.65847e-06
-4.99119e-07
1.40664e-05
3.39326e-06
-5.21712e-07
1.40172e-05
5.30874e-06
-4.38489e-07
1.26978e-05
8.11796e-06
-2.16331e-07
9.69613e-06
1.46367e-05
3.38942e-07
5.83999e-06
2.70385e-05
9.62068e-07
2.50888e-06
3.17689e-05
9.75935e-07
2.69884e-05
7.51733e-07
6.44982e-07
-4.05229e-05
5.38195e-07
4.72476e-06
-5.92885e-05
9.94377e-07
1.01141e-05
-6.36279e-05
1.09972e-06
1.58191e-05
-6.42809e-05
1.16842e-06
2.15065e-05
-6.33407e-05
1.23953e-06
2.69092e-05
-6.08465e-05
1.30894e-06
3.12268e-05
-5.58448e-05
1.35398e-06
3.30765e-05
-4.7947e-05
1.32514e-06
3.23053e-05
-3.97887e-05
1.24229e-06
3.01643e-05
-3.34385e-05
1.1971e-06
2.81997e-05
-2.87402e-05
1.23595e-06
2.73146e-05
-2.45906e-05
1.33634e-06
2.74615e-05
-2.01545e-05
1.42662e-06
2.78801e-05
-1.53163e-05
1.44178e-06
2.77222e-05
-1.06082e-05
1.378e-06
2.65435e-05
-6.71586e-06
1.27806e-06
2.43578e-05
-4.00901e-06
1.18012e-06
2.14906e-05
-2.46656e-06
1.09303e-06
1.82857e-05
-1.76918e-06
1.01502e-06
1.49322e-05
-1.58025e-06
9.52559e-07
1.1675e-05
-1.83417e-06
9.15353e-07
8.78588e-06
-2.37862e-06
8.79182e-07
6.90059e-06
-3.24146e-06
7.89651e-07
6.74755e-06
-4.3809e-06
6.41302e-07
8.3248e-06
-5.06278e-06
4.3287e-07
1.06338e-05
-4.15216e-06
1.55016e-07
1.29398e-05
-2.21305e-06
-1.25723e-07
1.4765e-05
2.0951e-07
-3.55172e-07
1.60041e-05
2.68979e-06
-5.3575e-07
1.63215e-05
5.57778e-06
-6.28307e-07
1.47303e-05
1.01267e-05
-5.49249e-07
1.03042e-05
1.89001e-05
-1.1895e-07
5.74217e-06
3.06934e-05
5.49869e-07
2.44604e-06
3.41155e-05
6.73666e-07
2.86822e-05
5.71167e-07
2.42373e-06
-4.39205e-05
7.88388e-07
6.96372e-06
-6.51333e-05
1.04694e-06
1.213e-05
-6.9839e-05
8.38777e-07
1.74149e-05
-7.04459e-05
7.0347e-07
2.26412e-05
-6.93972e-05
6.55313e-07
2.76527e-05
-6.67509e-05
6.92378e-07
3.18459e-05
-6.10713e-05
8.14159e-07
3.38546e-05
-5.09755e-05
8.78347e-07
3.33225e-05
-4.00137e-05
7.45135e-07
3.09735e-05
-3.15542e-05
5.45029e-07
2.78399e-05
-2.59157e-05
4.23271e-07
2.4929e-05
-2.19856e-05
4.17625e-07
2.29325e-05
-1.85797e-05
5.14869e-07
2.19238e-05
-1.49075e-05
6.71607e-07
2.14137e-05
-1.08521e-05
8.11591e-07
2.07912e-05
-6.92831e-06
8.86856e-07
1.97048e-05
-3.78307e-06
9.06708e-07
1.81912e-05
-1.81187e-06
8.98195e-07
1.63608e-05
-7.73217e-07
8.73402e-07
1.42763e-05
-2.88653e-07
8.37907e-07
1.19413e-05
-2.40685e-07
7.97401e-07
9.5471e-06
-6.6912e-07
7.6106e-07
7.46419e-06
-1.8023e-06
7.63939e-07
6.49605e-06
-4.0661e-06
8.32531e-07
7.33609e-06
-6.56552e-06
8.35079e-07
9.62024e-06
-6.95692e-06
6.22245e-07
1.22646e-05
-5.10593e-06
3.00143e-07
1.42389e-05
-1.70198e-06
-3.38389e-08
1.51079e-05
2.15438e-06
-3.19086e-07
1.47542e-05
6.45072e-06
-5.37771e-07
1.27702e-05
1.25981e-05
-6.13486e-07
8.83159e-06
2.28694e-05
-3.6597e-07
5.01118e-06
3.39925e-05
1.23086e-07
2.07177e-06
3.64174e-05
3.05243e-07
3.01799e-05
3.15173e-07
3.4698e-06
-4.81623e-05
5.28434e-07
6.67671e-06
-6.8868e-05
4.78414e-07
9.53345e-06
-7.27729e-05
1.94616e-07
1.21263e-05
-7.28773e-05
3.50973e-08
1.44477e-05
-7.14803e-05
-1.03009e-08
1.63809e-05
-6.85118e-05
3.53035e-08
1.75556e-05
-6.23874e-05
2.63025e-07
1.75706e-05
-5.15044e-05
5.52973e-07
1.68435e-05
-3.98542e-05
5.8196e-07
1.58692e-05
-3.09686e-05
4.17683e-07
1.46838e-05
-2.49289e-05
2.46178e-07
1.33172e-05
-2.07073e-05
1.46185e-07
1.19997e-05
-1.73234e-05
1.22866e-07
1.10564e-05
-1.40734e-05
1.68312e-07
1.05689e-05
-1.05831e-05
2.68293e-07
1.02917e-05
-7.00037e-06
3.86674e-07
9.95249e-06
-3.90664e-06
4.89685e-07
9.43383e-06
-1.83526e-06
5.63329e-07
8.75812e-06
-6.86697e-07
6.10302e-07
7.93221e-06
-7.78086e-08
6.39724e-07
6.92893e-06
1.33167e-07
6.58325e-07
5.71434e-06
-8.34487e-08
6.7125e-07
4.16907e-06
-8.86938e-07
7.0794e-07
2.48594e-06
-3.10818e-06
8.65202e-07
1.85147e-06
-6.80547e-06
1.02648e-06
3.35678e-06
-9.27592e-06
9.32514e-07
6.57059e-06
-8.86859e-06
6.18825e-07
9.74828e-06
-5.04946e-06
1.99228e-07
1.13011e-05
8.10725e-07
-2.06971e-07
1.11565e-05
7.13021e-06
-5.66002e-07
9.34431e-06
1.50763e-05
-7.70013e-07
6.19449e-06
2.64472e-05
-6.71098e-07
3.52461e-06
3.67296e-05
-3.51489e-07
1.40836e-06
3.83961e-05
-1.42542e-07
3.12924e-05
1.17563e-08
6.55417e-06
-5.46406e-05
2.59158e-07
8.78844e-06
-7.07593e-05
3.59564e-07
9.18997e-06
-7.2587e-05
1.51661e-07
8.92789e-06
-7.18669e-05
-5.58327e-09
8.31466e-06
-6.99796e-05
-1.42777e-07
7.20963e-06
-6.65191e-05
-1.67998e-07
5.28064e-06
-5.98248e-05
-8.69277e-09
2.87623e-06
-4.88292e-05
1.72215e-07
8.72896e-07
-3.77651e-05
1.69586e-07
-1.75583e-07
-2.98231e-05
3.93714e-08
-5.26201e-07
-2.44002e-05
-9.91898e-08
-5.41373e-07
-2.04535e-05
-1.84803e-07
-3.67378e-07
-1.72532e-05
-2.00971e-07
5.85622e-08
-1.43002e-05
-1.60199e-07
8.49237e-07
-1.12721e-05
-6.5627e-08
1.95643e-06
-8.12437e-06
4.74292e-08
3.10257e-06
-5.19501e-06
1.65574e-07
3.9896e-06
-2.98295e-06
2.77528e-07
4.63489e-06
-1.68088e-06
3.65115e-07
5.06812e-06