/*--------------------------------*- C++ -*----------------------------------*\
| =========                 |                                                 |
| \\      /  F ield         | OpenFOAM: The Open Source CFD Toolbox           |
|  \\    /   O peration     | Version:  v2006                                 |
|   \\  /    A nd           | Website:  www.openfoam.com                      |
|    \\/     M anipulation  |                                                 |
\*---------------------------------------------------------------------------*/
FoamFile
{
    version     2.0;
    format      ascii;
    class       volScalarField;
    location    "23";
    object      T;
}
// * * * * * * * * * * * * * * * * * * * * * * * * * * * * * * * * * * * * * //

dimensions      [0 0 0 1 0 0 0];


internalField   nonuniform List<scalar> 
78750
(
72.6506
252.819
267.283
297.402
296.391
303.996
304.821
307.303
307.665
308.917
309.115
309.619
309.666
309.757
309.733
309.694
309.644
309.598
309.569
309.559
309.576
309.596
309.631
309.647
309.715
309.695
309.86
309.651
310.208
309.236
310.901
307.187
310.422
296.272
327.391
306.59
348.02
287.161
329.129
294.32
323.271
298.053
320.54
299.874
318.214
302.262
314.191
305.449
310.431
307.295
308.303
307.598
307.487
307.265
307.075
306.886
306.686
306.477
306.243
305.999
305.703
305.413
305.001
304.734
304.076
304.226
303.319
305.489
308.889
353.648
303.161
304.641
304.435
302.079
311.886
310.705
318.237
315.784
320.303
318.272
319.917
318.753
318.486
317.402
316.247
315.098
313.794
312.645
311.562
310.617
309.798
309.099
308.503
307.965
307.434
306.836
306.08
305.043
303.596
301.548
299.007
295.841
295.812
308.444
366.713
306.188
319.36
323.833
327.02
325.411
327.096
327.563
329.114
329.852
330.804
331.436
331.911
332.083
331.88
331.279
330.19
328.685
326.804
324.683
322.464
320.29
318.283
316.542
315.142
314.136
313.536
313.296
313.301
313.365
313.323
313.197
314.114
320.607
337.052
381.374
311.188
320.246
326.305
329.887
331.784
332.831
333.905
334.77
335.612
336.458
337.33
338.241
339.182
340.14
341.067
341.904
342.551
342.883
342.75
341.995
340.489
338.163
335.044
331.294
327.242
323.349
320.079
317.761
316.609
316.62
317.573
319.004
323.843
341.485
389.892
312.972
323.54
325.516
326.17
326.752
327.404
328.071
328.782
329.526
330.294
331.079
331.879
332.706
333.579
334.532
335.605
336.834
338.236
339.8
341.47
343.15
344.716
346.005
346.737
346.403
344.324
340.069
334.14
328.352
324.404
323.995
329.196
339.583
358.517
401.428
304.87
311.529
316.589
320.521
323.708
326.419
328.768
330.781
332.48
333.885
335.01
335.87
336.479
336.85
337.009
337.003
336.906
336.81
336.811
337.007
337.504
338.385
339.686
341.373
343.288
345.194
346.951
348.477
348.746
343.664
333.458
327.925
340.107
363.122
406.26
308.513
320.029
327.495
332.709
336.829
340.273
343.056
345.183
346.707
347.719
348.321
348.597
348.594
348.339
347.86
347.199
346.428
345.645
344.938
344.357
343.919
343.613
343.413
343.346
343.533
344.054
344.769
345.379
345.756
345.54
342.128
336.116
343.866
371.26
412.912
317.419
331.319
337.779
341.958
345.096
347.181
348.355
348.859
348.938
348.791
348.545
348.272
348.001
347.744
347.501
347.27
347.061
346.894
346.8
346.805
346.9
347.05
347.199
347.271
347.222
347.047
346.711
346.296
345.906
345.356
343.862
339.158
342.634
369.468
413.252
319.251
328.28
331.93
334.487
336.527
338.08
339.224
340.066
340.687
341.141
341.473
341.729
341.949
342.168
342.408
342.686
343.016
343.41
343.874
344.403
344.968
345.541
346.114
346.653
347.081
347.335
347.352
347.013
346.252
345.105
343.319
341.114
346.818
372.737
415.286
312.757
325.492
331.501
335.381
338.723
341.513
343.557
344.887
345.631
345.89
345.75
345.317
344.712
344.05
343.423
342.901
342.532
342.34
342.328
342.481
342.769
343.165
343.663
344.243
344.864
345.47
346.002
346.438
346.57
346.059
345.018
344.813
353.844
379.979
418.186
316.797
331.345
338.215
343.106
347.601
350.686
351.952
352.075
351.689
351.074
350.327
349.49
348.602
347.695
346.796
345.943
345.181
344.558
344.101
343.787
343.594
343.525
343.582
343.762
344.054
344.437
344.871
345.326
345.764
345.991
345.808
345.978
353.209
378.097
416.819
324.231
336.07
341.086
345.301
349.087
350.841
350.643
349.692
348.65
347.7
346.884
346.211
345.684
345.299
345.041
344.877
344.772
344.704
344.663
344.65
344.667
344.715
344.793
344.9
345.029
345.168
345.313
345.43
345.409
345.226
345.129
346.699
357.011
380.981
417.095
315.461
327.884
333.354
337.392
341.632
345.557
347.903
348.421
347.831
346.787
345.626
344.519
343.584
342.927
342.602
342.563
342.711
342.956
343.245
343.554
343.873
344.196
344.519
344.834
345.134
345.413
345.661
345.855
345.96
345.992
346.226
348.29
358.999
381.184
415.527
316.06
329.472
335.418
339.33
342.949
346.823
350.427
352.341
352.305
351.058
349.314
347.468
345.736
344.284
343.257
342.688
342.478
342.493
342.64
342.865
343.143
343.462
343.815
344.194
344.588
344.979
345.344
345.654
345.891
346.078
346.45
348.803
360.559
382.492
415.625
317.693
330.685
336.051
339.523
342.511
345.237
347.892
350.082
350.954
350.4
348.984
347.241
345.491
343.975
342.871
342.21
341.904
341.842
341.936
342.129
342.384
342.681
343.008
343.361
343.738
344.133
344.536
344.941
345.363
345.909
347.072
351.171
364.952
384.903
414.404
317.446
331.775
337.686
341.371
344.4
347.033
349.468
351.793
353.625
354.34
353.738
352.133
350.025
347.813
345.77
344.064
342.752
341.821
341.233
340.94
340.872
340.953
341.111
341.297
341.483
341.649
341.78
341.862
341.899
341.97
342.539
346.549
363.116
384.601
414.461
318.688
332.173
337.559
341.016
344.046
346.78
349.169
351.25
353.169
354.859
355.98
356.24
355.584
354.177
352.256
350.018
347.668
345.467
343.576
342.012
340.857
340.205
339.974
339.999
340.149
340.351
340.575
340.822
341.124
341.613
342.888
348.239
365.718
385.876
413.615
318.457
332.369
337.604
340.714
343.333
345.81
348.184
350.258
351.913
353.307
354.599
355.727
356.48
356.659
356.199
355.192
353.739
351.782
349.207
346.291
343.732
341.769
340.316
339.496
339.265
339.352
339.563
339.797
340.013
340.222
340.69
344.772
363.394
384.702
413.104
315.579
329.324
335.366
338.964
341.882
344.71
347.703
350.555
352.673
353.979
354.763
355.293
355.676
355.867
355.753
355.258
354.46
353.525
352.437
350.919
348.581
345.605
343.094
341.322
340.042
339.57
339.858
340.534
341.51
342.992
345.704
352.287
369.644
388.21
413.311
316.123
329.577
335.703
339.4
342.421
345.457
348.991
352.698
355.447
356.899
357.474
357.647
357.666
357.607
357.435
357.058
356.426
355.642
354.891
354.118
353.213
351.989
349.788
346.001
341.708
339.503
339.184
339.743
340.723
342.268
345.525
354.096
373.142
390.824
413.972
315.104
328.383
334.913
338.888
342.113
345.326
349.099
353.18
356.318
358.031
358.641
358.669
358.447
358.112
357.706
357.217
356.624
356.007
355.399
354.712
353.87
352.795
350.989
347.118
342.255
339.519
338.797
339.629
341.428
344.267
349.684
360.952
379.281
395.651
417.267
314.404
330.069
337.796
342.376
346.006
349.441
353.007
356.139
358.11
359.114
359.497
359.522
359.342
359.018
358.561
357.984
357.315
356.631
356.044
355.458
354.76
353.96
352.83
350.489
346.226
342.288
340.113
339.704
341.242
344.109
349.253
361.116
380.933
397.469
418.339
319.262
336.588
343.532
347.701
351.255
354.676
358.028
360.479
361.358
361.315
360.983
360.578
360.152
359.699
359.197
358.631
358.021
357.428
356.918
356.428
355.873
355.24
354.54
353.527
351.283
347.311
343.859
342.082
343.024
347.776
355.057
367.121
384.947
400.639
420.953
321.544
337.259
343.493
347.428
350.737
353.684
356.517
359.169
360.8
361.32
361.308
361.071
360.733
360.339
359.902
359.426
358.923
358.421
357.961
357.564
357.177
356.756
356.307
355.85
355.319
354.392
351.912
347.781
345.302
349.508
361.17
376.122
391.474
405.212
424.268
323.031
337.864
343.612
347.35
350.574
353.433
356.074
358.633
360.744
361.756
361.939
361.74
361.39
360.989
360.572
360.15
359.729
359.317
358.923
358.553
358.209
357.859
357.473
357.051
356.589
356.085
355.472
354.417
351.884
348.135
353.491
369.915
387.929
403.229
423.172
321.327
335.006
340.383
343.984
347.242
350.279
353.11
355.858
358.616
360.881
362.088
362.432
362.281
361.899
361.437
360.968
360.525
360.121
359.757
359.425
359.111
358.797
358.469
358.12
357.753
357.375
356.996
356.643
356.208
353.421
350.443
364.105
385.173
401.856
421.784
318.442
332.526
338.436
342.24
345.55
348.603
351.387
353.879
356.19
358.526
360.657
362.066
362.681
362.708
362.389
361.915
361.403
360.922
360.505
360.157
359.842
359.522
359.196
358.881
358.599
358.383
358.265
358.272
358.685
356.854
354.732
368.379
388.945
404.598
423.817
317.896
332.268
338.154
341.78
344.894
347.887
350.813
353.537
355.859
357.757
359.454
361.089
362.414
363.154
363.309
363.035
362.525
361.939
361.379
360.917
360.555
360.231
359.923
359.669
359.535
359.635
360.26
363.067
371.178
378.206
379.464
384.993
396.093
410.247
432.051
316.83
331.226
337.416
341.077
344.004
346.718
349.482
352.42
355.359
357.889
359.761
361.104
362.201
363.193
363.934
364.201
363.983
363.428
362.745
362.103
361.579
361.157
360.785
360.439
360.169
360.193
361.186
365.008
374.85
390.424
404.8
413.971
419.862
427.264
438.823
317.265
331.973
338.401
342.179
345.153
347.825
350.388
352.993
355.711
358.412
360.757
362.458
363.524
364.185
364.661
365.059
365.305
365.178
364.619
363.796
362.963
362.293
361.811
361.45
361.149
360.881
360.72
361.068
363.215
369.326
379.515
391.414
405.807
418.012
429.429
317.401
331.919
338.53
342.528
345.755
348.724
351.621
354.501
357.259
359.751
361.908
363.669
364.954
365.766
366.217
366.449
366.565
366.601
366.481
365.996
365.093
364.027
363.124
362.513
362.137
361.902
361.743
361.651
361.507
361.67
362.813
363.829
363.749
377.673
412.462
317.696
333.243
340.363
344.665
348.132
351.268
354.255
357.14
359.793
362.036
363.807
365.159
366.175
366.9
367.37
367.637
367.76
367.784
367.721
367.534
367.032
366.007
364.662
363.506
362.821
362.574
362.694
362.569
362.149
362.304
360.158
349.803
348.674
367.825
405.951
318.908
335.69
342.959
347.366
351.01
354.328
357.421
360.195
362.485
364.254
365.584
366.577
367.323
367.875
368.261
368.506
368.646
368.701
368.667
368.533
368.232
367.464
365.939
364.081
362.963
363.189
365.104
370.468
378.913
384.265
383.979
382.087
387.029
399.624
420.934
320.833
337.753
344.626
348.872
352.512
355.909
359.112
361.942
364.163
365.749
366.85
367.63
368.205
368.644
368.979
369.221
369.386
369.492
369.536
369.507
369.389
369.148
368.56
366.557
363.678
363.103
365.234
368.121
370.93
374.216
379.43
385.575
393.133
404.862
427.024
322.185
338.359
344.781
348.833
352.369
355.718
358.962
361.985
364.521
366.393
367.658
368.488
369.046
369.437
369.721
369.927
370.083
370.197
370.255
370.24
370.124
369.844
369.156
367.546
365.811
369.803
381.689
392.764
392
385.413
384.249
389.548
397.801
410.143
435.339
321.884
337.678
344.229
348.383
351.955
355.252
358.362
361.306
363.991
366.211
367.841
368.931
369.634
370.097
370.423
370.672
370.881
371.071
371.254
371.434
371.597
371.702
371.68
371.452
370.886
370.514
374.978
389.84
409.267
421.359
423.803
424.413
428.615
440.936
447.714
320.943
337.469
344.628
349.12
352.933
356.372
359.389
361.943
364.148
366.123
367.826
369.151
370.081
370.705
371.135
371.458
371.731
371.986
372.243
372.51
372.789
373.075
373.341
373.547
373.649
373.478
372.898
373.214
377.382
387.034
402.353
416.938
432.126
434.517
430.192
320.827
338.512
346.254
351.137
355.386
359.312
362.627
365.043
366.68
367.899
368.994
370.026
370.906
371.592
372.127
372.588
373.045
373.558
374.16
374.875
375.726
376.665
377.46
377.901
378.386
379.45
380.196
378.956
377.465
376.956
377.019
379.795
387.103
379.596
395.366
322.535
340.815
348.692
353.861
358.657
363.191
366.781
368.988
370.105
370.675
371.115
371.63
372.2
372.749
373.268
373.842
374.584
375.586
376.918
378.627
381.017
385.432
393.295
394.209
389.409
384.439
379.527
374.48
368.941
363.614
361.96
366.015
371.466
376.383
398.101
325.962
343.568
351.107
356.465
361.807
366.783
370.349
372.182
372.829
372.919
372.854
372.86
372.993
373.181
373.361
373.523
373.694
373.933
374.335
375.052
376.306
378.488
382.37
387.969
391.77
392.01
389.691
385.764
380.958
376.132
373.271
375.664
382.378
393.807
419.948
328.965
345.417
352.564
358.092
363.78
368.833
372.243
373.997
374.694
374.858
374.805
374.718
374.699
374.778
374.931
375.124
375.331
375.539
375.736
375.921
376.111
376.37
376.852
377.836
379.464
381.426
383.283
384.817
386.048
387.158
388.852
391.984
396.332
404.292
428.572
328.801
345.036
352.036
357.469
362.977
367.962
371.618
373.8
374.933
375.481
375.749
375.913
376.066
376.254
376.494
376.788
377.131
377.513
377.919
378.33
378.716
379.028
379.228
379.367
379.62
380.205
381.366
383.426
386.931
392.686
399.889
405.052
409.152
416.384
434.742
326.391
343.008
349.782
354.616
359.421
364.357
368.916
372.32
374.395
375.519
376.124
376.503
376.824
377.171
377.584
378.08
378.671
379.364
380.146
381.016
382.014
383.094
383.646
382.567
380.471
378.673
377.54
377.122
377.536
379.083
382.863
393.114
407.108
418.027
431.147
324.651
341.526
348.374
352.895
357.049
361.308
365.782
369.93
373.052
375.005
376.09
376.668
377.006
377.274
377.571
377.953
378.476
379.201
380.159
381.395
383.139
385.756
388.561
388.987
386.235
382.255
378.163
374.221
370.912
370.73
378.827
394.437
407.126
419.254
436.764
325.068
342.464
349.728
354.461
358.503
362.044
365.267
368.421
371.428
373.912
375.663
376.752
377.369
377.697
377.872
377.99
378.124
378.336
378.703
379.33
380.379
382.106
384.832
388.462
391.721
393.073
392.271
390.256
389.131
392.066
400.836
411.889
422.451
433.983
443.979
327.212
344.648
352.012
356.98
361.324
364.986
367.788
369.874
371.637
373.348
374.969
376.336
377.366
378.08
378.548
378.847
379.038
379.165
379.26
379.362
379.525
379.839
380.451
381.573
383.41
385.96
388.94
392.078
395.7
400.987
408.513
416.297
423.627
430.864
437.685
329.551
346.504
353.535
358.38
362.773
366.702
369.882
372.164
373.689
374.757
375.648
376.513
377.36
378.133
378.786
379.313
379.73
380.065
380.339
380.567
380.76
380.924
381.075
381.255
381.552
382.1
383.045
384.553
386.942
390.869
396.679
402.367
406.868
411.424
423.6
330.053
347.185
354.23
359.042
363.338
367.096
370.194
372.626
374.445
375.752
376.691
377.41
378.032
378.632
379.231
379.818
380.376
380.896
381.384
381.847
382.292
382.711
383.078
383.343
383.476
383.541
383.642
383.824
384.224
385.162
386.899
389.378
392.691
397.384
409.871
330.865
348.41
355.633
360.673
365.251
369.008
371.745
373.716
375.206
376.37
377.281
377.998
378.587
379.117
379.653
380.239
380.889
381.586
382.313
383.062
383.847
384.692
385.649
386.719
387.365
386.224
383.89
381.777
380.245
379.354
379.496
381.587
385.962
392.09
405.751
332.453
349.63
356.67
361.905
367.054
371.271
374.037
375.719
376.817
377.631
378.288
378.83
379.277
379.657
380.011
380.392
380.863
381.474
382.244
383.174
384.322
385.865
388.142
391.371
394.139
393.286
389.674
386.286
383.769
382.265
382.337
384.781
389.83
399.136
421.547
332.189
348.351
354.945
360.144
365.799
371.025
374.765
376.979
378.21
378.942
379.444
379.835
380.16
380.431
380.661
380.866
381.077
381.345
381.744
382.355
383.265
384.61
386.653
389.782
394.057
397.998
399.579
399.139
398.061
397.418
398.063
400.726
406.09
416.391
435.883
327.89
343.089
349.408
354.205
359.544
365.631
371.488
375.754
378.223
379.552
380.301
380.766
381.084
381.321
381.506
381.654
381.775
381.882
382.001
382.184
382.517
383.117
384.127
385.766
388.337
392.01
396.367
400.603
404.261
407.405
410.502
414.173
419.059
426.612
438.544
321.651
337.314
344.505
349.143
353.38
358.419
364.964
371.521
376.108
378.72
380.17
381.031
381.584
381.96
382.225
382.416
382.553
382.652
382.72
382.772
382.836
382.97
383.262
383.828
384.82
386.442
388.908
392.335
396.619
401.386
406.123
410.532
414.81
420.374
431.587
319.068
337.856
347.23
352.796
356.878
360.36
364.375
369.743
374.712
377.952
379.836
380.979
381.734
382.269
382.666
382.968
383.2
383.374
383.499
383.58
383.621
383.642
383.679
383.789
384.048
384.556
385.454
386.929
389.179
392.279
396.008
399.915
403.82
409.02
421.943
322.769
344.53
354.749
361.139
366.242
370.245
372.841
375.013
377.557
379.533
380.822
381.689
382.314
382.794
383.185
383.515
383.791
384.016
384.199
384.346
384.453
384.517
384.548
384.568
384.613
384.732
384.997
385.517
386.452
387.992
390.278
393.283
396.926
402.152
415.425
329.828
350.277
358.9
364.911
370.614
375.661
378.973
380.446
381.307
381.998
382.56
383.026
383.421
383.764
384.066
384.335
384.577
384.794
384.989
385.163
385.315
385.437
385.524
385.58
385.618
385.661
385.747
385.937
386.341
387.14
388.603
391.023
394.572
399.914
413.021
334.539
352.838
360.391
365.808
370.997
375.782
379.427
381.54
382.622
383.262
383.723
384.096
384.417
384.702
384.958
385.191
385.408
385.613
385.811
386.004
386.195
386.379
386.55
386.705
386.845
386.982
387.139
387.357
387.723
388.405
389.708
392.062
395.75
401.303
414.409
337.411
356.268
363.961
368.907
372.775
376.118
379.139
381.429
382.868
383.752
384.347
384.793
385.152
385.455
385.72
385.957
386.177
386.383
386.582
386.78
386.984
387.199
387.426
387.666
387.922
388.204
388.533
388.951
389.542
390.487
392.129
394.925
399.04
404.93
418.118
342.333
362.301
370.103
374.246
376.422
378.051
379.955
381.83
383.229
384.173
384.835
385.336
385.737
386.071
386.364
386.633
386.882
387.116
387.338
387.555
387.781
388.027
388.299
388.606
388.96
389.383
389.912
390.613
391.608
393.126
395.527
399.097
403.672
409.922
423.379
350.519
371.215
378.403
380.976
381.256
381.39
382.155
383.265
384.245
384.991
385.564
386.023
386.406
386.739
387.043
387.327
387.592
387.841
388.078
388.308
388.544
388.803
389.099
389.448
389.87
390.401
391.102
392.073
393.498
395.684
398.978
403.361
408.293
414.728
428.058
358.296
380.9
386.326
386.466
385.501
385.026
385.056
385.365
385.768
386.175
386.56
386.917
387.247
387.553
387.84
388.11
388.366
388.61
388.843
389.072
389.307
389.561
389.848
390.19
390.613
391.165
391.919
393.006
394.654
397.238
401.126
406.087
411.275
417.739
430.561
358.286
380.313
383.66
384.104
384.625
385.303
385.973
386.565
387.053
387.431
387.741
388.021
388.289
388.55
388.805
389.054
389.295
389.529
389.758
389.985
390.217
390.463
390.735
391.052
391.443
391.955
392.666
393.713
395.338
397.946
401.958
407.137
412.463
418.894
431.223
346.439
361.111
364.807
367.918
371.286
374.91
378.465
381.807
384.775
386.845
387.998
388.637
389.053
389.378
389.666
389.937
390.199
390.454
390.706
390.955
391.206
391.464
391.74
392.047
392.411
392.872
393.504
394.434
395.899
398.305
402.129
407.229
412.546
418.914
431.003
326.858
335.999
340.974
345.448
349.942
354.727
359.693
364.959
371.32
378.746
384.312
387.267
388.724
389.533
390.07
390.488
390.85
391.185
391.507
391.822
392.136
392.456
392.789
393.146
393.548
394.029
394.653
395.538
396.905
399.152
402.766
407.661
412.839
419.132
431.215
314.851
327.127
337.104
344.261
349.678
354.003
357.477
360.339
361.396
366.628
375.757
383.011
386.923
388.875
389.972
390.693
391.235
391.695
392.119
392.523
392.919
393.321
393.739
394.183
394.668
395.226
395.915
396.848
398.24
400.472
403.984
408.643
413.575
419.752
431.96
315.584
337.514
351.617
360.499
366.951
372.18
376.549
380.046
376.359
373.338
378.359
384.522
387.866
389.334
390.264
391.03
391.681
392.256
392.786
393.29
393.782
394.271
394.771
395.315
395.932
396.648
397.522
398.672
400.314
402.788
406.374
410.8
415.411
421.432
433.654
324.615
347.143
357.18
363.33
368.697
374.344
381.259
388.292
386.823
385.035
387.373
389.048
389.961
390.669
391.337
391.97
392.569
393.141
393.695
394.237
394.773
395.316
395.901
396.561
397.315
398.201
399.295
400.731
402.729
405.542
409.229
413.403
417.687
423.491
435.433
329.408
348.774
356.677
362.048
367.266
372.925
379.337
385.829
388.273
389.09
390.039
390.744
391.329
391.877
392.424
392.98
393.542
394.104
394.668
395.244
395.85
396.506
397.233
398.051
398.995
400.118
401.515
403.326
405.722
408.81
412.463
416.328
420.322
425.941
437.349
328.246
350.836
361.63
368.94
375.366
380.766
384.143
386.788
389.421
390.367
391.087
391.652
392.168
392.676
393.198
393.744
394.315
394.913
395.544
396.217
396.947
397.749
398.64
399.645
400.799
402.166
403.841
405.946
408.586
411.747
415.226
418.777
422.504
427.878
438.617
330.718
353.649
364.036
371.609
379.21
386.211
389.735
389.167
390.154
391.207
391.798
392.281
392.759
393.255
393.784
394.349
394.955
395.603
396.302
397.065
397.91
398.855
399.924
401.144
402.551
404.197
406.151
408.487
411.23
414.303
417.526
420.779
424.276
429.426
439.511
334.833
354.984
363.824
371.001
378.812
386.566
391.768
391.945
391.184
391.922
392.367
392.795
393.263
393.772
394.326
394.927
395.579
396.284
397.054
397.906
398.861
399.944
401.184
402.606
404.239
406.113
408.264
410.713
413.44
416.355
419.337
422.346
425.64
430.555
440.05
333.212
354.291
363.72
370.713
377.092
382.943
388.494
392.213
392.225
392.378
392.734
393.122
393.576
394.086
394.646
395.259
395.924
396.645
397.436
398.318
399.322
400.483
401.843
403.438
405.292
407.411
409.774
412.347
415.068
417.859
420.654
423.463
426.552
431.176
440.163
333.742
355.221
364.95
372.069
378.234
382.989
386.71
390.285
392.71
392.818
393.043
393.352
393.764
394.272
394.855
395.5
396.202
396.958
397.775
398.675
399.688
400.856
402.228
403.856
405.781
408.015
410.524
413.229
416.023
418.81
421.545
424.264
427.237
431.675
440.315
335.227
355.028
363.991
371.052
377.951
383.497
387
389.278
391.467
393.171
393.399
393.556
393.871
394.297
394.835
395.479
396.199
396.972
397.794
398.68
399.666
400.797
402.134
403.742
405.681
407.979
410.601
413.441
416.352
419.207
421.957
424.647
427.536
431.789
440.178
336.338
356.164
365.294
372.395
379.105
384.636
388.349
390.47
391.711
392.825
393.888
393.988
394.008
394.324
394.82
395.447
396.205
397.047
397.934
398.865
399.87
400.99
402.279
403.8
405.628
407.823
410.398
413.269
416.267
419.215
422.027
424.742
427.615
431.806
440.146
338.611
358.467
367.834
375.225
381.788
386.718
390.032
392.135
393.37
394.06
394.547
394.986
394.839
394.519
394.697
395.262
396.01
396.926
397.937
398.948
399.947
401.001
402.203
403.651
405.431
407.606
410.185
413.092
416.155
419.179
422.055
424.81
427.694
431.867
440.189
339.291
358.771
368.23
376.063
383.098
388.082
391.15
393.045
394.273
395.069
395.56
395.877
396.113
395.875
395.119
395.145
395.799
396.698
397.768
398.979
400.249
401.517
402.802
404.194
405.822
407.816
410.252
413.087
416.14
419.186
422.093
424.878
427.791
432.006
440.381
339.364
358.719
368.336
376.492
383.805
388.866
391.908
393.759
394.968
395.802
396.377
396.749
396.964
397.004
396.361
395.531
395.884
396.78
397.947
399.244
400.537
401.823
403.181
404.688
406.415
408.435
410.818
413.563
416.545
419.558
422.46
425.25
428.19
432.47
440.823
338.447
357.923
367.684
376.17
383.953
389.299
392.442
394.303
395.483
396.281
396.838
397.223
397.468
397.562
397.351
396.436
396.097
396.856
397.926
399.361
401.149
402.905
404.467
405.977
407.646
409.627
411.975
414.633
417.458
420.296
423.065
425.781
428.71
433.032
441.291
336.955
356.456
366.328
374.989
383.157
388.862
392.233
394.235
395.513
396.386
397.009
397.46
397.779
397.993
398.102
397.965
397.207
396.676
397.581
399.077
400.73
402.676
404.765
406.751
408.641
410.619
412.869
415.45
418.266
421.133
423.922
426.634
429.543
433.83
441.849
337.119
357.097
367.285
376.209
384.523
390.175
393.418
395.284
396.438
397.204
397.74
398.123
398.396
398.581
398.689
398.731
398.668
398.237
397.446
397.751
399.47
401.771
404.347
406.98
409.495
411.916
414.363
416.916
419.566
422.246
424.9
427.542
430.429
434.69
442.332
338.087
358.126
368.414
377.532
385.838
391.242
394.265
395.996
397.072
397.788
398.289
398.649
398.91
399.095
399.217
399.281
399.285
399.202
398.858
397.962
398.264
400.015
402.496
405.436
408.521
411.49
414.328
417.14
419.97
422.772
425.495
428.149
430.963
435.013
442.384
338.537
358.821
369.168
378.432
387.018
392.522
395.502
397.142
398.118
398.745
399.166
399.457
399.657
399.791
399.873
399.911
399.908
399.854
399.681
399.104
398.09
398.817
401.1
404.127
407.569
411.142
414.595
417.822
420.841
423.709
426.467
429.165
432.044
436.143
443.09
337.37
357.653
367.85
377.1
386.328
392.602
396.05
397.905
398.966
399.614
400.03
400.301
400.477
400.585
400.642
400.659
400.641
400.589
400.481
400.203
399.288
398.711
400.006
402.699
406.215
410.094
413.972
417.693
421.17
424.355
427.276
430.02
432.836
436.713
443.162
333.108
353.65
363.515
372.143
382.035
390.185
395.161
397.856
399.331
400.186
400.706
401.03
401.23
401.347
401.406
401.421
401.399
401.344
401.241
401.023
400.45
399.349
399.576
401.434
404.534
408.568
412.902
416.993
420.741
424.18
427.327
430.226
433.124
437.016
443.353
328.633
349.656
359.438
367.099
376.279
385.886
392.911
396.973
399.17
400.401
401.13
401.576
401.851
402.015
402.103
402.136
402.126
402.08
401.994
401.831
401.432
400.352
399.885
401.176
403.665
407.26
411.82
416.569
420.832
424.528
427.801
430.782
433.746
437.673
443.743
326.857
349.319
359.722
366.923
374.55
383.535
391.458
396.493
399.235
400.731
401.597
402.123
402.454
402.666
402.793
402.854
402.86
402.824
402.745
402.576
402.05
400.734
400.122
401.659
404.458
407.622
411.495
416.116
420.732
424.757
428.184
431.214
434.205
438.105
443.829
328.589
353.288
364.758
372.457
379.444
386.237
392.676
397.234
399.816
401.247
402.091
402.62
402.98
403.231
403.39
403.476
403.502
403.482
403.416
403.243
402.68
401.496
400.988
402.288
405.32
409.184
412.939
416.837
420.964
424.866
428.271
431.261
434.236
438.187
444.039
334.191
359.634
371.793
380.949
388.8
393.738
397.214
399.821
401.414
402.371
402.982
403.396
403.696
403.911
404.05
404.127
404.155
404.148
404.114
404.037
403.934
403.885
404.213
404.944
406.732
410.368
415.043
419.179
422.682
425.937
428.997
431.866
434.924
439.142
444.942
339.45
363.827
376.768
388.012
396.608
400.113
401.409
402.32
403.021
403.543
403.931
404.219
404.437
404.599
404.708
404.77
404.795
404.798
404.797
404.827
405.04
405.789
407.43
409.449
411.042
412.881
415.994
420.293
424.365
427.651
430.464
433.143
436.195
440.512
445.679
342.169
365.903
379.781
392.882
401.363
403.809
404.26
404.425
404.6
404.791
404.974
405.133
405.262
405.357
405.421
405.452
405.455
405.437
405.412
405.403
405.493
405.953
407.31
409.867
413.244
416.667
419.133
421.454
424.521
427.815
430.783
433.474
436.411
440.52
445.385
342.574
366.449
380.483
393.859
402.417
405.127
405.786
405.948
406.002
406.046
406.098
406.155
406.207
406.247
406.269
406.27
406.249
406.207
406.148
406.083
406.036
406.076
406.418
407.538
409.954
413.886
418.941
423.091
425.454
427.867
430.448
432.98
435.702
439.499
444.663
341.402
364.92
378.137
390.742
400.673
404.968
406.366
406.828
406.994
407.063
407.1
407.127
407.149
407.163
407.166
407.155
407.125
407.076
407.006
406.918
406.819
406.726
406.679
406.792
407.374
409.053
412.65
418.618
424.378
427.245
429.678
432.282
435.147
439.024
444.397
341.748
364.797
377.648
389.912
400.218
405.344
407.156
407.743
407.941
408.012
408.04
408.053
408.062
408.067
408.067
408.058
408.036
407.997
407.939
407.86
407.763
407.65
407.533
407.434
407.418
407.677
408.796
412.13
419.183
426.349
429.989
432.779
435.693
439.427
444.139
341.469
364.485
378.355
392.143
402.356
406.903
408.402
408.809
408.898
408.905
408.896
408.89
408.888
408.891
408.895
408.895
408.888
408.87
408.835
408.78
408.703
408.603
408.482
408.347
408.222
408.155
408.302
409.256
412.84
421.154
429.088
433.083
435.784
438.88
443.302
341.477
364.46
379.465
395.65
406.275
409.862
410.547
410.44
410.207
410.013
409.878
409.791
409.741
409.717
409.708
409.707
409.709
409.708
409.698
409.675
409.633
409.566
409.47
409.34
409.18
409.003
408.851
408.848
409.518
412.845
420.733
427.894
432.048
435.731
441.534
339.305
362.345
377.362
393.852
405.839
410.539
411.678
411.63
411.309
411.006
410.782
410.632
410.539
410.487
410.465
410.462
410.47
410.483
410.496
410.503
410.499
410.478
410.434
410.358
410.24
410.072
409.855
409.6
409.356
409.504
413.063
421.339
428.402
433.999
440.754
339.391
362.817
377.544
393.081
405.062
410.487
412.167
412.381
412.135
411.822
411.561
411.375
411.255
411.186
411.156
411.154
411.169
411.193
411.221
411.247
411.265
411.271
411.258
411.217
411.137
410.999
410.775
410.422
409.852
409.017
411.057
419.775
427.552
433.682
440.989
342.762
367.088
382.214
396.981
406.495
410.898
412.473
412.801
412.655
412.391
412.149
411.968
411.85
411.788
411.77
411.784
411.821
411.872
411.927
411.98
412.027
412.061
412.079
412.074
412.042
411.967
411.812
411.47
410.774
410.387
413.991
422.549
428.675
434.092
442.414
348.02
372.982
389.41
405.605
411.63
413.264
413.67
413.602
413.325
412.999
412.717
412.51
412.381
412.322
412.32
412.36
412.427
412.511
412.601
412.687
412.76
412.81
412.827
412.808
412.752
412.666
412.577
412.605
412.987
414.867
420.012
426.387
431.061
436.255
444.735
348.262
373.124
390.181
408.632
414.404
415.308
415.212
414.821
414.314
413.812
413.399
413.104
412.927
412.855
412.867
412.942
413.06
413.203
413.362
413.523
413.669
413.782
413.834
413.795
413.656
413.551
414
415.624
418.321
422.069
426.724
430.859
434.766
440.24
447.075
343.208
367.829
384.876
405.861
415.09
416.804
416.736
416.229
415.553
414.849
414.24
413.791
413.51
413.386
413.392
413.493
413.661
413.881
414.141
414.428
414.742
415.079
415.371
415.383
414.98
414.863
416.141
419.213
423.217
427.161
430.662
433.808
437.561
443.182
448.24
337.74
362.686
378.496
397.768
413.016
417.188
417.585
417.126
416.418
415.635
414.919
414.369
414.014
413.845
413.844
413.975
414.206
414.529
414.938
415.459
416.179
417.204
418.457
419.293
419.144
419.076
420.411
423.248
426.739
429.979
432.837
435.711
439.461
444.913
448.605
334.768
360.106
373.826
388.206
408.225
416.494
417.905
417.634
417.019
416.311
415.611
415.004
414.548
414.265
414.164
414.231
414.44
414.777
415.257
415.939
416.956
418.515
420.731
423.123
424.687
425.48
426.583
428.391
430.65
432.993
435.336
437.876
441.15
445.685
448.277
332.569
359.155
371.937
383.092
402.411
415.502
418.647
418.524
417.823
417.042
416.3
415.67
415.186
414.846
414.647
414.597
414.695
414.936
415.332
415.931