/*--------------------------------*- C++ -*----------------------------------*\
| =========                 |                                                 |
| \\      /  F ield         | OpenFOAM: The Open Source CFD Toolbox           |
|  \\    /   O peration     | Version:  v2006                                 |
|   \\  /    A nd           | Website:  www.openfoam.com                      |
|    \\/     M anipulation  |                                                 |
\*---------------------------------------------------------------------------*/
FoamFile
{
    version     2.0;
    format      ascii;
    class       volScalarField;
    location    "68";
    object      alphat;
}
// * * * * * * * * * * * * * * * * * * * * * * * * * * * * * * * * * * * * * //

dimensions      [1 -1 -1 0 0 0 0];


internalField   nonuniform List<scalar> 
78750
(
3.13325e-09
5.56786e-07
1.01016e-06
1.43611e-06
1.83467e-06
2.20582e-06
2.54723e-06
2.85581e-06
3.12938e-06
3.36709e-06
3.56916e-06
3.73634e-06
3.86947e-06
3.96991e-06
4.03888e-06
4.07756e-06
4.08705e-06
4.06842e-06
4.02272e-06
3.95108e-06
3.8547e-06
3.73494e-06
3.59427e-06
3.43054e-06
3.24616e-06
3.04217e-06
2.8193e-06
2.57773e-06
2.3167e-06
2.03422e-06
1.72565e-06
1.38359e-06
1.00496e-06
6.07935e-07
9.23296e-09
3.55676e-09
3.52615e-06
6.43722e-06
8.58251e-06
1.06181e-05
1.28062e-05
1.50895e-05
1.73185e-05
1.93766e-05
2.12121e-05
2.28349e-05
2.40544e-05
2.45409e-05
2.48293e-05
2.49328e-05
2.48638e-05
2.46339e-05
2.42537e-05
2.37334e-05
2.30832e-05
2.23132e-05
2.14336e-05
2.0454e-05
1.93766e-05
1.82142e-05
1.69754e-05
1.56705e-05
1.39336e-05
1.16057e-05
9.10699e-06
6.46964e-06
4.31464e-06
3.36951e-06
2.04491e-06
2.77478e-08
5.1943e-09
2.34703e-06
4.68935e-06
7.07057e-06
9.6967e-06
1.26846e-05
1.59286e-05
1.91629e-05
2.21308e-05
2.46426e-05
2.56894e-05
2.62255e-05
2.65454e-05
2.66683e-05
2.66113e-05
2.63911e-05
2.6025e-05
2.49179e-05
2.32817e-05
2.16485e-05
2.01505e-05
1.88461e-05
1.77379e-05
1.68203e-05
1.60576e-05
1.5337e-05
1.44796e-05
1.32587e-05
1.14477e-05
8.99786e-06
6.44005e-06
4.82013e-06
5.06795e-06
2.09384e-06
4.3396e-08
9.46478e-09
2.17817e-06
4.73276e-06
8.04069e-06
1.22474e-05
1.70952e-05
2.18107e-05
2.56836e-05
2.84955e-05
2.972e-05
3.01953e-05
3.04101e-05
3.03933e-05
2.95844e-05
2.79631e-05
2.60848e-05
2.41419e-05
2.22455e-05
2.0451e-05
1.87924e-05
1.73e-05
1.60157e-05
1.49823e-05
1.4216e-05
1.36896e-05
1.33016e-05
1.28362e-05
1.19671e-05
1.04025e-05
8.22466e-06
6.15532e-06
5.2167e-06
6.62104e-06
2.01046e-06
5.72937e-08
1.36025e-08
2.2005e-06
5.06053e-06
9.31642e-06
1.52225e-05
2.18254e-05
2.73983e-05
3.02116e-05
3.11262e-05
3.17023e-05
3.19804e-05
3.19936e-05
3.04556e-05
2.81078e-05
2.56754e-05
2.33749e-05
2.12971e-05
1.94559e-05
1.78229e-05
1.63619e-05
1.5055e-05
1.39184e-05
1.29957e-05
1.232e-05
1.18829e-05
1.15984e-05
1.12542e-05
1.05254e-05
9.17827e-06
7.41966e-06
5.95853e-06
5.73743e-06
7.78395e-06
1.9466e-06
6.80038e-08
1.86417e-08
2.21081e-06
5.26558e-06
1.02171e-05
1.74335e-05
2.51644e-05
3.08896e-05
3.3029e-05
3.38703e-05
3.43568e-05
3.3383e-05
3.09978e-05
2.82455e-05
2.55154e-05
2.30302e-05
2.08792e-05
1.90545e-05
1.7498e-05
1.61386e-05
1.49167e-05
1.38023e-05
1.28037e-05
1.19524e-05
1.12732e-05
1.07649e-05
1.03665e-05
9.91513e-06
9.16755e-06
7.98981e-06
6.62275e-06
5.67381e-06
6.04574e-06
8.25418e-06
1.93956e-06
7.6912e-08
2.27801e-08
2.26759e-06
5.5299e-06
1.10822e-05
1.93429e-05
2.7795e-05
3.34507e-05
3.49239e-05
3.56916e-05
3.52444e-05
3.2733e-05
2.95841e-05
2.6371e-05
2.34492e-05
2.09712e-05
1.8937e-05
1.72745e-05
1.58965e-05
1.47226e-05
1.36908e-05
1.27711e-05
1.19666e-05
1.12779e-05
1.06897e-05
1.01765e-05
9.68014e-06
9.08385e-06
8.25098e-06
7.17112e-06
6.10404e-06
5.56228e-06
6.44619e-06
8.23923e-06
1.9265e-06
8.50306e-08
2.71567e-08
2.30227e-06
5.65896e-06
1.15305e-05
2.04091e-05
2.92654e-05
3.47837e-05
3.70355e-05
3.68701e-05
3.49105e-05
3.18556e-05
2.83813e-05
2.5026e-05
2.20935e-05
1.96687e-05
1.77088e-05
1.6126e-05
1.48293e-05
1.37413e-05
1.28073e-05
1.20024e-05
1.13248e-05
1.07486e-05
1.02238e-05
9.69799e-06
9.11087e-06
8.39065e-06
7.49405e-06
6.49751e-06
5.65577e-06
5.41242e-06
6.67967e-06
8.07993e-06
1.92716e-06
9.27508e-08
3.05484e-08
2.33516e-06
5.76573e-06
1.1864e-05
2.11655e-05
3.02713e-05
3.56507e-05
3.75544e-05
3.69066e-05
3.4472e-05
3.10363e-05
2.73417e-05
2.39172e-05
2.10065e-05
1.86376e-05
1.6738e-05
1.52115e-05
1.39706e-05
1.29446e-05
1.20893e-05
1.13942e-05
1.0856e-05
1.04161e-05
9.98578e-06
9.4783e-06
8.82575e-06
7.99786e-06
7.03517e-06
6.0829e-06
5.39235e-06
5.36957e-06
6.95158e-06
7.80486e-06
1.92411e-06
1.00466e-07
3.44658e-08
2.36257e-06
5.83486e-06
1.20809e-05
2.16674e-05
3.09005e-05
3.61296e-05
3.77596e-05
3.68057e-05
3.40991e-05
3.04774e-05
2.66944e-05
2.32507e-05
2.03507e-05
1.79961e-05
1.61036e-05
1.45766e-05
1.33329e-05
1.23115e-05
1.14788e-05
1.08357e-05
1.03803e-05
1.00365e-05
9.68867e-06
9.21911e-06
8.54535e-06
7.66329e-06
6.67324e-06
5.76543e-06
5.18779e-06
5.32843e-06
7.15007e-06
7.54817e-06
1.92415e-06
1.08104e-07
3.77617e-08
2.38521e-06
5.88896e-06
1.22374e-05
2.20187e-05
3.13444e-05
3.6464e-05
3.78695e-05
3.66473e-05
3.37027e-05
2.99318e-05
2.60974e-05
2.26662e-05
1.98011e-05
1.74779e-05
1.56035e-05
1.40814e-05
1.28339e-05
1.18074e-05
1.09828e-05
1.03774e-05
9.98965e-06
9.72806e-06
9.45663e-06
9.03186e-06
8.35714e-06
7.44613e-06
6.4433e-06
5.57137e-06
5.07814e-06
5.34963e-06
7.37661e-06
7.28283e-06
1.9231e-06
1.15571e-07
4.16301e-08
2.40813e-06
5.94201e-06
1.23982e-05
2.23672e-05
3.1723e-05
3.66852e-05
3.78826e-05
3.64638e-05
3.33761e-05
2.95351e-05
2.56904e-05
2.22776e-05
1.94338e-05
1.71215e-05
1.52446e-05
1.37087e-05
1.24408e-05
1.13933e-05
1.05549e-05
9.95479e-06
9.59694e-06
9.38387e-06
9.16896e-06
8.79172e-06
8.14228e-06
7.24078e-06
6.25512e-06
5.42655e-06
5.00571e-06
5.38626e-06
7.5856e-06
7.0499e-06
1.92343e-06
1.2275e-07
4.51892e-08
2.42959e-06
5.99271e-06
1.25399e-05
2.26555e-05
3.20335e-05
3.68694e-05
3.78831e-05
3.62791e-05
3.30557e-05
2.91554e-05
2.53151e-05
2.19366e-05
1.9128e-05
1.68373e-05
1.49652e-05
1.34196e-05
1.21318e-05
1.10612e-05
1.02052e-05
9.60428e-06
9.26406e-06
9.08378e-06
8.91064e-06
8.57347e-06
7.95429e-06
7.07689e-06
6.12182e-06
5.33937e-06
4.98382e-06
5.464e-06
7.82082e-06
6.8337e-06
1.92431e-06
1.29564e-07
4.91627e-08
2.45192e-06
6.04745e-06
1.27011e-05
2.29779e-05
3.23436e-05
3.70163e-05
3.78475e-05
3.60927e-05
3.27815e-05
2.88607e-05
2.50436e-05
2.17012e-05
1.89209e-05
1.66428e-05
1.47674e-05
1.32052e-05
1.18918e-05
1.07912e-05
9.90761e-06
9.28993e-06
8.94859e-06
8.78065e-06
8.63244e-06
8.32946e-06
7.74878e-06
6.91304e-06
6.0049e-06
5.27596e-06
4.98434e-06
5.55836e-06
8.05697e-06
6.64874e-06
1.92678e-06
1.3598e-07
5.29943e-08
2.47433e-06
6.10414e-06
1.28592e-05
2.3277e-05
3.26257e-05
3.71534e-05
3.78184e-05
3.59238e-05
3.25337e-05
2.86015e-05
2.48162e-05
2.15173e-05
1.87711e-05
1.65096e-05
1.46329e-05
1.30546e-05
1.17147e-05
1.0582e-05
9.66765e-06
9.02832e-06
8.67871e-06
8.51413e-06
8.38014e-06
8.10211e-06
7.5576e-06
6.76837e-06
5.91386e-06
5.24184e-06
5.0139e-06
5.68092e-06
8.31108e-06
6.4873e-06
1.93071e-06
1.42014e-07
5.70794e-08
2.49739e-06
6.16399e-06
1.30309e-05
2.35999e-05
3.29132e-05
3.72792e-05
3.77835e-05
3.57722e-05
3.23316e-05
2.84088e-05
2.46641e-05
2.14086e-05
1.86926e-05
1.64434e-05
1.45615e-05
1.29637e-05
1.15934e-05
1.0424e-05
9.47167e-06
8.79929e-06
8.42886e-06
8.25583e-06
8.12697e-06
7.86957e-06
7.36227e-06
6.62504e-06
5.83066e-06
5.2198e-06
5.05718e-06
5.81742e-06
8.56792e-06
6.353e-06
1.93638e-06
1.47676e-07
6.10966e-08
2.52076e-06
6.22593e-06
1.32036e-05
2.39127e-05
3.31872e-05
3.74045e-05
3.77629e-05
3.56483e-05
3.21682e-05
2.82625e-05
2.4563e-05
2.13536e-05
1.86696e-05
1.64336e-05
1.45468e-05
1.29285e-05
1.15256e-05
1.03168e-05
9.32227e-06
8.6106e-06
8.21202e-06
8.02271e-06
7.89168e-06
7.65004e-06
7.17896e-06
6.49547e-06
5.7632e-06
5.21462e-06
5.11812e-06
5.97289e-06
8.83285e-06
6.24185e-06
1.94382e-06
1.53023e-07
6.52648e-08
2.54466e-06
6.29055e-06
1.33864e-05
2.4242e-05
3.34676e-05
3.75314e-05
3.77524e-05
3.55513e-05
3.20488e-05
2.81707e-05
2.45199e-05
2.1356e-05
1.87025e-05
1.64785e-05
1.45858e-05
1.29453e-05
1.15078e-05
1.02557e-05
9.21316e-06
8.45296e-06
8.01649e-06
7.80203e-06
7.66174e-06
7.43166e-06
6.99603e-06
6.36797e-06
5.70024e-06
5.21596e-06
5.18731e-06
6.13816e-06
9.09682e-06
6.15322e-06
1.95296e-06
1.58076e-07
6.93985e-08
2.56871e-06
6.35664e-06
1.35712e-05
2.45672e-05
3.37426e-05
3.76642e-05
3.77618e-05
3.54873e-05
3.19715e-05
2.81254e-05
2.45246e-05
2.14066e-05
1.8784e-05
1.65728e-05
1.46747e-05
1.30119e-05
1.15381e-05
1.02394e-05
9.14418e-06
8.3285e-06
7.84654e-06
7.59996e-06
7.4448e-06
7.22281e-06
6.8214e-06
6.24888e-06
5.64612e-06
5.22671e-06
5.26704e-06
6.3157e-06
9.36199e-06
6.08391e-06
1.96373e-06
1.62886e-07
7.36271e-08
2.59318e-06
6.42532e-06
1.37655e-05
2.49075e-05
3.40266e-05
3.78059e-05
3.77879e-05
3.5451e-05
3.19311e-05
2.81218e-05
2.45722e-05
2.15005e-05
1.89097e-05
1.67128e-05
1.48107e-05
1.31266e-05
1.1616e-05
1.02679e-05
9.1145e-06
8.23531e-06
7.69883e-06
7.41201e-06
7.2355e-06
7.01737e-06
6.64822e-06
6.13089e-06
5.59349e-06
5.23982e-06
5.35062e-06
6.49881e-06
9.6229e-06
6.03179e-06
1.9759e-06
1.67461e-07
7.78364e-08
2.61752e-06
6.4949e-06
1.39629e-05
2.52494e-05
3.43129e-05
3.79597e-05
3.78379e-05
3.54479e-05
3.19287e-05
2.81569e-05
2.4658e-05
2.16324e-05
1.90746e-05
1.68941e-05
1.49903e-05
1.32863e-05
1.17386e-05
1.03387e-05
9.12251e-06
8.17345e-06
7.57467e-06
7.24063e-06
7.03728e-06
6.81939e-06
6.48063e-06
6.01767e-06
5.54537e-06
5.25776e-06
5.44033e-06
6.69014e-06
9.88248e-06
5.99465e-06
1.98939e-06
1.71836e-07
8.21071e-08
2.642e-06
6.56657e-06
1.41697e-05
2.56079e-05
3.46132e-05
3.8129e-05
3.7908e-05
3.54697e-05
3.19538e-05
2.82207e-05
2.47734e-05
2.1796e-05
1.92744e-05
1.71141e-05
1.52128e-05
1.34922e-05
1.19086e-05
1.04554e-05
9.17226e-06
8.14655e-06
7.4763e-06
7.08663e-06
6.84944e-06
6.62653e-06
6.31469e-06
5.90408e-06
5.49603e-06
5.27462e-06
5.52998e-06
6.8823e-06
1.01332e-05
5.96881e-06
2.00371e-06
1.7601e-07
8.63616e-08
2.66595e-06
6.63829e-06
1.438e-05
2.59742e-05
3.49272e-05
3.83207e-05
3.80051e-05
3.55194e-05
3.20057e-05
2.83098e-05
2.49138e-05
2.19858e-05
1.95032e-05
1.73671e-05
1.54724e-05
1.37388e-05
1.21215e-05
1.06147e-05
9.26165e-06
8.15432e-06
7.40473e-06
6.95207e-06
6.67494e-06
6.44234e-06
6.15408e-06
5.79364e-06
5.44869e-06
5.29342e-06
5.62278e-06
7.08046e-06
1.03858e-05
5.95407e-06
2.01895e-06
1.8001e-07
9.06526e-08
2.68962e-06
6.71067e-06
1.45965e-05
2.63542e-05
3.52547e-05
3.85267e-05
3.81205e-05
3.5585e-05
3.20722e-05
2.84147e-05
2.50726e-05
2.21979e-05
1.97591e-05
1.76528e-05
1.57708e-05
1.40295e-05
1.23818e-05
1.08222e-05
9.39677e-06
8.20274e-06
7.36458e-06
6.84005e-06
6.51519e-06
6.26644e-06
5.99668e-06
5.68281e-06
5.39889e-06
5.30927e-06
5.71384e-06
7.27994e-06
1.06367e-05
5.95174e-06
2.03502e-06
1.83839e-07
9.49209e-08
2.71253e-06
6.78194e-06
1.48119e-05
2.67282e-05
3.55615e-05
3.87155e-05
3.8229e-05
3.56552e-05
3.21484e-05
2.85312e-05
2.52445e-05
2.24251e-05
2.00336e-05
1.79623e-05
1.60989e-05
1.43559e-05
1.26827e-05
1.10725e-05
9.57416e-06
8.29017e-06
7.35602e-06
6.75244e-06
6.37326e-06
6.10248e-06
5.84624e-06
5.57511e-06
5.34988e-06
5.32501e-06
5.80519e-06
7.48133e-06
1.08859e-05
5.95993e-06
2.05218e-06
1.87519e-07
9.92092e-08
2.73522e-06
6.85349e-06
1.50288e-05
2.70979e-05
3.58595e-05
3.88961e-05
3.83328e-05
3.57327e-05
3.22334e-05
2.86565e-05
2.54272e-05
2.26669e-05
2.03277e-05
1.82974e-05
1.64596e-05
1.47218e-05
1.30288e-05
1.1371e-05
9.79918e-06
8.42129e-06
7.38307e-06
6.69224e-06
6.25096e-06
5.95093e-06
5.70175e-06
5.46822e-06
5.29837e-06
5.33707e-06
5.8946e-06
7.6868e-06
1.11323e-05
5.97708e-06
2.07029e-06
1.9106e-07
1.03471e-07
2.75727e-06
6.92501e-06
1.52479e-05
2.7458e-05
3.61409e-05
3.90604e-05
3.84211e-05
3.57965e-05
3.2311e-05
2.87796e-05
2.56111e-05
2.2913e-05
2.06303e-05
1.86466e-05
1.68414e-05
1.51167e-05
1.3411e-05
1.17109e-05
1.00674e-05
8.59381e-06
7.4461e-06
6.66168e-06
6.15171e-06
5.81575e-06
5.56722e-06
5.36594e-06
5.24795e-06
5.34904e-06
5.98542e-06
7.8975e-06
1.13788e-05
6.00187e-06
2.0893e-06
1.94476e-07
1.07736e-07
2.77858e-06
6.99577e-06
1.5469e-05
2.78104e-05
3.64088e-05
3.92111e-05
3.84984e-05
3.58543e-05
3.23936e-05
2.89085e-05
2.58004e-05
2.31667e-05
2.09449e-05
1.90135e-05
1.72478e-05
1.55438e-05
1.3833e-05
1.20961e-05
1.0383e-05
8.81171e-06
7.5486e-06
6.66344e-06
6.07749e-06
5.69806e-06
5.44262e-06
5.26692e-06
5.19609e-06
5.3573e-06
6.07272e-06
8.10656e-06
1.16216e-05
6.03303e-06
2.10895e-06
1.97778e-07
1.11956e-07
2.79867e-06
7.06351e-06
1.56837e-05
2.81499e-05
3.66578e-05
3.93421e-05
3.85559e-05
3.58921e-05
3.24589e-05
2.90228e-05
2.59789e-05
2.34145e-05
2.12586e-05
1.93856e-05
1.76664e-05
1.59914e-05
1.42843e-05
1.25183e-05
1.07403e-05
9.07215e-06
7.6908e-06
6.6997e-06
6.03159e-06
5.6017e-06
5.33206e-06
5.17528e-06
5.14678e-06
5.36567e-06
6.16003e-06
8.31713e-06
1.18625e-05
6.06942e-06
2.12917e-06
2.00977e-07
1.16178e-07
2.81854e-06
7.13122e-06
1.58989e-05
2.84836e-05
3.68941e-05
3.94591e-05
3.85999e-05
3.59183e-05
3.25154e-05
2.9132e-05
2.61561e-05
2.36643e-05
2.1578e-05
1.97678e-05
1.8101e-05
1.64621e-05
1.47667e-05
1.29791e-05
1.11414e-05
9.37763e-06
7.87553e-06
6.77308e-06
6.0162e-06
5.52823e-06
5.23613e-06
5.09049e-06
5.09826e-06
5.37122e-06
6.24316e-06
8.5237e-06
1.20991e-05
6.11046e-06
2.14981e-06
2.04086e-07
1.20348e-07
2.83718e-06
7.19613e-06
1.61086e-05
2.88035e-05
3.71099e-05
3.95535e-05
3.862e-05
3.59203e-05
3.25489e-05
2.92217e-05
2.63174e-05
2.39018e-05
2.18894e-05
2.01473e-05
1.85393e-05
1.69443e-05
1.52695e-05
1.34692e-05
1.15791e-05
9.72399e-06
8.10203e-06
6.88486e-06
6.03388e-06
5.48105e-06
5.15873e-06
5.0166e-06
5.05455e-06
5.37769e-06
6.32548e-06
8.72974e-06
1.23329e-05
6.15511e-06
2.1708e-06
2.07117e-07
1.24524e-07
2.85585e-06
7.26151e-06
1.63192e-05
2.91175e-05
3.73121e-05
3.96319e-05
3.86236e-05
3.59066e-05
3.25693e-05
2.93027e-05
2.64728e-05
2.41355e-05
2.21997e-05
2.05294e-05
1.89851e-05
1.74402e-05
1.57933e-05
1.39884e-05
1.20532e-05
1.01117e-05
8.37174e-06
7.03657e-06
6.08612e-06
5.46147e-06
5.10074e-06
4.95376e-06
5.01476e-06
5.38328e-06
6.40499e-06
8.93089e-06
1.25627e-05
6.20322e-06
2.19207e-06
2.10082e-07
1.28653e-07
2.87364e-06
7.32492e-06
1.65249e-05
2.94169e-05
3.7492e-05
3.96846e-05
3.85988e-05
3.58633e-05
3.25611e-05
2.93628e-05
2.66088e-05
2.43515e-05
2.2496e-05
2.09025e-05
1.94276e-05
1.79395e-05
1.63282e-05
1.45273e-05
1.25553e-05
1.05345e-05
8.68157e-06
7.22748e-06
6.17404e-06
5.47192e-06
5.06542e-06
4.90564e-06
4.98283e-06
5.39239e-06
6.48669e-06
9.13126e-06
1.27897e-05
6.25371e-06
2.21349e-06
2.12988e-07
1.32796e-07
2.89179e-06
7.38963e-06
1.67313e-05
2.97085e-05
3.7656e-05
3.97186e-05
3.85545e-05
3.58009e-05
3.25344e-05
2.94047e-05
2.67297e-05
2.45564e-05
2.27852e-05
2.12722e-05
1.98709e-05
1.84442e-05
1.68745e-05
1.50844e-05
1.30832e-05
1.099e-05
9.02951e-06
7.45626e-06
6.29714e-06
5.51257e-06
5.05328e-06
4.87274e-06
4.95884e-06
5.40422e-06
6.56801e-06
9.32872e-06
1.3014e-05
6.30671e-06
2.23502e-06
2.15843e-07
1.36879e-07
2.90935e-06
7.45372e-06
1.69315e-05
2.99832e-05
3.77957e-05
3.97241e-05
3.84792e-05
3.57084e-05
3.24797e-05
2.94212e-05
2.68283e-05
2.47424e-05
2.30588e-05
2.16302e-05
2.03066e-05
1.89464e-05
1.7424e-05
1.56514e-05
1.36282e-05
1.14699e-05
9.40851e-06
7.71858e-06
6.45357e-06
5.58374e-06
5.06635e-06
4.85816e-06
4.94635e-06
5.42222e-06
6.65217e-06
9.52697e-06
1.32366e-05
6.36121e-06
2.25653e-06
2.18645e-07
1.40947e-07
2.92647e-06
7.51754e-06
1.71294e-05
3.02508e-05
3.792e-05
3.97107e-05
3.83835e-05
3.55923e-05
3.23999e-05
2.94147e-05
2.69089e-05
2.49145e-05
2.33215e-05
2.19802e-05
2.07377e-05
1.94475e-05
1.79765e-05
1.62265e-05
1.4187e-05
1.19699e-05
9.81345e-06
8.01002e-06
6.64009e-06
5.68346e-06
5.10383e-06
4.86187e-06
4.94547e-06
5.4461e-06
6.73812e-06
9.72444e-06
1.34572e-05
6.41718e-06
2.27798e-06
2.21394e-07
1.4497e-07
2.94213e-06
7.57867e-06
1.73247e-05
3.05053e-05
3.80224e-05
3.9672e-05
3.82612e-05
3.54518e-05
3.2298e-05
2.93852e-05
2.6963e-05
2.50608e-05
2.35636e-05
2.23146e-05
2.11572e-05
1.99411e-05
1.85259e-05
1.68032e-05
1.47528e-05
1.24826e-05
1.02369e-05
8.3248e-06
6.85278e-06
5.80982e-06
5.16585e-06
4.88571e-06
4.95919e-06
5.47944e-06
6.82985e-06
9.92543e-06
1.3677e-05
6.4738e-06
2.29926e-06
2.24078e-07
1.49e-07
2.95781e-06
7.64004e-06
1.75194e-05
3.07503e-05
3.81076e-05
3.9613e-05
3.81165e-05
3.52873e-05
3.21717e-05
2.93343e-05
2.70018e-05
2.5194e-05
2.37915e-05
2.26367e-05
2.15676e-05
2.04281e-05
1.90717e-05
1.73801e-05
1.53233e-05
1.30049e-05
1.06753e-05
8.65905e-06
7.08793e-06
5.95974e-06
5.25019e-06
4.9284e-06
4.98692e-06
5.52195e-06
6.92698e-06
1.01293e-05
1.38959e-05
6.53114e-06
2.32034e-06
2.26694e-07
1.5297e-07
2.97204e-06
7.69825e-06
1.77083e-05
3.09792e-05
3.81694e-05
3.95279e-05
3.79449e-05
3.50967e-05
3.20201e-05
2.9258e-05
2.70161e-05
2.53056e-05
2.40008e-05
2.29397e-05
2.19617e-05
2.09034e-05
1.96091e-05
1.79519e-05
1.58924e-05
1.35304e-05
1.11224e-05
9.00787e-06
7.34189e-06
6.13093e-06
5.35618e-06
4.99082e-06
5.03072e-06
5.57647e-06
7.03305e-06
1.03399e-05
1.41143e-05
6.5884e-06
2.34113e-06
2.29223e-07
1.56949e-07
2.98621e-06
7.75674e-06
1.78973e-05
3.1199e-05
3.8215e-05
3.94238e-05
3.77526e-05
3.48845e-05
3.1847e-05
2.91611e-05
2.70115e-05
2.54003e-05
2.41958e-05
2.32316e-05
2.23427e-05
2.13665e-05
2.01376e-05
1.85175e-05
1.64585e-05
1.40571e-05
1.15757e-05
9.36818e-06
7.61127e-06
6.32e-06
5.48093e-06
5.07111e-06
5.08988e-06
5.64302e-06
7.14827e-06
1.05574e-05
1.43325e-05
6.64569e-06
2.36159e-06
2.31658e-07
1.60858e-07
2.99914e-06
7.81218e-06
1.80793e-05
3.14009e-05
3.82371e-05
3.92943e-05
3.7534e-05
3.46462e-05
3.16485e-05
2.90396e-05
2.69836e-05
2.5473e-05
2.43701e-05
2.3505e-05
2.27091e-05
2.18141e-05
2.06521e-05
1.9072e-05
1.70163e-05
1.45795e-05
1.20303e-05
9.73655e-06
7.89363e-06
6.52507e-06
5.62308e-06
5.16876e-06
5.16513e-06
5.72377e-06
7.27611e-06
1.07859e-05
1.45514e-05
6.70274e-06
2.3817e-06
2.33982e-07
1.64751e-07
3.01183e-06
7.86732e-06
1.82603e-05
3.15937e-05
3.82444e-05
3.91474e-05
3.72964e-05
3.43886e-05
3.14308e-05
2.88992e-05
2.69378e-05
2.55286e-05
2.45282e-05
2.3763e-05
2.3061e-05
2.22492e-05
2.11517e-05
1.96129e-05
1.7564e-05
1.50959e-05
1.24845e-05
1.0111e-05
8.18704e-06
6.74423e-06
5.78059e-06
5.28164e-06
5.25451e-06
5.81715e-06
7.41545e-06
1.10243e-05
1.477e-05
6.75956e-06
2.40145e-06
2.3619e-07
1.68557e-07
3.02339e-06
7.91951e-06
1.84341e-05
3.1769e-05
3.82296e-05
3.89765e-05
3.7034e-05
3.41063e-05
3.1189e-05
2.87355e-05
2.68698e-05
2.55631e-05
2.46659e-05
2.40013e-05
2.33942e-05
2.26668e-05
2.16361e-05
2.01371e-05
1.80963e-05
1.56011e-05
1.2934e-05
1.04888e-05
8.49009e-06
6.97719e-06
5.95397e-06
5.41068e-06
5.35923e-06
5.92478e-06
7.5686e-06
1.12754e-05
1.49886e-05
6.81598e-06
2.42084e-06
2.38266e-07
1.72317e-07
3.03462e-06
7.97105e-06
1.86061e-05
3.19347e-05
3.82009e-05
3.87898e-05
3.67547e-05
3.38072e-05
3.09309e-05
2.85556e-05
2.67859e-05
2.55816e-05
2.47873e-05
2.42227e-05
2.37099e-05
2.30665e-05
2.21025e-05
2.06444e-05
1.86121e-05
1.60931e-05
1.33762e-05
1.08671e-05
8.79997e-06
7.22159e-06
6.14145e-06
5.55463e-06
5.47825e-06
6.04563e-06
7.73455e-06
1.15382e-05
1.52073e-05
6.87235e-06
2.43992e-06
2.40218e-07
1.75976e-07
3.04486e-06
8.01992e-06
1.87713e-05
3.20841e-05
3.8152e-05
3.85812e-05
3.64526e-05
3.34858e-05
3.06514e-05
2.83552e-05
2.66824e-05
2.5581e-05
2.48897e-05
2.44251e-05
2.40061e-05
2.3446e-05
2.25481e-05
2.11309e-05
1.91084e-05
1.65688e-05
1.38084e-05
1.12437e-05
9.11513e-06
7.47634e-06
6.34259e-06
5.7139e-06
5.61286e-06
6.18169e-06
7.91547e-06
1.18144e-05
1.5427e-05
6.92899e-06
2.45874e-06
2.42054e-07
1.79567e-07
3.05474e-06
8.06793e-06
1.89341e-05
3.22238e-05
3.80901e-05
3.83579e-05
3.61354e-05
3.31501e-05
3.03585e-05
2.81416e-05
2.65656e-05
2.55666e-05
2.49771e-05
2.46109e-05
2.42841e-05
2.38054e-05
2.29719e-05
2.15944e-05
1.95823e-05
1.70252e-05
1.42284e-05
1.16164e-05
9.43311e-06
7.73905e-06
6.55521e-06
5.88657e-06
5.76144e-06
6.33155e-06
8.11041e-06
1.21029e-05
1.56479e-05
6.98647e-06
2.47744e-06
2.43796e-07
1.83043e-07
3.06371e-06
8.11339e-06
1.90904e-05
3.23482e-05
3.80097e-05
3.81143e-05
3.57976e-05
3.27951e-05
3.00478e-05
2.79113e-05
2.6433e-05
2.55365e-05
2.50485e-05
2.478e-05
2.45442e-05
2.41454e-05
2.33742e-05
2.20351e-05
2.00333e-05
1.74608e-05
1.46317e-05
1.19814e-05
9.75129e-06
8.00788e-06
6.77805e-06
6.07199e-06
5.92412e-06
6.49639e-06
8.32035e-06
1.24045e-05
1.58704e-05
7.04501e-06
2.49607e-06
2.45454e-07
1.86435e-07
3.07231e-06
8.15789e-06
1.9244e-05
3.24632e-05
3.79167e-05
3.78569e-05
3.54462e-05
3.24281e-05
2.97266e-05
2.76709e-05
2.62902e-05
2.54952e-05
2.51071e-05
2.49343e-05
2.47871e-05
2.44655e-05
2.37541e-05
2.24513e-05
2.04595e-05
1.78746e-05
1.50195e-05
1.23382e-05
1.00678e-05
8.28041e-06
7.00878e-06
6.26837e-06
6.10004e-06
6.67647e-06
8.54509e-06
1.27183e-05
1.60943e-05
7.1045e-06
2.51452e-06
2.47039e-07
1.89705e-07
3.08007e-06
8.2e-06
1.93915e-05
3.25637e-05
3.78063e-05
3.75804e-05
3.50762e-05
3.20447e-05
2.93912e-05
2.74178e-05
2.61355e-05
2.5442e-05
2.51531e-05
2.50748e-05
2.50143e-05
2.47675e-05
2.41133e-05
2.28444e-05
2.0862e-05
1.82667e-05
1.5391e-05
1.26858e-05
1.03814e-05
8.55529e-06
7.24613e-06
6.47473e-06
6.28855e-06
6.87119e-06
8.78538e-06
1.30453e-05
1.63202e-05
7.16546e-06
2.53327e-06
2.48571e-07
1.92884e-07
3.08747e-06
8.24119e-06
1.95364e-05
3.26548e-05
3.76833e-05
3.72902e-05
3.46934e-05
3.16511e-05
2.90477e-05
2.71574e-05
2.59733e-05
2.53803e-05
2.5189e-05
2.52028e-05
2.52265e-05
2.50515e-05
2.44513e-05
2.32141e-05
2.12405e-05
1.86372e-05
1.57461e-05
1.30238e-05
1.06911e-05
8.83098e-06
7.48816e-06
6.68898e-06
6.48758e-06
7.0786e-06
9.03977e-06
1.3384e-05
1.65478e-05
7.22803e-06
2.55231e-06
2.50061e-07
1.95941e-07
3.09413e-06
8.28021e-06
1.96755e-05
3.27323e-05
3.75436e-05
3.69819e-05
3.42938e-05
3.12438e-05
2.86934e-05
2.68877e-05
2.58027e-05
2.53101e-05
2.52154e-05
2.53199e-05
2.54256e-05
2.53197e-05
2.47705e-05
2.35625e-05
2.15971e-05
1.89878e-05
1.60862e-05
1.33529e-05
1.0997e-05
9.10697e-06
7.73416e-06
6.91036e-06
6.6965e-06
7.29835e-06
9.30831e-06
1.37345e-05
1.67773e-05
7.29241e-06
2.57156e-06
2.51523e-07
1.98902e-07
3.1004e-06
8.31821e-06
1.98119e-05
3.27999e-05
3.73909e-05
3.66597e-05
3.38821e-05
3.08278e-05
2.8333e-05
2.6613e-05
2.5627e-05
2.52337e-05
2.52339e-05
2.54267e-05
2.56117e-05
2.55717e-05
2.50705e-05
2.38894e-05
2.1932e-05
1.93197e-05
1.64131e-05
1.36742e-05
1.12995e-05
9.3832e-06
7.98314e-06
7.1372e-06
6.91324e-06
7.52829e-06
9.58893e-06
1.40946e-05
1.7008e-05
7.35848e-06
2.59102e-06
2.52965e-07
2.01744e-07
3.10598e-06
8.35421e-06
1.99429e-05
3.28544e-05
3.7222e-05
3.63202e-05
3.34553e-05
3.04008e-05
2.79648e-05
2.63323e-05
2.5446e-05
2.51517e-05
2.52457e-05
2.55251e-05
2.57868e-05
2.58098e-05
2.53532e-05
2.41966e-05
2.22471e-05
1.96347e-05
1.67288e-05
1.39889e-05
1.15993e-05
9.65983e-06
8.23509e-06
7.36957e-06
7.13786e-06
7.76842e-06
9.88159e-06
1.44642e-05
1.72397e-05
7.4261e-06
2.61066e-06
2.54393e-07
2.04493e-07
3.11119e-06
8.3892e-06
2.00709e-05
3.2899e-05
3.70399e-05
3.59666e-05
3.30172e-05
2.99665e-05
2.75923e-05
2.60485e-05
2.52618e-05
2.50656e-05
2.52516e-05
2.56153e-05
2.59509e-05
2.60335e-05
2.56184e-05
2.44844e-05
2.25434e-05
1.99351e-05
1.70366e-05
1.42988e-05
1.18969e-05
9.93684e-06
8.48983e-06
7.60644e-06
7.36889e-06
8.01713e-06
1.01846e-05
1.48415e-05
1.74718e-05
7.49498e-06
2.63045e-06
2.55806e-07
2.07123e-07
3.11574e-06
8.42219e-06
2.01935e-05
3.29305e-05
3.68417e-05
3.55964e-05
3.25654e-05
2.95235e-05
2.72147e-05
2.57613e-05
2.50749e-05
2.49763e-05
2.5253e-05
2.56989e-05
2.61056e-05
2.62444e-05
2.58672e-05
2.47533e-05
2.28213e-05
2.02215e-05
1.73375e-05
1.46048e-05
1.21932e-05
1.02148e-05
8.74749e-06
7.84803e-06
7.6067e-06
8.27483e-06
1.04985e-05
1.52267e-05
1.77038e-05
7.56466e-06
2.65033e-06
2.57198e-07
2.0966e-07
3.11992e-06
8.45415e-06
2.03132e-05
3.29521e-05
3.663e-05
3.5212e-05
3.21029e-05
2.90743e-05
2.68342e-05
2.54726e-05
2.48867e-05
2.48847e-05
2.52504e-05
2.57763e-05
2.62511e-05
2.64427e-05
2.61001e-05
2.50042e-05
2.30816e-05
2.04946e-05
1.76317e-05
1.49071e-05
1.24881e-05
1.04934e-05
9.00767e-06
8.09402e-06
7.85049e-06
8.54055e-06
1.0822e-05
1.56187e-05
1.79355e-05
7.63529e-06
2.67033e-06
2.58575e-07
2.12082e-07
3.12346e-06
8.48411e-06
2.04273e-05
3.29607e-05
3.64022e-05
3.48113e-05
3.16281e-05
2.86183e-05
2.64505e-05
2.51826e-05
2.46976e-05
2.47916e-05
2.52448e-05
2.58484e-05
2.63886e-05
2.66294e-05
2.63178e-05
2.52372e-05
2.33242e-05
2.07533e-05
1.79174e-05
1.52046e-05
1.27814e-05
1.0773e-05
9.27102e-06
8.3449e-06
8.10062e-06
8.8146e-06
1.11555e-05
1.60172e-05
1.81663e-05
7.7064e-06
2.6904e-06
2.59935e-07
2.14409e-07
3.12659e-06
8.51286e-06
2.05381e-05
3.29588e-05
3.61603e-05
3.43962e-05
3.11431e-05
2.81574e-05
2.60656e-05
2.48929e-05
2.45089e-05
2.46979e-05
2.52369e-05
2.59159e-05
2.65186e-05
2.68054e-05
2.65214e-05
2.54538e-05
2.35501e-05
2.09981e-05
1.81938e-05
1.54963e-05
1.30719e-05
1.10525e-05
9.53637e-06
8.59985e-06
8.35716e-06
9.09721e-06
1.14991e-05
1.64223e-05
1.8397e-05
7.77839e-06
2.71061e-06
2.61289e-07
2.16627e-07
3.12913e-06
8.53968e-06
2.06435e-05
3.29441e-05
3.59023e-05
3.39651e-05
3.0647e-05
2.76912e-05
2.56793e-05
2.46038e-05
2.4321e-05
2.46041e-05
2.52273e-05
2.59797e-05
2.66422e-05
2.69718e-05
2.67122e-05
2.56553e-05
2.37608e-05
2.123e-05
1.84615e-05
1.57827e-05
1.33603e-05
1.13324e-05
9.8041e-06
8.85877e-06
8.61919e-06
9.38687e-06
1.18515e-05
1.68325e-05
1.86268e-05
7.8509e-06
2.73092e-06
2.6264e-07
2.18751e-07
3.13123e-06
8.56515e-06
2.0745e-05
3.29184e-05
3.56295e-05
3.35196e-05
3.01417e-05
2.72215e-05
2.52934e-05
2.43173e-05
2.41355e-05
2.45109e-05
2.52165e-05
2.60401e-05
2.676e-05
2.71295e-05
2.68912e-05
2.58428e-05
2.39572e-05
2.14498e-05
1.872e-05
1.60629e-05
1.36453e-05
1.16116e-05
1.00735e-05
9.12141e-06
8.88717e-06
9.68518e-06
1.22135e-05
1.72484e-05
1.88563e-05
7.92414e-06
2.75136e-06
2.63992e-07
2.20775e-07
3.13277e-06
8.58878e-06
2.08414e-05
3.28797e-05
3.53402e-05
3.30584e-05
2.96266e-05
2.67477e-05
2.49072e-05
2.40353e-05
2.3953e-05
2.44186e-05
2.52048e-05
2.60981e-05
2.68732e-05
2.72798e-05
2.70602e-05
2.60187e-05
2.41425e-05
2.16607e-05
1.8972e-05
1.63388e-05
1.39284e-05
1.18909e-05
1.03447e-05
9.38732e-06
9.15991e-06
9.98995e-06
1.2583e-05
1.76679e-05
1.90846e-05
7.9977e-06
2.77189e-06
2.65347e-07
2.22706e-07
3.13385e-06
8.61088e-06
2.09334e-05
3.28294e-05
3.50354e-05
3.25832e-05
2.91036e-05
2.62719e-05
2.45214e-05
2.37537e-05
2.37709e-05
2.43265e-05
2.51926e-05
2.61539e-05
2.6982e-05
2.74231e-05
2.72196e-05
2.61838e-05
2.43176e-05
2.18639e-05
1.92174e-05
1.66098e-05
1.42091e-05
1.21704e-05
1.06182e-05
9.65729e-06
9.43828e-06
1.03021e-05
1.29608e-05
1.80908e-05
1.93123e-05
8.07168e-06
2.79255e-06
2.66708e-07
2.24549e-07
3.13441e-06
8.63131e-06
2.10208e-05
3.27664e-05
3.47139e-05
3.20928e-05
2.85725e-05
2.57941e-05
2.4137e-05
2.34751e-05
2.35917e-05
2.42364e-05
2.51812e-05
2.62089e-05
2.70877e-05
2.75607e-05
2.73715e-05
2.63409e-05
2.44868e-05
2.20643e-05
1.94593e-05
1.68774e-05
1.44876e-05
1.24498e-05
1.08938e-05
9.93111e-06
9.72202e-06
1.06213e-05
1.33468e-05
1.85174e-05
1.95397e-05
8.14605e-06
2.81334e-06
2.68079e-07
2.26303e-07
3.13446e-06
8.64999e-06
2.11031e-05
3.26905e-05
3.43759e-05
3.15883e-05
2.80346e-05
2.53156e-05
2.37547e-05
2.31991e-05
2.34148e-05
2.41481e-05
2.51704e-05
2.62628e-05
2.719e-05
2.76923e-05
2.75153e-05
2.64901e-05
2.4651e-05
2.22645e-05
1.9699e-05
1.71417e-05
1.47636e-05
1.27287e-05
1.11712e-05
1.0209e-05
1.00118e-05
1.09485e-05
1.37416e-05
1.89485e-05
1.97673e-05
8.22121e-06
2.83432e-06
2.69476e-07
2.27978e-07
3.13404e-06
8.66715e-06
2.11812e-05
3.26018e-05
3.40203e-05
3.10689e-05
2.74899e-05
2.48366e-05
2.33751e-05
2.29271e-05
2.32421e-05
2.40636e-05
2.51626e-05
2.63181e-05
2.72914e-05
2.78203e-05
2.76533e-05
2.66335e-05
2.48124e-05
2.24663e-05
1.99378e-05
1.74035e-05
1.5037e-05
1.30061e-05
1.14491e-05
1.04895e-05
1.03067e-05
1.12832e-05
1.41449e-05
1.93831e-05
1.99944e-05
8.29697e-06
2.8555e-06
2.70901e-07
2.2958e-07
3.13313e-06
8.68267e-06
2.12545e-05
3.24997e-05
3.36471e-05
3.05355e-05
2.69395e-05
2.43582e-05
2.29988e-05
2.2659e-05
2.30734e-05
2.39827e-05
2.51576e-05
2.63749e-05
2.73921e-05
2.7945e-05
2.77859e-05
2.67708e-05
2.49697e-05
2.2667e-05
2.01743e-05
1.76623e-05
1.53079e-05
1.32822e-05
1.17273e-05
1.07725e-05
1.06065e-05
1.16255e-05
1.45568e-05
1.98211e-05
2.02201e-05
8.37297e-06
2.87685e-06
2.72348e-07
2.31113e-07
3.13178e-06
8.69678e-06
2.13238e-05
3.2384e-05
3.32552e-05
2.99873e-05
2.63834e-05
2.38807e-05
2.26265e-05
2.23963e-05
2.29104e-05
2.39075e-05
2.51579e-05
2.64358e-05
2.7495e-05
2.80692e-05
2.79155e-05
2.69041e-05
2.51237e-05
2.28655e-05
2.04078e-05
1.79177e-05
1.55758e-05
1.35565e-05
1.20054e-05
1.10574e-05
1.09104e-05
1.19748e-05
1.49769e-05
2.02619e-05
2.04445e-05
8.44932e-06
2.89841e-06
2.73818e-07
2.32591e-07
3.13005e-06
8.70972e-06
2.13895e-05
3.22546e-05
3.28445e-05
2.9425e-05
2.58225e-05
2.34047e-05
2.22585e-05
2.21388e-05
2.2753e-05
2.38381e-05
2.51638e-05
2.65016e-05
2.76011e-05
2.81945e-05
2.80441e-05
2.70353e-05
2.52756e-05
2.30618e-05
2.0638e-05
1.81698e-05
1.58411e-05
1.38293e-05
1.22835e-05
1.13444e-05
1.12199e-05
1.23309e-05
1.54049e-05
2.07052e-05
2.06668e-05
8.52576e-06
2.92014e-06
2.7531e-07
2.34018e-07
3.12798e-06
8.72163e-06
2.14519e-05
3.21108e-05
3.24138e-05
2.88483e-05
2.52574e-05
2.29312e-05
2.18959e-05
2.18878e-05
2.26027e-05
2.37761e-05
2.5177e-05
2.65739e-05
2.77121e-05
2.83226e-05
2.81737e-05
2.71666e-05
2.54277e-05
2.32569e-05
2.08654e-05
1.84183e-05
1.61033e-05
1.41002e-05
1.25615e-05
1.1634e-05
1.1535e-05
1.2694e-05
1.58403e-05
2.11505e-05
2.08875e-05
8.60248e-06
2.94209e-06
2.76831e-07
2.35409e-07
3.12565e-06
8.73291e-06
2.15119e-05
3.19525e-05
3.19627e-05
2.82574e-05
2.46884e-05
2.24603e-05
2.15388e-05
2.16434e-05
2.24595e-05
2.37216e-05
2.51982e-05
2.66539e-05
2.78299e-05
2.84557e-05
2.83068e-05
2.73014e-05
2.55837e-05
2.34527e-05
2.10909e-05
1.86641e-05
1.63632e-05
1.43701e-05
1.28403e-05
1.19265e-05
1.18556e-05
1.30643e-05
1.62829e-05
2.15969e-05
2.11061e-05
8.67918e-06
2.96422e-06