/*--------------------------------*- C++ -*----------------------------------*\
| =========                 |                                                 |
| \\      /  F ield         | OpenFOAM: The Open Source CFD Toolbox           |
|  \\    /   O peration     | Version:  v2006                                 |
|   \\  /    A nd           | Website:  www.openfoam.com                      |
|    \\/     M anipulation  |                                                 |
\*---------------------------------------------------------------------------*/
FoamFile
{
    version     2.0;
    format      ascii;
    class       volScalarField;
    location    "68";
    object      k;
}
// * * * * * * * * * * * * * * * * * * * * * * * * * * * * * * * * * * * * * //

dimensions      [0 2 -2 0 0 0 0];


internalField   nonuniform List<scalar> 
78750
(
9.16427e-07
6.27719e-06
1.14312e-05
1.63074e-05
2.08987e-05
2.51988e-05
2.91747e-05
3.27853e-05
3.59997e-05
3.88033e-05
4.11944e-05
4.31783e-05
4.47621e-05
4.59597e-05
4.6784e-05
4.72477e-05
4.73635e-05
4.71439e-05
4.66015e-05
4.57504e-05
4.46057e-05
4.31847e-05
4.1518e-05
3.95817e-05
3.7406e-05
3.50051e-05
3.23895e-05
2.95637e-05
2.65209e-05
2.32417e-05
1.96774e-05
1.57515e-05
1.14355e-05
6.92845e-06
2.75275e-06
1.52653e-06
1.4518e-05
2.65079e-05
3.79943e-05
4.89431e-05
5.90606e-05
6.80927e-05
7.59162e-05
8.25138e-05
8.79262e-05
9.22159e-05
9.5454e-05
9.77197e-05
9.90741e-05
9.95683e-05
9.92563e-05
9.81939e-05
9.64367e-05
9.40411e-05
9.10657e-05
8.75712e-05
8.36187e-05
7.92661e-05
7.45401e-05
6.95124e-05
6.42355e-05
5.87678e-05
5.317e-05
4.74427e-05
4.1513e-05
3.52398e-05
2.85017e-05
2.16926e-05
1.58849e-05
1.21677e-05
2.22939e-06
1.74061e-05
3.19796e-05
4.59224e-05
5.88449e-05
7.03138e-05
8.00744e-05
8.80928e-05
9.44785e-05
9.93953e-05
0.000103054
0.000105611
0.000107154
0.000107761
0.000107509
0.00010648
0.00010476
0.000102427
9.95368e-05
9.61577e-05
9.23728e-05
8.82715e-05
8.39314e-05
7.94035e-05
7.47063e-05
6.98359e-05
6.47801e-05
5.95227e-05
5.40181e-05
4.81441e-05
4.17143e-05
3.47364e-05
2.79884e-05
2.24603e-05
1.90698e-05
4.0626e-06
2.62075e-05
4.71529e-05
6.61942e-05
8.24562e-05
9.55374e-05
0.00010562
0.000113183
0.000118696
0.000122526
0.000124918
0.00012602
0.000125966
0.000124882
0.000122868
0.000120006
0.000116394
0.000112152
0.000107421
0.000102359
9.7145e-05
9.19585e-05
8.69518e-05
8.21951e-05
7.76495e-05
7.31991e-05
6.87015e-05
6.40151e-05
5.89854e-05
5.34134e-05
4.71151e-05
4.02452e-05
3.38364e-05
2.86203e-05
2.52198e-05
5.83906e-06
3.2904e-05
5.78586e-05
7.94121e-05
9.65041e-05
0.000109201
0.000118358
0.000124932
0.000129549
0.000132498
0.000133949
0.000134052
0.000132941
0.000130694
0.000127375
0.000123086
0.000117967
0.000112207
0.000106027
9.96815e-05
9.34563e-05
8.76564e-05
8.25254e-05
7.81389e-05
7.44001e-05
7.1094e-05
6.79426e-05
6.46495e-05
6.09138e-05
5.64318e-05
5.09946e-05
4.48353e-05
3.90274e-05
3.39966e-05
2.99826e-05
8.00275e-06
3.97269e-05
6.84474e-05
9.2438e-05
0.000110622
0.000123595
0.000132736
0.000139208
0.000143607
0.000146191
0.000147159
0.000146642
0.000144695
0.000141366
0.000136743
0.000130976
0.000124276
0.000116896
0.000109125
0.000101277
9.37067e-05
8.68052e-05
8.08869e-05
7.60518e-05
7.22251e-05
6.92101e-05
6.67125e-05
6.43662e-05
6.17579e-05
5.84563e-05
5.41354e-05
4.89283e-05
4.37343e-05
3.87415e-05
3.39549e-05
9.77992e-06
4.49531e-05
7.63616e-05
0.000101965
0.000120755
0.000133793
0.00014282
0.000149104
0.000153218
0.000155424
0.00015591
0.000154745
0.00015195
0.000147582
0.000141767
0.000134716
0.0001267
0.000118038
0.000109078
0.000100206
9.18625e-05
8.4506e-05
7.83918e-05
7.3534e-05
6.98395e-05
6.71405e-05
6.51835e-05
6.36194e-05
6.20062e-05
5.98345e-05
5.66582e-05
5.24582e-05
4.7868e-05
4.29209e-05
3.7587e-05
1.16595e-05
5.02798e-05
8.44097e-05
0.000111785
0.000131465
0.000144888
0.000154092
0.000160375
0.000164374
0.000166392
0.000166546
0.000164866
0.000161365
0.000156114
0.000149273
0.000141093
0.000131894
0.000122038
0.000111923
0.000101989
9.27486e-05
8.47195e-05
7.81114e-05
7.28861e-05
6.89429e-05
6.61471e-05
6.43046e-05
6.31257e-05
6.21933e-05
6.09552e-05
5.88348e-05
5.55951e-05
5.15807e-05
4.67167e-05
4.10457e-05
1.31163e-05
5.43125e-05
9.05294e-05
0.000119319
0.000139764
0.000153561
0.000162951
0.000169305
0.000173264
0.000175107
0.00017493
0.000172747
0.000168574
0.000162506
0.000154739
0.000145572
0.000135369
0.000124541
0.000113535
0.000102861
9.31229e-05
8.48472e-05
7.81057e-05
7.2783e-05
6.87567e-05
6.59123e-05
6.41139e-05
6.31516e-05
6.2674e-05
6.21369e-05
6.08733e-05
5.84505e-05
5.49556e-05
5.02418e-05
4.45074e-05
1.47989e-05
5.89273e-05
9.7483e-05
0.000127823
0.000149089
0.000163275
0.000172841
0.00017924
0.000183125
0.00018477
0.000184255
0.000181584
0.000176774
0.000169936
0.000161299
0.000151196
0.000140032
0.000128258
0.000116366
0.000104927
9.46297e-05
8.6019e-05
7.90671e-05
7.35897e-05
6.94282e-05
6.64659e-05
6.46028e-05
6.36988e-05
6.3479e-05
6.34363e-05
6.28483e-05
6.11104e-05
5.80921e-05
5.35874e-05
4.79371e-05
1.62148e-05
6.26717e-05
0.000103123
0.000134779
0.000156806
0.000171402
0.000181189
0.000187679
0.000191535
0.000193022
0.000192205
0.000189076
0.000183663
0.000176097
0.000166643
0.000155674
0.000143635
0.000131023
0.000118379
0.000106347
9.57115e-05
8.69925e-05
8.00395e-05
7.45967e-05
7.04624e-05
6.7504e-05
6.56384e-05
6.47765e-05
6.4717e-05
6.50066e-05
6.49087e-05
6.37001e-05
6.10849e-05
5.67995e-05
5.12954e-05
1.78766e-05
6.69662e-05
0.000109515
0.000142546
0.000165295
0.000180239
0.000190189
0.000196718
0.000200499
0.000201786
0.000200636
0.000197033
0.000191011
0.000182724
0.000172465
0.00016064
0.000147733
0.000134278
0.000120861
0.00010819
9.7143e-05
8.82452e-05
8.12542e-05
7.58459e-05
7.17673e-05
6.88553e-05
6.70231e-05
6.62079e-05
6.62603e-05
6.67812e-05
6.70431e-05
6.62454e-05
6.39697e-05
5.98921e-05
5.45273e-05
1.94058e-05
7.07501e-05
0.000115101
0.000149341
0.000172764
0.000188065
0.000198204
0.000204804
0.000208541
0.000209662
0.000208206
0.000204157
0.000197556
0.000188581
0.000177555
0.00016492
0.000151196
0.000136957
0.000122836
0.000109612
9.82541e-05
8.92763e-05
8.23477e-05
7.70749e-05
7.31535e-05
7.03862e-05
6.86718e-05
6.79561e-05
6.81212e-05
6.88131e-05
6.93272e-05
6.88257e-05
6.68088e-05
6.28875e-05
5.76e-05
2.1113e-05
7.4864e-05
0.000121112
0.00015657
0.00018062
0.00019623
0.000206521
0.000213163
0.000216834
0.000217769
0.000215999
0.000211503
0.000204334
0.00019469
0.000182921
0.000169496
0.000154967
0.000139943
0.000125096
0.000111266
9.95158e-05
9.03876e-05
8.34722e-05
7.83175e-05
7.45682e-05
7.19853e-05
7.04416e-05
6.98737e-05
7.01737e-05
7.10156e-05
7.17189e-05
7.14331e-05
6.9607e-05
6.57837e-05
6.04971e-05
2.27595e-05
7.86882e-05
0.000126647
0.000163211
0.000187851
0.000203772
0.000214231
0.000220936
0.000224565
0.00022534
0.00022328
0.000218366
0.000210661
0.000200385
0.000187913
0.000173744
0.000158458
0.000142694
0.000127162
0.000112765
0.000100653
9.13991e-05
8.45262e-05
7.95224e-05
7.59824e-05
7.36319e-05
7.23145e-05
7.19476e-05
7.24168e-05
7.3405e-05
7.42515e-05
7.41103e-05
7.24031e-05
6.86038e-05
6.3225e-05
2.4515e-05
8.26699e-05
0.000132364
0.000170017
0.000195213
0.000211417
0.00022203
0.00022879
0.000232373
0.00023299
0.00023065
0.000225335
0.000217122
0.000206248
0.000193111
0.000178231
0.000162209
0.000145712
0.000129481
0.000114471
0.000101913
9.24578e-05
8.55744e-05
8.06956e-05
7.73658e-05
7.5267e-05
7.421e-05
7.40861e-05
7.47606e-05
7.59085e-05
7.68783e-05
7.68351e-05
7.5189e-05
7.13453e-05
6.57886e-05
2.62414e-05
8.64781e-05
0.000137787
0.000176459
0.000202188
0.00021868
0.000229461
0.000236295
0.000239852
0.000240331
0.000237737
0.000232051
0.000223364
0.000211934
0.000198177
0.000182632
0.000165919
0.000148722
0.000131822
0.00011621
0.000103191
9.35139e-05
8.6603e-05
8.18425e-05
7.87302e-05
7.69064e-05
7.61451e-05
7.63035e-05
7.72163e-05
7.85386e-05
7.96173e-05
7.96316e-05
7.7991e-05
7.40327e-05
6.82124e-05
2.80328e-05
9.03513e-05
0.000143267
0.000182934
0.000209172
0.00022594
0.000236885
0.000243795
0.000247331
0.000247685
0.000244852
0.00023882
0.000229695
0.000217748
0.000203412
0.00018724
0.000169861
0.00015198
0.000134402
0.000118153
0.000104598
9.46226e-05
8.76264e-05
8.29481e-05
8.00395e-05
7.84974e-05
7.80553e-05
7.85303e-05
7.9717e-05
8.12379e-05
8.24271e-05
8.24754e-05
8.07981e-05
7.66653e-05
7.05059e-05
2.98096e-05
9.41084e-05
0.00014855
0.000189167
0.000215905
0.000232959
0.000244086
0.000251087
0.00025462
0.000254866
0.000251817
0.000245469
0.00023594
0.000223519
0.000208653
0.0001919
0.000173898
0.000155366
0.000137125
0.000120235
0.000106102
9.57778e-05
8.86525e-05
8.40275e-05
8.13118e-05
8.00581e-05
7.99565e-05
8.07788e-05
8.22717e-05
8.40146e-05
8.53172e-05
8.53797e-05
8.36266e-05
7.92614e-05
7.2691e-05
3.16274e-05
9.78848e-05
0.00015383
0.000195378
0.000222606
0.000239946
0.000251258
0.000258356
0.00026189
0.000262036
0.000258787
0.000252147
0.000242248
0.000229395
0.000214042
0.00019675
0.000178162
0.000159001
0.000140099
0.000122538
0.000107759
9.70041e-05
8.96822e-05
8.50633e-05
8.2516e-05
8.15482e-05
8.18021e-05
8.29987e-05
8.48297e-05
8.68217e-05
8.82495e-05
8.8318e-05
8.64624e-05
8.18177e-05
7.47721e-05
3.3437e-05
0.000101568
0.000158957
0.000201414
0.00022914
0.000246786
0.0002583
0.000265505
0.000269048
0.000269103
0.00026567
0.000258764
0.000248534
0.000235294
0.000219505
0.000201726
0.000182599
0.000162846
0.000143296
0.000125049
0.000109579
9.83213e-05
9.07367e-05
8.60751e-05
8.36697e-05
8.29832e-05
8.36068e-05
8.52041e-05
8.74042e-05
8.9672e-05
9.1239e-05
9.13094e-05
8.9322e-05
8.43481e-05
7.67639e-05
3.52731e-05
0.000105241
0.000164047
0.000207406
0.000235644
0.000253618
0.000265345
0.000272651
0.000276192
0.000276152
0.000272542
0.000265394
0.000254867
0.000241284
0.000225108
0.000206893
0.000187275
0.000166963
0.000146781
0.000127835
0.000111622
9.97691e-05
9.1837e-05
8.7066e-05
8.476e-05
8.43375e-05
8.53346e-05
8.73514e-05
8.99467e-05
9.25144e-05
9.42309e-05
9.42933e-05
9.21701e-05
8.68368e-05
7.86668e-05
3.71024e-05
0.00010882
0.000168989
0.000213244
0.000242035
0.000260399
0.000272363
0.000279744
0.000283257
0.000283113
0.000279338
0.000271973
0.000261191
0.000247318
0.00023081
0.000212219
0.000192163
0.000171336
0.000150548
0.000130904
0.000113915
0.000101383
9.30179e-05
8.80669e-05
8.58135e-05
8.56345e-05
8.70082e-05
8.9464e-05
9.24814e-05
9.53743e-05
9.7262e-05
9.73572e-05
9.50315e-05
8.92996e-05
8.04918e-05
3.89475e-05
0.000112359
0.000173852
0.000218997
0.000248385
0.00026719
0.000279399
0.000286849
0.000290284
0.000290024
0.000286094
0.000278544
0.000267547
0.000253433
0.000236651
0.00021774
0.000197303
0.00017601
0.00015465
0.000134317
0.000116526
0.00010322
9.43227e-05
8.91026e-05
8.68354e-05
8.68617e-05
8.85999e-05
9.1503e-05
9.49643e-05
9.82128e-05
0.000100308
0.000100472
9.79356e-05
9.17326e-05
8.22411e-05
4.0783e-05
0.000115799
0.000178549
0.000224551
0.000254551
0.000273712
0.000286165
0.00029375
0.000297164
0.000296807
0.00029275
0.000285049
0.000273882
0.000259577
0.000242578
0.000223409
0.000202651
0.000180948
0.00015906
0.00013806
0.000119461
0.000105303
9.57843e-05
9.02093e-05
8.78603e-05
8.80502e-05
9.01383e-05
9.34952e-05
9.74174e-05
0.000101038
0.000103353
0.000103623
0.000100894
9.41582e-05
8.39243e-05
4.26273e-05
0.000119194
0.000183157
0.000229983
0.00026056
0.000280084
0.000292799
0.000300549
0.00030401
0.000303536
0.00029936
0.000291533
0.000280234
0.000265786
0.000248625
0.000229259
0.000208242
0.000186189
0.000163822
0.000142185
0.000122773
0.000107688
9.74527e-05
9.14236e-05
8.89072e-05
8.92006e-05
9.16077e-05
9.54132e-05
9.98118e-05
0.000103842
0.000106463
0.00010681
0.000103878
9.65726e-05
8.55458e-05
4.44604e-05
0.000122495
0.000187623
0.000235266
0.000266349
0.0002862
0.000299164
0.000307086
0.000310618
0.000310081
0.000305828
0.000297915
0.000286529
0.000271989
0.000254723
0.00023522
0.000214009
0.000191671
0.000168884
0.000146653
0.000126444
0.000110389
9.93627e-05
9.27898e-05
9.00208e-05
9.03534e-05
9.30441e-05
9.72908e-05
0.000102182
0.000106657
0.000109626
0.000110046
0.000106896
9.89821e-05
8.71118e-05
4.6295e-05
0.000125727
0.000191973
0.000240444
0.00027197
0.00029214
0.000305366
0.000313487
0.000317132
0.000316599
0.000312254
0.000304266
0.000292819
0.00027823
0.000260909
0.000241327
0.000219987
0.000197429
0.000174286
0.000151511
0.000130527
0.000113465
0.00010157
9.43567e-05
9.12362e-05
9.15252e-05
9.44444e-05
9.91082e-05
0.000104495
0.000109441
0.000112791
0.000113295
0.000109923
0.000101377
8.86268e-05
4.81102e-05
0.000128838
0.000196117
0.000245353
0.000277309
0.000297795
0.000311286
0.000319611
0.000323385
0.000322892
0.000318481
0.000310459
0.000299001
0.000284412
0.000267092
0.00024749
0.000226083
0.000203375
0.000179947
0.000156696
0.000134982
0.000116916
0.000104105
9.61726e-05
9.26073e-05
9.27684e-05
9.5857e-05
0.00010091
0.000106792
0.000112226
0.000115975
0.000116566
0.000112963
0.000103762
9.00962e-05
4.99268e-05
0.000131901
0.00020017
0.000250135
0.000282497
0.000303288
0.000317044
0.00032558
0.000329499
0.000329065
0.000324617
0.000316591
0.000305153
0.000290602
0.000273324
0.000253753
0.000232337
0.000209545
0.000185903
0.000162244
0.000139857
0.000120801
0.000107032
9.82989e-05
9.41851e-05
9.41161e-05
9.72937e-05
0.000102687
0.00010905
0.00011498
0.000119142
0.000119832
0.000116
0.000106131
9.1526e-05
5.17209e-05
0.000134842
0.00020402
0.000254662
0.000287403
0.000308491
0.00032251
0.000331267
0.000335345
0.000334996
0.000330544
0.000322545
0.000311161
0.000296686
0.000279495
0.000260005
0.000238639
0.00021583
0.000192052
0.000168069
0.000145089
0.000125103
0.00011037
0.00010078
9.60281e-05
9.56297e-05
9.88119e-05
0.000104491
0.000111309
0.000117728
0.00012231
0.000123102
0.000119038
0.000108487
9.29208e-05
5.35177e-05
0.000137746
0.000207793
0.000259072
0.000292164
0.000313533
0.000327811
0.000336789
0.000341037
0.000340795
0.000336369
0.000328414
0.000317105
0.000302732
0.000285663
0.000266296
0.000245032
0.000222265
0.000198421
0.000174196
0.00015071
0.000129868
0.000114168
0.000103672
9.81929e-05
9.73552e-05
0.000100439
0.000106329
0.000113561
0.000120473
0.00012546
0.000126359
0.000122068
0.000110828
9.4287e-05
5.52944e-05
0.000140543
0.000211385
0.000263239
0.000296649
0.000318283
0.000332812
0.000342012
0.000346441
0.000346334
0.000341996
0.00033408
0.000322859
0.000308619
0.00029171
0.000272511
0.000251397
0.000228733
0.000204896
0.000180518
0.000156631
0.000135046
0.000118418
0.000107002
0.00010073
9.93545e-05
0.000102238
0.000108257
0.000115861
0.00012327
0.000128621
0.000129613
0.00012509
0.000113155
9.56269e-05
5.70776e-05
0.000143321
0.000214927
0.000267302
0.000300993
0.000322871
0.000337639
0.000347056
0.000351661
0.000351687
0.000347442
0.000339589
0.00032849
0.000314414
0.000297699
0.000278702
0.00025778
0.000235267
0.000211499
0.000187046
0.000162855
0.00014064
0.000123129
0.000110797
0.000103681
0.000101673
0.000104245
0.0001103
0.000118219
0.000126102
0.000131789
0.00013286
0.000128101
0.000115466
9.69449e-05
5.88348e-05
0.000146001
0.000218332
0.000271133
0.000305063
0.000327165
0.000342164
0.000351796
0.000356586
0.000356757
0.000352626
0.000344861
0.000333906
0.000320021
0.000303526
0.000284765
0.000264071
0.000241754
0.000218112
0.000193659
0.000169264
0.000146544
0.000128238
0.000115034
0.000107063
0.000104358
0.000106523
0.000112517
0.00012068
0.000128991
0.00013498
0.000136109
0.000131103
0.000117759
9.82401e-05
6.05857e-05
0.00014863
0.000221678
0.000274842
0.000308978
0.000331287
0.000346505
0.000356342
0.000361308
0.000361626
0.000357618
0.000349962
0.000339172
0.0003255
0.000309251
0.000290751
0.000270316
0.00024823
0.000224757
0.000200364
0.000175845
0.000152724
0.00013371
0.000119693
0.000110878
0.000107429
0.000109097
0.000114933
0.000123256
0.000131937
0.00013819
0.000139357
0.000134094
0.000120034
9.9512e-05
6.23172e-05
0.000151132
0.000224815
0.00027829
0.000312609
0.000335116
0.00035055
0.000360595
0.000365742
0.000366209
0.000362327
0.00035479
0.000344193
0.000330761
0.000314785
0.000296574
0.000276426
0.000254605
0.000231343
0.000207065
0.000182499
0.00015908
0.000139466
0.000124721
0.000115105
0.0001109
0.000112011
0.000117597
0.000125992
0.000134973
0.000141437
0.000142611
0.000137072
0.000122286
0.000100756
6.40525e-05
0.000153601
0.000227869
0.000281614
0.00031609
0.000338775
0.000354412
0.000364652
0.000369974
0.000370593
0.000366848
0.000359445
0.000349042
0.000335861
0.00032018
0.000302277
0.000282438
0.000260908
0.00023789
0.000213771
0.000189218
0.000165586
0.000145469
0.000130081
0.000119717
0.00011476
0.000115264
0.000120519
0.000128898
0.000138104
0.000144724
0.000145871
0.000140038
0.000124513
0.00010197
6.57614e-05
0.000155931
0.000230707
0.000284676
0.000319287
0.000342142
0.000357974
0.000368407
0.000373903
0.000374675
0.000371074
0.000363825
0.000353637
0.000340719
0.000325339
0.000307777
0.000288272
0.000267059
0.000244318
0.000220401
0.000195923
0.000172163
0.00015165
0.000135718
0.00012468
0.000119002
0.000118876
0.000123731
0.000132006
0.000141354
0.000148065
0.000149143
0.000142989
0.000126708
0.000103146
6.74745e-05
0.000158221
0.00023346
0.000287617
0.000322338
0.000345342
0.000361355
0.000371968
0.000377628
0.000378548
0.000375093
0.000368005
0.000358044
0.000345403
0.000330335
0.000313104
0.000293961
0.000273086
0.000250647
0.000226966
0.000202611
0.000178795
0.000157982
0.000141594
0.000129952
0.000123593
0.000122832
0.000127236
0.000135326
0.000144729
0.00015146
0.000152424
0.000145922
0.000128868
0.000104281
6.9158e-05
0.000160373
0.000236001
0.000290302
0.000325112
0.000348254
0.000364439
0.000375226
0.000381045
0.000382113
0.000378809
0.000371899
0.000362178
0.000349831
0.000335093
0.000318215
0.000299428
0.000278925
0.000256813
0.000233402
0.000209219
0.000185421
0.000164411
0.000147664
0.000135498
0.000128506
0.000127119
0.000131039
0.000138877
0.000148252
0.000154928
0.000155724
0.000148836
0.000130988
0.000105368
7.08346e-05
0.000162469
0.000238447
0.000292861
0.000327738
0.000351
0.000367341
0.000378288
0.000384256
0.000385464
0.00038231
0.00037558
0.000366106
0.000354057
0.000339658
0.000323142
0.000304725
0.000284582
0.00026283
0.000239719
0.000215752
0.000192037
0.000170923
0.000153906
0.000141291
0.000133712
0.000131706
0.000135111
0.000142635
0.000151907
0.000158457
0.000159035
0.000151728
0.000133065
0.000106403
7.24734e-05
0.000164431
0.00024069
0.000295176
0.000330099
0.000353469
0.000369956
0.000381054
0.000387164
0.00038851
0.000385507
0.000378971
0.000369752
0.000358013
0.000343962
0.00032782
0.000309789
0.000290026
0.000268633
0.000245856
0.00022215
0.000198588
0.000177474
0.000160289
0.000147313
0.000139207
0.000136599
0.000139463
0.000146613
0.000155703
0.000162056
0.000162362
0.000154597
0.000135094
0.000107379
7.40933e-05
0.000166327
0.000242832
0.000297364
0.000332314
0.000355774
0.000372392
0.000383627
0.000389867
0.000391342
0.000388486
0.000382144
0.000373184
0.000361755
0.000348054
0.000332289
0.000314648
0.000295276
0.000274258
0.000251826
0.000228417
0.000205064
0.00018404
0.000166778
0.000153528
0.000144961
0.000141777
0.000144075
0.000150789
0.000159622
0.000165709
0.000165694
0.000157437
0.000137073
0.0001083
7.56691e-05
0.000168095
0.000244785
0.000299325
0.000334282
0.000357819
0.000374556
0.000385919
0.000392281
0.00039388
0.000391172
0.000385034
0.000376339
0.000365225
0.000351879
0.000336496
0.000319252
0.000300279
0.00027965
0.000257585
0.000234507
0.000211423
0.000190583
0.000173337
0.000159903
0.000150949
0.00014723
0.000148957
0.000155186
0.000163681
0.000169424
0.000169033
0.000160245
0.000139002
0.00010917
7.72162e-05
0.000169791
0.000246632
0.000301156
0.000336102
0.000359702
0.000376545
0.000388022
0.000394495
0.000396209
0.000393645
0.000387712
0.000379281
0.000368481
0.000355487
0.000340483
0.000323633
0.00030506
0.000284826
0.00026314
0.000240417
0.000217659
0.00019708
0.000179934
0.000166397
0.000157127
0.000152918
0.000154073
0.00015977
0.000167862
0.000173194
0.000172376
0.000163024
0.000140887
0.000109998
7.87135e-05
0.000171365
0.000248302
0.000302776
0.000337693
0.000361342
0.00037828
0.000389862
0.000396439
0.000398262
0.000395844
0.000390124
0.000381963
0.000371479
0.000358839
0.000344215
0.000327761
0.000309589
0.000289754
0.000268459
0.00024611
0.000223706
0.000203477
0.000186516
0.000172962
0.000163454
0.000158807
0.000159406
0.000164548
0.000172165
0.000177019
0.000175727
0.000165777
0.000142731
0.000110788
8.01753e-05
0.000172864
0.000249866
0.000304267
0.00033914
0.000362825
0.000379844
0.00039152
0.000398189
0.000400116
0.000397837
0.000392332
0.00038444
0.000374271
0.00036198
0.00034773
0.000331666
0.000313891
0.000294455
0.000273556
0.000251601
0.000229595
0.000209773
0.000193063
0.000179564
0.000169888
0.00016486
0.000164935
0.000169528
0.000176591
0.000180897
0.00017908
0.000168499
0.000144531
0.000111546
8.15843e-05
0.000174248
0.000251264
0.000305563
0.000340373
0.000364082
0.000381173
0.000392934
0.000399689
0.000401714
0.000399579
0.000394296
0.000386679
0.000376827
0.000364886
0.00035101
0.000335335
0.000317956
0.000298919
0.000278421
0.000256875
0.000235299
0.000215944
0.000199545
0.000186166
0.000176392
0.000171046
0.000170634
0.00017468
0.000181136
0.000184833
0.000182447
0.000171207
0.000146317
0.000112279
8.29542e-05
0.000175558
0.00025256
0.000306733
0.000341466
0.000365185
0.000382337
0.000394171
0.000401002
0.00040312
0.000401124
0.000396068
0.000388725
0.000379188
0.000367593
0.000354087
0.000338795
0.000321809
0.000303169
0.000283075
0.000261949
0.00024083
0.000221988
0.000205947
0.000192741
0.000182925
0.000177315
0.000176453
0.000179959
0.000185773
0.000188817
0.000185825
0.000173903
0.000148088
0.000112994
8.42716e-05
0.000176761
0.000253703
0.000307722
0.000342362
0.000366081
0.000383283
0.000395183
0.000402085
0.000404292
0.000402439
0.000397617
0.000390553
0.000381334
0.000370087
0.000356949
0.00034204
0.000325445
0.000307203
0.000287518
0.000266826
0.000246194
0.000227905
0.000212261
0.00019927
0.000189464
0.000183642
0.000182371
0.000185347
0.000190497
0.00019285
0.000189221
0.000176595
0.000149847
0.000113696
8.55481e-05
0.000177891
0.000254743
0.000308589
0.000343121
0.000366827
0.000384069
0.000396025
0.000402988
0.00040528
0.000403568
0.000398984
0.000392201
0.000383297
0.000372395
0.000359622
0.000345093
0.000328887
0.000311044
0.000291774
0.00027153
0.000251413
0.000233708
0.000218491
0.000205748
0.000195985
0.000189988
0.00018834
0.000190801
0.000195277
0.000196917
0.000192629
0.000179282
0.000151596
0.00011439
8.67731e-05
0.000178921
0.000255642
0.000309288
0.000343698
0.000367381
0.000384655
0.000396659
0.000403679
0.000406053
0.000404486
0.000400148
0.00039365
0.000385064
0.000374506
0.000362098
0.000347948
0.000332133
0.000314693
0.000295848
0.000276074
0.000256511
0.000239413
0.000224644
0.000212174
0.000202482
0.000196347
0.000194352
0.000196313
0.000200105
0.000201016
0.000196052
0.000181969
0.000153337
0.000115077
8.79581e-05
0.00017988
0.000256443
0.000309869
0.000344143
0.000367792
0.000385087
0.000397131
0.000404201
0.000406654
0.000405231
0.000401143
0.000394931
0.00038666
0.000376444
0.000364397
0.000350624
0.0003352
0.000318168
0.000299761
0.000280483
0.000261522
0.000245039
0.000230728
0.000218546
0.00020895
0.000202696
0.000200375
0.00020185
0.00020496
0.000205134
0.000199486
0.000184657
0.000155073
0.000115756
8.90922e-05
0.000180744
0.000257111
0.000310294
0.000344419
0.000368024
0.000385332
0.000397411
0.000404526
0.000407058
0.000405784
0.000401955
0.000396032
0.000388078
0.000378201
0.000366514
0.000353117
0.000338085
0.000321468
0.000303516
0.000284767
0.000266469
0.000250606
0.000236759
0.000224875
0.00021539
0.000209033
0.000206408
0.000207411
0.000209836
0.000209268
0.000202927
0.000187343
0.000156802
0.000116427
9.01862e-05
0.00018154
0.000257685
0.000310606
0.000344568
0.000368119
0.000385432
0.000397537
0.000404693
0.000407301
0.000406178
0.000402613
0.00039698
0.00038934
0.000379799
0.000368466
0.000355441
0.000340799
0.000324602
0.000307118
0.000288927
0.000271343
0.000256105
0.00024273
0.000231154
0.000221792
0.000215353
0.000212436
0.000212977
0.000214722
0.000213412
0.000206376
0.000190031
0.000158528
0.00011709
9.12307e-05
0.000182247
0.000258136
0.000310774
0.000344561
0.000368049
0.00038536
0.000397486
0.00040468
0.000407366
0.000406402
0.000403109
0.000397768
0.000390442
0.000381234
0.000370252
0.000357596
0.000343344
0.000327568
0.000310563
0.000292954
0.000276125
0.000261528
0.000248639
0.000237385
0.000228162
0.000221656
0.000218454
0.000218544
0.00021961
0.000217559
0.000209825
0.000192715
0.000160247
0.000117746
9.22343e-05
0.000182888
0.000258496
0.000310832
0.000344432
0.000367847
0.000385147
0.000397289
0.000404518
0.000407285
0.000406484
0.000403468
0.000398419
0.000391403
0.000382523
0.000371888
0.000359595
0.00034573
0.000330376
0.000313856
0.000296845
0.0002808
0.000266855
0.000254466
0.000243548
0.000234481
0.000227927
0.000224466
0.000224116
0.000224507
0.000221715
0.000213282
0.000195402
0.000161965
0.000118399
9.3191e-05
0.000183447
0.000258743
0.000310759
0.000344161
0.000367493
0.000384776
0.000396928
0.000404194
0.000407047
0.00040642
0.000403687
0.000398931
0.000392223
0.000383669
0.000373378
0.000361447
0.000347967
0.000333036
0.000317007
0.00030061
0.000285372
0.000272091
0.000260212
0.000249642
0.000240743
0.000234155
0.000230447
0.00022966
0.00022939
0.000225867
0.000216739
0.000198088
0.000163682
0.00011905
9.41073e-05
0.000183943
0.000258905
0.000310584
0.000343774
0.000367016
0.000384273
0.000396431
0.000403732
0.000406681
0.000406242
0.00040379
0.00039932
0.000392915
0.000384683
0.000374732
0.00036316
0.000350064
0.000335556
0.000320024
0.000304254
0.000289837
0.000277228
0.000265869
0.000255661
0.000246945
0.000240339
0.000236403
0.000235204
0.000234274
0.000230027
0.000220205
0.000200782
0.000165404
0.000119701
9.49805e-05
0.000184366
0.000258964
0.000310289
0.000343258
0.0003664
0.000383625
0.000395783
0.00040312
0.000406182
0.000405978
0.000403778
0.000399584
0.00039348
0.000385571
0.000375962
0.000364751
0.00035204
0.00033796
0.000322932
0.000307803
0.000294215
0.00028228
0.000271444
0.000261602
0.000253076
0.000246463
0.00024231
0.000240712
0.000239133
0.000234177
0.000223671
0.000203478
0.000167129
0.000120353
9.58138e-05
0.000184728
0.000258941
0.000309896
0.000342635
0.00036567
0.000382854
0.000395004
0.00040237
0.000405537
0.000405567
0.000403628
0.000399719
0.000393922
0.000386339
0.000377073
0.000366224
0.000353902
0.000340257
0.000325747
0.000311282
0.00029852
0.000287256
0.000276944
0.000267476
0.000259152
0.000252543
0.000248183
0.000246194
0.000243984
0.000238322
0.000227143
0.000206184
0.000168863
0.000121008
9.66091e-05
0.000185026
0.000258829
0.000309399
0.000341898
0.000364818
0.000381957
0.000394096
0.000401491
0.00040477
0.000405045
0.000403371
0.000399747
0.000394256
0.000387
0.000378078
0.000367596
0.00035567
0.000342471
0.000328499
0.00031473
0.000302776
0.000292168
0.000282373
0.00027328
0.000265166
0.000258571
0.000254015
0.000251644
0.000248816
0.000242468
0.000230617
0.000208898
0.000170606
0.000121667
9.73662e-05
0.000185264
0.000258636
0.000308808
0.000341058
0.000363858
0.000380945
0.000393066
0.000400487
0.000403879
0.000404406
0.000403001
0.000399666
0.000394484
0.000387555
0.000378982
0.00036887
0.00035735
0.000344617
0.000331214
0.00031819
0.000307014
0.000297037
0.000287743
0.000279021
0.000271125
0.000264559
0.00025982
0.00025708
0.000253646
0.000246622
0.000234109
0.000211629
0.000172363
0.000122337
9.80896e-05
0.000185446
0.000258365
0.000308124
0.000340117
0.000362791
0.000379821
0.000391922
0.000399369
0.000402881
0.000403669
0.000402539
0.000399497
0.000394624
0.000388022
0.000379796
0.000370059
0.000358952
0.0003467
0.000333898
0.000321668
0.000311237
0.000301862
0.000293049
0.000284687
0.000277009
0.000270484
0.000265582
0.000262494
0.000258472
0.000250788
0.000237619
0.000214379
0.000174139
0.00012302
9.87811e-05
0.000185576
0.00025802
0.000307353
0.000339082
0.000361622
0.000378592
0.000390668
0.000398141
0.000401777
0.000402836
0.000401988
0.000399242
0.000394681
0.000388408
0.00038053
0.000371168
0.00036048
0.000348722
0.000336543
0.000325144
0.000315438
0.00030665
0.000298303
0.000290289
0.000282826
0.000276348
0.000271298
0.000267882
0.00026329
0.000254963
0.00024115
0.000217151
0.000175934
0.000123712
9.9443e-05
0.000185655
0.000257605
0.000306497
0.000337953
0.000360356
0.00037726
0.00038931
0.000396811
0.00040058
0.00040192
0.000401363
0.000398918
0.000394671
0.000388727
0.000381197
0.000372211
0.000361944
0.000350686
0.000339144
0.00032859
0.000319596
0.000311381
0.000303489
0.000295817
0.000288568
0.000282142
0.000276956
0.00027324
0.000268104
0.000259152
0.000244704
0.00021995
0.000177751
0.000124414
0.000100081
0.000185693
0.000257127
0.000305564
0.000336738
0.000358996
0.000375829
0.00038785
0.000395383
0.000399291
0.000400926
0.000400667
0.000398529
0.000394601
0.00038899
0.000381811
0.000373203
0.000363362
0.000352612
0.000341719
0.000332014
0.00032372
0.000316065
0.000308618
0.00030128
0.000294238
0.000287873
0.000282592
0.000278566
0.000272905
0.000263351
0.000248281
0.000222775
0.000179591
0.000125126
0.000100698
0.00018569
0.000256586
0.000304553
0.000335434
0.000357541
0.000374301
0.000386292
0.000393861
0.000397921
0.000399861
0.000399909
0.000398084
0.000394479
0.000389203
0.000382379
0.000374153
0.000364743
0.000354509
0.00034428
0.000335417
0.000327805
0.000320699
0.000313686
0.000306675
0.000299843
0.000293551
0.000288212
0.000283872
0.000277699
0.000267562
0.000251883
0.000225631
0.000181458
0.000125851
0.000101299
0.000185654
0.000255992
0.00030347
0.000334048
0.000355996
0.000372676
0.000384637
0.000392251
0.000396477
0.000398733
0.000399094
0.000397589
0.000394314
0.000389382
0.000382919
0.000375084
0.000366115
0.000356413
0.000346868
0.000338828
0.000331876
0.0003253
0.000318709
0.000312018
0.000305395
0.000299188
0.000293807
0.000289158
0.000282485
0.000271782
0.000255508
0.000228515
0.00018335
0.000126586
0.000101885
0.000185582
0.000255338