/*--------------------------------*- C++ -*----------------------------------*\
| =========                 |                                                 |
| \\      /  F ield         | OpenFOAM: The Open Source CFD Toolbox           |
|  \\    /   O peration     | Version:  v2006                                 |
|   \\  /    A nd           | Website:  www.openfoam.com                      |
|    \\/     M anipulation  |                                                 |
\*---------------------------------------------------------------------------*/
FoamFile
{
    version     2.0;
    format      ascii;
    class       volScalarField;
    location    "68";
    object      nut;
}
// * * * * * * * * * * * * * * * * * * * * * * * * * * * * * * * * * * * * * //

dimensions      [0 2 -1 0 0 0 0];


internalField   nonuniform List<scalar> 
78750
(
2.59923e-09
4.62066e-07
8.38591e-07
1.19253e-06
1.52385e-06
1.83248e-06
2.11645e-06
2.37317e-06
2.60082e-06
2.79867e-06
2.9669e-06
3.10612e-06
3.21703e-06
3.30074e-06
3.35826e-06
3.39057e-06
3.39858e-06
3.38318e-06
3.34524e-06
3.28569e-06
3.20554e-06
3.10593e-06
2.9889e-06
2.85268e-06
2.69927e-06
2.52954e-06
2.34411e-06
2.14315e-06
1.92602e-06
1.69112e-06
1.43466e-06
1.15067e-06
8.36641e-07
5.0718e-07
7.72619e-09
2.95061e-09
2.92639e-06
5.34421e-06
7.1275e-06
8.8205e-06
1.0641e-05
1.25412e-05
1.43968e-05
1.61107e-05
1.76398e-05
1.89922e-05
2.00092e-05
2.04162e-05
2.06583e-05
2.07464e-05
2.06905e-05
2.05005e-05
2.01851e-05
1.97527e-05
1.92118e-05
1.85709e-05
1.78385e-05
1.70226e-05
1.6125e-05
1.51565e-05
1.41243e-05
1.30373e-05
1.1591e-05
9.6537e-06
7.57505e-06
5.38215e-06
3.59135e-06
2.80819e-06
1.70795e-06
2.32447e-08
4.3091e-09
1.94787e-06
3.89332e-06
5.87237e-06
8.05605e-06
1.05415e-05
1.32408e-05
1.5933e-05
1.84043e-05
2.04967e-05
2.13708e-05
2.18198e-05
2.20887e-05
2.21934e-05
2.21482e-05
2.19668e-05
2.16637e-05
2.07433e-05
1.93821e-05
1.80231e-05
1.67763e-05
1.56903e-05
1.47674e-05
1.40029e-05
1.33671e-05
1.27662e-05
1.20513e-05
1.1034e-05
9.52625e-06
7.48788e-06
5.36076e-06
4.01526e-06
4.22762e-06
1.75054e-06
3.639e-08
7.85221e-09
1.80799e-06
3.93029e-06
6.68022e-06
1.01791e-05
1.42128e-05
1.81381e-05
2.13639e-05
2.37076e-05
2.47307e-05
2.51301e-05
2.53123e-05
2.53013e-05
2.46304e-05
2.32827e-05
2.17203e-05
2.01037e-05
1.85253e-05
1.70315e-05
1.56505e-05
1.44077e-05
1.3338e-05
1.2477e-05
1.18383e-05
1.13992e-05
1.10753e-05
1.06867e-05
9.96234e-06
8.6596e-06
6.8473e-06
5.12642e-06
4.34846e-06
5.52732e-06
1.68213e-06
4.80827e-08
1.12854e-08
1.82674e-06
4.20328e-06
7.74194e-06
1.2655e-05
1.81502e-05
2.27909e-05
2.51368e-05
2.5903e-05
2.63871e-05
2.66227e-05
2.66374e-05
2.53598e-05
2.34073e-05
2.13836e-05
1.9469e-05
1.77395e-05
1.62065e-05
1.48466e-05
1.36298e-05
1.2541e-05
1.15941e-05
1.08251e-05
1.02617e-05
9.89702e-06
9.65931e-06
9.37198e-06
8.76462e-06
7.64301e-06
6.1797e-06
4.96522e-06
4.78574e-06
6.50292e-06
1.62993e-06
5.71151e-08
1.54668e-08
1.83547e-06
4.37421e-06
8.49192e-06
1.44959e-05
2.09311e-05
2.57003e-05
2.74866e-05
2.81925e-05
2.86026e-05
2.77963e-05
2.58138e-05
2.35247e-05
2.12531e-05
1.91848e-05
1.73942e-05
1.58748e-05
1.45786e-05
1.34462e-05
1.24282e-05
1.14995e-05
1.06673e-05
9.95766e-06
9.39135e-06
8.9674e-06
8.63499e-06
8.25853e-06
7.63571e-06
6.65524e-06
5.51795e-06
4.73012e-06
5.04566e-06
6.89987e-06
1.62503e-06
6.46377e-08
1.89009e-08
1.88276e-06
4.59435e-06
9.21232e-06
1.60863e-05
2.31233e-05
2.78361e-05
2.9069e-05
2.97142e-05
2.93474e-05
2.72607e-05
2.46419e-05
2.19684e-05
1.95366e-05
1.74736e-05
1.57798e-05
1.43951e-05
1.32471e-05
1.22689e-05
1.14089e-05
1.06423e-05
9.97145e-06
9.39712e-06
8.90647e-06
8.47847e-06
8.06447e-06
7.56746e-06
6.87377e-06
5.97494e-06
5.08758e-06
4.63924e-06
5.38274e-06
6.89136e-06
1.61507e-06
7.15044e-08
2.25327e-08
1.91167e-06
4.70202e-06
9.58609e-06
1.69752e-05
2.43498e-05
2.89495e-05
3.08311e-05
3.07e-05
2.90739e-05
2.65343e-05
2.36441e-05
2.08516e-05
1.84104e-05
1.63913e-05
1.4759e-05
1.34405e-05
1.23599e-05
1.14531e-05
1.06744e-05
1.00032e-05
9.43803e-06
8.95726e-06
8.51947e-06
8.08083e-06
7.59127e-06
6.99109e-06
6.24437e-06
5.41499e-06
4.71542e-06
4.516e-06
5.58024e-06
6.76148e-06
1.61648e-06
7.80383e-08
2.53474e-08
1.93908e-06
4.79111e-06
9.86433e-06
1.76063e-05
2.519e-05
2.96751e-05
3.12675e-05
3.0735e-05
2.87133e-05
2.58562e-05
2.2782e-05
1.99315e-05
1.75079e-05
1.5535e-05
1.39526e-05
1.26807e-05
1.16464e-05
1.0791e-05
1.00777e-05
9.49777e-06
9.04864e-06
8.68139e-06
8.32216e-06
7.89877e-06
7.35468e-06
6.66482e-06
5.86308e-06
5.07063e-06
4.49713e-06
4.48191e-06
5.80988e-06
6.53435e-06
1.61472e-06
8.45729e-08
2.85983e-08
1.96194e-06
4.84892e-06
1.00457e-05
1.80257e-05
2.57165e-05
3.00773e-05
3.14424e-05
3.06551e-05
2.84067e-05
2.53944e-05
2.22461e-05
1.93791e-05
1.69641e-05
1.50029e-05
1.34261e-05
1.21535e-05
1.11167e-05
1.02649e-05
9.57029e-06
9.03362e-06
8.6534e-06
8.36613e-06
8.07563e-06
7.68377e-06
7.12198e-06
6.38696e-06
5.56242e-06
4.80703e-06
4.32771e-06
4.44906e-06
5.97805e-06
6.3221e-06
1.61549e-06
9.10437e-08
3.13337e-08
1.98082e-06
4.89419e-06
1.01766e-05
1.83197e-05
2.60887e-05
3.03592e-05
3.15377e-05
3.05272e-05
2.80804e-05
2.49435e-05
2.17519e-05
1.8895e-05
1.65088e-05
1.45733e-05
1.30113e-05
1.17426e-05
1.07024e-05
9.84627e-06
9.15819e-06
8.65286e-06
8.32894e-06
8.11018e-06
7.88327e-06
7.52871e-06
6.96607e-06
6.20689e-06
5.37168e-06
4.64621e-06
4.23735e-06
4.46817e-06
6.16968e-06
6.10228e-06
1.61529e-06
9.73751e-08
3.45441e-08
1.99995e-06
4.93862e-06
1.03112e-05
1.86115e-05
2.64066e-05
3.05468e-05
3.15524e-05
3.03781e-05
2.78119e-05
2.46163e-05
2.14158e-05
1.85739e-05
1.6205e-05
1.42784e-05
1.27141e-05
1.14337e-05
1.03763e-05
9.50248e-06
8.80275e-06
8.30175e-06
8.00268e-06
7.82433e-06
7.64451e-06
7.32952e-06
6.78792e-06
6.03662e-06
5.21569e-06
4.52636e-06
4.17795e-06
4.50011e-06
6.3466e-06
5.90927e-06
1.61621e-06
1.03464e-07
3.7498e-08
2.01785e-06
4.98106e-06
1.04299e-05
1.88531e-05
2.66676e-05
3.07034e-05
3.15564e-05
3.02279e-05
2.75485e-05
2.43031e-05
2.11059e-05
1.82922e-05
1.59524e-05
1.40436e-05
1.24831e-05
1.11943e-05
1.01202e-05
9.22688e-06
8.51246e-06
8.01063e-06
7.72621e-06
7.57517e-06
7.43015e-06
7.14854e-06
6.63213e-06
5.90088e-06
5.10542e-06
4.45456e-06
4.1607e-06
4.56637e-06
6.54549e-06
5.73004e-06
1.61755e-06
1.09249e-07
4.07958e-08
2.03648e-06
5.02687e-06
1.05648e-05
1.91231e-05
2.69285e-05
3.08289e-05
3.15302e-05
3.00761e-05
2.73233e-05
2.40605e-05
2.08824e-05
1.80985e-05
1.5782e-05
1.38834e-05
1.23199e-05
1.10171e-05
9.92149e-06
9.00303e-06
8.26544e-06
7.74957e-06
7.46417e-06
7.32339e-06
7.19916e-06
6.94604e-06
6.46169e-06
5.76514e-06
5.00877e-06
4.40253e-06
4.16211e-06
4.6465e-06
6.74517e-06
5.57677e-06
1.62019e-06
1.14699e-07
4.3976e-08
2.05517e-06
5.07429e-06
1.06971e-05
1.93736e-05
2.71657e-05
3.09461e-05
3.15093e-05
2.99387e-05
2.712e-05
2.38474e-05
2.06955e-05
1.79476e-05
1.56592e-05
1.37743e-05
1.22095e-05
1.08931e-05
9.77512e-06
8.82982e-06
8.06642e-06
7.53241e-06
7.24007e-06
7.10208e-06
6.9897e-06
6.75737e-06
6.30316e-06
5.64535e-06
4.93368e-06
4.37493e-06
4.18778e-06
4.75022e-06
6.95991e-06
5.44303e-06
1.62403e-06
1.19828e-07
4.73666e-08
2.07441e-06
5.12435e-06
1.08407e-05
1.9644e-05
2.74077e-05
3.1054e-05
3.14835e-05
2.98156e-05
2.69547e-05
2.36896e-05
2.05713e-05
1.78593e-05
1.55959e-05
1.37209e-05
1.21517e-05
1.08188e-05
9.67533e-06
8.69923e-06
7.90403e-06
7.34237e-06
7.03261e-06
6.88756e-06
6.77946e-06
6.56433e-06
6.14113e-06
5.52665e-06
4.8651e-06
4.35739e-06
4.22488e-06
4.8656e-06
7.17698e-06
5.3319e-06
1.62929e-06
1.24643e-07
5.07009e-08
2.09389e-06
5.17613e-06
1.09851e-05
1.9906e-05
2.76382e-05
3.11612e-05
3.14695e-05
2.97155e-05
2.68215e-05
2.35704e-05
2.04895e-05
1.78156e-05
1.55787e-05
1.37146e-05
1.2141e-05
1.07909e-05
9.62012e-06
8.61094e-06
7.78045e-06
7.18592e-06
6.85264e-06
6.69399e-06
6.58407e-06
6.38209e-06
5.98908e-06
5.41939e-06
4.80964e-06
4.35391e-06
4.27674e-06
4.99688e-06
7.40085e-06
5.24007e-06
1.63603e-06
1.29194e-07
5.41605e-08
2.11382e-06
5.23014e-06
1.1138e-05
2.01816e-05
2.78741e-05
3.12698e-05
3.14637e-05
2.96377e-05
2.67248e-05
2.34966e-05
2.0456e-05
1.78199e-05
1.56082e-05
1.37539e-05
1.21752e-05
1.08064e-05
9.60654e-06
8.56113e-06
7.69045e-06
7.05534e-06
6.69039e-06
6.51075e-06
6.3931e-06
6.20076e-06
5.83731e-06
5.31383e-06
4.7579e-06
4.35586e-06
4.3355e-06
5.13637e-06
7.62395e-06
5.16703e-06
1.64418e-06
1.33497e-07
5.75917e-08
2.13387e-06
5.28538e-06
1.12925e-05
2.04539e-05
2.81054e-05
3.13832e-05
3.14745e-05
2.95872e-05
2.66631e-05
2.34614e-05
2.04623e-05
1.78642e-05
1.56782e-05
1.38344e-05
1.2251e-05
1.08635e-05
9.63317e-06
8.54872e-06
7.63393e-06
6.95242e-06
6.54945e-06
6.34298e-06
6.21293e-06
6.02734e-06
5.69242e-06
5.21526e-06
4.71352e-06
4.36566e-06
4.40307e-06
5.28617e-06
7.84809e-06
5.11011e-06
1.65367e-06
1.37594e-07
6.11018e-08
2.15428e-06
5.34276e-06
1.1455e-05
2.07388e-05
2.83442e-05
3.15039e-05
3.14992e-05
2.95599e-05
2.66322e-05
2.3461e-05
2.05043e-05
1.79447e-05
1.5785e-05
1.3953e-05
1.23662e-05
1.09607e-05
9.69947e-06
8.57363e-06
7.61019e-06
6.87556e-06
6.42704e-06
6.18697e-06
6.03909e-06
5.85671e-06
5.5487e-06
5.11757e-06
4.67037e-06
4.37743e-06
4.47387e-06
5.44065e-06
8.06868e-06
5.06754e-06
1.66433e-06
1.41495e-07
6.45958e-08
2.17458e-06
5.40091e-06
1.162e-05
2.1025e-05
2.85849e-05
3.16348e-05
3.15436e-05
2.95601e-05
2.66328e-05
2.34927e-05
2.05782e-05
1.80568e-05
1.59246e-05
1.41061e-05
1.25176e-05
1.10954e-05
9.80316e-06
8.63391e-06
7.6179e-06
6.82485e-06
6.32426e-06
6.04474e-06
5.87446e-06
5.69228e-06
5.40961e-06
5.02383e-06
4.63096e-06
4.39323e-06
4.5498e-06
5.60205e-06
8.2882e-06
5.0375e-06
1.6761e-06
1.45225e-07
6.8141e-08
2.19499e-06
5.46078e-06
1.17928e-05
2.1325e-05
2.88373e-05
3.17784e-05
3.16049e-05
2.9581e-05
2.66564e-05
2.35483e-05
2.06767e-05
1.81954e-05
1.60932e-05
1.42915e-05
1.2705e-05
1.12688e-05
9.94641e-06
8.73258e-06
7.66048e-06
6.80331e-06
6.24298e-06
5.91699e-06
5.71845e-06
5.53208e-06
5.27186e-06
4.92976e-06
4.59052e-06
4.40812e-06
4.62569e-06
5.76419e-06
8.50035e-06
5.0169e-06
1.68855e-06
1.48787e-07
7.16727e-08
2.21496e-06
5.5207e-06
1.19686e-05
2.16315e-05
2.91011e-05
3.19408e-05
3.16885e-05
2.96252e-05
2.67023e-05
2.36251e-05
2.07961e-05
1.83559e-05
1.62861e-05
1.45044e-05
1.29234e-05
1.14762e-05
1.01255e-05
8.86676e-06
7.73616e-06
6.81072e-06
6.18407e-06
5.80545e-06
5.57354e-06
5.37908e-06
5.13853e-06
4.83829e-06
4.55173e-06
4.42463e-06
4.70424e-06
5.93139e-06
8.71404e-06
5.00559e-06
1.70176e-06
1.52202e-07
7.52348e-08
2.2347e-06
5.58118e-06
1.21496e-05
2.19495e-05
2.93762e-05
3.21151e-05
3.17874e-05
2.96826e-05
2.67604e-05
2.3715e-05
2.09309e-05
1.8535e-05
1.65016e-05
1.47448e-05
1.31742e-05
1.17205e-05
1.03443e-05
9.04121e-06
7.85006e-06
6.85209e-06
6.15138e-06
5.71269e-06
5.44092e-06
5.23295e-06
5.00784e-06
4.74647e-06
4.51088e-06
4.43867e-06
4.78136e-06
6.09974e-06
8.92645e-06
5.00467e-06
1.71568e-06
1.55472e-07
7.87782e-08
2.25381e-06
5.64072e-06
1.23296e-05
2.22625e-05
2.9634e-05
3.22749e-05
3.18806e-05
2.97438e-05
2.68265e-05
2.38146e-05
2.10765e-05
1.87267e-05
1.67327e-05
1.50049e-05
1.34499e-05
1.19946e-05
1.0597e-05
9.25152e-06
7.9993e-06
6.92605e-06
6.14507e-06
5.64031e-06
5.32314e-06
5.09677e-06
4.88293e-06
4.65724e-06
4.47067e-06
4.45262e-06
4.85873e-06
6.26974e-06
9.1374e-06
5.01258e-06
1.7305e-06
1.58618e-07
8.23382e-08
2.27273e-06
5.70051e-06
1.25109e-05
2.2572e-05
2.98845e-05
3.24281e-05
3.19698e-05
2.98111e-05
2.68999e-05
2.39216e-05
2.12312e-05
1.89306e-05
1.69802e-05
1.52866e-05
1.37528e-05
1.23017e-05
1.08874e-05
9.50211e-06
8.18837e-06
7.03654e-06
6.16851e-06
5.59081e-06
5.22173e-06
4.97091e-06
4.76296e-06
4.56866e-06
4.42835e-06
4.4635e-06
4.9345e-06
6.4432e-06
9.34613e-06
5.02801e-06
1.74613e-06
1.61646e-07
8.58765e-08
2.29113e-06
5.76028e-06
1.2694e-05
2.28734e-05
3.01211e-05
3.25675e-05
3.20461e-05
2.98669e-05
2.69671e-05
2.40267e-05
2.13869e-05
1.91382e-05
1.72349e-05
1.55801e-05
1.40734e-05
1.26332e-05
1.12082e-05
9.78737e-06
8.41358e-06
7.18164e-06
6.22202e-06
5.56606e-06
5.13956e-06
4.8587e-06
4.65128e-06
4.4839e-06
4.38694e-06
4.4743e-06
5.01146e-06
6.6211e-06
9.55488e-06
5.04984e-06
1.76251e-06
1.64569e-07
8.94175e-08
2.30891e-06
5.81942e-06
1.28788e-05
2.31685e-05
3.03465e-05
3.26956e-05
3.21132e-05
2.99178e-05
2.70385e-05
2.41366e-05
2.15471e-05
1.93521e-05
1.74995e-05
1.58884e-05
1.44146e-05
1.29916e-05
1.15622e-05
1.01105e-05
8.67844e-06
7.36471e-06
6.30853e-06
5.5683e-06
5.07828e-06
4.76107e-06
4.54786e-06
4.40184e-06
4.3443e-06
4.48199e-06
5.0855e-06
6.79768e-06
9.76061e-06
5.07703e-06
1.77943e-06
1.67395e-07
9.29206e-08
2.32568e-06
5.87605e-06
1.30584e-05
2.34528e-05
3.05562e-05
3.28074e-05
3.21638e-05
2.99519e-05
2.70956e-05
2.42343e-05
2.16984e-05
1.95611e-05
1.77636e-05
1.62011e-05
1.47661e-05
1.33672e-05
1.19409e-05
1.04647e-05
8.97825e-06
7.58337e-06
6.42824e-06
5.59938e-06
5.04064e-06
4.68124e-06
4.45614e-06
4.32593e-06
4.30377e-06
4.48978e-06
5.15957e-06
6.97557e-06
9.96482e-06
5.10861e-06
1.79683e-06
1.70135e-07
9.64265e-08
2.34226e-06
5.93266e-06
1.32383e-05
2.37324e-05
3.07554e-05
3.29075e-05
3.22032e-05
2.99764e-05
2.71452e-05
2.43278e-05
2.18486e-05
1.97718e-05
1.80323e-05
1.65223e-05
1.5131e-05
1.37622e-05
1.23455e-05
1.08512e-05
9.31467e-06
7.83973e-06
6.58353e-06
5.6615e-06
5.0285e-06
4.62052e-06
4.37663e-06
4.25572e-06
4.26391e-06
4.49519e-06
5.23015e-06
7.15015e-06
1.01654e-05
5.14409e-06
1.81459e-06
1.72799e-07
9.98887e-08
2.35783e-06
5.98695e-06
1.34137e-05
2.40005e-05
3.09374e-05
3.29887e-05
3.22226e-05
2.99806e-05
2.71756e-05
2.44051e-05
2.19855e-05
1.99723e-05
1.82944e-05
1.68412e-05
1.54991e-05
1.4167e-05
1.27674e-05
1.12623e-05
9.68183e-06
8.13035e-06
6.77378e-06
5.75573e-06
5.044e-06
4.58176e-06
4.31258e-06
4.1946e-06
4.22804e-06
4.50138e-06
5.30007e-06
7.32434e-06
1.03638e-05
5.18262e-06
1.83264e-06
1.75397e-07
1.03356e-07
2.37342e-06
6.04162e-06
1.35899e-05
2.42638e-05
3.11082e-05
3.30566e-05
3.22281e-05
2.99718e-05
2.71952e-05
2.44751e-05
2.21175e-05
2.01696e-05
1.85557e-05
1.71625e-05
1.58735e-05
1.45832e-05
1.32068e-05
1.16979e-05
1.00795e-05
8.45557e-06
7.00021e-06
5.88337e-06
5.08839e-06
4.56606e-06
4.26475e-06
4.1427e-06
4.19544e-06
4.50684e-06
5.36765e-06
7.49447e-06
1.05588e-05
5.22407e-06
1.85093e-06
1.77941e-07
1.06784e-07
2.38828e-06
6.09467e-06
1.37619e-05
2.45148e-05
3.12604e-05
3.3103e-05
3.221e-05
2.99382e-05
2.71908e-05
2.45276e-05
2.22334e-05
2.03522e-05
1.88054e-05
1.74763e-05
1.62453e-05
1.50024e-05
1.36558e-05
1.21499e-05
1.05006e-05
8.81023e-06
7.26024e-06
6.04383e-06
5.16263e-06
4.57547e-06
4.23586e-06
4.10311e-06
4.1694e-06
4.51523e-06
5.43708e-06
7.664e-06
1.07515e-05
5.26751e-06
1.86935e-06
1.80434e-07
1.10225e-07
2.40344e-06
6.14881e-06
1.39347e-05
2.47594e-05
3.13993e-05
3.3134e-05
3.21757e-05
2.98887e-05
2.7171e-05
2.4565e-05
2.23366e-05
2.05256e-05
1.90491e-05
1.77873e-05
1.66177e-05
1.54262e-05
1.41142e-05
1.26174e-05
1.09434e-05
9.19234e-06
7.5522e-06
6.236e-06
5.26632e-06
4.61014e-06
4.22635e-06
4.07622e-06
4.15e-06
4.5259e-06
5.50621e-06
7.83113e-06
1.0942e-05
5.31308e-06
1.88786e-06
1.82885e-07
1.13615e-07
2.41811e-06
6.20243e-06
1.41022e-05
2.49899e-05
3.1518e-05
3.3141e-05
3.21155e-05
2.98141e-05
2.71278e-05
2.45811e-05
2.24212e-05
2.06831e-05
1.92799e-05
1.80885e-05
1.6984e-05
1.58479e-05
1.45754e-05
1.30932e-05
1.14007e-05
9.59498e-06
7.87022e-06
6.45627e-06
5.39791e-06
4.67034e-06
4.23792e-06
4.06467e-06
4.14023e-06
4.54175e-06
5.57775e-06
7.99898e-06
1.11311e-05
5.35992e-06
1.90637e-06
1.85292e-07
1.16993e-07
2.43242e-06
6.25583e-06
1.42679e-05
2.52146e-05
3.16239e-05
3.31323e-05
3.20382e-05
2.97197e-05
2.70636e-05
2.45781e-05
2.24908e-05
2.08291e-05
1.95015e-05
1.83832e-05
1.73464e-05
1.62689e-05
1.50393e-05
1.35758e-05
1.18696e-05
1.00145e-05
8.21002e-06
6.70095e-06
5.55471e-06
4.75445e-06
4.26993e-06
4.06842e-06
4.14017e-06
4.56254e-06
5.65082e-06
8.16623e-06
1.13187e-05
5.40803e-06
1.92483e-06
1.87655e-07
1.20333e-07
2.44552e-06
6.30701e-06
1.44313e-05
2.54284e-05
3.17115e-05
3.31025e-05
3.19387e-05
2.9605e-05
2.6981e-05
2.45558e-05
2.25383e-05
2.09536e-05
1.97061e-05
1.86648e-05
1.76992e-05
1.66836e-05
1.55007e-05
1.40599e-05
1.23445e-05
1.04447e-05
8.56542e-06
6.96523e-06
5.73344e-06
4.86088e-06
4.32248e-06
4.08902e-06
4.15234e-06
4.59126e-06
5.72876e-06
8.33651e-06
1.15056e-05
5.45669e-06
1.94315e-06
1.89964e-07
1.2368e-07
2.45863e-06
6.35837e-06
1.45944e-05
2.56342e-05
3.17848e-05
3.30558e-05
3.18206e-05
2.94702e-05
2.6878e-05
2.45156e-05
2.25729e-05
2.10671e-05
1.98987e-05
1.89363e-05
1.80445e-05
1.7093e-05
1.59592e-05
1.45443e-05
1.28233e-05
1.08831e-05
8.93336e-06
7.24586e-06
5.93101e-06
4.98704e-06
4.39373e-06
4.12541e-06
4.17626e-06
4.62768e-06
5.81127e-06
8.50925e-06
1.16917e-05
5.50598e-06
1.96131e-06
1.92216e-07
1.26977e-07
2.47053e-06
6.40712e-06
1.47526e-05
2.58267e-05
3.18385e-05
3.29872e-05
3.16799e-05
2.93136e-05
2.67538e-05
2.44542e-05
2.25872e-05
2.11627e-05
2.00759e-05
1.91918e-05
1.83762e-05
1.74925e-05
1.64107e-05
1.50245e-05
1.33011e-05
1.13243e-05
9.30871e-06
7.53876e-06
6.14439e-06
5.13105e-06
4.48312e-06
4.17833e-06
4.21365e-06
4.67419e-06
5.90132e-06
8.68779e-06
1.18776e-05
5.55523e-06
1.97923e-06
1.94395e-07
1.30281e-07
2.48239e-06
6.45611e-06
1.49109e-05
2.60116e-05
3.18788e-05
3.29029e-05
3.15219e-05
2.91389e-05
2.66116e-05
2.43756e-05
2.25856e-05
2.1244e-05
2.02411e-05
1.94381e-05
1.8697e-05
1.78821e-05
1.68549e-05
1.54996e-05
1.37765e-05
1.17665e-05
9.6893e-06
7.84135e-06
6.37073e-06
5.29007e-06
4.58825e-06
4.24625e-06
4.26393e-06
4.7308e-06
5.99909e-06
8.87214e-06
1.20634e-05
5.60453e-06
1.99689e-06
1.96495e-07
1.33528e-07
2.49322e-06
6.50256e-06
1.50634e-05
2.61816e-05
3.18994e-05
3.27972e-05
3.13419e-05
2.89424e-05
2.64482e-05
2.42764e-05
2.25645e-05
2.1307e-05
2.03891e-05
1.9669e-05
1.90057e-05
1.82586e-05
1.72874e-05
1.59656e-05
1.42451e-05
1.22052e-05
1.00711e-05
8.15077e-06
6.60799e-06
5.46253e-06
4.70798e-06
4.32872e-06
4.32771e-06
4.79936e-06
6.10751e-06
9.06582e-06
1.22499e-05
5.65367e-06
2.01426e-06
1.98503e-07
1.36761e-07
2.50385e-06
6.54877e-06
1.5215e-05
2.6344e-05
3.19077e-05
3.26771e-05
3.11461e-05
2.87297e-05
2.62687e-05
2.41614e-05
2.25285e-05
2.13557e-05
2.05235e-05
1.98869e-05
1.93023e-05
1.86248e-05
1.77076e-05
1.64203e-05
1.47053e-05
1.2639e-05
1.04526e-05
8.46537e-06
6.85457e-06
5.64684e-06
4.84062e-06
4.42399e-06
4.40337e-06
4.87855e-06
6.22563e-06
9.26795e-06
1.24362e-05
5.70263e-06
2.03134e-06
2.00413e-07
1.39922e-07
2.51353e-06
6.59253e-06
1.53607e-05
2.64918e-05
3.18975e-05
3.25369e-05
3.09294e-05
2.84964e-05
2.60691e-05
2.40269e-05
2.24739e-05
2.13868e-05
2.06409e-05
2.00885e-05
1.95833e-05
1.89765e-05
1.81151e-05
1.6861e-05
1.51527e-05
1.30636e-05
1.08303e-05
8.78284e-06
7.10929e-06
5.84276e-06
4.98659e-06
4.53283e-06
4.49192e-06
4.96973e-06
6.35542e-06
9.48088e-06
1.26226e-05
5.75129e-06
2.04811e-06
2.02212e-07
1.43046e-07
2.52295e-06
6.63574e-06
1.55049e-05
2.66317e-05
3.18758e-05
3.23835e-05
3.06987e-05
2.8249e-05
2.58557e-05
2.38788e-05
2.2406e-05
2.14045e-05
2.07446e-05
2.0276e-05
1.98497e-05
1.93132e-05
1.85076e-05
1.72877e-05
1.55864e-05
1.34772e-05
1.1202e-05
9.10077e-06
7.3698e-06
6.04832e-06
5.14443e-06
4.65422e-06
4.59249e-06
5.07205e-06
6.49602e-06
9.7037e-06
1.28093e-05
5.79993e-06
2.06464e-06
2.03907e-07
1.46084e-07
2.53154e-06
6.67674e-06
1.56435e-05
2.6758e-05
3.18372e-05
3.22117e-05
3.04488e-05
2.79829e-05
2.56245e-05
2.37135e-05
2.23217e-05
2.14062e-05
2.08325e-05
2.04475e-05
2.00998e-05
1.96331e-05
1.88829e-05
1.76971e-05
1.60038e-05
1.38772e-05
1.15654e-05
9.41741e-06
7.63479e-06
6.26261e-06
5.31376e-06
4.78847e-06
4.70619e-06
5.18718e-06
6.64926e-06
9.93789e-06
1.29967e-05
5.84883e-06
2.08096e-06
2.05504e-07
1.49067e-07
2.53984e-06
6.71701e-06
1.578e-05
2.68761e-05
3.17877e-05
3.20277e-05
3.01863e-05
2.77048e-05
2.5382e-05
2.35372e-05
2.22263e-05
2.13964e-05
2.09079e-05
2.06053e-05
2.03348e-05
1.99363e-05
1.92398e-05
1.80873e-05
1.64026e-05
1.42611e-05
1.19186e-05
9.73085e-06
7.90223e-06
6.48363e-06
5.49276e-06
4.93402e-06
4.83164e-06
5.31394e-06
6.81435e-06
1.01825e-05
1.31853e-05
5.89845e-06
2.09717e-06
2.07021e-07
1.51954e-07
2.54738e-06
6.75517e-06
1.59112e-05
2.69816e-05
3.17228e-05
3.18268e-05
2.99066e-05
2.74105e-05
2.51246e-05
2.33469e-05
2.21176e-05
2.13734e-05
2.09699e-05
2.07491e-05
2.05548e-05
2.02231e-05
1.9579e-05
1.84585e-05
1.67823e-05
1.46277e-05
1.22579e-05
1.00379e-05
8.1699e-06
6.70985e-06
5.68038e-06
5.0903e-06
4.96897e-06
5.45332e-06
6.99211e-06
1.04383e-05
1.33754e-05
5.94899e-06
2.11334e-06
2.08468e-07
1.54773e-07
2.55461e-06
6.79255e-06
1.60401e-05
2.70792e-05
3.16474e-05
3.16142e-05
2.96155e-05
2.71062e-05
2.48584e-05
2.31481e-05
2.20003e-05
2.1341e-05
2.10212e-05
2.08805e-05
2.07604e-05
2.04934e-05
1.98993e-05
1.88091e-05
1.71413e-05
1.49762e-05
1.25844e-05
1.03381e-05
8.43621e-06
6.93922e-06
5.87467e-06
5.25582e-06
5.11745e-06
5.60556e-06
7.18239e-06
1.07046e-05
1.35667e-05
6.00035e-06
2.12935e-06
2.09853e-07
1.57489e-07
2.56114e-06
6.82792e-06
1.61639e-05
2.71648e-05
3.15574e-05
3.13857e-05
2.93088e-05
2.67881e-05
2.45803e-05
2.29387e-05
2.18731e-05
2.12988e-05
2.10619e-05
2.10003e-05
2.09529e-05
2.07487e-05
2.02024e-05
1.91406e-05
1.74805e-05
1.53065e-05
1.28972e-05
1.06307e-05
8.70018e-06
7.17063e-06
6.07458e-06
5.42977e-06
5.27655e-06
5.77016e-06
7.3858e-06
1.09819e-05
1.37598e-05
6.05296e-06
2.14563e-06
2.11192e-07
1.6013e-07
2.56738e-06
6.86254e-06
1.62856e-05
2.72425e-05
3.14569e-05
3.11457e-05
2.89913e-05
2.64614e-05
2.42953e-05
2.2723e-05
2.17396e-05
2.12494e-05
2.10942e-05
2.11098e-05
2.11329e-05
2.09888e-05
2.04878e-05
1.94525e-05
1.77997e-05
1.56187e-05
1.31964e-05
1.09154e-05
8.96095e-06
7.40279e-06
6.27847e-06
5.6104e-06
5.44454e-06
5.94546e-06
7.60116e-06
1.12692e-05
1.39543e-05
6.10694e-06
2.16214e-06
2.12497e-07
1.6267e-07
2.57299e-06
6.89535e-06
1.64026e-05
2.73088e-05
3.13424e-05
3.08906e-05
2.86598e-05
2.61233e-05
2.40013e-05
2.24996e-05
2.1599e-05
2.11927e-05
2.11185e-05
2.12101e-05
2.1302e-05
2.12158e-05
2.07576e-05
1.97466e-05
1.81005e-05
1.59144e-05
1.34831e-05
1.11927e-05
9.21859e-06
7.63525e-06
6.48575e-06
5.79706e-06
5.62089e-06
6.1312e-06
7.82849e-06
1.15665e-05
1.41504e-05
6.16247e-06
2.17885e-06
2.13777e-07
1.6513e-07
2.57828e-06
6.92732e-06
1.65172e-05
2.7367e-05
3.12172e-05
3.06238e-05
2.83181e-05
2.57778e-05
2.37021e-05
2.2272e-05
2.14542e-05
2.1131e-05
2.11362e-05
2.13019e-05
2.14601e-05
2.14293e-05
2.10112e-05
2.00228e-05
1.83833e-05
1.61945e-05
1.37587e-05
1.14635e-05
9.47348e-06
7.86798e-06
6.69558e-06
5.98836e-06
5.80386e-06
6.32556e-06
8.06606e-06
1.18721e-05
1.43477e-05
6.21943e-06
2.19573e-06
2.15041e-07
1.67492e-07
2.58301e-06
6.95763e-06
1.66273e-05
2.74142e-05
3.10783e-05
3.03425e-05
2.79638e-05
2.54231e-05
2.33964e-05
2.20393e-05
2.13048e-05
2.10646e-05
2.11483e-05
2.13866e-05
2.16092e-05
2.16311e-05
2.12504e-05
2.02825e-05
1.86495e-05
1.64604e-05
1.40251e-05
1.17288e-05
9.72612e-06
8.1011e-06
6.90797e-06
6.18436e-06
5.9935e-06
6.52855e-06
8.31383e-06
1.21857e-05
1.45458e-05
6.27771e-06
2.21276e-06
2.16293e-07
1.69776e-07
2.58742e-06
6.9871e-06
1.6735e-05
2.74531e-05
3.09284e-05
3.00495e-05
2.75999e-05
2.50622e-05
2.3087e-05
2.1804e-05
2.11529e-05
2.09947e-05
2.11556e-05
2.14645e-05
2.17491e-05
2.18209e-05
2.1475e-05
2.0526e-05
1.89e-05
1.67142e-05
1.42848e-05
1.19901e-05
9.97705e-06
8.33461e-06
7.12276e-06
6.3842e-06
6.18859e-06
6.73883e-06
8.57043e-06
1.25059e-05
1.47443e-05
6.33706e-06
2.22992e-06
2.17531e-07
1.71962e-07
2.59129e-06
7.0149e-06
1.68382e-05
2.74812e-05
3.07651e-05
2.97425e-05
2.72247e-05
2.4694e-05
2.27733e-05
2.15658e-05
2.09986e-05
2.09221e-05
2.1159e-05
2.15368e-05
2.1881e-05
2.2e-05
2.1686e-05
2.07537e-05
1.91351e-05
1.69563e-05
1.45388e-05
1.22482e-05
1.02269e-05
8.56894e-06
7.34006e-06
6.58805e-06
6.38944e-06
6.95672e-06
8.83619e-06
1.28329e-05
1.49427e-05
6.39709e-06
2.24716e-06
2.18752e-07
1.7407e-07
2.59484e-06
7.04185e-06
1.6939e-05
2.75009e-05
3.05905e-05
2.94236e-05
2.68403e-05
2.43206e-05
2.24571e-05
2.13264e-05
2.08432e-05
2.08476e-05
2.11591e-05
2.16039e-05
2.20053e-05
2.21686e-05
2.18835e-05
2.09663e-05
1.93555e-05
1.71872e-05
1.47873e-05
1.25033e-05
1.04756e-05
8.80392e-06
7.55953e-06
6.79567e-06
6.59537e-06
7.18142e-06
9.11022e-06
1.31657e-05
1.5141e-05
6.45793e-06
2.26451e-06
2.1996e-07
1.76083e-07
2.59787e-06
7.06715e-06
1.70351e-05
2.75099e-05
3.04025e-05
2.90911e-05
2.64456e-05
2.39414e-05
2.21382e-05
2.10857e-05
2.06869e-05
2.07718e-05
2.11566e-05
2.16667e-05
2.21229e-05
2.23275e-05
2.20684e-05
2.1164e-05
1.95611e-05
1.74061e-05
1.50287e-05
1.27544e-05
1.0723e-05
9.03982e-06
7.78172e-06
7.00745e-06
6.80669e-06
7.41321e-06
9.39263e-06
1.3504e-05
1.53386e-05
6.51918e-06
2.2819e-06
2.21154e-07
1.78017e-07
2.60056e-06
7.09143e-06
1.71285e-05
2.75101e-05
3.02027e-05
2.87465e-05
2.60424e-05
2.35581e-05
2.18183e-05
2.08453e-05
2.0531e-05
2.06955e-05
2.11522e-05
2.17256e-05
2.22342e-05
2.24774e-05
2.22415e-05
2.13479e-05
1.97528e-05
1.76134e-05
1.52624e-05
1.30007e-05
1.09682e-05
9.27562e-06
8.00565e-06
7.22271e-06
7.02346e-06
7.65226e-06
9.68372e-06
1.3848e-05
1.5536e-05
6.5812e-06
2.29942e-06
2.22342e-07
1.79861e-07
2.60275e-06
7.11412e-06
1.72174e-05
2.74997e-05
2.99893e-05
2.83885e-05
2.56299e-05
2.31703e-05
2.14971e-05
2.06054e-05
2.03759e-05
2.06191e-05
2.11465e-05
2.17813e-05
2.23403e-05
2.26194e-05
2.24039e-05
2.15192e-05
1.99316e-05
1.781e-05
1.54887e-05
1.32426e-05
1.12117e-05
9.51183e-06
8.23164e-06
7.44136e-06
7.24491e-06
7.89732e-06
9.98224e-06
1.41964e-05
1.57328e-05
6.64364e-06
2.31702e-06
2.23527e-07
1.81627e-07
2.60459e-06
7.13569e-06
1.73031e-05
2.748e-05
2.97637e-05
2.80185e-05
2.52096e-05
2.27795e-05
2.11763e-05
2.03677e-05
2.02226e-05
2.05432e-05
2.11396e-05
2.18343e-05
2.24414e-05
2.2754e-05
2.25564e-05
2.16788e-05
2.00986e-05
1.79964e-05
1.57074e-05
1.34794e-05
1.14523e-05
9.74754e-06
8.45907e-06
7.6632e-06
7.47142e-06
8.14973e-06
1.0289e-05
1.45497e-05
1.59293e-05
6.70671e-06
2.33474e-06
2.24713e-07
1.83309e-07
2.60595e-06
7.15572e-06
1.73845e-05
2.74496e-05
2.95242e-05
2.76353e-05
2.4781e-05
2.23852e-05
2.08551e-05
2.01336e-05
2.00718e-05
2.04681e-05
2.11321e-05
2.18853e-05
2.25387e-05
2.28825e-05
2.27006e-05
2.18288e-05
2.02563e-05
1.81754e-05
1.59207e-05
1.37125e-05
1.16914e-05
9.98342e-06
8.6881e-06
7.88784e-06
7.70201e-06
8.40764e-06
1.06021e-05
1.49061e-05
1.61248e-05
6.77005e-06
2.35253e-06
2.259e-07
1.84915e-07
2.60693e-06
7.17448e-06
1.74623e-05
2.74094e-05
2.92718e-05
2.72403e-05
2.43459e-05
2.19892e-05
2.05342e-05
1.98999e-05
1.99214e-05
2.0393e-05
2.11241e-05
2.19344e-05
2.26324e-05
2.30051e-05
2.28368e-05
2.19696e-05
2.04054e-05
1.83479e-05
1.61285e-05
1.39417e-05
1.19285e-05
1.02194e-05
8.91911e-06
8.11595e-06
7.93738e-06
8.67184e-06
1.09224e-05
1.52654e-05
1.63198e-05
6.83375e-06
2.37043e-06
2.27093e-07
1.86448e-07
2.60749e-06
7.19186e-06
1.75362e-05
2.73586e-05
2.90054e-05
2.68326e-05
2.39038e-05
2.15915e-05
2.02145e-05
1.96686e-05
1.97734e-05
2.03198e-05
2.11169e-05
2.19829e-05
2.27234e-05
2.31231e-05
2.29666e-05
2.21038e-05
2.05496e-05
1.85182e-05
1.63334e-05
1.4168e-05
1.21639e-05
1.04555e-05
9.15194e-06
8.34735e-06
8.17733e-06
8.94203e-06
1.12495e-05
1.56279e-05
1.65146e-05
6.89777e-06
2.38844e-06
2.28295e-07
1.87906e-07
2.60762e-06
7.20778e-06
1.76059e-05
2.72972e-05
2.87251e-05
2.64131e-05
2.34561e-05
2.11931e-05
1.98964e-05
1.94395e-05
1.96273e-05
2.0248e-05
2.11101e-05
2.20305e-05
2.28117e-05
2.32359e-05
2.30897e-05
2.22314e-05
2.06897e-05
1.86883e-05
1.65365e-05
1.43916e-05
1.23972e-05
1.06911e-05
9.38634e-06
8.58221e-06
8.42244e-06
9.21905e-06
1.15842e-05
1.59944e-05
1.67096e-05
6.96247e-06
2.4066e-06
2.29517e-07
1.893e-07
2.60735e-06
7.22245e-06
1.76722e-05
2.7225e-05
2.84302e-05
2.59811e-05
2.30025e-05
2.07943e-05
1.95807e-05
1.92137e-05
1.94848e-05
2.01793e-05
2.11058e-05
2.20792e-05
2.28991e-05
2.33458e-05
2.3208e-05
2.23541e-05
2.08274e-05
1.88598e-05
1.67389e-05
1.46131e-05
1.26284e-05
1.09256e-05
9.62115e-06
8.81937e-06
8.67188e-06
9.50245e-06
1.19261e-05
1.63638e-05
1.69041e-05
7.02767e-06
2.42493e-06
2.30764e-07
1.90632e-07
2.60669e-06
7.23575e-06
1.77344e-05
2.71416e-05
2.81206e-05
2.55373e-05
2.25442e-05
2.03959e-05
1.92675e-05
1.89912e-05
1.93455e-05
2.01137e-05
2.1104e-05
2.21293e-05
2.29861e-05
2.34529e-05
2.33217e-05
2.24718e-05
2.09617e-05
1.90303e-05
1.69394e-05
1.48322e-05
1.28575e-05
1.1159e-05
9.85635e-06
9.05867e-06
8.92551e-06
9.79223e-06
1.22754e-05
1.67362e-05
1.70975e-05
7.09307e-06
2.44341e-06
2.32028e-07
1.91908e-07
2.60566e-06
7.24789e-06
1.77934e-05
2.70469e-05
2.77954e-05
2.50812e-05
2.20811e-05
1.99982e-05
1.89578e-05
1.87731e-05
1.9211e-05
2.00529e-05
2.11066e-05
2.21828e-05
2.30749e-05
2.35597e-05
2.34331e-05
2.25861e-05
2.10932e-05
1.91991e-05
1.71374e-05
1.50484e-05
1.30841e-05
1.13909e-05
1.00915e-05
9.29955e-06
9.18267e-06
1.00881e-05
1.26317e-05
1.7111e-05
1.72897e-05
7.15876e-06
2.46205e-06
2.33312e-07
1.93138e-07
2.60431e-06
7.25906e-06
1.78494e-05
2.69409e-05
2.74543e-05
2.46131e-05
2.16139e-05
1.96018e-05
1.86515e-05
1.85594e-05
1.90812e-05
1.9997e-05
2.11139e-05
2.22404e-05
2.31665e-05
2.36674e-05
2.35435e-05
2.26986e-05
2.12231e-05
1.93661e-05
1.73327e-05
1.5262e-05
1.33086e-05
1.16216e-05
1.03267e-05
9.54237e-06
9.44459e-06
1.03897e-05
1.29947e-05
1.7488e-05
1.74803e-05
7.22453e-06
2.48085e-06
2.34614e-07
1.94325e-07
2.60268e-06
7.26938e-06
1.79026e-05
2.68228e-05
2.70966e-05
2.4133e-05
2.11431e-05
1.92073e-05
1.83498e-05
1.83511e-05
1.89573e-05
1.99472e-05
2.11273e-05
2.23035e-05
2.32622e-05
2.37774e-05
2.36548e-05
2.28114e-05
2.13531e-05
1.95321e-05
1.75256e-05
1.54726e-05
1.35306e-05
1.18508e-05
1.05618e-05
9.78732e-06
9.71128e-06
1.06973e-05
1.33639e-05
1.78666e-05
1.76694e-05
7.29052e-06
2.49983e-06
2.35941e-07
1.95483e-07
2.60084e-06
7.27918e-06
1.79539e-05
2.66926e-05
2.67218e-05
2.36411e-05
2.0669e-05
1.88151e-05
1.80527e-05
1.81484e-05
1.88394e-05
1.99038e-05
2.11475e-05
2.23732e-05
2.33636e-05
2.38917e-05
2.37691e-05
2.29269e-05
2.14865e-05
1.96987e-05
1.77171e-05
1.56809e-05
1.37506e-05
1.20792e-05
1.07977e-05
1.00349e-05
9.9827e-06
1.1011e-05
1.37394e-05
1.82464e-05
1.78568e-05
7.3565e-06