/*--------------------------------*- C++ -*----------------------------------*\
| =========                 |                                                 |
| \\      /  F ield         | OpenFOAM: The Open Source CFD Toolbox           |
|  \\    /   O peration     | Version:  v2006                                 |
|   \\  /    A nd           | Website:  www.openfoam.com                      |
|    \\/     M anipulation  |                                                 |
\*---------------------------------------------------------------------------*/
FoamFile
{
    version     2.0;
    format      ascii;
    class       surfaceScalarField;
    location    "68";
    object      phi;
}
// * * * * * * * * * * * * * * * * * * * * * * * * * * * * * * * * * * * * * //

dimensions      [1 0 -1 0 0 0 0];
oriented        oriented;


internalField   nonuniform List<scalar> 
228225
(
6.16848e-08
-1.26618e-07
6.32352e-08
1.85923e-07
-2.88932e-07
1.64451e-07
4.00625e-07
-4.47318e-07
2.3232e-07
7.48242e-07
-6.19622e-07
2.71715e-07
1.2526e-06
-7.96131e-07
2.91527e-07
1.91343e-06
-9.60951e-07
2.99939e-07
2.71293e-06
-1.10198e-06
3.02346e-07
3.62397e-06
-1.21283e-06
3.017e-07
4.61585e-06
-1.29135e-06
2.99421e-07
5.65756e-06
-1.33781e-06
2.96106e-07
6.71929e-06
-1.35364e-06
2.91945e-07
7.77337e-06
-1.34096e-06
2.86947e-07
8.79433e-06
-1.30192e-06
2.8106e-07
9.75902e-06
-1.23874e-06
2.74196e-07
1.06467e-05
-1.15378e-06
2.66284e-07
1.14389e-05
-1.04933e-06
2.57288e-07
1.21197e-05
-9.27673e-07
2.47211e-07
1.26749e-05
-7.91083e-07
2.36099e-07
1.30932e-05
-6.41992e-07
2.24048e-07
1.33656e-05
-4.83189e-07
2.112e-07
1.34862e-05
-3.17959e-07
1.97745e-07
1.34533e-05
-1.50646e-07
1.83923e-07
1.32745e-05
9.29242e-09
1.69996e-07
1.29247e-05
1.93967e-07
1.56297e-07
1.24196e-05
3.62407e-07
1.43208e-07
1.17673e-05
5.21702e-07
1.31087e-07
1.09767e-05
6.70892e-07
1.2025e-07
1.00568e-05
8.09407e-07
1.10957e-07
9.01473e-06
9.39076e-07
1.03378e-07
7.8504e-06
1.06714e-06
9.75548e-08
6.54343e-06
1.21395e-06
9.33008e-08
5.0338e-06
1.42022e-06
8.95735e-08
3.25155e-06
1.69955e-06
8.25376e-08
1.31754e-06
1.86907e-06
6.40893e-08
1.28828e-06
2.73748e-08
1.03574e-07
-2.82006e-07
5.18322e-08
3.7792e-07
-6.93234e-07
1.29818e-07
7.98369e-07
-1.04926e-06
1.8131e-07
1.34908e-06
-1.38365e-06
2.13069e-07
2.00874e-06
-1.68732e-06
2.31218e-07
2.75022e-06
-1.94368e-06
2.40892e-07
3.54501e-06
-2.14281e-06
2.45654e-07
4.36703e-06
-2.28289e-06
2.47646e-07
5.19415e-06
-2.36689e-06
2.48039e-07
6.00806e-06
-2.39954e-06
2.47436e-07
6.79355e-06
-2.38561e-06
2.46117e-07
7.53733e-06
-2.3292e-06
2.44123e-07
8.22766e-06
-2.23401e-06
2.41451e-07
8.85361e-06
-2.10303e-06
2.38063e-07
9.40494e-06
-1.93921e-06
2.33853e-07
9.87246e-06
-1.74574e-06
2.28708e-07
1.02484e-05
-1.52628e-06
2.22509e-07
1.05257e-05
-1.28363e-06
2.15149e-07
1.06971e-05
-1.01995e-06
2.06521e-07
1.07561e-05
-7.38626e-07
1.96533e-07
1.06972e-05
-4.44102e-07
1.8513e-07
1.05158e-05
-1.41355e-07
1.72324e-07
1.02043e-05
1.62808e-07
1.58248e-07
9.79328e-06
4.62103e-07
1.43252e-07
9.27804e-06
7.50368e-07
1.27662e-07
8.66646e-06
1.02173e-06
1.11979e-07
7.96832e-06
1.27269e-06
9.67852e-08
7.1917e-06
1.50378e-06
8.26741e-08
6.33792e-06
1.72298e-06
7.02551e-08
5.39457e-06
1.9508e-06
5.99858e-08
4.33e-06
2.2267e-06
5.19968e-08
3.11259e-06
2.59179e-06
4.57915e-08
1.79551e-06
2.97715e-06
3.90259e-08
6.0301e-07
3.03299e-06
2.74638e-08
1.87979e-06
9.43762e-09
1.37657e-07
-4.68019e-07
4.83525e-08
5.50595e-07
-1.22058e-06
1.144e-07
1.18289e-06
-1.83756e-06
1.55983e-07
1.96198e-06
-2.34388e-06
1.81091e-07
2.81736e-06
-2.73848e-06
1.95715e-07
3.6924e-06
-3.02299e-06
2.04187e-07
4.54844e-06
-3.20821e-06
2.09255e-07
5.36203e-06
-3.30908e-06
2.12483e-07
6.11986e-06
-3.3395e-06
2.14661e-07
6.8146e-06
-3.31056e-06
2.16164e-07
7.44176e-06
-3.23019e-06
2.17299e-07
7.99778e-06
-3.10364e-06
2.18285e-07
8.47997e-06
-2.9355e-06
2.1918e-07
8.88616e-06
-2.72936e-06
2.20014e-07
9.21378e-06
-2.48769e-06
2.20738e-07
9.45997e-06
-2.21327e-06
2.21216e-07
9.62216e-06
-1.90982e-06
2.21242e-07
9.69829e-06
-1.58055e-06
2.2069e-07
9.68687e-06
-1.2281e-06
2.19479e-07
9.58714e-06
-8.56216e-07
2.17247e-07
9.39936e-06
-4.69886e-07
2.13521e-07
9.12837e-06
-7.81376e-08
2.07772e-07
8.76616e-06
3.25596e-07
1.99473e-07
8.31842e-06
7.21705e-07
1.88254e-07
7.792e-06
1.10296e-06
1.7399e-07
7.19531e-06
1.46171e-06
1.56913e-07
6.53743e-06
1.79314e-06
1.37657e-07
5.82461e-06
2.09963e-06
1.17195e-07
5.05555e-06
2.39558e-06
9.66686e-08
4.21677e-06
2.7126e-06
7.71142e-08
3.28658e-06
3.09759e-06
5.92989e-08
2.26831e-06
3.56602e-06
4.37637e-08
1.25174e-06
3.96243e-06
3.06024e-08
3.97768e-07
3.8669e-06
1.87426e-08
2.26856e-06
6.8191e-09
1.71573e-07
-6.87087e-07
4.74916e-08
6.25112e-07
-1.77931e-06
1.05267e-07
1.27724e-06
-2.62666e-06
1.37035e-07
2.03736e-06
-3.25733e-06
1.53408e-07
2.82695e-06
-3.68926e-06
1.61259e-07
3.59544e-06
-3.95615e-06
1.64731e-07
4.31913e-06
-4.09783e-06
1.6598e-07
4.99039e-06
-4.1463e-06
1.66002e-07
5.60736e-06
-4.1216e-06
1.65179e-07
6.16865e-06
-4.03556e-06
1.63756e-07
6.67226e-06
-3.89577e-06
1.62019e-07
7.11658e-06
-3.70815e-06
1.60262e-07
7.49967e-06
-3.47731e-06
1.58772e-07
7.81819e-06
-3.20567e-06
1.57846e-07
8.068e-06
-2.89526e-06
1.5782e-07
8.24501e-06
-2.54917e-06
1.58944e-07
8.34574e-06
-2.17182e-06
1.6134e-07
8.36869e-06
-1.76844e-06
1.64992e-07
8.31527e-06
-1.34438e-06
1.69753e-07
8.1884e-06
-9.04597e-07
1.75312e-07
7.99096e-06
-4.53524e-07
1.81134e-07
7.72213e-06
4.31377e-09
1.86442e-07
7.39226e-06
4.6531e-07
1.90233e-07
7.00083e-06
9.21902e-07
1.9132e-07
6.54889e-06
1.36644e-06
1.88559e-07
6.03893e-06
1.79063e-06
1.81149e-07
5.47379e-06
2.18951e-06
1.689e-07
4.85423e-06
2.56698e-06
1.52326e-07
4.17567e-06
2.9418e-06
1.32441e-07
3.42736e-06
3.35061e-06
1.10325e-07
2.60319e-06
3.83463e-06
8.7019e-08
1.73438e-06
4.37031e-06
6.4177e-08
9.16331e-07
4.73541e-06
4.4316e-08
2.7024e-07
4.48364e-06
2.8004e-08
2.52473e-06
1.18956e-08
1.63524e-07
-8.86791e-07
3.61902e-08
5.68409e-07
-2.2601e-06
7.59256e-08
1.11638e-06
-3.27097e-06
9.63817e-08
1.72088e-06
-3.96877e-06
1.06964e-07
2.32098e-06
-4.40165e-06
1.12293e-07
2.88981e-06
-4.63928e-06
1.14292e-07
3.42325e-06
-4.74491e-06
1.1361e-07
3.92462e-06
-4.75835e-06
1.10658e-07
4.39575e-06
-4.69867e-06
1.05919e-07
4.83596e-06
-4.57577e-06
9.99788e-08
5.2432e-06
-4.39651e-06
9.34851e-08
5.61313e-06
-4.16509e-06
8.69903e-08
5.93872e-06
-3.88394e-06
8.10164e-08
6.21174e-06
-3.55483e-06
7.61239e-08
6.42502e-06
-3.18135e-06
7.28101e-08
6.5738e-06
-2.76948e-06
7.15135e-08
6.65616e-06
-2.32678e-06
7.25882e-08
6.67289e-06
-1.86143e-06
7.62576e-08
6.62698e-06
-1.38107e-06
8.26203e-08
6.52281e-06
-8.9199e-07
9.15794e-08
6.36518e-06
-3.9872e-07
1.02845e-07
6.15774e-06
9.59531e-08
1.15842e-07
5.90592e-06
5.87532e-07
1.2964e-07
5.61039e-06
1.0746e-06
1.42891e-07
5.27089e-06
1.55208e-06
1.53904e-07
4.88561e-06
2.01506e-06
1.60915e-07
4.45095e-06
2.46173e-06
1.62502e-07
3.96078e-06
2.89928e-06
1.57913e-07
3.40568e-06
3.34988e-06
1.47048e-07
2.77591e-06
3.85019e-06
1.30146e-07
2.07596e-06
4.42642e-06
1.07988e-07
1.35206e-06
5.01077e-06
8.30311e-08
6.92077e-07
5.33509e-06
5.9521e-08
1.92716e-07
4.94298e-06
3.86931e-08
2.6992e-06
1.61041e-08
1.42372e-07
-1.05789e-06
2.87552e-08
4.83138e-07
-2.66287e-06
6.19995e-08
9.33905e-07
-3.80323e-06
8.1532e-08
1.42372e-06
-4.55208e-06
9.35465e-08
1.90985e-06
-4.98811e-06
1.0037e-07
2.37786e-06
-5.2101e-06
1.02827e-07
2.82715e-06
-5.29554e-06
1.01357e-07
3.25871e-06
-5.28644e-06
9.655e-08
3.67161e-06
-5.20063e-06
8.90824e-08
4.06433e-06
-5.04816e-06
7.97039e-08
4.43328e-06
-4.83453e-06
6.91057e-08
4.77098e-06
-4.56066e-06
5.78983e-08
5.06791e-06
-4.2275e-06
4.66621e-08
5.31551e-06
-3.83846e-06
3.60562e-08
5.50753e-06
-3.40009e-06
2.67491e-08
5.64053e-06
-2.92183e-06
1.93763e-08
5.71395e-06
-2.41471e-06
1.45425e-08
5.72964e-06
-1.88987e-06
1.278e-08
5.69133e-06
-1.35719e-06
1.44631e-08
5.60395e-06
-8.24345e-07
1.97587e-08
5.47305e-06
-2.96468e-07
2.86734e-08
5.3043e-06
2.23685e-07
4.10519e-08
5.10032e-06
7.35048e-07
5.64866e-08
4.86377e-06
1.23706e-06
7.41132e-08
4.59376e-06
1.72963e-06
9.24868e-08
4.28583e-06
2.21332e-06
1.09699e-07
3.93178e-06
2.69212e-06
1.23683e-07
3.5201e-06
3.17843e-06
1.32531e-07
3.03783e-06
3.69752e-06
1.34599e-07
2.4768e-06
4.28257e-06
1.28573e-07
1.84917e-06
4.93981e-06
1.14021e-07
1.20752e-06
5.5593e-06
9.26543e-08
6.24722e-07
5.84819e-06
6.88944e-08
1.80883e-07
5.34069e-06
4.48246e-08
2.86078e-06
1.72012e-08
1.23106e-07
-1.2024e-06
2.1435e-08
4.06345e-07
-2.99353e-06
4.74408e-08
7.7342e-07
-4.23439e-06
6.41053e-08
1.17011e-06
-5.0239e-06
7.51474e-08
1.5657e-06
-5.46532e-06
8.16312e-08
1.95085e-06
-5.67923e-06
8.39876e-08
2.32523e-06
-5.75257e-06
8.26569e-08
2.68894e-06
-5.7284e-06
7.82517e-08
3.04117e-06
-5.62433e-06
7.14642e-08
3.37917e-06
-5.44895e-06
6.28034e-08
3.69729e-06
-5.20531e-06
5.2662e-08
3.98852e-06
-4.89331e-06
4.14391e-08
4.24567e-06
-4.51421e-06
2.95756e-08
4.4622e-06
-4.07259e-06
1.7615e-08
4.6332e-06
-3.57717e-06
6.11115e-09
4.75536e-06
-3.0401e-06
-3.86616e-09
4.82762e-06
-2.47508e-06
-1.18669e-08
4.85127e-06
-1.89569e-06
-1.78028e-08
4.82895e-06
-1.31392e-06
-2.09217e-08
4.76438e-06
-7.39077e-07
-2.06764e-08
4.66167e-06
-1.77082e-07
-1.66523e-08
4.52633e-06
3.6765e-07
-8.60397e-09
4.36262e-06
8.95269e-07
3.51756e-09
4.17246e-06
1.40768e-06
1.95509e-08
3.95494e-06
1.90865e-06
3.85108e-08
3.70485e-06
2.40447e-06
5.89517e-08
3.41226e-06
2.90581e-06
7.88973e-08
3.06339e-06
3.43124e-06
9.60404e-08
2.64405e-06
4.00898e-06
1.07837e-07
2.14803e-06
4.66681e-06
1.11667e-07
1.59228e-06
5.3897e-06
1.05618e-07
1.03e-06
6.03106e-06
9.00449e-08
5.23773e-07
6.28507e-06
6.8545e-08
1.4807e-07
5.6712e-06
4.39105e-08
2.99139e-06
1.53986e-08
9.43153e-08
-1.31487e-06
1.81491e-08
3.21021e-07
-3.26346e-06
4.32665e-08
6.24209e-07
-4.59917e-06
6.16113e-08
9.60841e-07
-5.43539e-06
7.48697e-08
1.30519e-06
-5.89285e-06
8.3193e-08
1.6476e-06
-6.10845e-06
8.67958e-08
1.98561e-06
-6.1768e-06
8.62292e-08
2.31772e-06
-6.14277e-06
8.22721e-08
2.64229e-06
-6.02467e-06
7.57801e-08
2.95539e-06
-5.82937e-06
6.73283e-08
3.25117e-06
-5.55835e-06
5.7277e-08
3.52341e-06
-5.21144e-06
4.59074e-08
3.76587e-06
-4.79022e-06
3.35617e-08
3.9731e-06
-4.30053e-06
2.07437e-08
4.1409e-06
-3.75293e-06
7.98321e-09
4.26634e-06
-3.16151e-06
-4.01664e-09
4.34808e-06
-2.542e-06
-1.47989e-08
4.38649e-06
-1.91e-06
-2.40743e-08
4.38322e-06
-1.27937e-06
-3.12524e-08
4.34108e-06
-6.61205e-07
-3.57094e-08
4.26434e-06
-6.34701e-08
-3.68487e-08
4.15612e-06
5.10027e-07
-3.41412e-08
4.02063e-06
1.05795e-06
-2.71711e-08
3.86024e-06
1.58377e-06
-1.56809e-08
3.67373e-06
2.09482e-06
3.55479e-10
3.45595e-06
2.60269e-06
1.95695e-08
3.19614e-06
3.12452e-06
4.10882e-08
2.87986e-06
3.68499e-06
6.2504e-08
2.49297e-06
4.31496e-06
8.08342e-08
2.03087e-06
5.03631e-06
9.24599e-08
1.51239e-06
5.81385e-06
9.40491e-08
9.87911e-07
6.47063e-06
8.43986e-08
5.11376e-07
6.69484e-06
6.59553e-08
1.5125e-07
5.98807e-06
4.19882e-08
3.12666e-06
1.39331e-08
9.04487e-08
-1.42094e-06
1.56237e-08
3.00193e-07
-3.51228e-06
3.90931e-08
5.77308e-07
-4.93325e-06
5.6998e-08
8.84241e-07
-5.81248e-06
7.01728e-08
1.1982e-06
-6.28554e-06
7.87287e-08
1.51048e-06
-6.50374e-06
8.30189e-08
1.81854e-06
-6.5685e-06
8.36275e-08
2.12066e-06
-6.52613e-06
8.12423e-08
2.4144e-06
-6.39488e-06
7.64818e-08
2.69624e-06
-6.18101e-06
6.98106e-08
2.96168e-06
-5.88528e-06
6.15046e-08
3.20566e-06
-5.50714e-06
5.17402e-08
3.42323e-06
-5.04852e-06
4.07517e-08
3.61012e-06
-4.51628e-06
2.88852e-08
3.76297e-06
-3.92231e-06
1.65519e-08
3.8793e-06
-3.28211e-06
4.29692e-09
3.95764e-06
-2.61281e-06
-7.49765e-09
3.99753e-06
-1.93148e-06
-1.83719e-08
3.9997e-06
-1.25361e-06
-2.79051e-08
3.96601e-06
-5.91889e-07
-3.55934e-08
3.89881e-06
4.45568e-08
-4.0805e-08
3.80308e-06
6.48664e-07
-4.28843e-08
3.68209e-06
1.22018e-06
-4.12193e-08
3.53825e-06
1.76287e-06
-3.52504e-08
3.37083e-06
2.28678e-06
-2.45288e-08
3.17444e-06
2.80801e-06
-8.93344e-09
2.93894e-06
3.34952e-06
1.05008e-08
2.65019e-06
3.94148e-06
3.22119e-08
2.29448e-06
4.61702e-06
5.35764e-08
1.86815e-06
5.39212e-06
7.03639e-08
1.3901e-06
6.21352e-06
7.80935e-08
9.06842e-07
6.87934e-06
7.40532e-08
4.6706e-07
7.07447e-06
5.93425e-08
1.37276e-07
6.27923e-06
3.73606e-08
3.25033e-06
1.15806e-08
7.58927e-08
-1.51232e-06
1.55077e-08
2.61655e-07
-3.73795e-06
3.98982e-08
5.14172e-07
-5.24472e-06
5.89654e-08
7.9862e-07
-6.17006e-06
7.31551e-08
1.09303e-06
-6.66243e-06
8.2486e-08
1.38805e-06
-6.88613e-06
8.73746e-08
1.68022e-06
-6.94924e-06
8.85727e-08
1.96716e-06
-6.9e-06
8.69347e-08
2.24599e-06
-6.75687e-06
8.31615e-08
2.51302e-06
-6.52574e-06
7.77192e-08
2.76392e-06
-6.207e-06
7.08246e-08
2.99423e-06
-5.80001e-06
6.25791e-08
3.19982e-06
-5.30722e-06
5.31263e-08
3.3773e-06
-4.73642e-06
4.26777e-08
3.52404e-06
-4.10054e-06
3.14995e-08
3.63811e-06
-3.41607e-06
1.99226e-08
3.71805e-06
-2.7011e-06
8.37806e-09
3.76295e-06
-1.97363e-06
-2.72284e-09
3.77307e-06
-1.25024e-06
-1.34544e-08
3.74918e-06
-5.45007e-07
-2.29717e-08
3.69371e-06
1.30881e-07
-3.08266e-08
3.60871e-06
7.70073e-07
-3.63789e-08
3.4979e-06
1.36996e-06
-3.89567e-08
3.36362e-06
1.93507e-06
-3.78963e-08
3.20552e-06
2.47739e-06
-3.25015e-08
3.01908e-06
3.01663e-06
-2.21842e-08
2.79469e-06
3.58056e-06
-6.65598e-09
2.5196e-06
4.20397e-06
1.25581e-08
2.18139e-06
4.92157e-06
3.35598e-08
1.77715e-06
5.74375e-06
5.24395e-08
1.3251e-06
6.60127e-06
6.39973e-08
8.67717e-07
7.27192e-06
6.42902e-08
4.49373e-07
7.43889e-06
5.31283e-08
1.33717e-07
6.55998e-06
3.36629e-08
3.37179e-06
1.02574e-08
7.81087e-08
-1.60542e-06
1.50076e-08
2.61477e-07
-3.96055e-06
3.92375e-08
5.05837e-07
-5.54733e-06
5.82525e-08
7.77975e-07
-6.51459e-06
7.23901e-08
1.0574e-06
-7.02366e-06
8.1808e-08
1.33582e-06
-7.25157e-06
8.70151e-08
1.61026e-06
-7.31245e-06
8.877e-08
1.87854e-06
-7.25617e-06
8.78949e-08
2.13795e-06
-7.10132e-06
8.50568e-08
2.38504e-06
-6.85353e-06
8.07024e-08
2.61591e-06
-6.5129e-06
7.50484e-08
2.82663e-06
-6.07891e-06
6.81924e-08
3.01377e-06
-5.5546e-06
6.02524e-08
3.17464e-06
-4.94863e-06
5.13707e-08
3.3073e-06
-4.27489e-06
4.17111e-08
3.41041e-06
-3.55062e-06
3.14775e-08
3.48297e-06
-2.79456e-06
2.09328e-08
3.52428e-06
-2.02532e-06
1.0413e-08
3.53364e-06
-1.26016e-06
5.82815e-10
3.51247e-06
-5.14026e-07
-9.77931e-09
3.4615e-06
2.00635e-07
-1.87547e-08
3.38303e-06
8.7474e-07
-2.61744e-08
3.27955e-06
1.50489e-06
-3.14264e-08
3.15295e-06
2.09554e-06
-3.38478e-08
3.00299e-06
2.66004e-06
-3.26753e-08
2.8258e-06
3.2209e-06
-2.70736e-08
2.61299e-06
3.8097e-06
-1.63468e-08
2.35181e-06
4.46488e-06
2.24313e-10
2.03303e-06
5.22203e-06
1.82352e-08
1.65374e-06
6.08592e-06
3.6952e-08
1.23118e-06
6.9731e-06
5.0441e-08
8.04231e-07
7.64445e-06
5.39232e-08
4.1395e-07
7.78234e-06
4.6044e-08
1.21827e-07
6.82145e-06
2.94267e-08
3.48283e-06
8.81948e-09
7.18853e-08
-1.693e-06
1.57031e-08
2.45758e-07
-4.17528e-06
4.08757e-08
4.79899e-07
-5.84188e-06
6.04177e-08
7.41262e-07
-6.85076e-06
7.4817e-08
1.00969e-06
-7.37647e-06
8.43923e-08
1.27698e-06
-7.60865e-06
8.97865e-08
1.54001e-06
-7.66733e-06
9.18574e-08
1.79641e-06
-7.60403e-06
9.14754e-08
2.04338e-06
-7.43759e-06
8.93102e-08
2.27754e-06
-7.17347e-06
8.57949e-08
2.49524e-06
-6.81171e-06
8.11367e-08
2.69299e-06
-6.35205e-06
7.54215e-08
2.8679e-06
-5.79822e-06
6.87384e-08
3.01787e-06
-5.15976e-06
6.11754e-08
3.1415e-06
-4.45132e-06
5.28275e-08
3.23784e-06
-3.69075e-06
4.38149e-08
3.30619e-06
-2.89719e-06
3.43039e-08
3.34595e-06
-2.08957e-06
2.45118e-08
3.35671e-06
-1.28557e-06
1.46716e-08
3.33839e-06
-5.00809e-07
5.13068e-09
3.29177e-06
2.51309e-07
-4.02316e-09
3.21845e-06
9.6053e-07
-1.24457e-08
3.12021e-06
1.62243e-06
-1.92782e-08
2.99843e-06
2.24136e-06
-2.40183e-08
2.85282e-06
2.83162e-06
-2.59546e-08
2.68005e-06
3.41789e-06
-2.42159e-08
2.47297e-06
4.03466e-06
-1.78839e-08
2.22109e-06
4.723e-06
-6.27999e-09
1.91531e-06
5.51855e-06
9.17413e-09
1.55472e-06
6.42042e-06
2.59283e-08
1.15579e-06
7.33222e-06
3.95256e-08
7.54093e-07
8.00084e-06
4.48226e-08
3.87282e-07
8.10884e-06
3.95556e-08
1.13703e-07
7.0682e-06
2.56302e-08
3.58691e-06
7.67821e-09
7.36947e-08
-1.78256e-06
1.58669e-08
2.45849e-07
-4.38859e-06
4.11607e-08
4.73381e-07
-6.12999e-06
6.0591e-08
7.24216e-07
-7.17638e-06
7.4794e-08
9.79594e-07
-7.71609e-06
8.424e-08
1.23246e-06
-7.95115e-06
8.96471e-08
1.48023e-06
-8.007e-06
9.1899e-08
1.7208e-06
-7.93646e-06
9.18686e-08
1.95151e-06
-7.7585e-06
9.02142e-08
2.16916e-06
-7.47847e-06
8.73606e-08
2.37036e-06
-7.09642e-06
8.35201e-08
2.55205e-06
-6.6125e-06
7.87867e-08
2.71182e-06
-6.03121e-06
7.32404e-08
2.84811e-06
-5.36296e-06
6.69417e-08
2.96001e-06
-4.62313e-06
5.99358e-08
3.047e-06
-3.82999e-06
5.2272e-08
3.10871e-06
-3.0029e-06
4.40286e-08
3.14474e-06
-2.16089e-06
3.53279e-08
3.15468e-06
-1.32179e-06
2.63169e-08
3.13826e-06
-5.01571e-07
1.72054e-08
3.09563e-06
2.85645e-07
8.32202e-09
3.02721e-06
1.0286e-06
3.80556e-10
2.93511e-06
1.72218e-06
-7.62159e-09
2.81971e-06
2.37053e-06
-1.3744e-08
2.68038e-06
2.98868e-06
-1.77107e-08
2.51407e-06
3.60295e-06
-1.87396e-08
2.31454e-06
4.25007e-06
-1.58808e-08
2.07297e-06
4.9728e-06
-8.26518e-09
1.78156e-06
5.80602e-06
3.87057e-09
1.44107e-06
6.74293e-06
1.78337e-08
1.06746e-06
7.67517e-06
3.0411e-08
6.93411e-07
8.33794e-06
3.64971e-08
3.53402e-07
8.41489e-06
3.32325e-08
1.02461e-07
7.29619e-06
2.17902e-08
3.68101e-06
6.47585e-09
6.99592e-08
-1.86909e-06
1.65876e-08
2.35586e-07
-4.5967e-06
4.24958e-08
4.54982e-07
-6.41141e-06
6.2033e-08
6.96227e-07
-7.49374e-06
7.61222e-08
9.41088e-07
-8.04639e-06
8.5443e-08
1.18288e-06
-8.28378e-06
9.08369e-08
1.41912e-06
-8.33647e-06
9.32322e-08
1.64768e-06
-8.25851e-06
9.34995e-08
1.86595e-06
-8.06903e-06
9.22786e-08
2.07086e-06
-7.77335e-06
8.99805e-08
2.25934e-06
-7.37169e-06
8.68175e-08
2.42872e-06
-6.86474e-06
8.28859e-08
2.57709e-06
-6.25781e-06
7.8256e-08
2.70335e-06
-5.56216e-06
7.29716e-08
2.80695e-06
-4.79375e-06
6.70498e-08
2.88765e-06
-3.97116e-06
6.04987e-08
2.94523e-06
-3.11379e-06
5.3342e-08
2.97932e-06
-2.24059e-06
4.56374e-08
2.98942e-06
-1.36933e-06
3.74703e-08
2.97505e-06
-5.16161e-07
2.89826e-08
2.93602e-06
3.043e-07
2.04046e-08
2.8726e-06
1.08e-06
1.20448e-08
2.78533e-06
1.80515e-06
4.32762e-09
2.67451e-06
2.4838e-06
-2.43396e-09
2.53953e-06
3.13159e-06
-7.90584e-09
2.37738e-06
3.77611e-06
-1.09948e-08
2.18268e-06
4.45567e-06
-1.08955e-08
1.94815e-06
5.21401e-06
-6.68271e-09
1.66771e-06
6.08444e-06
1.9682e-09
1.34367e-06
7.05401e-06
1.28472e-08
9.91808e-07
8.00317e-06
2.36325e-08
6.42152e-07
8.65755e-06
2.96321e-08
3.25819e-07
8.70283e-06
2.77146e-08
9.39686e-08
7.50854e-06
1.83907e-08
3.76768e-06
5.45701e-09
7.01548e-08
-1.95616e-06
1.69213e-08
2.32354e-07
-4.8018e-06
4.29046e-08
4.44211e-07
-6.68544e-06
6.21779e-08
6.74799e-07
-7.80024e-06
7.59159e-08
9.07158e-07
-8.36371e-06
8.4965e-08
1.13553e-06
-8.60239e-06
9.02415e-08
1.35786e-06
-8.65148e-06
9.26959e-08
1.57217e-06
-8.566e-06
9.31908e-08
1.776e-06
-8.36518e-06
9.23456e-08
1.96649e-06
-8.05437e-06
9.05569e-08
2.14085e-06
-7.63406e-06
8.80366e-08
2.2968e-06
-7.10556e-06
8.48855e-08
2.43289e-06
-6.47504e-06
8.11658e-08
2.54842e-06
-5.75456e-06
7.69049e-08
2.64324e-06
-4.96063e-06
7.20913e-08
2.71738e-06
-4.11197e-06
6.66913e-08
2.77081e-06
-3.22785e-06
6.06736e-08
2.80319e-06
-2.32697e-06
5.4033e-08
2.81392e-06
-1.42683e-06
4.67958e-08
2.80225e-06
-5.43516e-07
3.90483e-08
2.76756e-06
3.08049e-07
3.09644e-08
2.70963e-06
1.11517e-06
2.27978e-08
2.62848e-06
1.87144e-06
1.48769e-08
2.5239e-06
2.5808e-06
7.61532e-09
2.39457e-06
3.25934e-06
1.60651e-09
2.23792e-06
3.9357e-06
-2.91628e-09
2.04922e-06
4.64932e-06
-4.92994e-09
1.82246e-06
5.4442e-06
-3.43696e-09
1.5535e-06
6.35145e-06
1.91473e-09
1.24581e-06
7.35169e-06
9.91798e-09
9.154e-07
8.31479e-06
1.86042e-08
5.89918e-07
8.9587e-06
2.3968e-08
2.97351e-07
8.97189e-06
2.2881e-08
8.4972e-08
7.70453e-06
1.53277e-08
3.84633e-06
4.53403e-09
6.69786e-08
-2.04062e-06
1.74931e-08
2.22885e-07
-5.00144e-06
4.3743e-08
4.26451e-07
-6.95182e-06
6.28214e-08
6.47257e-07
-8.09726e-06
7.62204e-08
8.6901e-07
-8.67044e-06
8.49908e-08
1.08637e-06
-8.90988e-06
9.01439e-08
1.29737e-06
-8.95512e-06
9.26447e-08
1.50011e-06
-8.86206e-06
9.33356e-08
1.69218e-06
-8.65005e-06
9.28123e-08
1.87093e-06
-8.32456e-06
9.14575e-08
2.03386e-06
-7.88645e-06
8.9484e-08
2.17907e-06
-7.33774e-06
8.69957e-08
2.30551e-06
-6.6855e-06
8.40514e-08
2.41285e-06
-5.94254e-06
8.06679e-08
2.50121e-06
-5.12578e-06
7.68184e-08
2.57084e-06
-4.25401e-06
7.24453e-08
2.62177e-06
-3.34623e-06
6.74791e-08
2.65366e-06
-2.42069e-06
6.18627e-08
2.66577e-06
-1.49447e-06
5.55647e-08
2.65707e-06
-5.83392e-07
4.8609e-08
2.6265e-06
2.97533e-07
4.11059e-08
2.57334e-06
1.1351e-06
3.32573e-08
2.49712e-06
1.92233e-06
2.53514e-08
2.39728e-06
2.66292e-06
1.77509e-08
2.27246e-06
3.37329e-06
1.09e-08
2.11998e-06
4.08283e-06
5.3662e-09
1.93569e-06
4.83176e-06
1.88391e-09
1.71493e-06
5.66383e-06
1.14232e-09
1.45545e-06
6.60741e-06
3.52154e-09
1.1617e-06
7.63651e-06
8.88072e-09
8.49995e-07
8.61101e-06
1.53504e-08
5.45784e-07
9.2429e-06
1.96941e-08
2.74007e-07
9.22409e-06
1.8989e-08
7.80082e-08
7.88669e-06
1.28331e-08
3.91877e-06
3.83074e-09
6.61017e-08
-2.12451e-06
1.77918e-08
2.17701e-07
-5.19697e-06
4.39317e-08
4.13719e-07
-7.21039e-06
6.25605e-08
6.24651e-07
-8.38364e-06
7.54617e-08
8.35258e-07
-8.96491e-06
8.38624e-08
1.04088e-06
-9.20434e-06
8.88382e-08
1.23984e-06
-9.24542e-06
9.13541e-08
1.43033e-06
-9.14477e-06
9.22254e-08
1.61012e-06
-8.92184e-06
9.20187e-08
1.77674e-06
-8.58225e-06
9.10996e-08
1.92799e-06
-8.12734e-06
8.96791e-08
2.06231e-06
-7.5599e-06
8.78624e-08
2.17902e-06
-6.88787e-06
8.57021e-08
2.27811e-06
-6.1248e-06
8.32035e-08
2.36001e-06
-5.28797e-06
8.03224e-08
2.4252e-06
-4.39614e-06
7.69755e-08
2.47386e-06
-3.46791e-06
7.30604e-08
2.50565e-06
-2.52093e-06
6.84767e-08
2.51969e-06
-1.57163e-06
6.31431e-08
2.51466e-06
-6.35364e-07
5.7028e-08
2.48904e-06
2.72998e-07
5.01838e-08
2.4415e-06
1.1399e-06
4.27631e-08
2.37104e-06
1.95779e-06
3.50195e-08
2.27666e-06
2.73005e-06
2.72898e-08
2.15681e-06
3.47319e-06
1.99811e-08
2.00898e-06
4.21711e-06
1.35865e-08
1.82965e-06
5.00241e-06
8.72219e-09
1.61528e-06
5.87214e-06
6.10325e-09
1.36487e-06
6.85155e-06
6.29673e-09
1.08424e-06
7.90791e-06
9.21713e-09
7.89891e-07
8.89172e-06
1.35247e-08
5.05303e-07
9.51057e-06
1.66497e-08
2.52658e-07
9.46022e-06
1.59931e-08
7.16259e-08
8.05587e-06
1.08951e-08
3.98538e-06
3.32824e-09
6.33546e-08
-2.20603e-06
1.81738e-08
2.09177e-07
-5.38702e-06
4.42407e-08
3.97441e-07
-7.46105e-06
6.24137e-08
5.99286e-07
-8.66028e-06
7.47987e-08
8.0015e-07
-9.24857e-06
8.28123e-08
9.95752e-07
-9.48752e-06
8.75932e-08
1.18452e-06
-9.52428e-06
9.00961e-08
1.36472e-06
-9.41605e-06
9.11041e-08
1.53421e-06
-9.18246e-06
9.11564e-08
1.69071e-06
-8.82933e-06
9.0604e-08
1.83228e-06
-8.35854e-06
8.9658e-08
1.95768e-06
-7.7737e-06
8.84256e-08
2.06652e-06
-7.08363e-06
8.69568e-08
2.15906e-06
-6.30256e-06
8.52513e-08
2.23597e-06
-5.4481e-06
8.3256e-08
2.2979e-06
-4.53891e-06
8.08722e-08
2.34515e-06
-3.5931e-06
7.79713e-08
2.37742e-06
-2.62758e-06
7.44141e-08
2.39371e-06
-1.65796e-06
7.00694e-08
2.39243e-06
-6.98898e-07
6.48461e-08
2.3716e-06
2.35118e-07
5.87316e-08
2.32934e-06
1.13036e-06
5.18202e-08
2.26413e-06
1.9787e-06
4.4327e-08
2.17456e-06
2.78308e-06
3.65687e-08
2.05893e-06
3.55992e-06
2.89368e-08
1.91489e-06
4.33931e-06
2.18919e-08
1.73949e-06
5.16188e-06
1.59855e-08
1.53021e-06
6.06962e-06
1.18544e-08
1.2874e-06
7.08432e-06
1.00818e-08
1.01803e-06
8.16652e-06
1.07784e-08
7.38749e-07
9.15791e-06
1.30295e-08
4.71177e-07
9.76309e-06
1.48328e-08
2.35015e-07
9.68194e-06
1.396e-08
6.65382e-08
8.21385e-06
9.59358e-09
4.04721e-06
3.073e-09
6.20797e-08
-2.28644e-06
1.83422e-08
2.03664e-07
-5.57264e-06
4.40405e-08
3.85197e-07
-7.70413e-06
6.15556e-08
5.78586e-07
-8.92696e-06
7.33013e-08
7.70096e-07
-9.52095e-06
8.08696e-08
9.55942e-07
-9.7588e-06
8.5439e-08
1.13474e-06
-9.791e-06
8.79338e-08
1.30485e-06
-9.67524e-06
8.90923e-08
1.46426e-06
-9.43127e-06
8.94189e-08
1.61089e-06
-9.06518e-06
8.92464e-08
1.74305e-06
-8.57945e-06
8.87834e-08
1.85975e-06
-7.9785e-06
8.8137e-08
1.96086e-06
-7.27206e-06
8.73521e-08
2.04693e-06
-6.47502e-06
8.64216e-08
2.11886e-06
-5.60529e-06
8.52839e-08
2.17753e-06
-4.68137e-06
8.38282e-08
2.22339e-06
-3.72084e-06
8.19075e-08
2.25623e-06
-2.73975e-06
7.93545e-08
2.27498e-06
-1.75268e-06
7.59993e-08
2.27778e-06
-7.73372e-07
7.16986e-08
2.2622e-06
1.8434e-07
6.63771e-08
2.22576e-06
1.10676e-06
6.00663e-08
2.16632e-06
1.98523e-06
5.29329e-08
2.08204e-06
2.82213e-06
4.52665e-08
1.97101e-06
3.63354e-06
3.74446e-08
1.83102e-06
4.44944e-06
2.99116e-08
1.65962e-06
5.31015e-06
2.31847e-08
1.45522e-06
6.25624e-06
1.78519e-08
1.21937e-06
7.30578e-06
1.4468e-08
9.60087e-07
8.41261e-06
1.32467e-08
6.94158e-07
9.41021e-06
1.36135e-08
4.41555e-07
1.00014e-05
1.40833e-08
2.19822e-07
9.89042e-06
1.28141e-08
6.21945e-08
8.3617e-06
8.90847e-09
4.10473e-06
3.07665e-09
5.98924e-08
-2.36483e-06
1.85126e-08
1.96668e-07
-5.7532e-06
4.37961e-08
3.71635e-07
-7.93969e-06
6.06046e-08
5.57286e-07
-9.18427e-06
7.16737e-08
7.40493e-07
-9.78291e-06
7.87688e-08
9.17805e-07
-1.00192e-05
8.30975e-08
1.08794e-06
-1.00467e-05
8.55472e-08
1.24934e-06
-9.92342e-06
8.68112e-08
1.40009e-06
-9.66935e-06
8.73621e-08
1.53827e-06
-9.29085e-06
8.75159e-08
1.66239e-06
-8.79101e-06
8.74793e-08
1.77168e-06
-8.17512e-06
8.73604e-08
1.86621e-06
-7.45376e-06
8.72013e-08
1.94675e-06
-6.64252e-06
8.69915e-08
2.01441e-06
-5.75957e-06
8.66642e-08
2.07025e-06
-4.82328e-06
8.61005e-08
2.11493e-06
-3.85062e-06
8.51383e-08
2.14831e-06
-2.85668e-06
8.35856e-08
2.16932e-06
-1.8549e-06
8.12356e-08
2.17593e-06
-8.57848e-07
7.78942e-08
2.1653e-06
1.21569e-07
7.3422e-08
2.13438e-06
1.06992e-06
6.77828e-08
2.08043e-06
1.97811e-06
6.1088e-08
2.00117e-06
2.84783e-06
5.35948e-08
1.89446e-06
3.69461e-06
4.56682e-08
1.75821e-06
4.54801e-06
3.77458e-08
1.59044e-06
5.44767e-06
3.03274e-08
1.3904e-06
6.4324e-06
2.397e-08
1.1607e-06
7.51637e-06
1.92142e-08
9.1026e-07
8.64678e-06
1.63563e-08
6.55941e-07
9.64947e-06
1.50809e-08
4.16284e-07
1.02267e-05
1.42842e-08
2.06978e-07
1.00868e-05
1.24949e-08
5.85793e-08
8.50047e-06
8.79771e-09
4.15845e-06
3.2951e-09
5.85918e-08
-2.44191e-06
1.84983e-08
1.91653e-07
-5.92936e-06
4.31071e-08
3.61029e-07
-8.16809e-06
5.90318e-08
5.39798e-07
-9.43235e-06
6.93226e-08
7.15448e-07
-1.00345e-05
7.59073e-08
8.84882e-07
-1.02686e-05
7.99984e-08
1.04696e-06
-1.02912e-05
8.24223e-08
1.20023e-06
-1.01605e-05
8.38134e-08
1.34288e-06
-9.89658e-06
8.46064e-08
1.47315e-06
-9.50619e-06
8.50974e-08
1.58969e-06
-8.99301e-06
8.54891e-08
1.69192e-06
-8.3632e-06
8.58896e-08
1.78012e-06
-7.62826e-06
8.63377e-08
1.85524e-06
-6.80443e-06
8.68194e-08
1.91863e-06
-5.91018e-06
8.72649e-08
1.97156e-06
-4.96373e-06
8.75511e-08
2.01488e-06
-3.98142e-06
8.75084e-08
2.04863e-06
-2.97733e-06
8.69297e-08
2.07176e-06
-1.96359e-06
8.55811e-08
2.08209e-06
-9.51384e-07
8.3225e-08
2.07644e-06
4.75819e-08
7.96602e-08
2.05117e-06
1.02043e-06
7.47784e-08
2.00292e-06
1.95776e-06
6.86255e-08
1.92887e-06
2.8605e-06
6.14153e-08
1.82664e-06
3.74339e-06
5.34945e-08
1.69418e-06
4.63523e-06
4.52972e-08
1.52995e-06
5.57466e-06
3.73181e-08
1.33397e-06
6.59839e-06
3.01e-08
1.10979e-06
7.71648e-06
2.41766e-08
8.67155e-07
8.86963e-06
1.99032e-08
6.22952e-07
9.87655e-06
1.71622e-08
3.94474e-07
1.04399e-05
1.51654e-08
1.95909e-07
1.02723e-05
1.27495e-08
5.54731e-08
8.63109e-06
9.01736e-09
4.20878e-06
3.59325e-09
5.69532e-08
-2.51728e-06
1.84302e-08
1.86271e-07
-6.10093e-06
4.22645e-08
3.50455e-07
-8.38949e-06
5.72339e-08
5.2305e-07
-9.67163e-06
6.67014e-08
6.92004e-07
-1.02761e-05
7.27435e-08
8.54477e-07
-1.05076e-05
7.65624e-08
1.00946e-06
-1.0525e-05
7.89205e-08
1.15561e-06
-1.0387e-05
8.03958e-08
1.29122e-06
-1.01135e-05
8.13869e-08
1.41459e-06
-9.71169e-06
8.21708e-08
1.52449e-06
-9.18582e-06
8.29465e-08
1.62048e-06
-8.54298e-06
8.38229e-08
1.70299e-06
-7.79557e-06
8.48369e-08
1.77315e-06
-6.96052e-06
8.59726e-08
1.83247e-06
-6.05663e-06
8.71585e-08
1.88246e-06
-5.10195e-06
8.82683e-08
1.92418e-06
-4.11223e-06
8.91262e-08
1.95785e-06
-3.10048e-06
8.95123e-08
1.98255e-06
-2.07743e-06
8.91693e-08
1.99605e-06
-1.05268e-06
8.78206e-08
1.9949e-06
-3.64593e-08
8.52071e-08
1.97496e-06
9.59241e-07
8.11479e-08
1.93224e-06
1.92489e-06
7.56176e-08
1.86335e-06
2.86064e-06
6.87786e-08
1.76559e-06
3.78024e-06
6.09539e-08
1.63691e-06
4.7114e-06
5.25745e-08
1.47614e-06
5.69137e-06
4.41398e-08
1.28397e-06
6.75448e-06
3.61934e-08
1.06482e-06
7.90649e-06
2.92736e-08
8.29128e-07
9.08167e-06
2.37829e-08
5.93841e-07
1.00922e-05
1.97497e-08
3.75236e-07
1.06418e-05
1.66256e-08
1.86112e-07
1.04476e-05
1.35115e-08
5.27025e-08
8.75416e-06
9.56431e-09
4.25597e-06
3.99375e-09
5.58125e-08
-2.59128e-06
1.81879e-08
1.8209e-07
-6.26821e-06
4.10068e-08
3.4186e-07
-8.60411e-06
5.48649e-08
5.09127e-07
-9.90231e-06
6.34286e-08
6.72239e-07
-1.05082e-05
6.89075e-08
8.28574e-07
-1.07364e-05
7.24649e-08
9.77262e-07
-1.07485e-05
7.47748e-08
1.11705e-06
-1.06031e-05
7.63478e-08
1.24633e-06
-1.03203e-05
7.75429e-08
1.36346e-06
-9.90741e-06
7.86167e-08
1.4673e-06
-9.36938e-06
7.97636e-08
1.5575e-06
-8.71424e-06
8.10933e-08
1.63465e-06
-7.95532e-06
8.26414e-08
1.70004e-06
-7.11026e-06
8.4391e-08
1.75537e-06
-6.19818e-06
8.62706e-08
1.80232e-06
-5.23702e-06
8.81553e-08
1.84219e-06
-4.24193e-06
8.9869e-08
1.87542e-06
-3.22487e-06
9.11865e-08
1.90125e-06
-2.19507e-06
9.1836e-08
1.91748e-06
-1.1604e-06
9.15099e-08
1.92048e-06
-1.29338e-07
8.98965e-08
1.90565e-06
8.8735e-07
8.6741e-08
1.86834e-06
1.88028e-06
8.19375e-08
1.80457e-06
2.84886e-06
7.55837e-08
1.71127e-06
3.80562e-06
6.79674e-08
1.58634e-06
4.77689e-06
5.9513e-08
1.42891e-06
5.79816e-06
5.07301e-08
1.2403e-06
6.90104e-06
4.21764e-08
1.02568e-06
8.08686e-06
3.44081e-08
7.96112e-07
9.28351e-06
2.78736e-08
5.6863e-07
1.0297e-05
2.27109e-08
3.58699e-07
1.08331e-05
1.8547e-08
1.77812e-07
1.06134e-05
1.46964e-08
5.03922e-08
8.87044e-06
1.03896e-08
4.30037e-06
4.47978e-09
5.46219e-08
-2.66375e-06
1.78564e-08
1.78047e-07
-6.43116e-06
3.95347e-08
3.33841e-07
-8.8121e-06
5.22064e-08
4.9643e-07
-1.01247e-05
5.98264e-08
6.54521e-07