/*--------------------------------*- C++ -*----------------------------------*\
| =========                 |                                                 |
| \\      /  F ield         | OpenFOAM: The Open Source CFD Toolbox           |
|  \\    /   O peration     | Version:  v2006                                 |
|   \\  /    A nd           | Website:  www.openfoam.com                      |
|    \\/     M anipulation  |                                                 |
\*---------------------------------------------------------------------------*/
FoamFile
{
    version     2.0;
    format      ascii;
    class       volScalarField;
    location    "68";
    object      T;
}
// * * * * * * * * * * * * * * * * * * * * * * * * * * * * * * * * * * * * * //

dimensions      [0 0 0 1 0 0 0];


internalField   nonuniform List<scalar> 
78750
(
300.06
300.174
300.275
300.359
300.43
300.488
300.536
300.578
300.614
300.645
300.673
300.698
300.719
300.738
300.753
300.767
300.777
300.785
300.791
300.793
300.794
300.791
300.786
300.779
300.769
300.757
300.742
300.727
300.711
300.7
300.714
300.816
301.126
301.76
302.679
300.065
300.185
300.291
300.386
300.472
300.551
300.622
300.685
300.742
300.792
300.838
300.878
300.914
300.945
300.973
300.996
301.015
301.029
301.039
301.043
301.043
301.037
301.026
301.009
300.986
300.958
300.927
300.895
300.869
300.862
300.907
301.072
301.451
302.105
303.007
300.065
300.191
300.305
300.41
300.507
300.594
300.671
300.74
300.8
300.853
300.9
300.942
300.98
301.013
301.043
301.068
301.09
301.108
301.123
301.133
301.139
301.139
301.133
301.121
301.101
301.075
301.045
301.015
300.996
301.006
301.088
301.308
301.731
302.402
303.312
300.08
300.234
300.376
300.506
300.62
300.717
300.8
300.87
300.931
300.983
301.03
301.071
301.106
301.137
301.163
301.185
301.203
301.217
301.227
301.233
301.234
301.231
301.223
301.209
301.19
301.165
301.137
301.112
301.102
301.132
301.244
301.505
301.956
302.635
303.555
300.092
300.269
300.432
300.576
300.698
300.798
300.879
300.948
301.008
301.061
301.108
301.15
301.185
301.217
301.243
301.266
301.283
301.296
301.304
301.307
301.306
301.301
301.291
301.276
301.257
301.234
301.211
301.196
301.202
301.258
301.408
301.707
302.178
302.863
303.789
300.101
300.296
300.474
300.629
300.756
300.857
300.94
301.009
301.071
301.125
301.172
301.214
301.251
301.283
301.31
301.331
301.347
301.357
301.362
301.362
301.358
301.351
301.339
301.325
301.307
301.288
301.271
301.266
301.288
301.365
301.544
301.872
302.357
303.049
303.98
300.109
300.32
300.51
300.674
300.806
300.91
300.994
301.065
301.128
301.184
301.234
301.279
301.318
301.351
301.378
301.399
301.413
301.42
301.422
301.418
301.41
301.398
301.383
301.367
301.349
301.333
301.324
301.33
301.369
301.472
301.68
302.033
302.532
303.232
304.166
300.116
300.338
300.538
300.709
300.844
300.95
301.036
301.109
301.173
301.231
301.283
301.329
301.371
301.405
301.433
301.454
301.467
301.473
301.472
301.466
301.455
301.441
301.424
301.406
301.388
301.375
301.371
301.387
301.441
301.565
301.797
302.169
302.682
303.391
304.328
300.121
300.353
300.561
300.738
300.878
300.987
301.075
301.151
301.218
301.278
301.333
301.382
301.426
301.462
301.49
301.511
301.523
301.528
301.525
301.516
301.502
301.484
301.464
301.444
301.426
301.415
301.416
301.442
301.511
301.654
301.909
302.298
302.823
303.543
304.482
300.126
300.367
300.584
300.767
300.91
301.021
301.112
301.189
301.258
301.321
301.377
301.429
301.473
301.511
301.541
301.562
301.575
301.579
301.575
301.564
301.548
301.527
301.505
301.483
301.465
301.455
301.46
301.493
301.575
301.736
302.009
302.413
302.95
303.68
304.622
300.13
300.379
300.603
300.791
300.939
301.053
301.146
301.226
301.297
301.362
301.421
301.475
301.521
301.561
301.592
301.613
301.626
301.629
301.624
301.612
301.594
301.571
301.546
301.523
301.504
301.495
301.504
301.545
301.639
301.814
302.104
302.521
303.069
303.809
304.753
300.135
300.392
300.623
300.816
300.967
301.084
301.179
301.261
301.334
301.401
301.463
301.518
301.566
301.607
301.639
301.661
301.674
301.677
301.672
301.659
301.639
301.615
301.589
301.564
301.544
301.537
301.549
301.596
301.7
301.889
302.193
302.622
303.18
303.928
304.874
300.139
300.403
300.64
300.839
300.994
301.113
301.21
301.294
301.37
301.439
301.503
301.56
301.61
301.652
301.685
301.708
301.721
301.724
301.718
301.704
301.683
301.657
301.63
301.604
301.585
301.578
301.594
301.648
301.761
301.962
302.28
302.718
303.285
304.041
304.988
300.143
300.415
300.659
300.862
301.02
301.142
301.241
301.327
301.405
301.476
301.541
301.6
301.652
301.695
301.729
301.753
301.766
301.77
301.763
301.748
301.726
301.7
301.671
301.645
301.626
301.621
301.64
301.699
301.821
302.033
302.362
302.809
303.383
304.146
305.093
300.146
300.426
300.676
300.884
301.045
301.169
301.27
301.358
301.438
301.511
301.579
301.639
301.693
301.737
301.772
301.797
301.81
301.814
301.807
301.792
301.769
301.741
301.712
301.685
301.667
301.663
301.685
301.75
301.88
302.103
302.442
302.896
303.476
304.245
305.193
300.15
300.437
300.693
300.906
301.069
301.195
301.299
301.389
301.471
301.546
301.615
301.677
301.732
301.778
301.814
301.839
301.853
301.857
301.85
301.834
301.811
301.783
301.753
301.726
301.708
301.705
301.731
301.801
301.939
302.171
302.519
302.979
303.564
304.338
305.286
300.154
300.448
300.709
300.926
301.093
301.221
301.326
301.418
301.502
301.579
301.65
301.714
301.77
301.817
301.854
301.88
301.895
301.899
301.892
301.876
301.853
301.824
301.794
301.766
301.748
301.748
301.777
301.852
301.997
302.238
302.594
303.059
303.648
304.426
305.374
300.158
300.458
300.725
300.946
301.116
301.246
301.353
301.447
301.532
301.611
301.684
301.749
301.807
301.855
301.893
301.92
301.936
301.94
301.934
301.918
301.894
301.865
301.834
301.807
301.79
301.791
301.823
301.903
302.054
302.303
302.666
303.135
303.727
304.509
305.457
300.161
300.468
300.741
300.966
301.138
301.27
301.379
301.475
301.562
301.643
301.717
301.784
301.843
301.892
301.931
301.959
301.975
301.98
301.975
301.959
301.935
301.906
301.875
301.848
301.831
301.834
301.869
301.953
302.111
302.366
302.736
303.208
303.803
304.587
305.536
300.165
300.479
300.757
300.985
301.16
301.293
301.404
301.502
301.591
301.673
301.749
301.818
301.878
301.929
301.969
301.997
302.014
302.02
302.015
302
301.976
301.946
301.916
301.889
301.873
301.877
301.914
302.003
302.167
302.428
302.803
303.278
303.875
304.663
305.611
300.168
300.488
300.772
301.004
301.181
301.316
301.429
301.528
301.619
301.703
301.78
301.85
301.912
301.964
302.005
302.035
302.053
302.059
302.055
302.04
302.016
301.987
301.957
301.93
301.914
301.92
301.96
302.053
302.222
302.489
302.869
303.346
303.945
304.734
305.683
300.172
300.498
300.787
301.023
301.202
301.339
301.453
301.554
301.647
301.732
301.811
301.883
301.945
301.998
302.04
302.071
302.09
302.098
302.094
302.08
302.057
302.028
301.998
301.971
301.957
301.964
302.006
302.103
302.277
302.549
302.933
303.411
304.011
304.804
305.752
300.175
300.508
300.801
301.041
301.222
301.361
301.477
301.58
301.674
301.761
301.841
301.914
301.978
302.032
302.075
302.107
302.127
302.136
302.133
302.12
302.097
302.069
302.039
302.013
301.999
302.007
302.052
302.153
302.331
302.608
302.996
303.475
304.076
304.871
305.819
300.178
300.517
300.816
301.059
301.242
301.383
301.5
301.605
301.701
301.789
301.871
301.945
302.01
302.066
302.11
302.142
302.164
302.173
302.171
302.159
302.138
302.11
302.081
302.055
302.042
302.051
302.099
302.202
302.384
302.666
303.057
303.537
304.139
304.935
305.884
300.182
300.526
300.83
301.077
301.262
301.404
301.523
301.629
301.727
301.817
301.9
301.976
302.042
302.098
302.143
302.177
302.199
302.21
302.209
302.198
302.178
302.151
302.122
302.097
302.085
302.096
302.145
302.252
302.438
302.724
303.117
303.598
304.201
304.998
305.948
300.185
300.536
300.844
301.094
301.282
301.426
301.546
301.654
301.753
301.845
301.93
302.006
302.074
302.131
302.177
302.211
302.235
302.246
302.247
302.237
302.218
302.192
302.164
302.139
302.128
302.14
302.191
302.301
302.491
302.781
303.177
303.658
304.261
305.06
306.009
300.188
300.545
300.858
301.112
301.301
301.447
301.569
301.678
301.779
301.872
301.958
302.036
302.105
302.163
302.21
302.245
302.269
302.282
302.284
302.275
302.257
302.233
302.206
302.182
302.171
302.185
302.238
302.35
302.544
302.837
303.235
303.717
304.32
305.12
306.069
300.191
300.554
300.872
301.129
301.32
301.468
301.592
301.703
301.805
301.9
301.987
302.066
302.135
302.194
302.242
302.279
302.304
302.318
302.32
302.313
302.297
302.273
302.247
302.225
302.215
302.229
302.285
302.4
302.596
302.893
303.293
303.774
304.377
305.178
306.128
300.195
300.563
300.886
301.146
301.34
301.489
301.614
301.727
301.83
301.927
302.015
302.096
302.166
302.226
302.275
302.312
302.338
302.353
302.357
302.351
302.336
302.314
302.289
302.267
302.258
302.274
302.331
302.449
302.648
302.948
303.35
303.831
304.434
305.235
306.186
300.198
300.572
300.9
301.163
301.359
301.509
301.637
301.751
301.856
301.954
302.044
302.125
302.197
302.257
302.307
302.345
302.372
302.387
302.393
302.388
302.374
302.354
302.33
302.31
302.302
302.319
302.378
302.498
302.7
303.002
303.406
303.886
304.489
305.292
306.242
300.201
300.581
300.914
301.18
301.378
301.53
301.659
301.775
301.882
301.981
302.072
302.155
302.227
302.288
302.339
302.377
302.405
302.422
302.428
302.425
302.413
302.394
302.372
302.353
302.346
302.364
302.425
302.547
302.752
303.057
303.461
303.941
304.544
305.347
306.298
300.204
300.59
300.928
301.197
301.397
301.551
301.681
301.799
301.907
302.008
302.101
302.184
302.257
302.32
302.371
302.41
302.438
302.456
302.464
302.462
302.451
302.434
302.413
302.396
302.39
302.41
302.471
302.595
302.803
303.11
303.516
303.996
304.598
305.401
306.352
300.207
300.599
300.941
301.214
301.416
301.571
301.704
301.823
301.933
302.035
302.129
302.214
302.288
302.351
302.402
302.442
302.471
302.49
302.499
302.498
302.489
302.473
302.454
302.438
302.434
302.455
302.518
302.644
302.854
303.164
303.57
304.049
304.651
305.455
306.406
300.21
300.608
300.955
301.231
301.435
301.592
301.726
301.847
301.959
302.062
302.158
302.243
302.318
302.382
302.434
302.475
302.504
302.524
302.533
302.534
302.526
302.512
302.495
302.481
302.478
302.5
302.565
302.693
302.905
303.217
303.624
304.103
304.703
305.508
306.46
300.214
300.617
300.969
301.248
301.453
301.613
301.748
301.871
301.984
302.09
302.186
302.273
302.349
302.413
302.466
302.507
302.537
302.557
302.568
302.57
302.564
302.551
302.536
302.523
302.522
302.546
302.612
302.742
302.956
303.27
303.678
304.156
304.756
305.561
306.514
300.217
300.626
300.983
301.265
301.472
301.633
301.771
301.895
302.01
302.117
302.215
302.302
302.379
302.444
302.497
302.539
302.57
302.591
302.602
302.605
302.601
302.59
302.576
302.565
302.566
302.592
302.66
302.791
303.007
303.323
303.731
304.209
304.808
305.614
306.568
300.22
300.635
300.997
301.282
301.491
301.654
301.793
301.919
302.036
302.144
302.243
302.332
302.41
302.475
302.529
302.571
302.603
302.624
302.637
302.641
302.638
302.629
302.617
302.608
302.61
302.638
302.707
302.841
303.059
303.376
303.785
304.262
304.861
305.667
306.622
300.223
300.644
301.01
301.299
301.51
301.674
301.815
301.943
302.062
302.172
302.272
302.362
302.44
302.506
302.561
302.604
302.636
302.658
302.671
302.676
302.674
302.667
302.657
302.65
302.654
302.684
302.755
302.891
303.111
303.43
303.839
304.315
304.914
305.721
306.676
300.226
300.653
301.024
301.315
301.529
301.695
301.837
301.967
302.088
302.199
302.301
302.392
302.471
302.538
302.592
302.636
302.668
302.691
302.705
302.711
302.711
302.705
302.697
302.692
302.699
302.73
302.804
302.941
303.163
303.484
303.894
304.369
304.967
305.775
306.731
300.23
300.663
301.038
301.332
301.547
301.715
301.86
301.991
302.113
302.226
302.329
302.421
302.501
302.569
302.624
302.668
302.701
302.724
302.739
302.746
302.747
302.743
302.737
302.734
302.743
302.777
302.853
302.992
303.217
303.539
303.949
304.423
305.021
305.829
306.786
300.233
300.672
301.052
301.349
301.566
301.735
301.882
302.015
302.139
302.254
302.358
302.451
302.532
302.6
302.656
302.7
302.733
302.757
302.773
302.781
302.783
302.781
302.777
302.776
302.787
302.823
302.902
303.044
303.271
303.594
304.005
304.478
305.075
305.884
306.841
300.236
300.681
301.065
301.366
301.585
301.756
301.904
302.04
302.165
302.282
302.387
302.481
302.563
302.631
302.687
302.732
302.766
302.79
302.806
302.816
302.819
302.818
302.816
302.818
302.832
302.87
302.952
303.096
303.325
303.651
304.061
304.534
305.13
305.94
306.898
300.239
300.69
301.079
301.382
301.603
301.776
301.926
302.064
302.191
302.309
302.416
302.511
302.594
302.663
302.719
302.764
302.798
302.823
302.84
302.85
302.855
302.856
302.856
302.86
302.876
302.918
303.002
303.149
303.381
303.708
304.119
304.59
305.186
305.996
306.954
300.242
300.699
301.093
301.399
301.622
301.796
301.949
302.088
302.217
302.337
302.445
302.542
302.624
302.694
302.751
302.796
302.831
302.856
302.874
302.885
302.89
302.893
302.895
302.901
302.921
302.965
303.052
303.203
303.437
303.766
304.177
304.647
305.242
306.052
307.011
300.246
300.708
301.106
301.415
301.64
301.817
301.971
302.112
302.244
302.365
302.475
302.572
302.655
302.725
302.783
302.828
302.863
302.889
302.907
302.919
302.926
302.93
302.934
302.943
302.965
303.013
303.103
303.257
303.494
303.824
304.235
304.705
305.299
306.109
307.068
300.249
300.717
301.12
301.432
301.659
301.837
301.993
302.136
302.27
302.393
302.504
302.602
302.686
302.757
302.814
302.86
302.895
302.922
302.94
302.953
302.961
302.967
302.973
302.984
303.009
303.06
303.154
303.311
303.551
303.883
304.294
304.762
305.355
306.166
307.124
300.252
300.725
301.133
301.448
301.677
301.857
302.015
302.161
302.296
302.421
302.533
302.632
302.717
302.788
302.846
302.892
302.927
302.954
302.974
302.987
302.997
303.004
303.012
303.026
303.054
303.108
303.205
303.366
303.608
303.942
304.353
304.82
305.412
306.222
307.181
300.255
300.734
301.147
301.465
301.695
301.878
302.038
302.185
302.322
302.449
302.563
302.663
302.748
302.82
302.878
302.924
302.96
302.987
303.007
303.021
303.032
303.04
303.05
303.067
303.098
303.155
303.256
303.42
303.666
304.002
304.412
304.878
305.469
306.278
307.237
300.258
300.743
301.16
301.481
301.714
301.898
302.06
302.21
302.349
302.477
302.592
302.693
302.779
302.851
302.909
302.956
302.992
303.019
303.04
303.055
303.067
303.077
303.089
303.108
303.142
303.203
303.308
303.475
303.724
304.061
304.471
304.935
305.525
306.334
307.292
300.261
300.752
301.174
301.497
301.732
301.918
302.083
302.234
302.376
302.506
302.622
302.724
302.811
302.883
302.941
302.987
303.024
303.052
303.073
303.089
303.102
303.113
303.127
303.149
303.186
303.25
303.359
303.53
303.781
304.12
304.53
304.992
305.581
306.39
307.347
300.264
300.761
301.187
301.514
301.751
301.939
302.105
302.259
302.403
302.534
302.652
302.755
302.842
302.914
302.973
303.019
303.056
303.084
303.106
303.122
303.136
303.149
303.165
303.189
303.229
303.297
303.409
303.584
303.838
304.179
304.588
305.049
305.637
306.444
307.402
300.268
300.77
301.201
301.53
301.769
301.959
302.128
302.284
302.43
302.563
302.682
302.785
302.873
302.946
303.004
303.051
303.088
303.116
303.138
303.156
303.171
303.185
303.203
303.23
303.273
303.344
303.46
303.638
303.895
304.237
304.646
305.105
305.692
306.499
307.455
300.271
300.779
301.215
301.547
301.788
301.98
302.151
302.309
302.457
302.592
302.712
302.816
302.905
302.977
303.036
303.083
303.12
303.148
303.171
303.189
303.205
303.221
303.241
303.27
303.316
303.391
303.51
303.692
303.952
304.295
304.703
305.161
305.746
306.552
307.508
300.274
300.788
301.228
301.563
301.807
302.001
302.174
302.335
302.484
302.621
302.742
302.848
302.936
303.009
303.068
303.114
303.151
303.181
303.204
303.223
303.24
303.257
303.279
303.31
303.359
303.437
303.56
303.745
304.008
304.352
304.759
305.216
305.8
306.605
307.561
300.277
300.797
301.242
301.58
301.825
302.022
302.197
302.36
302.512
302.65
302.773
302.879
302.968
303.04
303.099
303.146
303.183
303.213
303.236
303.256
303.274
303.293
303.316
303.35
303.402
303.483
303.61
303.798
304.063
304.409
304.815
305.27
305.852
306.657
307.612
300.28
300.806
301.256
301.597
301.844
302.043
302.22
302.386
302.54
302.68
302.804
302.91
302.999
303.072
303.131
303.178
303.215
303.245
303.269
303.289
303.308
303.328
303.354
303.39
303.444
303.529
303.659
303.851
304.119
304.465
304.87
305.324
305.905
306.709
307.663
300.283
300.815
301.27
301.614
301.863
302.064
302.244
302.412
302.568
302.71
302.835
302.942
303.031
303.104
303.163
303.209
303.247
303.277
303.301
303.322
303.342
303.364
303.391
303.429
303.486
303.575
303.708
303.903
304.173
304.521
304.925
305.376
305.956
306.759
307.713
300.287
300.824
301.283
301.631
301.882
302.085
302.268
302.438
302.596
302.74
302.866
302.973
303.063
303.136
303.194
303.241
303.278
303.308
303.333
303.355
303.376
303.399
303.428
303.468
303.529
303.62
303.757
303.955
304.228
304.576
304.979
305.429
306.007
306.809
307.763
300.29
300.833
301.297
301.648
301.902
302.107
302.292
302.465
302.625
302.77
302.897
303.005
303.095
303.168
303.226
303.273
303.31
303.34
303.365
303.388
303.41
303.434
303.465
303.507
303.57
303.665
303.805
304.006
304.281
304.63
305.032
305.48
306.057
306.858
307.811
300.293
300.843
301.312
301.665
301.921
302.129
302.316
302.492
302.654
302.801
302.929
303.037
303.127
303.2
303.258
303.304
303.342
303.372
303.398
303.421
303.443
303.469
303.501
303.546
303.612
303.709
303.853
304.057
304.334
304.683
305.084
305.531
306.107
306.907
307.859
300.296
300.852
301.326
301.682
301.941
302.151
302.341
302.519
302.684
302.832
302.961
303.07
303.159
303.232
303.29
303.336
303.373
303.404
303.43
303.453
303.477
303.504
303.538
303.585
303.653
303.754
303.9
304.107
304.386
304.736
305.135
305.58
306.155
306.954
307.906
300.3
300.861
301.34
301.7
301.96
302.173
302.366
302.546
302.713
302.863
302.993
303.102
303.192
303.264
303.322
303.368
303.405
303.435
303.462
303.486
303.51
303.538
303.574
303.623
303.694
303.797
303.947
304.157
304.438
304.788
305.186
305.629
306.203
307.001
307.952
300.303
300.871
301.354
301.717
301.981
302.195
302.391
302.574
302.744
302.895
303.025
303.135
303.224
303.296
303.354
303.399
303.437
303.467
303.494
303.518
303.544
303.573
303.61
303.661
303.734
303.841
303.993
304.206
304.489
304.839
305.236
305.677
306.249
307.047
307.996
300.306
300.88
301.369
301.735
302.001
302.218
302.417
302.603
302.774
302.927
303.058
303.168
303.257
303.329
303.386
303.431
303.468
303.499
303.526
303.551
303.577
303.607
303.646
303.699
303.775
303.884
304.039
304.255
304.539
304.89
305.285
305.725
306.295
307.091
308.04
300.31
300.89
301.384
301.753
302.021
302.241
302.443
302.632
302.805
302.959
303.091
303.201
303.29
303.361
303.418
303.463
303.5
303.531
303.558
303.583
303.61
303.642
303.682
303.737
303.814
303.926
304.084
304.302
304.588
304.939
305.333
305.77
306.34
307.135
308.083
300.313
300.9
301.399
301.771
302.042
302.265
302.469
302.661
302.837
302.992
303.125
303.234
303.323
303.394
303.45
303.495
303.532
303.562
303.59
303.616
303.643
303.676
303.717
303.774
303.854
303.968
304.129
304.349
304.637
304.987
305.38
305.816
306.384
307.178
308.125
300.316
300.91
301.414
301.79
302.063
302.289
302.496
302.691
302.869
303.026
303.159
303.268
303.356
303.427
303.482
303.527
303.563
303.594
303.622
303.648
303.676
303.71
303.753
303.811
303.893
304.01
304.173
304.396
304.684
305.035
305.425
305.86
306.426
307.219
308.166
300.32
300.92
301.429
301.809
302.085
302.314
302.524
302.722
302.902
303.06
303.193
303.302
303.39
303.46
303.515
303.559
303.595
303.626
303.654
303.681
303.71
303.744
303.788
303.848
303.932
304.051
304.217
304.441
304.731
305.081
305.47
305.903
306.468
307.26
308.206
300.324
300.93
301.445
301.828
302.107
302.339
302.553
302.753
302.935
303.095
303.228
303.337
303.424
303.493
303.548
303.591
303.627
303.658
303.686
303.713
303.743
303.778
303.823
303.885
303.971
304.092
304.26
304.486
304.777
305.127
305.514
305.945
306.509
307.3
308.246
300.327
300.941
301.461
301.848
302.13
302.365
302.582
302.785
302.97
303.13
303.263
303.372
303.458
303.527
303.581
303.624
303.659
303.69
303.718
303.745
303.776
303.812
303.859
303.922
304.01
304.133
304.303
304.531
304.823
305.172
305.557
305.987
306.55
307.339
308.284
300.331
300.951
301.478
301.868
302.153
302.391
302.612
302.818
303.005
303.166
303.299
303.407
303.493
303.56
303.614
303.656
303.692
303.722
303.75
303.778
303.809
303.846
303.894
303.958
304.048
304.173
304.345
304.575
304.867
305.216
305.599
306.027
306.589
307.378
308.322
300.335
300.962
301.495
301.889
302.177
302.418
302.643
302.852
303.04
303.202
303.336
303.443
303.528
303.594
303.647
303.689
303.724
303.754
303.782
303.811
303.842
303.88
303.929
303.995
304.087
304.213
304.387
304.618
304.912
305.259
305.641
306.067
306.627
307.416
308.36
300.339
300.974
301.512
301.911
302.202
302.447
302.674
302.887
303.077
303.24
303.373
303.48
303.563
303.629
303.681
303.722
303.756
303.786
303.815
303.843
303.875
303.914
303.964
304.032
304.125
304.253
304.429
304.661
304.955
305.301
305.681
306.106
306.665
307.453
308.396
300.343
300.986
301.53
301.933
302.227
302.476
302.707
302.923
303.115
303.278
303.411
303.516
303.599
303.664
303.714
303.755
303.789
303.819
303.847
303.876
303.909
303.948
303.999
304.068
304.163
304.293
304.471
304.704
304.998
305.344
305.722
306.144
306.703
307.49
308.433
300.347
300.998
301.549
301.956
302.253
302.505
302.741
302.96
303.154
303.317
303.449
303.554
303.635
303.699
303.748
303.788
303.822
303.852
303.88
303.909
303.942
303.982
304.035
304.105
304.201
304.333
304.512
304.747
305.041
305.385
305.761
306.182
306.74
307.526
308.469
300.351
301.01
301.568
301.979
302.28
302.536
302.776
302.998
303.193
303.357
303.488
303.592
303.672
303.734
303.783
303.822
303.855
303.884
303.913
303.942
303.976
304.017
304.07
304.142
304.239
304.373
304.553
304.789
305.083
305.426
305.8
306.22
306.777
307.562
308.506
300.356
301.023
301.588
302.003
302.308
302.568
302.812
303.037
303.234
303.398
303.528
303.63
303.709
303.77
303.817
303.856
303.888
303.917
303.946
303.975
304.009
304.051
304.106
304.178
304.278
304.413
304.594
304.831
305.125
305.467
305.839
306.257
306.813
307.598
308.541
300.361
301.037
301.609
302.028
302.337
302.601
302.849
303.077
303.276
303.439
303.569
303.669
303.746
303.806
303.852
303.89
303.922
303.951
303.979
304.009
304.043
304.086
304.141
304.215
304.316
304.453
304.636
304.873
305.167
305.508
305.878
306.294
306.849
307.634
308.578
300.365
301.05
301.63
302.054
302.366
302.635
302.887
303.119
303.318
303.481
303.61
303.709
303.784
303.842
303.888
303.924
303.956
303.984
304.012
304.042
304.077
304.121
304.177
304.252
304.355
304.493
304.677
304.915
305.209
305.548
305.916
306.331
306.885
307.67
308.614
300.37
301.065
301.651
302.08
302.397
302.67
302.927
303.161
303.362
303.524
303.652
303.749
303.823
303.879
303.923
303.959
303.99
304.018
304.046
304.076
304.112
304.156
304.213
304.29
304.393
304.533
304.719
304.958
305.251
305.588
305.955
306.368
306.922
307.706
308.65
300.375
301.079
301.673
302.107
302.428
302.706
302.967
303.204
303.406
303.568
303.694
303.789
303.861
303.916
303.959
303.994
304.024
304.052
304.08
304.11
304.146
304.191
304.249
304.327
304.432
304.573
304.76
305
305.292
305.628
305.992
306.405
306.958
307.742
308.686
300.381
301.094
301.696
302.135
302.46
302.743
303.009
303.249
303.451
303.613
303.737
303.83
303.9
303.954
303.995
304.029
304.058
304.086
304.114
304.144
304.181
304.226
304.286
304.365
304.471
304.614
304.802
305.042
305.335
305.669
306.031
306.442
306.995
307.779
308.723
300.386
301.109
301.719
302.163
302.493
302.781
303.052
303.294
303.497
303.658
303.78
303.872
303.94
303.991
304.032
304.064
304.093
304.12
304.148
304.179
304.216
304.262
304.322
304.403
304.511
304.655
304.844
305.084
305.376
305.709
306.069
306.479
307.031
307.815
308.759
300.391
301.125
301.743
302.192
302.527
302.821
303.096
303.341
303.545
303.704
303.824
303.914
303.98
304.03
304.068
304.1
304.128
304.155
304.182
304.213
304.251
304.298
304.359
304.441
304.55
304.696
304.886
305.127
305.419
305.75
306.108
306.517
307.068
307.852
308.797
300.397
301.141
301.768
302.222
302.562
302.861
303.142
303.389
303.593
303.751
303.869
303.956
304.02
304.068
304.105
304.136
304.163
304.189
304.217
304.248
304.286
304.334
304.396
304.479
304.59
304.737
304.928
305.17
305.461
305.79
306.146
306.553
307.104
307.888
308.833
300.403
301.158
301.793
302.253
302.598
302.903
303.188
303.438
303.642
303.798
303.914
303.999
304.061
304.107
304.143
304.172
304.199
304.224
304.252
304.283
304.322
304.37
304.434
304.518
304.63
304.779
304.971
305.213
305.503
305.831
306.186
306.592
307.142
307.926
308.871
300.409
301.175
301.818
302.284
302.635
302.946
303.236
303.489
303.692
303.847
303.96
304.042
304.102
304.146
304.18
304.209
304.234
304.26
304.287
304.319
304.357
304.407
304.471
304.557
304.67
304.82
305.014
305.256
305.545
305.871
306.224
306.629
307.179
307.962
308.907
300.415
301.192
301.844
302.316
302.673
302.99
303.285
303.54
303.743
303.896
304.007
304.086
304.143
304.186
304.218
304.246
304.271
304.295
304.323
304.354
304.393
304.443
304.509
304.596
304.711
304.863
305.057
305.3
305.589
305.913
306.263
306.667
307.217
308.001
308.946
300.421
301.209
301.871
302.349
302.711
303.035
303.335
303.592
303.795
303.945
304.054
304.13
304.185
304.225
304.257
304.283
304.307
304.331
304.358
304.39
304.43
304.48
304.547
304.635
304.752
304.905
305.1
305.343
305.631
305.953
306.302
306.704
307.254
308.037
308.982
300.427
301.227
301.898
302.383
302.751
303.082
303.387
303.645
303.847
303.996
304.101
304.175
304.227
304.266
304.295
304.32
304.344
304.368
304.394
304.426
304.466
304.518
304.586
304.675
304.793
304.947
305.144
305.387
305.674
305.995
306.342
306.743
307.292
308.076
309.021
300.433
301.245
301.926
302.417
302.792
303.13
303.44
303.7
303.9
304.046
304.149
304.22
304.27
304.306
304.334
304.358
304.381
304.404
304.431
304.463
304.503
304.555
304.624
304.715
304.834
304.99
305.187
305.43
305.716
306.035
306.38
306.781
307.329
308.112
309.058
300.44
301.264
301.954
302.453
302.835
303.18
303.495
303.756
303.955
304.098
304.198
304.266
304.313
304.347
304.374
304.396
304.418
304.441
304.467
304.499
304.54
304.594
304.663
304.756
304.877
305.033
305.232
305.475
305.76
306.077
306.42
306.82
307.369
308.151
309.097
300.447
301.283
301.984
302.49
302.879
303.232
303.551
303.814
304.011
304.151
304.247
304.312
304.357
304.389
304.413
304.435
304.456
304.478
304.504
304.536
304.578
304.632
304.702
304.796
304.918
305.076
305.275
305.518
305.802
306.117
306.459
306.857
307.406
308.188
309.134
300.454
301.303
302.015
302.528
302.925
303.285
303.61
303.873
304.069
304.205
304.298
304.359
304.401
304.43
304.454
304.474
304.494
304.515
304.541
304.574
304.616
304.67
304.742
304.837
304.961
305.12
305.32
305.563
305.846
306.16
306.5
306.897
307.445
308.228
309.173
300.461
301.324
302.047
302.568
302.973
303.342
303.671
303.935
304.128
304.261
304.349
304.407
304.446
304.473
304.494
304.513
304.532
304.553
304.579
304.611
304.654
304.709
304.782
304.878
305.003
305.163
305.364
305.607
305.888
306.2
306.538
306.935
307.483
308.265
309.21
300.468
301.346
302.08
302.609
303.023
303.4
303.734
303.998
304.188
304.317
304.402
304.456
304.491
304.516
304.535
304.553
304.571
304.592
304.617
304.65
304.692
304.749
304.823
304.92
305.046
305.208
305.409
305.652
305.933
306.243
306.579
306.975
307.523
308.305
309.25
300.476
301.368
302.114
302.652
303.074
303.46
303.798
304.063
304.25
304.375
304.455
304.505
304.537
304.559
304.577
304.593
304.61
304.63
304.655
304.688
304.731
304.788
304.863
304.961
305.089
305.251
305.453
305.696
305.975
306.283
306.618
307.013
307.56
308.342
309.287
300.484
301.391
302.149
302.697
303.128
303.522
303.865
304.129
304.313
304.434
304.509
304.555
304.584
304.604
304.619
304.634
304.65
304.669
304.694
304.727
304.771
304.828
304.905
305.004
305.133
305.297
305.499
305.742
306.02
306.326
306.659
307.053
307.601
308.382
309.327
300.492
301.415
302.186
302.743
303.183
303.586
303.933
304.197
304.378
304.493
304.564
304.606
304.631
304.648
304.662
304.675
304.69
304.709
304.733
304.766
304.81
304.868
304.945
305.046
305.176
305.34
305.543
305.785
306.062
306.366
306.698
307.091
307.638
308.419
309.363
300.501
301.44
302.224
302.79
303.24
303.653
304.004
304.266
304.444
304.554
304.62
304.657
304.679
304.694
304.705
304.717
304.731
304.749
304.773
304.806
304.85
304.91
304.988
305.09
305.221
305.387
305.59
305.831
306.107
306.409
306.74
307.132
307.679
308.46
309.404
300.51
301.466
302.263
302.84
303.3
303.721
304.076
304.338
304.511
304.616
304.676
304.709
304.728
304.739
304.749
304.759
304.772
304.789
304.813
304.846
304.89
304.95
305.029
305.132
305.264
305.43
305.634
305.875
306.149
306.449
306.778
307.17
307.716
308.496
309.44
300.52
301.493
302.304
302.891
303.361
303.791
304.15
304.411
304.58
304.679
304.734
304.763
304.777
304.786
304.793
304.802
304.814
304.83
304.854
304.887
304.932
304.992
305.072
305.176
305.31
305.477
305.681
305.921
306.194
306.493
306.82
307.211
307.758
308.537
309.481
300.529
301.521
302.346
302.943
303.424
303.863
304.226
304.485
304.649
304.744
304.793
304.816
304.827
304.833
304.838
304.845
304.855
304.871
304.894
304.927
304.972
305.033
305.114
305.219
305.353
305.521
305.725
305.964
306.236
306.533
306.859
307.249
307.795
308.574
309.517
300.539
301.549
302.388
302.997
303.488
303.936
304.303
304.56
304.72
304.809
304.852
304.871
304.878
304.881
304.884
304.889
304.899
304.914
304.936
304.969
305.015
305.076
305.158
305.264
305.4
305.568
305.772
306.011
306.281
306.577
306.901
307.291
307.837
308.615
309.558
300.55
301.578
302.432
303.051
303.553
304.011
304.381
304.637
304.792
304.875
304.913
304.927
304.93
304.93
304.93
304.934
304.941
304.956
304.978
305.01
305.056
305.118
305.2
305.307
305.443
305.612
305.816
306.054
306.322
306.616
306.939
307.328
307.873
308.651
309.593
300.56
301.608
302.476
303.107
303.62
304.087
304.46
304.715
304.866
304.943
304.974
304.983
304.983
304.979
304.977
304.979
304.986
304.999
305.021
305.053
305.099
305.162