/*--------------------------------*- C++ -*----------------------------------*\
| =========                 |                                                 |
| \\      /  F ield         | OpenFOAM: The Open Source CFD Toolbox           |
|  \\    /   O peration     | Version:  v2006                                 |
|   \\  /    A nd           | Website:  www.openfoam.com                      |
|    \\/     M anipulation  |                                                 |
\*---------------------------------------------------------------------------*/
FoamFile
{
    version     2.0;
    format      ascii;
    class       volScalarField;
    location    "85";
    object      alphat;
}
// * * * * * * * * * * * * * * * * * * * * * * * * * * * * * * * * * * * * * //

dimensions      [1 -1 -1 0 0 0 0];


internalField   nonuniform List<scalar> 
78750
(
1.44034e-09
2.711e-07
5.17042e-07
7.68e-07
1.01747e-06
1.26133e-06
1.49644e-06
1.72012e-06
1.93011e-06
2.12458e-06
2.30219e-06
2.46199e-06
2.60344e-06
2.72633e-06
2.83e-06
2.91375e-06
2.97753e-06
3.02122e-06
3.04462e-06
3.04732e-06
3.02906e-06
2.98815e-06
2.92366e-06
2.83416e-06
2.71796e-06
2.57336e-06
2.39831e-06
2.19131e-06
1.95262e-06
1.6832e-06
1.38374e-06
1.05708e-06
7.19815e-07
4.08423e-07
5.74823e-09
4.13439e-09
2.50105e-06
5.41728e-06
8.07527e-06
1.00804e-05
1.1618e-05
1.29121e-05
1.40892e-05
1.52207e-05
1.63537e-05
1.75198e-05
1.87407e-05
2.00607e-05
2.15281e-05
2.24304e-05
2.25248e-05
2.25223e-05
2.24328e-05
2.22646e-05
2.20245e-05
2.17177e-05
2.13445e-05
2.09041e-05
2.03915e-05
1.97978e-05
1.91129e-05
1.77374e-05
1.55028e-05
1.32823e-05
1.09879e-05
8.51046e-06
6.13937e-06
4.59295e-06
2.67524e-06
2.24479e-08
7.23627e-09
2.4314e-06
5.3841e-06
8.98092e-06
1.27432e-05
1.60774e-05
1.8733e-05
2.0778e-05
2.23628e-05
2.36107e-05
2.46043e-05
2.53939e-05
2.6013e-05
2.65037e-05
2.69041e-05
2.71559e-05
2.68022e-05
2.63618e-05
2.58527e-05
2.52927e-05
2.46994e-05
2.37322e-05
2.25176e-05
2.12131e-05
1.98782e-05
1.85329e-05
1.71578e-05
1.56837e-05
1.3973e-05
1.18799e-05
9.53697e-06
7.71756e-06
7.19765e-06
2.66839e-06
3.95997e-08
1.13454e-08
2.32386e-06
5.33407e-06
9.60341e-06
1.48153e-05
1.97079e-05
2.33688e-05
2.58393e-05
2.74251e-05
2.8346e-05
2.8742e-05
2.87144e-05
2.83455e-05
2.77095e-05
2.68778e-05
2.59119e-05
2.48514e-05
2.37214e-05
2.25468e-05
2.13528e-05
2.01663e-05
1.90191e-05
1.79469e-05
1.69811e-05
1.61391e-05
1.54071e-05
1.47121e-05
1.38947e-05
1.27363e-05
1.11431e-05
9.49002e-06
8.7509e-06
9.14723e-06
2.40255e-06
5.20437e-08
1.6335e-08
2.28103e-06
5.43592e-06
1.04059e-05
1.70029e-05
2.32234e-05
2.75708e-05
3.01796e-05
3.14648e-05
3.17105e-05
3.11549e-05
3.00267e-05
2.85387e-05
2.68733e-05
2.51692e-05
2.35159e-05
2.19588e-05
2.05096e-05
1.91604e-05
1.7898e-05
1.67175e-05
1.56308e-05
1.46639e-05
1.38448e-05
1.31932e-05
1.26996e-05
1.22889e-05
1.17946e-05
1.10202e-05
9.96589e-06
9.11568e-06
9.45921e-06
9.60515e-06
2.22268e-06
6.02344e-08
2.12284e-08
2.31058e-06
5.65991e-06
1.13105e-05
1.92397e-05
2.66466e-05
3.13759e-05
3.37106e-05
3.428e-05
3.35432e-05
3.19005e-05
2.97275e-05
2.73537e-05
2.50276e-05
2.28995e-05
2.10317e-05
1.94246e-05
1.80436e-05
1.68397e-05
1.57657e-05
1.47912e-05
1.3907e-05
1.31115e-05
1.24066e-05
1.18018e-05
1.12966e-05
1.08419e-05
1.03269e-05
9.6551e-06
8.93745e-06
8.69888e-06
9.92301e-06
9.23255e-06
2.10512e-06
6.58061e-08
2.61309e-08
2.33963e-06
5.81744e-06
1.19261e-05
2.07279e-05
2.87454e-05
3.34768e-05
3.54199e-05
3.5322e-05
3.37454e-05
3.12367e-05
2.83168e-05
2.54048e-05
2.27645e-05
2.05066e-05
1.86354e-05
1.71015e-05
1.58379e-05
1.47811e-05
1.38817e-05
1.31142e-05
1.24653e-05
1.19012e-05
1.13807e-05
1.08779e-05
1.03777e-05
9.85382e-06
9.26759e-06
8.6314e-06
8.13675e-06
8.31135e-06
1.01133e-05
8.57956e-06
2.02359e-06
7.03806e-08
3.02521e-08
2.376e-06
5.94352e-06
1.23576e-05
2.18128e-05
3.03544e-05
3.50856e-05
3.66315e-05
3.58881e-05
3.35759e-05
3.04068e-05
2.70152e-05
2.38475e-05
2.11216e-05
1.88802e-05
1.70776e-05
1.56397e-05
1.44903e-05
1.35628e-05
1.28126e-05
1.22205e-05
1.17599e-05
1.13611e-05
1.09474e-05
1.04658e-05
9.89609e-06
9.24308e-06
8.53888e-06
7.88002e-06
7.50094e-06
7.91432e-06
1.00477e-05
8.05122e-06
1.97289e-06
7.52003e-08
3.4232e-08
2.3996e-06
6.00719e-06
1.25881e-05
2.2408e-05
3.1154e-05
3.57364e-05
3.69254e-05
3.57187e-05
3.29441e-05
2.9412e-05
2.58051e-05
2.25514e-05
1.98167e-05
1.75989e-05
1.58276e-05
1.44234e-05
1.33173e-05
1.24554e-05
1.1811e-05
1.13831e-05
1.11297e-05
1.09446e-05
1.0704e-05
1.0305e-05
9.70396e-06
8.93647e-06
8.11071e-06
7.3991e-06
7.06569e-06
7.60616e-06
9.90671e-06
7.60727e-06
1.93654e-06
8.06759e-08
3.79142e-08
2.42426e-06
6.06063e-06
1.2754e-05
2.28436e-05
3.17818e-05
3.62817e-05
3.71963e-05
3.56268e-05
3.25116e-05
2.87444e-05
2.50268e-05
2.1751e-05
1.9034e-05
1.68411e-05
1.50883e-05
1.3693e-05
1.25912e-05
1.17411e-05
1.1134e-05
1.0786e-05
1.06491e-05
1.06031e-05
1.04956e-05
1.01806e-05
9.5809e-06
8.74073e-06
7.82394e-06
7.06315e-06
6.74437e-06
7.35248e-06
9.74395e-06
7.2629e-06
1.91204e-06
8.66534e-08
4.15859e-08
2.44089e-06
6.08926e-06
1.2854e-05
2.31109e-05
3.21065e-05
3.64619e-05
3.71326e-05
3.52981e-05
3.19687e-05
2.80811e-05
2.43302e-05
2.10695e-05
1.83798e-05
1.62068e-05
1.44612e-05
1.30628e-05
1.19538e-05
1.11033e-05
1.05205e-05
1.02371e-05
1.01981e-05
1.02749e-05
1.02935e-05
1.00709e-05
9.49862e-06
8.62315e-06
7.6471e-06
6.84982e-06
6.5385e-06
7.19521e-06
9.64954e-06
6.96865e-06
1.89419e-06
9.28892e-08
4.53971e-08
2.46182e-06
6.13182e-06
1.29813e-05
2.34034e-05
3.24466e-05
3.66724e-05
3.71302e-05
3.50754e-05
3.15849e-05
2.76249e-05
2.38719e-05
2.06403e-05
1.79799e-05
1.58214e-05
1.40723e-05
1.26556e-05
1.15192e-05
1.06413e-05
1.00437e-05
9.773e-06
9.77508e-06
9.9211e-06
1.00271e-05
9.8855e-06
9.3604e-06
8.49107e-06
7.50008e-06
6.69476e-06
6.39945e-06
7.10357e-06
9.61736e-06
6.72708e-06
1.88297e-06
9.91588e-08
4.91834e-08
2.47817e-06
6.16425e-06
1.30844e-05
2.36319e-05
3.26712e-05
3.6747e-05
3.70064e-05
3.47695e-05
3.11647e-05
2.71722e-05
2.34427e-05
2.02533e-05
1.76282e-05
1.54881e-05
1.37395e-05
1.23085e-05
1.11488e-05
1.0246e-05
9.63375e-06
9.3678e-06
9.39367e-06
9.58455e-06
9.75205e-06
9.67436e-06
9.19812e-06
8.35594e-06
7.37938e-06
6.5903e-06
6.32565e-06
7.08803e-06
9.66213e-06
6.51857e-06
1.87654e-06
1.05312e-07
5.32453e-08
2.49943e-06
6.21357e-06
1.32306e-05
2.39243e-05
3.29434e-05
3.68575e-05
3.6927e-05
3.4534e-05
3.08484e-05
2.68508e-05
2.31593e-05
2.00155e-05
1.74229e-05
1.52949e-05
1.35386e-05
1.20841e-05
1.08902e-05
9.9492e-06
9.30299e-06
9.01786e-06
9.03995e-06
9.24472e-06
9.44486e-06
9.41378e-06
8.98795e-06
8.19212e-06
7.25679e-06
6.50729e-06
6.28816e-06
7.11908e-06
9.75576e-06
6.34901e-06
1.87515e-06
1.11312e-07
5.72242e-08
2.51767e-06
6.25685e-06
1.33606e-05
2.4175e-05
3.31543e-05
3.69093e-05
3.6804e-05
3.42766e-05
3.05319e-05
2.65453e-05
2.29012e-05
1.98085e-05
1.72526e-05
1.51412e-05
1.33819e-05
1.19082e-05
1.06837e-05
9.70611e-06
9.02488e-06
8.71537e-06
8.72475e-06
8.92978e-06
9.14566e-06
9.14636e-06
8.76537e-06
8.02277e-06
7.14365e-06
6.44947e-06
6.28928e-06
7.20152e-06
9.89713e-06
6.20608e-06
1.87745e-06
1.17118e-07
6.1474e-08
2.53982e-06
6.31272e-06
1.35237e-05
2.44764e-05
3.34021e-05
3.69885e-05
3.67187e-05
3.40815e-05
3.03037e-05
2.63448e-05
2.27539e-05
1.97107e-05
1.71868e-05
1.50862e-05
1.33179e-05
1.18184e-05
1.05556e-05
9.5324e-06
8.80276e-06
8.45134e-06
8.42949e-06
8.61648e-06
8.83167e-06
8.85359e-06
8.5169e-06
7.83625e-06
7.02637e-06
6.39987e-06
6.30874e-06
7.31121e-06
1.00625e-05
6.0943e-06
1.88356e-06
1.22766e-07
6.56178e-08
2.55992e-06
6.36502e-06
1.36766e-05
2.47494e-05
3.36129e-05
3.70403e-05
3.66208e-05
3.38881e-05
3.00881e-05
2.61629e-05
2.26281e-05
1.96373e-05
1.71493e-05
1.50646e-05
1.3292e-05
1.17705e-05
1.04719e-05
9.40404e-06
8.62468e-06
8.22696e-06
8.16727e-06
8.3274e-06
8.53171e-06
8.56546e-06
8.26782e-06
7.65028e-06
6.91548e-06
6.36425e-06
6.35041e-06
7.45188e-06
1.02488e-05
6.00233e-06
1.89215e-06
1.28238e-07
6.99965e-08
2.58286e-06
6.42602e-06
1.38527e-05
2.50585e-05
3.38522e-05
3.712e-05
3.6565e-05
3.37585e-05
2.99538e-05
2.60702e-05
2.2591e-05
1.96486e-05
1.71921e-05
1.5119e-05
1.33383e-05
1.17904e-05
1.04508e-05
9.33077e-06
8.49159e-06
8.03338e-06
7.92175e-06
8.04185e-06
8.22462e-06
8.26434e-06
8.00562e-06
7.4552e-06
6.8013e-06
6.3313e-06
6.40058e-06
7.60688e-06
1.04433e-05
5.93436e-06
1.90353e-06
1.33573e-07
7.42747e-08
2.60437e-06
6.48539e-06
1.40248e-05
2.53527e-05
3.40723e-05
3.71896e-05
3.651e-05
3.36375e-05
2.98319e-05
2.59906e-05
2.25682e-05
1.9677e-05
1.7257e-05
1.52018e-05
1.3419e-05
1.18499e-05
1.04721e-05
9.30072e-06
8.40038e-06
7.87698e-06
7.7073e-06
7.78014e-06
7.93352e-06
7.97216e-06
7.74793e-06
7.26337e-06
6.69144e-06
6.30532e-06
6.462e-06
7.77819e-06
1.06417e-05
5.87925e-06
1.91621e-06
1.38744e-07
7.8753e-08
2.62787e-06
6.55103e-06
1.4215e-05
2.56761e-05
3.43192e-05
3.72905e-05
3.65002e-05
3.35775e-05
2.97802e-05
2.59825e-05
2.26134e-05
1.97692e-05
1.73824e-05
1.53431e-05
1.35569e-05
1.19651e-05
1.05465e-05
9.31874e-06
8.34944e-06
7.74948e-06
7.51089e-06
7.5269e-06
7.64343e-06
7.67654e-06
7.48543e-06
7.06748e-06
6.57932e-06
6.27944e-06
6.52642e-06
7.95609e-06
1.08404e-05
5.84171e-06
1.93085e-06
1.43784e-07
8.31454e-08
2.65014e-06
6.61589e-06
1.44059e-05
2.5997e-05
3.4562e-05
3.7394e-05
3.64983e-05
3.35264e-05
2.97358e-05
2.59803e-05
2.26657e-05
1.98727e-05
1.75255e-05
1.55095e-05
1.37276e-05
1.21191e-05
1.06632e-05
9.37966e-06
8.33941e-06
7.65793e-06
7.34455e-06
7.29761e-06
7.3712e-06
7.39323e-06
7.23086e-06
6.87648e-06
6.47041e-06
6.25682e-06
6.59629e-06
8.14202e-06
1.1035e-05
5.81228e-06
1.94598e-06
1.48658e-07
8.77085e-08
2.67356e-06
6.6851e-06
1.46122e-05
2.63471e-05
3.48372e-05
3.75349e-05
3.65416e-05
3.35267e-05
2.97445e-05
2.60292e-05
2.27655e-05
2.00206e-05
1.77116e-05
1.57194e-05
1.39432e-05
1.23194e-05
1.08263e-05
9.48468e-06
8.36816e-06
7.59612e-06
7.1994e-06
7.08222e-06
7.10718e-06
7.11412e-06
6.97778e-06
6.68512e-06
6.36e-06
6.23254e-06
6.66555e-06
8.32909e-06
1.12239e-05
5.79286e-06
1.96194e-06
1.53379e-07
9.22018e-08
2.69572e-06
6.75315e-06
1.482e-05
2.67018e-05
3.51187e-05
3.76875e-05
3.65958e-05
3.35313e-05
2.97532e-05
2.60778e-05
2.28677e-05
2.01761e-05
1.79123e-05
1.59518e-05
1.41895e-05
1.25575e-05
1.10316e-05
9.63297e-06
8.43797e-06
7.57031e-06
7.08448e-06
6.89148e-06
6.86268e-06
6.84979e-06
6.73505e-06
6.50018e-06
6.25315e-06
6.21081e-06
6.73878e-06
8.52316e-06
1.14101e-05
5.7804e-06
1.97829e-06
1.57914e-07
9.68354e-08
2.7185e-06
6.8237e-06
1.50357e-05
2.70646e-05
3.53941e-05
3.78372e-05
3.66652e-05
3.35628e-05
2.9794e-05
2.61587e-05
2.30004e-05
2.03603e-05
1.81413e-05
1.62146e-05
1.44699e-05
1.28341e-05
1.12788e-05
9.82391e-06
8.54771e-06
7.57819e-06
6.99605e-06
6.72077e-06
6.63288e-06
6.5957e-06
6.49854e-06
6.31777e-06
6.14588e-06
6.1868e-06
6.80887e-06
8.7126e-06
1.15821e-05
5.77058e-06
1.99425e-06
1.62253e-07
1.01412e-07
2.74048e-06
6.89404e-06
1.52514e-05
2.7416e-05
3.56539e-05
3.79735e-05
3.6723e-05
3.35943e-05
2.98342e-05
2.62378e-05
2.31334e-05
2.05495e-05
1.83817e-05
1.64963e-05
1.47774e-05
1.31456e-05
1.15669e-05
1.00588e-05
8.70078e-06
7.62598e-06
6.94163e-06
6.57846e-06
6.42623e-06
6.35964e-06
6.27481e-06
6.14312e-06
6.04253e-06
6.16499e-06
6.88238e-06
8.9097e-06
1.17567e-05
5.76721e-06
2.01047e-06
1.66382e-07
1.06091e-07
2.76271e-06
6.96715e-06
1.54789e-05
2.77699e-05
3.59098e-05
3.81068e-05
3.67821e-05
3.3634e-05
2.98872e-05
2.63318e-05
2.32818e-05
2.07541e-05
1.86386e-05
1.67974e-05
1.51093e-05
1.34881e-05
1.18925e-05
1.03355e-05
8.89682e-06
7.7144e-06
6.92153e-06
6.46417e-06
6.24183e-06
6.14032e-06
6.06228e-06
5.97433e-06
5.94059e-06
6.1417e-06
6.95313e-06
9.10438e-06
1.1926e-05
5.76641e-06
2.02614e-06
1.70287e-07
1.10703e-07
2.78363e-06
7.03733e-06
1.57002e-05
2.81085e-05
3.6147e-05
3.82234e-05
3.68268e-05
3.3662e-05
2.99342e-05
2.64232e-05
2.34297e-05
2.09616e-05
1.89034e-05
1.71128e-05
1.5463e-05
1.38602e-05
1.22551e-05
1.06548e-05
9.13817e-06
7.84847e-06
6.94194e-06
6.38469e-06
6.08639e-06
5.94382e-06
5.86595e-06
5.81524e-06
5.8432e-06
6.12031e-06
7.02746e-06
9.3095e-06
1.20952e-05
5.77271e-06
2.04219e-06
1.73967e-07
1.15378e-07
2.80486e-06
7.10907e-06
1.59259e-05
2.84484e-05
3.63799e-05
3.83355e-05
3.68687e-05
3.36898e-05
2.99912e-05
2.65222e-05
2.35823e-05
2.11739e-05
1.91753e-05
1.74392e-05
1.58334e-05
1.42565e-05
1.26501e-05
1.10136e-05
9.42375e-06
8.02854e-06
7.00354e-06
6.34064e-06
5.96052e-06
5.77052e-06
5.68587e-06
5.66561e-06
5.74994e-06
6.10049e-06
7.10471e-06
9.52258e-06
1.22664e-05
5.78679e-06
2.05899e-06
1.77428e-07
1.19981e-07
2.8251e-06
7.17871e-06
1.61464e-05
2.8774e-05
3.65943e-05
3.84298e-05
3.68928e-05
3.36995e-05
3.00301e-05
2.66076e-05
2.37277e-05
2.1385e-05
1.94514e-05
1.77756e-05
1.62202e-05
1.46766e-05
1.30768e-05
1.14112e-05
9.75323e-06
8.25509e-06
7.10855e-06
6.3356e-06
5.86844e-06
5.62466e-06
5.5258e-06
5.5284e-06
5.66288e-06
6.08326e-06
7.18443e-06
9.74062e-06
1.24365e-05
5.80573e-06
2.07622e-06
1.80668e-07
1.24609e-07
2.84558e-06
7.2495e-06
1.637e-05
2.90987e-05
3.68029e-05
3.85172e-05
3.69101e-05
3.37033e-05
3.00644e-05
2.66899e-05
2.3871e-05
2.15952e-05
1.97289e-05
1.8117e-05
1.66176e-05
1.51147e-05
1.35302e-05
1.1844e-05
1.01241e-05
8.52603e-06
7.256e-06
6.36939e-06
5.81049e-06
5.50689e-06
5.38649e-06
5.40433e-06
5.58269e-06
6.06929e-06
7.2668e-06
9.96201e-06
1.26059e-05
5.82935e-06
2.09382e-06
1.83698e-07
1.29168e-07
2.86555e-06
7.31921e-06
1.65894e-05
2.94099e-05
3.69933e-05
3.8586e-05
3.69081e-05
3.36876e-05
3.0081e-05
2.67586e-05
2.40053e-05
2.18008e-05
2.0006e-05
1.84627e-05
1.7025e-05
1.55698e-05
1.40086e-05
1.23097e-05
1.05342e-05
8.83984e-06
7.44596e-06
6.44326e-06
5.78872e-06
5.41966e-06
5.27038e-06
5.2954e-06
5.5103e-06
6.05752e-06
7.34831e-06
1.01831e-05
1.27718e-05
5.85613e-06
2.11154e-06
1.86524e-07
1.33725e-07
2.88583e-06
7.39048e-06
1.68105e-05
2.97172e-05
3.71745e-05
3.86434e-05
3.68935e-05
3.36591e-05
3.00857e-05
2.6818e-05
2.41319e-05
2.2e-05
2.02789e-05
1.88077e-05
1.74368e-05
1.60362e-05
1.45068e-05
1.28043e-05
1.09808e-05
9.1944e-06
7.67736e-06
6.55671e-06
5.80294e-06
5.36316e-06
5.178e-06
5.2023e-06
5.44668e-06
6.05021e-06
7.43375e-06
1.04037e-05
1.2935e-05
5.88584e-06
2.12929e-06
1.89158e-07
1.38222e-07
2.90595e-06
7.46298e-06
1.70275e-05
3.0011e-05
3.73375e-05
3.8681e-05
3.68577e-05
3.36092e-05
3.00709e-05
2.68645e-05
2.42482e-05
2.2191e-05
2.05467e-05
1.91514e-05
1.78519e-05
1.6512e-05
1.50219e-05
1.33242e-05
1.14603e-05
9.58737e-06
7.94938e-06
6.71001e-06
5.85412e-06
5.33877e-06
5.11102e-06
5.1269e-06
5.39364e-06
6.04854e-06
7.52256e-06
1.06239e-05
1.30962e-05
5.91804e-06
2.14697e-06
1.9161e-07
1.42684e-07
2.92537e-06
7.53449e-06
1.7243e-05
3.02972e-05
3.74874e-05
3.87034e-05
3.68053e-05
3.35415e-05
3.00381e-05
2.68953e-05
2.43505e-05
2.23702e-05
2.08056e-05
1.94898e-05
1.82663e-05
1.69927e-05
1.55494e-05
1.3865e-05
1.19692e-05
1.0016e-05
8.26043e-06
6.90231e-06
5.94192e-06
5.34659e-06
5.06996e-06
5.07003e-06
5.35199e-06
6.05258e-06
7.61317e-06
1.08426e-05
1.32555e-05
5.95247e-06
2.16452e-06
1.93888e-07
1.47067e-07
2.94426e-06
7.60475e-06
1.74551e-05
3.05715e-05
3.76201e-05
3.87059e-05
3.67321e-05
3.34543e-05
2.99869e-05
2.69093e-05
2.4439e-05
2.25389e-05
2.1057e-05
1.98238e-05
1.86794e-05
1.74766e-05
1.60859e-05
1.44224e-05
1.25028e-05
1.04765e-05
8.60836e-06
7.13274e-06
6.06632e-06
5.38716e-06
5.05584e-06
5.03302e-06
5.32308e-06
6.06332e-06
7.70579e-06
1.10597e-05
1.34136e-05
5.98889e-06
2.18191e-06
1.96004e-07
1.51363e-07
2.96218e-06
7.67234e-06
1.76625e-05
3.08371e-05
3.77389e-05
3.86909e-05
3.6637e-05
3.33421e-05
2.99119e-05
2.69035e-05
2.45118e-05
2.26948e-05
2.1298e-05
2.01497e-05
1.90878e-05
1.79598e-05
1.66272e-05
1.49917e-05
1.30563e-05
1.09645e-05
8.98988e-06
7.39905e-06
6.22599e-06
5.45995e-06
5.06879e-06
5.01653e-06
5.3078e-06
6.08139e-06
7.80047e-06
1.12745e-05
1.35702e-05
6.02694e-06
2.19908e-06
1.97962e-07
1.556e-07
2.97964e-06
7.73986e-06
1.78716e-05
3.10957e-05
3.78438e-05
3.86606e-05
3.65284e-05
3.32183e-05
2.98244e-05
2.68807e-05
2.45661e-05
2.28359e-05
2.1528e-05
2.04671e-05
1.94901e-05
1.84401e-05
1.71701e-05
1.55687e-05
1.3625e-05
1.14756e-05
9.40146e-06
7.69876e-06
6.41944e-06
5.56435e-06
5.109e-06
5.02139e-06
5.30734e-06
6.1081e-06
7.8984e-06
1.14881e-05
1.37261e-05
6.0666e-06
2.21606e-06
1.99775e-07
1.59761e-07
2.99646e-06
7.80571e-06
1.80763e-05
3.13419e-05
3.7932e-05
3.86106e-05
3.63964e-05
3.30703e-05
2.97155e-05
2.68431e-05
2.461e-05
2.29642e-05
2.17449e-05
2.07747e-05
1.98855e-05
1.89165e-05
1.77129e-05
1.61508e-05
1.42056e-05
1.20062e-05
9.83988e-06
8.02913e-06
6.64455e-06
5.69896e-06
5.17589e-06
5.04771e-06
5.32225e-06
6.14412e-06
8.0001e-06
1.17007e-05
1.38816e-05
6.10769e-06
2.23283e-06
2.01452e-07
1.63838e-07
3.01265e-06
7.87036e-06
1.82788e-05
3.15778e-05
3.80047e-05
3.85435e-05
3.62475e-05
3.29059e-05
2.95899e-05
2.6788e-05
2.46383e-05
2.30814e-05
2.19517e-05
2.10716e-05
2.02718e-05
1.93862e-05
1.82522e-05
1.6734e-05
1.47936e-05
1.25518e-05
1.03011e-05
8.38708e-06
6.89909e-06
5.86237e-06
5.26884e-06
5.09566e-06
5.35339e-06
6.19075e-06
8.107e-06
1.19133e-05
1.40378e-05
6.15031e-06
2.24942e-06
2.03011e-07
1.67827e-07
3.02815e-06
7.9333e-06
1.84769e-05
3.1801e-05
3.80601e-05
3.84562e-05
3.60766e-05
3.27198e-05
2.94449e-05
2.67163e-05
2.46526e-05
2.31866e-05
2.21489e-05
2.13598e-05
2.06495e-05
1.9849e-05
1.87872e-05
1.73167e-05
1.53865e-05
1.31095e-05
1.0782e-05
8.76973e-06
7.1807e-06
6.05279e-06
5.38669e-06
5.16475e-06
5.4008e-06
6.24837e-06
8.21956e-06
1.21264e-05
1.41951e-05
6.1945e-06
2.26588e-06
2.04464e-07
1.71728e-07
3.04306e-06
7.99484e-06
1.86717e-05
3.20127e-05
3.80994e-05
3.83506e-05
3.58865e-05
3.25151e-05
2.92823e-05
2.66283e-05
2.46524e-05
2.32788e-05
2.23344e-05
2.16377e-05
2.10173e-05
2.03019e-05
1.93141e-05
1.78946e-05
1.59798e-05
1.36746e-05
1.12784e-05
9.17411e-06
7.48717e-06
6.26865e-06
5.52853e-06
5.25479e-06
5.465e-06
6.31804e-06
8.33914e-06
1.23413e-05
1.43545e-05
6.2404e-06
2.28225e-06
2.0583e-07
1.75518e-07
3.05711e-06
8.05406e-06
1.88611e-05
3.22111e-05
3.8121e-05
3.82246e-05
3.56746e-05
3.22896e-05
2.91011e-05
2.65238e-05
2.4638e-05
2.33587e-05
2.2509e-05
2.19059e-05
2.13764e-05
2.07461e-05
1.98327e-05
1.84665e-05
1.65714e-05
1.42443e-05
1.17872e-05
9.59743e-06
7.8163e-06
6.50825e-06
5.69311e-06
5.365e-06
5.54569e-06
6.39987e-06
8.46609e-06
1.25582e-05
1.45169e-05
6.28825e-06
2.29862e-06
2.07127e-07
1.79208e-07
3.07053e-06
8.11173e-06
1.90468e-05
3.23977e-05
3.81257e-05
3.80788e-05
3.54424e-05
3.20452e-05
2.89029e-05
2.64041e-05
2.461e-05
2.3426e-05
2.26714e-05
2.21622e-05
2.17238e-05
2.11788e-05
2.03392e-05
1.90278e-05
1.71564e-05
1.48138e-05
1.23043e-05
1.00366e-05
8.16594e-06
6.77014e-06
5.87958e-06
5.4951e-06
5.64313e-06
6.49459e-06
8.6015e-06
1.27784e-05
1.46831e-05
6.33812e-06
2.31502e-06
2.08372e-07
1.82785e-07
3.08314e-06
8.16722e-06
1.92274e-05
3.25707e-05
3.81122e-05
3.79121e-05
3.51888e-05
3.17813e-05
2.86876e-05
2.62695e-05
2.45691e-05
2.34816e-05
2.28231e-05
2.2408e-05
2.20607e-05
2.16008e-05
2.08345e-05
1.95767e-05
1.77322e-05
1.53802e-05
1.28263e-05
1.04889e-05
8.53393e-06
7.05275e-06
6.08681e-06
5.64436e-06
5.75705e-06
6.60241e-06
8.74594e-06
1.30027e-05
1.48543e-05
6.3904e-06
2.33158e-06
2.09582e-07
1.86261e-07
3.09512e-06
8.22114e-06
1.94042e-05
3.27312e-05
3.80807e-05
3.77248e-05
3.49147e-05
3.14994e-05
2.84571e-05
2.61215e-05
2.4516e-05
2.35256e-05
2.29628e-05
2.26415e-05
2.23846e-05
2.20089e-05
2.13154e-05
2.01108e-05
1.82921e-05
1.59362e-05
1.33477e-05
1.095e-05
8.91753e-06
7.35452e-06
6.31405e-06
5.81257e-06
5.88764e-06
6.72391e-06
8.90042e-06
1.32321e-05
1.50311e-05
6.4451e-06
2.34833e-06
2.10773e-07
1.89625e-07
3.10633e-06
8.27297e-06
1.95758e-05
3.28775e-05
3.80302e-05
3.75161e-05
3.46201e-05
3.12e-05
2.82124e-05
2.59614e-05
2.44523e-05
2.35597e-05
2.30926e-05
2.28642e-05
2.26966e-05
2.24035e-05
2.1781e-05
2.0629e-05
1.88379e-05
1.64815e-05
1.38658e-05
1.14165e-05
9.31352e-06
7.67308e-06
6.55988e-06
5.99913e-06
6.03495e-06
6.85967e-06
9.06598e-06
1.34681e-05
1.52141e-05
6.50243e-06
2.36535e-06
2.11958e-07
1.92886e-07
3.11685e-06
8.32302e-06
1.97431e-05
3.30102e-05
3.79607e-05
3.72863e-05
3.43055e-05
3.08844e-05
2.79546e-05
2.57904e-05
2.43788e-05
2.35839e-05
2.32118e-05
2.30752e-05
2.29951e-05
2.27824e-05
2.22285e-05
2.11274e-05
1.93644e-05
1.70117e-05
1.43771e-05
1.1885e-05
9.71885e-06
8.00618e-06
6.82294e-06
6.20347e-06
6.19912e-06
7.0105e-06
9.24409e-06
1.37124e-05
1.54039e-05
6.56243e-06
2.38269e-06
2.13147e-07
1.96038e-07
3.12658e-06
8.37094e-06
1.99048e-05
3.3128e-05
3.78714e-05
3.7035e-05
3.39715e-05
3.05535e-05
2.76854e-05
2.56104e-05
2.42978e-05
2.36009e-05
2.3323e-05
2.32767e-05
2.32817e-05
2.31466e-05
2.26579e-05
2.16049e-05
1.98694e-05
1.75236e-05
1.48774e-05
1.2351e-05
1.01297e-05
8.35086e-06
7.10128e-06
6.4246e-06
6.37992e-06
7.17679e-06
9.43603e-06
1.39666e-05
1.56006e-05
6.6252e-06
2.40043e-06
2.14351e-07
1.99087e-07
3.13556e-06
8.41682e-06
2.00614e-05
3.32311e-05
3.77623e-05
3.6762e-05
3.36182e-05
3.02078e-05
2.74055e-05
2.5422e-05
2.42097e-05
2.36109e-05
2.34264e-05
2.34685e-05
2.35562e-05
2.34953e-05
2.30682e-05
2.20599e-05
2.03507e-05
1.80147e-05
1.53645e-05
1.28111e-05
1.05424e-05
8.70396e-06
7.3927e-06
6.66141e-06
6.57744e-06
7.36018e-06
9.64371e-06
1.42329e-05
1.58046e-05
6.69069e-06
2.41858e-06
2.15574e-07
2.02034e-07
3.14374e-06
8.46052e-06
2.02125e-05
3.33188e-05
3.76325e-05
3.64669e-05
3.32456e-05
2.98483e-05
2.71161e-05
2.52272e-05
2.41169e-05
2.36167e-05
2.35248e-05
2.36534e-05
2.38208e-05
2.383e-05
2.34598e-05
2.24919e-05
2.08069e-05
1.84827e-05
1.58349e-05
1.3262e-05
1.09534e-05
9.06228e-06
7.6946e-06
6.91223e-06
6.79116e-06
7.5612e-06
9.86879e-06
1.45133e-05
1.60156e-05
6.75897e-06
2.43723e-06
2.16824e-07
2.04883e-07
3.15113e-06
8.50207e-06
2.03581e-05
3.33912e-05
3.74818e-05
3.61491e-05
3.28536e-05
2.94746e-05
2.68174e-05
2.5026e-05
2.40196e-05
2.36186e-05
2.36188e-05
2.38322e-05
2.40764e-05
2.41517e-05
2.38334e-05
2.29012e-05
2.12375e-05
1.89262e-05
1.62865e-05
1.37007e-05
1.13596e-05
9.42289e-06
8.00466e-06
7.17549e-06
7.0203e-06
7.7798e-06
1.01127e-05
1.48097e-05
1.62337e-05
6.83004e-06
2.45643e-06
2.18104e-07
2.07642e-07
3.15776e-06
8.5416e-06
2.04986e-05
3.34483e-05
3.73095e-05
3.58079e-05
3.24417e-05
2.90873e-05
2.65101e-05
2.48199e-05
2.39197e-05
2.36191e-05
2.37111e-05
2.40079e-05
2.43256e-05
2.44624e-05
2.41906e-05
2.32885e-05
2.16425e-05
1.93442e-05
1.67171e-05
1.41247e-05
1.17583e-05
9.7832e-06
8.32082e-06
7.44979e-06
7.26404e-06
8.01578e-06
1.03763e-05
1.51231e-05
1.64585e-05
6.90388e-06
2.47621e-06
2.19416e-07
2.10317e-07
3.16364e-06
8.57915e-06
2.06342e-05
3.349e-05
3.71149e-05
3.54424e-05
3.20094e-05
2.86858e-05
2.61939e-05
2.46084e-05
2.3817e-05
2.36182e-05
2.38025e-05
2.41814e-05
2.45701e-05
2.47641e-05
2.4533e-05
2.36553e-05
2.20228e-05
1.97371e-05
1.7126e-05
1.45324e-05
1.21475e-05
1.0141e-05
8.64073e-06
7.73308e-06
7.52106e-06
8.26902e-06
1.06607e-05
1.54553e-05
1.66894e-05
6.9805e-06
2.49664e-06
2.20763e-07
2.12919e-07
3.16886e-06
8.61504e-06
2.07656e-05
3.35164e-05
3.68975e-05
3.50519e-05
3.15566e-05
2.82706e-05
2.58696e-05
2.43928e-05
2.37131e-05
2.36179e-05
2.38949e-05
2.43552e-05
2.48123e-05
2.50591e-05
2.48628e-05
2.40032e-05
2.23798e-05
2.01053e-05
1.75129e-05
1.49228e-05
1.25256e-05
1.04946e-05
8.96289e-06
8.02423e-06
7.79055e-06
8.539e-06
1.09656e-05
1.58057e-05
1.69257e-05
7.05974e-06
2.51772e-06
2.22149e-07
2.15452e-07
3.17342e-06
8.64928e-06
2.08928e-05
3.3527e-05
3.66561e-05
3.46354e-05
3.10828e-05
2.78414e-05
2.55369e-05
2.41726e-05
2.36073e-05
2.36175e-05
2.39883e-05
2.45297e-05
2.50534e-05
2.53492e-05
2.51823e-05
2.43348e-05
2.27156e-05
2.04507e-05
1.78785e-05
1.52953e-05
1.28911e-05
1.08419e-05
9.2853e-06
8.3213e-06
8.07137e-06
8.82573e-06
1.12922e-05
1.6176e-05
1.71674e-05
7.14154e-06
2.53949e-06
2.23572e-07
2.17924e-07
3.17742e-06
8.6822e-06
2.10164e-05
3.3522e-05
3.63908e-05
3.41935e-05
3.05891e-05
2.73995e-05
2.51972e-05
2.39496e-05
2.35011e-05
2.3618e-05
2.40832e-05
2.47057e-05
2.52944e-05
2.56358e-05
2.5493e-05
2.46518e-05
2.30322e-05
2.07752e-05
1.82241e-05
1.56506e-05
1.32439e-05
1.11821e-05
9.60655e-06
8.62304e-06
8.36238e-06
9.12824e-06
1.16396e-05
1.65651e-05
1.74132e-05
7.22557e-06
2.56191e-06
2.25035e-07
2.20336e-07
3.18082e-06
8.71367e-06
2.11361e-05
3.35004e-05
3.61005e-05
3.37258e-05
3.00757e-05
2.6945e-05
2.48501e-05
2.37247e-05
2.33941e-05
2.36182e-05
2.41786e-05
2.48826e-05
2.55355e-05
2.59197e-05
2.57966e-05
2.49566e-05
2.33326e-05
2.10816e-05
1.85515e-05
1.59895e-05
1.35838e-05
1.15145e-05
9.92569e-06
8.92845e-06
8.66244e-06
9.44601e-06
1.20079e-05
1.69731e-05
1.76631e-05
7.31178e-06
2.58499e-06
2.26539e-07
2.22691e-07
3.18371e-06
8.74388e-06
2.1252e-05
3.34623e-05
3.5786e-05
3.3234e-05
2.95454e-05
2.64803e-05
2.44969e-05
2.34968e-05
2.3285e-05
2.36168e-05
2.42733e-05
2.50593e-05
2.57758e-05
2.62005e-05
2.60933e-05
2.52501e-05
2.36186e-05
2.13729e-05
1.8863e-05
1.63134e-05
1.39113e-05
1.18385e-05
1.02414e-05
9.23597e-06
8.97063e-06
9.77823e-06
1.23965e-05
1.73988e-05
1.79158e-05
7.39976e-06
2.60869e-06
2.28082e-07
2.24984e-07
3.18602e-06
8.77263e-06
2.13635e-05
3.34069e-05
3.54469e-05
3.27191e-05
2.89997e-05
2.60069e-05
2.41379e-05
2.32641e-05
2.31719e-05
2.36126e-05
2.43664e-05
2.52351e-05
2.60147e-05
2.64781e-05
2.63836e-05
2.55339e-05
2.38932e-05
2.1653e-05
1.91617e-05
1.66242e-05
1.42277e-05
1.21547e-05
1.05538e-05
9.54518e-06
9.28588e-06
1.01233e-05
1.2804e-05
1.78406e-05
1.81702e-05
7.48917e-06
2.63292e-06
2.29668e-07
2.27216e-07
3.18779e-06
8.79992e-06
2.14704e-05
3.33344e-05
3.50847e-05
3.21836e-05
2.84419e-05
2.55281e-05
2.37765e-05
2.30298e-05
2.3057e-05
2.36064e-05
2.44573e-05
2.54084e-05
2.62505e-05
2.67506e-05
2.66662e-05
2.58079e-05
2.41578e-05
2.1925e-05
1.94498e-05
1.69236e-05
1.45335e-05
1.24631e-05
1.08622e-05
9.85518e-06
9.60764e-06
1.04815e-05
1.32291e-05
1.82967e-05
1.8426e-05
7.57988e-06
2.65769e-06
2.313e-07
2.29375e-07
3.18892e-06
8.82532e-06
2.15715e-05
3.32438e-05
3.46993e-05
3.1629e-05
2.7874e-05
2.5045e-05
2.34126e-05
2.27929e-05
2.29388e-05
2.35963e-05
2.45443e-05
2.55778e-05
2.64815e-05
2.70169e-05
2.69403e-05
2.60718e-05
2.44131e-05
2.219e-05
1.97287e-05
1.72125e-05
1.48296e-05
1.27641e-05
1.11667e-05
1.01655e-05
9.93497e-06
1.08515e-05
1.36712e-05
1.87651e-05
1.86809e-05
7.67107e-06
2.68281e-06
2.32976e-07
2.31461e-07
3.1894e-06
8.84868e-06
2.16663e-05
3.31357e-05
3.42927e-05
3.10583e-05
2.72994e-05
2.45612e-05
2.30496e-05
2.25561e-05
2.28193e-05
2.35835e-05
2.46273e-05
2.57421e-05
2.67063e-05
2.72751e-05
2.72043e-05
2.63246e-05
2.46581e-05
2.24469e-05
1.99982e-05
1.74914e-05
1.51166e-05
1.30581e-05
1.14673e-05
1.04759e-05
1.02672e-05
1.12324e-05
1.41289e-05
1.92439e-05
1.89347e-05
7.76232e-06
2.70819e-06
2.34689e-07
2.33463e-07
3.18908e-06
8.86944e-06
2.17537e-05
3.30093e-05
3.38646e-05
3.04719e-05
2.67189e-05
2.40772e-05
2.26878e-05
2.23198e-05
2.26988e-05
2.35681e-05
2.47061e-05
2.59009e-05
2.69241e-05
2.75246e-05
2.74578e-05
2.65657e-05
2.48918e-05
2.26937e-05
2.02565e-05
1.77591e-05
1.53936e-05
1.33445e-05
1.17635e-05
1.07859e-05
1.06039e-05
1.16236e-05
1.46017e-05
1.97324e-05
1.91857e-05
7.85297e-06
2.73369e-06
2.36438e-07
2.35383e-07
3.18799e-06
8.88757e-06
2.18337e-05
3.28656e-05
3.3416e-05
2.98716e-05
2.61343e-05
2.35948e-05
2.23293e-05
2.20862e-05
2.25793e-05
2.35517e-05
2.47819e-05
2.60544e-05
2.71345e-05
2.77645e-05
2.76999e-05
2.67947e-05
2.5114e-05
2.29296e-05
2.05033e-05
1.80149e-05
1.56598e-05
1.36223e-05
1.20546e-05
1.1095e-05
1.09449e-05
1.20253e-05
1.50891e-05
2.02295e-05
1.94324e-05
7.94258e-06
2.75922e-06
2.38227e-07
2.3722e-07
3.18604e-06
8.90283e-06
2.1906e-05
3.27038e-05
3.29458e-05
2.92563e-05
2.5545e-05
2.31138e-05
2.19742e-05
2.1856e-05
2.24623e-05
2.35361e-05
2.48564e-05
2.62043e-05
2.73387e-05
2.79958e-05
2.79316e-05
2.70128e-05
2.53261e-05
2.31554e-05
2.07392e-05
1.82597e-05
1.59156e-05
1.38915e-05
1.23397e-05
1.14017e-05
1.12883e-05
1.24351e-05
1.55885e-05
2.07315e-05
1.96737e-05
8.03053e-06
2.78459e-06
2.40048e-07
2.38991e-07
3.18337e-06
8.91573e-06
2.1972e-05
3.25247e-05
3.24538e-05
2.86265e-05
2.49517e-05
2.26348e-05
2.16235e-05
2.16307e-05
2.23498e-05
2.35238e-05
2.49321e-05
2.63528e-05
2.75384e-05
2.82198e-05
2.81542e-05
2.72218e-05
2.55305e-05
2.3373e-05
2.09656e-05
1.84945e-05
1.61618e-05
1.41527e-05
1.26196e-05
1.1707e-05
1.16349e-05
1.28536e-05
1.6099e-05
2.12369e-05
1.99094e-05
8.11682e-06
2.80981e-06
2.419e-07
2.40708e-07
3.18007e-06
8.92661e-06
2.20325e-05
3.23272e-05
3.19384e-05
2.79812e-05
2.43536e-05
2.21571e-05
2.12769e-05
2.14106e-05
2.22427e-05
2.35167e-05
2.50119e-05
2.65031e-05
2.77369e-05
2.84394e-05
2.83707e-05
2.74253e-05
2.57314e-05
2.35853e-05
2.1185e-05
1.87212e-05
1.63998e-05
1.44066e-05
1.28939e-05
1.20096e-05
1.19828e-05
1.32786e-05
1.66181e-05
2.17426e-05
2.01384e-05
8.20098e-06
2.83476e-06
2.43777e-07
2.42391e-07
3.17636e-06
8.93634e-06
2.20889e-05
3.21114e-05
3.13999e-05
2.73221e-05
2.37522e-05
2.16815e-05
2.09355e-05
2.11961e-05
2.21411e-05
2.35152e-05
2.50971e-05
2.66573e-05
2.79366e-05
2.86573e-05
2.85837e-05
2.76263e-05
2.59326e-05
2.37949e-05
2.13989e-05
1.89408e-05
1.66303e-05
1.46534e-05
1.31626e-05
1.23091e-05
1.23317e-05
1.37091e-05
1.71444e-05
2.2247e-05
2.03606e-05
8.28302e-06
2.85943e-06
2.45676e-07
2.44051e-07
3.17237e-06
8.94536e-06
2.21417e-05
3.1876e-05
3.08385e-05
2.66512e-05
2.31489e-05
2.12079e-05
2.06007e-05
2.09862e-05
2.20433e-05
2.35186e-05
2.51883e-05
2.68173e-05
2.814e-05
2.8876e-05
2.87959e-05
2.78279e-05
2.61374e-05
2.40045e-05
2.16096e-05
1.91554e-05
1.68551e-05
1.48948e-05
1.34274e-05
1.26081e-05
1.26851e-05
1.41447e-05
1.76749e-05
2.27468e-05
2.05746e-05
8.36227e-06
2.88359e-06
2.47585e-07
2.45691e-07
3.16825e-06
8.95402e-06
2.21907e-05
3.16211e-05
3.02573e-05
2.59739e-05
2.25481e-05
2.07372e-05
2.02653e-05
2.07745e-05
2.19449e-05
2.35238e-05
2.52837e-05
2.69824e-05
2.83475e-05
2.90965e-05
2.90084e-05
2.80305e-05
2.63449e-05
2.42135e-05
2.1817e-05
1.93653e-05
1.70747e-05
1.51316e-05
1.36892e-05
1.29069e-05
1.30421e-05
1.45859e-05
1.821e-05
2.32422e-05
2.07814e-05
8.43917e-06
2.90747e-06
2.49502e-07
2.47295e-07
3.16391e-06