/*--------------------------------*- C++ -*----------------------------------*\
| =========                 |                                                 |
| \\      /  F ield         | OpenFOAM: The Open Source CFD Toolbox           |
|  \\    /   O peration     | Version:  v2006                                 |
|   \\  /    A nd           | Website:  www.openfoam.com                      |
|    \\/     M anipulation  |                                                 |
\*---------------------------------------------------------------------------*/
FoamFile
{
    version     2.0;
    format      ascii;
    class       volScalarField;
    location    "85";
    object      nut;
}
// * * * * * * * * * * * * * * * * * * * * * * * * * * * * * * * * * * * * * //

dimensions      [0 2 -1 0 0 0 0];


internalField   nonuniform List<scalar> 
78750
(
1.19412e-09
2.24797e-07
4.28807e-07
6.37044e-07
8.44115e-07
1.04658e-06
1.24184e-06
1.42766e-06
1.60216e-06
1.7638e-06
1.91147e-06
2.04438e-06
2.16204e-06
2.26431e-06
2.35063e-06
2.42039e-06
2.47356e-06
2.51004e-06
2.52964e-06
2.53205e-06
2.51702e-06
2.48316e-06
2.42969e-06
2.35542e-06
2.25894e-06
2.13884e-06
1.9934e-06
1.82139e-06
1.62302e-06
1.39915e-06
1.15041e-06
8.79233e-07
5.9936e-07
3.40763e-07
4.81022e-09
3.42797e-09
2.07444e-06
4.49467e-06
6.70189e-06
8.36815e-06
9.64674e-06
1.07235e-05
1.17032e-05
1.26451e-05
1.35884e-05
1.45593e-05
1.55757e-05
1.66745e-05
1.78958e-05
1.86474e-05
1.87272e-05
1.87263e-05
1.86528e-05
1.85138e-05
1.83148e-05
1.80602e-05
1.77503e-05
1.73843e-05
1.69582e-05
1.64646e-05
1.5895e-05
1.4751e-05
1.28926e-05
1.1046e-05
9.13827e-06
7.07911e-06
5.10933e-06
3.82654e-06
2.23316e-06
1.87927e-08
6.00021e-09
2.01703e-06
4.46843e-06
7.45638e-06
1.05835e-05
1.33565e-05
1.55665e-05
1.72697e-05
1.85905e-05
1.96312e-05
2.04605e-05
2.11199e-05
2.16372e-05
2.20476e-05
2.23826e-05
2.25936e-05
2.23006e-05
2.19352e-05
2.15123e-05
2.10467e-05
2.05532e-05
1.97483e-05
1.87374e-05
1.76515e-05
1.65402e-05
1.54203e-05
1.42755e-05
1.30485e-05
1.1625e-05
9.88409e-06
7.93649e-06
6.42606e-06
5.99992e-06
2.22864e-06
3.31697e-08
9.40789e-09
1.92808e-06
4.42787e-06
7.97546e-06
1.23085e-05
1.63784e-05
1.9426e-05
2.14846e-05
2.28077e-05
2.35778e-05
2.39109e-05
2.38912e-05
2.35871e-05
2.30603e-05
2.23702e-05
2.1568e-05
2.06865e-05
1.97468e-05
1.87697e-05
1.77762e-05
1.67885e-05
1.58334e-05
1.49405e-05
1.41361e-05
1.34346e-05
1.28246e-05
1.22452e-05
1.15643e-05
1.05999e-05
9.27457e-06
7.90093e-06
7.29032e-06
7.62939e-06
2.00774e-06
4.36187e-08
1.3546e-08
1.89276e-06
4.51321e-06
8.64384e-06
1.41295e-05
1.93051e-05
2.29253e-05
2.51004e-05
2.61747e-05
2.63837e-05
2.59256e-05
2.49903e-05
2.37548e-05
2.2371e-05
2.09543e-05
1.95793e-05
1.82839e-05
1.7078e-05
1.5955e-05
1.4904e-05
1.3921e-05
1.3016e-05
1.22106e-05
1.15281e-05
1.09851e-05
1.05735e-05
1.0231e-05
9.81905e-06
9.17435e-06
8.29767e-06
7.59249e-06
7.88437e-06
8.01572e-06
1.85849e-06
5.05139e-08
1.76044e-08
1.91746e-06
4.69986e-06
9.39704e-06
1.59916e-05
2.21556e-05
2.60951e-05
2.80436e-05
2.85233e-05
2.79154e-05
2.65528e-05
2.47478e-05
2.27746e-05
2.08402e-05
1.90699e-05
1.75157e-05
1.61781e-05
1.50285e-05
1.40259e-05
1.31314e-05
1.23196e-05
1.15828e-05
1.09199e-05
1.03323e-05
9.82823e-06
9.40697e-06
9.02794e-06
8.59889e-06
8.03987e-06
7.44368e-06
7.24819e-06
8.27482e-06
7.70877e-06
1.76118e-06
5.52185e-08
2.16706e-08
1.94171e-06
4.83124e-06
9.90992e-06
1.72313e-05
2.39047e-05
2.78473e-05
2.94709e-05
2.93958e-05
2.80892e-05
2.60056e-05
2.35783e-05
2.11564e-05
1.89599e-05
1.70809e-05
1.55234e-05
1.42462e-05
1.31939e-05
1.23136e-05
1.15642e-05
1.09245e-05
1.03835e-05
9.9132e-06
9.47914e-06
9.05989e-06
8.64286e-06
8.20632e-06
7.71818e-06
7.18905e-06
6.7788e-06
6.92788e-06
8.43721e-06
7.16712e-06
1.69391e-06
5.90907e-08
2.50889e-08
1.97201e-06
4.93641e-06
1.02697e-05
1.81357e-05
2.52465e-05
2.91901e-05
3.0484e-05
2.98721e-05
2.79532e-05
2.53195e-05
2.24991e-05
1.98637e-05
1.75953e-05
1.57296e-05
1.42287e-05
1.30312e-05
1.20736e-05
1.13007e-05
1.06753e-05
1.01815e-05
9.7972e-06
9.46441e-06
9.1192e-06
8.71755e-06
8.24266e-06
7.69864e-06
7.11239e-06
6.56454e-06
6.25074e-06
6.59913e-06
8.3858e-06
6.72877e-06
1.65229e-06
6.31696e-08
2.83901e-08
1.99171e-06
4.9897e-06
1.04623e-05
1.86328e-05
2.59148e-05
2.97356e-05
3.0733e-05
2.97356e-05
2.74316e-05
2.44953e-05
2.14951e-05
1.87876e-05
1.65114e-05
1.46649e-05
1.31898e-05
1.202e-05
1.10983e-05
1.03798e-05
9.84234e-06
9.48527e-06
9.27345e-06
9.11858e-06
8.91745e-06
8.58451e-06
8.0835e-06
7.44416e-06
6.75675e-06
6.16507e-06
5.88947e-06
6.34412e-06
8.27114e-06
6.36037e-06
1.6226e-06
6.78015e-08
3.14445e-08
2.01228e-06
5.03447e-06
1.06012e-05
1.89971e-05
2.64403e-05
3.01932e-05
3.09628e-05
2.96635e-05
2.70758e-05
2.39433e-05
2.08504e-05
1.8124e-05
1.58621e-05
1.40361e-05
1.25761e-05
1.14135e-05
1.0495e-05
9.78626e-06
9.27969e-06
8.98905e-06
8.87424e-06
8.83513e-06
8.74485e-06
8.48181e-06
7.98189e-06
7.282e-06
6.51878e-06
5.88618e-06
5.62289e-06
6.13424e-06
8.13793e-06
6.07474e-06
1.60274e-06
7.28565e-08
3.44902e-08
2.02617e-06
5.05859e-06
1.06853e-05
1.92214e-05
2.67133e-05
3.03469e-05
3.09137e-05
2.93938e-05
2.66274e-05
2.33943e-05
2.02732e-05
1.75591e-05
1.53196e-05
1.35098e-05
1.20554e-05
1.08901e-05
9.96549e-06
9.25618e-06
8.76984e-06
8.53287e-06
8.49958e-06
8.56281e-06
8.57752e-06
8.39144e-06
7.91429e-06
7.18495e-06
6.37236e-06
5.70939e-06
5.45243e-06
6.00461e-06
8.06157e-06
5.83069e-06
1.5884e-06
7.8131e-08
3.76517e-08
2.04363e-06
5.0943e-06
1.07921e-05
1.94665e-05
2.69993e-05
3.05257e-05
3.09156e-05
2.92123e-05
2.63115e-05
2.30176e-05
1.98944e-05
1.72042e-05
1.49887e-05
1.31907e-05
1.17333e-05
1.05523e-05
9.60481e-06
8.87245e-06
8.37367e-06
8.14729e-06
8.14821e-06
8.26908e-06
8.35665e-06
8.238e-06
7.8001e-06
7.07584e-06
6.25076e-06
5.58111e-06
5.33759e-06
5.92962e-06
8.03704e-06
5.63043e-06
1.57956e-06
8.34359e-08
4.07927e-08
2.05729e-06
5.12157e-06
1.08786e-05
1.96585e-05
2.7189e-05
3.05912e-05
3.08161e-05
2.89611e-05
2.59649e-05
2.26436e-05
1.95397e-05
1.68842e-05
1.46979e-05
1.29149e-05
1.14576e-05
1.02646e-05
9.29742e-06
8.54426e-06
8.03313e-06
7.81065e-06
7.8314e-06
7.98966e-06
8.12847e-06
8.06309e-06
7.66588e-06
6.96419e-06
6.15111e-06
5.49499e-06
5.27714e-06
5.91812e-06
8.07674e-06
5.45764e-06
1.57471e-06
8.86452e-08
4.41623e-08
2.07503e-06
5.16288e-06
1.10011e-05
1.99036e-05
2.74183e-05
3.06865e-05
3.07536e-05
2.87686e-05
2.57047e-05
2.23789e-05
1.93062e-05
1.66885e-05
1.45289e-05
1.27558e-05
1.12918e-05
1.0079e-05
9.08324e-06
8.29801e-06
7.75848e-06
7.51998e-06
7.53757e-06
7.70743e-06
7.87348e-06
7.84695e-06
7.49173e-06
6.82863e-06
6.04987e-06
5.42675e-06
5.24696e-06
5.94549e-06
8.15724e-06
5.3173e-06
1.57407e-06
9.37275e-08
4.74632e-08
2.09026e-06
5.19916e-06
1.111e-05
2.01138e-05
2.75965e-05
3.07328e-05
3.06545e-05
2.85575e-05
2.54442e-05
2.21271e-05
1.90937e-05
1.65182e-05
1.4389e-05
1.26294e-05
1.11628e-05
9.93384e-06
8.91228e-06
8.09647e-06
7.52766e-06
7.26878e-06
7.27577e-06
7.44588e-06
7.62508e-06
7.62506e-06
7.30721e-06
6.68844e-06
5.9565e-06
5.37951e-06
5.24901e-06
6.0158e-06
8.27769e-06
5.19913e-06
1.57651e-06
9.86489e-08
5.09888e-08
2.10873e-06
5.2459e-06
1.12466e-05
2.03664e-05
2.78053e-05
3.08018e-05
3.05869e-05
2.83982e-05
2.52571e-05
2.19629e-05
1.89734e-05
1.64389e-05
1.43361e-05
1.25854e-05
1.11111e-05
9.86037e-06
8.80674e-06
7.95274e-06
7.34345e-06
7.04958e-06
7.03052e-06
7.18563e-06
7.3643e-06
7.382e-06
7.10107e-06
6.53391e-06
5.85966e-06
5.33913e-06
5.26636e-06
6.1089e-06
8.41817e-06
5.10695e-06
1.58213e-06
1.03439e-07
5.44265e-08
2.1255e-06
5.28967e-06
1.13745e-05
2.05953e-05
2.79834e-05
3.0848e-05
3.05084e-05
2.82402e-05
2.50803e-05
2.18139e-05
1.88709e-05
1.63798e-05
1.43069e-05
1.25691e-05
1.10911e-05
9.82187e-06
8.73821e-06
7.84678e-06
7.19592e-06
6.86338e-06
6.81277e-06
6.94551e-06
7.11514e-06
7.14274e-06
6.89438e-06
6.37982e-06
5.76815e-06
5.31041e-06
5.30228e-06
6.22793e-06
8.57629e-06
5.03128e-06
1.58981e-06
1.08082e-07
5.80593e-08
2.14463e-06
5.34068e-06
1.15218e-05
2.08542e-05
2.81851e-05
3.09172e-05
3.04651e-05
2.81352e-05
2.49713e-05
2.17392e-05
1.88424e-05
1.63914e-05
1.43444e-05
1.26162e-05
1.11312e-05
9.83987e-06
8.7218e-06
7.78676e-06
7.08589e-06
6.70283e-06
6.60889e-06
6.70827e-06
6.85999e-06
6.89259e-06
6.6767e-06
6.21808e-06
5.67387e-06
5.28392e-06
5.34531e-06
6.35897e-06
8.7413e-06
4.97565e-06
1.59984e-06
1.12612e-07
6.16088e-08
2.16257e-06
5.39032e-06
1.16658e-05
2.11006e-05
2.83707e-05
3.09781e-05
3.04221e-05
2.80373e-05
2.48724e-05
2.16754e-05
1.88256e-05
1.64172e-05
1.44005e-05
1.26871e-05
1.12001e-05
9.89082e-06
8.74085e-06
7.76276e-06
7.01077e-06
6.57326e-06
6.43089e-06
6.49086e-06
6.61811e-06
6.64985e-06
6.46273e-06
6.05903e-06
5.58317e-06
5.26323e-06
5.39775e-06
6.5037e-06
8.90958e-06
4.93076e-06
1.61095e-06
1.17005e-07
6.53243e-08
2.18216e-06
5.44518e-06
1.18248e-05
2.13715e-05
2.85787e-05
3.10649e-05
3.0417e-05
2.79901e-05
2.48319e-05
2.1671e-05
1.88655e-05
1.64962e-05
1.4507e-05
1.28067e-05
1.13167e-05
9.98833e-06
8.80411e-06
7.77889e-06
6.96923e-06
6.46777e-06
6.26788e-06
6.28047e-06
6.37702e-06
6.40418e-06
6.2447e-06
5.89656e-06
5.49057e-06
5.24263e-06
5.45273e-06
6.654e-06
9.07818e-06
4.90055e-06
1.6237e-06
1.21289e-07
6.89687e-08
2.20074e-06
5.49939e-06
1.19843e-05
2.16401e-05
2.87832e-05
3.11538e-05
3.04182e-05
2.79503e-05
2.47975e-05
2.16716e-05
1.89113e-05
1.65844e-05
1.46282e-05
1.29472e-05
1.14607e-05
1.01183e-05
8.90273e-06
7.83082e-06
6.96183e-06
6.39226e-06
6.12993e-06
6.09e-06
6.15076e-06
6.16873e-06
6.03323e-06
5.73812e-06
5.40062e-06
5.22476e-06
5.51227e-06
6.81108e-06
9.24341e-06
4.87711e-06
1.63687e-06
1.25435e-07
7.27548e-08
2.22026e-06
5.55721e-06
1.21568e-05
2.19332e-05
2.90147e-05
3.12739e-05
3.04571e-05
2.79533e-05
2.48073e-05
2.17148e-05
1.89968e-05
1.67099e-05
1.47853e-05
1.3124e-05
1.16422e-05
1.02869e-05
9.04011e-06
7.91958e-06
6.9868e-06
6.34156e-06
6.00964e-06
5.9111e-06
5.93131e-06
5.93671e-06
5.82295e-06
5.57934e-06
5.30939e-06
5.20549e-06
5.57135e-06
6.96917e-06
9.40387e-06
4.86204e-06
1.65073e-06
1.29453e-07
7.6483e-08
2.23873e-06
5.61407e-06
1.23305e-05
2.223e-05
2.92514e-05
3.14036e-05
3.05049e-05
2.79598e-05
2.48171e-05
2.17576e-05
1.90842e-05
1.68416e-05
1.49546e-05
1.33197e-05
1.18493e-05
1.0487e-05
9.21277e-06
8.04449e-06
7.04606e-06
6.3209e-06
5.91455e-06
5.75272e-06
5.72809e-06
5.71698e-06
5.62126e-06
5.42587e-06
5.22113e-06
5.18835e-06
5.63376e-06
7.13319e-06
9.5622e-06
4.85278e-06
1.66491e-06
1.33315e-07
8.03277e-08
2.25774e-06
5.67302e-06
1.25107e-05
2.25337e-05
2.9483e-05
3.1531e-05
3.05655e-05
2.79887e-05
2.48536e-05
2.18274e-05
1.9197e-05
1.69972e-05
1.51476e-05
1.35408e-05
1.2085e-05
1.07194e-05
9.42044e-06
8.20505e-06
7.13868e-06
6.32837e-06
5.84156e-06
5.61104e-06
5.5371e-06
5.50573e-06
5.42471e-06
5.27448e-06
5.13248e-06
5.16931e-06
5.69357e-06
7.2934e-06
9.7086e-06
4.84573e-06
1.67877e-06
1.37014e-07
8.41248e-08
2.27607e-06
5.73179e-06
1.2691e-05
2.28279e-05
2.97017e-05
3.16471e-05
3.06163e-05
2.80175e-05
2.48896e-05
2.18956e-05
1.93101e-05
1.71571e-05
1.53501e-05
1.37776e-05
1.23432e-05
1.09809e-05
9.66235e-06
8.4023e-06
7.26751e-06
6.36916e-06
5.79695e-06
5.49302e-06
5.36538e-06
5.30949e-06
5.23878e-06
5.12954e-06
5.04708e-06
5.1521e-06
5.75627e-06
7.4601e-06
9.85732e-06
4.84408e-06
1.69285e-06
1.40536e-07
8.80079e-08
2.29461e-06
5.79287e-06
1.28811e-05
2.31241e-05
2.99171e-05
3.17607e-05
3.06683e-05
2.80532e-05
2.49362e-05
2.19764e-05
1.9436e-05
1.73298e-05
1.55664e-05
1.40308e-05
1.26221e-05
1.12684e-05
9.93561e-06
8.6346e-06
7.43226e-06
6.44391e-06
5.78098e-06
5.39838e-06
5.21219e-06
5.12717e-06
5.06215e-06
4.98944e-06
4.96284e-06
5.13365e-06
5.8167e-06
7.62482e-06
1.00015e-05
4.84456e-06
1.70646e-06
1.4387e-07
9.18348e-08
2.31206e-06
5.85151e-06
1.3066e-05
2.34077e-05
3.0117e-05
3.18605e-05
3.07082e-05
2.80792e-05
2.49779e-05
2.20549e-05
1.95616e-05
1.7505e-05
1.57893e-05
1.42959e-05
1.2919e-05
1.15806e-05
1.02398e-05
8.90248e-06
7.6349e-06
6.55681e-06
5.79886e-06
5.33278e-06
5.08316e-06
4.96385e-06
4.89899e-06
4.8574e-06
4.88237e-06
5.11679e-06
5.88014e-06
7.79837e-06
1.01459e-05
4.85101e-06
1.7204e-06
1.47015e-07
9.57141e-08
2.32977e-06
5.91146e-06
1.32547e-05
2.36924e-05
3.03132e-05
3.19565e-05
3.07457e-05
2.81049e-05
2.50278e-05
2.21397e-05
1.96911e-05
1.76843e-05
1.60182e-05
1.45702e-05
1.323e-05
1.19132e-05
1.05712e-05
9.20346e-06
7.87455e-06
6.70817e-06
5.85115e-06
5.29677e-06
4.97879e-06
4.81988e-06
4.74936e-06
4.73323e-06
4.80534e-06
5.10124e-06
5.94605e-06
7.97865e-06
1.02918e-05
4.86397e-06
1.73496e-06
1.49975e-07
9.95343e-08
2.34666e-06
5.96966e-06
1.34391e-05
2.39652e-05
3.04941e-05
3.20376e-05
3.07684e-05
2.81156e-05
2.50627e-05
2.22133e-05
1.98145e-05
1.78625e-05
1.62507e-05
1.48529e-05
1.35548e-05
1.22657e-05
1.09291e-05
9.53697e-06
8.15095e-06
6.89841e-06
5.93973e-06
5.29333e-06
4.90261e-06
4.69878e-06
4.61641e-06
4.61939e-06
4.73345e-06
5.08784e-06
6.01405e-06
8.16315e-06
1.04368e-05
4.881e-06
1.74989e-06
1.52749e-07
1.03375e-07
2.36375e-06
6.02883e-06
1.3626e-05
2.42373e-05
3.06702e-05
3.21131e-05
3.07855e-05
2.81212e-05
2.50937e-05
2.22842e-05
1.99362e-05
1.804e-05
1.64843e-05
1.51399e-05
1.38885e-05
1.26334e-05
1.13094e-05
9.89989e-06
8.46196e-06
7.12579e-06
6.06379e-06
5.32234e-06
4.85494e-06
4.60112e-06
4.50076e-06
4.5165e-06
4.66729e-06
5.07716e-06
6.08428e-06
8.35052e-06
1.05813e-05
4.90196e-06
1.76511e-06
1.55345e-07
1.07158e-07
2.38041e-06
6.08711e-06
1.38094e-05
2.44981e-05
3.08311e-05
3.21729e-05
3.07864e-05
2.81107e-05
2.511e-05
2.23438e-05
2.00505e-05
1.82137e-05
1.67177e-05
1.54306e-05
1.42307e-05
1.30153e-05
1.17107e-05
1.02905e-05
8.80595e-06
7.38906e-06
6.22342e-06
5.38486e-06
4.83748e-06
4.52894e-06
4.40447e-06
4.42624e-06
4.60761e-06
5.06832e-06
6.15382e-06
8.53772e-06
1.07229e-05
4.92555e-06
1.78045e-06
1.57769e-07
1.1094e-07
2.39734e-06
6.14668e-06
1.39943e-05
2.47557e-05
3.09844e-05
3.22234e-05
3.07768e-05
2.80894e-05
2.51163e-05
2.23956e-05
2.01584e-05
1.83821e-05
1.69476e-05
1.57207e-05
1.45765e-05
1.34067e-05
1.21286e-05
1.07052e-05
9.18039e-06
7.68647e-06
6.41772e-06
5.48047e-06
4.8501e-06
4.48244e-06
4.32797e-06
4.34917e-06
4.55525e-06
5.06319e-06
6.22667e-06
8.72449e-06
1.08623e-05
4.95159e-06
1.79579e-06
1.6003e-07
1.14672e-07
2.41414e-06
6.20728e-06
1.41758e-05
2.50021e-05
3.11225e-05
3.22572e-05
3.07496e-05
2.80503e-05
2.51063e-05
2.24366e-05
2.02576e-05
1.85436e-05
1.71732e-05
1.60097e-05
1.49252e-05
1.38061e-05
1.25608e-05
1.11413e-05
9.58257e-06
8.01607e-06
6.64604e-06
5.60943e-06
4.89361e-06
4.46276e-06
4.27269e-06
4.28687e-06
4.51171e-06
5.06278e-06
6.30234e-06
8.911e-06
1.09999e-05
4.97972e-06
1.81108e-06
1.62138e-07
1.18376e-07
2.43035e-06
6.26708e-06
1.4356e-05
2.52422e-05
3.12498e-05
3.22784e-05
3.07084e-05
2.79964e-05
2.50813e-05
2.24647e-05
2.03451e-05
1.86954e-05
1.73915e-05
1.62944e-05
1.52734e-05
1.42097e-05
1.30034e-05
1.15949e-05
1.00093e-05
8.37552e-06
6.90705e-06
5.77103e-06
4.96776e-06
4.46999e-06
4.23906e-06
4.24004e-06
4.47768e-06
5.06714e-06
6.37953e-06
9.0963e-06
1.1136e-05
5.00971e-06
1.82625e-06
1.64098e-07
1.22013e-07
2.44613e-06
6.32583e-06
1.45335e-05
2.54725e-05
3.13626e-05
3.2283e-05
3.065e-05
2.7926e-05
2.50409e-05
2.24786e-05
2.04212e-05
1.88384e-05
1.76036e-05
1.65754e-05
1.56206e-05
1.4616e-05
1.34536e-05
1.20626e-05
1.04569e-05
8.76176e-06
7.19897e-06
5.96454e-06
5.07252e-06
4.50462e-06
4.22795e-06
4.20981e-06
4.4543e-06
5.07709e-06
6.45843e-06
9.2803e-06
1.12711e-05
5.04135e-06
1.84128e-06
1.6592e-07
1.25579e-07
2.46109e-06
6.38236e-06
1.47071e-05
2.56955e-05
3.14639e-05
3.2273e-05
3.05732e-05
2.78349e-05
2.49807e-05
2.2476e-05
2.04841e-05
1.89707e-05
1.7807e-05
1.68499e-05
1.59639e-05
1.50219e-05
1.3908e-05
1.25402e-05
1.09212e-05
9.1711e-06
7.51905e-06
6.18813e-06
5.20683e-06
4.5662e-06
4.23947e-06
4.19674e-06
4.44231e-06
5.09319e-06
6.53906e-06
9.46246e-06
1.14049e-05
5.07436e-06
1.85612e-06
1.6761e-07
1.29096e-07
2.47568e-06
6.43885e-06
1.48821e-05
2.59127e-05
3.15537e-05
3.22504e-05
3.04851e-05
2.77341e-05
2.491e-05
2.24592e-05
2.05316e-05
1.90907e-05
1.80012e-05
1.71172e-05
1.63022e-05
1.54253e-05
1.43638e-05
1.30244e-05
1.13982e-05
9.59982e-06
7.86436e-06
6.4397e-06
5.36941e-06
4.65423e-06
4.2738e-06
4.20152e-06
4.44272e-06
5.11651e-06
6.62243e-06
9.64359e-06
1.15381e-05
5.10872e-06
1.8708e-06
1.69176e-07
1.3255e-07
2.48974e-06
6.49395e-06
1.50535e-05
2.61196e-05
3.16296e-05
3.22111e-05
3.03776e-05
2.7613e-05
2.48215e-05
2.24301e-05
2.05705e-05
1.92e-05
1.81846e-05
1.73763e-05
1.66348e-05
1.58256e-05
1.48196e-05
1.3513e-05
1.18855e-05
1.0045e-05
8.23221e-06
6.71699e-06
5.55852e-06
4.76757e-06
4.33046e-06
4.22426e-06
4.45599e-06
5.14763e-06
6.70898e-06
9.82387e-06
1.16711e-05
5.14427e-06
1.8853e-06
1.70627e-07
1.35934e-07
2.50327e-06
6.54806e-06
1.5223e-05
2.6318e-05
3.16925e-05
3.21577e-05
3.02559e-05
2.74783e-05
2.4719e-05
2.23863e-05
2.05963e-05
1.93001e-05
1.83596e-05
1.76266e-05
1.69599e-05
1.62205e-05
1.52726e-05
1.40026e-05
1.23789e-05
1.05029e-05
8.61925e-06
7.01743e-06
5.77231e-06
4.90503e-06
4.40893e-06
4.26511e-06
4.48285e-06
5.18765e-06
6.7999e-06
1.00043e-05
1.18045e-05
5.18112e-06
1.89966e-06
1.71977e-07
1.39246e-07
2.51623e-06
6.60075e-06
1.53889e-05
2.65057e-05
3.17409e-05
3.20874e-05
3.01158e-05
2.73254e-05
2.46002e-05
2.23287e-05
2.06105e-05
1.93901e-05
1.85265e-05
1.78696e-05
1.72778e-05
1.66096e-05
1.57221e-05
1.44919e-05
1.28766e-05
1.09709e-05
9.02277e-06
7.33862e-06
6.00881e-06
5.06514e-06
4.50828e-06
4.32367e-06
4.52335e-06
5.23688e-06
6.89559e-06
1.01852e-05
1.1939e-05
5.21928e-06
1.91389e-06
1.73238e-07
1.42485e-07
2.52871e-06
6.65228e-06
1.55521e-05
2.66839e-05
3.1776e-05
3.20019e-05
2.99597e-05
2.7157e-05
2.44668e-05
2.22574e-05
2.06124e-05
1.94693e-05
1.86837e-05
1.81042e-05
1.75875e-05
1.69905e-05
1.61648e-05
1.49773e-05
1.33748e-05
1.14453e-05
9.43949e-06
7.67807e-06
6.26617e-06
5.24658e-06
4.62773e-06
4.39978e-06
4.57791e-06
5.29623e-06
6.9972e-06
1.03675e-05
1.20753e-05
5.25887e-06
1.92805e-06
1.74426e-07
1.4563e-07
2.54047e-06
6.70189e-06
1.57108e-05
2.68511e-05
3.17964e-05
3.18992e-05
2.97854e-05
2.69711e-05
2.43177e-05
2.21723e-05
2.06026e-05
1.95382e-05
1.88318e-05
1.83306e-05
1.789e-05
1.73642e-05
1.66008e-05
1.54578e-05
1.38716e-05
1.19236e-05
9.86662e-06
8.03347e-06
6.54258e-06
5.44794e-06
4.76626e-06
4.4928e-06
4.64631e-06
5.36578e-06
7.10502e-06
1.05517e-05
1.22141e-05
5.30012e-06
1.94221e-06
1.75554e-07
1.48694e-07
2.55171e-06
6.75022e-06
1.58665e-05
2.70085e-05
3.18026e-05
3.17801e-05
2.9594e-05
2.67695e-05
2.41545e-05
2.20745e-05
2.05813e-05
1.95966e-05
1.89698e-05
1.85471e-05
1.81827e-05
1.77284e-05
1.70268e-05
1.59295e-05
1.4363e-05
1.24019e-05
1.03008e-05
8.40225e-06
6.83622e-06
5.66802e-06
4.92315e-06
4.60251e-06
4.72876e-06
5.44617e-06
7.21996e-06
1.07386e-05
1.23561e-05
5.34307e-06
1.9564e-06
1.76639e-07
1.51664e-07
2.56227e-06
6.79673e-06
1.60178e-05
2.71545e-05
3.17937e-05
3.16435e-05
2.93848e-05
2.65514e-05
2.3977e-05
2.19642e-05
2.05493e-05
1.96453e-05
1.90988e-05
1.87549e-05
1.84668e-05
1.80837e-05
1.74434e-05
1.6391e-05
1.48469e-05
1.28777e-05
1.07392e-05
8.78205e-06
7.14532e-06
5.90551e-06
5.09747e-06
4.72831e-06
4.82505e-06
5.53756e-06
7.34251e-06
1.0929e-05
1.25023e-05
5.38805e-06
1.97072e-06
1.77693e-07
1.5455e-07
2.57232e-06
6.84194e-06
1.61661e-05
2.72902e-05
3.17698e-05
3.14897e-05
2.91585e-05
2.63184e-05
2.37867e-05
2.18428e-05
2.05071e-05
1.96843e-05
1.92179e-05
1.89524e-05
1.87401e-05
1.84275e-05
1.7848e-05
1.68402e-05
1.53175e-05
1.33449e-05
1.11771e-05
9.16938e-06
7.46756e-06
6.15911e-06
5.28859e-06
4.87001e-06
4.93533e-06
5.64044e-06
7.47352e-06
1.11238e-05
1.26532e-05
5.43506e-06
1.9852e-06
1.78732e-07
1.57343e-07
2.58171e-06
6.88542e-06
1.63101e-05
2.7414e-05
3.173e-05
3.13181e-05
2.8915e-05
2.60708e-05
2.35845e-05
2.17112e-05
2.04561e-05
1.97149e-05
1.93286e-05
1.9141e-05
1.90034e-05
1.87599e-05
1.824e-05
1.72761e-05
1.57765e-05
1.38032e-05
1.16125e-05
9.56131e-06
7.80026e-06
6.42685e-06
5.49536e-06
5.02713e-06
5.05966e-06
5.75532e-06
7.61387e-06
1.13242e-05
1.28094e-05
5.48431e-06
1.99991e-06
1.79765e-07
1.60052e-07
2.59054e-06
6.92742e-06
1.64504e-05
2.75265e-05
3.16744e-05
3.11288e-05
2.86548e-05
2.58095e-05
2.33713e-05
2.15704e-05
2.03968e-05
1.97374e-05
1.94306e-05
1.93198e-05
1.92555e-05
1.90794e-05
1.86169e-05
1.76955e-05
1.62193e-05
1.42489e-05
1.20423e-05
9.95497e-06
8.14087e-06
6.70683e-06
5.71661e-06
5.1992e-06
5.19816e-06
5.88287e-06
7.76479e-06
1.15315e-05
1.29713e-05
5.53581e-06
2.0149e-06
1.80802e-07
1.62669e-07
2.59872e-06
6.96766e-06
1.65862e-05
2.76266e-05
3.16022e-05
3.09214e-05
2.83784e-05
2.55354e-05
2.31487e-05
2.14221e-05
2.03312e-05
1.97538e-05
1.95258e-05
1.94907e-05
1.94977e-05
1.93866e-05
1.89787e-05
1.80976e-05
1.66443e-05
1.46795e-05
1.2463e-05
1.03467e-05
8.48621e-06
6.9966e-06
5.95073e-06
5.3854e-06
5.35066e-06
6.02344e-06
7.92737e-06
1.17472e-05
1.31392e-05
5.58966e-06
2.03021e-06
1.81852e-07
1.65201e-07
2.60627e-06
7.00619e-06
1.67177e-05
2.77144e-05
3.15135e-05
3.06961e-05
2.80857e-05
2.5249e-05
2.2917e-05
2.12669e-05
2.02597e-05
1.97644e-05
1.96146e-05
1.96535e-05
1.97298e-05
1.96809e-05
1.93246e-05
1.84809e-05
1.70495e-05
1.50928e-05
1.28726e-05
1.07336e-05
8.83315e-06
7.2935e-06
6.19588e-06
5.58479e-06
5.51722e-06
6.17839e-06
8.10322e-06
1.19733e-05
1.33131e-05
5.6458e-06
2.04589e-06
1.82918e-07
1.67649e-07
2.61316e-06
7.04292e-06
1.68446e-05
2.77895e-05
3.14075e-05
3.04522e-05
2.7777e-05
2.49509e-05
2.26773e-05
2.11062e-05
2.01843e-05
1.97714e-05
1.96991e-05
1.98106e-05
1.99537e-05
1.99635e-05
1.96549e-05
1.8845e-05
1.74338e-05
1.54868e-05
1.32684e-05
1.11128e-05
9.17883e-06
7.59486e-06
6.44989e-06
5.79599e-06
5.69743e-06
6.34819e-06
8.29374e-06
1.22111e-05
1.34931e-05
5.70432e-06
2.06198e-06
1.84007e-07
1.70015e-07
2.61939e-06
7.07787e-06
1.6967e-05
2.78518e-05
3.12841e-05
3.01893e-05
2.7452e-05
2.4641e-05
2.24298e-05
2.09401e-05
2.01051e-05
1.97752e-05
1.97801e-05
1.99626e-05
2.017e-05
2.02353e-05
1.99702e-05
1.91902e-05
1.77967e-05
1.58603e-05
1.36485e-05
1.1482e-05
9.52056e-06
7.89823e-06
6.71081e-06
6.01769e-06
5.89063e-06
6.53281e-06
8.50016e-06
1.24626e-05
1.3679e-05
5.7652e-06
2.07854e-06
1.85122e-07
1.72307e-07
2.62499e-06
7.11113e-06
1.70851e-05
2.79013e-05
3.11427e-05
2.99069e-05
2.71103e-05
2.43196e-05
2.21752e-05
2.07699e-05
2.00237e-05
1.97778e-05
1.98597e-05
2.0112e-05
2.03811e-05
2.0498e-05
2.02718e-05
1.9517e-05
1.81382e-05
1.62126e-05
1.40111e-05
1.18388e-05
9.85607e-06
8.20143e-06
6.97693e-06
6.24872e-06
6.09614e-06
6.73209e-06
8.7232e-06
1.27284e-05
1.38706e-05
5.82844e-06
2.0956e-06
1.86264e-07
1.74529e-07
2.62997e-06
7.14276e-06
1.71992e-05
2.79381e-05
3.09827e-05
2.96041e-05
2.67516e-05
2.39863e-05
2.1913e-05
2.05952e-05
1.994e-05
1.97794e-05
1.99385e-05
2.02597e-05
2.05883e-05
2.07531e-05
2.05611e-05
1.98266e-05
1.84592e-05
1.65439e-05
1.43557e-05
1.21822e-05
1.01837e-05
8.50263e-06
7.24627e-06
6.48736e-06
6.31286e-06
6.94594e-06
8.96377e-06
1.30101e-05
1.40674e-05
5.89404e-06
2.11322e-06
1.87437e-07
1.76691e-07
2.6344e-06
7.17302e-06
1.73098e-05
2.79621e-05
3.08036e-05
2.92805e-05
2.63757e-05
2.36416e-05
2.16441e-05
2.0417e-05
1.98552e-05
1.97813e-05
2.00181e-05
2.04076e-05
2.07936e-05
2.10027e-05
2.08399e-05
2.01206e-05
1.87606e-05
1.68546e-05
1.46819e-05
1.2511e-05
1.05021e-05
8.80034e-06
7.51758e-06
6.73268e-06
6.54014e-06
7.17392e-06
9.22166e-06
1.33072e-05
1.42689e-05
5.96187e-06
2.13139e-06
1.88643e-07
1.78795e-07
2.63828e-06
7.2019e-06
1.74169e-05
2.79729e-05
3.06045e-05
2.89352e-05
2.59821e-05
2.32851e-05
2.13681e-05
2.0235e-05
1.97689e-05
1.97833e-05
2.00986e-05
2.05562e-05
2.0998e-05
2.12483e-05
2.11101e-05
2.04009e-05
1.90443e-05
1.71462e-05
1.49903e-05
1.28251e-05
1.08101e-05
9.09293e-06
7.78919e-06
6.98305e-06
6.777e-06
7.41606e-06
9.49789e-06
1.36213e-05
1.4475e-05
6.03189e-06
2.15016e-06
1.89882e-07
1.80849e-07
2.6417e-06
7.22968e-06
1.75211e-05
2.79707e-05
3.03853e-05
2.85685e-05
2.55719e-05
2.29179e-05
2.10861e-05
2.00506e-05
1.96822e-05
1.9786e-05
2.01805e-05
2.0706e-05
2.12024e-05
2.14909e-05
2.1373e-05
2.06691e-05
1.93121e-05
1.74204e-05
1.52819e-05
1.31247e-05
1.11074e-05
9.37962e-06
8.05991e-06
7.23742e-06
7.02251e-06
7.67155e-06
9.79173e-06
1.39512e-05
1.46846e-05
6.10383e-06
2.16948e-06
1.91155e-07
1.82853e-07
2.64462e-06
7.25627e-06
1.7622e-05
2.79546e-05
3.01454e-05
2.81802e-05
2.51453e-05
2.25401e-05
2.0798e-05
1.98646e-05
1.95949e-05
1.97884e-05
2.02627e-05
2.08566e-05
2.14069e-05
2.17314e-05
2.16301e-05
2.0927e-05
1.95663e-05
1.76795e-05
1.55584e-05
1.34107e-05
1.13941e-05
9.65983e-06
8.32894e-06
7.49496e-06
7.27571e-06
7.93996e-06
1.01034e-05
1.42972e-05
1.48978e-05
6.17763e-06
2.18938e-06
1.92462e-07
1.8481e-07
2.64712e-06
7.28181e-06
1.77197e-05
2.79249e-05
2.98851e-05
2.77718e-05
2.47043e-05
2.21538e-05
2.05047e-05
1.96761e-05
1.95058e-05
1.97896e-05
2.03445e-05
2.10072e-05
2.16108e-05
2.19693e-05
2.18813e-05
2.11756e-05
1.98085e-05
1.79259e-05
1.58217e-05
1.36841e-05
1.16704e-05
9.93304e-06
8.59518e-06
7.75435e-06
7.53583e-06
8.22062e-06
1.0432e-05
1.46582e-05
1.51133e-05
6.25296e-06
2.2098e-06
1.93804e-07
1.86715e-07
2.64913e-06
7.30614e-06
1.78139e-05
2.78807e-05
2.96044e-05
2.7344e-05
2.42504e-05
2.17601e-05
2.02065e-05
1.94835e-05
1.94133e-05
1.97884e-05
2.04249e-05
2.11569e-05
2.18137e-05
2.22047e-05
2.21273e-05
2.14161e-05
2.00411e-05
1.81631e-05
1.60742e-05
1.39467e-05
1.19374e-05
1.01999e-05
8.85873e-06
8.01526e-06
7.80196e-06
8.51219e-06
1.07768e-05
1.5033e-05
1.53304e-05
6.32953e-06
2.23068e-06
1.95184e-07
1.8857e-07
2.6507e-06
7.32927e-06
1.79042e-05
2.78222e-05
2.93043e-05
2.6899e-05
2.37865e-05
2.13618e-05
1.99062e-05
1.92896e-05
1.93194e-05
1.97855e-05
2.05035e-05
2.13047e-05
2.20139e-05
2.24358e-05
2.23668e-05
2.16484e-05
2.02655e-05
1.83934e-05
1.6318e-05
1.41997e-05
1.21957e-05
1.04602e-05
9.11905e-06
8.27692e-06
8.07367e-06
8.81487e-06
1.11365e-05
1.54199e-05
1.55488e-05
6.40722e-06
2.25203e-06
1.96603e-07
1.90365e-07
2.65173e-06
7.35082e-06
1.79896e-05
2.77486e-05
2.89848e-05
2.64379e-05
2.33139e-05
2.09599e-05
1.96039e-05
1.90934e-05
1.92226e-05
1.97794e-05
2.05788e-05
2.14492e-05
2.22102e-05
2.26617e-05
2.25993e-05
2.18723e-05
2.0482e-05
1.8618e-05
1.65541e-05
1.4444e-05
1.24459e-05
1.07144e-05
9.37609e-06
8.53894e-06
8.35016e-06
9.12765e-06
1.15107e-05
1.58174e-05
1.57664e-05
6.48536e-06
2.27369e-06
1.98059e-07
1.92098e-07
2.65223e-06
7.37068e-06
1.80699e-05
2.76604e-05
2.86475e-05
2.59633e-05
2.28357e-05
2.05573e-05
1.93022e-05
1.88973e-05
1.91248e-05
1.9771e-05
2.06508e-05
2.15895e-05
2.24013e-05
2.28809e-05
2.28234e-05
2.20869e-05
2.069e-05
1.88359e-05
1.67823e-05
1.46799e-05
1.26885e-05
1.09627e-05
9.62994e-06
8.80108e-06
8.63087e-06
9.44972e-06
1.18982e-05
1.62237e-05
1.59833e-05
6.56358e-06
2.29557e-06
1.99549e-07
1.93762e-07
2.65206e-06
7.38837e-06
1.81439e-05
2.75569e-05
2.82923e-05
2.54755e-05
2.23524e-05
2.01544e-05
1.90015e-05
1.87015e-05
1.9026e-05
1.97604e-05
2.07193e-05
2.17252e-05
2.25866e-05
2.30928e-05
2.30387e-05
2.22918e-05
2.08886e-05
1.90452e-05
1.70012e-05
1.49065e-05
1.29228e-05
1.12048e-05
9.88027e-06
9.06298e-06
8.91539e-06
9.78055e-06
1.22985e-05
1.66383e-05
1.61979e-05
6.64131e-06
2.31757e-06
2.01069e-07
1.95359e-07
2.65125e-06
7.40387e-06
1.82118e-05
2.7439e-05
2.79199e-05
2.4976e-05
2.18657e-05
1.9753e-05
1.87034e-05
1.8508e-05
1.89282e-05
1.9749e-05
2.07853e-05
2.18565e-05
2.27656e-05
2.32967e-05
2.32445e-05
2.24866e-05
2.10775e-05
1.92455e-05
1.72104e-05
1.51233e-05
1.31481e-05
1.14398e-05
1.01263e-05
9.32425e-06
9.20368e-06
1.01203e-05
1.27112e-05
1.70604e-05
1.64089e-05
6.7182e-06
2.33959e-06
2.02623e-07
1.96886e-07
2.64972e-06
7.41699e-06
1.82734e-05
2.7306e-05
2.75293e-05
2.44639e-05
2.1375e-05
1.93525e-05
1.84082e-05
1.83173e-05
1.88323e-05
1.97383e-05
2.08502e-05
2.19847e-05
2.29395e-05
2.34935e-05
2.34416e-05
2.26722e-05
2.1258e-05
1.94374e-05
1.74106e-05
1.53308e-05
1.33647e-05
1.16676e-05
1.03674e-05
9.5836e-06
9.49407e-06
1.04671e-05
1.31342e-05
1.74868e-05
1.66154e-05
6.79371e-06
2.36149e-06
2.04206e-07
1.98359e-07
2.6476e-06
7.42814e-06
1.83297e-05
2.71585e-05
2.71206e-05
2.39396e-05
2.08808e-05
1.89536e-05
1.81165e-05
1.81307e-05
1.87403e-05
1.97303e-05
2.09162e-05
2.21118e-05
2.31097e-05
2.36841e-05
2.36311e-05
2.28503e-05
2.14321e-05
1.96224e-05
1.7603e-05
1.55299e-05
1.35733e-05
1.18887e-05
1.06042e-05
9.84185e-06
9.78727e-06
1.08212e-05
1.35667e-05
1.79161e-05
1.68173e-05
6.86784e-06
2.38327e-06
2.05815e-07
1.99787e-07
2.64495e-06
7.43762e-06
1.83813e-05
2.69957e-05
2.66922e-05
2.34023e-05
2.03825e-05
1.85558e-05
1.78284e-05
1.79485e-05
1.86528e-05
1.97267e-05
2.09856e-05
2.22405e-05
2.3279e-05
2.38712e-05
2.38156e-05
2.30237e-05
2.16033e-05
1.9803e-05
1.77894e-05
1.57223e-05
1.37751e-05
1.21037e-05
1.08364e-05
1.00978e-05
1.00817e-05
1.1181e-05
1.40067e-05
1.83459e-05
1.70136e-05
6.94019e-06
2.40482e-06
2.07445e-07
2.01187e-07
2.64197e-06
7.44614e-06
1.84297e-05
2.68176e-05
2.62445e-05
2.28534e-05
1.98814e-05
1.81598e-05
1.75445e-05
1.77708e-05
1.85698e-05
1.97278e-05
2.10596e-05
2.23726e-05
2.34493e-05
2.40567e-05
2.39971e-05
2.31952e-05
2.17748e-05
1.99814e-05
1.79712e-05
1.59088e-05
1.39706e-05
1.23128e-05
1.10639e-05
1.03514e-05
1.0377e-05
1.15455e-05
1.44527e-05
1.87746e-05
1.72041e-05
7.01076e-06
2.42615e-06
2.09095e-07
2.02567e-07
2.63875e-06
7.45409e-06
1.8475e-05
2.66231e-05
2.57777e-05
2.22946e-05
1.93787e-05
1.77653e-05
1.72661e-05
1.75971e-05
1.84901e-05
1.9733e-05
2.11386e-05
2.25095e-05
2.36227e-05
2.42431e-05
2.4178e-05
2.33671e-05
2.19493e-05
2.01598e-05
1.81504e-05
1.60912e-05
1.41613e-05
1.25175e-05
1.12883e-05
1.06046e-05
1.06762e-05
1.19144e-05
1.49026e-05
1.91996e-05
1.73878e-05
7.07899e-06
2.44704e-06
2.10754e-07
2.03932e-07
2.63542e-06
7.46174e-06
1.85172e-05
2.64123e-05
2.52943e-05
2.17304e-05
1.8878e-05
1.73731e-05
1.69871e-05
1.74218e-05
1.84098e-05
1.97398e-05
2.12212e-05
2.26507e-05
2.37997e-05
2.44311e-05
2.43593e-05
2.354e-05
2.21262e-05
2.03379e-05
1.83268e-05
1.62696e-05
1.43479e-05
1.27183e-05
1.15101e-05
1.08576e-05
1.09785e-05
1.22882e-05
1.53564e-05
1.96211e-05
1.75654e-05
7.14524e-06
2.4677e-06