/*--------------------------------*- C++ -*----------------------------------*\
| =========                 |                                                 |
| \\      /  F ield         | OpenFOAM: The Open Source CFD Toolbox           |
|  \\    /   O peration     | Version:  v2006                                 |
|   \\  /    A nd           | Website:  www.openfoam.com                      |
|    \\/     M anipulation  |                                                 |
\*---------------------------------------------------------------------------*/
FoamFile
{
    version     2.0;
    format      ascii;
    class       volScalarField;
    location    "27";
    object      k;
}
// * * * * * * * * * * * * * * * * * * * * * * * * * * * * * * * * * * * * * //

dimensions      [0 2 -2 0 0 0 0];


internalField   nonuniform List<scalar> 
78750
(
0.00019929
8.09558e-05
0.000109262
0.000102171
9.75893e-05
9.26291e-05
8.80209e-05
8.38767e-05
8.01639e-05
7.68171e-05
7.37829e-05
7.10298e-05
6.85301e-05
6.62613e-05
6.41998e-05
6.23222e-05
6.06037e-05
5.90123e-05
5.75151e-05
5.60788e-05
5.46633e-05
5.32201e-05
5.16922e-05
5.00216e-05
4.81523e-05
4.60049e-05
4.35047e-05
4.05641e-05
3.70807e-05
3.29526e-05
2.80815e-05
2.23417e-05
1.57584e-05
9.20631e-06
3.91589e-06
1.58393e-05
0.000127437
0.000177498
0.000191868
0.000189754
0.000182487
0.000175156
0.000169239
0.000164845
0.000161543
0.000158895
0.000156677
0.000154716
0.000152945
0.000151269
0.00014968
0.000148192
0.000146718
0.000145219
0.000143659
0.000141955
0.000139947
0.000137461
0.000134412
0.000130735
0.000126346
0.00012114
0.000114938
0.000107403
9.79839e-05
8.59484e-05
7.08466e-05
5.34236e-05
3.51061e-05
1.55451e-05
2.60308e-05
7.37829e-05
9.70606e-05
0.000102856
0.000100378
9.65779e-05
9.41798e-05
9.29868e-05
9.25124e-05
9.242e-05
9.2622e-05
9.30424e-05
9.3643e-05
9.43812e-05
9.52203e-05
9.61298e-05
9.70832e-05
9.80573e-05
9.903e-05
9.99789e-05
0.000100881
0.000101667
0.000102283
0.00010266
0.000102709
0.000102311
0.000101307
9.94293e-05
9.6176e-05
9.08348e-05
8.2571e-05
7.09482e-05
5.69267e-05
4.04918e-05
2.03919e-05
2.02035e-05
5.59585e-05
7.46267e-05
8.31765e-05
8.59468e-05
8.54405e-05
8.37482e-05
8.19749e-05
8.03149e-05
7.87488e-05
7.73715e-05
7.6247e-05
7.54622e-05
7.50489e-05
7.50094e-05
7.53053e-05
7.58897e-05
7.6717e-05
7.77456e-05
7.89367e-05
8.02518e-05
8.16487e-05
8.30835e-05
8.44895e-05
8.57726e-05
8.68031e-05
8.74089e-05
8.73501e-05
8.62028e-05
8.33063e-05
7.78485e-05
6.92296e-05
5.79354e-05
4.3222e-05
2.33228e-05
1.722e-05
4.51506e-05
6.1277e-05
6.99241e-05
7.43318e-05
7.52553e-05
7.34739e-05
6.99349e-05
6.55859e-05
6.12255e-05
5.71858e-05
5.36642e-05
5.08678e-05
4.88564e-05
4.7605e-05
4.70378e-05
4.70798e-05
4.76713e-05
4.87775e-05
5.03866e-05
5.25025e-05
5.51301e-05
5.82253e-05
6.16816e-05
6.53614e-05
6.903e-05
7.2523e-05
7.54527e-05
7.70089e-05
7.63239e-05
7.26739e-05
6.58173e-05
5.65915e-05
4.38443e-05
2.54629e-05
1.19692e-05
3.61847e-05
5.07669e-05
5.86291e-05
6.25766e-05
6.31942e-05
6.08926e-05
5.65009e-05
5.10581e-05
4.5582e-05
4.0832e-05
3.70664e-05
3.41713e-05
3.201e-05
3.04513e-05
2.93474e-05
2.85694e-05
2.80158e-05
2.76295e-05
2.7411e-05
2.74313e-05
2.78422e-05
2.88743e-05
3.07877e-05
3.3843e-05
3.82858e-05
4.42446e-05
5.12071e-05
5.78659e-05
6.25116e-05
6.36224e-05
6.04417e-05
5.36333e-05
4.25864e-05
2.55853e-05
9.97071e-06
2.99862e-05
4.27389e-05
4.97097e-05
5.28444e-05
5.26405e-05
4.94622e-05
4.42196e-05
3.82572e-05
3.29068e-05
2.90442e-05
2.69005e-05
2.62186e-05
2.65355e-05
2.74066e-05
2.84463e-05
2.93655e-05
2.99591e-05
3.00878e-05
2.96648e-05
2.86556e-05
2.70961e-05
2.51371e-05
2.31185e-05
2.16398e-05
2.17284e-05
2.45928e-05
3.08199e-05
3.95442e-05
4.83337e-05
5.41701e-05
5.4946e-05
5.07149e-05
4.16107e-05
2.70259e-05
8.6884e-06
2.57427e-05
3.65503e-05
4.19616e-05
4.35317e-05
4.18077e-05
3.7708e-05
3.28412e-05
2.88863e-05
2.69307e-05
2.71806e-05
2.91726e-05
3.21914e-05
3.5561e-05
3.87884e-05
4.16238e-05
4.39315e-05
4.55887e-05
4.6501e-05
4.65818e-05
4.57444e-05
4.39101e-05
4.10256e-05
3.70274e-05
3.20058e-05
2.66713e-05
2.24928e-05
2.14811e-05
2.51492e-05
3.28777e-05
4.13865e-05
4.6454e-05
4.57616e-05
3.9393e-05
2.78014e-05
8.11965e-06
2.27872e-05
3.22519e-05
3.6715e-05
3.74881e-05
3.53529e-05
3.16417e-05
2.8168e-05
2.63964e-05
2.69235e-05
2.94874e-05
3.3341e-05
3.76884e-05
4.19072e-05
4.56619e-05
4.88781e-05
5.15307e-05
5.35647e-05
5.49286e-05
5.55554e-05
5.53545e-05
5.4213e-05
5.2009e-05
4.85667e-05
4.36265e-05
3.72452e-05
3.02373e-05
2.4371e-05
2.20701e-05
2.50549e-05
3.21385e-05
3.89058e-05
4.09288e-05
3.73876e-05
2.92902e-05
7.57998e-06
2.06877e-05
2.90849e-05
3.28292e-05
3.31629e-05
3.10798e-05
2.82079e-05
2.63045e-05
2.64436e-05
2.87864e-05
3.2785e-05
3.7581e-05
4.24435e-05
4.69001e-05
5.07431e-05
5.40119e-05
5.67611e-05
5.89682e-05
6.06015e-05
6.16062e-05
6.18974e-05
6.13609e-05
5.9861e-05
5.71958e-05
5.30277e-05
4.71213e-05
3.9724e-05
3.19918e-05
2.6022e-05
2.42364e-05
2.76228e-05
3.35268e-05
3.68952e-05
3.56658e-05
3.0634e-05
7.10965e-06
1.91552e-05
2.70018e-05
3.05735e-05
3.10294e-05
2.94047e-05
2.72473e-05
2.6097e-05
2.68202e-05
2.9536e-05
3.37367e-05
3.8597e-05
4.34471e-05
4.78666e-05
5.1674e-05
5.49365e-05
5.77374e-05
6.00696e-05
6.19124e-05
6.32169e-05
6.38984e-05
6.38361e-05
6.28808e-05
6.08208e-05
5.73122e-05
5.20404e-05
4.5053e-05
3.72047e-05
3.02929e-05
2.64398e-05
2.72797e-05
3.16283e-05
3.50968e-05
3.51856e-05
3.23053e-05
6.41587e-06
1.77859e-05
2.53522e-05
2.89932e-05
2.97698e-05
2.86433e-05
2.69627e-05
2.61025e-05
2.69303e-05
2.97094e-05
3.39637e-05
3.88653e-05
4.37499e-05
4.81999e-05
5.20258e-05
5.52841e-05
5.80878e-05
6.04695e-05
6.24274e-05
6.39285e-05
6.48993e-05
6.52227e-05
6.47419e-05
6.32243e-05
6.03109e-05
5.56485e-05
4.9129e-05
4.13692e-05
3.41463e-05
2.93541e-05
2.86478e-05
3.1611e-05
3.46596e-05
3.52658e-05
3.35299e-05
5.61096e-06
1.64361e-05
2.38935e-05
2.77677e-05
2.89559e-05
2.8283e-05
2.68248e-05
2.58433e-05
2.63417e-05
2.88363e-05
3.29565e-05
3.7844e-05
4.277e-05
4.72806e-05
5.11719e-05
5.44553e-05
5.7255e-05
5.96468e-05
6.16349e-05
6.31961e-05
6.42718e-05
6.47643e-05
6.45348e-05
6.33596e-05
6.09053e-05
5.68436e-05
5.10014e-05
4.38256e-05
3.69602e-05
3.20609e-05
3.06563e-05
3.26547e-05
3.51007e-05
3.56916e-05
3.44278e-05
4.92468e-06
1.52462e-05
2.24729e-05
2.63758e-05
2.77216e-05
2.72687e-05
2.60642e-05
2.5435e-05
2.64718e-05
2.96166e-05
3.42314e-05
3.93763e-05
4.43872e-05
4.89397e-05
5.29231e-05
5.63173e-05
5.92155e-05
6.16944e-05
6.3732e-05
6.52816e-05
6.6282e-05
6.66582e-05
6.6312e-05
6.50677e-05
6.26947e-05
5.89466e-05
5.36351e-05
4.70175e-05
4.04735e-05
3.54115e-05
3.32396e-05
3.41906e-05
3.58727e-05
3.61451e-05
3.49365e-05
4.62099e-06
1.43357e-05
2.11733e-05
2.48996e-05
2.62416e-05
2.60223e-05
2.53986e-05
2.56559e-05
2.76423e-05
3.1454e-05
3.62781e-05
4.13594e-05
4.63164e-05
5.10105e-05
5.53634e-05
5.92726e-05
6.26759e-05
6.55756e-05
6.79308e-05
6.96431e-05
7.06239e-05
7.07984e-05
7.00897e-05
6.83623e-05
6.55215e-05
6.15251e-05
5.63467e-05
5.02422e-05
4.43308e-05
3.947e-05
3.67496e-05
3.66467e-05
3.7401e-05
3.70927e-05
3.55363e-05
4.52421e-06
1.37063e-05
2.01787e-05
2.38039e-05
2.53509e-05
2.56842e-05
2.59044e-05
2.70062e-05
2.9556e-05
3.35148e-05
3.82392e-05
4.33314e-05
4.86205e-05
5.39652e-05
5.91545e-05
6.39353e-05
6.81261e-05
7.17067e-05
7.46264e-05
7.67478e-05
7.79445e-05
7.81164e-05
7.71514e-05
7.4887e-05
7.13144e-05
6.65573e-05
6.0822e-05
5.45816e-05
4.89214e-05
4.42302e-05
4.1106e-05
4.00441e-05
3.98209e-05
3.8699e-05
3.6279e-05
4.14821e-06
1.29051e-05
1.92551e-05
2.30756e-05
2.50492e-05
2.58995e-05
2.64164e-05
2.73355e-05
2.92784e-05
3.26419e-05
3.71009e-05
4.24249e-05
4.83841e-05
5.46456e-05
6.07967e-05
6.64509e-05
7.14186e-05
7.57202e-05
7.93202e-05
8.20794e-05
8.38434e-05
8.44698e-05
8.379e-05
8.15551e-05
7.76524e-05
7.22342e-05
6.57817e-05
5.91173e-05
5.35652e-05
4.91368e-05
4.59011e-05
4.41502e-05
4.30511e-05
4.10441e-05
3.75353e-05
3.36098e-06
1.16404e-05
1.78856e-05
2.19413e-05
2.42942e-05
2.55075e-05
2.61112e-05
2.67092e-05
2.80873e-05
3.10757e-05
3.56186e-05
4.14623e-05
4.81714e-05
5.51917e-05
6.19802e-05
6.81185e-05
7.34697e-05
7.81344e-05
8.21377e-05
8.53723e-05
8.7685e-05
8.89057e-05
8.88418e-05
8.71739e-05
8.3608e-05
7.81245e-05
7.1217e-05
6.40222e-05
5.8277e-05
5.39355e-05
5.06823e-05
4.84694e-05
4.66698e-05
4.38926e-05
3.94834e-05
2.70799e-06
1.04252e-05
1.63785e-05
2.04298e-05
2.29244e-05
2.42816e-05
2.49755e-05
2.56779e-05
2.73669e-05
3.09399e-05
3.62954e-05
4.29342e-05
5.01726e-05
5.73653e-05
6.40482e-05
6.99558e-05
7.5065e-05
7.95426e-05
8.34605e-05
8.67353e-05
8.92202e-05
9.07338e-05
9.10837e-05
8.99436e-05
8.69253e-05
8.18541e-05
7.51156e-05
6.79778e-05
6.23832e-05
5.82509e-05
5.51341e-05
5.26963e-05
5.0427e-05
4.71404e-05
4.22548e-05
2.39778e-06
9.5702e-06
1.51535e-05
1.90211e-05
2.14687e-05
2.29206e-05
2.39674e-05
2.54518e-05
2.84269e-05
3.33645e-05
3.9749e-05
4.68069e-05
5.38502e-05
6.04553e-05
6.64431e-05
7.1758e-05
7.64407e-05
8.06428e-05
8.44154e-05
8.76463e-05
9.01698e-05
9.17946e-05
9.23297e-05
9.14569e-05
8.87723e-05
8.40597e-05
7.76654e-05
7.09516e-05
6.57465e-05
6.19272e-05
5.90133e-05
5.65027e-05
5.39365e-05
5.03233e-05
4.51938e-05
2.27592e-06
9.02251e-06
1.43148e-05
1.80496e-05
2.05455e-05
2.23108e-05
2.40359e-05
2.65399e-05
3.0657e-05
3.62669e-05
4.26398e-05
4.91096e-05
5.5305e-05
6.11192e-05
6.65567e-05
7.15951e-05
7.61925e-05
8.04217e-05
8.42908e-05
8.76404e-05
9.02862e-05
9.20444e-05
9.27259e-05
9.20194e-05
8.95354e-05
8.50837e-05
7.90655e-05
7.30115e-05
6.83477e-05
6.49254e-05
6.22765e-05
5.97777e-05
5.70196e-05
5.31711e-05
4.7872e-05
2.17525e-06
8.6423e-06
1.37747e-05
1.75192e-05
2.02238e-05
2.2426e-05
2.47685e-05
2.78707e-05
3.23439e-05
3.7757e-05
4.35108e-05
4.92291e-05
5.48007e-05
6.02502e-05
6.55865e-05
7.0713e-05
7.54748e-05
7.98879e-05
8.39452e-05
8.74631e-05
9.02601e-05
9.21827e-05
9.30525e-05
9.25647e-05
9.03379e-05
8.619e-05
8.05509e-05
7.50714e-05
7.07396e-05
6.7487e-05
6.49734e-05
6.25223e-05
5.9653e-05
5.55729e-05
4.99771e-05
2.01324e-06
8.29975e-06
1.33663e-05
1.71987e-05
2.01312e-05
2.26354e-05
2.52124e-05
2.82893e-05
3.23542e-05
3.70747e-05
4.20679e-05
4.71574e-05
5.23365e-05
5.76451e-05
6.30499e-05
6.83803e-05
7.33741e-05
7.80011e-05
8.22552e-05
8.59558e-05
8.89338e-05
9.10816e-05
9.22556e-05
9.2184e-05
9.05022e-05
8.70095e-05
8.20968e-05
7.74142e-05
7.3387e-05
7.0072e-05
6.73866e-05
6.47763e-05
6.17293e-05
5.74194e-05
5.15824e-05
1.7789e-06
7.87846e-06
1.28735e-05
1.67659e-05
1.9846e-05
2.24839e-05
2.50527e-05
2.78703e-05
3.13467e-05
3.5388e-05
3.9774e-05
4.44256e-05
4.93657e-05
5.46251e-05
6.01434e-05
6.57019e-05
7.09593e-05
7.57995e-05
8.01988e-05
8.40164e-05
8.70967e-05
8.93906e-05
9.08359e-05
9.12303e-05
9.02805e-05
8.77768e-05
8.39867e-05
8.03371e-05
7.66806e-05
7.31802e-05
7.01336e-05
6.72611e-05
6.40178e-05
5.94655e-05
5.33715e-05
1.54061e-06
7.41052e-06
1.2292e-05
1.6191e-05
1.93482e-05
2.20332e-05
2.45304e-05
2.70998e-05
3.00965e-05
3.35993e-05
3.751e-05
4.18123e-05
4.65534e-05
5.17726e-05
5.74104e-05
6.32237e-05
6.87927e-05
7.38711e-05
7.83975e-05
8.22705e-05
8.53372e-05
8.7599e-05
8.9082e-05
8.9707e-05
8.93659e-05
8.79745e-05
8.57627e-05
8.36602e-05
8.07962e-05
7.71685e-05
7.34259e-05
6.98819e-05
6.62615e-05
6.15324e-05
5.54841e-05
1.35208e-06
7.00316e-06
1.17633e-05
1.56424e-05
1.88373e-05
2.15346e-05
2.39638e-05
2.636e-05
2.90445e-05
3.21697e-05
3.57188e-05
3.97302e-05
4.42936e-05
4.94869e-05
5.52738e-05
6.13946e-05
6.73471e-05
7.27238e-05
7.7408e-05
8.13221e-05
8.43018e-05
8.6378e-05
8.76472e-05
8.81828e-05
8.81461e-05
8.77031e-05
8.72031e-05
8.69488e-05
8.54681e-05
8.23375e-05
7.82166e-05
7.39435e-05
6.97551e-05
6.46644e-05
5.84253e-05
1.19245e-06
6.68301e-06
1.13465e-05
1.51939e-05
1.83799e-05
2.10281e-05
2.33198e-05
2.54693e-05
2.7781e-05
3.04406e-05
3.35092e-05
3.71126e-05
4.14359e-05
4.66375e-05
5.27049e-05
5.93169e-05
6.58338e-05
7.16541e-05
7.65972e-05
8.05758e-05
8.3397e-05
8.50913e-05
8.57999e-05
8.58168e-05
8.57534e-05
8.62133e-05
8.77193e-05
8.96537e-05
8.98834e-05
8.75336e-05
8.31893e-05
7.81753e-05
7.33492e-05
6.78153e-05
6.10896e-05
9.93597e-07
6.30136e-06
1.08317e-05
1.45831e-05
1.76575e-05
2.0136e-05
2.21466e-05
2.38866e-05
2.56766e-05
2.77514e-05
3.02995e-05
3.35948e-05
3.7955e-05
4.35885e-05
5.04004e-05
5.78748e-05
6.51719e-05
7.1577e-05
7.68825e-05
8.09511e-05
8.35327e-05
8.4597e-05
8.42245e-05
8.28958e-05
8.19154e-05
8.27832e-05
8.65233e-05
9.13136e-05
9.4034e-05
9.3195e-05
8.91528e-05
8.35516e-05
7.78322e-05
7.1242e-05
6.29513e-05
7.55746e-07
5.71773e-06
9.98033e-06
1.35176e-05
1.63565e-05
1.85394e-05
2.01636e-05
2.14553e-05
2.2803e-05
2.45345e-05
2.70316e-05
3.0731e-05
3.5975e-05
4.28001e-05
5.0796e-05
5.91537e-05
6.69507e-05
7.36799e-05
7.92098e-05
8.33125e-05
8.56723e-05
8.61274e-05
8.45439e-05
8.12714e-05
7.80635e-05
7.77545e-05
8.26813e-05
9.02395e-05
9.5821e-05
9.69295e-05
9.36681e-05
8.79122e-05
8.14248e-05
7.35506e-05
6.33566e-05
5.71628e-07
5.10764e-06
9.01953e-06
1.22333e-05
1.47145e-05
1.64889e-05
1.77158e-05
1.87948e-05
2.02465e-05
2.25838e-05
2.63303e-05
3.18319e-05
3.90595e-05
4.75322e-05
5.64287e-05
6.48622e-05
7.22499e-05
7.86072e-05
8.39039e-05
8.78092e-05
8.99749e-05
9.01078e-05
8.77804e-05
8.28558e-05
7.67232e-05
7.3078e-05
7.64464e-05
8.56783e-05
9.4809e-05
9.90598e-05
9.74284e-05
9.19132e-05
8.46872e-05
7.53795e-05
6.35765e-05
4.93673e-07
4.62887e-06
8.17949e-06
1.10152e-05
1.30923e-05
1.45347e-05
1.57556e-05
1.74216e-05
2.02214e-05
2.46957e-05
3.10282e-05
3.89338e-05
4.77356e-05
5.65941e-05
6.47862e-05
7.1941e-05
7.82484e-05
8.38723e-05
8.86498e-05
9.23164e-05
9.45392e-05
9.4949e-05
9.29677e-05
8.79816e-05
8.02619e-05
7.25886e-05
7.0686e-05
7.73229e-05
8.82217e-05
9.64281e-05
9.80572e-05
9.40644e-05
8.69557e-05
7.70106e-05
6.47568e-05
5.0179e-07
4.32808e-06
7.58726e-06
1.01591e-05
1.21336e-05
1.39439e-05
1.63352e-05
2.00715e-05
2.55713e-05
3.27239e-05
4.09344e-05
4.93803e-05
5.73274e-05
6.43574e-05
7.04342e-05
7.59117e-05
8.11102e-05
8.60212e-05
9.04752e-05
9.42e-05
9.6867e-05
9.80774e-05
9.72053e-05
9.34496e-05
8.63392e-05
7.70928e-05
7.03618e-05
7.13295e-05
7.99695e-05
9.0442e-05
9.60568e-05
9.49408e-05
8.90988e-05
7.94151e-05
6.72835e-05
5.54904e-07
4.2945e-06
7.5644e-06
1.03787e-05
1.30683e-05
1.62848e-05
2.06828e-05
2.64943e-05
3.34001e-05
4.06924e-05
4.76329e-05
5.37638e-05
5.90122e-05
6.35896e-05
6.7871e-05
7.22114e-05
7.67672e-05
8.14799e-05
8.61922e-05
9.06372e-05
9.45315e-05
9.74689e-05
9.87354e-05
9.74058e-05
9.26021e-05
8.43458e-05
7.53351e-05
7.064e-05
7.36157e-05
8.25789e-05
9.07353e-05
9.29851e-05
8.94998e-05
8.12591e-05
7.00475e-05
6.20258e-07
4.67127e-06
8.36053e-06
1.18156e-05
1.54502e-05
1.97318e-05
2.47816e-05
3.03265e-05
3.58375e-05
4.08373e-05
4.51176e-05
4.8741e-05
5.19098e-05
5.48524e-05
5.78044e-05
6.10349e-05
6.47487e-05
6.90277e-05
7.38656e-05
7.92663e-05
8.50489e-05
9.06549e-05
9.52125e-05
9.75871e-05
9.66264e-05
9.16903e-05
8.38942e-05
7.65671e-05
7.37989e-05
7.81776e-05
8.60992e-05
9.08628e-05
8.98569e-05
8.33178e-05
7.2965e-05
6.38666e-07
4.98833e-06
8.97444e-06
1.27303e-05
1.65234e-05
2.05028e-05
2.45696e-05
2.84854e-05
3.2012e-05
3.50114e-05
3.74433e-05
3.93192e-05
4.06887e-05
4.16633e-05
4.24418e-05
4.33318e-05
4.46782e-05
4.69211e-05
5.06021e-05
5.62127e-05
6.38639e-05
7.30849e-05
8.26341e-05
9.07404e-05
9.56467e-05
9.61613e-05
9.24369e-05
8.59806e-05
7.97859e-05
7.85338e-05
8.31209e-05
8.82754e-05
8.90565e-05
8.43522e-05
7.56658e-05
6.06021e-07
4.77716e-06
8.61281e-06
1.21846e-05
1.56121e-05
1.89058e-05
2.19914e-05
2.47506e-05
2.70591e-05
2.88259e-05
3.00296e-05
3.07213e-05
3.09559e-05
3.07037e-05
2.98511e-05
2.83447e-05
2.62637e-05
2.40766e-05
2.27748e-05
2.39215e-05
2.94141e-05
4.02539e-05
5.53169e-05
7.15484e-05
8.54841e-05
9.46857e-05
9.84097e-05
9.66103e-05
9.08628e-05
8.5907e-05
8.60254e-05
8.93608e-05
9.04038e-05
8.6707e-05
7.96179e-05
5.73647e-07
4.36399e-06
7.91054e-06
1.12195e-05
1.43029e-05
1.71331e-05
1.96668e-05
2.19024e-05
2.39792e-05
2.62674e-05
2.93179e-05
3.35559e-05
3.88136e-05
4.41196e-05
4.79921e-05
4.90346e-05
4.62769e-05
3.93781e-05
2.87544e-05
1.64046e-05
7.01235e-06
6.75272e-06
1.8626e-05
3.97148e-05
6.34312e-05
8.38906e-05
9.79844e-05
0.000103981
0.000102157
9.63242e-05
9.24475e-05
9.2558e-05
9.25997e-05
8.93803e-05
8.44064e-05
5.58639e-07
4.04406e-06
7.39314e-06
1.05831e-05
1.36083e-05
1.65276e-05
1.95702e-05
2.33045e-05
2.87445e-05
3.7163e-05
4.9483e-05
6.54989e-05
8.34913e-05
0.000100671
0.000114201
0.000121992
0.00012277
0.00011565
9.96749e-05
7.44386e-05
4.30644e-05
1.53256e-05
4.23349e-06
1.52132e-05
4.06831e-05
6.95905e-05
9.3963e-05
0.000108919
0.000113289
0.000109614
0.000103754
0.000100347
9.81121e-05
9.41204e-05
8.97453e-05
5.49773e-07
4.07811e-06
7.53562e-06
1.09737e-05
1.45738e-05
1.88624e-05
2.48837e-05
3.4151e-05
4.81644e-05
6.75724e-05
9.14866e-05
0.000117458
0.000142239
0.000162957
0.000177953
0.000186681
0.000188919
0.000184074
0.000170769
0.000146472
0.000109217
6.41727e-05
2.72236e-05
1.66908e-05
3.37331e-05
6.41079e-05
9.39271e-05
0.000114476
0.000123037
0.000121368
0.000114814
0.000108865
0.000104267
9.85623e-05
9.18603e-05
5.59921e-07
4.12418e-06
7.84586e-06
1.21739e-05
1.80387e-05
2.69252e-05
4.04168e-05
5.9294e-05
8.27885e-05
0.000108588
0.000133598
0.000155
0.000171215
0.00018227
0.000189156
0.000192764
0.000193331
0.00019035
0.000182544
0.000167305
0.000139842
9.7467e-05
5.12868e-05
2.52114e-05
3.40026e-05
6.54645e-05
9.96101e-05
0.000123923
0.00013484
0.000133987
0.00012633
0.000117868
0.000110477
0.000101742
8.99071e-05
6.88842e-07
4.96118e-06
1.04192e-05
1.85856e-05
3.12625e-05
4.95406e-05
7.26056e-05
9.76551e-05
0.000121111
0.000140147
0.000153583
0.000162009
0.000167056
0.000170249
0.000172428
0.000173817
0.000174224
0.00017311
0.000169568
0.000162038
0.000147047
0.000117903
7.30363e-05
3.27882e-05
2.7108e-05
5.71849e-05
9.74014e-05
0.000127974
0.000143019
0.000144363
0.000136899
0.000126791
0.00011654
0.00010393
8.6719e-05
9.82586e-07
8.29387e-06
1.85573e-05
3.39905e-05
5.49983e-05
7.91208e-05
0.00010199
0.000119963
0.000132013
0.000139656
0.000145419
0.000151203
0.000157611
0.00016418
0.00016994
0.00017391
0.000175332
0.000173716
0.000168722
0.000159939
0.000146178
0.000124219
8.946e-05
4.68316e-05
2.31633e-05
4.15758e-05
8.52685e-05
0.000123653
0.000144856
0.000149756
0.000143759
0.000133239
0.000121049
0.000105512
8.50814e-05
1.39286e-06
1.35243e-05
2.85928e-05
4.76094e-05
6.81328e-05
8.58482e-05
9.81446e-05
0.000106175
0.000113347
0.000122418
0.000134186
0.00014793
0.000162268
0.000175754
0.000187109
0.000195254
0.000199301
0.00019859
0.000192691
0.000181344
0.000164
0.000139321
0.000105279
6.24564e-05
2.46313e-05
2.15558e-05
6.06635e-05
0.000109016
0.000140993
0.000152763
0.000149948
0.000139979
0.000126598
0.000108758
8.55159e-05
1.6814e-06
1.63811e-05
3.17167e-05
4.72251e-05
6.06093e-05
7.06634e-05
7.92204e-05
8.94672e-05
0.000102983
0.000119139
0.000136446
0.000153713
0.000170298
0.000185832
0.000199899
0.000211846
0.000220737
0.000225422
0.000224686
0.000217442
0.0002026
0.000178553
0.000143203
9.68508e-05
4.67932e-05
1.51196e-05
2.92923e-05
7.74768e-05
0.000122336
0.000146069
0.000150443
0.000143675
0.000130949
0.000112323
8.77185e-05
1.97287e-06
1.53464e-05
2.79723e-05
3.94064e-05
4.96438e-05
6.00554e-05
7.24356e-05
8.7181e-05
0.000103197
0.000119213
0.000134634
0.000149462
0.000163874
0.000177952
0.000191579
0.000204409
0.000215848
0.00022504
0.00023086
0.000231983
0.000226838
0.00021338
0.000188157
0.000146642
9.0413e-05
3.58528e-05
1.46324e-05
4.43556e-05
9.501e-05
0.000132273
0.000147072
0.000145894
0.000135516
0.000117281
9.24826e-05
2.22897e-06
1.38597e-05
2.50195e-05
3.58788e-05
4.71381e-05
5.95379e-05
7.30727e-05
8.70528e-05
0.000100911
0.000114611
0.000128387
0.000142377
0.000156489
0.000170453
0.000183915
0.000196475
0.00020769
0.00021704
0.000223911
0.00022757
0.000227037
0.000220888
0.000206869
0.000180505
0.000136036
7.61932e-05
2.53732e-05
2.09611e-05
6.23529e-05
0.000109768
0.000137419
0.000144591
0.000138626
0.000122265
9.8497e-05
2.34288e-06
1.34254e-05
2.43028e-05
3.51876e-05
4.64721e-05
5.84467e-05
7.11384e-05
8.45002e-05
9.85783e-05
0.000113405
0.000128851
0.000144626
0.00016038
0.000175776
0.000190483
0.000204113
0.000216203
0.000226161
0.000233345
0.000237098
0.000236693
0.000231234
0.000219463
0.000199005
0.000165403
0.00011496
5.63596e-05
2.19038e-05
3.9202e-05
8.5713e-05
0.000123767
0.000140276
0.000140021
0.00012662
0.000104186
2.31917e-06
1.25391e-05
2.25689e-05
3.2837e-05
4.40459e-05
5.67307e-05
7.09273e-05
8.62686e-05
0.000102246
0.00011841
0.000134478
0.000150348
0.000166037
0.000181568
0.000196871
0.000211704
0.000225636
0.000238005
0.000247984
0.000254611
0.000256833
0.000253598
0.000243685
0.000225316
0.00019544
0.000150343
9.18212e-05
3.99025e-05
3.00837e-05
6.54932e-05
0.000108974
0.000133966
0.000139554
0.000129534
0.000108805
2.26197e-06
1.15982e-05
2.15069e-05
3.28283e-05
4.61404e-05
6.12613e-05
7.73148e-05
9.33068e-05
0.00010862
0.000123157
0.000137198
0.000151147
0.000165332
0.000179916
0.000194858
0.00020995
0.00022481
0.000238905
0.000251447
0.000261432
0.000267663
0.000268874
0.00026377
0.000250736
0.000226897
0.0001883
0.000133169
7.23842e-05
3.79149e-05
5.27903e-05
9.46234e-05
0.000126643
0.000138183
0.000131975
0.000113891
2.38022e-06
1.28403e-05
2.46497e-05
3.83999e-05
5.37225e-05
6.95188e-05
8.46358e-05
9.84956e-05
0.000111234
0.000123432
0.000135735
0.000148589
0.00016218
0.000176482
0.000191317
0.000206447
0.000221527
0.000236143
0.000249646
0.000261173
0.000269598
0.00027366
0.000272043
0.000263264
0.000245254
0.000214575
0.000167818
0.000108834
6.06051e-05
5.23332e-05
8.37721e-05
0.000118878
0.000135628
0.000133785
0.000119751
2.62912e-06
1.52263e-05
2.87276e-05
4.31076e-05
5.75654e-05
7.12297e-05
8.37171e-05
9.52819e-05
0.000106571
0.000118255
0.000130756
0.0001442
0.000158509
0.000173503
0.000189
0.000204801
0.000220601
0.000236046
0.00025054
0.000263237
0.000273002
0.000278553
0.000278588
0.00027175
0.000256352
0.000230052
0.000190005
0.000137447
8.69466e-05
6.30123e-05
8.02348e-05
0.000113627
0.000133642
0.000135824
0.000125636
2.88777e-06
1.63295e-05
2.96996e-05
4.27795e-05
5.52072e-05
6.68959e-05
7.80984e-05
8.92754e-05
0.000100901
0.000113298
0.00012657
0.000140656
0.000155435
0.000170759
0.000186569
0.000202774
0.000219175
0.000235527
0.000251322
0.00026573
0.000277489
0.000285105
0.00028705
0.000281804
0.000267681
0.000242714
0.000205289
0.000157279
0.000108749
7.81179e-05
8.34494e-05
0.000111747
0.000132479
0.000137353
0.00012975
3.17463e-06
1.62314e-05
2.87228e-05
4.05906e-05
5.19716e-05
6.3194e-05
7.46032e-05
8.64808e-05
9.90259e-05
0.000112316
0.000126292
0.00014082
0.000155755
0.000170943
0.000186344
0.000201916
0.000217572
0.000233243
0.000248665
0.000263331
0.000276121
0.000285479
0.000289613
0.000286631
0.00027449
0.00025107
0.000215238
0.000170116
0.00012434
9.27797e-05
9.16946e-05
0.000114558
0.000133705
0.000138724
0.000130658
3.49344e-06
1.56747e-05
2.72493e-05
3.8403e-05
4.95513e-05
6.10988e-05
7.32878e-05
8.62352e-05
9.9966e-05
0.000114402
0.000129388
0.000144757
0.000160352
0.000175981
0.000191504
0.00020676
0.000221565
0.000235788
0.00024931
0.000261896
0.000272939
0.000281249
0.000285208
0.000282846
0.000271886
0.000250081
0.000216738
0.000175651
0.000134078
0.000104988
0.000101695
0.00011978
0.000135567
0.0001382
0.000127277
3.74334e-06
1.49608e-05
2.59628e-05
3.71086e-05
4.87974e-05
6.12575e-05
7.45195e-05
8.85016e-05
0.000103071
0.000118101
0.000133526
0.00014934
0.000165534
0.000181981
0.000198491
0.000214743
0.000230313
0.000244758
0.000257718
0.000268842
0.000277649
0.00028327
0.000284529
0.000279875
0.000267391
0.000245334
0.000214006
0.000177128
0.000140738
0.000115852
0.000112722
0.000126573
0.000137856
0.000136467
0.000122052
3.99268e-06
1.50653e-05
2.63043e-05
3.80004e-05
5.03537e-05
6.34128e-05
7.70672e-05
9.11169e-05
0.000105387
0.000119831
0.000134542
0.00014969
0.00016541
0.000181693
0.000198415
0.000215261
0.000231744
0.000247254
0.000261211
0.000272994
0.000281843
0.000286714
0.000286439
0.000279689
0.000265044
0.000241742
0.000211642
0.000178051
0.000146372
0.00012547
0.000122533
0.000132047
0.000138625
0.000133436
0.000116987
4.19428e-06
1.52774e-05
2.65857e-05
3.83964e-05
5.09355e-05
6.42438e-05
7.81073e-05
9.21772e-05
0.000106185
0.000120079
0.000134019
0.000148266
0.000163056
0.000178478
0.000194491
0.000210839
0.000227062
0.000242551
0.000256685
0.0002688
0.000278063
0.000283333
0.000283326
0.000276642
0.000261969
0.000239089
0.000210676
0.000179792
0.000152085
0.000134709
0.000131869
0.000137529
0.000139886
0.000131554
0.000113959
4.3299e-06
1.51659e-05
2.6634e-05
3.9114e-05
5.2705e-05
6.71066e-05
8.17261e-05
9.5995e-05
0.00010965
0.000122802
0.000135817
0.000149134
0.000163112
0.000177914
0.000193533
0.000209694
0.00022586
0.000241337
0.000255336
0.000267073
0.000275704
0.000280214
0.000279551
0.00027261
0.000258429
0.000237185
0.000211101
0.000182529
0.000157259
0.000141771
0.000138526
0.000141142
0.000140389
0.000130173
0.000112749
4.56643e-06
1.61112e-05
2.87888e-05
4.26955e-05
5.73695e-05
7.20825e-05
8.61751e-05
9.93306e-05
0.000111646
0.000123507
0.000135406
0.000147808
0.000161069
0.000175366
0.000190736
0.000206966
0.000223554
0.00023979
0.00025473
0.000267344
0.000276504
0.000281
0.000279763
0.000271951
0.000257218
0.000236639
0.000212161
0.000185749
0.000162685
0.000148632
0.000144964
0.000145283
0.000142154
0.000130502
0.000113094
4.82509e-06
1.75993e-05
3.11883e-05
4.52923e-05
5.93207e-05
7.28168e-05
8.55943e-05
9.77284e-05
0.000109458
0.000121087
0.000132933
0.000145308
0.000158481
0.000172589
0.000187645
0.000203457
0.000219598
0.000235478
0.000250314
0.000263232
0.000273088
0.000278562
0.000278356
0.000271393
0.00025731
0.000237549
0.000213715
0.000188118
0.000166081
0.00015285
0.000149096
0.000148178
0.000143588
0.000130845
0.000112912
4.83498e-06
1.79509e-05
3.12919e-05
4.45562e-05
5.75352e-05
7.02111e-05
8.26274e-05
9.48148e-05
0.000106821
0.000118797
0.000131055
0.000144001
0.00015799
0.00017318
0.000189429
0.00020626
0.000222926
0.000238588
0.000252465
0.000263895
0.000272124
0.00027629
0.000275434
0.000268622
0.000255478
0.000237377
0.000215014
0.000190659
0.0001696
0.0001568
0.00015264
0.000150597
0.000144735
0.000130772
0.000111603
4.72672e-06
1.74399e-05
2.99916e-05
4.22899e-05
5.4508e-05
6.68376e-05
7.92491e-05
9.15047e-05
0.000103403
0.000115042
0.000126888
0.000139646
0.000153993
0.000170367
0.000188675
0.000208209
0.00022773
0.000245749
0.000260992
0.00027255
0.000279738
0.000282066
0.000279131
0.000270569
0.000256408
0.000238177
0.000215868
0.000191692
0.00017103
0.000158782
0.000154846
0.000152476
0.000145845
0.000130599
0.000109696
4.49056e-06
1.60238e-05
2.76318e-05
3.95605e-05
5.22182e-05
6.56782e-05
7.94424e-05
9.27037e-05
0.000104899
0.000116069
0.000126848
0.000138267
0.000151474
0.000167447
0.000186482
0.00020793
0.000230274
0.000251468
0.000269576
0.000283101
0.000290992
0.000292762
0.000288399
0.000278183
0.000262784
0.000243877
0.000220506
0.000194877
0.000172683
0.000159408
0.000155049
0.000152474
0.000145418
0.000129315
0.00010737
4.47559e-06
1.57275e-05
2.80456e-05
4.18938e-05
5.73356e-05
7.3592e-05
8.92396e-05
0.000103005
0.000114441
0.000123963
0.000132571
0.000141644
0.000152781
0.00016754
0.000186762
0.000210038
0.000235658
0.000261153
0.000283808
0.00030126
0.000311669
0.000314077
0.000308553
0.000296024
0.000278102
0.000256708
0.00023104
0.000202705
0.000177066
0.000160618
0.000154644
0.000151957
0.000145082
0.000128803
0.000106587
4.96901e-06
1.82135e-05
3.38683e-05
5.1974e-05
7.12715e-05
8.96087e-05
0.000105033
0.000116786
0.000125321
0.000131683
0.000137173
0.000143369
0.000152113
0.000165284
0.000184175
0.000208808
0.000237665
0.00026807
0.000296966
0.00032121
0.000337889
0.000344941
0.000341632
0.000328763
0.000308551
0.00028312
0.000252901
0.000219633
0.000188135
0.000165391
0.000154825
0.00015058
0.000143717
0.000128047
0.000106763
6.23616e-06
2.50434e-05
4.66801e-05
6.96117e-05
9.08405e-05
0.000107778
0.000119645
0.000127356
0.000132347
0.000135978
0.000139664
0.000145027
0.000153777
0.000167451
0.000187094
0.000212776
0.00024339
0.00027676
0.000310085
0.000340223
0.00036371
0.000377544
0.000379956
0.000370801
0.000351429
0.000323483
0.000288495
0.000249036
0.000210086
0.000178962
0.000161058
0.00015306
0.000145042
0.000129503
0.000108289
8.21565e-06
3.43317e-05
6.09268e-05
8.47559e-05
0.000102841
0.000114601
0.000121619
0.000125848
0.000128737
0.000131478
0.000135375
0.000141913
0.000152531
0.000168354
0.000190094
0.000217775
0.000250605
0.000286958
0.000324455
0.000360177
0.000390521
0.000411764
0.00042121
0.000417745
0.00040161
0.000373739
0.000335658
0.000290235
0.000242897
0.000201754
0.000174117
0.000159829
0.000148785
0.000132147
0.000109321
9.67404e-06
4.04494e-05
6.761e-05
8.8434e-05
0.000102585
0.000111825
0.000118154
0.000122877
0.000126776
0.000130532
0.000135059
0.000141623
0.0001517
0.000166649
0.000187499
0.000214698
0.000247905
0.000285943
0.000326814
0.000367841
0.000405412
0.000435458
0.000454175
0.000459157
0.000449447
0.000425192
0.000387513
0.000339047
0.000285164
0.00023451
0.000196473
0.000174158
0.000158
0.000137729
0.000109807
9.37927e-06
3.96095e-05
6.43413e-05
8.33912e-05
9.80577e-05
0.000109396
0.000118077
0.000124684
0.000129695
0.000133614
0.000137268
0.000142035
0.000149811
0.000162619
0.000182055
0.00020888
0.000242693
0.000282107
0.000325132
0.0003694
0.000411931
0.000448834
0.00047602
0.0004899
0.000488244
0.000470138
0.000435901
0.000387556
0.000330059
0.000272143
0.000224535
0.000193633
0.000170772
0.000144651
0.000109822
8.14237e-06
3.3944e-05
5.66214e-05
7.66919e-05
9.39676e-05
0.000107584
0.000117448
0.000124263
0.000128768
0.000131684
0.000134074
0.000137513
0.00014403
0.000155875
0.000174966
0.000202397
0.000237838
0.000279545
0.000325023
0.000371782
0.000417273
0.00045832
0.000491245
0.000512211
0.000518013
0.000506593
0.000477255
0.000431228
0.000372874
0.000310678
0.000256076
0.000217339
0.000186974
0.000153322
0.000110673
8.15277e-06
3.21924e-05
5.62433e-05
7.93299e-05