/*--------------------------------*- C++ -*----------------------------------*\
| =========                 |                                                 |
| \\      /  F ield         | OpenFOAM: The Open Source CFD Toolbox           |
|  \\    /   O peration     | Version:  v2006                                 |
|   \\  /    A nd           | Website:  www.openfoam.com                      |
|    \\/     M anipulation  |                                                 |
\*---------------------------------------------------------------------------*/
FoamFile
{
    version     2.0;
    format      ascii;
    class       volScalarField;
    location    "27";
    object      nut;
}
// * * * * * * * * * * * * * * * * * * * * * * * * * * * * * * * * * * * * * //

dimensions      [0 2 -1 0 0 0 0];


internalField   nonuniform List<scalar> 
78750
(
5.57525e-07
5.44494e-06
7.57089e-06
7.10567e-06
6.80327e-06
6.47422e-06
6.16702e-06
5.88952e-06
5.63992e-06
5.41411e-06
5.20874e-06
5.02183e-06
4.85167e-06
4.69686e-06
4.55587e-06
4.4272e-06
4.30921e-06
4.19977e-06
4.09664e-06
3.99754e-06
3.89974e-06
3.79987e-06
3.69396e-06
3.57795e-06
3.44788e-06
3.29813e-06
3.12331e-06
2.91708e-06
2.67188e-06
2.38004e-06
2.03383e-06
1.6231e-06
1.14822e-06
6.71961e-07
1.09643e-08
3.03177e-08
4.42083e-06
9.68255e-06
1.57848e-05
1.86831e-05
2.04167e-05
2.21619e-05
2.34689e-05
2.4223e-05
2.46185e-05
2.485e-05
2.49555e-05
2.49101e-05
2.47423e-05
2.4491e-05
2.42051e-05
2.39271e-05
2.36714e-05
2.3458e-05
2.33269e-05
2.33087e-05
2.33633e-05
2.34128e-05
2.34066e-05
2.32616e-05
2.2821e-05
2.18461e-05
1.99779e-05
1.69409e-05
1.30289e-05
9.20995e-06
6.49348e-06
5.42159e-06
4.37373e-06
2.96481e-08
4.98171e-08
4.53208e-06
7.43467e-06
7.85545e-06
8.25238e-06
9.32128e-06
1.14318e-05
1.50962e-05
1.94465e-05
1.94297e-05
1.94665e-05
1.95429e-05
1.9652e-05
1.97858e-05
1.99376e-05
2.01018e-05
2.02736e-05
2.04486e-05
2.06231e-05
2.07929e-05
2.09539e-05
2.10941e-05
2.12038e-05
2.12712e-05
2.12803e-05
2.12101e-05
2.10322e-05
1.82253e-05
1.46835e-05
1.14111e-05
8.81446e-06
7.42284e-06
8.0677e-06
3.73409e-06
3.8825e-08
3.86684e-08
5.35355e-06
1.29577e-05
1.06849e-05
9.49901e-06
9.69275e-06
1.17688e-05
1.70546e-05
1.71895e-05
1.68945e-05
1.6634e-05
1.64205e-05
1.62712e-05
1.61925e-05
1.61851e-05
1.62417e-05
1.63533e-05
1.65108e-05
1.67062e-05
1.69316e-05
1.71797e-05
1.74422e-05
1.77108e-05
1.79729e-05
1.82113e-05
1.84022e-05
1.85141e-05
1.47329e-05
1.13392e-05
8.77084e-06
7.04513e-06
6.53196e-06
8.53669e-06
3.642e-06
4.43759e-08
3.29594e-08
3.25728e-06
1.34893e-05
1.38013e-05
1.16326e-05
1.04659e-05
1.01445e-05
1.05477e-05
1.18791e-05
1.34989e-05
1.26914e-05
1.19791e-05
1.14079e-05
1.09939e-05
1.0735e-05
1.06174e-05
1.06262e-05
1.07491e-05
1.09781e-05
1.13099e-05
1.17435e-05
1.22779e-05
1.29018e-05
1.35915e-05
1.43177e-05
1.49389e-05
1.20813e-05
9.97565e-06
8.46224e-06
7.33434e-06
6.75224e-06
7.34655e-06
1.092e-05
2.92413e-06
4.83865e-08
2.2911e-08
2.74882e-06
1.13657e-05
1.29637e-05
1.05049e-05
8.51627e-06
7.48653e-06
7.01227e-06
6.92032e-06
7.25202e-06
8.12384e-06
8.50946e-06
7.88488e-06
7.4145e-06
7.07304e-06
6.83005e-06
6.65821e-06
6.53564e-06
6.44999e-06
6.4015e-06
6.40603e-06
6.49723e-06
6.72566e-06
7.14689e-06
7.81364e-06
6.91545e-06
6.11979e-06
5.64356e-06
5.29924e-06
5.03578e-06
5.04608e-06
5.99777e-06
1.01504e-05
2.78861e-06
4.85812e-08
1.90862e-08
2.236e-06
9.66239e-06
1.11509e-05
1.00967e-05
7.72866e-06
6.26248e-06
5.37103e-06
4.86633e-06
4.71424e-06
4.95053e-06
5.58118e-06
6.13463e-06
6.20496e-06
6.39828e-06
6.6283e-06
6.83094e-06
6.9614e-06
6.98954e-06
6.89643e-06
6.67386e-06
6.32849e-06
5.89197e-06
5.439e-06
4.30646e-06
3.46464e-06
3.08635e-06
3.08687e-06
3.31949e-06
3.67504e-06
4.231e-06
5.59511e-06
9.57366e-06
2.45136e-06
5.127e-08
1.66319e-08
1.95562e-06
8.3118e-06
9.53589e-06
7.50312e-06
5.3798e-06
4.23332e-06
3.64268e-06
3.44502e-06
3.61237e-06
4.13327e-06
4.96565e-06
6.06344e-06
7.40124e-06
8.87219e-06
9.47379e-06
9.95919e-06
1.03054e-05
1.04951e-05
1.05117e-05
1.03372e-05
9.95355e-06
9.19165e-06
7.06532e-06
5.09387e-06
3.52506e-06
2.45072e-06
1.91662e-06
1.86935e-06
2.17213e-06
2.77195e-06
4.04767e-06
7.7489e-06
2.23175e-06
5.27142e-08
1.55432e-08
1.6679e-06
6.70554e-06
8.4188e-06
6.38363e-06
4.51493e-06
3.55667e-06
3.13018e-06
3.10111e-06
3.44763e-06
4.16955e-06
5.26547e-06
6.75852e-06
8.67381e-06
1.03198e-05
1.09864e-05
1.1531e-05
1.19454e-05
1.22217e-05
1.23481e-05
1.23073e-05
1.20759e-05
1.1627e-05
9.76688e-06
6.98777e-06
4.73492e-06
3.07654e-06
2.01101e-06
1.5179e-06
1.52557e-06
1.96537e-06
3.07806e-06
6.33708e-06
1.96508e-06
5.5513e-08
1.45103e-08
1.50328e-06
6.01639e-06
7.57884e-06
5.27403e-06
3.65655e-06
2.91954e-06
2.68306e-06
2.83745e-06
3.36947e-06
4.28018e-06
5.56398e-06
7.23474e-06
9.3194e-06
1.13688e-05
1.20353e-05
1.25905e-05
1.30327e-05
1.3358e-05
1.35571e-05
1.36145e-05
1.35079e-05
1.32093e-05
1.12999e-05
8.37733e-06
5.85886e-06
3.88344e-06
2.48232e-06
1.65018e-06
1.33797e-06
1.50362e-06
2.32599e-06
5.31004e-06
1.81105e-06
5.80444e-08
1.361e-08
1.37083e-06
5.3862e-06
7.08584e-06
5.04022e-06
3.4558e-06
2.77238e-06
2.58208e-06
2.76396e-06
3.30552e-06
4.21554e-06
5.49631e-06
7.17773e-06
9.3177e-06
1.15578e-05
1.2221e-05
1.27849e-05
1.32507e-05
1.36164e-05
1.38739e-05
1.40079e-05
1.39953e-05
1.38065e-05
1.19248e-05
8.90023e-06
6.28596e-06
4.22659e-06
2.73894e-06
1.80673e-06
1.36585e-06
1.38749e-06
2.06298e-06
4.9736e-06
1.69491e-06
6.11853e-08
1.2282e-08
1.29189e-06
5.03886e-06
6.73789e-06
4.98861e-06
3.34821e-06
2.65985e-06
2.45935e-06
2.61266e-06
3.11383e-06
3.97446e-06
5.20083e-06
6.82128e-06
8.88801e-06
1.13151e-05
1.229e-05
1.2854e-05
1.33292e-05
1.37172e-05
1.4013e-05
1.42034e-05
1.42665e-05
1.41717e-05
1.18808e-05
9.00518e-06
6.4605e-06
4.39389e-06
2.86903e-06
1.89896e-06
1.40722e-06
1.35454e-06
1.93824e-06
4.86626e-06
1.63784e-06
6.3469e-08
1.07413e-08
1.23592e-06
4.66833e-06
6.46638e-06
5.34602e-06
3.51399e-06
2.71243e-06
2.41849e-06
2.47504e-06
2.87671e-06
3.63577e-06
4.75428e-06
6.2475e-06
8.15601e-06
1.04675e-05
1.21216e-05
1.26864e-05
1.31649e-05
1.356e-05
1.38684e-05
1.40798e-05
1.41761e-05
1.39528e-05
1.12532e-05
8.63224e-06
6.3332e-06
4.40069e-06
2.92564e-06
1.96766e-06
1.46786e-06
1.39175e-06
1.95457e-06
4.97155e-06
1.59677e-06
6.51246e-08
9.42757e-09
1.22588e-06
4.62049e-06
6.15685e-06
5.28057e-06
3.42477e-06
2.60822e-06
2.31623e-06
2.39789e-06
2.84178e-06
3.6335e-06
4.74692e-06
6.16079e-06
7.88356e-06
9.96359e-06
1.23149e-05
1.30795e-05
1.35726e-05
1.39751e-05
1.42794e-05
1.44748e-05
1.45477e-05
1.31299e-05
1.05901e-05
8.28264e-06
6.25714e-06
4.49505e-06
3.07721e-06
2.10808e-06
1.5737e-06
1.45582e-06
1.97635e-06
5.01222e-06
1.59478e-06
6.60517e-08
8.84623e-09
1.19666e-06
4.51683e-06
5.82723e-06
4.9518e-06
3.22934e-06
2.51402e-06
2.32424e-06
2.51213e-06
3.04451e-06
3.87024e-06
4.93741e-06
6.22558e-06
7.77561e-06
9.68015e-06
1.19665e-05
1.37674e-05
1.4338e-05
1.47979e-05
1.513e-05
1.53192e-05
1.53523e-05
1.27973e-05
1.01498e-05
7.9421e-06
6.10251e-06
4.5341e-06
3.24081e-06
2.30857e-06
1.75351e-06
1.5958e-06
2.08493e-06
5.18047e-06
1.62661e-06
6.7164e-08
8.66096e-09
1.15622e-06
4.512e-06
5.58154e-06
4.54878e-06
3.08475e-06
2.54719e-06
2.4849e-06
2.76078e-06
3.32656e-06
4.12046e-06
5.11923e-06
6.36149e-06
7.94419e-06
9.98445e-06
1.25044e-05
1.4835e-05
1.55277e-05
1.60871e-05
1.64906e-05
1.6717e-05
1.62899e-05
1.32694e-05
1.03625e-05
7.98853e-06
6.10791e-06
4.59788e-06
3.39353e-06
2.51583e-06
1.96304e-06
1.77874e-06
2.24984e-06
5.45664e-06
1.70047e-06
6.856e-08
7.94119e-09
1.09522e-06
4.21447e-06
5.41739e-06
4.90555e-06
3.33213e-06
2.75256e-06
2.63249e-06
2.80868e-06
3.25063e-06
3.92723e-06
4.86405e-06
6.14079e-06
7.88012e-06
1.02186e-05
1.31467e-05
1.54697e-05
1.62929e-05
1.6974e-05
1.74914e-05
1.78201e-05
1.74777e-05
1.41575e-05
1.09084e-05
8.25579e-06
6.20552e-06
4.64634e-06
3.48088e-06
2.6711e-06
2.16095e-06
1.99088e-06
2.49714e-06
5.93478e-06
1.7798e-06
7.09274e-08
6.43421e-09
1.06293e-06
3.86789e-06
5.16094e-06
5.61041e-06
3.74257e-06
2.97423e-06
2.69373e-06
2.70941e-06
3.01194e-06
3.59963e-06
4.51651e-06
5.84342e-06
7.6989e-06
1.02296e-05
1.34345e-05
1.5861e-05
1.67477e-05
1.74994e-05
1.81007e-05
1.85273e-05
1.85743e-05
1.51141e-05
1.16258e-05
8.72943e-06
6.47879e-06
4.79148e-06
3.58027e-06
2.7873e-06
2.31443e-06
2.17913e-06
2.75012e-06
6.43303e-06
1.85202e-06
7.45945e-08
5.18418e-09
1.08101e-06
3.87032e-06
4.81801e-06
5.3829e-06
3.91127e-06
3.03601e-06
2.66852e-06
2.64092e-06
2.94535e-06
3.58249e-06
4.58476e-06
6.00775e-06
7.93562e-06
1.0486e-05
1.36751e-05
1.61638e-05
1.70112e-05
1.7744e-05
1.83503e-05
1.88067e-05
1.90832e-05
1.55205e-05
1.18722e-05
8.8937e-06
6.58809e-06
4.85946e-06
3.63747e-06
2.86726e-06
2.43596e-06
2.35663e-06
3.04132e-06
7.00514e-06
1.88494e-06
7.98001e-08
4.59033e-09
1.10002e-06
3.60753e-06
4.49692e-06
5.05387e-06
3.71174e-06
2.90444e-06
2.61948e-06
2.72022e-06
3.18062e-06
3.98406e-06
5.13397e-06
6.64423e-06
8.55476e-06
1.09608e-05
1.39263e-05
1.6424e-05
1.72165e-05
1.792e-05
1.85166e-05
1.89789e-05
1.92747e-05
1.53827e-05
1.1655e-05
8.71849e-06
6.47665e-06
4.79879e-06
3.62341e-06
2.89723e-06
2.5155e-06
2.5044e-06
3.33313e-06
7.49722e-06
1.88701e-06
8.5306e-08
4.35705e-09
1.08733e-06
3.413e-06
4.27462e-06
4.84436e-06
3.51087e-06
2.87041e-06
2.74178e-06
3.00611e-06
3.60932e-06
4.5091e-06
5.67258e-06
7.0853e-06
8.79344e-06
1.09418e-05
1.36938e-05
1.63757e-05
1.71738e-05
1.78956e-05
1.85142e-05
1.89988e-05
1.88107e-05
1.46923e-05
1.10453e-05
8.28373e-06
6.19917e-06
4.63747e-06
3.5538e-06
2.89215e-06
2.57083e-06
2.64245e-06
3.6469e-06
7.78976e-06
1.86191e-06
9.03065e-08
4.16432e-09
1.07023e-06
3.28741e-06
4.15283e-06
4.77098e-06
3.47489e-06
2.97226e-06
2.95579e-06
3.31157e-06
3.95466e-06
4.82297e-06
5.87365e-06
7.10892e-06
8.6161e-06
1.0588e-05
1.32544e-05
1.62381e-05
1.70723e-05
1.78301e-05
1.84802e-05
1.89925e-05
1.80487e-05
1.38368e-05
1.03741e-05
7.84153e-06
5.939e-06
4.50015e-06
3.49934e-06
2.88443e-06
2.60582e-06
2.74904e-06
3.92418e-06
7.83593e-06
1.83318e-06
9.4226e-08
3.85417e-09
1.06194e-06
3.19222e-06
4.079e-06
4.74957e-06
3.68011e-06
3.20055e-06
3.18925e-06
3.51744e-06
4.08485e-06
4.82313e-06
5.69965e-06
6.73919e-06
8.05193e-06
9.85472e-06
1.24462e-05
1.58358e-05
1.67154e-05
1.75139e-05
1.82007e-05
1.87482e-05
1.70139e-05
1.28098e-05
9.61804e-06
7.36893e-06
5.68938e-06
4.40145e-06
3.49277e-06
2.91642e-06
2.66216e-06
2.85408e-06
4.16687e-06
7.71333e-06
1.80704e-06
9.72102e-08
3.40554e-09
1.07059e-06
3.0772e-06
3.97924e-06
4.68427e-06
4.0208e-06
3.48101e-06
3.3969e-06
3.62171e-06
4.05722e-06
4.63885e-06
5.34566e-06
6.21183e-06
7.34862e-06
8.97667e-06
1.14371e-05
1.48907e-05
1.62972e-05
1.71279e-05
1.78403e-05
1.84094e-05
1.58965e-05
1.18048e-05
8.90342e-06
6.93604e-06
5.48919e-06
4.36424e-06
3.54419e-06
2.99051e-06
2.73588e-06
2.94637e-06
4.35156e-06
7.6612e-06
1.80385e-06
1.00554e-07
2.94936e-09
1.09662e-06
2.94124e-06
3.84658e-06
4.57051e-06
4.43709e-06
3.80159e-06
3.60989e-06
3.70895e-06
4.00326e-06
4.43311e-06
4.98427e-06
5.69268e-06
6.66276e-06
8.10623e-06
1.03856e-05
1.38004e-05
1.59288e-05
1.6788e-05
1.75143e-05
1.80836e-05
1.4812e-05
1.08125e-05
8.15363e-06
6.44543e-06
5.25115e-06
4.34105e-06
3.65514e-06
3.14467e-06
2.8797e-06
3.07563e-06
4.51562e-06
7.70249e-06
1.81591e-06
1.0452e-07
2.58845e-09
1.13549e-06
2.81738e-06
3.71977e-06
4.45362e-06
4.8264e-06
4.0973e-06
3.7961e-06
3.77775e-06
3.94593e-06
4.24451e-06
4.66371e-06
5.24167e-06
6.08e-06
7.3811e-06
9.50558e-06
1.28465e-05
1.57082e-05
1.66e-05
1.7336e-05
1.78907e-05
1.39635e-05
9.95099e-06
7.42285e-06
5.90011e-06
4.92584e-06
4.24333e-06
3.73141e-06
3.31523e-06
3.07921e-06
3.28634e-06
4.79695e-06
7.87118e-06
1.84776e-06
1.10051e-07
2.28286e-09
1.18135e-06
2.71954e-06
3.6159e-06
4.3488e-06
4.95175e-06
4.35131e-06
3.93735e-06
3.79594e-06
3.83537e-06
4.00199e-06
4.29235e-06
4.75385e-06
5.49563e-06
6.71821e-06
8.77057e-06
1.20786e-05
1.55019e-05
1.64456e-05
1.71954e-05
1.77216e-05
1.33362e-05
9.16931e-06
6.65761e-06
5.25765e-06
4.4847e-06
4.05145e-06
3.75735e-06
3.48282e-06
3.31239e-06
3.56143e-06
5.19641e-06
7.96904e-06
1.871e-06
1.15058e-07
1.90216e-09
1.24925e-06
2.59854e-06
3.47425e-06
4.18312e-06
4.74899e-06
4.46173e-06
3.93603e-06
3.66075e-06
3.56382e-06
3.6048e-06
3.79802e-06
4.21019e-06
4.96473e-06
6.26836e-06
8.46106e-06
1.1921e-05
1.54868e-05
1.64994e-05
1.72654e-05
1.77464e-05
1.31836e-05
8.6863e-06
5.99375e-06
4.56749e-06
3.89913e-06
3.68362e-06
3.64376e-06
3.59345e-06
3.58688e-06
3.99024e-06
5.92998e-06
7.8612e-06
1.88275e-06
1.18536e-07
1.44682e-09
1.38501e-06
2.39805e-06
3.22663e-06
3.88394e-06
4.38489e-06
4.32478e-06
3.69596e-06
3.30842e-06
3.11849e-06
3.11415e-06
3.33376e-06
3.85929e-06
4.82924e-06
6.47584e-06
9.14337e-06
1.30118e-05
1.58904e-05
1.69391e-05
1.77063e-05
1.8143e-05
1.3759e-05
8.9205e-06
5.8145e-06
4.12834e-06
3.37202e-06
3.23318e-06
3.38943e-06
3.5776e-06
3.78459e-06
4.41155e-06
6.73362e-06
7.52672e-06
1.87613e-06
1.1926e-07
1.09434e-09
1.23866e-06
2.17108e-06
2.92696e-06
3.50452e-06
3.91447e-06
3.73101e-06
3.08355e-06
2.72305e-06
2.62225e-06
2.78597e-06
3.26165e-06
4.15031e-06
5.63924e-06
8.02607e-06
1.15696e-05
1.56169e-05
1.6826e-05
1.78166e-05
1.85372e-05
1.89329e-05
1.45357e-05
9.77303e-06
6.23611e-06
4.0896e-06
3.0266e-06
2.75448e-06
2.97235e-06
3.39635e-06
3.90668e-06
4.85527e-06
7.57837e-06
7.16555e-06
1.87179e-06
1.1962e-07
9.45102e-10
1.12358e-06
1.97199e-06
2.64153e-06
3.12759e-06
3.4631e-06
2.80552e-06
2.37984e-06
2.29078e-06
2.50511e-06
3.04078e-06
3.97616e-06
5.4726e-06
7.78661e-06
1.11383e-05
1.51875e-05
1.67573e-05
1.78095e-05
1.86904e-05
1.93583e-05
1.91733e-05
1.5422e-05
1.11554e-05
7.4131e-06
4.71846e-06
3.13559e-06
2.48386e-06
2.49993e-06
2.93927e-06
3.66149e-06
4.90674e-06
7.88546e-06
6.98677e-06
1.88205e-06
1.21792e-07
9.60638e-10
1.05118e-06
1.83131e-06
2.44026e-06
2.90396e-06
2.51557e-06
2.15643e-06
2.15869e-06
2.47078e-06
3.10003e-06
4.11442e-06
5.65075e-06
7.9049e-06
1.10038e-05
1.46434e-05
1.63117e-05
1.7291e-05
1.82031e-05
1.90196e-05
1.96948e-05
1.8764e-05
1.54927e-05
1.19032e-05
8.49465e-06
5.64369e-06
3.64661e-06
2.5661e-06
2.24456e-06
2.48516e-06
3.193e-06
4.57798e-06
7.7228e-06
6.91146e-06
1.90316e-06
1.26499e-07
1.06232e-09
1.04312e-06
1.82595e-06
2.49214e-06
2.42889e-06
2.13366e-06
2.18765e-06
2.53381e-06
3.17151e-06
4.14425e-06
5.52803e-06
7.40998e-06
9.83659e-06
1.26941e-05
1.47621e-05
1.55992e-05
1.64668e-05
1.73526e-05
1.82269e-05
1.90416e-05
1.6898e-05
1.43849e-05
1.18262e-05
9.20225e-06
6.62637e-06
4.44321e-06
2.9744e-06
2.26437e-06
2.18239e-06
2.66176e-06
3.89867e-06
6.94246e-06
6.88413e-06
1.91154e-06
1.31657e-07
1.18743e-09
1.13383e-06
2.01514e-06
2.61692e-06
2.24445e-06
2.22398e-06
2.47182e-06
2.95498e-06
3.66675e-06
4.59953e-06
5.73922e-06
7.09216e-06
8.71913e-06
1.06853e-05
1.27701e-05
1.34121e-05
1.41426e-05
1.49747e-05
1.53132e-05
1.3843e-05
1.24236e-05
1.12135e-05
1.00529e-05
8.70961e-06
7.04985e-06
5.22161e-06
3.6341e-06
2.60247e-06
2.17642e-06
2.34919e-06
3.30134e-06
6.05316e-06
6.97023e-06
1.92418e-06
1.37116e-07
1.22267e-09
1.21006e-06
2.16059e-06
2.38208e-06
2.23041e-06
2.29589e-06
2.53664e-06
2.91105e-06
3.37672e-06
3.89256e-06
4.43874e-06
5.03462e-06
5.73742e-06
6.6141e-06
7.65978e-06
8.65539e-06
9.12354e-06
8.77274e-06
7.96919e-06
7.30195e-06
7.00774e-06
7.02433e-06
7.14883e-06
7.10672e-06
6.63145e-06
5.62339e-06
4.32257e-06
3.1604e-06
2.43668e-06
2.28858e-06
2.90391e-06
5.21482e-06
7.15228e-06
1.93159e-06
1.42184e-07
1.16017e-09
1.1593e-06
2.07493e-06
2.09597e-06
2.08833e-06
2.17206e-06
2.33288e-06
2.5358e-06
2.74046e-06
2.91378e-06
3.04663e-06
3.16244e-06
3.3048e-06
3.5068e-06
3.75136e-06
3.92584e-06
3.80285e-06
3.26133e-06
2.59258e-06
2.21149e-06
2.28005e-06
2.77624e-06
3.58796e-06
4.50063e-06
5.18804e-06
5.31402e-06
4.77452e-06
3.82682e-06
2.95192e-06
2.53303e-06
2.8572e-06
4.80508e-06
7.60267e-06
1.97504e-06
1.4963e-07
1.09819e-09
1.05987e-06
1.60483e-06
1.79727e-06
1.9056e-06
2.0061e-06
2.1025e-06
2.17708e-06
2.22249e-06
2.2669e-06
2.375e-06
2.61986e-06
3.04919e-06
3.66344e-06
4.38131e-06
4.97509e-06
5.02899e-06
4.16911e-06
2.61763e-06
1.18722e-06
4.07146e-07
3.3704e-07
8.72396e-07
1.87719e-06
3.12448e-06
4.21669e-06
4.69118e-06
4.3523e-06
3.57767e-06
2.98406e-06
3.0693e-06
4.75572e-06
8.10262e-06
2.02457e-06
1.58659e-07
1.06946e-09
8.11837e-07
1.27367e-06
1.55488e-06
1.73827e-06
1.8595e-06
1.94213e-06
2.02787e-06
2.19214e-06
2.53041e-06
3.13764e-06
4.105e-06
5.5142e-06
7.38797e-06
9.55484e-06
1.14867e-05
1.23748e-05
1.15171e-05
8.75134e-06
5.11156e-06
2.21924e-06
6.27252e-07
1.53356e-07
5.46844e-07
1.5747e-06
2.95796e-06
4.1666e-06
4.57809e-06
4.18597e-06
3.62457e-06
3.62422e-06
5.31392e-06
8.58386e-06
2.0818e-06
1.68714e-07
1.05249e-09
6.91688e-07
1.12482e-06
1.43025e-06
1.64697e-06
1.81571e-06
2.01281e-06
2.33899e-06
2.8971e-06
3.79585e-06
5.17925e-06
7.24746e-06
1.02003e-05
1.39847e-05
1.79234e-05
2.09028e-05
2.21397e-05
2.12327e-05
1.76839e-05
1.17728e-05
6.10495e-06
2.55253e-06
8.68387e-07
4.96837e-07
1.06901e-06
2.31272e-06
3.77143e-06
4.66164e-06
4.64487e-06
4.24946e-06
4.35545e-06
6.37948e-06
8.61721e-06
2.10106e-06
1.72682e-07
1.07191e-09
6.11872e-07
1.0415e-06
1.36197e-06
1.64208e-06
1.97452e-06
2.45695e-06
3.1846e-06
4.276e-06
5.91834e-06
8.41141e-06
1.21193e-05
1.7056e-05
2.22128e-05
2.61607e-05
2.84488e-05
2.92722e-05
2.86115e-05
2.56832e-05
1.9002e-05
1.03622e-05
4.44033e-06
1.62286e-06
6.70724e-07
9.15588e-07
2.0154e-06
3.55902e-06
4.75746e-06
5.10194e-06
4.99112e-06
5.40053e-06
8.07617e-06
8.07316e-06
2.08668e-06
1.68969e-07
1.31871e-09
6.37386e-07
1.15219e-06
1.59351e-06
2.05476e-06
2.64877e-06
3.48464e-06
4.70874e-06
6.54691e-06
9.30529e-06
1.31443e-05
1.75054e-05
2.12767e-05
2.41031e-05
2.62848e-05
2.79356e-05
2.89028e-05
2.8969e-05
2.77413e-05
2.38122e-05
1.54979e-05
7.08485e-06
2.59724e-06
8.46063e-07
6.41214e-07
1.4972e-06
3.05379e-06
4.58652e-06
5.38748e-06
5.7019e-06
6.59186e-06
9.92561e-06
7.59835e-06
2.08583e-06
1.62927e-07
1.88104e-09
9.55036e-07
1.60053e-06
2.12154e-06
2.72113e-06
3.5517e-06
4.78971e-06
6.69452e-06
9.4866e-06
1.28074e-05
1.56337e-05
1.76643e-05
1.93851e-05
2.11145e-05
2.2836e-05
2.43549e-05
2.53826e-05
2.55561e-05
2.44401e-05
2.13913e-05
1.57731e-05
8.86276e-06
3.78307e-06
1.28616e-06
5.11578e-07
9.29232e-07
2.26261e-06
4.00429e-06
5.3748e-06
6.27095e-06
7.73097e-06
1.13511e-05
7.2154e-06
2.08743e-06
1.5979e-07
2.66644e-09
1.44177e-06
2.05064e-06
2.51941e-06
3.14979e-06
4.10708e-06
5.59555e-06
7.74921e-06
1.02532e-05
1.25589e-05
1.46419e-05
1.67135e-05
1.88249e-05
2.0894e-05
2.27947e-05
2.43934e-05
2.55277e-05
2.59579e-05
2.52474e-05
2.25762e-05
1.72557e-05
1.05728e-05
5.13114e-06
1.9382e-06
5.51061e-07
4.31226e-07
1.34443e-06
3.02068e-06
4.87447e-06
6.45893e-06
8.50326e-06
1.21735e-05
7.21221e-06
2.13371e-06
1.60556e-07
3.21879e-09
1.5471e-06
2.15388e-06
2.57045e-06
3.12773e-06
3.986e-06
5.27852e-06
7.04707e-06
9.22104e-06
1.17291e-05
1.44939e-05
1.73736e-05
2.01941e-05
2.28025e-05
2.50874e-05
2.69601e-05
2.83187e-05
2.90309e-05
2.8873e-05
2.73155e-05
2.32703e-05
1.61487e-05
8.61763e-06
3.64085e-06
1.1653e-06
2.93729e-07
5.55641e-07
1.75076e-06
3.63481e-06
5.8245e-06
8.54573e-06
1.23796e-05
7.23813e-06
2.17791e-06
1.64645e-07
3.77674e-09
1.2447e-06
1.9139e-06
2.38523e-06
2.96136e-06
3.83269e-06
5.12416e-06
6.87932e-06
9.08401e-06
1.16946e-05
1.46193e-05
1.77135e-05
2.08128e-05
2.37664e-05
2.64469e-05
2.87467e-05
3.05689e-05
3.1829e-05
3.23984e-05
3.19613e-05
2.98039e-05
2.45921e-05
1.5934e-05
7.6476e-06
2.83855e-06
7.63554e-07
2.60431e-07
8.35563e-07
2.28385e-06
4.50082e-06
7.67776e-06
1.20796e-05
7.3696e-06
2.23273e-06
1.73551e-07
4.26699e-09
9.75236e-07
1.68287e-06
2.32904e-06
3.11869e-06
4.19287e-06
5.60207e-06
7.33573e-06
9.37245e-06
1.17066e-05
1.43412e-05
1.72518e-05
2.03455e-05
2.34557e-05
2.63767e-05
2.89067e-05
3.08756e-05
3.21715e-05
3.27155e-05
3.23552e-05
3.07582e-05
2.72521e-05
2.10402e-05
1.28091e-05
5.85236e-06
2.00703e-06
4.78616e-07
3.59558e-07
1.23787e-06
3.04031e-06
6.14744e-06
1.12084e-05
7.44244e-06
2.26816e-06
1.84801e-07
4.48503e-09
8.80335e-07
1.62991e-06
2.41983e-06
3.35124e-06
4.48921e-06
5.85559e-06
7.46435e-06
9.35463e-06
1.15872e-05
1.41964e-05
1.71273e-05
2.02151e-05
2.32356e-05
2.59856e-05
2.83201e-05
3.01474e-05
3.1418e-05
3.20793e-05
3.1977e-05
3.07937e-05
2.79971e-05
2.30291e-05
1.60907e-05
8.94468e-06
3.82915e-06
1.22454e-06
3.76095e-07
6.85639e-07
1.94679e-06
4.54254e-06
9.8308e-06
7.48719e-06
2.28307e-06
1.95441e-07
4.43963e-09
8.08841e-07
1.53745e-06
2.34044e-06
3.28034e-06
4.41346e-06
5.78038e-06
7.41727e-06
9.36653e-06
1.16657e-05
1.43106e-05
1.72163e-05
2.02156e-05
2.31097e-05
2.57263e-05
2.79431e-05
2.96927e-05
3.09574e-05
3.17234e-05
3.19007e-05
3.1266e-05
2.93953e-05
2.56459e-05
1.96351e-05
1.23655e-05
6.14321e-06
2.37288e-06
7.35582e-07
4.9879e-07
1.2794e-06
3.30922e-06
8.26114e-06
7.51394e-06
2.28149e-06
2.04076e-07
4.33014e-09
7.31516e-07
1.43597e-06
2.28328e-06
3.32758e-06
4.60034e-06
6.10602e-06
7.84222e-06
9.8219e-06
1.2076e-05
1.46258e-05
1.74407e-05
2.04109e-05
2.33608e-05
2.60899e-05
2.84204e-05
3.02448e-05
3.15359e-05
3.22919e-05
3.24974e-05
3.20447e-05
3.06427e-05
2.77817e-05
2.29511e-05
1.62291e-05
9.25328e-06
4.16029e-06
1.50776e-06
6.34108e-07
9.29041e-07
2.4036e-06
6.61987e-06
7.67234e-06
2.28674e-06
2.13589e-07
4.55649e-09
7.73868e-07
1.56013e-06
2.54544e-06
3.74981e-06
5.15471e-06
6.72174e-06
8.42511e-06
1.02799e-05
1.23439e-05
1.46829e-05
1.73169e-05
2.01738e-05
2.30789e-05
2.57914e-05
2.80766e-05
2.97811e-05
3.08658e-05
3.1359e-05
3.13256e-05
3.07686e-05
2.95172e-05
2.71883e-05
2.33533e-05
1.79529e-05
1.17043e-05
6.17043e-06
2.63801e-06
1.08845e-06
8.86651e-07
1.85713e-06
5.20865e-06
7.97311e-06
2.29635e-06
2.24561e-07
5.03294e-09
8.88184e-07
1.76725e-06
2.82398e-06
4.05021e-06
5.39951e-06
6.82124e-06
8.3043e-06
9.90406e-06
1.17215e-05
1.38409e-05
1.627e-05
1.89129e-05
2.15835e-05
2.40605e-05
2.61405e-05
2.7691e-05
2.86739e-05
2.91095e-05
2.90646e-05
2.85657e-05
2.74929e-05
2.55428e-05
2.23733e-05
1.79163e-05
1.26479e-05
7.55182e-06
3.74898e-06
1.71314e-06
1.08359e-06
1.64352e-06
4.30652e-06
8.38668e-06
2.31442e-06
2.35584e-07
5.52802e-09
9.25759e-07
1.80831e-06
2.81768e-06
3.93954e-06
5.13909e-06
6.3955e-06
7.73681e-06
9.24669e-06
1.10252e-05
1.31262e-05
1.55159e-05
1.80731e-05
2.0617e-05
2.29597e-05
2.49273e-05
2.64012e-05
2.73404e-05
2.77598e-05
2.77341e-05
2.73008e-05
2.63457e-05
2.45677e-05
2.16458e-05
1.75635e-05
1.28002e-05
8.17839e-06
4.53088e-06
2.31e-06
1.404e-06
1.67708e-06
3.92436e-06
8.69867e-06
2.31843e-06
2.43284e-07
6.07712e-09
8.84341e-07
1.72667e-06
2.68265e-06
3.74224e-06
4.8886e-06
6.12513e-06
7.50059e-06
9.10409e-06
1.10199e-05
1.3267e-05
1.57675e-05
1.83669e-05
2.08793e-05
2.31347e-05
2.49788e-05
2.62952e-05
2.70316e-05
2.7204e-05
2.69311e-05
2.63114e-05
2.52755e-05
2.35323e-05
2.07524e-05
1.69153e-05
1.24958e-05
8.25966e-06
4.90082e-06
2.73971e-06
1.74661e-06
1.89605e-06
4.05927e-06
8.74087e-06
2.29825e-06
2.44954e-07
6.68738e-09
8.21862e-07
1.62794e-06
2.56519e-06
3.61627e-06
4.76784e-06
6.04301e-06
7.51281e-06
9.26812e-06
1.13634e-05
1.37658e-05
1.6349e-05
1.89414e-05
2.13746e-05
2.35114e-05
2.52249e-05
2.63988e-05
2.69501e-05
2.68614e-05
2.62316e-05
2.52116e-05
2.38123e-05
2.1826e-05
1.90021e-05
1.5379e-05
1.14158e-05
7.75378e-06
4.88858e-06
2.98771e-06
2.07595e-06
2.26341e-06
4.67044e-06
8.26528e-06
2.23751e-06
2.38564e-07
7.16571e-09
7.64379e-07
1.54545e-06
2.4852e-06
3.55651e-06
4.7535e-06
6.11524e-06
7.71148e-06
9.60545e-06
1.18115e-05
1.42711e-05
1.68659e-05
1.94546e-05
2.18963e-05
2.40621e-05
2.58187e-05
2.70269e-05
2.75681e-05
2.73838e-05
2.65218e-05
2.51208e-05
2.32438e-05
2.07918e-05
1.76524e-05
1.39865e-05
1.0288e-05
7.09967e-06
4.70854e-06
3.13684e-06
2.41214e-06
2.77952e-06
5.71925e-06
7.53924e-06
2.16801e-06
2.28711e-07
7.64297e-09
7.52624e-07
1.54806e-06
2.52716e-06
3.65665e-06
4.93106e-06
6.38235e-06
8.05717e-06
9.99276e-06
1.21941e-05
1.46147e-05
1.71587e-05
1.97032e-05
2.21162e-05
2.42676e-05
2.60163e-05
2.72095e-05
2.77135e-05
2.746e-05
2.64788e-05
2.48821e-05
2.27318e-05
1.99858e-05
1.66377e-05
1.29478e-05
9.44108e-06
6.60255e-06
4.56941e-06
3.28708e-06
2.7757e-06
3.39955e-06
6.96829e-06
6.84913e-06
2.10103e-06
2.19171e-07
8.02884e-09
7.55776e-07
1.56663e-06
2.57212e-06
3.73864e-06
5.06107e-06
6.56141e-06
8.26963e-06
1.02116e-05
1.23862e-05
1.47383e-05
1.71626e-05
1.95359e-05
2.17375e-05
2.36571e-05
2.51799e-05
2.61829e-05
2.65565e-05
2.6236e-05
2.52341e-05
2.36326e-05
2.14857e-05
1.87841e-05
1.55636e-05
1.20881e-05
8.84835e-06
6.28985e-06
4.50795e-06
3.45526e-06
3.16043e-06
4.08158e-06
8.17392e-06
6.44768e-06
2.06711e-06
2.1346e-07
8.28842e-09
7.4481e-07
1.56602e-06
2.61072e-06
3.8432e-06
5.24666e-06
6.82977e-06
8.61469e-06
1.0619e-05
1.2827e-05
1.51662e-05
1.75192e-05
1.976e-05
2.17741e-05
2.34701e-05
2.47657e-05
2.55843e-05
2.58544e-05
2.55043e-05
2.4499e-05
2.28595e-05
2.06339e-05
1.78857e-05
1.47388e-05
1.14692e-05
8.49185e-06
6.15428e-06
4.53347e-06
3.62421e-06
3.49295e-06
4.67041e-06
9.01762e-06
6.19591e-06
2.04397e-06
2.11167e-07
8.74114e-09
7.78704e-07
1.66693e-06
2.80573e-06
4.13417e-06
5.62214e-06
7.27548e-06
9.10539e-06
1.11147e-05
1.32903e-05
1.55794e-05
1.78752e-05
2.00371e-05
2.19242e-05
2.34359e-05
2.45158e-05
2.515e-05
2.53379e-05
2.50391e-05
2.41835e-05
2.26916e-05
2.05169e-05
1.77151e-05
1.4495e-05
1.12268e-05
8.34519e-06
6.12544e-06
4.61147e-06
3.80595e-06
3.80486e-06
5.19486e-06
9.64283e-06
6.12137e-06
2.04455e-06
2.11791e-07
9.23624e-09
8.47399e-07
1.81133e-06
3.00556e-06
4.35255e-06
5.82065e-06
7.40686e-06
9.1276e-06
1.10209e-05
1.3105e-05
1.53228e-05
1.7535e-05
1.95708e-05
2.12819e-05
2.25801e-05
2.34359e-05
2.38714e-05
2.39333e-05
2.36374e-05
2.29445e-05
2.17379e-05
1.98816e-05
1.73389e-05
1.42851e-05
1.11197e-05
8.319e-06
6.15288e-06
4.68555e-06
3.93646e-06
4.02498e-06
5.57983e-06
1.00657e-05
6.03578e-06
2.03843e-06
2.11429e-07
9.25515e-09
8.8191e-07
1.85959e-06
3.02305e-06
4.29857e-06
5.66478e-06
7.1453e-06
8.79944e-06
1.06786e-05
1.27626e-05
1.4938e-05
1.70442e-05
1.8939e-05
2.05304e-05
2.1772e-05
2.26396e-05
2.31207e-05
2.3215e-05
2.29248e-05
2.22328e-05
2.10634e-05
1.93032e-05
1.68986e-05
1.39907e-05
1.0959e-05
8.27402e-06
6.18264e-06
4.76906e-06
4.07253e-06
4.23677e-06
5.93158e-06
1.04176e-05
5.95679e-06
2.02968e-06
2.08959e-07
9.0479e-09
8.77734e-07
1.82634e-06
2.92398e-06
4.10988e-06
5.39551e-06
6.84751e-06
8.52853e-06
1.04291e-05
1.24444e-05
1.44246e-05
1.62598e-05
1.79146e-05
1.94046e-05
2.07352e-05
2.18603e-05
2.26805e-05
2.30892e-05
2.30219e-05
2.24476e-05
2.13205e-05
1.95666e-05
1.71482e-05
1.4203e-05
1.11179e-05
8.38609e-06
6.25406e-06
4.82326e-06
4.13959e-06
4.35455e-06
6.15926e-06
1.06704e-05
5.92168e-06
2.02626e-06
2.0538e-07
8.59586e-09
8.27384e-07
1.71448e-06
2.73983e-06
3.8807e-06
5.21354e-06
6.83946e-06
8.75899e-06
1.07955e-05
1.26843e-05
1.42607e-05
1.55491e-05
1.67072e-05
1.79136e-05
1.9247e-05
2.06305e-05
2.18596e-05
2.26972e-05
2.29812e-05
2.26495e-05
2.16819e-05
2.00442e-05
1.77089e-05
1.47889e-05
1.16525e-05
8.8104e-06
6.53361e-06
4.98311e-06
4.2286e-06
4.42599e-06
6.26978e-06
1.07684e-05
5.88118e-06
2.01812e-06
2.01026e-07
8.56721e-09
8.01012e-07
1.67547e-06
2.73023e-06
4.0084e-06
5.65219e-06
7.76563e-06
1.01728e-05
1.23369e-05
1.38205e-05
1.46562e-05
1.51654e-05
1.57296e-05
1.66522e-05
1.80564e-05
1.98343e-05
2.16743e-05
2.31828e-05
2.4025e-05
2.40421e-05
2.32339e-05
2.16553e-05
1.933e-05
1.63332e-05
1.29802e-05
9.80065e-06
7.17625e-06
5.34315e-06
4.38416e-06
4.43711e-06
6.1664e-06
1.07013e-05
5.98853e-06
2.0326e-06
1.99583e-07
9.51163e-09
8.58205e-07
1.82438e-06
3.06021e-06
4.68797e-06
6.91964e-06
9.76778e-06
1.25561e-05
1.42625e-05
1.47419e-05
1.45845e-05
1.43813e-05
1.45515e-05
1.53551e-05
1.6886e-05
1.90388e-05
2.14883e-05
2.37715e-05
2.54381e-05
2.61502e-05
2.57711e-05
2.43619e-05
2.2052e-05
1.8973e-05
1.53745e-05
1.17103e-05
8.50534e-06
6.16262e-06
4.82304e-06
4.58898e-06
6.05294e-06
1.05217e-05
6.1543e-06
2.05083e-06
1.99942e-07
1.19369e-08
1.03505e-06
2.20486e-06
3.77727e-06
6.00861e-06
9.12757e-06
1.25634e-05
1.47751e-05
1.52409e-05
1.47342e-05
1.40726e-05
1.37637e-05
1.40775e-05
1.51396e-05
1.69551e-05
1.93725e-05
2.2068e-05
2.46286e-05
2.66895e-05
2.79697e-05
2.82506e-05
2.74259e-05
2.54992e-05
2.25521e-05
1.87811e-05
1.4596e-05
1.06538e-05
7.58523e-06
5.68129e-06
5.03823e-06
6.15084e-06
1.04954e-05
6.57065e-06
2.10762e-06
2.02848e-07
1.57255e-08
1.25466e-06
2.68582e-06
4.72752e-06
7.74872e-06
1.15503e-05
1.44645e-05
1.54074e-05
1.5064e-05
1.43107e-05
1.37244e-05
1.36438e-05
1.42438e-05
1.5593e-05
1.76688e-05
2.03057e-05
2.31725e-05
2.58527e-05
2.80311e-05
2.95479e-05
3.02634e-05
3.00298e-05
2.87161e-05
2.62388e-05
2.26295e-05
1.81903e-05
1.36089e-05
9.72768e-06
7.10008e-06
5.93451e-06
6.67989e-06
1.08714e-05
7.13401e-06
2.18522e-06
2.04837e-07
1.85165e-08
1.41474e-06
3.05222e-06
5.41494e-06
8.68901e-06
1.22052e-05
1.45721e-05
1.5385e-05
1.51493e-05
1.44653e-05
1.38293e-05
1.35757e-05
1.38819e-05
1.48396e-05
1.65148e-05
1.89041e-05
2.18232e-05
2.48737e-05
2.76271e-05
2.98248e-05
3.13078e-05
3.19096e-05
3.13939e-05
2.95355e-05
2.6255e-05
2.18015e-05
1.68564e-05
1.23525e-05
9.05336e-06
7.36796e-06
7.84651e-06
1.20867e-05
7.94535e-06
2.31107e-06
2.05804e-07
1.79523e-08
1.42695e-06
2.98154e-06
5.04678e-06
7.78802e-06
1.09966e-05
1.36449e-05
1.47998e-05
1.45625e-05
1.35833e-05
1.25564e-05
1.19565e-05
1.19793e-05
1.26626e-05
1.40445e-05
1.62223e-05
1.92096e-05
2.2738e-05
2.62788e-05
2.93548e-05
3.17112e-05
3.3167e-05
3.34773e-05
3.23165e-05
2.94915e-05
2.51895e-05
2.0086e-05
1.51729e-05
1.13663e-05
9.28076e-06
9.65519e-06
1.41267e-05
8.83863e-06
2.45785e-06
2.05873e-07
1.55851e-08
1.25179e-06
2.53162e-06
4.26445e-06
6.8685e-06
1.04733e-05
1.37102e-05
1.47786e-05
1.39457e-05
1.2411e-05
1.10473e-05
1.02617e-05
1.02079e-05
1.09195e-05
1.23609e-05
1.45487e-05
1.75835e-05
2.14186e-05
2.56286e-05
2.95587e-05
3.26691e-05
3.46569e-05
3.53377e-05
3.44937e-05
3.19689e-05
2.7911e-05
2.29138e-05
1.79154e-05
1.3893e-05
1.16539e-05
1.21813e-05
1.6886e-05
9.70519e-06
2.62211e-06
2.07489e-07
1.5605e-08
1.13349e-06
2.38195e-06