/*--------------------------------*- C++ -*----------------------------------*\
| =========                 |                                                 |
| \\      /  F ield         | OpenFOAM: The Open Source CFD Toolbox           |
|  \\    /   O peration     | Version:  v2006                                 |
|   \\  /    A nd           | Website:  www.openfoam.com                      |
|    \\/     M anipulation  |                                                 |
\*---------------------------------------------------------------------------*/
FoamFile
{
    version     2.0;
    format      ascii;
    class       surfaceScalarField;
    location    "27";
    object      phi;
}
// * * * * * * * * * * * * * * * * * * * * * * * * * * * * * * * * * * * * * //

dimensions      [1 0 -1 0 0 0 0];
oriented        oriented;


internalField   nonuniform List<scalar> 
228225
(
-1.69581e-05
-5.38078e-07
1.10507e-07
-1.54732e-05
-1.63246e-06
1.47729e-07
-1.35919e-05
-2.00028e-06
1.18986e-07
-1.14776e-05
-2.0993e-06
-1.49463e-08
-9.36748e-06
-2.0143e-06
-9.58351e-08
-7.34014e-06
-1.86466e-06
-1.62673e-07
-5.42233e-06
-1.70701e-06
-2.108e-07
-3.62313e-06
-1.55552e-06
-2.43686e-07
-1.94773e-06
-1.41204e-06
-2.63365e-07
-3.99441e-07
-1.2778e-06
-2.70495e-07
1.02278e-06
-1.15294e-06
-2.6928e-07
2.32593e-06
-1.03748e-06
-2.65673e-07
3.51925e-06
-9.31015e-07
-2.62302e-07
4.61189e-06
-8.32943e-07
-2.59709e-07
5.61212e-06
-7.42547e-07
-2.57681e-07
6.52696e-06
-6.58912e-07
-2.5593e-07
7.36185e-06
-5.80869e-07
-2.54018e-07
8.1202e-06
-5.07025e-07
-2.51329e-07
8.80339e-06
-4.35883e-07
-2.47307e-07
9.41058e-06
-3.65755e-07
-2.41441e-07
9.93816e-06
-2.94525e-07
-2.33062e-07
1.03794e-05
-2.19863e-07
-2.21335e-07
1.07238e-05
-1.39241e-07
-2.05254e-07
1.0959e-05
-5.12904e-08
-1.83829e-07
1.10703e-05
4.4732e-08
-1.561e-07
1.10349e-05
1.56455e-07
-1.21058e-07
1.08303e-05
2.82485e-07
-7.78979e-08
1.04316e-05
4.25496e-07
-2.68059e-08
9.79798e-06
5.88002e-07
4.56223e-08
8.88532e-06
7.74214e-07
1.38433e-07
7.6426e-06
9.94604e-07
2.48126e-07
5.99668e-06
1.27153e-06
3.74456e-07
3.90528e-06
1.60634e-06
4.85194e-07
1.59046e-06
1.82951e-06
4.85363e-07
1.32769e-06
2.62496e-07
-1.9629e-06
1.42644e-06
-2.02717e-09
-4.41122e-06
1.23003e-06
-4.1408e-07
-6.35951e-06
8.07696e-07
-8.5968e-07
-7.80132e-06
4.75516e-07
-1.13284e-06
-8.75718e-06
2.14808e-07
-1.27315e-06
-9.26241e-06
-8.83086e-09
-1.35053e-06
-9.44233e-06
-1.29025e-07
-1.398e-06
-9.3531e-06
-2.17967e-07
-1.42671e-06
-9.06289e-06
-2.64022e-07
-1.43816e-06
-8.63417e-06
-2.72704e-07
-1.43376e-06
-8.10782e-06
-2.61815e-07
-1.41743e-06
-7.50482e-06
-2.44337e-07
-1.39608e-06
-6.8364e-06
-2.2358e-07
-1.37579e-06
-6.11035e-06
-2.00691e-07
-1.35823e-06
-5.33389e-06
-1.75973e-07
-1.34298e-06
-4.51413e-06
-1.4937e-07
-1.32923e-06
-3.65829e-06
-1.20542e-07
-1.3161e-06
-2.77386e-06
-8.89625e-08
-1.30242e-06
-1.86837e-06
-5.42368e-08
-1.28706e-06
-9.48717e-07
-1.63449e-08
-1.26899e-06
-3.97454e-08
4.36154e-08
-1.24704e-06
8.44601e-07
1.15532e-07
-1.21967e-06
1.69494e-06
1.95746e-07
-1.18525e-06
2.49605e-06
2.89861e-07
-1.14219e-06
3.2272e-06
4.02349e-07
-1.08869e-06
3.86805e-06
5.3818e-07
-1.02251e-06
4.38749e-06
7.03813e-07
-9.40689e-07
4.74335e-06
9.08879e-07
-8.39174e-07
4.88002e-06
1.1635e-06
-7.12093e-07
4.72968e-06
1.47721e-06
-5.52572e-07
4.21568e-06
1.86176e-06
-3.53047e-07
3.28982e-06
2.3131e-06
-1.15584e-07
2.02784e-06
2.741e-06
1.27447e-07
7.33518e-07
2.86507e-06
2.58744e-07
1.88449e-06
1.76383e-07
-4.83496e-07
1.83739e-06
7.21369e-08
-2.01853e-06
2.83602e-06
-7.11751e-08
-3.83835e-06
2.83128e-06
-2.03779e-07
-5.53595e-06
2.45337e-06
-2.80199e-07
-6.9199e-06
1.91787e-06
-3.19078e-07
-7.93357e-06
1.35601e-06
-3.5116e-07
-8.5302e-06
8.55932e-07
-3.88311e-07
-8.79966e-06
4.79817e-07
-4.28322e-07
-8.83264e-06
2.32476e-07
-4.63504e-07
-8.70068e-06
8.52172e-08
-4.89883e-07
-8.45337e-06
1.07603e-09
-5.1019e-07
-8.09062e-06
-7.96307e-08
-5.2744e-07
-7.64693e-06
-1.24365e-07
-5.42886e-07
-7.14273e-06
-1.48063e-07
-5.56799e-07
-6.59201e-06
-1.57404e-07
-5.69248e-07
-6.00533e-06
-1.55592e-07
-5.8042e-07
-5.39115e-06
-1.44159e-07
-5.90524e-07
-4.75689e-06
-1.23539e-07
-5.99633e-07
-4.11007e-06
-9.31832e-08
-6.07813e-07
-3.46016e-06
-5.11532e-08
-6.15041e-07
-2.8026e-06
7.24372e-09
-6.21112e-07
-2.1222e-06
6.06454e-08
-6.25435e-07
-1.43649e-06
1.37512e-07
-6.27401e-07
-7.58692e-07
2.38255e-07
-6.26106e-07
-1.03085e-07
3.67124e-07
-6.20293e-07
5.13453e-07
5.29991e-07
-6.08252e-07
1.06975e-06
7.35106e-07
-5.87488e-07
1.53309e-06
9.99653e-07
-5.53995e-07
1.85502e-06
1.34359e-06
-5.01897e-07
1.97945e-06
1.77655e-06
-4.23632e-07
1.85084e-06
2.30064e-06
-3.10136e-07
1.45133e-06
2.87057e-06
-1.57805e-07
8.77805e-07
3.3142e-06
4.36816e-10
2.90882e-07
3.33035e-06
1.21648e-07
2.06948e-06
1.05607e-07
-1.47584e-07
1.86982e-06
1.14563e-07
-4.80435e-07
3.0698e-06
9.90204e-08
-8.1287e-07
3.1486e-06
1.49036e-08
-1.17572e-06
2.88355e-06
-6.74874e-08
-1.56743e-06
2.44974e-06
-1.40219e-07
-1.94702e-06
1.93437e-06
-1.98833e-07
-2.26854e-06
1.42578e-06
-2.48416e-07
-2.49385e-06
9.95584e-07
-2.90567e-07
-2.60167e-06
6.64564e-07
-3.24381e-07
-2.59241e-06
4.25382e-07
-3.49523e-07
-2.48394e-06
2.58806e-07
-3.66296e-07
-2.33093e-06
1.43637e-07
-3.76377e-07
-2.13712e-06
6.3989e-08
-3.82259e-07
-1.90455e-06
4.76498e-09
-3.85483e-07
-1.65374e-06
-2.13941e-08
-3.86904e-07
-1.385e-06
-3.74427e-08
-3.86967e-07
-1.09601e-06
-4.72797e-08
-3.85936e-07
-7.84646e-07
-5.09646e-08
-3.83994e-07
-4.48936e-07
-4.76897e-08
-3.8125e-07
-8.66395e-08
-3.574e-08
-3.77747e-07
3.07473e-07
-1.35024e-08
-3.73394e-07
6.98203e-07
3.79292e-08
-3.68029e-07
1.08246e-06
1.14945e-07
-3.61693e-07
1.4544e-06
2.20676e-07
-3.54353e-07
1.80198e-06
3.65033e-07
-3.45477e-07
2.10695e-06
5.59056e-07
-3.34003e-07
2.34037e-06
8.19789e-07
-3.18076e-07
2.46671e-06
1.16806e-06
-2.94709e-07
2.45644e-06
1.61403e-06
-2.60127e-07
2.28533e-06
2.15711e-06
-2.09425e-07
1.94272e-06
2.77946e-06
-1.36181e-07
1.45425e-06
3.39849e-06
-3.94279e-08
8.81989e-07
3.81655e-06
6.99314e-08
3.1521e-07
3.76045e-06
1.36634e-07
2.28143e-06
1.02954e-07
2.7595e-07
1.50972e-06
8.36241e-08
4.50689e-07
2.78951e-06
1.05152e-07
4.65442e-07
3.05459e-06
7.88742e-08
3.66375e-07
2.94842e-06
3.38679e-08
1.58147e-07
2.66707e-06
-9.37728e-09
-1.44711e-07
2.27187e-06
-3.49086e-08
-4.94461e-07
1.82572e-06
-5.04463e-08
-8.24743e-07
1.38345e-06
-5.78344e-08
-1.08678e-06
9.85828e-07
-5.94556e-08
-1.26396e-06
6.58589e-07
-5.62405e-08
-1.36542e-06
4.08912e-07
-4.88404e-08
-1.41086e-06
2.28423e-07
-3.95396e-08
-1.41906e-06
1.02999e-07
-3.10062e-08
-1.41024e-06
2.04161e-08
-2.46526e-08
-1.35789e-06
-5.28232e-08
-2.10942e-08
-1.26747e-06
-1.07573e-07
-2.04625e-08
-1.14842e-06
-1.43806e-07
-2.26813e-08
-1.0061e-06
-1.65887e-07
-2.75437e-08
-8.44407e-07
-1.74712e-07
-3.48028e-08
-6.66897e-07
-1.6918e-07
-4.41881e-08
-4.78666e-07
-1.46448e-07
-5.53875e-08
-2.71316e-07
-1.01497e-07
-6.80088e-08
-5.17778e-08
-2.32522e-08
-8.14096e-08
1.91127e-07
7.23273e-08
-9.4612e-08
4.46588e-07
2.16029e-07
-1.06502e-07
6.92351e-07
4.28583e-07
-1.1533e-07
8.99737e-07
7.32578e-07
-1.20217e-07
1.04064e-06
1.14705e-06
-1.19948e-07
1.08987e-06
1.67596e-06
-1.11223e-07
1.02511e-06
2.31134e-06
-8.95614e-08
8.43817e-07
3.01162e-06
-5.09789e-08
5.80552e-07
3.65883e-06
2.81237e-09
2.96321e-07
4.03209e-06
6.86013e-08
6.87793e-08
3.88426e-06
1.03622e-07
2.27611e-06
7.37648e-08
6.2323e-08
1.36285e-06
8.39856e-08
1.12079e-07
2.60537e-06
1.33927e-07
1.03931e-07
2.92538e-06
1.37051e-07
5.58365e-08
2.87953e-06
1.16641e-07
-2.4962e-08
2.65857e-06
8.89463e-08
-1.30493e-07
2.30968e-06
6.74317e-08
-2.41422e-07
1.87906e-06
5.73541e-08
-3.38868e-07
1.42212e-06
5.85856e-08
-4.05599e-07
9.83192e-07
6.91938e-08
-4.24938e-07
5.91368e-07
8.63881e-08
-3.85237e-07
2.63204e-07
1.05832e-07
-2.75962e-07
-5.31484e-09
1.24285e-07
-1.22775e-07
-1.91095e-07
1.4073e-07
8.00378e-08
-3.37136e-07
1.54562e-07
3.08413e-07
-4.46905e-07
1.65525e-07
5.52444e-07
-5.25896e-07
1.74108e-07
8.0519e-07
-5.7771e-07
1.8097e-07
1.05665e-06
-6.043e-07
1.86767e-07
1.29612e-06
-6.06297e-07
1.91924e-07
1.51354e-06
-5.83282e-07
1.96496e-07
1.70068e-06
-5.3386e-07
2.00087e-07
1.85264e-06
-4.55447e-07
2.01821e-07
1.97254e-06
-3.4377e-07
2.00445e-07
2.04227e-06
-1.9235e-07
1.94797e-07
2.06701e-06
6.96476e-09
1.84182e-07
2.03239e-06
2.95163e-07
1.67918e-07
1.95341e-06
6.66208e-07
1.45236e-07
1.83874e-06
1.14326e-06
1.18358e-07
1.68302e-06
1.73823e-06
9.3318e-08
1.47216e-06
2.44429e-06
7.77655e-08
1.19605e-06
3.20948e-06
7.80827e-08
8.65759e-07
3.89394e-06
9.50183e-08
5.13182e-07
4.26747e-06
1.17084e-07
1.85011e-07
4.09141e-06
1.20917e-07
2.38587e-06
7.49837e-08
5.09836e-08
1.22976e-06
8.15693e-08
7.20069e-08
2.43619e-06
1.47773e-07
2.11235e-08
2.80504e-06
1.7092e-07
-6.84554e-08
2.79844e-06
1.70399e-07
-1.72714e-07
2.60144e-06
1.61172e-07
-2.85168e-07
2.26407e-06
1.57908e-07
-4.04101e-07
1.83046e-06
1.67429e-07
-5.27708e-07
1.35796e-06
1.87684e-07
-6.50965e-07
8.93657e-07
2.12707e-07
-7.6385e-07
4.68436e-07
2.3572e-07
-8.53203e-07
1.00807e-07
2.51641e-07
-8.97583e-07
-2.19218e-07
2.5817e-07
-8.59896e-07
-4.84967e-07
2.56076e-07
-7.46561e-07
-6.98577e-07
2.48007e-07
-5.64562e-07
-8.65737e-07
2.36743e-07
-3.24668e-07
-9.90798e-07
2.24925e-07
-3.93908e-08
-1.07771e-06
2.14643e-07
2.77205e-07
-1.12839e-06
2.07421e-07
6.10034e-07
-1.14349e-06
2.04292e-07
9.43282e-07
-1.12249e-06
2.05884e-07
1.26048e-06
-1.06359e-06
2.12463e-07
1.54448e-06
-9.63405e-07
2.23877e-07
1.77751e-06
-8.16267e-07
2.39383e-07
1.94013e-06
-6.12491e-07
2.57425e-07
2.00985e-06
-3.38136e-07
2.75295e-07
1.992e-06
2.50462e-08
2.87905e-07
1.90879e-06
4.60957e-07
2.88432e-07
1.76312e-06
1.01633e-06
2.72618e-07
1.56369e-06
1.69496e-06
2.42759e-07
1.31647e-06
2.48367e-06
2.07939e-07
1.02643e-06
3.32016e-06
1.79482e-07
7.03216e-07
4.05385e-06
1.63456e-07
3.76007e-07
4.44075e-06
1.54117e-07
1.13044e-07
4.22175e-06
1.32812e-07
2.42595e-06
7.30042e-08
-6.18323e-08
1.20403e-06
8.71275e-08
-2.07477e-07
2.40871e-06
1.72703e-07
-4.15097e-07
2.79902e-06
2.13345e-07
-6.47125e-07
2.80199e-06
2.28297e-07
-8.78016e-07
2.59896e-06
2.3326e-07
-1.09099e-06
2.23479e-06
2.4217e-07
-1.27838e-06
1.75966e-06
2.58116e-07
-1.43469e-06
1.23921e-06
2.75006e-07
-1.55167e-06
7.25522e-07
2.85071e-07
-1.61651e-06
2.4961e-07
2.83636e-07
-1.61387e-06
-1.72243e-07
2.70392e-07
-1.54946e-06
-5.31791e-07
2.48163e-07
-1.41891e-06
-8.36704e-07
2.21187e-07
-1.22541e-06
-1.08566e-06
1.93595e-07
-9.80853e-07
-1.27874e-06
1.68467e-07
-6.97748e-07
-1.42126e-06
1.4737e-07
-3.86956e-07
-1.51947e-06
1.30986e-07
-5.84196e-08
-1.57676e-06
1.19845e-07
2.78597e-07
-1.59481e-06
1.14317e-07
6.15336e-07
-1.57394e-06
1.14718e-07
9.43264e-07
-1.5129e-06
1.21374e-07
1.25378e-06
-1.40858e-06
1.3463e-07
1.53759e-06
-1.25494e-06
1.54832e-07
1.78265e-06
-1.04013e-06
1.8254e-07
1.97453e-06
-7.48055e-07
2.17991e-07
2.10587e-06
-3.6495e-07
2.58625e-07
2.143e-06
1.26354e-07
2.97473e-07
2.08205e-06
7.52902e-07
3.24463e-07
1.926e-06
1.52103e-06
3.30203e-07
1.6785e-06
2.41891e-06
3.12645e-07
1.3471e-06
3.37194e-06
2.80153e-07
9.49942e-07
4.20673e-06
2.44927e-07
5.3123e-07
4.64911e-06
2.11048e-07
1.75489e-07
4.41321e-06
1.64951e-07
2.51978e-06
8.21743e-08
-4.45232e-08
1.16036e-06
8.77081e-08
-1.88922e-07
2.36749e-06
1.85259e-07
-4.13878e-07
2.78522e-06
2.3852e-07
-6.69309e-07
2.79317e-06
2.64091e-07
-9.19583e-07
2.57309e-06
2.76035e-07
-1.14345e-06
2.17244e-06
2.86133e-07
-1.33186e-06
1.65222e-06
2.95809e-07
-1.47801e-06
1.08632e-06
2.99011e-07
-1.57402e-06
5.31133e-07
2.90402e-07
-1.61673e-06
2.28803e-08
2.69465e-07
-1.59296e-06
-4.36016e-07
2.4004e-07
-1.50209e-06
-8.29581e-07
2.06961e-07
-1.35269e-06
-1.16024e-06
1.74179e-07
-1.15525e-06
-1.42768e-06
1.44592e-07
-9.20733e-07
-1.63288e-06
1.19627e-07
-6.58023e-07
-1.78342e-06
9.94596e-08
-3.748e-07
-1.88666e-06
8.39652e-08
-7.85465e-08
-1.9462e-06
7.31767e-08
2.23583e-07
-1.96413e-06
6.71659e-08
5.24764e-07
-1.94124e-06
6.60905e-08
8.18488e-07
-1.87689e-06
7.02269e-08
1.09861e-06
-1.76873e-06
7.99879e-08
1.35962e-06
-1.61195e-06
9.59452e-08
1.59573e-06
-1.39543e-06
1.19139e-07
1.79601e-06
-1.09991e-06
1.51502e-07
1.94237e-06
-7.05324e-07
1.93963e-07
2.01581e-06
-1.91141e-07
2.44035e-07
2.00711e-06
4.66463e-07
2.95209e-07
1.90062e-06
1.29184e-06
3.35933e-07
1.68769e-06
2.27881e-06
3.53525e-07
1.36845e-06
3.34895e-06
3.43022e-07
9.60194e-07
4.30539e-06
3.10635e-07
5.2133e-07
4.82459e-06
2.64515e-07
1.60395e-07
4.57708e-06
1.98126e-07
2.58928e-06
9.17381e-08
-6.27216e-08
1.13725e-06
8.53211e-08
-2.29727e-07
2.34521e-06
1.88989e-07
-4.72356e-07
2.77815e-06
2.49448e-07
-7.46966e-07
2.7878e-06
2.79781e-07
-1.01961e-06
2.55274e-06
2.92852e-07
-1.26673e-06
2.12076e-06
2.98723e-07
-1.47251e-06
1.55982e-06
2.98165e-07
-1.62449e-06
9.5087e-07
2.87436e-07
-1.71172e-06
3.53305e-07
2.65105e-07
-1.72409e-06
-1.98806e-07
2.34099e-07
-1.67288e-06
-6.86689e-07
1.99513e-07
-1.5586e-06
-1.10931e-06
1.65498e-07
-1.38859e-06
-1.46472e-06
1.34493e-07
-1.17203e-06
-1.75206e-06
1.07846e-07
-9.19168e-07
-1.9717e-06
8.59547e-08
-6.38772e-07
-2.13228e-06
6.84461e-08
-3.38096e-07
-2.24227e-06
5.49051e-08
-2.41366e-08
-2.30543e-06
4.52421e-08
2.96196e-07
-2.32397e-06
3.94661e-08
6.16093e-07
-2.29887e-06
3.76883e-08
9.28859e-07
-2.22983e-06
4.01279e-08
1.22796e-06
-2.115e-06
4.71157e-08
1.50698e-06
-1.95017e-06
5.91391e-08
1.7587e-06
-1.72436e-06
7.71563e-08
1.97285e-06
-1.41714e-06
1.0301e-07
2.13484e-06
-1.00582e-06
1.38431e-07
2.22795e-06
-4.67962e-07
1.83657e-07
2.23097e-06
2.26575e-07
2.36843e-07
2.12145e-06
1.11003e-06
2.91428e-07
1.88929e-06
2.17655e-06
3.34745e-07
1.53446e-06
3.35149e-06
3.52936e-07
1.07948e-06
4.42136e-06
3.39951e-07
5.9323e-07
5.01465e-06
2.97272e-07
1.87126e-07
4.76366e-06
2.20539e-07
2.68031e-06
9.67992e-08
-2.55975e-08
1.08462e-06
7.7726e-08
-1.33789e-07
2.27423e-06
1.78813e-07
-3.21321e-07
2.72462e-06
2.40807e-07
-5.52207e-07
2.74624e-06
2.72254e-07
-7.96271e-07
2.51304e-06
2.83627e-07
-1.03358e-06
2.07417e-06
2.83823e-07
-1.24471e-06
1.49573e-06
2.7519e-07
-1.41124e-06
8.60528e-07
2.56894e-07
-1.51821e-06
2.30456e-07
2.29865e-07
-1.55735e-06
-3.57388e-07
1.97768e-07
-1.52501e-06
-8.83965e-07
1.6498e-07
-1.42764e-06
-1.34097e-06
1.34327e-07
-1.27382e-06
-1.72565e-06
1.07111e-07
-1.07294e-06
-2.03692e-06
8.39737e-08
-8.34468e-07
-2.2752e-06
6.49991e-08
-5.66878e-07
-2.44964e-06
4.9739e-08
-2.77711e-07
-2.56929e-06
3.78076e-08
2.59029e-08
-2.6382e-06
2.90983e-08
3.36981e-07
-2.65872e-06
2.36114e-08
6.48624e-07
-2.63204e-06
2.14554e-08
9.5403e-07
-2.55815e-06
2.28426e-08
1.24654e-06
-2.43565e-06
2.80724e-08
1.51975e-06
-2.26102e-06
3.75766e-08
1.7661e-06
-2.023e-06
5.22181e-08
1.97542e-06
-1.70012e-06
7.35885e-08
2.13423e-06
-1.26808e-06
1.03378e-07
2.22309e-06
-6.99394e-07
1.4248e-07
2.2181e-06
4.06725e-08
1.908e-07
2.09881e-06
9.84106e-07
2.45133e-07
1.8489e-06
2.13007e-06
2.96411e-07
1.47414e-06
3.39615e-06
3.30289e-07
1.01037e-06
4.55182e-06
3.33716e-07
5.36499e-07
5.18959e-06
2.9946e-07
1.59583e-07
4.91956e-06
2.2148e-07
2.74676e-06
9.32613e-08
3.4102e-09
1.0135e-06
6.71837e-08
-3.99688e-08
2.15794e-06
1.59288e-07
-1.50769e-07
2.61725e-06
2.17919e-07
-3.10514e-07
2.65789e-06
2.47911e-07
-4.99248e-07
2.44397e-06
2.57656e-07
-7.03945e-07
2.02356e-06
2.55194e-07
-9.03445e-07
1.45113e-06
2.44054e-07
-1.07347e-06
8.05455e-07
2.25095e-07
-1.19284e-06
1.49935e-07
1.99921e-07
-1.24885e-06
-4.72882e-07
1.71537e-07
-1.2388e-06
-1.0371e-06
1.43116e-07
-1.16701e-06
-1.52938e-06
1.16625e-07
-1.04079e-06
-1.94488e-06
9.30069e-08
-8.67748e-07
-2.2828e-06
7.28065e-08
-6.55244e-07
-2.54389e-06
5.61487e-08
-4.12014e-07
-2.73564e-06
4.27148e-08
-1.46291e-07
-2.86729e-06
3.22246e-08
1.34778e-07
-2.94383e-06
2.45007e-08
4.23974e-07
-2.96746e-06
1.94801e-08
7.13913e-07
-2.93925e-06
1.72066e-08
9.97155e-07
-2.8593e-06
1.78395e-08
1.26639e-06
-2.7266e-06
2.16457e-08
1.51436e-06
-2.53811e-06
2.90411e-08
1.73197e-06
-2.28154e-06
4.0862e-08
1.909e-06
-1.9357e-06
5.84869e-08
2.03686e-06
-1.47944e-06
8.3435e-08
2.10297e-06
-8.82465e-07
1.16882e-07
2.08792e-06
-1.03797e-07
1.59421e-07
1.96686e-06
8.95682e-07
2.09315e-07
1.72124e-06
2.11555e-06
2.59905e-07
1.35633e-06
3.46222e-06
2.98602e-07
9.1455e-07
4.68275e-06
3.10667e-07
4.77584e-07
5.34272e-06
2.83714e-07
1.39184e-07
5.04829e-06
2.09505e-07
2.79985e-06
8.56589e-08
2.59507e-08
9.28799e-07
5.82219e-08
3.93633e-08
2.00401e-06
1.4013e-07
5.57325e-09
2.45675e-06
1.94014e-07
-7.23508e-08
2.51263e-06
2.22978e-07
-1.8333e-07
2.32141e-06
2.33371e-07
-3.19862e-07
1.92799e-06
2.3199e-07
-4.64548e-07
1.37302e-06
2.22733e-07
-5.94739e-07
7.2876e-07
2.06862e-07
-6.92947e-07
6.27349e-08
1.8541e-07
-7.41845e-07
-5.84262e-07
1.60287e-07
-7.41193e-07
-1.17182e-06
1.34069e-07
-6.94412e-07
-1.68505e-06
1.08883e-07
-6.05459e-07
-2.11996e-06
8.61046e-08
-4.77366e-07
-2.47751e-06
6.65924e-08
-3.12567e-07
-2.75932e-06
5.05964e-08
-1.17451e-07
-2.96866e-06
3.78797e-08
1.00617e-07
-3.11357e-06
2.81756e-08
3.35096e-07
-3.19954e-06
2.11932e-08
5.78866e-07
-3.22803e-06
1.67681e-08
8.24178e-07
-3.19945e-06
1.48512e-08
1.06283e-06
-3.11351e-06
1.55153e-08
1.28629e-06
-2.96907e-06
1.89547e-08
1.48438e-06
-2.76179e-06
2.55449e-08
1.6457e-06
-2.4789e-06
3.59987e-08
1.76178e-06
-2.10341e-06
5.1605e-08
1.82779e-06
-1.61918e-06
7.37267e-08
1.83919e-06
-9.97536e-07
1.03678e-07
1.78675e-06
-1.93761e-07
1.4241e-07
1.65861e-06
8.34974e-07
1.8882e-07
1.43782e-06
2.09905e-06
2.37175e-07
1.1233e-06
3.5006e-06
2.75908e-07
7.48049e-07
4.76738e-06
2.90338e-07
3.83019e-07
5.4407e-06
2.6677e-07
1.07713e-07
5.12642e-06
1.96892e-07
2.8275e-06
7.96605e-08
-5.06936e-09
8.79452e-07
5.39222e-08
-2.92811e-08
1.89794e-06
1.29879e-07
-8.35561e-08
2.33017e-06
1.80553e-07
-1.65957e-07
2.38555e-06
2.09258e-07
-2.65293e-07
2.19959e-06
2.20998e-07
-3.70232e-07
1.81172e-06
2.21091e-07
-4.67182e-07
1.25705e-06
2.12846e-07
-5.42956e-07
6.07421e-07
1.97074e-07
-5.88862e-07
-6.57744e-08
1.74393e-07
-6.05136e-07
-7.14978e-07
1.46976e-07
-5.92564e-07
-1.30275e-06
1.18353e-07
-5.50745e-07
-1.81841e-06
9.15335e-08
-4.77789e-07
-2.26107e-06
6.816e-08
-3.71357e-07
-2.63278e-06
4.88483e-08
-2.30209e-07
-2.93392e-06
3.34705e-08
-5.73791e-08
-3.16304e-06
2.15736e-08
1.40091e-07
-3.32368e-06
1.26763e-08
3.55045e-07
-3.42093e-06
6.48658e-09
5.80641e-07
-3.45637e-06
2.78796e-09
8.09293e-07
-3.42969e-06
1.63327e-09
1.03258e-06
-3.34001e-06
3.25046e-09
1.24154e-06
-3.18551e-06
7.51343e-09
1.42335e-06
-2.95822e-06
1.46403e-08
1.563e-06
-2.64369e-06
2.51677e-08
1.65092e-06
-2.23153e-06
4.02192e-08
1.68134e-06
-1.71056e-06
6.10109e-08
1.65344e-06
-1.05853e-06
8.9005e-08
1.57052e-06
-2.36323e-07
1.25673e-07
1.43172e-06
8.03258e-07
1.70796e-07
1.2327e-06
2.07885e-06
2.19541e-07
9.68954e-07
3.50409e-06
2.6056e-07
6.55688e-07
4.80255e-06
2.78366e-07
3.44388e-07
5.49427e-06
2.58006e-07
1.01213e-07
5.17829e-06
1.91625e-07
2.85099e-06
7.79982e-08
-4.03019e-08
8.67107e-07
5.21359e-08
-1.34141e-07
1.86469e-06
1.26684e-07
-2.60776e-07
2.27967e-06
1.76838e-07
-4.02849e-07
2.32187e-06
2.05534e-07
-5.39795e-07
2.11997e-06
2.16399e-07
-6.54509e-07
1.71284e-06
2.13469e-07
-7.40462e-07
1.14326e-06
1.99659e-07
-7.98139e-07
4.88632e-07
1.76409e-07
-8.28465e-07
-1.81494e-07
1.46009e-07
-8.39204e-07
-8.16926e-07
1.12665e-07
-8.25353e-07
-1.39758e-06
8.09738e-08
-7.8147e-07
-1.91586e-06
5.35814e-08
-7.02485e-07
-2.37105e-06
3.10291e-08
-5.86416e-07
-2.76164e-06
1.28582e-08
-4.34692e-07
-3.08363e-06
-1.92152e-09
-2.53209e-07
-3.33237e-06
-1.2042e-08
-4.94244e-08
-3.50755e-06
-1.97863e-08
1.69377e-07
-3.61469e-06
-2.49094e-08
3.97265e-07
-3.65663e-06
-2.74872e-08
6.28308e-07
-3.63306e-06
-2.75307e-08
8.5619e-07
-3.54273e-06
-2.50185e-08
1.07343e-06
-3.38272e-06
-1.98894e-08
1.26903e-06
-3.14173e-06
-1.19642e-08
1.429e-06
-2.80228e-06
-1.2743e-09
1.53725e-06
-2.355e-06
1.53329e-08
1.58164e-06
-1.79119e-06
3.63785e-08
1.55581e-06
-1.09614e-06
6.3638e-08
1.46271e-06
-2.41957e-07
9.90709e-08
1.31264e-06
8.10234e-07
1.43644e-07
1.11573e-06
2.08235e-06
1.94192e-07
8.75319e-07
3.5052e-06
2.40296e-07
5.98122e-07
4.81564e-06
2.65234e-07
3.19939e-07
5.5227e-06
2.50948e-07
9.60922e-08
5.21472e-06
1.88629e-07
2.87099e-06
7.7198e-08
-3.24728e-08
8.51349e-07
4.77083e-08
-1.2763e-07
1.83933e-06
1.20138e-07
-2.68481e-07
2.25129e-06
1.68956e-07
-4.30125e-07
2.28938e-06
1.93934e-07
-5.88009e-07
2.08018e-06
1.97513e-07
-7.27002e-07
1.6675e-06
1.84216e-07
-8.42299e-07
1.09948e-06
1.58996e-07
-9.33501e-07
4.53613e-07
1.26172e-07
-9.98393e-07
-2.07022e-07
9.03922e-08
-1.0347e-06
-8.3704e-07
5.64131e-08
-1.03317e-06
-1.42645e-06
2.73504e-08
-9.87165e-07
-1.96527e-06
3.45183e-09
-8.95721e-07
-2.44695e-06
-1.54695e-08
-7.62678e-07
-2.86357e-06
-3.10137e-08
-5.95693e-07
-3.20672e-06
-4.37696e-08
-4.03879e-07
-3.47016e-06
-5.38688e-08
-1.95291e-07
-3.65468e-06
-6.12955e-08
2.41118e-08
-3.76783e-06
-6.60846e-08
2.4969e-07
-3.81377e-06
-6.82435e-08
4.77537e-07
-3.79298e-06
-6.77255e-08
7.0409e-07
-3.70459e-06
-6.44947e-08
9.25191e-07
-3.54515e-06
-5.84755e-08
1.13423e-06
-3.30119e-06
-4.93991e-08
1.32023e-06
-2.95135e-06
-3.67563e-08
1.46728e-06
-2.48162e-06
-2.0265e-08
1.55755e-06
-1.88068e-06
-6.04688e-10
1.57172e-06
-1.137e-06
2.69194e-08
1.50307e-06
-2.33584e-07
6.06326e-08
1.35724e-06
8.53358e-07
1.0331e-07
1.15006e-06
2.13649e-06
1.54022e-07
8.97106e-07
3.55483e-06
2.04692e-07
6.12654e-07
4.86307e-06
2.38695e-07
3.3076e-07
5.57239e-06
2.34008e-07
1.0081e-07
5.26784e-06
1.78613e-07
2.90055e-06
7.2795e-08
4.65865e-08
7.69372e-07
3.48754e-08
9.04176e-08
1.70135e-06
9.37714e-08
8.94728e-08
2.11721e-06
1.34754e-07
4.9709e-08
2.17614e-06
1.52796e-07
-1.61993e-08
1.99673e-06
1.49204e-07
-1.05646e-07
1.62702e-06
1.29827e-07
-2.11505e-07
1.10368e-06
1.01593e-07
-3.21386e-07
4.93353e-07
7.01008e-08
-4.18903e-07
-1.49113e-07
3.95909e-08
-4.79201e-07
-7.89597e-07
1.28577e-08
-4.93485e-07
-1.40256e-06
-9.57871e-09
-4.58083e-07
-1.97176e-06
-2.88637e-08
-3.76659e-07
-2.48249e-06
-4.5805e-08
-2.57341e-07
-2.9218e-06
-6.09905e-08
-1.10056e-07
-3.27962e-06
-7.42686e-08
5.54401e-08
-3.55034e-06
-8.51887e-08
2.32191e-07
-3.73785e-06
-9.3439e-08
4.1537e-07
-3.85186e-06
-9.89892e-08
6.01005e-07
-3.89744e-06
-1.01806e-07
7.86005e-07
-3.87595e-06
-1.01867e-07
9.68145e-07
-3.78737e-06
-9.91838e-08
1.14619e-06
-3.6293e-06
-9.37168e-08
1.31793e-06
-3.3877e-06
-8.50527e-08
1.47651e-06
-3.03715e-06
-7.25996e-08
1.60958e-06
-2.55835e-06
-5.6178e-08
1.6992e-06
-1.93423e-06
-3.59083e-08
1.72425e-06
-1.15022e-06
-1.16599e-08
1.66588e-06
-1.93677e-07
1.87303e-08
1.5178e-06
9.44505e-07
5.73869e-08
1.28973e-06
2.26081e-06
1.04545e-07
1.00246e-06
3.68788e-06
1.55452e-07
6.82019e-07
4.98932e-06
1.9579e-07
3.693e-07
5.68545e-06
2.01439e-07
1.13867e-07
5.36858e-06
1.56402e-07
2.95288e-06
6.28704e-08
8.22874e-08
6.63707e-07
2.28587e-08
2.25458e-07
1.49406e-06
6.37173e-08
3.60267e-07
1.88873e-06
9.33918e-08
4.64251e-07
1.96584e-06
1.06113e-07
5.33273e-07
1.82499e-06
1.02569e-07
5.60966e-07
1.51112e-06
8.80953e-08
5.50386e-07
1.04588e-06
6.83135e-08
5.18173e-07
4.7842e-07
4.71016e-08
4.85377e-07
-1.42835e-07
2.64947e-08
4.75849e-07
-7.87251e-07
7.18092e-09
4.9852e-07
-1.41338e-06
-1.18255e-08
5.54284e-07
-1.99652e-06
-3.09629e-08
6.38041e-07
-2.51616e-06
-5.00316e-08
7.42977e-07
-2.95838e-06
-6.82847e-08
8.62982e-07
-3.31497e-06
-8.45788e-08
9.93059e-07
-3.58232e-06
-9.80203e-08
1.12914e-06
-3.76554e-06
-1.08302e-07
1.26789e-06
-3.87502e-06
-1.15515e-07
1.40626e-06
-3.91591e-06
-1.19804e-07
1.54125e-06
-3.88951e-06
-1.21326e-07
1.67004e-06
-3.79583e-06
-1.20224e-07
1.79079e-06
-3.63337e-06
-1.16559e-07
1.90126e-06
-3.38812e-06
-1.09929e-07
1.99594e-06
-3.03205e-06
-9.9663e-08
2.0662e-06
-2.54306e-06
-8.54327e-08
2.0992e-06
-1.89992e-06
-6.72272e-08
2.07712e-06
-1.083e-06
-4.50514e-08
1.98125e-06
-7.92862e-08
-1.84363e-08
1.79496e-06
1.11671e-06
1.4265e-08
1.52044e-06
2.48072e-06
5.49973e-08
1.17741e-06
3.93048e-06
1.01127e-07
8.00342e-07
5.22506e-06
1.42345e-07
4.36379e-07
5.89466e-06
1.55926e-07
1.37298e-07
5.54548e-06
1.23249e-07
3.04249e-06
4.82905e-08
4.75859e-08
5.97058e-07
1.8537e-08
1.54976e-07
1.33746e-06
4.87897e-08
2.80956e-07
1.6917e-06
7.07353e-08
4.00836e-07
1.76398e-06
8.17466e-08
5.06225e-07
1.63695e-06
8.24674e-08
5.93064e-07
1.34824e-06
7.59032e-08
6.62441e-07
9.11523e-07
6.48792e-08
7.26011e-07
3.63867e-07
5.09192e-08
7.98249e-07
-2.49371e-07
3.42632e-08
8.80994e-07
-8.84639e-07
1.46341e-08
9.76824e-07
-1.50153e-06
-7.67347e-09
1.08183e-06
-2.06982e-06
-3.16796e-08
1.19166e-06
-2.57039e-06
-5.55536e-08
1.30417e-06
-2.99359e-06
-7.72574e-08
1.41969e-06
-3.33508e-06
-9.53598e-08
1.53936e-06
-3.59258e-06
-1.0937e-07
1.66294e-06
-3.76949e-06
-1.19588e-07
1.78898e-06
-3.87447e-06
-1.26545e-07
1.91523e-06
-3.91141e-06
-1.30707e-07
2.03841e-06
-3.88016e-06
-1.32471e-07
2.15448e-06
-3.77972e-06
-1.32119e-07
2.25917e-06
-3.6082e-06
-1.29791e-07
2.34698e-06
-3.3507e-06
-1.25162e-07
2.40961e-06
-2.97704e-06
-1.17567e-07
2.43788e-06
-2.46475e-06
-1.06514e-07
2.42148e-06
-1.7918e-06
-9.16871e-08
2.34726e-06
-9.35846e-07
-7.2948e-08
2.19861e-06
1.1944e-07
-5.01592e-08
1.96365e-06
1.37418e-06
-2.26139e-08
1.64135e-06
2.79197e-06
1.09653e-08
1.25259e-06
4.26976e-06
4.95186e-08
8.38793e-07
5.55224e-06
8.68296e-08
4.49747e-07
6.17976e-06
1.04268e-07
1.37565e-07
5.77417e-06
8.36853e-08
3.14912e-06
3.06615e-08
5.60397e-09
5.71998e-07
1.89339e-08
3.10833e-08
1.26446e-06
4.71081e-08
6.98755e-08
1.5856e-06
6.69803e-08
1.16057e-07
1.63913e-06
7.84107e-08
1.6996e-07
1.50108e-06
8.1756e-08
2.35302e-07
1.20483e-06
7.79174e-08
3.16846e-07
7.62096e-07
6.77703e-08
4.17747e-07
2.11177e-07
5.17157e-08
5.36294e-07
-3.97872e-07
2.99134e-08
6.65464e-07
-1.01701e-06
3.1835e-09
7.96878e-07
-1.60763e-06
-2.53035e-08
9.25264e-07
-2.14495e-06
-5.3237e-08
1.04996e-06
-2.61715e-06
-7.79024e-08
1.17396e-06
-3.01987e-06
-9.77e-08
1.30156e-06
-3.3503e-06
-1.12353e-07
1.43598e-06
-3.60442e-06
-1.2255e-07
1.57723e-06
-3.78134e-06
-1.29369e-07
1.72339e-06
-3.88697e-06
-1.33639e-07
1.87154e-06
-3.92359e-06
-1.35947e-07
2.01757e-06
-3.88943e-06
-1.36727e-07
2.15639e-06
-3.78228e-06
-1.36218e-07
2.28157e-06
-3.59886e-06
-1.34481e-07
2.38418e-06
-3.32206e-06
-1.312e-07
2.45299e-06
-2.92008e-06
-1.25721e-07
2.47735e-06
-2.37159e-06
-1.17479e-07
2.44741e-06
-1.65589e-06
-1.05959e-07
2.35257e-06
-7.50247e-07
-9.08165e-08
2.18069e-06
3.63146e-07
-7.20004e-08
1.92355e-06
1.68046e-06
-4.94407e-08
1.58349e-06
3.15411e-06
-2.25121e-08
1.18508e-06
4.65892e-06
8.76196e-09
7.77095e-07
5.9208e-06
3.89565e-08
4.05095e-07
6.49481e-06
5.65168e-08
1.17796e-07
6.01467e-06
4.62601e-08
3.25134e-06
1.46531e-08
-6.73151e-09
5.5922e-07
1.89833e-08
-2.10064e-08
1.2307e-06
4.76102e-08
-3.69581e-08
1.53373e-06
6.7487e-08
-4.63519e-08
1.56995e-06
7.82918e-08
-3.95119e-08
1.41438e-06
7.96457e-08
-7.57742e-09
1.10109e-06
7.1643e-08
5.36239e-08
6.45718e-07
5.50612e-08
1.39933e-07
9.35905e-08
3.12041e-08
2.41934e-07
-5.01802e-07
1.88877e-09
3.49642e-07
-1.09555e-06
-2.91808e-08
4.56982e-07
-1.65628e-06
-5.86935e-08
5.63441e-07
-2.16777e-06
-8.36272e-08
6.72755e-07
-2.62383e-06
-1.02621e-07
7.89964e-07
-3.02136e-06
-1.15709e-07
9.18908e-07
-3.3553e-06
-1.23923e-07
1.06086e-06
-3.61763e-06
-1.28729e-07
1.21356e-06
-3.80253e-06
-1.31484e-07
1.37355e-06
-3.91403e-06
-1.3292e-07
1.53699e-06
-3.95353e-06
-1.33465e-07
1.69914e-06
-3.91815e-06
-1.33408e-07
1.85459e-06
-3.80487e-06
-1.3283e-07
1.99575e-06
-3.60836e-06
-1.31619e-07
2.11142e-06
-3.30826e-06
-1.29425e-07
2.18928e-06
-2.87229e-06
-1.25587e-07
2.21872e-06
-2.28151e-06
-1.1947e-07
2.19127e-06
-1.51799e-06
-1.10411e-07
2.09886e-06
-5.59928e-07
-9.79278e-08
1.93325e-06
6.10682e-07
-8.20659e-08
1.68895e-06
1.9878e-06
-6.33707e-08
1.37085e-06
3.51391e-06
-4.22425e-08
1.0056e-06
5.04216e-06
-1.8713e-08
6.42199e-07
6.27802e-06
5.38594e-09
3.2119e-07
6.79508e-06
1.99188e-08
8.61952e-08
6.2315e-06
1.72734e-08
3.33297e-06
3.46391e-09
3.71141e-09
5.3886e-07
1.61195e-08
2.02048e-10
1.19155e-06
4.22304e-08
-1.20157e-08
1.48554e-06
6.00661e-08
-2.47167e-08
1.51494e-06
6.7447e-08
-2.71369e-08
1.35325e-06
6.33371e-08
-1.21033e-08
1.03753e-06
4.83584e-08
2.05291e-08
5.88315e-07
2.466e-08
6.5414e-08
5.30607e-08
-4.42347e-09
1.16305e-07
-5.17038e-07
-3.56908e-08
1.69364e-07
-1.0838e-06
-6.4825e-08
2.24956e-07
-1.62304e-06
-8.88322e-08
2.86866e-07
-2.12335e-06
-1.06335e-07
3.60157e-07
-2.57967e-06
-1.17451e-07
4.49205e-07
-2.98713e-06
-1.23267e-07
5.56484e-07
-3.33721e-06
-1.25369e-07
6.81879e-07
-3.61759e-06
-1.25425e-07
8.21742e-07
-3.8176e-06
-1.24788e-07
9.71742e-07
-3.94004e-06
-1.2398e-07
1.1276e-06
-3.98617e-06
-1.2321e-07
1.28449e-06
-3.95239e-06
-1.22636e-07
1.43716e-06
-3.83529e-06
-1.22216e-07
1.57762e-06
-3.62712e-06
-1.21677e-07
1.6935e-06
-3.30347e-06
-1.20626e-07
1.77229e-06
-2.83264e-06
-1.18389e-07
1.80429e-06
-2.19924e-06
-1.14185e-07
1.78293e-06
-1.38944e-06
-1.07081e-07
1.70337e-06
-3.83941e-07
-9.63345e-08
1.56196e-06
8.34086e-07
-8.19619e-08
1.35608e-06
2.25857e-06
-6.50188e-08
1.09091e-06
3.82572e-06
-4.6973e-08
7.90064e-07
5.37121e-06
-2.87518e-08
4.96557e-07
6.5819e-06
-1.10165e-08
2.40068e-07
7.04907e-06
1.84093e-09
6.02838e-08
6.40764e-06
2.97382e-09
3.39369e-06
-1.19342e-09
2.7919e-08
5.00083e-07
1.03301e-08
7.10519e-08
1.11923e-06
2.87675e-08
1.09368e-07
1.40606e-06
4.08305e-08
1.4114e-07
1.44022e-06
4.26792e-08
1.71319e-07
1.28979e-06
3.30733e-08
2.0115e-07
9.93769e-07
1.37801e-08
2.26232e-07
5.75242e-07
-1.21119e-08
2.43998e-07
7.58809e-08
-4.06503e-08
2.55038e-07
-4.60732e-07
-6.73831e-08
2.62165e-07
-1.00147e-06
-8.94755e-08
2.70615e-07
-1.5262e-06
-1.05307e-07
2.86439e-07
-2.02447e-06
-1.14711e-07
3.1527e-07
-2.49e-06
-1.18506e-07
3.61725e-07
-2.91551e-06
-1.18086e-07
4.28858e-07
-3.28923e-06
-1.15113e-07
5.17236e-07
-3.59471e-06
-1.11268e-07
6.23752e-07
-3.8162e-06
-1.07932e-07
7.43462e-07
-3.95427e-06
-1.05486e-07
8.71598e-07
-4.0104e-06
-1.03905e-07
1.00342e-06
-3.98096e-06
-1.0326e-07
1.13407e-06
-3.86252e-06
-1.03416e-07
1.25584e-06
-3.6449e-06
-1.03978e-07
1.35622e-06
-3.29927e-06
-1.04562e-07
1.42343e-06
-2.79525e-06
-1.04552e-07
1.44891e-06
-2.12167e-06
-1.02957e-07
1.42822e-06
-1.27021e-06