/*--------------------------------*- C++ -*----------------------------------*\
| =========                 |                                                 |
| \\      /  F ield         | OpenFOAM: The Open Source CFD Toolbox           |
|  \\    /   O peration     | Version:  v2006                                 |
|   \\  /    A nd           | Website:  www.openfoam.com                      |
|    \\/     M anipulation  |                                                 |
\*---------------------------------------------------------------------------*/
FoamFile
{
    version     2.0;
    format      ascii;
    class       volScalarField;
    location    "27";
    object      T;
}
// * * * * * * * * * * * * * * * * * * * * * * * * * * * * * * * * * * * * * //

dimensions      [0 0 0 1 0 0 0];


internalField   nonuniform List<scalar> 
78750
(
299.193
298.553
298.591
298.572
298.56
298.55
298.544
298.538
298.532
298.526
298.521
298.515
298.509
298.503
298.497
298.492
298.486
298.48
298.473
298.467
298.461
298.454
298.447
298.44
298.432
298.425
298.416
298.407
298.397
298.388
298.391
298.458
298.72
299.359
300.394
299.699
299.218
298.919
298.772
298.703
298.669
298.652
298.641
298.632
298.625
298.617
298.609
298.602
298.594
298.585
298.577
298.568
298.559
298.549
298.539
298.528
298.517
298.505
298.492
298.479
298.465
298.451
298.438
298.428
298.429
298.464
298.59
298.91
299.517
300.479
299.736
299.279
298.964
298.78
298.695
298.665
298.659
298.658
298.658
298.657
298.655
298.652
298.649
298.645
298.64
298.635
298.63
298.624
298.617
298.61
298.603
298.595
298.587
298.58
298.573
298.568
298.568
298.575
298.597
298.651
298.765
298.99
299.378
300.004
300.976
299.767
299.365
299.098
298.921
298.805
298.741
298.711
298.698
298.692
298.689
298.686
298.682
298.678
298.674
298.669
298.664
298.659
298.653
298.648
298.642
298.636
298.631
298.625
298.62
298.616
298.614
298.615
298.624
298.65
298.712
298.847
299.106
299.526
300.173
301.162
299.825
299.497
299.267
299.105
298.979
298.884
298.816
298.768
298.733
298.707
298.686
298.669
298.655
298.645
298.636
298.63
298.625
298.622
298.621
298.62
298.621
298.624
298.63
298.639
298.652
298.671
298.7
298.745
298.818
298.938
299.135
299.445
299.881
300.528
301.535
299.852
299.57
299.361
299.209
299.082
298.975
298.889
298.822
298.771
298.732
298.705
298.687
298.676
298.67
298.668
298.669
298.67
298.672
298.672
298.671
298.668
298.663
298.659
298.658
298.663
298.678
298.711
298.771
298.87
299.025
299.264
299.618
300.085
300.752
301.77
299.873
299.627
299.435
299.285
299.157
299.043
298.944
298.865
298.806
298.768
298.751
298.75
298.76
298.778
298.798
298.818
298.835
298.848
298.857
298.86
298.858
298.85
298.836
298.819
298.802
298.793
298.806
298.856
298.964
299.148
299.429
299.824
300.322
301.012
302.038
299.879
299.642
299.45
299.297
299.162
299.041
298.942
298.871
298.83
298.818
298.827
298.851
298.882
298.914
298.944
298.971
298.993
299.011
299.023
299.031
299.033
299.03
299.02
299.005
298.984
298.961
298.948
298.964
299.038
299.203
299.486
299.904
300.437
301.159
302.19
299.884
299.654
299.462
299.306
299.17
299.051
298.959
298.901
298.877
298.88
298.903
298.935
298.971
299.005
299.035
299.061
299.083
299.1
299.114
299.124
299.13
299.133
299.13
299.124
299.113
299.098
299.086
299.091
299.143
299.282
299.55
299.974
300.531
301.279
302.314
299.885
299.658
299.464
299.308
299.174
299.061
298.981
298.937
298.927
298.942
298.971
299.007
299.043
299.075
299.103
299.127
299.147
299.164
299.178
299.188
299.196
299.202
299.204
299.204
299.201
299.196
299.193
299.201
299.242
299.357
299.599
300.009
300.577
301.345
302.388
299.889
299.668
299.478
299.325
299.195
299.09
299.018
298.983
298.979
298.997
299.027
299.062
299.096
299.127
299.153
299.175
299.194
299.21
299.224
299.235
299.245
299.252
299.258
299.263
299.267
299.273
299.282
299.304
299.355
299.47
299.702
300.104
300.674
301.452
302.508
299.895
299.684
299.501
299.354
299.231
299.133
299.067
299.035
299.032
299.05
299.078
299.11
299.142
299.17
299.194
299.214
299.232
299.247
299.26
299.271
299.281
299.29
299.298
299.306
299.316
299.33
299.353
299.393
299.465
299.598
299.84
300.245
300.819
301.606
302.673
299.903
299.709
299.538
299.398
299.284
299.192
299.129
299.097
299.091
299.103
299.127
299.155
299.183
299.209
299.23
299.249
299.265
299.279
299.291
299.302
299.312
299.321
299.33
299.34
299.354
299.375
299.409
299.467
299.566
299.733
300.006
300.432
301.015
301.806
302.874
299.911
299.73
299.571
299.441
299.335
299.249
299.19
299.159
299.152
299.162
299.181
299.205
299.229
299.25
299.27
299.286
299.301
299.313
299.325
299.335
299.344
299.353
299.362
299.373
299.387
299.409
299.447
299.515
299.631
299.825
300.131
300.585
301.183
301.974
303.033
299.916
299.747
299.597
299.475
299.375
299.295
299.241
299.212
299.205
299.213
299.23
299.249
299.27
299.29
299.308
299.324
299.338
299.351
299.362
299.373
299.382
299.391
299.4
299.411
299.425
299.447
299.484
299.551
299.672
299.877
300.203
300.68
301.291
302.081
303.127
299.92
299.758
299.615
299.498
299.402
299.328
299.279
299.254
299.248
299.256
299.271
299.29
299.309
299.329
299.347
299.364
299.379
299.392
299.405
299.416
299.426
299.436
299.446
299.457
299.471
299.493
299.528
299.591
299.705
299.904
300.23
300.713
301.328
302.116
303.158
299.927
299.777
299.644
299.533
299.444
299.374
299.326
299.3
299.293
299.298
299.31
299.327
299.346
299.365
299.384
299.401
299.416
299.431
299.444
299.456
299.468
299.479
299.49
299.503
299.521
299.545
299.582
299.645
299.754
299.945
300.262
300.739
301.349
302.135
303.18
299.937
299.805
299.685
299.585
299.503
299.438
299.391
299.362
299.349
299.348
299.355
299.368
299.384
299.401
299.419
299.435
299.451
299.465
299.479
299.492
299.504
299.517
299.53
299.545
299.566
299.594
299.637
299.704
299.815
300.003
300.311
300.78
301.384
302.17
303.228
299.945
299.83
299.725
299.636
299.561
299.501
299.455
299.424
299.407
299.401
299.403
299.411
299.423
299.438
299.453
299.468
299.483
299.497
299.51
299.523
299.537
299.55
299.565
299.583
299.608
299.642
299.693
299.77
299.891
300.087
300.399
300.867
301.468
302.257
303.332
299.952
299.849
299.755
299.673
299.604
299.546
299.501
299.469
299.45
299.441
299.441
299.447
299.458
299.47
299.484
299.498
299.512
299.525
299.538
299.552
299.566
299.581
299.597
299.619
299.648
299.689
299.749
299.84
299.977
300.19
300.515
300.992
301.595
302.389
303.477
299.956
299.863
299.776
299.699
299.633
299.577
299.533
299.501
299.482
299.473
299.473
299.478
299.487
299.498
299.511
299.524
299.537
299.55
299.564
299.578
299.593
299.609
299.628
299.652
299.686
299.735
299.806
299.912
300.071
300.307
300.656
301.147
301.756
302.555
303.649
299.96
299.874
299.792
299.719
299.656
299.603
299.56
299.53
299.511
299.502
299.501
299.505
299.513
299.523
299.535
299.547
299.56
299.573
299.587
299.601
299.617
299.635
299.656
299.683
299.721
299.776
299.857
299.978
300.157
300.419
300.793
301.3
301.916
302.717
303.807
299.964
299.884
299.808
299.74
299.681
299.631
299.59
299.561
299.542
299.532
299.529
299.532
299.537
299.546
299.556
299.567
299.579
299.592
299.606
299.622
299.638
299.657
299.681
299.711
299.753
299.812
299.9
300.032
300.229
300.512
300.909
301.431
302.053
302.853
303.932
299.968
299.896
299.827
299.764
299.71
299.663
299.625
299.596
299.576
299.564
299.559
299.558
299.561
299.567
299.575
299.585
299.597
299.609
299.623
299.639
299.656
299.677
299.702
299.734
299.778
299.839
299.93
300.066
300.272
300.57
300.984
301.52
302.146
302.942
304.008
299.972
299.909
299.847
299.79
299.74
299.696
299.66
299.632
299.611
299.596
299.588
299.584
299.584
299.588
299.594
299.603
299.613
299.625
299.64
299.656
299.674
299.696
299.723
299.758
299.804
299.865
299.954
300.088
300.292
300.593
301.015
301.558
302.187
302.981
304.04
299.976
299.921
299.865
299.813
299.767
299.726
299.692
299.663
299.641
299.625
299.614
299.608
299.606
299.608
299.612
299.62
299.63
299.642
299.656
299.673
299.692
299.716
299.747
299.786
299.835
299.898
299.985
300.114
300.311
300.607
301.027
301.571
302.201
302.995
304.054
299.979
299.931
299.881
299.833
299.789
299.751
299.718
299.69
299.667
299.65
299.638
299.631
299.628
299.628
299.631
299.637
299.646
299.657
299.67
299.688
299.709
299.737
299.773
299.821
299.878
299.947
300.035
300.161
300.349
300.635
301.045
301.583
302.21
303.007
304.072
299.983
299.94
299.896
299.852
299.812
299.776
299.745
299.718
299.695
299.678
299.666
299.657
299.652
299.65
299.651
299.655
299.661
299.67
299.682
299.699
299.721
299.752
299.795
299.854
299.927
300.013
300.114
300.246
300.434
300.714
301.115
301.638
302.259
303.062
304.135
299.986
299.951
299.913
299.874
299.838
299.805
299.775
299.75
299.728
299.71
299.696
299.685
299.678
299.673
299.671
299.672
299.676
299.684
299.695
299.71
299.731
299.761
299.806
299.874
299.964
300.074
300.2
300.349
300.546
300.826
301.22
301.728
302.343
303.153
304.235
299.99
299.961
299.928
299.894
299.861
299.83
299.802
299.777
299.754
299.735
299.718
299.704
299.694
299.688
299.687
299.689
299.694
299.702
299.713
299.726
299.745
299.771
299.812
299.877
299.976
300.109
300.271
300.457
300.68
300.97
301.36
301.855
302.463
303.281
304.369
299.992
299.968
299.938
299.907
299.875
299.845
299.816
299.788
299.763
299.741
299.722
299.709
299.701
299.699
299.701
299.707
299.715
299.726
299.738
299.751
299.767
299.788
299.821
299.873
299.96
300.094
300.276
300.5
300.762
301.079
301.479
301.97
302.575
303.398
304.487
299.993
299.97
299.941
299.908
299.875
299.841
299.808
299.778
299.751
299.73
299.716
299.709
299.709
299.714
299.722
299.732
299.743
299.755
299.768
299.782
299.798
299.817
299.843
299.885
299.955
300.071
300.249
300.491
300.789
301.143
301.566
302.066
302.674
303.498
304.585
299.992
299.966
299.934
299.898
299.861
299.823
299.789
299.76
299.739
299.726
299.722
299.723
299.729
299.737
299.747
299.758
299.77
299.783
299.796
299.81
299.825
299.843
299.867
299.901
299.956
300.05
300.205
300.439
300.755
301.143
301.602
302.129
302.751
303.577
304.661
299.989
299.959
299.922
299.884
299.846
299.81
299.78
299.759
299.746
299.74
299.741
299.744
299.749
299.756
299.764
299.773
299.783
299.796
299.809
299.825
299.843
299.864
299.889
299.92
299.967
300.043
300.171
300.381
300.691
301.1
301.595
302.158
302.801
303.627
304.704
299.988
299.954
299.917
299.88
299.845
299.814
299.791
299.775
299.765
299.76
299.758
299.757
299.757
299.758
299.761
299.766
299.773
299.785
299.8
299.821
299.845
299.873
299.903
299.937
299.98
300.043
300.148
300.326
300.61
301.018
301.541
302.144
302.812
303.64
304.706
299.988
299.957
299.922
299.888
299.857
299.831
299.81
299.795
299.784
299.775
299.766
299.757
299.747
299.737
299.729
299.724
299.725
299.733
299.751
299.778
299.814
299.857
299.902
299.947
299.996
300.055
300.143
300.29
300.536
300.919
301.445
302.077
302.764
303.591
304.651
299.991
299.963
299.933
299.903
299.875
299.851
299.831
299.813
299.796
299.778
299.758
299.734
299.708
299.683
299.66
299.644
299.635
299.636
299.651
299.681
299.73
299.793
299.865
299.936
300.003
300.071
300.154
300.281
300.491
300.834
301.339
301.977
302.676
303.507
304.573
299.994
299.972
299.945
299.918
299.892
299.867
299.843
299.819
299.793
299.763
299.73
299.696
299.663
299.634
299.611
299.593
299.582
299.578
299.583
299.604
299.648
299.719
299.812
299.912
300.007
300.095
300.189
300.312
300.503
300.813
301.285
301.904
302.597
303.434
304.514
299.996
299.978
299.954
299.928
299.901
299.873
299.844
299.813
299.78
299.747
299.717
299.692
299.674
299.661
299.653
299.646
299.64
299.634
299.631
299.635
299.658
299.713
299.805
299.922
300.041
300.149
300.257
300.386
300.575
300.871
301.318
301.907
302.584
303.424
304.519
299.998
299.983
299.962
299.936
299.906
299.874
299.84
299.806
299.776
299.753
299.741
299.737
299.74
299.745
299.75
299.752
299.75
299.744
299.736
299.728
299.73
299.758
299.835
299.959
300.103
300.239
300.369
300.516
300.717
301.014
301.444
301.997
302.653
303.499
304.6
299.999
299.986
299.964
299.934
299.897
299.857
299.82
299.791
299.774
299.77
299.774
299.784
299.794
299.804
299.811
299.814
299.815
299.811
299.804
299.796
299.79
299.798
299.848
299.963
300.132
300.309
300.475
300.649
300.868
301.173
301.595
302.118
302.753
303.604
304.709
299.998
299.98
299.95
299.91
299.865
299.825
299.797
299.786
299.787
299.795
299.804
299.811
299.816
299.819
299.82
299.821
299.822
299.822
299.822
299.821
299.822
299.83
299.863
299.954
300.121
300.337
300.557
300.773
301.019
301.336
301.751
302.251
302.872
303.726
304.83
299.993
299.966
299.929
299.886
299.848
299.824
299.816
299.819
299.825
299.828
299.828
299.826
299.822
299.818
299.815
299.814
299.815
299.817
299.82
299.826
299.833
299.848
299.878
299.946
300.086
300.306
300.571
300.84
301.124
301.459
301.872
302.359
302.969
303.822
304.921
299.989
299.957
299.922
299.889
299.867
299.856
299.854
299.852
299.848
299.842
299.836
299.831
299.827
299.825
299.825
299.826
299.828
299.83
299.833
299.838
299.845
299.857
299.882
299.935
300.043
300.237
300.515
300.834
301.169
301.535
301.958
302.442
303.049
303.9
304.997
299.989
299.961
299.934
299.912
299.896
299.885
299.876
299.867
299.859
299.853
299.85
299.85
299.851
299.853
299.856
299.86
299.864
299.867
299.87
299.873
299.877
299.882
299.894
299.925
299.998
300.148
300.403
300.744
301.128
301.54
301.992
302.486
303.095
303.945
305.041
299.993
299.971
299.949
299.93
299.914
299.901
299.891
299.883
299.878
299.875
299.873
299.872
299.871
299.872
299.873
299.876
299.88
299.885
299.891
299.898
299.906
299.914
299.926
299.946
299.992
300.096
300.301
300.625
301.035
301.493
301.986
302.506
303.125
303.977
305.075
299.995
299.978
299.96
299.944
299.93
299.919
299.91
299.903
299.896
299.888
299.88
299.873
299.867
299.863
299.862
299.863
299.866
299.872
299.88
299.891
299.903
299.917
299.934
299.958
299.998
300.077
300.237
300.52
300.927
301.415
301.952
302.508
303.146
304.003
305.103
299.998
299.987
299.973
299.961
299.949
299.937
299.924
299.911
299.897
299.883
299.872
299.863
299.858
299.856
299.857
299.861
299.866
299.873
299.882
299.893
299.906
299.921
299.939
299.964
300.001
300.068
300.199
300.443
300.83
301.334
301.908
302.503
303.165
304.027
305.13
300.002
299.996
299.986
299.974
299.958
299.941
299.923
299.906
299.891
299.881
299.875
299.873
299.874
299.878
299.884
299.892
299.9
299.91
299.92
299.931
299.942
299.955
299.97
299.99
300.018
300.068
300.169
300.371
300.724
301.231
301.839
302.48
303.17
304.038
305.144
300.003
299.999
299.988
299.972
299.953
299.934
299.916
299.903
299.894
299.89
299.889
299.891
299.895
299.9
299.907
299.915
299.925
299.936
299.949
299.963
299.979
299.996
300.014
300.035
300.062
300.103
300.178
300.334
300.634
301.117
301.745
302.434
303.157
304.033
305.144
300.002
299.996
299.983
299.966
299.948
299.932
299.92
299.911
299.906
299.903
299.903
299.904
299.906
299.91
299.915
299.922
299.93
299.941
299.955
299.971
299.99
300.012
300.037
300.065
300.099
300.143
300.212
300.339
300.587
301.021
301.645
302.373
303.128
304.015
305.134
300.001
299.995
299.982
299.967
299.953
299.941
299.933
299.927
299.924
299.923
299.925
299.928
299.932
299.937
299.943
299.95
299.959
299.969
299.981
299.996
300.014
300.037
300.063
300.095
300.135
300.186
300.259
300.379
300.597
300.985
301.581
302.325
303.103
304.004
305.136
300.002
299.996
299.986
299.975
299.964
299.956
299.95
299.947
299.948
299.95
299.954
299.96
299.966
299.973
299.98
299.988
299.996
300.007
300.019
300.035
300.054
300.078
300.107
300.143
300.188
300.246
300.328
300.452
300.662
301.024
301.592
302.327
303.113
304.026
305.172
300.003
300
299.992
299.984
299.976
299.97
299.967
299.966
299.967
299.971
299.975
299.981
299.987
299.994
300
300.008
300.016
300.027
300.039
300.056
300.078
300.105
300.141
300.185
300.242
300.317
300.417
300.561
300.784
301.144
301.693
302.405
303.185
304.105
305.255
300.004
300.004
299.999
299.992
299.986
299.982
299.98
299.981
299.984
299.99
299.997
300.005
300.014
300.023
300.031
300.04
300.048
300.058
300.07
300.085
300.105
300.132
300.169
300.219
300.287
300.379
300.504
300.679
300.93
301.305
301.848
302.531
303.294
304.213
305.354
300.005
300.007
300.003
299.999
299.995
299.994
299.996
300.001
300.009
300.018
300.029
300.04
300.05
300.061
300.071
300.08
300.09
300.101
300.113
300.128
300.148
300.175
300.213
300.265
300.339
300.443
300.59
300.795
301.078
301.476
302.018
302.671
303.41
304.322
305.444
300.006
300.01
300.009
300.008
300.008
300.011
300.016
300.024
300.032
300.041
300.051
300.061
300.071
300.08
300.09
300.1
300.111
300.123
300.137
300.155
300.179
300.209
300.251
300.308
300.388
300.503
300.665
300.892
301.203
301.622
302.164
302.79
303.505
304.404
305.508
300.008
300.015
300.018
300.02
300.023
300.027
300.032
300.039
300.048
300.058
300.069
300.08
300.091
300.102
300.113
300.124
300.135
300.146
300.16
300.178
300.202
300.234
300.278
300.34
300.426
300.55
300.724
300.967
301.297
301.73
302.272
302.879
303.574
304.462
305.552
300.01
300.02
300.026
300.03
300.034
300.04
300.047
300.057
300.068
300.08
300.092
300.105
300.118
300.13
300.143
300.155
300.168
300.181
300.195
300.212
300.235
300.266
300.309
300.371
300.46
300.588
300.769
301.021
301.361
301.804
302.345
302.938
303.62
304.499
305.583
300.011
300.024
300.032
300.038
300.045
300.052
300.06
300.07
300.08
300.09
300.101
300.113
300.125
300.138
300.152
300.167
300.183
300.199
300.217
300.238
300.263
300.297
300.343
300.408
300.5
300.631
300.817
301.073
301.418
301.862
302.4
302.984
303.658
304.534
305.614
300.012
300.028
300.038
300.045
300.052
300.059
300.067
300.075
300.084
300.093
300.104
300.115
300.128
300.143
300.159
300.176
300.193
300.212
300.232
300.255
300.282
300.318
300.366
300.435
300.532
300.67
300.864
301.128
301.477
301.924
302.457
303.032
303.7
304.572
305.647
300.013
300.03
300.042
300.05
300.058
300.066
300.075
300.084
300.094
300.104
300.115
300.127
300.141
300.156
300.173
300.192
300.211
300.232
300.254
300.277
300.305
300.34
300.388
300.456
300.556
300.699
300.9
301.172
301.527
301.975
302.504
303.072
303.732
304.599
305.667
300.014
300.034
300.047
300.058
300.068
300.078
300.087
300.097
300.107
300.116
300.125
300.136
300.148
300.162
300.179
300.199
300.221
300.244
300.268
300.294
300.323
300.358
300.405
300.471
300.57
300.715
300.922
301.204
301.57
302.023
302.552
303.113
303.765
304.621
305.675
300.016
300.037
300.053
300.066
300.079
300.091
300.103
300.114
300.124
300.134
300.144
300.154
300.165
300.179
300.194
300.213
300.234
300.258
300.283
300.309
300.338
300.371
300.414
300.475
300.565
300.702
300.904
301.188
301.562
302.024
302.557
303.117
303.76
304.601
305.643
300.017
300.042
300.062
300.079
300.096
300.112
300.126
300.139
300.151
300.162
300.172
300.183
300.195
300.209
300.225
300.243
300.264
300.287
300.312
300.338
300.365
300.396
300.434
300.486
300.564
300.685
300.872
301.146
301.52
301.989
302.531
303.095
303.734
304.564
305.596
300.02
300.049
300.074
300.095
300.115
300.133
300.148
300.161
300.173
300.185
300.196
300.208
300.222
300.237
300.255
300.275
300.297
300.321
300.347
300.373
300.402
300.432
300.467
300.511
300.575
300.676
300.836
301.084
301.441
301.908
302.458
303.031
303.671
304.491
305.516
300.022
300.057
300.086
300.112
300.135
300.154
300.17
300.184
300.197
300.211
300.225
300.239
300.256
300.274
300.294
300.316
300.339
300.364
300.391
300.418
300.447
300.479
300.513
300.555
300.612
300.697
300.832
301.048
301.373
301.822
302.369
302.949
303.59
304.405
305.428
300.025
300.066
300.1
300.128
300.152
300.171
300.187
300.202
300.216
300.23
300.246
300.262
300.281
300.303
300.326
300.352
300.379
300.407
300.436
300.466
300.498
300.531
300.568
300.61
300.665
300.743
300.862
301.051
301.343
301.76
302.29
302.863
303.498
304.312
305.341
300.027
300.071
300.105
300.133
300.156
300.175
300.193
300.209
300.224
300.24
300.256
300.274
300.294
300.318
300.345
300.376
300.408
300.441
300.474
300.508
300.543
300.58
300.621
300.668
300.727
300.804
300.918
301.091
301.357
301.743
302.244
302.796
303.419
304.236
305.279
300.027
300.068
300.102
300.13
300.156
300.18
300.201
300.22
300.239
300.256
300.274
300.293
300.314
300.339
300.369
300.403
300.439
300.476
300.512
300.549
300.587
300.627
300.673
300.726
300.791
300.874
300.99
301.16
301.413
301.775
302.244
302.765
303.369
304.188
305.245
300.026
300.068
300.105
300.14
300.172
300.2
300.224
300.246
300.267
300.286
300.305
300.324
300.345
300.371
300.401
300.436
300.475
300.514
300.553
300.592
300.632
300.675
300.723
300.781
300.852
300.943
301.066
301.24
301.489
301.835
302.275
302.763
303.347
304.166
305.23
300.029
300.079
300.124
300.165
300.202
300.232
300.257
300.28
300.302
300.322
300.342
300.361
300.383
300.409
300.44
300.477
300.516
300.557
300.598
300.638
300.679
300.724
300.775
300.837
300.913
301.012
301.143
301.324
301.573
301.908
302.322
302.781
303.345
304.162
305.233
300.033
300.091
300.142
300.188
300.226
300.257
300.283
300.307
300.331
300.353
300.373
300.394
300.418
300.445
300.479
300.518
300.56
300.603
300.645
300.687
300.729
300.774
300.826
300.889
300.968
301.072
301.21
301.396
301.647
301.972
302.364
302.799
303.35
304.168
305.252
300.036
300.099
300.155
300.204
300.243
300.275
300.303
300.329
300.355
300.378
300.401
300.425
300.452
300.483
300.52
300.563
300.609
300.655
300.7
300.744
300.788
300.834
300.887
300.951
301.033
301.14
301.282
301.472
301.722
302.038
302.412
302.831
303.376
304.202
305.306
300.039
300.107
300.168
300.221
300.263
300.297
300.325
300.352
300.376
300.399
300.422
300.446
300.475
300.509
300.551
300.599
300.651
300.704
300.755
300.803
300.849
300.898
300.953
301.019
301.103
301.214
301.359
301.551
301.8
302.107
302.467
302.875
303.42
304.264
305.396
300.042
300.116
300.184
300.243
300.289
300.326
300.357
300.385
300.408
300.428
300.448
300.469
300.496
300.53
300.573
300.625
300.684
300.746
300.807
300.864
300.918
300.973
301.032
301.102
301.19
301.304
301.453
301.647
301.893
302.194
302.543
302.946
303.498
304.366
305.53
300.046
300.129
300.204
300.269
300.319
300.359
300.394
300.424
300.448
300.466
300.484
300.503
300.528
300.56
300.602
300.654
300.716
300.783
300.852
300.919
300.983
301.047
301.114
301.191
301.286
301.406
301.56
301.757
302.003
302.299
302.641
303.044
303.607
304.499
305.686
300.049
300.139
300.221
300.292
300.345
300.389
300.427
300.459
300.482
300.499
300.513
300.53
300.554
300.586
300.628
300.681
300.746
300.819
300.896
300.973
301.049
301.124
301.201
301.288
301.392
301.52
301.682
301.884
302.131
302.425
302.765
303.172
303.747
304.658
305.853
300.054
300.154
300.245
300.321
300.378
300.425
300.469
300.505
300.529
300.545
300.556
300.569
300.587
300.615
300.654
300.705
300.768
300.843
300.925
301.011
301.097
301.184
301.273
301.371
301.485
301.623
301.793
302.002
302.253
302.548
302.889
303.298
303.881
304.799
305.988
300.06
300.17
300.267
300.344
300.401
300.452
300.499
300.538
300.567
300.587
300.602
300.618
300.637
300.664
300.701
300.75
300.812
300.886
300.97
301.06
301.154
301.249
301.348
301.456
301.579
301.725
301.902
302.117
302.372
302.669
303.009
303.419
304.006
304.923
306.097
300.062
300.173
300.272
300.35
300.409
300.461
300.511
300.554
300.587
300.611
300.63
300.647
300.669
300.697
300.735
300.786
300.85
300.926
301.012
301.107
301.206
301.308
301.416
301.532
301.664
301.817
302
302.219
302.477
302.774
303.113
303.52
304.104
305.012
306.17
300.065
300.184
300.287
300.365
300.425
300.478
300.53
300.578
300.617
300.646
300.667
300.686
300.707
300.735
300.774
300.826
300.894
300.975
301.067
301.167
301.271
301.379
301.493
301.617
301.755
301.914
302.101
302.322
302.58
302.875
303.209
303.612
304.191
305.094
306.246
300.068
300.191
300.292
300.368
300.424
300.472
300.52
300.57
300.618
300.659
300.691
300.716
300.739
300.767
300.805
300.857
300.926
301.013
301.115
301.226
301.34
301.455
301.574
301.702
301.844
302.006
302.197
302.419
302.676
302.968
303.299
303.697
304.273
305.173
306.32
300.067
300.187
300.286
300.361
300.415
300.458
300.5
300.544
300.593
300.643
300.689
300.728
300.76
300.791
300.827
300.875
300.941
301.029
301.138
301.264
301.397
301.531
301.664
301.799
301.946
302.11
302.301
302.523
302.778
303.068
303.396
303.792
304.367
305.258
306.382
300.069
300.192
300.293
300.369
300.423
300.463
300.498
300.532
300.57
300.616
300.667
300.718
300.763
300.803
300.843
300.888
300.947
301.025
301.128
301.256
301.404
301.56
301.718
301.874
302.034
302.206
302.4
302.621
302.874
303.159
303.481
303.871
304.433
305.297
306.393
300.067
300.185
300.285
300.363
300.42
300.463
300.498
300.528
300.557
300.592
300.635
300.688
300.743
300.797
300.847
300.898
300.956
301.027
301.119
301.235
301.377
301.541
301.717
301.898
302.08
302.269
302.472
302.696
302.946
303.225
303.538
303.918
304.468
305.315
306.409
300.066
300.185
300.286
300.367
300.429
300.476
300.514
300.545
300.572
300.598
300.629
300.669
300.72
300.777
300.837
300.898
300.962
301.036
301.126
301.234
301.364
301.518
301.692
301.881
302.079
302.285
302.5
302.731
302.983
303.259
303.569
303.945
304.494
305.349
306.462
300.067
300.185
300.287
300.37
300.433
300.481
300.52
300.553
300.582
300.609
300.637
300.67
300.712
300.764
300.823
300.888
300.959
301.041
301.138
301.254
301.387
301.538
301.705
301.888
302.085
302.295
302.518
302.756
303.013
303.292
303.605
303.99
304.555
305.425
306.538
300.066
300.184
300.288
300.374
300.441
300.492
300.532
300.564
300.591
300.616
300.641
300.672
300.709
300.756
300.811
300.873
300.943
301.026
301.127
301.252
301.401
301.569
301.748
301.935
302.131
302.339
302.561
302.799
303.058
303.339
303.656
304.048
304.621
305.483
306.562
300.068
300.19
300.298
300.387
300.456
300.509
300.551
300.585
300.612
300.635
300.656
300.68
300.711
300.752
300.803
300.861
300.926
301.001
301.093
301.211
301.362
301.543
301.746
301.958
302.172
302.389
302.613
302.85
303.105
303.383
303.696
304.084
304.647
305.479
306.522
300.069
300.193
300.301
300.39
300.461
300.516
300.56
300.596
300.625
300.649
300.669
300.691
300.718
300.754
300.8
300.856
300.919
300.988
301.068
301.168
301.298
301.467
301.673
301.904
302.145
302.386
302.626
302.87
303.125
303.4
303.707
304.085
304.631
305.44
306.478
300.069
300.194
300.304
300.397
300.472
300.531
300.578
300.616
300.646
300.668
300.687
300.705
300.727
300.757
300.799
300.853
300.917
300.988
301.065
301.155
301.267
301.41
301.594
301.816
302.066
302.328
302.589
302.849
303.112
303.388
303.694
304.069
304.612
305.426
306.487
300.069
300.196
300.311
300.409
300.488
300.55
300.6
300.639
300.669
300.691
300.708
300.722
300.738
300.762
300.797
300.846
300.909
300.983
301.066
301.161
301.273
301.409
301.576
301.779
302.014
302.273
302.544
302.816
303.091
303.376
303.688
304.074
304.634
305.47
306.539
300.072
300.205
300.326
300.43
300.513
300.577
300.628
300.668
300.699
300.721
300.736
300.748
300.76
300.777
300.804
300.845
300.901
300.972
301.055
301.154
301.273
301.419
301.595
301.799
302.028
302.278
302.543
302.817
303.099
303.393
303.716
304.117
304.693
305.521
306.544
300.075
300.215
300.343
300.452
300.538
300.604
300.656
300.696
300.726
300.748
300.762
300.772
300.781
300.795
300.816
300.849
300.897
300.96
301.036
301.128
301.24
301.385
301.57
301.793
302.043
302.306
302.576
302.85
303.131
303.426
303.75
304.15
304.711
305.488
306.446
300.081
300.233
300.37
300.485
300.574
300.641
300.693
300.733
300.762
300.782
300.794
300.803
300.81
300.82
300.837
300.865
300.907
300.962
301.03
301.109
301.202
301.322
301.485
301.7
301.963
302.254
302.55
302.841
303.128
303.42
303.736
304.116
304.642
305.373
306.316
300.086
300.244
300.387
300.506
300.597
300.667
300.72
300.76
300.789
300.809
300.822
300.829
300.836
300.844
300.86
300.885
300.924
300.978
301.045
301.12
301.202
301.295
301.418
301.589
301.822
302.109
302.425
302.741
303.048
303.35
303.665
304.036
304.545
305.277
306.258
300.089
300.256
300.406
300.531
300.627
300.7
300.755
300.796
300.825
300.844
300.855
300.86
300.864
300.87
300.881
300.903
300.939
300.992
301.063
301.146
301.233
301.321
301.419
301.548
301.732
301.981
302.284
302.611
302.938
303.259
303.588
303.971
304.496
305.259
306.276
300.095
300.273
300.432
300.563
300.662
300.736
300.792
300.833
300.862
300.88
300.89
300.894
300.896
300.899
300.906
300.923
300.954
301.004
301.078
301.172
301.277
301.382
301.484
301.595
301.742
301.947
302.217
302.532
302.86
303.187
303.527
303.927
304.48
305.272
306.298
300.098
300.282
300.447
300.583
300.687
300.764
300.822
300.865
300.895
300.913
300.923
300.927
300.927
300.928
300.931
300.941
300.964
301.005
301.071
301.167
301.29
301.426
301.561
301.689
301.829
302.006
302.239
302.524
302.835
303.152
303.485
303.89
304.462
305.268
306.289
300.104
300.3
300.476
300.62
300.727
300.805
300.865
300.908
300.936
300.954
300.962
300.965
300.964
300.963
300.962
300.966
300.979
301.006
301.055
301.134
301.25
301.402
301.575
301.751
301.923
302.104
302.316
302.57
302.854
303.151
303.466
303.857
304.421
305.22
306.229
300.111
300.319
300.504
300.652
300.761
300.839
300.898
300.941
300.97
300.987
300.996
300.999
301
300.998
300.996
300.997
301.003
301.018
301.047
301.098
301.182
301.31
301.484
301.691
301.912
302.136
302.366
302.614
302.881
303.159
303.454
303.817
304.35
305.131
306.135
300.116
300.332
300.523
300.674
300.785
300.865
300.926
300.97
301
301.019
301.029
301.034
301.035
301.035
301.033
301.033
301.036
301.044
301.061
301.091
301.144
301.229
301.36
301.543
301.773
302.031
302.3
302.574
302.851
303.129
303.416
303.76
304.264
305.035
306.06
300.122
300.349
300.545
300.699
300.812
300.895
300.956
301.001
301.032
301.05
301.061
301.067
301.07
301.071
301.071
301.072
301.074
301.08
301.092
301.112
301.146
301.201
301.289
301.423
301.615
301.859
302.142
302.444
302.749
303.049
303.35
303.695
304.192
304.979
306.042
300.122
300.347
300.543
300.702
300.821
300.91
300.977
301.026
301.059
301.08
301.091
301.097
301.1
301.103
301.105
301.108
301.113
301.12
301.132
301.15
301.178
301.22
301.284
301.384
301.534
301.742
302.007
302.314
302.64
302.967
303.292
303.653
304.166
304.984
306.082
300.123
300.353
300.557
300.726
300.853
300.948
301.019
301.07
301.104
301.123
301.132
301.136
301.137
301.138
301.14
301.144
301.15
301.159
301.172
301.19
301.217
301.256