/*--------------------------------*- C++ -*----------------------------------*\
| =========                 |                                                 |
| \\      /  F ield         | OpenFOAM: The Open Source CFD Toolbox           |
|  \\    /   O peration     | Version:  v2006                                 |
|   \\  /    A nd           | Website:  www.openfoam.com                      |
|    \\/     M anipulation  |                                                 |
\*---------------------------------------------------------------------------*/
FoamFile
{
    version     2.0;
    format      ascii;
    class       volScalarField;
    location    "32";
    object      T;
}
// * * * * * * * * * * * * * * * * * * * * * * * * * * * * * * * * * * * * * //

dimensions      [0 0 0 1 0 0 0];


internalField   nonuniform List<scalar> 
78750
(
299.577
299.166
299.128
299.113
299.104
299.097
299.091
299.086
299.081
299.077
299.072
299.067
299.062
299.058
299.053
299.048
299.043
299.039
299.034
299.029
299.024
299.019
299.013
299.007
299.001
298.994
298.986
298.977
298.967
298.959
298.971
299.06
299.358
300.028
301.077
299.835
299.56
299.374
299.271
299.217
299.188
299.172
299.161
299.153
299.146
299.14
299.135
299.13
299.125
299.121
299.117
299.113
299.109
299.105
299.101
299.096
299.092
299.087
299.082
299.077
299.072
299.067
299.065
299.068
299.088
299.15
299.317
299.691
300.352
301.341
299.865
299.614
299.415
299.272
299.181
299.131
299.106
299.094
299.088
299.083
299.08
299.078
299.079
299.08
299.083
299.086
299.09
299.095
299.099
299.104
299.109
299.115
299.122
299.131
299.142
299.156
299.177
299.208
299.257
299.341
299.491
299.756
300.197
300.873
301.859
299.895
299.697
299.542
299.423
299.33
299.257
299.201
299.157
299.122
299.095
299.077
299.067
299.065
299.069
299.078
299.088
299.099
299.108
299.115
299.119
299.121
299.12
299.117
299.115
299.116
299.123
299.142
299.18
299.248
299.366
299.565
299.892
300.396
301.12
302.128
299.918
299.756
299.617
299.5
299.397
299.306
299.229
299.171
299.136
299.129
299.147
299.184
299.232
299.282
299.329
299.369
299.402
299.425
299.44
299.446
299.444
299.433
299.415
299.389
299.358
299.328
299.309
299.317
299.375
299.508
299.748
300.13
300.673
301.422
302.448
299.924
299.773
299.639
299.524
299.424
299.342
299.287
299.264
299.274
299.312
299.369
299.432
299.493
299.548
299.593
299.629
299.657
299.678
299.693
299.703
299.706
299.704
299.695
299.677
299.651
299.615
299.573
299.541
299.545
299.628
299.841
300.227
300.801
301.585
302.627
299.933
299.798
299.676
299.572
299.486
299.423
299.389
299.388
299.414
299.456
299.506
299.553
299.593
299.626
299.653
299.674
299.691
299.705
299.716
299.724
299.73
299.733
299.733
299.731
299.725
299.716
299.706
299.703
299.729
299.822
300.036
300.425
301.004
301.796
302.842
299.941
299.819
299.71
299.617
299.545
299.497
299.479
299.487
299.515
299.554
299.596
299.636
299.671
299.701
299.726
299.748
299.767
299.782
299.794
299.804
299.81
299.813
299.814
299.811
299.806
299.799
299.794
299.8
299.836
299.938
300.157
300.551
301.14
301.943
302.995
299.948
299.842
299.746
299.666
299.606
299.572
299.564
299.578
299.607
299.642
299.679
299.712
299.742
299.767
299.789
299.808
299.825
299.839
299.852
299.863
299.871
299.878
299.884
299.887
299.889
299.892
299.898
299.916
299.966
300.081
300.313
300.716
301.31
302.116
303.169
299.956
299.866
299.783
299.714
299.665
299.637
299.631
299.642
299.664
299.691
299.719
299.746
299.771
299.792
299.812
299.829
299.845
299.859
299.871
299.883
299.893
299.902
299.91
299.918
299.927
299.938
299.957
299.991
300.059
300.192
300.439
300.852
301.453
302.263
303.318
299.965
299.891
299.823
299.766
299.724
299.701
299.695
299.703
299.721
299.744
299.769
299.794
299.818
299.839
299.858
299.875
299.89
299.904
299.916
299.927
299.937
299.947
299.956
299.966
299.978
299.994
300.02
300.065
300.148
300.301
300.567
300.996
301.604
302.416
303.471
299.973
299.914
299.859
299.813
299.779
299.76
299.755
299.761
299.775
299.793
299.814
299.834
299.853
299.871
299.887
299.901
299.914
299.926
299.937
299.947
299.958
299.968
299.979
299.993
300.009
300.031
300.064
300.119
300.215
300.383
300.666
301.11
301.726
302.541
303.597
299.98
299.934
299.889
299.851
299.824
299.808
299.803
299.808
299.819
299.834
299.852
299.87
299.887
299.903
299.918
299.931
299.943
299.954
299.963
299.973
299.982
299.992
300.004
300.018
300.037
300.063
300.101
300.164
300.271
300.452
300.75
301.209
301.835
302.653
303.709
299.985
299.948
299.912
299.881
299.858
299.845
299.841
299.846
299.856
299.87
299.886
299.903
299.919
299.935
299.949
299.962
299.973
299.983
299.992
300
300.009
300.017
300.028
300.041
300.06
300.088
300.13
300.198
300.311
300.5
300.808
301.278
301.912
302.735
303.792
299.989
299.961
299.932
299.906
299.888
299.877
299.875
299.879
299.889
299.902
299.918
299.935
299.952
299.969
299.986
300
300.014
300.025
300.035
300.043
300.051
300.058
300.066
300.076
300.092
300.118
300.16
300.231
300.348
300.544
300.86
301.339
301.979
302.806
303.868
299.993
299.972
299.949
299.928
299.912
299.904
299.902
299.907
299.916
299.93
299.947
299.967
299.989
300.01
300.03
300.048
300.064
300.078
300.09
300.099
300.107
300.115
300.122
300.13
300.144
300.166
300.207
300.276
300.395
300.594
300.915
301.4
302.045
302.874
303.94
299.996
299.981
299.963
299.946
299.932
299.924
299.923
299.927
299.937
299.953
299.974
299.997
300.023
300.047
300.07
300.09
300.108
300.123
300.136
300.147
300.157
300.167
300.176
300.187
300.203
300.228
300.27
300.343
300.466
300.671
300.998
301.489
302.133
302.961
304.032
299.999
299.988
299.975
299.961
299.95
299.944
299.944
299.95
299.962
299.98
300.003
300.029
300.055
300.08
300.102
300.121
300.138
300.152
300.166
300.178
300.19
300.201
300.214
300.229
300.25
300.281
300.332
300.414
300.548
300.762
301.098
301.595
302.238
303.064
304.14
300.001
299.996
299.987
299.978
299.971
299.968
299.97
299.979
299.995
300.015
300.039
300.063
300.087
300.108
300.127
300.143
300.158
300.171
300.184
300.196
300.208
300.221
300.235
300.253
300.278
300.315
300.376
300.472
300.624
300.856
301.206
301.712
302.356
303.183
304.264
300.004
300.003
299.999
299.995
299.993
299.995
300.002
300.016
300.035
300.057
300.079
300.101
300.12
300.137
300.152
300.166
300.179
300.191
300.202
300.214
300.226
300.239
300.254
300.273
300.299
300.339
300.404
300.511
300.679
300.934
301.305
301.825
302.476
303.304
304.388
300.006
300.011
300.012
300.012
300.016
300.024
300.036
300.053
300.073
300.092
300.111
300.128
300.143
300.157
300.17
300.183
300.195
300.207
300.22
300.232
300.246
300.26
300.276
300.296
300.323
300.364
300.43
300.541
300.72
300.994
301.39
301.929
302.589
303.42
304.501
300.009
300.018
300.024
300.029
300.037
300.048
300.062
300.078
300.094
300.109
300.124
300.138
300.152
300.165
300.179
300.193
300.207
300.221
300.235
300.25
300.265
300.282
300.301
300.323
300.352
300.393
300.459
300.569
300.751
301.038
301.452
302.012
302.682
303.513
304.588
300.011
300.024
300.034
300.042
300.051
300.062
300.073
300.086
300.098
300.111
300.125
300.14
300.155
300.17
300.186
300.201
300.216
300.232
300.248
300.264
300.282
300.301
300.323
300.348
300.38
300.424
300.489
300.596
300.776
301.066
301.492
302.067
302.746
303.576
304.642
300.012
300.028
300.04
300.049
300.057
300.067
300.076
300.088
300.1
300.114
300.13
300.146
300.163
300.18
300.196
300.212
300.228
300.243
300.26
300.277
300.295
300.315
300.339
300.368
300.403
300.448
300.513
300.615
300.787
301.07
301.498
302.082
302.768
303.598
304.66
300.013
300.031
300.043
300.053
300.062
300.071
300.082
300.095
300.109
300.125
300.142
300.16
300.177
300.194
300.21
300.226
300.241
300.256
300.272
300.288
300.307
300.328
300.352
300.383
300.421
300.469
300.534
300.631
300.789
301.055
301.473
302.058
302.751
303.586
304.65
300.014
300.033
300.048
300.059
300.071
300.082
300.096
300.111
300.128
300.145
300.163
300.181
300.198
300.214
300.23
300.245
300.259
300.274
300.289
300.306
300.323
300.344
300.369
300.401
300.441
300.493
300.561
300.654
300.799
301.042
301.438
302.015
302.712
303.556
304.63
300.015
300.038
300.055
300.071
300.086
300.101
300.118
300.136
300.154
300.172
300.19
300.207
300.224
300.24
300.255
300.27
300.285
300.299
300.315
300.331
300.349
300.371
300.397
300.431
300.475
300.534
300.607
300.702
300.84
301.065
301.437
301.997
302.689
303.539
304.627
300.017
300.044
300.066
300.086
300.105
300.124
300.143
300.162
300.181
300.199
300.217
300.234
300.25
300.266
300.281
300.297
300.312
300.327
300.343
300.36
300.379
300.403
300.432
300.472
300.526
300.597
300.685
300.792
300.935
301.155
301.514
302.058
302.734
303.58
304.686
300.02
300.051
300.078
300.101
300.123
300.143
300.163
300.182
300.201
300.219
300.237
300.254
300.271
300.287
300.303
300.319
300.334
300.35
300.366
300.384
300.405
300.431
300.466
300.514
300.584
300.678
300.793
300.926
301.09
301.324
301.686
302.218
302.876
303.716
304.834
300.022
300.057
300.086
300.111
300.134
300.155
300.176
300.196
300.216
300.235
300.253
300.271
300.289
300.305
300.322
300.337
300.353
300.368
300.385
300.403
300.424
300.451
300.489
300.545
300.631
300.753
300.908
301.084
301.284
301.543
301.915
302.434
303.08
303.922
305.043
300.023
300.06
300.091
300.118
300.142
300.165
300.188
300.21
300.231
300.252
300.271
300.29
300.308
300.325
300.341
300.357
300.373
300.388
300.404
300.421
300.44
300.465
300.501
300.556
300.647
300.787
300.982
301.215
301.471
301.767
302.155
302.666
303.305
304.151
305.266
300.024
300.064
300.097
300.126
300.153
300.178
300.203
300.227
300.249
300.271
300.291
300.31
300.328
300.345
300.362
300.378
300.394
300.409
300.425
300.441
300.459
300.48
300.509
300.554
300.63
300.761
300.97
301.253
301.58
301.936
302.352
302.864
303.498
304.34
305.441
300.025
300.067
300.103
300.135
300.164
300.192
300.218
300.242
300.266
300.287
300.308
300.327
300.346
300.363
300.38
300.397
300.413
300.429
300.446
300.462
300.48
300.499
300.522
300.554
300.607
300.704
300.879
301.163
301.547
301.985
302.46
302.995
303.63
304.463
305.548
300.027
300.071
300.109
300.143
300.174
300.203
300.231
300.256
300.28
300.303
300.324
300.344
300.363
300.381
300.398
300.415
300.432
300.449
300.466
300.484
300.502
300.522
300.543
300.568
300.603
300.663
300.778
300.999
301.365
301.863
302.433
303.042
303.705
304.53
305.596
300.028
300.075
300.115
300.151
300.184
300.216
300.245
300.272
300.297
300.321
300.343
300.363
300.383
300.401
300.419
300.437
300.454
300.472
300.49
300.509
300.529
300.551
300.574
300.599
300.627
300.664
300.73
300.867
301.139
301.599
302.226
302.94
303.666
304.497
305.538
300.029
300.079
300.122
300.161
300.197
300.23
300.261
300.29
300.316
300.341
300.363
300.384
300.404
300.423
300.442
300.46
300.479
300.497
300.517
300.539
300.562
300.589
300.617
300.646
300.675
300.707
300.749
300.83
301.003
301.349
301.923
302.677
303.461
304.314
305.346
300.031
300.084
300.13
300.172
300.211
300.247
300.279
300.309
300.336
300.362
300.385
300.406
300.427
300.447
300.466
300.485
300.504
300.525
300.547
300.572
300.601
300.635
300.672
300.711
300.748
300.782
300.82
300.879
301
301.255
301.729
302.435
303.212
304.068
305.103
300.033
300.089
300.139
300.185
300.226
300.264
300.298
300.329
300.357
300.383
300.407
300.429
300.45
300.47
300.49
300.51
300.53
300.553
300.578
300.608
300.645
300.69
300.742
300.795
300.844
300.886
300.927
300.984
301.09
301.304
301.708
302.335
303.05
303.875
304.928
300.035
300.095
300.148
300.197
300.241
300.28
300.316
300.348
300.377
300.403
300.427
300.45
300.472
300.492
300.512
300.533
300.554
300.578
300.607
300.642
300.689
300.75
300.822
300.895
300.959
301.012
301.063
301.131
301.244
301.453
301.822
302.376
303.031
303.841
304.926
300.036
300.1
300.157
300.208
300.254
300.295
300.332
300.365
300.394
300.421
300.446
300.469
300.491
300.512
300.532
300.552
300.574
300.598
300.628
300.668
300.723
300.798
300.893
300.992
301.081
301.155
301.226
301.313
301.447
301.669
302.025
302.524
303.144
303.97
305.085
300.038
300.105
300.164
300.218
300.265
300.308
300.346
300.379
300.41
300.438
300.463
300.487
300.509
300.53
300.55
300.57
300.59
300.613
300.641
300.679
300.735
300.816
300.928
301.06
301.188
301.298
301.399
301.514
301.673
301.911
302.263
302.729
303.332
304.181
305.314
300.039
300.109
300.17
300.226
300.275
300.319
300.358
300.393
300.424
300.453
300.479
300.503
300.526
300.547
300.567
300.586
300.606
300.626
300.65
300.682
300.729
300.803
300.914
301.066
301.238
301.401
301.548
301.699
301.885
302.14
302.49
302.94
303.536
304.397
305.532
300.041
300.112
300.176
300.233
300.284
300.33
300.37
300.406
300.438
300.467
300.494
300.519
300.542
300.564
300.584
300.603
300.622
300.641
300.662
300.687
300.722
300.777
300.867
301.008
301.201
301.418
301.629
301.831
302.051
302.324
302.677
303.119
303.71
304.571
305.698
300.041
300.115
300.18
300.239
300.293
300.34
300.382
300.419
300.452
300.482
300.51
300.535
300.559
300.581
300.602
300.622
300.64
300.659
300.677
300.698
300.724
300.762
300.824
300.929
301.098
301.332
301.601
301.872
302.144
302.446
302.809
303.251
303.838
304.692
305.808
300.043
300.118
300.185
300.247
300.302
300.351
300.394
300.432
300.467
300.498
300.526
300.553
300.577
300.6
300.621
300.641
300.66
300.679
300.697
300.716
300.738
300.765
300.806
300.874
300.994
301.191
301.47
301.797
302.139
302.494
302.885
303.336
303.921
304.769
305.875
300.044
300.121
300.191
300.255
300.312
300.363
300.408
300.447
300.483
300.515
300.544
300.571
300.596
300.62
300.642
300.662
300.682
300.701
300.72
300.74
300.76
300.783
300.813
300.858
300.935
301.073
301.304
301.634
302.03
302.453
302.898
303.377
303.969
304.811
305.91
300.045
300.125
300.198
300.264
300.324
300.377
300.423
300.464
300.501
300.534
300.564
300.592
300.618
300.642
300.664
300.685
300.706
300.726
300.746
300.766
300.788
300.811
300.838
300.872
300.924
301.016
301.181
301.459
301.854
302.329
302.843
303.373
303.988
304.829
305.926
300.046
300.13
300.206
300.275
300.338
300.393
300.441
300.483
300.52
300.554
300.586
300.614
300.641
300.665
300.688
300.71
300.731
300.753
300.774
300.796
300.82
300.845
300.873
300.905
300.948
301.014
301.13
301.341
301.687
302.166
302.734
303.329
303.984
304.835
305.932
300.048
300.136
300.215
300.288
300.353
300.41
300.459
300.503
300.541
300.576
300.608
300.638
300.665
300.69
300.713
300.736
300.758
300.78
300.803
300.828
300.855
300.884
300.917
300.953
300.995
301.052
301.143
301.305
301.591
302.034
302.618
303.268
303.966
304.831
305.93
300.05
300.142
300.225
300.301
300.369
300.428
300.479
300.523
300.563
300.599
300.632
300.662
300.689
300.715
300.739
300.762
300.785
300.808
300.833
300.861
300.892
300.928
300.968
301.013
301.062
301.12
301.204
301.343
301.585
301.985
302.554
303.228
303.955
304.832
305.934
300.053
300.148
300.236
300.315
300.386
300.446
300.498
300.544
300.585
300.622
300.655
300.686
300.714
300.74
300.764
300.788
300.812
300.836
300.863
300.893
300.93
300.974
301.026
301.083
301.145
301.215
301.306
301.443
301.672
302.045
302.592
303.259
303.99
304.869
305.96
300.055
300.155
300.246
300.329
300.402
300.464
300.517
300.564
300.606
300.644
300.678
300.709
300.738
300.764
300.789
300.813
300.837
300.862
300.89
300.923
300.964
301.017
301.083
301.159
301.242
301.332
301.443
301.597
301.836
302.205
302.732
303.362
304.068
304.933
305.999
300.057
300.161
300.256
300.342
300.416
300.48
300.535
300.583
300.626
300.665
300.7
300.732
300.761
300.787
300.812
300.836
300.86
300.885
300.912
300.946
300.99
301.05
301.128
301.225
301.334
301.453
301.592
301.773
302.031
302.404
302.906
303.483
304.144
304.985
306.022
300.059
300.167
300.265
300.353
300.43
300.495
300.551
300.6
300.644
300.684
300.72
300.753
300.782
300.81
300.835
300.858
300.881
300.905
300.932
300.964
301.006
301.066
301.15
301.261
301.396
301.547
301.718
301.926
302.201
302.571
303.042
303.565
304.182
304.998
306.018
300.061
300.171
300.272
300.363
300.442
300.508
300.566
300.616
300.661
300.702
300.739
300.773
300.803
300.831
300.857
300.88
300.903
300.926
300.95
300.979
301.016
301.069
301.148
301.26
301.409
301.586
301.787
302.021
302.307
302.67
303.11
303.593
304.176
304.976
305.995
300.062
300.176
300.28
300.373
300.453
300.521
300.58
300.631
300.678
300.72
300.758
300.793
300.824
300.853
300.879
300.903
300.925
300.947
300.97
300.996
301.027
301.071
301.136
301.235
301.378
301.566
301.791
302.048
302.348
302.707
303.125
303.582
304.145
304.938
305.966
300.064
300.18
300.287
300.382
300.464
300.533
300.593
300.646
300.693
300.737
300.776
300.812
300.845
300.874
300.901
300.926
300.948
300.97
300.992
301.016
301.043
301.079
301.13
301.209
301.332
301.509
301.739
302.015
302.332
302.697
303.109
303.555
304.107
304.9
305.941
300.065
300.185
300.294
300.391
300.474
300.545
300.606
300.66
300.709
300.754
300.795
300.832
300.866
300.896
300.924
300.949
300.973
300.995
301.017
301.04
301.065
301.095
301.136
301.198
301.295
301.445
301.661
301.941
302.274
302.655
303.075
303.523
304.075
304.87
305.923
300.067
300.189
300.3
300.399
300.485
300.556
300.618
300.674
300.724
300.77
300.813
300.851
300.886
300.918
300.947
300.974
300.998
301.021
301.044
301.066
301.09
301.118
301.154
301.204
301.28
301.402
301.589
301.853
302.191
302.589
303.03
303.492
304.05
304.85
305.912
300.068
300.194
300.307
300.408
300.495
300.568
300.631
300.688
300.74
300.787
300.831
300.871
300.908
300.941
300.971
300.998
301.024
301.048
301.072
301.095
301.12
301.147
301.18
301.224
301.288
301.387
301.543
301.778
302.104
302.511
302.975
303.459
304.028
304.834
305.906
300.07
300.198
300.314
300.417
300.505
300.58
300.644
300.702
300.755
300.805
300.85
300.892
300.93
300.964
300.995
301.024
301.05
301.076
301.101
301.125
301.151
301.179
301.213
301.255
301.314
301.4
301.533
301.739
302.041
302.442
302.921
303.427
304.012
304.826
305.91
300.072
300.203
300.322
300.427
300.517
300.592
300.658
300.717
300.772
300.823
300.87
300.913
300.952
300.988
301.02
301.05
301.078
301.104
301.13
301.156
301.184
301.215
301.251
301.295
301.354
301.436
301.558
301.744
302.022
302.409
302.891
303.411
304.01
304.838
305.938
300.073
300.208
300.33
300.437
300.529
300.606
300.673
300.734
300.79
300.843
300.891
300.935
300.976
301.012
301.045
301.076
301.105
301.133
301.16
301.188
301.218
301.251
301.291
301.341
301.405
301.492
301.613
301.791
302.055
302.428
302.904
303.428
304.037
304.881
305.998
300.075
300.213
300.338
300.448
300.542
300.62
300.689
300.751
300.809
300.863
300.912
300.958
300.999
301.036
301.071
301.102
301.132
301.161
301.19
301.219
301.251
301.288
301.333
301.389
301.462
301.559
301.689
301.872
302.133
302.498
302.967
303.484
304.097
304.958
306.089
300.077
300.219
300.347
300.46
300.556
300.636
300.706
300.769
300.828
300.883
300.934
300.98
301.022
301.061
301.096
301.128
301.159
301.189
301.218
301.249
301.284
301.324
301.373
301.437
301.52
301.63
301.775
301.971
302.24
302.604
303.065
303.571
304.182
305.057
306.194
300.079
300.225
300.357
300.473
300.57
300.652
300.723
300.787
300.847
300.903
300.955
301.002
301.045
301.084
301.12
301.154
301.185
301.216
301.246
301.278
301.314
301.357
301.41
301.48
301.573
301.697
301.859
302.072
302.354
302.723
303.176
303.671
304.279
305.161
306.296
300.081
300.231
300.367
300.485
300.585
300.668
300.74
300.805
300.866
300.923
300.976
301.024
301.067
301.107
301.144
301.178
301.21
301.242
301.273
301.306
301.343
301.387
301.443
301.517
301.617
301.751
301.929
302.16
302.457
302.834
303.283
303.768
304.372
305.254
306.384
300.083
300.237
300.376
300.498
300.599
300.683
300.757
300.823
300.885
300.943
300.996
301.044
301.089
301.13
301.167
301.202
301.235
301.268
301.3
301.334
301.372
301.417
301.473
301.548
301.651
301.791
301.979
302.225
302.537
302.924
303.372
303.853
304.453
305.331
306.453
300.085
300.243
300.385
300.51
300.613
300.699
300.773
300.841
300.904
300.962
301.016
301.065
301.11
301.152
301.19
301.226
301.26
301.293
301.327
301.362
301.401
301.446
301.503
301.578
301.681
301.822
302.014
302.269
302.593
302.989
303.441
303.921
304.518
305.392
306.507
300.087
300.249
300.395
300.522
300.627
300.714
300.79
300.859
300.922
300.981
301.035
301.085
301.131
301.174
301.213
301.25
301.285
301.32
301.354
301.39
301.431
301.477
301.535
301.61
301.711
301.851
302.043
302.3
302.631
303.036
303.493
303.974
304.571
305.443
306.554
300.089
300.255
300.404
300.534
300.641
300.73
300.807
300.877
300.941
301.001
301.055
301.106
301.152
301.195
301.236
301.274
301.31
301.346
301.382
301.42
301.462
301.511
301.57
301.646
301.748
301.886
302.075
302.331
302.665
303.074
303.537
304.02
304.618
305.49
306.602
300.091
300.261
300.414
300.547
300.656
300.746
300.824
300.895
300.96
301.02
301.076
301.127
301.174
301.217
301.259
301.298
301.335
301.373
301.411
301.451
301.495
301.547
301.609
301.689
301.792
301.931
302.12
302.375
302.707
303.119
303.583
304.067
304.668
305.544
306.659
300.093
300.267
300.424
300.559
300.67
300.762
300.841
300.913
300.979
301.04
301.096
301.147
301.195
301.239
301.281
301.322
301.361
301.399
301.439
301.482
301.529
301.584
301.652
301.736
301.845
301.988
302.18
302.435
302.767
303.177
303.639
304.123
304.727
305.609
306.726
300.096
300.274
300.434
300.572
300.685
300.778
300.859
300.932
300.999
301.06
301.117
301.168
301.216
301.261
301.304
301.345
301.385
301.426
301.468
301.513
301.563
301.623
301.695
301.787
301.904
302.055
302.253
302.512
302.845
303.253
303.709
304.19
304.797
305.683
306.801
300.098
300.28
300.445
300.586
300.701
300.795
300.876
300.95
301.018
301.081
301.137
301.189
301.238
301.283
301.327
301.369
301.41
301.452
301.495
301.542
301.596
301.66
301.738
301.837
301.964
302.127
302.335
302.602
302.938
303.342
303.791
304.266
304.874
305.762
306.873
300.1
300.287
300.455
300.599
300.716
300.812
300.894
300.969
301.038
301.1
301.158
301.21
301.259
301.305
301.349
301.391
301.434
301.477
301.522
301.571
301.627
301.695
301.778
301.885
302.022
302.197
302.419
302.696
303.037
303.439
303.878
304.348
304.955
305.837
306.931
300.103
300.294
300.467
300.614
300.732
300.829
300.912
300.988
301.057
301.12
301.177
301.23
301.279
301.325
301.37
301.413
301.456
301.5
301.547
301.598
301.656
301.726
301.813
301.925
302.071
302.259
302.495
302.786
303.135
303.536
303.965
304.428
305.031
305.896
306.963
300.105
300.302
300.478
300.628
300.749
300.847
300.931
301.007
301.076
301.139
301.197
301.249
301.299
301.345
301.39
301.434
301.478
301.523
301.57
301.622
301.682
301.753
301.842
301.957
302.109
302.305
302.555
302.86
303.22
303.622
304.045
304.5
305.091
305.927
306.955
300.108
300.309
300.49
300.643
300.766
300.866
300.951
301.027
301.097
301.159
301.216
301.269
301.318
301.365
301.41
301.454
301.499
301.545
301.593
301.645
301.705
301.777
301.866
301.98
302.132
302.332
302.589
302.905
303.275
303.681
304.1
304.546
305.119
305.916
306.903
300.11
300.317
300.502
300.659
300.785
300.886
300.972
301.049
301.118
301.18
301.236
301.288
301.337
301.383
301.429
301.474
301.519
301.565
301.614
301.667
301.727
301.798
301.885
301.996
302.143
302.338
302.593
302.911
303.285
303.695
304.111
304.547
305.099
305.858
306.814
300.113
300.324
300.514
300.676
300.804
300.907
300.995
301.072
301.141
301.203
301.257
301.308
301.356
301.402
301.447
301.492
301.538
301.585
301.634
301.688
301.747
301.817
301.902
302.008
302.147
302.331
302.573
302.881
303.249
303.655
304.067
304.493
305.026
305.761
306.705
300.116
300.333
300.527
300.693
300.825
300.93
301.019
301.097
301.166
301.226
301.28
301.329
301.376
301.421
301.466
301.511
301.557
301.604
301.654
301.708
301.768
301.837
301.919
302.021
302.152
302.322
302.546
302.834
303.183
303.576
303.979
304.396
304.917
305.648
306.602
300.119
300.341
300.541
300.711
300.846
300.953
301.044
301.123
301.192
301.251
301.304
301.351
301.396
301.441
301.485
301.53
301.576
301.624
301.674
301.728
301.788
301.857
301.938
302.037
302.16
302.319
302.525
302.79
303.115
303.487
303.878
304.286
304.802
305.544
306.522
300.122
300.35
300.555
300.729
300.867
300.978
301.07
301.15
301.219
301.278
301.329
301.375
301.418
301.462
301.505
301.55
301.596
301.643
301.694
301.749
301.809
301.879
301.96
302.057
302.176
302.327
302.519
302.764
303.067
303.418
303.793
304.193
304.708
305.467
306.474
300.125
300.359
300.569
300.748
300.89
301.002
301.096
301.177
301.247
301.305
301.355
301.4
301.442
301.484
301.527
301.57
301.616
301.664
301.714
301.769
301.831
301.901
301.982
302.08
302.198
302.344
302.529
302.76
303.045
303.378
303.741
304.135
304.65
305.425
306.458
300.128
300.368
300.584
300.767
300.912
301.027
301.122
301.205
301.275
301.334
301.383
301.426
301.467
301.508
301.549
301.592
301.638
301.685
301.735
301.791
301.853
301.923
302.006
302.105
302.224
302.369
302.55
302.775
303.049
303.369
303.721
304.111
304.627
305.413
306.465
300.131
300.377
300.599
300.786
300.934
301.052
301.149
301.233
301.304
301.362
301.411
301.453
301.493
301.532
301.573
301.616
301.66
301.707
301.757
301.812
301.874
301.946
302.03
302.13
302.25
302.397
302.578
302.8
303.068
303.381
303.727
304.113
304.631
305.424
306.489
300.134
300.387
300.614
300.806
300.958
301.077
301.177
301.262
301.334
301.392
301.44
301.481
301.52
301.558
301.599
301.64
301.684
301.731
301.78
301.835
301.897
301.968
302.053
302.154
302.277
302.426
302.608
302.831
303.097
303.406
303.748
304.133
304.651
305.448
306.519
300.138
300.397
300.629
300.826
300.981
301.103
301.205
301.291
301.364
301.422
301.469
301.51
301.548
301.586
301.625
301.667
301.71
301.756
301.805
301.859
301.92
301.991
302.075
302.177
302.301
302.453
302.637
302.861
303.128
303.435
303.775
304.16
304.678
305.478
306.551
300.141
300.407
300.645
300.846
301.005
301.13
301.234
301.322
301.395
301.453
301.5
301.539
301.576
301.614
301.654
301.695
301.738
301.784
301.832
301.885
301.945
302.015
302.099
302.2
302.325
302.478
302.665
302.891
303.158
303.465
303.805
304.189
304.708
305.508
306.581
300.145
300.417
300.661
300.868
301.03
301.157
301.263
301.353
301.426
301.484
301.53
301.569
301.605
301.643
301.683
301.725
301.769
301.814
301.862
301.914
301.972
302.041
302.123
302.223
302.347
302.5
302.688
302.915
303.184
303.491
303.831
304.215
304.734
305.534
306.607
300.148
300.428
300.678
300.89
301.055
301.186
301.294
301.385
301.459
301.516
301.561
301.599
301.635
301.673
301.714
301.757
301.802
301.848
301.896
301.947
302.004
302.071
302.151
302.25
302.372
302.523
302.711
302.939
303.208
303.515
303.854
304.238
304.759
305.56
306.634
300.152
300.439
300.696
300.912
301.081
301.214
301.325
301.417
301.492
301.549
301.593
301.629
301.664
301.703
301.745
301.791
301.838
301.885
301.933
301.984
302.041
302.106
302.184
302.28
302.399
302.548
302.734
302.96
303.229
303.535
303.873
304.257
304.779
305.585
306.666
300.156
300.45
300.714
300.935
301.107
301.243
301.356
301.45
301.525
301.582
301.624
301.659
301.693
301.732
301.776
301.825
301.876
301.926
301.976
302.028
302.085
302.149
302.225
302.319
302.435
302.582
302.765
302.989
303.255
303.559
303.896
304.282
304.808
305.622
306.715
300.16
300.462
300.732
300.957
301.133
301.271
301.386
301.482
301.558
301.615
301.656
301.689
301.721
301.759
301.806
301.859
301.914
301.969
302.023
302.078
302.136
302.2
302.276
302.367
302.481
302.625
302.804
303.025
303.288
303.589
303.925
304.312
304.846
305.674
306.784
300.164
300.473
300.749
300.979
301.157
301.299
301.416
301.513
301.59
301.647
301.688
301.719
301.748
301.785
301.833
301.89
301.952
302.014
302.074
302.134
302.195
302.262
302.339
302.431
302.544
302.686
302.863
303.081
303.341
303.639
303.973
304.364
304.908
305.754
306.882
300.168
300.484
300.766
301
301.181
301.325
301.445
301.544
301.622
301.68
301.72
301.748
301.774
301.808
301.856
301.916
301.985
302.055
302.124
302.192
302.26
302.332
302.412
302.506
302.621
302.763
302.938
303.153
303.409
303.703
304.036
304.431
304.987
305.852
306.994
300.171
300.494
300.782
301.019
301.204
301.35
301.472
301.574
301.654
301.712
301.752
301.779
301.801
301.83
301.874
301.936
302.01
302.09
302.17
302.248
302.326
302.407
302.495
302.595
302.714
302.859
303.036
303.25
303.503
303.795
304.126
304.525
305.092
305.97
307.119
300.175
300.504
300.797
301.039
301.226
301.375
301.5
301.603
301.685
301.745
301.785
301.81
301.829
301.852
301.89
301.949
302.026
302.114
302.205
302.296
302.386
302.478
302.576
302.685
302.811
302.961
303.141
303.356
303.608
303.896
304.226
304.627
305.202
306.086
307.233
300.178
300.514
300.812
301.059
301.249
301.401
301.528
301.634
301.717
301.778
301.818
301.843
301.859
301.876
301.906
301.958
302.033
302.125
302.226
302.329
302.434
302.539
302.65
302.771
302.908
303.066
303.252
303.47
303.722
304.01
304.339
304.741
305.318
306.201
307.335
300.182
300.524
300.829
301.08
301.273
301.428
301.558
301.665
301.75
301.812
301.853
301.877
301.891
301.903
301.924
301.967
302.034
302.125
302.231
302.345
302.462
302.581
302.705
302.838
302.985
303.152
303.344
303.565
303.818
304.105
304.432
304.834
305.409
306.285
307.406
300.185
300.535
300.847
301.103
301.3
301.458
301.59
301.699
301.785
301.847
301.889
301.913
301.926
301.934
301.948
301.98
302.038
302.122
302.228
302.348
302.475
302.607
302.744
302.89
303.048
303.224
303.422
303.648
303.903
304.19
304.516
304.916
305.489
306.357
307.465
300.189
300.547
300.866
301.128
301.329
301.49
301.624
301.735
301.822
301.885
301.927
301.951
301.962
301.968
301.976
301.999
302.046
302.12
302.221
302.341
302.474
302.615
302.762
302.918
303.085
303.269
303.473
303.702
303.958
304.244
304.569
304.967
305.537
306.398
307.498
300.194
300.561
300.889
301.156
301.361
301.525
301.662
301.774
301.862
301.925
301.966
301.99
302
302.004
302.009
302.025
302.061
302.126
302.218
302.335
302.47
302.617
302.774
302.939
303.115
303.306
303.516
303.749
304.007
304.294
304.619
305.016
305.585
306.442
307.535
300.199
300.577
300.913
301.186
301.396
301.563
301.702
301.816
301.904
301.966
302.007
302.03
302.039
302.042
302.044
302.055
302.083
302.138
302.221
302.331
302.463
302.613
302.775
302.947
303.13
303.327
303.541
303.777
304.036
304.324
304.648
305.045
305.614
306.467
307.555
300.205
300.594
300.939
301.219
301.432
301.602
301.744
301.859
301.948
302.01
302.049
302.071
302.079
302.08
302.081
302.088
302.111
302.158
302.232