/*--------------------------------*- C++ -*----------------------------------*\
| =========                 |                                                 |
| \\      /  F ield         | OpenFOAM: The Open Source CFD Toolbox           |
|  \\    /   O peration     | Version:  v2006                                 |
|   \\  /    A nd           | Website:  www.openfoam.com                      |
|    \\/     M anipulation  |                                                 |
\*---------------------------------------------------------------------------*/
FoamFile
{
    version     2.0;
    format      ascii;
    class       volVectorField;
    location    "32";
    object      U;
}
// * * * * * * * * * * * * * * * * * * * * * * * * * * * * * * * * * * * * * //

dimensions      [0 1 -1 0 0 0 0];


internalField   nonuniform List<vector> 
78750
(
(-0.0222817 -0.0135379 -0.00542378)
(-0.0201193 -0.0228268 -0.00995559)
(-0.0167453 -0.0222248 -0.0106342)
(-0.0143493 -0.0211312 -0.0106718)
(-0.0119242 -0.0196173 -0.0103156)
(-0.00947282 -0.0180175 -0.00982691)
(-0.00707147 -0.0164876 -0.00934256)
(-0.00477656 -0.0150423 -0.00888326)
(-0.0026094 -0.0136632 -0.00843097)
(-0.000593836 -0.0123518 -0.00797719)
(0.00125796 -0.011119 -0.00752077)
(0.0029425 -0.0099773 -0.00707425)
(0.00447179 -0.00893205 -0.00664517)
(0.00586514 -0.00798143 -0.00623568)
(0.00714075 -0.00711974 -0.00584458)
(0.00831366 -0.00633911 -0.00546863)
(0.00939521 -0.00563023 -0.00510334)
(0.0103931 -0.00498263 -0.00474333)
(0.0113113 -0.00438494 -0.00438262)
(0.0121502 -0.00382503 -0.00401468)
(0.0129067 -0.00329002 -0.00363246)
(0.0135738 -0.00276626 -0.0032283)
(0.0141408 -0.00223937 -0.00279374)
(0.0145935 -0.00169447 -0.00231944)
(0.0149127 -0.00111672 -0.00179547)
(0.0150705 -0.000491408 -0.00121132)
(0.0150344 0.000196688 -0.000551143)
(0.0147654 0.000962334 0.000213748)
(0.0142091 0.00181757 0.00110802)
(0.0133094 0.00276887 0.00217683)
(0.0119881 0.00386611 0.00345614)
(0.0101098 0.0053523 0.0049073)
(0.00747038 0.00760218 0.00612252)
(0.00415071 0.00976981 0.00594906)
(0.000985268 0.00749202 0.00313294)
(-0.00128176 0.00814568 -0.00285377)
(-0.00399546 -0.00503785 -0.01408)
(-0.00761137 -0.0138454 -0.0221663)
(-0.0103962 -0.0173329 -0.0261652)
(-0.0124273 -0.0176265 -0.0274768)
(-0.0138328 -0.0165929 -0.0274469)
(-0.0146897 -0.0153668 -0.0268683)
(-0.0151131 -0.0142598 -0.0261082)
(-0.0151895 -0.0131607 -0.0252482)
(-0.0149701 -0.0120282 -0.0243345)
(-0.0145141 -0.0109133 -0.023409)
(-0.013886 -0.00993365 -0.0225287)
(-0.0131203 -0.00913938 -0.0217303)
(-0.0122239 -0.00850476 -0.0210164)
(-0.0112096 -0.0079908 -0.0203777)
(-0.0100907 -0.00755908 -0.0198008)
(-0.00888018 -0.00717522 -0.019272)
(-0.00759108 -0.00680892 -0.0187777)
(-0.00623675 -0.00643323 -0.0183046)
(-0.00483132 -0.00602275 -0.0178392)
(-0.00339015 -0.0055528 -0.0173675)
(-0.00193067 -0.00499815 -0.0168738)
(-0.000473127 -0.00433277 -0.0163411)
(0.000957781 -0.00352891 -0.0157496)
(0.00233154 -0.00255526 -0.0150749)
(0.0036097 -0.00137484 -0.0142855)
(0.00474443 5.73775e-05 -0.013339)
(0.00566855 0.0017968 -0.0121821)
(0.0062974 0.00392917 -0.0107465)
(0.00657447 0.00664802 -0.00887305)
(0.0063653 0.0103069 -0.00633236)
(0.00547337 0.0152716 -0.00315002)
(0.00386065 0.021085 5.10079e-06)
(0.00195351 0.0245014 0.00187703)
(0.00025602 0.0174709 0.00161219)
(0.000237411 0.0180794 -0.00141929)
(-0.000428644 0.0276825 -0.00660374)
(-0.00229475 0.0291184 -0.00985355)
(-0.00433773 0.0270308 -0.0108792)
(-0.00628854 0.0231901 -0.0102747)
(-0.0079453 0.0185373 -0.00891271)
(-0.00926467 0.0138114 -0.00747918)
(-0.0102445 0.0095699 -0.00624296)
(-0.0108568 0.00623918 -0.00512271)
(-0.011105 0.00375436 -0.00404238)
(-0.0110609 0.00182627 -0.00305713)
(-0.010796 0.000232561 -0.00221435)
(-0.0103614 -0.00110572 -0.00151897)
(-0.0097979 -0.00223131 -0.000971612)
(-0.00913504 -0.00317176 -0.000570654)
(-0.00839504 -0.00394581 -0.000312386)
(-0.00759663 -0.00456566 -0.000192076)
(-0.00675592 -0.00503877 -0.000205005)
(-0.00588428 -0.0053668 -0.000347415)
(-0.00498882 -0.00554539 -0.000616751)
(-0.00407469 -0.00556219 -0.00101086)
(-0.00314526 -0.00539507 -0.00152578)
(-0.00220345 -0.0050098 -0.00215329)
(-0.00125367 -0.00435714 -0.00287778)
(-0.000305916 -0.00337011 -0.00367135)
(0.000615008 -0.0019584 -0.00448568)
(0.00147074 1.52739e-06 -0.00524737)
(0.00222966 0.00267659 -0.00586592)
(0.00284156 0.00625818 -0.00620545)
(0.00321684 0.0109482 -0.00609638)
(0.00323774 0.0168777 -0.00534079)
(0.00279371 0.0237318 -0.00385836)
(0.00195193 0.0298614 -0.00198032)
(0.00096192 0.0316725 -0.000337116)
(0.000108835 0.0206807 0.000508062)
(2.15748e-05 0.0123674 -0.000534149)
(0.00021486 0.0194553 -0.00342991)
(0.000240474 0.0196575 -0.00543035)
(0.000301644 0.0172109 -0.00626616)
(0.000343984 0.0134305 -0.00608865)
(0.000322426 0.0088249 -0.00510833)
(0.000246305 0.00396637 -0.0035483)
(0.000165791 -0.000602089 -0.00157606)
(0.000153443 -0.00451023 0.000668811)
(0.000220104 -0.00762177 0.0030604)
(0.000318272 -0.00995018 0.00545814)
(0.000490754 -0.0116519 0.00771271)
(0.000747284 -0.012902 0.0096776)
(0.00108009 -0.0138229 0.0112742)
(0.00147503 -0.0144847 0.0124994)
(0.00191437 -0.0149244 0.0133949)
(0.00237886 -0.0151607 0.0140192)
(0.00284904 -0.0152045 0.0144271)
(0.00330654 -0.0150649 0.0146576)
(0.00373552 -0.0147491 0.0147288)
(0.00412331 -0.0142606 0.0146384)
(0.00446006 -0.0135944 0.0143631)
(0.00473857 -0.01273 0.0138592)
(0.00495346 -0.0116203 0.0130687)
(0.00510171 -0.010175 0.0119385)
(0.00518421 -0.00824208 0.0104316)
(0.00519599 -0.00561798 0.00853591)
(0.00512505 -0.00207281 0.00632928)
(0.00492993 0.00266063 0.00403051)
(0.00455498 0.00888444 0.00197155)
(0.00396072 0.0167506 0.000528839)
(0.00310275 0.0257068 -5.4284e-05)
(0.00206391 0.0333798 0.000124145)
(0.00102572 0.035395 0.000599052)
(0.00016153 0.0227312 0.000751149)
(0.000106768 0.0111002 -0.000175099)
(0.000355309 0.0194881 -0.00183515)
(0.000417899 0.0212612 -0.00308452)
(0.000345629 0.020093 -0.00352583)
(0.000164163 0.0175528 -0.00306821)
(-0.000116786 0.0141764 -0.00166056)
(-0.000482787 0.0102938 0.000635998)
(-0.000912198 0.00616774 0.00358606)
(-0.00135615 0.00196116 0.00676991)
(-0.0017249 -0.00220872 0.00965256)
(-0.00195064 -0.00618143 0.0117993)
(-0.00201046 -0.00981473 0.0130362)
(-0.0019007 -0.0129852 0.0134583)
(-0.0016318 -0.015612 0.0133117)
(-0.00122474 -0.017666 0.0128587)
(-0.000707308 -0.0191576 0.0123058)
(-0.00010934 -0.0201192 0.0117907)
(0.000539789 -0.020596 0.011393)
(0.00121328 -0.0206335 0.0111555)
(0.00188624 -0.0202673 0.0110991)
(0.00253496 -0.0195191 0.0112287)
(0.00313596 -0.0183931 0.011533)
(0.00366438 -0.0168733 0.0119782)
(0.00409714 -0.0149228 0.012486)
(0.004414 -0.0124645 0.0129118)
(0.00460114 -0.00936073 0.0130184)
(0.00465047 -0.00539679 0.0124859)
(0.00455445 -0.000296424 0.0110333)
(0.00430921 0.00619321 0.00864368)
(0.00390356 0.014189 0.00574132)
(0.00330699 0.0234742 0.00307612)
(0.00248804 0.0330305 0.00132251)
(0.0015828 0.0401634 0.000661681)
(0.000731232 0.0407796 0.000645051)
(7.16466e-05 0.0251323 0.000624108)
(-5.56497e-06 0.00887413 0.000314141)
(6.74812e-06 0.0162146 -0.000279134)
(-0.000114894 0.0180372 -0.00074429)
(-0.000305908 0.0169447 -0.000595317)
(-0.000547736 0.0141618 0.000356898)
(-0.000806226 0.0100889 0.00213479)
(-0.00102698 0.00513358 0.00447356)
(-0.00116152 -0.000277494 0.0068933)
(-0.00119201 -0.00578619 0.00885849)
(-0.00112673 -0.0110896 0.00998249)
(-0.00096763 -0.0159172 0.0101723)
(-0.000714021 -0.0200828 0.00961812)
(-0.000374017 -0.0235027 0.00863581)
(3.67923e-05 -0.0261738 0.00751452)
(0.000500807 -0.0281421 0.00644907)
(0.000996238 -0.0294717 0.00553759)
(0.00151327 -0.0302378 0.00481006)
(0.0020465 -0.0305195 0.00426833)
(0.00258582 -0.0303831 0.00391279)
(0.00312206 -0.0298701 0.00374728)
(0.00364538 -0.0289952 0.00378227)
(0.00414105 -0.0277433 0.00403757)
(0.00459721 -0.0260655 0.00454814)
(0.00499398 -0.0238953 0.00536337)
(0.00529497 -0.0211458 0.0065174)
(0.00546718 -0.0176591 0.00798165)
(0.00547944 -0.0131582 0.00957311)
(0.00531421 -0.00721364 0.0108311)
(0.00496599 0.000654398 0.0110581)
(0.00442307 0.0106789 0.00977126)
(0.00367602 0.0224485 0.00726845)
(0.00272871 0.0344066 0.00457746)
(0.00171801 0.0431152 0.00270051)
(0.000794216 0.0438327 0.00169618)
(0.00010955 0.0266178 0.000929403)
(1.49884e-05 0.0079683 0.000756416)
(4.80558e-05 0.0150101 0.00107438)
(-2.92332e-05 0.0170748 0.00123492)
(-0.000189626 0.0162424 0.00172606)
(-0.000400619 0.0135798 0.00276591)
(-0.000627538 0.00946151 0.00433689)
(-0.000830586 0.00427044 0.00612109)
(-0.000977208 -0.00152654 0.00764134)
(-0.00103611 -0.00743858 0.00850167)
(-0.000995145 -0.01302 0.00858577)
(-0.000864823 -0.0179586 0.00806464)
(-0.000658334 -0.0221007 0.00723576)
(-0.000389968 -0.0254032 0.0063593)
(-7.76515e-05 -0.0278589 0.0055933)
(0.000270206 -0.029554 0.00497886)
(0.000650585 -0.0306297 0.00449559)
(0.00105592 -0.031202 0.00411676)
(0.00148194 -0.0313493 0.00382233)
(0.00192358 -0.0311195 0.00359816)
(0.00237307 -0.0305365 0.00343662)
(0.0028207 -0.0296017 0.00333765)
(0.00325574 -0.0282932 0.00330995)
(0.00366542 -0.0265592 0.0033731)
(0.00402832 -0.024297 0.00356495)
(0.00432946 -0.0213287 0.00394286)
(0.00453904 -0.0174524 0.00458265)
(0.00461473 -0.0124518 0.00553019)
(0.00452037 -0.00593776 0.00671672)
(0.00422584 0.00260546 0.00779486)
(0.00373354 0.0134921 0.00813771)
(0.00305835 0.026243 0.0072971)
(0.00220626 0.0389297 0.00556696)
(0.00132782 0.0476096 0.00383697)
(0.000563117 0.0473941 0.00248947)
(5.21449e-05 0.0280692 0.0011653)
(-2.12078e-05 0.00680708 0.00105391)
(-7.31816e-05 0.0129253 0.00202861)
(-0.000229525 0.0146537 0.00268706)
(-0.000435759 0.0135413 0.00347758)
(-0.000659093 0.0103973 0.00460355)
(-0.000851799 0.00553263 0.00598326)
(-0.000965846 -0.000539551 0.00725483)
(-0.000991295 -0.00717717 0.00804523)
(-0.000938067 -0.0137364 0.00818892)
(-0.000817009 -0.0197153 0.00778569)
(-0.000638094 -0.0248379 0.00707666)
(-0.000408896 -0.0290245 0.00628734)
(-0.000136843 -0.0323055 0.00555551)
(0.000172768 -0.0347505 0.00493894)
(0.000516566 -0.0364706 0.0044398)
(0.000896388 -0.0375934 0.00403606)
(0.00130961 -0.0382137 0.00371324)
(0.00174724 -0.0383896 0.00346524)
(0.00220057 -0.0381539 0.0032899)
(0.00265897 -0.0375202 0.00318832)
(0.00311066 -0.0364839 0.00316453)
(0.00354248 -0.0350197 0.00322546)
(0.00393525 -0.0330696 0.00338266)
(0.00427359 -0.0305001 0.00366255)
(0.00454266 -0.0271377 0.00409077)
(0.00471046 -0.0228115 0.00468631)
(0.00475125 -0.0172401 0.0054602)
(0.00463857 -0.00999214 0.00637579)
(0.0043559 -0.000532874 0.00725958)
(0.00387656 0.0115016 0.00773007)
(0.00318769 0.0256658 0.00735907)
(0.00231747 0.0398339 0.00611245)
(0.00141621 0.0495325 0.00454495)
(0.000623106 0.0493501 0.00303071)
(8.78893e-05 0.0289442 0.00133218)
(-1.25953e-05 0.00604748 0.00133665)
(-4.99013e-05 0.0114928 0.00292543)
(-0.000193433 0.0128708 0.00403699)
(-0.000384136 0.0113772 0.00503799)
(-0.000586111 0.0076752 0.00606823)
(-0.000755447 0.00219869 0.00699045)
(-0.000868236 -0.00434565 0.00752547)
(-0.000925857 -0.0111698 0.00751332)
(-0.000935238 -0.0176086 0.00701929)
(-0.000899602 -0.023261 0.0062576)
(-0.000816192 -0.0279853 0.00544353)
(-0.000680097 -0.0317941 0.00471022)
(-0.000489988 -0.0347474 0.00410887)
(-0.000250497 -0.0369222 0.00363745)
(3.9943e-05 -0.0384525 0.00326296)
(0.000379291 -0.0394558 0.00295276)
(0.00075885 -0.0399949 0.00269009)
(0.00117011 -0.0401059 0.00246365)
(0.00160255 -0.0398083 0.00226776)
(0.00204445 -0.0391063 0.00210278)
(0.00248378 -0.0379888 0.00197545)
(0.00290775 -0.0364259 0.00189915)
(0.00329459 -0.0343571 0.00189505)
(0.00363336 -0.0316381 0.00199315)
(0.00391091 -0.0280622 0.00224466)
(0.00409969 -0.0234286 0.00270967)
(0.00417249 -0.0174398 0.00344739)
(0.00409719 -0.00964473 0.00447126)
(0.0038325 0.000502288 0.00565289)
(0.00337315 0.0133042 0.00662947)
(0.00273894 0.0281823 0.00690088)
(0.00194631 0.0428211 0.00622745)
(0.00114769 0.052478 0.00494425)
(0.000471665 0.0516684 0.00339449)
(5.07933e-05 0.029877 0.00144041)
(-7.69234e-06 0.00506629 0.00140778)
(1.23904e-05 0.00953431 0.0032639)
(-5.14457e-05 0.0103829 0.00456481)
(-0.000159732 0.00844019 0.00556048)
(-0.000295488 0.00426835 0.00633621)
(-0.000434796 -0.00156691 0.00681502)
(-0.000565775 -0.00826627 0.00691026)
(-0.000682859 -0.0150629 0.00666008)
(-0.000775241 -0.0214028 0.00621336)
(-0.000827543 -0.0269978 0.00573236)
(-0.000825049 -0.0317605 0.0053187)
(-0.000757118 -0.0357036 0.00500582)
(-0.000618219 -0.038867 0.00478539)
(-0.000411048 -0.0412869 0.0046341)
(-0.000138144 -0.0430565 0.0045258)
(0.000197122 -0.0442658 0.00443986)
(0.000580588 -0.0449602 0.00435734)
(0.00100029 -0.0451641 0.00426499)
(0.00144378 -0.0448904 0.00415487)
(0.00189778 -0.044141 0.00402442)
(0.00234894 -0.0429065 0.00387682)
(0.00277881 -0.0411602 0.00372235)
(0.00316595 -0.0388265 0.00357808)
(0.00349955 -0.0357657 0.00345851)
(0.00375901 -0.0318074 0.00339361)
(0.00392366 -0.0267501 0.00343561)
(0.00397541 -0.0202718 0.00366141)
(0.00389327 -0.011896 0.00415051)
(0.00365704 -0.00106088 0.00490796)
(0.00324563 0.0125591 0.00573727)
(0.002653 0.0283539 0.00621284)
(0.00190145 0.0438408 0.00594302)
(0.00113843 0.053955 0.00497089)
(0.00048448 0.0530189 0.00350977)
(6.86739e-05 0.0304411 0.00146977)
(-7.75675e-06 0.00391541 0.0014154)
(6.29148e-05 0.00714508 0.00334603)
(9.94987e-05 0.00742582 0.00469223)
(0.000104522 0.005268 0.00564324)
(7.39378e-05 0.00111995 0.00627872)
(1.48314e-05 -0.00447742 0.00660051)
(-6.73163e-05 -0.0108176 0.00662348)
(-0.00016482 -0.017261 0.00642435)
(-0.000261223 -0.0233521 0.00611465)
(-0.000338062 -0.0288383 0.00579573)
(-0.000378076 -0.0336203 0.00553258)
(-0.000366609 -0.0376819 0.00535125)
(-0.000291789 -0.0410346 0.00524758)
(-0.000146694 -0.0436885 0.0051995)
(6.85181e-05 -0.0456848 0.00517872)
(0.000352576 -0.0470862 0.00516629)
(0.000694254 -0.0479301 0.00514426)
(0.00107935 -0.0482294 0.00509638)
(0.00149482 -0.0479862 0.00501251)
(0.00192665 -0.047195 0.00488877)
(0.00235847 -0.0458424 0.0047279)
(0.00276345 -0.043896 0.00453999)
(0.00312656 -0.0412577 0.00433231)
(0.00343153 -0.0377891 0.00411883)
(0.00365283 -0.0333745 0.00393138)
(0.00377524 -0.0278214 0.00382386)
(0.00378541 -0.020812 0.00387004)
(0.00366837 -0.0118719 0.0041477)
(0.00340728 -0.000445896 0.00468613)
(0.00299444 0.0137536 0.00536454)
(0.002433 0.0300443 0.00584924)
(0.00173539 0.0458314 0.00574663)
(0.00103633 0.0558906 0.00495722)
(0.000439797 0.0545599 0.00357544)
(6.07116e-05 0.0310948 0.00149595)
(-2.49318e-05 0.00286019 0.00138546)
(-2.46076e-05 0.00470329 0.00329165)
(-5.19271e-05 0.00414106 0.00460092)
(-8.23711e-05 0.00152215 0.0054731)
(-0.000121676 -0.00278587 0.0059926)
(-0.000177823 -0.00828397 0.00620615)
(-0.000259916 -0.0143716 0.00618429)
(-0.000361388 -0.0205202 0.00603436)
(-0.000469353 -0.0263627 0.0058752)
(-0.00056642 -0.031704 0.00580117)
(-0.0006325 -0.0364758 0.00585829)
(-0.000647288 -0.0406715 0.00604211)
(-0.000592467 -0.0442929 0.00631223)
(-0.00045437 -0.0473216 0.00661287)
(-0.000230536 -0.0497186 0.00689229)
(7.39542e-05 -0.0514755 0.00711978)
(0.00045039 -0.0526061 0.0072819)
(0.000882754 -0.0531059 0.00736771)
(0.00135267 -0.0529606 0.00736607)
(0.00184384 -0.0521539 0.00727159)
(0.00232914 -0.0506644 0.00708538)
(0.00278638 -0.0484348 0.00680468)
(0.00319751 -0.0453661 0.00642164)
(0.00353104 -0.0413746 0.00594514)
(0.00376294 -0.036369 0.00541145)
(0.00387655 -0.0301971 0.00489317)
(0.00386169 -0.0225776 0.00449709)
(0.00371264 -0.0130568 0.00434597)
(0.00342703 -0.00107729 0.00452593)
(0.00300393 0.013676 0.00498387)
(0.00244607 0.0305347 0.00543866)
(0.00176257 0.0468347 0.0054719)
(0.00107543 0.0571624 0.00485406)
(0.000475982 0.0557522 0.00357417)
(7.50497e-05 0.0316904 0.00150359)
(-3.44826e-05 0.00228294 0.00133891)
(-0.000100177 0.00317668 0.00318357)
(-0.000212917 0.00192079 0.00442487)
(-0.000339036 -0.00111699 0.00521398)
(-0.000474547 -0.00556463 0.00565685)
(-0.000621651 -0.0109415 0.00585102)
(-0.000782761 -0.0167468 0.00591728)
(-0.000952232 -0.0225838 0.00598409)
(-0.00111523 -0.0282091 0.0061532)
(-0.00125029 -0.033512 0.00647241)
(-0.00133331 -0.0384571 0.00693112)
(-0.00134201 -0.0430215 0.00747606)
(-0.00125979 -0.0471553 0.00803614)
(-0.00107833 -0.0507729 0.00854597)
(-0.000798266 -0.0537718 0.00896167)
(-0.000430041 -0.0560632 0.00926586)
(9.64556e-06 -0.0575975 0.00946614)
(0.000507643 -0.058367 0.00958104)
(0.00104997 -0.0583592 0.00962076)
(0.00161024 -0.0575473 0.00958501)
(0.00216971 -0.0558805 0.009464)
(0.00271301 -0.0532667 0.0092299)
(0.00320926 -0.0496155 0.00884804)
(0.00362263 -0.0448551 0.0082879)
(0.00391763 -0.0389378 0.0075518)
(0.00406617 -0.0317916 0.00670084)
(0.00405359 -0.023233 0.00586244)
(0.00387929 -0.0128937 0.00520894)
(0.00355168 -0.000265591 0.00489881)
(0.00308719 0.0149586 0.00496911)
(0.00250258 0.0321413 0.00521938)
(0.00180525 0.0486381 0.00524298)
(0.00111189 0.0589604 0.00471709)
(0.000501083 0.0573163 0.00352411)
(7.835e-05 0.0324873 0.0014906)
(-3.53727e-05 0.00194071 0.00122926)
(-0.000138995 0.00220435 0.00293149)
(-0.000316117 0.000437647 0.00407005)
(-0.000528658 -0.00293505 0.00479966)
(-0.000763229 -0.00753035 0.00525387)
(-0.00101202 -0.0129023 0.00556343)
(-0.00126747 -0.0186539 0.0058589)
(-0.00151468 -0.0245063 0.00624064)
(-0.00173153 -0.0303066 0.00675384)
(-0.00189166 -0.0359858 0.00738099)
(-0.001969 -0.0414976 0.00805436)
(-0.00194353 -0.0467643 0.00868386)
(-0.00180633 -0.0516545 0.00919132)
(-0.00156114 -0.055999 0.00953805)
(-0.00122158 -0.0596339 0.0097325)
(-0.000805469 -0.0624431 0.00981622)
(-0.000329933 -0.0643728 0.00984032)
(0.000191501 -0.0654129 0.00984847)
(0.000747612 -0.0655612 0.00987189)
(0.00132745 -0.0647928 0.00992189)
(0.00192174 -0.0630381 0.00998709)
(0.00251781 -0.0601741 0.0100347)
(0.00309394 -0.0560426 0.0099966)
(0.00361364 -0.050507 0.00976883)
(0.00402648 -0.0435163 0.0092481)
(0.00427892 -0.0350951 0.00840014)
(0.00433251 -0.025233 0.00732223)
(0.00417819 -0.0137357 0.00624213)
(0.00383635 -0.000200489 0.00543196)
(0.00333554 0.0156822 0.00505944)
(0.00270191 0.0333556 0.00503341)
(0.00195317 0.0502347 0.00498221)
(0.00121303 0.0607519 0.00451056)
(0.000554304 0.0590107 0.00339993)
(8.5817e-05 0.0334135 0.00143706)
(-2.98765e-05 0.00177005 0.00111773)
(-0.000142493 0.00174452 0.00270972)
(-0.000348454 -0.000246498 0.00381745)
(-0.00060531 -0.00373466 0.0045953)
(-0.000891758 -0.00833908 0.00518249)
(-0.00119097 -0.0136828 0.00569771)
(-0.00148718 -0.0194699 0.00623175)
(-0.00175923 -0.0255147 0.0068258)
(-0.00198027 -0.0317219 0.00745802)
(-0.00212112 -0.0380288 0.00804591)
(-0.00215702 -0.0443348 0.00847264)
(-0.00207574 -0.0504565 0.00863658)
(-0.00188202 -0.0561393 0.00850269)
(-0.00159505 -0.0611211 0.00812282)
(-0.00124011 -0.0652086 0.0076107)
(-0.000839645 -0.0683149 0.00709239)
(-0.00040844 -0.0704413 0.00666775)
(4.63644e-05 -0.0716271 0.00639947)
(0.0005225 -0.0719028 0.006321)
(0.00102011 -0.0712578 0.00644831)
(0.0015405 -0.0696178 0.00678566)
(0.00208517 -0.0668199 0.00732035)
(0.00264982 -0.0625995 0.00799712)
(0.00321374 -0.0566522 0.00867698)
(0.00372944 -0.0487697 0.00912169)
(0.00412299 -0.038956 0.00907108)
(0.00431491 -0.0273926 0.00841293)
(0.00425571 -0.0142173 0.007314)
(0.00394821 0.000680315 0.00616141)
(0.00343404 0.0174816 0.00532886)
(0.00276405 0.0356743 0.00492174)
(0.00197314 0.0527844 0.00467861)
(0.00120601 0.0632572 0.00418879)
(0.000533322 0.0611894 0.00314566)
(6.84527e-05 0.0345036 0.00130663)
(-1.23168e-05 0.00159207 0.000998963)
(-7.63125e-05 0.00140026 0.00252225)
(-0.000245155 -0.000759585 0.00364151)
(-0.000477352 -0.00442495 0.00447064)
(-0.000747637 -0.00921402 0.00512016)
(-0.00103105 -0.0147828 0.00567809)
(-0.00130422 -0.0208884 0.0061981)
(-0.0015411 -0.0273953 0.00667549)
(-0.00171282 -0.0342271 0.00703301)
(-0.00179289 -0.0412802 0.00713675)
(-0.00176565 -0.0483472 0.00685454)
(-0.00163298 -0.055105 0.00613507)
(-0.00141393 -0.0611909 0.00505413)
(-0.00113661 -0.0663178 0.00378901)
(-0.000827946 -0.0703519 0.0025406)
(-0.000506708 -0.0733077 0.00146384)
(-0.000181963 -0.0752794 0.000647326)
(0.000144606 -0.0763676 0.000131568)
(0.000475589 -0.0766374 -6.55099e-05)
(0.000816092 -0.0760988 6.82211e-05)
(0.00117356 -0.074691 0.000548257)
(0.0015582 -0.0722495 0.00139751)
(0.00198173 -0.0684544 0.00263336)
(0.00245034 -0.0628327 0.00420685)
(0.00294806 -0.0548771 0.00589631)
(0.00341733 -0.0442965 0.00726765)
(0.00375689 -0.0312207 0.00785385)
(0.00385883 -0.0161056 0.00749992)
(0.00366844 0.000655514 0.00653013)
(0.00321386 0.0188743 0.00550453)
(0.00256683 0.0379387 0.00479049)
(0.0017884 0.0554361 0.00432341)
(0.00105168 0.0658319 0.00376462)
(0.000430513 0.0633145 0.00277098)
(3.66522e-05 0.035428 0.00110684)
(2.11397e-05 0.0011083 0.000817013)
(0.000108501 0.000725453 0.00218075)
(0.00012084 -0.0014233 0.00323306)
(7.11324e-05 -0.00505237 0.00402023)
(-2.69499e-05 -0.00984494 0.00461364)
(-0.000151963 -0.0154957 0.00507805)
(-0.000275229 -0.0218021 0.00544488)
(-0.000370083 -0.0286534 0.00567631)
(-0.000411106 -0.0359503 0.00565799)
(-0.000381367 -0.0435021 0.00524385)
(-0.000278316 -0.0509752 0.00434471)
(-0.000114766 -0.0579407 0.00300545)
(8.74855e-05 -0.0640005 0.00140666)
(0.000307361 -0.0689103 -0.000215748)
(0.00052832 -0.0726244 -0.00166979)
(0.000740033 -0.0752457 -0.00285405)
(0.000939 -0.0769299 -0.00373953)
(0.0011234 -0.0778126 -0.00432828)
(0.00129305 -0.0779794 -0.00462373)
(0.00145107 -0.0774609 -0.00461838)
(0.00160318 -0.0762248 -0.00428752)
(0.00175909 -0.074142 -0.00358053)
(0.00193407 -0.0709291 -0.00241369)
(0.00214848 -0.0660748 -0.000695648)
(0.00242229 -0.0588482 0.0015503)
(0.00275211 -0.0485147 0.00398978)
(0.00307464 -0.0347656 0.00594598)
(0.00326182 -0.0180358 0.00678253)
(0.00318652 0.000743236 0.00645023)
(0.00282164 0.0206832 0.00551799)
(0.0022344 0.0407617 0.00461005)
(0.00150856 0.0585 0.00392159)
(0.000843847 0.0684663 0.00326651)
(0.000314677 0.0652114 0.0023203)
(1.34471e-05 0.0360656 0.000880262)
(3.03886e-05 4.4506e-05 0.000654451)
(0.000233002 -0.00113415 0.00178933)
(0.000435021 -0.0034688 0.00269774)
(0.000605339 -0.00706166 0.0033934)
(0.000733136 -0.0117851 0.00392307)
(0.000829325 -0.0174347 0.0043295)
(0.000918299 -0.0238491 0.00461513)
(0.00102545 -0.0309031 0.00470983)
(0.00116798 -0.0384286 0.00448407)
(0.00134966 -0.0461354 0.00381911)
(0.00155996 -0.0536083 0.00269793)
(0.00177936 -0.0603963 0.00124577)
(0.00198953 -0.0661399 -0.000318835)
(0.00217968 -0.0706612 -0.0017854)
(0.00234658 -0.0739754 -0.00302884)
(0.00249037 -0.0762229 -0.00401745)
(0.00261117 -0.0775733 -0.00477103)
(0.00270818 -0.0781619 -0.0053182)
(0.00277942 -0.0780768 -0.00567605)
(0.00282232 -0.077362 -0.00584386)
(0.00283512 -0.0760154 -0.00579908)
(0.00281886 -0.0739601 -0.00548937)
(0.00278052 -0.0710021 -0.00481917)
(0.00273539 -0.0667373 -0.00363349)
(0.00271045 -0.0604488 -0.0017583)
(0.00274145 -0.0511262 0.000798589)
(0.00284115 -0.0378444 0.0035427)
(0.00294206 -0.0204744 0.00553919)
(0.00289848 -6.45493e-05 0.00612532)
(0.00260449 0.0217092 0.00554039)
(0.00207674 0.0430646 0.00454872)
(0.00140006 0.0612041 0.00364642)
(0.000785625 0.0707758 0.00287111)
(0.00030501 0.0668137 0.00195589)
(2.50584e-05 0.036583 0.000717484)
(1.16162e-05 -0.00107628 0.00063717)
(0.000188141 -0.00343852 0.00167118)
(0.000412731 -0.00623209 0.00251363)
(0.000648922 -0.00991157 0.00320515)
(0.00087791 -0.0145821 0.00378291)
(0.00110442 -0.0201998 0.00425209)
(0.00134747 -0.0266714 0.0045535)
(0.00162463 -0.0338472 0.00455946)
(0.00193913 -0.0414626 0.00412914)
(0.0022751 -0.0491173 0.00320504)
(0.00260362 -0.0563392 0.00187867)
(0.00289603 -0.0627052 0.000364842)
(0.00313568 -0.0679426 -0.00109838)
(0.00332145 -0.0719669 -0.00234733)
(0.00346276 -0.0748478 -0.0033269)
(0.00357159 -0.0767313 -0.00406012)
(0.00365599 -0.0777642 -0.00459848)
(0.00371915 -0.078055 -0.00498917)
(0.00376098 -0.0776729 -0.00526424)
(0.00377848 -0.0766532 -0.00543771)
(0.0037661 -0.0749951 -0.00550325)
(0.00371669 -0.0726461 -0.00542803)
(0.00362423 -0.0694773 -0.0051417)
(0.0034869 -0.065214 -0.00451244)
(0.00331162 -0.0593191 -0.00332604)
(0.0031237 -0.0508729 -0.00135245)
(0.00297053 -0.0386344 0.0013513)
(0.00287704 -0.0217045 0.0040496)
(0.00277192 -0.000578383 0.00562029)
(0.00251268 0.0226635 0.00563565)
(0.00203664 0.045292 0.00470925)
(0.00140159 0.0639006 0.00362011)
(0.000815613 0.0731598 0.00270445)
(0.000345246 0.0685679 0.00178217)
(4.17091e-05 0.037305 0.000654486)
(-2.10068e-05 -0.00172044 0.000778897)
(1.21926e-05 -0.00516858 0.00196977)
(8.48938e-05 -0.00869207 0.00293216)
(0.000199849 -0.0128593 0.00373978)
(0.000357609 -0.017935 0.00440015)
(0.000570311 -0.0239877 0.00483289)
(0.000850539 -0.0309273 0.00487829)
(0.00119639 -0.0384908 0.0043712)
(0.00158358 -0.0462496 0.00325912)
(0.00197141 -0.0536941 0.00167687)
(0.00231887 -0.0603689 -9.34143e-05)
(0.00260021 -0.0659814 -0.00175109)
(0.002811 -0.070434 -0.00309778)
(0.00296343 -0.0737816 -0.00407596)
(0.00307621 -0.0761517 -0.00472839)
(0.00316654 -0.0776735 -0.00513523)
(0.00324663 -0.078445 -0.00537319)
(0.00332281 -0.0785302 -0.00550111)
(0.00339624 -0.0779631 -0.00555818)
(0.00346481 -0.0767498 -0.00556526)
(0.00352347 -0.0748622 -0.00552565)
(0.00356289 -0.0722274 -0.00542231)
(0.00356918 -0.0687136 -0.00521112)
(0.00352545 -0.0640959 -0.00480145)
(0.00341619 -0.0579866 -0.00402571)
(0.00323552 -0.0497052 -0.00262785)
(0.00300492 -0.0381464 -0.000392318)
(0.00277985 -0.022042 0.00242642)
(0.00258381 -0.0010468 0.00478929)
(0.00233162 0.0230947 0.00564311)
(0.00191867 0.0469626 0.0050598)
(0.00134555 0.0662971 0.0039022)
(0.000799642 0.0755379 0.00284595)
(0.000346384 0.0704806 0.00185252)
(4.08088e-05 0.0381932 0.000692882)
(-3.73623e-05 -0.00174755 0.000934312)
(-0.000123145 -0.00570523 0.00239911)
(-0.000214174 -0.00989167 0.00355729)
(-0.00025986 -0.0147836 0.0044264)
(-0.000226989 -0.0206382 0.00490813)
(-9.86725e-05 -0.0274678 0.00481611)
(0.00012052 -0.0350263 0.00399077)
(0.000400367 -0.0428564 0.00244847)
(0.000695028 -0.0504216 0.000443792)
(0.000961805 -0.0572679 -0.00162421)
(0.00117649 -0.0631301 -0.0033958)
(0.00133773 -0.0679389 -0.0046863)
(0.00145944 -0.0717547 -0.00549579)
(0.00155984 -0.0746841 -0.00592917)
(0.00165427 -0.0768228 -0.00611255)
(0.00175298 -0.0782393 -0.00614977)
(0.00186166 -0.0789777 -0.00611195)
(0.00198282 -0.0790623 -0.00604155)
(0.00211673 -0.078499 -0.0059599)
(0.00226087 -0.0772727 -0.00587367)
(0.00241057 -0.0753309 -0.00577589)
(0.00255877 -0.0725678 -0.00564613)
(0.00269319 -0.0688117 -0.00544736)
(0.00279438 -0.0638137 -0.00511207)
(0.00283646 -0.0572327 -0.00451677)
(0.00279327 -0.0485633 -0.00345461)
(0.00265267 -0.0369783 -0.001665)
(0.00244022 -0.0213219 0.000913337)
(0.00221033 -0.000784737 0.00365534)
(0.00196528 0.0236018 0.00534321)
(0.00162557 0.0483392 0.00539013)
(0.0011452 0.0683948 0.00439526)
(0.000674117 0.0777361 0.00326465)
(0.000277192 0.0722709 0.00215031)
(2.36325e-05 0.0389701 0.00081769)
(-2.49656e-05 -0.00156464 0.000948916)
(-0.000110406 -0.00566909 0.00253375)
(-0.000233683 -0.0104247 0.00368251)
(-0.000324108 -0.016141 0.00424905)
(-0.000343248 -0.0228742 0.00404129)
(-0.000284771 -0.0303975 0.00294775)
(-0.000170986 -0.0382562 0.0010913)
(-3.84654e-05 -0.0459236 -0.00113901)
(8.15069e-05 -0.0529776 -0.00324373)
(0.000175334 -0.0591947 -0.00484678)
(0.000248726 -0.064528 -0.00582645)
(0.000316947 -0.0690192 -0.00627513)
(0.000392566 -0.0727188 -0.00637401)
(0.000481663 -0.0756601 -0.00629307)
(0.000585044 -0.0778671 -0.00615005)
(0.000701173 -0.0793659 -0.00600987)
(0.000828483 -0.080182 -0.00589994)
(0.000966224 -0.0803334 -0.00582578)
(0.00111339 -0.0798227 -0.0057818)
(0.00126893 -0.0786298 -0.00575658)
(0.0014319 -0.0766938 -0.00573302)
(0.00160005 -0.073891 -0.00568635)
(0.00176824 -0.0700157 -0.00558091)
(0.00192498 -0.0647728 -0.00535869)
(0.00204928 -0.0577962 -0.00491903)
(0.00211196 -0.0486411 -0.0040925)
(0.00208484 -0.0366745 -0.00263873)
(0.00196065 -0.0209828 -0.000377489)
(0.00177157 -0.000718401 0.00241656)
(0.00155702 0.0236271 0.00472132)
(0.00128747 0.0489179 0.00552969)
(0.000907059 0.0696818 0.00494499)
(0.000525408 0.0792662 0.00386424)
(0.000200874 0.0735259 0.00262247)
(1.31291e-05 0.039417 0.00101724)
(8.12526e-06 -0.00167162 0.000696015)
(6.01988e-05 -0.00595049 0.00195252)
(9.86535e-05 -0.0110687 0.00266831)
(0.000151725 -0.017238 0.00258708)
(0.000225911 -0.0243 0.00160724)
(0.000313522 -0.0318565 -0.00010892)
(0.000396408 -0.0394333 -0.00213637)
(0.000461094 -0.0466475 -0.00396514)
(0.000509206 -0.0532907 -0.00524312)
(0.000554678 -0.0592945 -0.00589483)
(0.000612134 -0.0646338 -0.0060589)
(0.000687503 -0.0692626 -0.00594861)
(0.000777439 -0.0731212 -0.00574457)
(0.000873914 -0.0761786 -0.00555355)
(0.000969368 -0.0784484 -0.00541739)
(0.00105916 -0.0799728 -0.00534074)
(0.00114142 -0.0807964 -0.00531374)
(0.00121622 -0.0809506 -0.00532364)
(0.00128487 -0.0804464 -0.00535876)
(0.00134946 -0.0792676 -0.00540866)
(0.00141258 -0.0773544 -0.00546131)
(0.00147728 -0.074577 -0.00549943)
(0.00154598 -0.0707087 -0.005497)
(0.00161798 -0.065412 -0.00540856)
(0.00168534 -0.0582694 -0.00514947)
(0.00173009 -0.0488238 -0.00456819)
(0.00172538 -0.0365465 -0.00343306)
(0.0016493 -0.020721 -0.00150362)
(0.00150581 -0.000621286 0.00117264)
(0.00132716 0.0235151 0.00385307)
(0.00111069 0.0489971 0.00539142)
(0.000803709 0.0702604 0.00538273)
(0.000484049 0.0800978 0.00448827)
(0.000197437 0.0742269 0.00316407)
(2.51693e-05 0.0396109 0.00126079)
(3.41631e-05 -0.00237334 0.000221862)
(0.000249278 -0.00730805 0.000735809)
(0.000523957 -0.012723 0.000810367)
(0.000820675 -0.0189287 0.000228528)
(0.00110263 -0.0257769 -0.000949626)
(0.00134749 -0.0329344 -0.00241836)
(0.00154959 -0.0400737 -0.00377447)
(0.00171902 -0.0469697 -0.00471964)
(0.00187171 -0.0534913 -0.00517595)
(0.00201956 -0.0595255 -0.00525097)
(0.00216453 -0.0649322 -0.00512431)
(0.00230055 -0.0695695 -0.00494695)
(0.00241965 -0.0733521 -0.00479933)