/*--------------------------------*- C++ -*----------------------------------*\
| =========                 |                                                 |
| \\      /  F ield         | OpenFOAM: The Open Source CFD Toolbox           |
|  \\    /   O peration     | Version:  v2012                                 |
|   \\  /    A nd           | Website:  www.openfoam.com                      |
|    \\/     M anipulation  |                                                 |
\*---------------------------------------------------------------------------*/
FoamFile
{
    version     2.0;
    format      ascii;
    class       volVectorField;
    location    "78";
    object      U;
}
// * * * * * * * * * * * * * * * * * * * * * * * * * * * * * * * * * * * * * //

dimensions      [0 1 -1 0 0 0 0];


internalField   nonuniform List<vector> 
78750
(
(-1.2494e-06 -6.53689e-05 0.000126297)
(-2.8026e-06 -9.30845e-05 0.000221057)
(-8.68835e-06 -9.69652e-05 0.000269674)
(-1.80006e-05 -9.15209e-05 0.000303281)
(-3.09951e-05 -8.074e-05 0.00032519)
(-4.71187e-05 -6.70433e-05 0.000338065)
(-6.56992e-05 -5.21971e-05 0.000343855)
(-8.59685e-05 -3.73562e-05 0.00034413)
(-0.000107217 -2.34104e-05 0.00034005)
(-0.000128846 -1.07626e-05 0.000332577)
(-0.000150263 2.04406e-07 0.000322418)
(-0.000170923 9.36962e-06 0.000310213)
(-0.000190388 1.66248e-05 0.000296414)
(-0.000208236 2.20362e-05 0.000281467)
(-0.000224118 2.5603e-05 0.0002657)
(-0.000237729 2.74631e-05 0.000249464)
(-0.000248825 2.76601e-05 0.000233031)
(-0.000257206 2.63535e-05 0.000216711)
(-0.000262715 2.3603e-05 0.000200757)
(-0.000265247 1.95654e-05 0.000185462)
(-0.000264733 1.43138e-05 0.000171064)
(-0.000261139 8.01603e-06 0.00015783)
(-0.000254475 7.697e-07 0.000145972)
(-0.000244783 -7.24562e-06 0.000135703)
(-0.000232151 -1.58929e-05 0.000127159)
(-0.000216698 -2.49378e-05 0.000120436)
(-0.000198587 -3.41478e-05 0.000115512)
(-0.000178 -4.31544e-05 0.000112262)
(-0.000155169 -5.15449e-05 0.000110398)
(-0.000130383 -5.871e-05 0.000109413)
(-0.000103874 -6.38881e-05 0.000108468)
(-7.57975e-05 -6.59927e-05 0.000106271)
(-4.70795e-05 -6.35633e-05 0.000100927)
(-2.34429e-05 -5.46502e-05 8.95432e-05)
(-6.36279e-06 -3.14407e-05 5.82167e-05)
(-2.60261e-06 9.89692e-05 -0.000188733)
(-1.78053e-05 0.000206394 -0.000284453)
(-3.49192e-05 0.000264457 -0.000319752)
(-6.00733e-05 0.000311237 -0.000349397)
(-8.68894e-05 0.000347236 -0.000373398)
(-0.000113602 0.00037335 -0.000392031)
(-0.000139419 0.000391172 -0.000406502)
(-0.000163802 0.000401502 -0.000418238)
(-0.000186232 0.000405689 -0.000427667)
(-0.000206385 0.000404227 -0.000435455)
(-0.000224013 0.000398208 -0.000441652)
(-0.000238945 0.00038796 -0.000446675)
(-0.000251144 0.000374335 -0.000450476)
(-0.000260553 0.00035756 -0.000453367)
(-0.000267164 0.000338432 -0.00045522)
(-0.000271042 0.000317071 -0.000456302)
(-0.000272225 0.000294183 -0.000456471)
(-0.000270834 0.000269842 -0.000455955)
(-0.00026695 0.000244683 -0.000454607)
(-0.000260714 0.00021876 -0.000452606)
(-0.000252288 0.000192525 -0.000449846)
(-0.000241837 0.000166037 -0.000446453)
(-0.000229513 0.000139789 -0.000442259)
(-0.000215527 0.000113829 -0.000437325)
(-0.00020005 8.85739e-05 -0.000431447)
(-0.000183299 6.40718e-05 -0.000424595)
(-0.000165445 4.06865e-05 -0.000416367)
(-0.000146713 1.84759e-05 -0.000406369)
(-0.000127309 -2.21713e-06 -0.000393801)
(-0.000107448 -2.12904e-05 -0.000377653)
(-8.71958e-05 -3.8321e-05 -0.000356251)
(-6.63166e-05 -5.28771e-05 -0.000326619)
(-4.48146e-05 -6.36144e-05 -0.000281725)
(-2.72568e-05 -6.73367e-05 -0.000213146)
(-1.48981e-05 -4.66414e-05 -7.47488e-05)
(-4.18307e-07 0.000263047 -0.000146043)
(-8.92672e-06 0.00045077 -0.000237893)
(-1.62274e-05 0.000532989 -0.000275135)
(-2.76565e-05 0.000591083 -0.000299993)
(-3.97054e-05 0.000630246 -0.000317426)
(-5.14588e-05 0.000655095 -0.000330002)
(-6.26518e-05 0.000668255 -0.000339614)
(-7.3045e-05 0.000672475 -0.000347045)
(-8.24689e-05 0.000669104 -0.000353168)
(-9.07679e-05 0.000659906 -0.000358144)
(-9.78841e-05 0.000645566 -0.000362431)
(-0.000103741 0.000627342 -0.000365934)
(-0.000108363 0.000605579 -0.000368949)
(-0.000111724 0.000581249 -0.000371298)
(-0.000113886 0.000554537 -0.000373208)
(-0.000114858 0.000526249 -0.000374484)
(-0.000114728 0.000496488 -0.000375322)
(-0.000113506 0.000465946 -0.000375543)
(-0.000111299 0.000434781 -0.000375239)
(-0.000108182 0.000403474 -0.000374326)
(-0.000104234 0.000372134 -0.000372921)
(-9.95344e-05 0.00034127 -0.000370858)
(-9.42196e-05 0.000310895 -0.000368244)
(-8.83497e-05 0.000281437 -0.000364898)
(-8.2048e-05 0.000252892 -0.000360863)
(-7.53663e-05 0.000225598 -0.000355892)
(-6.84022e-05 0.000199523 -0.000349868)
(-6.11923e-05 0.000174917 -0.000342333)
(-5.38169e-05 0.000151703 -0.000332801)
(-4.62982e-05 0.00013004 -0.000320296)
(-3.86546e-05 0.000109777 -0.000303444)
(-3.06676e-05 9.09549e-05 -0.000279578)
(-2.20745e-05 7.32388e-05 -0.000244112)
(-1.40486e-05 5.6556e-05 -0.000191626)
(-9.31036e-06 3.08109e-05 -7.57131e-05)
(-6.01919e-07 0.000348301 -1.26749e-05)
(-4.4474e-06 0.000574242 -7.24358e-05)
(-5.46538e-06 0.000674445 -0.000107041)
(-8.10243e-06 0.000745407 -0.000131483)
(-1.09959e-05 0.00079403 -0.000147756)
(-1.39855e-05 0.000825041 -0.000159981)
(-1.69519e-05 0.000842525 -0.00017003)
(-1.98547e-05 0.000849005 -0.000179043)
(-2.2566e-05 0.000847045 -0.000187318)
(-2.50528e-05 0.000837985 -0.000195367)
(-2.72293e-05 0.000823529 -0.000203147)
(-2.90924e-05 0.00080439 -0.000210933)
(-3.05952e-05 0.000781794 -0.000218529)
(-3.17598e-05 0.000756123 -0.000226099)
(-3.25632e-05 0.000728322 -0.0002334)
(-3.3052e-05 0.000698601 -0.000240551)
(-3.32179e-05 0.000667721 -0.00024731)
(-3.31166e-05 0.0006358 -0.000253774)
(-3.27658e-05 0.000603445 -0.000259731)
(-3.22001e-05 0.000570851 -0.00026518)
(-3.14492e-05 0.000538638 -0.000269862)
(-3.05842e-05 0.000506806 -0.000273854)
(-2.96142e-05 0.000475756 -0.000276969)
(-2.86004e-05 0.000445446 -0.000279243)
(-2.75477e-05 0.000416185 -0.000280457)
(-2.64883e-05 0.000387743 -0.000280661)
(-2.53985e-05 0.000360283 -0.000279572)
(-2.4281e-05 0.000333554 -0.000277042)
(-2.30657e-05 0.000307492 -0.000272601)
(-2.17014e-05 0.000281614 -0.000265764)
(-2.00253e-05 0.000255493 -0.000255612)
(-1.77339e-05 0.000228244 -0.000241215)
(-1.42189e-05 0.000198792 -0.000220968)
(-9.77311e-06 0.000165574 -0.000190167)
(-7.31307e-06 0.000101471 -0.000101499)
(-2.28631e-06 0.000374488 6.57393e-05)
(-4.82327e-06 0.000601668 3.43231e-05)
(-3.58037e-06 0.000703822 6.40225e-06)
(-2.22702e-06 0.000777846 -1.43446e-05)
(-3.55414e-07 0.000829862 -2.81445e-05)
(1.7585e-06 0.000865063 -3.86356e-05)
(3.95218e-06 0.000886789 -4.79512e-05)
(6.12243e-06 0.000898195 -5.66721e-05)
(8.2033e-06 0.000901096 -6.53237e-05)
(1.0163e-05 0.000897513 -7.3888e-05)
(1.19593e-05 0.000888434 -8.26281e-05)
(1.35731e-05 0.00087524 -9.14349e-05)
(1.49747e-05 0.000858462 -0.000100443)
(1.61614e-05 0.00083911 -0.000109435)
(1.70982e-05 0.000817467 -0.000118498)
(1.77857e-05 0.000794314 -0.000127391)
(1.81858e-05 0.000769794 -0.000136171)
(1.83045e-05 0.000744534 -0.000144602)
(1.81009e-05 0.000718601 -0.000152724)
(1.75801e-05 0.000692536 -0.000160303)
(1.67161e-05 0.000666359 -0.000167366)
(1.55389e-05 0.000640463 -0.000173713)
(1.40301e-05 0.000614763 -0.000179376)
(1.22234e-05 0.000589522 -0.000184172)
(1.01216e-05 0.000564547 -0.000188119)
(7.77062e-06 0.000539924 -0.000191037)
(5.1981e-06 0.000515284 -0.000192914)
(2.49945e-06 0.000490443 -0.000193534)
(-2.47046e-07 0.000464721 -0.000192779)
(-2.88866e-06 0.000437491 -0.000190257)
(-5.25882e-06 0.000407507 -0.000185659)
(-7.00533e-06 0.000373374 -0.000178908)
(-7.45317e-06 0.000332713 -0.000170429)
(-5.97897e-06 0.000282779 -0.000156053)
(-5.35412e-06 0.000178846 -9.36563e-05)
(-2.50681e-06 0.000378548 9.81395e-05)
(-4.03901e-06 0.00059433 8.28218e-05)
(-2.38724e-06 0.000692806 6.11435e-05)
(-6.27929e-08 0.000765373 4.41463e-05)
(3.02402e-06 0.000818221 3.28346e-05)
(6.479e-06 0.0008555 2.38458e-05)
(1.00756e-05 0.000880872 1.56839e-05)
(1.36504e-05 0.000896611 7.7333e-06)
(1.70988e-05 0.000904986 -1.05889e-07)
(2.03254e-05 0.000907259 -8.17946e-06)
(2.32732e-05 0.000904903 -1.6462e-05)
(2.58881e-05 0.000898562 -2.50553e-05)
(2.81421e-05 0.000889258 -3.38211e-05)
(2.99923e-05 0.000877341 -4.27722e-05)
(3.14314e-05 0.000863576 -5.17151e-05)
(3.24219e-05 0.00084813 -6.06837e-05)
(3.29654e-05 0.000831602 -6.94757e-05)
(3.30374e-05 0.000814051 -7.81101e-05)
(3.26477e-05 0.000795952 -8.63925e-05)
(3.1776e-05 0.000777282 -9.43388e-05)
(3.04492e-05 0.000758401 -0.00010177)
(2.86593e-05 0.000739215 -0.000108703)
(2.64488e-05 0.00071997 -0.000114972)
(2.38219e-05 0.000700463 -0.000120594)
(2.08358e-05 0.00068076 -0.00012542)
(1.75244e-05 0.000660461 -0.000129476)
(1.39724e-05 0.000639358 -0.000132622)
(1.02554e-05 0.000616744 -0.000134873)
(6.51049e-06 0.000591965 -0.000136051)
(2.86795e-06 0.000563767 -0.000136061)
(-4.70555e-07 0.00053072 -0.000134685)
(-3.2115e-06 0.000490591 -0.0001324)
(-4.70968e-06 0.000440553 -0.000130161)
(-4.28848e-06 0.000376615 -0.000124591)
(-4.11262e-06 0.00024001 -8.01822e-05)
(-1.88296e-06 0.000366345 9.70426e-05)
(-2.49935e-06 0.000569868 8.8285e-05)
(-9.41155e-07 0.000663602 7.13673e-05)
(1.36695e-06 0.00073407 5.79008e-05)
(4.31059e-06 0.000786586 4.88438e-05)
(7.56397e-06 0.000825419 4.1667e-05)
(1.09435e-05 0.000853453 3.49894e-05)
(1.4316e-05 0.000873252 2.84866e-05)
(1.75755e-05 0.000886364 2.19019e-05)
(2.06387e-05 0.000894362 1.5252e-05)
(2.34384e-05 0.000898063 8.40242e-06)
(2.59283e-05 0.000898541 1.43779e-06)
(2.80606e-05 0.000896214 -5.69242e-06)
(2.98078e-05 0.000891828 -1.28975e-05)
(3.11389e-05 0.000885572 -2.0198e-05)
(3.20423e-05 0.000877998 -2.74367e-05)
(3.24942e-05 0.000869162 -3.46289e-05)
(3.2498e-05 0.000859489 -4.16199e-05)
(3.20385e-05 0.000848942 -4.84233e-05)
(3.11323e-05 0.000837842 -5.48928e-05)
(2.97755e-05 0.000826068 -6.1045e-05)
(2.79961e-05 0.000813825 -6.67456e-05)
(2.58019e-05 0.000800888 -7.20168e-05)
(2.32381e-05 0.000787308 -7.67377e-05)
(2.03362e-05 0.000772694 -8.09369e-05)
(1.7163e-05 0.000756861 -8.45069e-05)
(1.37768e-05 0.000739135 -8.7483e-05)
(1.0275e-05 0.000718941 -8.9768e-05)
(6.75769e-06 0.000695106 -9.13748e-05)
(3.36995e-06 0.000666378 -9.21457e-05)
(2.66453e-07 0.000630693 -9.20951e-05)
(-2.28848e-06 0.000585603 -9.16466e-05)
(-3.77641e-06 0.000527436 -9.1958e-05)
(-3.60119e-06 0.000451601 -9.02859e-05)
(-3.3469e-06 0.000287235 -5.89668e-05)
(-1.15939e-06 0.000351229 8.08934e-05)
(-1.26316e-06 0.000548119 7.49882e-05)
(-2.34975e-07 0.000639495 6.26464e-05)
(1.30277e-06 0.000708838 5.2662e-05)
(3.22498e-06 0.000761607 4.59257e-05)
(5.34934e-06 0.000801518 4.04934e-05)
(7.55651e-06 0.000831726 3.55043e-05)
(9.77133e-06 0.00085424 3.06079e-05)
(1.19246e-05 0.000870937 2.57577e-05)
(1.39615e-05 0.00088288 2.0812e-05)
(1.58271e-05 0.000891236 1.58083e-05)
(1.74812e-05 0.000896545 1.06756e-05)
(1.88971e-05 0.000899576 5.50204e-06)
(2.00442e-05 0.000900573 2.47531e-07)
(2.09044e-05 0.000900075 -4.97723e-06)
(2.14572e-05 0.000898153 -1.0202e-05)
(2.16952e-05 0.000895202 -1.5309e-05)
(2.1607e-05 0.000891186 -2.03226e-05)
(2.11984e-05 0.000886393 -2.51288e-05)
(2.04638e-05 0.000880698 -2.97547e-05)
(1.9417e-05 0.000874284 -3.40928e-05)
(1.80671e-05 0.00086693 -3.81753e-05)
(1.64424e-05 0.000858688 -4.19032e-05)
(1.45607e-05 0.000849193 -4.53153e-05)
(1.24656e-05 0.000838304 -4.83204e-05)
(1.01912e-05 0.000825418 -5.09645e-05)
(7.80348e-06 0.000810066 -5.31651e-05)
(5.3646e-06 0.000791235 -5.49734e-05)
(2.96448e-06 0.000767889 -5.62966e-05)
(6.97196e-07 0.000738285 -5.71404e-05)
(-1.30754e-06 0.000700382 -5.7424e-05)
(-2.86253e-06 0.00065114 -5.75876e-05)
(-3.58756e-06 0.000586707 -5.84178e-05)
(-3.18194e-06 0.000501707 -5.80133e-05)
(-2.64153e-06 0.000316647 -3.65192e-05)
(-8.8304e-07 0.000336862 6.39322e-05)
(-9.76964e-07 0.000531871 6.20145e-05)
(-6.01693e-07 0.000622544 5.47716e-05)
(-1.53035e-08 0.000691899 4.87149e-05)
(7.92574e-07 0.000745027 4.4471e-05)
(1.72695e-06 0.000785971 4.09821e-05)
(2.73064e-06 0.00081749 3.76651e-05)
(3.76148e-06 0.000841923 3.44291e-05)
(4.78929e-06 0.000860737 3.11707e-05)
(5.77814e-06 0.000875325 2.79166e-05)
(6.70099e-06 0.000886439 2.45917e-05)
(7.53223e-06 0.000894945 2.12575e-05)
(8.24407e-06 0.000901195 1.7871e-05)
(8.8251e-06 0.000905765 1.44927e-05)
(9.25814e-06 0.000908779 1.10875e-05)
(9.53775e-06 0.000910625 7.74046e-06)
(9.64475e-06 0.000911293 4.4485e-06)
(9.57864e-06 0.000911055 1.29652e-06)
(9.33283e-06 0.0009098 -1.75815e-06)
(8.91246e-06 0.000907703 -4.63021e-06)
(8.31921e-06 0.000904559 -7.3643e-06)
(7.5652e-06 0.000900431 -9.87971e-06)
(6.65834e-06 0.000894993 -1.2226e-05)
(5.62362e-06 0.00088815 -1.43279e-05)
(4.48008e-06 0.000879383 -1.62408e-05)
(3.26107e-06 0.00086834 -1.78956e-05)
(2.00037e-06 0.000854172 -1.93542e-05)
(7.44658e-07 0.000836084 -2.05557e-05)
(-4.54447e-07 0.000812642 -2.15576e-05)
(-1.53391e-06 0.000782271 -2.22799e-05)
(-2.42251e-06 0.000742491 -2.27955e-05)
(-2.99852e-06 0.000690336 -2.33312e-05)
(-3.04405e-06 0.000621444 -2.45446e-05)
(-2.4432e-06 0.000530341 -2.52043e-05)
(-1.80615e-06 0.000331601 -1.34613e-05)
(-1.06004e-06 0.000324742 5.185e-05)
(-1.45952e-06 0.000519057 5.57711e-05)
(-1.73426e-06 0.000609534 5.38645e-05)
(-2.01348e-06 0.000678777 5.17268e-05)
(-2.13505e-06 0.000732132 5.00555e-05)
(-2.12692e-06 0.000773382 4.84202e-05)
(-2.03661e-06 0.000805573 4.67121e-05)
(-1.87634e-06 0.000830737 4.48777e-05)
(-1.67227e-06 0.000850638 4.29932e-05)
(-1.43183e-06 0.00086634 4.10212e-05)
(-1.17505e-06 0.000878893 3.90297e-05)
(-9.1537e-07 0.000888823 3.6979e-05)
(-6.64459e-07 0.000896782 3.49402e-05)
(-4.38536e-07 0.000902977 3.29066e-05)
(-2.4805e-07 0.000907836 3.09568e-05)
(-1.07043e-07 0.000911411 2.90481e-05)
(-1.06609e-08 0.000913996 2.7207e-05)
(3.09652e-08 0.000915513 2.54012e-05)
(1.51704e-08 0.000916141 2.37054e-05)
(-5.51075e-08 0.000915706 2.2074e-05)
(-1.79174e-07 0.00091429 2.05731e-05)
(-3.5621e-07 0.000911613 1.91483e-05)
(-5.7673e-07 0.00090763 1.78606e-05)
(-8.33077e-07 0.000901911 1.66506e-05)
(-1.11399e-06 0.000894209 1.5573e-05)
(-1.40662e-06 0.000883842 1.45623e-05)
(-1.69097e-06 0.000870226 1.36634e-05)
(-1.94874e-06 0.000852237 1.27968e-05)
(-2.1557e-06 0.000828693 1.19937e-05)
(-2.29018e-06 0.000797691 1.11672e-05)
(-2.32303e-06 0.00075698 1.03041e-05)
(-2.21508e-06 0.000703263 9.09182e-06)
(-1.87546e-06 0.000632361 7.08128e-06)
(-1.28702e-06 0.000538472 4.67374e-06)
(-8.08853e-07 0.00033403 6.63199e-06)
(-1.37725e-06 0.000313968 4.43185e-05)
(-2.12382e-06 0.000506238 5.42757e-05)
(-2.86017e-06 0.000595669 5.68719e-05)
(-3.73222e-06 0.000664231 5.80483e-05)
(-4.4189e-06 0.000717004 5.85047e-05)
(-4.95446e-06 0.00075799 5.84579e-05)
(-5.36797e-06 0.000789951 5.80041e-05)
(-5.68741e-06 0.000815169 5.73055e-05)
(-5.91329e-06 0.000835116 5.64083e-05)
(-6.06092e-06 0.000851121 5.54171e-05)
(-6.13369e-06 0.000863939 5.43288e-05)
(-6.14788e-06 0.000874366 5.32211e-05)
(-6.10333e-06 0.000882757 5.20717e-05)
(-6.01335e-06 0.000889608 5.09451e-05)
(-5.88269e-06 0.000895042 4.98072e-05)
(-5.72179e-06 0.000899367 4.87281e-05)
(-5.53339e-06 0.000902551 4.76839e-05)
(-5.32481e-06 0.0009048 4.67263e-05)
(-5.09799e-06 0.000905992 4.58099e-05)
(-4.85514e-06 0.000906235 4.49856e-05)
(-4.59968e-06 0.000905309 4.42022e-05)
(-4.33177e-06 0.000903214 4.35068e-05)
(-4.05023e-06 0.000899605 4.2842e-05)
(-3.75553e-06 0.00089433 4.22484e-05)
(-3.44688e-06 0.000886851 4.16608e-05)
(-3.12076e-06 0.000876764 4.11093e-05)
(-2.77682e-06 0.000863204 4.05145e-05)
(-2.40902e-06 0.000845331 3.98851e-05)
(-2.02525e-06 0.000821701 3.91144e-05)
(-1.62432e-06 0.000790699 3.81719e-05)
(-1.21863e-06 0.000749848 3.68768e-05)
(-8.23477e-07 0.000696148 3.49857e-05)
(-4.47561e-07 0.00062526 3.19345e-05)
(-6.22647e-08 0.000531689 2.76138e-05)
(1.0073e-07 0.000328207 2.11201e-05)
(-1.54787e-06 0.000303971 3.77556e-05)
(-2.48081e-06 0.000492043 5.13579e-05)
(-3.44157e-06 0.000579543 5.66786e-05)
(-4.56984e-06 0.000646531 5.98315e-05)
(-5.50274e-06 0.000698179 6.16202e-05)
(-6.25287e-06 0.000738187 6.25197e-05)
(-6.87212e-06 0.000769484 6.28702e-05)
(-7.36777e-06 0.00079407 6.28293e-05)
(-7.7596e-06 0.000813627 6.25612e-05)
(-8.04125e-06 0.000829211 6.21173e-05)
(-8.22769e-06 0.000841808 6.15951e-05)
(-8.31885e-06 0.000851948 6.10003e-05)
(-8.32696e-06 0.000860225 6.04028e-05)
(-8.24802e-06 0.000866871 5.97877e-05)
(-8.09522e-06 0.000872253 5.92116e-05)
(-7.87051e-06 0.000876426 5.86488e-05)
(-7.58189e-06 0.000879619 5.81484e-05)
(-7.23344e-06 0.000881769 5.76767e-05)
(-6.83265e-06 0.000883005 5.72759e-05)
(-6.3826e-06 0.00088317 5.69054e-05)
(-5.89279e-06 0.000882297 5.66008e-05)
(-5.36444e-06 0.000880126 5.63149e-05)
(-4.80609e-06 0.00087657 5.60762e-05)
(-4.21838e-06 0.00087122 5.58294e-05)
(-3.60755e-06 0.000863805 5.55929e-05)
(-2.9826e-06 0.000853677 5.52988e-05)
(-2.34557e-06 0.000840246 5.49471e-05)
(-1.71082e-06 0.000822449 5.44434e-05)
(-1.08986e-06 0.000799139 5.37481e-05)
(-5.03978e-07 0.000768515 5.27107e-05)
(2.03704e-08 0.000728432 5.11918e-05)
(4.32161e-07 0.000675771 4.8837e-05)
(6.77878e-07 0.000606586 4.51276e-05)
(8.1119e-07 0.000515388 3.95241e-05)
(6.94201e-07 0.000317614 2.78531e-05)
(-1.37768e-06 0.000295207 2.94986e-05)
(-2.27147e-06 0.000478289 4.29253e-05)
(-3.19714e-06 0.000563394 4.87144e-05)
(-4.29984e-06 0.000628596 5.23137e-05)
(-5.21746e-06 0.000678768 5.43905e-05)
(-5.97658e-06 0.000717675 5.5554e-05)
(-6.60174e-06 0.00074798 5.61229e-05)
(-7.11702e-06 0.000771825 5.63242e-05)
(-7.516e-06 0.000790647 5.62628e-05)
(-7.81339e-06 0.000805684 5.60562e-05)
(-8.00087e-06 0.00081769 5.57412e-05)
(-8.09436e-06 0.000827394 5.53907e-05)
(-8.08662e-06 0.000835166 5.50099e-05)
(-7.99073e-06 0.000841448 5.46514e-05)
(-7.80653e-06 0.000846386 5.43054e-05)
(-7.54567e-06 0.000850249 5.40135e-05)
(-7.20964e-06 0.000853048 5.37563e-05)
(-6.80869e-06 0.000854936 5.35674e-05)
(-6.34741e-06 0.000855824 5.34196e-05)
(-5.83574e-06 0.000855776 5.33392e-05)
(-5.27908e-06 0.000854605 5.32919e-05)
(-4.68618e-06 0.000852276 5.32963e-05)
(-4.06542e-06 0.000848485 5.3311e-05)
(-3.42376e-06 0.000843056 5.33459e-05)
(-2.7714e-06 0.000835507 5.33495e-05)
(-2.11344e-06 0.000825429 5.33187e-05)
(-1.46497e-06 0.000812041 5.31842e-05)
(-8.37863e-07 0.000794535 5.29163e-05)
(-2.49327e-07 0.000771603 5.24071e-05)
(2.82814e-07 0.000741728 5.15678e-05)
(7.22248e-07 0.000702659 5.01957e-05)
(1.02265e-06 0.000651606 4.80182e-05)
(1.11358e-06 0.000584633 4.45034e-05)
(1.0869e-06 0.000496657 3.90758e-05)
(8.43335e-07 0.000306108 2.66566e-05)
(-9.18253e-07 0.00028883 1.86622e-05)
(-1.58864e-06 0.000467907 2.81286e-05)
(-2.3026e-06 0.000551167 3.24227e-05)
(-3.18403e-06 0.000614865 3.50803e-05)
(-3.96323e-06 0.000663899 3.65692e-05)
(-4.62322e-06 0.000701795 3.73396e-05)
(-5.1945e-06 0.000731314 3.76746e-05)
(-5.66723e-06 0.000754391 3.77127e-05)
(-6.05054e-06 0.000772601 3.75706e-05)
(-6.3332e-06 0.000786991 3.73041e-05)
(-6.52261e-06 0.000798475 3.69826e-05)
(-6.61279e-06 0.0008076 3.66281e-05)
(-6.61456e-06 0.000814909 3.62874e-05)
(-6.52523e-06 0.000820662 3.5966e-05)
(-6.35557e-06 0.000825185 3.56992e-05)
(-6.10803e-06 0.00082857 3.54819e-05)
(-5.7939e-06 0.000831008 3.53411e-05)
(-5.41801e-06 0.000832474 3.52638e-05)
(-4.99132e-06 0.000833062 3.52691e-05)
(-4.52077e-06 0.000832657 3.53361e-05)
(-4.02116e-06 0.000831258 3.54766e-05)
(-3.49916e-06 0.00082865 3.56626e-05)
(-2.96104e-06 0.000824719 3.58979e-05)
(-2.41917e-06 0.000819111 3.6147e-05)
(-1.8819e-06 0.000811539 3.64047e-05)
(-1.36069e-06 0.000801428 3.66257e-05)
(-8.58865e-07 0.000788198 3.67909e-05)
(-3.91312e-07 0.000770893 3.68368e-05)
(3.21842e-08 0.000748423 3.67155e-05)
(3.92465e-07 0.000719155 3.63233e-05)
(6.78193e-07 0.000681088 3.55443e-05)
(8.48179e-07 0.000631374 3.41533e-05)
(8.70467e-07 0.000566384 3.1808e-05)
(8.09557e-07 0.000481082 2.8047e-05)
(6.00101e-07 0.000296646 1.90456e-05)
(-3.07501e-07 0.000286209 6.6182e-06)
(-6.9081e-07 0.000463945 9.83474e-06)
(-1.10062e-06 0.000546521 1.14415e-05)
(-1.6949e-06 0.000609687 1.23501e-05)
(-2.27501e-06 0.000658193 1.26879e-05)
(-2.81987e-06 0.000695655 1.26908e-05)
(-3.31009e-06 0.000724692 1.24804e-05)
(-3.7453e-06 0.000747358 1.21392e-05)
(-4.10516e-06 0.000765091 1.17078e-05)
(-4.39038e-06 0.000779071 1.12363e-05)
(-4.59059e-06 0.000790076 1.0748e-05)
(-4.70801e-06 0.000798794 1.02797e-05)
(-4.74044e-06 0.000805632 9.8443e-06)
(-4.6956e-06 0.000810997 9.47091e-06)
(-4.57464e-06 0.000815079 9.16521e-06)
(-4.38721e-06 0.000818113 8.94925e-06)
(-4.139e-06 0.000820154 8.82171e-06)
(-3.8454e-06 0.000821325 8.79728e-06)
(-3.51274e-06 0.000821578 8.86747e-06)
(-3.15162e-06 0.000820943 9.03919e-06)
(-2.77188e-06 0.00081928 9.2966e-06)
(-2.38802e-06 0.000816518 9.63939e-06)
(-2.00733e-06 0.000812403 1.0045e-05)
(-1.6379e-06 0.000806726 1.05063e-05)
(-1.2898e-06 0.000799061 1.09954e-05)
(-9.66839e-07 0.00078898 1.14991e-05)
(-6.77998e-07 0.000775771 1.19833e-05)
(-4.22419e-07 0.00075863 1.24281e-05)
(-2.09667e-07 0.000736348 1.27905e-05)
(-3.51242e-08 0.000707452 1.30375e-05)
(9.03216e-08 0.000669847 1.31044e-05)
(1.70092e-07 0.000620862 1.29197e-05)
(1.94414e-07 0.000556816 1.23453e-05)
(2.16785e-07 0.000472877 1.1226e-05)
(1.35566e-07 0.000291439 8.17676e-06)
(2.65571e-07 0.000287921 -4.47799e-06)
(1.40537e-07 0.00046739 -7.70826e-06)
(1.73378e-08 0.000550744 -8.92195e-06)
(-2.9728e-07 0.000614392 -9.87146e-06)
(-7.05555e-07 0.000663211 -1.07417e-05)
(-1.14022e-06 0.000700778 -1.15643e-05)
(-1.57211e-06 0.000729839 -1.23531e-05)
(-1.97273e-06 0.00075238 -1.31226e-05)
(-2.33079e-06 0.000769962 -1.38707e-05)
(-2.62338e-06 0.000783682 -1.45938e-05)
(-2.85233e-06 0.000794439 -1.52754e-05)
(-3.00567e-06 0.000802831 -1.59043e-05)
(-3.0865e-06 0.000809383 -1.64608e-05)
(-3.09396e-06 0.000814407 -1.69337e-05)
(-3.03827e-06 0.000818205 -1.73052e-05)
(-2.92244e-06 0.000820919 -1.75682e-05)
(-2.75766e-06 0.000822711 -1.77103e-05)
(-2.55626e-06 0.000823605 -1.77309e-05)
(-2.32836e-06 0.000823662 -1.76244e-05)
(-2.08306e-06 0.000822808 -1.73973e-05)
(-1.83634e-06 0.000821008 -1.70521e-05)
(-1.59735e-06 0.000818086 -1.66018e-05)
(-1.37406e-06 0.000813891 -1.60548e-05)
(-1.17773e-06 0.000808104 -1.54289e-05)
(-1.01074e-06 0.000800402 -1.47362e-05)
(-8.80531e-07 0.000790246 -1.39954e-05)
(-7.84232e-07 0.000777022 -1.32174e-05)
(-7.25854e-07 0.000759816 -1.2415e-05)
(-6.91538e-07 0.000737512 -1.15886e-05)
(-6.79232e-07 0.000708528 -1.07345e-05)
(-6.69448e-07 0.000670854 -9.82726e-06)
(-6.45211e-07 0.000621713 -8.81511e-06)
(-5.63731e-07 0.000557491 -7.59301e-06)
(-4.13283e-07 0.000473264 -6.01124e-06)
(-3.4842e-07 0.000291255 -2.77078e-06)
(6.64466e-07 0.000293663 -1.26891e-05)
(6.94782e-07 0.000477527 -2.09043e-05)
(7.90273e-07 0.000562852 -2.43461e-05)
(6.73785e-07 0.000627939 -2.67797e-05)
(4.01406e-07 0.000677729 -2.86315e-05)
(5.01472e-08 0.000715972 -3.01289e-05)
(-3.25863e-07 0.000745421 -3.14042e-05)
(-6.98391e-07 0.000768193 -3.25331e-05)
(-1.04099e-06 0.000785824 -3.35586e-05)
(-1.34159e-06 0.000799523 -3.44981e-05)
(-1.58077e-06 0.000810145 -3.53567e-05)
(-1.75826e-06 0.000818387 -3.6128e-05)
(-1.86683e-06 0.000824719 -3.68029e-05)
(-1.91476e-06 0.000829542 -3.73688e-05)
(-1.90335e-06 0.0008331 -3.78142e-05)
(-1.84111e-06 0.000835618 -3.81281e-05)
(-1.7405e-06 0.00083719 -3.8303e-05)
(-1.60792e-06 0.000837921 -3.83333e-05)
(-1.45663e-06 0.0008378 -3.82184e-05)
(-1.3018e-06 0.000836828 -3.79599e-05)
(-1.15313e-06 0.000834897 -3.75641e-05)
(-1.02094e-06 0.000831899 -3.70393e-05)
(-9.16554e-07 0.000827603 -3.6397e-05)
(-8.45912e-07 0.000821758 -3.56494e-05)
(-8.14986e-07 0.000813952 -3.48088e-05)
(-8.2141e-07 0.000803709 -3.38851e-05)
(-8.68586e-07 0.00079032 -3.28824e-05)
(-9.4249e-07 0.000772922 -3.17951e-05)
(-1.03788e-06 0.000750295 -3.0603e-05)
(-1.13414e-06 0.00072089 -2.92604e-05)
(-1.20895e-06 0.000682577 -2.76833e-05)
(-1.21467e-06 0.000632584 -2.57139e-05)
(-1.09052e-06 0.000567144 -2.30728e-05)
(-8.35852e-07 0.000481289 -1.93685e-05)
(-6.9655e-07 0.00029567 -1.1192e-05)
(8.19033e-07 0.000302208 -1.70201e-05)
(8.88652e-07 0.000491872 -2.7665e-05)
(1.08397e-06 0.00057985 -3.22156e-05)
(1.06826e-06 0.000646858 -3.53938e-05)
(8.717e-07 0.000698037 -3.77396e-05)
(5.83054e-07 0.000737233 -3.95798e-05)
(2.53372e-07 0.00076734 -4.11059e-05)
(-7.88677e-08 0.00079051 -4.24244e-05)
(-3.91867e-07 0.000808382 -4.35987e-05)
(-6.65303e-07 0.000822166 -4.46585e-05)
(-8.89206e-07 0.000832802 -4.56165e-05)
(-1.05228e-06 0.000840967 -4.64711e-05)
(-1.1593e-06 0.000847204 -4.72163e-05)
(-1.20961e-06 0.000851884 -4.78401e-05)
(-1.20448e-06 0.000855313 -4.83326e-05)
(-1.15463e-06 0.000857676 -4.86824e-05)
(-1.07208e-06 0.000859129 -4.88827e-05)
(-9.66097e-07 0.00085973 -4.89272e-05)
(-8.48982e-07 0.00085952 -4.88156e-05)
(-7.32489e-07 0.000858453 -4.85488e-05)
(-6.29687e-07 0.000856464 -4.81337e-05)
(-5.5204e-07 0.000853393 -4.75773e-05)
(-5.05745e-07 0.00084905 -4.68916e-05)
(-4.99969e-07 0.000843124 -4.60868e-05)
(-5.3655e-07 0.000835236 -4.51751e-05)
(-6.15939e-07 0.00082484 -4.41622e-05)
(-7.33918e-07 0.000811252 -4.30497e-05)
(-8.84744e-07 0.000793527 -4.18233e-05)
(-1.04773e-06 0.000770449 -4.04522e-05)
(-1.20861e-06 0.000740371 -3.88712e-05)
(-1.33255e-06 0.000701135 -3.69692e-05)
(-1.37013e-06 0.000649837 -3.45374e-05)
(-1.2448e-06 0.000582622 -3.12141e-05)
(-9.61182e-07 0.000494333 -2.64858e-05)
(-8.31117e-07 0.000303392 -1.588e-05)
(7.56496e-07 0.000311927 -1.74965e-05)
(7.69115e-07 0.000507492 -2.78758e-05)
(9.58059e-07 0.00059816 -3.23472e-05)
(9.45669e-07 0.000667152 -3.54838e-05)
(7.73169e-07 0.000719753 -3.78022e-05)
(5.17514e-07 0.00075997 -3.96288e-05)
(2.3507e-07 0.000790766 -4.11483e-05)
(-5.13095e-08 0.000814401 -4.24678e-05)
(-3.17354e-07 0.000832544 -4.36453e-05)
(-5.43685e-07 0.000846482 -4.47124e-05)
(-7.21012e-07 0.000857161 -4.56784e-05)
(-8.45718e-07 0.000865318 -4.65436e-05)
(-9.11058e-07 0.000871488 -4.72988e-05)
(-9.23508e-07 0.000876091 -4.79348e-05)
(-8.87439e-07 0.000879416 -4.84381e-05)
(-8.12045e-07 0.000881691 -4.88001e-05)
(-7.05972e-07 0.000883047 -4.90106e-05)
(-5.80889e-07 0.000883578 -4.90667e-05)
(-4.48808e-07 0.000883298 -4.89642e-05)
(-3.21968e-07 0.000882189 -4.87074e-05)
(-2.12778e-07 0.000880155 -4.82998e-05)
(-1.30099e-07 0.000877059 -4.77517e-05)
(-8.50019e-08 0.000872672 -4.70719e-05)
(-8.13766e-08 0.000866701 -4.62742e-05)
(-1.25254e-07 0.000858722 -4.53673e-05)
(-2.14653e-07 0.000848197 -4.43612e-05)
(-3.46273e-07 0.000834386 -4.32544e-05)
(-5.11566e-07 0.000816338 -4.20377e-05)
(-6.97145e-07 0.000792766 -4.06782e-05)
(-8.79467e-07 0.000761993 -3.91168e-05)
(-1.03607e-06 0.000721758 -3.72435e-05)
(-1.11338e-06 0.000669093 -3.48623e-05)
(-1.04373e-06 0.000599984 -3.16236e-05)
(-8.02467e-07 0.000509142 -2.70299e-05)
(-7.56503e-07 0.000312587 -1.66733e-05)
(5.33576e-07 0.000321138 -1.50727e-05)
(4.33119e-07 0.000521541 -2.30318e-05)
(5.30901e-07 0.000614432 -2.64738e-05)
(4.56572e-07 0.000685054 -2.89325e-05)
(2.70416e-07 0.000738841 -3.08042e-05)
(3.46045e-08 0.000779892 -3.23236e-05)
(-2.13753e-07 0.000811269 -3.36272e-05)
(-4.47743e-07 0.000835276 -3.47886e-05)
(-6.51729e-07 0.000853653 -3.58502e-05)
(-8.13944e-07 0.000867705 -3.68278e-05)
(-9.24749e-07 0.000878429 -3.77261e-05)
(-9.79707e-07 0.000886567 -3.85378e-05)
(-9.80817e-07 0.000892693 -3.92533e-05)
(-9.29951e-07 0.000897223 -3.98586e-05)
(-8.33542e-07 0.000900478 -4.03425e-05)
(-6.99874e-07 0.000902676 -4.06923e-05)
(-5.38161e-07 0.000903973 -4.09007e-05)
(-3.59834e-07 0.000904449 -4.0961e-05)
(-1.7815e-07 0.000904138 -4.08727e-05)
(-3.06045e-09 0.000903002 -4.06363e-05)
(1.52409e-07 0.000900963 -4.02588e-05)
(2.78439e-07 0.000897858 -3.97475e-05)
(3.65105e-07 0.00089347 -3.91149e-05)
(4.09226e-07 0.000887475 -3.83725e-05)
(4.04683e-07 0.000879454 -3.75345e-05)
(3.49273e-07 0.000868833 -3.66098e-05)
(2.47042e-07 0.000854866 -3.56057e-05)
(1.03854e-07 0.000836555 -3.4517e-05)
(-6.51454e-08 0.000812592 -3.33272e-05)
(-2.49441e-07 0.000781237 -3.19931e-05)
(-4.24773e-07 0.000740183 -3.04393e-05)
(-5.53733e-07 0.000686367 -2.85209e-05)
(-5.78703e-07 0.000615685 -2.59873e-05)
(-4.49305e-07 0.000522704 -2.24553e-05)
(-5.28841e-07 0.00032148 -1.4501e-05)
(2.32156e-07 0.000328559 -1.10236e-05)
(1.17344e-08 0.000532059 -1.52984e-05)
(-2.32515e-08 0.000626371 -1.71482e-05)
(-2.00421e-07 0.000698039 -1.85521e-05)
(-4.22572e-07 0.000752571 -1.97212e-05)
(-6.51716e-07 0.000794147 -2.07552e-05)
(-8.64132e-07 0.000825866 -2.17098e-05)
(-1.04725e-06 0.000850089 -2.26138e-05)
(-1.18828e-06 0.000868574 -2.34785e-05)
(-1.27908e-06 0.000882667 -2.43033e-05)
(-1.31413e-06 0.000893374 -2.50792e-05)
(-1.2954e-06 0.000901467 -2.57938e-05)
(-1.22061e-06 0.000907522 -2.64311e-05)
(-1.09343e-06 0.000911979 -2.69768e-05)
(-9.23543e-07 0.000915157 -2.74157e-05)
(-7.16592e-07 0.000917291 -2.77366e-05)
(-4.85877e-07 0.000918533 -2.793e-05)
(-2.41141e-07 0.000918976 -2.79903e-05)
(7.39457e-09 0.000918643 -2.79153e-05)
(2.47872e-07 0.00091751 -2.77074e-05)
(4.68028e-07 0.000915481 -2.73719e-05)
(6.57752e-07 0.000912405 -2.69181e-05)
(8.07905e-07 0.000908042 -2.63579e-05)
(9.13583e-07 0.000902077 -2.57053e-05)
(9.68842e-07 0.000894062 -2.49756e-05)
(9.70275e-07 0.000883426 -2.4184e-05)
(9.18095e-07 0.000869392 -2.33428e-05)
(8.17725e-07 0.000850954 -2.24605e-05)
(6.77665e-07 0.000826766 -2.15373e-05)
(5.07131e-07 0.000795068 -2.05611e-05)
(3.19811e-07 0.000753499 -1.95012e-05)
(1.35252e-07 0.000698959 -1.82963e-05)
(-6.65487e-09 0.000627267 -1.68345e-05)
(-2.06025e-08 0.000532917 -1.49139e-05)
(-2.33235e-07 0.000328702 -1.06307e-05)
(-6.58863e-08 0.000333464 -6.62629e-06)
(-3.96093e-07 0.000538095 -6.88567e-06)
(-5.74217e-07 0.000632932 -6.99024e-06)
(-8.53144e-07 0.000704972 -7.2314e-06)
(-1.11588e-06 0.000759758 -7.62269e-06)
(-1.34293e-06 0.000801482 -8.11417e-06)
(-1.52716e-06 0.000833277 -8.6744e-06)
(-1.66284e-06 0.000857507 -9.28117e-06)
(-1.74507e-06 0.00087596 -9.90969e-06)
(-1.76916e-06 0.000889983 -1.05376e-05)
(-1.73315e-06 0.000900602 -1.11573e-05)