/*--------------------------------*- C++ -*----------------------------------*\
| =========                 |                                                 |
| \\      /  F ield         | OpenFOAM: The Open Source CFD Toolbox           |
|  \\    /   O peration     | Version:  v2012                                 |
|   \\  /    A nd           | Website:  www.openfoam.com                      |
|    \\/     M anipulation  |                                                 |
\*---------------------------------------------------------------------------*/
FoamFile
{
    version     2.0;
    format      ascii;
    class       surfaceScalarField;
    location    "1800/topAir";
    object      phi;
}
// * * * * * * * * * * * * * * * * * * * * * * * * * * * * * * * * * * * * * //

dimensions      [1 0 -1 0 0 0 0];
oriented        oriented;


internalField   nonuniform List<scalar> 
3140
(
9.254553e-06
-6.192212e-08
7.63411e-08
9.27224e-06
-1.075244e-07
8.983691e-08
9.29684e-06
-1.185277e-07
9.392733e-08
9.311526e-06
-1.064526e-07
9.17664e-08
9.316229e-06
-8.780425e-08
8.310127e-08
9.313369e-06
-6.610824e-08
6.896731e-08
9.30618e-06
-4.230808e-08
4.949688e-08
9.29951e-06
-1.71546e-08
2.382442e-08
9.299916e-06
9.448315e-09
-9.854734e-09
9.314167e-06
3.964953e-08
-5.390166e-08
9.348726e-06
7.675554e-08
-1.113144e-07
9.409193e-06
1.257942e-07
-1.862627e-07
9.498366e-06
1.946629e-07
-2.838363e-07
9.614672e-06
2.930318e-07
-4.093388e-07
9.75047e-06
4.31551e-07
-5.673492e-07
9.891079e-06
6.201637e-07
-7.607747e-07
1.001636e-05
8.639126e-07
-9.891964e-07
1.010621e-05
1.157332e-06
-1.247182e-06
1.014825e-05
1.481592e-06
-1.523629e-06
1.014302e-05
1.808499e-06
-1.803268e-06
1.010346e-05
2.109793e-06
-2.07024e-06
1.005035e-05
2.36471e-06
-2.311597e-06
1.000678e-05
2.561984e-06
-2.518413e-06
9.992004e-06
2.69893e-06
-2.684158e-06
1.001166e-05
2.78084e-06
-2.800493e-06
1.004129e-05
2.823898e-06
-2.853527e-06
9.9996e-06
2.859787e-06
-2.818101e-06
9.725634e-06
2.946068e-06
-2.672102e-06
8.825979e-06
3.230138e-06
-2.330483e-06
3.88315e-06
-1.847914e-06
9.230363e-06
-1.038248e-07
8.050327e-08
9.188824e-06
-1.653024e-07
9.931679e-08
9.152058e-06
-1.930962e-07
1.11334e-07
9.126779e-06
-2.006457e-07
1.194712e-07
9.111963e-06
-1.963303e-07
1.233424e-07
9.106972e-06
-1.855471e-07
1.244291e-07
9.11221e-06
-1.710944e-07
1.235476e-07
9.129313e-06
-1.549905e-07
1.207329e-07
9.161054e-06
-1.375904e-07
1.152973e-07
9.210713e-06
-1.157533e-07
1.057428e-07
9.283413e-06
-8.606018e-08
9.011486e-08
9.386439e-06
-4.285532e-08
6.562326e-08
9.528264e-06
2.458832e-08
2.824788e-08
9.716778e-06
1.323448e-07
-2.78277e-08
9.955419e-06
3.020862e-07
-1.091779e-07
1.02346e-05
5.62931e-07
-2.219455e-07
1.052853e-05
9.405539e-07
-3.7058e-07
1.080003e-05
1.43997e-06
-5.541366e-07
1.101527e-05
2.029767e-06
-7.634148e-07
1.115881e-05
2.64719e-06
-9.822307e-07
1.123717e-05
3.225151e-06
-1.193723e-06
1.127154e-05
3.71609e-06
-1.385745e-06
1.128691e-05
4.096806e-06
-1.550193e-06
1.13012e-05
4.362952e-06
-1.678313e-06
1.131341e-05
4.523206e-06
-1.754585e-06
1.128847e-05
4.599465e-06
-1.750623e-06
1.113311e-05
4.630132e-06
-1.614985e-06
1.069085e-05
4.68698e-06
-1.298657e-06
9.579249e-06
4.94107e-06
-5.993255e-07
5.501519e-06
1.994043e-07
9.241333e-06
-1.574779e-07
8.127545e-08
9.163537e-06
-1.884982e-07
1.009918e-07
9.06089e-06
-2.046404e-07
1.1419e-07
8.946973e-06
-2.106977e-07
1.239688e-07
8.828297e-06
-2.078607e-07
1.302059e-07
8.708336e-06
-2.002881e-07
1.347014e-07
8.588783e-06
-1.902999e-07
1.387575e-07
8.469872e-06
-1.792787e-07
1.431986e-07
8.351362e-06
-1.679615e-07
1.488807e-07
8.234516e-06
-1.558211e-07
1.569136e-07
8.122552e-06
-1.423903e-07
1.682926e-07
8.02385e-06
-1.278435e-07
1.836895e-07
7.957168e-06
-1.114118e-07
2.026804e-07
7.951269e-06
-8.487104e-08
2.231133e-07
8.03672e-06
-2.597514e-08
2.426084e-07
8.237864e-06
1.051205e-07
2.566659e-07
8.561074e-06
3.587739e-07
2.585674e-07
8.974279e-06
7.811247e-07
2.4564e-07
9.412239e-06
1.365998e-06
2.25806e-07
9.814149e-06
2.027492e-06
2.177881e-07
1.014876e-05
2.657365e-06
2.331697e-07
1.041177e-05
3.185425e-06
2.676568e-07
1.061256e-05
3.584228e-06
3.117883e-07
1.07593e-05
3.851464e-06
3.647517e-07
1.084363e-05
3.996533e-06
4.423421e-07
1.082538e-05
4.036994e-06
5.807174e-07
1.061258e-05
4.008641e-06
8.342944e-07
1.010123e-05
3.980866e-06
1.217462e-06
8.957779e-06
4.196875e-06
1.887646e-06
4.683599e-06
2.694317e-06
9.031842e-06
7.962719e-08
8.744838e-06
9.850593e-08
8.429823e-06
1.10374e-07
8.100552e-06
1.185732e-07
7.769636e-06
1.230547e-07
7.443741e-06
1.25606e-07
7.125838e-06
1.276033e-07
6.816524e-06
1.300346e-07
6.514577e-06
1.339848e-07
6.217836e-06
1.409188e-07
5.922766e-06
1.526797e-07
5.623255e-06
1.716656e-07
5.310563e-06
2.012797e-07
4.978635e-06
2.470547e-07
4.637595e-06
3.150638e-07
4.327695e-06
4.150185e-07
4.120118e-06
5.663493e-07
4.104887e-06
7.963539e-07
4.343765e-06
1.12712e-06
4.816657e-06
1.554599e-06
5.43696e-06
2.037061e-06
6.110243e-06
2.512141e-06
6.764217e-06
2.930253e-06
7.344801e-06
3.270879e-06
7.803551e-06
3.537783e-06
8.090167e-06
3.750379e-06
8.158934e-06
3.939874e-06
8.024297e-06
4.115504e-06
7.910366e-06
4.310807e-06
4.43438e-06
9.368208e-06
-6.043103e-08
3.753635e-08
9.504908e-06
-1.065454e-07
5.968138e-08
9.650012e-06
-1.203751e-07
6.919854e-08
9.783552e-06
-1.143761e-07
7.260238e-08
9.901275e-06
-1.055511e-07
7.092847e-08
1.000321e-05
-9.795701e-08
6.498918e-08
1.009062e-05
-9.317719e-08
5.52672e-08
1.016524e-05
-9.253626e-08
4.173614e-08
1.022844e-05
-9.6998e-08
2.394016e-08
1.028136e-05
-1.076259e-07
8.051819e-10
1.03254e-05
-1.261381e-07
-2.920996e-08
1.036183e-05
-1.547216e-07
-6.797507e-08
1.039231e-05
-1.965544e-07
-1.177675e-07
1.041905e-05
-2.548821e-07
-1.811988e-07
1.044395e-05
-3.310375e-07
-2.612084e-07
1.046928e-05
-4.255613e-07
-3.605435e-07
1.049799e-05
-5.365942e-07
-4.81316e-07
1.053356e-05
-6.581643e-07
-6.245906e-07
1.057858e-05
-7.784717e-07
-7.901693e-07
1.063261e-05
-8.806564e-07
-9.766511e-07
1.069323e-05
-9.496528e-07
-1.181203e-06
1.076204e-05
-9.818538e-07
-1.398557e-06
1.085107e-05
-9.869409e-07
-1.620503e-06
1.098305e-05
-9.802358e-07
-1.835898e-06
1.118118e-05
-9.719825e-07
-2.026646e-06
1.144985e-05
-9.54903e-07
-2.167297e-06
1.175994e-05
-8.946432e-07
-2.233545e-06
1.20308e-05
-7.347272e-07
-2.208229e-06
1.200118e-05
-2.310893e-07
-2.069772e-06
6.737956e-07
-1.83656e-06
9.353434e-06
-1.042347e-07
3.983695e-08
9.446247e-06
-1.664725e-07
6.643039e-08
9.551878e-06
-1.961469e-07
8.147398e-08
9.673066e-06
-2.076696e-07
9.157656e-08
9.803231e-06
-2.100522e-07
9.767801e-08
9.938379e-06
-2.093192e-07
1.006429e-07
1.007645e-05
-2.088135e-07
1.011078e-07
1.021631e-05
-2.108328e-07
9.917544e-08
1.035755e-05
-2.174086e-07
9.446602e-08
1.05003e-05
-2.307191e-07
8.608327e-08
1.064505e-05
-2.534343e-07
7.266068e-08
1.079255e-05
-2.889302e-07
5.233028e-08
1.094306e-05
-3.41463e-07
2.264523e-08
1.109575e-05
-4.154856e-07
-1.990909e-08
1.125016e-05
-5.144697e-07
-8.015938e-08
1.140705e-05
-6.407848e-07
-1.636185e-07
1.156819e-05
-7.925705e-07
-2.757393e-07
1.173706e-05
-9.603543e-07
-4.208151e-07
1.191704e-05
-1.121475e-06
-6.00393e-07
1.210686e-05
-1.240961e-06
-8.117519e-07
1.229925e-05
-1.288879e-06
-1.046881e-06
1.248774e-05
-1.263995e-06
-1.292096e-06
1.267551e-05
-1.194297e-06
-1.530612e-06
1.287967e-05
-1.117341e-06
-1.745364e-06
1.313229e-05
-1.061302e-06
-1.917888e-06
1.347281e-05
-1.028866e-06
-2.017181e-06
1.397917e-05
-1.005254e-06
-2.010738e-06
1.480819e-05
-9.788539e-07
-1.883548e-06
1.652747e-05
-9.278371e-07
-1.621854e-06
-5.867862e-07
-1.345598e-06
9.365064e-06
-1.592801e-07
4.021246e-08
9.422737e-06
-1.904976e-07
6.734307e-08
9.465096e-06
-2.075898e-07
8.327331e-08
9.502179e-06
-2.15469e-07
9.46846e-08
9.53517e-06
-2.154872e-07
1.026498e-07
9.564477e-06
-2.121557e-07
1.082303e-07
9.590131e-06
-2.080775e-07
1.123673e-07
9.611643e-06
-2.047927e-07
1.15646e-07
9.628264e-06
-2.036532e-07
1.185031e-07
9.639235e-06
-2.061054e-07
1.21328e-07
9.643831e-06
-2.140271e-07
1.242893e-07
9.641604e-06
-2.301209e-07
1.271063e-07
9.632556e-06
-2.583739e-07
1.28638e-07
9.617802e-06
-3.042326e-07
1.266134e-07
9.601961e-06
-3.738669e-07
1.178451e-07
9.594434e-06
-4.73933e-07
9.733954e-08
9.611056e-06
-6.083079e-07
5.768127e-08
9.672968e-06
-7.671348e-07
-9.492718e-09
9.797663e-06
-9.116495e-07
-1.087156e-07
9.988786e-06
-9.784792e-07
-2.358173e-07
1.023066e-05
-9.224942e-07
-3.750944e-07
1.049507e-05
-7.577027e-07
-5.03045e-07
1.075533e-05
-5.43297e-07
-5.994789e-07
1.099628e-05
-3.424662e-07
-6.510649e-07
1.121479e-05
-1.994924e-07
-6.379858e-07
1.140459e-05
-1.303047e-07
-5.076372e-07
1.156174e-05
-1.222939e-07
-2.058122e-07
1.170819e-05
-1.688435e-07
2.609971e-07
1.197248e-05
-2.888864e-07
9.844087e-07
-4.268861e-07
1.701873e-06
9.150226e-06
3.906877e-08
8.993079e-06
6.515441e-08
8.815697e-06
8.016572e-08
8.628208e-06
9.059245e-08
8.438272e-06
9.750408e-08
8.249736e-06
1.019855e-07
8.064217e-06
1.050437e-07
7.882063e-06
1.073958e-07
7.702704e-06
1.0969e-07
7.524856e-06
1.126613e-07
7.346365e-06
1.171427e-07
7.163801e-06
1.241075e-07
6.971912e-06
1.347942e-07
6.763676e-06
1.510573e-07
6.530035e-06
1.748362e-07
6.262018e-06
2.091011e-07
5.958623e-06
2.614352e-07
5.639848e-06
3.47993e-07
5.359107e-06
4.962101e-07
5.196242e-06
7.389832e-07
5.214473e-06
1.096334e-06
5.412158e-06
1.556751e-06
5.724998e-06
2.074114e-06
6.06582e-06
2.587589e-06
6.353646e-06
3.050465e-06
6.516627e-06
3.457094e-06
6.495518e-06
3.838691e-06
6.275876e-06
4.166304e-06
5.80946e-06
4.488337e-06
4.761725e-06
9.34751e-06
-6.094277e-08
1.994079e-08
9.480531e-06
-1.070055e-07
3.36663e-08
9.627922e-06
-1.201237e-07
4.193063e-08
9.766635e-06
-1.12878e-07
4.67668e-08
9.891025e-06
-1.024572e-07
4.899572e-08
9.999799e-06
-9.294467e-08
4.91589e-08
1.009318e-05
-8.586178e-08
4.775237e-08
1.017217e-05
-8.242227e-08
4.516269e-08
1.023796e-05
-8.357477e-08
4.172729e-08
1.029137e-05
-9.033586e-08
3.773184e-08
1.033282e-05
-1.040291e-07
3.336666e-08
1.036227e-05
-1.264208e-07
2.899715e-08
1.037914e-05
-1.598905e-07
2.524882e-08
1.038223e-05
-2.074205e-07
2.312604e-08
1.036994e-05
-2.727066e-07
2.379169e-08
1.03411e-05
-3.602251e-07
2.851691e-08
1.029654e-05
-4.7535e-07
3.859418e-08
1.02414e-05
-6.241533e-07
5.470971e-08
1.018744e-05
-8.121753e-07
7.596078e-08
1.015336e-05
-1.041104e-06
9.852747e-08
1.016075e-05
-1.303444e-06
1.148591e-07
1.022696e-05
-1.579791e-06
1.150214e-07
1.036222e-05
-1.8458e-06
9.002698e-08
1.057455e-05
-2.083953e-06
3.572174e-08
1.087824e-05
-2.283186e-06
-4.714595e-08
1.128182e-05
-2.428556e-06
-1.42325e-07
1.178928e-05
-2.492132e-06
-2.488661e-07
1.240096e-05
-2.435748e-06
-3.841663e-07
1.297272e-05
-1.978143e-06
-6.633832e-07
-1.068503e-06
-1.031766e-06
9.33102e-06
-1.041042e-07
2.094202e-08
9.419939e-06
-1.66182e-07
3.668743e-08
9.529177e-06
-1.952725e-07
4.738485e-08
9.658827e-06
-2.058025e-07
5.484999e-08
9.801158e-06
-2.067933e-07
5.96831e-08
9.950905e-06
-2.042576e-07
6.220752e-08
1.01049e-05
-2.014364e-07
6.269052e-08
1.026085e-05
-2.003843e-07
6.118615e-08
1.041701e-05
-2.027911e-07
5.751475e-08
1.05719e-05
-2.103989e-07
5.125607e-08
1.072404e-05
-2.252536e-07
4.175205e-08
1.087176e-05
-2.499218e-07
2.810724e-08
1.101302e-05
-2.877168e-07
9.206054e-09
1.114496e-05
-3.429495e-07
-1.631358e-08
1.126361e-05
-4.212217e-07
-5.030067e-08
1.136414e-05
-5.290935e-07
-9.527835e-08
1.144174e-05
-6.742615e-07
-1.544332e-07
1.149381e-05
-8.650436e-07
-2.319887e-07
1.152281e-05
-1.10778e-06
-3.33788e-07
1.15373e-05
-1.399937e-06
-4.67411e-07
1.154822e-05
-1.721195e-06
-6.400474e-07
1.156299e-05
-2.033038e-06
-8.536294e-07
1.15866e-05
-2.299011e-06
-1.101006e-06
1.16308e-05
-2.508816e-06
-1.364704e-06
1.172598e-05
-2.678467e-06
-1.617785e-06
1.190288e-05
-2.815998e-06
-1.806638e-06
1.223986e-05
-2.918137e-06
-1.921716e-06
1.293988e-05
-2.98796e-06
-2.031351e-06
1.473764e-05
-2.948617e-06
-2.449141e-06
-2.638748e-06
-2.802122e-06
9.343e-06
-1.590354e-07
2.109856e-08
9.397102e-06
-1.900068e-07
3.706636e-08
9.4437e-06
-2.06777e-07
4.81787e-08
9.490555e-06
-2.142358e-07
5.626284e-08
9.538123e-06
-2.136525e-07
6.194035e-08
9.58605e-06
-2.095323e-07
6.557794e-08
9.633881e-06
-2.044274e-07
6.752613e-08
9.680896e-06
-1.997347e-07
6.79811e-08
9.726186e-06
-1.965693e-07
6.699083e-08
9.768672e-06
-1.960214e-07
6.44635e-08
9.806971e-06
-1.993652e-07
6.010191e-08
9.839145e-06
-2.082911e-07
5.329996e-08
9.862258e-06
-2.251812e-07
4.298804e-08
9.87192e-06
-2.534456e-07
2.74468e-08
9.862108e-06
-2.977829e-07
4.216465e-09
9.825234e-06
-3.645427e-07
-3.033734e-08
9.753182e-06
-4.627404e-07
-8.178926e-08
9.641122e-06
-6.039995e-07
-1.584779e-07
9.494137e-06
-7.990097e-07
-2.705018e-07
9.331487e-06
-1.04379e-06
-4.293166e-07
9.178401e-06
-1.302866e-06
-6.403397e-07
9.051321e-06
-1.513022e-06
-8.959845e-07
8.953785e-06
-1.626674e-06
-1.174284e-06
8.885425e-06
-1.654595e-06
-1.436928e-06
8.856104e-06
-1.656341e-06
-1.630791e-06
8.855409e-06
-1.682914e-06
-1.640024e-06
8.919269e-06
-1.754479e-06
-1.433327e-06
9.265724e-06
-1.902248e-06
-1.171167e-06
1.07745e-05
-2.277129e-06
-1.195857e-06
-2.632072e-06
-1.449204e-06
9.128355e-06
2.062559e-08
8.967473e-06
3.602899e-08
8.794305e-06
4.65569e-08
8.61664e-06
5.402101e-08
8.441415e-06
5.90765e-08
8.271731e-06
6.213687e-08
8.108733e-06
6.361398e-08
7.952597e-06
6.379614e-08
7.802851e-06
6.286621e-08
7.658553e-06
6.093691e-08
7.518286e-06
5.804404e-08
7.37996e-06
5.414186e-08
7.240453e-06
4.911931e-08
7.095209e-06
4.28543e-08
6.937095e-06
3.516608e-08
6.755582e-06
2.607057e-08
6.537931e-06
1.634515e-08
6.273541e-06
8.382443e-09
5.962226e-06
8.514033e-09
5.625417e-06
3.200021e-08
5.312941e-06
1.059408e-07
5.095468e-06
2.611962e-07
5.030957e-06
5.119483e-07
5.119014e-06
8.449344e-07
5.307559e-06
1.205581e-06
5.488422e-06
1.59332e-06
5.470331e-06
2.102306e-06
5.262595e-06
2.471795e-06
5.345773e-06
2.128032e-06
1.242642e-06
9.341507e-06
-6.069548e-08
8.101381e-09
9.466247e-06
-1.062039e-07
1.512973e-08
9.606608e-06
-1.182871e-07
1.985605e-08
9.739749e-06
-1.092165e-07
2.284265e-08
9.860205e-06
-9.599163e-08
2.453086e-08
9.966557e-06
-8.244677e-08
2.525339e-08
1.005873e-05
-6.973818e-08
2.531373e-08
1.013747e-05
-5.855595e-08
2.497646e-08
1.020381e-05
-4.909387e-08
2.448486e-08
1.025875e-05
-4.129662e-08
2.409055e-08
1.030307e-05
-3.506412e-08
2.410693e-08
1.033732e-05
-3.02789e-08
2.502685e-08
1.036175e-05
-2.683103e-08
2.764899e-08
1.037631e-05
-2.486957e-08
3.343583e-08
1.038099e-05
-2.500004e-08
4.411427e-08
1.037602e-05
-2.831769e-08
6.179911e-08
1.03622e-05
-3.695079e-08
8.936931e-08
1.034138e-05
-5.474135e-08
1.302698e-07
1.031698e-05
-8.824642e-08
1.886018e-07
1.029488e-05
-1.478969e-07
2.685214e-07
1.028511e-05
-2.480793e-07
3.727077e-07
1.030373e-05
-4.039692e-07
5.003706e-07
1.037248e-05
-6.239032e-07
6.451746e-07
1.051282e-05
-8.994621e-07
7.94841e-07
1.074167e-05
-1.204762e-06
9.287676e-07
1.102465e-05
-1.461919e-06
1.036618e-06
1.126469e-05
-1.561886e-06
1.072984e-06
1.129525e-05
-1.371989e-06
9.572578e-07
1.050976e-05
-3.563778e-07
4.784865e-07
1.656006e-06
-3.118468e-07
9.324551e-06
-1.038231e-07
8.482107e-09
9.404102e-06
-1.655148e-07
1.64471e-08
9.504757e-06
-1.938389e-07
2.228182e-08
9.627005e-06
-2.03001e-07
2.63858e-08
9.763436e-06
-2.017974e-07
2.905749e-08
9.908696e-06
-1.959837e-07
3.048345e-08
1.005929e-05
-1.884538e-07
3.081107e-08
1.021257e-05
-1.807514e-07
3.00975e-08
1.036651e-05
-1.738034e-07
2.828979e-08
1.051949e-05
-1.682486e-07
2.522202e-08
1.067022e-05
-1.646555e-07
2.061731e-08
1.081759e-05
-1.636499e-07
1.410483e-08
1.096075e-05
-1.660152e-07
5.233188e-09
1.109892e-05
-1.729937e-07
-6.358983e-09
1.123109e-05
-1.864863e-07
-2.098592e-08
1.135601e-05
-2.094617e-07
-3.905472e-08
1.147193e-05
-2.46305e-07
-6.099906e-08
1.157616e-05
-3.036379e-07
-8.73276e-08
1.166465e-05
-3.915481e-07
-1.189726e-07
1.173154e-05
-5.24417e-07
-1.577832e-07
1.177098e-05
-7.20105e-07
-2.074626e-07
1.178142e-05
-9.938776e-07
-2.74166e-07
1.177007e-05
-1.347477e-06
-3.660907e-07
1.175556e-05
-1.760208e-06
-4.894506e-07
1.177242e-05
-2.199743e-06
-6.396614e-07
1.181062e-05
-2.546732e-06
-7.60018e-07
1.186714e-05
-2.675406e-06
-8.647136e-07
1.20915e-05
-2.551791e-06
-1.075912e-06
1.246367e-05
-1.413055e-06
-1.764631e-06
7.854361e-07
-2.462789e-06
9.336719e-06
-1.590211e-07
8.532684e-09
9.381612e-06
-1.899214e-07
1.657932e-08
9.419735e-06
-2.063574e-07
2.257436e-08
9.459278e-06
-2.132009e-07
2.69185e-08
9.501144e-06
-2.116259e-07
2.990325e-08
9.545058e-06
-2.060335e-07
3.171315e-08
9.590467e-06
-1.988409e-07
3.250359e-08
9.63657e-06
-1.912271e-07
3.235326e-08
9.682474e-06
-1.839648e-07
3.124698e-08
9.727247e-06
-1.776262e-07
2.90677e-08
9.769857e-06
-1.727298e-07
2.556578e-08
9.809084e-06
-1.698812e-07
2.030326e-08
9.843391e-06
-1.699181e-07
1.258241e-08
9.870727e-06
-1.741113e-07
1.227846e-09
9.888078e-06
-1.843733e-07
-1.524954e-08
9.890866e-06
-2.038599e-07
-3.872709e-08
9.871845e-06
-2.373896e-07
-7.168483e-08
9.81952e-06
-2.923497e-07
-1.174409e-07
9.717769e-06
-3.796192e-07
-1.80681e-07
9.5473e-06
-5.147902e-07
-2.684757e-07
9.294143e-06
-7.163789e-07
-3.909134e-07
8.96135e-06
-9.969767e-07
-5.600988e-07
8.572774e-06
-1.348209e-06
-7.849831e-07
8.170524e-06
-1.740194e-06
-1.054696e-06
7.81439e-06
-2.153933e-06
-1.320466e-06
7.487732e-06
-2.469658e-06
-1.390436e-06
7.219781e-06
-2.607794e-06
-1.232983e-06
7.467543e-06
-2.737392e-06
-1.233323e-06
9.032059e-06
-2.209178e-06
-1.964248e-06
-6.171661e-07
-2.97404e-06
9.122248e-06
8.303892e-09
8.95234e-06
1.60145e-08
8.770874e-06
2.166535e-08
8.586043e-06
2.5651e-08
8.405218e-06
2.827541e-08
8.231577e-06
2.974344e-08
8.066117e-06
3.023324e-08
7.90883e-06
2.985497e-08
7.759095e-06
2.863608e-08
7.615886e-06
2.651863e-08
7.477859e-06
2.334067e-08
7.343316e-06
1.880309e-08
7.210086e-06
1.243032e-08
7.075359e-06
3.468402e-09
6.93522e-06
-9.068472e-09
6.783765e-06
-2.633487e-08
6.612142e-06
-4.942229e-08
6.40734e-06
-7.916513e-08
6.152399e-06
-1.161653e-07
5.830687e-06
-1.610816e-07
5.434834e-06
-2.145919e-07
4.973691e-06
-2.746459e-07
4.470836e-06
-3.334124e-07
3.952014e-06
-3.764413e-07
3.454993e-06
-4.513293e-07
3.075922e-06
-4.972614e-07
2.743797e-06
-1.733565e-07
2.513433e-06
-3.52261e-08
3.702696e-06
-1.270406e-06
-2.959311e-06
9.337893e-06
-6.082034e-08
3.940038e-13
9.459371e-06
-1.063491e-07
1.062513e-12
9.597566e-06
-1.183413e-07
1.96463e-12
9.729378e-06
-1.089732e-07
3.067737e-12
9.849128e-06
-9.522384e-08
4.359282e-12
9.955265e-06
-8.088922e-08
5.821043e-12
1.004763e-05
-6.705889e-08
7.426384e-12
1.012693e-05
-5.433443e-08
9.160864e-12
1.01942e-05
-4.279141e-08
1.099262e-11
1.025048e-05
-3.220312e-08
1.289905e-11
1.029678e-05
-2.220786e-08
1.487548e-11
1.033414e-05
-1.235882e-08
1.68886e-11
1.036383e-05
-2.056049e-09
1.882072e-11
1.038675e-05
1.048957e-08
2.05763e-11
1.040442e-05
2.642631e-08
2.209498e-11
1.041862e-05
4.75771e-08
2.317386e-11
1.043194e-05
7.601779e-08
2.362046e-11
1.044825e-05
1.1394e-07
2.301818e-11
1.047182e-05
1.650116e-07
2.10956e-11
1.05074e-05
2.329226e-07
1.704539e-11
1.055981e-05
3.202876e-07
1.060899e-11
1.063433e-05
4.258484e-07
1.381649e-12
1.073826e-05
5.412464e-07
-9.754178e-12
1.088202e-05
6.510937e-07
-2.008844e-11
1.106042e-05
7.503923e-07
-1.965749e-11
1.11067e-05
9.903184e-07
1.746917e-11
1.073069e-05
1.448966e-06
3.208938e-11
9.565091e-06
2.122849e-06
1.043518e-11
6.845475e-06
3.198139e-06
-3.466346e-11
5.209275e-06
-1.131298e-10
9.320437e-06
-1.038115e-07
-3.654671e-13
9.396017e-06
-1.654815e-07
-7.714483e-13
9.493632e-06
-1.936739e-07
-1.200058e-12
9.613586e-06
-2.025399e-07
-1.637446e-12
9.748242e-06
-2.008207e-07
-2.071348e-12
9.892048e-06
-1.9421e-07
-2.498962e-12
1.004132e-05
-1.85517e-07
-2.930381e-12
1.019325e-05
-1.761643e-07
-3.352295e-12
1.034566e-05
-1.669085e-07
-3.786479e-12
1.049684e-05
-1.581552e-07
-4.239057e-12
1.064542e-05
-1.501664e-07
-4.74324e-12
1.07904e-05
-1.43229e-07
-5.32151e-12
1.093126e-05
-1.376816e-07
-6.040522e-12
1.106759e-05
-1.3219e-07
-6.963514e-12
1.119885e-05
-1.25812e-07
-8.212998e-12
1.132493e-05
-1.175542e-07
-9.912695e-12
1.144631e-05
-1.06345e-07
-1.235194e-11
1.156426e-05
-9.132688e-08
-1.57806e-11
1.168175e-05
-7.142492e-08
-2.074279e-11
1.180316e-05
-4.624398e-08
-2.760581e-11
1.193363e-05
-1.761539e-08
-3.65459e-11
1.207854e-05
6.815821e-09
-4.905375e-11
1.224703e-05
6.728253e-09
-6.59062e-11
1.245862e-05
-4.988338e-08
-6.282298e-11
1.276153e-05
-1.921608e-07
-2.107528e-11
1.294033e-05
5.142679e-08
7.749143e-11
1.256283e-05
9.616736e-07
7.941876e-11
1.135255e-05
2.257199e-06
2.036392e-11
8.544578e-06
4.241528e-06
-4.510166e-11
6.689165e-06
-1.219483e-10
9.332667e-06
-1.589897e-07
-4.367237e-13
9.373615e-06
-1.898501e-07
-9.203991e-13
9.408677e-06
-2.061609e-07
-1.467196e-12
9.445867e-06
-2.128095e-07
-2.095845e-12
9.485891e-06
-2.109386e-07
-2.797013e-12
9.528313e-06
-2.049164e-07
-3.591958e-12
9.572425e-06
-1.971215e-07
-4.478992e-12
9.617289e-06
-1.886694e-07
-5.476579e-12
9.66187e-06
-1.802368e-07
-6.600598e-12
9.705043e-06
-1.722532e-07
-7.879742e-12
9.745477e-06
-1.650268e-07
-9.360054e-12
9.781425e-06
-1.588632e-07
-1.109331e-11
9.810487e-06
-1.541491e-07
-1.312724e-11
9.830328e-06
-1.507893e-07
-1.560496e-11
9.838078e-06
-1.487938e-07
-1.863396e-11
9.830205e-06
-1.483865e-07
-2.253565e-11
9.802367e-06
-1.50164e-07
-2.765319e-11
9.749072e-06
-1.554372e-07
-3.469868e-11
9.663541e-06
-1.665314e-07
-4.456546e-11
9.536667e-06
-1.877893e-07
-5.901041e-11
9.355853e-06
-2.27642e-07
-8.043484e-11
9.104322e-06
-3.016512e-07
-1.088421e-10
8.772183e-06
-4.459934e-07
-1.332643e-10
8.4122e-06
-7.444559e-07
-1.451347e-10
8.275568e-06
-1.375914e-06
-8.19751e-11
8.441614e-06
-1.505292e-06
2.431363e-10
8.588567e-06
-4.18397e-07
1.411152e-10
8.522203e-06
1.09033e-06
-8.361009e-11
7.315367e-06
3.484364e-06
-2.435666e-10
5.697954e-06
-3.215899e-10
9.118262e-06
-4.518938e-13
8.944427e-06
-9.303312e-13
8.759932e-06
-1.463132e-12
8.572775e-06
-2.06529e-12
8.390115e-06
-2.750257e-12
8.214945e-06
-3.536105e-12
8.048061e-06
-4.444186e-12
7.889251e-06
-5.484454e-12
7.737657e-06
-6.693833e-12
7.591929e-06
-8.115624e-12
7.450252e-06
-9.82147e-12
7.310203e-06
-1.187948e-11
7.168498e-06
-1.442965e-11
7.021194e-06
-1.764816e-11
6.863352e-06
-2.182291e-11
6.688658e-06
-2.744865e-11
6.489108e-06
-3.53526e-11
6.254552e-06
-4.678577e-11
5.971918e-06
-6.401396e-11
5.623131e-06
-9.021998e-11
5.181019e-06
-1.308264e-10
4.604902e-06
-1.914071e-10
3.825769e-06
-2.826574e-10
2.705282e-06
-4.142667e-10
8.786573e-07
-6.141232e-10
-1.123456e-06
-4.281359e-10
-1.714781e-06
-4.149243e-10
-6.588915e-07
-7.741135e-10
1.555791e-06
-7.200079e-10
-4.374799e-10
9.337894e-06
-6.082052e-08
-8.10063e-09
9.459371e-06
-1.063493e-07
-1.512768e-08
9.597567e-06
-1.183415e-07
-1.985224e-08
9.729379e-06
-1.089732e-07
-2.283668e-08
9.849129e-06
-9.52238e-08
-2.452235e-08
9.955266e-06
-8.088912e-08
-2.524196e-08
1.004763e-05
-6.705876e-08
-2.529907e-08
1.012693e-05
-5.43343e-08
-2.495825e-08
1.01942e-05
-4.279132e-08
-2.446285e-08
1.025048e-05
-3.220311e-08
-2.40645e-08
1.029678e-05
-2.220797e-08
-2.407656e-08
1.033414e-05
-1.235909e-08
-2.49919e-08
1.036383e-05
-2.056537e-09
-2.760944e-08
1.038675e-05
1.048884e-08
-3.339173e-08
1.040441e-05
2.642523e-08
-4.40657e-08
1.04186e-05
4.757564e-08
-6.174641e-08
1.043193e-05
7.601565e-08
-8.931302e-08
1.044822e-05
1.139368e-07
-1.302106e-07
1.047178e-05
1.650058e-07
-1.885403e-07
1.050734e-05
2.329112e-07
-2.684575e-07
1.055973e-05
3.202628e-07
-3.726404e-07
1.063422e-05
4.258e-07
-5.002965e-07
1.073814e-05
5.411507e-07
-6.450882e-07
1.088195e-05
6.509027e-07
-7.947346e-07
1.106046e-05
7.501003e-07
-9.286273e-07
1.110672e-05
9.902313e-07
-1.03647e-06
1.073063e-05
1.448963e-06
-1.07284e-06
9.564985e-06
2.122805e-06
-9.57148e-07
6.845367e-06
3.19803e-06
-4.784448e-07
5.209153e-06
3.117819e-07
9.320437e-06
-1.038116e-07
-8.482822e-09
9.396017e-06
-1.654816e-07
-1.64486e-08
9.493632e-06
-1.93674e-07
-2.228413e-08
9.613586e-06
-2.0254e-07
-2.638896e-08
9.748242e-06
-2.008207e-07
-2.906148e-08
9.892048e-06
-1.9421e-07
-3.048827e-08
1.004132e-05
-1.85517e-07
-3.081669e-08
1.019325e-05
-1.761643e-07
-3.010389e-08
1.034566e-05
-1.669087e-07
-2.82969e-08
1.049684e-05
-1.581554e-07
-2.522981e-08
1.064542e-05
-1.501669e-07
-2.062573e-08
1.079039e-05
-1.432297e-07
-1.411386e-08
1.093126e-05
-1.376828e-07
-5.242769e-09
1.106758e-05
-1.321918e-07
6.348882e-09
1.119884e-05
-1.258147e-07
2.097533e-08
1.132492e-05
-1.175582e-07
3.904367e-08
1.144628e-05
-1.06351e-07
6.098757e-08
1.156422e-05
-9.13363e-08
8.731582e-08
1.168169e-05
-7.144045e-08
1.189612e-07
1.180307e-05
-4.627195e-08
1.577739e-07
1.19335e-05
-1.76707e-08
2.074592e-07
1.207837e-05
6.700546e-09
2.741747e-07
1.224683e-05
6.506868e-09
3.661215e-07
1.245843e-05
-5.028578e-08
4.895127e-07
1.276156e-05
-1.927874e-07
6.397454e-07
1.294021e-05
5.161743e-08
7.60039e-07
1.256256e-05
9.619975e-07
8.647029e-07
1.135224e-05
2.257308e-06
1.075836e-06
8.544419e-06
4.241362e-06
1.764446e-06
6.688791e-06
2.462537e-06
9.332667e-06
-1.589898e-07
-8.533535e-09
9.373615e-06
-1.898501e-07
-1.65811e-08
9.408677e-06
-2.06161e-07
-2.25772e-08
9.445867e-06
-2.128096e-07
-2.692255e-08
9.48589e-06
-2.109386e-07
-2.990865e-08
9.528312e-06
-2.049165e-07
-3.172009e-08
9.572424e-06
-1.971215e-07
-3.251225e-08
9.617287e-06
-1.886694e-07
-3.236383e-08
9.661868e-06
-1.802369e-07
-3.125969e-08
9.70504e-06
-1.722534e-07
-2.908282e-08
9.745473e-06
-1.650271e-07
-2.55836e-08
9.781419e-06
-1.588637e-07
-2.032413e-08
9.810479e-06
-1.541499e-07
-1.260667e-08
9.830317e-06
-1.507906e-07
-1.255933e-09
9.838061e-06
-1.487958e-07
1.521714e-08
9.83018e-06
-1.483895e-07
3.868983e-08
9.802328e-06
-1.501687e-07
7.164206e-08
9.74901e-06
-1.554446e-07
1.173922e-07
9.663441e-06
-1.665437e-07
1.80626e-07
9.536502e-06
-1.878098e-07
2.684158e-07
9.355569e-06
-2.276784e-07
3.908518e-07
9.103848e-06
-3.017373e-07
5.600422e-07
8.771506e-06
-4.462254e-07
7.849312e-07
8.411429e-06
-7.449812e-07
1.054623e-06
8.275331e-06
-1.37708e-06
1.320309e-06
8.441178e-06
-1.504095e-06
1.390116e-06
8.587975e-06
-4.17315e-07
1.232662e-06
8.521362e-06
1.090972e-06
1.232873e-06
7.314994e-06
3.484109e-06
1.963381e-06
5.697367e-06
2.972959e-06
9.118262e-06
-8.304762e-09
8.944427e-06
-1.601629e-08
8.759932e-06
-2.166816e-08
8.572775e-06
-2.565498e-08
8.390114e-06
-2.828072e-08
8.214944e-06
-2.975026e-08
8.048059e-06
-3.02418e-08
7.889249e-06
-2.986552e-08
7.737654e-06
-2.864894e-08
7.591926e-06
-2.653417e-08
7.450248e-06
-2.335935e-08
7.310197e-06
-1.882547e-08
7.168488e-06
-1.24571e-08
7.02118e-06
-3.50048e-09
6.863332e-06
9.029908e-09
6.688626e-06
2.628807e-08
6.489058e-06
4.936487e-08
6.254472e-06
7.909357e-08
5.971788e-06
1.160747e-07
5.622917e-06
1.609649e-07
5.180662e-06
2.144379e-07
4.604289e-06
2.744333e-07
3.824668e-06
3.331048e-07
2.703273e-06
3.75996e-07
8.747851e-07
4.507987e-07
-1.12642e-06
4.966917e-07
-1.716146e-06
1.720089e-07
-6.597373e-07
3.379831e-08
1.555502e-06
1.268154e-06
2.955688e-06
9.341508e-06
-6.069601e-08
-1.994014e-08
9.466249e-06
-1.062044e-07
-3.366451e-08
9.606611e-06
-1.182874e-07
-4.192727e-08
9.739751e-06
-1.092165e-07
-4.676144e-08
9.860208e-06
-9.599144e-08
-4.898796e-08
9.966561e-06
-8.244636e-08
-4.914836e-08
1.005874e-05
-6.973757e-08
-4.773868e-08
1.013748e-05
-5.855524e-08
-4.514548e-08
1.020382e-05
-4.909323e-08
-4.170622e-08
1.025875e-05
-4.129615e-08
-3.770653e-08
1.030308e-05
-3.506385e-08
-3.333661e-08
1.033732e-05
-3.027904e-08
-2.896195e-08
1.036175e-05
-2.683215e-08
-2.520808e-08
1.037631e-05
-2.487166e-08
-2.307947e-08
1.038099e-05
-2.500347e-08
-2.373918e-08
1.037602e-05
-2.832286e-08
-2.845842e-08
1.03622e-05
-3.69586e-08
-3.852967e-08
1.034138e-05
-5.475308e-08
-5.46387e-08
1.031699e-05
-8.826478e-08
-7.5882e-08
1.029489e-05
-1.47926e-07
-9.843777e-08
1.028513e-05
-2.481247e-07
-1.14754e-07
1.030376e-05
-4.040354e-07
-1.148956e-07
1.037253e-05
-6.239872e-07
-8.987713e-08
1.051289e-05
-8.995475e-07
-3.554963e-08
1.074176e-05
-1.204823e-06
4.733e-08
1.102466e-05
-1.461846e-06
1.424767e-07
1.126453e-05
-1.561681e-06
2.489679e-07
1.129492e-05
-1.371764e-06
3.842304e-07
1.050935e-05
-3.562888e-07
6.634147e-07
1.655911e-06
1.031768e-06
9.324551e-06
-1.038234e-07
-2.094265e-08
9.404102e-06
-1.655152e-07
-3.668875e-08
9.504756e-06
-1.938393e-07
-4.73869e-08
9.627004e-06
-2.030012e-07
-5.48528e-08
9.763435e-06
-2.017974e-07
-5.968668e-08
9.908695e-06
-1.959837e-07
-6.221184e-08
1.005929e-05
-1.884537e-07
-6.269553e-08
1.021257e-05
-1.807514e-07
-6.11918e-08
1.036651e-05
-1.738035e-07
-5.752094e-08
1.051949e-05
-1.682491e-07
-5.126265e-08
1.067022e-05
-1.646566e-07
-4.175882e-08
1.081759e-05
-1.636518e-07
-2.811394e-08
1.096074e-05
-1.660185e-07
-9.21235e-09
1.109891e-05
-1.72999e-07
1.630822e-08
1.123108e-05
-1.864944e-07
5.029703e-08
1.1356e-05
-2.094736e-07
9.527746e-08
1.147191e-05
-2.463224e-07
1.544367e-07
1.157614e-05
-3.036637e-07
2.319988e-07
1.166461e-05
-3.915868e-07
3.338086e-07
1.173149e-05
-5.244759e-07
4.674472e-07
1.177091e-05
-7.201923e-07
6.401044e-07
1.178133e-05
-9.93999e-07
8.537101e-07
1.176998e-05
-1.347626e-06
1.101108e-06
1.175549e-05
-1.760356e-06
1.364813e-06
1.177239e-05
-2.199839e-06
1.617861e-06
1.181052e-05
-2.546528e-06
1.806592e-06
1.186693e-05
-2.674959e-06
1.921568e-06
1.209121e-05
-2.55135e-06
2.031143e-06
1.24636e-05
-1.413054e-06
2.448832e-06
7.848561e-07
2.801752e-06
9.336719e-06
-1.590212e-07
-2.10993e-08
9.381612e-06
-1.899216e-07
-3.706791e-08
9.419734e-06
-2.063576e-07
-4.818121e-08
9.459277e-06
-2.13201e-07
-5.626643e-08
9.501141e-06
-2.11626e-07
-6.194519e-08
9.545055e-06
-2.060335e-07
-6.55842e-08
9.590463e-06
-1.98841e-07
-6.753399e-08
9.636566e-06
-1.912272e-07
-6.799077e-08
9.682469e-06
-1.83965e-07
-6.700256e-08
9.727241e-06
-1.776267e-07
-6.447755e-08
9.769849e-06
-1.727307e-07
-6.011859e-08
9.809074e-06
-1.698827e-07
-5.331953e-08
9.843379e-06
-1.699206e-07
-4.301073e-08
9.870712e-06
-1.741154e-07
-2.747268e-08
9.888059e-06
-1.8438e-07
-4.245437e-09
9.890839e-06
-2.038704e-07
3.030595e-08
9.871808e-06
-2.374062e-07
8.175692e-08
9.819465e-06
-2.923764e-07
1.584479e-07
9.717686e-06