/*--------------------------------*- C++ -*----------------------------------*\
| =========                 |                                                 |
| \\      /  F ield         | OpenFOAM: The Open Source CFD Toolbox           |
|  \\    /   O peration     | Version:  v2012                                 |
|   \\  /    A nd           | Website:  www.openfoam.com                      |
|    \\/     M anipulation  |                                                 |
\*---------------------------------------------------------------------------*/
FoamFile
{
    version     2.0;
    format      ascii;
    class       volScalarField;
    location    "1800/topAir";
    object      T;
}
// * * * * * * * * * * * * * * * * * * * * * * * * * * * * * * * * * * * * * //

dimensions      [0 0 0 1 0 0 0];


internalField   nonuniform List<scalar> 
1200
(
306.9037
313.4879
319.5682
325.2293
330.5451
335.5777
340.3803
344.9959
349.418
353.5814
357.4914
361.1463
364.5357
367.6378
370.4184
372.83
374.8137
376.3068
377.2574
377.6439
377.488
376.8524
375.8242
374.5023
373.0014
371.4701
370.113
369.1872
369.1656
370.1975
300.1507
300.4398
300.8434
301.3465
301.9368
302.6047
303.3428
304.1461
305.0531
306.1596
307.5049
309.1582
311.2126
313.7323
316.7978
320.4518
324.6343
329.1466
333.6721
337.8592
341.4204
344.1895
346.1304
347.3205
347.9361
348.2529
348.6726
349.7241
352.5607
357.2657
300.0034
300.013
300.031
300.0591
300.099
300.1522
300.2197
300.3029
300.4038
300.5268
300.6774
300.8635
301.1262
301.6049
302.4703
303.963
306.3541
309.8256
314.3118
319.4682
324.7989
329.8283
334.2132
337.7799
340.5163
342.549
344.1258
345.6152
347.7155
351.0915
300.0001
300.0004
300.0012
300.0026
300.0052
300.0092
300.0151
300.0236
300.0352
300.0509
300.0717
300.0993
300.1371
300.1947
300.2944
300.5505
301.2658
302.9591
306.0828
310.534
315.7136
320.9851
325.9051
330.2274
333.8586
336.8234
339.2462
341.3486
343.5653
346.3257
306.9028
313.4155
319.3657
324.8427
329.9175
334.6438
339.0595
343.1877
347.0393
350.6184
353.9119
356.8921
359.5126
361.7115
363.4234
364.5886
365.1674
365.1582
364.6133
363.6392
362.3668
360.9
359.2923
357.5711
355.8005
354.1333
352.8276
352.2438
353.2936
355.3239
300.1505
300.4343
300.8238
301.3006
301.8495
302.4583
303.1161
303.8131
304.5404
305.2903
306.0525
306.8131
307.5506
308.2432
308.8801
309.4421
309.9149
310.2956
310.6011
310.8735
311.1644
311.5049
311.8963
312.3318
312.8233
313.4215
314.2107
315.2744
316.7182
319.8569
300.0034
300.0127
300.0298
300.056
300.0922
300.1392
300.1974
300.2672
300.3487
300.442
300.5468
300.6631
300.7912
300.9353
301.105
301.3165
301.5931
301.9668
302.4915
303.2667
304.3763
305.7943
307.4045
309.1155
310.9571
313.1167
315.8818
319.3963
323.9698
329.3879
300.0001
300.0004
300.0011
300.0024
300.0047
300.0081
300.013
300.0198
300.0288
300.0405
300.0552
300.0736
300.0964
300.1254
300.1645
300.2301
300.38
300.7836
301.7966
303.8733
307.2292
311.595
316.401
321.1294
325.4739
329.3219
332.6992
335.7152
338.615
341.6078
306.9032
313.4273
319.387
324.8697
329.9476
334.6764
339.0978
343.2399
347.1191
350.7403
354.0966
357.1674
359.9161
362.2867
364.2023
365.5675
366.2733
366.2063
365.2692
363.4186
360.7202
357.3883
353.7506
350.1503
346.9488
344.4094
342.6841
341.9673
343.0759
346.4365
300.1505
300.4351
300.8256
301.3029
301.8514
302.4584
303.1129
303.8053
304.5264
305.2666
306.0155
306.7607
307.487
308.1759
308.8056
309.3495
309.7787
310.064
310.1839
310.1393
309.9749
309.7898
309.7093
309.8333
310.2232
310.9507
312.1216
313.8857
316.6196
320.6184
300.0034
300.0128
300.0299
300.0561
300.0922
300.1389
300.1965
300.2651
300.3447
300.4351
300.5356
300.6453
300.7629
300.8865
301.0134
301.1404
301.2628
301.3759
301.4864
301.6284
301.8972
302.4479
303.4091
304.801
306.5948
308.8647
311.7061
315.2115
319.5816
324.2909
300.0001
300.0004
300.0011
300.0024
300.0047
300.008
300.0129
300.0195
300.0281
300.0391
300.0529
300.0696
300.0895
300.1131
300.1408
300.174
300.218
300.2939
300.473
300.9484
302.0889
304.315
307.7669
312.1168
316.8021
321.3903
325.6927
329.6887
333.4896
336.9899
306.9041
313.434
319.4059
324.908
330.0148
334.7861
339.2699
343.5038
347.5176
351.3353
354.9767
358.4577
361.7899
364.9751
367.9913
370.8052
373.3675
375.6045
377.4171
378.6554
379.1159
378.5796
376.8996
374.1148
370.4275
366.4283
363.0477
361.3136
363.411
367.5031
300.1505
300.4356
300.8271
301.3066
301.8588
302.4714
303.1345
303.8396
304.5798
305.3488
306.1408
306.9505
307.7722
308.6
309.426
310.2404
311.0296
311.7751
312.4516
313.0256
313.459
313.7232
313.8326
313.8808
314.0438
314.6607
316.1167
318.8876
324.3309
335.6812
300.0034
300.0128
300.03
300.0563
300.0927
300.1398
300.1981
300.2677
300.3489
300.4415
300.5454
300.6602
300.7857
300.9209
301.0651
301.2165
301.3729
301.5309
301.6862
301.8341
301.9746
302.1296
302.3787
302.8951
303.9509
306.129
309.6468
314.4349
320.6777
329.0032
300.0001
300.0004
300.0011
300.0025
300.0047
300.0081
300.013
300.0197
300.0284
300.0396
300.0536
300.0706
300.091
300.1151
300.1432
300.1756
300.2128
300.2557
300.307
300.3767
300.5043
300.8203
301.6251
303.3491
306.3396
311.3524
317.3448
323.0819
328.9335
336.2322
306.9044
313.4369
319.4133
324.9215
330.0363
334.819
339.3192
343.5771
347.6264
351.4965
355.2157
358.8134
362.3232
365.7431
369.0094
372.0978
374.9835
377.619
380.0384
382.2495
384.2312
385.9271
387.2468
388.0879
388.3842
388.1816
387.7195
387.5188
388.7841
392.1664
300.1506
300.4358
300.8279
301.3082
301.8617
302.4763
303.1422
303.8515
304.5978
305.3758
306.1813
307.0106
307.8624
308.785
309.8035
310.9422
312.236
313.7293
315.4837
317.5731
320.0672
322.9837
326.2515
329.6374
332.8181
336.9286
342.0507
348.5441
357.2638
369.8968
300.0034
300.0128
300.03
300.0564
300.0929
300.1402
300.1988
300.2688
300.3506
300.4441
300.5494
300.6664
300.795
300.9361
301.0912
301.2621
301.4511
301.6612
301.8962
302.1604
302.4582
302.8028
303.1729
303.5313
304.0201
306.3848
311.5188
319.943
332.7416
350.1343
300.0001
300.0004
300.0011
300.0025
300.0047
300.0081
300.013
300.0198
300.0286
300.0399
300.054
300.0713
300.092
300.1167
300.1457
300.1796
300.2193
300.2655
300.3198
300.384
300.4624
300.5647
300.7165
301.0237
302.3663
312.5716
322.0944
324.9908
332.9951
345.8544
306.9044
313.437
319.4134
324.9215
330.0364
334.8191
339.3193
343.5772
347.6265
351.4966
355.2158
358.8135
362.3234
365.7432
369.0095
372.0979
374.9837
377.6192
380.0386
382.2497
384.2314
385.9273
387.2469
388.0881
388.3845
388.1819
387.72
387.5195
388.7849
392.1671
300.1506
300.4358
300.8279
301.3082
301.8617
302.4763
303.1422
303.8515
304.5978
305.3758
306.1813
307.0107
307.8624
308.785
309.8035
310.9422
312.236
313.7292
315.4836
317.5729
320.0669
322.9832
326.2506
329.6351
332.8137
336.9245
342.0474
348.5416
357.262
369.896
300.0034
300.0128
300.03
300.0564
300.0929
300.1402
300.1988
300.2688
300.3506
300.4441
300.5494
300.6664
300.795
300.9361
301.0912
301.2621
301.4511
301.6612
301.8962
302.1604
302.4581
302.8025
303.1721
303.5306
304.0198
306.3884
311.5218
319.9455
332.7431
350.1347
300.0001
300.0004
300.0011
300.0025
300.0047
300.0081
300.013
300.0198
300.0286
300.0399
300.054
300.0713
300.092
300.1167
300.1457
300.1796
300.2193
300.2655
300.3198
300.3841
300.4624
300.5647
300.7165
301.024
302.3694
312.5973
322.1015
324.9946
332.9967
345.855
306.9041
313.434
319.406
324.9082
330.0149
334.7863
339.2701
343.5041
347.5179
351.3356
354.977
358.458
361.7903
364.9755
367.9917
370.8056
373.3679
375.6049
377.4175
378.6557
379.1161
378.5797
376.8995
374.1147
370.4272
366.4285
363.0487
361.3153
363.413
367.505
300.1505
300.4356
300.8272
301.3066
301.8588
302.4714
303.1345
303.8396
304.5798
305.3488
306.1408
306.9505
307.7722
308.6
309.426
310.2404
311.0296
311.7751
312.4516
313.0256
313.4588
313.723
313.8323
313.8805
314.0435
314.6609
316.1174
318.8885
324.3313
335.6809
300.0034
300.0128
300.03
300.0563
300.0927
300.1398
300.1981
300.2677
300.3489
300.4415
300.5454
300.6603
300.7857
300.9209
301.0651
301.2165
301.3729
301.5309
301.6862
301.8341
301.9746
302.1296
302.3788
302.8955
303.952
306.1316
309.6499
314.4377
320.6793
329.0027
300.0001
300.0004
300.0011
300.0025
300.0047
300.0081
300.013
300.0197
300.0284
300.0396
300.0536
300.0706
300.091
300.1151
300.1432
300.1756
300.2128
300.2557
300.307
300.3768
300.5044
300.8207
301.6262
303.3515
306.3441
311.3602
317.3516
323.0873
328.9357
336.2274
306.9033
313.4274
319.3872
324.8699
329.9478
334.6767
339.0981
343.2403
347.1195
350.7408
354.0971
357.168
359.9166
362.2872
364.2028
365.568
366.2737
366.2066
365.2693
363.4184
360.7199
357.3879
353.7503
350.1502
346.9493
344.4106
342.6859
341.9696
343.0787
346.4399
300.1505
300.4351
300.8256
301.3029
301.8514
302.4584
303.1129
303.8054
304.5264
305.2666
306.0155
306.7607
307.487
308.176
308.8056
309.3496
309.7787
310.064
310.1839
310.1392
309.9748
309.7898
309.7094
309.8335
310.2236
310.9514
312.1225
313.8867
316.6206
320.6193
300.0034
300.0128
300.0299
300.0561
300.0922
300.1389
300.1965
300.2651
300.3447
300.4351
300.5356
300.6453
300.7629
300.8865
301.0134
301.1404
301.2628
301.3759
301.4864
301.6285
301.8974
302.4482
303.4096
304.8019
306.596
308.8664
311.708
315.2138
319.5841
324.2936
300.0001
300.0004
300.0011
300.0024
300.0047
300.008
300.0129
300.0195
300.0281
300.0391
300.0529
300.0696
300.0895
300.1131
300.1408
300.174
300.218
300.2939
300.4731
300.9488
302.0896
304.3165
307.7691
312.1197
316.8055
321.3941
325.6969
329.6932
333.4946
336.9958
306.9028
313.4156
319.3659
324.843
329.9179
334.6442
339.06
343.1882
347.0399
350.619
353.9127
356.8929
359.5135
361.7124
363.4244
364.5895
365.1683
365.1591
364.6141
363.6401
362.3678
360.901
359.2933
357.5723
355.8018
354.135
352.8298
352.2467
353.2972
355.3277
300.1505
300.4343
300.8238
301.3006
301.8495
302.4583
303.1161
303.8131
304.5405
305.2903
306.0526
306.8132
307.5507
308.2433
308.8802
309.4422
309.915
310.2957
310.6013
310.8736
311.1646
311.5052
311.8967
312.3323
312.8239
313.4222
314.2117
315.2756
316.7195
319.8598
300.0034
300.0127
300.0298
300.056
300.0922
300.1392
300.1974
300.2672
300.3487
300.442
300.5468
300.6631
300.7912
300.9353
301.105
301.3166
301.5932
301.9669
302.4917
303.2671
304.3769
305.795
307.4055
309.1168
310.9588
313.119
315.8849
319.3999
323.974
329.3929
300.0001
300.0004
300.0011
300.0024
300.0047
300.0081
300.013
300.0198
300.0288
300.0405
300.0552
300.0736
300.0964
300.1254
300.1646
300.2301
300.3801
300.7838
301.7972
303.8744
307.2308
311.5972
316.4035
321.1321
325.4767
329.3249
332.7023
335.7186
338.6189
341.6124
306.9037
313.488
319.5684
325.2296
330.5455
335.5782
340.3809
344.9966
349.4188
353.5822
357.4923
361.1473
364.5368
367.639
370.4196
372.8313
374.815
376.3081
377.2587
377.6451
377.4893
376.8536
375.8255
374.5037
373.0029
371.472
370.1152
369.1899
369.1689
370.2015
300.1507
300.4398
300.8434
301.3465
301.9368
302.6047
303.3428
304.1461
305.0532
306.1597
307.5052
309.1586
311.2132
313.733
316.7988
320.4531
324.6359
329.1485
333.674
337.8612
341.4223
344.1914
346.1322
347.3223
347.938
348.255
348.6752
349.7274
352.565
357.2705
300.0034
300.013
300.031
300.0591
300.099
300.1522
300.2197
300.3029
300.4038
300.5268
300.6774
300.8636
301.1263
301.605
302.4706
303.9636
306.355
309.827
314.3136
319.4704
324.8013
329.8308
334.2156
337.7822
340.5186
342.5513
344.1283
345.6181
347.7191
351.0959
300.0001
300.0004
300.0012
300.0026
300.0052
300.0092
300.0151
300.0236
300.0352
300.0509
300.0717
300.0993
300.1371
300.1947
300.2945
300.5506
301.2661
302.9599
306.0843
310.536
315.716
320.9877
325.9078
330.2301
333.8612
336.8261
339.2489
341.3516
343.5688
346.3299
)
;

boundaryField
{
    maxY
    {
        type            zeroGradient;
    }
    minX
    {
        type            fixedValue;
        value           uniform 300;
    }
    maxX
    {
        type            inletOutlet;
        inletValue      uniform 300;
        value           nonuniform List<scalar> 
40
(
370.1952
357.264
351.0899
346.3242
355.3219
319.8562
329.3869
341.6064
346.4346
320.6175
324.2894
336.9884
367.5012
335.6801
329.0012
336.2297
392.1632
369.895
350.1325
345.8522
392.1639
369.8942
350.1329
345.8529
367.5031
335.6799
329.0006
336.2248
346.438
320.6183
324.2922
336.9944
355.3257
319.8591
329.3919
341.6109
370.1991
357.2687
351.0943
346.3284
)
;
    }
    minZ
    {
        type            zeroGradient;
    }
    maxZ
    {
        type            zeroGradient;
    }
    topAir_to_rightSolid
    {
        type            compressible::turbulentTemperatureRadCoupledMixed;
        refValue        nonuniform List<scalar> 
130
(
471.2588
470.9447
470.5587
470.135
469.702
469.2812
468.8893
468.5385
468.2375
467.9918
467.8057
467.6816
467.6209
471.6441
471.2469
470.7835
470.2955
469.8127
469.3551
468.9369
468.5678
468.2543
468.0006
467.8096
467.6831
467.6218
472.4514
471.8546
471.2214
470.6026
470.0246
469.4997
469.0349
468.6341
468.2996
468.0323
467.8331
467.7021
467.6389
473.6983
472.7021
471.7869
470.9801
470.2794
469.675
469.1585
468.724
468.3675
468.086
467.8781
467.7424
467.6772
475.1996
473.5139
472.2531
471.2624
470.459
469.795
469.2432
468.7875
468.4182
468.1289
467.9163
467.7775
467.7108
475.2
473.5142
472.2534
471.2627
470.4594
469.7954
469.2437
468.788
468.4187
468.1293
467.9167
467.7779
467.7113
473.6993
472.7032
471.788
470.9812
470.2806
469.6762
469.1599
468.7255
468.3691
468.0875
467.8794
467.7436
467.6787
472.4531
471.8563
471.2232
470.6044
470.0265
469.5017
469.0371
468.6365
468.3022
468.0348
467.8354
467.7044
467.6415
471.6464
471.2492
470.7859
470.298
469.8154
469.3579
468.9399
468.5709
468.2577
468.0041
467.8132
467.6869
467.6256
471.2611
470.9472
470.5613
470.1377
469.705
469.2844
468.8927
468.5421
468.2413
467.9959
467.81
467.6863
467.626
)
;
        refGradient     nonuniform List<scalar> 
130
(
-8351.116
-8351.116
-8351.116
-8351.116
-7948.314
-7948.314
-7948.314
-7948.314
-7609.949
-7609.949
-7609.949
-7609.949
-7628.394
-8351.116
-8351.116
-8351.116
-8351.116
-7948.314
-7948.314
-7948.314
-7948.314
-7609.949
-7609.949
-7609.949
-7609.949
-7628.394
-8825.132
-8825.132
-8825.132
-8825.132
-8353.287
-8353.287
-8353.287
-8353.287
-8033.122
-8033.122
-7628.394
-7628.394
-7628.394
-8825.132
-8825.132
-8825.132
-8825.132
-8353.287
-8353.287
-8353.287
-8353.287
-8033.122
-8033.122
-7628.394
-7628.394
-7628.394
-8997.127
-8997.127
-8997.127
-8997.127
-8453.282
-8453.282
-8453.282
-8453.282
-8033.122
-8033.122
-7484.917
-7484.917
-7484.917
-8997.127
-8997.127
-8997.127
-8997.127
-8453.282
-8453.282
-8453.282
-8453.282
-8033.122
-8033.122
-7484.917
-7484.917
-7484.917
-8824.306
-8824.306
-8824.306
-8824.306
-8349.837
-8349.837
-8349.837
-8349.837
-7884.592
-7884.592
-7884.592
-7884.592
-7484.917
-8824.306
-8824.306
-8824.306
-8824.306
-8349.837
-8349.837
-8349.837
-8349.837
-7884.592
-7884.592
-7884.592
-7884.592
-7484.917
-8349.859
-8349.859
-8349.859
-8349.859
-7942.152
-7942.152
-7942.152
-7942.152
-7554.5
-7554.5
-7554.5
-7554.5
-7554.5
-8349.859
-8349.859
-8349.859
-8349.859
-7942.152
-7942.152
-7942.152
-7942.152
-7554.5
-7554.5
-7554.5
-7554.5
-7554.5
)
;
        valueFraction   uniform 0.9996787;
        value           nonuniform List<scalar> 
130
(
471.2175
470.9038
470.5181
470.0945
469.662
469.241
468.8488
468.4976
468.1966
467.9506
467.7642
467.6402
467.5798
471.5991
471.2019
470.7384
470.2501
469.7675
469.3096
468.8909
468.5213
468.2079
467.9538
467.7627
467.6366
467.5759
472.4059
471.809
471.1754
470.5559
469.9776
469.4517
468.986
468.5843
468.2495
467.9817
467.7829
467.6523
467.5902
473.6554
472.6602
471.7456
470.9392
470.2392
469.6344
469.1172
468.6817
468.3244
468.0419
467.8341
467.6991
467.6352
475.1567
473.4723
472.2126
471.2228
470.421
469.7576
469.2063
468.7508
468.3821
468.0927
467.8808
467.7425
467.6769
475.157
473.4726
472.2129
471.2232
470.4214
469.758
469.2067
468.7513
468.3826
468.0932
467.8813
467.7429
467.6774
473.6565
472.6612
471.7467
470.9403
470.2404
469.6357
469.1186
468.6832
468.3262
468.0436
467.835
467.6999
467.6369
472.4076
471.8107
471.1772
470.5578
469.9796
469.4538
468.9882
468.5867
468.2523
467.9844
467.7848
467.6542
467.593
471.6014
471.2042
470.7407
470.2525
469.7701
469.3124
468.8939
468.5245
468.2114
467.9574
467.7664
467.6404
467.5798
471.2199
470.9063
470.5207
470.0972
469.6649
469.2441
468.8521
468.5012
468.2005
467.9547
467.7686
467.6449
467.585
)
;
        Tnbr            T;
        qrNbr           none;
        qr              qr;
        thermalInertia  false;
        thicknessLayers List<scalar> 0();
        kappaLayers     List<scalar> 0();
        kappaMethod     fluidThermo;
        kappa           none;
        alphaAni        none;
        alpha           none;
    }
    topAir_to_heater
    {
        type            compressible::turbulentTemperatureRadCoupledMixed;
        refValue        nonuniform List<scalar> 
40
(
471.2001
471.4452
471.533
471.4629
471.6617
471.9478
472.0347
471.9218
472.6648
473.0602
473.1455
472.9216
474.3986
475.0322
475.1133
474.6461
477.411
478.4078
478.4717
477.6165
477.4114
478.4082
478.4721
477.6169
474.3997
475.0334
475.1144
474.6471
472.6666
473.062
473.1473
472.9233
471.6644
471.9504
472.0371
471.9241
471.2031
471.4481
471.5359
471.4658
)
;
        refGradient     nonuniform List<scalar> 
40
(
-8505.885
-8505.885
-8412.921
-8412.921
-8847.111
-8847.111
-8792.581
-8792.581
-9052.281
-9052.281
-9015.541
-9015.541
-9268.537
-9268.537
-9240.942
-9240.942
-9588.764
-9588.764
-9562.929
-9562.929
-9588.769
-9588.769
-9562.898
-9562.898
-9268.546
-9268.546
-9240.836
-9240.836
-9052.298
-9052.298
-9015.379
-9015.379
-8847.163
-8847.163
-8792.399
-8792.399
-8505.95
-8505.95
-8412.769
-8412.769
)
;
        valueFraction   uniform 0.9996787;
        value           nonuniform List<scalar> 
40
(
471.1559
471.4018
471.4905
471.4211
471.615
471.9016
471.9888
471.8762
472.6177
473.0136
473.0994
472.8757
474.3515
474.9859
475.0679
474.6017
477.3628
478.3603
478.4252
477.5713
477.3632
478.3607
478.4256
477.5717
474.3526
474.9871
475.069
474.6027
472.6195
473.0154
473.1012
472.8774
471.6177
471.9042
471.9913
471.8785
471.1589
471.4047
471.4933
471.4239
)
;
        Tnbr            T;
        qrNbr           none;
        qr              qr;
        thermalInertia  false;
        thicknessLayers List<scalar> 0();
        kappaLayers     List<scalar> 0();
        kappaMethod     fluidThermo;
        kappa           none;
        alphaAni        none;
        alpha           none;
    }
    topAir_to_leftSolid
    {
        type            compressible::turbulentTemperatureRadCoupledMixed;
        refValue        nonuniform List<scalar> 
130
(
465.8306
465.9171
466.0901
466.345
466.6768
467.0797
467.5462
468.0661
468.626
469.2083
469.7894
470.3392
470.8222
465.8359
465.9241
466.1002
466.3603
466.7003
467.1155
467.6001
468.1459
468.7423
469.3742
470.0193
470.6462
471.2118
465.848
465.9385
466.1199
466.3888
466.7425
467.1789
467.695
468.2875
468.9515
469.6795
470.4568
471.2553
472.0223
465.8609
465.954
466.1406
466.4187
466.7872
467.2463
467.7974
468.4436
469.1901
470.0445
471.0144
472.1007
473.2735
465.8693
465.9639
466.1539
466.4379
466.8158
467.2899
467.8649
468.5494
469.3586
470.3193
471.4774
472.9161
474.7909
465.8696
465.9642
466.1542
466.4382
466.8161
467.2903
467.8652
468.5497
469.3589
470.3197
471.4778
472.9165
474.7912
465.8618
465.9549
466.1416
466.4197
466.7881
467.2472
467.7984
468.4446
469.191
470.0455
471.0155
472.1018
473.2743
465.8494
465.94
466.1213
466.3903
466.7441
467.1805
467.6966
468.2892
468.9532
469.6813
470.4587
471.2571
472.024
465.8377
465.926
466.1023
466.3625
466.7025
467.1178
467.6024
468.1483
468.7447
469.3767
470.0219
470.649
471.2149
465.8319
465.9191
466.0924
466.3474
466.6793
467.0823
467.5489
468.0688
468.6288
469.2113
469.7925
470.3426
470.826
)
;
        refGradient     nonuniform List<scalar> 
130
(
-8536.687
-8536.687
-8536.687
-8536.687
-8547.514
-8547.514
-8547.514
-8547.514
-8632.152
-8632.152
-8632.152
-8632.152
-8919.072
-8536.687
-8536.687
-8536.687
-8536.687
-8547.514
-8547.514
-8547.514
-8547.514
-8632.152
-8632.152
-8632.152
-8632.152
-8919.072
-8584.241
-8584.241
-8584.241
-8584.241
-8683.865
-8683.865
-8683.865
-8683.865
-8860.608
-8860.608
-8919.072
-8919.072
-8919.072
-8584.241
-8584.241
-8584.241
-8584.241
-8683.865
-8683.865
-8683.865
-8683.865
-8860.608
-8860.608
-8919.072
-8919.072
-8919.072
-8592.057
-8592.057
-8592.057
-8592.057
-8708.569
-8708.569
-8708.569
-8708.569
-8860.608
-8860.608
-9142.529
-9142.529
-9142.529
-8592.057
-8592.057
-8592.057
-8592.057
-8708.569
-8708.569
-8708.569
-8708.569
-8860.608
-8860.608
-9142.529
-9142.529
-9142.529
-8584.343
-8584.343
-8584.343
-8584.343
-8683.972
-8683.972
-8683.972
-8683.972
-8900.713
-8900.713
-8900.713
-8900.713
-9142.529
-8584.343
-8584.343
-8584.343
-8584.343
-8683.972
-8683.972
-8683.972
-8683.972
-8900.713
-8900.713
-8900.713
-8900.713
-9142.529
-8536.857
-8536.857
-8536.857
-8536.857
-8547.717
-8547.717
-8547.717
-8547.717
-8639.025
-8639.025
-8639.025
-8639.025
-8639.025
-8536.857
-8536.857
-8536.857
-8536.857
-8547.717
-8547.717
-8547.717
-8547.717
-8639.025
-8639.025
-8639.025
-8639.025
-8639.025
)
;
        valueFraction   uniform 0.9996787;
        value           nonuniform List<scalar> 
130
(
465.7686
465.8572
466.032
466.2886
466.6221
467.0265
467.4943
468.0156
468.5766
469.1601
469.7422
470.2931
470.7766
465.7739
465.8641
466.0421
466.3039
466.6454
467.062
467.5478
468.0948
468.6921
469.3249
469.9709
470.5986
471.1645
465.7859
465.8785
466.0617
466.3322
466.6874
467.1251
467.6425
468.2362
468.901
469.6299
470.4079
471.2071
471.9749
465.7988
465.8939
466.0825
466.3622
466.732
467.1925
467.7449
468.3923
469.1396
469.995
470.9656
472.0527
473.2262
465.8072
465.9038
466.0957
466.3814
466.7607
467.2362
467.8124
468.498
469.308
470.2697
471.4283
472.8677
474.743
465.8074
465.9041
466.0961
466.3817
466.761
467.2365
467.8127
468.4983
469.3084
470.2701
471.4287
472.8681
474.7433
465.7997
465.8948
466.0834
466.3632
466.733
467.1935
467.7459
468.3933
469.1405
469.9959
470.9668
472.0538
473.2267
465.7873
465.8799
466.0632
466.3338
466.689
467.1268
467.6442
468.2378
468.9026
469.6316
470.4098
471.209
471.9762
465.7757
465.866
466.0441
466.306
466.6476
467.0643
467.5501
468.0972
468.6945
469.3274
469.9735
470.6014
471.1679
465.7698
465.8592
466.0343
466.291
466.6246
467.0291
467.497
468.0183
468.5794
469.163
469.7453
470.2964
470.7807
)
;
        Tnbr            T;
        qrNbr           none;
        qr              qr;
        thermalInertia  false;
        thicknessLayers List<scalar> 0();
        kappaLayers     List<scalar> 0();
        kappaMethod     fluidThermo;
        kappa           none;
        alphaAni        none;
        alpha           none;
    }
}


// ************************************************************************* //
