/*--------------------------------*- C++ -*----------------------------------*\
| =========                 |                                                 |
| \\      /  F ield         | OpenFOAM: The Open Source CFD Toolbox           |
|  \\    /   O peration     | Version:  v2012                                 |
|   \\  /    A nd           | Website:  www.openfoam.com                      |
|    \\/     M anipulation  |                                                 |
\*---------------------------------------------------------------------------*/
FoamFile
{
    version     2.0;
    format      ascii;
    class       surfaceScalarField;
    location    "74";
    object      phi;
}
// * * * * * * * * * * * * * * * * * * * * * * * * * * * * * * * * * * * * * //

dimensions      [1 0 -1 0 0 0 0];
oriented        oriented;


internalField   nonuniform List<scalar> 
228225
(
-1.52176e-09
4.88581e-10
7.64347e-10
-4.31955e-09
4.84759e-09
-2.04584e-09
-9.49006e-09
7.81825e-09
-2.65192e-09
-1.71417e-08
1.04562e-08
-2.80269e-09
-2.69937e-08
1.27825e-08
-2.93081e-09
-3.85934e-08
1.4745e-08
-3.14395e-09
-5.14862e-08
1.63416e-08
-3.4503e-09
-6.5197e-08
1.75593e-08
-3.84818e-09
-7.9309e-08
1.84253e-08
-4.31425e-09
-9.34114e-08
1.89449e-08
-4.84039e-09
-1.07165e-07
1.91566e-08
-5.40539e-09
-1.20233e-07
1.90738e-08
-6.00465e-09
-1.32345e-07
1.87316e-08
-6.61863e-09
-1.43247e-07
1.81487e-08
-7.24587e-09
-1.5274e-07
1.7366e-08
-7.87349e-09
-1.60642e-07
1.63963e-08
-8.49815e-09
-1.66809e-07
1.52766e-08
-9.10661e-09
-1.7113e-07
1.40202e-08
-9.69713e-09
-1.73534e-07
1.26597e-08
-1.02583e-08
-1.73951e-07
1.12012e-08
-1.0782e-08
-1.72368e-07
9.67569e-09
-1.12607e-08
-1.68769e-07
8.09558e-09
-1.16921e-08
-1.63194e-07
6.48723e-09
-1.20645e-08
-1.5568e-07
4.86217e-09
-1.23755e-08
-1.4631e-07
3.2453e-09
-1.26166e-08
-1.35172e-07
1.65015e-09
-1.27871e-08
-1.22405e-07
1.14869e-10
-1.2882e-08
-1.08124e-07
-1.37686e-09
-1.29037e-08
-9.25213e-08
-2.75606e-09
-1.28494e-08
-7.57962e-08
-4.00075e-09
-1.27198e-08
-5.82439e-08
-5.05894e-09
-1.24972e-08
-4.02584e-08
-5.8625e-09
-1.21207e-08
-2.26132e-08
-6.27635e-09
-1.13679e-08
-7.02643e-09
-6.08992e-09
-9.49639e-09
-4.09307e-09
-2.9341e-09
-4.1938e-09
1.76839e-08
-1.30027e-08
-1.6597e-08
3.1837e-08
-1.45847e-08
-3.19326e-08
3.85227e-08
-1.53697e-08
-4.88016e-08
4.35035e-08
-1.61788e-08
-6.61736e-08
4.70459e-08
-1.68891e-08
-8.33458e-08
4.94142e-08
-1.74984e-08
-9.97691e-08
5.08135e-08
-1.80493e-08
-1.1507e-07
5.14171e-08
-1.85567e-08
-1.28968e-07
5.13572e-08
-1.90339e-08
-1.41287e-07
5.07446e-08
-1.94802e-08
-1.51895e-07
4.9667e-08
-1.9903e-08
-1.60727e-07
4.82024e-08
-2.02977e-08
-1.67735e-07
4.64103e-08
-2.06697e-08
-1.72924e-07
4.43499e-08
-2.10135e-08
-1.76293e-07
4.20702e-08
-2.13325e-08
-1.77894e-07
3.96171e-08
-2.1621e-08
-1.77766e-07
3.70297e-08
-2.18819e-08
-1.75983e-07
3.43473e-08
-2.21098e-08
-1.7262e-07
3.16036e-08
-2.23069e-08
-1.67778e-07
2.88276e-08
-2.24691e-08
-1.61551e-07
2.60469e-08
-2.25979e-08
-1.54059e-07
2.32897e-08
-2.26881e-08
-1.45408e-07
2.05793e-08
-2.27408e-08
-1.35734e-07
1.7938e-08
-2.27508e-08
-1.25155e-07
1.53852e-08
-2.27189e-08
-1.13806e-07
1.29387e-08
-2.26383e-08
-1.018e-07
1.06141e-08
-2.25047e-08
-8.92957e-08
8.42559e-09
-2.23064e-08
-7.64071e-08
6.38639e-09
-2.20316e-08
-6.32614e-08
4.50966e-09
-2.16567e-08
-4.99745e-08
2.81036e-09
-2.11567e-08
-3.6663e-08
1.31377e-09
-2.0487e-08
-2.34828e-08
5.90779e-11
-1.95163e-08
-1.09075e-08
-7.84073e-10
-1.78805e-08
-7.88193e-10
-1.4213e-08
-2.19079e-09
2.9367e-08
-9.49358e-09
-8.06708e-09
4.90397e-08
-1.13258e-08
-1.51384e-08
5.77122e-08
-1.21167e-08
-2.27487e-08
6.38426e-08
-1.27312e-08
-3.04495e-08
6.79845e-08
-1.32364e-08
-3.79359e-08
7.05855e-08
-1.3686e-08
-4.4989e-08
7.1967e-08
-1.40993e-08
-5.14576e-08
7.23835e-08
-1.44985e-08
-5.72378e-08
7.2024e-08
-1.48855e-08
-6.22642e-08
7.10396e-08
-1.52707e-08
-6.64951e-08
6.95466e-08
-1.56483e-08
-6.99097e-08
6.76417e-08
-1.60235e-08
-7.25152e-08
6.54023e-08
-1.63882e-08
-7.43139e-08
6.28955e-08
-1.67453e-08
-7.53353e-08
6.01772e-08
-1.70864e-08
-7.56038e-08
5.72976e-08
-1.74134e-08
-7.51531e-08
5.42997e-08
-1.77187e-08
-7.40268e-08
5.12227e-08
-1.80036e-08
-7.22667e-08
4.8105e-08
-1.82612e-08
-6.99323e-08
4.49866e-08
-1.84925e-08
-6.70898e-08
4.18949e-08
-1.86915e-08
-6.37953e-08
3.88546e-08
-1.88592e-08
-6.01115e-08
3.58859e-08
-1.89899e-08
-5.60981e-08
3.30078e-08
-1.90844e-08
-5.18091e-08
3.02344e-08
-1.91371e-08
-4.72961e-08
2.75718e-08
-1.91471e-08
-4.26003e-08
2.50259e-08
-1.91072e-08
-3.77591e-08
2.25983e-08
-1.90126e-08
-3.28079e-08
2.02834e-08
-1.885e-08
-2.77602e-08
1.80684e-08
-1.86053e-08
-2.26271e-08
1.59291e-08
-1.8252e-08
-1.73969e-08
1.38308e-08
-1.77471e-08
-1.20616e-08
1.17163e-08
-1.69924e-08
-6.57464e-09
9.50252e-09
-1.57738e-08
5.55912e-09
-1.29221e-08
-1.70678e-09
3.40623e-08
-2.98778e-09
-3.52319e-09
5.54677e-08
-4.61188e-09
-5.31169e-09
6.50034e-08
-5.50245e-09
-7.17405e-09
7.18051e-08
-6.10205e-09
-9.11497e-09
7.64993e-08
-6.57297e-09
-1.10807e-08
7.95552e-08
-7.00346e-09
-1.30047e-08
8.13248e-08
-7.43379e-09
-1.48327e-08
8.20776e-08
-7.86746e-09
-1.65134e-08
8.20224e-08
-8.31689e-09
-1.80152e-08
8.13194e-08
-8.77754e-09
-1.93107e-08
8.00972e-08
-9.25551e-09
-2.03851e-08
7.84573e-08
-9.74178e-09
-2.12275e-08
7.64845e-08
-1.02388e-08
-2.18432e-08
7.42463e-08
-1.07359e-08
-2.22341e-08
7.18026e-08
-1.12341e-08
-2.24152e-08
6.92013e-08
-1.17229e-08
-2.23997e-08
6.64872e-08
-1.22024e-08
-2.22083e-08
6.36948e-08
-1.26633e-08
-2.18621e-08
6.08629e-08
-1.31046e-08
-2.13885e-08
5.80272e-08
-1.35158e-08
-2.08093e-08
5.52139e-08
-1.38971e-08
-2.01541e-08
5.24413e-08
-1.42411e-08
-1.94446e-08
4.97248e-08
-1.45481e-08
-1.87035e-08
4.70759e-08
-1.48108e-08
-1.79396e-08
4.44997e-08
-1.50291e-08
-1.71598e-08
4.19907e-08
-1.51975e-08
-1.63602e-08
3.95397e-08
-1.53145e-08
-1.55178e-08
3.71283e-08
-1.53722e-08
-1.45942e-08
3.47234e-08
-1.5366e-08
-1.35163e-08
3.22762e-08
-1.52826e-08
-1.21932e-08
2.97124e-08
-1.51078e-08
-1.04715e-08
2.69314e-08
-1.48225e-08
-8.11452e-09
2.37788e-08
-1.44189e-08
-4.87866e-09
2.0074e-08
-1.38082e-08
1.26432e-08
-1.19624e-08
-2.60548e-09
3.53942e-08
1.27472e-09
-3.12067e-09
5.59343e-08
4.65757e-11
-2.60155e-09
6.52414e-08
-7.56518e-10
-1.55343e-09
7.20412e-08
-1.28366e-09
-2.58004e-10
7.68867e-08
-1.68375e-09
1.15484e-09
8.0213e-08
-2.06964e-09
2.5969e-09
8.2346e-08
-2.46563e-09
4.02079e-09
8.35401e-08
-2.88453e-09
5.3789e-09
8.39861e-08
-3.32236e-09
6.6474e-09
8.38373e-08
-3.7866e-09
7.80519e-09
8.32096e-08
-4.27002e-09
8.83398e-09
8.2201e-08
-4.77396e-09
9.72374e-09
8.08852e-08
-5.28856e-09
1.04562e-08
7.93269e-08
-5.81473e-09
1.10246e-08
7.75766e-08
-6.34185e-09
1.14151e-08
7.56801e-08
-6.86966e-09
1.16166e-08
7.36731e-08
-7.38787e-09
1.16189e-08
7.1589e-08
-7.89575e-09
1.14089e-08
6.94549e-08
-8.38369e-09
1.09907e-08
6.72963e-08
-8.85065e-09
1.03631e-08
6.51305e-08
-9.28825e-09
9.52643e-09
6.29724e-08
-9.69596e-09
8.48921e-09
6.083e-08
-1.00666e-08
7.25733e-09
5.87066e-08
-1.03998e-08
5.85031e-09
5.65966e-08
-1.06894e-08
4.29087e-09
5.4486e-08
-1.09352e-08
2.61159e-09
5.23489e-08
-1.11317e-08
8.73346e-10
5.01454e-08
-1.12784e-08
-8.49708e-10
4.78153e-08
-1.13692e-08
-2.44741e-09
4.52737e-08
-1.13997e-08
-3.77755e-09
4.23999e-08
-1.13581e-08
-4.62726e-09
3.90302e-08
-1.12472e-08
-4.67567e-09
3.49297e-08
-1.1105e-08
-3.48464e-09
2.97985e-08
-1.09144e-08
1.89792e-08
-9.82086e-09
-2.29139e-09
3.46206e-08
3.0626e-09
-2.32452e-09
5.385e-08
2.12155e-09
-1.18439e-09
6.26732e-08
1.42581e-09
6.22459e-10
6.92443e-08
9.90159e-10
2.7772e-09
7.4077e-08
6.55406e-10
5.10215e-09
7.75564e-08
3.30084e-10
7.4846e-09
7.99838e-08
-1.86385e-11
9.82594e-09
8.15812e-08
-3.81508e-10
1.20551e-08
8.2525e-08
-7.69875e-10
1.41243e-08
8.29465e-08
-1.17854e-09
1.59912e-08
8.29529e-08
-1.6097e-09
1.76268e-08
8.26239e-08
-2.05813e-09
1.90068e-08
8.20274e-08
-2.52398e-09
2.01201e-08
8.12144e-08
-2.99785e-09
2.09435e-08
8.02301e-08
-3.47895e-09
2.14728e-08
7.91091e-08
-3.95833e-09
2.16985e-08
7.78823e-08
-4.43503e-09
2.16148e-08
7.65731e-08
-4.90046e-09
2.12212e-08
7.52023e-08
-5.35368e-09
2.05199e-08
7.37844e-08
-5.78694e-09
1.95193e-08
7.23312e-08
-6.19945e-09
1.82277e-08
7.08483e-08
-6.58441e-09
1.66616e-08
6.93371e-08
-6.94129e-09
1.48416e-08
6.77909e-08
-7.26437e-09
1.27975e-08
6.61946e-08
-7.55354e-09
1.05652e-08
6.45216e-08
-7.80414e-09
8.19857e-09
6.2732e-08
-8.01635e-09
5.76262e-09
6.07672e-08
-8.18646e-09
3.34861e-09
5.85442e-08
-8.31445e-09
1.06824e-09
5.59488e-08
-8.39464e-09
-9.30956e-10
5.28217e-08
-8.42296e-09
-2.44528e-09
4.89501e-08
-8.40562e-09
-3.15609e-09
4.40377e-08
-8.39863e-09
-2.6502e-09
3.77057e-08
-8.41053e-09
2.40871e-08
-7.75961e-09
-1.46328e-09
3.30314e-08
3.05026e-09
-1.18014e-09
5.12723e-08
2.29738e-09
4.63866e-11
5.97159e-08
1.73044e-09
1.80778e-09
6.61023e-08
1.38002e-09
3.85459e-09
7.09109e-08
1.11805e-09
6.04812e-09
7.45048e-08
8.60422e-10
8.28109e-09
7.71587e-08
5.90357e-10
1.04798e-08
7.90813e-08
3.01404e-10
1.25811e-08
8.04287e-08
-4.00343e-12
1.45279e-08
8.13231e-08
-3.23917e-10
1.62856e-08
8.18552e-08
-6.58559e-10
1.7818e-08
8.20977e-08
-1.00881e-09
1.91104e-08
8.21056e-08
-1.36763e-09
2.01328e-08
8.19254e-08
-1.73555e-09
2.08787e-08
8.1591e-08
-2.10597e-09
2.13339e-08
8.1132e-08
-2.47805e-09
2.14928e-08
8.05692e-08
-2.84517e-09
2.13503e-08
7.99212e-08
-3.20674e-09
2.09109e-08
7.91998e-08
-3.55645e-09
2.01746e-08
7.84143e-08
-3.89383e-09
1.915e-08
7.7568e-08
-4.21323e-09
1.7853e-08
7.66603e-08
-4.51441e-09
1.62994e-08
7.56835e-08
-4.79248e-09
1.45144e-08
7.46233e-08
-5.04756e-09
1.25291e-08
7.34553e-08
-5.27556e-09
1.03839e-08
7.21435e-08
-5.47699e-09
8.13009e-09
7.06355e-08
-5.64857e-09
5.82997e-09
6.88586e-08
-5.7913e-09
3.5638e-09
6.67118e-08
-5.90236e-09
1.43652e-09
6.40578e-08
-5.98112e-09
-4.28741e-10
6.07088e-08
-6.02217e-09
-1.85696e-09
5.6414e-08
-6.03607e-09
-2.57392e-09
5.0829e-08
-6.07183e-09
-2.23015e-09
4.35035e-08
-6.1455e-09
2.75863e-08
-5.72746e-09
-7.21093e-10
3.13933e-08
2.3587e-09
-4.63315e-10
4.92319e-08
1.7828e-09
3.70919e-10
5.75245e-08
1.35699e-09
1.5254e-09
6.38475e-08
1.10006e-09
2.85234e-09
6.86781e-08
9.05877e-10
4.26855e-09
7.23683e-08
7.19595e-10
5.71823e-09
7.51869e-08
5.23276e-10
7.1484e-09
7.73314e-08
3.18282e-10
8.52497e-09
7.89539e-08
1.00042e-10
9.80401e-09
8.01662e-08
-1.24681e-10
1.09615e-08
8.10558e-08
-3.58089e-10
1.19738e-08
8.16869e-08
-5.99756e-10
1.28178e-08
8.21107e-08
-8.49609e-10
1.3479e-08
8.2365e-08
-1.10179e-09
1.39473e-08
8.24805e-08
-1.35713e-09
1.42113e-08
8.24783e-08
-1.61043e-09
1.42664e-08
8.2376e-08
-1.86182e-09
1.4108e-08
8.21849e-08
-2.10649e-09
1.37401e-08
8.19131e-08
-2.34462e-09
1.31635e-08
8.1563e-08
-2.57184e-09
1.23842e-08
8.11336e-08
-2.78847e-09
1.14195e-08
8.06178e-08
-2.99065e-09
1.02777e-08
8.0003e-08
-3.17895e-09
8.9827e-09
7.9268e-08
-3.35005e-09
7.56056e-09
7.83823e-08
-3.50477e-09
6.04172e-09
7.73023e-08
-3.64032e-09
4.4682e-09
7.59672e-08
-3.75785e-09
2.88929e-09
7.42942e-08
-3.85515e-09
1.3625e-09
7.21697e-08
-3.93346e-09
-3.14023e-11
6.94419e-08
-3.98956e-09
-1.20325e-09
6.59031e-08
-4.02267e-09
-2.02844e-09
6.12783e-08
-4.03795e-09
-2.31764e-09
5.51907e-08
-4.0745e-09
-1.82241e-09
4.71468e-08
-4.13736e-09
2.96088e-08
-3.84524e-09
-4.76844e-10
3.00188e-08
1.84954e-09
-4.8318e-10
4.77544e-08
1.48541e-09
-1.86348e-10
5.60078e-08
1.21988e-09
2.79046e-10
6.23237e-08
1.06006e-09
8.36386e-10
6.7179e-08
9.38502e-10
1.45724e-09
7.09301e-08
8.18121e-10
2.11188e-09
7.38401e-08
6.93049e-10
2.77466e-09
7.6108e-08
5.60591e-10
3.42532e-09
7.78806e-08
4.23378e-10
4.04152e-09
7.92697e-08
2.79081e-10
4.61085e-09
8.03574e-08
1.29706e-10
5.11469e-09
8.1207e-08
-2.34853e-11
5.53845e-09
8.18643e-08
-1.77379e-10
5.8717e-09
8.23649e-08
-3.33078e-10
6.10623e-09
8.27344e-08
-4.89e-10
6.23763e-09
8.29924e-08
-6.45006e-10
6.25808e-09
8.31527e-08
-7.97059e-10
6.16452e-09
8.32238e-08
-9.45777e-10
5.95681e-09
8.32089e-08
-1.08792e-09
5.63549e-09
8.3108e-08
-1.2244e-09
5.20725e-09
8.29152e-08
-1.3522e-09
4.67667e-09
8.26207e-08
-1.47244e-09
4.05441e-09
8.22072e-08
-1.58244e-09
3.35645e-09
8.16505e-08
-1.68354e-09
2.59577e-09
8.09154e-08
-1.7734e-09
1.79823e-09
7.99542e-08
-1.85358e-09
9.8641e-10
7.87011e-08
-1.92209e-09
1.92599e-10
7.70679e-08
-1.98077e-09
-5.42883e-10
7.49348e-08
-2.02787e-09
-1.17931e-09
7.21419e-08
-2.06457e-09
-1.65964e-09
6.84725e-08
-2.08807e-09
-1.91625e-09
6.36397e-08
-2.10517e-09
-1.83828e-09
5.72517e-08
-2.13905e-09
-1.29048e-09
4.8791e-08
-2.19139e-09
3.03383e-08
-2.02066e-09
-6.37288e-10
2.89094e-08
1.74553e-09
-1.02545e-09
4.65231e-08
1.62116e-09
-1.24672e-09
5.4719e-08
1.51028e-09
-1.36824e-09
6.0996e-08
1.44766e-09
-1.41312e-09
6.58323e-08
1.39247e-09
-1.39766e-09
6.95823e-08
1.33283e-09
-1.33215e-09
7.25096e-08
1.26481e-09
-1.227e-09
7.48108e-08
1.19174e-09
-1.09045e-09
7.6633e-08
1.11287e-09
-9.37968e-10
7.80849e-08
1.03099e-09
-7.75093e-10
7.9249e-08
9.45029e-10
-6.09927e-10
8.01854e-08
8.57789e-10
-4.55689e-10
8.09401e-08
7.68229e-10
-3.13745e-10
8.15451e-08
6.79899e-10
-1.97833e-10
8.20255e-08
5.91883e-10
-1.09291e-10
8.23977e-08
5.07123e-10
-5.46187e-11
8.26736e-08
4.23433e-10
-3.25767e-11
8.28592e-08
3.43583e-10
-4.77511e-11
8.29569e-08
2.66435e-10
-9.62603e-11
8.29637e-08
1.94368e-10
-1.81056e-10
8.28731e-08
1.25731e-10
-2.96454e-10
8.26722e-08
6.3142e-11
-4.36635e-10
8.23429e-08
5.46553e-12
-5.9807e-10
8.18582e-08
-4.60669e-11
-7.7123e-10
8.11821e-08
-9.33444e-11
-9.48194e-10
8.02646e-08
-1.34205e-10
-1.11586e-09
7.90392e-08
-1.71292e-10
-1.25898e-09
7.74157e-08
-2.03588e-10
-1.36406e-09
7.52739e-08
-2.334e-10
-1.41651e-09
7.24524e-08
-2.59494e-10
-1.39304e-09
6.87351e-08
-2.84206e-10
-1.27839e-09
6.38335e-08
-3.10473e-10
-1.0244e-09
5.73581e-08
-3.57036e-10
-6.04266e-10
4.87898e-08
-4.21014e-10
3.01342e-08
-3.99916e-10
-9.12839e-10
2.79478e-08
1.87609e-09
-1.6188e-09
4.52632e-08
1.96457e-09
-2.19812e-09
5.33164e-08
1.98131e-09
-2.68204e-09
5.94848e-08
1.99541e-09
-3.08141e-09
6.42376e-08
1.99528e-09
-3.40763e-09
6.79253e-08
1.98056e-09
-3.65894e-09
7.08065e-08
1.95615e-09
-3.84836e-09
7.3076e-08
1.92318e-09
-3.97674e-09
7.48771e-08
1.88565e-09
-4.05521e-09
7.63186e-08
1.84332e-09
-4.08469e-09
7.74796e-08
1.79924e-09
-4.07372e-09
7.84208e-08
1.75269e-09
-4.02449e-09
7.91853e-08
1.70635e-09
-3.94467e-09
7.98063e-08
1.65924e-09
-3.84079e-09
8.03062e-08
1.61378e-09
-3.71259e-09
8.07025e-08
1.56862e-09
-3.56897e-09
8.10031e-08
1.52673e-09
-3.41175e-09
8.12149e-08
1.48656e-09
-3.24205e-09
8.13379e-08
1.4501e-09
-3.06531e-09
8.13698e-08
1.41574e-09
-2.87856e-09
8.1302e-08
1.38526e-09
-2.68602e-09
8.11224e-08
1.35683e-09
-2.48687e-09
8.0811e-08
1.33203e-09
-2.27928e-09
8.0342e-08
1.3088e-09
-2.06304e-09
7.9678e-08
1.28847e-09
-1.83908e-09
7.87707e-08
1.26873e-09
-1.60373e-09
7.75535e-08
1.25056e-09
-1.35756e-09
7.59392e-08
1.23122e-09
-1.10478e-09
7.38091e-08
1.21111e-09
-8.45701e-10
7.10073e-08
1.18687e-09
-5.94016e-10
6.73224e-08
1.15801e-09
-3.49185e-10
6.24752e-08
1.11744e-09
-1.34441e-10
5.60875e-08
1.05296e-09
3.94535e-11
4.76559e-08
9.60335e-10
2.93374e-08
8.35988e-10
-1.0698e-09
2.7109e-08
1.90762e-09
-1.92033e-09
4.39828e-08
2.13202e-09
-2.65693e-09
5.18291e-08
2.22426e-09
-3.29507e-09
5.78376e-08
2.2852e-09
-3.83976e-09
6.24656e-08
2.31628e-09
-4.29602e-09
6.60524e-08
2.32928e-09
-4.66828e-09
6.88521e-08
2.32866e-09
-4.96661e-09
7.1053e-08
2.31978e-09
-5.1913e-09
7.2797e-08
2.30395e-09
-5.34484e-09
7.41884e-08
2.28471e-09
-5.43399e-09
7.53067e-08
2.26208e-09
-5.46012e-09
7.62092e-08
2.23881e-09
-5.43093e-09
7.69401e-08
2.21432e-09
-5.34544e-09
7.753e-08
2.19099e-09
-5.20838e-09
7.80028e-08
2.16789e-09
-5.02825e-09
7.8373e-08
2.14711e-09
-4.80175e-09
7.86518e-08
2.12748e-09
-4.54274e-09
7.88432e-08
2.11083e-09
-4.24892e-09
7.89491e-08
2.0957e-09
-3.92871e-09
7.89649e-08
2.08368e-09
-3.58083e-09
7.88837e-08
2.07306e-09
-3.21731e-09
7.86916e-08
2.06515e-09
-2.83383e-09
7.83706e-08
2.05798e-09
-2.43798e-09
7.78937e-08
2.05263e-09
-2.03416e-09
7.72262e-08
2.04684e-09
-1.62273e-09
7.63196e-08
2.0414e-09
-1.21437e-09
7.5111e-08
2.03366e-09
-8.14527e-10
7.3515e-08
2.02386e-09
-4.32115e-10
7.14193e-08
2.00864e-09
-8.53075e-11
6.86725e-08
1.98722e-09
2.07626e-10
6.50742e-08
1.95479e-09
4.21602e-10
6.03554e-08
1.90694e-09
5.22005e-10
5.41569e-08
1.82944e-09
4.64865e-10
4.5997e-08
1.71705e-09
2.83081e-08
1.49388e-09
-9.68496e-10
2.64434e-08
1.63161e-09
-1.76056e-09
4.28949e-08
1.88444e-09
-2.47191e-09
5.05423e-08
1.99708e-09
-3.09979e-09
5.63966e-08
2.06701e-09
-3.64046e-09
6.09012e-08
2.10574e-09
-4.09882e-09
6.43872e-08
2.12475e-09
-4.48045e-09
6.71009e-08
2.13181e-09
-4.78414e-09
6.92279e-08
2.12948e-09
-5.01396e-09
7.0905e-08
2.12184e-09
-5.17168e-09
7.22365e-08
2.10969e-09
-5.2599e-09
7.32985e-08
2.09594e-09
-5.27958e-09
7.41493e-08
2.08053e-09
-5.23663e-09
7.48306e-08
2.06578e-09
-5.13127e-09
7.53749e-08
2.05116e-09
-4.97072e-09
7.58037e-08
2.03868e-09
-4.75942e-09
7.61338e-08
2.02749e-09
-4.50125e-09
7.63743e-08
2.01929e-09
-4.2024e-09
7.65315e-08
2.01294e-09
-3.86892e-09
7.66052e-08
2.00987e-09
-3.50316e-09
7.65931e-08
2.00863e-09
-3.11779e-09
7.64865e-08
2.01035e-09
-2.71309e-09
7.62737e-08
2.01332e-09
-2.29545e-09
7.59354e-08
2.01839e-09
-1.87363e-09
7.54471e-08
2.02357e-09
-1.44876e-09
7.47732e-08
2.02942e-09
-1.03213e-09
7.38686e-08
2.03365e-09
-6.28986e-10
7.2671e-08
2.03644e-09
-2.47682e-10
7.10997e-08
2.03501e-09
9.76814e-11
6.9045e-08
2.02882e-09
3.91561e-10
6.63635e-08
2.01405e-09
6.17816e-10
6.28615e-08
1.98867e-09
7.41916e-10
5.82826e-08
1.94575e-09
7.42007e-10
5.22826e-08
1.87577e-09
5.68289e-10
4.44018e-08
1.76877e-09
2.73447e-08
1.53234e-09
-6.44956e-10
2.60705e-08
1.01775e-09
-1.23842e-09
4.22842e-08
1.20393e-09
-1.80189e-09
4.98187e-08
1.28772e-09
-2.32296e-09
5.55812e-08
1.33711e-09
-2.79195e-09
6.00094e-08
1.36077e-09
-3.20519e-09
6.34278e-08
1.37025e-09
-3.55277e-09
6.60811e-08
1.36958e-09
-3.8393e-09
6.81507e-08
1.36272e-09
-4.05863e-09
6.97741e-08
1.35086e-09
-4.21251e-09
7.10528e-08
1.33681e-09
-4.2984e-09
7.20644e-08
1.32094e-09
-4.32032e-09
7.28654e-08
1.30548e-09
-4.27989e-09
7.34995e-08
1.29034e-09
-4.18e-09
7.39975e-08
1.27739e-09
-4.02608e-09
7.43833e-08
1.26623e-09
-3.82243e-09
7.46721e-08
1.25845e-09
-3.57647e-09
7.48752e-08
1.25333e-09
-3.29454e-09
7.49972e-08
1.25217e-09
-2.98446e-09
7.50403e-08
1.25392e-09
-2.64966e-09
7.50005e-08
1.25957e-09
-2.30357e-09
7.48712e-08
1.26775e-09
-1.94921e-09
7.4639e-08
1.27914e-09
-1.59096e-09
7.42868e-08
1.29209e-09
-1.24018e-09
7.37884e-08
1.30698e-09
-9.00681e-10
7.3111e-08
1.32191e-09
-5.77748e-10
7.22083e-08
1.33699e-09
-2.77331e-10
7.10211e-08
1.35002e-09
-5.97146e-12
6.94686e-08
1.36075e-09
2.24313e-10
6.74458e-08
1.36652e-09
4.11748e-10
6.4811e-08
1.36638e-09
5.38809e-10
6.13775e-08
1.35663e-09
5.92544e-10
5.68943e-08
1.33434e-09
5.55739e-10
5.10288e-08
1.29102e-09
4.04251e-10
4.33331e-08
1.22132e-09
2.66932e-08
1.05391e-09
-2.22576e-10
2.60797e-08
2.15306e-10
-5.5147e-10
4.23364e-08
2.74999e-10
-9.22108e-10
4.98859e-08
3.02867e-10
-1.30412e-09
5.56528e-08
3.12612e-10
-1.68123e-09
6.00748e-08
3.09504e-10
-2.0296e-09
6.34796e-08
2.98462e-10
-2.34253e-09
6.61115e-08
2.8279e-10
-2.61e-09
6.81548e-08
2.63224e-10
-2.82506e-09
6.97467e-08
2.41846e-10
-2.98167e-09
7.09914e-08
2.19079e-10
-3.08119e-09
7.19659e-08
1.96818e-10
-3.11857e-09
7.27295e-08
1.75256e-10
-3.10111e-09
7.3325e-08
1.56091e-10
-3.02861e-09
7.3786e-08
1.39306e-10
-2.9073e-09
7.41353e-08
1.26386e-10
-2.74213e-09
7.43906e-08
1.17045e-10
-2.54125e-09
7.45619e-08
1.12485e-10
-2.31283e-09
7.46562e-08
1.12106e-10
-2.06258e-09
7.46742e-08
1.1679e-10
-1.80167e-09
7.46136e-08
1.25583e-10
-1.5355e-09
7.44664e-08
1.39027e-10
-1.27411e-09
7.42209e-08
1.55863e-10
-1.02186e-09
7.38582e-08
1.76335e-10
-7.8568e-10
7.33536e-08
1.98894e-10
-5.6998e-10
7.26724e-08
2.23529e-10
-3.80416e-10
7.17699e-08
2.48511e-10
-2.18578e-10
7.0585e-08
2.73685e-10
-8.50862e-11
6.90387e-08
2.97205e-10
1.72364e-11
6.70246e-08
3.18758e-10
8.92194e-11
6.44028e-08
3.36387e-10
1.32271e-10
6.09861e-08
3.49544e-10
1.43638e-10
5.6526e-08
3.55786e-10
1.29894e-10
5.06903e-08
3.53147e-10
8.75129e-11
4.30352e-08
3.3959e-10
2.64858e-08
2.9568e-10
1.61349e-10
2.64852e-08
-5.67434e-10
7.96326e-11
4.3059e-08
-6.41243e-10
-1.08783e-10
5.07499e-08
-6.73944e-10
-3.66789e-10
5.66148e-08
-7.05032e-10
-6.56457e-10
6.11019e-08
-7.37087e-10
-9.53941e-10
6.45458e-08
-7.69129e-10
-1.23797e-09
6.71977e-08
-8.01839e-10
-1.49437e-09
6.92453e-08
-8.34557e-10
-1.71094e-09
7.08308e-08
-8.675e-10
-1.87912e-09
7.206e-08
-8.99437e-10
-1.99668e-09
7.30138e-08
-9.30187e-10
-2.06082e-09
7.37521e-08
-9.58347e-10
-2.07578e-09
7.43211e-08
-9.8368e-10
-2.03661e-09
7.47542e-08
-1.00483e-09
-1.95647e-09
7.50767e-08
-1.02172e-09
-1.8389e-09
7.53059e-08
-1.03319e-09
-1.69199e-09
7.54541e-08
-1.03944e-09
-1.52348e-09
7.55272e-08
-1.03964e-09
-1.34197e-09
7.55277e-08
-1.03432e-09
-1.15907e-09
7.5452e-08
-1.02302e-09
-9.77657e-10
7.52935e-08
-1.00661e-09
-8.09847e-10
7.50386e-08
-9.84998e-10
-6.63575e-10
7.46694e-08
-9.59366e-10
-5.38742e-10
7.41594e-08
-9.29842e-10
-4.41142e-10
7.34741e-08
-8.97793e-10
-3.75593e-10
7.25663e-08
-8.63473e-10
-3.36408e-10
7.1375e-08
-8.28281e-10
-3.23383e-10
6.98181e-08
-7.92369e-10
-3.30352e-10
6.77882e-08
-7.56893e-10
-3.47076e-10
6.51419e-08
-7.21579e-10
-3.62962e-10
6.16895e-08
-6.86966e-10
-3.64011e-10
5.71775e-08
-6.51744e-10
-3.28007e-10
5.12688e-08
-6.14573e-10
-2.33154e-10
4.35117e-08
-5.70291e-10
2.67369e-08
-4.84818e-10
4.16103e-10
2.72115e-08
-1.14282e-09
5.03752e-10
4.42924e-08
-1.32107e-09
4.43221e-10
5.22125e-08
-1.40094e-09
2.79559e-10
5.82428e-08
-1.46476e-09
5.5124e-11
6.28456e-08
-1.51936e-09
-1.99424e-10
6.63686e-08
-1.56883e-09
-4.5529e-10
6.90705e-08
-1.61488e-09
-7.00034e-10
7.11471e-08
-1.65898e-09
-9.12674e-10
7.27449e-08
-1.70106e-09
-1.08587e-09
7.3975e-08
-1.74131e-09
-1.21429e-09
7.49207e-08
-1.77883e-09
-1.29379e-09
7.56458e-08
-1.81332e-09
-1.32715e-09
7.61974e-08
-1.84364e-09
-1.31684e-09
7.66119e-08
-1.86942e-09
-1.26448e-09
7.69152e-08
-1.8896e-09
-1.18221e-09
7.71264e-08
-1.904e-09
-1.07336e-09
7.72577e-08
-1.9118e-09
-9.4813e-10
7.73167e-08
-1.91315e-09
-8.18887e-10
7.73047e-08
-1.90756e-09
-6.92371e-10
7.72199e-08
-1.89556e-09
-5.73923e-10
7.70538e-08
-1.87704e-09
-4.77732e-10
7.67938e-08
-1.85285e-09
-4.04612e-10
7.64199e-08
-1.82321e-09
-3.61572e-10
7.59057e-08
-1.78922e-09
-3.50496e-10
7.52141e-08
-1.75126e-09
-3.69694e-10
7.42975e-08
-1.71051e-09
-4.2247e-10
7.30911e-08
-1.66726e-09
-4.90847e-10
7.15112e-08
-1.62237e-09
-5.72704e-10
6.94456e-08
-1.57565e-09
-6.51773e-10
6.67472e-08
-1.5271e-09
-7.06563e-10
6.3219e-08
-1.47527e-09
-7.11202e-10
5.86011e-08
-1.41797e-09
-6.37632e-10
5.25443e-08
-1.34947e-09
-4.47704e-10
4.45847e-08
-1.26104e-09
2.73625e-08
-1.07451e-09
4.99352e-10
2.81271e-08
-1.4152e-09
6.54854e-10
4.57795e-08
-1.64228e-09
6.51605e-10
5.396e-08
-1.74526e-09
5.39343e-10
6.01803e-08
-1.82496e-09
3.57005e-10
6.4919e-08
-1.89105e-09
1.38027e-10
6.85367e-08
-1.94908e-09
-9.08889e-11
7.13024e-08
-2.00238e-09
-3.10652e-10
7.34189e-08
-2.05225e-09
-5.05833e-10
7.50393e-08
-2.0996e-09
-6.64813e-10
7.62786e-08
-2.14416e-09
-7.83525e-10
7.72247e-08
-2.1858e-09
-8.56061e-10
7.79433e-08
-2.22364e-09
-8.87156e-10
7.8485e-08
-2.2572e-09
-8.77031e-10
7.8887e-08
-2.28548e-09
-8.30048e-10
7.91774e-08
-2.30804e-09
-7.55271e-10
7.93759e-08
-2.32405e-09
-6.61091e-10
7.94962e-08
-2.33331e-09
-5.54568e-10
7.95455e-08
-2.33531e-09
-4.44568e-10
7.95264e-08
-2.33022e-09
-3.43984e-10
7.94358e-08
-2.31789e-09
-2.57028e-10
7.92662e-08
-2.29888e-09
-1.93582e-10
7.90034e-08
-2.27339e-09
-1.57589e-10
7.86274e-08
-2.24228e-09
-1.56335e-10
7.81096e-08
-2.20601e-09
-1.8853e-10
7.74123e-08
-2.16561e-09
-2.55072e-10
7.64847e-08
-2.12154e-09
-3.48776e-10
7.52605e-08
-2.07472e-09
-4.64297e-10
7.36515e-08
-2.02525e-09
-5.87276e-10
7.15421e-08
-1.97338e-09
-7.00645e-10
6.87789e-08
-1.91819e-09
-7.81041e-10
6.51584e-08
-1.85835e-09
-8.00168e-10
6.0411e-08
-1.79024e-09
-7.25909e-10
5.41754e-08
-1.7072e-09
-5.14076e-10
4.59718e-08
-1.59823e-09
2.8214e-08
-1.36536e-09
4.36358e-10
2.90699e-08
-1.37927e-09
5.68228e-10
4.72441e-08
-1.59687e-09
5.63748e-10
5.5663e-08
-1.69685e-09
4.58962e-10
6.20582e-08
-1.7753e-09
2.96828e-10
6.69225e-08
-1.84043e-09
1.03272e-10
7.06288e-08
-1.89812e-09
-9.86072e-11
7.34543e-08
-1.95121e-09
-2.87481e-10
7.56096e-08
-2.00128e-09
-4.50698e-10
7.72521e-08
-2.0488e-09
-5.82202e-10
7.8502e-08
-2.09385e-09
-6.69751e-10
7.945e-08
-2.13588e-09
-7.18395e-10
8.0165e-08
-2.17436e-09
-7.22231e-10
8.06993e-08
-2.20841e-09
-6.91954e-10
8.10922e-08
-2.2374e-09
-6.2537e-10
8.13728e-08
-2.26048e-09
-5.34187e-10
8.15622e-08
-2.2772e-09
-4.24695e-10
8.16744e-08
-2.28697e-09
-3.0895e-10
8.17175e-08
-2.28965e-09
-1.89848e-10
8.16939e-08
-2.285e-09
-8.22305e-11
8.1601e-08
-2.27328e-09
9.45721e-12
8.14303e-08
-2.25463e-09
7.38225e-11
8.11676e-08
-2.22966e-09
1.09109e-10
8.07915e-08
-2.19884e-09
1.08115e-10
8.02727e-08
-2.16303e-09
7.28365e-11
7.95716e-08
-2.12285e-09
9.71669e-13
7.86357e-08
-2.0792e-09
-1.02165e-10
7.73956e-08
-2.03261e-09
-2.2709e-10
7.57607e-08
-1.98361e-09
-3.62748e-10
7.36105e-08
-1.93213e-09
-4.94059e-10
7.07871e-08
-1.87767e-09
-5.97045e-10
6.70797e-08
-1.81865e-09
-6.43549e-10
6.22109e-08
-1.75202e-09
-6.05852e-10
5.58072e-08
-1.67118e-09
-4.39843e-10
4.73757e-08
-1.56699e-09
2.91174e-08
-1.34517e-09
2.73065e-10
2.99028e-08
-1.10441e-09
3.16637e-10
4.84632e-08
-1.26548e-09
2.63021e-10
5.70595e-08
-1.34192e-09
1.42009e-10
6.35849e-08
-1.4051e-09
-1.90336e-11
6.85426e-08
-1.45965e-09
-1.95481e-10
7.23139e-08
-1.50946e-09
-3.651e-10
7.51828e-08
-1.55663e-09
-5.20305e-10
7.73648e-08
-1.60199e-09
-6.43593e-10
7.90219e-08
-1.64584e-09
-7.30764e-10
8.02772e-08
-1.68783e-09
-7.77132e-10
8.12242e-08
-1.72745e-09
-7.82838e-10
8.1934e-08
-1.7639e-09
-7.47177e-10
8.24606e-08
-1.79644e-09
-6.75035e-10
8.28447e-08
-1.82421e-09
-5.7366e-10
8.31167e-08
-1.84656e-09
-4.46176e-10
8.32983e-08
-1.86279e-09
-3.04162e-10
8.34043e-08
-1.87253e-09
-1.52729e-10
8.3443e-08
-1.87543e-09
-5.69719e-12
8.34172e-08
-1.87146e-09
1.30698e-10
8.3324e-08
-1.86065e-09
2.51469e-10
8.31548e-08
-1.84335e-09
3.43682e-10
8.28946e-08
-1.81996e-09
4.03769e-10
8.25217e-08
-1.79116e-09
4.30343e-10
8.20054e-08
-1.75761e-09
4.14993e-10
8.13048e-08
-1.72017e-09
3.647e-10
8.03659e-08
-1.67959e-09
2.803e-10
7.91174e-08
-1.63666e-09
1.66705e-10
7.74656e-08
-1.59189e-09
3.60697e-11
7.52873e-08
-1.5456e-09
-1.00873e-10
7.24204e-08
-1.4975e-09
-2.22831e-10
6.86492e-08
-1.44675e-09
-3.1104e-10
6.36896e-08
-1.3911e-09
-3.3886e-10
5.71603e-08
-1.32615e-09
-2.72771e-10
4.85577e-08
-1.24664e-09
2.99259e-08
-1.0823e-09
6.68256e-11
3.05295e-08
-6.935e-10
-1.98694e-13
4.93019e-08
-7.70674e-10
-1.24677e-10
5.79955e-08
-8.11406e-10
-2.83098e-10
6.45919e-08
-8.51176e-10
-4.48556e-10
6.95991e-08
-8.89186e-10
-6.11781e-10
7.34033e-08
-9.26648e-10
-7.55889e-10
7.62919e-08
-9.64171e-10
-8.73572e-10
7.84836e-08
-1.00184e-09
-9.53898e-10
8.01428e-08
-1.03935e-09
-9.95304e-10
8.13948e-08
-1.07608e-09
-9.944e-10
8.23348e-08
-1.11126e-09
-9.53179e-10
8.30354e-08
-1.14403e-09
-8.70517e-10
8.35518e-08
-1.1735e-09
-7.51452e-10
8.39259e-08
-1.19886e-09
-6.05459e-10
8.41888e-08
-1.21937e-09
-4.34842e-10
8.43627e-08
-1.23441e-09
-2.5028e-10
8.44631e-08
-1.24353e-09
-5.98045e-11
8.44984e-08
-1.24645e-09
1.29148e-10
8.44717e-08
-1.24307e-09
3.06737e-10
8.438e-08
-1.23348e-09
4.64922e-10
8.42144e-08
-1.21796e-09
5.97511e-10
8.39596e-08
-1.19698e-09
6.9589e-10
8.35931e-08
-1.17114e-09
7.60035e-10
8.30836e-08
-1.14118e-09
7.83167e-10
8.23893e-08
-1.10793e-09
7.66725e-10
8.14549e-08
-1.07226e-09
7.10058e-10
8.02077e-08
-1.03502e-09
6.22724e-10
7.85524e-08
-9.96977e-10
5.03171e-10
7.63637e-08
-9.58741e-10
3.68975e-10
7.3477e-08
-9.20603e-10
2.26222e-10
6.96737e-08
-8.82475e-10
9.35916e-11
6.46663e-08
-8.43641e-10
-1.28899e-11
5.80687e-08
-8.02503e-10
-6.77432e-11
4.93726e-08
-7.59415e-10
3.05372e-08
-6.79605e-10
-1.29283e-10
3.0911e-08
-2.50607e-10
-3.1294e-10
4.97197e-08
-2.37197e-10
-5.06385e-10
5.84306e-08
-2.39053e-10
-7.01748e-10
6.50377e-08
-2.5311e-10
-8.76912e-10
7.00497e-08
-2.72825e-10
-1.03244e-09
7.38532e-08
-2.96436e-10
-1.15372e-09
7.67366e-08
-3.23034e-10
-1.2375e-09
7.89196e-08
-3.51835e-10
-1.27876e-09
8.05672e-08
-3.81964e-10
-1.27849e-09
8.18059e-08
-4.1246e-10
-1.23456e-09
8.27316e-08
-4.42299e-10
-1.14569e-09
8.34179e-08
-4.70506e-10
-1.01866e-09
8.39206e-08
-4.96032e-10
-8.53746e-10
8.42824e-08
-5.1799e-10
-6.66918e-10
8.45346e-08
-5.35956e-10
-4.54377e-10
8.47003e-08
-5.49281e-10
-2.30177e-10
8.4795e-08
-5.57432e-10
1.47754e-12
8.48276e-08
-5.60146e-10
2.30893e-10
8.48009e-08
-5.57305e-10
4.47558e-10
8.47121e-08
-5.49036e-10
6.45344e-10
8.4552e-08
-5.3559e-10
8.16838e-10
8.43053e-08
-5.17414e-10
9.57169e-10
8.39487e-08
-4.95199e-10
1.05917e-09
8.34507e-08
-4.69662e-10
1.12161e-09
8.27688e-08
-4.41386e-10
1.14069e-09
8.1847e-08
-4.11351e-10
1.11855e-09
8.06117e-08
-3.80621e-10
1.05261e-09
7.8967e-08
-3.50215e-10
9.50051e-10
7.67865e-08
-3.21077e-10
8.18934e-10
7.3905e-08
-2.94074e-10
6.58403e-10
7.01029e-08
-2.6999e-10
4.82502e-10
6.50918e-08
-2.4964e-10
3.00086e-10
5.84853e-08
-2.34496e-10
1.30988e-10
4.97748e-08
-2.30752e-10
3.09088e-08
-2.42066e-10
-2.81344e-10
3.10481e-08
1.42976e-10
-5.47536e-10
4.97496e-08
2.37356e-10
-7.98968e-10
5.84113e-08
2.70579e-10
-1.02005e-09
6.49792e-08
2.79928e-10
-1.2061e-09
6.99585e-08
2.77085e-10
-1.35296e-09
7.37332e-08
2.66465e-10
-1.45663e-09
7.65905e-08
2.50265e-10
-1.5177e-09
7.87488e-08
2.30076e-10
-1.52936e-09
8.03734e-08
2.07221e-10
-1.49663e-09
8.15901e-08
1.82994e-10
-1.41808e-09
8.24953e-08
1.58497e-10
-1.29832e-09
8.31624e-08
1.34821e-10
-1.13841e-09
8.3648e-08
1.128e-10
-9.44409e-10
8.39947e-08
9.32929e-11
-7.21086e-10
8.42347e-08
7.7288e-11
-4.76894e-10
8.4391e-08
6.54575e-11
-2.21768e-10
8.44795e-08
5.81427e-11
4.38641e-11
8.45094e-08
5.56473e-11
3.01471e-10
8.44834e-08
5.80045e-11
5.49349e-10
8.43987e-08
6.51939e-11
7.79753e-10
8.42462e-08
7.69215e-11
9.81431e-10
8.40098e-08
9.27639e-11
1.15189e-09
8.36666e-08
1.12171e-10