/*--------------------------------*- C++ -*----------------------------------*\
| =========                 |                                                 |
| \\      /  F ield         | OpenFOAM: The Open Source CFD Toolbox           |
|  \\    /   O peration     | Version:  v2012                                 |
|   \\  /    A nd           | Website:  www.openfoam.com                      |
|    \\/     M anipulation  |                                                 |
\*---------------------------------------------------------------------------*/
FoamFile
{
    version     2.0;
    format      ascii;
    class       volVectorField;
    location    "74";
    object      U;
}
// * * * * * * * * * * * * * * * * * * * * * * * * * * * * * * * * * * * * * //

dimensions      [0 1 -1 0 0 0 0];


internalField   nonuniform List<vector> 
78750
(
(-1.43314e-06 -6.7828e-05 0.000126356)
(-3.54002e-06 -9.55954e-05 0.000220961)
(-1.05454e-05 -9.8735e-05 0.000269504)
(-2.13533e-05 -9.2201e-05 0.000303064)
(-3.60888e-05 -8.02032e-05 0.000324941)
(-5.41446e-05 -6.52684e-05 0.000337792)
(-7.47794e-05 -4.92566e-05 0.000343547)
(-9.71649e-05 -3.33535e-05 0.000343752)
(-0.00012056 -1.84681e-05 0.00033953)
(-0.000144255 -5.05825e-06 0.000331826)
(-0.000167657 6.49719e-06 0.000321311)
(-0.000190178 1.60929e-05 0.000308628)
(-0.00021128 2.35964e-05 0.000294239)
(-0.000230584 2.9132e-05 0.000278515)
(-0.000247705 3.2706e-05 0.000261755)
(-0.000262277 3.44503e-05 0.000244364)
(-0.000274073 3.44319e-05 0.000226599)
(-0.000282868 3.28211e-05 0.000208787)
(-0.000288505 2.96874e-05 0.000191214)
(-0.000290877 2.52096e-05 0.000174202)
(-0.000289909 1.94802e-05 0.00015803)
(-0.000285577 1.26816e-05 0.000143015)
(-0.000277903 4.91902e-06 0.00012942)
(-0.00026695 -3.61506e-06 0.000117522)
(-0.00025282 -1.2777e-05 0.000107518)
(-0.000235656 -2.23221e-05 9.95747e-05)
(-0.000215645 -3.20092e-05 9.37428e-05)
(-0.000193 -4.1462e-05 8.99738e-05)
(-0.000167992 -5.02584e-05 8.80623e-05)
(-0.00014094 -5.77788e-05 8.75837e-05)
(-0.000112118 -6.32501e-05 8.77853e-05)
(-8.17079e-05 -6.55689e-05 8.74577e-05)
(-5.07064e-05 -6.32524e-05 8.47897e-05)
(-2.52592e-05 -5.43339e-05 7.69474e-05)
(-6.9314e-06 -3.11009e-05 5.18052e-05)
(-3.28292e-06 0.000110092 -0.000199349)
(-1.99476e-05 0.000227765 -0.000297332)
(-3.88669e-05 0.00029072 -0.000332953)
(-6.64968e-05 0.000341073 -0.000363166)
(-9.58574e-05 0.000379509 -0.000387758)
(-0.000125056 0.000407065 -0.000406844)
(-0.000153254 0.000425521 -0.000421613)
(-0.000179863 0.000435767 -0.00043355)
(-0.000204319 0.000439306 -0.00044308)
(-0.000226275 0.000436689 -0.000450909)
(-0.000245465 0.000429141 -0.000457081)
(-0.000261694 0.000417037 -0.000462045)
(-0.000274936 0.000401318 -0.000465753)
(-0.000285121 0.000382259 -0.000468543)
(-0.000292248 0.000360739 -0.000470287)
(-0.000296382 0.000336913 -0.000471269)
(-0.000297587 0.000311545 -0.000471348)
(-0.000295971 0.000284759 -0.000470752)
(-0.000291614 0.00025722 -0.000469338)
(-0.000284736 0.000228888 -0.000467341)
(-0.000275453 0.000200359 -0.000464601)
(-0.000263956 0.000171723 -0.000461236)
(-0.000250428 0.000143473 -0.000457077)
(-0.000235084 0.000115675 -0.000452183)
(-0.000218122 8.87508e-05 -0.000446365)
(-0.000199765 6.27554e-05 -0.000439535)
(-0.00018021 3.80587e-05 -0.000431267)
(-0.0001597 1.47252e-05 -0.000421148)
(-0.000138461 -6.89563e-06 -0.000408344)
(-0.000116729 -2.66903e-05 -0.000391787)
(-9.45845e-05 -4.42228e-05 -0.000369733)
(-7.17906e-05 -5.90249e-05 -0.000339059)
(-4.83872e-05 -6.96878e-05 -0.00029234)
(-2.93795e-05 -7.28354e-05 -0.000220617)
(-1.58886e-05 -4.96125e-05 -7.61495e-05)
(-1.00377e-06 0.000282147 -0.000148709)
(-1.04003e-05 0.000483688 -0.000241073)
(-1.85837e-05 0.000571754 -0.000278555)
(-3.12006e-05 0.000633736 -0.000303617)
(-4.44077e-05 0.000675194 -0.000321262)
(-5.72515e-05 0.000701136 -0.000334042)
(-6.94631e-05 0.000714379 -0.000343881)
(-8.07813e-05 0.000717919 -0.000351532)
(-9.10521e-05 0.000713216 -0.00035791)
(-0.000100088 0.000702214 -0.000363131)
(-0.000107836 0.000685658 -0.000367676)
(-0.000114214 0.000664933 -0.000371429)
(-0.000119244 0.000640434 -0.000374696)
(-0.000122906 0.00061323 -0.000377282)
(-0.000125256 0.00058354 -0.000379423)
(-0.000126315 0.000552247 -0.000380907)
(-0.000126156 0.000519469 -0.000381948)
(-0.000124794 0.000485971 -0.000382336)
(-0.000122385 0.000451834 -0.000382248)
(-0.000118935 0.000417751 -0.000381496)
(-0.00011459 0.000383753 -0.000380236)
(-0.000109435 0.000350387 -0.000378283)
(-0.000103589 0.000317679 -0.000375748)
(-9.7134e-05 0.00028607 -0.00037245)
(-9.01865e-05 0.000255566 -0.000368424)
(-8.28122e-05 0.000226513 -0.000363424)
(-7.51121e-05 0.000198886 -0.000357321)
(-6.71276e-05 0.000172943 -0.000349649)
(-5.89524e-05 0.000148621 -0.000339903)
(-5.06146e-05 0.000126095 -0.000327079)
(-4.21372e-05 0.000105243 -0.000309758)
(-3.33043e-05 8.61422e-05 -0.000285189)
(-2.38621e-05 6.85128e-05 -0.000248626)
(-1.51505e-05 5.23695e-05 -0.000194493)
(-9.87547e-06 2.85208e-05 -7.50959e-05)
(-1.27955e-06 0.00036982 -3.61894e-06)
(-5.70481e-06 0.000609567 -6.12258e-05)
(-7.13917e-06 0.000715698 -9.60079e-05)
(-1.02733e-05 0.000790591 -0.00012078)
(-1.35682e-05 0.000841585 -0.000137314)
(-1.68945e-05 0.000873704 -0.000149879)
(-2.01514e-05 0.000891317 -0.00016038)
(-2.3311e-05 0.000897109 -0.000169967)
(-2.62485e-05 0.000893841 -0.000178906)
(-2.89265e-05 0.000882945 -0.000187712)
(-3.12634e-05 0.000866273 -0.000196313)
(-3.32533e-05 0.000844595 -0.00020498)
(-3.4848e-05 0.000819246 -0.000213489)
(-3.60709e-05 0.000790645 -0.000222004)
(-3.68985e-05 0.000759826 -0.000230254)
(-3.73774e-05 0.000727016 -0.000238362)
(-3.74946e-05 0.000693059 -0.000246054)
(-3.73264e-05 0.000658057 -0.000253451)
(-3.68616e-05 0.000622782 -0.000260246)
(-3.61687e-05 0.000587444 -0.000266441)
(-3.52685e-05 0.000552623 -0.000271811)
(-3.42351e-05 0.000518312 -0.000276441)
(-3.30768e-05 0.00048494 -0.00028013)
(-3.18633e-05 0.000452483 -0.000282907)
(-3.05997e-05 0.000421251 -0.000284555)
(-2.93148e-05 0.000391031 -0.000285119)
(-2.79907e-05 0.000361981 -0.000284323)
(-2.66374e-05 0.000333876 -0.000282011)
(-2.51776e-05 0.000306654 -0.000277718)
(-2.35628e-05 0.000279855 -0.000270956)
(-2.16263e-05 0.000253067 -0.000260811)
(-1.90538e-05 0.000225436 -0.000246403)
(-1.52144e-05 0.00019592 -0.000226229)
(-1.04559e-05 0.000163021 -0.000195441)
(-7.71803e-06 0.000100204 -0.000104962)
(-3.02884e-06 0.000393397 8.0151e-05)
(-5.96996e-06 0.000631122 5.21827e-05)
(-4.86495e-06 0.000737872 2.41078e-05)
(-3.56468e-06 0.00081503 2.97426e-06)
(-1.59659e-06 0.000868986 -1.1119e-05)
(6.96466e-07 0.000905198 -2.1972e-05)
(3.11284e-06 0.000927155 -3.1797e-05)
(5.52467e-06 0.000938195 -4.11298e-05)
(7.85942e-06 0.000940225 -5.04938e-05)
(1.00639e-05 0.000935387 -5.99117e-05)
(1.20895e-05 0.000924711 -6.96841e-05)
(1.39248e-05 0.000909685 -7.9543e-05)
(1.55287e-05 0.000890877 -8.96384e-05)
(1.68918e-05 0.000869375 -9.97406e-05)
(1.79787e-05 0.000845487 -0.000109923)
(1.87892e-05 0.000820057 -0.000119927)
(1.9283e-05 0.000793245 -0.000129799)
(1.94642e-05 0.000765727 -0.000139286)
(1.92902e-05 0.000737597 -0.000148413)
(1.87733e-05 0.000709444 -0.000156931)
(1.78951e-05 0.00068127 -0.000164871)
(1.66788e-05 0.000653494 -0.000172024)
(1.51076e-05 0.000626037 -0.00017842)
(1.32157e-05 0.000599174 -0.00018387)
(1.1001e-05 0.000572717 -0.000188396)
(8.51871e-06 0.000546755 -0.000191819)
(5.79369e-06 0.000520923 -0.000194133)
(2.92082e-06 0.000495038 -0.000195133)
(-7.91074e-09 0.000468421 -0.000194713)
(-2.83572e-06 0.000440442 -0.000192501)
(-5.3867e-06 0.000409857 -0.000188223)
(-7.28914e-06 0.000375267 -0.000181929)
(-7.82586e-06 0.000334282 -0.000174299)
(-6.33791e-06 0.000284161 -0.000161023)
(-5.6296e-06 0.000180137 -9.8154e-05)
(-3.04524e-06 0.000393649 0.000112538)
(-4.75172e-06 0.000616451 0.000100216)
(-3.09872e-06 0.000718082 7.81813e-05)
(-6.39725e-07 0.000792863 6.06619e-05)
(2.7165e-06 0.000847192 4.89891e-05)
(6.51389e-06 0.000885325 3.96125e-05)
(1.04922e-05 0.00091106 3.09502e-05)
(1.44658e-05 0.000926737 2.23433e-05)
(1.83064e-05 0.000934717 1.37187e-05)
(2.19089e-05 0.000936282 4.84577e-06)
(2.52142e-05 0.000932994 -4.18385e-06)
(2.81446e-05 0.000925556 -1.36325e-05)
(3.06723e-05 0.000915048 -2.33038e-05)
(3.27566e-05 0.000901822 -3.32049e-05)
(3.4383e-05 0.000886694 -4.31107e-05)
(3.55123e-05 0.000869844 -5.30437e-05)
(3.61504e-05 0.000851912 -6.27825e-05)
(3.62668e-05 0.000832965 -7.23348e-05)
(3.58735e-05 0.000813509 -8.14952e-05)
(3.49543e-05 0.000793526 -9.02737e-05)
(3.35363e-05 0.000773401 -9.84816e-05)
(3.16149e-05 0.000753043 -0.000106131)
(2.92282e-05 0.000732717 -0.000113051)
(2.63877e-05 0.000712214 -0.000119261)
(2.31543e-05 0.000691597 -0.000124615)
(1.95628e-05 0.000670463 -0.000129144)
(1.57054e-05 0.000648602 -0.000132713)
(1.16624e-05 0.0006253 -0.000135351)
(7.57945e-06 0.000599893 -0.000136896)
(3.59716e-06 0.000571111 -0.000137278)
(-7.09717e-08 0.000537503 -0.000136319)
(-3.10869e-06 0.000496808 -0.000134635)
(-4.82928e-06 0.000446157 -0.000133449)
(-4.49942e-06 0.000381514 -0.000129255)
(-4.31163e-06 0.000243466 -8.48666e-05)
(-2.15973e-06 0.000377198 0.000108061)
(-2.76297e-06 0.000585264 0.000101036)
(-1.12613e-06 0.000681105 8.35399e-05)
(1.38803e-06 0.000753147 6.94754e-05)
(4.62525e-06 0.0008068 6.0027e-05)
(8.21709e-06 0.000846413 5.24923e-05)
(1.19519e-05 0.00087492 4.54125e-05)
(1.5679e-05 0.000894943 3.84673e-05)
(1.92911e-05 0.000908063 3.14042e-05)
(2.26884e-05 0.00091593 2.42099e-05)
(2.5795e-05 0.000919375 1.67451e-05)
(2.85542e-05 0.000919475 9.15269e-06)
(3.09149e-05 0.000916667 1.37105e-06)
(3.28604e-05 0.00091174 -6.48809e-06)
(3.43394e-05 0.000904892 -1.44453e-05)
(3.5348e-05 0.000896708 -2.23238e-05)
(3.58605e-05 0.000887245 -3.01421e-05)
(3.58785e-05 0.000876952 -3.77366e-05)
(3.53896e-05 0.000865794 -4.51156e-05)
(3.44098e-05 0.000854109 -5.21266e-05)
(3.29333e-05 0.000841775 -5.87837e-05)
(3.09932e-05 0.000829008 -6.49485e-05)
(2.86028e-05 0.000815578 -7.06437e-05)
(2.58084e-05 0.000801541 -7.57477e-05)
(2.26447e-05 0.000786496 -8.02928e-05)
(1.91816e-05 0.000770256 -8.4175e-05)
(1.54844e-05 0.000752131 -8.74381e-05)
(1.16573e-05 0.000731537 -8.99944e-05)
(7.80821e-06 0.000707273 -9.18731e-05)
(4.09104e-06 0.000678061 -9.29325e-05)
(6.7186e-07 0.000641794 -9.32243e-05)
(-2.16515e-06 0.000595977 -9.32812e-05)
(-3.86213e-06 0.000536856 -9.44767e-05)
(-3.78319e-06 0.000459754 -9.39554e-05)
(-3.52079e-06 0.000292558 -6.27146e-05)
(-1.25971e-06 0.000358824 8.79732e-05)
(-1.2847e-06 0.000559241 8.27829e-05)
(-1.97066e-07 0.000652307 6.98772e-05)
(1.48433e-06 0.000722969 5.93766e-05)
(3.58937e-06 0.000776768 5.23038e-05)
(5.91434e-06 0.000817465 4.65852e-05)
(8.32738e-06 0.000848269 4.13027e-05)
(1.07505e-05 0.000871216 3.6097e-05)
(1.3108e-05 0.00088822 3.09264e-05)
(1.53375e-05 0.000900357 2.56439e-05)
(1.73826e-05 0.000908824 2.02854e-05)
(1.92025e-05 0.000914168 1.47862e-05)
(2.07594e-05 0.000917182 9.24294e-06)
(2.20216e-05 0.000918113 3.61327e-06)
(2.297e-05 0.000917521 -1.97891e-06)
(2.35835e-05 0.000915482 -7.56049e-06)
(2.38537e-05 0.000912405 -1.30088e-05)
(2.37668e-05 0.000908253 -1.83462e-05)
(2.33291e-05 0.000903326 -2.34544e-05)
(2.2537e-05 0.000897496 -2.83606e-05)
(2.14042e-05 0.000890955 -3.29539e-05)
(1.99415e-05 0.000883475 -3.72689e-05)
(1.81785e-05 0.000875112 -4.12047e-05)
(1.61335e-05 0.00086549 -4.48048e-05)
(1.3856e-05 0.000854465 -4.79781e-05)
(1.13848e-05 0.000841418 -5.07779e-05)
(8.78725e-06 0.000825869 -5.31246e-05)
(6.13221e-06 0.000806777 -5.50806e-05)
(3.51462e-06 0.000783084 -5.656e-05)
(1.03601e-06 0.000753002 -5.75839e-05)
(-1.16353e-06 0.00071444 -5.80909e-05)
(-2.88486e-06 0.000664287 -5.85954e-05)
(-3.72548e-06 0.000598598 -6.00177e-05)
(-3.36039e-06 0.000511873 -6.03775e-05)
(-2.77962e-06 0.000322927 -3.89095e-05)
(-9.36014e-07 0.00034238 6.8126e-05)
(-9.8057e-07 0.000540742 6.65616e-05)
(-5.99491e-07 0.000633024 5.90002e-05)
(2.95947e-08 0.00070366 5.26472e-05)
(8.93239e-07 0.000757805 4.82e-05)
(1.89103e-06 0.000799571 4.45363e-05)
(2.96747e-06 0.000831749 4.10419e-05)
(4.07607e-06 0.000856722 3.76229e-05)
(5.18113e-06 0.000875972 3.41753e-05)
(6.24562e-06 0.000890922 3.07296e-05)
(7.24228e-06 0.000902331 2.72102e-05)
(8.14444e-06 0.000911086 2.36828e-05)
(8.92582e-06 0.00091754 2.01007e-05)
(9.55767e-06 0.000922288 1.65486e-05)
(1.00345e-05 0.000925453 1.29705e-05)
(1.03476e-05 0.000927438 9.46223e-06)
(1.04748e-05 0.000928228 6.0181e-06)
(1.04149e-05 0.000928106 2.73145e-06)
(1.01633e-05 0.000926955 -4.45756e-07)
(9.72146e-06 0.000924958 -3.4222e-06)
(9.09314e-06 0.000921901 -6.24773e-06)
(8.29059e-06 0.000917853 -8.83849e-06)
(7.32269e-06 0.000912471 -1.12498e-05)
(6.21591e-06 0.000905665 -1.34053e-05)
(4.98969e-06 0.000896895 -1.53673e-05)
(3.68008e-06 0.000885804 -1.70674e-05)
(2.32452e-06 0.000871513 -1.85763e-05)
(9.71127e-07 0.000853214 -1.98356e-05)
(-3.22974e-07 0.000829428 -2.0914e-05)
(-1.49101e-06 0.000798547 -2.17364e-05)
(-2.45849e-06 0.000758023 -2.23947e-05)
(-3.09605e-06 0.000704821 -2.31535e-05)
(-3.1744e-06 0.000634465 -2.4754e-05)
(-2.57143e-06 0.000541358 -2.59182e-05)
(-1.89033e-06 0.000338117 -1.43571e-05)
(-1.13158e-06 0.000329159 5.44125e-05)
(-1.54179e-06 0.000526855 5.8814e-05)
(-1.86724e-06 0.000618941 5.69225e-05)
(-2.19686e-06 0.000689452 5.47459e-05)
(-2.35475e-06 0.000743817 5.30318e-05)
(-2.37241e-06 0.000785878 5.1337e-05)
(-2.30104e-06 0.000818732 4.95537e-05)
(-2.15158e-06 0.00084444 4.76295e-05)
(-1.9475e-06 0.000864801 4.5649e-05)
(-1.70087e-06 0.00088089 4.35743e-05)
(-1.43563e-06 0.000893782 4.14816e-05)
(-1.15775e-06 0.000904008 3.9327e-05)
(-8.85983e-07 0.000912237 3.71924e-05)
(-6.33734e-07 0.000918675 3.50628e-05)
(-4.16091e-07 0.000923762 3.30302e-05)
(-2.4722e-07 0.000927537 3.10585e-05)
(-1.24892e-07 0.000930319 2.91689e-05)
(-5.82614e-08 0.000932021 2.73207e-05)
(-5.22957e-08 0.000932829 2.55989e-05)
(-1.05225e-07 0.00093256 2.39509e-05)
(-2.17202e-07 0.0009313 2.24488e-05)
(-3.85592e-07 0.000928758 2.1031e-05)
(-6.0048e-07 0.00092489 1.97597e-05)
(-8.55254e-07 0.000919246 1.85676e-05)
(-1.1378e-06 0.00091158 1.75099e-05)
(-1.43498e-06 0.000901183 1.65108e-05)
(-1.72731e-06 0.000887461 1.56145e-05)
(-1.99304e-06 0.000869255 1.47326e-05)
(-2.20651e-06 0.000845361 1.38938e-05)
(-2.3473e-06 0.000813821 1.29991e-05)
(-2.38392e-06 0.000772337 1.20269e-05)
(-2.27366e-06 0.000717528 1.06324e-05)
(-1.92522e-06 0.000645121 8.32014e-06)
(-1.32447e-06 0.000549179 5.49105e-06)
(-8.24769e-07 0.00034017 6.94566e-06)
(-1.47639e-06 0.000317815 4.60317e-05)
(-2.28415e-06 0.000513366 5.67223e-05)
(-3.10708e-06 0.000604341 5.95971e-05)
(-4.0766e-06 0.000674111 6.09321e-05)
(-4.84635e-06 0.00072783 6.14661e-05)
(-5.45338e-06 0.000769572 6.14458e-05)
(-5.92819e-06 0.000802138 6.09816e-05)
(-6.29447e-06 0.000827853 6.025e-05)
(-6.55577e-06 0.000848209 5.93027e-05)
(-6.72806e-06 0.000864562 5.82543e-05)
(-6.81408e-06 0.000877678 5.71031e-05)
(-6.82877e-06 0.00088837 5.59355e-05)
(-6.77441e-06 0.000896996 5.47282e-05)
(-6.66639e-06 0.000904066 5.35554e-05)
(-6.50953e-06 0.000909701 5.238e-05)
(-6.31311e-06 0.000914231 5.12642e-05)
(-6.08391e-06 0.000917606 5.01963e-05)
(-5.83228e-06 0.000920041 4.92329e-05)
(-5.55722e-06 0.000921406 4.83221e-05)
(-5.26738e-06 0.000921816 4.75183e-05)
(-4.96299e-06 0.000921038 4.67642e-05)
(-4.64589e-06 0.000919078 4.61083e-05)
(-4.31871e-06 0.000915575 4.54869e-05)
(-3.97929e-06 0.000910376 4.49408e-05)
(-3.62594e-06 0.000902922 4.43972e-05)
(-3.25867e-06 0.000892804 4.38851e-05)
(-2.87609e-06 0.000879131 4.33164e-05)
(-2.47324e-06 0.000861044 4.26971e-05)
(-2.05647e-06 0.000837064 4.19094e-05)
(-1.62629e-06 0.000805542 4.0917e-05)
(-1.19876e-06 0.000763942 3.95221e-05)
(-7.83781e-07 0.000709205 3.74607e-05)
(-3.97975e-07 0.000636894 3.41238e-05)
(-1.68172e-08 0.000541407 2.93806e-05)
(1.40328e-07 0.000333693 2.20953e-05)
(-1.65499e-06 0.000307506 3.88312e-05)
(-2.66868e-06 0.000498607 5.32451e-05)
(-3.72476e-06 0.000587523 5.89503e-05)
(-4.96593e-06 0.000655605 6.23403e-05)
(-5.99766e-06 0.000708104 6.4256e-05)
(-6.83102e-06 0.000748775 6.52122e-05)
(-7.51955e-06 0.000780595 6.55759e-05)
(-8.07388e-06 0.000805596 6.55167e-05)
(-8.51163e-06 0.000825488 6.52115e-05)
(-8.82348e-06 0.000841345 6.47169e-05)
(-9.027e-06 0.000854172 6.41392e-05)
(-9.11915e-06 0.000864507 6.3487e-05)
(-9.11691e-06 0.00087296 6.28367e-05)
(-9.01742e-06 0.000879762 6.21749e-05)
(-8.83124e-06 0.000885295 6.15632e-05)
(-8.56273e-06 0.000889611 6.09757e-05)
(-8.22221e-06 0.000892947 6.04657e-05)
(-7.81342e-06 0.000895234 5.99975e-05)
(-7.35063e-06 0.000896609 5.96161e-05)
(-6.83512e-06 0.000896903 5.92773e-05)
(-6.2761e-06 0.000896156 5.90181e-05)
(-5.67978e-06 0.000894093 5.87861e-05)
(-5.05492e-06 0.000890628 5.86096e-05)
(-4.40254e-06 0.000885337 5.8427e-05)
(-3.73314e-06 0.000877944 5.82551e-05)
(-3.05078e-06 0.00086778 5.80189e-05)
(-2.36356e-06 0.000854246 5.77148e-05)
(-1.68603e-06 0.000836249 5.72399e-05)
(-1.02727e-06 0.000812622 5.65488e-05)
(-4.11402e-07 0.000781525 5.54791e-05)
(1.32983e-07 0.000740773 5.38799e-05)
(5.52579e-07 0.000687184 5.13722e-05)
(7.90831e-07 0.000616742 4.74019e-05)
(9.0595e-07 0.000523857 4.13941e-05)
(7.63406e-07 0.000322387 2.88607e-05)
(-1.46543e-06 0.000298623 2.98475e-05)
(-2.43249e-06 0.000484489 4.38856e-05)
(-3.43969e-06 0.000570883 4.99961e-05)
(-4.64929e-06 0.000637074 5.37951e-05)
(-5.66192e-06 0.000687999 5.59694e-05)
(-6.50085e-06 0.000727484 5.7168e-05)
(-7.19471e-06 0.000758226 5.77301e-05)
(-7.76773e-06 0.000782407 5.78968e-05)
(-8.21005e-06 0.000801483 5.77807e-05)
(-8.5353e-06 0.000816718 5.75081e-05)
(-8.73712e-06 0.000828876 5.71209e-05)
(-8.82803e-06 0.000838705 5.66986e-05)
(-8.80499e-06 0.00084658 5.62503e-05)
(-8.68086e-06 0.000852956 5.58336e-05)
(-8.45505e-06 0.000857981 5.5441e-05)
(-8.14378e-06 0.000861934 5.51179e-05)
(-7.74751e-06 0.000864822 5.48456e-05)
(-7.28098e-06 0.000866808 5.46598e-05)
(-6.7492e-06 0.000867793 5.45325e-05)
(-6.16344e-06 0.000867848 5.44903e-05)
(-5.53313e-06 0.000866775 5.44961e-05)
(-4.87104e-06 0.000864541 5.45678e-05)
(-4.182e-06 0.000860829 5.46592e-05)
(-3.47834e-06 0.000855459 5.47776e-05)
(-2.76935e-06 0.000847932 5.48662e-05)
(-2.06339e-06 0.000837833 5.49177e-05)
(-1.37671e-06 0.000824357 5.48564e-05)
(-7.16864e-07 0.000806686 5.46473e-05)
(-1.05999e-07 0.000783477 5.41741e-05)
(4.37669e-07 0.000753191 5.33408e-05)
(8.79585e-07 0.000713532 5.1932e-05)
(1.16821e-06 0.000661668 4.96589e-05)
(1.23436e-06 0.000593591 4.5959e-05)
(1.1786e-06 0.000504141 4.02332e-05)
(8.99581e-07 0.000310368 2.71659e-05)
(-9.5854e-07 0.000292364 1.81642e-05)
(-1.68716e-06 0.000474137 2.78196e-05)
(-2.46718e-06 0.000558638 3.22573e-05)
(-3.43346e-06 0.000623272 3.49952e-05)
(-4.29577e-06 0.000673008 3.64997e-05)
(-5.03419e-06 0.000711422 3.72439e-05)
(-5.67143e-06 0.000741321 3.7525e-05)
(-6.19819e-06 0.000764667 3.74882e-05)
(-6.62417e-06 0.000783067 3.72572e-05)
(-6.93313e-06 0.000797584 3.6893e-05)
(-7.13575e-06 0.000809154 3.64713e-05)
(-7.22216e-06 0.000818334 3.60188e-05)
(-7.20721e-06 0.000825682 3.5588e-05)
(-7.08655e-06 0.000831465 3.51881e-05)
(-6.87292e-06 0.000836021 3.48584e-05)
(-6.57105e-06 0.000839442 3.45968e-05)
(-6.1929e-06 0.000841927 3.44326e-05)
(-5.74826e-06 0.000843451 3.43537e-05)
(-5.25095e-06 0.000844111 3.43798e-05)
(-4.70895e-06 0.000843785 3.44895e-05)
(-4.13727e-06 0.000842474 3.46929e-05)
(-3.5493e-06 0.000839953 3.49591e-05)
(-2.95121e-06 0.000836105 3.52894e-05)
(-2.35698e-06 0.000830563 3.56433e-05)
(-1.7775e-06 0.000823031 3.60119e-05)
(-1.22308e-06 0.000812918 3.63441e-05)
(-6.99048e-07 0.000799631 3.66165e-05)
(-2.20433e-07 0.00078219 3.6759e-05)
(2.02937e-07 0.000759486 3.6719e-05)
(5.55355e-07 0.000729851 3.63866e-05)
(8.24124e-07 0.000691253 3.56393e-05)
(9.66997e-07 0.000640796 3.4243e-05)
(9.55342e-07 0.000574793 3.18398e-05)
(8.67316e-07 0.000488129 2.79657e-05)
(6.29568e-07 0.000300715 1.87475e-05)
(-2.99487e-07 0.00029018 5.31295e-06)
(-7.24738e-07 0.000470773 8.2273e-06)
(-1.18274e-06 0.000554656 9.76132e-06)
(-1.84308e-06 0.000618796 1.06041e-05)
(-2.49854e-06 0.000668014 1.08562e-05)
(-3.11545e-06 0.000705987 1.07592e-05)
(-3.66878e-06 0.000735378 1.04364e-05)
(-4.15872e-06 0.000758278 9.97283e-06)
(-4.56167e-06 0.000776153 9.41151e-06)
(-4.87532e-06 0.000790208 8.80662e-06)
(-5.08779e-06 0.000801241 8.18573e-06)
(-5.20294e-06 0.000809958 7.59095e-06)
(-5.21704e-06 0.000816778 7.03985e-06)
(-5.14088e-06 0.000822122 6.5662e-06)
(-4.97511e-06 0.000826185 6.17967e-06)
(-4.7338e-06 0.000829216 5.90567e-06)
(-4.42347e-06 0.000831268 5.74529e-06)
(-4.06204e-06 0.00083247 5.71464e-06)
(-3.65803e-06 0.000832774 5.80583e-06)
(-3.22726e-06 0.00083221 6.02491e-06)
(-2.78386e-06 0.000830631 6.3546e-06)
(-2.33941e-06 0.000827964 6.79179e-06)
(-1.90847e-06 0.000823942 7.31057e-06)
(-1.49733e-06 0.00081835 7.89964e-06)
(-1.11881e-06 0.000810745 8.52612e-06)
(-7.78402e-07 0.000800689 9.17203e-06)
(-4.85184e-07 0.000787447 9.79864e-06)
(-2.37094e-07 0.000770198 1.03814e-05)
(-4.19074e-08 0.000747702 1.08734e-05)
(1.05288e-07 0.00071846 1.12393e-05)
(1.97506e-07 0.000680333 1.14136e-05)
(2.38971e-07 0.000630608 1.13248e-05)
(2.28371e-07 0.000565537 1.0836e-05)
(2.28207e-07 0.000480216 9.81347e-06)
(1.25258e-07 0.000295737 7.04175e-06)
(3.02389e-07 0.000292633 -6.38132e-06)
(1.50105e-07 0.000475342 -1.03163e-05)
(-2.06551e-09 0.000560171 -1.17823e-05)
(-3.71177e-07 0.000624902 -1.29193e-05)
(-8.46177e-07 0.0006745 -1.39592e-05)
(-1.3477e-06 0.00071261 -1.4944e-05)
(-1.84265e-06 0.000742031 -1.5894e-05)
(-2.2978e-06 0.000764792 -1.68261e-05)
(-2.69797e-06 0.000782488 -1.7739e-05)
(-3.0203e-06 0.000796245 -1.86263e-05)
(-3.26129e-06 0.000806987 -1.94679e-05)
(-3.41138e-06 0.000815331 -2.02481e-05)
(-3.47759e-06 0.000821818 -2.09421e-05)
(-3.45403e-06 0.000826775 -2.15338e-05)
(-3.35231e-06 0.000830517 -2.20017e-05)
(-3.18303e-06 0.00083319 -2.23346e-05)
(-2.95846e-06 0.000834967 -2.25176e-05)
(-2.69074e-06 0.000835872 -2.25481e-05)
(-2.39419e-06 0.00083597 -2.24206e-05)
(-2.08615e-06 0.000835182 -2.21422e-05)
(-1.77743e-06 0.000833472 -2.17166e-05)
(-1.48313e-06 0.000830655 -2.11602e-05)
(-1.21714e-06 0.000826572 -2.04848e-05)
(-9.89715e-07 0.000820891 -1.97128e-05)
(-8.01835e-07 0.000813274 -1.88607e-05)
(-6.66337e-07 0.000803165 -1.79525e-05)
(-5.78879e-07 0.00078993 -1.7003e-05)
(-5.38149e-07 0.000772628 -1.6029e-05)
(-5.35349e-07 0.000750115 -1.50334e-05)
(-5.61655e-07 0.000720773 -1.40114e-05)
(-5.95536e-07 0.000682547 -1.29345e-05)
(-6.15354e-07 0.000632607 -1.17415e-05)
(-5.68741e-07 0.000567269 -1.03132e-05)
(-4.36931e-07 0.00048152 -8.45675e-06)
(-3.89568e-07 0.000296156 -4.52123e-06)
(7.17466e-07 0.000299353 -1.48823e-05)
(7.22684e-07 0.000486987 -2.40343e-05)
(7.96962e-07 0.00057402 -2.78362e-05)
(6.32935e-07 0.000640355 -3.0533e-05)
(3.00264e-07 0.000691031 -3.2608e-05)
(-1.1665e-07 0.000729882 -3.43085e-05)
(-5.51939e-07 0.000759722 -3.57779e-05)
(-9.78354e-07 0.000782721 -3.70982e-05)
(-1.36429e-06 0.000800454 -3.83134e-05)
(-1.69025e-06 0.000814165 -3.94402e-05)
(-1.94308e-06 0.000824738 -4.04793e-05)
(-2.11731e-06 0.000832894 -4.14207e-05)
(-2.20982e-06 0.000839121 -4.22496e-05)
(-2.22743e-06 0.000843841 -4.29488e-05)
(-2.17149e-06 0.000847307 -4.35023e-05)
(-2.05579e-06 0.000849756 -4.38954e-05)
(-1.89174e-06 0.000851291 -4.41176e-05)
(-1.69198e-06 0.000852019 -4.41621e-05)
(-1.47493e-06 0.000851931 -4.40271e-05)
(-1.25703e-06 0.000851029 -4.37151e-05)
(-1.04848e-06 0.000849196 -4.32339e-05)
(-8.65733e-07 0.000846318 -4.25951e-05)
(-7.21914e-07 0.000842153 -4.18136e-05)
(-6.22376e-07 0.000836437 -4.09065e-05)
(-5.77901e-07 0.00082874 -3.98908e-05)
(-5.83767e-07 0.000818564 -3.87814e-05)
(-6.47406e-07 0.000805179 -3.75871e-05)
(-7.50762e-07 0.00078769 -3.63059e-05)
(-8.83077e-07 0.000764843 -3.49186e-05)
(-1.02503e-06 0.000735049 -3.33782e-05)
(-1.15048e-06 0.000696124 -3.15944e-05)
(-1.20207e-06 0.000645235 -2.9397e-05)
(-1.11304e-06 0.00057853 -2.64835e-05)
(-8.72257e-07 0.000490939 -2.24063e-05)
(-7.50736e-07 0.000301477 -1.32968e-05)
(8.71373e-07 0.000308991 -1.92081e-05)
(9.11942e-07 0.000502984 -3.08328e-05)
(1.08692e-06 0.000592921 -3.57685e-05)
(1.02639e-06 0.000661351 -3.92294e-05)
(7.71357e-07 0.000713536 -4.18138e-05)
(4.21097e-07 0.000753415 -4.38704e-05)
(3.48449e-08 0.000783955 -4.5603e-05)
(-3.46607e-07 0.000807366 -4.71242e-05)
(-6.98485e-07 0.000825337 -4.84992e-05)
(-9.97118e-07 0.000839117 -4.9756e-05)
(-1.23107e-06 0.000849678 -5.09043e-05)
(-1.3905e-06 0.000857726 -5.19375e-05)
(-1.47624e-06 0.000863827 -5.28445e-05)
(-1.49116e-06 0.000868371 -5.36088e-05)
(-1.4406e-06 0.000871681 -5.42153e-05)
(-1.33492e-06 0.000873954 -5.46491e-05)
(-1.18984e-06 0.000875353 -5.49003e-05)
(-1.01741e-06 0.000875942 -5.49608e-05)
(-8.32281e-07 0.000875764 -5.48298e-05)
(-6.52037e-07 0.00087477 -5.45087e-05)
(-4.91227e-07 0.000872891 -5.40063e-05)
(-3.62721e-07 0.000869958 -5.33323e-05)
(-2.76531e-07 0.000865768 -5.25033e-05)
(-2.44345e-07 0.000859992 -5.15335e-05)
(-2.69352e-07 0.000852235 -5.04403e-05)
(-3.53566e-07 0.000841926 -4.92343e-05)
(-4.8904e-07 0.000828352 -4.79219e-05)
(-6.68753e-07 0.000810535 -4.6492e-05)
(-8.73532e-07 0.00078722 -4.49156e-05)
(-1.08209e-06 0.00075671 -4.3125e-05)
(-1.2572e-06 0.000716788 -4.10034e-05)
(-1.3448e-06 0.000664478 -3.8328e-05)
(-1.25904e-06 0.000595827 -3.47141e-05)
(-9.89725e-07 0.000505563 -2.95905e-05)
(-8.83083e-07 0.000310244 -1.80056e-05)
(7.96782e-07 0.000319814 -1.94605e-05)
(7.722e-07 0.000520219 -3.07142e-05)
(9.41887e-07 0.000613075 -3.55298e-05)
(8.81221e-07 0.000683655 -3.89243e-05)
(6.52106e-07 0.000737372 -4.14662e-05)
(3.38569e-07 0.000778342 -4.35004e-05)
(-9.62823e-10 0.00080961 -4.52214e-05)
(-3.34702e-07 0.000833502 -4.67409e-05)
(-6.32774e-07 0.000851742 -4.81181e-05)
(-8.82127e-07 0.000865661 -4.93825e-05)
(-1.06626e-06 0.000876242 -5.05393e-05)
(-1.18013e-06 0.000884255 -5.15844e-05)
(-1.22242e-06 0.000890261 -5.25027e-05)
(-1.19829e-06 0.000894701 -5.32805e-05)
(-1.11389e-06 0.000897883 -5.38992e-05)
(-9.78765e-07 0.000900047 -5.43466e-05)
(-8.06632e-07 0.000901336 -5.46095e-05)
(-6.14145e-07 0.000901848 -5.46827e-05)
(-4.13766e-07 0.000901599 -5.45619e-05)
(-2.19726e-07 0.000900571 -5.4252e-05)
(-4.96509e-08 0.000898659 -5.37579e-05)
(8.43748e-08 0.000895718 -5.30934e-05)
(1.69412e-07 0.000891505 -5.22708e-05)
(2.00434e-07 0.000885708 -5.13088e-05)
(1.69698e-07 0.000877882 -5.02211e-05)
(8.00756e-08 0.000867462 -4.90229e-05)
(-6.93339e-08 0.000853676 -4.77176e-05)
(-2.62963e-07 0.000835536 -4.62995e-05)
(-4.87475e-07 0.000811709 -4.47382e-05)
(-7.19293e-07 0.000780466 -4.29734e-05)
(-9.29569e-07 0.000739476 -4.08901e-05)
(-1.05916e-06 0.00068569 -3.82816e-05)
(-1.03261e-06 0.000614988 -3.47788e-05)
(-8.10032e-07 0.000521947 -2.9833e-05)
(-7.96316e-07 0.000320513 -1.85997e-05)
(5.5781e-07 0.000330036 -1.67004e-05)
(4.13221e-07 0.000535701 -2.53436e-05)
(4.84894e-07 0.000630969 -2.90513e-05)
(3.59802e-07 0.000703311 -3.17174e-05)
(1.1466e-07 0.000758304 -3.37794e-05)
(-1.79804e-07 0.000800164 -3.54836e-05)
(-4.76802e-07 0.000832042 -3.69727e-05)
(-7.53191e-07 0.000856317 -3.83224e-05)
(-9.8987e-07 0.000874785 -3.95746e-05)
(-1.16723e-06 0.000888802 -4.07422e-05)
(-1.28022e-06 0.000899406 -4.18256e-05)
(-1.32297e-06 0.000907375 -4.28119e-05)
(-1.29637e-06 0.000913309 -4.36867e-05)
(-1.20449e-06 0.000917651 -4.44306e-05)
(-1.05585e-06 0.000920741 -4.50276e-05)
(-8.61184e-07 0.00092281 -4.54612e-05)
(-6.32057e-07 0.000924028 -4.57212e-05)
(-3.82417e-07 0.000924479 -4.57991e-05)
(-1.29005e-07 0.000924201 -4.56937e-05)
(1.1188e-07 0.000923154 -4.54061e-05)
(3.30728e-07 0.00092125 -4.49451e-05)
(5.11599e-07 0.000918319 -4.43209e-05)
(6.41757e-07 0.000914126 -4.35502e-05)
(7.15312e-07 0.00090833 -4.26487e-05)
(7.25694e-07 0.000900485 -4.16359e-05)
(6.69971e-07 0.000889989 -4.0526e-05)
(5.55654e-07 0.00087606 -3.93315e-05)
(3.87059e-07 0.000857661 -3.80516e-05)
(1.78157e-07 0.000833434 -3.66727e-05)
(-5.28694e-08 0.000801578 -3.51519e-05)
(-2.80893e-07 0.000759713 -3.34113e-05)
(-4.64543e-07 0.000704689 -3.12998e-05)
(-5.39074e-07 0.000632282 -2.85539e-05)
(-4.33054e-07 0.000536918 -2.47495e-05)
(-5.53976e-07 0.000330401 -1.6106e-05)
(2.43725e-07 0.00033833 -1.22979e-05)
(-2.83539e-08 0.000547409 -1.70459e-05)
(-9.40448e-08 0.000644239 -1.90726e-05)
(-3.2728e-07 0.000717727 -2.06253e-05)
(-6.09152e-07 0.000773531 -2.19454e-05)
(-8.93649e-07 0.000815953 -2.31367e-05)
(-1.15502e-06 0.000848191 -2.42563e-05)
(-1.37764e-06 0.000872681 -2.53331e-05)
(-1.54506e-06 0.000891246 -2.63758e-05)
(-1.64842e-06 0.000905285 -2.73805e-05)
(-1.68245e-06 0.000915846 -2.83326e-05)
(-1.64638e-06 0.000923742 -2.92144e-05)
(-1.54136e-06 0.000929577 -3.00043e-05)
(-1.37022e-06 0.00093382 -3.06827e-05)
(-1.14583e-06 0.00093681 -3.12303e-05)
(-8.77675e-07 0.000938799 -3.16319e-05)
(-5.77139e-07 0.00093995 -3.18748e-05)
(-2.59557e-07 0.000940363 -3.19525e-05)
(6.1534e-08 0.000940065 -3.18615e-05)
(3.71547e-07 0.000939029 -3.1605e-05)
(6.55829e-07 0.000937151 -3.119e-05)
(9.01797e-07 0.000934268 -3.06287e-05)
(1.09742e-06 0.000930125 -2.99364e-05)
(1.2351e-06 0.000924382 -2.91324e-05)
(1.30849e-06 0.000916571 -2.82361e-05)
(1.3145e-06 0.000906083 -2.72688e-05)
(1.25187e-06 0.000892107 -2.6248e-05)
(1.12957e-06 0.000873592 -2.51875e-05)
(9.5349e-07 0.000849138 -2.4091e-05)
(7.36745e-07 0.000816922 -2.29488e-05)
(4.96189e-07 0.000774506 -2.17303e-05)
(2.55647e-07 0.000718693 -2.03719e-05)
(5.99681e-08 0.000645179 -1.87569e-05)
(1.66148e-08 0.000548306 -1.66537e-05)
(-2.42869e-07 0.000338485 -1.18914e-05)
(-6.73839e-08 0.000343962 -7.58637e-06)
(-4.53109e-07 0.000554395 -8.13316e-06)
(-6.67916e-07 0.000651851 -8.33563e-06)
(-1.0042e-06 0.000725779 -8.67264e-06)
(-1.32625e-06 0.000781879 -9.17828e-06)
(-1.60986e-06 0.000824473 -9.80039e-06)
(-1.84272e-06 0.000856791 -1.05063e-05)
(-2.0164e-06 0.000881282 -1.12722e-05)
(-2.12211e-06 0.000899798 -1.20746e-05)
(-2.15695e-06 0.000913741 -1.28878e-05)
(-2.1195e-06 0.000924188 -1.36835e-05)