/*--------------------------------*- C++ -*----------------------------------*\
| =========                 |                                                 |
| \\      /  F ield         | OpenFOAM: The Open Source CFD Toolbox           |
|  \\    /   O peration     | Version:  v2006                                 |
|   \\  /    A nd           | Website:  www.openfoam.com                      |
|    \\/     M anipulation  |                                                 |
\*---------------------------------------------------------------------------*/
FoamFile
{
    version     2.0;
    format      ascii;
    class       volScalarField;
    location    "56";
    object      alphat;
}
// * * * * * * * * * * * * * * * * * * * * * * * * * * * * * * * * * * * * * //

dimensions      [1 -1 -1 0 0 0 0];


internalField   nonuniform List<scalar> 
78750
(
0.00122909
0.00267971
0.00184131
0.000558374
9.4218e-05
9.25701e-06
2.15533e-05
2.2274e-05
2.39656e-05
2.85963e-05
3.34795e-05
3.7941e-05
4.27517e-05
4.68181e-05
5.09213e-05
5.54511e-05
5.92439e-05
6.31825e-05
6.69993e-05
7.08243e-05
7.47273e-05
7.86759e-05
8.24356e-05
8.57238e-05
8.81528e-05
8.90384e-05
8.73183e-05
8.16793e-05
7.12794e-05
6.21912e-05
5.88674e-05
5.8589e-05
5.56769e-05
3.10728e-05
2.50707e-06
0.000142671
0.000208709
6.73039e-05
1.25187e-05
5.1567e-06
1.64434e-05
1.18301e-05
1.87992e-05
2.23222e-05
2.85168e-05
3.70869e-05
4.57822e-05
5.56416e-05
6.39495e-05
7.12829e-05
7.59123e-05
7.84342e-05
7.86899e-05
7.68528e-05
7.30832e-05
6.7582e-05
6.062e-05
5.25891e-05
4.40369e-05
3.57677e-05
2.85944e-05
2.27742e-05
1.95813e-05
2.27952e-05
3.72259e-05
6.67057e-05
7.75248e-05
4.98526e-05
1.94843e-05
2.36315e-06
1.28829e-05
3.92441e-05
4.16227e-05
3.15894e-05
3.88958e-05
0.00015085
8.39104e-05
6.44523e-05
6.85486e-05
7.73467e-05
8.50392e-05
9.39406e-05
0.000102197
0.000109184
0.000113585
0.000115459
0.00011505
0.000112703
0.000108588
0.000102808
9.54839e-05
8.68056e-05
7.69859e-05
6.60897e-05
5.40221e-05
3.99694e-05
2.18283e-05
1.98034e-06
1.24125e-06
1.15165e-06
4.46165e-06
1.83221e-05
3.27116e-05
2.16736e-05
3.74529e-06
2.17685e-06
7.44471e-06
1.09533e-05
1.51941e-05
4.11805e-05
3.02242e-05
2.52211e-05
2.88584e-05
3.86194e-05
5.24605e-05
6.82357e-05
8.46381e-05
0.000101792
0.000118895
0.000135076
0.000149999
0.000164272
0.000178292
0.000191199
0.000200944
0.000204661
0.00019924
0.000182208
0.00015257
0.000114443
7.88903e-05
4.99686e-05
1.98744e-05
1.61044e-06
5.44745e-07
3.90385e-07
1.16481e-06
7.3058e-07
6.61624e-06
4.59001e-06
5.35443e-06
3.92886e-05
0.000187362
0.000284635
0.000230708
0.000128406
9.8854e-05
0.00010666
0.000121956
0.000123566
0.000116517
0.000109826
0.000105079
0.000101828
9.99218e-05
9.93809e-05
0.000100268
0.000102781
0.000107357
0.000114858
0.000126985
0.000147225
0.000181739
0.000234638
0.000260174
0.000255551
0.000103336
3.68364e-05
7.32719e-06
2.12357e-06
6.40893e-07
4.60605e-07
1.2622e-06
1.41231e-05
6.49462e-06
3.741e-06
1.38614e-05
3.07944e-05
8.7169e-05
0.000170576
9.86529e-05
7.36088e-05
8.38318e-05
0.000112524
0.000140681
0.000153462
0.000152992
0.000147114
0.000140929
0.000135718
0.000130929
0.00012602
0.000120767
0.000115163
0.000109324
0.000103442
9.78676e-05
9.34707e-05
9.24999e-05
9.95152e-05
0.000120418
0.000150916
7.40164e-05
2.81755e-05
2.05246e-06
9.76237e-08
1.04997e-06
1.63105e-06
5.00811e-06
6.25773e-06
7.26416e-06
4.35003e-05
0.000172491
0.000161059
0.000151474
0.000142478
0.000136393
0.000137543
0.000137817
0.000137153
0.000140451
0.00014832
0.000159374
0.000170797
0.000180187
0.000186224
0.00018839
0.000186617
0.000181062
0.000171986
0.000159826
0.000145383
0.000130049
0.000116046
0.000106386
0.000104146
0.000111346
0.000126661
0.000137124
5.33891e-05
4.68282e-06
1.84313e-08
2.26744e-07
1.04336e-05
7.51687e-06
6.69588e-06
2.50429e-05
6.41667e-05
0.000117563
0.000133503
0.000127877
0.000121066
0.000119271
0.000121321
0.000124286
0.000126744
0.000128986
0.000131774
0.000135619
0.000140608
0.000146498
0.000152813
0.000158925
0.000164112
0.000167596
0.000168536
0.000165977
0.000158906
0.000146818
0.000131405
0.000117868
0.000112777
0.000121142
0.000144708
0.000170481
5.3953e-05
4.13363e-06
1.08658e-06
3.80059e-06
7.36708e-06
8.10584e-06
4.59772e-05
0.00012773
0.000128867
0.000126301
0.000127958
0.000132553
0.000137861
0.000142775
0.000147042
0.00015069
0.000153813
0.000156534
0.000158973
0.000161272
0.000163575
0.000165959
0.000168366
0.00017057
0.000172185
0.000172684
0.000171448
0.000167839
0.00016125
0.000151349
0.000138785
0.000125586
0.000113836
0.000102117
8.31545e-05
4.61017e-05
3.50278e-06
1.25032e-07
8.98711e-06
8.56553e-06
7.24518e-06
3.09571e-05
7.91508e-05
0.000121159
0.000134858
0.000132684
0.000125384
0.000118722
0.000114604
0.000113007
0.000113334
0.000114966
0.000117412
0.000120331
0.000123514
0.000126865
0.000130372
0.000134076
0.000138018
0.000142186
0.000146463
0.000150593
0.000154195
0.000156811
0.000157895
0.000156962
0.000154288
0.000151065
0.000148074
0.000141849
0.000110574
1.13713e-05
1.13986e-06
5.56767e-06
8.30926e-06
7.83042e-06
3.83906e-05
0.000114979
0.000140343
0.000133562
0.000122815
0.00011572
0.000113822
0.000116542
0.000122744
0.000131074
0.000140032
0.000148199
0.000154554
0.000158644
0.000160511
0.000160508
0.000159138
0.000156942
0.000154435
0.000152043
0.00015006
0.000148621
0.000147693
0.000147068
0.000146242
0.000144264
0.000139979
0.000131753
0.000111936
5.90431e-05
7.84477e-06
1.39015e-06
1.05664e-05
8.94724e-06
7.36393e-06
3.25712e-05
8.91247e-05
0.00012959
0.000138098
0.000133536
0.000124751
0.000116711
0.000111776
0.000110653
0.000113304
0.000119367
0.000128185
0.000138734
0.000149741
0.000159967
0.000168482
0.000174741
0.000178537
0.000179945
0.000179273
0.000177009
0.000173725
0.000169946
0.00016605
0.000162205
0.000158303
0.000154039
0.000149709
0.000147321
0.000128972
2.02561e-05
1.06869e-06
6.2539e-06
8.61683e-06
7.94341e-06
3.6547e-05
0.000105111
0.000140236
0.000140169
0.00012921
0.000116815
0.000106975
0.00010075
9.81188e-05
9.89124e-05
0.000103096
0.000110674
0.000121393
0.000134451
0.0001485
0.000162017
0.000173744
0.000182853
0.00018888
0.000191631
0.000191186
0.000187922
0.00018245
0.000175422
0.000167291
0.000158142
0.000147629
0.000134272
0.000113903
7.6727e-05
1.47168e-05
2.04361e-06
1.06286e-05
8.95239e-06
7.76627e-06
3.36362e-05
9.40664e-05
0.000136016
0.000144802
0.00013941
0.000127986
0.000115883
0.000106177
9.97472e-05
9.63528e-05
9.56729e-05
9.77163e-05
0.000102694
0.000110663
0.000121199
0.000133314
0.00014569
0.000157067
0.000166467
0.000173182
0.000176706
0.000176742
0.000173266
0.000166559
0.000157118
0.000145422
0.000131514
0.000115006
9.83135e-05
8.72043e-05
2.7503e-05
2.5507e-06
6.03969e-06
9.73331e-06
8.23168e-06
3.78154e-05
0.000107319
0.000148333
0.00015367
0.000144315
0.000129391
0.000115504
0.000106013
0.000101229
9.99723e-05
0.00010094
0.000103487
0.000107842
0.00011473
0.000124718
0.000137665
0.000152597
0.000168068
0.000182683
0.000195313
0.000204975
0.000210682
0.000211487
0.000206768
0.000196608
0.000182056
0.000163937
0.000139894
0.000113359
3.95466e-05
9.10639e-06
7.8386e-07
7.33151e-06
1.08381e-05
8.08568e-06
3.53202e-05
9.97597e-05
0.000145489
0.000153757
0.000144784
0.00012806
0.000111778
0.000100866
9.60047e-05
9.58089e-05
9.8523e-05
0.000102793
0.000108148
0.000115178
0.00012516
0.000139247
0.000157599
0.000178906
0.000200747
0.000220579
0.000236489
0.000247247
0.000251841
0.000248855
0.000236067
0.000212295
0.000169476
7.97388e-05
1.75453e-05
5.75812e-06
6.95768e-06
2.00321e-05
0.000120271
1.02675e-05
8.48354e-06
3.75385e-05
0.000107614
0.000156581
0.000159299
0.000140889
0.000116628
9.79487e-05
8.81016e-05
8.55062e-05
8.7782e-05
9.28341e-05
9.88784e-05
0.000104614
0.000109599
0.000114338
0.000119768
0.000126432
0.000133822
0.000140265
0.000143515
0.000141836
0.000134849
0.000123493
0.0001091
9.2708e-05
7.60751e-05
6.10088e-05
4.54972e-05
2.70952e-05
1.25142e-05
9.68907e-06
1.87518e-05
4.00725e-05
6.62417e-06
8.5986e-06
3.64144e-05
0.000104863
0.00015409
0.000151825
0.000126541
9.92943e-05
8.22887e-05
7.56391e-05
7.6034e-05
8.06328e-05
8.73013e-05
9.43593e-05
0.000100487
0.000104815
0.000107083
0.000107624
0.000107048
0.000105782
0.000103832
0.000100858
9.6461e-05
9.06017e-05
8.36568e-05
7.55556e-05
6.72658e-05
6.42442e-05
6.7098e-05
5.72961e-05
4.77293e-05
5.65149e-05
9.62819e-05
5.4745e-05
2.99082e-05
9.21525e-07
8.97288e-06
3.88701e-05
0.000114381
0.000158619
0.000143214
0.000106597
7.93461e-05
6.80632e-05
6.80422e-05
7.52503e-05
8.67366e-05
9.98098e-05
0.000112284
0.00012275
0.000130367
0.000134662
0.00013556
0.00013342
0.000128893
0.000122643
0.000115185
0.000107029
9.90032e-05
9.17609e-05
8.3834e-05
7.74672e-05
8.14522e-05
8.74514e-05
7.7099e-05
5.80845e-05
2.13177e-05
1.66902e-05
1.31087e-05
2.79721e-06
7.90388e-06
9.27875e-06
4.04912e-05
0.000121706
0.000154009
0.000117759
7.60311e-05
5.69554e-05
5.47381e-05
6.35916e-05
8.04069e-05
0.000101172
0.000121472
0.000139282
0.000154523
0.000167099
0.000176267
0.000180999
0.000180472
0.00017435
0.00016308
0.000149576
0.000143675
0.000163328
0.000208254
0.000112887
2.75896e-05
1.68325e-05
2.61223e-05
5.81404e-05
7.182e-05
6.36098e-05
6.05001e-05
5.69795e-05
6.86665e-05
1.27789e-05
1.00511e-05
4.65178e-05
0.000140792
0.000144742
8.87126e-05
5.41075e-05
4.45808e-05
5.01641e-05
6.58985e-05
8.63749e-05
0.000105373
0.000119999
0.000130832
0.000139265
0.000145951
0.000150499
0.000151841
0.000148907
0.00014126
0.000129392
0.00011455
9.83036e-05
8.21585e-05
6.4104e-05
4.12206e-05
2.54951e-05
2.24814e-05
3.28761e-05
6.29895e-05
8.90493e-05
9.35465e-05
9.15769e-05
8.65784e-05
6.40242e-05
7.0831e-06
1.07616e-05
5.3005e-05
0.000146972
0.000122171
6.66533e-05
4.13722e-05
3.77215e-05
4.89497e-05
6.98585e-05
8.98827e-05
0.000103326
0.000111416
0.000116254
0.000118947
0.000119958
0.000119468
0.000117491
0.000113948
0.000108788
0.000102074
9.39926e-05
8.48948e-05
7.58523e-05
6.86462e-05
6.19992e-05
5.0976e-05
3.99025e-05
3.92004e-05
5.07699e-05
6.4339e-05
5.75869e-05
5.06386e-05
7.08551e-05
7.16557e-05
2.5787e-06
1.11557e-05
5.97033e-05
0.000148764
0.000117462
6.649e-05
4.22814e-05
3.84415e-05
5.02232e-05
7.37855e-05
9.76238e-05
0.000114228
0.000124553
0.000131081
0.000135037
0.000136763
0.000136297
0.000133669
0.000129042
0.000122704
0.000115003
0.000106293
9.64304e-05
8.39677e-05
7.4731e-05
8.06076e-05
9.21649e-05
6.36591e-05
3.05836e-05
2.28857e-05
3.32387e-05
5.13378e-05
4.25967e-05
2.52165e-05
1.40295e-05
5.4403e-06
1.09427e-05
5.76691e-05
0.00014056
0.000131018
8.80075e-05
5.42769e-05
4.0251e-05
4.10638e-05
5.53287e-05
8.1487e-05
0.000111701
0.000138807
0.000162304
0.000183309
0.000201863
0.000217031
0.000227387
0.000231604
0.000229049
0.000219749
0.000198728
0.000146796
7.21323e-05
3.10409e-05
2.05864e-05
2.67935e-05
5.16143e-05
8.6422e-05
0.000107661
0.000109553
8.59066e-05
6.06623e-05
5.31049e-05
8.93615e-05
9.8786e-06
1.05434e-05
5.13424e-05
0.000131108
0.000148571
0.000130686
8.71215e-05
5.14044e-05
3.65614e-05
3.60325e-05
4.81785e-05
7.31015e-05
0.000101524
0.000122461
0.000135871
0.000144321
0.000148721
0.000149384
0.000146621
0.000140503
0.000129771
0.000111177
8.34278e-05
5.40028e-05
3.35481e-05
2.56983e-05
2.94951e-05
4.48023e-05
6.59826e-05
8.60958e-05
0.000106014
0.000112193
9.85929e-05
9.06194e-05
8.79168e-05
7.49378e-06
1.02594e-05
4.69445e-05
0.000126513
0.000152563
0.000146441
0.000124926
8.34671e-05
4.82734e-05
3.31115e-05
3.15843e-05
4.17049e-05
6.46915e-05
9.48718e-05
0.000118985
0.000131286
0.000133539
0.000128846
0.000119978
0.000109084
9.7836e-05
8.75916e-05
7.90875e-05
7.12468e-05
6.20234e-05
5.24924e-05
4.78231e-05
4.92864e-05
5.09661e-05
4.71199e-05
4.08589e-05
3.88064e-05
4.72194e-05
7.05186e-05
7.85738e-05
5.67898e-06
1.02121e-05
4.68967e-05
0.000130919
0.000156663
0.000149502
0.000135986
0.000114228
7.51924e-05
4.36668e-05
3.10651e-05
3.16922e-05
4.457e-05
7.16261e-05
0.00010704
0.000135945
0.000150014
0.000149928
0.000139848
0.000124384
0.000106835
9.00261e-05
8.03813e-05
8.28731e-05
8.60031e-05
6.847e-05
4.83851e-05
4.37069e-05
5.0055e-05
5.32413e-05
4.27335e-05
3.08363e-05
2.72853e-05
3.82539e-05
6.58993e-05
5.69028e-06
1.03269e-05
4.954e-05
0.00013806
0.000160099
0.000151793
0.000137733
0.000121837
9.72078e-05
6.1772e-05
3.81083e-05
3.07888e-05
3.68881e-05
5.91123e-05
9.89018e-05
0.000141612
0.000171167
0.000184927
0.000183043
0.000162653
0.000121412
7.34753e-05
4.3093e-05
3.40963e-05
3.96388e-05
5.66299e-05
7.76254e-05
9.13922e-05
9.0489e-05
7.57987e-05
5.82828e-05
4.44868e-05
3.54721e-05
3.88853e-05
7.12505e-05
6.57159e-06
1.0241e-05
5.0359e-05
0.000136392
0.000158635
0.000152637
0.000140538
0.000128357
0.000113592
8.6388e-05
5.30812e-05
3.43779e-05
3.07484e-05
4.14147e-05
7.17835e-05
0.000117575
0.000153548
0.00016905
0.000161604
0.000121253
6.78687e-05
3.73656e-05
2.7995e-05
3.21539e-05
5.64621e-05
0.00013747
0.000248218
0.000250253
0.000192474
0.000123221
7.43068e-05
4.60139e-05
3.15262e-05
3.49613e-05
9.30208e-05
7.25344e-06
1.0073e-05
4.95169e-05
0.000136041
0.000161083
0.000155788
0.000142556
0.000130111
0.000121546
0.000110364
8.26594e-05
4.97452e-05
3.26776e-05
3.02358e-05
4.21223e-05
7.22459e-05
0.000106297
0.000120855
0.000117458
9.88376e-05
6.758e-05
3.99411e-05
2.6997e-05
2.59858e-05
3.5263e-05
6.00365e-05
0.000112463
0.000184454
0.000209562
0.000176687
0.000122386
7.69898e-05
5.33323e-05
5.92539e-05
0.00011215
7.88915e-06
9.89722e-06
4.85404e-05
0.000135744
0.000162821
0.000156942
0.000141782
0.000126623
0.000117384
0.000114821
0.00011042
8.52789e-05
5.06272e-05
3.23871e-05
2.89964e-05
3.90977e-05
6.53361e-05
9.4339e-05
0.000108494
0.000110523
0.000100977
7.62806e-05
4.7579e-05
3.17645e-05
2.87279e-05
3.45451e-05
4.86443e-05
7.46258e-05
0.000117545
0.000156341
0.000142618
9.72796e-05
6.87463e-05
7.09101e-05
9.95944e-05
7.26953e-06
9.89541e-06
4.83565e-05
0.00013743
0.000167708
0.000161707
0.000145108
0.000127496
0.000114203
0.000107541
0.000107139
0.000105902
8.5626e-05
5.23331e-05
3.32482e-05
2.87599e-05
3.68018e-05
5.9248e-05
8.53112e-05
9.78976e-05
0.000100059
9.5815e-05
8.2261e-05
5.97204e-05
4.05316e-05
3.11361e-05
2.91991e-05
3.22374e-05
3.96229e-05
5.2739e-05
7.44284e-05
9.75127e-05
0.000101861
9.88827e-05
6.08633e-05
6.34215e-06
1.00179e-05
4.83023e-05
0.000137613
0.000167747
0.000158565
0.000138688
0.000120465
0.000109262
0.000104659
0.00010458
0.000107107
0.000106381
8.72664e-05
5.47034e-05
3.51675e-05
3.00173e-05
3.60765e-05
5.31307e-05
7.47043e-05
8.79344e-05
9.05725e-05
8.67236e-05
7.94302e-05
7.00811e-05
5.9559e-05
4.97526e-05
4.2146e-05
3.66684e-05
3.30296e-05
3.18952e-05
3.55731e-05
5.02864e-05
7.93343e-05
4.97566e-05
5.6862e-06
1.01571e-05
4.79849e-05
0.000137849
0.000168801
0.000157381
0.000134261
0.00011355
0.00010137
9.70641e-05
9.75894e-05
9.98781e-05
0.000101233
9.69061e-05
7.82454e-05
5.22952e-05
3.71591e-05
3.45804e-05
4.25554e-05
5.98221e-05
7.97562e-05
9.16201e-05
9.206e-05
8.4389e-05
7.22044e-05
5.78343e-05
4.44312e-05
3.54857e-05
3.17445e-05
3.05879e-05
2.84695e-05
2.62537e-05
2.89778e-05
4.74262e-05
6.25464e-05
5.50223e-06
1.03134e-05
4.76216e-05
0.000137915
0.000167684
0.000150677
0.000122726
0.00010174
9.27721e-05
9.30301e-05
9.81856e-05
0.000104194
0.000107397
0.000103944
8.97911e-05
6.61536e-05
4.64504e-05
3.84178e-05
4.18712e-05
5.68136e-05
8.1761e-05
0.000107278
0.000121314
0.000121465
0.000112126
9.62904e-05
7.54861e-05
5.50355e-05
4.07874e-05
3.32053e-05
2.91406e-05
2.67253e-05
2.38971e-05
2.13338e-05
4.76264e-05
6.56555e-06
1.05134e-05
4.81996e-05
0.000140647
0.000165465
0.000141512
0.000108594
8.74642e-05
8.06619e-05
8.36922e-05
9.16896e-05
9.99009e-05
0.000104236
0.000101944
9.15507e-05
7.42109e-05
5.6656e-05
4.66211e-05
4.67522e-05
5.73305e-05
7.68822e-05
9.86433e-05
0.000112935
0.000115127
0.000106011
8.62516e-05
5.98498e-05
4.17662e-05
3.42486e-05
3.41883e-05
3.73513e-05
3.51673e-05
2.36482e-05
1.9583e-05
5.63658e-05
8.63459e-06
1.05896e-05
4.73144e-05
0.00013812
0.000159429
0.000128888
9.33788e-05
7.50044e-05
7.22835e-05
7.945e-05
9.15078e-05
0.000103173
0.000109063
0.000105382
9.21265e-05
7.47708e-05
6.11684e-05
5.59636e-05
6.07033e-05
7.5238e-05
9.55655e-05
0.000113715
0.000123704
0.000123638
0.000111437
8.27125e-05
4.54782e-05
2.74696e-05
2.42258e-05
2.77096e-05
3.77487e-05
4.41765e-05
3.00383e-05
2.77631e-05
8.92308e-05
9.114e-06
1.06967e-05
4.77194e-05
0.000140062
0.000153896
0.000114286
7.75393e-05
6.25689e-05
6.32642e-05
7.30602e-05
8.64733e-05
9.82529e-05
0.000104558
0.000103554
9.52881e-05
8.23104e-05
7.02807e-05
6.52161e-05
7.00877e-05
8.37626e-05
9.97986e-05
0.000110232
0.000112028
0.000105964
9.21816e-05
6.87639e-05
3.91903e-05
2.37437e-05
2.1754e-05
2.50187e-05
3.27848e-05
4.24502e-05
3.9559e-05
4.26757e-05
9.15598e-05
9.10419e-06
1.0697e-05
4.7439e-05
0.000138329
0.000146985
0.000101192
6.57227e-05
5.42928e-05
5.84661e-05
7.21451e-05
8.89443e-05
0.000101323
0.000104804
0.000100214
9.23591e-05
8.67771e-05
8.69287e-05
9.37622e-05
0.000105486
0.000117131
0.00012377
0.000124372
0.000120091
0.000109553
8.6038e-05
4.84288e-05
2.35443e-05
1.67429e-05
1.97888e-05
2.48013e-05
2.78788e-05
3.3712e-05
4.50821e-05
7.40427e-05
9.83641e-05
9.88252e-06
1.07808e-05
4.8196e-05
0.000139065
0.000140057
8.92267e-05
5.60639e-05
4.70726e-05
5.26563e-05
6.73088e-05
8.53642e-05
0.000100207
0.000107755
0.000108326
0.000105733
0.000105586
0.00011351
0.000133196
0.000162686
0.000191991
0.000210507
0.000209831
0.000170837
9.25727e-05
3.7696e-05
1.91422e-05
1.73432e-05
2.56643e-05
4.53526e-05
5.44824e-05
4.52575e-05
4.44109e-05
6.31234e-05
0.000113494
8.53147e-05
9.90873e-06
1.08468e-05
4.78697e-05
0.000136183
0.000134614
8.24566e-05
5.03563e-05
4.20171e-05
4.7871e-05
6.22633e-05
7.80226e-05
8.86917e-05
9.35709e-05
9.66582e-05
0.000102672
0.000114093
0.000129825
0.000145564
0.000155505
0.000154126
0.000138897
0.000112637
8.05949e-05
4.91005e-05
2.7511e-05
1.87595e-05
1.88335e-05
2.59406e-05
4.44841e-05
8.21848e-05
0.00011112
0.000111495
0.000121297
0.00013071
4.83099e-05
8.22435e-06
1.11622e-05
4.88393e-05
0.000136686
0.00013244
8.03139e-05
4.73423e-05
3.72827e-05
4.06921e-05
5.28357e-05
6.83336e-05
8.08817e-05
8.79454e-05
9.12995e-05
9.39368e-05
9.78514e-05
0.000102992
0.000107341
0.000108387
0.000105055
9.79772e-05
8.6992e-05
7.28645e-05
6.03291e-05
5.2986e-05
4.58217e-05
3.39968e-05
2.61969e-05
2.46154e-05
2.79083e-05
3.75112e-05
5.90717e-05
9.48177e-05
0.000104847
3.34731e-05
6.6554e-06
1.13463e-05
4.87769e-05
0.000135427
0.000130475
8.06245e-05
4.71186e-05
3.56024e-05
3.72856e-05
4.72568e-05
6.01838e-05
7.07236e-05
7.76146e-05
8.29921e-05
8.85904e-05
9.38642e-05
9.68701e-05
9.6495e-05
9.33292e-05
8.85836e-05
8.23748e-05
7.46722e-05
7.05895e-05
7.90659e-05
9.90765e-05
9.49533e-05
6.11719e-05
3.56602e-05
2.49569e-05
2.13254e-05
2.12927e-05
2.78517e-05
5.12193e-05
9.26891e-05
3.95993e-05
6.28283e-06
1.13898e-05
4.87624e-05
0.000135895
0.0001332
8.48741e-05
4.90344e-05
3.48308e-05
3.43406e-05
4.32824e-05
5.71152e-05
7.00198e-05
7.99439e-05
8.85814e-05
9.64136e-05
0.000101288
0.000101355
9.70368e-05
8.9803e-05
8.1302e-05
7.81991e-05
8.83357e-05
9.17736e-05
5.99099e-05
3.90771e-05
3.67652e-05
4.27656e-05
4.93703e-05
5.28514e-05
4.9301e-05
4.07871e-05
4.20326e-05
6.66702e-05
7.83643e-05
4.3482e-05
6.42857e-06
1.12494e-05
4.82846e-05
0.000136364
0.000130773
8.29126e-05
4.94822e-05
3.51491e-05
3.34636e-05
4.21298e-05
5.80681e-05
7.50754e-05
9.06557e-05
0.000106947
0.000122822
0.000131906
0.000130675
0.00012195
0.000105424
7.4554e-05
4.23034e-05
2.98674e-05
3.30855e-05
4.87335e-05
7.2374e-05
9.27696e-05
0.000103684
0.00010617
0.000102917
9.47147e-05
8.36951e-05
7.39154e-05
5.19049e-05
2.24124e-05
2.77964e-05
9.20207e-06
1.11264e-05
4.88283e-05
0.000140952
0.00012489
7.55583e-05
4.82105e-05
3.60153e-05
3.34237e-05
4.10342e-05
5.85158e-05
8.00974e-05
0.00010214
0.000127254
0.000154692
0.000175572
0.000171383
0.000115975
5.35568e-05
2.85741e-05
2.48557e-05
3.49608e-05
7.12517e-05
0.000157309
0.000200267
0.000162206
0.000111845
8.29656e-05
7.74466e-05
8.53685e-05
8.62915e-05
6.96582e-05
4.86505e-05
4.5796e-05
0.000104507
1.15481e-05
1.12139e-05
5.09618e-05
0.000146558
0.000104953
5.97444e-05
4.33554e-05
3.72802e-05
3.54274e-05
4.1354e-05
5.71252e-05
7.69051e-05
9.58381e-05
0.000115806
0.000134196
0.000142094
0.000131441
9.14054e-05
4.75459e-05
2.72854e-05
2.33907e-05
3.0823e-05
5.68244e-05
0.000126139
0.000210608
0.000192655
0.000129249
8.36768e-05
6.64504e-05
6.84386e-05
7.70277e-05
7.97919e-05
8.25871e-05
0.000107514
8.84118e-05
1.10615e-05
1.16357e-05
5.73661e-05
0.000146232
7.6276e-05
4.41936e-05
3.83732e-05
3.91654e-05
3.94635e-05
4.44014e-05
5.87209e-05
7.72706e-05
9.24317e-05
0.000105479
0.000117561
0.000123415
0.000118378
0.000101044
6.99168e-05
3.99564e-05
2.56566e-05
2.36834e-05
3.03103e-05
4.53049e-05
7.01442e-05
0.000106155
0.000136802
0.000133177
0.000110395
9.13178e-05
8.36855e-05
8.7763e-05
0.00010397
0.000121653
5.19544e-05
8.81568e-06
1.21144e-05
6.91092e-05
0.000118173
5.01646e-05
3.31277e-05
3.6639e-05
4.53846e-05
4.97435e-05
5.40431e-05
6.39332e-05
7.67932e-05
8.75654e-05
9.75221e-05
0.000109096
0.000119845
0.000123515
0.000117025
0.000101157
7.64823e-05
4.93918e-05
3.1572e-05
2.46354e-05
2.47237e-05
2.9335e-05
3.81231e-05
5.26085e-05
7.57889e-05
0.000108664
0.000136978
0.000141171
0.000131436
0.000126963
0.000116567
4.09925e-05
7.00516e-06
1.21826e-05
8.23583e-05
8.38246e-05
3.6935e-05
2.90234e-05
3.81136e-05
5.00915e-05
5.6672e-05
6.27408e-05
7.14977e-05
8.10935e-05
8.88384e-05
9.58703e-05
0.000104672
0.00011524
0.000123769
0.000125523
0.000119303
0.000106864
8.95439e-05
6.82582e-05
4.7293e-05
3.24361e-05
2.47177e-05
2.24131e-05
2.41506e-05
2.95852e-05
3.96069e-05
5.7388e-05
8.8991e-05
0.000121293
0.000124
0.00010258
3.77111e-05
6.54683e-06
1.18212e-05
8.01619e-05
8.04166e-05
3.98412e-05
3.21137e-05
4.0171e-05
5.1452e-05
5.83785e-05
6.3435e-05
6.93949e-05
7.64196e-05
8.33212e-05
8.9919e-05
9.71618e-05
0.000105579
0.000114073
0.000120132
0.000121526
0.000117904
0.000110384
9.99882e-05
8.67607e-05
7.03871e-05
5.26164e-05
3.73541e-05
2.70594e-05
2.17541e-05
2.06409e-05
2.31867e-05
2.98597e-05
4.61875e-05
8.23264e-05
9.31753e-05
3.94178e-05
7.30901e-06
1.12326e-05
6.32203e-05
0.000115156
6.73275e-05
3.95947e-05
3.18513e-05
3.4389e-05
4.3025e-05
5.48218e-05
6.6072e-05
7.49902e-05
8.22089e-05
8.89825e-05
9.6361e-05
0.000104785
0.000113661
0.000121395
0.00012618
0.000127072
0.000124285
0.000118597
0.000110681
0.000100837
8.89753e-05
7.49523e-05
5.93925e-05
4.42498e-05
3.18801e-05
2.35926e-05
1.93391e-05
1.86231e-05
2.68871e-05
5.57319e-05
5.23472e-05
7.98987e-06
1.08626e-05
5.10438e-05
0.000123298
0.000122122
7.61719e-05
4.20562e-05
2.92427e-05
2.70475e-05
3.21472e-05
4.40163e-05
6.02341e-05
7.61168e-05
8.89886e-05
9.9644e-05
0.000109967
0.000120979
0.000132155
0.000141612
0.000147139
0.000147696
0.000143774
0.000136548
0.000127052
0.000115884
0.000103324
8.95062e-05
7.45503e-05
5.89076e-05
4.38406e-05
3.08186e-05
1.85079e-05
1.24165e-05
2.20088e-05
7.58943e-05
8.93281e-06
1.06834e-05
4.8153e-05
0.000124673
0.00014423
0.000128951
8.37808e-05
4.54564e-05
2.84135e-05
2.32395e-05
2.61827e-05
3.72778e-05
5.58048e-05
7.73748e-05
9.73541e-05
0.000114951
0.000131797
0.000149071
0.000166093
0.000179995
0.000187165
0.000185904
0.000177274
0.000163794
0.000147714
0.000130316
0.000112085
9.30318e-05
7.31633e-05
5.36258e-05
3.68967e-05
2.03955e-05
1.02205e-05
1.80487e-05
8.82697e-05
9.92026e-06
1.06923e-05
5.04311e-05
0.000139044
0.000161341
0.000157383
0.000142277
9.65981e-05
5.01953e-05
2.84453e-05
2.1124e-05
2.27643e-05
3.33392e-05
5.34874e-05
8.00128e-05
0.000107332
0.000133151
0.000158502
0.000184077
0.000207593
0.000223813
0.000228099
0.000219852
0.000201881
0.00017815
0.000151798
0.000124186
9.55413e-05
6.70954e-05
4.35237e-05
2.84749e-05
1.77631e-05
1.24455e-05
2.52435e-05
0.000103939
1.03529e-05
1.07193e-05
5.15835e-05
0.000143711
0.000162203
0.000151849
0.000144072
0.000138674
0.000105965
5.60043e-05
2.98354e-05
2.07646e-05
2.16912e-05
3.21978e-05
5.33034e-05
8.25979e-05
0.000115095
0.000148558
0.000183295
0.0002172
0.000242913
0.000253819
0.000248596
0.000227462
0.000194803
0.000157329
0.000118675
8.13957e-05
5.03455e-05
3.0808e-05
2.17123e-05
1.72994e-05
1.80705e-05
4.1299e-05
8.10034e-05
1.0116e-05
1.08003e-05
5.17075e-05
0.000142046
0.000158502
0.000141312
0.000122805
0.000117434
0.00012248
0.000107616
6.0822e-05
3.13025e-05
2.07814e-05
2.15127e-05
3.3086e-05
5.71602e-05
9.13112e-05
0.000129574
0.000168154
0.000204632
0.000233616
0.000246937
0.000239828
0.00021501
0.000179366
0.000139078
9.866e-05
6.30043e-05
3.72692e-05
2.33922e-05
1.86962e-05
1.91728e-05
2.69451e-05
6.64504e-05
5.98342e-05
9.54056e-06
1.07549e-05
5.00106e-05
0.000138716
0.000162084
0.000146446
0.000120715
0.000103548
0.000102762
0.00011348
0.000107367
6.31879e-05
3.1903e-05
2.08711e-05
2.21895e-05
3.54986e-05
6.24717e-05
9.9876e-05
0.000140274
0.000177306
0.000205072
0.000217255
0.000210887
0.000188808
0.000156866
0.000120473
8.41839e-05
5.29345e-05
3.11757e-05
1.98412e-05
1.68866e-05
2.06854e-05
3.61202e-05
8.84753e-05
4.95959e-05
9.04017e-06
1.0812e-05
5.01177e-05
0.000142724
0.000166011
0.000147545
0.000119015
9.73566e-05
8.95129e-05
9.55117e-05
0.00010932
0.000103985
6.05389e-05
3.06784e-05
2.11535e-05
2.4895e-05
4.24934e-05
7.5304e-05
0.000116901
0.000155752
0.000183215
0.000194597
0.00018902
0.000169618
0.000141435
0.000109123
7.67645e-05
4.87736e-05
2.90078e-05
1.83262e-05
1.54247e-05
2.03909e-05
4.07157e-05
9.59522e-05
4.41617e-05
8.73978e-06
1.07979e-05
4.81603e-05
0.000138271
0.000162604
0.000141926
0.000111896
9.16722e-05
8.43245e-05
8.66778e-05
9.62007e-05
0.000105748
9.18747e-05
5.1799e-05
2.81469e-05
2.25186e-05
3.06826e-05
5.44577e-05
9.31744e-05
0.000135803
0.000168208
0.000182996
0.000179843
0.000162618
0.000136548
0.000106243
7.55943e-05
4.86838e-05
2.9163e-05
1.80923e-05
1.43879e-05
1.85866e-05
3.88431e-05
9.30607e-05
4.09115e-05
8.59113e-06
1.08601e-05
4.67824e-05
0.000133374
0.000154883
0.000129807
9.60716e-05
7.69025e-05
7.37896e-05
8.07372e-05
9.18467e-05
0.000101741
0.000100812
7.4478e-05
4.17812e-05
2.68427e-05
2.77679e-05
4.42201e-05
7.86339e-05
0.000124434
0.000163563
0.000182549
0.000180584
0.000163543
0.00013779
0.000108043
7.78531e-05
5.08909e-05
3.07605e-05
1.88043e-05
1.40364e-05
1.6762e-05
3.44456e-05
8.77304e-05
3.91508e-05
8.53484e-06
1.09187e-05
4.57766e-05
0.000130204
0.000151418
0.00012557
8.93379e-05
6.85776e-05
6.53116e-05
7.39744e-05
8.80915e-05
9.9583e-05
0.000100082
8.32584e-05
5.43815e-05
3.44299e-05
2.9801e-05
4.05771e-05
6.96639e-05
0.000115303
0.000160551
0.000185097
0.000184644
0.000167254
0.000141351
0.000111937
8.19871e-05
5.46131e-05
3.34282e-05
2.02696e-05
1.43532e-05
1.55526e-05
3.0304e-05
8.29546e-05
3.90098e-05
8.54006e-06
1.09898e-05
4.6032e-05
0.00013136
0.000149949
0.000120514
8.22341e-05
6.13656e-05
5.82537e-05
6.76761e-05
8.42285e-05
9.89802e-05
0.000101497
8.69305e-05
6.229e-05
4.24916e-05
3.54262e-05
4.32065e-05
6.90658e-05
0.000113143
0.000160658
0.00018813
0.000188018
0.000169895
0.000144022
0.000115435
8.6325e-05
5.89783e-05
3.68248e-05
2.23357e-05
1.52351e-05
1.50742e-05
2.72251e-05
7.82954e-05
4.06984e-05
8.60767e-06
1.11374e-05
4.75567e-05
0.000134585
0.000149641
0.000117702
7.86733e-05
5.78899e-05
5.47412e-05
6.39913e-05
8.04251e-05
9.54706e-05
9.90045e-05
8.68004e-05
6.60002e-05
4.8849e-05
4.23298e-05
4.94351e-05
7.37301e-05
0.000115418
0.000161115
0.000188236
0.000188198
0.000170272
0.000145136
0.000117781
8.98647e-05
6.29769e-05
4.0206e-05
2.45496e-05
1.63956e-05
1.51606e-05
2.52893e-05
7.2957e-05
4.40796e-05
8.73776e-06
1.1272e-05
4.98011e-05
0.000139318
0.000149209
0.000113682
7.46791e-05
5.45479e-05
5.16153e-05
6.12821e-05
7.86386e-05
9.46238e-05
9.90137e-05
8.84813e-05
7.02741e-05
5.5436e-05
5.03999e-05
5.83568e-05
8.25456e-05
0.0001222
0.000164322
0.000188886
0.000188323
0.000170851
0.000146442
0.000119946
9.2832e-05
6.62497e-05
4.29462e-05
2.63195e-05
1.73911e-05
1.549e-05
2.43374e-05
6.82532e-05
4.83187e-05
8.90832e-06
1.15062e-05
5.39744e-05
0.000148006
0.000149394
0.000109594
7.27654e-05
5.43243e-05
5.14858e-05
6.06674e-05
7.73627e-05
9.26602e-05
9.71449e-05
8.85143e-05
7.35717e-05
6.18406e-05
5.92534e-05
6.91089e-05
9.39738e-05
0.000131764
0.000169887
0.000191321
0.000189984
0.000172804
0.000148618
0.000122124
9.48963e-05
6.80144e-05
4.41232e-05
2.69203e-05
1.77851e-05
1.58299e-05
2.43583e-05
6.67472e-05
5.17686e-05
9.07744e-06
1.16112e-05
5.73784e-05
0.000155063
0.000144275
9.95569e-05
6.79506e-05
5.37599e-05
5.24742e-05
6.21455e-05
7.92507e-05
9.49757e-05
0.000100113
9.27441e-05
7.94444e-05
6.93172e-05
6.83533e-05
7.98672e-05
0.000105713
0.000142733
0.000178623
0.000198088
0.000195835
0.000178069
0.000153016
0.000125371
9.69018e-05
6.88452e-05
4.40275e-05
2.64453e-05
1.75524e-05
1.61185e-05
2.53965e-05
6.96448e-05
5.29741e-05
9.18678e-06
1.18067e-05
6.17122e-05
0.000160801
0.000131836
8.57749e-05
6.25603e-05
5.44521e-05
5.56959e-05
6.57791e-05
8.24016e-05
9.7741e-05
0.000103453
9.76976e-05
8.62249e-05
7.7506e-05
7.77179e-05
9.04319e-05
0.000117206
0.00015426
0.000189288
0.000207613
0.000204214
0.000185074
0.000158336
0.000128845
9.86012e-05
6.9099e-05
4.33837e-05
2.55686e-05
1.70534e-05
1.64746e-05
2.74486e-05
7.65681e-05
5.16735e-05
9.18864e-06
1.18786e-05
6.46394e-05
0.000159273
0.000108639
6.84885e-05
5.56877e-05
5.50441e-05
6.0714e-05
7.29286e-05
9.00102e-05
0.000104857
0.000110263
0.000104997
9.44468e-05
8.65615e-05
8.74841e-05
0.000100875
0.000128006
0.000164589
0.000198283
0.000214948
0.000209995
0.000189432
0.000161301
0.000130509
9.92633e-05
6.91797e-05
4.31688e-05
2.51571e-05
1.66991e-05
1.68561e-05
2.99897e-05
8.47317e-05
4.89397e-05
9.08764e-06
1.21293e-05
7.13175e-05
0.000150013
8.24485e-05
5.45611e-05
5.21617e-05
5.89769e-05
6.90892e-05
8.29015e-05
9.93144e-05
0.000112659
0.00011736
0.000112552
0.000102804
9.53071e-05
9.61028e-05
0.00010889
0.000134701
0.000169077
0.000200197
0.000214942
0.000209154
0.000188427
0.000160346
0.000129783
9.91291e-05
6.98983e-05
4.43455e-05
2.59378e-05
1.68258e-05
1.70248e-05
3.1631e-05
8.97277e-05
4.6316e-05