/*--------------------------------*- C++ -*----------------------------------*\
| =========                 |                                                 |
| \\      /  F ield         | OpenFOAM: The Open Source CFD Toolbox           |
|  \\    /   O peration     | Version:  v2006                                 |
|   \\  /    A nd           | Website:  www.openfoam.com                      |
|    \\/     M anipulation  |                                                 |
\*---------------------------------------------------------------------------*/
FoamFile
{
    version     2.0;
    format      ascii;
    class       volScalarField;
    location    "56";
    object      k;
}
// * * * * * * * * * * * * * * * * * * * * * * * * * * * * * * * * * * * * * //

dimensions      [0 2 -2 0 0 0 0];


internalField   nonuniform List<scalar> 
78750
(
2.03621
0.660696
0.313163
0.0974196
0.012321
0.000777489
0.00165981
0.00152295
0.00146572
0.00152944
0.00159499
0.00160683
0.00166623
0.00165633
0.00168991
0.00170329
0.00171633
0.00172733
0.00173659
0.00174536
0.00175474
0.001766
0.00178064
0.00180032
0.00182676
0.00186103
0.0019024
0.00194757
0.00198504
0.00200544
0.00201892
0.00202984
0.0020074
0.00183243
0.00126512
0.0629338
0.021766
0.00527909
0.000875735
0.000623043
0.00182717
0.00118277
0.00156691
0.0014614
0.00161901
0.00167542
0.0018006
0.00188209
0.0019521
0.00199225
0.00200119
0.00198454
0.0019441
0.00188266
0.00180218
0.00170452
0.00159204
0.00146836
0.00133964
0.00121841
0.00112418
0.00107633
0.00115623
0.00145916
0.00182509
0.00200887
0.00201581
0.00195731
0.00181008
0.00188461
0.00385195
0.00435072
0.00483463
0.0044721
0.00323406
0.00318615
0.00344551
0.00350954
0.00365289
0.00370375
0.00377057
0.00382617
0.0038786
0.00391623
0.00393114
0.0039229
0.00389248
0.0038403
0.0037632
0.0036541
0.00350262
0.00329583
0.00301865
0.0026537
0.00219337
0.00163817
0.000939945
0.000113798
0.000118952
0.000156805
0.000555993
0.00134858
0.00189317
0.0022002
0.00301289
0.000588487
0.0011679
0.0012648
0.000923865
0.00112869
0.00130462
0.00142562
0.00177767
0.00216586
0.00251122
0.00277938
0.0029934
0.00316484
0.00329978
0.00340525
0.00349161
0.00357101
0.00365263
0.00374059
0.00383422
0.00392853
0.00401426
0.00407629
0.00408933
0.00400499
0.00373419
0.00321696
0.00189107
0.00020362
7.87182e-05
6.28858e-05
0.000164334
8.37844e-05
0.000870265
0.00376338
0.00151048
0.00363264
0.00447526
0.00485984
0.00493439
0.00479521
0.00448762
0.00413157
0.00384324
0.00362737
0.00347151
0.00335825
0.00327056
0.00319582
0.00312765
0.00306422
0.0030047
0.00294851
0.00289575
0.00284732
0.00280427
0.00276685
0.00273336
0.00269923
0.00265289
0.0025711
0.00235876
0.00179855
0.000580576
0.00026845
9.82794e-05
6.42862e-05
0.000157875
0.00166505
0.00556986
0.00102232
0.00210178
0.00243302
0.00253187
0.00261635
0.00276079
0.00305751
0.003407
0.0036807
0.00386013
0.00396617
0.00401949
0.00403917
0.00404148
0.00403379
0.00401334
0.0039747
0.00391446
0.00383155
0.00372624
0.00359939
0.00345166
0.0032833
0.00309533
0.00289303
0.0026905
0.00249716
0.00222876
0.00155552
0.000160367
1.42529e-05
0.000169507
0.00028226
0.000867453
0.00538259
0.00224562
0.00320298
0.00338744
0.00341343
0.00336115
0.00325541
0.00311913
0.00301073
0.0029662
0.00298397
0.0030488
0.00314347
0.00325538
0.00337148
0.00348195
0.00358192
0.00366889
0.00374074
0.00379519
0.00382984
0.00384235
0.00383055
0.00379212
0.00372413
0.00362263
0.00348242
0.003297
0.00305707
0.00272425
0.00204853
0.000387243
3.6754e-06
5.93292e-05
0.00176141
0.00661534
0.00204002
0.00272614
0.00306034
0.00322038
0.00332399
0.00341585
0.00349993
0.0035597
0.00358605
0.00358546
0.00356745
0.00354001
0.00350941
0.00348204
0.00346244
0.0034522
0.0034506
0.00345549
0.00346391
0.00347238
0.00347696
0.00347325
0.00345629
0.00342022
0.00335714
0.0032598
0.00312415
0.00295268
0.00275367
0.00252548
0.00211488
0.000481893
0.000316611
0.00101405
0.00643916
0.0027313
0.0034552
0.0035756
0.00358306
0.00356073
0.00353131
0.00350433
0.00348615
0.00347861
0.00347947
0.00348605
0.0034964
0.0035087
0.00352085
0.00353096
0.0035377
0.00354023
0.00353799
0.00353037
0.00351655
0.0034952
0.00346418
0.00342026
0.00335855
0.00327125
0.00314741
0.00297315
0.00273296
0.00241348
0.00201216
0.00150346
0.000552963
3.76792e-05
0.0020399
0.00765729
0.00228578
0.00302067
0.00334964
0.00351333
0.00360685
0.00365429
0.00366514
0.00364957
0.00362002
0.00358844
0.00356289
0.00354662
0.00353937
0.00353908
0.00354313
0.00354897
0.00355435
0.00355743
0.00355665
0.00355065
0.0035379
0.0035165
0.00348381
0.00343605
0.00336733
0.00326718
0.00312186
0.00291309
0.00262495
0.00225744
0.00184633
0.0012601
0.000354815
0.00168474
0.00742064
0.0026754
0.00350418
0.00374159
0.00381038
0.00381847
0.00379399
0.00375342
0.00370935
0.00367001
0.00363957
0.00361931
0.00360869
0.00360592
0.00360838
0.00361306
0.00361697
0.00361741
0.00361213
0.00359942
0.00357817
0.0035475
0.00350663
0.00345457
0.0033897
0.00330916
0.00320799
0.00307687
0.00290198
0.00266728
0.00235175
0.00191228
0.00115277
0.000447359
0.00267093
0.00811559
0.00244116
0.00335929
0.00370499
0.00384623
0.00391726
0.00394882
0.00394726
0.00391641
0.00386368
0.00379963
0.00373495
0.00367784
0.00363294
0.00360151
0.00358239
0.00357307
0.00357047
0.0035714
0.00357279
0.00357185
0.00356586
0.00355209
0.00352776
0.00348998
0.00343547
0.00336021
0.00325844
0.00312073
0.00293298
0.00268528
0.00239182
0.00191829
0.000329274
0.0019222
0.0077564
0.00280058
0.00368446
0.00393973
0.00402557
0.00405029
0.00403461
0.00398623
0.00391352
0.00382616
0.00373377
0.00364465
0.00356512
0.0034993
0.0034489
0.00341334
0.00339034
0.0033767
0.00336899
0.00336394
0.00335867
0.00335042
0.0033365
0.00331414
0.00328035
0.00323187
0.00316514
0.0030763
0.00296105
0.00281545
0.00262676
0.00236123
0.00181201
0.0006055
0.00275397
0.00812166
0.00276075
0.00357462
0.00389336
0.0040405
0.00411607
0.00414298
0.00412717
0.00407354
0.00399046
0.00388962
0.00378295
0.00368
0.00358759
0.00351006
0.00344949
0.00340559
0.00337613
0.00335775
0.00334668
0.00333933
0.00333231
0.00332237
0.0033063
0.00328069
0.0032418
0.00318549
0.00310749
0.00300372
0.00287099
0.00270375
0.00249764
0.00226941
0.000738958
0.00195739
0.00874814
0.00307496
0.00393855
0.00423774
0.00435812
0.00440535
0.00439959
0.0043458
0.00424991
0.00412379
0.00398363
0.00384402
0.00371422
0.00359883
0.00350009
0.00341928
0.00335677
0.00331151
0.00328088
0.00326128
0.00324874
0.00323928
0.00322892
0.00321353
0.00318861
0.00314885
0.00308798
0.0029988
0.00287592
0.00271548
0.00251713
0.00224707
0.00153051
0.00024527
0.00196625
0.0107301
0.00306395
0.00398326
0.00434164
0.0044955
0.00456014
0.00456105
0.00450355
0.00439347
0.00424562
0.00408182
0.00392158
0.00377618
0.00364948
0.00354161
0.00345195
0.00338044
0.00332695
0.00329031
0.00326785
0.00325595
0.00325045
0.00324682
0.00323982
0.00322248
0.00318454
0.00311077
0.00297844
0.0027575
0.00238621
0.00180864
0.0014863
0.00245571
0.00445155
0.00646008
0.0110331
0.00332044
0.00438602
0.00476749
0.00490621
0.00494163
0.00490091
0.00478737
0.00461009
0.00439543
0.00417629
0.00397608
0.00380453
0.00366172
0.00354343
0.00344491
0.00336285
0.00329576
0.0032431
0.00320417
0.00317752
0.00316094
0.00315181
0.00314719
0.00314333
0.00313398
0.00310831
0.00304154
0.0028803
0.00256465
0.00213121
0.00193123
0.00262
0.00447824
0.00625439
0.006528
0.00352159
0.00460061
0.0049852
0.00510621
0.00511031
0.0050228
0.00484619
0.00460236
0.00433689
0.00409076
0.00388372
0.00371822
0.00358863
0.00348712
0.0034064
0.00334073
0.0032863
0.00324098
0.00320379
0.00317426
0.00315187
0.00313582
0.00312521
0.00311841
0.00311376
0.00311049
0.00310995
0.00311367
0.00307144
0.00306858
0.00300779
0.00288095
0.00258762
0.00191907
0.000765272
0.00393484
0.00504948
0.00538444
0.00544359
0.00537537
0.00519031
0.00489546
0.0045513
0.00422917
0.00396412
0.00375933
0.00360466
0.00348821
0.00340014
0.00333292
0.00328082
0.00323956
0.00320603
0.00317806
0.00315413
0.00313292
0.00311306
0.00309314
0.00307481
0.00305545
0.00304448
0.00306141
0.00302986
0.00298882
0.00258889
0.00190745
0.00209011
0.00170681
0.000469918
0.00592811
0.00433157
0.00533169
0.00554665
0.00551033
0.00533433
0.00499804
0.00455695
0.00415599
0.00386185
0.00366146
0.00352309
0.00342269
0.00334667
0.00328778
0.00324149
0.00320419
0.00317262
0.00314377
0.00311463
0.00308171
0.00304003
0.00298293
0.00291078
0.00284487
0.00278641
0.00278952
0.00340267
0.00484353
0.00581121
0.00584015
0.00549931
0.00533955
0.00538797
0.00632927
0.0117932
0.00496208
0.00568029
0.00572708
0.00558126
0.00526618
0.00474007
0.00418954
0.00381789
0.00360587
0.00347861
0.00339168
0.00332559
0.0032726
0.00322986
0.00319606
0.0031698
0.00314898
0.00313078
0.00311179
0.00308792
0.0030539
0.00300301
0.00293182
0.00286186
0.00288511
0.00320295
0.00404128
0.00524252
0.00602502
0.0063168
0.00655512
0.00681854
0.00703643
0.00724909
0.00662199
0.00558187
0.0058582
0.0057552
0.00551159
0.00505553
0.00436445
0.00376557
0.00346613
0.00334367
0.00328241
0.00324071
0.00320671
0.00317744
0.00315259
0.00313244
0.00311719
0.00310676
0.00310066
0.00309801
0.00309781
0.00309907
0.00309993
0.00309825
0.00309287
0.00308174
0.00307209
0.00312936
0.00334209
0.00356485
0.0036091
0.00351908
0.00349721
0.00385479
0.00383659
0.00232944
0.00591424
0.00587318
0.00572254
0.00546719
0.00500461
0.0043136
0.00368854
0.00337155
0.00325782
0.00321778
0.00319834
0.00318272
0.00316667
0.00315009
0.00313395
0.00311915
0.00310603
0.00309436
0.00308327
0.00307156
0.00305776
0.00304056
0.00301905
0.00299909
0.00299594
0.00297017
0.00279152
0.00241365
0.00234584
0.00262978
0.00278175
0.00255606
0.00201156
0.00108417
0.00454809
0.00570302
0.00576702
0.00571215
0.00555868
0.00525558
0.00472846
0.00404401
0.00348996
0.00319576
0.00307758
0.00303756
0.00302475
0.00301964
0.00301575
0.0030112
0.00300544
0.00299774
0.00298668
0.00296985
0.00294432
0.00290712
0.00285434
0.00278018
0.00272169
0.00294724
0.00371539
0.00447587
0.0047608
0.00480881
0.00477584
0.00460334
0.0042336
0.00392119
0.0043941
0.00813296
0.00521972
0.00559673
0.00570058
0.00571424
0.00565162
0.00543242
0.00490955
0.0041467
0.00349399
0.00313219
0.00298636
0.00293756
0.0029231
0.00291912
0.0029177
0.00291697
0.00291722
0.00291913
0.00292238
0.0029243
0.00291888
0.00290052
0.00288018
0.00292287
0.00318272
0.00378058
0.00445819
0.00494116
0.00530298
0.00556823
0.0056946
0.00564343
0.00551059
0.00564217
0.00659529
0.00499552
0.00548326
0.00564187
0.00570143
0.00570793
0.00564727
0.00544381
0.00491816
0.00411024
0.00340991
0.00302525
0.00287199
0.00282206
0.0028077
0.00280458
0.00280434
0.00280497
0.00280697
0.00281145
0.00282035
0.00283552
0.0028573
0.00288286
0.00290884
0.00293832
0.00298927
0.00306408
0.00313291
0.00320127
0.00331537
0.0035766
0.00409608
0.00470774
0.00502482
0.00509747
0.00502961
0.00536368
0.00548497
0.00553181
0.00553611
0.0054926
0.0053825
0.00512891
0.00454825
0.00374045
0.00311667
0.00280334
0.00268238
0.00264061
0.00262554
0.0026189
0.00261502
0.00261301
0.00261399
0.00262073
0.00263795
0.00267269
0.00271432
0.00271452
0.00266278
0.00264636
0.0027549
0.00288582
0.00292816
0.00285906
0.00271361
0.00268013
0.00301042
0.00359378
0.00516132
0.00522635
0.00538391
0.00547616
0.00551642
0.00551695
0.00546675
0.00535055
0.00514195
0.00475246
0.00405634
0.0032941
0.00281119
0.00259993
0.00251774
0.00247848
0.00245115
0.00242732
0.00240669
0.00239276
0.00239273
0.00242537
0.00254662
0.00285761
0.00325318
0.00345587
0.00348473
0.00346839
0.00344766
0.00340691
0.00331843
0.00314513
0.00287994
0.00274309
0.00332368
0.00594796
0.00515874
0.00534061
0.00546866
0.0055353
0.00556137
0.00553961
0.00545776
0.00529905
0.00502112
0.00450704
0.0037098
0.00297803
0.00257741
0.00242202
0.00236056
0.00232059
0.00228088
0.00224002
0.00220689
0.00221212
0.00235471
0.00281244
0.00361444
0.00434922
0.00453521
0.0044388
0.00430664
0.00415725
0.00397973
0.00375755
0.00347172
0.00312704
0.00302352
0.00376043
0.00630369
0.0050157
0.00524673
0.00540721
0.00550321
0.00556267
0.00558192
0.00555114
0.00546098
0.00529631
0.00499992
0.0044224
0.00356966
0.00284056
0.00246901
0.00233951
0.00229076
0.00224915
0.00219215
0.00212145
0.00206164
0.0020864
0.00235973
0.00304241
0.00400954
0.00483207
0.0052802
0.00541724
0.00537536
0.00523528
0.00500966
0.00468972
0.00432682
0.00424958
0.00483383
0.00668569
0.00482732
0.00514571
0.00531833
0.00541418
0.00547334
0.00549814
0.00548297
0.00542289
0.00531802
0.00516187
0.00489283
0.00433436
0.00347857
0.00273211
0.00235503
0.002247
0.00223721
0.0022403
0.00222438
0.00218004
0.00211771
0.0020863
0.00221357
0.00265043
0.00336832
0.00417823
0.00491397
0.00543565
0.00567892
0.00567939
0.0054838
0.00516624
0.00497484
0.00520633
0.00632512
0.00476828
0.00514015
0.0053122
0.00540788
0.0054701
0.00550309
0.00550183
0.00545876
0.00536914
0.0052375
0.0050666
0.0048057
0.00428083
0.00345204
0.00269276
0.00227895
0.00214151
0.00212148
0.00213428
0.00214663
0.00214264
0.00211754
0.00208504
0.00209696
0.00224419
0.00259348
0.00313954
0.00381818
0.00453655
0.00517972
0.00559683
0.00569926
0.00558597
0.00549425
0.00586815
0.00480684
0.00519611
0.00534695
0.00542307
0.00546546
0.00547901
0.00546271
0.00541624
0.00533928
0.00523019
0.00509058
0.00492127
0.00468009
0.00420977
0.00344441
0.00271621
0.00228154
0.00209474
0.0020317
0.00201681
0.00202028
0.00203325
0.00205651
0.00209749
0.00217026
0.00229156
0.0024705
0.00270349
0.00298731
0.00334729
0.00382715
0.00441402
0.00490523
0.00514244
0.00532386
0.00490445
0.00524494
0.00537249
0.00543966
0.00547869
0.00549222
0.00547713
0.00543084
0.00535261
0.00524222
0.00509856
0.00492112
0.00470775
0.00442476
0.00395584
0.00329184
0.00270498
0.00234694
0.00216495
0.00207084
0.00201041
0.00195842
0.00190403
0.00184316
0.00177553
0.00170951
0.00168132
0.00174831
0.00192173
0.00213993
0.00237592
0.00271423
0.00328959
0.00393828
0.00497276
0.00505155
0.00531522
0.00539914
0.00543405
0.00544209
0.00542505
0.00538509
0.0053289
0.0052601
0.00517488
0.00506595
0.00492498
0.00474075
0.00449181
0.00412729
0.00358865
0.00300423
0.00258631
0.00236402
0.00226135
0.00221149
0.00218045
0.00215385
0.00212548
0.00209195
0.00204941
0.00199086
0.00191792
0.00186966
0.00188729
0.00198226
0.00212573
0.00216532
0.00272795
0.00577865
0.00531755
0.00547911
0.00551179
0.00551179
0.00548668
0.00543227
0.005352
0.00525986
0.00516336
0.0050581
0.00493469
0.0047834
0.00459365
0.00434962
0.00402289
0.00357652
0.00305046
0.00260066
0.00231043
0.00215014
0.0020615
0.00200536
0.00196128
0.00191951
0.00187458
0.00182382
0.00184625
0.00201424
0.00228599
0.00252013
0.00258806
0.00246559
0.0024084
0.00348515
0.00774517
0.0054921
0.00555538
0.0055463
0.00551405
0.00545386
0.00535836
0.00524292
0.00513773
0.00504842
0.00496081
0.00485864
0.00472752
0.00455213
0.00431326
0.00399085
0.00358545
0.00315213
0.00278406
0.0025234
0.00235062
0.00222919
0.00213245
0.00204465
0.0019553
0.00185199
0.00170825
0.00169036
0.00202996
0.00261272
0.0032428
0.00351133
0.00326582
0.0032145
0.0045458
0.00854495
0.00576359
0.00572061
0.00565989
0.00558171
0.00546722
0.00530204
0.00512117
0.00497654
0.00486727
0.00476714
0.00465486
0.00451613
0.00433861
0.00410903
0.00381511
0.00346024
0.00309184
0.00278541
0.00256936
0.00242223
0.00231289
0.00221974
0.00212972
0.00203328
0.00191767
0.0017449
0.0016548
0.00197416
0.00262214
0.00349659
0.00424515
0.00435859
0.00434274
0.00538153
0.00900891
0.00593433
0.00582426
0.00572158
0.00560234
0.00543517
0.00520055
0.00496541
0.00480333
0.00469843
0.00460801
0.00450247
0.00436363
0.00417831
0.0039397
0.00365665
0.00335892
0.00308445
0.00285866
0.00268113
0.00253693
0.00241006
0.0022889
0.00216424
0.00202116
0.00182528
0.00158571
0.00159148
0.00203222
0.0026436
0.00336031
0.00428319
0.00511187
0.00585516
0.00711924
0.0108079
0.00615155
0.00596358
0.00580933
0.00564369
0.00541658
0.00510233
0.00480438
0.0046129
0.0044923
0.00438989
0.00427572
0.00413403
0.00395646
0.00374289
0.00350584
0.00327053
0.0030621
0.00288847
0.00273945
0.00259977
0.00245646
0.00229649
0.00210186
0.00189464
0.00190056
0.00244974
0.00340604
0.00412894
0.00425838
0.00422605
0.00455631
0.00533622
0.00631307
0.00767327
0.0108638
0.0062072
0.00601143
0.00583488
0.00564627
0.00538138
0.00500582
0.00465456
0.00445167
0.00434185
0.00424947
0.0041384
0.00399497
0.0038201
0.00362949
0.0034457
0.00328217
0.00313812
0.00300601
0.00287631
0.00273691
0.00257328
0.00237513
0.00216245
0.00205535
0.00233934
0.0032648
0.00466239
0.00595127
0.00658553
0.00661605
0.00645247
0.00642284
0.00660102
0.00703938
0.00823403
0.00643382
0.00615072
0.00593384
0.00572411
0.00543257
0.00499961
0.00455576
0.00428139
0.00414399
0.00405528
0.00396777
0.00386389
0.00374179
0.00360973
0.00348175
0.00336816
0.00327189
0.00319073
0.00312007
0.00305356
0.00298154
0.0028919
0.00277665
0.00265436
0.00258174
0.00267165
0.00305359
0.00377742
0.00475987
0.00582061
0.0067112
0.00723266
0.00742885
0.00736077
0.00653402
0.00659022
0.00616971
0.00594758
0.00574609
0.00545921
0.00501164
0.00451078
0.00417819
0.00400495
0.00389328
0.00378966
0.00367691
0.00355698
0.00344166
0.00334231
0.00326182
0.00319897
0.00315177
0.00311896
0.00309915
0.00308933
0.0030931
0.00310393
0.00306176
0.00292036
0.00268736
0.00247758
0.00246736
0.00272568
0.00328035
0.00419776
0.00531796
0.00642622
0.00741676
0.0059519
0.00671999
0.00623335
0.00602978
0.00584206
0.00556119
0.00509599
0.00450915
0.00407166
0.00384068
0.0037001
0.00357451
0.00344238
0.00330966
0.00319005
0.00309073
0.00301137
0.00294898
0.00290194
0.00287107
0.00286439
0.00287969
0.00284835
0.00272424
0.00269927
0.00289474
0.00312463
0.00327343
0.00335245
0.00337545
0.00337753
0.0035156
0.00384646
0.00383782
0.00321157
0.00591365
0.0068028
0.00627623
0.00608104
0.00589138
0.00560373
0.00513725
0.00452011
0.00399529
0.00370547
0.00353521
0.00338261
0.00321742
0.00304977
0.0028994
0.00277368
0.00267024
0.00258698
0.00252528
0.00249006
0.00250553
0.0027308
0.00324815
0.00373476
0.00397711
0.00410207
0.00420813
0.00432152
0.0044314
0.00449217
0.00444696
0.00424739
0.00376941
0.00250427
0.00220733
0.00981522
0.00687395
0.00634015
0.00611536
0.00588992
0.00556775
0.00510866
0.00452185
0.00395281
0.00360186
0.0034058
0.00324414
0.00307124
0.00289006
0.00271843
0.00256603
0.00243464
0.00232217
0.00225707
0.0024059
0.00303546
0.00406331
0.00491652
0.00515219
0.00513058
0.00503475
0.00491086
0.00485262
0.00501267
0.00532126
0.00547066
0.00531016
0.00491081
0.00487056
0.00662561
0.0135283
0.00710827
0.00647042
0.00612934
0.00580033
0.00538668
0.00494482
0.00446383
0.00394922
0.00357348
0.00335464
0.00318447
0.00301232
0.00283561
0.00266499
0.00250229
0.00234562
0.00220403
0.00212745
0.00227569
0.00290156
0.00405024
0.00529329
0.00602956
0.00622176
0.00612708
0.00586445
0.00556709
0.005509
0.00580984
0.00618748
0.00642993
0.0066809
0.00735375
0.00897608
0.0128238
0.00760563
0.00659939
0.00604236
0.00554212
0.0050127
0.00464393
0.00431628
0.00392971
0.00358734
0.00336857
0.00320715
0.00305355
0.00289886
0.00274988
0.00260781
0.00246282
0.00230735
0.00215396
0.00206343
0.00219637
0.00276072
0.00375461
0.00489972
0.00594971
0.00674345
0.00713783
0.00714446
0.00694849
0.00679439
0.00681035
0.00697785
0.00726261
0.0076883
0.00835189
0.0091532
0.00819011
0.00660706
0.00578087
0.00506756
0.00448154
0.00427889
0.00415256
0.00395708
0.00373246
0.00354431
0.00338743
0.00323674
0.00308744
0.00294668
0.00281927
0.00269905
0.00257303
0.00243042
0.00227157
0.00212509
0.00207802
0.00226964
0.0027927
0.00363755
0.00472855
0.00592886
0.00704263
0.00784734
0.00820133
0.00816352
0.00794599
0.00774383
0.00758104
0.00737365
0.00673972
0.00823649
0.00632979
0.0053621
0.0045247
0.0040029
0.00393128
0.00389988
0.00381712
0.00370752
0.00359802
0.00349379
0.00338784
0.00327909
0.00317269
0.00307442
0.00298436
0.00289542
0.00279765
0.00268154
0.00254061
0.00237739
0.00221665
0.00211806
0.00217323
0.00248077
0.00311035
0.00407066
0.00529212
0.00661021
0.00773925
0.00831076
0.00825922
0.00790858
0.00730597
0.00631264
0.00758824
0.00590372
0.00510121
0.00437556
0.00389134
0.00380069
0.00381324
0.00381323
0.00377703
0.00371341
0.00363811
0.00355787
0.00347544
0.0033936
0.00331637
0.00324645
0.0031823
0.00311906
0.00305043
0.00296933
0.00286863
0.00274197
0.00258719
0.00241226
0.00224441
0.00214189
0.0021988
0.00253098
0.00323979
0.00435538
0.005747
0.00692552
0.0072403
0.00706876
0.0070502
0.00658201
0.00570128
0.00531355
0.00485563
0.00422496
0.00370907
0.00347505
0.0034513
0.00351301
0.00357138
0.00359542
0.00358731
0.00355827
0.00351773
0.00347267
0.00342831
0.00338697
0.00334828
0.00330968
0.00326749
0.00321761
0.00315547
0.00307586
0.00297299
0.0028412
0.00267576
0.00248165
0.00229459
0.00220041
0.00233934
0.00288641
0.00410325
0.00541774
0.00625122
0.00829807
0.00597429
0.0059502
0.00590278
0.00574054
0.00533596
0.00460323
0.0038308
0.00332492
0.0031556
0.00319929
0.00330415
0.00339235
0.00344641
0.00347148
0.00347617
0.00346918
0.00345678
0.00344234
0.00342673
0.00340902
0.00338754
0.00336045
0.00332574
0.00328103
0.00322302
0.00314674
0.00304304
0.00290061
0.00271797
0.00252278
0.00236872
0.00247032
0.00400816
0.00585136
0.00999206
0.00572199
0.0059475
0.00601968
0.00601872
0.00591968
0.00557199
0.00481128
0.00385483
0.00312874
0.00284165
0.00287732
0.00302445
0.00316458
0.00326768
0.00333515
0.0033765
0.00340094
0.00341496
0.00342214
0.00342394
0.00342061
0.00341203
0.003398
0.00337834
0.00335271
0.00332018
0.00327842
0.00322026
0.0031328
0.00300362
0.00275493
0.00238225
0.00403132
0.00662792
0.011963
0.00579422
0.00581051
0.00589019
0.00596354
0.00601345
0.005982
0.00570916
0.00495598
0.00386547
0.00296753
0.00258662
0.00261264
0.00278593
0.00295902
0.00309196
0.0031856
0.00324938
0.00329207
0.0033199
0.00333676
0.0033449
0.00334574
0.00334044
0.00332998
0.00331494
0.00329742
0.00327987
0.00326579
0.0032619
0.00327683
0.00317942
0.00312978
0.00508946
0.00793839
0.0131678
0.00590742
0.00574562
0.00576341
0.00580451
0.00585561
0.0059007
0.00589389
0.00569256
0.00500473
0.00386882
0.00287005
0.0024311
0.00245195
0.00263712
0.00282219
0.00296409
0.00306461
0.0031332
0.00317819
0.00320573
0.00321999
0.00322376
0.00321844
0.00320552
0.00318891
0.00317246
0.00316308
0.00317918
0.00326543
0.00348755
0.0037399
0.00424266
0.00616338
0.0087065
0.0130485
0.00609376
0.00588493
0.00588766
0.00590275
0.00591269
0.00591542
0.00590774
0.00586458
0.00567403
0.00503439
0.00387267
0.00278815
0.00230426
0.00232492
0.00251754
0.0027053
0.00284746
0.00294691
0.00301299
0.00305386
0.00307553
0.00308213
0.00307639
0.0030608
0.00303871
0.00301687
0.00301143
0.00305809
0.00324415
0.00371152
0.00438951
0.00528091
0.00684145
0.00880787
0.0121521
0.00609875
0.00591275
0.00593962
0.00597177
0.00598993
0.005986
0.00595705
0.00590603
0.00582482
0.00562546
0.00501519
0.0038378
0.00271052
0.00223016
0.00226399
0.00245366
0.00263057
0.0027615
0.0028507
0.00290715
0.00293823
0.0029492
0.00294382
0.00292564
0.00289949
0.00287391
0.00286732
0.00292523
0.00316277
0.00379174
0.00482175
0.00594531
0.00713464
0.00858321
0.0113971
0.00621842
0.00591991
0.00590596
0.00592465
0.0059444
0.00595164
0.00593079
0.00587038
0.00577568
0.00565029
0.00542411
0.00481216
0.00363213
0.00256798
0.00218958
0.00226429
0.0024451
0.00260161
0.00271416
0.00278848
0.00283197
0.00285025
0.00284751
0.00282779
0.00279675
0.00276468
0.00275323
0.00280871
0.0030414
0.00369335
0.00491798
0.00620828
0.00719684
0.00835304
0.0110414
0.00630481
0.00592764
0.00587595
0.00587029
0.00587471
0.00588295
0.00588827
0.00586693
0.00579029
0.0056571
0.0054734
0.00517422
0.00447726
0.00330459
0.00243076
0.00221466
0.00232373
0.00248346
0.00261222
0.00270191
0.00275802
0.00278576
0.00278894
0.00277118
0.00273782
0.0026991
0.00267697
0.00271532
0.00291363
0.00349509
0.00472273
0.00615237
0.00710743
0.00818045
0.0109379
0.00646964
0.00603424
0.00594289
0.00589945
0.00585658
0.0058068
0.00576579
0.00574363
0.00570367
0.00560526
0.00543708
0.00519033
0.00477985
0.00395264
0.00291646
0.00237489
0.00232878
0.00244962
0.00257492
0.00266895
0.00273133
0.00276574
0.00277473
0.0027606
0.0027274
0.0026841
0.00265032
0.00266717
0.00282384
0.0033102
0.00441939
0.00591331
0.0069263
0.00804688
0.0109159
0.0066266
0.00614606
0.00605368
0.00600725
0.00594751
0.00585535
0.00575109
0.00568402
0.00564042
0.00556513
0.00542156
0.00519028
0.00483516
0.0042476
0.00335838
0.00265852
0.00244734
0.0024983
0.00260174
0.00268899
0.00275001
0.00278619
0.00279877
0.0027885
0.00275762
0.00271282
0.00266971
0.00266492
0.00278063
0.00318148
0.00413728
0.00560707
0.0067031
0.00792125
0.0108919
0.00675578
0.00626606
0.00617416
0.00611974
0.00603583
0.00589176
0.00571071
0.00558103
0.00551231
0.00544356
0.00532561
0.00512711
0.00481112
0.0043202
0.00361943
0.00295496
0.00265601
0.00263529
0.00270187
0.00277003
0.00282041
0.0028511
0.00286189
0.00285222
0.00282268
0.00277751
0.00272755
0.00270253
0.00277683
0.00310299
0.00392246
0.00531102
0.00648834
0.00781058
0.0108778
0.00693247
0.00641766
0.00632458
0.00626594
0.0061644
0.00597644
0.00572582
0.00553817
0.00543946
0.00535797
0.00523855
0.00504932
0.00475649
0.00431957
0.00374246
0.00318756
0.00288481
0.00281916
0.00285018
0.00289566
0.00293144
0.00295256
0.0029575
0.00294494
0.00291444
0.00286831
0.0028132
0.00277111
0.00280619
0.00306481
0.00377699
0.00507213
0.00632134
0.00774154
0.0109283
0.00704289
0.00651698
0.00642152
0.00635864
0.00624164
0.00601287
0.00569186
0.00544219
0.00532019
0.0052401
0.0051323
0.00496196
0.00469995
0.0043188
0.00383663
0.00338237
0.00311135
0.00302532
0.00302854
0.00305254
0.00307296
0.00308285
0.00307955
0.00306123
0.00302683
0.00297732
0.00291637
0.00285934
0.00285986
0.00306027
0.00369615
0.00492413
0.00623845
0.00774994
0.0110814
0.00723092
0.00662428
0.0064975
0.00642282
0.00630134
0.00606731
0.00572459
0.00542995
0.0052691
0.00516725
0.00505052
0.00488181
0.00463608
0.00429809
0.00389594
0.00353255
0.00330801
0.0032213
0.00320843
0.0032167
0.00322442
0.00322396
0.00321201
0.0031864
0.0031457
0.00308997
0.00302124
0.00295043
0.00292429
0.00308691
0.00369039
0.004897
0.00626636
0.00785415
0.0113148
0.0072695
0.00660043
0.0064303
0.00632854
0.00619449
0.00597181
0.00565941
0.00537698
0.005213
0.00511177
0.005003
0.00484976
0.0046298
0.00433316
0.00398831
0.00368086
0.00348552
0.00340049
0.00337776
0.00337579
0.00337488
0.00336716
0.00334885
0.00331744
0.00327108
0.00320898
0.00313214
0.00304883
0.0030034
0.0031504
0.00376693
0.00499869
0.00639968
0.00802764
0.0115213
0.00744072
0.00666965
0.00641818
0.00625844
0.00608961
0.00588218
0.00562734
0.00538388
0.00521874
0.00510543
0.00499103
0.00484284
0.0046414
0.00437976
0.0040824
0.00381707
0.00364244
0.00355939
0.00353062
0.00352208
0.00351573
0.00350363
0.00348174
0.00344732
0.00339817
0.00333279
0.00325116
0.00315936
0.00310121
0.00324882
0.0039174
0.00519838
0.0065871
0.00819063
0.0115665
0.00749914
0.00660635
0.00625844
0.00602097
0.00580755
0.00563706
0.00547609
0.00532311
0.00520499
0.00510817
0.00500134
0.00486237
0.00467717
0.00444219
0.0041793
0.00394312
0.00378199
0.00369957
0.00366633
0.00365325
0.00364362
0.00362952
0.00360681
0.00357268
0.00352478
0.00346125
0.00338112
0.00328823
0.00322335
0.00336934
0.004094
0.00542902
0.00675884
0.00827325
0.0114191
0.00781796
0.0066801
0.00617224
0.00581403
0.00555889
0.00545548
0.00538666
0.00530702
0.00522745
0.00514531
0.00504576
0.00491556
0.00474508
0.00453231
0.00429485
0.00407619
0.00391871
0.00383085
0.00379026
0.00377154
0.00375862
0.00374341
0.00372173
0.00369092
0.00364891
0.00359397
0.00352442
0.00344088
0.00337433
0.00349406
0.00422141
0.00559702
0.00685635
0.00826427
0.0111782
0.00796498
0.00651329
0.00582017
0.00532785
0.00510126
0.0051353
0.00519359
0.00520986
0.00518851
0.00513582
0.00505211
0.00493444
0.00477976
0.00459021
0.004382
0.00418832
0.00404197
0.00395269
0.00390566
0.00388083
0.00386396
0.00384734
0.00382701
0.0038008
0.00376751
0.00372665
0.00367704
0.00361699
0.00356312
0.00364466
0.00428498
0.00565615
0.00686912
0.00820727
0.0109967
0.00807015
0.00635718
0.00550416
0.00490594
0.0047701
0.00491801
0.00504642
0.00511501
0.00513403
0.00511087
0.00504929
0.00495053
0.00481528
0.00464801
0.00446346
0.00428834
0.00414914
0.00405666
0.00400221
0.00397056
0.00394923
0.00393089
0.00391184
0.00389059
0.00386713
0.00384311
0.00381939
0.00379409
0.00377082
0.00382973
0.00433371
0.00562337
0.00682566
0.00815725
0.0109636
0.00765614
0.00589265
0.00503566
0.00442384
0.004318
0.00450863
0.0047002
0.00484043
0.00492455
0.00495523
0.00493744
0.00487588
0.00477509
0.00464214
0.00449093
0.00434266
0.00421803
0.00412795
0.00406923
0.00403186
0.00400592
0.00398487
0.00396558
0.00394743
0.00393219
0.00392504
0.0039318
0.00395407
0.003986
0.00406187
0.00446001
0.00560745
0.00680669
0.00817147
0.0110692
0.00714014
0.00567682
0.00502614
0.00448749
0.0041332
0.00408918
0.00420965
0.00438233
0.00453968
0.00464886
0.00470278
0.00470338
0.00465647
0.00457071
0.00445952
0.00434121
0.00423386
0.00414957
0.00408976
0.004049
0.00401973
0.00399623
0.00397584
0.00395873
0.00394851
0.00395474
0.00399117
0.00406855
0.00417778
0.00432017
0.00469491
0.00571916
0.00688238
0.00825742
0.0112114
0.00654195
0.0057074
0.005359
0.00497643
0.00442034
0.00392521
0.0036861
0.00371125
0.00389447
0.00410655
0.00427376
0.00437536
0.00441307
0.00439731
0.00434293
0.00426654
0.00418561
0.00411434
0.00405878
0.00401801
0.00398709
0.00396143
0.00393899
0.00392084
0.00391275
0.0039302
0.00399852
0.00414302
0.00435265
0.00460143
0.00503019
0.00598205
0.00705986
0.00837892
0.0113064
0.00628195
0.00608326
0.00598013
0.0057926
0.0054017
0.00470691
0.00391026
0.00334608
0.0032063
0.00338461
0.00365176
0.00387743
0.00402899
0.00410997
0.00413364
0.00411548
0.00407328
0.004025
0.00398122
0.00394558
0.00391606
0.00388963
0.00386496
0.0038438
0.00383388
0.0038568
0.00395352
0.0041722
0.00450175
0.00488765
0.00542069
0.00633399
0.0072905
0.00849449
0.0113214
0.00621404
0.00618509
0.00619312
0.00616611
0.006062
0.00573217
0.00496715
0.00389011
0.00303739
0.00279588
0.00299499
0.00330201
0.00355947
0.0037382
0.00384664
0.0038979