/*--------------------------------*- C++ -*----------------------------------*\
| =========                 |                                                 |
| \\      /  F ield         | OpenFOAM: The Open Source CFD Toolbox           |
|  \\    /   O peration     | Version:  v2006                                 |
|   \\  /    A nd           | Website:  www.openfoam.com                      |
|    \\/     M anipulation  |                                                 |
\*---------------------------------------------------------------------------*/
FoamFile
{
    version     2.0;
    format      ascii;
    class       volScalarField;
    location    "56";
    object      nut;
}
// * * * * * * * * * * * * * * * * * * * * * * * * * * * * * * * * * * * * * //

dimensions      [0 2 -1 0 0 0 0];


internalField   nonuniform List<scalar> 
78750
(
0.000855119
0.0018696
0.00128646
0.000390356
6.57445e-05
6.44647e-06
1.49932e-05
1.54681e-05
1.66328e-05
1.98169e-05
2.31944e-05
2.62593e-05
2.95785e-05
3.23742e-05
3.51978e-05
3.8314e-05
4.092e-05
4.36258e-05
4.62465e-05
4.88718e-05
5.15499e-05
5.42588e-05
5.68369e-05
5.90894e-05
6.07487e-05
6.13417e-05
6.01323e-05
5.62094e-05
4.89875e-05
4.26422e-05
4.0215e-05
3.9827e-05
3.77587e-05
2.16401e-05
2.31387e-06
9.71934e-05
0.00014623
4.79728e-05
9.01785e-06
3.71075e-06
1.18273e-05
8.50062e-06
1.34799e-05
1.5969e-05
2.03373e-05
2.63749e-05
3.24742e-05
3.93766e-05
4.51618e-05
5.02449e-05
5.34108e-05
5.50863e-05
5.51651e-05
5.37751e-05
5.10358e-05
4.70954e-05
4.21518e-05
3.64867e-05
3.04873e-05
2.47147e-05
1.97298e-05
1.57056e-05
1.3518e-05
1.57956e-05
2.59215e-05
4.65951e-05
5.43406e-05
3.53499e-05
1.46707e-05
2.33842e-06
8.94794e-06
2.76699e-05
2.91991e-05
2.2161e-05
2.75464e-05
0.00010775
6.04882e-05
4.69828e-05
5.03978e-05
5.71675e-05
6.30389e-05
6.97251e-05
7.58631e-05
8.10018e-05
8.41785e-05
8.5451e-05
8.50088e-05
8.31103e-05
7.98843e-05
7.5408e-05
6.97773e-05
6.31441e-05
5.56835e-05
4.7472e-05
3.84832e-05
2.81974e-05
1.52263e-05
1.36284e-06
8.41905e-07
7.8022e-07
3.05786e-06
1.26758e-05
2.30174e-05
1.63824e-05
3.71838e-06
1.43208e-06
4.9704e-06
7.41475e-06
1.04199e-05
2.83927e-05
2.08957e-05
1.75265e-05
2.0241e-05
2.73946e-05
3.76121e-05
4.93745e-05
6.17163e-05
7.46963e-05
8.77006e-05
0.000100069
0.00011154
0.000122565
0.000133435
0.0001435
0.000151203
0.000154345
0.000150523
0.000137802
0.000115381
8.63842e-05
5.9252e-05
3.71666e-05
1.45148e-05
1.13156e-06
3.66775e-07
2.61356e-07
7.91012e-07
5.00717e-07
4.92304e-06
4.62871e-06
3.61883e-06
2.77635e-05
0.000134151
0.000204825
0.000166436
9.26836e-05
7.11918e-05
7.65574e-05
8.73076e-05
8.8339e-05
8.32851e-05
7.85639e-05
7.52755e-05
7.30839e-05
7.18751e-05
7.16638e-05
7.24994e-05
7.45345e-05
7.80974e-05
8.38341e-05
9.30117e-05
0.000108223
0.000134048
0.000173567
0.000192877
0.000189631
7.65166e-05
2.69212e-05
5.18772e-06
1.43905e-06
4.29493e-07
3.16675e-07
9.09813e-07
1.14961e-05
6.7977e-06
2.46886e-06
9.32521e-06
2.1078e-05
6.04607e-05
0.000119323
6.9559e-05
5.24402e-05
6.03003e-05
8.14742e-05
0.000102257
0.000111778
0.000111538
0.000107279
0.000102766
9.89615e-05
9.54755e-05
9.19187e-05
8.81297e-05
8.41057e-05
7.99334e-05
7.57563e-05
7.18354e-05
6.88164e-05
6.837e-05
7.3903e-05
8.98628e-05
0.000113093
5.56398e-05
2.10393e-05
1.47682e-06
6.65571e-08
7.05737e-07
1.13034e-06
3.95815e-06
6.57401e-06
4.89153e-06
3.06e-05
0.00012312
0.000115745
0.000109363
0.000103151
9.88367e-05
9.97214e-05
0.000100027
9.97135e-05
0.000102319
0.000108274
0.000116566
0.000125127
0.000132187
0.000136766
0.000138476
0.000137266
0.000133254
0.000126635
0.000117735
0.000107149
9.59066e-05
8.56521e-05
7.86164e-05
7.70846e-05
8.25649e-05
9.40782e-05
0.000101976
3.96521e-05
3.39215e-06
1.27656e-08
1.62544e-07
8.69879e-06
8.0385e-06
4.47135e-06
1.71812e-05
4.47165e-05
8.26732e-05
9.44902e-05
9.10264e-05
8.66507e-05
8.57974e-05
8.76544e-05
9.01281e-05
9.21982e-05
9.4085e-05
9.63524e-05
9.93846e-05
0.000103253
0.000107786
0.000112639
0.000117347
0.000121378
0.000124153
0.000125044
0.000123337
0.000118269
0.000109453
9.81397e-05
8.82073e-05
8.45821e-05
9.10482e-05
0.00010894
0.000128471
4.06497e-05
3.03706e-06
7.71373e-07
3.06528e-06
7.82987e-06
5.48445e-06
3.23127e-05
9.09448e-05
9.23955e-05
9.10291e-05
9.25749e-05
9.61487e-05
0.000100175
0.000103881
0.000107105
0.00010988
0.000112287
0.00011442
0.000116367
0.000118231
0.000120114
0.000122069
0.000124048
0.000125883
0.000127284
0.000127855
0.000127134
0.000124638
0.000119908
0.000112687
0.000103447
9.36908e-05
8.49655e-05
7.62108e-05
6.20087e-05
3.43295e-05
2.60909e-06
9.36676e-08
7.66413e-06
9.26548e-06
4.87031e-06
2.14667e-05
5.57405e-05
8.60635e-05
9.63626e-05
9.52536e-05
9.03639e-05
8.58422e-05
8.30908e-05
8.21212e-05
8.25221e-05
8.38593e-05
8.5788e-05
8.80683e-05
9.0555e-05
9.31829e-05
9.59483e-05
9.88822e-05
0.000102015
0.000105338
0.00010876
0.000112088
0.00011503
0.000117237
0.000118289
0.000117808
0.000115985
0.000113698
0.000111518
0.000106823
8.32011e-05
8.53559e-06
8.53456e-07
4.70746e-06
8.98757e-06
5.29023e-06
2.69152e-05
8.18467e-05
0.000100751
9.6501e-05
8.92081e-05
8.44135e-05
8.32946e-05
8.54722e-05
9.01392e-05
9.63176e-05
0.000102919
0.000108913
0.000113567
0.000116565
0.000117952
0.000117997
0.000117073
0.000115578
0.000113888
0.00011231
0.000111054
0.000110212
0.00010975
0.000109504
0.000109087
0.000107778
0.000104699
9.86174e-05
8.38036e-05
4.41992e-05
5.88234e-06
1.07506e-06
9.31727e-06
9.80221e-06
4.96665e-06
2.2777e-05
6.33954e-05
9.30711e-05
9.98873e-05
9.71652e-05
9.1245e-05
8.57442e-05
8.24198e-05
8.18246e-05
8.3957e-05
8.85682e-05
9.51818e-05
0.000103049
0.000111231
0.000118823
0.000125147
0.000129811
0.000132675
0.000133802
0.000133424
0.000131901
0.000129653
0.00012706
0.000124391
0.000121758
0.000119063
0.00011606
0.000112957
0.000111257
9.74348e-05
1.53041e-05
8.16898e-07
5.3948e-06
9.38174e-06
5.36386e-06
2.55643e-05
7.4663e-05
0.000100497
0.000101139
9.37955e-05
8.52607e-05
7.8461e-05
7.42121e-05
7.25343e-05
7.33302e-05
7.65921e-05
8.23353e-05
9.03777e-05
0.000100127
0.000110586
0.000120629
0.000129331
0.000136089
0.000140571
0.000142643
0.000142368
0.000140028
0.00013607
0.000130972
0.000125059
0.00011838
0.000110661
0.00010078
8.55918e-05
5.7716e-05
1.10891e-05
1.5883e-06
9.4125e-06
9.808e-06
5.23774e-06
2.35235e-05
6.693e-05
9.77314e-05
0.000104795
0.000101502
9.36804e-05
8.52269e-05
7.84253e-05
7.39606e-05
7.16866e-05
7.13884e-05
7.30877e-05
7.69518e-05
8.30292e-05
9.10064e-05
0.000100143
0.000109456
0.000118005
0.000125065
0.000130113
0.000132779
0.000132844
0.000130291
0.000125329
0.000118321
0.00010962
9.92466e-05
8.68977e-05
7.43944e-05
6.61042e-05
2.08998e-05
1.93388e-06
5.20755e-06
1.0537e-05
5.56196e-06
2.6521e-05
7.65201e-05
0.00010675
0.000111354
0.000105185
9.47896e-05
8.49965e-05
7.8315e-05
7.50236e-05
7.42932e-05
7.51833e-05
7.72312e-05
8.06141e-05
8.58793e-05
9.3452e-05
0.000103227
0.000114475
0.000126113
0.000137097
0.000146587
0.000153852
0.000158159
0.000158806
0.000155327
0.000147783
0.00013696
0.000123475
0.000105548
8.57612e-05
3.00248e-05
6.94386e-06
5.85595e-07
6.09743e-06
1.16855e-05
5.46989e-06
2.48218e-05
7.13413e-05
0.000105067
0.000111843
0.000105971
9.42591e-05
8.27006e-05
7.49691e-05
7.16316e-05
7.17079e-05
7.39201e-05
7.72748e-05
8.14308e-05
8.68402e-05
9.44703e-05
0.000105193
0.000119129
0.000135286
0.000151832
0.000166844
0.00017888
0.000187017
0.000190506
0.000188293
0.000178716
0.000160914
0.000128809
6.10429e-05
1.37578e-05
4.83177e-06
6.39947e-06
1.92268e-05
0.000119711
1.14963e-05
5.73307e-06
2.63407e-05
7.68568e-05
0.000112947
0.000115759
0.000103037
8.57935e-05
7.2436e-05
6.54537e-05
6.37658e-05
6.56581e-05
6.95955e-05
7.4255e-05
7.86669e-05
8.25045e-05
8.61499e-05
9.0312e-05
9.54003e-05
0.00010103
0.000105936
0.000108418
0.000107166
0.000101893
9.33141e-05
8.24416e-05
7.00655e-05
5.75263e-05
4.62259e-05
3.47223e-05
2.11531e-05
1.03445e-05
8.85523e-06
1.91354e-05
4.45684e-05
7.939e-06
5.82193e-06
2.56796e-05
7.53845e-05
0.000111966
0.000111196
9.33228e-05
7.36958e-05
6.1413e-05
5.67007e-05
5.71896e-05
6.08042e-05
6.59615e-05
7.13999e-05
7.61212e-05
7.94655e-05
8.12348e-05
8.16849e-05
8.12779e-05
8.03405e-05
7.88779e-05
7.66315e-05
7.32998e-05
6.88547e-05
6.3585e-05
5.74411e-05
5.11615e-05
4.88898e-05
5.10595e-05
4.36401e-05
3.6461e-05
4.31292e-05
7.4361e-05
4.38062e-05
2.42537e-05
9.55074e-07
6.07973e-06
2.74518e-05
8.23558e-05
0.000115467
0.000105142
7.88756e-05
5.91319e-05
5.10066e-05
5.11807e-05
5.67355e-05
6.54988e-05
7.54607e-05
8.49743e-05
9.2971e-05
9.88084e-05
0.000102123
0.000102854
0.000101272
9.78708e-05
9.31555e-05
8.75195e-05
8.13589e-05
7.5316e-05
6.98959e-05
6.39856e-05
5.93823e-05
6.27128e-05
6.69719e-05
5.81749e-05
4.34151e-05
1.61477e-05
1.28193e-05
9.43479e-06
1.81095e-06
7.21587e-06
6.30573e-06
2.87853e-05
8.83044e-05
0.000113065
8.73044e-05
5.69142e-05
4.29866e-05
4.15305e-05
4.83751e-05
6.12377e-05
7.70948e-05
9.25974e-05
0.000106208
0.000117866
0.000127494
0.000134521
0.000138161
0.000137782
0.000133134
0.000124568
0.000114343
0.000110073
0.000125792
0.000161841
8.91541e-05
2.27605e-05
1.51472e-05
2.47556e-05
5.39874e-05
6.31706e-05
5.25863e-05
4.75828e-05
4.36057e-05
5.44445e-05
1.25517e-05
6.85095e-06
3.3196e-05
0.000102452
0.000106575
6.60342e-05
4.071e-05
3.3792e-05
3.81481e-05
5.01624e-05
6.57607e-05
8.02243e-05
9.13614e-05
9.96197e-05
0.000106061
0.000111181
0.000114677
0.00011573
0.00011352
0.000107707
9.86647e-05
8.73476e-05
7.49852e-05
6.28387e-05
4.95668e-05
3.28529e-05
2.16029e-05
2.07096e-05
3.22412e-05
6.25993e-05
8.77771e-05
9.11962e-05
8.86711e-05
8.46689e-05
6.55009e-05
8.04976e-06
7.38529e-06
3.81471e-05
0.000107835
9.07586e-05
5.01416e-05
3.15039e-05
2.89273e-05
3.76114e-05
5.36741e-05
6.90273e-05
7.93133e-05
8.54876e-05
8.91679e-05
9.12067e-05
9.19596e-05
9.15662e-05
9.00376e-05
8.73128e-05
8.33535e-05
7.82088e-05
7.2024e-05
6.50674e-05
5.81573e-05
5.26518e-05
4.75819e-05
3.92384e-05
3.10314e-05
3.10663e-05
4.10606e-05
5.31397e-05
4.89268e-05
4.53241e-05
6.77854e-05
7.23603e-05
2.88477e-06
7.69582e-06
4.30775e-05
0.000109213
8.7235e-05
4.9979e-05
3.21602e-05
2.94534e-05
3.85627e-05
5.66514e-05
7.49175e-05
8.76217e-05
9.55146e-05
0.000100507
0.000103538
0.00010487
0.000104526
0.000102531
9.90079e-05
9.41808e-05
8.83227e-05
8.17112e-05
7.42464e-05
6.48197e-05
5.79205e-05
6.25886e-05
7.11431e-05
4.87446e-05
2.35542e-05
1.7934e-05
2.62231e-05
4.02946e-05
3.33236e-05
1.98245e-05
1.13082e-05
5.57237e-06
7.57575e-06
4.16998e-05
0.000103307
9.73232e-05
6.6071e-05
4.1216e-05
3.08782e-05
3.16875e-05
4.27736e-05
6.2984e-05
8.6266e-05
0.000107105
0.000125142
0.000141258
0.000155499
0.000167157
0.000175152
0.000178489
0.000176723
0.000169939
0.000154346
0.000114935
5.74296e-05
2.56607e-05
1.8068e-05
2.43785e-05
4.61243e-05
7.40137e-05
8.85106e-05
8.68637e-05
6.59459e-05
4.56913e-05
4.06864e-05
7.34091e-05
9.80463e-06
7.26569e-06
3.68654e-05
9.56501e-05
0.000109427
9.70453e-05
6.52679e-05
3.8924e-05
2.79767e-05
2.77617e-05
3.72245e-05
5.65084e-05
7.84496e-05
9.45743e-05
0.000104875
0.000111352
0.000114716
0.000115209
0.000113071
0.000108357
0.000100123
8.59423e-05
6.49036e-05
4.27366e-05
2.75376e-05
2.23039e-05
2.69039e-05
4.15553e-05
6.07744e-05
7.80314e-05
9.41947e-05
9.78888e-05
8.53594e-05
7.98597e-05
8.20293e-05
8.01608e-06
7.04562e-06
3.36553e-05
9.23686e-05
0.000112601
0.000109009
9.36839e-05
6.30565e-05
3.67949e-05
2.54718e-05
2.44508e-05
3.23686e-05
5.02226e-05
7.36095e-05
9.22494e-05
0.000101716
0.000103407
9.97406e-05
9.2865e-05
8.44423e-05
7.57584e-05
6.7854e-05
6.12911e-05
5.52474e-05
4.82047e-05
4.1105e-05
3.80342e-05
3.99636e-05
4.20919e-05
3.95992e-05
3.49685e-05
3.39054e-05
4.23689e-05
6.56433e-05
7.71274e-05
6.23424e-06
6.98893e-06
3.35323e-05
9.54381e-05
0.000115552
0.000111325
0.000102092
8.63563e-05
5.72202e-05
3.34796e-05
2.39943e-05
2.45942e-05
3.46482e-05
5.56875e-05
8.31863e-05
0.000105602
0.000116491
0.000116407
0.000108594
9.6632e-05
8.30729e-05
7.01022e-05
6.27061e-05
6.47252e-05
6.71599e-05
5.34991e-05
3.79744e-05
3.45844e-05
3.99704e-05
4.29804e-05
3.50793e-05
2.60192e-05
2.3984e-05
3.55083e-05
6.51994e-05
6.31033e-06
7.08726e-06
3.55921e-05
0.000101108
0.00011862
0.000113562
0.000103933
9.26195e-05
7.4357e-05
4.75209e-05
2.94922e-05
2.39467e-05
2.8758e-05
4.60945e-05
7.70782e-05
0.000110299
0.000133274
0.000143998
0.000142622
0.000126916
9.49913e-05
5.77801e-05
3.42117e-05
2.74076e-05
3.20131e-05
4.54795e-05
6.18454e-05
7.24427e-05
7.16557e-05
6.02973e-05
4.70031e-05
3.68465e-05
3.06046e-05
3.55503e-05
6.98905e-05
7.24791e-06
7.03094e-06
3.61482e-05
9.97192e-05
0.000117291
0.00011393
0.000105808
9.73893e-05
8.67681e-05
6.63787e-05
4.10201e-05
2.67177e-05
2.39936e-05
3.2361e-05
5.6069e-05
9.17518e-05
0.000119725
0.000131763
0.000126021
9.4757e-05
5.33424e-05
2.97631e-05
2.28109e-05
2.67377e-05
4.68532e-05
0.000111788
0.00019856
0.000197701
0.000150323
9.5212e-05
5.70282e-05
3.5535e-05
2.51738e-05
3.00242e-05
8.67197e-05
7.6697e-06
6.91988e-06
3.55783e-05
9.95761e-05
0.000119233
0.00011639
0.000107411
9.87975e-05
9.29204e-05
8.48449e-05
6.38522e-05
3.86131e-05
2.54895e-05
2.36659e-05
3.30071e-05
5.65875e-05
8.31709e-05
9.445e-05
9.17122e-05
7.71856e-05
5.29262e-05
3.15641e-05
2.17642e-05
2.15681e-05
2.99677e-05
5.12842e-05
9.51255e-05
0.000153478
0.000171305
0.000141847
9.65568e-05
6.01135e-05
4.22306e-05
4.96795e-05
0.00010153
8.12192e-06
6.78664e-06
3.48233e-05
9.92673e-05
0.000120449
0.000117209
0.000106807
9.61519e-05
8.97745e-05
8.83352e-05
8.53391e-05
6.61537e-05
3.9419e-05
2.53146e-05
2.2729e-05
3.06822e-05
5.12686e-05
7.39797e-05
8.50056e-05
8.65173e-05
7.90081e-05
5.97486e-05
3.74625e-05
2.53561e-05
2.3472e-05
2.89569e-05
4.1595e-05
6.44829e-05
0.000101573
0.00013398
0.000120667
8.13353e-05
5.7669e-05
6.17991e-05
9.28503e-05
7.69572e-06
6.7874e-06
3.47311e-05
0.000100636
0.000124226
0.000120914
0.00010944
9.69299e-05
8.74584e-05
8.28768e-05
8.29819e-05
8.23286e-05
6.67539e-05
4.09064e-05
2.60587e-05
2.25858e-05
2.8923e-05
4.6558e-05
6.70064e-05
7.68457e-05
7.84949e-05
7.51372e-05
6.45363e-05
4.6975e-05
3.21183e-05
2.50413e-05
2.40065e-05
2.72075e-05
3.43406e-05
4.68204e-05
6.73836e-05
8.95701e-05
9.49097e-05
9.45729e-05
6.13034e-05
7.15309e-06
6.86956e-06
3.4667e-05
0.000100697
0.000124172
0.000118503
0.000104579
9.1615e-05
8.37443e-05
8.07493e-05
8.1117e-05
8.34077e-05
8.30777e-05
6.82934e-05
4.28898e-05
2.76234e-05
2.3608e-05
2.83834e-05
4.17885e-05
5.87233e-05
6.90791e-05
7.11062e-05
6.8049e-05
6.23187e-05
5.50367e-05
4.69293e-05
3.94934e-05
3.38926e-05
3.00659e-05
2.78015e-05
2.7761e-05
3.22673e-05
4.78081e-05
7.87719e-05
5.18668e-05
6.50434e-06
6.96981e-06
3.44741e-05
0.00010099
0.000125109
0.00011777
0.000101385
8.65027e-05
7.78566e-05
7.50746e-05
7.59039e-05
7.80107e-05
7.93063e-05
7.60735e-05
6.15121e-05
4.11584e-05
2.9276e-05
2.72617e-05
3.35502e-05
4.71448e-05
6.28178e-05
7.2114e-05
7.24069e-05
6.63206e-05
5.66983e-05
4.53822e-05
3.48565e-05
2.78679e-05
2.50299e-05
2.43449e-05
2.30616e-05
2.19142e-05
2.53515e-05
4.4191e-05
6.22306e-05
6.08412e-06
7.0746e-06
3.42097e-05
0.000101053
0.00012432
0.000112825
9.27901e-05
7.76644e-05
7.14432e-05
7.21616e-05
7.65799e-05
8.15901e-05
8.4336e-05
8.17829e-05
7.07402e-05
5.2163e-05
3.66501e-05
3.03295e-05
3.30686e-05
4.48743e-05
6.45719e-05
8.47065e-05
9.57641e-05
9.58555e-05
8.84583e-05
7.5941e-05
5.95122e-05
4.33682e-05
3.21159e-05
2.61321e-05
2.29786e-05
2.12432e-05
1.93285e-05
1.79144e-05
4.33591e-05
7.04423e-06
7.227e-06
3.47115e-05
0.000103271
0.000122914
0.00010619
8.23354e-05
6.70155e-05
6.23949e-05
6.52298e-05
7.18543e-05
7.85845e-05
8.22033e-05
8.05303e-05
7.23947e-05
5.8711e-05
4.4822e-05
3.68711e-05
3.69593e-05
4.53027e-05
6.07279e-05
7.7887e-05
8.91388e-05
9.08363e-05
8.36136e-05
6.8006e-05
4.71791e-05
3.29436e-05
2.70731e-05
2.70896e-05
2.95744e-05
2.77674e-05
1.86846e-05
1.59653e-05
5.00554e-05
9.07364e-06
7.27764e-06
3.40519e-05
0.000101363
0.0001184
9.67488e-05
7.08967e-05
5.76127e-05
5.6086e-05
6.21131e-05
7.19092e-05
8.1351e-05
8.61848e-05
8.33968e-05
7.29753e-05
5.92608e-05
4.84911e-05
4.43615e-05
4.81045e-05
5.95997e-05
7.56729e-05
9.00115e-05
9.78849e-05
9.78014e-05
8.81225e-05
6.53886e-05
3.59457e-05
2.17365e-05
1.92735e-05
2.2253e-05
3.04884e-05
3.55774e-05
2.4136e-05
2.31374e-05
8.05775e-05
9.49774e-06
7.35837e-06
3.4399e-05
0.000102955
0.000114498
8.60018e-05
5.90931e-05
4.82995e-05
4.93517e-05
5.74127e-05
6.82746e-05
7.78032e-05
8.29417e-05
8.22233e-05
7.56869e-05
6.53728e-05
5.57974e-05
5.17515e-05
5.55919e-05
6.6413e-05
7.91027e-05
8.735e-05
8.87535e-05
8.3934e-05
7.30059e-05
5.44532e-05
3.10309e-05
1.88072e-05
1.73089e-05
2.01589e-05
2.68611e-05
3.5139e-05
3.29775e-05
3.68702e-05
8.48544e-05
9.60959e-06
7.35992e-06
3.42179e-05
0.000101764
0.000109481
7.62935e-05
5.02443e-05
4.20759e-05
4.57842e-05
5.68791e-05
7.04124e-05
8.04122e-05
8.33013e-05
7.97216e-05
7.34991e-05
6.90524e-05
6.91471e-05
7.45443e-05
8.3824e-05
9.30409e-05
9.82867e-05
9.87514e-05
9.53542e-05
8.70083e-05
6.83702e-05
3.85194e-05
1.87454e-05
1.3296e-05
1.56254e-05
1.96107e-05
2.23918e-05
2.78522e-05
3.8601e-05
6.63816e-05
9.35544e-05
1.0504e-05
7.42964e-06
3.4828e-05
0.000102477
0.000104519
6.7453e-05
4.30291e-05
3.66517e-05
4.14261e-05
5.32891e-05
6.78267e-05
7.97769e-05
8.58699e-05
8.63528e-05
8.4277e-05
8.41283e-05
9.03965e-05
0.000106022
0.000129443
0.000152718
0.000167438
0.000166954
0.000136068
7.39346e-05
3.03333e-05
1.56586e-05
1.44757e-05
2.15413e-05
3.75057e-05
4.43219e-05
3.67756e-05
3.69434e-05
5.49143e-05
0.000103855
8.30381e-05
1.08292e-05
7.46927e-06
3.4571e-05
0.00010033
0.000100467
6.23694e-05
3.86945e-05
3.27723e-05
3.77316e-05
4.93791e-05
6.20926e-05
7.07223e-05
7.46915e-05
7.71869e-05
8.19831e-05
9.10692e-05
0.000103577
0.00011608
0.000123956
0.000122816
0.000110664
8.97765e-05
6.43625e-05
3.94497e-05
2.24402e-05
1.57454e-05
1.64109e-05
2.33143e-05
4.04961e-05
7.47187e-05
0.000100594
0.000101285
0.000112289
0.000125321
4.92687e-05
9.49704e-06
7.69588e-06
3.53219e-05
0.000100842
9.8976e-05
6.08237e-05
3.64229e-05
2.91298e-05
3.21475e-05
4.20065e-05
5.4505e-05
6.46161e-05
7.03086e-05
7.30056e-05
7.51102e-05
7.82249e-05
8.23131e-05
8.57656e-05
8.65789e-05
8.38954e-05
7.82232e-05
6.94354e-05
5.81543e-05
4.81816e-05
4.244e-05
3.69931e-05
2.78999e-05
2.20811e-05
2.14985e-05
2.5373e-05
3.54804e-05
5.78783e-05
9.58358e-05
0.00010939
3.66321e-05
7.94278e-06
7.82281e-06
3.52699e-05
9.99043e-05
9.75028e-05
6.10471e-05
3.62354e-05
2.78148e-05
2.94772e-05
3.76218e-05
4.80894e-05
5.66148e-05
6.21813e-05
6.65041e-05
7.09843e-05
7.51965e-05
7.75924e-05
7.72857e-05
7.47507e-05
7.09559e-05
6.59909e-05
5.98272e-05
5.65522e-05
6.32759e-05
7.91107e-05
7.56711e-05
4.87962e-05
2.86652e-05
2.04131e-05
1.79739e-05
1.878e-05
2.60787e-05
5.09298e-05
9.65841e-05
4.30953e-05
7.25346e-06
7.85752e-06
3.53019e-05
0.000100391
9.96714e-05
6.43202e-05
3.7709e-05
2.72068e-05
2.71664e-05
3.4505e-05
4.57107e-05
5.61394e-05
6.41425e-05
7.10867e-05
7.73729e-05
8.12873e-05
8.13557e-05
7.79202e-05
7.21592e-05
6.53936e-05
6.29782e-05
7.11865e-05
7.3923e-05
4.83096e-05
3.16778e-05
2.99538e-05
3.49027e-05
4.03329e-05
4.33174e-05
4.07395e-05
3.43038e-05
3.6505e-05
6.00127e-05
7.23439e-05
4.17255e-05
7.07626e-06
7.76063e-06
3.49954e-05
0.000100918
9.80856e-05
6.30087e-05
3.8143e-05
2.749e-05
2.6505e-05
3.36453e-05
4.65671e-05
6.03131e-05
7.28735e-05
8.59812e-05
9.87581e-05
0.000106109
0.000105215
9.83435e-05
8.52277e-05
6.051e-05
3.45795e-05
2.46901e-05
2.75615e-05
4.05235e-05
5.98296e-05
7.62923e-05
8.49318e-05
8.67034e-05
8.38278e-05
7.69799e-05
6.80045e-05
6.02616e-05
4.25191e-05
1.85428e-05
2.44884e-05
9.74897e-06
7.67787e-06
3.54746e-05
0.000104685
9.41104e-05
5.77525e-05
3.73587e-05
2.82485e-05
2.65073e-05
3.28089e-05
4.69873e-05
6.44288e-05
8.21968e-05
0.000102407
0.000124508
0.000141426
0.000138299
9.392e-05
4.37041e-05
2.36821e-05
2.10283e-05
2.99316e-05
6.05845e-05
0.000131923
0.00016606
0.000133082
9.07439e-05
6.66651e-05
6.19601e-05
6.82451e-05
6.89002e-05
5.56174e-05
3.92084e-05
3.8346e-05
9.40517e-05
1.19577e-05
7.74348e-06
3.71538e-05
0.000109405
7.96496e-05
4.61023e-05
3.3904e-05
2.94144e-05
2.8175e-05
3.31194e-05
4.59415e-05
6.19582e-05
7.72437e-05
9.33191e-05
0.000108115
0.000114514
0.00010609
7.40612e-05
3.8855e-05
2.26706e-05
1.99059e-05
2.67889e-05
4.96253e-05
0.000108934
0.00017898
0.00016096
0.00010604
6.75645e-05
5.33507e-05
5.53284e-05
6.30974e-05
6.65033e-05
7.07347e-05
9.61776e-05
8.45383e-05
1.20172e-05
8.07068e-06
4.20916e-05
0.000110028
5.84973e-05
3.45564e-05
3.03576e-05
3.11449e-05
3.15121e-05
3.56213e-05
4.72711e-05
6.2306e-05
7.45678e-05
8.50825e-05
9.47927e-05
9.949e-05
9.54607e-05
8.16083e-05
5.6697e-05
3.2692e-05
2.13448e-05
2.01686e-05
2.63944e-05
3.99921e-05
6.21243e-05
9.34278e-05
0.0001188
0.000113893
9.33923e-05
7.72415e-05
7.17228e-05
7.71346e-05
9.45933e-05
0.000115519
5.25885e-05
1.00795e-05
8.4722e-06
5.10894e-05
8.97465e-05
3.89692e-05
2.62853e-05
2.93272e-05
3.63985e-05
3.99407e-05
4.34799e-05
5.15447e-05
6.19948e-05
7.07317e-05
7.87771e-05
8.81009e-05
9.6745e-05
9.96809e-05
9.44509e-05
8.17125e-05
6.19318e-05
4.02208e-05
2.59949e-05
2.06405e-05
2.11682e-05
2.56785e-05
3.40193e-05
4.76002e-05
6.9109e-05
9.94024e-05
0.00012552
0.000129954
0.000122514
0.000121194
0.000115243
4.29107e-05
8.18662e-06
8.60363e-06
6.1295e-05
6.41529e-05
2.90005e-05
2.32604e-05
3.07316e-05
4.04201e-05
4.57445e-05
5.06733e-05
5.77867e-05
6.55755e-05
7.1854e-05
7.75389e-05
8.46395e-05
9.31572e-05
0.000100022
0.000101415
9.63818e-05
8.63542e-05
7.24273e-05
5.53433e-05
3.85411e-05
2.66826e-05
2.06361e-05
1.90937e-05
2.10812e-05
2.65238e-05
3.64944e-05
5.4314e-05
8.62768e-05
0.00011977
0.000124368
0.000105215
4.03275e-05
7.6786e-06
8.37164e-06
5.96348e-05
6.13788e-05
3.11684e-05
2.56625e-05
3.23905e-05
4.15967e-05
4.72335e-05
5.13448e-05
5.61914e-05
6.19014e-05
6.75055e-05
7.28527e-05
7.87106e-05
8.55098e-05
9.23648e-05
9.72453e-05
9.83512e-05
9.54052e-05
8.93165e-05
8.09211e-05
7.02637e-05
5.7096e-05
4.28247e-05
3.05943e-05
2.23996e-05
1.83044e-05
1.7772e-05
2.05772e-05
2.75155e-05
4.44619e-05
8.24692e-05
9.58429e-05
4.1999e-05
8.49076e-06
7.90076e-06
4.65877e-05
8.65441e-05
5.14989e-05
3.09476e-05
2.5363e-05
2.76971e-05
3.48423e-05
4.44834e-05
5.36356e-05
6.08726e-05
6.6723e-05
7.22095e-05
7.81838e-05
8.50024e-05
9.21849e-05
9.84392e-05
0.000102303
0.000103013
0.000100745
9.61327e-05
8.97234e-05
8.1763e-05
7.21831e-05
6.08701e-05
4.83299e-05
3.61405e-05
2.62099e-05
1.96182e-05
1.63904e-05
1.62925e-05
2.48097e-05
5.45371e-05
5.41096e-05
9.07414e-06
7.55514e-06
3.71265e-05
9.11817e-05
9.13265e-05
5.77478e-05
3.25059e-05
2.30565e-05
2.16548e-05
2.5979e-05
3.5731e-05
4.89783e-05
6.1918e-05
7.23827e-05
8.10295e-05
8.93981e-05
9.8323e-05
0.00010738
0.000115042
0.000119516
0.000119958
0.000116771
0.00011091
0.000103214
9.41696e-05
8.40028e-05
7.28229e-05
6.07241e-05
4.80686e-05
3.58788e-05
2.535e-05
1.53705e-05
1.06058e-05
2.03424e-05
7.56626e-05
9.89409e-06
7.38254e-06
3.49262e-05
9.22833e-05
0.000107994
9.74176e-05
6.392e-05
3.51801e-05
2.23663e-05
1.85732e-05
2.1145e-05
3.0272e-05
4.54202e-05
6.30192e-05
7.92947e-05
9.36097e-05
0.000107301
0.000121336
0.000135166
0.00014646
0.000152285
0.00015126
0.000144252
0.000133311
0.000120267
0.000106163
9.13908e-05
7.59558e-05
5.98532e-05
4.40026e-05
3.04099e-05
1.68914e-05
8.58687e-06
1.6387e-05
8.67939e-05
1.08446e-05
7.39817e-06
3.6834e-05
0.00010393
0.000122213
0.000120371
0.000109573
7.48426e-05
3.92326e-05
2.25092e-05
1.69304e-05
1.84216e-05
2.71245e-05
4.36151e-05
6.52874e-05
8.75786e-05
0.000108619
0.000129263
0.000150082
0.000169225
0.000182429
0.00018592
0.000179214
0.000164602
0.000145315
0.000123909
0.000101492
7.82393e-05
5.51359e-05
3.59868e-05
2.37729e-05
1.49885e-05
1.0723e-05
2.33693e-05
0.000103652
1.14066e-05
7.43238e-06
3.7752e-05
0.000107586
0.000123152
0.000116676
0.000111817
0.000108413
8.32599e-05
4.42508e-05
2.37751e-05
1.67103e-05
1.75946e-05
2.62359e-05
4.35177e-05
6.74739e-05
9.40225e-05
0.000121339
0.00014968
0.000177336
0.000198308
0.000207207
0.000202959
0.000185748
0.000159152
0.000128647
9.71934e-05
6.68594e-05
4.15942e-05
2.57404e-05
1.84658e-05
1.50217e-05
1.62087e-05
3.94284e-05
8.27697e-05
1.13968e-05
7.49716e-06
3.77644e-05
0.000105923
0.00011976
0.000108065
9.50444e-05
9.18841e-05
9.66209e-05
8.53598e-05
4.84706e-05
2.51088e-05
1.68015e-05
1.75059e-05
2.7022e-05
4.67517e-05
7.47106e-05
0.00010601
0.000137546
0.000167349
0.000191023
0.0002019
0.000196095
0.000175837
0.000146757
0.000113903
8.09581e-05
5.19059e-05
3.09635e-05
1.97656e-05
1.62288e-05
1.71784e-05
2.51401e-05
6.52898e-05
6.24063e-05
1.09597e-05
7.44975e-06
3.64436e-05
0.000103266
0.000122246
0.000111714
9.31472e-05
8.08387e-05
8.10631e-05
9.01962e-05
8.5759e-05
5.06685e-05
2.57144e-05
1.69312e-05
1.80966e-05
2.90358e-05
5.11568e-05
8.18099e-05
0.000114896
0.000145207
0.000167923
0.000177883
0.000172669
0.000154614
0.000128512
9.87907e-05
6.91724e-05
4.36873e-05
2.5982e-05
1.68762e-05
1.48638e-05
1.89791e-05
3.46614e-05
8.87144e-05
5.24136e-05
1.05038e-05
7.49569e-06
3.66006e-05
0.000106493
0.000125491
0.000112802
9.20229e-05
7.61469e-05
7.07736e-05
7.61763e-05
8.77039e-05
8.37328e-05
4.88865e-05
2.48692e-05
1.72333e-05
2.03616e-05
3.48251e-05
6.17583e-05
9.58851e-05
0.000127742
0.000150247
0.000159564
0.000154984
0.000139088
0.000116017
8.95853e-05
6.31386e-05
4.02867e-05
2.41943e-05
1.56117e-05
1.36524e-05
1.89677e-05
3.97468e-05
9.74874e-05
4.70815e-05
1.02178e-05
7.4828e-06
3.5103e-05
0.000102906
0.000122584
0.000108249
8.63952e-05
7.16885e-05
6.67255e-05
6.92472e-05
7.73844e-05
8.54412e-05
7.44388e-05
4.20584e-05
2.29227e-05
1.84074e-05
2.51492e-05
4.46948e-05
7.65051e-05
0.000111518
0.000138122
0.000150255
0.00014766
0.000133525
0.000112148
8.73155e-05
6.22244e-05
4.02203e-05
2.43025e-05
1.53767e-05
1.27086e-05
1.73535e-05
3.82503e-05
9.53185e-05
4.38797e-05
1.00754e-05
7.51519e-06
3.39673e-05
9.88142e-05
0.000116219
9.85728e-05
7.39407e-05
6.00775e-05
5.84581e-05
6.46646e-05
7.41248e-05
8.252e-05
8.20209e-05
6.07142e-05
3.41119e-05
2.19642e-05
2.27763e-05
3.63262e-05
6.46391e-05
0.000102309
0.000134486
0.000150093
0.000148475
0.000134469
0.000113317
8.88999e-05
6.41402e-05
4.20537e-05
2.56049e-05
1.59248e-05
1.23249e-05
1.55948e-05
3.40052e-05
9.02225e-05
4.21367e-05
1.00177e-05
7.53772e-06
3.31367e-05
9.621e-05
0.000113339
9.51237e-05
6.85992e-05
5.34863e-05
5.17208e-05
5.92936e-05
7.1203e-05
8.09345e-05
8.16296e-05
6.8064e-05
4.45226e-05
2.82242e-05
2.447e-05
3.33654e-05
5.73265e-05
9.49132e-05
0.000132176
0.000152389
0.00015202
0.000137711
0.000116403
9.22196e-05
6.76142e-05
4.51476e-05
2.77975e-05
1.70992e-05
1.25035e-05
1.43408e-05
2.98114e-05
8.52564e-05
4.19831e-05
1.00085e-05
7.57587e-06
3.33182e-05
9.71448e-05
0.000112392
9.14535e-05
6.32755e-05
4.79735e-05
4.62505e-05
5.43953e-05
6.82745e-05
8.06756e-05
8.30251e-05
7.12795e-05
5.11529e-05
3.49267e-05
2.91452e-05
3.55788e-05
5.69083e-05
9.32562e-05
0.000132439
0.000155097
0.000155014
0.000140084
0.000118771
9.52321e-05
7.12764e-05
4.87906e-05
3.0605e-05
1.87772e-05
1.31592e-05
1.37254e-05
2.65311e-05
8.00284e-05
4.36423e-05
1.00517e-05
7.67687e-06
3.44751e-05
9.97709e-05
0.000112488
8.96071e-05
6.07328e-05
4.53905e-05
4.35722e-05
5.15455e-05
6.53183e-05
7.7959e-05
8.11378e-05
7.13131e-05
5.43147e-05
4.02405e-05
3.48928e-05
4.07733e-05
6.08382e-05
9.52618e-05
0.000132999
0.000155403
0.000155386
0.0001406
0.000119868
9.73105e-05
7.43012e-05
5.21538e-05
3.34199e-05
2.05917e-05
1.40592e-05
1.36212e-05
2.43183e-05
7.39129e-05
4.6985e-05
1.01554e-05
7.77558e-06
3.62314e-05
0.000103766
0.000112758
8.70374e-05
5.797e-05
4.29771e-05
4.12482e-05
4.95285e-05
6.40506e-05
7.74638e-05
8.13357e-05
7.28569e-05
5.79581e-05
4.57638e-05
4.16268e-05
4.82147e-05
6.82177e-05
0.000101008
0.000135844
0.000156168
0.00015572
0.000141293
0.000121133
9.92538e-05
7.68732e-05
5.49411e-05
3.57297e-05
2.20625e-05
1.48471e-05
1.37724e-05
2.31014e-05
6.85118e-05
5.11826e-05
1.03073e-05
7.9643e-06
3.9521e-05
0.000111023
0.000113754
8.45806e-05
5.69238e-05
4.30704e-05
4.13263e-05
4.91813e-05
6.31545e-05
7.5998e-05
7.99348e-05
7.30027e-05
6.07779e-05
5.11382e-05
4.90236e-05
5.71924e-05
7.77835e-05
0.000109078
0.000140655
0.000158419
0.000157333
0.000143131
0.00012313
0.000101223
7.87162e-05
5.65024e-05
3.67703e-05
2.25936e-05
1.51749e-05
1.40087e-05
2.29349e-05
6.65699e-05
5.45955e-05
1.04741e-05
8.06948e-06
4.22747e-05
0.000117069
0.000110621
7.74337e-05
5.35859e-05
4.29201e-05
4.23389e-05
5.05684e-05
6.48783e-05
7.80736e-05
8.25363e-05
7.66238e-05
6.57364e-05
5.74129e-05
5.66433e-05
6.62002e-05
8.76354e-05
0.000118339
0.000148112
0.000164273
0.00016243
0.000147725
0.00012698
0.000104091
8.05245e-05
5.73051e-05
3.67739e-05
2.22569e-05
1.50238e-05
1.429e-05
2.38869e-05
6.93203e-05
5.57804e-05
1.05975e-05
8.25127e-06
4.57591e-05
0.000122169
0.000101788
6.72617e-05
4.97502e-05
4.37789e-05
4.5166e-05
5.3709e-05
6.76217e-05
8.04968e-05
8.54223e-05
8.08275e-05
7.14402e-05
6.42803e-05
6.44927e-05
7.50645e-05
9.73044e-05
0.000128084
0.000157188
0.000172432
0.00016964
0.000153778
0.000131609
0.000107159
8.20876e-05
5.76358e-05
3.63298e-05
2.15995e-05
1.46812e-05
1.47086e-05
2.59491e-05
7.63687e-05
5.44638e-05
1.06203e-05
8.33959e-06
4.81726e-05
0.000121698
8.44756e-05
5.41884e-05
4.46763e-05
4.45759e-05
4.9505e-05
5.9785e-05
7.40868e-05
8.65616e-05
9.12231e-05
8.70121e-05
7.83694e-05
7.18915e-05
7.26978e-05
8.38504e-05
0.000106421
0.000136856
0.000164897
0.000178787
0.000174705
0.000157643
0.00013429
0.000108726
8.27895e-05
5.78217e-05
3.62423e-05
2.13323e-05
1.44693e-05
1.51927e-05
2.85926e-05
8.48972e-05
5.1707e-05
1.05338e-05
8.57097e-06
5.35004e-05
0.000115531
6.47693e-05
4.36883e-05
4.22795e-05
4.81226e-05
5.66291e-05
6.8203e-05
8.1952e-05
9.31818e-05
9.72485e-05
9.3401e-05
8.54111e-05
7.92511e-05
7.99588e-05
9.06292e-05
0.000112137
0.000140779
0.000166721
0.000179037
0.00017426
0.000157044
0.000133704
0.000108298
8.28192e-05
5.85283e-05
3.7304e-05
2.20485e-05
1.46394e-05
1.54597e-05
3.03952e-05
9.03303e-05
4.90561e-05
1.03931e-05
8.6805e-06
5.98698e-05
9.40894e-05