/*--------------------------------*- C++ -*----------------------------------*\
| =========                 |                                                 |
| \\      /  F ield         | OpenFOAM: The Open Source CFD Toolbox           |
|  \\    /   O peration     | Version:  v2006                                 |
|   \\  /    A nd           | Website:  www.openfoam.com                      |
|    \\/     M anipulation  |                                                 |
\*---------------------------------------------------------------------------*/
FoamFile
{
    version     2.0;
    format      ascii;
    class       volScalarField;
    location    "66";
    object      alphat;
}
// * * * * * * * * * * * * * * * * * * * * * * * * * * * * * * * * * * * * * //

dimensions      [1 -1 -1 0 0 0 0];


internalField   nonuniform List<scalar> 
78750
(
8.68677e-09
5.47038e-07
8.23899e-07
1.08337e-06
1.32603e-06
1.54637e-06
1.74381e-06
1.91969e-06
2.07533e-06
2.2116e-06
2.32908e-06
2.42824e-06
2.50948e-06
2.57304e-06
2.61857e-06
2.64657e-06
2.65776e-06
2.65275e-06
2.63203e-06
2.59593e-06
2.54515e-06
2.4784e-06
2.39515e-06
2.29521e-06
2.17797e-06
2.04271e-06
1.88875e-06
1.71559e-06
1.52253e-06
1.30905e-06
1.07471e-06
8.20996e-07
5.61933e-07
3.32073e-07
6.7463e-09
3.12156e-09
1.70026e-06
4.22201e-06
7.605e-06
1.15329e-05
1.437e-05
1.56585e-05
1.63156e-05
1.68752e-05
1.7468e-05
1.8134e-05
1.88944e-05
1.97554e-05
2.06657e-05
2.09123e-05
2.07669e-05
2.0522e-05
2.01906e-05
1.97842e-05
1.93129e-05
1.8785e-05
1.82034e-05
1.75703e-05
1.68865e-05
1.61484e-05
1.53485e-05
1.44765e-05
1.35224e-05
1.19148e-05
9.32951e-06
6.63627e-06
4.37024e-06
3.249e-06
2.22868e-06
2.71219e-08
4.1683e-09
2.22858e-06
4.7149e-06
7.78855e-06
1.15979e-05
1.60945e-05
2.05352e-05
2.25258e-05
2.36219e-05
2.44236e-05
2.49681e-05
2.52873e-05
2.54087e-05
2.51603e-05
2.47725e-05
2.43236e-05
2.38036e-05
2.32111e-05
2.25509e-05
2.1828e-05
2.10475e-05
2.02272e-05
1.9385e-05
1.85138e-05
1.75907e-05
1.65766e-05
1.53879e-05
1.38888e-05
1.19351e-05
9.5126e-06
7.02447e-06
5.34381e-06
5.40749e-06
2.36741e-06
4.43935e-08
8.00159e-09
2.09781e-06
4.65279e-06
8.11235e-06
1.26081e-05
1.77782e-05
2.26033e-05
2.60475e-05
2.73996e-05
2.80763e-05
2.825e-05
2.74871e-05
2.64461e-05
2.52926e-05
2.40901e-05
2.28764e-05
2.16743e-05
2.04982e-05
1.93605e-05
1.82772e-05
1.72724e-05
1.6375e-05
1.56104e-05
1.49833e-05
1.44592e-05
1.39477e-05
1.32883e-05
1.22661e-05
1.07111e-05
8.71609e-06
6.833e-06
5.95265e-06
7.2696e-06
2.20972e-06
5.68475e-08
1.19653e-08
2.14201e-06
4.92383e-06
9.00582e-06
1.4589e-05
2.09562e-05
2.65049e-05
2.93271e-05
3.02016e-05
3.07475e-05
3.10052e-05
2.95286e-05
2.76216e-05
2.56799e-05
2.38156e-05
2.20751e-05
2.04668e-05
1.89803e-05
1.7602e-05
1.6326e-05
1.51643e-05
1.41485e-05
1.33142e-05
1.2677e-05
1.22165e-05
1.18523e-05
1.14171e-05
1.06787e-05
9.47995e-06
7.97003e-06
6.70536e-06
6.56496e-06
8.34569e-06
2.08844e-06
6.61829e-08
1.6601e-08
2.17972e-06
5.16949e-06
9.87468e-06
1.66042e-05
2.40928e-05
2.99774e-05
3.19263e-05
3.27281e-05
3.31869e-05
3.16677e-05
2.93147e-05
2.68493e-05
2.45072e-05
2.23886e-05
2.05153e-05
1.88662e-05
1.74031e-05
1.60865e-05
1.48885e-05
1.38043e-05
1.28547e-05
1.2066e-05
1.14447e-05
1.09696e-05
1.05729e-05
1.01172e-05
9.42411e-06
8.41095e-06
7.27043e-06
6.51683e-06
7.01373e-06
8.57143e-06
2.0133e-06
7.30686e-08
2.08572e-08
2.22815e-06
5.38634e-06
1.05868e-05
1.82244e-05
2.64648e-05
3.23877e-05
3.4128e-05
3.48771e-05
3.40697e-05
3.1563e-05
2.86417e-05
2.57717e-05
2.31733e-05
2.09206e-05
1.90016e-05
1.73648e-05
1.59501e-05
1.47034e-05
1.35883e-05
1.25975e-05
1.17518e-05
1.10614e-05
1.0508e-05
1.00547e-05
9.63574e-06
9.14465e-06
8.46948e-06
7.60185e-06
6.75314e-06
6.39406e-06
7.38841e-06
8.28273e-06
1.95536e-06
7.88187e-08
2.48922e-08
2.27378e-06
5.55037e-06
1.11042e-05
1.94169e-05
2.81842e-05
3.40643e-05
3.61675e-05
3.62183e-05
3.41412e-05
3.11038e-05
2.78222e-05
2.47326e-05
2.20315e-05
1.9755e-05
1.78605e-05
1.62807e-05
1.49462e-05
1.37965e-05
1.27904e-05
1.19165e-05
1.11859e-05
1.05815e-05
1.00582e-05
9.5677e-06
9.05544e-06
8.45824e-06
7.73595e-06
6.94329e-06
6.29428e-06
6.2171e-06
7.5701e-06
7.90244e-06
1.91831e-06
8.42508e-08
2.85284e-08
2.31056e-06
5.65998e-06
1.1443e-05
2.02103e-05
2.92889e-05
3.5047e-05
3.71205e-05
3.64304e-05
3.39442e-05
3.05841e-05
2.70805e-05
2.38654e-05
2.11066e-05
1.8811e-05
1.69175e-05
1.53509e-05
1.40422e-05
1.2935e-05
1.19973e-05
1.12288e-05
1.06365e-05
1.01708e-05
9.75036e-06
9.29604e-06
8.74568e-06
8.069e-06
7.29176e-06
6.52637e-06
5.9955e-06
6.10417e-06
7.70383e-06
7.52377e-06
1.89171e-06
8.99639e-08
3.20108e-08
2.34155e-06
5.73835e-06
1.1677e-05
2.07662e-05
3.00619e-05
3.57222e-05
3.75377e-05
3.65459e-05
3.37791e-05
3.02084e-05
2.65785e-05
2.33044e-05
2.0527e-05
1.82311e-05
1.6344e-05
1.47859e-05
1.34884e-05
1.23994e-05
1.14927e-05
1.07773e-05
1.02618e-05
9.8788e-06
9.52498e-06
9.0975e-06
8.52277e-06
7.78897e-06
6.96828e-06
6.21501e-06
5.75958e-06
5.99511e-06
7.77024e-06
7.22291e-06
1.8764e-06
9.59731e-08
3.5394e-08
2.36744e-06
5.79635e-06
1.18494e-05
2.11778e-05
3.06069e-05
3.61479e-05
3.7737e-05
3.65048e-05
3.35339e-05
2.98248e-05
2.61211e-05
2.28172e-05
2.00307e-05
1.77311e-05
1.58387e-05
1.42729e-05
1.29687e-05
1.18803e-05
1.09915e-05
1.03226e-05
9.88253e-06
9.58965e-06
9.3215e-06
8.95031e-06
8.3862e-06
7.62658e-06
6.7783e-06
6.03004e-06
5.62402e-06
5.95374e-06
7.86849e-06
6.96416e-06
1.86735e-06
1.02185e-07
3.88397e-08
2.39133e-06
5.84807e-06
1.2001e-05
2.15313e-05
3.10557e-05
3.64825e-05
3.78834e-05
3.64657e-05
3.33525e-05
2.95612e-05
2.58261e-05
2.25196e-05
1.97393e-05
1.74426e-05
1.55451e-05
1.39659e-05
1.26425e-05
1.15339e-05
1.06317e-05
9.96649e-06
9.55232e-06
9.30286e-06
9.08724e-06
8.76276e-06
8.22423e-06
7.46853e-06
6.62033e-06
5.88944e-06
5.52868e-06
5.93983e-06
7.9797e-06
6.76184e-06
1.86503e-06
1.08418e-07
4.23105e-08
2.41317e-06
5.89591e-06
1.21426e-05
2.18526e-05
3.14373e-05
3.67334e-05
3.79486e-05
3.63595e-05
3.31257e-05
2.92752e-05
2.55277e-05
2.22312e-05
1.94642e-05
1.71741e-05
1.52731e-05
1.36816e-05
1.23397e-05
1.12115e-05
1.02957e-05
9.63242e-06
9.23933e-06
9.02635e-06
8.85722e-06
8.57883e-06
8.07501e-06
7.34064e-06
6.51008e-06
5.80623e-06
5.4916e-06
5.98232e-06
8.14175e-06
6.5875e-06
1.86673e-06
1.14573e-07
4.59471e-08
2.43596e-06
5.94823e-06
1.22949e-05
2.21808e-05
3.18006e-05
3.69536e-05
3.79944e-05
3.62627e-05
3.29455e-05
2.90712e-05
2.5337e-05
2.20659e-05
1.93193e-05
1.70369e-05
1.51298e-05
1.35199e-05
1.21506e-05
1.099e-05
1.00426e-05
9.35611e-06
8.95542e-06
8.75042e-06
8.60393e-06
8.35871e-06
7.89185e-06
7.19383e-06
6.40013e-06
5.73792e-06
5.47672e-06
6.05049e-06
8.32883e-06
6.45049e-06
1.8729e-06
1.20586e-07
4.95872e-08
2.45724e-06
5.99896e-06
1.24441e-05
2.24953e-05
3.21331e-05
3.7138e-05
3.80069e-05
3.61389e-05
3.27478e-05
2.88599e-05
2.51481e-05
2.19091e-05
1.91879e-05
1.69175e-05
1.5008e-05
1.33829e-05
1.19888e-05
1.07978e-05
9.81976e-06
9.10913e-06
8.69722e-06
8.49377e-06
8.36185e-06
8.14331e-06
7.71251e-06
7.05684e-06
6.30966e-06
5.6977e-06
5.49594e-06
6.15833e-06
8.55201e-06
6.33296e-06
1.88165e-06
1.26436e-07
5.34191e-08
2.48052e-06
6.05656e-06
1.26103e-05
2.28306e-05
3.24656e-05
3.73092e-05
3.80139e-05
3.60324e-05
3.25963e-05
2.87199e-05
2.50469e-05
2.18482e-05
1.91549e-05
1.68954e-05
1.498e-05
1.33344e-05
1.19085e-05
1.0678e-05
9.65716e-06
8.90558e-06
8.46418e-06
8.24446e-06
8.11153e-06
7.90944e-06
7.51274e-06
6.90543e-06
6.21462e-06
5.66207e-06
5.52649e-06
6.28294e-06
8.78943e-06
6.24297e-06
1.89351e-06
1.32139e-07
5.72069e-08
2.50222e-06
6.112e-06
1.27718e-05
2.31515e-05
3.27749e-05
3.74621e-05
3.80106e-05
3.59229e-05
3.24481e-05
2.85881e-05
2.49573e-05
2.18021e-05
1.91401e-05
1.68953e-05
1.49775e-05
1.33142e-05
1.1858e-05
1.05888e-05
9.52467e-06
8.73015e-06
8.25565e-06
8.01474e-06
7.87501e-06
7.68415e-06
7.31904e-06
6.76136e-06
6.1309e-06
5.6424e-06
5.57766e-06
6.4334e-06
9.04497e-06
6.16755e-06
1.90697e-06
1.37698e-07
6.11851e-08
2.52599e-06
6.17396e-06
1.29497e-05
2.34941e-05
3.30899e-05
3.76123e-05
3.80134e-05
3.58395e-05
3.23482e-05
2.85213e-05
2.49422e-05
2.18343e-05
1.92044e-05
1.69732e-05
1.50507e-05
1.33658e-05
1.1874e-05
1.05589e-05
9.44174e-06
8.59065e-06
8.06854e-06
7.79328e-06
7.63601e-06
7.44951e-06
7.11401e-06
6.60835e-06
6.04278e-06
5.62302e-06
5.63328e-06
6.59215e-06
9.30305e-06
6.1125e-06
1.92251e-06
1.43147e-07
6.50945e-08
2.54821e-06
6.23383e-06
1.31239e-05
2.38256e-05
3.33893e-05
3.77549e-05
3.80177e-05
3.57638e-05
3.22588e-05
2.84657e-05
2.49387e-05
2.18798e-05
1.92853e-05
1.70722e-05
1.51496e-05
1.34469e-05
1.19218e-05
1.05611e-05
9.38976e-06
8.47927e-06
7.90486e-06
7.58997e-06
7.40992e-06
7.22342e-06
6.91506e-06
6.46113e-06
5.96188e-06
5.61327e-06
5.7019e-06
6.76814e-06
9.56835e-06
6.06877e-06
1.93911e-06
1.48479e-07
6.91888e-08
2.57226e-06
6.29953e-06
1.33137e-05
2.4179e-05
3.36986e-05
3.79031e-05
3.8037e-05
3.57196e-05
3.22164e-05
2.84667e-05
2.49961e-05
2.19874e-05
1.94286e-05
1.72335e-05
1.53102e-05
1.35884e-05
1.20272e-05
1.06158e-05
9.38265e-06
8.40205e-06
7.76268e-06
7.39693e-06
7.18519e-06
6.99285e-06
6.7091e-06
6.30702e-06
5.8756e-06
5.60012e-06
5.76929e-06
6.94493e-06
9.82712e-06
6.0383e-06
1.95672e-06
1.53719e-07
7.32101e-08
2.59485e-06
6.36366e-06
1.35023e-05
2.45274e-05
3.40003e-05
3.80517e-05
3.80641e-05
3.5686e-05
3.21836e-05
2.84749e-05
2.50597e-05
2.2103e-05
1.9584e-05
1.74128e-05
1.54951e-05
1.37598e-05
1.21661e-05
1.07051e-05
9.40882e-06
8.35554e-06
7.64568e-06
7.22318e-06
6.97421e-06
6.77141e-06
6.50907e-06
6.15726e-06
5.7936e-06
5.59258e-06
5.84514e-06
7.13415e-06
1.00882e-05
6.01693e-06
1.97516e-06
1.5885e-07
7.74084e-08
2.61885e-06
6.43275e-06
1.3706e-05
2.48994e-05
3.43175e-05
3.82145e-05
3.81136e-05
3.56859e-05
3.21923e-05
2.85286e-05
2.51699e-05
2.22655e-05
1.97871e-05
1.76408e-05
1.57303e-05
1.39826e-05
1.23559e-05
1.08426e-05
9.47801e-06
8.34437e-06
7.55291e-06
7.06382e-06
6.76967e-06
6.55057e-06
6.30585e-06
6.00223e-06
5.7055e-06
5.579e-06
5.9157e-06
7.31877e-06
1.0337e-05
6.00287e-06
1.99372e-06
1.63877e-07
8.15344e-08
2.64129e-06
6.50013e-06
1.391e-05
2.52723e-05
3.46372e-05
3.83874e-05
3.81757e-05
3.5695e-05
3.22047e-05
2.85819e-05
2.52794e-05
2.24305e-05
1.99982e-05
1.78841e-05
1.59885e-05
1.42352e-05
1.25807e-05
1.10173e-05
9.58367e-06
8.36675e-06
7.48783e-06
6.9261e-06
6.58126e-06
6.34101e-06
6.10984e-06
5.85136e-06
5.61992e-06
5.56803e-06
5.99095e-06
7.51161e-06
1.05843e-05
5.99522e-06
2.0127e-06
1.68777e-07
8.58229e-08
2.66453e-06
6.57078e-06
1.41261e-05
2.56686e-05
3.49822e-05
3.85857e-05
3.82663e-05
3.57325e-05
3.22466e-05
2.86663e-05
2.54211e-05
2.26286e-05
2.0244e-05
1.81646e-05
1.62869e-05
1.45313e-05
1.28511e-05
1.12377e-05
9.73225e-06
8.42645e-06
7.4507e-06
6.80768e-06
6.4049e-06
6.13756e-06
5.91511e-06
5.69802e-06
5.52936e-06
5.55091e-06
6.05996e-06
7.69808e-06
1.08174e-05
5.99154e-06
2.03141e-06
1.73541e-07
9.00386e-08
2.68614e-06
6.63879e-06
1.43382e-05
2.60528e-05
3.52948e-05
3.87549e-05
3.8339e-05
3.57596e-05
3.22801e-05
2.87432e-05
2.55573e-05
2.28253e-05
2.04943e-05
1.84571e-05
1.66058e-05
1.48559e-05
1.31564e-05
1.14967e-05
9.91978e-06
8.52261e-06
7.44464e-06
6.71468e-06
6.24854e-06
5.94891e-06
5.73014e-06
5.54992e-06
5.44074e-06
5.53426e-06
6.1302e-06
7.88857e-06
1.10469e-05
5.99085e-06
2.04988e-06
1.78137e-07
9.43999e-08
2.70843e-06
6.70937e-06
1.45574e-05
2.64422e-05
3.5604e-05
3.89212e-05
3.84152e-05
3.58075e-05
3.2337e-05
2.8842e-05
2.57147e-05
2.30435e-05
2.07678e-05
1.87757e-05
1.69551e-05
1.52159e-05
1.35018e-05
1.17986e-05
1.01501e-05
8.65801e-06
7.47076e-06
6.64677e-06
6.11074e-06
5.77274e-06
5.55186e-06
5.40328e-06
5.3496e-06
5.51287e-06
6.19543e-06
8.07591e-06
1.12709e-05
5.99421e-06
2.06785e-06
1.82551e-07
9.86953e-08
2.72943e-06
6.77838e-06
1.47733e-05
2.68128e-05
3.58855e-05
3.90616e-05
3.84664e-05
3.58305e-05
3.23744e-05
2.89265e-05
2.58617e-05
2.32561e-05
2.10418e-05
1.91023e-05
1.73207e-05
1.56008e-05
1.38798e-05
1.21384e-05
1.04205e-05
8.83238e-06
7.53232e-06
6.60953e-06
5.99847e-06
5.6166e-06
5.38766e-06
5.26482e-06
5.26179e-06
5.49199e-06
6.26127e-06
8.2677e-06
1.14915e-05
6.00394e-06
2.086e-06
1.86758e-07
1.03116e-07
2.75078e-06
6.85031e-06
1.50019e-05
2.71862e-05
3.61611e-05
3.91963e-05
3.85169e-05
3.586e-05
3.24301e-05
2.90274e-05
2.60214e-05
2.34799e-05
2.13281e-05
1.94444e-05
1.77067e-05
1.60124e-05
1.4291e-05
1.25172e-05
1.07325e-05
9.04782e-06
7.63102e-06
6.60372e-06
5.9119e-06
5.48008e-06
5.23648e-06
5.13275e-06
5.17483e-06
5.46875e-06
6.32542e-06
8.46352e-06
1.17084e-05
6.01942e-06
2.10441e-06
1.9075e-07
1.07462e-07
2.7703e-06
6.9175e-06
1.52187e-05
2.75369e-05
3.64082e-05
3.93047e-05
3.85424e-05
3.58641e-05
3.24619e-05
2.91071e-05
2.61646e-05
2.36931e-05
2.16103e-05
1.97895e-05
1.81035e-05
1.64433e-05
1.473e-05
1.29305e-05
1.10836e-05
9.30365e-06
7.76927e-06
6.63365e-06
5.85644e-06
5.36921e-06
5.10459e-06
5.01327e-06
5.09476e-06
5.44912e-06
6.39348e-06
8.66653e-06
1.19232e-05
6.03865e-06
2.12292e-06
1.94501e-07
1.1191e-07
2.79045e-06
6.98719e-06
1.54425e-05
2.78911e-05
3.66509e-05
3.94084e-05
3.85657e-05
3.58689e-05
3.24964e-05
2.91908e-05
2.63117e-05
2.391e-05
2.18968e-05
2.01413e-05
1.85116e-05
1.68919e-05
1.51942e-05
1.33767e-05
1.14732e-05
9.60088e-06
7.94893e-06
6.70085e-06
5.83319e-06
5.28459e-06
4.992e-06
4.9057e-06
5.01999e-06
5.43021e-06
6.46059e-06
8.86952e-06
1.21328e-05
6.06147e-06
2.14144e-06
1.98012e-07
1.16277e-07
2.80909e-06
7.05316e-06
1.56569e-05
2.8224e-05
3.68674e-05
3.94875e-05
3.85649e-05
3.58492e-05
3.2507e-05
2.92542e-05
2.64421e-05
2.41139e-05
2.21749e-05
2.04905e-05
1.89241e-05
1.73527e-05
1.56791e-05
1.38513e-05
1.18976e-05
9.93699e-06
8.16987e-06
6.80691e-06
5.84512e-06
5.23027e-06
4.90348e-06
4.81522e-06
4.95594e-06
5.41772e-06
6.53261e-06
9.07731e-06
1.23386e-05
6.08694e-06
2.15984e-06
2.01277e-07
1.2071e-07
2.82829e-06
7.12108e-06
1.58762e-05
2.85578e-05
3.70785e-05
3.95607e-05
3.85586e-05
3.58243e-05
3.25133e-05
2.93169e-05
2.65705e-05
2.4314e-05
2.24495e-05
2.08385e-05
1.93395e-05
1.78226e-05
1.61808e-05
1.43511e-05
1.23543e-05
1.03107e-05
8.4313e-06
6.95106e-06
5.89155e-06
5.2058e-06
4.83873e-06
4.74133e-06
4.90129e-06
5.40848e-06
6.60367e-06
9.2836e-06
1.25385e-05
6.11516e-06
2.17813e-06
2.04308e-07
1.25061e-07
2.84642e-06
7.18638e-06
1.60877e-05
2.88724e-05
3.72661e-05
3.96109e-05
3.85284e-05
3.57741e-05
3.24936e-05
2.93578e-05
2.66792e-05
2.44975e-05
2.27119e-05
2.11793e-05
1.97535e-05
1.82976e-05
1.6695e-05
1.48711e-05
1.28384e-05
1.07172e-05
8.72936e-06
7.13157e-06
5.97249e-06
5.21251e-06
4.80012e-06
4.68724e-06
4.86005e-06
5.40824e-06
6.68308e-06
9.49264e-06
1.27336e-05
6.14528e-06
2.19618e-06
2.07112e-07
1.29456e-07
2.86524e-06
7.25399e-06
1.63032e-05
2.9186e-05
3.74467e-05
3.96528e-05
3.84894e-05
3.57147e-05
3.24641e-05
2.93875e-05
2.67769e-05
2.46709e-05
2.29655e-05
2.15134e-05
2.01641e-05
1.87742e-05
1.72175e-05
1.54073e-05
1.33464e-05
1.11538e-05
9.06141e-06
7.34634e-06
6.08627e-06
5.2491e-06
4.78676e-06
4.65245e-06
4.83191e-06
5.41604e-06
6.76718e-06
9.70226e-06
1.29249e-05
6.17805e-06
2.21406e-06
2.09705e-07
1.33777e-07
2.88351e-06
7.32103e-06
1.65123e-05
2.94819e-05
3.76049e-05
3.96723e-05
3.84276e-05
3.5632e-05
3.24113e-05
2.93951e-05
2.68549e-05
2.48276e-05
2.32054e-05
2.18373e-05
2.05683e-05
1.92493e-05
1.77444e-05
1.59547e-05
1.38728e-05
1.16149e-05
9.42271e-06
7.59262e-06
6.23166e-06
5.31552e-06
4.79964e-06
4.63886e-06
4.81935e-06
5.43437e-06
6.85793e-06
9.91473e-06
1.3113e-05
6.21286e-06
2.23172e-06
2.12093e-07
1.38096e-07
2.90193e-06
7.39002e-06
1.67223e-05
2.97741e-05
3.77544e-05
3.96809e-05
3.83535e-05
3.5537e-05
3.23471e-05
2.93913e-05
2.69214e-05
2.49728e-05
2.34345e-05
2.21514e-05
2.0965e-05
1.97203e-05
1.82722e-05
1.65097e-05
1.44138e-05
1.20974e-05
9.81044e-06
7.86815e-06
6.40681e-06
5.41021e-06
4.83751e-06
4.64555e-06
4.82167e-06
5.46236e-06
6.95379e-06
1.01282e-05
1.32996e-05
6.25023e-06
2.24923e-06
2.14296e-07
1.42312e-07
2.91889e-06
7.45502e-06
1.69259e-05
3.00533e-05
3.78853e-05
3.96702e-05
3.82603e-05
3.54215e-05
3.22583e-05
2.93619e-05
2.69664e-05
2.51009e-05
2.36492e-05
2.24533e-05
2.13518e-05
2.01844e-05
1.87973e-05
1.70673e-05
1.49637e-05
1.2595e-05
1.02191e-05
8.16918e-06
6.60955e-06
5.53232e-06
4.90068e-06
4.67375e-06
4.84073e-06
5.50223e-06
7.05717e-06
1.03451e-05
1.34852e-05
6.28958e-06
2.26652e-06
2.16322e-07
1.46523e-07
2.93589e-06
7.52126e-06
1.71335e-05
3.03302e-05
3.80079e-05
3.965e-05
3.81567e-05
3.52963e-05
3.21627e-05
2.93258e-05
2.70003e-05
2.52138e-05
2.38496e-05
2.27427e-05
2.17273e-05
2.06394e-05
1.93169e-05
1.76244e-05
1.55192e-05
1.31048e-05
1.06458e-05
8.49284e-06
6.83718e-06
5.6795e-06
4.98725e-06
4.72213e-06
4.87567e-06
5.55326e-06
7.16709e-06
1.05639e-05
1.36701e-05
6.33113e-06
2.28366e-06
2.18192e-07
1.50634e-07
2.95191e-06
7.58497e-06
1.7335e-05
3.05915e-05
3.81111e-05
3.96101e-05
3.80325e-05
3.5149e-05
3.20437e-05
2.92677e-05
2.70175e-05
2.53139e-05
2.40345e-05
2.30163e-05
2.20898e-05
2.10838e-05
1.98284e-05
1.81771e-05
1.60755e-05
1.36213e-05
1.10856e-05
8.83553e-06
7.08728e-06
5.85028e-06
5.09663e-06
4.79091e-06
4.92744e-06
5.61703e-06
7.28569e-06
1.07869e-05
1.38546e-05
6.37435e-06
2.30059e-06
2.19916e-07
1.54697e-07
2.96765e-06
7.64853e-06
1.75369e-05
3.0847e-05
3.82039e-05
3.95586e-05
3.78963e-05
3.49904e-05
3.19139e-05
2.91984e-05
2.70226e-05
2.5402e-05
2.42097e-05
2.32786e-05
2.24392e-05
2.1516e-05
2.03298e-05
1.8723e-05
1.66295e-05
1.41415e-05
1.15353e-05
9.19406e-06
7.35675e-06
6.04188e-06
5.22651e-06
4.87839e-06
4.99497e-06
5.69302e-06
7.41279e-06
1.10141e-05
1.40397e-05
6.41957e-06
2.31743e-06
2.21509e-07
1.58656e-07
2.98251e-06
7.70992e-06
1.77332e-05
3.10875e-05
3.82782e-05
3.94881e-05
3.77402e-05
3.48111e-05
3.17637e-05
2.91099e-05
2.70109e-05
2.54751e-05
2.43711e-05
2.3529e-05
2.27761e-05
2.19351e-05
2.08194e-05
1.92594e-05
1.7178e-05
1.46616e-05
1.19916e-05
9.56593e-06
7.64375e-06
6.25288e-06
5.37593e-06
4.98414e-06
5.07847e-06
5.78208e-06
7.54984e-06
1.12471e-05
1.42256e-05
6.46644e-06
2.33415e-06
2.22979e-07
1.62552e-07
2.99711e-06
7.771e-06
1.79289e-05
3.13205e-05
3.83409e-05
3.94049e-05
3.75708e-05
3.46189e-05
3.16012e-05
2.90094e-05
2.69876e-05
2.55366e-05
2.45207e-05
2.37672e-05
2.3101e-05
2.23408e-05
2.12952e-05
1.9784e-05
1.77185e-05
1.51792e-05
1.24521e-05
9.94892e-06
7.94621e-06
6.4814e-06
5.54319e-06
5.10681e-06
5.17698e-06
5.88365e-06
7.69651e-06
1.14856e-05
1.44135e-05
6.51535e-06
2.35085e-06
2.24341e-07
1.66334e-07
3.01084e-06
7.82984e-06
1.81191e-05
3.15395e-05
3.83862e-05
3.93033e-05
3.73822e-05
3.44074e-05
3.14202e-05
2.88918e-05
2.69491e-05
2.55845e-05
2.46576e-05
2.39929e-05
2.34134e-05
2.27339e-05
2.17568e-05
2.02952e-05
1.82486e-05
1.56915e-05
1.29144e-05
1.03412e-05
8.26282e-06
6.72647e-06
5.72761e-06
5.24597e-06
5.29044e-06
5.99805e-06
7.85359e-06
1.17308e-05
1.46034e-05
6.56613e-06
2.36754e-06
2.25607e-07
1.70025e-07
3.02416e-06
7.88782e-06
1.83075e-05
3.17497e-05
3.8419e-05
3.91877e-05
3.71789e-05
3.41818e-05
3.1226e-05
2.87618e-05
2.68994e-05
2.56216e-05
2.47833e-05
2.42069e-05
2.37131e-05
2.31134e-05
2.22043e-05
2.07903e-05
1.87654e-05
1.61961e-05
1.33762e-05
1.07408e-05
8.59198e-06
6.98674e-06
5.92802e-06
5.40065e-06
5.41809e-06
6.12478e-06
8.02065e-06
1.1982e-05
1.47961e-05
6.61908e-06
2.38427e-06
2.26794e-07
1.73591e-07
3.03667e-06
7.94366e-06
1.84905e-05
3.19464e-05
3.84349e-05
3.90539e-05
3.69567e-05
3.39379e-05
3.10149e-05
2.86167e-05
2.68363e-05
2.56466e-05
2.48975e-05
2.44092e-05
2.40004e-05
2.34795e-05
2.26376e-05
2.12713e-05
1.92668e-05
1.66895e-05
1.38345e-05
1.11456e-05
8.9322e-06
7.26125e-06
6.14383e-06
5.57052e-06
5.55985e-06
6.26404e-06
8.19828e-06
1.22402e-05
1.49922e-05
6.67416e-06
2.4011e-06
2.27918e-07
1.7705e-07
3.0487e-06
7.99838e-06
1.8671e-05
3.21332e-05
3.84372e-05
3.89047e-05
3.67183e-05
3.36787e-05
3.07902e-05
2.84594e-05
2.67625e-05
2.56616e-05
2.50016e-05
2.46005e-05
2.42753e-05
2.38313e-05
2.30548e-05
2.17356e-05
1.97536e-05
1.71716e-05
1.42879e-05
1.15535e-05
9.28153e-06
7.54841e-06
6.37387e-06
5.75482e-06
5.7153e-06
6.41568e-06
8.38646e-06
1.25053e-05
1.51924e-05
6.73156e-06
2.41807e-06
2.28992e-07
1.80375e-07
3.05994e-06
8.05092e-06
1.8846e-05
3.23065e-05
3.84226e-05
3.87368e-05
3.64608e-05
3.34016e-05
3.05496e-05
2.82884e-05
2.6677e-05
2.5666e-05
2.50954e-05
2.4781e-05
2.45382e-05
2.41693e-05
2.34559e-05
2.21822e-05
2.0223e-05
1.76398e-05
1.47347e-05
1.19635e-05
9.63892e-06
7.8473e-06
6.61738e-06
5.95303e-06
5.88425e-06
6.57993e-06
8.58585e-06
1.27782e-05
1.53973e-05
6.79147e-06
2.43528e-06
2.30033e-07
1.83578e-07
3.07063e-06
8.102e-06
1.90173e-05
3.24688e-05
3.83932e-05
3.85519e-05
3.61856e-05
3.31085e-05
3.02955e-05
2.81059e-05
2.65816e-05
2.56613e-05
2.51799e-05
2.49515e-05
2.47895e-05
2.44934e-05
2.38406e-05
2.26104e-05
2.06739e-05
1.80923e-05
1.51713e-05
1.23722e-05
1.00023e-05
8.15666e-06
6.87363e-06
6.16473e-06
6.0665e-06
6.75676e-06
8.79664e-06
1.30592e-05
1.56074e-05
6.85413e-06
2.45281e-06
2.31057e-07
1.8664e-07
3.08052e-06
8.15083e-06
1.9183e-05
3.26173e-05
3.83464e-05
3.83475e-05
3.58909e-05
3.27979e-05
3.00268e-05
2.79112e-05
2.64761e-05
2.56475e-05
2.52554e-05
2.5112e-05
2.50291e-05
2.48033e-05
2.42081e-05
2.30188e-05
2.11044e-05
1.85275e-05
1.55974e-05
1.27787e-05
1.03702e-05
8.47516e-06
7.14169e-06
6.38941e-06
6.26198e-06
6.94658e-06
9.01962e-06
1.33492e-05
1.58232e-05
6.91966e-06
2.47073e-06
2.32078e-07
1.89574e-07
3.08978e-06
8.19789e-06
1.93442e-05
3.27537e-05
3.82833e-05
3.81243e-05
3.55774e-05
3.24713e-05
2.97451e-05
2.77061e-05
2.6362e-05
2.5626e-05
2.53229e-05
2.52634e-05
2.52576e-05
2.50993e-05
2.45582e-05
2.34066e-05
2.15132e-05
1.89432e-05
1.60104e-05
1.31808e-05
1.07411e-05
8.80175e-06
7.42087e-06
6.6267e-06
6.47053e-06
7.1494e-06
9.25518e-06
1.36488e-05
1.60456e-05
6.98842e-06
2.48914e-06
2.3311e-07
1.92373e-07
3.09826e-06
8.24272e-06
1.94999e-05
3.28759e-05
3.82017e-05
3.78804e-05
3.52439e-05
3.21278e-05
2.94502e-05
2.74906e-05
2.62396e-05
2.5597e-05
2.53829e-05
2.54063e-05
2.54754e-05
2.53815e-05
2.48909e-05
2.37736e-05
2.18994e-05
1.93382e-05
1.64084e-05
1.35761e-05
1.11123e-05
9.13433e-06
7.70971e-06
6.87571e-06
6.692e-06
7.36626e-06
9.50411e-06
1.3959e-05
1.62745e-05
7.06027e-06
2.50807e-06
2.34166e-07
1.95054e-07
3.10608e-06
8.28572e-06
1.96509e-05
3.2985e-05
3.8102e-05
3.76161e-05
3.4891e-05
3.17687e-05
2.91436e-05
2.72662e-05
2.61102e-05
2.55619e-05
2.54365e-05
2.55415e-05
2.56834e-05
2.56505e-05
2.52062e-05
2.41192e-05
2.2262e-05
1.97108e-05
1.67896e-05
1.39626e-05
1.14824e-05
9.47167e-06
8.00742e-06
7.13616e-06
6.92655e-06
7.59744e-06
9.76741e-06
1.4281e-05
1.6511e-05
7.13556e-06
2.52762e-06
2.35258e-07
1.97616e-07
3.11314e-06
8.32658e-06
1.97966e-05
3.30796e-05
3.79824e-05
3.73297e-05
3.45177e-05
3.13934e-05
2.8825e-05
2.70329e-05
2.59741e-05
2.55212e-05
2.54845e-05
2.56699e-05
2.58823e-05
2.5907e-05
2.55046e-05
2.44436e-05
2.26007e-05
2.00604e-05
1.71526e-05
1.4338e-05
1.18487e-05
9.81172e-06
8.3127e-06
7.4074e-06
7.17408e-06
7.84335e-06
1.00464e-05
1.46163e-05
1.67546e-05
7.21409e-06
2.5478e-06
2.36398e-07
2.00072e-07
3.11952e-06
8.36551e-06
1.99373e-05
3.31599e-05
3.78429e-05
3.70212e-05
3.41245e-05
3.10028e-05
2.84955e-05
2.67918e-05
2.58323e-05
2.54758e-05
2.55277e-05
2.57926e-05
2.60731e-05
2.61518e-05
2.57869e-05
2.47474e-05
2.2916e-05
2.0387e-05
1.74971e-05
1.47007e-05
1.2209e-05
1.0152e-05
8.62326e-06
7.68792e-06
7.4336e-06
8.10333e-06
1.03412e-05
1.49649e-05
1.70048e-05
7.29591e-06
2.56868e-06
2.37596e-07
2.0242e-07
3.12512e-06
8.40221e-06
2.00725e-05
3.32247e-05
3.76821e-05
3.66891e-05
3.37103e-05
3.05966e-05
2.81551e-05
2.65431e-05
2.56852e-05
2.54261e-05
2.55668e-05
2.59101e-05
2.62565e-05
2.63858e-05
2.60539e-05
2.50313e-05
2.32088e-05
2.06918e-05
1.78244e-05
1.50499e-05
1.25613e-05
1.04907e-05
8.93819e-06
7.97701e-06
7.70488e-06
8.37789e-06
1.0653e-05
1.53285e-05
1.7261e-05
7.38073e-06
2.59027e-06
2.38851e-07
2.04673e-07
3.13002e-06
8.43692e-06
2.02024e-05
3.32744e-05
3.75e-05
3.63338e-05
3.32759e-05
3.01757e-05
2.78049e-05
2.62879e-05
2.55336e-05
2.53732e-05
2.56028e-05
2.60235e-05
2.64335e-05
2.66097e-05
2.63062e-05
2.52963e-05
2.34803e-05
2.09766e-05
1.81367e-05
1.53861e-05
1.29043e-05
1.08252e-05
9.25411e-06
8.27169e-06
7.98633e-06
8.66674e-06
1.09825e-05
1.57079e-05
1.75224e-05
7.46822e-06
2.61254e-06
2.40164e-07
2.06833e-07
3.13417e-06
8.46948e-06
2.03268e-05
3.33082e-05
3.72957e-05
3.59543e-05
3.2821e-05
2.97404e-05
2.74453e-05
2.60264e-05
2.53779e-05
2.53172e-05
2.56359e-05
2.61333e-05
2.66049e-05
2.68246e-05
2.65451e-05
2.55438e-05
2.3732e-05
2.12432e-05
1.84351e-05
1.57094e-05
1.32373e-05
1.11544e-05
9.57038e-06
8.57241e-06
8.27798e-06
8.97014e-06
1.13305e-05
1.61041e-05
1.77891e-05
7.55837e-06
2.63555e-06
2.41533e-07
2.08913e-07
3.13764e-06
8.50009e-06
2.04461e-05
3.33265e-05
3.70692e-05
3.55512e-05
3.23468e-05
2.92921e-05
2.70775e-05
2.57599e-05
2.5219e-05
2.5259e-05
2.56669e-05
2.624e-05
2.67713e-05
2.70311e-05
2.67715e-05
2.57746e-05
2.3965e-05
2.14918e-05
1.87188e-05
1.60196e-05
1.35599e-05
1.14771e-05
9.88479e-06
8.876e-06
8.57737e-06
9.287e-06
1.16969e-05
1.6517e-05
1.80597e-05
7.65055e-06
2.65918e-06
2.42959e-07
2.10916e-07
3.1404e-06
8.52861e-06
2.05598e-05
3.33285e-05
3.682e-05
3.51241e-05
3.18535e-05
2.88313e-05
2.67024e-05
2.54891e-05
2.50577e-05
2.51993e-05
2.56965e-05
2.63447e-05
2.69337e-05
2.72308e-05
2.6987e-05
2.59908e-05
2.4181e-05
2.17236e-05
1.8988e-05
1.63168e-05
1.38719e-05
1.1793e-05
1.01969e-05
9.18241e-06
8.8851e-06
9.61686e-06
1.20809e-05
1.69459e-05
1.83339e-05
7.74482e-06
2.68349e-06
2.44448e-07
2.12854e-07
3.14253e-06
8.55533e-06
2.06687e-05
3.33146e-05
3.65481e-05
3.46738e-05
3.13426e-05
2.83599e-05
2.63215e-05
2.52155e-05
2.48952e-05
2.51388e-05
2.57252e-05
2.64476e-05
2.70926e-05
2.74239e-05
2.71923e-05
2.61932e-05
2.43811e-05
2.19394e-05
1.92423e-05
1.66004e-05
1.41727e-05
1.2101e-05
1.05054e-05
9.48985e-06
9.19902e-06
9.9589e-06
1.24825e-05
1.73903e-05
1.86102e-05
7.84045e-06
2.70834e-06
2.45999e-07
2.14728e-07
3.14394e-06
8.57998e-06
2.0772e-05
3.3284e-05
3.62532e-05
3.42002e-05
3.08144e-05
2.78782e-05
2.59354e-05
2.49403e-05
2.47321e-05
2.50777e-05
2.57528e-05
2.65486e-05
2.7248e-05
2.76112e-05
2.73885e-05
2.63834e-05
2.45672e-05
2.21412e-05
1.94834e-05
1.68716e-05
1.44628e-05
1.24011e-05
1.08097e-05
9.79768e-06
9.5185e-06
1.03125e-05
1.29003e-05
1.78487e-05
1.88874e-05
7.9371e-06
2.73369e-06
2.47616e-07
2.1654e-07
3.14468e-06
8.60262e-06
2.08696e-05
3.32366e-05
3.59354e-05
3.37047e-05
3.02709e-05
2.7388e-05
2.55459e-05
2.46669e-05
2.45705e-05
2.50165e-05
2.57791e-05
2.66472e-05
2.73995e-05
2.7792e-05
2.75753e-05
2.65616e-05
2.47401e-05
2.23302e-05
1.97118e-05
1.71308e-05
1.47424e-05
1.26932e-05
1.11094e-05
1.01049e-05
9.84239e-06
1.06765e-05
1.33336e-05
1.83188e-05
1.91638e-05
8.03429e-06
2.75948e-06
2.49295e-07
2.18296e-07
3.14477e-06
8.62338e-06
2.09621e-05
3.31729e-05
3.55951e-05
3.31875e-05
2.97129e-05
2.68899e-05
2.51522e-05
2.4392e-05
2.44076e-05
2.49538e-05
2.58037e-05
2.67435e-05
2.75473e-05
2.79668e-05
2.77533e-05
2.6729e-05
2.49019e-05
2.25091e-05
1.99295e-05
1.73791e-05
1.50121e-05
1.29774e-05
1.14042e-05
1.04113e-05
1.01703e-05
1.10505e-05
1.3782e-05
1.87998e-05
1.94378e-05
8.13114e-06
2.78552e-06
2.51025e-07
2.19997e-07
3.14421e-06
8.64217e-06
2.10491e-05
3.30929e-05
3.5233e-05
3.26505e-05
2.91428e-05
2.63862e-05
2.47558e-05
2.41149e-05
2.42428e-05
2.48895e-05
2.58268e-05
2.68375e-05
2.76911e-05
2.81354e-05
2.79228e-05
2.68867e-05
2.50547e-05
2.26815e-05
2.01391e-05
1.76185e-05
1.52734e-05
1.32547e-05
1.16944e-05
1.07164e-05
1.05014e-05
1.14334e-05
1.42438e-05
1.92901e-05
1.97094e-05
8.22775e-06
2.81182e-06
2.528e-07
2.21644e-07
3.14297e-06
8.659e-06
2.11309e-05
3.29965e-05
3.48484e-05
3.20934e-05
2.8561e-05
2.58778e-05
2.43582e-05
2.38383e-05
2.40788e-05
2.48256e-05
2.58494e-05
2.69299e-05
2.78315e-05
2.8298e-05
2.80842e-05
2.70357e-05
2.5201e-05
2.28508e-05
2.03427e-05
1.78502e-05
1.55269e-05
1.35256e-05
1.19806e-05
1.10204e-05
1.08356e-05
1.18245e-05
1.4718e-05
1.97879e-05
1.99762e-05
8.32313e-06
2.83825e-06
2.54624e-07
2.2325e-07
3.14121e-06
8.67424e-06
2.1208e-05
3.28845e-05
3.44428e-05
3.15187e-05
2.79702e-05
2.53666e-05
2.39605e-05
2.35621e-05
2.39151e-05
2.47618e-05
2.58716e-05
2.70207e-05
2.79684e-05
2.84548e-05
2.82376e-05
2.71765e-05
2.53417e-05
2.30181e-05
2.05416e-05
1.80751e-05
1.57734e-05
1.37906e-05
1.2263e-05
1.1324e-05
1.11735e-05
1.22245e-05
1.52043e-05
2.02921e-05
2.02387e-05
8.41721e-06
2.8649e-06
2.5649e-07
2.2481e-07
3.13891e-06
8.68797e-06
2.12809e-05
3.2756e-05
3.40148e-05
3.09259e-05
2.73708e-05
2.48534e-05
2.35635e-05
2.32872e-05
2.37527e-05
2.46992e-05
2.58945e-05
2.71112e-05
2.8103e-05
2.86067e-05
2.83842e-05
2.73104e-05
2.54775e-05
2.31835e-05
2.07367e-05
1.82947e-05
1.60143e-05
1.40506e-05
1.25419e-05
1.16262e-05
1.15134e-05
1.26314e-05
1.57006e-05
2.07999e-05
2.04953e-05
8.50965e-06
2.89158e-06
2.58387e-07
2.26332e-07
3.13605e-06
8.70005e-06
2.13494e-05
3.26121e-05
3.35658e-05
3.03168e-05
2.67646e-05
2.43395e-05
2.31679e-05
2.30141e-05
2.35918e-05
2.46375e-05
2.59178e-05
2.72008e-05
2.82348e-05
2.87535e-05
2.85235e-05
2.74364e-05
2.5607e-05
2.33444e-05
2.09265e-05
1.85085e-05
1.62497e-05
1.43065e-05
1.28188e-05
1.1929e-05
1.18575e-05
1.30467e-05
1.62069e-05
2.13103e-05
2.07462e-05
8.60029e-06
2.9182e-06
2.60314e-07
2.27811e-07
3.13267e-06
8.71047e-06
2.14127e-05
3.24508e-05
3.3095e-05
2.96922e-05
2.61532e-05
2.38266e-05
2.27753e-05
2.2744e-05
2.34333e-05
2.45778e-05
2.59424e-05
2.72908e-05
2.83653e-05
2.88967e-05
2.86572e-05
2.75562e-05
2.57312e-05
2.35003e-05
2.11106e-05
1.87163e-05
1.64794e-05
1.45578e-05
1.30926e-05
1.2231e-05
1.2204e-05
1.3469e-05
1.67219e-05
2.18216e-05
2.09905e-05
8.68873e-06
2.94461e-06
2.62266e-07
2.29255e-07
3.12887e-06
8.71979e-06
2.14727e-05
3.22734e-05
3.26027e-05
2.90535e-05
2.55383e-05
2.33159e-05
2.23867e-05
2.24775e-05
2.32776e-05
2.45202e-05
2.59685e-05
2.73813e-05
2.84948e-05
2.90369e-05
2.87866e-05
2.76715e-05
2.5852e-05
2.36518e-05
2.12889e-05
1.89176e-05
1.67031e-05
1.48042e-05
1.33636e-05
1.25334e-05
1.25553e-05
1.38987e-05
1.72452e-05
2.23331e-05
2.12284e-05
8.77512e-06
2.97084e-06
2.64239e-07