/*--------------------------------*- C++ -*----------------------------------*\
| =========                 |                                                 |
| \\      /  F ield         | OpenFOAM: The Open Source CFD Toolbox           |
|  \\    /   O peration     | Version:  v2006                                 |
|   \\  /    A nd           | Website:  www.openfoam.com                      |
|    \\/     M anipulation  |                                                 |
\*---------------------------------------------------------------------------*/
FoamFile
{
    version     2.0;
    format      ascii;
    class       surfaceScalarField;
    location    "66";
    object      phi;
}
// * * * * * * * * * * * * * * * * * * * * * * * * * * * * * * * * * * * * * //

dimensions      [1 0 -1 0 0 0 0];
oriented        oriented;


internalField   nonuniform List<scalar> 
228225
(
-3.24966e-06
-1.99848e-09
1.32549e-07
-2.91724e-06
-4.7081e-07
1.38367e-07
-2.23982e-06
-8.17151e-07
1.40062e-07
-1.3051e-06
-1.07881e-06
1.44311e-07
-1.93895e-07
-1.26124e-06
1.50251e-07
1.02171e-06
-1.37172e-06
1.56315e-07
2.28604e-06
-1.42537e-06
1.61212e-07
3.55799e-06
-1.43639e-06
1.6455e-07
4.8075e-06
-1.41569e-06
1.66263e-07
6.01143e-06
-1.37031e-06
1.66415e-07
7.15117e-06
-1.30487e-06
1.65125e-07
8.21124e-06
-1.22264e-06
1.62523e-07
9.17854e-06
-1.12613e-06
1.58737e-07
1.00417e-05
-1.01716e-06
1.53892e-07
1.07903e-05
-8.96904e-07
1.48126e-07
1.14157e-05
-7.67239e-07
1.41543e-07
1.19119e-05
-6.30702e-07
1.34234e-07
1.22749e-05
-4.89503e-07
1.2628e-07
1.25024e-05
-3.45693e-07
1.17757e-07
1.25948e-05
-2.01509e-07
1.08732e-07
1.25559e-05
-6.07865e-08
9.92662e-08
1.23813e-05
8.47256e-08
8.93978e-08
1.20732e-05
2.28447e-07
7.91664e-08
1.16395e-05
3.64494e-07
6.86163e-08
1.10883e-05
4.92913e-07
5.77599e-08
1.04287e-05
6.12473e-07
4.6582e-08
9.67127e-06
7.21783e-07
3.50545e-08
8.82777e-06
8.19801e-07
2.31374e-08
7.90895e-06
9.07644e-07
1.06454e-08
6.91715e-06
9.93359e-07
-2.06878e-09
5.82628e-06
1.10175e-06
-1.13714e-08
4.56438e-06
1.28162e-06
-2.01506e-08
3.0307e-06
1.55814e-06
-2.46858e-08
1.28368e-06
1.76619e-06
-1.88609e-08
1.28536e-06
-5.38521e-10
-4.77457e-08
-6.41391e-08
1.09517e-07
6.15271e-08
-7.36628e-07
1.56901e-07
3.36176e-07
-1.27265e-06
1.8051e-07
7.69165e-07
-1.70485e-06
1.93296e-07
1.34161e-06
-2.03394e-06
2.00446e-07
2.02813e-06
-2.26291e-06
2.04849e-07
2.79595e-06
-2.40061e-06
2.07662e-07
3.61238e-06
-2.46161e-06
2.09075e-07
4.44934e-06
-2.46141e-06
2.09044e-07
5.28383e-06
-2.41216e-06
2.07641e-07
6.09658e-06
-2.32235e-06
2.04995e-07
6.87126e-06
-2.19831e-06
2.01241e-07
7.59416e-06
-2.04528e-06
1.96508e-07
8.25368e-06
-1.86744e-06
1.90986e-07
8.83984e-06
-1.66788e-06
1.85012e-07
9.34364e-06
-1.44969e-06
1.78795e-07
9.75711e-06
-1.21641e-06
1.72352e-07
1.00733e-05
-9.71377e-07
1.65707e-07
1.02866e-05
-7.17767e-07
1.58858e-07
1.0392e-05
-4.58762e-07
1.51799e-07
1.03847e-05
-1.98126e-07
1.44508e-07
1.02708e-05
6.15367e-08
1.36955e-07
1.00448e-05
3.25188e-07
1.29058e-07
9.70899e-06
5.79347e-07
1.20722e-07
9.26567e-06
8.24124e-07
1.11798e-07
8.71833e-06
1.05737e-06
1.02069e-07
8.07101e-06
1.27746e-06
9.12492e-08
7.32641e-06
1.48494e-06
7.90317e-08
6.48199e-06
1.6864e-06
6.52242e-08
5.52545e-06
1.8998e-06
4.96761e-08
4.43471e-06
2.15984e-06
3.22837e-08
3.19708e-06
2.50496e-06
1.40651e-08
1.87197e-06
2.88428e-06
-9.29239e-10
6.55768e-07
2.98557e-06
-2.49494e-09
1.93453e-06
8.03272e-09
1.90806e-07
-3.2898e-07
7.39845e-08
4.97471e-07
-1.16445e-06
1.20809e-07
9.22369e-07
-1.84582e-06
1.48105e-07
1.43797e-06
-2.38533e-06
1.64844e-07
2.01697e-06
-2.78765e-06
1.74645e-07
2.63853e-06
-3.06451e-06
1.79992e-07
3.28693e-06
-3.23189e-06
1.82887e-07
3.9481e-06
-3.30751e-06
1.84757e-07
4.60795e-06
-3.30733e-06
1.86119e-07
5.25312e-06
-3.24427e-06
1.86979e-07
5.87174e-06
-3.12832e-06
1.87385e-07
6.45268e-06
-2.96661e-06
1.8739e-07
6.98547e-06
-2.76503e-06
1.86998e-07
7.46102e-06
-2.52915e-06
1.86196e-07
7.87214e-06
-2.26392e-06
1.84953e-07
8.21307e-06
-1.97382e-06
1.83225e-07
8.47873e-06
-1.66303e-06
1.8097e-07
8.66465e-06
-1.33546e-06
1.78165e-07
8.76696e-06
-9.94875e-07
1.74774e-07
8.78231e-06
-6.44913e-07
1.70759e-07
8.70728e-06
-2.89252e-07
1.661e-07
8.53969e-06
6.82331e-08
1.60793e-07
8.28529e-06
4.24621e-07
1.54839e-07
7.9418e-06
7.74466e-07
1.48201e-07
7.51102e-06
1.11389e-06
1.4081e-07
6.9962e-06
1.43944e-06
1.32511e-07
6.40068e-06
1.74968e-06
1.23016e-07
5.72572e-06
2.04773e-06
1.11878e-07
4.96831e-06
2.34503e-06
9.84856e-08
4.1203e-06
2.66553e-06
8.20085e-08
3.1754e-06
3.04293e-06
6.16341e-08
2.15916e-06
3.48277e-06
3.84511e-08
1.17264e-06
3.85286e-06
1.83363e-08
3.66245e-07
3.78424e-06
8.66015e-09
2.29169e-06
1.07142e-08
1.70786e-07
-5.65692e-07
6.52827e-08
5.66305e-07
-1.67462e-06
1.15051e-07
1.11602e-06
-2.53764e-06
1.41849e-07
1.74831e-06
-3.17465e-06
1.56643e-07
2.40659e-06
-3.61075e-06
1.64672e-07
3.0554e-06
-3.88236e-06
1.68978e-07
3.67868e-06
-4.0265e-06
1.71238e-07
4.2711e-06
-4.07238e-06
1.72323e-07
4.83078e-06
-4.03983e-06
1.72702e-07
5.35612e-06
-3.9423e-06
1.72585e-07
5.84504e-06
-3.78953e-06
1.72192e-07
6.29369e-06
-3.58724e-06
1.71901e-07
6.69631e-06
-3.33967e-06
1.71939e-07
7.0469e-06
-3.05224e-06
1.72396e-07
7.33978e-06
-2.7302e-06
1.73308e-07
7.56992e-06
-2.37871e-06
1.7465e-07
7.73325e-06
-2.00279e-06
1.76335e-07
7.82673e-06
-1.60725e-06
1.78221e-07
7.84825e-06
-1.19658e-06
1.80086e-07
7.79638e-06
-7.74855e-07
1.81703e-07
7.67024e-06
-3.46008e-07
1.82784e-07
7.46957e-06
8.57658e-08
1.83e-07
7.19275e-06
5.19301e-07
1.82005e-07
6.84079e-06
9.4679e-07
1.79469e-07
6.41536e-06
1.36405e-06
1.75101e-07
5.91936e-06
1.76657e-06
1.68665e-07
5.35628e-06
2.1526e-06
1.59967e-07
4.7282e-06
2.52681e-06
1.48781e-07
4.03409e-06
2.90427e-06
1.34661e-07
3.27133e-06
3.3115e-06
1.16623e-07
2.44743e-06
3.77334e-06
9.34281e-08
1.60634e-06
4.25789e-06
6.61523e-08
8.38111e-07
4.5802e-06
4.14465e-08
2.44356e-07
4.35322e-06
2.58598e-08
2.52038e-06
1.74262e-08
1.73682e-07
-7.89022e-07
4.94348e-08
5.58596e-07
-2.14758e-06
8.79424e-08
1.06519e-06
-3.15223e-06
1.07718e-07
1.62369e-06
-3.85163e-06
1.18255e-07
2.18622e-06
-4.297e-06
1.23608e-07
2.72953e-06
-4.55133e-06
1.25593e-07
3.24716e-06
-4.66925e-06
1.25033e-07
3.7396e-06
-4.68746e-06
1.22549e-07
4.20749e-06
-4.62653e-06
1.18709e-07
4.65001e-06
-4.49911e-06
1.14211e-07
5.06401e-06
-4.31339e-06
1.09787e-07
5.44424e-06
-4.07362e-06
1.06079e-07
5.78443e-06
-3.78349e-06
1.03549e-07
6.07785e-06
-3.44819e-06
1.02447e-07
6.31822e-06
-3.07361e-06
1.02959e-07
6.50042e-06
-2.6662e-06
1.05204e-07
6.62093e-06
-2.23262e-06
1.09235e-07
6.67795e-06
-1.77937e-06
1.15002e-07
6.67121e-06
-1.31233e-06
1.22401e-07
6.60152e-06
-8.36463e-07
1.31189e-07
6.47016e-06
-3.55743e-07
1.40973e-07
6.27802e-06
1.26589e-07
1.51181e-07
6.02863e-06
6.07502e-07
1.61049e-07
5.72177e-06
1.08386e-06
1.69635e-07
5.35765e-06
1.5521e-06
1.7591e-07
4.93613e-06
2.00903e-06
1.78895e-07
4.45651e-06
2.45423e-06
1.77815e-07
3.91705e-06
2.89398e-06
1.72127e-07
3.3152e-06
3.34472e-06
1.61256e-07
2.65207e-06
3.83035e-06
1.44205e-07
1.94543e-06
4.35991e-06
1.20111e-07
1.24755e-06
4.86517e-06
9.08976e-08
6.30958e-07
5.13414e-06
6.33082e-08
1.73997e-07
4.76922e-06
4.20926e-08
2.67336e-06
2.28037e-08
1.42117e-07
-9.68184e-07
3.67855e-08
4.69162e-07
-2.54249e-06
6.75298e-08
8.99524e-07
-3.66777e-06
8.52245e-08
1.36972e-06
-4.41793e-06
9.60363e-08
1.84063e-06
-4.86999e-06
1.01871e-07
2.29688e-06
-5.11115e-06
1.03397e-07
2.73657e-06
-5.21023e-06
1.01172e-07
3.161e-06
-5.20803e-06
9.60698e-08
3.56985e-06
-5.12447e-06
8.90038e-08
3.96094e-06
-4.97117e-06
8.08776e-08
4.32905e-06
-4.75407e-06
7.24617e-08
4.66711e-06
-4.47608e-06
6.42835e-08
4.96806e-06
-4.14135e-06
5.67948e-08
5.22477e-06
-3.75545e-06
5.04511e-08
5.43087e-06
-3.32549e-06
4.56746e-08
5.58157e-06
-2.85984e-06
4.28374e-08
5.67402e-06
-2.36745e-06
4.22788e-08
5.70736e-06
-1.85711e-06
4.42765e-08
5.68261e-06
-1.33672e-06
4.90277e-08
5.60213e-06
-8.12743e-07
5.66265e-08
5.46918e-06
-2.89946e-07
6.7035e-08
5.28736e-06
2.2831e-07
7.99741e-08
5.0601e-06
7.39792e-07
9.4836e-08
4.78998e-06
1.2432e-06
1.10663e-07
4.47794e-06
1.73786e-06
1.2615e-07
4.12277e-06
2.22432e-06
1.39753e-07
3.72084e-06
2.70617e-06
1.49865e-07
3.26669e-06
3.19311e-06
1.54904e-07
2.75545e-06
3.70265e-06
1.53243e-07
2.18931e-06
4.25325e-06
1.43246e-07
1.58994e-06
4.8354e-06
1.24021e-07
1.00855e-06
5.34935e-06
9.76135e-08
5.01403e-07
5.57179e-06
7.02341e-08
1.35375e-07
5.09049e-06
4.59293e-08
2.78913e-06
2.14078e-08
1.23423e-07
-1.12004e-06
2.81601e-08
3.99179e-07
-2.87328e-06
5.48749e-08
7.5683e-07
-4.09783e-06
7.23169e-08
1.14628e-06
-4.89156e-06
8.40274e-08
1.53759e-06
-5.35232e-06
9.08388e-08
1.92002e-06
-5.5869e-06
9.31807e-08
2.2928e-06
-5.67476e-06
9.16554e-08
2.65642e-06
-5.65887e-06
8.71289e-08
3.01e-06
-5.55866e-06
8.05366e-08
3.35014e-06
-5.38404e-06
7.26364e-08
3.67108e-06
-5.13907e-06
6.39445e-08
3.96641e-06
-4.8264e-06
5.48877e-08
4.22918e-06
-4.45003e-06
4.58054e-08
4.45269e-06
-4.01613e-06
3.70692e-08
4.63114e-06
-3.53327e-06
2.92402e-08
4.76023e-06
-3.01188e-06
2.28525e-08
4.83761e-06
-2.46327e-06
1.8323e-08
4.86297e-06
-1.89863e-06
1.60379e-08
4.83778e-06
-1.32803e-06
1.63693e-08
4.76489e-06
-7.59632e-07
1.96362e-08
4.64798e-06
-1.99249e-07
2.60708e-08
4.49142e-06
3.48977e-07
3.57475e-08
4.29899e-06
8.83587e-07
4.8503e-08
4.07316e-06
1.40504e-06
6.38406e-08
3.81426e-06
1.9158e-06
8.08202e-08
3.51974e-06
2.42069e-06
9.80209e-08
3.18412e-06
2.92806e-06
1.13603e-07
2.80017e-06
3.45158e-06
1.25393e-07
2.36239e-06
4.00944e-06
1.30943e-07
1.8741e-06
4.61372e-06
1.27859e-07
1.35794e-06
5.23705e-06
1.14697e-07
8.60246e-07
5.75466e-06
9.28361e-08
4.2626e-07
5.93898e-06
6.7567e-08
1.15939e-07
5.35909e-06
4.2894e-08
2.88903e-06
1.78578e-08
9.91664e-08
-1.24121e-06
2.1999e-08
3.27331e-07
-3.14781e-06
4.60541e-08
6.28872e-07
-4.46337e-06
6.36884e-08
9.62827e-07
-5.30202e-06
7.63821e-08
1.3036e-06
-5.77729e-06
8.41588e-08
1.64116e-06
-6.01177e-06
8.72424e-08
1.97357e-06
-6.09357e-06
8.62972e-08
2.3e-06
-6.06771e-06
8.22887e-08
2.61874e-06
-5.95374e-06
7.62127e-08
2.92583e-06
-5.75995e-06
6.87167e-08
3.21588e-06
-5.48943e-06
6.02197e-08
3.48297e-06
-5.14452e-06
5.09497e-08
3.72085e-06
-4.72911e-06
4.11154e-08
3.92362e-06
-4.25011e-06
3.11188e-08
4.08619e-06
-3.7174e-06
2.14553e-08
4.20471e-06
-3.14315e-06
1.26425e-08
4.27679e-06
-2.54067e-06
5.2015e-09
4.30174e-06
-1.9233e-06
-3.86748e-10
4.28056e-06
-1.3033e-06
-3.6764e-09
4.21585e-06
-6.90764e-07
-4.27313e-09
4.11138e-06
-9.33068e-08
-1.59483e-09
3.97223e-06
4.83878e-07
4.11903e-09
3.80289e-06
1.03919e-06
1.36005e-08
3.60664e-06
1.57454e-06
2.662e-08
3.38406e-06
2.09563e-06
4.26258e-08
3.13216e-06
2.61194e-06
6.05331e-08
2.84443e-06
3.13705e-06
7.86521e-08
2.51234e-06
3.68894e-06
9.46696e-08
2.12938e-06
4.2867e-06
1.05699e-07
1.69821e-06
4.93631e-06
1.08672e-07
1.23948e-06
5.59466e-06
1.0138e-07
7.93467e-07
6.11686e-06
8.43198e-08
3.99434e-07
6.27197e-06
6.18536e-08
1.1296e-07
5.60861e-06
3.81719e-08
2.98934e-06
1.44871e-08
8.52549e-08
-1.34608e-06
1.94664e-08
2.83761e-07
-3.39056e-06
4.39847e-08
5.49293e-07
-4.79199e-06
6.28917e-08
8.46673e-07
-5.67628e-06
7.67675e-08
1.15299e-06
-6.16929e-06
8.55938e-08
1.45863e-06
-6.40726e-06
8.97516e-08
1.76097e-06
-6.48602e-06
8.99978e-08
2.05854e-06
-6.45269e-06
8.72897e-08
2.34906e-06
-6.32689e-06
8.25159e-08
2.62884e-06
-6.1161e-06
7.62663e-08
2.89333e-06
-5.82287e-06
6.88638e-08
3.13731e-06
-5.44902e-06
6.04339e-08
3.35553e-06
-4.99854e-06
5.11153e-08
3.54312e-06
-4.47898e-06
4.11912e-08
3.69587e-06
-3.9013e-06
3.10302e-08
3.81048e-06
-3.27895e-06
2.10626e-08
3.88462e-06
-2.6267e-06
1.17687e-08
3.91697e-06
-1.95948e-06
3.7016e-09
3.90752e-06
-1.29123e-06
-2.74321e-09
3.85815e-06
-6.33851e-07
-7.67766e-09
3.77121e-06
3.43732e-09
-9.94633e-09
3.65096e-06
6.13087e-07
-9.10549e-09
3.50128e-06
1.19331e-06
-4.58478e-09
3.32581e-06
1.74634e-06
3.51005e-09
3.12587e-06
2.28018e-06
1.52515e-08
2.89903e-06
2.80816e-06
3.04889e-08
2.63936e-06
3.34874e-06
4.78793e-08
2.33866e-06
3.92428e-06
6.53044e-08
1.99029e-06
4.55534e-06
7.97278e-08
1.596e-06
5.24319e-06
8.75243e-08
1.17368e-06
5.93163e-06
8.56298e-08
7.58421e-07
6.45918e-06
7.3468e-08
3.86482e-07
6.59034e-06
5.4406e-08
1.1177e-07
5.85179e-06
3.27568e-08
3.09146e-06
1.14942e-08
7.5596e-08
-1.43978e-06
1.78438e-08
2.567e-07
-3.61379e-06
4.20997e-08
5.02014e-07
-5.09859e-06
6.11534e-08
7.78993e-07
-6.02878e-06
7.53197e-08
1.06589e-06
-6.54096e-06
8.46083e-08
1.35308e-06
-6.78399e-06
8.94267e-08
1.63734e-06
-6.86092e-06
9.05542e-08
1.91666e-06
-6.82103e-06
8.89464e-08
2.18841e-06
-6.68414e-06
8.54198e-08
2.44903e-06
-6.45734e-06
8.05254e-08
2.69428e-06
-6.14273e-06
7.45127e-08
2.91962e-06
-5.74191e-06
6.74427e-08
3.1207e-06
-5.25913e-06
5.93973e-08
3.29361e-06
-4.70255e-06
5.05702e-08
3.43506e-06
-4.08406e-06
4.12095e-08
3.5425e-06
-3.4181e-06
3.16279e-08
3.61402e-06
-2.72052e-06
2.22001e-08
3.64847e-06
-2.00738e-06
1.33478e-08
3.64553e-06
-1.2939e-06
5.4839e-09
3.60561e-06
-5.93432e-07
-6.30892e-10
3.53208e-06
8.29218e-08
-6.09259e-09
3.42699e-06
7.26846e-07
-8.80905e-09
3.29404e-06
1.33466e-06
-8.54304e-09
3.13592e-06
1.90903e-06
-4.70795e-09
2.95373e-06
2.4595e-06
2.74438e-09
2.7458e-06
3.00234e-06
1.36257e-08
2.50654e-06
3.55994e-06
2.79643e-08
2.22817e-06
4.15848e-06
4.41147e-08
1.90404e-06
4.82013e-06
5.93531e-08
1.53497e-06
5.54248e-06
6.99148e-08
1.13643e-06
6.2584e-06
7.20836e-08
7.39953e-07
6.79201e-06
6.42104e-08
3.80482e-07
6.9021e-06
4.8568e-08
1.11399e-07
6.09286e-06
2.9265e-08
3.19475e-06
9.97008e-09
7.08868e-08
-1.52834e-06
1.74801e-08
2.4209e-07
-3.82774e-06
4.26173e-08
4.74958e-07
-5.39405e-06
6.24156e-08
7.38171e-07
-6.36925e-06
7.70781e-08
1.01075e-06
-6.90042e-06
8.67389e-08
1.28344e-06
-7.14873e-06
9.19417e-08
1.553e-06
-7.22414e-06
9.35675e-08
1.81726e-06
-7.17799e-06
9.26142e-08
2.07353e-06
-7.03039e-06
8.98901e-08
2.31838e-06
-6.78821e-06
8.5919e-08
2.5479e-06
-6.45329e-06
8.09266e-08
2.75814e-06
-6.02721e-06
7.49566e-08
2.94542e-06
-5.51457e-06
6.80568e-08
3.10665e-06
-4.92421e-06
6.03303e-08
3.2393e-06
-4.26873e-06
5.19223e-08
3.34139e-06
-3.56333e-06
4.30261e-08
3.41141e-06
-2.82454e-06
3.38948e-08
3.44822e-06
-2.06915e-06
2.48399e-08
3.45122e-06
-1.31322e-06
1.61739e-08
3.42053e-06
-5.71164e-07
8.2858e-09
3.35705e-06
1.44461e-07
1.79562e-09
3.26323e-06
8.23817e-07
-3.30161e-09
3.14199e-06
1.46204e-06
-6.28716e-09
2.99557e-06
2.06152e-06
-6.22221e-09
2.82464e-06
2.63278e-06
-2.48341e-09
2.62812e-06
3.19429e-06
4.44984e-09
2.40136e-06
3.77159e-06
1.50089e-08
2.13722e-06
4.39401e-06
2.85581e-08
1.82936e-06
5.08507e-06
4.29179e-08
1.47809e-06
5.83929e-06
5.45945e-08
1.09727e-06
6.57993e-06
5.95929e-08
7.16091e-07
7.11835e-06
5.53844e-08
3.68504e-07
7.20746e-06
4.30827e-08
1.07636e-07
6.32868e-06
2.62867e-08
3.29537e-06
8.86103e-09
6.85115e-08
-1.61446e-06
1.73842e-08
2.34368e-07
-4.03659e-06
4.27778e-08
4.59689e-07
-5.682e-06
6.25207e-08
7.13441e-07
-6.70016e-06
7.70758e-08
9.75145e-07
-7.24902e-06
8.67897e-08
1.236e-06
-7.50198e-06
9.22708e-08
1.49288e-06
-7.57553e-06
9.43871e-08
1.74363e-06
-7.52295e-06
9.40959e-08
1.98558e-06
-7.36462e-06
9.21593e-08
2.21548e-06
-7.10727e-06
8.90699e-08
2.4297e-06
-6.75265e-06
8.50515e-08
2.62476e-06
-6.30251e-06
8.0154e-08
2.79763e-06
-5.76195e-06
7.44152e-08
2.94593e-06
-5.1405e-06
6.79024e-08
3.06787e-06
-4.45148e-06
6.07036e-08
3.16216e-06
-3.71066e-06
5.29318e-08
3.22778e-06
-2.93502e-06
4.4739e-08
3.26394e-06
-2.14176e-06
3.63245e-08
3.27008e-06
-1.34737e-06
2.78983e-08
3.24601e-06
-5.66956e-07
1.97349e-08
3.19215e-06
1.85943e-07
1.2239e-08
3.1097e-06
9.00216e-07
5.91633e-09
3.00027e-06
1.56992e-06
1.40381e-09
2.86552e-06
2.19707e-06
-9.51134e-10
2.70605e-06
2.79272e-06
-6.17963e-10
2.52074e-06
3.37696e-06
2.5025e-09
2.30521e-06
3.97767e-06
9.33569e-09
2.05303e-06
4.62652e-06
1.96099e-08
1.75844e-06
5.34784e-06
3.18391e-08
1.4218e-06
6.13297e-06
4.30903e-08
1.05624e-06
6.89632e-06
4.94821e-08
6.8944e-07
7.43777e-06
4.79336e-08
3.54258e-07
7.50501e-06
3.84763e-08
1.0295e-07
6.55726e-06
2.396e-08
3.39206e-06
8.09964e-09
6.71519e-08
-1.6993e-06
1.74593e-08
2.2956e-07
-4.24239e-06
4.32182e-08
4.49084e-07
-5.96468e-06
6.3048e-08
6.94789e-07
-7.02352e-06
7.75473e-08
9.46874e-07
-7.58841e-06
8.71883e-08
1.1972e-06
-7.84511e-06
9.26817e-08
1.44289e-06
-7.9163e-06
9.49685e-08
1.68179e-06
-7.85699e-06
9.50225e-08
1.91129e-06
-7.6878e-06
9.35819e-08
2.1282e-06
-7.41539e-06
9.11101e-08
2.32922e-06
-7.04157e-06
8.78196e-08
2.51127e-06
-6.56842e-06
8.37598e-08
2.6719e-06
-6.00163e-06
7.89558e-08
2.8093e-06
-5.35145e-06
7.34452e-08
2.92227e-06
-4.63183e-06
6.72697e-08
3.00997e-06
-3.85895e-06
6.0482e-08
3.07171e-06
-3.05005e-06
5.31647e-08
3.10687e-06
-2.22247e-06
4.54437e-08
3.11481e-06
-1.39291e-06
3.74673e-08
3.09513e-06
-5.76847e-07
2.9446e-08
3.04777e-06
2.11461e-07
2.17024e-08
2.97332e-06
9.59868e-07
1.46449e-08
2.87286e-06
1.66147e-06
8.75885e-09
2.74733e-06
2.31785e-06
4.59193e-09
2.5968e-06
2.94043e-06
2.6724e-09
2.41974e-06
3.55048e-06
3.40836e-09
2.21232e-06
4.1777e-06
7.28101e-09
1.9689e-06
4.8554e-06
1.44854e-08
1.68455e-06
5.60798e-06
2.42129e-08
1.3602e-06
6.42325e-06
3.41982e-08
1.00885e-06
7.20701e-06
4.09523e-08
6.57024e-07
7.74893e-06
4.11892e-08
3.36082e-07
7.7927e-06
3.4069e-08
9.68138e-08
6.77612e-06
2.16309e-08
3.48337e-06
7.31799e-09
6.62561e-08
-1.78339e-06
1.77089e-08
2.25184e-07
-4.4452e-06
4.36991e-08
4.38426e-07
-6.24147e-06
6.33453e-08
6.75404e-07
-7.33822e-06
7.75632e-08
9.17122e-07
-7.91727e-06
8.70287e-08
1.15612e-06
-8.17672e-06
9.25216e-08
1.3898e-06
-8.24505e-06
9.49788e-08
1.6161e-06
-8.17874e-06
9.53463e-08
1.83249e-06
-7.99862e-06
9.43323e-08
2.03597e-06
-7.71136e-06
9.23842e-08
2.22352e-06
-7.31894e-06
8.97196e-08
2.39251e-06
-6.82392e-06
8.64022e-08
2.54102e-06
-6.2327e-06
8.24596e-08
2.66781e-06
-5.55625e-06
7.79165e-08
2.77218e-06
-4.80907e-06
7.27833e-08
2.85373e-06
-4.00766e-06
6.70628e-08
2.91211e-06
-3.1693e-06
6.07697e-08
2.94682e-06
-2.31125e-06
5.39498e-08
2.95725e-06
-1.45014e-06
4.66762e-08
2.94272e-06
-6.01531e-07
3.90866e-08
2.90272e-06
2.19897e-07
3.14282e-08
2.83718e-06
1.00121e-06
2.40443e-08
2.74646e-06
1.73468e-06
1.73645e-08
2.63083e-06
2.42145e-06
1.18919e-08
2.48983e-06
3.07311e-06
8.17895e-09
2.32155e-06
3.71185e-06
6.77503e-09
2.12232e-06
4.36866e-06
8.15999e-09
1.88716e-06
5.07786e-06
1.26174e-08
1.61217e-06
5.86321e-06
1.97735e-08
1.29916e-06
6.70838e-06
2.79846e-08
9.61486e-07
7.51067e-06
3.42892e-08
6.24668e-07
8.05079e-06
3.54744e-08
3.18295e-07
8.06979e-06
3.00956e-08
9.11001e-08
6.98508e-06
1.94312e-08
3.56969e-06
6.5756e-09
6.51663e-08
-1.86652e-06
1.78014e-08
2.20958e-07
-4.6449e-06
4.37179e-08
4.28797e-07
-6.5125e-06
6.30145e-08
6.58222e-07
-7.64463e-06
7.68425e-08
8.90928e-07
-8.2361e-06
8.60174e-08
1.12009e-06
-8.49737e-06
9.13957e-08
1.34335e-06
-8.56234e-06
9.39359e-08
1.5587e-06
-8.48876e-06
9.45574e-08
1.76368e-06
-8.29763e-06
9.39267e-08
1.95546e-06
-7.99571e-06
9.24617e-08
2.13131e-06
-7.58527e-06
9.03726e-08
2.28901e-06
-7.06945e-06
8.77281e-08
2.42709e-06
-6.45543e-06
8.45549e-08
2.5448e-06
-5.75492e-06
8.08653e-08
2.64186e-06
-4.98288e-06
7.66495e-08
2.7182e-06
-4.15599e-06
7.18808e-08
2.77368e-06
-3.29143e-06
6.65327e-08
2.80791e-06
-2.40621e-06
6.05985e-08
2.82021e-06
-1.51666e-06
5.40957e-08
2.80967e-06
-6.3822e-07
4.70986e-08
2.77538e-06
2.14263e-07
3.97806e-08
2.71675e-06
1.02728e-06
3.24154e-08
2.63355e-06
1.79236e-06
2.53741e-08
2.52551e-06
2.51022e-06
1.91128e-08
2.39176e-06
3.19255e-06
1.41557e-08
2.23021e-06
3.86219e-06
1.10687e-08
2.03733e-06
4.55103e-06
1.03956e-08
1.80874e-06
5.29386e-06
1.25106e-08
1.54154e-06
6.1131e-06
1.72903e-08
1.23866e-06
6.98778e-06
2.35785e-08
9.13992e-07
7.80664e-06
2.89563e-08
5.92016e-07
8.3428e-06
3.04686e-08
3.00367e-07
8.33589e-06
2.63352e-08
8.54295e-08
7.18399e-06
1.72082e-08
3.65107e-06
5.81212e-09
6.39204e-08
-1.94872e-06
1.80508e-08
2.15953e-07
-4.84108e-06
4.40164e-08
4.17393e-07
-6.77705e-06
6.29864e-08
6.38175e-07
-7.94195e-06
7.64066e-08
8.60853e-07
-8.54418e-06
8.52681e-08
1.07931e-06
-8.80644e-06
9.04938e-08
1.29146e-06
-8.86765e-06
9.30486e-08
1.4954e-06
-8.78664e-06
9.38308e-08
1.68876e-06
-8.58456e-06
9.34804e-08
1.86887e-06
-8.26832e-06
9.24002e-08
2.03329e-06
-7.84059e-06
9.08024e-08
2.1802e-06
-7.30522e-06
8.87631e-08
2.30857e-06
-6.67021e-06
8.63099e-08
2.41806e-06
-5.94796e-06
8.34467e-08
2.5088e-06
-5.15386e-06
8.0143e-08
2.58102e-06
-4.30465e-06
7.63395e-08
2.63479e-06
-3.41727e-06
7.19646e-08
2.66979e-06
-2.50828e-06
6.6956e-08
2.68525e-06
-1.5935e-06
6.1273e-08
2.67997e-06
-6.88003e-07
5.49289e-08
2.65261e-06
1.93466e-07
4.80314e-08
2.60194e-06
1.03701e-06
4.07961e-08
2.52709e-06
1.83351e-06
3.35492e-08
2.42721e-06
2.58323e-06
2.67139e-08
2.30101e-06
3.29782e-06
2.07884e-08
2.14623e-06
4.0005e-06
1.6327e-08
1.95951e-06
4.72374e-06
1.38988e-08
1.73706e-06
5.50227e-06
1.39572e-08
1.47701e-06
6.35659e-06
1.65533e-08
1.18346e-06
7.26054e-06
2.08897e-08
8.70886e-07
8.09443e-06
2.50343e-08
5.62775e-07
8.625e-06
2.63815e-08
2.84768e-07
8.59163e-06
2.30351e-08
8.07518e-08
7.37399e-06
1.51708e-08
3.72844e-06
5.12253e-09
6.26369e-08
-2.02964e-06
1.80811e-08
2.11138e-07
-5.0334e-06
4.36748e-08
4.06957e-07
-7.03502e-06
6.20224e-08
6.20381e-07
-8.23036e-06
7.48484e-08
8.34644e-07
-8.84187e-06
8.32978e-08
1.04412e-06
-9.10438e-06
8.83467e-08
1.2469e-06
-9.16148e-06
9.09409e-08
1.44112e-06
-9.07288e-06
9.1926e-08
1.62449e-06
-8.85992e-06
9.18956e-08
1.79453e-06
-8.52969e-06
9.12258e-08
1.94909e-06
-8.08537e-06
9.01256e-08
2.08668e-06
-7.53159e-06
8.86779e-08
2.20665e-06
-6.87719e-06
8.69107e-08
2.30902e-06
-6.13527e-06
8.48227e-08
2.39424e-06
-5.32156e-06
8.23752e-08
2.46282e-06
-4.45282e-06
7.94924e-08
2.515e-06
-3.54564e-06
7.60754e-08
2.55053e-06
-2.61595e-06
7.2021e-08
2.56856e-06
-1.67889e-06
6.72369e-08
2.56767e-06
-7.48916e-07
6.16737e-08
2.54607e-06
1.59563e-07
5.53671e-08
2.50198e-06
1.03248e-06
4.84635e-08
2.43396e-06
1.86015e-06
4.12356e-08
2.34063e-06
2.64233e-06
3.40712e-08
2.22038e-06
3.39047e-06
2.74466e-08
2.07083e-06
4.12799e-06
2.19029e-08
1.88884e-06
4.88759e-06
1.80148e-08
1.67127e-06
5.70347e-06
1.62899e-08
1.41723e-06
6.59368e-06
1.69179e-08
1.13196e-06
7.52651e-06
1.93789e-08
8.30506e-07
8.37396e-06
2.21539e-08
5.35315e-07
8.89763e-06
2.30141e-08
2.70116e-07
8.83745e-06
2.01096e-08
7.63711e-08
7.55557e-06
1.32906e-08
3.80203e-06
4.49794e-09
6.13971e-08
-2.10945e-06
1.82271e-08
2.06191e-07
-5.22201e-06
4.36238e-08
3.96105e-07
-7.28656e-06
6.14728e-08
6.01863e-07
-8.51001e-06
7.37698e-08
8.07441e-07
-9.12936e-06
8.18111e-08
1.00776e-06
-9.39144e-06
8.66274e-08
1.2011e-06
-9.44409e-06
8.91655e-08
1.38569e-06
-9.34782e-06
9.02451e-08
1.55932e-06
-9.1241e-06
9.04308e-08
1.71972e-06
-8.78027e-06
9.00821e-08
1.86497e-06
-8.32013e-06
8.94069e-08
1.99391e-06
-7.74912e-06
8.84916e-08
2.1062e-06
-7.07694e-06
8.73638e-08
2.20219e-06
-6.31737e-06
8.60152e-08
2.28261e-06
-5.48649e-06
8.43939e-08
2.34826e-06
-4.60098e-06
8.24065e-08
2.39956e-06
-3.67698e-06
7.99278e-08
2.43637e-06
-2.7297e-06
7.68179e-08
2.45777e-06
-1.77335e-06
7.29381e-08
2.46211e-06
-8.21565e-07
6.8183e-08
2.44713e-06
1.11887e-07
6.25213e-08
2.41043e-06
1.013e-06
5.60315e-08
2.34986e-06
1.87164e-06
4.8931e-08
2.26351e-06
2.68696e-06
4.1571e-08
2.14934e-06
3.47008e-06
3.44071e-08
2.0049e-06
4.24432e-06
2.7969e-08
1.82729e-06
5.04224e-06
2.28296e-08
1.61403e-06
5.89712e-06
1.95274e-08
1.36525e-06
6.82407e-06
1.83587e-08
1.08727e-06
7.78552e-06
1.90291e-08
7.9571e-07
8.64537e-06
2.03676e-08
5.1198e-07
9.16129e-06
2.05085e-08
2.58026e-07
9.07437e-06
1.77485e-08
7.29503e-08
7.73003e-06
1.17323e-08
3.87266e-06
4.00386e-09
6.01549e-08
-2.18796e-06
1.81614e-08
2.0173e-07
-5.40671e-06
4.29559e-08
3.86608e-07
-7.53158e-06
6.00014e-08
5.85862e-07
-8.78095e-06
7.15765e-08
7.84097e-07
-9.40683e-06
7.91289e-08
9.76668e-07
-9.66783e-06
8.37182e-08
1.16198e-06
-9.71577e-06
8.62461e-08
1.33832e-06
-9.61174e-06
8.74708e-08
1.50359e-06
-9.37738e-06
8.7912e-08
1.65567e-06
-9.02037e-06
8.79069e-08
1.79288e-06
-8.54511e-06
8.76615e-08
1.91431e-06
-7.95791e-06
8.72681e-08
2.01987e-06
-7.26936e-06
8.67558e-08
2.11017e-06
-6.49388e-06
8.61149e-08
2.1862e-06
-5.64791e-06
8.52903e-08
2.24897e-06
-4.74803e-06
8.41806e-08
2.29912e-06
-3.80989e-06
8.26449e-08
2.33663e-06
-2.84784e-06
8.05159e-08
2.3606e-06
-1.87506e-06
7.76146e-08
2.3692e-06
-9.04069e-07
7.37788e-08
2.35979e-06
5.22516e-08
6.89052e-08
2.32941e-06
9.80247e-07
6.2995e-08
2.27526e-06
1.86944e-06
5.61986e-08
2.19486e-06
2.71838e-06
4.8823e-08
2.0858e-06
3.53768e-06
4.13018e-08
1.94554e-06
4.35027e-06
3.41574e-08
1.77146e-06
5.18823e-06
2.79644e-08
1.5617e-06
6.08348e-06
2.32833e-08
1.31741e-06
7.04782e-06
2.0492e-08
1.04592e-06
8.03756e-06
1.9484e-08
7.63316e-07
8.90878e-06
1.93874e-08
4.90043e-07
9.4163e-06
1.86739e-08
2.46472e-07
9.30279e-06
1.58445e-08
6.95758e-08
7.89756e-06
1.04384e-08
3.94028e-06
3.6136e-09
5.91133e-08
-2.26543e-06
1.81723e-08
1.97688e-07
-5.58797e-06
4.25166e-08
3.77735e-07
-7.77067e-06
5.88852e-08
5.70666e-07
-9.04384e-06
6.98138e-08
7.61753e-07
-9.67493e-06
7.68871e-08
9.4682e-07
-9.93421e-06
8.12012e-08
1.12444e-06
-9.97713e-06
8.36405e-08
1.29295e-06
-9.86528e-06
8.4925e-08
1.45035e-06
-9.62044e-06
8.55425e-08
1.59468e-06
-9.25062e-06
8.58117e-08
1.72445e-06
-8.76092e-06
8.59357e-08
1.83895e-06
-8.15853e-06
8.60082e-08
1.93834e-06
-7.45491e-06
8.60572e-08
2.02345e-06
-6.66516e-06
8.60692e-08
2.09551e-06
-5.80605e-06
8.59843e-08
2.15576e-06
-4.89408e-06
8.56942e-08
2.20508e-06
-3.94436e-06
8.50467e-08
2.24359e-06
-2.97033e-06
8.3855e-08
2.27044e-06
-1.98394e-06
8.19086e-08
2.28365e-06
-9.96401e-07
7.8998e-08
2.28022e-06
-1.941e-08
7.49546e-08
2.25658e-06
9.34038e-07
6.97025e-08
2.20924e-06
1.85331e-06
6.33182e-08
2.13506e-06
2.73636e-06
5.60541e-08
2.03122e-06
3.59305e-06
4.83142e-08
1.89505e-06
4.44567e-06
4.06107e-08
1.72417e-06
5.32545e-06
3.35214e-08
1.51741e-06
6.26251e-06
2.7626e-08
1.27687e-06
7.26495e-06
2.33659e-08
1.01089e-06
8.28279e-06
2.0789e-08
7.35996e-07
9.16458e-06
1.92814e-08
4.71755e-07
9.66331e-06
1.76198e-08
2.37097e-07
9.52357e-06
1.45339e-08
6.6984e-08
8.05919e-06
9.52701e-09
4.0055e-06
3.37625e-09
5.82028e-08
-2.34181e-06
1.79962e-08
1.94255e-07
-5.7657e-06
4.15257e-08
3.70234e-07
-8.00373e-06
5.69353e-08
5.57815e-07
-9.2986e-06
6.70419e-08
7.42812e-07
-9.93362e-06
7.35729e-08
9.21429e-07
-1.01906e-05
7.76272e-08
1.09237e-06
-1.02282e-05
8.00222e-08
1.25405e-06
-1.01085e-05
8.14108e-08
1.40457e-06
-9.8533e-06
8.22374e-08
1.54212e-06
-9.47107e-06
8.27995e-08
1.66534e-06
-8.96755e-06
8.32972e-08
1.77369e-06
-8.35082e-06
8.38287e-08
1.86749e-06
-7.63324e-06
8.44234e-08
1.94776e-06
-6.8306e-06
8.5068e-08
2.01591e-06
-5.96001e-06
8.57025e-08
2.07342e-06
-5.03791e-06
8.62171e-08
2.12138e-06
-4.07888e-06
8.64544e-08
2.16011e-06
-3.09538e-06
8.62142e-08
2.18886e-06
-2.09806e-06
8.52608e-08
2.20562e-06
-1.09662e-06
8.33423e-08
2.20713e-06
-1.01289e-07
8.02272e-08
2.18933e-06
8.75936e-07
7.57597e-08
2.14803e-06
1.82452e-06
6.99345e-08
2.07947e-06
2.74182e-06
6.29385e-08
1.98037e-06
3.63686e-06
5.51371e-08
1.84789e-06
4.53096e-06
4.70307e-08
1.67987e-06
5.45411e-06
3.92037e-08
1.47575e-06
6.43425e-06
3.22589e-08
1.23856e-06
7.47539e-06
2.66905e-08
9.7759e-07
8.5211e-06
2.26767e-08
7.09775e-07
9.41272e-06
1.98234e-08
4.53878e-07
9.90238e-06
1.71793e-08
2.27631e-07
9.73673e-06
1.37087e-08
6.42016e-08
8.21469e-06
8.93256e-09
4.06802e-06
3.26342e-09
5.73883e-08
-2.41725e-06
1.78553e-08
1.91123e-07
-5.94027e-06
4.06699e-08
3.63353e-07
-8.23132e-06
5.52172e-08
5.45963e-07
-9.5459e-06
6.45647e-08
7.25279e-07
-1.01836e-05
7.05621e-08
8.97877e-07
-1.04376e-05
7.43181e-08
1.06261e-06
-1.04697e-05
7.66086e-08
1.21802e-06
-1.0342e-05
7.80376e-08
1.36229e-06
-1.00767e-05
7.9014e-08
1.49369e-06
-9.68239e-06
7.98155e-08
1.61098e-06
-9.16557e-06
8.06369e-08
1.71374e-06
-8.53526e-06
8.15773e-08
1.80244e-06
-7.8047e-06
8.26649e-08
1.87826e-06
-6.99041e-06
8.38846e-08
1.94282e-06
-6.10985e-06
8.51753e-08
1.9978e-06
-5.17942e-06
8.64272e-08
2.04451e-06
-4.21319e-06
8.74814e-08
2.08349e-06
-3.22262e-06
8.81321e-08
2.11414e-06
-2.21696e-06
8.81288e-08
2.13444e-06
-1.20423e-06
8.71883e-08
2.14092e-06
-1.92934e-07
8.50254e-08
2.12903e-06
8.06283e-07
8.14081e-08
2.09388e-06
1.78328e-06
7.62431e-08
2.03102e-06
2.73488e-06
6.96395e-08
1.93667e-06
3.66914e-06
6.19107e-08
1.80778e-06
4.60615e-06
5.35348e-08
1.64239e-06
5.57424e-06
4.51009e-08
1.44054e-06
6.59874e-06
3.72406e-08
1.20611e-06
7.67921e-06
3.05105e-08
9.49342e-07
8.75267e-06
2.51959e-08
6.87564e-07
9.65356e-06
2.10721e-08
4.38846e-07
1.0134e-05
1.74311e-08
2.19835e-07
9.94287e-06
1.34676e-08
6.20158e-08
8.36473e-06
8.75701e-09
4.12826e-06
3.33521e-09
5.68404e-08
-2.49181e-06
1.75327e-08
1.8876e-07
-6.11165e-06
3.93066e-08
3.57849e-07
-8.45329e-06
5.27501e-08
5.36221e-07
-9.7856e-06
6.11966e-08
7.10652e-07
-1.04248e-05
6.6616e-08
8.77977e-07
-1.06751e-05
7.00879e-08
1.03725e-06
-1.07013e-05
7.23048e-08
1.18713e-06
-1.05658e-05
7.3801e-08
1.32591e-06
-1.02905e-05
7.49442e-08
1.45188e-06
-9.88445e-06
7.59912e-08
1.56386e-06
-9.35479e-06
7.71326e-08
1.66154e-06
-8.7115e-06
7.84713e-08
1.74548e-06
-7.96878e-06
8.00369e-08
1.817e-06
-7.14384e-06
8.18146e-08
1.87786e-06
-6.25457e-06
8.37444e-08
1.92993e-06
-5.31732e-06
8.57183e-08
1.97475e-06
-4.34569e-06
8.75793e-08
2.01309e-06
-3.3502e-06
8.91201e-08
2.04456e-06
-2.33863e-06
9.00811e-08
2.06726e-06
-1.3172e-06
9.01553e-08
2.07763e-06
-2.92446e-07
8.90107e-08
2.07074e-06
7.26705e-07
8.63421e-08
2.04106e-06
1.73085e-06
8.19647e-08
1.98346e-06
2.71643e-06
7.58996e-08
1.89359e-06
3.69045e-06
6.8396e-08
1.76818e-06
4.6715e-06
5.99006e-08
1.60537e-06
5.68588e-06
5.10024e-08
1.40575e-06
6.75585e-06
4.23618e-08
1.17407e-06
7.8762e-06
3.45982e-08
9.21379e-07
8.97722e-06
2.81134e-08
6.65396e-07
9.8868e-06
2.2846e-08
4.2356e-07
1.03579e-05
1.82558e-08
2.11637e-07
1.01416e-05
1.37467e-08
5.95713e-08
8.50877e-06
8.97348e-09
4.18576e-06
3.58303e-09
5.62708e-08
-2.56549e-06
1.72148e-08
1.86376e-07
-6.27994e-06
3.80076e-08
3.52469e-07
-8.66996e-06
5.04184e-08
5.2693e-07
-1.00182e-05