/*--------------------------------*- C++ -*----------------------------------*\
| =========                 |                                                 |
| \\      /  F ield         | OpenFOAM: The Open Source CFD Toolbox           |
|  \\    /   O peration     | Version:  v2006                                 |
|   \\  /    A nd           | Website:  www.openfoam.com                      |
|    \\/     M anipulation  |                                                 |
\*---------------------------------------------------------------------------*/
FoamFile
{
    version     2.0;
    format      ascii;
    class       volScalarField;
    location    "76";
    object      k;
}
// * * * * * * * * * * * * * * * * * * * * * * * * * * * * * * * * * * * * * //

dimensions      [0 2 -2 0 0 0 0];


internalField   nonuniform List<scalar> 
78750
(
1.81119e-06
5.37038e-06
8.61737e-06
1.17479e-05
1.47395e-05
1.75299e-05
2.0093e-05
2.24188e-05
2.45024e-05
2.63415e-05
2.79365e-05
2.929e-05
3.04067e-05
3.1293e-05
3.1952e-05
3.238e-05
3.25851e-05
3.25754e-05
3.23578e-05
3.19371e-05
3.13245e-05
3.05045e-05
2.9478e-05
2.82428e-05
2.67927e-05
2.51192e-05
2.32131e-05
2.1061e-05
1.86463e-05
1.596e-05
1.29848e-05
9.73949e-06
6.45149e-06
3.66838e-06
1.94696e-06
1.4041e-06
1.46808e-05
2.72057e-05
3.85638e-05
4.8545e-05
5.71806e-05
6.4558e-05
7.07348e-05
7.57737e-05
7.97545e-05
8.27655e-05
8.48957e-05
8.62318e-05
8.68585e-05
8.68657e-05
8.63414e-05
8.53502e-05
8.39532e-05
8.22065e-05
8.01605e-05
7.78592e-05
7.53208e-05
7.25664e-05
6.96065e-05
6.64351e-05
6.3034e-05
5.93827e-05
5.54531e-05
5.11315e-05
4.61955e-05
4.03212e-05
3.31419e-05
2.49339e-05
1.72429e-05
1.2024e-05
2.19016e-06
2.13326e-05
3.90877e-05
5.49346e-05
6.83753e-05
7.93163e-05
8.7999e-05
9.47789e-05
9.9964e-05
0.000103778
0.000106387
0.000107925
0.000108512
0.00010826
0.000107276
0.000105666
0.000103534
0.000100981
9.81096e-05
9.50169e-05
9.17924e-05
8.85076e-05
8.52089e-05
8.19114e-05
7.85915e-05
7.51908e-05
7.16212e-05
6.77607e-05
6.34256e-05
5.83125e-05
5.1966e-05
4.40234e-05
3.51077e-05
2.65344e-05
2.0195e-05
4.05789e-06
2.86852e-05
5.10907e-05
7.03735e-05
8.59018e-05
9.78182e-05
0.000106749
0.000113343
0.00011807
0.000121235
0.000123043
0.000123651
0.000123183
0.000121755
0.00011948
0.000116478
0.00011288
0.000108831
0.000104489
0.000100027
9.56228e-05
9.1444e-05
8.76112e-05
8.41632e-05
8.10479e-05
7.81348e-05
7.52338e-05
7.21055e-05
6.84473e-05
6.3852e-05
5.7823e-05
5.01287e-05
4.166e-05
3.31745e-05
2.60164e-05
6.02764e-06
3.5443e-05
6.17759e-05
8.37055e-05
0.000100521
0.000112751
0.000121495
0.00012768
0.000131905
0.00013448
0.000135601
0.000135401
0.000133974
0.000131411
0.000127821
0.000123341
0.000118141
0.000112421
0.000106409
0.000100366
9.45784e-05
8.93379e-05
8.48642e-05
8.12329e-05
7.83777e-05
7.6115e-05
7.41629e-05
7.21564e-05
6.96507e-05
6.6111e-05
6.0985e-05
5.41155e-05
4.63725e-05
3.80552e-05
3.00437e-05
8.1798e-06
4.17389e-05
7.14043e-05
9.54823e-05
0.000113272
0.00012575
0.000134448
0.000140509
0.000144512
0.00014674
0.000147366
0.000146477
0.000144135
0.000140421
0.000135456
0.000129417
0.00012253
0.000115068
0.000107343
9.97101e-05
9.25714e-05
8.63297e-05
8.1237e-05
7.73389e-05
7.45454e-05
7.26612e-05
7.13811e-05
7.02859e-05
6.88417e-05
6.64114e-05
6.23696e-05
5.65407e-05
4.95649e-05
4.1435e-05
3.28419e-05
1.01722e-05
4.71726e-05
7.95937e-05
0.000105463
0.000124119
0.000136922
0.000145717
0.000151731
0.000155567
0.000157516
0.000157706
0.000156184
0.00015299
0.000148204
0.000141976
0.000134526
0.000126139
0.000117152
0.00010795
9.89762e-05
9.0745e-05
8.37398e-05
7.81631e-05
7.39983e-05
7.11404e-05
6.94093e-05
6.85217e-05
6.80609e-05
6.74571e-05
6.59998e-05
6.2979e-05
5.8132e-05
5.18287e-05
4.38976e-05
3.51131e-05
1.1962e-05
5.20037e-05
8.69025e-05
0.000114443
0.000133972
0.000147161
0.000156123
0.000162177
0.000165945
0.000167694
0.000167517
0.000165437
0.000161488
0.000155766
0.000148456
0.000139826
0.000130214
0.000120009
0.000109658
9.96809e-05
9.06852e-05
8.31464e-05
7.71419e-05
7.25991e-05
6.94201e-05
6.74735e-05
6.65479e-05
6.62919e-05
6.61615e-05
6.54102e-05
6.32348e-05
5.92325e-05
5.354e-05
4.59194e-05
3.73575e-05
1.36137e-05
5.64399e-05
9.36163e-05
0.00012272
0.00014311
0.000156725
0.000165895
0.000172015
0.000175716
0.000177254
0.000176702
0.000174071
0.000169397
0.000162798
0.000154496
0.000144805
0.000134111
0.000122857
0.000111551
0.0001008
9.13121e-05
8.34918e-05
7.7271e-05
7.25041e-05
6.90701e-05
6.68605e-05
6.573e-05
6.54178e-05
6.5458e-05
6.51272e-05
6.35645e-05
6.02331e-05
5.50881e-05
4.78823e-05
3.98325e-05
1.51753e-05
6.06194e-05
9.99351e-05
0.000130512
0.000151724
0.000165751
0.000175123
0.000181313
0.000184961
0.00018631
0.000185419
0.000182285
0.000176951
0.00016956
0.000160369
0.000149738
0.000138097
0.00012594
0.000113829
0.000102454
9.2609e-05
8.46015e-05
7.82458e-05
7.33309e-05
6.97015e-05
6.72486e-05
6.58658e-05
6.53704e-05
6.53881e-05
6.52585e-05
6.41094e-05
6.1302e-05
5.66526e-05
4.99191e-05
4.24804e-05
1.67427e-05
6.47379e-05
0.000106126
0.000138111
0.000160099
0.000174511
0.000184065
0.000190299
0.000193862
0.000194986
0.000193716
0.000190045
0.000184027
0.00017583
0.000165753
0.000154197
0.000141643
0.000128636
0.000115795
0.000103898
9.38299e-05
8.5781e-05
7.94537e-05
7.45618e-05
7.09009e-05
6.83402e-05
6.67871e-05
6.61115e-05
6.60243e-05
6.59474e-05
6.50414e-05
6.26154e-05
5.83836e-05
5.20985e-05
4.52255e-05
1.83292e-05
6.87906e-05
0.000112149
0.000145446
0.000168138
0.000182899
0.000192621
0.000198898
0.000202384
0.0002033
0.000201674
0.000197496
0.00019083
0.000181873
0.000170957
0.000158525
0.000145103
0.000131281
0.000117737
0.00010533
9.50333e-05
8.69501e-05
8.0691e-05
7.58982e-05
7.23112e-05
6.97636e-05
6.81527e-05
6.73718e-05
6.71899e-05
6.71075e-05
6.63415e-05
6.41906e-05
6.0298e-05
5.43919e-05
4.79549e-05
1.99583e-05
7.28229e-05
0.00011809
0.000152635
0.000175983
0.000191061
0.000200928
0.000207227
0.000210614
0.000211297
0.000209292
0.000204588
0.000197267
0.000187551
0.00017581
0.000162526
0.000148263
0.000133659
0.000119444
0.000106559
9.607e-05
8.79934e-05
8.18574e-05
7.72396e-05
7.38227e-05
7.13996e-05
6.98453e-05
6.90552e-05
6.883e-05
6.87313e-05
6.80382e-05
6.60699e-05
6.2424e-05
5.67888e-05
5.06247e-05
2.16356e-05
7.68565e-05
0.000123961
0.000159677
0.000183625
0.000198993
0.000209
0.000215327
0.000218629
0.000219097
0.000216736
0.000211537
0.000203595
0.000193162
0.000180637
0.000166537
0.000151464
0.000136095
0.000121206
0.000107812
9.70795e-05
8.89738e-05
8.29492e-05
7.85191e-05
7.53166e-05
7.30882e-05
7.16792e-05
7.09715e-05
7.07759e-05
7.06913e-05
7.00515e-05
6.82087e-05
6.47323e-05
5.92591e-05
5.32069e-05
2.33338e-05
8.0812e-05
0.000129673
0.0001665
0.000191011
0.000206656
0.000216795
0.000223147
0.000226361
0.000226613
0.000223901
0.000218217
0.000209676
0.000198555
0.000185284
0.000170409
0.000154564
0.000138459
0.000122916
0.000109015
9.80238e-05
8.98789e-05
8.39711e-05
7.97526e-05
7.68004e-05
7.4826e-05
7.3637e-05
7.30918e-05
7.29931e-05
7.29564e-05
7.23579e-05
7.0589e-05
6.72047e-05
6.17847e-05
5.57035e-05
2.5082e-05
8.48019e-05
0.000135382
0.000173272
0.000198315
0.000214223
0.000224498
0.000230885
0.000234025
0.000234081
0.000231042
0.000224905
0.000215802
0.000204035
0.00019006
0.000174448
0.000157858
0.000141029
0.000124821
0.00011037
9.90433e-05
9.07941e-05
8.49587e-05
8.09333e-05
7.8242e-05
7.6547e-05
7.5627e-05
7.53093e-05
7.53742e-05
7.54343e-05
7.48909e-05
7.31702e-05
6.982e-05
6.43603e-05
5.81264e-05
2.68278e-05
8.86691e-05
0.000140876
0.000179774
0.000205325
0.000221495
0.000231912
0.000238342
0.000241418
0.000241292
0.000237945
0.000231383
0.000221757
0.000209389
0.000194758
0.000178454
0.000161155
0.000143626
0.000126765
0.000111752
0.000100054
9.167e-05
8.58894e-05
8.2057e-05
7.96449e-05
7.82684e-05
7.76636e-05
7.76257e-05
7.79071e-05
7.81018e-05
7.76208e-05
7.59221e-05
7.25512e-05
6.69681e-05
6.04818e-05
2.8623e-05
9.25926e-05
0.000146416
0.000186302
0.000212349
0.00022878
0.000239345
0.00024583
0.000248855
0.000248563
0.00024493
0.000237974
0.000227861
0.000214935
0.000199691
0.000182735
0.000164752
0.000146533
0.000129001
0.000113373
0.000101199
9.25885e-05
8.67957e-05
8.3117e-05
8.09731e-05
7.993e-05
7.96786e-05
7.99708e-05
8.0519e-05
8.0891e-05
8.04917e-05
7.88045e-05
7.5376e-05
6.96059e-05
6.27848e-05
3.04034e-05
9.63763e-05
0.000151724
0.000192548
0.00021908
0.000235781
0.000246506
0.000253056
0.000256043
0.0002556
0.000251704
0.000244384
0.000233826
0.000220391
0.000204587
0.000187026
0.000168405
0.000149526
0.000131331
0.000115075
0.000102376
9.34884e-05
8.76456e-05
8.41025e-05
8.223e-05
8.15433e-05
8.16839e-05
8.23549e-05
8.32202e-05
8.38071e-05
8.35054e-05
8.18184e-05
7.82942e-05
7.22719e-05
6.5037e-05
3.22336e-05
0.000100225
0.000157104
0.000198871
0.000225894
0.000242876
0.000253772
0.000260394
0.000263347
0.00026276
0.000258616
0.000250958
0.000239991
0.000226089
0.000209772
0.000191649
0.000172425
0.0001529
0.000134026
0.000117079
0.000103738
9.44612e-05
8.84784e-05
8.5011e-05
8.33824e-05
8.30537e-05
8.36108e-05
8.46998e-05
8.59265e-05
8.67668e-05
8.65842e-05
8.48971e-05
8.12575e-05
7.4945e-05
6.72469e-05
3.40441e-05
0.000103928
0.00016225
0.000204925
0.000232448
0.000249733
0.000260815
0.000267513
0.00027043
0.000269703
0.000265325
0.000257357
0.000246019
0.000231701
0.000214923
0.000196298
0.000176522
0.000156392
0.000136859
0.000119214
0.000105183
9.54546e-05
8.92745e-05
8.58429e-05
8.44424e-05
8.44804e-05
8.54831e-05
8.70323e-05
8.86667e-05
8.98005e-05
8.97602e-05
8.80728e-05
8.42933e-05
7.76404e-05
6.94118e-05
3.59059e-05
0.000107689
0.000167465
0.000211073
0.000239134
0.000256763
0.000268045
0.000274801
0.000277661
0.000276782
0.000272176
0.00026392
0.000252249
0.000237559
0.000220369
0.000201287
0.000180999
0.000160286
0.000140087
0.000121695
0.000106864
9.65677e-05
9.00859e-05
8.66109e-05
8.53908e-05
8.57802e-05
8.724e-05
8.92795e-05
9.13612e-05
9.28272e-05
9.29571e-05
9.12799e-05
8.73521e-05
8.03313e-05
7.15357e-05
3.77471e-05
0.000111293
0.00017243
0.000216946
0.000245595
0.000263664
0.000275163
0.00028192
0.000284676
0.000283633
0.000278811
0.000270297
0.000258336
0.000243328
0.000225787
0.000206311
0.00018557
0.000164325
0.000143494
0.000124361
0.000108694
9.77637e-05
9.09093e-05
8.73314e-05
8.62547e-05
8.69845e-05
8.8914e-05
9.14726e-05
9.40363e-05
9.58651e-05
9.61838e-05
9.45209e-05
9.04347e-05
8.30177e-05
7.36113e-05
3.96396e-05
0.000114939
0.000177428
0.000222854
0.000252136
0.000270565
0.000282287
0.00028913
0.000291772
0.00029057
0.00028555
0.00027681
0.0002646
0.000249319
0.000231477
0.000211658
0.00019051
0.000168767
0.000147316
0.000127418
0.000110838
9.91581e-05
9.18157e-05
8.80367e-05
8.70347e-05
8.80702e-05
9.04663e-05
9.35656e-05
9.66484e-05
9.88826e-05
9.94268e-05
9.77971e-05
9.35447e-05
8.57004e-05
7.56419e-05
4.15105e-05
0.000118427
0.000182167
0.000228437
0.000258311
0.000277095
0.000289052
0.000296016
0.000298635
0.00029727
0.00029207
0.000283136
0.000270719
0.000255219
0.000237137
0.000217041
0.000195555
0.00017338
0.000151364
0.000130737
0.000113245
0.000100746
9.28315e-05
8.87686e-05
8.77766e-05
8.90801e-05
9.19314e-05
9.55792e-05
9.91977e-05
0.000101851
0.000102624
0.000101025
9.66176e-05
8.83429e-05
7.76127e-05
4.34321e-05
0.000121957
0.000186951
0.000234085
0.000264502
0.000283616
0.000295806
0.000302904
0.000305532
0.000304011
0.000298653
0.000289555
0.00027697
0.000261295
0.00024302
0.000222699
0.000200927
0.00017837
0.00015583
0.000134493
0.000116073
0.000102654
9.40491e-05
8.95872e-05
8.85114e-05
9.0022e-05
9.33031e-05
9.75037e-05
0.000101683
0.000104793
0.000105842
0.000104342
9.97114e-05
9.09665e-05
7.95272e-05
4.53286e-05
0.000125314
0.000191468
0.000239462
0.000270328
0.000289752
0.000302182
0.000309438
0.000312116
0.000310498
0.000305014
0.000295783
0.00028307
0.000267268
0.000248861
0.00022838
0.000206395
0.000183531
0.000160542
0.000138562
0.000119265
0.000104881
9.55087e-05
9.05534e-05
8.9304e-05
9.09531e-05
9.46228e-05
9.93595e-05
0.000104098
0.00010767
0.000109006
0.000107645
0.000102796
9.35441e-05
8.13719e-05
4.72671e-05
0.000128681
0.000195959
0.000244779
0.000276096
0.000295837
0.000308515
0.000315946
0.000318709
0.000317068
0.000311423
0.000302062
0.000289244
0.000273355
0.00025486
0.00023427
0.000212126
0.000189012
0.000165629
0.000143056
0.000122912
0.000107506
9.72792e-05
9.17266e-05
9.02004e-05
9.19041e-05
9.59086e-05
0.000101158
0.00010646
0.000110526
0.000112234
0.000110981
0.000105928
9.61021e-05
8.31496e-05
4.91804e-05
0.000131894
0.0002002
0.000249782
0.000281516
0.000301556
0.00031448
0.000322087
0.000324942
0.000323297
0.000317541
0.000308107
0.000295242
0.00027932
0.000260795
0.00024016
0.000217924
0.000194636
0.000170939
0.000147851
0.000126928
0.000110503
9.93799e-05
9.31551e-05
9.12617e-05
9.2936e-05
9.72128e-05
0.00010294
0.000108798
0.000113379
0.000115493
0.000114347
0.000109079
9.8634e-05
8.48498e-05
5.11291e-05
0.000135113
0.000204419
0.000254738
0.000286871
0.000307207
0.000320377
0.000328172
0.000331135
0.000329505
0.000323656
0.000314165
0.000301273
0.000285346
0.000266826
0.000246185
0.000223908
0.000200501
0.000176554
0.000153014
0.000131365
0.000113922
0.000101864
9.48917e-05
9.25355e-05
9.40863e-05
9.85611e-05
0.00010472
0.000111115
0.000116214
0.000118751
0.000117715
0.000112227
0.00010113
8.64695e-05
5.30517e-05
0.000138192
0.000208407
0.000259395
0.000291891
0.000312507
0.000325921
0.000333907
0.000336994
0.000335407
0.000329506
0.000319997
0.000307117
0.000291228
0.000272761
0.00025217
0.000229914
0.000206459
0.00018234
0.000158432
0.00013614
0.000117731
0.000104739
9.69752e-05
9.40788e-05
9.54181e-05
0.000100014
0.000106554
0.000113463
0.000119076
0.000122029
0.000121091
0.000115362
0.00010358
8.80008e-05
5.50017e-05
0.000141277
0.000212378
0.000263997
0.000296828
0.000317709
0.000331361
0.000339541
0.000342762
0.000341237
0.000335315
0.000325792
0.000312934
0.000297102
0.000278716
0.000258212
0.000236021
0.000212572
0.000188344
0.000164142
0.00014128
0.000121956
0.000108037
9.94431e-05
9.5931e-05
9.69655e-05
0.000101594
0.000108443
0.000115815
0.000121907
0.000125279
0.000124443
0.000118465
0.000105974
8.9443e-05
5.69265e-05
0.000144242
0.000216156
0.000268322
0.000301446
0.000322576
0.00033646
0.000344837
0.000348203
0.000346771
0.000340891
0.000331355
0.000318543
0.000302803
0.000284541
0.000264171
0.000242098
0.000218717
0.000194455
0.000170044
0.000146707
0.000126557
0.000111751
0.000102317
9.81328e-05
9.87772e-05
0.000103349
0.000110435
0.00011823
0.000124812
0.000128533
0.000127767
0.000121522
0.0001083
9.07923e-05
5.88687e-05
0.000147202
0.000219955
0.00027257
0.00030595
0.000327313
0.000341423
0.000349991
0.000353499
0.000352155
0.000346318
0.000336792
0.000324053
0.000308434
0.000290323
0.000270119
0.000248202
0.000224935
0.000200697
0.000176152
0.000152428
0.000131541
0.000115894
0.000105619
0.000100714
0.000100886
0.000105307
0.000112552
0.000120721
0.000127773
0.000131789
0.00013106
0.000124525
0.000110556
9.2052e-05
6.07671e-05
0.000149991
0.000223497
0.000276519
0.000310141
0.000331729
0.000346063
0.000354827
0.000358487
0.000357249
0.000351479
0.000341995
0.000329357
0.000313887
0.000295959
0.000275955
0.000254234
0.00023113
0.000206977
0.000182376
0.000158365
0.000136858
0.000120441
0.000109351
0.000103699
0.000103327
0.000107509
0.000114828
0.000123307
0.000130781
0.000135045
0.000134318
0.000127471
0.000112736
9.32231e-05
6.26526e-05
0.000152734
0.000226968
0.000280369
0.000314201
0.000335994
0.000350535
0.000359483
0.00036329
0.000362159
0.000356467
0.000347043
0.000334526
0.000319227
0.000301505
0.000281726
0.00026023
0.000237325
0.000213305
0.000188715
0.000164506
0.00014249
0.00012538
0.000113513
0.000107099
0.000106121
0.000109974
0.000117276
0.000125989
0.000133827
0.000138291
0.000137533
0.000130353
0.000114842
9.43106e-05
6.45021e-05
0.000155337
0.000230218
0.000283934
0.000317955
0.000339948
0.000354702
0.000363843
0.000367805
0.00036679
0.000361186
0.00035185
0.000339488
0.000324388
0.0003069
0.000287373
0.000266132
0.000243461
0.000219621
0.000195104
0.000170786
0.000148379
0.000130668
0.000118081
0.000110914
0.000109287
0.000112729
0.00011992
0.000128781
0.00013691
0.000141522
0.000140703
0.00013317
0.000116872
9.53184e-05
6.63385e-05
0.00015789
0.00023337
0.000287367
0.000321553
0.00034373
0.000358683
0.000368009
0.000372125
0.000371232
0.00036573
0.00035649
0.000344286
0.000329405
0.000312174
0.000292923
0.000271961
0.000249553
0.000225928
0.000201537
0.000177184
0.000154492
0.000136267
0.000123026
0.000115129
0.000112824
0.000115782
0.000122768
0.000131685
0.000140027
0.000144734
0.00014382
0.000135917
0.000118829
9.62528e-05
6.81279e-05
0.000160294
0.000236298
0.000290532
0.000324862
0.000347214
0.000362365
0.000371877
0.000376152
0.000375391
0.000370009
0.0003609
0.000348885
0.000334238
0.000317281
0.000298331
0.000277671
0.000255552
0.000232178
0.000207959
0.00018364
0.000160763
0.000142123
0.000128306
0.00011972
0.000116726
0.000119141
0.000125833
0.000134712
0.000143184
0.000147927
0.000146884
0.000138594
0.000120712
9.71189e-05
6.98971e-05
0.00016263
0.000239114
0.000293546
0.000327998
0.00035051
0.000365846
0.000375537
0.000379967
0.000379339
0.000374085
0.000365122
0.000353313
0.000338921
0.000322252
0.000303614
0.000283281
0.000261472
0.000238375
0.000214367
0.00019014
0.00016716
0.000148197
0.000133884
0.000124656
0.000120976
0.000122801
0.000129118
0.000137865
0.000146383
0.0001511
0.000149893
0.0001412
0.000122525
9.79229e-05
7.16162e-05
0.000164827
0.000241721
0.00029631
0.000330863
0.000353524
0.00036904
0.000378907
0.000383494
0.000383007
0.000377895
0.000369103
0.000357522
0.000343405
0.000327046
0.000308738
0.000288744
0.000267274
0.000244483
0.000220722
0.00019664
0.000173638
0.000154445
0.000139718
0.000129907
0.000125557
0.000126759
0.000132627
0.000141152
0.000149627
0.000154256
0.000152849
0.000143736
0.000124269
9.86692e-05
7.32958e-05
0.000166929
0.000244189
0.000298904
0.000333538
0.000356334
0.00037202
0.000382056
0.000386795
0.000386448
0.000381486
0.000372879
0.000361542
0.000347715
0.000331681
0.000313718
0.000294078
0.000272958
0.000250497
0.000227016
0.000203125
0.00018017
0.000160837
0.000145776
0.000135441
0.000130445
0.000131003
0.00013636
0.000144577
0.000152923
0.000157399
0.000155754
0.000146205
0.000125949
9.93637e-05
7.49236e-05
0.000168906
0.000246469
0.000301269
0.000335963
0.000358882
0.000374728
0.000384927
0.000389817
0.000389614
0.000384813
0.000376411
0.000365335
0.000351815
0.000336121
0.000318521
0.000299251
0.000278496
0.000256386
0.000233215
0.000209559
0.000186719
0.000167336
0.000152022
0.000141228
0.000135618
0.00013552
0.000140314
0.000148142
0.000156273
0.000160532
0.000158613
0.000148611
0.000127568
0.000100011
7.65035e-05
0.000170777
0.000248599
0.000303452
0.000338187
0.000361215
0.000377212
0.000387568
0.000392605
0.000392546
0.000387911
0.000379728
0.000368926
0.000355725
0.000340383
0.000323155
0.000304267
0.000283891
0.000262144
0.000239312
0.00021593
0.000193265
0.000173915
0.000158427
0.000147236
0.00014105
0.000140295
0.000144482
0.00015185
0.000159685
0.000163663
0.000161431
0.000150959
0.000129132
0.000100616
7.80274e-05
0.000172526
0.000250549
0.00030542
0.000340177
0.000363301
0.000379439
0.000389945
0.000395126
0.000395213
0.000390753
0.000382807
0.000372294
0.000359424
0.000344445
0.000327602
0.000309107
0.000289124
0.000267756
0.000245275
0.000222209
0.000199778
0.000180545
0.00016496
0.000153438
0.000146716
0.000145309
0.000148853
0.000155695
0.000163158
0.000166796
0.000164214
0.000153255
0.000130646
0.000101185
7.94993e-05
0.000174169
0.000252348
0.000307206
0.000341964
0.000365172
0.000381442
0.00039209
0.000397411
0.000397644
0.000393365
0.000385668
0.000375454
0.000362924
0.000348316
0.000331865
0.000313774
0.000294194
0.00027322
0.000251115
0.000228391
0.00020625
0.000187207
0.000171597
0.000159807
0.000152592
0.000150544
0.00015342
0.000159679
0.000166699
0.000169938
0.000166969
0.000155505
0.000132116
0.000101723
8.09123e-05
0.000175691
0.000253974
0.000308786
0.00034353
0.000366809
0.000383201
0.000393986
0.000399444
0.000399825
0.000395735
0.000388303
0.0003784
0.00036622
0.000351992
0.000335941
0.000318259
0.000299092
0.000278525
0.000256816
0.000234468
0.000212671
0.00019389
0.000178323
0.000166326
0.00015866
0.000155984
0.000158169
0.000163795
0.000170305
0.000173093
0.000169704
0.000157718
0.000133551
0.000102237
8.22708e-05
0.000177107
0.000255452
0.000310189
0.000344899
0.000368237
0.000384742
0.000395655
0.000401246
0.000401774
0.000397879
0.000390724
0.000381142
0.00036932
0.000355477
0.00033983
0.000322565
0.000303816
0.000283668
0.00026237
0.000240426
0.00021902
0.000200568
0.000185111
0.00017297
0.000164902
0.000161619
0.000163102
0.000168065
0.000173987
0.000176269
0.000172427
0.000159903
0.000134959
0.000102735
8.35709e-05
0.00017841
0.000256769
0.000311402
0.000346063
0.000369448
0.000386056
0.000397092
0.000402811
0.000403489
0.000399796
0.000392931
0.00038368
0.000372222
0.00035877
0.000343532
0.000326686
0.000308363
0.000288642
0.000267776
0.000246268
0.000225312
0.00020724
0.000191951
0.000179724
0.000171302
0.000167438
0.000168215
0.000172482
0.000177756
0.000179479
0.00017515
0.00016207
0.000136349
0.000103223
8.48143e-05
0.000179609
0.00025794
0.000312443
0.000347038
0.000370457
0.000387159
0.00039831
0.000404154
0.00040498
0.000401495
0.000394933
0.000386023
0.000374936
0.000361878
0.000347052
0.000330628
0.000312734
0.000293449
0.00027303
0.000251993
0.000231545
0.000213897
0.000198824
0.000186566
0.00017784
0.000173425
0.000173497
0.000177037
0.000181611
0.000182729
0.000177882
0.00016423
0.000137729
0.000103708
8.60005e-05
0.000180701
0.000258963
0.000313309
0.000347822
0.000371264
0.00038805
0.000399309
0.000405273
0.000406248
0.000402978
0.000396731
0.00038817
0.000377459
0.0003648
0.000350386
0.000334386
0.000316925
0.000298084
0.000278129
0.000257594
0.000237716
0.000220528
0.000205717
0.000193479
0.000184499
0.00017957
0.000178945
0.000181734
0.000185563
0.000186033
0.000180638
0.000166396
0.000139111
0.000104199
8.71328e-05
0.000181696
0.00025985
0.000314013
0.000348429
0.000371881
0.000388742
0.000400101
0.00040618
0.000407305
0.000404255
0.000398334
0.00039013
0.000379801
0.000367542
0.000353543
0.000337966
0.000320938
0.000302546
0.000283067
0.000263063
0.000243808
0.000227115
0.000212609
0.000200441
0.000191258
0.000185854
0.000184548
0.000186572
0.000189618
0.000189401
0.000183427
0.000168578
0.000140502
0.000104699
8.82144e-05
0.000182598
0.000260605
0.00031456
0.00034886
0.000372311
0.000389235
0.000400687
0.000406876
0.00040815
0.000405326
0.000399743
0.000391903
0.000381961
0.000370105
0.000356518
0.000341364
0.000324768
0.000306825
0.000287832
0.00026838
0.000249791
0.00023363
0.000219473
0.000207429
0.000198101
0.000192269
0.000190302
0.000191552
0.000193784
0.000192847
0.000186268
0.000170791
0.000141915
0.000105217
8.92514e-05
0.000183415
0.000261239
0.00031496
0.00034913
0.000372566
0.000389544
0.000401079
0.000407374
0.000408797
0.000406205
0.00040097
0.000393503
0.000383952
0.000372499
0.000359326
0.000344592
0.000328425
0.00031093
0.000292426
0.000273541
0.00025565
0.000240048
0.000226277
0.000214403
0.000204981
0.000198772
0.000196173
0.00019665
0.000198053
0.000196371
0.000189165
0.000173043
0.000143354
0.000105753
9.0248e-05
0.000184151
0.000261754
0.000315215
0.000349237
0.000372647
0.000389668
0.00040128
0.000407676
0.000409248
0.000406894
0.000402017
0.000394928
0.000385772
0.000374725
0.000361965
0.000347649
0.000331909
0.000314861
0.000296847
0.000278539
0.00026137
0.000246351
0.000232998
0.000221343
0.000211888
0.000205355
0.000202163
0.000201876
0.000202439
0.00019999
0.000192134
0.000175347
0.00014483
0.000106312
9.12105e-05
0.000184814
0.000262162
0.000315338
0.000349197
0.000372567
0.000389622
0.000401302
0.000407796
0.00040952
0.000407411
0.000402899
0.000396193
0.000387434
0.000376796
0.000364449
0.000350551
0.000335237
0.000318633
0.00030111
0.000283387
0.000266956
0.000252534
0.000239622
0.000228219
0.000218776
0.000211966
0.000208228
0.000207207
0.000206932
0.000203705
0.000195182
0.000177711
0.000146347
0.000106894
9.21401e-05
0.000185404
0.00026246
0.000315327
0.000349006
0.000372325
0.000389404
0.000401145
0.000407734
0.000409615
0.000407763
0.00040362
0.000397297
0.000388935
0.000378705
0.000366773
0.000353294
0.000338404
0.000322246
0.000305217
0.000288087
0.000272406
0.000258591
0.00024614
0.00023502
0.000225636
0.00021861
0.000214372
0.000212645
0.000211536
0.000207521
0.000198316
0.000180142
0.000147911
0.000107502
9.30428e-05
0.00018593
0.00026266
0.000315194
0.000348679
0.000371935
0.000389028
0.000400823
0.000407506
0.000409557
0.00040799
0.000404201
0.000398252
0.000390284
0.000380462
0.000368947
0.000355888
0.000341427
0.000325717
0.000309187
0.00029266
0.000277732
0.00026453
0.000252548
0.000241734
0.000232442
0.000225246
0.00022055
0.000218162
0.000216241
0.000211441
0.000201544
0.000182649
0.000149527
0.000108135
9.39174e-05
0.000186387
0.000262757
0.000314936
0.000348211
0.000371393
0.00038849
0.000400328
0.0004071
0.000409327
0.000408072
0.000404622
0.000399041
0.000391467
0.000382056
0.000370961
0.000358328
0.0003443
0.000329045
0.000313024
0.000297116
0.000282944
0.000270355
0.000258849
0.000248355
0.000239187
0.000231865
0.000226771
0.000223758
0.000221043
0.000215461
0.000204864
0.000185233
0.000151195
0.000108793
9.4768e-05
0.000186783
0.000262761
0.000314563
0.000347617
0.000370715
0.000387805
0.000399677
0.000406527
0.000408921
0.000407976
0.000404871
0.000399667
0.000392494
0.000383498
0.000372828
0.000360626
0.000347039
0.00033225
0.000316754
0.000301492
0.000288065
0.00027608
0.000265048
0.000254884
0.000245862
0.000238451
0.000233001
0.0002294
0.000225927
0.00021958
0.000208282
0.000187898
0.00015292
0.000109476
9.55947e-05
0.000187116
0.000262668
0.000314073
0.000346892
0.000369897
0.000386972
0.000398871
0.000405797
0.000408363
0.000407735
0.000404977
0.000400147
0.000393371
0.000384791
0.000374547
0.000362782
0.000349645
0.000335339
0.000320395
0.00030582
0.000293118
0.000281723
0.000271156
0.000261323
0.000252462
0.000244993
0.000239231
0.0002351
0.000230888
0.000223787
0.00021179
0.000190641
0.000154696
0.000110182
9.64026e-05
0.000187392
0.000262489
0.000313477
0.00034605
0.000368951
0.000386004
0.000397922
0.000404918
0.000407655
0.000407348
0.00040494
0.000400486
0.000394109
0.000385944
0.00037613
0.000364806
0.000352131
0.000338327
0.000323966
0.000310127
0.000298129
0.000287305
0.00027719
0.000267684
0.000258993
0.000251488
0.000245452
0.00024083
0.000235913
0.000228081
0.000215388
0.000193463
0.00015653
0.000110914
9.71918e-05
0.000187611
0.000262221
0.000312772
0.000345086
0.000367876
0.000384898
0.000396828
0.000403892
0.000406801
0.000406821
0.000404765
0.000400687
0.000394706
0.000386956
0.000377571
0.000366694
0.00035449
0.000341206
0.00032746
0.000314401
0.000303095
0.00029283
0.000283158
0.000273975
0.000265459
0.000257938
0.000251659
0.000246588
0.000241002
0.000232449
0.000219067
0.000196359
0.000158414
0.000111666
9.79659e-05
0.00018778
0.000261873
0.000311967
0.000344011
0.000366682
0.000383666
0.000395602
0.000402732
0.000405817
0.000406173
0.000404472
0.00040077
0.000395184
0.000387845
0.000378887
0.000368455
0.000356727
0.000343975
0.000330866
0.000318618
0.000308003
0.000298296
0.000289063
0.0002802
0.000271862
0.000264338
0.000257845
0.000252364
0.000246144
0.000236899
0.000222829
0.000199327
0.000160349
0.000112439
9.8725e-05
0.000187895
0.00026144
0.000311057
0.000342818
0.000365361
0.0003823
0.000394236
0.000401429
0.000404695
0.000405393
0.000404053
0.000400729
0.000395538
0.000388609
0.000380076
0.00037009
0.000358842
0.00034663
0.000334177
0.00032276
0.000312839
0.000303693
0.000294905
0.000286366
0.000278213
0.000270699
0.000264012
0.000258152
0.000251328
0.000241414
0.000226665
0.000202363
0.000162332
0.000113232
9.94724e-05
0.000187965
0.000260932
0.000310051
0.000341517
0.000363923
0.00038081
0.000392742
0.0004
0.000403453
0.000404501
0.000403525
0.000400581
0.000395783
0.000389261
0.000381151
0.000371609
0.000360843
0.00034918
0.000337397
0.000326819
0.000317591
0.000309008
0.000300668
0.00029246
0.000284501
0.000277009
0.000270151
0.00026395
0.000256556
0.000245996
0.000230578
0.000205467
0.00016436
0.000114043
0.000100208
0.000187984
0.000260342
0.000308941
0.000340098
0.000362358
0.000379187
0.000391111
0.000398435
0.000402082
0.000403489
0.000402881
0.000400318
0.000395915
0.000389802
0.000382116
0.00037302
0.00036274
0.000351636
0.000340541
0.0003308
0.000322261
0.000314239
0.000306348
0.000298476
0.000290716
0.000283257
0.000276242
0.000269733
0.000261799
0.000250618
0.00023454
0.000208614
0.000166417
0.000114869
0.000100933
0.000187959
0.000259675
0.000307732
0.000338569
0.000360676
0.00037744
0.000389356
0.000396753
0.000400603
0.000402373
0.000402132
0.000399949
0.000395941
0.000390238
0.000382978
0.000374334
0.000364548
0.000354018
0.000343636
0.000334719
0.000326855
0.000319387
0.000311944
0.000304414
0.00029687
0.000289467
0.000282327
0.000275535
0.000267085
0.000255298
0.000238565
0.000211817
0.000168512
0.000115712
0.000101644
0.000187879
0.00025892
0.000306414
0.000336918
0.000358863
0.000375558
0.000387466
0.00039495
0.000399025
0.000401153
0.000401273
0.000399466
0.000395855
0.000390565
0.000383738
0.000375555
0.000366279
0.000356347
0.000346716
0.000338595
0.000331384
0.000324453
0.000317449
0.000310257
0.000302927
0.000295582
0.000288326
0.000281299
0.000272373
0.000260008
0.000242632
0.000215061
0.000170646
0.00011657
0.000102338
0.000187744
0.000258077
0.00030499
0.000335151
0.000356927
0.000373548
0.00038545
0.000393043
0.000397404
0.000399845
0.000400306
0.000398871
0.000395656
0.000390783
0.000384397
0.000376687
0.000367939
0.000358636
0.000349798
0.000342442
0.000335858
0.000329446
0.000322869
0.000316011
0.000308905
0.000301651
0.000294352
0.000287068
0.000277681
0.000264758
0.000246749
0.000218355
0.000172823
0.000117447
0.000103009
0.000187544
0.000257138
0.000303452
0.00033326
0.000354861
0.0003714