/*--------------------------------*- C++ -*----------------------------------*\
| =========                 |                                                 |
| \\      /  F ield         | OpenFOAM: The Open Source CFD Toolbox           |
|  \\    /   O peration     | Version:  v2006                                 |
|   \\  /    A nd           | Website:  www.openfoam.com                      |
|    \\/     M anipulation  |                                                 |
\*---------------------------------------------------------------------------*/
FoamFile
{
    version     2.0;
    format      ascii;
    class       volScalarField;
    location    "76";
    object      nut;
}
// * * * * * * * * * * * * * * * * * * * * * * * * * * * * * * * * * * * * * //

dimensions      [0 2 -1 0 0 0 0];


internalField   nonuniform List<scalar> 
78750
(
5.13844e-09
3.95749e-07
6.3368e-07
8.6215e-07
1.07964e-06
1.28176e-06
1.46679e-06
1.63419e-06
1.78373e-06
1.91539e-06
2.02933e-06
2.12582e-06
2.20529e-06
2.26826e-06
2.31501e-06
2.3453e-06
2.35976e-06
2.35894e-06
2.34336e-06
2.31335e-06
2.26968e-06
2.21121e-06
2.13797e-06
2.04976e-06
1.94606e-06
1.8262e-06
1.68941e-06
1.53463e-06
1.36052e-06
1.16623e-06
9.50276e-07
7.13731e-07
4.73084e-07
2.6879e-07
5.45371e-09
2.71477e-09
1.5626e-06
3.91987e-06
6.81545e-06
9.58188e-06
1.14154e-05
1.24968e-05
1.32581e-05
1.39176e-05
1.45614e-05
1.52309e-05
1.59503e-05
1.67407e-05
1.76108e-05
1.84526e-05
1.83542e-05
1.81692e-05
1.79082e-05
1.75808e-05
1.71957e-05
1.67601e-05
1.62765e-05
1.5748e-05
1.51754e-05
1.45565e-05
1.38862e-05
1.3159e-05
1.21759e-05
1.02329e-05
8.20009e-06
6.03472e-06
4.07684e-06
3.00758e-06
2.0252e-06
2.29376e-08
4.23452e-09
1.89125e-06
4.07696e-06
6.8138e-06
1.00858e-05
1.35694e-05
1.66446e-05
1.88381e-05
2.01488e-05
2.08379e-05
2.11549e-05
2.12593e-05
2.12405e-05
2.11453e-05
2.09886e-05
2.07586e-05
2.04368e-05
2.0022e-05
1.95244e-05
1.8955e-05
1.83262e-05
1.76589e-05
1.69663e-05
1.62385e-05
1.54553e-05
1.45868e-05
1.35768e-05
1.23389e-05
1.07678e-05
8.80262e-06
6.68075e-06
5.15035e-06
5.06324e-06
2.19e-06
3.84974e-08
7.84541e-09
1.79523e-06
4.03174e-06
7.12458e-06
1.10961e-05
1.5391e-05
1.90717e-05
2.15957e-05
2.30014e-05
2.35483e-05
2.34848e-05
2.30153e-05
2.22897e-05
2.14118e-05
2.04529e-05
1.94618e-05
1.84696e-05
1.7496e-05
1.65551e-05
1.56611e-05
1.48327e-05
1.4094e-05
1.34673e-05
1.29588e-05
1.25462e-05
1.21662e-05
1.16978e-05
1.09643e-05
9.79677e-06
8.20816e-06
6.62139e-06
5.86365e-06
6.88864e-06
2.02835e-06
4.95608e-08
1.16533e-08
1.8183e-06
4.24131e-06
7.90935e-06
1.29339e-05
1.83798e-05
2.27883e-05
2.55146e-05
2.62985e-05
2.67069e-05
2.58765e-05
2.45318e-05
2.29661e-05
2.13549e-05
1.98046e-05
1.83661e-05
1.70533e-05
1.58593e-05
1.47688e-05
1.377e-05
1.28642e-05
1.20693e-05
1.14095e-05
1.08997e-05
1.05337e-05
1.02632e-05
9.96998e-06
9.4675e-06
8.59926e-06
7.44371e-06
6.46186e-06
6.4676e-06
7.84629e-06
1.90693e-06
5.71961e-08
1.58135e-08
1.85016e-06
4.44883e-06
8.66779e-06
1.4726e-05
2.11358e-05
2.57775e-05
2.77026e-05
2.83431e-05
2.7795e-05
2.61316e-05
2.40675e-05
2.19377e-05
1.99366e-05
1.81548e-05
1.66117e-05
1.52871e-05
1.41445e-05
1.31449e-05
1.22587e-05
1.14746e-05
1.07978e-05
1.02338e-05
9.77897e-06
9.42104e-06
9.12205e-06
8.79327e-06
8.3045e-06
7.5801e-06
6.75702e-06
6.27588e-06
6.92996e-06
7.92367e-06
1.81961e-06
6.24852e-08
1.96646e-08
1.88669e-06
4.61599e-06
9.23642e-06
1.60321e-05
2.30002e-05
2.76357e-05
2.94899e-05
2.95662e-05
2.80796e-05
2.57829e-05
2.32139e-05
2.07347e-05
1.85332e-05
1.66662e-05
1.51147e-05
1.3828e-05
1.27488e-05
1.18281e-05
1.10327e-05
1.03529e-05
9.79475e-06
9.34431e-06
8.97075e-06
8.64204e-06
8.31698e-06
7.93336e-06
7.42591e-06
6.79894e-06
6.22331e-06
6.1094e-06
7.23324e-06
7.51642e-06
1.75195e-06
6.67674e-08
2.3124e-08
1.92089e-06
4.73722e-06
9.63428e-06
1.6978e-05
2.43516e-05
2.89052e-05
3.05097e-05
2.99206e-05
2.78943e-05
2.51552e-05
2.22874e-05
1.96506e-05
1.73948e-05
1.55334e-05
1.40179e-05
1.2786e-05
1.17779e-05
1.09439e-05
1.02543e-05
9.70146e-06
9.27586e-06
8.93139e-06
8.61044e-06
8.26567e-06
7.86225e-06
7.375e-06
6.80358e-06
6.2143e-06
5.79152e-06
5.91545e-06
7.33849e-06
7.05591e-06
1.70322e-06
7.09972e-08
2.63161e-08
1.94627e-06
4.80975e-06
9.87184e-06
1.75489e-05
2.51094e-05
2.95179e-05
3.08227e-05
2.98878e-05
2.75384e-05
2.45567e-05
2.15458e-05
1.88462e-05
1.6574e-05
1.47153e-05
1.32083e-05
1.19855e-05
1.09913e-05
1.01859e-05
9.55172e-06
9.09624e-06
8.80201e-06
8.59435e-06
8.38067e-06
8.07876e-06
7.64172e-06
7.07332e-06
6.43328e-06
5.84194e-06
5.49682e-06
5.75938e-06
7.35439e-06
6.63876e-06
1.6663e-06
7.56634e-08
2.93341e-08
1.96907e-06
4.86611e-06
1.00487e-05
1.79781e-05
2.56831e-05
2.9977e-05
3.10366e-05
2.98216e-05
2.72282e-05
2.40853e-05
2.09991e-05
1.8283e-05
1.60214e-05
1.41796e-05
1.26861e-05
1.14724e-05
1.0485e-05
9.69014e-06
9.08219e-06
8.68097e-06
8.46454e-06
8.34655e-06
8.21381e-06
7.95552e-06
7.50595e-06
6.88221e-06
6.18743e-06
5.5827e-06
5.27717e-06
5.6225e-06
7.32151e-06
6.29907e-06
1.63933e-06
8.06569e-08
3.2363e-08
1.98792e-06
4.90712e-06
1.01785e-05
1.82877e-05
2.60507e-05
3.02029e-05
3.1055e-05
2.96371e-05
2.68891e-05
2.36597e-05
2.05453e-05
1.78336e-05
1.55854e-05
1.37529e-05
1.22606e-05
1.10408e-05
1.00445e-05
9.24496e-06
8.64713e-06
8.28406e-06
8.13089e-06
8.09442e-06
8.04675e-06
7.85164e-06
7.421e-06
6.77399e-06
6.04375e-06
5.42471e-06
5.13975e-06
5.54036e-06
7.31383e-06
6.01899e-06
1.61992e-06
8.58331e-08
3.54287e-08
2.00732e-06
4.95183e-06
1.03144e-05
1.8593e-05
2.6402e-05
3.04227e-05
3.10856e-05
2.94858e-05
2.66077e-05
2.33175e-05
2.01968e-05
1.75054e-05
1.52817e-05
1.34659e-05
1.19789e-05
1.07537e-05
9.7444e-06
8.92969e-06
8.32372e-06
7.96934e-06
7.84168e-06
7.84791e-06
7.85488e-06
7.71156e-06
7.31197e-06
6.66986e-06
5.93168e-06
5.31278e-06
5.04904e-06
5.49883e-06
7.34053e-06
5.79134e-06
1.60715e-06
9.09778e-08
3.85766e-08
2.02542e-06
4.99328e-06
1.044e-05
1.88636e-05
2.66801e-05
3.05544e-05
3.1041e-05
2.92905e-05
2.63191e-05
2.29975e-05
1.98873e-05
1.72218e-05
1.50216e-05
1.32192e-05
1.1734e-05
1.05012e-05
9.4782e-06
8.64835e-06
8.03302e-06
7.68345e-06
7.57281e-06
7.60862e-06
7.65693e-06
7.5587e-06
7.19569e-06
6.57534e-06
5.84928e-06
5.24431e-06
5.00726e-06
5.5086e-06
7.41744e-06
5.60378e-06
1.59991e-06
9.60073e-08
4.18175e-08
2.04516e-06
5.04201e-06
1.05837e-05
1.91572e-05
2.69715e-05
3.0697e-05
3.10136e-05
2.91251e-05
2.60778e-05
2.27424e-05
1.96556e-05
1.70241e-05
1.48515e-05
1.30636e-05
1.15794e-05
1.03361e-05
9.29454e-06
8.44242e-06
7.80702e-06
7.44707e-06
7.33581e-06
7.38074e-06
7.44897e-06
7.38073e-06
7.05192e-06
6.46423e-06
5.76792e-06
5.19257e-06
4.99244e-06
5.55292e-06
7.5316e-06
5.45345e-06
1.5977e-06
1.00869e-07
4.50986e-08
2.06393e-06
5.08864e-06
1.07204e-05
1.94278e-05
2.72212e-05
3.07977e-05
3.09585e-05
2.89539e-05
2.58525e-05
2.25176e-05
1.94603e-05
1.68629e-05
1.47156e-05
1.29399e-05
1.14549e-05
1.02002e-05
9.13982e-06
8.26526e-06
7.60865e-06
7.23519e-06
7.11873e-06
7.167e-06
7.24765e-06
7.20138e-06
6.90435e-06
6.35442e-06
5.69781e-06
5.16229e-06
5.00724e-06
5.63422e-06
7.68058e-06
5.33099e-06
1.59932e-06
1.05566e-07
4.8476e-08
2.08432e-06
5.14131e-06
1.0872e-05
1.97183e-05
2.74822e-05
3.09086e-05
3.09225e-05
2.88174e-05
2.5679e-05
2.23582e-05
1.93379e-05
1.67778e-05
1.46562e-05
1.28912e-05
1.14026e-05
1.01322e-05
9.04742e-06
8.14359e-06
7.45659e-06
7.05747e-06
6.92314e-06
6.96198e-06
7.04363e-06
7.0112e-06
6.74224e-06
6.23372e-06
5.62525e-06
5.13879e-06
5.03683e-06
5.73751e-06
7.85013e-06
5.23688e-06
1.60466e-06
1.10123e-07
5.18486e-08
2.10366e-06
5.19185e-06
1.10173e-05
1.99901e-05
2.77163e-05
3.10006e-05
3.08831e-05
2.86946e-05
2.55321e-05
2.22313e-05
1.92488e-05
1.67244e-05
1.46271e-05
1.2872e-05
1.13794e-05
1.00929e-05
8.98284e-06
8.04844e-06
7.32871e-06
6.89993e-06
6.74346e-06
6.7684e-06
6.84659e-06
6.8248e-06
6.58314e-06
6.11705e-06
5.56022e-06
5.12797e-06
5.0847e-06
5.86487e-06
8.0373e-06
5.1624e-06
1.61252e-06
1.14549e-07
5.53165e-08
2.12438e-06
5.24702e-06
1.11743e-05
2.02778e-05
2.79611e-05
3.11057e-05
3.08682e-05
2.86115e-05
2.54388e-05
2.21665e-05
1.92253e-05
1.67373e-05
1.46636e-05
1.29172e-05
1.14184e-05
1.01122e-05
8.972e-06
8.00023e-06
7.23882e-06
6.7682e-06
6.57783e-06
6.57833e-06
6.64467e-06
6.6286e-06
6.41389e-06
5.99362e-06
5.4929e-06
5.11924e-06
5.1392e-06
6.00331e-06
8.23084e-06
5.10784e-06
1.62277e-06
1.18875e-07
5.87555e-08
2.14409e-06
5.30063e-06
1.13278e-05
2.05549e-05
2.81917e-05
3.12057e-05
3.08602e-05
2.85459e-05
2.53686e-05
2.21259e-05
1.92249e-05
1.67725e-05
1.47231e-05
1.29871e-05
1.14841e-05
1.01601e-05
8.99021e-06
7.97986e-06
7.17416e-06
6.65693e-06
6.42751e-06
6.39869e-06
6.44903e-06
6.43587e-06
6.2471e-06
5.87354e-06
5.43122e-06
5.11905e-06
5.20575e-06
6.15799e-06
8.43264e-06
5.068e-06
1.63486e-06
1.23103e-07
6.22906e-08
2.16486e-06
5.35789e-06
1.14915e-05
2.08473e-05
2.84353e-05
3.13233e-05
3.08808e-05
2.85212e-05
2.53481e-05
2.2139e-05
1.92791e-05
1.68621e-05
1.48366e-05
1.3111e-05
1.16034e-05
1.02599e-05
9.05726e-06
8.00287e-06
7.14462e-06
6.56943e-06
6.29001e-06
6.22237e-06
6.24961e-06
6.23548e-06
6.07196e-06
5.74646e-06
5.36467e-06
5.11637e-06
5.27239e-06
6.3152e-06
8.63149e-06
5.04076e-06
1.64818e-06
1.27249e-07
6.57875e-08
2.18461e-06
5.41415e-06
1.16555e-05
2.11382e-05
2.86761e-05
3.14445e-05
3.09119e-05
2.85105e-05
2.53416e-05
2.21645e-05
1.93447e-05
1.69641e-05
1.49655e-05
1.32542e-05
1.17466e-05
1.03878e-05
9.15453e-06
8.05609e-06
7.143e-06
6.50544e-06
6.17068e-06
6.05885e-06
6.05823e-06
6.03963e-06
5.89944e-06
5.6215e-06
5.30081e-06
5.11788e-06
5.346e-06
6.48286e-06
8.8332e-06
5.02407e-06
1.66281e-06
1.31309e-07
6.9383e-08
2.20501e-06
5.4732e-06
1.18294e-05
2.1447e-05
2.89357e-05
3.15893e-05
3.09739e-05
2.8537e-05
2.53757e-05
2.22315e-05
1.94519e-05
1.71078e-05
1.51367e-05
1.34408e-05
1.19343e-05
1.05605e-05
9.29546e-06
8.14953e-06
7.17546e-06
6.4663e-06
6.06706e-06
5.90301e-06
5.86812e-06
5.84075e-06
5.72171e-06
5.49065e-06
5.2312e-06
5.11437e-06
5.41586e-06
6.64823e-06
9.02838e-06
5.01596e-06
1.6781e-06
1.3529e-07
7.29388e-08
2.22422e-06
5.53095e-06
1.20046e-05
2.17611e-05
2.92056e-05
3.17485e-05
3.1048e-05
2.85699e-05
2.54117e-05
2.22988e-05
1.95604e-05
1.72561e-05
1.53174e-05
1.36429e-05
1.21439e-05
1.07606e-05
9.46762e-06
8.27532e-06
7.23867e-06
6.45403e-06
5.98521e-06
5.76369e-06
5.68966e-06
5.6493e-06
5.54807e-06
5.36161e-06
5.16224e-06
5.11153e-06
5.48764e-06
6.81726e-06
9.21979e-06
5.01337e-06
1.6939e-06
1.39178e-07
7.65933e-08
2.24374e-06
5.59024e-06
1.21858e-05
2.20834e-05
2.94694e-05
3.19044e-05
3.11345e-05
2.86236e-05
2.54732e-05
2.23939e-05
1.96979e-05
1.74341e-05
1.55292e-05
1.38783e-05
1.23893e-05
1.09992e-05
9.6795e-06
8.43997e-06
7.33712e-06
6.47058e-06
5.92436e-06
5.63816e-06
5.51889e-06
5.46066e-06
5.37353e-06
5.22907e-06
5.08834e-06
5.10353e-06
5.55532e-06
6.98404e-06
9.40659e-06
5.01803e-06
1.71029e-06
1.4298e-07
8.02059e-08
2.26218e-06
5.64797e-06
1.23638e-05
2.23929e-05
2.97141e-05
3.20421e-05
3.12043e-05
2.86701e-05
2.55284e-05
2.24825e-05
1.98307e-05
1.76116e-05
1.5746e-05
1.41255e-05
1.26541e-05
1.12641e-05
9.92324e-06
8.63946e-06
7.47061e-06
6.52011e-06
5.89111e-06
5.53473e-06
5.36491e-06
5.28374e-06
5.206e-06
5.09949e-06
5.01443e-06
5.09385e-06
5.62069e-06
7.14781e-06
9.58256e-06
5.02352e-06
1.72638e-06
1.46668e-07
8.39163e-08
2.28104e-06
5.70813e-06
1.25497e-05
2.27052e-05
2.99549e-05
3.21769e-05
3.12759e-05
2.87265e-05
2.55976e-05
2.25873e-05
1.99809e-05
1.78074e-05
1.59828e-05
1.43956e-05
1.29457e-05
1.15603e-05
1.02022e-05
8.87659e-06
7.64171e-06
6.60479e-06
5.88625e-06
5.453e-06
5.22642e-06
5.11661e-06
5.04309e-06
4.97024e-06
4.93791e-06
5.08026e-06
5.68278e-06
7.31152e-06
9.76114e-06
5.0352e-06
1.74278e-06
1.50247e-07
8.75779e-08
2.2986e-06
5.76656e-06
1.27348e-05
2.30025e-05
3.01744e-05
3.22903e-05
3.13263e-05
2.8763e-05
2.56519e-05
2.26805e-05
2.01224e-05
1.79984e-05
1.62205e-05
1.46734e-05
1.32525e-05
1.18795e-05
1.05111e-05
9.1485e-06
7.85002e-06
6.72714e-06
5.91465e-06
5.39952e-06
5.11088e-06
4.96679e-06
4.89156e-06
4.84679e-06
4.86277e-06
5.0652e-06
5.7422e-06
7.4729e-06
9.9338e-06
5.04916e-06
1.75891e-06
1.53694e-07
9.13204e-08
2.31615e-06
5.82517e-06
1.29214e-05
2.32996e-05
3.03883e-05
3.23987e-05
3.13751e-05
2.88024e-05
2.57191e-05
2.27849e-05
2.02722e-05
1.81978e-05
1.64683e-05
1.49645e-05
1.35772e-05
1.22221e-05
1.08494e-05
9.45456e-06
8.09507e-06
6.88634e-06
5.97531e-06
5.37318e-06
5.01738e-06
4.83348e-06
4.75064e-06
4.72827e-06
4.78809e-06
5.04819e-06
5.80051e-06
7.63855e-06
1.01056e-05
5.06927e-06
1.77545e-06
1.57012e-07
9.5014e-08
2.33281e-06
5.88224e-06
1.31041e-05
2.35832e-05
3.05823e-05
3.24862e-05
3.14016e-05
2.88176e-05
2.57612e-05
2.2868e-05
2.0407e-05
1.83883e-05
1.67133e-05
1.52591e-05
1.39124e-05
1.25829e-05
1.12131e-05
9.79216e-06
8.37533e-06
7.08193e-06
6.07e-06
5.37746e-06
4.95042e-06
4.72174e-06
4.62537e-06
4.61934e-06
4.71805e-06
5.03313e-06
5.86121e-06
7.80956e-06
1.02771e-05
5.09296e-06
1.79226e-06
1.60184e-07
9.87756e-08
2.34962e-06
5.94023e-06
1.32901e-05
2.38672e-05
3.07709e-05
3.25679e-05
3.14241e-05
2.88314e-05
2.5804e-05
2.29531e-05
2.05438e-05
1.85809e-05
1.69613e-05
1.55591e-05
1.42572e-05
1.2959e-05
1.15991e-05
1.01584e-05
8.68862e-06
7.31213e-06
6.19742e-06
5.4114e-06
4.90936e-06
4.63115e-06
4.51552e-06
4.51977e-06
4.6522e-06
5.01899e-06
5.92211e-06
7.98218e-06
1.04465e-05
5.11957e-06
1.80922e-06
1.63202e-07
1.02487e-07
2.36578e-06
5.99699e-06
1.34721e-05
2.41378e-05
3.09404e-05
3.26293e-05
3.14248e-05
2.88219e-05
2.5824e-05
2.30188e-05
2.06655e-05
1.87626e-05
1.7203e-05
1.58581e-05
1.46069e-05
1.33469e-05
1.2004e-05
1.05503e-05
9.03259e-06
7.5755e-06
6.35799e-06
5.47674e-06
4.89685e-06
4.56505e-06
4.42483e-06
4.43351e-06
4.59464e-06
5.0102e-06
5.98795e-06
8.16042e-06
1.0615e-05
5.14819e-06
1.82621e-06
1.66053e-07
1.06251e-07
2.38233e-06
6.05536e-06
1.3658e-05
2.44081e-05
3.11035e-05
3.26829e-05
3.14177e-05
2.88054e-05
2.58382e-05
2.30812e-05
2.07837e-05
1.89403e-05
1.74413e-05
1.61557e-05
1.49589e-05
1.37425e-05
1.24234e-05
1.09638e-05
9.40401e-06
7.86977e-06
6.5502e-06
5.57238e-06
4.91208e-06
4.52289e-06
4.35298e-06
4.36021e-06
4.54446e-06
5.00441e-06
6.05442e-06
8.34015e-06
1.07804e-05
5.17834e-06
1.8431e-06
1.68734e-07
1.09965e-07
2.39855e-06
6.11347e-06
1.38403e-05
2.46652e-05
3.1248e-05
3.27162e-05
3.13886e-05
2.87656e-05
2.58296e-05
2.31267e-05
2.0887e-05
1.91053e-05
1.76703e-05
1.64482e-05
1.53106e-05
1.41433e-05
1.28544e-05
1.13956e-05
9.79978e-06
8.1926e-06
6.77325e-06
5.69867e-06
4.95619e-06
4.50641e-06
4.30214e-06
4.30237e-06
4.50462e-06
5.00603e-06
6.12884e-06
8.52452e-06
1.09431e-05
5.20926e-06
1.85973e-06
1.71241e-07
1.13714e-07
2.41527e-06
6.17471e-06
1.40248e-05
2.49197e-05
3.13845e-05
3.27399e-05
3.13493e-05
2.87155e-05
2.581e-05
2.31602e-05
2.09792e-05
1.92609e-05
1.78918e-05
1.67351e-05
1.56596e-05
1.45455e-05
1.32925e-05
1.18414e-05
1.02161e-05
8.54122e-06
7.02535e-06
5.85431e-06
5.02826e-06
4.51498e-06
4.27199e-06
4.25998e-06
4.47527e-06
5.01479e-06
6.20921e-06
8.71253e-06
1.11036e-05
5.2412e-06
1.87611e-06
1.73577e-07
1.17377e-07
2.43078e-06
6.23329e-06
1.42043e-05
2.51614e-05
3.15035e-05
3.2744e-05
3.12895e-05
2.86455e-05
2.57718e-05
2.31772e-05
2.10579e-05
1.94058e-05
1.81049e-05
1.70162e-05
1.60056e-05
1.49483e-05
1.37358e-05
1.22979e-05
1.06494e-05
8.91246e-06
7.30461e-06
6.03852e-06
5.12829e-06
4.54924e-06
4.26374e-06
4.23466e-06
4.4582e-06
5.03223e-06
6.29634e-06
8.90551e-06
1.12624e-05
5.27398e-06
1.89219e-06
1.75746e-07
1.21016e-07
2.4462e-06
6.29166e-06
1.43841e-05
2.54008e-05
3.1615e-05
3.27378e-05
3.12161e-05
2.85589e-05
2.5717e-05
2.31794e-05
2.11242e-05
1.95399e-05
1.83086e-05
1.72894e-05
1.63456e-05
1.5348e-05
1.41801e-05
1.2761e-05
1.10954e-05
9.30269e-06
7.60827e-06
6.24917e-06
5.2548e-06
4.60821e-06
4.27679e-06
4.22613e-06
4.45314e-06
5.05769e-06
6.38882e-06
9.10163e-06
1.14194e-05
5.30779e-06
1.90801e-06
1.77758e-07
1.24584e-07
2.46071e-06
6.34882e-06
1.45633e-05
2.56319e-05
3.17121e-05
3.27164e-05
3.11288e-05
2.84602e-05
2.56496e-05
2.31663e-05
2.11744e-05
1.96608e-05
1.85024e-05
1.75548e-05
1.66798e-05
1.57442e-05
1.46241e-05
1.32281e-05
1.15508e-05
9.7082e-06
7.93313e-06
6.48404e-06
5.40649e-06
4.69145e-06
4.31148e-06
4.23522e-06
4.4612e-06
5.0922e-06
6.48736e-06
9.30104e-06
1.15745e-05
5.34247e-06
1.92356e-06
1.79619e-07
1.28128e-07
2.47527e-06
6.40637e-06
1.47432e-05
2.58576e-05
3.17993e-05
3.26825e-05
3.10262e-05
2.83452e-05
2.55675e-05
2.31427e-05
2.1217e-05
1.97719e-05
1.86851e-05
1.78108e-05
1.70066e-05
1.61352e-05
1.50658e-05
1.36967e-05
1.20128e-05
1.0126e-05
8.27604e-06
6.74027e-06
5.58099e-06
4.79718e-06
4.36662e-06
4.26128e-06
4.48198e-06
5.13532e-06
6.59119e-06
9.50264e-06
1.1728e-05
5.37818e-06
1.93887e-06
1.81343e-07
1.3158e-07
2.48891e-06
6.46203e-06
1.49195e-05
2.60719e-05
3.18705e-05
3.26318e-05
3.09071e-05
2.82141e-05
2.54693e-05
2.3103e-05
2.12458e-05
1.98736e-05
1.886e-05
1.80585e-05
1.73261e-05
1.65205e-05
1.55038e-05
1.41648e-05
1.24784e-05
1.05527e-05
8.63349e-06
7.01511e-06
5.7763e-06
4.92413e-06
4.44167e-06
4.30444e-06
4.51612e-06
5.18795e-06
6.70117e-06
9.70698e-06
1.18802e-05
5.4148e-06
1.95394e-06
1.82938e-07
1.34993e-07
2.50245e-06
6.51785e-06
1.50961e-05
2.628e-05
3.19308e-05
3.25679e-05
3.07734e-05
2.80685e-05
2.53578e-05
2.30515e-05
2.12641e-05
1.99658e-05
1.90269e-05
1.8299e-05
1.76379e-05
1.68991e-05
1.59371e-05
1.46306e-05
1.29455e-05
1.09856e-05
9.00256e-06
7.30584e-06
5.99e-06
5.07028e-06
4.53511e-06
4.36375e-06
4.56312e-06
5.2498e-06
6.81693e-06
9.91342e-06
1.20318e-05
5.45247e-06
1.96879e-06
1.84415e-07
1.3831e-07
2.5152e-06
6.57171e-06
1.52682e-05
2.64756e-05
3.19749e-05
3.24866e-05
3.06216e-05
2.79053e-05
2.52297e-05
2.2985e-05
2.12697e-05
2.00471e-05
1.91844e-05
1.85314e-05
1.79424e-05
1.72702e-05
1.63641e-05
1.50927e-05
1.34121e-05
1.14225e-05
9.3808e-06
7.61039e-06
6.22039e-06
5.23433e-06
4.64618e-06
4.43899e-06
4.62329e-06
5.32154e-06
6.93923e-06
1.01225e-05
1.21829e-05
5.49111e-06
1.98343e-06
1.85785e-07
1.4155e-07
2.52751e-06
6.62466e-06
1.54384e-05
2.6663e-05
3.2007e-05
3.23912e-05
3.04549e-05
2.77276e-05
2.50884e-05
2.29065e-05
2.12648e-05
2.01191e-05
1.93332e-05
1.87556e-05
1.82391e-05
1.76336e-05
1.67832e-05
1.55484e-05
1.38757e-05
1.18608e-05
9.76584e-06
7.92669e-06
6.46558e-06
5.41458e-06
4.77346e-06
4.52923e-06
4.69621e-06
5.40315e-06
7.0682e-06
1.03342e-05
1.23342e-05
5.53086e-06
1.99789e-06
1.87057e-07
1.44689e-07
2.53915e-06
6.67598e-06
1.56046e-05
2.68383e-05
3.20232e-05
3.22783e-05
3.027e-05
2.75326e-05
2.49313e-05
2.2814e-05
2.1248e-05
2.01807e-05
1.94727e-05
1.89712e-05
1.85277e-05
1.79891e-05
1.71944e-05
1.59969e-05
1.43345e-05
1.22985e-05
1.01556e-05
8.25305e-06
6.72423e-06
5.60994e-06
4.91613e-06
4.634e-06
4.78185e-06
5.49498e-06
7.20445e-06
1.05491e-05
1.24861e-05
5.57172e-06
2.0122e-06
1.88241e-07
1.47737e-07
2.55026e-06
6.72596e-06
1.57676e-05
2.70035e-05
3.20259e-05
3.21504e-05
3.00697e-05
2.73233e-05
2.47616e-05
2.27103e-05
2.12213e-05
2.02332e-05
1.96033e-05
1.91776e-05
1.88067e-05
1.83347e-05
1.75957e-05
1.64356e-05
1.47858e-05
1.27331e-05
1.05478e-05
8.58763e-06
6.99477e-06
5.81905e-06
5.07306e-06
4.7525e-06
4.87982e-06
5.59711e-06
7.34831e-06
1.07674e-05
1.26391e-05
5.61382e-06
2.0264e-06
1.89346e-07
1.50676e-07
2.56069e-06
6.77412e-06
1.5926e-05
2.71563e-05
3.20126e-05
3.20047e-05
2.98515e-05
2.70975e-05
2.45774e-05
2.25942e-05
2.11841e-05
2.02766e-05
1.97254e-05
1.93757e-05
1.90769e-05
1.86709e-05
1.7987e-05
1.68643e-05
1.52276e-05
1.31621e-05
1.09406e-05
8.92898e-06
7.27609e-06
6.04101e-06
5.24349e-06
4.88413e-06
4.98976e-06
5.70944e-06
7.50002e-06
1.09896e-05
1.27935e-05
5.65726e-06
2.04055e-06
1.90382e-07
1.53515e-07
2.57055e-06
6.82081e-06
1.60806e-05
2.72979e-05
3.19846e-05
3.18428e-05
2.96171e-05
2.68575e-05
2.43811e-05
2.24675e-05
2.11377e-05
2.03114e-05
1.9839e-05
1.95649e-05
1.93374e-05
1.89962e-05
1.83664e-05
1.72812e-05
1.56596e-05
1.35846e-05
1.13326e-05
9.27565e-06
7.56693e-06
6.27475e-06
5.42655e-06
5.02828e-06
5.11142e-06
5.8321e-06
7.65996e-06
1.12159e-05
1.29501e-05
5.70224e-06
2.0547e-06
1.9136e-07
1.5624e-07
2.57968e-06
6.86537e-06
1.62297e-05
2.74262e-05
3.19403e-05
3.1663e-05
2.93653e-05
2.66021e-05
2.41719e-05
2.23302e-05
2.10824e-05
2.03384e-05
1.9945e-05
1.97458e-05
1.95885e-05
1.93106e-05
1.87333e-05
1.76848e-05
1.60796e-05
1.3999e-05
1.17228e-05
9.62703e-06
7.86687e-06
6.51995e-06
5.62192e-06
5.18458e-06
5.24438e-06
5.96491e-06
7.82799e-06
1.14466e-05
1.31094e-05
5.74899e-06
2.06893e-06
1.92294e-07
1.5886e-07
2.58821e-06
6.90823e-06
1.63744e-05
2.75426e-05
3.18806e-05
3.14662e-05
2.9097e-05
2.63327e-05
2.39513e-05
2.21833e-05
2.10191e-05
2.03581e-05
2.00437e-05
1.9919e-05
1.98306e-05
1.96142e-05
1.90876e-05
1.80745e-05
1.64863e-05
1.44035e-05
1.21089e-05
9.98091e-06
8.17435e-06
6.77567e-06
5.82909e-06
5.35283e-06
5.38895e-06
6.10878e-06
8.00463e-06
1.16819e-05
1.32722e-05
5.79768e-06
2.0833e-06
1.93197e-07
1.61367e-07
2.596e-06
6.94884e-06
1.65132e-05
2.76457e-05
3.18046e-05
3.12516e-05
2.88117e-05
2.60489e-05
2.37192e-05
2.20271e-05
2.09481e-05
2.0371e-05
2.01358e-05
2.00847e-05
2.00638e-05
1.99066e-05
1.94281e-05
1.84489e-05
1.68782e-05
1.47974e-05
1.24913e-05
1.03371e-05
8.48886e-06
7.04146e-06
6.0478e-06
5.53302e-06
5.54521e-06
6.2636e-06
8.19033e-06
1.19225e-05
1.34392e-05
5.84858e-06
2.09789e-06
1.94083e-07
1.63764e-07
2.60311e-06
6.98733e-06
1.66464e-05
2.77361e-05
3.17126e-05
3.10193e-05
2.85096e-05
2.57514e-05
2.34762e-05
2.18623e-05
2.08703e-05
2.0378e-05
2.02221e-05
2.02441e-05
2.0289e-05
2.01887e-05
1.97555e-05
1.88079e-05
1.72547e-05
1.51793e-05
1.28686e-05
1.0694e-05
8.8089e-06
7.31613e-06
6.27727e-06
5.72465e-06
5.71284e-06
6.42926e-06
8.38546e-06
1.21689e-05
1.36108e-05
5.90169e-06
2.11273e-06
1.94963e-07
1.66052e-07
2.60948e-06
7.02352e-06
1.67738e-05
2.78133e-05
3.16039e-05
3.07685e-05
2.81904e-05
2.54401e-05
2.32227e-05
2.16892e-05
2.07858e-05
2.03793e-05
2.0303e-05
2.03974e-05
2.05066e-05
2.04605e-05
2.00694e-05
1.91508e-05
1.76149e-05
1.55484e-05
1.32401e-05
1.10505e-05
9.13338e-06
7.59892e-06
6.5171e-06
5.9277e-06
5.89209e-06
6.60613e-06
8.59057e-06
1.24218e-05
1.3788e-05
5.95738e-06
2.12793e-06
1.95853e-07
1.68235e-07
2.61513e-06
7.05744e-06
1.68953e-05
2.78775e-05
3.14786e-05
3.04992e-05
2.78543e-05
2.51155e-05
2.29593e-05
2.15086e-05
2.06955e-05
2.03759e-05
2.03794e-05
2.05457e-05
2.07176e-05
2.0723e-05
2.03706e-05
1.94777e-05
1.7958e-05
1.5903e-05
1.36032e-05
1.14042e-05
9.46017e-06
7.88809e-06
6.76608e-06
6.14145e-06
6.08278e-06
6.79463e-06
8.8067e-06
1.26826e-05
1.39709e-05
6.01556e-06
2.1435e-06
1.96763e-07
1.7032e-07
2.62009e-06
7.08919e-06
1.70112e-05
2.79285e-05
3.13357e-05
3.02105e-05
2.7501e-05
2.47779e-05
2.26864e-05
2.13208e-05
2.05995e-05
2.03677e-05
2.04513e-05
2.06892e-05
2.09223e-05
2.09767e-05
2.06593e-05
1.97887e-05
1.82834e-05
1.62416e-05
1.39556e-05
1.17528e-05
9.7874e-06
8.18249e-06
7.02368e-06
6.3658e-06
6.28498e-06
6.995e-06
9.03429e-06
1.29517e-05
1.41598e-05
6.07656e-06
2.15956e-06
1.97704e-07
1.72319e-07
2.62439e-06
7.11888e-06
1.71218e-05
2.79665e-05
3.11753e-05
2.99027e-05
2.71312e-05
2.44284e-05
2.24051e-05
2.11267e-05
2.04988e-05
2.03556e-05
2.05198e-05
2.08289e-05
2.11219e-05
2.12226e-05
2.09367e-05
2.00846e-05
1.85914e-05
1.65636e-05
1.42955e-05
1.20938e-05
1.01123e-05
8.4794e-06
7.28748e-06
6.59903e-06
6.49767e-06
7.20681e-06
9.27378e-06
1.32298e-05
1.4354e-05
6.14007e-06
2.17611e-06
1.98681e-07
1.74241e-07
2.62807e-06
7.1466e-06
1.72271e-05
2.7991e-05
3.09964e-05
2.95751e-05
2.67451e-05
2.40674e-05
2.21159e-05
2.0927e-05
2.03938e-05
2.03399e-05
2.05849e-05
2.09648e-05
2.13166e-05
2.14614e-05
2.12034e-05
2.0366e-05
1.88824e-05
1.68686e-05
1.46214e-05
1.24251e-05
1.04328e-05
8.77717e-06
7.55671e-06
6.8408e-06
6.72106e-06
7.43092e-06
9.52637e-06
1.35181e-05
1.45536e-05
6.20626e-06
2.19321e-06
1.997e-07
1.76096e-07
2.63117e-06
7.17255e-06
1.73278e-05
2.80023e-05
3.07993e-05
2.92284e-05
2.63439e-05
2.36965e-05
2.18205e-05
2.0723e-05
2.02854e-05
2.03213e-05
2.06473e-05
2.10978e-05
2.15074e-05
2.16942e-05
2.1461e-05
2.06348e-05
1.9158e-05
1.71578e-05
1.49337e-05
1.27463e-05
1.07476e-05
9.07385e-06
7.82889e-06
7.08874e-06
6.95352e-06
7.66663e-06
9.79229e-06
1.38173e-05
1.47583e-05
6.27494e-06
2.21089e-06
2.00763e-07
1.77888e-07
2.63366e-06
7.19663e-06
1.74234e-05
2.79998e-05
3.05834e-05
2.88626e-05
2.59281e-05
2.33163e-05
2.15196e-05
2.05157e-05
2.01743e-05
2.02999e-05
2.07065e-05
2.12273e-05
2.16937e-05
2.19206e-05
2.17094e-05
2.08912e-05
1.94187e-05
1.74317e-05
1.52318e-05
1.3056e-05
1.10551e-05
9.36791e-06
8.10318e-06
7.34303e-06
7.19539e-06
7.91452e-06
1.00722e-05
1.41279e-05
1.49677e-05
6.34594e-06
2.22913e-06
2.01874e-07
1.79628e-07
2.63563e-06
7.21916e-06
1.75147e-05
2.79841e-05
3.03492e-05
2.84786e-05
2.54992e-05
2.29286e-05
2.12148e-05
2.03078e-05
2.00624e-05
2.02765e-05
2.07632e-05
2.13536e-05
2.18761e-05
2.21414e-05
2.19498e-05
2.11367e-05
1.96666e-05
1.76921e-05
1.55172e-05
1.3355e-05
1.13548e-05
9.65827e-06
8.37784e-06
7.60136e-06
7.44465e-06
8.17357e-06
1.03664e-05
1.44505e-05
1.51812e-05
6.41914e-06
2.24797e-06
2.03033e-07
1.81314e-07
2.63704e-06
7.23993e-06
1.76011e-05
2.79546e-05
3.00965e-05
2.80769e-05
2.50583e-05
2.25341e-05
2.09062e-05
2.00987e-05
1.99486e-05
2.02503e-05
2.08163e-05
2.14759e-05
2.20534e-05
2.23558e-05
2.21816e-05
2.13714e-05
1.99024e-05
1.79404e-05
1.57905e-05
1.3643e-05
1.16464e-05
9.94409e-06
8.65209e-06
7.86348e-06
7.70189e-06
8.44412e-06
1.06746e-05
1.47846e-05
1.53978e-05
6.4942e-06
2.26736e-06
2.04238e-07
1.82954e-07
2.63794e-06
7.25918e-06
1.76832e-05
2.79121e-05
2.9826e-05
2.76587e-05
2.46073e-05
2.21348e-05
2.05949e-05
1.98869e-05
1.9832e-05
2.02213e-05
2.08666e-05
2.15948e-05
2.22265e-05
2.25642e-05
2.24054e-05
2.15966e-05
2.01281e-05
1.81795e-05
1.60536e-05
1.3921e-05
1.19298e-05
1.02249e-05
8.92501e-06
8.12811e-06
7.96537e-06
8.72479e-06
1.09969e-05
1.51306e-05
1.5617e-05
6.57091e-06
2.28731e-06
2.05489e-07
1.84547e-07
2.6383e-06
7.2768e-06
1.77608e-05
2.78559e-05
2.95373e-05
2.72245e-05
2.4147e-05
2.17318e-05
2.02828e-05
1.9675e-05
1.9715e-05
2.0191e-05
2.09145e-05
2.17102e-05
2.23946e-05
2.27659e-05
2.26208e-05
2.18125e-05
2.03453e-05
1.84122e-05
1.63085e-05
1.41904e-05
1.22056e-05
1.05005e-05
9.19608e-06
8.39468e-06
8.23514e-06
9.01654e-06
1.13329e-05
1.54872e-05
1.58376e-05
6.64897e-06
2.30775e-06
2.06784e-07
1.86104e-07
2.6382e-06
7.29311e-06
1.78347e-05
2.77869e-05
2.92312e-05
2.67753e-05
2.36789e-05
2.13265e-05
1.99705e-05
1.94633e-05
1.95979e-05
2.016e-05
2.09609e-05
2.1823e-05
2.25584e-05
2.29612e-05
2.28281e-05
2.20196e-05
2.05554e-05
1.86406e-05
1.65571e-05
1.44523e-05
1.24747e-05
1.07714e-05
9.46531e-06
8.66283e-06
8.51034e-06
9.31807e-06
1.16821e-05
1.58541e-05
1.60594e-05
6.72825e-06
2.32871e-06
2.08125e-07
1.87625e-07
2.6376e-06
7.30797e-06
1.79046e-05
2.77045e-05
2.8907e-05
2.63113e-05
2.32037e-05
2.09195e-05
1.96587e-05
1.92525e-05
1.94812e-05
2.01288e-05
2.10061e-05
2.19333e-05
2.2718e-05
2.31503e-05
2.30271e-05
2.22179e-05
2.07581e-05
1.88643e-05
1.67998e-05
1.47076e-05
1.27376e-05
1.10378e-05
9.73277e-06
8.93255e-06
8.79103e-06
9.62956e-06
1.20444e-05
1.62298e-05
1.62813e-05
6.80835e-06
2.35008e-06
2.09504e-07
1.89117e-07
2.63661e-06
7.32173e-06
1.79713e-05
2.76092e-05
2.8565e-05
2.58333e-05
2.27226e-05
2.05123e-05
1.93489e-05
1.90441e-05
1.93667e-05
2.00991e-05
2.10519e-05
2.20426e-05
2.28744e-05
2.33334e-05
2.32178e-05
2.24068e-05
2.09524e-05
1.90813e-05
1.70356e-05
1.49561e-05
1.29946e-05
1.13001e-05
9.99833e-06
9.20339e-06
9.07664e-06
9.95055e-06
1.242e-05
1.66153e-05
1.65033e-05
6.88899e-06
2.37181e-06
2.10923e-07
1.9058e-07
2.63517e-06
7.33429e-06
1.80347e-05
2.75003e-05
2.82048e-05
2.53416e-05
2.22363e-05
2.01049e-05
1.90408e-05
1.88378e-05
1.9254e-05
2.00708e-05
2.10984e-05
2.21513e-05
2.30282e-05
2.35116e-05
2.3401e-05
2.25869e-05
2.1138e-05
1.92905e-05
1.72636e-05
1.51976e-05
1.32461e-05
1.15588e-05
1.02628e-05
9.47591e-06
9.3673e-06
1.02806e-05
1.28072e-05
1.70081e-05
1.67246e-05
6.96997e-06
2.39382e-06
2.12377e-07
1.92021e-07
2.63339e-06
7.34602e-06
1.80953e-05
2.73779e-05
2.78264e-05
2.48373e-05
2.17462e-05
1.96992e-05
1.87361e-05
1.8635e-05
1.91445e-05
2.00451e-05
2.11467e-05
2.22605e-05
2.31805e-05
2.36855e-05
2.35775e-05
2.27587e-05
2.13151e-05
1.94911e-05
1.74828e-05
1.54308e-05
1.34908e-05
1.18129e-05
1.05253e-05
9.74946e-06
9.66272e-06
1.062e-05
1.32068e-05
1.74091e-05
1.69443e-05
7.05078e-06
2.4161e-06
2.13864e-07
1.93438e-07
2.63123e-06
7.35678e-06
1.81528e-05
2.72411e-05
2.74296e-05
2.4321e-05
2.12532e-05
1.92953e-05
1.84346e-05
1.84352e-05
1.90375e-05
2.00216e-05
2.11965e-05
2.23703e-05
2.33315e-05
2.38557e-05
2.37481e-05
2.29234e-05
2.14854e-05
1.96838e-05
1.76934e-05
1.56557e-05
1.37283e-05
1.20619e-05
1.07852e-05
1.00234e-05
9.96214e-06
1.09679e-05
1.36173e-05
1.78156e-05
1.71604e-05
7.13058e-06
2.43838e-06
2.1538e-07
1.94835e-07
2.62879e-06
7.36681e-06
1.82073e-05
2.70898e-05
2.70149e-05
2.37946e-05
2.07594e-05
1.88952e-05
1.81381e-05
1.82398e-05
1.89338e-05
2.00004e-05
2.12479e-05
2.24806e-05
2.34815e-05
2.40228e-05
2.39138e-05
2.30829e-05
2.16509e-05
1.98698e-05
1.78958e-05
1.58721e-05
1.39585e-05
1.23057e-05
1.1043e-05
1.02989e-05
1.02672e-05
1.13255e-05
1.40395e-05
1.82279e-05
1.7374e-05
7.20974e-06
2.46075e-06
2.16925e-07
1.96206e-07
2.62597e-06
7.37572e-06
1.82577e-05
2.69226e-05
2.65822e-05
2.32589e-05
2.02654e-05
1.84992e-05
1.78469e-05
1.80484e-05
1.88325e-05
1.99804e-05
2.12999e-05
2.25906e-05
2.36299e-05
2.41869e-05
2.40756e-05
2.32392e-05
2.18152e-05
2.00515e-05
1.80914e-05
1.6081e-05
1.41818e-05
1.2544e-05
1.12972e-05
1.05733e-05
1.05747e-05
1.16907e-05
1.44713e-05
1.86436e-05
1.75837e-05
7.28773e-06
2.48323e-06
2.18501e-07
1.97543e-07
2.62274e-06
7.38327e-06
1.83032e-05
2.67395e-05
2.61328e-05
2.27162e-05
1.9773e-05
1.81083e-05
1.7564e-05
1.78624e-05
1.87334e-05
1.9961e-05
2.13515e-05
2.26994e-05
2.37759e-05
2.43474e-05
2.42335e-05
2.33931e-05
2.19792e-05
2.02294e-05
1.82805e-05
1.62822e-05
1.43977e-05
1.27765e-05
1.15485e-05
1.08492e-05
1.08893e-05
1.20646e-05
1.49128e-05
1.90625e-05
1.77898e-05
7.36478e-06
2.50586e-06
2.20109e-07
1.98836e-07