/*--------------------------------*- C++ -*----------------------------------*\
| =========                 |                                                 |
| \\      /  F ield         | OpenFOAM: The Open Source CFD Toolbox           |
|  \\    /   O peration     | Version:  v2006                                 |
|   \\  /    A nd           | Website:  www.openfoam.com                      |
|    \\/     M anipulation  |                                                 |
\*---------------------------------------------------------------------------*/
FoamFile
{
    version     2.0;
    format      ascii;
    class       volScalarField;
    location    "76";
    object      omega;
}
// * * * * * * * * * * * * * * * * * * * * * * * * * * * * * * * * * * * * * //

dimensions      [0 0 -1 0 0 0 0];


internalField   nonuniform List<scalar> 
78750
(
352.479
13.5702
13.5989
13.6263
13.6523
13.6764
13.6986
13.7186
13.7366
13.7525
13.7664
13.7782
13.7881
13.796
13.8021
13.8063
13.8087
13.8093
13.8083
13.8055
13.8013
13.7954
13.7878
13.7786
13.7676
13.7549
13.7403
13.7238
13.7053
13.6851
13.6642
13.6459
13.6371
13.6477
356.998
517.207
4.16262
4.26167
4.34945
4.4252
4.4898
4.54435
4.58959
4.62625
4.65511
4.67692
4.69241
4.70225
4.70707
4.7075
4.70418
4.69753
4.68799
4.67592
4.66166
4.64551
4.62757
4.60798
4.5868
4.56396
4.53931
4.5127
4.48388
4.45203
4.41556
4.37233
4.32017
4.2622
4.21131
524.204
517.215
4.21611
4.35443
4.47415
4.57319
4.65231
4.71425
4.76217
4.79859
4.82532
4.84364
4.85458
4.85898
4.85765
4.85129
4.84063
4.82632
4.80905
4.78948
4.76825
4.74596
4.72309
4.69996
4.67668
4.65308
4.62876
4.60308
4.57519
4.5438
4.50682
4.46119
4.40476
4.34273
4.28582
524.58
517.231
4.27375
4.44522
4.5876
4.6991
4.78296
4.84497
4.89036
4.92277
4.94449
4.95703
4.96152
4.95881
4.94966
4.9348
4.91497
4.89101
4.86383
4.83447
4.80404
4.77378
4.74484
4.71809
4.69383
4.67174
4.65093
4.6301
4.60758
4.58131
4.54852
4.50592
4.45226
4.39438
4.33873
524.939
517.248
4.32605
4.5245
4.68331
4.80154
4.88584
4.94536
4.98717
5.01568
5.03316
5.04099
5.04013
5.03118
5.0147
4.99134
4.9619
4.92742
4.88913
4.84851
4.80729
4.76743
4.731
4.69964
4.67396
4.6536
4.63734
4.62324
4.60879
4.59093
4.56605
4.53051
4.48353
4.43158
4.37769
525.276
517.266
4.37408
4.5946
4.7661
4.88899
4.9735
5.03172
5.07205
5.09868
5.11365
5.1182
5.11293
5.09821
5.07449
5.04242
5.003
4.95756
4.90778
4.85564
4.80352
4.75421
4.71063
4.67471
4.64697
4.62691
4.61326
4.60394
4.59604
4.58593
4.56927
4.54195
4.50299
4.45709
4.40503
525.595
517.283
4.41513
4.65343
4.83519
4.96221
5.04767
5.1057
5.14517
5.17038
5.18339
5.18513
5.17593
5.15596
5.12562
5.08568
5.03734
4.98226
4.92247
4.86042
4.79908
4.74207
4.69296
4.65343
4.62363
4.60299
4.59039
4.5839
4.58065
4.57673
4.56732
4.54768
4.51617
4.47554
4.42536
525.902
517.299
4.45126
4.70524
4.89643
5.02771
5.11462
5.17302
5.21226
5.23674
5.24837
5.24783
5.23525
5.21076
5.1748
5.1283
5.0727
5.00993
4.94232
4.87271
4.80459
4.74227
4.68934
4.64668
4.61408
4.59107
4.57688
4.57014
4.56846
4.5681
4.56399
4.55072
4.5256
4.48972
4.4422
526.183
517.313
4.4842
4.75236
4.95224
5.08773
5.17639
5.23543
5.27466
5.29847
5.30867
5.30583
5.28998
5.26123
5.22009
5.16767
5.10565
5.03619
4.96195
4.88614
4.81288
4.74721
4.69231
4.6481
4.61386
4.58899
4.57291
4.56471
4.5627
4.56371
4.56283
4.55421
4.53417
4.50255
4.45843
526.443
517.326
4.51501
4.79626
5.00419
5.14365
5.234
5.29371
5.33296
5.35622
5.36519
5.36032
5.34156
5.30901
5.26329
5.2057
5.1381
5.06292
4.98309
4.90217
4.82484
4.75681
4.70066
4.65553
4.62025
4.59399
4.57617
4.56618
4.56291
4.56388
4.56461
4.55916
4.54312
4.51535
4.47499
526.68
517.34
4.54515
4.83888
5.05433
5.19742
5.2893
5.34953
5.38868
5.4112
5.41874
5.41163
5.38979
5.35334
5.30302
5.24028
5.16724
5.08658
5.00151
4.91598
4.83529
4.76584
4.70947
4.66459
4.62952
4.60307
4.5845
4.57334
4.56883
4.56913
4.57038
4.56686
4.55375
4.52924
4.49244
526.901
517.353
4.57463
4.88001
5.10228
5.24854
5.34173
5.40243
5.44149
5.46336
5.4696
5.46044
5.43573
5.39565
5.34105
5.27353
5.19541
5.10958
5.01954
4.9296
4.84564
4.77472
4.71819
4.67384
4.63952
4.61364
4.59522
4.58369
4.57849
4.5782
4.57953
4.57716
4.5662
4.54435
4.51057
527.106
517.367
4.60376
4.92021
5.1488
5.2979
5.39221
5.45325
5.49211
5.51321
5.51802
5.5067
5.47906
5.43534
5.37651
5.30432
5.22128
5.13048
5.03569
4.94155
4.85453
4.7824
4.72598
4.68255
4.64953
4.62492
4.60743
4.59637
4.59117
4.59066
4.59198
4.59028
4.58078
4.5609
4.5293
527.301
517.382
4.63274
4.95965
5.194
5.34559
5.44086
5.50223
5.54093
5.56136
5.56489
5.55157
5.52122
5.47411
5.41133
5.33478
5.2471
5.15157
5.05217
4.95385
4.86358
4.78988
4.73332
4.69073
4.65908
4.63604
4.62
4.61003
4.60549
4.60527
4.60681
4.60561
4.59714
4.57864
4.54844
527.485
517.396
4.66095
4.99769
5.23739
5.39124
5.4874
5.54906
5.58761
5.60737
5.60963
5.59436
5.56139
5.51106
5.44456
5.36391
5.27187
5.17187
5.06808
4.96572
4.87223
4.79687
4.74011
4.69838
4.66827
4.64706
4.63288
4.62455
4.62124
4.62179
4.62377
4.62298
4.61516
4.59747
4.56785
527.663
517.411
4.68927
5.03546
5.28013
5.43603
5.53301
5.59499
5.63345
5.65264
5.65375
5.63671
5.60134
5.54805
5.47812
5.39367
5.29757
5.19334
5.08529
4.97888
4.8819
4.80437
4.74696
4.70579
4.67708
4.65776
4.64561
4.63925
4.63762
4.63942
4.64217
4.64187
4.6345
4.6172
4.58749
527.833
517.426
4.71652
5.0715
5.32081
5.47864
5.57645
5.6388
5.67723
5.69593
5.69599
5.67731
5.63973
5.58373
5.51067
5.42275
5.32289
5.2147
5.10257
4.99221
4.89171
4.81179
4.75351
4.71278
4.68547
4.66816
4.65832
4.65424
4.65466
4.65806
4.66184
4.66208
4.65496
4.63765
4.60724
527.999
517.441
4.74403
5.10761
5.36137
5.52103
5.61966
5.68241
5.72088
5.73916
5.73829
5.71811
5.67852
5.62007
5.54418
5.45311
5.3498
5.23786
5.1218
5.00745
4.90312
4.82011
4.76036
4.71959
4.6934
4.67801
4.67057
4.66903
4.67184
4.67719
4.68229
4.68318
4.67624
4.65865
4.6271
528.159
517.456
4.7704
5.14196
5.39987
5.56132
5.66083
5.72408
5.76266
5.78061
5.7789
5.75737
5.71597
5.65532
5.57691
5.48303
5.3766
5.26124
5.14149
5.02323
4.91502
4.82863
4.76707
4.726
4.70079
4.68735
4.68245
4.68372
4.68923
4.69686
4.70353
4.70518
4.69832
4.68018
4.64703
528.314
517.471
4.79709
5.17655
5.43858
5.60183
5.70228
5.76607
5.8048
5.82244
5.81994
5.79717
5.75413
5.69152
5.61089
5.51452
5.4053
5.28681
5.16354
5.04136
4.92893
4.8384
4.77427
4.73228
4.70764
4.69594
4.69358
4.69781
4.70629
4.71648
4.72498
4.72752
4.72073
4.70191
4.66691
528.465
517.486
4.8226
5.2094
5.47537
5.6405
5.74203
5.80645
5.84536
5.86269
5.85943
5.83551
5.791
5.72668
5.64412
5.54561
5.43397
5.31271
5.18622
5.06031
4.94366
4.84871
4.78161
4.73831
4.71395
4.70387
4.70411
4.71147
4.7232
4.73627
4.74684
4.75042
4.74371
4.72404
4.68684
528.613
517.502
4.8484
5.24251
5.51249
5.6797
5.78251
5.84763
5.8866
5.90351
5.89945
5.87442
5.82859
5.76278
5.6786
5.57827
5.46456
5.34083
5.21135
5.08175
4.96065
4.86062
4.78976
4.74444
4.71981
4.71101
4.71372
4.7243
4.73946
4.75564
4.76854
4.77334
4.76676
4.74618
4.70663
528.758
517.517
4.87298
5.27382
5.54772
5.7173
5.82196
5.88787
5.9266
5.94284
5.9379
5.91184
5.86486
5.79783
5.71234
5.61055
5.49515
5.36937
5.23725
5.10424
4.97879
4.87349
4.79847
4.75065
4.72533
4.71756
4.72266
4.73652
4.75529
4.77481
4.79022
4.79636
4.78994
4.76839
4.72629
528.899
517.533
4.89773
5.30517
5.58294
5.75514
5.86117
5.92789
5.96685
5.98236
5.97659
5.94961
5.90168
5.83367
5.74716
5.64425
5.52751
5.40001
5.26555
5.1293
4.99945
4.88844
4.80853
4.75743
4.73075
4.72352
4.73077
4.74787
4.77038
4.79347
4.81165
4.81935
4.81321
4.79066
4.74582
529.038
517.549
4.92129
5.33471
5.61602
5.79062
5.89801
5.96564
6.00503
6.02033
6.01371
5.98592
5.93722
5.86847
5.78124
5.67756
5.55988
5.4311
5.29475
5.15567
5.02173
4.90512
4.81989
4.76496
4.73636
4.72921
4.73834
4.7586
4.78488
4.81163
4.83267
4.84193
4.83606
4.81256
4.76498
529.175
517.565
4.94502
5.36438
5.64929
5.82599
5.9346
6.00311
6.043
6.05826
6.05085
6.02237
5.97306
5.9038
5.81611
5.71196
5.59369
5.46398
5.32612
5.18457
5.04677
4.92456
4.8334
4.77388
4.74257
4.73486
4.74543
4.76867
4.79873
4.82928
4.8534
4.86453
4.85938
4.8345
4.78391
529.309
517.58
4.96749
5.39225
5.68079
5.85908
5.96881
6.03826
6.07879
6.09425
6.08636
6.05738
6.00764
5.93808
5.85019
5.7459
5.62742
5.49724
5.35836
5.21485
5.07372
4.94634
4.84905
4.78445
4.7498
4.74091
4.75245
4.77837
4.81208
4.8464
4.87361
4.88667
4.88249
4.85626
4.80244
529.442
517.597
4.98992
5.41982
5.71176
5.89167
6.00256
6.07299
6.11424
6.13008
6.12213
6.09245
6.0423
5.97257
5.88471
5.78055
5.66217
5.53186
5.39235
5.24732
5.10326
4.97105
4.86735
4.79713
4.75845
4.74768
4.7596
4.78782
4.82502
4.86311
4.8936
4.90914
4.90572
4.87824
4.82076
529.573
517.612
5.01124
5.44572
5.74077
5.92213
6.03411
6.10552
6.14752
6.16377
6.15586
6.12576
6.07549
6.00589
5.91836
5.81464
5.6967
5.56667
5.427
5.28097
5.13457
4.99806
4.88807
4.81204
4.76886
4.75558
4.76731
4.79739
4.83781
4.87961
4.91349
4.93172
4.92903
4.90024
4.83881
529.703
517.628
5.0325
5.47138
5.76936
5.95208
6.06513
6.13752
6.18031
6.19707
6.18929
6.15887
6.10857
6.03921
5.95214
5.84905
5.7318
5.60235
5.46289
5.3163
5.16803
5.02769
4.91155
4.82952
4.78136
4.76494
4.77583
4.80724
4.85056
4.89592
4.9332
4.9542
4.95226
4.92212
4.85655
529.831
517.644
5.05276
5.49553
5.7961
5.98003
6.09409
6.16746
6.21108
6.22842
6.22092
6.19038
6.14026
6.07134
5.98495
5.88274
5.76646
5.63793
5.4991
5.35245
5.20289
5.05934
4.93752
4.84959
4.79622
4.77615
4.78558
4.8178
4.86365
4.91239
4.95301
4.9767
4.97542
4.94382
4.87391
529.957
517.66
5.07297
5.51946
5.82241
6.00739
6.12239
6.1967
6.24116
6.25914
6.25201
6.22153
6.17159
6.10315
6.01754
5.91635
5.80124
5.67388
5.53599
5.38969
5.23936
5.09316
4.96611
4.87245
4.81367
4.78945
4.79679
4.8292
4.87708
4.92883
4.97253
4.99891
4.99831
4.9652
4.89081
530.081
517.676
5.09233
5.54216
5.84704
6.03289
6.14876
6.22401
6.26932
6.288
6.2814
6.25129
6.20154
6.13368
6.04901
5.94904
5.83535
5.70944
5.57284
5.42733
5.27678
5.12861
4.99703
4.898
4.83382
4.80512
4.80979
4.84176
4.89116
4.94563
4.99248
5.02105
5.02091
4.98618
4.9072
530.203
517.692
5.11158
5.56488
5.87114
6.05766
6.17433
6.25047
6.29661
6.31596
6.30987
6.28013
6.23067
6.16353
6.07993
5.98133
5.86919
5.74493
5.60988
5.46551
5.31521
5.16569
5.03027
4.9263
4.8568
4.82333
4.82478
4.85567
4.90604
4.96288
5.01269
5.0431
5.0432
5.00671
4.92304
530.323
517.708
5.12966
5.58599
5.89346
6.08063
6.19809
6.27513
6.32213
6.34221
6.3367
6.30745
6.25843
6.19214
6.10975
6.01265
5.90223
5.7798
5.64654
5.50366
5.3541
5.20389
5.06546
4.95713
4.88258
4.84422
4.84199
4.87118
4.92193
4.9807
5.03314
5.06505
5.06515
5.02676
4.93833
530.441
517.723
5.14738
5.6066
5.91515
6.10282
6.22095
6.29881
6.34661
6.36739
6.36247
6.33376
6.28526
6.21991
6.13882
6.04331
5.93472
5.81426
5.68296
5.54183
5.39341
5.2431
5.10246
4.99037
4.91111
4.86783
4.86153
4.88842
4.93892
4.99907
5.05373
5.08682
5.08673
5.04632
4.95306
530.556
517.738
5.16415
5.62585
5.93518
6.12327
6.2421
6.32083
6.36947
6.39099
6.3867
6.35856
6.31073
6.24647
6.16679
6.07299
5.96635
5.84799
5.71883
5.57967
5.43274
5.28288
5.14085
5.02567
4.94219
4.89414
4.8835
4.90754
4.95715
5.01809
5.07447
5.1084
5.1079
5.06535
4.96723
530.668
517.753
5.18054
5.64445
5.95441
6.14282
6.26226
6.34179
6.39125
6.4135
6.40987
6.38237
6.33522
6.27204
6.19387
6.10189
5.99728
5.88111
5.75421
5.61721
5.47206
5.3231
5.18037
5.06277
4.97559
4.92298
4.90787
4.92857
4.97664
5.03776
5.09533
5.12975
5.12864
5.08386
4.98086
530.778
517.768
5.19593
5.6617
5.97211
6.16077
6.28081
6.36115
6.41143
6.43444
6.4315
6.40473
6.35843
6.29648
6.21986
6.12975
6.02727
5.91339
5.78885
5.65416
5.51103
5.36339
5.22061
5.10126
5.01098
4.95417
4.93456
4.95156
4.9975
5.05815
5.11636
5.15088
5.14894
5.10183
4.99396
530.886
517.782
5.21085
5.67824
5.98892
6.17774
6.2983
6.3794
6.43047
6.45422
6.45199
6.42597
6.38059
6.31994
6.24495
6.15676
6.05645
5.94494
5.82284
5.69057
5.54965
5.40364
5.26133
5.14086
5.04806
4.98745
4.96343
4.97643
5.01971
5.07926
5.13755
5.17177
5.16879
5.11927
5.00655
530.991
517.796
5.22486
5.69353
6.00431
6.19323
6.31429
6.39614
6.44799
6.47249
6.47099
6.44578
6.40143
6.34217
6.2689
6.1827
6.08461
5.97551
5.85597
5.72623
5.58769
5.44359
5.30223
5.18128
5.08654
5.02258
4.99432
5.00315
5.04329
5.10116
5.15894
5.19247
5.18823
5.13619
5.01864
531.094
517.81
5.23823
5.70797
6.01873
6.20766
6.32918
6.41172
6.46433
6.48956
6.48879
6.46442
6.42115
6.36335
6.29185
6.2077
6.11188
6.00522
5.88825
5.76115
5.62511
5.48316
5.34316
5.22229
5.12618
5.05932
5.02704
5.03161
5.06821
5.12384
5.18056
5.21299
5.20725
5.15261
5.03027
531.194
517.823
5.25078
5.7213
6.03187
6.22074
6.34267
6.42588
6.47922
6.50517
6.50515
6.48167
6.43957
6.38329
6.31363
6.23157
6.13807
6.03391
5.91955
5.79514
5.66174
5.52216
5.38389
5.26365
5.16672
5.09743
5.06141
5.0617
5.09444
5.14732
5.20244
5.23336
5.22591
5.16857
5.04147
531.293
517.836
5.26264
5.73372
6.04399
6.23274
6.35501
6.43886
6.4929
6.51956
6.52028
6.49771
6.45684
6.40212
6.33433
6.25441
6.16325
6.0616
5.94988
5.82819
5.69754
5.5605
5.42429
5.30519
5.20795
5.13669
5.09723
5.09327
5.12193
5.1716
5.22461
5.25364
5.24423
5.1841
5.05227
531.39
517.849
5.2737
5.7451
6.05492
6.24347
6.36606
6.4505
6.50523
6.53258
6.53405
6.51242
6.47286
6.41976
6.35388
6.27611
6.18734
6.08823
5.97918
5.86023
5.73235
5.59804
5.4642
5.34673
5.24967
5.17689
5.13431
5.1262
5.15057
5.19663
5.24706
5.27383
5.26227
5.19924
5.06272
531.485
517.861
5.28409
5.75558
6.06483
6.25311
6.37597
6.46097
6.51635
6.54438
6.54659
6.52593
6.48772
6.43629
6.37234
6.29675
6.21035
6.11379
6.00743
5.89127
5.76624
5.63476
5.50357
5.38816
5.29171
5.21785
5.17247
5.16033
5.1803
5.22243
5.26984
5.29401
5.28007
5.21405
5.07286
531.579
517.873
5.2937
5.76506
6.07361
6.26158
6.38466
6.47019
6.5262
6.55489
6.55786
6.5382
6.50141
6.45167
6.38969
6.31629
6.23229
6.13828
6.03461
5.92127
5.79915
5.67063
5.54236
5.42939
5.33398
5.25943
5.21158
5.19555
5.21102
5.24893
5.29292
5.31419
5.29767
5.22858
5.08274
531.671
517.884
5.30263
5.77367
6.08141
6.26899
6.39226
6.47828
6.53489
6.56422
6.56794
6.5493
6.51398
6.46599
6.40598
6.33478
6.25316
6.16171
6.06073
5.95021
5.83104
5.70559
5.58046
5.47028
5.3763
5.30147
5.25149
5.23177
5.24272
5.27626
5.31639
5.33442
5.31514
5.24288
5.09242
531.761
517.895
5.31085
5.78135
6.08818
6.27532
6.39872
6.48521
6.5424
6.57236
6.57684
6.55924
6.52545
6.47923
6.42122
6.35222
6.27298
6.18406
6.08576
5.97807
5.86191
5.73966
5.61795
5.51082
5.41859
5.34385
5.29209
5.2689
5.27537
5.30437
5.34028
5.35478
5.33255
5.25704
5.10196
531.85
517.905
5.3184
5.78819
6.094
6.28064
6.40414
6.49105
6.54879
6.57937
6.5846
6.56808
6.53587
6.49145
6.43545
6.36865
6.29177
6.20537
6.10974
6.00489
5.89177
5.77286
5.65484
5.55097
5.46076
5.38644
5.33324
5.30682
5.30887
5.33319
5.3646
5.37531
5.34995
5.2711
5.11141
531.938
517.915
5.32529
5.79418
6.09887
6.28496
6.40851
6.49582
6.55408
6.58525
6.59124
6.57582
6.54524
6.50265
6.44868
6.38407
6.30954
6.22564
6.13265
6.03064
5.92061
5.80515
5.69113
5.59067
5.50272
5.42913
5.37482
5.34545
5.34319
5.36274
5.38941
5.39609
5.36745
5.28517
5.12086
532.024
517.924
5.33157
5.79938
6.10286
6.28834
6.4119
6.49956
6.55832
6.59007
6.59681
6.58252
6.55362
6.5129
6.46096
6.39854
6.32633
6.24489
6.15453
6.05533
5.94841
5.83652
5.72672
5.62983
5.54434
5.47176
5.41668
5.38465
5.37824
5.39299
5.41473
5.41718
5.38509
5.29929
5.13034
532.109
517.933
5.33725
5.80383
6.10598
6.2908
6.41433
6.5023
6.56152
6.59382
6.60132
6.58818
6.56101
6.52218
6.47228
6.41204
6.34214
6.26313
6.17534
6.07892
5.97511
5.86685
5.76147
5.66829
5.58548
5.51422
5.45872
5.42436
5.41398
5.42393
5.44061
5.43867
5.40299
5.31356
5.13994
532.192
517.942
5.34241
5.80758
6.10831
6.2924
6.41584
6.50409
6.56374
6.59659
6.60484
6.59288
6.56748
6.53057
6.48273
6.42466
6.35704
6.28042
6.19516
6.10149
6.00076
5.89615
5.79529
5.70593
5.62596
5.55626
5.50066
5.46431
5.45021
5.45541
5.46699
5.46055
5.42117
5.32804
5.14969
532.275
517.95
5.34706
5.81065
6.10986
6.29315
6.41646
6.50495
6.565
6.59836
6.60738
6.59663
6.57304
6.53807
6.49229
6.43638
6.37102
6.29676
6.214
6.12302
6.02535
5.9244
5.82813
5.74264
5.66566
5.59777
5.54242
5.50445
5.4869
5.48749
5.49395
5.4829
5.43973
5.3428
5.15965
532.356
517.959
5.35126
5.81311
6.11069
6.29311
6.41625
6.50494
6.56536
6.59923
6.60902
6.59951
6.57777
6.54476
6.50104
6.44729
6.38418
6.31226
6.23195
6.14363
6.04897
5.95167
5.86002
5.77844
5.70451
5.6386
5.58376
5.54445
5.52379
5.52
5.52142
5.50575
5.4587
5.35788
5.16986
532.437
517.966
5.355
5.81494
6.11079
6.29229
6.41521
6.50405
6.56481
6.59918
6.60978
6.60155
6.58168
6.55062
6.50895
6.45736
6.39648
6.32688
6.249
6.16331
6.07165
5.97801
5.89097
5.81329
5.74248
5.67869
5.62462
5.58436
5.56091
5.55296
5.54941
5.5291
5.47813
5.37334
5.18033
532.518
517.974
5.35834
5.81622
6.11024
6.29075
6.4134
6.50236
6.56343
6.5983
6.60976
6.60297
6.58489
6.55573
6.51609
6.46664
6.40799
6.3407
6.26525
6.18218
6.0935
6.00352
5.92107
5.84727
5.77958
5.71799
5.66487
5.62393
5.59798
5.5862
5.57786
5.55298
5.49805
5.38921
5.19112
532.598
517.982
5.36126
5.81691
6.109
6.28848
6.4108
6.49985
6.56119
6.59654
6.6089
6.60368
6.5873
6.56001
6.52239
6.47507
6.41866
6.35369
6.28067
6.20022
6.11456
6.02828
5.95039
5.8804
5.81582
5.75649
5.70447
5.66312
5.63504
5.61969
5.60673
5.57734
5.51845
5.4055
5.20221
532.678
517.989
5.36381
5.81707
6.10714
6.28553
6.4075
6.49658
6.55815
6.59393
6.60715
6.60349
6.58885
6.56346
6.52788
6.48272
6.42855
6.36591
6.29534
6.21756
6.13497
6.0525
5.97905
5.9128
5.85127
5.7942
5.7434
5.70184
5.67191
5.65325
5.63594
5.60217
5.53936
5.42225
5.21363
532.759
517.996
5.36595
5.81667
6.10465
6.28189
6.40348
6.49257
6.55433
6.59054
6.60464
6.60257
6.58967
6.56617
6.53261
6.48959
6.43767
6.37738
6.30929
6.23424
6.15482
6.07637
6.0072
5.94456
5.88599
5.83117
5.78163
5.74005
5.70855
5.68695
5.66543
5.62742
5.56071
5.4394
5.22536
532.839
518.003
5.36775
5.81579
6.10158
6.27764
6.39879
6.48786
6.54978
6.5864
6.60137
6.60093
6.58978
6.56817
6.53664
6.49575
6.44607
6.38814
6.32258
6.25033
6.17425
6.10002
6.03499
5.97581
5.9201
5.86746
5.81923
5.77774
5.7449
5.72063
5.69515
5.65305
5.58253
5.45699
5.23743
532.92
518.01
5.3692
5.8144
6.09792
6.27274
6.39344
6.48244
6.54451
6.58151
6.59738
6.59857
6.58919
6.56947
6.53994
6.50118
6.45374
6.39818
6.33518
6.26581
6.19319
6.12341
6.06241
6.00659
5.95364
5.90313
5.85621
5.81493
5.78094
5.75427
5.72509
5.67901
5.60473
5.47496
5.24978
533.001
518.017
5.37033
5.81256
6.09371
6.26725
6.38746
6.47639
6.53857
6.57595
6.59273
6.59562
6.58801
6.57018
6.54265
6.50598
6.46075
6.40754
6.34711
6.28067
6.21162
6.1464
6.08939
6.03688
5.98665
5.93823
5.89261
5.85161
5.81664
5.78781
5.75516
5.70531
5.62733
5.49331
5.26242
533.083
518.023
5.37114
5.81024
6.08894
6.26114
6.38083
6.46964
6.53191
6.56968
6.58739
6.592
6.5862
6.57026
6.54472
6.51014
6.46711
6.41624
6.35838
6.2949
6.22948
6.16891
6.11586
6.06665
6.01913
5.97279
5.9285
5.88783
5.85201
5.82123
5.78533
5.73187
5.65028
5.51201
5.27533
533.165
518.03
5.37166
5.80749
6.08364
6.25445
6.37358
6.46226
6.52462
6.56277
6.58145
6.58783
6.58385
6.56981
6.54624
6.51373
6.47287
6.42434
6.36904
6.30854
6.2468
6.19088
6.14176
6.09583
6.051
6.00675
5.96381
5.92354
5.88701
5.85451
5.81558
5.75869
5.67357
5.53104
5.2885
533.248
518.036
5.37188
5.80428
6.07778
6.24714
6.36568
6.4542
6.51662
6.55517
6.57486
6.58305
6.58092
6.56878
6.54719
6.51676
6.47807
6.43186
6.37914
6.32166
6.26368
6.21237
6.16712
6.12441
6.08225
6.04009
5.99852
5.9587
5.92154
5.88751
5.84577
5.78562
5.69706
5.55028
5.30181
533.332
518.042
5.37183
5.80062
6.07138
6.23924
6.35716
6.44549
6.50798
6.54698
6.56773
6.57775
6.57746
6.56722
6.54762
6.51925
6.48275
6.43888
6.38877
6.33436
6.28025
6.23344
6.19196
6.15241
6.11288
6.07282
6.03269
5.99343
5.95583
5.92045
5.87603
5.81275
5.72082
5.56977
5.31533
533.416
518.048
5.37145
5.79648
6.06438
6.2307
6.34796
6.43609
6.49866
6.53817
6.56009
6.57192
6.57344
6.56509
6.54747
6.52119
6.4869
6.44542
6.39798
6.34676
6.29669
6.25422
6.21635
6.17984
6.14287
6.10485
6.06613
6.02744
5.98943
5.95298
5.90615
5.83992
5.74471
5.58944
5.32905
533.5
518.055
5.37073
5.79183
6.05681
6.22153
6.33811
6.42602
6.48868
6.52881
6.55222
6.56565
6.56889
6.5624
6.54676
6.52259
6.49054
6.45149
6.40682
6.35893
6.3131
6.27477
6.24036
6.20676
6.17225
6.13624
6.09896
6.061
6.02301
5.98536
5.93623
5.86719
5.7688
5.60933
5.34301
533.586
518.06
5.36962
5.78663
6.0486
6.21169
6.32756
6.41523
6.47796
6.51871
6.54363
6.55871
6.56371
6.55912
6.5455
6.52345
6.49367
6.45712
6.4153
6.37087
6.32945
6.2951
6.26399
6.23318
6.20104
6.16699
6.13117
6.09407
6.05632
6.0175
5.96615
5.89442
5.79293
5.62932
5.35709
533.671
518.066
5.36813
5.78092
6.0398
6.20122
6.31637
6.40379
6.4666
6.50804
6.53454
6.55128
6.55807
6.55537
6.54375
6.52384
6.49635
6.46232
6.42342
6.38256
6.34563
6.31516
6.28725
6.25914
6.22929
6.19716
6.16282
6.12667
6.08931
6.04944
5.99599
5.92168
5.81718
5.64947
5.37132
533.756
518.072
5.36626
5.77467
6.03039
6.19009
6.30449
6.39164
6.45457
6.49674
6.52492
6.5434
6.55199
6.55118
6.54157
6.52378
6.49859
6.46712
6.43119
6.39398
6.36159
6.33491
6.31011
6.2846
6.25698
6.22672
6.19386
6.15871
6.12184
6.08103
6.0256
5.94884
5.8414
5.66963
5.38561
533.841
518.077
5.36406
5.76796
6.02042
6.17833
6.29192
6.37879
6.44186
6.48487
6.51483
6.53512
6.54557
6.54668
6.53907
6.5234
6.50051
6.47161
6.4387
6.40523
6.37734
6.35435
6.33257
6.3096
6.28414
6.25571
6.22433
6.19021
6.15394
6.11232
6.05505
5.97596
5.86567
5.68989
5.4
533.927
518.082
5.36158
5.76082
6.00988
6.1659
6.27861
6.36516
6.42839
6.47234
6.50425
6.52648
6.53887
6.54193
6.53634
6.52279
6.50221
6.47592
6.4461
6.41648
6.39296
6.37353
6.35466
6.33414
6.31077
6.28412
6.25418
6.22114
6.18553
6.14318
6.0842
6.00289
5.88983
5.7101
5.41438
534.012
518.087
5.35894
5.75336
5.99885
6.15285
6.26458
6.35074
6.41414
6.45914
6.49314
6.51745
6.53189
6.53698
6.53344
6.52205
6.5038
6.48017
6.45354
6.42793
6.4086
6.39255
6.37646
6.35827
6.33691
6.31197
6.28344
6.25147
6.2166
6.17363
6.11308
6.02969
5.91397
5.73033
5.42881
534.097
518.093
5.3562
5.7456
5.98733
6.13913
6.24974
6.33541
6.399
6.44516
6.48144
6.50801
6.52464
6.53187
6.53046
6.52127
6.50541
6.48451
6.4612
6.43976
6.42439
6.41152
6.39805
6.38208
6.36262
6.33933
6.31216
6.28125
6.24713
6.20361
6.14158
6.05621
5.93789
5.75041
5.44314
534.181
518.098
5.35351
5.73764
5.97537
6.12478
6.23408
6.31914
6.38289
6.43032
6.46903
6.49801
6.51699
6.5265
6.52733
6.52043
6.50703
6.48896
6.46907
6.45193
6.4403
6.43044
6.41944
6.40555
6.3879
6.36616
6.34031
6.31044
6.27713
6.23315
6.16977
6.08254
5.96171
5.77044
5.45744
534.266
518.103
5.35079
5.72946
5.96298
6.10978
6.21757
6.30186
6.36576
6.41461
6.45584
6.48737
6.50888
6.52084
6.52405
6.51955
6.50871
6.49354
6.47719
6.46439
6.45636
6.44934
6.44068
6.42877
6.41283
6.39257
6.36796
6.33909
6.30655
6.26212
6.19746
6.10845
5.98519
5.79018
5.47153
534.349
518.109
5.3481
5.72115
5.95022
6.09416
6.20019
6.28348
6.34751
6.39812
6.44173
6.47588
6.50008
6.51468
6.52046
6.51852
6.51037
6.49823
6.48553
6.47705
6.47245
6.46816
6.46172
6.4517
6.4374
6.41856
6.39515
6.36726
6.33552
6.2907
6.22483
6.13412
6.00849
5.80979
5.48552
534.433
518.114
5.34545
5.7127
5.9371
6.07795
6.18193
6.26394
6.32793
6.38036
6.42641
6.46337
6.4905
6.50797
6.51653
6.51733
6.51205
6.50311
6.49422
6.48995
6.48865
6.48693
6.48258
6.47434
6.46156
6.44403
6.42173
6.39475
6.36379
6.31862
6.25162
6.1593
6.03136
5.82903
5.49921
534.515
518.12
5.34289
5.70419
5.92371
6.06121
6.16285
6.24326
6.30702
6.36125
6.40982
6.44976
6.48
6.50056
6.51211
6.51588
6.51368
6.50816
6.5033
6.5031
6.5049
6.50562
6.50326
6.4967
6.4854
6.46919
6.44807
6.42231
6.39179
6.34617
6.27807
6.1842
6.054
5.84808
5.51276
534.597
518.126
5.34042
5.69565
5.91009
6.044
6.14295
6.22143
6.28475
6.34075
6.39192
6.43497
6.46852
6.49237
6.50714
6.5141
6.51522
6.5134
6.51284
6.51652
6.52126
6.52426
6.52377
6.5188
6.50891
6.49397
6.47406
6.44953
6.41931
6.37315
6.30394
6.20854
6.07614
5.86669
5.52595
534.676
518.132
5.33808
5.68712
5.89628
6.02634
6.12229
6.19846
6.26111
6.31881
6.37263
6.41893
6.45596
6.48329
6.50147
6.51184
6.51653
6.51865
6.52263
6.53005
6.53761
6.5428
6.54409
6.54065
6.53213
6.51847
6.49978
6.47651
6.44654
6.39981
6.32949
6.2326
6.09803
5.88509
5.53898
534.757
518.138
5.33586
5.6786
5.88233
6.0083
6.10088
6.17438
6.23609
6.2954
6.3519
6.40158
6.44226
6.47326
6.49504
6.50903
6.5175
6.52382
6.53247
6.54354
6.55383
6.56114
6.56415
6.56218
6.55497
6.54253
6.52503
6.50297
6.4732
6.42585
6.35444
6.25609
6.11939
5.90301
5.55164
534.834
518.144
5.33379
5.67014
5.86828
5.98993
6.07879
6.14922
6.20971
6.27049
6.3297
6.38285
6.42733
6.46215
6.48772
6.50552
6.51801
6.52876
6.54214
6.55679
6.56979
6.57919
6.5839
6.58339
6.57749
6.56628
6.54996
6.52912
6.49953
6.45158
6.37908
6.27931
6.14051
5.92073
5.56414
534.912
518.151
5.33183
5.66173
5.85414
5.97124
6.05605
6.12304
6.18207
6.24417
6.30606
6.36275
6.41112
6.44993
6.47948
6.50133
6.51808
6.53351
6.55157
6.56974
6.58537
6.59683
6.60322
6.60413
6.59951
6.58948
6.57431
6.55464
6.5252
6.47664
6.4031
6.30194
6.16109
5.93797
5.57626
534.986
518.157
5.33004
5.65342
5.83994
5.95225
6.03263
6.09584
6.15319
6.21648
6.28101
6.34127
6.39363
6.43656
6.47027
6.49637
6.51764
6.53805
6.56066
6.58224
6.60049
6.61401
6.6221
6.62446
6.62114
6.61232
6.59832
6.57981
6.55051
6.50136
6.4268
6.32428
6.18142
5.955
5.58821
535.061
518.164
5.32847
5.64523
5.82568
5.93291
6.0085
6.0676
6.12311
6.1875
6.25463
6.31848
6.37491
6.42206
6.46009
6.49065
6.5167
6.54233
6.56933
6.59423
6.61503
6.63059
6.64036
6.64417
6.64213
6.63449
6.62161
6.60424
6.57509
6.52536
6.44983
6.34601
6.20118
5.97154
5.59975
535.133
518.17
5.32724
5.63724
5.81137
5.91319
5.98354
6.0382
6.09187
6.15718
6.2269
6.29439
6.35496
6.40643
6.44888
6.48406
6.51508
6.54609
6.57738
6.60555
6.62891
6.64654
6.65804
6.66334
6.66264
6.65623
6.64453
6.62828
6.59926
6.54897
6.4725
6.36742
6.22067
5.98784
5.61109
535.205
518.177
5.32639
5.62944
5.79697
5.89297
5.95755
6.0074
6.05937
6.12533
6.19772
6.26901
6.33384
6.38974
6.43672
6.47664
6.51279
6.54918
6.58464
6.61603
6.64195
6.66167
6.67492
6.68173
6.68236
6.67715
6.66657
6.65148
6.62261
6.57181
6.49447
6.38817
6.23956
6.00361
5.62199
535.274
518.185
5.32592
5.62178
5.78245
5.87224
5.93042
5.9748
6.0247
6.09142
6.16675
6.24211
6.31142
6.3719
6.42353
6.46834
6.50977
6.55143
6.59097
6.62556
6.65407
6.67595
6.69103
6.69943
6.70147
6.69756
6.68827
6.6742
6.64547
6.59419
6.51601
6.40856
6.25813
6.01909
5.63262
535.344
518.193
5.32566
5.6141
5.76773
5.85097
5.9022
5.94053
5.98798
6.05533
6.13375
6.21346
6.28753
6.3528
6.40929
6.45916
6.50607
6.55277
6.59623
6.63396
6.66506
6.68914
6.70611
6.71617
6.71969
6.7172
6.70938
6.69608
6.66743
6.6157
6.53675
6.42821
6.27603
6.03398
5.64272
535.409
518.201
5.32535
5.60625
5.75278
5.82921
5.87294
5.90451
5.94889
6.01661
6.09819
6.18253
6.26166
6.33202
6.39363
6.44882
6.50141
6.55297
6.60026
6.64111
6.67487
6.70124
6.72023
6.73209
6.73725
6.73629
6.73003
6.71746
6.68884
6.63665
6.55698
6.44739
6.29351
6.0485
5.65249
535.477
518.209
5.32474
5.59805
5.73754
5.80711
5.84293
5.86715
5.90774
5.97532
6.05991
6.14897
6.2334
6.30915
6.37615
6.43691
6.49534
6.55164
6.60271
6.64671
6.68317
6.71193
6.73303
6.74678
6.75367
6.75433
6.74967
6.73782
6.70925
6.65666
6.57633
6.46577
6.31027
6.06237
5.66168
535.54
518.217
5.32362
5.58933
5.72188
5.78459
5.81234
5.82872
5.86479
5.93163
6.01881
6.11248
6.20233
6.28368
6.35634
6.42295
6.48736
6.54843
6.60335
6.65062
6.68994
6.72124
6.74463
6.76044
6.76921
6.77161
6.76861
6.7575
6.72899
6.67601
6.59505
6.48358
6.3265
6.07577
5.67044
535.605
518.224
5.32197
5.58008
5.70575
5.76155
5.7811
5.78945
5.82059
5.88607
5.97534
6.07332
6.16852
6.25554
6.33402
6.40667
6.47706
6.5429
6.60175
6.65241
6.69474
6.72874
6.75456
6.77258
6.78335
6.78759
6.78631
6.77601
6.74761
6.69434
6.61285
6.50054
6.34197
6.0885
5.67862
535.666
518.231
5.31998
5.57038
5.6891
5.73787
5.74908
5.74942
5.77538
5.83911
5.92999
6.03192
6.13227
6.22495
6.30934
6.38818
6.46444
6.53502
6.5979
6.65211
6.69765
6.73456
6.76304
6.78346
6.7964
6.8026
6.80311
6.79365
6.7654
6.71187
6.62988
6.51678
6.35678
6.10063
5.68627
535.73
518.238
5.31789
5.56032
5.67181
5.71323
5.7158
5.70808
5.72903
5.79104
5.88329
5.98884
6.09408
6.19226
6.28252
6.36761
6.44945
6.52466
6.59157
6.64942
6.69829
6.73827
6.76957
6.79256
6.80782
6.8161
6.81851
6.80998
6.78199
6.72831
6.64594
6.53216
6.37081
6.11209
5.69333
535.789
518.246
5.31594
5.55003
5.65389
5.68747
5.68087
5.66496
5.68121
5.74171
5.8354
5.94443
6.05433
6.15783
6.25386
6.34515
6.43231
6.51204
6.583
6.64458
6.69694
6.74018
6.77449
6.80023
6.81797
6.82846
6.83281
6.82526
6.79756
6.74375
6.66105
6.54662
6.38399
6.12276
5.69973
535.852
518.254
5.3142
5.53959
5.63543
5.66058
5.64413
5.61964
5.6313
5.6907
5.78613
5.89868
6.01313
6.12176
6.22337
6.32068
6.41289
6.49701
6.57198
6.63732
6.69325
6.73986
6.77732
6.80597
6.82634
6.83918
6.84559
6.83915
6.81186
6.75808
6.67516
6.56021
6.39639
6.13275
5.70549
535.91
518.262
5.31265
5.52907
5.61653
5.63268
5.60554
5.57183
5.57879
5.63738
5.73485
5.85113
5.97017
6.08389
6.19101
6.29417
6.3913
6.47976
6.55877
6.62796
6.68758
6.7377
6.77847
6.81017
6.83329
6.84857
6.85709
6.85178
6.82494
6.77122
6.68813
6.57269
6.40774
6.14176
5.71041
535.973
518.271
5.31123
5.5186
5.59748
5.60414
5.56557
5.52188
5.52366
5.58131
5.68097
5.80118
5.92493
6.04377
6.15637
6.26519
6.36712
6.4599
6.54297
6.61608
6.67948
6.73323
6.77744
6.81234
6.83839
6.85625
6.867
6.86296
6.83672
6.7832
6.70008
6.58427
6.4183
6.15008
5.71469
536.029
518.28
5.31003
5.50837
5.57849
5.57516
5.5244
5.46996
5.4659
5.52228
5.62415
5.74845
5.87708
6.00114
6.11925
6.23362
6.34035
6.43752
6.52478
6.60194
6.66928
6.72682
6.77461
6.81285
6.84191
6.86246
6.87544
6.87271
6.84711
6.79384
6.71072
6.59459
6.42764
6.15727
5.718
536.092
518.29
5.30929
5.49869
5.5599
5.5461
5.48241
5.41651
5.40585
5.46045
5.56433
5.69271
5.82629
5.95565
6.07931
6.19907
6.31055
6.41215
6.50369
6.58502
6.65642
6.71789
6.76944
6.8112
6.84352
6.86705
6.88224
6.88093
6.85612
6.80326
6.72029
6.60397
6.43618
6.16376
5.72067
536.147
518.3
5.30939
5.48989
5.54195
5.51707
5.43957
5.36163
5.34349
5.3959
5.50162
5.63406
5.77262
5.90732
6.03659
6.16165
6.27792