/*--------------------------------*- C++ -*----------------------------------*\
| =========                 |                                                 |
| \\      /  F ield         | OpenFOAM: The Open Source CFD Toolbox           |
|  \\    /   O peration     | Version:  v2012                                 |
|   \\  /    A nd           | Website:  www.openfoam.com                      |
|    \\/     M anipulation  |                                                 |
\*---------------------------------------------------------------------------*/
FoamFile
{
    version     2.0;
    format      ascii;
    class       volScalarField;
    location    "87.5";
    object      gradTy;
}
// * * * * * * * * * * * * * * * * * * * * * * * * * * * * * * * * * * * * * //

dimensions      [0 -1 0 1 0 0 0];


internalField   nonuniform List<scalar> 
171728
(
1.4031
0.103056
-0.342087
2.91057
9.29837e-06
9.91407e-06
-1.15395e-05
-5.15079e-06
-8.0284e-13
-3.25305e-13
-9.03292e-13
-8.1935e-13
-8.02858e-13
9.32803e-14
2.28836e-11
-1.63873e-12
-8.02858e-13
1.13259e-10
1.73132e-10
0
-4.01429e-13
2.10265e-11
-9.9363e-12
-8.19366e-13
-8.02858e-13
2.35123e-10
1.8066e-12
0
4.17486e-11
1.43879e-10
6.12237e-12
9.01302e-12
-3.21143e-12
-5.15785e-13
-4.01467e-13
-1.63873e-12
-2.529e-11
2.52609e-11
-2.00733e-13
-1.63873e-12
-5.27076e-10
-1.04317e-10
1.76645e-11
0
1.46923e-10
-1.00951e-10
1.82667e-11
-8.19366e-13
8.02859e-13
-3.43828e-11
-3.011e-13
-8.19366e-13
1.49332e-10
-5.86334e-12
1.00367e-13
0
0
1.36218e-10
5.01833e-13
0
4.31938e-10
-8.35103e-11
5.01833e-13
-8.19366e-13
2.86621e-10
6.9976e-12
9.57498e-11
-8.19366e-13
8.95188e-11
-4.31128e-12
-2.00733e-13
8.19366e-13
-8.02859e-13
4.22991e-11
3.81393e-12
0
0
1.28719e-11
4.01467e-13
-1.63873e-12
-8.02866e-13
3.84095e-14
-1.30477e-12
0
-4.01431e-13
-6.70991e-13
1.15422e-11
0
-4.86133e-10
1.00266e-10
5.01833e-13
0
-3.42019e-10
-6.09536e-12
5.01833e-13
3.27746e-12
-3.49245e-10
-6.68639e-13
-3.011e-13
2.4581e-12
-2.07138e-10
-6.70207e-13
-4.71723e-12
0
-2.07138e-10
2.37512e-13
1.48543e-11
2.4581e-12
-2.68959e-10
4.38966e-13
1.33488e-11
1.99106e-10
-2.72973e-10
6.54765e-12
9.033e-12
2.70391e-11
-6.75207e-10
-1.82289e-11
-1.8066e-12
2.4581e-12
-3.41618e-10
3.23189e-12
1.71627e-11
2.4581e-12
-6.28239e-10
-1.68532e-13
-2.00733e-11
-8.19366e-13
-4.19094e-10
8.4109e-13
1.6159e-11
1.88454e-11
-3.97818e-10
1.42962e-11
1.5055e-12
0
-4.22305e-10
5.36166e-13
1.73634e-11
0
-4.31538e-10
1.85385e-12
-7.12603e-12
8.19366e-13
-3.46033e-10
7.49378e-13
-1.3951e-11
9.83239e-12
-4.95366e-10
1.69809e-11
4.11503e-12
-8.19366e-13
-3.43625e-10
6.34149e-13
-2.50917e-11
8.19366e-13
-5.60799e-10
1.80979e-11
1.64601e-11
7.37429e-12
4.01431e-13
1.44867e-11
1.76645e-11
4.09683e-12
0
2.38296e-13
-1.65605e-10
1.55679e-11
-4.01429e-13
-5.32874e-12
-1.02374e-10
1.63873e-12
-4.01429e-13
4.03536e-12
-2.20807e-12
2.21229e-11
-4.01429e-13
2.6385e-12
-1.57776e-10
8.19366e-13
-8.02859e-13
2.35984e-11
-9.4445e-11
-1.63873e-12
-4.01429e-13
3.44902e-14
1.63598e-11
-2.4581e-12
0
-1.05736e-11
1.8066e-11
4.67038e-11
0
6.6817e-12
1.25458e-11
2.21229e-11
0
8.66802e-12
-7.02566e-13
1.8026e-11
1.20429e-12
2.4318e-11
9.033e-13
-8.19366e-13
1.24443e-10
4.25249e-12
-9.033e-13
8.19366e-13
-4.01429e-13
2.06079e-12
4.11503e-12
2.70391e-11
5.33901e-11
-5.89313e-11
1.2034e-10
8.19366e-13
2.81001e-12
-1.68218e-12
-1.05385e-11
-8.19366e-13
0
4.2956e-13
-1.59583e-10
0
-7.82787e-11
8.76757e-12
-3.53291e-11
0
4.81715e-12
-9.59769e-12
7.939e-11
8.19366e-13
-9.63431e-12
-3.81909e-11
-1.27566e-10
1.63873e-12
4.01429e-13
3.13548e-14
1.77649e-11
2.4581e-12
-1.20429e-12
2.24285e-10
-6.6242e-12
1.47486e-11
6.46301e-11
2.43822e-11
-7.3368e-11
1.88454e-11
-8.02859e-13
2.29674e-13
-8.93263e-12
-8.19366e-13
2.00715e-12
1.01683e-11
1.00367e-13
0
1.36085e-10
-2.57658e-12
2.31847e-11
2.86778e-11
2.00715e-12
5.74968e-12
2.7099e-12
2.4581e-12
7.3863e-11
9.36723e-13
2.00733e-13
4.75232e-11
-4.01429e-13
3.84096e-14
9.73556e-12
8.19366e-13
-8.02859e-13
1.64887e-11
2.50917e-11
-1.63873e-12
0
-8.23062e-14
-5.45995e-11
8.19366e-13
0
-2.24657e-12
-9.033e-13
-2.4581e-12
1.30866e-10
-7.73679e-13
1.05385e-11
0
1.3488e-10
-2.98262e-12
9.61512e-11
1.08976e-10
3.61287e-12
2.96616e-12
-1.40513e-11
8.19366e-13
-4.01429e-13
1.37177e-13
2.5192e-11
1.88454e-11
1.20429e-12
-3.78609e-13
-2.00733e-11
-8.19366e-13
-8.02859e-13
-6.3578e-11
4.01467e-13
0
0
2.517e-12
3.011e-13
0
-2.00715e-12
4.56996e-13
-4.85775e-11
1.63873e-12
4.01429e-13
-9.28885e-13
8.71182e-11
-2.4581e-12
4.01429e-13
-1.74372e-10
1.92604e-10
2.4581e-12
0
-2.74981e-12
-1.28369e-10
0
-4.01429e-13
4.55073e-10
-4.07489e-11
1.63873e-12
8.02859e-13
-3.29225e-14
2.20305e-10
0
1.20429e-12
1.10526e-13
-8.37058e-11
-4.01489e-11
-4.01429e-13
-2.82193e-13
-2.30843e-11
0
-4.01429e-13
-2.20361e-10
3.14148e-11
2.37616e-11
0
5.80063e-13
6.845e-11
-4.17877e-11
-2.81001e-12
1.8029e-14
2.23818e-10
0
0
1.44624e-12
-1.00367e-12
0
0
-1.66886e-12
8.02933e-13
8.19366e-12
2.81001e-12
2.62596e-13
-7.02566e-13
0
1.59769e-10
-4.31908e-13
-3.69343e-11
0
-2.21126e-13
-1.41583e-10
-7.31922e-12
8.19114e-13
4.72414e-11
-1.13458e-11
-3.67691e-12
3.67323e-12
1.17215
26.6577
26.6583
1.17619
-0.973994
0.97579
-20.0363
-20.0365
20.0349
20.0357
-0.97422
0.976485
-1.17061
-26.6606
-26.661
-1.17565
-2.91191
0.000151792
0.341973
0.342044
0.000309618
0.000309587
-2.90999
0.000151765
0.10342
-0.103041
0.000267478
-0.000267506
-0.102673
0.000267523
-0.000267539
2.91253
-0.000151807
-0.342047
-0.000309652
-0.000309612
-0.00015178
5.15145e-06
2.39651e-11
1.15382e-05
1.15366e-05
1.36242e-10
1.08287e-10
5.15109e-06
5.73866e-11
9.91162e-06
-9.91242e-06
8.8696e-11
-2.46299e-10
-9.91402e-06
2.84594e-10
-2.2782e-10
-5.15117e-06
-8.19394e-13
-1.15379e-05
-1.70515e-10
-2.87906e-10
-3.73629e-10
-2.04948e-10
-1.06143e-09
-4.01614e-13
1.50543e-11
-1.40564e-12
-6.02175e-13
8.57659e-13
-4.09626e-13
-1.55849e-11
-6.65101e-13
-2.38985e-10
1.0855e-12
1.45275e-10
-1.50202e-10
-1.63797e-12
-1.63879e-12
8.19394e-13
1.43457e-11
-7.72823e-12
-5.11626e-12
8.19366e-13
-1.08318e-09
-1.30474e-09
-1.80725e-12
-1.28564e-10
-5.02015e-13
-8.09926e-11
-4.22427e-13
-3.84025e-13
4.58121e-11
9.46673e-13
-5.64533e-10
3.43532e-13
-1.32434e-10
4.37398e-13
1.66308e-13
-2.45818e-12
8.19394e-13
-4.17326e-11
3.011e-13
4.01275e-11
8.19366e-13
-1.24877e-09
-9.95098e-10
-7.02821e-13
-1.10399e-12
-4.01612e-13
-1.6058e-12
-4.22427e-13
-3.40502e-12
-3.05352e-10
6.30122e-12
-2.45408e-10
1.12879e-11
-4.3491e-12
1.30914e-10
-6.32283e-13
-8.19394e-13
-1.47491e-11
1.03128e-10
6.72456e-12
1.00319e-12
-8.19366e-13
-1.38497e-09
-9.36925e-10
-3.01209e-12
-1.80653e-11
-3.01209e-13
4.60664e-11
1.75371e-12
-8.06452e-13
-2.44714e-10
6.33729e-13
-1.93657e-10
7.92319e-12
-6.93143e-11
1.57322e-12
-5.26223e-12
-1.14715e-11
8.19394e-13
2.37756e-11
6.3231e-12
-2.00638e-13
9.01302e-12
-1.39159e-09
-4.05775e-10
-6.02418e-12
-2.10761e-12
-7.45996e-11
1.59677e-10
1.02407e-13
4.03482e-11
-2.28055e-10
2.35217e-12
-1.02575e-10
4.25885e-12
-6.30714e-13
9.65412e-12
-6.1628e-12
0
-8.19394e-13
8.02551e-13
1.00367e-13
3.00957e-13
-4.91619e-12
-1.06035e-09
-7.47834e-10
-2.86149e-11
-2.09156e-10
-6.27521e-11
-1.51748e-10
-1.28008e-13
-9.3446e-13
-2.40414e-10
1.01593e-11
-1.84256e-10
3.65492e-12
-4.95158e-12
1.86843e-11
-4.17338e-13
-4.91636e-12
-2.45818e-12
1.50478e-12
-1.00367e-13
-1.00319e-13
0
-1.27392e-09
-2.2556e-10
-4.41775e-12
-1.16521e-10
-1.00403e-13
2.93059e-11
-1.02407e-13
3.0498e-10
-2.99329e-10
4.55924e-12
-5.63463e-11
1.08785e-11
-6.33852e-13
1.87815e-12
-5.05827e-12
-3.27758e-12
1.63879e-12
-4.01275e-13
-1.00367e-13
-7.02232e-13
-8.19366e-13
-1.0266e-10
-1.04977e-12
-1.43577e-11
2.00725e-13
1.3434e-10
1.00363e-12
7.33999e-11
-7.58205e-10
-3.71705e-11
2.61649e-12
-7.76466e-12
1.21444e-11
-2.88685e-13
-1.65561e-10
-6.61309e-12
-8.19394e-13
-4.91636e-12
-4.26355e-11
-2.38873e-11
-1.43155e-10
4.91619e-12
-1.29711e-10
2.20195e-12
1.34641e-10
-3.01088e-13
-1.60746e-10
-3.71341e-12
-4.37634e-10
-3.74283e-10
-8.70663e-13
2.40394e-12
6.67691e-13
3.21571e-12
-2.99668e-12
-9.76834e-11
1.24637e-11
0
0
-1.00319e-13
-6.022e-12
-3.54126e-11
-1.63873e-12
-6.17185e-11
2.86343e-10
-7.08848e-11
-7.12574e-12
-2.88158e-11
-8.029e-13
-3.43126e-10
-1.97337e-10
3.33626e-11
1.98433e-13
-7.03019e-11
1.92942e-13
-2.85547e-13
-5.01049e-11
-3.40146e-12
-8.19394e-13
8.19394e-13
5.01594e-13
1.00367e-13
1.00319e-13
9.01302e-12
3.92216e-10
3.76226e-10
-3.06231e-11
-4.21523e-12
-2.10044e-10
7.02536e-13
-1.48195e-10
-5.91398e-12
1.00526e-10
1.23413e-11
9.56287e-11
5.61415e-12
1.57359e-10
1.22519e-12
-3.8596e-13
-3.27758e-12
-3.27758e-12
-1.00319e-12
1.47539e-11
-1.00319e-13
0
7.67737e-11
2.94448e-13
-7.86159e-11
1.30471e-12
-8.03229e-13
-2.73387e-10
-1.54506e-11
-5.32834e-10
-6.42535e-11
1.39687e-12
-3.40116e-13
1.08393e-11
1.22377e-13
-1.34509e-10
-6.93472e-13
-3.27758e-12
-1.63879e-11
-3.00957e-13
9.4445e-11
2.20701e-12
-8.19366e-13
2.35558e-12
-4.99281e-13
-1.50605e-12
-1.84667e-10
-2.17274e-10
-1.88079e-10
-3.88697e-10
-3.60983e-12
3.65193e-13
-1.78507e-10
1.16454e-12
3.70826e-12
2.16514e-13
-8.82636e-13
-8.09244e-11
-3.27758e-12
0
2.13679e-11
1.14418e-11
4.01275e-13
-3.27746e-12
-9.2175e-13
4.81358e-12
-1.50003e-10
-4.19113e-10
-1.65766e-10
-1.30471e-12
-2.52215e-10
2.02511e-11
2.58613e-13
8.12476e-12
6.58288e-14
8.52397e-12
-1.26102e-10
-8.55279e-12
1.35745e-11
-4.09697e-12
8.19394e-13
4.01275e-13
-9.033e-13
3.00957e-13
-8.19366e-13
1.90751e-12
2.88802e-10
-9.7994e-11
2.00725e-13
-4.39768e-11
-8.02902e-13
1.65516e-11
7.25369e-10
1.0705e-12
3.50669e-12
6.85952e-11
3.98434e-13
1.01981e-13
1.64404e-10
3.92623e-10
-1.14715e-11
-1.34381e-10
-4.27358e-11
1.78653e-11
4.55448e-11
0
7.32023e-11
7.04115e-13
-2.49001e-11
2.00725e-13
-2.30928e-12
1.00363e-12
8.57668e-13
6.47309e-10
1.98819e-11
6.95691e-13
-1.34792e-13
1.17365e-11
2.72525e-12
1.55857e-10
-6.84058e-13
-1.22909e-11
-8.03006e-11
9.0287e-13
1.0689e-10
2.00638e-12
-8.19366e-13
2.40039e-11
-1.03697e-11
-4.33744e-11
9.83555e-12
-1.00404e-13
1.66602e-11
2.28639e-10
-4.21149e-12
-7.87767e-11
1.09805e-12
2.96699e-12
-1.24158e-11
1.6157e-11
3.84801e-12
-2.1165e-12
-2.45818e-12
-3.27758e-12
-1.00319e-13
-1.5055e-12
1.00319e-13
4.91619e-12
-1.65148e-12
-1.07665e-11
1.00404e-13
1.10399e-12
-9.03633e-13
-1.95706e-11
-2.62802e-11
-6.91251e-13
-1.22382e-10
1.1106e-12
1.06736e-12
9.65182e-12
-4.88019e-11
5.3695e-13
5.01434e-12
0
-8.19394e-13
-7.02232e-13
5.01833e-13
7.02232e-13
-8.19366e-13
-1.56697e-11
5.88896e-13
1.00404e-13
2.30832e-12
4.35754e-11
2.06645e-10
-1.5566e-11
-2.23558e-10
-3.83997e-14
-2.51609e-12
-3.60487e-14
5.49023e-12
-8.78607e-14
-4.9854e-12
5.8851e-12
-8.19394e-13
1.72073e-11
3.9325e-11
3.011e-13
5.01594e-13
3.3594e-11
5.76094e-13
1.36982e-12
6.02424e-13
1.72221e-10
2.04322e-10
1.41209e-10
-2.62051e-10
-1.89136e-10
-9.42752e-13
9.92947e-13
-1.04855e-12
3.50747e-12
4.22045e-13
6.4528e-12
-9.85295e-13
0
-8.19394e-13
2.40765e-12
1.00868e-10
5.01594e-13
0
-5.14644e-12
5.88896e-13
1.64964e-10
1.51847e-10
1.44983e-10
1.5817e-10
-2.80305e-10
-1.90787e-10
1.60652e-13
-3.04316e-13
6.42608e-14
7.9373e-13
-2.59189e-12
4.28776e-13
-3.99766e-12
0
-3.35951e-11
0
9.80582e-11
-4.01274e-13
6.55493e-12
-1.02417e-12
-1.98944e-11
1.1687e-10
2.36453e-10
1.18477e-10
1.40707e-10
-2.62051e-10
-5.47246e-11
1.4106e-11
3.01806e-12
7.28027e-12
4.00473e-12
1.12807e-12
-3.66066e-13
4.85823e-11
-1.63879e-12
-8.19394e-13
4.3137e-12
1.2044e-12
-1.00319e-12
1.9419e-10
-1.8691e-12
3.86623e-12
-1.38959e-10
1.99319e-10
4.72903e-11
1.87777e-10
-1.41618e-10
-5.31373e-11
1.56734e-13
1.80211e-10
6.52012e-13
8.42358e-12
-9.85295e-13
3.76257e-14
4.16711e-12
8.19394e-13
-1.55685e-11
-5.01593e-13
-2.00733e-13
9.93154e-12
-4.17877e-11
5.88896e-13
-6.40104e-13
7.05841e-11
2.13871e-10
2.3595e-11
1.05681e-10
-8.51015e-11
1.76655e-12
-8.43227e-13
1.50903e-12
-3.99686e-11
-4.23814e-10
-4.20162e-12
1.64377e-12
-4.70682e-15
8.19394e-13
-1.63879e-12
1.85589e-11
-2.06755e-11
4.21338e-12
0
-2.4324e-13
5.76094e-13
6.958e-11
2.34345e-10
2.36954e-11
1.93197e-10
-1.08848e-10
-2.09733e-10
2.56808e-12
2.8957e-12
-1.36358e-13
7.96868e-13
-8.01258e-12
9.46207e-12
-4.20476e-12
-5.73576e-12
-8.19394e-13
9.02867e-13
-2.42887e-11
-5.01593e-13
6.55493e-12
5.88896e-13
1.40823e-12
9.21709e-11
2.70074e-10
1.60646e-12
9.88564e-11
-3.24072e-10
-4.16291e-11
-2.43721e-13
1.80393e-12
4.62364e-13
-5.68333e-11
5.05403e-11
-5.69872e-13
1.19679e-11
-2.45818e-12
-2.45818e-12
2.9594e-11
-6.022e-12
-4.81529e-12
0
6.145e-13
3.0725e-12
9.32754e-11
1.39704e-10
1.49602e-10
3.01086e-10
-6.56951e-11
-3.75711e-11
1.46311e-12
2.88472e-12
1.59868e-13
6.30592e-13
6.10318e-12
5.66658e-12
-5.81606e-12
-1.63879e-12
-2.45818e-12
6.01912e-13
-2.00733e-13
6.52071e-12
2.4581e-12
-1.88191e-12
-2.56042e-13
2.14061e-10
1.53754e-10
1.48196e-10
1.44621e-10
-7.85346e-11
-2.22739e-12
1.57517e-13
-9.00398e-13
1.66138e-13
-3.83896e-10
-3.00138e-12
7.92099e-11
-7.34264e-12
-8.19394e-13
-1.63879e-12
-5.81848e-12
-1.00367e-13
-2.10669e-11
8.19366e-13
-1.74492e-11
1.38262e-12
1.17874e-10
-4.01448e-13
1.66771e-10
1.42514e-11
-2.25299e-12
1.75375e-12
6.66901e-13
9.74281e-12
-4.46691e-13
1.39452e-12
-6.63521e-11
3.45607e-12
-1.48108e-12
-5.73576e-12
-3.27758e-12
-7.0223e-13
0
5.01593e-13
1.39292e-11
5.88896e-13
-2.71404e-12
1.92274e-10
-5.62027e-12
1.56028e-10
-9.33367e-12
-7.04059e-13
1.65133e-12
-7.46052e-13
3.10355e-12
-3.40112e-13
4.10983e-12
3.54559e-10
5.08809e-12
-1.83566e-13
8.19394e-13
-8.19394e-13
6.01912e-13
-4.01467e-13
2.00637e-13
-8.19366e-13
-1.06257e-12
1.39543e-12
1.42775e-10
-1.10398e-12
1.91471e-10
-1.44521e-11
1.76654e-12
1.68973e-12
-4.42772e-13
4.30905e-12
5.64241e-13
5.33337e-13
1.12964e-13
-1.35766e-12
1.56894e-15
-1.47491e-11
-8.19394e-13
2.00637e-13
2.00733e-13
-4.01274e-13
-8.19366e-13
1.39543e-12
1.39543e-12
1.42975e-10
6.02173e-13
1.83739e-10
-7.02535e-13
5.5838e-11
-8.19265e-13
-6.40257e-13
7.82279e-12
-2.39802e-13
-1.12441e-10
4.53047e-11
1.244e-12
2.32674e-12
0
8.19394e-13
-1.87295e-10
-8.02933e-13
-1.6051e-12
1.14711e-11
-1.99072e-11
5.76094e-13
1.42975e-10
-2.00724e-13
9.54843e-11
-3.43238e-11
9.47275e-13
9.47275e-13
-6.37906e-13
3.81336e-12
-1.44195e-12
2.41727e-12
-1.37361e-11
6.37285e-13
-1.00883e-12
3.27758e-12
-1.63879e-12
2.00637e-13
-4.01467e-13
3.61147e-12
0
1.39543e-12
-1.04977e-12
1.20987e-10
6.02173e-12
9.68899e-11
-1.40507e-12
-8.06464e-13
-6.91255e-13
2.61745e-13
-1.96468e-10
7.66427e-13
2.45178e-12
4.94687e-12
2.43783e-12
-4.40088e-12
8.19394e-13
5.73576e-12
1.36433e-11
-1.00367e-12
9.02867e-13
9.01302e-12
-4.3271e-12
5.10803e-12
1.17674e-10
1.00362e-13
1.18678e-10
-2.50905e-12
8.96071e-13
8.94407e-11
8.65169e-13
-1.01961e-13
-1.92939e-11
4.60709e-12
-5.81293e-12
3.76476e-11
-6.85627e-13
0
-8.19394e-13
2.00637e-13
4.71723e-12
3.10988e-12
-8.19366e-13
2.25317e-12
-2.07394e-11
1.55225e-10
1.15416e-11
1.38156e-10
1.23445e-11
2.90455e-11
1.67693e-12
1.00803e-11
-3.19296e-12
2.6488e-13
2.90355e-12
3.15357e-13
3.44902e-14
-1.16102e-13
5.73576e-12
1.63879e-12
2.80892e-12
-7.02566e-13
-3.00956e-13
8.19366e-13
2.02529e-11
-1.17011e-11
1.16268e-10
-3.01086e-13
1.00404e-10
1.51547e-11
2.68821e-13
2.5602e-13
1.2034e-11
1.00628e-12
7.99106e-11
1.48864e-12
-5.7737e-13
1.37177e-13
-1.29595e-12
-2.45818e-12
-4.67054e-11
1.00319e-13
-4.01467e-13
-9.02867e-13
0
3.03409e-12
-1.40438e-11
1.88559e-10
3.13129e-11
-9.03634e-13
1.60579e-12
1.67693e-12
-1.49387e-11
8.60467e-13
7.72162e-12
1.28522e-13
7.09542e-11
-6.90805e-12
1.31823e-11
-2.04119e-12
-8.19394e-13
0
1.10351e-12
1.8066e-12
-1.00319e-13
5.73556e-12
-8.29571e-12
-1.02417e-13
-4.01615e-13
-4.23528e-11
-3.01211e-13
1.00864e-10
4.48033e-12
-1.42691e-10
1.35771e-11
8.2275e-12
2.16488e-10
2.84378e-11
-2.5078e-11
6.25684e-12
-2.79272e-13
-2.62206e-11
-1.63879e-12
-1.00319e-12
-1.69921e-10
-8.02553e-13
0
1.52345e-12
6.91312e-13
-3.75509e-11
9.23336e-12
3.01211e-13
1.90689e-12
-1.16488e-12
-1.17768e-12
2.3667e-13
7.31612e-12
-5.36018e-11
-1.11373e-12
-8.72488e-12
-1.05038e-12
-4.71781e-12
2.45818e-12
0
-6.01915e-13
-1.37101e-10
-1.90606e-12
-8.19366e-13
-1.15219e-13
-1.27918e-10
-5.22099e-12
1.87678e-11
-6.02421e-13
1.54558e-11
-2.05966e-11
-8.00055e-12
-3.42466e-13
3.1412e-12
-3.23516e-11
3.96865e-13
-7.58897e-11
1.53873e-11
-1.4748e-11
-6.55515e-12
-1.63879e-12
-9.02872e-13
-1.03378e-11
-3.31053e-12
8.19366e-13
1.52345e-12
-5.50106e-11
-3.93582e-11
1.66602e-11
-2.20888e-12
9.83553e-12
-3.50744e-12
4.48031e-13
-1.41061e-13
2.70355e-12
-1.75857e-12
1.31902e-10
-1.13403e-11
-5.42437e-13
2.99668e-13
1.63879e-12
8.19394e-13
-5.01595e-13
8.02933e-11
1.25399e-11
1.63873e-12
1.53625e-12
-5.85055e-12
-3.73501e-11
4.0145e-13
-7.83148e-11
2.08754e-11
-1.15208e-13
-1.16488e-12
-6.89633e-13
1.9884e-11
-2.71308e-12
1.66043e-10
-8.83314e-13
4.04241e-12
-7.50425e-12
-1.04063e-10
-1.63879e-12
-2.19097e-10
1.32484e-11
-1.00319e-13
0
3.14931e-12
3.00849e-12
-1.93377e-10
2.91051e-12
-9.03632e-13
8.02901e-13
-1.2212e-11
-3.45624e-13
5.28353e-12
1.16409e-11
-1.94351e-12
3.98434e-13
-3.5833e-11
-2.25206e-12
-2.10666e-10
8.19394e-13
-8.19394e-13
-9.02872e-13
8.23006e-12
4.01276e-13
-8.19366e-13
-9.18677e-11
1.52345e-12
-1.0944e-11
5.11849e-12
-7.02825e-13
1.7162e-11
6.91248e-13
4.48031e-13
-1.61225e-11
2.25829e-11
1.09934e-11
3.00551e-12
1.25515e-13
-4.20938e-13
-3.20127e-11
-4.09697e-12
-8.19394e-13
-2.30734e-12
-3.011e-13
-3.00957e-13
6.30912e-11
-4.84559e-11
-9.34552e-13
-3.23902e-10
6.72429e-12
-6.02421e-13
1.48537e-11
-4.0502e-11
-2.37584e-11
2.63315e-13
2.87084e-11
-2.7554e-12
4.13807e-12
-2.45837e-11
-6.34934e-14
1.12964e-13
0
-3.60533e-11
-7.42361e-12
5.01833e-13
-5.01595e-13
0
-1.75389e-12
1.72316e-11
-2.8113e-12
2.25816e-11
2.20888e-12
8.59104e-11
-2.67538e-12
-1.81901e-10
-1.63945e-12
-2.43139e-14
-9.26146e-12
2.98041e-14
-1.86908e-11
1.48825e-11
-3.45779e-11
-8.19394e-13
-5.73576e-12
4.19334e-11
-1.00367e-12
-1.1637e-10
9.50464e-11
-1.00624e-10
-8.96146e-14
-5.1507e-11
1.12406e-10
-1.82634e-10
5.78088e-11
-2.75616e-10
6.65646e-13
-3.57747e-11
7.5224e-12
3.52653e-13
3.47516e-11
-1.51764e-11
7.55885e-11
-9.57054e-14
8.19394e-13
-4.01503e-11
-4.01276e-13
-9.033e-13
-2.00638e-13
0
7.04115e-13
1.52345e-12
-1.30525e-12
-1.00363e-13
8.03229e-13
6.02175e-13
7.84694e-12
-1.98414e-12
5.32295e-11
6.03768e-12
-3.40115e-13
1.49648e-12
-3.26967e-12
-3.69986e-13
-6.82489e-13
1.63879e-12
-3.27758e-12
3.81213e-12
-8.02933e-13
-2.70862e-12
8.19366e-13
-9.08948e-13
-1.15219e-13
2.00807e-13
4.0145e-13
-1.00404e-12
1.46529e-11
-7.1941e-12
-1.15208e-13
3.20523e-13
3.30512e-12
-9.2635e-11
-8.03142e-13
-3.79684e-12
1.63985e-12
-3.59915e-12
-6.47321e-11
-4.26085e-11
-6.01915e-13
-5.01833e-13
1.10351e-12
8.19366e-13
-3.9456e-11
1.52345e-12
-1.62855e-10
-1.20435e-12
-4.31735e-12
9.03263e-13
-3.58425e-13
4.60832e-13
-1.73192e-13
2.10197e-13
-5.31331e-13
2.24707e-11
-4.17699e-11
8.62256e-15
-2.65308e-12
0
4.09697e-12
1.57501e-11
-1.48543e-10
-2.00638e-13
1.63873e-12
-9.2175e-13
-9.2175e-13
-4.09647e-11
-3.01088e-13
-3.01211e-13
1.40508e-11
-2.35767e-10
-1.75372e-12
-5.25062e-13
7.96005e-12
-1.54227e-12
5.39611e-12
-3.08015e-11
1.23303e-12
-1.51497e-11
-1.63879e-11
-2.86788e-11
1.73552e-11
-2.00733e-13
-1.00319e-12
0
7.04115e-13
-3.40535e-12
-1.93678e-10
0
-1.30023e-10
1.00363e-12
-4.45471e-12
-3.11445e-11
6.34776e-14
4.1961e-13
-7.08442e-13
2.13758e-11
-2.86175e-12
1.3876e-11
-3.28175e-11
8.19394e-13
-1.63879e-12
-1.00319e-13
-8.77204e-11
9.02872e-13
6.80074e-11
-6.40104e-14
-2.54761e-12
-2.56029e-11
7.32647e-12
-1.79923e-10
5.97157e-11
-1.15208e-13
-1.15208e-13
5.47005e-13
1.7186e-11
-7.38221e-13
5.48019e-11
-4.30204e-12
2.64556e-12
5.75519e-11
-1.63879e-11
-6.06351e-11
-1.50479e-12
-8.91256e-11
1.00319e-13
-2.54003e-11
1.51065e-12
-9.60156e-13
-1.84542e-10
6.98524e-11
-3.55429e-11
9.03263e-13
-1.7678e-11
-7.05329e-12
-4.40425e-13
8.06201e-12
-6.37911e-13
-7.55299e-12
-8.47228e-14
-2.04747e-12
-1.88555e-11
-8.19394e-13
-8.19394e-13
9.02872e-13
-9.3341e-12
-1.90606e-12
6.06331e-11
-9.2175e-13
7.16917e-13
0
1.62587e-11
-4.01614e-12
-2.81015e-12
-4.3267e-12
-9.47265e-13
-5.17985e-11
-4.42591e-12
-1.74289e-12
6.88632e-13
1.4246e-12
-5.70657e-13
-8.31539e-14
-2.45818e-12
-2.45818e-12
-2.00638e-12
6.022e-13
-2.50798e-12
0
9.90881e-12
1.49016e-11
-5.20091e-11
6.24255e-11
-5.02018e-12
1.75635e-11
-1.88787e-10
4.60832e-13
-1.59995e-11
2.49805e-12
-2.68064e-11
6.96475e-13
3.6969e-11
4.64913e-12
2.61966e-11
-4.09697e-12
-8.19394e-13
8.02553e-13
7.02566e-13
-5.01595e-13
1.04059e-10
1.74108e-12
-2.02478e-10
5.6226e-12
5.29914e-11
-1.82032e-10
2.52914e-11
6.91248e-13
-9.60066e-13
1.94743e-12
3.18175e-11
-5.11301e-11
5.03533e-13
3.2634e-13
1.26987e-13
-3.89097e-13
8.19394e-13
-1.31922e-10
3.00957e-13
9.43446e-12
5.01595e-12
0
1.51065e-12
-1.15219e-13
-3.15066e-10
1.1361e-10
-1.20484e-12
8.02901e-13
-6.16875e-11
-5.26116e-12
3.10649e-12
4.90983e-12
-3.072e-13
3.90591e-13
3.76389e-12
-6.42773e-14
-2.48003e-11
8.19394e-13
0
3.85326e-10
1.14418e-11
2.99352e-10
5.162e-11
7.16917e-13
7.16917e-13
-2.90166e-11
-5.01813e-13
-1.68276e-10
-7.02538e-13
-1.98414e-11
1.92013e-13
-8.53657e-12
8.08091e-11
8.65177e-13
1.05412e-11
-4.86372e-14
4.14588e-12
-8.62918e-14
-1.17173e-10
-4.67054e-11
-9.02872e-13
-1.10403e-12
8.98859e-11
0
1.52345e-12
-1.28021e-13
-1.81831e-10
5.01813e-13
-9.35761e-11
5.01813e-13
-3.45624e-13
-2.72147e-11
-1.33225e-13
2.9357e-12
-5.79104e-11
6.94906e-13
4.94216e-13
1.35797e-11
-8.15849e-14
8.19394e-13
-8.19394e-13
2.70862e-12
5.01833e-13
6.3201e-12
0
7.16917e-13
-5.01842e-12
-5.12058e-11
2.00725e-13
-6.02421e-13
6.82466e-12
-2.06606e-11
-9.60066e-13
-3.2209e-13
2.64033e-11
-4.94655e-12
9.72555e-14
2.19652e-13
-1.70883e-12
-2.13737e-11
-1.39297e-11
-4.09697e-11
5.89876e-11
-3.51283e-12
5.21659e-12
0
-2.71315e-10
-3.77828e-10
-3.75509e-11
3.11124e-12
-5.82341e-12
5.01813e-13
1.20328e-12
4.3523e-13
-6.94241e-11
2.54927e-11
-9.35378e-11
4.09414e-13
-1.3587e-11
-1.17032e-12
3.23202e-13
-8.19394e-13
-1.63879e-12
1.67031e-10
7.02566e-13
6.3201e-12
-8.19366e-13
-8.29575e-12
-9.2175e-13
-5.87361e-11
9.6047e-11
-3.2601e-10
-2.60943e-12
1.11368e-12
-1.15208e-13
-1.75621e-12
-5.06496e-10
1.66139e-13
4.8063e-12
-1.77918e-12
2.33593e-13
-3.6776e-12
-7.37454e-12
-1.63879e-12
4.86247e-10
-1.26462e-10
4.09703e-10
0
7.04115e-13
-1.75389e-12
-2.35948e-11
-1.70616e-12
-5.01014e-11
9.03263e-13
-1.31849e-12
-5.27396e-12
-9.0436e-13
1.98506e-10
-1.93568e-12
-4.54591e-12
-2.59895e-11
-3.76257e-14
-1.70602e-10
2.45818e-12
-2.04848e-11
9.02872e-13
4.2154e-12
4.91564e-11
2.37616e-11
-6.64428e-12
1.32758e-11
0
3.01088e-12
-1.40565e-12
4.51632e-12
6.91248e-13
-8.96062e-14
-1.24212e-12
-1.17538e-11
-6.96373e-12
1.55624e-11
-2.50874e-11
1.54869e-11
7.06855e-11
-9.58691e-11
-1.31103e-11
4.93971e-10
-1.11307e-10
8.53715e-11
2.79404e-10
1.25076e-11
7.04115e-13
-1.63658e-10
1.00363e-12
-1.50605e-12
-4.71704e-12
-3.60985e-12
-1.26345e-11
-6.6581e-12
3.64355e-11
-9.06084e-12
8.85025e-12
-1.6113e-12
2.4684e-12
-1.35541e-11
0
1.55685e-11
5.93889e-11
-1.10403e-12
1.90606e-12
2.78584e-11
7.29719e-13
-9.34552e-13
-2.02715e-10
1.88682e-11
2.00807e-13
5.01813e-13
6.91248e-13
4.60832e-13
-8.10398e-12
3.94512e-13
4.98417e-13
-2.16472e-13
-2.79272e-12
-5.5106e-13
-8.36246e-13
-8.19394e-13
0
2.00638e-11
1.60587e-12
9.02872e-13
0
-5.03122e-12
-2.18877e-10
-3.11251e-12
-4.0145e-13
-6.02421e-13
0
-1.30569e-12
-3.54584e-12
-1.45528e-12
9.13261e-12
-6.0846e-11
2.30433e-12
4.12632e-13
3.96246e-12
-1.50618e-12
8.19394e-13
-8.19394e-13
6.47058e-11
-4.01467e-13
1.66831e-10
1.63873e-12
-3.36029e-10
-9.47354e-13
-6.717e-11
4.31559e-12
-3.99606e-11
-2.00725e-13
-1.28009e-13
-2.00974e-12
-8.56329e-11
-2.13753e-10
6.66123e-13
5.89808e-13
4.22045e-13
3.6058e-14
1.34929e-13
-4.91636e-11
-8.19394e-13
5.64796e-11
1.79656e-11
7.58412e-11
-2.4581e-12
-5.85055e-12
-1.72828e-12
-2.82335e-10
3.01088e-12
-2.8113e-12
-1.00363e-12
-2.12495e-12
-9.34464e-13
-1.45763e-12
3.76371e-11
-2.746e-12
2.91923e-12
2.8492e-11
1.39529e-13
3.1065e-13
-8.19394e-13
-8.03006e-11
1.64724e-10
-5.01833e-12
-6.01915e-13
0
-1.28021e-13
-2.30566e-11
-1.44983e-10
5.01813e-13
-8.03229e-13
1.00363e-13
-5.06915e-12
-8.29497e-12
-4.41992e-13
9.57653e-13
3.51713e-12
1.57297e-10
-1.08649e-11
1.76927e-11
-1.18612e-12
-8.19394e-13
0
3.62152e-11
1.08396e-10
-2.18696e-11
1.63873e-12
-1.15219e-13
-3.86111e-11
-1.02412e-10
-1.00363e-13
3.01211e-13
1.48537e-11
-1.16488e-12
-2.59858e-12
9.13764e-13
2.80551e-12
-9.14391e-12
2.6386e-11
4.27223e-12
6.54217e-12
-2.8084e-13
1.63879e-12
-1.06521e-11
7.02234e-13
-7.02566e-13
0
0
-2.22372e-11
-4.18628e-12
-8.75519e-11
-1.00363e-13
-2.00807e-12
1.28464e-11
-4.45471e-12
-1.76652e-12
-5.30626e-12
-7.12161e-13
9.0237e-11
2.16743e-10
-6.5315e-12
-1.53638e-13
-7.86212e-11
2.45818e-12
-8.19394e-13
1.20383e-12
-8.02933e-13
-3.00957e-13
0
-9.08948e-13
-2.56042e-12
-2.30928e-12
1.00363e-13
-4.71897e-12
6.02175e-13
-2.93729e-10
-2.54738e-12
3.57356e-13
3.04818e-11
-6.45748e-13
4.0314e-13
-1.06531e-12
-1.15229e-13
1.26457e-12
3.27758e-12
-8.19394e-12
2.1067e-12
3.19166e-11
-1.00319e-13
0
-2.52201e-12
-2.56042e-12
-8.03229e-12
1.50544e-11
-1.97293e-10
2.81015e-12
-3.39223e-12
-1.28009e-13
-3.456e-13
-3.13727e-15
5.29764e-13
2.06633e-10
6.15025e-13
-5.89469e-13
3.37322e-13
8.19394e-13
-1.77808e-10
2.00638e-13
0
2.00638e-13
-8.19366e-13
-1.47595e-10
6.91312e-13
-4.59246e-10
1.22442e-11
-3.10548e-10
1.20435e-12
2.68819e-13
-1.25589e-10
-3.75748e-11
2.70511e-12
-7.42923e-13
2.05742e-11
1.78859e-13
-1.00476e-11
-9.20341e-12
2.45818e-12
6.71903e-11
3.00957e-12
-6.97548e-11
2.08664e-11
4.67038e-11
-5.82495e-12
-1.74108e-12
-5.25111e-11
1.52551e-11
-8.23309e-12
5.01813e-12
-9.85668e-13
-1.76652e-12
-8.54989e-13
1.42566e-11
-6.28507e-13
5.69415e-13
1.52815e-12
-2.2497e-13
-5.96198e-14
-5.16218e-11
-1.80267e-10
-1.00319e-12
-1.56572e-11
-2.16689e-11
8.19366e-13
-4.18628e-12
-4.51529e-11
-2.02514e-10
3.01088e-12
-8.83551e-11
6.02175e-13
-1.15208e-13
-9.47265e-13
-1.35184e-12
4.93948e-11
-1.14746e-11
6.07361e-11
6.30714e-13
-4.85999e-14
-5.45992e-13
-2.42541e-10
-5.73576e-11
-2.6083e-12
-1.35194e-10
-4.01276e-13
-8.19366e-13
-8.69517e-11
-4.21189e-12
-1.02412e-11
1.4954e-11
-7.12865e-11
1.6058e-11
-1.76652e-12
-1.76652e-12
-2.12885e-11
-1.08487e-11
-1.70528e-12
8.29103e-11
5.99336e-13
1.33258e-14
2.35341e-13
-2.45818e-12
-1.79447e-10
2.71363e-10
-1.67612e-10
-3.10989e-12
-5.98137e-11
4.6574e-11
-4.27334e-11
-2.77716e-10
7.02538e-13
-7.02825e-12
2.20798e-12
3.45624e-13
-6.27243e-12
-2.35886e-13
5.72317e-12
-1.08555e-11
3.25649e-12
1.32717e-11
-2.61812e-13
6.00904e-13
-1.63879e-12
4.58861e-11
2.28728e-11
8.1297e-12
2.5481e-11
2.13035e-11
-3.77661e-11
-9.08948e-13
-2.00807e-12
4.0145e-13
-9.03632e-13
5.51994e-12
-9.34464e-13
-2.58578e-12
1.077e-11
5.76137e-11
-1.94351e-13
2.46276e-13
1.86704e-13
-9.82188e-13
-3.40303e-12
-9.01333e-12
-2.45818e-12
-9.71089e-11
-1.53561e-11
-1.886e-11
6.55493e-12
-3.61403e-11
-4.96721e-12
-1.21488e-11
2.00725e-13
-6.12462e-12
2.81015e-12
6.91248e-13
6.43884e-12
-8.32497e-12
1.20965e-10
9.41977e-13
6.92867e-12
2.14945e-13
4.15451e-13
-1.31775e-11
-1.86822e-10
-1.80267e-10
-4.01276e-13
-6.52383e-12
-9.02872e-13
0
-2.5535e-10
-9.2175e-13
-5.02018e-13
4.0145e-13
-3.01211e-12
2.30834e-12
2.60882e-11
-9.34464e-13
-5.84966e-11
-2.52697e-10
4.76944e-12
1.60738e-11
1.80428e-13
4.09963e-13
-6.1377e-12
0
-8.1939e-13
8.02553e-13
1.00367e-13
-5.01595e-13
0
7.68125e-13
-1.40823e-13
1.70686e-12
-1.106e-10
-1.68578e-10
4.6769e-11
-5.76667e-10
-6.58733e-11
1.16297e-12
4.25595e-11
-2.99364e-13
2.19797e-11
-8.47228e-14
-1.26109e-11
6.04042e-13
-7.45645e-11
-4.17889e-11
-5.21659e-12
2.98089e-11
8.02553e-13
4.67038e-11
-2.05857e-11
-2.05768e-10
-3.50208e-10
3.01088e-13
-1.68176e-10
2.00725e-11
-1.15208e-13
6.70766e-11
-5.44654e-12
4.07061e-13
-5.53556e-11
1.11373e-12
-2.71427e-13
-1.68187e-11
3.96942e-13
1.55684e-11
-2.45817e-12
-4.01276e-13
1.51554e-11
-3.00957e-13
-1.63873e-12
-1.15219e-13
-2.39399e-12
-5.21095e-11
1.20435e-11
-6.49611e-11
1.40508e-12
1.5105e-12
-1.76652e-12
2.36435e-12
1.14307e-11
1.74274e-10
9.88241e-13
3.34184e-13
1.84209e-13
1.34929e-13
-2.45817e-12
0
-2.70862e-12
3.58309e-11
-6.01915e-13
-8.19366e-13
7.16917e-13
8.19333e-13
-3.81534e-12
5.01813e-13
-2.20386e-10
1.20435e-12
-6.69486e-12
-1.76652e-12
-2.54851e-12
-4.46787e-11
1.12927e-11
1.83421e-11
5.16182e-13
1.82641e-13
3.34184e-13
1.63878e-12
1.46671e-10
5.01595e-13
-6.9253e-11
1.00319e-13
-8.19366e-13
1.70396e-11
-1.28021e-13
6.02421e-13
4.32563e-11
6.02421e-13
2.44885e-11
3.52024e-12
-1.36969e-12
-1.1288e-11
1.09452e-11
-4.10625e-10
-1.0353e-13
7.04455e-13
-6.64015e-12
-2.63111e-12
-2.13041e-11
8.19394e-13
3.18012e-11
-3.00096e-11
-5.97902e-11
1.5486e-10
-8.96146e-14
-4.10599e-10
-3.41372e-12
1.00363e-13
7.02826e-13
-2.1076e-12
7.04049e-13
1.98416e-12
1.31765e-10
1.76707e-11
-8.28418e-11
2.27452e-13
-6.58955e-14
-1.33257e-12
-2.36423e-11
2.45818e-12
-8.19394e-13
-9.73095e-12
-8.33036e-12
2.00639e-12
2.94966e-11
1.65144e-12
1.91994e-13
1.8675e-11
3.01084e-13
1.9069e-12
2.3375e-11
2.43218e-13
-4.10961e-11
2.26715e-11
-8.197e-11
1.42885e-12
-7.33665e-12
2.60442e-13
-2.25092e-11
2.53438e-12
-3.18744e-10
-1.63848e-12
9.7309e-12
6.0195e-13
3.4195e-11
-8.19199e-13
-1.61641e-11
1.04839e-12
-9.02717e-12
1.41368e-11
4.58856e-12
4.37707e-13
-5.56256e-10
5.24805e-12
1.34656e-13
3.0557e-14
2.07428e-12
-1.79862e-10
3.5986e-12
1.29074e-12
1.04686e-10
1.63831e-12
0
-5.0109e-13
-7.9161e-12
-2.50141e-12
4.97745e-10
3.22986e-13
-2.21138e-13
3.20053e-10
-2.06453e-12
7.95943e-13
-4.13204e-12
8.111e-11
1.64857e-11
1.2167e-12
1.5985e-12
1.07668e-13
7.83325e-13
0.174209
5.44699
2.6703
0.459701
-66.412
15.0414
-11.7365
1.27223
63.9363
2.01764
-8.11645
52.7418
6.29296
38.1345
67.1003
0.00660891
-0.232302
1.23852
0.0019935
-0.287478
0.00133944
0.000915744
0.293257
0.160877
0.000793984
1.403
-1.40387
-1.40389
0.000240335
0.00024032
-0.00024049
-0.000240478
0.00117888
0.770908
1.15808
0.0947743
0.125563
0.00305827
0.0685826
0.0305502
-7.8726e-05
-0.0109168
-0.629239
-1.50103
-0.108578
-1.60896
-0.130334
-0.0025152
-0.166628
-0.931785
-0.0804181
-0.0011628
-0.00325484
-1.68957e-09
1.68312e-08
2.47091e-07
-5.79447e-10
2.57038e-09
7.71899e-12
-2.10168e-10
8.83886e-09
1.2103e-08
1.75162e-11
9.29911e-06
-9.30429e-06