/*--------------------------------*- C++ -*----------------------------------*\
| =========                 |                                                 |
| \\      /  F ield         | OpenFOAM: The Open Source CFD Toolbox           |
|  \\    /   O peration     | Version:  v2012                                 |
|   \\  /    A nd           | Website:  www.openfoam.com                      |
|    \\/     M anipulation  |                                                 |
\*---------------------------------------------------------------------------*/
FoamFile
{
    version     2.0;
    format      ascii;
    class       volScalarField;
    location    "87.5";
    object      gradTz;
}
// * * * * * * * * * * * * * * * * * * * * * * * * * * * * * * * * * * * * * //

dimensions      [0 -1 0 1 0 0 0];


internalField   nonuniform List<scalar> 
171728
(
-38.0332
-23.9415
-23.942
-35.7949
-0.000283992
-0.000108363
-0.000108347
-7.3516e-06
-1.28856e-10
-5.03405e-12
-2.89988e-11
-4.09675e-11
4.01429e-13
-3.39866e-12
5.07077e-13
0
-7.34615e-11
-5.64189e-13
5.48341e-13
-2.29422e-11
-2.40857e-12
2.23427e-12
-2.72627e-13
1.63873e-12
-4.01429e-13
-9.55878e-13
5.39716e-13
2.70391e-11
7.18558e-11
1.86933e-12
5.45989e-13
0
5.90101e-11
-9.54555e-13
5.34129e-13
-8.19366e-13
4.01429e-13
-5.31658e-13
1.33005e-13
-8.19366e-13
-2.11553e-10
3.41536e-11
5.37363e-13
1.47486e-11
1.27253e-10
-3.722e-11
5.33443e-13
8.19366e-13
1.60572e-12
-3.91519e-11
1.34657e-12
2.62197e-11
1.47726e-10
-5.28682e-10
1.32613e-13
1.63873e-12
4.01429e-13
1.44544e-10
1.41239e-13
1.63873e-12
4.61644e-11
2.1867e-12
5.48733e-13
8.19366e-13
4.01429e-13
1.26338e-11
5.34227e-13
8.19366e-13
-4.41572e-12
-4.91434e-10
5.34227e-13
0
-4.2953e-11
-4.63248e-10
1.25556e-13
-8.19366e-13
0
-1.4238e-12
1.33706e-12
1.47486e-11
8.02866e-13
-2.13065e-13
5.42313e-13
-3.27746e-12
1.60572e-12
1.12681e-14
5.34276e-13
2.70391e-11
-8.02862e-13
1.08272e-14
9.35301e-13
1.63873e-12
1.20429e-12
3.33634e-14
5.33443e-13
1.88454e-11
4.01431e-13
1.21989e-14
5.33443e-13
2.4581e-12
0
4.12315e-13
1.19822e-13
-4.91619e-12
0
-3.89582e-13
1.30065e-12
1.63873e-12
-2.00715e-12
8.27079e-13
-4.70366e-12
1.8026e-11
0
4.77425e-13
-2.69588e-13
-4.09683e-12
-4.41574e-12
-3.5303e-12
5.30992e-13
6.55493e-12
-1.60572e-12
1.1807e-14
5.38981e-13
-4.34264e-11
0
4.11433e-13
5.33247e-13
1.8026e-11
0
1.10721e-14
9.30205e-13
1.63873e-12
4.81717e-12
-7.64565e-13
9.34566e-13
8.19366e-13
0
-3.90562e-13
9.33978e-13
8.19366e-13
0
4.13495e-11
1.31785e-12
8.19366e-13
0
1.12191e-14
1.73172e-12
2.78584e-11
-8.02862e-13
-5.17508e-11
5.30992e-13
-8.19366e-13
4.81717e-12
-3.90317e-13
1.30619e-12
-8.19366e-13
0
-3.27157e-12
5.15604e-13
-1.72067e-11
4.01431e-13
-2.6164e-12
5.41823e-13
-1.20447e-10
-3.37602e-10
-2.15417e-13
4.46798e-13
-8.19366e-13
-5.4193e-11
-2.25999e-13
8.0681e-11
-8.19366e-13
4.01429e-13
-9.82825e-13
-2.63529e-11
8.19366e-13
-5.05801e-11
-6.27781e-13
1.57064e-10
-9.83239e-12
7.62716e-11
-6.57127e-13
3.39967e-10
8.19366e-13
1.60572e-12
-2.15417e-13
5.2124e-13
0
8.02859e-13
-2.26881e-13
1.35343e-12
1.71247e-10
-6.42287e-11
-6.26997e-13
5.28542e-13
-9.83239e-12
1.60572e-12
-2.23354e-13
1.32368e-13
1.85177e-10
1.2364e-10
-2.03071e-13
1.57898e-11
-1.39292e-11
4.01429e-13
1.85483e-13
1.40251e-10
-1.39292e-11
0
5.77467e-13
1.33589e-12
-1.64693e-10
1.20429e-12
-3.39807e-13
-9.67674e-11
9.83239e-12
4.01429e-13
2.03904e-13
1.34691e-12
0
-2.26808e-10
-2.15417e-13
2.92737e-10
1.81899e-10
-1.38092e-10
-1.0178e-12
-1.07776e-10
1.63873e-12
3.57272e-11
1.76077e-13
4.96403e-12
1.67151e-10
-1.70206e-10
-3.07963e-13
2.75789e-10
-8.19366e-13
-1.87869e-10
-1.01888e-12
-2.69441e-13
0
1.93489e-10
-2.14682e-13
-1.4706e-11
1.63873e-12
8.02859e-13
-2.35847e-13
3.7671e-11
1.43389e-10
9.79488e-11
5.86481e-13
1.35519e-12
1.63873e-12
3.93401e-11
5.86432e-13
5.3506e-13
8.19366e-13
4.01429e-13
1.88618e-13
2.55754e-12
8.19366e-13
2.00715e-11
1.87933e-13
5.41137e-13
-2.04841e-11
3.01474e-10
-2.16985e-13
-3.47937e-10
-1.63873e-12
5.05801e-11
-2.15466e-13
5.35452e-13
-7.53817e-11
8.02859e-13
-6.81084e-13
-3.91308e-10
-7.37429e-12
-4.93758e-11
-2.13065e-13
4.80791e-10
6.22718e-11
-5.33901e-11
-2.44812e-13
1.65595e-13
0
1.60572e-12
1.85728e-13
-6.713e-13
1.63873e-12
3.93401e-11
-2.16936e-13
5.33051e-13
8.19366e-13
-1.60572e-12
-2.15417e-13
-1.34869e-11
-6.55493e-11
4.01429e-13
-2.16593e-13
-2.59538e-11
7.37429e-12
1.20429e-12
-3.42472e-12
1.54265e-11
-1.22905e-11
2.81001e-12
-3.45441e-13
5.35011e-13
1.63873e-12
4.81715e-12
6.4483e-13
-2.69049e-13
0
-1.686e-11
-1.37074e-10
3.03781e-12
8.19366e-13
3.03882e-10
-9.53274e-11
2.30021e-10
0
8.83145e-12
-9.17215e-11
3.48884e-10
1.63873e-12
-2.52499e-10
-6.18032e-13
-1.40156e-10
0
-2.33231e-10
-2.15466e-13
-7.96471e-11
-8.19366e-13
-2.80599e-10
4.60724e-12
4.76946e-10
8.19366e-13
-1.64586e-10
-2.22222e-12
3.33738e-10
2.13035e-11
-1.59769e-10
-6.10928e-13
-1.29898e-10
0
1.60572e-12
-9.9473e-13
2.20532e-15
0
1.65389e-10
-4.79688e-11
-4.06386e-10
0
1.64586e-10
-1.41851e-12
-4.93715e-10
0
-3.28369e-10
-1.37324e-13
1.02277e-10
0
2.12356e-10
-6.13769e-13
-2.83938e-10
0
1.20429e-12
-5.19802e-11
1.41351e-12
-1.63873e-12
0
1.89205e-13
1.92805e-10
8.43943e-11
-1.20337e-12
-2.0825e-12
5.0817e-14
1.72014e-11
1.22586e-11
-8.08609e-12
8.08669e-11
6.16089e-11
-153.54
-153.462
-153.46
-153.539
-153.458
-153.461
-393.756
-393.752
-393.768
-393.76
-153.46
-153.462
-153.54
-153.462
-153.459
-153.541
-35.7948
-9.65039e-05
-23.9436
-23.9426
-0.00283784
-0.00283774
-35.7949
-9.65163e-05
-23.9403
-23.9431
-0.00283837
-0.00283741
-23.9438
-0.0028387
-0.00283771
-35.7948
-9.64881e-05
-23.9404
-0.00283836
-0.00283825
-9.64942e-05
-7.35447e-06
7.82956e-12
-0.000108324
-0.000108319
-3.35173e-09
-3.46985e-09
-7.35716e-06
-4.40433e-13
-0.000108348
-0.000108303
-2.99514e-09
-3.14893e-09
-0.000108317
-3.4196e-09
-3.36069e-09
-7.34924e-06
-1.06225e-12
-0.000108342
-3.52939e-09
-3.35276e-09
-4.34086e-12
-4.09665e-12
2.51042e-12
-1.36384e-11
-2.23772e-12
6.7419e-13
-2.55792e-10
0
9.69262e-13
-1.87055e-11
-3.67158e-13
-2.14599e-10
-1.60393e-13
-1.77524e-10
3.40253e-12
1.41087e-12
-9.01333e-12
2.08129e-12
-2.05397e-10
-9.30695e-13
2.08475e-13
1.23325e-11
5.65343e-11
1.8035e-11
1.83304e-13
-1.02165e-10
-1.71783e-13
2.41789e-10
-4.09626e-12
3.42462e-12
-9.67592e-11
1.54756e-13
1.10046e-10
-1.54903e-13
-5.92668e-13
5.88391e-13
1.98079e-13
-8.19394e-13
-1.19628e-12
1.80574e-12
-1.33299e-13
-2.99075e-10
-7.78558e-13
1.16346e-10
-4.08308e-11
1.93354e-13
2.47403e-12
-1.40721e-12
-4.98492e-11
1.63851e-12
1.78851e-12
6.53348e-11
-2.39511e-13
-2.62463e-10
-5.64709e-13
4.20515e-12
5.55126e-13
1.40303e-12
2.2943e-11
-1.18e-11
-9.07008e-11
-1.19577e-13
5.19667e-11
-7.78958e-13
-1.54855e-10
-5.32313e-11
8.80487e-14
-5.17533e-11
-5.96927e-13
4.93094e-11
0
4.24067e-12
-2.4014e-10
-2.37796e-13
3.20296e-11
-5.63925e-13
-5.96198e-13
9.56466e-13
-2.0357e-13
-3.93309e-11
-3.76889e-13
2.16352e-12
-1.17078e-13
-3.00996e-12
8.80178e-15
-1.51577e-10
-3.72611e-10
3.05425e-14
6.6304e-14
-4.15238e-11
-7.60476e-10
0
3.39622e-12
1.34645e-10
9.65398e-13
-1.11638e-11
6.32945e-13
-1.00177e-12
5.5003e-13
-1.88665e-13
1.06521e-11
-7.75223e-12
-4.21496e-12
-1.47414e-13
1.02043e-12
-7.78157e-13
-4.13763e-10
-9.40561e-11
1.12267e-14
1.25633e-10
2.65324e-12
7.73244e-11
-5.73477e-12
3.39862e-12
-4.93011e-10
-1.0079e-12
-2.84249e-10
-1.55295e-13
2.7114e-11
5.64924e-13
1.95333e-13
4.42473e-11
1.5202e-11
1.96719e-13
6.69242e-13
-6.02697e-13
-1.59752e-12
-2.78573e-11
1.8723e-13
2.18273e-11
-2.254e-12
2.43404e-11
4.51859e-10
-4.09626e-12
-2.5434e-11
-2.85344e-10
1.52795e-13
4.60609e-10
-5.70592e-13
-5.98943e-13
5.48022e-13
2.16122e-13
-8.19394e-12
-2.24885e-11
-4.21222e-12
2.53661e-13
2.1788e-13
2.54411e-11
-8.19333e-13
-4.24185e-11
5.1105e-10
5.09018e-10
-8.90295e-14
1.21415e-12
8.19253e-13
3.32221e-12
1.58162e-10
1.56717e-13
6.51234e-13
-1.86668e-13
-5.98943e-13
2.23626e-10
-2.04355e-13
8.19394e-13
-4.29642e-11
-3.00878e-12
-4.9704e-12
-3.40967e-12
8.4257e-13
3.27733e-12
-1.74329e-10
-1.38427e-10
-8.38478e-13
-4.44754e-10
4.21836e-13
7.4552e-11
2.60617e-12
-1.47279e-11
-6.41671e-13
4.83527e-13
-9.58437e-13
-6.00512e-13
-1.73053e-10
1.91411e-13
-8.19394e-12
-1.19468e-12
2.60555e-12
-1.31486e-13
2.13569e-13
-7.80558e-13
-1.80252e-11
-1.44383e-12
4.51565e-12
-4.97402e-14
6.25874e-12
1.37214e-14
-8.19253e-13
3.42782e-12
2.53087e-10
5.55592e-13
1.98587e-10
-1.54903e-13
-5.98943e-13
1.12974e-10
1.98471e-13
0
8.63484e-12
-9.57038e-11
-1.33741e-13
2.60711e-12
-1.63073e-12
1.63866e-12
-1.45063e-12
-2.27918e-13
-3.40096e-14
-1.45192e-10
1.13613e-12
-2.45776e-12
1.34409e-13
-1.12244e-10
1.66962e-13
-1.97487e-10
-5.54121e-13
-1.98079e-13
4.94871e-12
-2.0357e-13
1.47491e-11
8.66045e-12
-6.00737e-13
-1.30751e-13
2.00638e-13
4.04082e-14
-8.19329e-13
1.05417e-12
4.91604e-12
-1.13603e-12
-3.21213e-13
7.34684e-13
1.22888e-11
-2.03337e-11
-2.73324e-10
1.53579e-13
8.69881e-13
-5.71376e-13
-1.9651e-13
2.42815e-10
9.99416e-13
-9.83273e-12
-1.34404e-11
-1.99854e-13
-1.45306e-13
-6.07905e-11
-7.78558e-13
-8.19333e-13
3.50937e-12
-2.84824e-10
-3.40291e-13
2.08171e-10
7.35076e-13
-9.83103e-12
9.68462e-13
3.14102e-12
1.62991e-13
-1.71664e-10
-1.69805e-13
-3.00844e-12
-1.81273e-10
1.00059e-12
-2.54012e-11
-6.93204e-12
4.57391e-12
-1.48051e-13
-6.01129e-13
8.60174e-13
-1.63867e-12
4.3275e-12
3.09987e-13
-4.89111e-11
-1.34e-10
-3.1907e-10
8.19253e-13
-2.93502e-12
6.57351e-11
1.68481e-13
1.27112e-12
-9.74908e-13
-3.81174e-12
1.30426e-11
-2.0357e-13
2.13042e-11
-2.16803e-11
6.02697e-13
-1.48247e-13
2.00638e-13
-7.78558e-13
-1.63867e-12
2.48841e-13
3.44596e-10
3.38807e-12
2.14372e-10
-1.83084e-13
-3.27704e-12
-3.56068e-12
7.34452e-13
1.55932e-13
5.4098e-11
-5.53729e-13
-5.99336e-13
-9.16285e-11
1.98863e-13
-8.19394e-13
3.64886e-13
2.01813e-13
-1.4413e-13
8.41526e-11
4.04082e-14
0
6.25042e-11
1.41119e-10
1.98226e-13
5.95363e-13
6.64001e-12
-5.65293e-11
-1.15689e-12
-2.10284e-10
1.53579e-13
8.69097e-13
-2.02746e-13
-5.98551e-13
5.88915e-11
1.97294e-13
0
-6.27016e-11
1.30212e-10
-1.48443e-13
2.20937e-12
4.08083e-14
-8.19333e-13
-7.1396e-12
1.40732e-12
-2.2216e-12
-1.52723e-12
7.06851e-13
-3.52284e-11
-6.85191e-11
1.93818e-12
-2.47158e-13
-1.12891e-10
-1.60001e-13
-5.94629e-13
-1.78771e-12
-2.15729e-13
1.63879e-12
1.2699e-12
1.80574e-12
-1.26095e-13
-2.01813e-13
-1.61473e-12
2.70381e-11
1.289e-12
-2.01444e-13
4.1015e-11
8.20879e-13
-7.60555e-14
8.19256e-12
4.32832e-13
-2.90155e-13
1.71227e-13
-2.61746e-13
-5.58043e-13
-5.95413e-13
3.02509e-12
-6.19732e-13
-7.37454e-12
-3.7849e-13
-1.98678e-13
-1.32907e-13
-1.1055e-10
4.12083e-14
-8.19329e-13
2.66043e-12
-1.18386e-12
3.57754e-10
-5.98444e-11
9.70977e-11
8.19265e-13
-2.70263e-12
3.00292e-13
1.6304e-13
-3.01712e-13
-5.53337e-13
2.0357e-13
1.19202e-12
-1.90626e-13
1.39297e-11
4.42505e-13
-1.87824e-12
-9.36674e-13
1.61915e-10
-8.11764e-13
-1.63867e-12
-3.0725e-12
2.15988e-10
1.43392e-10
-2.7872e-10
-1.28222e-10
3.27707e-12
-1.58293e-11
2.999e-13
1.38078e-11
-3.02104e-13
-5.57258e-13
1.74737e-11
-3.32654e-14
1.81997e-13
-8.19394e-13
4.41704e-13
1.95543e-13
-5.34815e-13
1.30415e-11
-1.59752e-12
-8.19333e-13
-2.25557e-12
-1.3671e-10
1.33653e-11
-2.85743e-10
2.2669e-10
8.19269e-13
-1.90176e-12
-1.02465e-13
1.54805e-13
-3.02104e-13
-5.56082e-13
-5.98551e-13
3.88701e-13
-3.01041e-12
8.19394e-13
5.33926e-12
-1.98286e-13
-1.35946e-13
-1.9711e-13
6.57373e-12
8.19333e-13
-6.05298e-13
6.72155e-11
-4.03447e-11
-2.7887e-10
-1.56992e-11
3.52286e-11
-1.01805e-11
2.99018e-13
-1.10931e-11
-1.10419e-12
-5.57651e-13
-7.83098e-12
7.85534e-13
2.80448e-13
0
-3.7849e-13
-1.95935e-13
-1.32025e-13
-4.21573e-12
-6.51772e-12
1.63867e-12
-6.169e-13
6.96296e-11
2.66825e-10
-2.09652e-10
-4.95184e-12
7.37342e-12
-1.98417e-12
2.99508e-13
-2.47992e-13
-7.02166e-13
-9.57261e-13
1.41182e-10
-1.31788e-14
-1.8592e-13
0
4.95317e-13
2.02205e-13
-1.32564e-13
-4.21142e-12
7.36789e-12
1.63867e-12
2.58042e-13
2.05683e-10
4.93841e-12
1.41007e-10
1.18838e-10
2.45781e-12
-3.77632e-13
-2.50872e-12
5.58337e-13
-3.05239e-13
-1.60001e-13
1.74674e-11
3.88505e-13
1.39126e-12
-4.42473e-11
6.99686e-12
-9.96524e-13
-4.78553e-11
-5.9956e-13
-8.15245e-12
8.19333e-13
2.03233e-13
3.37814e-10
2.46714e-10
5.66667e-11
1.16361e-10
5.73488e-12
-1.91728e-11
2.99165e-13
5.55151e-13
-3.0132e-13
-5.54905e-13
-1.3853e-11
1.19197e-12
-1.44791e-10
-8.19394e-13
7.81705e-12
1.00436e-12
-4.75565e-13
-1.95935e-13
6.57373e-12
8.19333e-13
2.01633e-13
-6.05467e-11
5.97565e-13
1.37031e-10
1.11871e-10
7.45534e-11
-5.03318e-11
2.98969e-13
1.53628e-13
-7.04125e-13
-5.56866e-13
-6.98571e-13
7.85926e-13
-1.9076e-11
-8.19394e-13
7.00566e-12
6.0152e-13
-2.92543e-12
9.96524e-13
6.59213e-12
-6.55467e-12
-1.43863e-12
4.04523e-10
1.3062e-10
7.65071e-11
-2.10222e-10
7.37342e-12
-4.44957e-12
2.94267e-13
-2.35786e-13
-1.10576e-12
-1.60393e-13
-2.16122e-13
-4.13833e-13
-1.78859e-12
-6.55515e-12
4.51307e-13
-1.66548e-11
-1.33152e-13
7.56387e-11
3.03513e-11
4.09667e-12
-6.149e-13
5.8169e-11
-2.61605e-10
-2.82937e-10
-3.38353e-10
1.08143e-10
-6.12131e-12
3.00145e-13
1.56374e-13
4.9998e-13
-5.59219e-13
-1.00412e-12
3.89337e-13
6.18555e-13
-5.73576e-12
1.7649e-11
-2.95313e-12
-1.33299e-13
-6.34829e-13
3.52739e-11
-1.63867e-12
-2.25477e-12
-1.06998e-11
-3.94238e-10
1.39112e-10
-3.0933e-11
-1.2289e-11
1.25971e-12
1.50361e-12
1.59119e-13
-7.04125e-13
-1.35883e-12
5.75409e-13
-1.1611e-14
-1.99648e-13
1.31103e-11
2.08889e-12
-8.69033e-11
-1.32907e-13
-1.00475e-12
8.37369e-13
3.27733e-12
-1.43263e-12
-1.42654e-10
-5.21881e-11
-2.03023e-10
9.97348e-13
8.19269e-13
2.66297e-11
2.999e-13
9.64222e-13
5.00764e-13
-5.56082e-13
4.22045e-12
-3.53166e-11
-1.26531e-11
3.27758e-12
-3.7849e-13
2.60985e-12
-1.29379e-13
1.98678e-13
8.59774e-13
1.63867e-12
-6.165e-13
-4.21996e-12
-2.00234e-13
1.41112e-10
1.36939e-12
8.19265e-13
-1.2269e-12
2.99949e-13
1.5554e-13
-1.1034e-12
-5.48239e-13
-1.98863e-13
4.21287e-11
1.98079e-13
8.19394e-13
-3.74489e-13
-5.98385e-13
-1.33201e-13
-4.61583e-12
-1.59752e-12
0
-3.0745e-12
-7.53081e-11
-6.00996e-13
1.45521e-10
1.00284e-12
1.63853e-12
4.14433e-13
2.98333e-13
-1.45584e-12
-3.02104e-13
-3.36551e-12
-7.02493e-12
-5.5798e-11
2.07492e-13
8.19394e-13
1.2507e-12
6.07006e-13
-5.34423e-13
5.9956e-13
-7.78958e-13
2.458e-12
-6.169e-13
-7.77154e-11
-2.00038e-13
-1.31836e-10
5.09259e-13
0
-4.04832e-13
-1.01681e-13
1.51373e-13
4.9998e-13
-5.58435e-13
8.63859e-12
7.90237e-13
1.86312e-13
6.55515e-12
-1.19708e-12
-2.20623e-12
-1.2585e-13
-2.02597e-13
-1.59752e-12
8.19333e-13
5.11883e-12
6.07954e-11
-5.91342e-13
2.71444e-12
6.08053e-13
0
4.50956e-12
2.9941e-13
-2.48727e-13
5.04682e-13
-9.60006e-13
-1.22448e-11
7.98468e-13
6.0012e-13
0
-3.76089e-13
-9.95349e-13
-1.32417e-13
-6.01912e-13
-3.11279e-11
8.19333e-13
-2.19996e-12
6.28005e-11
-1.92785e-13
1.4725e-10
6.00212e-13
8.19265e-13
-2.8261e-11
2.99361e-13
4.97131e-12
5.03115e-13
-9.59222e-13
-1.97294e-13
2.64411e-11
1.98079e-13
-8.19394e-13
-1.92245e-11
6.04263e-13
2.73754e-13
2.02988e-13
4.12083e-14
1.63867e-12
-1.42263e-12
6.29422e-11
1.98862e-13
-1.42366e-10
1.80064e-12
-9.83118e-12
-2.86383e-12
-2.10621e-12
5.59905e-13
1.13338e-11
-5.57258e-13
-1.40303e-12
3.89288e-13
6.15025e-13
-8.19394e-13
1.2547e-12
-1.928e-13
-1.33741e-13
2.00637e-13
8.58974e-13
8.19333e-13
-2.24757e-12
-1.06957e-11
-1.98225e-13
2.79308e-10
4.83447e-11
1.63853e-12
-1.2261e-12
-9.2032e-14
1.56374e-13
9.00434e-13
-5.42356e-13
2.03962e-13
-1.24439e-14
-5.99728e-13
4.91636e-12
1.84484e-11
-1.98678e-13
-1.25115e-13
-5.96817e-13
-1.4709e-11
3.27733e-12
1.291e-12
-3.37465e-10
3.33063e-10
-1.04287e-12
-7.43403e-11
-1.02408e-10
2.00655e-12
3.50971e-12
5.58729e-13
-8.72183e-12
-1.56079e-13
5.76586e-13
3.02691e-12
-5.80508e-13
-1.63879e-12
4.55084e-11
3.00408e-12
-1.25115e-13
-1.98679e-13
-6.53012e-12
-9.66809e-11
2.10274e-12
-2.69345e-13
-4.76671e-12
2.00023e-13
1.60737e-13
5.81675e-11
1.84189e-11
8.5621e-13
1.54364e-13
-1.97486e-13
-1.54903e-13
9.13908e-13
-1.38171e-11
1.99648e-13
8.19394e-13
-1.33988e-11
1.12075e-13
2.18335e-10
3.01075e-12
-5.07595e-11
-2.458e-12
4.64876e-13
1.97032e-13
-2.9059e-10
1.99238e-13
-2.47966e-12
0
-5.08835e-13
-3.03515e-11
1.50491e-13
1.48036e-12
2.47453e-13
-1.98471e-13
-1.5437e-11
2.01609e-13
4.09697e-12
9.44223e-12
-1.98287e-13
-1.10394e-10
6.0309e-13
2.49931e-12
-8.19333e-13
4.63275e-13
-6.05069e-13
-3.1353e-12
-2.02376e-13
-1.22827e-12
8.19256e-13
6.58225e-11
-2.6356e-13
5.63729e-13
4.16597e-11
-5.56474e-13
-5.98943e-13
1.06822e-12
2.526e-13
1.39297e-11
-1.19508e-12
2.20976e-12
-1.52118e-13
-4.1699e-12
1.06926e-11
-8.19333e-13
4.9248e-13
-2.04876e-13
-1.56434e-12
1.98062e-13
-8.96991e-13
2.29392e-11
1.95013e-12
9.36117e-11
1.54756e-13
-1.2147e-13
-5.49415e-13
-1.99648e-13
4.63159e-12
-2.02393e-13
0
6.35678e-11
-2.20584e-12
4.83634e-10
5.63119e-13
8.60574e-13
-8.19333e-13
2.10274e-12
-2.06935e-13
5.42536e-11
1.99238e-13
-8.93854e-14
-1.55659e-11
-5.42517e-12
2.98281e-12
5.977e-13
6.71609e-13
-5.5569e-13
-9.04024e-12
2.33936e-13
6.00512e-13
5.89964e-11
-3.7929e-13
-1.00593e-12
2.70454e-10
1.80574e-12
-1.59792e-12
-3.27733e-11
2.11474e-12
-2.23408e-13
-5.82092e-11
1.99238e-13
-8.719e-13
-8.19256e-11
1.12808e-12
4.91692e-12
1.73236e-13
-6.83341e-11
-1.54903e-13
2.06316e-13
2.15319e-13
8.09299e-11
2.37624e-11
1.02744e-11
-5.99171e-13
-1.73975e-11
-2.01422e-13
2.49851e-12
-1.229e-11
4.63275e-13
-6.03941e-13
5.82789e-11
-2.01984e-13
3.054e-13
1.63851e-12
-5.08435e-13
1.73746e-12
1.31079e-13
1.08539e-12
-9.56869e-13
-1.00059e-12
-2.82873e-11
1.98471e-13
-1.47491e-11
-3.74489e-13
1.40682e-12
2.63638e-11
-2.02598e-13
-1.36193e-10
-8.19333e-13
-8.54779e-12
-6.10118e-13
-4.36929e-11
1.92963e-13
6.73488e-11
0
-7.88174e-12
5.24033e-13
1.75148e-13
-2.94152e-12
-1.60393e-13
-6.20516e-13
6.17444e-13
5.01787e-12
1.14715e-11
-3.70088e-13
-1.40682e-12
-9.3981e-13
-1.1617e-10
-7.86179e-11
-1.63867e-12
3.98513e-11
-6.01931e-13
-4.16423e-11
2.04729e-13
2.5548e-10
-4.91554e-12
1.11328e-12
-3.83994e-11
1.52893e-13
-7.15459e-11
-5.49807e-13
-2.00824e-13
2.16544e-13
-1.97294e-13
-2.04848e-11
-3.8169e-13
-2.79012e-13
-2.54318e-12
-1.99071e-13
-5.3436e-11
-4.99793e-11
-3.57258e-13
-2.02229e-13
-1.25413e-10
-6.04382e-13
-5.23481e-11
7.86486e-11
2.89864e-11
8.7463e-13
5.59072e-13
-1.23821e-13
-5.20788e-13
-2.11807e-13
6.65872e-12
9.97847e-13
0
1.85716e-11
-2.03381e-13
2.76155e-13
-1.10402e-11
4.20085e-14
0
4.63275e-13
1.40418e-12
-1.12338e-10
1.99631e-13
-8.70332e-13
0
-2.0991e-11
5.2369e-13
5.55151e-13
2.6833e-12
6.32945e-13
-5.94629e-13
2.17034e-13
5.99336e-13
0
-3.78089e-13
-2.15137e-13
-2.4223e-11
1.99854e-13
-7.77357e-13
-8.19333e-13
-6.08939e-12
-2.01444e-13
8.71116e-13
1.94532e-13
7.4135e-13
8.19256e-13
1.9971e-11
-4.63607e-12
1.53579e-13
-1.63396e-13
-5.56082e-13
-1.00922e-12
2.27861e-13
2.11415e-13
0
4.16098e-13
-2.06908e-13
6.66644e-13
-5.40352e-12
-6.2231e-11
-2.458e-12
4.63275e-13
-2.04582e-13
5.38508e-11
1.98454e-13
-8.74644e-13
-1.39274e-11
-1.60747e-11
9.17634e-13
5.52062e-13
5.49317e-12
-9.70986e-13
-3.11435e-13
-1.79982e-10
-1.0002e-12
0
4.22112e-11
-7.19868e-13
8.42727e-12
-6.01915e-13
2.84057e-14
-8.19333e-13
2.10274e-12
2.0066e-13
-1.13373e-12
1.98846e-13
-7.33117e-14
-8.19256e-13
6.86367e-12
5.23348e-13
1.60638e-13
6.77878e-13
-5.67847e-13
-5.98159e-13
-9.82825e-13
1.06217e-12
1.80267e-11
-1.19748e-12
-5.87807e-13
-9.08674e-11
6.58736e-13
8.85319e-11
-2.458e-12
-3.54458e-13
2.00513e-13
1.83932e-10
2.01592e-13
-4.68881e-13
8.19256e-13
2.03214e-13
-2.784e-13
1.4255e-13
-1.16767e-13
-6.18827e-13
-6.12672e-13
2.16299e-13
-2.02001e-13
-1.06521e-11
-4.46258e-11
-1.4029e-12
3.58732e-14
-2.0103e-13
1.44469e-12
-1.63867e-12
1.28181e-12
2.61103e-12
1.3255e-10
-2.01984e-13
1.40728e-10
8.9299e-11
-3.49192e-11
3.31333e-12
3.51009e-11
-5.25062e-13
-5.75298e-13
-9.84511e-12
-1.73921e-13
1.98471e-13
9.83273e-12
-5.8393e-11
-6.04658e-13
-2.23173e-10
1.00084e-12
-1.61353e-12
0
1.28581e-12
-2.01052e-13
-1.75641e-10
2.01199e-13
-6.82152e-14
2.45777e-12
7.69333e-12
9.24099e-13
1.50001e-13
-1.24212e-13
-1.57648e-13
-5.99336e-13
-4.56956e-12
1.50591e-11
-4.75248e-11
-5.29325e-12
-9.82892e-12
-4.56903e-12
1.40408e-12
-9.81399e-13
-1.63867e-12
3.56946e-11
-1.98356e-13
5.01519e-13
-2.18456e-13
1.7738e-10
-8.19256e-13
1.94893e-12
-2.78057e-13
-2.47747e-13
-5.34779e-12
-1.55295e-13
-5.98943e-13
-1.36239e-10
1.99256e-13
-8.19394e-13
6.99886e-12
-1.00084e-12
3.70018e-10
1.40368e-12
-7.78157e-13
-1.63867e-12
-2.16099e-11
3.01186e-12
2.19813e-12
-6.18894e-13
1.59693e-10
8.19256e-13
2.65266e-11
5.20556e-13
-2.41668e-13
-9.4276e-13
6.48239e-13
-1.40224e-12
1.03642e-12
-1.42381e-13
1.06521e-11
-3.7849e-13
-2.08062e-10
-5.34472e-13
-2.0103e-13
4.04082e-14
-4.1786e-11
1.28261e-12
-3.79636e-12
-4.95967e-11
4.97233e-12
2.55208e-10
8.19256e-13
-7.88054e-12
-3.91019e-12
5.41131e-13
3.74205e-13
-5.58827e-13
6.64768e-11
2.17083e-13
-1.14505e-11
-1.63879e-12
3.64086e-13
-6.00347e-13
-1.55206e-13
1.98679e-13
-7.78958e-13
-8.19333e-13
1.28261e-12
-2.0066e-13
2.37951e-10
-6.40579e-11
-6.38988e-11
8.19256e-13
-5.70355e-11
1.48583e-10
5.58337e-13
6.90417e-13
-5.54513e-13
-6.06004e-13
6.17836e-13
-1.38565e-11
0
1.39738e-10
-1.96719e-13
2.59621e-10
1.80966e-12
-9.54193e-13
4.75213e-11
4.63275e-13
-2.14975e-13
-1.19725e-12
5.60064e-13
-6.78232e-14
-8.68412e-11
-5.24436e-13
-2.24165e-12
-2.14413e-13
1.79316e-11
-5.56474e-13
-1.14552e-11
2.14143e-13
-6.05611e-13
4.50667e-11
1.2491e-12
-6.00739e-13
2.47533e-11
-2.073e-13
-2.41689e-12
-8.19333e-13
2.10354e-12
-6.12459e-11
6.81172e-14
-2.92033e-12
7.36646e-13
2.45777e-12
-5.38509e-11
-2.79576e-13
1.46128e-13
-5.2467e-13
-5.55298e-13
-5.99728e-13
2.17867e-13
1.98471e-13
1.63879e-12
-3.77689e-13
-1.99854e-13
-9.36527e-13
2.03773e-13
8.59774e-13
-2.458e-12
-2.32974e-11
1.32728e-10
6.86562e-14
-1.31948e-10
-4.77114e-13
7.37331e-11
6.04642e-12
9.23854e-13
1.90884e-13
-1.92735e-10
-1.54119e-13
-5.98551e-13
-1.91166e-13
1.35396e-11
0
-2.86148e-12
-5.98388e-13
2.55652e-11
1.48676e-12
4.67447e-11
-3.27733e-12
2.10274e-12
-1.32449e-10
7.08615e-14
-3.37019e-12
-6.39027e-14
4.09628e-12
3.11621e-13
-7.35352e-11
5.66915e-13
-1.94743e-12
-1.48236e-13
-6.01297e-13
-1.84797e-13
2.0004e-13
0
2.08329e-12
-1.97895e-13
-1.29673e-13
2.66794e-11
-5.69395e-12
-8.19333e-13
4.64076e-13
1.81006e-12
6.82152e-14
-7.12822e-11
-4.76722e-13
0
1.12808e-12
1.02436e-10
1.55148e-13
6.77878e-13
-5.52552e-13
-6.12279e-13
2.16495e-13
1.26488e-11
-2.45818e-12
-2.81026e-12
-2.12002e-13
-4.30351e-10
9.95745e-13
-1.29419e-10
-8.19333e-13
-9.36792e-12
1.49968e-13
5.94433e-14
3.00858e-12
-6.74311e-14
1.63851e-12
1.13248e-12
-2.27755e-12
-2.56619e-13
-2.53675e-12
-1.69413e-13
-4.61504e-12
6.1666e-13
1.35078e-11
-8.19394e-13
1.2491e-12
-1.00202e-12
-1.31241e-13
-1.67212e-12
7.77993e-11
-8.19333e-13
3.57438e-11
-1.32734e-10
4.69273e-13
1.98062e-13
-5.88062e-15
8.19256e-13
8.63284e-11
1.7255e-12
1.52403e-13
2.68408e-12
-6.48631e-13
5.06768e-13
2.75334e-13
-6.51111e-14
-2.45818e-12
-5.8517e-11
1.27316e-10
-3.67769e-10
1.79477e-12
-7.78157e-13
-3.35927e-11
-5.19733e-11
-1.43962e-12
4.02528e-13
1.32286e-10
-6.54709e-14
-9.17567e-11
1.58819e-11
1.33127e-12
1.72011e-13
6.96557e-11
2.52551e-13
2.0263e-10
6.28222e-13
-2.03178e-13
-3.19564e-11
1.2591e-12
-1.00593e-12
1.55632e-10
-1.40212e-12
-8.74977e-13
5.1618e-11
4.64076e-13
2.36547e-13
4.77898e-13
2.00807e-13
-6.74311e-14
1.63851e-12
-5.08835e-13
5.66988e-13
1.13968e-11
-4.54257e-12
-5.5569e-13
5.94236e-13
2.10028e-13
-1.95333e-13
8.19394e-13
-3.7849e-13
3.85641e-12
-1.61883e-11
5.99955e-13
4.12083e-14
-8.19333e-13
1.28261e-12
2.00464e-13
6.81172e-14
-1.2672e-10
-5.48858e-14
8.19256e-13
1.83261e-11
9.20671e-13
1.87403e-13
-2.44766e-10
-1.54119e-13
-5.99728e-13
2.28645e-13
2.09454e-13
4.83442e-11
-3.74489e-13
-6.03874e-13
-2.98432e-11
2.08084e-13
1.397e-11
-1.63867e-12
1.28541e-12
-1.284e-10
7.44879e-14
-1.31927e-10
3.33235e-13
8.19256e-12
-5.07235e-13
1.58452e-10
1.53236e-13
1.57966e-10
-1.54119e-13
-1.9651e-13
-1.84993e-13
-8.05267e-11
-1.63879e-12
-3.7849e-13
-1.97503e-13
6.67428e-13
1.99854e-13
-7.81358e-13
-3.27733e-12
1.28141e-12
-2.91994e-13
6.71861e-14
2.00807e-13
-6.19425e-14
8.19256e-13
-1.44378e-11
9.22042e-13
5.75543e-13
1.48036e-12
-5.5569e-13
-2.71427e-13
2.15956e-13
1.00216e-12
8.19394e-13
1.22429e-12
-1.99071e-13
2.11274e-11
2.00246e-13
-7.78157e-13
1.63867e-12
4.63275e-13
-5.68283e-11
6.86072e-14
3.01132e-12
-9.40899e-15
8.19256e-13
8.30317e-11
5.24474e-13
-6.6621e-12
2.30008e-12
-9.57261e-13
-6.4758e-13
2.72933e-13
1.27522e-10
8.19394e-13
-1.19388e-12
-2.4296e-13
-1.73142e-13
-1.90058e-13
-7.86559e-13
-8.19333e-13
4.63275e-13
-2.01052e-13
6.73331e-14
-6.19286e-13
-7.37038e-14
2.04814e-11
3.11621e-13
-2.00897e-10
1.62991e-13
-1.09401e-11
-9.45496e-13
-2.04747e-13
-5.81092e-13
1.00216e-12
1.39297e-11
-2.69664e-13
-1.98287e-13
3.31919e-11
1.99854e-13
8.58974e-13
-8.19333e-13
4.63675e-13
-1.29923e-10
6.78232e-14
2.00415e-13
-6.46868e-14
0
-4.60512e-12
-5.80673e-11
1.53236e-13
-5.25062e-13
-5.55298e-13
-1.40969e-12
-2.12494e-10
1.79644e-13
-3.03176e-11
4.40904e-13
-6.0936e-13
6.69585e-13
6.02306e-13
1.67914e-12
-2.458e-12
-3.56058e-13
2.02131e-13
4.70058e-13
6.01637e-13
-6.78232e-14
-8.19256e-13
1.94573e-12
-1.0311e-11
-2.52256e-13
3.08572e-12
-5.56474e-13
2.02001e-13
-2.59676e-12
2.1416e-13
-8.19394e-13
-3.8089e-13
-6.02306e-13
-5.3506e-13
2.13178e-13
1.97076e-11
-8.19333e-13
4.63275e-13
-1.14462e-11
5.81201e-14
1.98062e-13
-4.71234e-13
-1.63851e-11
-1.32809e-12
5.2325e-13
1.53236e-13
-1.08464e-10
-5.46278e-13
-6.01689e-13
-1.8563e-13
1.98471e-13
-8.19394e-13
-3.77289e-13
-5.9878e-13
1.45584e-10
1.99854e-13
4.08083e-14
-8.19333e-13
-3.56458e-13
2.00709e-13
4.96912e-13
-6.03598e-13
4.10075e-13
0
1.12533e-10
-3.50645e-13
5.56327e-13
5.00306e-11
-5.68631e-13
-1.40263e-12
4.79757e-12
-2.19338e-12
1.63879e-12
7.58663e-11
-6.00347e-13
9.23785e-14
2.81756e-13
9.9016e-12
-8.19333e-13
-3.54858e-13
5.97274e-13
7.5468e-14
2.00023e-13
3.32059e-13
3.27703e-12
1.12968e-12
5.19233e-13
-2.45247e-13
5.8457e-11
2.18825e-13
-5.41677e-12
1.01624e-12
6.02866e-13
2.45818e-12
1.8142e-10
-1.00006e-12
1.60006e-10
-2.13962e-13
-1.06113e-11
-8.19333e-13
2.92008e-12
-2.01886e-13
6.88523e-14
-2.00023e-13
-6.07664e-14
8.19256e-13
-5.09635e-13
1.20588e-13
6.39122e-13
-1.93611e-11
8.78437e-14
-1.97294e-13
6.27291e-13
-2.07492e-13
1.09799e-10
-2.28027e-10
-1.96328e-13
-1.09831e-11
6.01915e-13
4.12083e-14
0
-3.54458e-13
-1.97915e-13
7.45859e-14
-2.01199e-13
7.28413e-13
1.63851e-12
1.12968e-12
2.85687e-11
1.27305e-13
6.24671e-11
-1.88236e-13
-5.98159e-13
-1.8465e-13
1.00098e-12
-1.46671e-10
-5.19499e-11
-5.99563e-13
-2.3375e-10
-2.073e-13
8.25367e-13
-8.19333e-13
-3.56058e-13
1.4054e-12
6.85092e-14
-2.02768e-13
-8.61707e-13
8.19256e-13
1.94453e-12
3.33189e-12
1.75148e-13
-2.61845e-11
-5.76866e-13
1.96118e-13
-1.36873e-12
1.98471e-13
-7.78424e-11
1.27594e-11
-6.05441e-13
1.54804e-10
-5.32161e-13
5.36108e-14
-8.19333e-13
-3.57258e-13
1.97768e-13
8.719e-13
1.99238e-13
7.3547e-13
4.09628e-12
1.12968e-12
3.14178e-11
3.24757e-13
-2.6208e-11
-9.47457e-13
1.91803e-13
5.80455e-13
-1.01001e-12
2.48276e-10
1.83987e-10
6.03874e-13
3.93676e-10
-2.17097e-13
-1.62273e-12
-8.19333e-13
-1.92047e-11
2.04533e-13
4.70499e-13
-1.99238e-13
-6.78232e-14
8.19256e-13
1.12448e-12
-1.25478e-10
-2.41717e-13
-1.79479e-10
-5.77651e-13
-5.87568e-13
2.15613e-13
2.38479e-13
3.35951e-11
-3.24421e-11
-5.95645e-13
1.78809e-11
-2.02598e-13
4.12083e-14
0
2.10194e-12
-3.4123e-12
8.74252e-13
-2.00023e-13
-8.71508e-13
1.63851e-12
-2.14895e-12
-1.9971e-12
2.50541e-13
1.13025e-10
-1.73727e-13
2.03962e-13
-2.03264e-10
-2.08277e-13
8.19394e-13
2.13883e-10
-5.99563e-13
-7.59136e-11
-2.02206e-13
4.20085e-14
-1.63867e-12
4.64076e-13
1.00183e-12
7.95452e-13
1.99631e-13
2.43458e-13
-1.08961e-10
2.8802e-13
-2.78449e-13
-6.46426e-13
-1.09632e-11
2.4706e-13
-1.39793e-12
6.48652e-13
1.37161e-10
0
1.69239e-13
-6.0505e-13
-1.42551e-10
2.03381e-13
-7.50152e-13
-8.19333e-13
2.92288e-12
-1.85756e-13
-1.3241e-10
-2.02768e-13
-9.13456e-14
1.96622e-11
2.33764e-11
-1.89395e-12
5.56229e-13
1.32163e-11
-9.59614e-13
-5.97767e-13
-1.37672e-12
1.00177e-12
-1.23728e-10
7.39851e-12
-5.95645e-13
-5.66476e-10
5.99955e-13
4.08083e-14
-2.458e-12
4.19268e-13
1.97032e-13
-5.65194e-11
5.82419e-13
-6.82152e-14
-1.12238e-10
3.10421e-13
-1.034e-10
-4.62665e-12
-1.31657e-13
2.47845e-13
-5.98159e-13
5.39576e-11
-6.04827e-13
5.16216e-11
2.47897e-12
-5.97212e-13
4.94091e-11
1.98679e-13
4.28087e-14
0
6.2691e-11
-5.99186e-13
1.51399e-10
2.00023e-13
1.32007e-10
-1.88429e-11
3.10421e-13
2.44742e-12
1.6103e-13
-5.34662e-12
2.80002e-13
2.0004e-13
4.99491e-12
-6.04827e-13
1.06521e-11
5.16908e-11
-1.87315e-13
-1.49227e-13
-6.0309e-13
4.12083e-14
0
-3.56058e-13
-2.01052e-13
-2.64863e-12
-2.02768e-13
-1.15652e-13
7.37331e-12
-2.15295e-12
-7.97287e-11
4.99511e-11
1.47762e-12
-9.58045e-13
-5.99336e-13
2.2938e-13
1.99256e-13
4.91634e-12
4.39704e-13
-2.84891e-13
1.49183e-10
1.00319e-13
1.37628e-13
-4.50633e-11
2.88446e-13
-2.21839e-13
-6.6974e-11
-1.0864e-13
1.41291e-12
2.45777e-12
-6.27609e-12
1.07364e-13
6.19906e-13
2.9897e-12
2.31964e-10
-2.92197e-10
-5.8496e-14
-5.58485e-11
9.25915e-11
-5.52531e-13
-1.71548e-10
4.26506e-13
-4.11466e-13
-1.92035e-14
-1.63864e-12
-5.64783e-13
1.32858e-14
1.82429e-12
6.92348e-13
2.79665e-10
2.45778e-12
1.37344e-12
3.23873e-10
3.18333e-13
2.78876e-13
1.00767e-10
-3.71116e-10
-4.05496e-10
6.7986e-13
0
-1.44327e-12
-1.2831e-11
-1.97907e-14
-6.76881e-13
6.15999e-14
-8.19085e-13
1.41055e-12
2.22171e-10
3.73963e-12
-5.00371e-13
3.00142e-13
-3.27608e-12
1.00386e-12
1.19096e-13
3.97227e-10
1.59035e-11
3.20203e-12
7.83667e-13
-3.45135e-11
1.23195e-10
1.63831e-12
8.51462e-13
2.38826e-11
1.90105e-12
-3.25081e-11
9.12431e-12
0
1.45572e-11
-4.85196e-12
-8.10612e-13
0
1.61743e-12
-8.24058e-11
2.50318e-13
-5.60822e-13
4.61784e-10
0
-7.27734e-12
-4551.05
-4544.24
-4550.19
-4550.19
-4447.04
-4532.16
-4301.78
-4548.04
-4447.05
-4532.16
-4548.04
-4301.78
-4441.28
-4296.42
-4296.43
-0.127853
-27.4074
-29.9402
-0.107988
-26.4469
-0.106026
-0.127856
-27.4075
-29.9405
-0.10799
-38.0335
-38.0348
-38.0339
-0.00691728
-0.00691731
-0.00691702
-0.00691711
-0.155637
-29.7094
-37.396
-1.33951
-32.9672
-0.123215
-2.51042
-26.446
-0.106024
-0.155634
-37.3972