/*--------------------------------*- C++ -*----------------------------------*\
| =========                 |                                                 |
| \\      /  F ield         | OpenFOAM: The Open Source CFD Toolbox           |
|  \\    /   O peration     | Version:  v2012                                 |
|   \\  /    A nd           | Website:  www.openfoam.com                      |
|    \\/     M anipulation  |                                                 |
\*---------------------------------------------------------------------------*/
FoamFile
{
    version     2.0;
    format      ascii;
    class       surfaceScalarField;
    location    "14";
    object      phi;
}
// * * * * * * * * * * * * * * * * * * * * * * * * * * * * * * * * * * * * * //

dimensions      [1 0 -1 0 0 0 0];
oriented        oriented;


internalField   nonuniform List<scalar> 
228225
(
-8.05939e-09
1.35016e-08
-5.34014e-09
-3.02888e-08
3.35614e-08
-1.13316e-08
-6.18406e-08
4.53833e-08
-1.38303e-08
-1.01096e-07
5.43865e-08
-1.51334e-08
-1.45867e-07
6.07104e-08
-1.59378e-08
-1.93697e-07
6.44032e-08
-1.65728e-08
-2.42598e-07
6.61682e-08
-1.72659e-08
-2.91241e-07
6.67126e-08
-1.8073e-08
-3.38835e-07
6.66514e-08
-1.90555e-08
-3.84822e-07
6.62444e-08
-2.02585e-08
-4.28627e-07
6.54672e-08
-2.16624e-08
-4.69471e-07
6.39622e-08
-2.31164e-08
-5.06343e-07
6.13485e-08
-2.44793e-08
-5.38358e-07
5.79042e-08
-2.58844e-08
-5.64769e-07
5.3826e-08
-2.74192e-08
-5.85009e-07
4.92728e-08
-2.90305e-08
-5.98639e-07
4.43569e-08
-3.07286e-08
-6.05394e-07
3.9219e-08
-3.24632e-08
-6.05186e-07
3.39905e-08
-3.41992e-08
-5.98056e-07
2.8786e-08
-3.59147e-08
-5.84178e-07
2.37044e-08
-3.75829e-08
-5.63835e-07
1.88289e-08
-3.91726e-08
-5.37403e-07
1.42188e-08
-4.06506e-08
-5.05347e-07
9.91848e-09
-4.19731e-08
-4.68192e-07
5.95187e-09
-4.31085e-08
-4.26508e-07
2.33748e-09
-4.40188e-08
-3.8094e-07
-9.00023e-10
-4.46701e-08
-3.32049e-07
-3.8727e-09
-4.50185e-08
-2.80564e-07
-6.45939e-09
-4.50238e-08
-2.27277e-07
-8.66713e-09
-4.46194e-08
-1.73113e-07
-1.04562e-08
-4.37104e-08
-1.19328e-07
-1.17152e-08
-4.20689e-08
-6.79762e-08
-1.22207e-08
-3.91321e-08
-2.30398e-08
-1.16162e-08
-3.33158e-08
-7.3606e-09
-1.56822e-08
-2.82467e-08
6.34181e-08
-2.16696e-08
-8.32489e-08
1.10214e-07
-2.16496e-08
-1.48013e-07
1.31955e-07
-2.18099e-08
-2.17219e-07
1.46436e-07
-2.28426e-08
-2.86528e-07
1.54234e-07
-2.42143e-08
-3.52555e-07
1.56272e-07
-2.5842e-08
-4.12674e-07
1.54156e-07
-2.78694e-08
-4.64962e-07
1.494e-07
-3.03979e-08
-5.08192e-07
1.43195e-07
-3.33146e-08
-5.41766e-07
1.36165e-07
-3.6346e-08
-5.65626e-07
1.28477e-07
-3.91499e-08
-5.80216e-07
1.20015e-07
-4.14624e-08
-5.86433e-07
1.10675e-07
-4.31116e-08
-5.85228e-07
1.00941e-07
-4.42395e-08
-5.77505e-07
9.10556e-08
-4.49537e-08
-5.64141e-07
8.12797e-08
-4.53707e-08
-5.46026e-07
7.17902e-08
-4.55486e-08
-5.24004e-07
6.2738e-08
-4.55404e-08
-4.9888e-07
5.42604e-08
-4.53945e-08
-4.71349e-07
4.64176e-08
-4.51615e-08
-4.41997e-07
3.92308e-08
-4.48807e-08
-4.11278e-07
3.26947e-08
-4.45832e-08
-3.79564e-07
2.6789e-08
-4.42856e-08
-3.47122e-07
2.1478e-08
-4.39996e-08
-3.14175e-07
1.67227e-08
-4.37182e-08
-2.80883e-07
1.24781e-08
-4.34329e-08
-2.47366e-07
8.70229e-09
-4.31207e-08
-2.13835e-07
5.35611e-09
-4.27598e-08
-1.80396e-07
2.40985e-09
-4.23075e-08
-1.47171e-07
-1.74184e-10
-4.17189e-08
-1.14404e-07
-2.28986e-09
-4.09322e-08
-8.22778e-08
-3.96103e-09
-3.9881e-08
-5.11851e-08
-5.02609e-09
-3.82872e-08
-2.24564e-08
-5.01353e-09
-3.53316e-08
-1.3688e-09
-2.84484e-08
-4.37734e-08
9.3288e-08
1.39023e-08
-1.10052e-07
1.58536e-07
1.79588e-08
-1.81814e-07
1.84379e-07
1.93381e-08
-2.52477e-07
1.97954e-07
1.91445e-08
-3.18384e-07
2.02538e-07
1.76023e-08
-3.77331e-07
2.00488e-07
1.47312e-08
-4.2799e-07
1.94144e-07
1.06719e-08
-4.68965e-07
1.84982e-07
5.39252e-09
-4.99193e-07
1.74233e-07
-8.08559e-10
-5.18072e-07
1.62562e-07
-7.52092e-09
-5.25827e-07
1.50434e-07
-1.42018e-08
-5.23527e-07
1.38074e-07
-2.03572e-08
-5.12907e-07
1.25659e-07
-2.56045e-08
-4.95602e-07
1.13294e-07
-2.96584e-08
-4.73285e-07
1.01202e-07
-3.24622e-08
-4.474e-07
8.97249e-08
-3.43312e-08
-4.19119e-07
7.90866e-08
-3.55769e-08
-3.89412e-07
6.94102e-08
-3.63794e-08
-3.59042e-07
6.07466e-08
-3.68561e-08
-3.28641e-07
5.31002e-08
-3.70842e-08
-2.98698e-07
4.64166e-08
-3.71288e-08
-2.69582e-07
4.06163e-08
-3.70369e-08
-2.41558e-07
3.56104e-08
-3.68445e-08
-2.14802e-07
3.12993e-08
-3.65778e-08
-1.89408e-07
2.75831e-08
-3.62562e-08
-1.65404e-07
2.43665e-08
-3.58896e-08
-1.42784e-07
2.15634e-08
-3.54837e-08
-1.2149e-07
1.90959e-08
-3.50335e-08
-1.01444e-07
1.6895e-08
-3.45301e-08
-8.25778e-08
1.4908e-08
-3.39483e-08
-6.47134e-08
1.31022e-08
-3.32561e-08
-4.77524e-08
1.14574e-08
-3.23798e-08
-3.15932e-08
9.98426e-09
-3.11711e-08
-1.60676e-08
8.69356e-09
-2.92316e-08
7.24768e-09
-2.46844e-08
-5.26599e-08
9.19886e-08
5.39605e-08
-1.03429e-07
1.49329e-07
5.9975e-08
-1.52595e-07
1.7197e-07
6.1574e-08
-2.00733e-07
1.83849e-07
6.2246e-08
-2.47238e-07
1.8786e-07
6.11811e-08
-2.91198e-07
1.86126e-07
5.83209e-08
-3.30654e-07
1.80711e-07
5.28895e-08
-3.63659e-07
1.72696e-07
4.52899e-08
-3.88203e-07
1.62991e-07
3.57866e-08
-4.0326e-07
1.52061e-07
2.5557e-08
-4.08684e-07
1.40375e-07
1.54836e-08
-4.05307e-07
1.28238e-07
6.45947e-09
-3.94417e-07
1.1598e-07
-1.21175e-09
-3.77591e-07
1.03878e-07
-7.41093e-09
-3.56495e-07
9.23232e-08
-1.22165e-08
-3.32669e-07
8.17041e-08
-1.58066e-08
-3.07231e-07
7.22675e-08
-1.86184e-08
-2.81071e-07
6.40835e-08
-2.0834e-08
-2.54874e-07
5.71288e-08
-2.25804e-08
-2.29197e-07
5.13648e-08
-2.39387e-08
-2.04498e-07
4.66897e-08
-2.49739e-08
-1.81116e-07
4.29751e-08
-2.57401e-08
-1.59305e-07
4.00762e-08
-2.62783e-08
-1.39227e-07
3.78493e-08
-2.66268e-08
-1.20973e-07
3.61433e-08
-2.68139e-08
-1.04558e-07
3.48206e-08
-2.68689e-08
-8.99224e-08
3.37393e-08
-2.68119e-08
-7.69356e-08
3.2774e-08
-2.66653e-08
-6.53884e-08
3.17945e-08
-2.64476e-08
-5.49935e-08
3.0684e-08
-2.61703e-08
-4.53688e-08
2.93098e-08
-2.58311e-08
-3.59849e-08
2.75365e-08
-2.54637e-08
-2.5977e-08
2.51853e-08
-2.52084e-08
-1.44217e-08
2.22315e-08
-2.50949e-08
1.63487e-08
-2.35215e-08
-3.22203e-08
6.66986e-08
5.75082e-08
-4.6067e-08
1.00537e-07
6.26419e-08
-5.39663e-08
1.15997e-07
6.38713e-08
-6.11033e-08
1.26613e-07
6.43706e-08
-6.96307e-08
1.32708e-07
6.3681e-08
-8.01917e-08
1.34932e-07
6.17555e-08
-9.19867e-08
1.34042e-07
5.84633e-08
-1.03716e-07
1.30654e-07
5.3771e-08
-1.13697e-07
1.2535e-07
4.7623e-08
-1.2059e-07
1.1862e-07
4.03333e-08
-1.23618e-07
1.10914e-07
3.24896e-08
-1.22854e-07
1.02619e-07
2.4855e-08
-1.1895e-07
9.40989e-08
1.79786e-08
-1.12868e-07
8.57007e-08
1.20945e-08
-1.05489e-07
7.77531e-08
7.19114e-09
-9.74689e-08
7.05354e-08
3.14871e-09
-8.9241e-08
6.42417e-08
-2.01266e-10
-8.11563e-08
5.89401e-08
-2.94379e-09
-7.3433e-08
5.46257e-08
-5.21857e-09
-6.62273e-08
5.12354e-08
-7.07708e-09
-5.96429e-08
4.86811e-08
-8.57479e-09
-5.37566e-08
4.68429e-08
-9.75616e-09
-4.86072e-08
4.55951e-08
-1.06658e-08
-4.42174e-08
4.47984e-08
-1.13416e-08
-4.0566e-08
4.43183e-08
-1.18242e-08
-3.76078e-08
4.40121e-08
-1.21505e-08
-3.52517e-08
4.37425e-08
-1.23602e-08
-3.3347e-08
4.33634e-08
-1.24928e-08
-3.17029e-08
4.27341e-08
-1.25841e-08
-3.00414e-08
4.16957e-08
-1.26747e-08
-2.80149e-08
4.00757e-08
-1.27913e-08
-2.51491e-08
3.76663e-08
-1.29952e-08
-2.06312e-08
3.42235e-08
-1.35573e-08
-1.3137e-08
2.94174e-08
-1.468e-08
1.87182e-08
-1.55063e-08
-9.14669e-09
4.06708e-08
3.51744e-08
-6.14117e-09
5.94566e-08
3.80739e-08
2.55011e-09
6.88033e-08
3.85048e-08
1.46483e-08
7.59359e-08
3.85772e-08
2.85132e-08
8.0858e-08
3.79865e-08
4.29654e-08
8.38451e-08
3.66349e-08
5.71575e-08
8.52711e-08
3.45784e-08
7.04909e-08
8.54095e-08
3.19104e-08
8.25255e-08
8.45421e-08
2.87732e-08
9.29123e-08
8.28944e-08
2.53395e-08
1.01356e-07
8.06747e-08
2.17949e-08
1.07621e-07
7.80608e-08
1.82931e-08
1.11539e-07
7.52271e-08
1.49553e-08
1.13032e-07
7.23409e-08
1.18676e-08
1.12133e-07
6.95615e-08
9.08775e-09
1.0901e-07
6.7019e-08
6.64153e-09
1.03935e-07
6.4793e-08
4.52226e-09
9.72406e-08
6.29172e-08
2.71797e-09
8.92876e-08
6.13824e-08
1.19617e-09
8.04311e-08
6.01599e-08
-6.78122e-11
7.09822e-08
5.91967e-08
-1.06664e-09
6.12435e-08
5.84397e-08
-1.8576e-09
5.1479e-08
5.78215e-08
-2.46254e-09
4.19061e-08
5.72802e-08
-2.90907e-09
3.27123e-08
5.67404e-08
-3.22796e-09
2.40453e-08
5.61308e-08
-3.4521e-09
1.60409e-08
5.53622e-08
-3.61588e-09
8.81646e-09
5.43432e-08
-3.75566e-09
2.51368e-09
5.29532e-08
-3.91514e-09
-2.70887e-09
5.10563e-08
-4.13672e-09
-6.66242e-09
4.84786e-08
-4.45256e-09
-9.09126e-09
4.5024e-08
-4.92756e-09
-9.48892e-09
4.04492e-08
-5.82809e-09
-7.09012e-09
3.43726e-08
-7.35352e-09
2.07532e-08
-9.1257e-09
2.09894e-09
2.31925e-08
1.53796e-08
9.64183e-09
3.64349e-08
1.54785e-08
2.05481e-08
4.30851e-08
1.48104e-08
3.35791e-08
4.85107e-08
1.43961e-08
4.7653e-08
5.28745e-08
1.39088e-08
6.1921e-08
5.63773e-08
1.31997e-08
7.56745e-08
5.9221e-08
1.22974e-08
8.83403e-08
6.1523e-08
1.12205e-08
9.94981e-08
6.33898e-08
9.99379e-09
1.08877e-07
6.48868e-08
8.62932e-09
1.16302e-07
6.6078e-08
7.17127e-09
1.21679e-07
6.70154e-08
5.67017e-09
1.24943e-07
6.77614e-08
4.19891e-09
1.26102e-07
6.83626e-08
2.81931e-09
1.25214e-07
6.88716e-08
1.57976e-09
1.2244e-07
6.93077e-08
4.85502e-10
1.17973e-07
6.96891e-08
-4.31477e-10
1.12065e-07
7.0012e-08
-1.18491e-09
1.0497e-07
7.02694e-08
-1.79246e-09
9.695e-08
7.04374e-08
-2.25783e-09
8.82376e-08
7.05018e-08
-2.59185e-09
7.90504e-08
7.04342e-08
-2.80993e-09
6.95848e-08
7.02177e-08
-2.92777e-09
6.00081e-08
6.98204e-08
-2.96489e-09
5.04703e-08
6.92195e-08
-2.9408e-09
4.11117e-08
6.83678e-08
-2.87836e-09
3.20513e-08
6.72211e-08
-2.8007e-09
2.34333e-08
6.56986e-08
-2.73517e-09
1.53893e-08
6.37081e-08
-2.71219e-09
8.10975e-09
6.10993e-08
-2.76308e-09
1.81221e-09
5.76859e-08
-2.90935e-09
-3.16089e-09
5.32041e-08
-3.20818e-09
-6.1279e-09
4.7326e-08
-3.90791e-09
-5.96354e-09
3.94237e-08
-5.21682e-09
2.15177e-08
-6.72767e-09
-7.38209e-10
1.59172e-08
8.01275e-09
-2.65108e-09
3.14089e-08
6.9398e-09
-3.96866e-09
3.85714e-08
5.83198e-09
-4.7013e-09
4.41235e-08
5.11909e-09
-4.89549e-09
4.85476e-08
4.52123e-09
-4.51776e-09
5.21285e-08
3.87093e-09
-3.48992e-09
5.50739e-08
3.11945e-09
-1.78156e-09
5.75407e-08
2.2733e-09
6.12961e-10
5.9644e-08
1.35069e-09
3.62108e-09
6.14803e-08
3.99269e-10
7.09275e-09
6.31204e-08
-5.14867e-10
1.08426e-08
6.46278e-08
-1.36112e-09
1.47035e-08
6.60363e-08
-2.13644e-09
1.85326e-08
6.73684e-08
-2.83517e-09
2.22343e-08
6.86325e-08
-3.46167e-09
2.57097e-08
6.98324e-08
-4.0012e-09
2.88812e-08
7.09634e-08
-4.44576e-09
3.1656e-08
7.20228e-08
-4.7845e-09
3.39426e-08
7.29938e-08
-5.01219e-09
3.56418e-08
7.38657e-08
-5.12784e-09
3.667e-08
7.46129e-08
-5.13792e-09
3.69355e-08
7.52159e-08
-5.04939e-09
3.63901e-08
7.56427e-08
-4.87858e-09
3.49887e-08
7.5862e-08
-4.63899e-09
3.27304e-08
7.58262e-08
-4.35087e-09
2.96475e-08
7.54862e-08
-4.03329e-09
2.58107e-08
7.47676e-08
-3.71066e-09
2.13337e-08
7.3581e-08
-3.40564e-09
1.63944e-08
7.17947e-08
-3.14599e-09
1.12104e-08
6.92367e-08
-2.95387e-09
6.09224e-09
6.56593e-08
-2.85554e-09
1.47778e-09
6.07326e-08
-2.91425e-09
-1.85149e-09
5.39868e-08
-3.33126e-09
-2.92471e-09
4.47728e-08
-4.27561e-09
2.39092e-08
-5.31725e-09
-3.74025e-09
1.46545e-08
5.00171e-09
-8.50177e-09
3.14041e-08
4.76744e-09
-1.33304e-08
3.90331e-08
4.36672e-09
-1.81064e-08
4.48628e-08
4.03766e-09
-2.25969e-08
4.93693e-08
3.66635e-09
-2.65582e-08
5.28967e-08
3.19466e-09
-2.98016e-08
5.56946e-08
2.62265e-09
-3.21674e-08
5.79518e-08
1.95431e-09
-3.35443e-08
5.98091e-08
1.21271e-09
-3.38741e-08
6.13758e-08
4.329e-10
-3.31714e-08
6.27402e-08
-3.20963e-10
-3.15052e-08
6.39707e-08
-1.01037e-09
-2.89736e-08
6.51193e-08
-1.61448e-09
-2.56995e-08
6.62234e-08
-2.12911e-09
-2.18319e-08
6.73111e-08
-2.54563e-09
-1.75297e-08
6.83953e-08
-2.86461e-09
-1.29713e-08
6.94822e-08
-3.07777e-09
-8.32578e-09
7.05663e-08
-3.18883e-09
-3.77326e-09
7.16369e-08
-3.19559e-09
5.24737e-10
7.26737e-08
-3.107e-09
4.40937e-09
7.36535e-08
-2.92494e-09
7.74709e-09
7.4543e-08
-2.66407e-09
1.0416e-08
7.53056e-08
-2.33232e-09
1.23366e-08
7.58927e-08
-1.95049e-09
1.34457e-08
7.62487e-08
-1.53223e-09
1.37346e-08
7.6301e-08
-1.10431e-09
1.32245e-08
7.59623e-08
-6.84133e-10
1.19906e-08
7.51174e-08
-3.01858e-10
1.01396e-08
7.36187e-08
2.56744e-11
7.8325e-09
7.12673e-08
2.7733e-10
5.26598e-09
6.7798e-08
4.28863e-10
2.71561e-09
6.285e-08
4.30604e-10
6.069e-10
5.59352e-08
1.61888e-10
-5.27542e-10
4.63912e-08
-4.85768e-10
2.47072e-08
-1.32422e-09
-4.9778e-09
1.43402e-08
5.29336e-09
-1.06456e-08
3.11656e-08
5.90412e-09
-1.64214e-08
3.87522e-08
6.05729e-09
-2.20768e-08
4.44671e-08
6.0518e-09
-2.73977e-08
4.88094e-08
5.88042e-09
-3.22053e-08
5.21282e-08
5.57499e-09
-3.63442e-08
5.46853e-08
5.14904e-09
-3.96889e-08
5.66727e-08
4.62457e-09
-4.21316e-08
5.82389e-08
4.01151e-09
-4.35999e-08
5.9495e-08
3.35062e-09
-4.40798e-08
6.05337e-08
2.68509e-09
-4.36034e-08
6.14257e-08
2.06838e-09
-4.22397e-08
6.22334e-08
1.5226e-09
-4.00858e-08
6.30014e-08
1.06849e-09
-3.72481e-08
6.37678e-08
7.04209e-10
-3.38462e-08
6.45529e-08
4.41017e-10
-3.00121e-08
6.53728e-08
2.75047e-10
-2.58899e-08
6.62279e-08
2.15689e-10
-2.16228e-08
6.71154e-08
2.56623e-10
-1.73686e-08
6.80171e-08
4.0073e-10
-1.32622e-08
6.89128e-08
6.33788e-10
-9.43927e-09
6.97662e-08
9.55202e-10
-6.01855e-09
7.0537e-08
1.34662e-09
-3.09454e-09
7.11685e-08
1.80038e-09
-7.30161e-10
7.15992e-08
2.28518e-09
1.04591e-09
7.17465e-08
2.77858e-09
2.24966e-09
7.15189e-08
3.24042e-09
2.91727e-09
7.07947e-08
3.65361e-09
3.12016e-09
6.94282e-08
3.98875e-09
2.93084e-09
6.72209e-08
4.23535e-09
2.44279e-09
6.39216e-08
4.36443e-09
1.75913e-09
5.91831e-08
4.35126e-09
1.03326e-09
5.25542e-08
4.10572e-09
4.79254e-10
4.33889e-08
3.55805e-09
2.26033e-08
2.58202e-09
-5.66728e-09
1.42114e-08
5.79644e-09
-1.15911e-08
3.01259e-08
6.96212e-09
-1.75552e-08
3.72705e-08
7.44594e-09
-2.33344e-08
4.26135e-08
7.63308e-09
-2.87267e-08
4.66082e-08
7.594e-09
-3.3574e-08
4.95885e-08
7.38566e-09
-3.77355e-08
5.18038e-08
7.04504e-09
-4.10944e-08
5.34449e-08
6.58469e-09
-4.35358e-08
5.46539e-08
6.02706e-09
-4.49843e-08
5.55474e-08
5.39695e-09
-4.54151e-08
5.62145e-08
4.74802e-09
-4.48459e-08
5.67352e-08
4.12302e-09
-4.33513e-08
5.71728e-08
3.56462e-09
-4.10215e-08
5.75848e-08
3.08778e-09
-3.79742e-08
5.80107e-08
2.71043e-09
-3.43374e-08
5.84849e-08
2.43048e-09
-3.02465e-08
5.90236e-08
2.25903e-09
-2.585e-08
5.96389e-08
2.19138e-09
-2.12942e-08
6.03248e-08
2.23515e-09
-1.67308e-08
6.1073e-08
2.38128e-09
-1.23076e-08
6.18557e-08
2.63341e-09
-8.16219e-09
6.26433e-08
2.97823e-09
-4.42421e-09
6.33847e-08
3.41368e-09
-1.19706e-09
6.40274e-08
3.9141e-09
1.44461e-09
6.44969e-08
4.4597e-09
3.46871e-09
6.47173e-08
5.0052e-09
4.88482e-09
6.45861e-08
5.51768e-09
5.73103e-09
6.39934e-08
5.95492e-09
6.06318e-09
6.27903e-08
6.30401e-09
5.94194e-09
6.08016e-08
6.54192e-09
5.41697e-09
5.7788e-08
6.65854e-09
4.53949e-09
5.34452e-08
6.6143e-09
3.38262e-09
4.73636e-08
6.34661e-09
2.02156e-09
3.89927e-08
5.76086e-09
2.00785e-08
4.54375e-09
-5.05204e-09
1.39892e-08
5.27331e-09
-1.07151e-08
2.91044e-08
6.68645e-09
-1.66025e-08
3.58357e-08
7.32047e-09
-2.23709e-08
4.07875e-08
7.59567e-09
-2.77677e-08
4.4398e-08
7.60682e-09
-3.25997e-08
4.69801e-08
7.4392e-09
-3.66963e-08
4.87799e-08
7.12298e-09
-3.99161e-08
4.9983e-08
6.68018e-09
-4.21235e-08
5.07387e-08
6.12232e-09
-4.32311e-08
5.1167e-08
5.48727e-09
-4.32043e-08
5.13697e-08
4.81915e-09
-4.20763e-08
5.1433e-08
4.17365e-09
-3.9922e-08
5.14332e-08
3.58508e-09
-3.68529e-08
5.14329e-08
3.08353e-09
-3.30077e-08
5.14862e-08
2.67844e-09
-2.8538e-08
5.16325e-08
2.38386e-09
-2.36162e-08
5.1901e-08
2.19963e-09
-1.8414e-08
5.23048e-08
2.13361e-09
-1.31197e-08
5.2847e-08
2.18105e-09
-7.90607e-09
5.35138e-08
2.347e-09
-2.95576e-09
5.42819e-08
2.62268e-09
1.57079e-09
5.51103e-08
3.00776e-09
5.5171e-09
5.59503e-08
3.48599e-09
8.76394e-09
5.67355e-08
4.04566e-09
1.12158e-08
5.7393e-08
4.65257e-09
1.28292e-08
5.78311e-08
5.27268e-09
1.36109e-08
5.79506e-08
5.85289e-09
1.36198e-08
5.76286e-08
6.35596e-09
1.29375e-08
5.67265e-08
6.74694e-09
1.16573e-08
5.50654e-08
7.01705e-09
9.86862e-09
5.24306e-08
7.14421e-09
7.67987e-09
4.85328e-08
7.10226e-09
5.22463e-09
4.3011e-08
6.80728e-09
2.69836e-09
3.53556e-08
6.1617e-09
1.80124e-08
4.76631e-09
-4.34624e-09
1.48093e-08
3.52478e-09
-1.00029e-08
2.98413e-08
4.92237e-09
-1.62179e-08
3.64597e-08
5.58914e-09
-2.24904e-08
4.12081e-08
5.85351e-09
-2.8448e-08
4.45166e-08
5.83662e-09
-3.37991e-08
4.67058e-08
5.62561e-09
-3.83072e-08
4.80302e-08
5.25794e-09
-4.17608e-08
4.86911e-08
4.74576e-09
-4.39855e-08
4.88529e-08
4.11184e-09
-4.48699e-08
4.86584e-08
3.39138e-09
-4.43711e-08
4.82291e-08
2.64274e-09
-4.25296e-08
4.76744e-08
1.91667e-09
-3.94431e-08
4.70882e-08
1.2603e-09
-3.52648e-08
4.65542e-08
6.98401e-10
-3.01715e-08
4.61401e-08
2.52131e-10
-2.43657e-08
4.59021e-08
-7.46162e-11
-1.8068e-08
4.58763e-08
-2.72324e-10
-1.1509e-08
4.60865e-08
-3.41587e-10
-4.92027e-09
4.6536e-08
-2.77406e-10
1.46215e-09
4.72146e-08
-8.40744e-11
7.4137e-09
4.80918e-08
2.39762e-10
1.27151e-08
4.91237e-08
6.84466e-10
1.71729e-08
5.02468e-08
1.24558e-09
2.06224e-08
5.13862e-08
1.90019e-09
2.29453e-08
5.24487e-08
2.62163e-09
2.4083e-08
5.3331e-08
3.36162e-09
2.40526e-08
5.39115e-08
4.07052e-09
2.29319e-08
5.40557e-08
4.69277e-09
2.08599e-08
5.36051e-08
5.19376e-09
1.79992e-08
5.23762e-08
5.55008e-09
1.45356e-08
5.01429e-08
5.75069e-09
1.06842e-08
4.66243e-08
5.7611e-09
6.72913e-09
4.14643e-08
5.50089e-09
3.04253e-09
3.419e-08
4.85138e-09
1.75751e-08
3.48002e-09
-3.58656e-09
1.71918e-08
1.20539e-09
-9.42528e-09
3.32875e-08
2.39097e-09
-1.62291e-08
4.02727e-08
2.99113e-09
-2.33123e-08
4.51187e-08
3.1734e-09
-3.01481e-08
4.82956e-08
3.05671e-09
-3.63377e-08
5.01581e-08
2.73615e-09
-4.15433e-08
5.09979e-08
2.23807e-09
-4.54823e-08
5.10505e-08
1.58058e-09
-4.79372e-08
5.0519e-08
7.87367e-10
-4.87653e-08
4.95773e-08
-8.98486e-11
-4.79254e-08
4.83842e-08
-9.94774e-10
-4.54678e-08
4.70775e-08
-1.8611e-09
-4.15182e-08
4.57836e-08
-2.64409e-09
-3.62651e-08
4.46084e-08
-3.30806e-09
-2.99341e-08
4.36453e-08
-3.83733e-09
-2.27762e-08
4.29646e-08
-4.21844e-09
-1.50716e-08
4.26208e-08
-4.44974e-09
-7.10223e-09
4.26426e-08
-4.52505e-09
8.38114e-10
4.30416e-08
-4.44651e-09
8.46139e-09
4.38027e-08
-4.21114e-09
1.54835e-08
4.48935e-08
-3.82407e-09
2.16389e-08
4.62555e-08
-3.28681e-09
2.66838e-08
4.78137e-08
-2.61252e-09
3.04193e-08
4.947e-08
-1.81778e-09
3.26941e-08
5.11119e-08
-9.39372e-10
3.34413e-08
5.26061e-08
-2.24802e-11
3.26817e-08
5.38062e-08
8.63677e-10
3.05297e-08
5.45439e-08
1.66548e-09
2.71708e-08
5.46337e-08
2.33025e-09
2.28537e-08
5.38598e-08
2.83401e-09
1.78633e-08
5.19712e-08
3.16016e-09
1.25456e-08
4.86587e-08
3.28489e-09
7.34146e-09
4.35453e-08
3.12272e-09
2.83321e-09
3.61351e-08
2.56199e-09
1.89975e-08
1.41194e-09
-3.01299e-09
2.10881e-08
-8.82044e-10
-8.88503e-09
3.91702e-08
-1.28466e-11
-1.59737e-08
4.69297e-08
4.33721e-10
-2.35006e-08
5.21633e-08
4.80919e-10
-3.08403e-08
5.54018e-08
2.3287e-10
-3.75165e-08
5.7064e-08
-2.2959e-10
-4.3129e-08
5.74905e-08
-8.8042e-10
-4.73422e-08
5.69729e-08
-1.70828e-09
-4.99003e-08
5.57578e-08
-2.67942e-09
-5.06528e-08
5.40678e-08
-3.73926e-09
-4.95542e-08
5.20983e-08
-4.8146e-09
-4.6666e-08
5.00291e-08
-5.83827e-09
-4.21449e-08
4.80152e-08
-6.75353e-09
-3.62035e-08
4.61957e-08
-7.52749e-09
-2.91035e-08
4.46828e-08
-8.1385e-09
-2.11277e-08
4.357e-08
-8.57973e-09
-1.25867e-08
4.29215e-08
-8.84442e-09
-3.78924e-09
4.27794e-08
-8.93304e-09
4.93947e-09
4.31548e-08
-8.84219e-09
1.32798e-08
4.4036e-08
-8.57433e-09
2.09225e-08
4.53803e-08
-8.12839e-09
2.75666e-08
4.71219e-08
-7.51025e-09
3.29404e-08
4.91659e-08
-6.72643e-09
3.68114e-08
5.13964e-08
-5.79835e-09
3.90147e-08
5.36704e-08
-4.7597e-09
3.94592e-08
5.58274e-08
-3.66777e-09
3.81756e-08
5.76816e-08
-2.59096e-09
3.52924e-08
5.90298e-08
-1.60281e-09
3.10434e-08
5.96416e-08
-7.58818e-10
2.57336e-08
5.92619e-08
-9.2123e-11
1.97323e-08
5.75913e-08
3.81063e-10
1.34726e-08
5.42778e-08
6.41513e-10
7.50963e-09
4.88898e-08
6.16144e-10
2.55576e-09
4.08812e-08
2.10051e-10
2.21614e-08
-6.08908e-10
-2.62522e-09
2.59093e-08
-2.19497e-09
-8.26707e-09
4.64315e-08
-1.62103e-09
-1.5191e-08
5.51886e-08
-1.33477e-09
-2.25982e-08
6.09888e-08
-1.41886e-09
-2.98535e-08
6.44436e-08
-1.78623e-09
-3.64564e-08
6.60369e-08
-2.36839e-09
-4.19909e-08
6.61729e-08
-3.14948e-09
-4.60959e-08
6.51938e-08
-4.11506e-09
-4.85081e-08
6.34003e-08
-5.23068e-09
-4.90696e-08
6.10599e-08
-6.43013e-09
-4.77512e-08
5.84146e-08
-7.63508e-09
-4.46333e-08
5.5679e-08
-8.76747e-09
-3.98887e-08
5.3044e-08
-9.77205e-09
-3.37525e-08
5.0671e-08
-1.06129e-08
-2.64901e-08
4.86962e-08
-1.1275e-08
-1.83954e-08
4.72238e-08
-1.17501e-08
-9.76767e-09
4.63314e-08
-1.20372e-08
-9.18107e-10
4.60639e-08
-1.21337e-08
7.83914e-09
4.64386e-08
-1.20406e-08
1.61908e-08
4.74396e-08
-1.17559e-08
2.38293e-08
4.90238e-08
-1.12816e-08
3.0455e-08
5.11142e-08
-1.06179e-08
3.57864e-08
5.36062e-08
-9.77241e-09
3.958e-08
5.63625e-08
-8.75984e-09
4.16468e-08
5.92187e-08
-7.61602e-09
4.18933e-08
6.19803e-08
-6.39694e-09
4.03277e-08
6.44274e-08
-5.18145e-09
3.70944e-08
6.63126e-08
-4.04944e-09
3.2443e-08
6.73621e-08
-3.06814e-09
2.67075e-08
6.72686e-08
-2.27305e-09
2.02954e-08
6.56835e-08
-1.67863e-09
1.36743e-08
6.2196e-08
-1.29925e-09
7.44727e-09
5.6315e-08
-1.19626e-09
2.35812e-09
4.74209e-08
-1.45016e-09
2.65116e-08
-1.99348e-09
-2.54634e-09
3.11212e-08
-2.66568e-09
-7.97778e-09
5.41551e-08
-2.29126e-09
-1.46256e-08
6.39619e-08
-2.12477e-09
-2.17369e-08
7.03936e-08
-2.29476e-09
-2.8697e-08
7.41355e-08
-2.73104e-09
-3.50172e-08
7.57379e-08
-3.38153e-09
-4.02739e-08
7.56628e-08
-4.23366e-09
-4.41114e-08
7.43073e-08
-5.27554e-09
-4.62646e-08
7.20212e-08
-6.46784e-09
-4.65868e-08
6.91227e-08
-7.74021e-09
-4.50645e-08
6.58957e-08
-9.00558e-09
-4.17954e-08
6.25964e-08
-1.01847e-08
-3.69744e-08
5.94445e-08
-1.12208e-08
-3.08467e-08
5.66264e-08
-1.20832e-08
-2.36827e-08
5.42894e-08
-1.27582e-08
-1.5763e-08
5.25465e-08
-1.32427e-08
-7.37224e-09
5.14759e-08
-1.35348e-08
1.20082e-09
5.11271e-08
-1.36353e-08
9.6653e-09
5.1516e-08
-1.3543e-08
1.77337e-08
5.26289e-08
-1.32581e-08
2.51203e-08
5.44186e-08
-1.27793e-08
3.15316e-08
5.68087e-08
-1.21075e-08
3.66969e-08
5.96872e-08
-1.12454e-08
4.03591e-08
6.29067e-08
-1.02064e-08
4.23187e-08
6.62792e-08
-9.02096e-09
4.24634e-08
6.95816e-08
-7.7464e-09
4.08021e-08
7.25536e-08
-6.46292e-09
3.74656e-08
7.49062e-08
-5.25876e-09
3.27164e-08
7.63164e-08
-4.20559e-09
2.6899e-08
7.64293e-08
-3.34322e-09
2.04237e-08
7.48435e-08
-2.68368e-09
1.37637e-08
7.10925e-08
-2.23816e-09
7.51216e-09
6.46219e-08
-2.05489e-09
2.39194e-09
5.47419e-08
-2.1998e-09
3.1457e-08
-2.55355e-09
-2.69122e-09
3.63242e-08
-2.50995e-09
-8.10501e-09
6.17633e-08
-2.19703e-09
-1.46476e-08
7.25826e-08
-2.07832e-09
-2.16123e-08
7.96352e-08
-2.27589e-09
-2.84221e-08
8.36756e-08
-2.73158e-09
-3.45929e-08
8.53101e-08
-3.40064e-09
-3.97074e-08
8.50522e-08
-4.27557e-09
-4.34e-08
8.33444e-08
-5.34442e-09
-4.53967e-08
8.05856e-08
-6.56794e-09
-4.55417e-08
7.71395e-08
-7.87071e-09
-4.38296e-08
7.33434e-08
-9.16215e-09
-4.03782e-08
6.9506e-08
-1.03589e-08
-3.54165e-08
6.58867e-08
-1.14047e-08
-2.92094e-08
6.26884e-08
-1.22696e-08
-2.20379e-08
6.00618e-08
-1.29435e-08
-1.41814e-08
5.81145e-08
-1.34246e-08
-5.91122e-09
5.69209e-08
-1.37148e-08
2.50801e-09
5.65221e-08
-1.38146e-08
1.08133e-08
5.69343e-08
-1.37251e-08
1.87447e-08
5.81427e-08
-1.34443e-08
2.60267e-08
6.01079e-08
-1.29711e-08
3.23808e-08
6.27572e-08
-1.23028e-08
3.7524e-08
6.59854e-08
-1.14408e-08
4.11823e-08
6.9643e-08
-1.03949e-08
4.31292e-08
7.35269e-08
-9.19532e-09
4.3234e-08
7.73757e-08
-7.8989e-09
4.1503e-08
8.08756e-08
-6.58997e-09
3.8084e-08
8.36848e-08
-5.36023e-09
3.32497e-08
8.54351e-08
-4.2857e-09
2.73624e-08
8.57244e-08
-3.40558e-09
2.08294e-08
8.41066e-08
-2.73192e-09
1.41267e-08
8.00665e-08
-2.27092e-09
7.81783e-09
7.29952e-08
-2.0644e-09
2.59174e-09
6.21356e-08
-2.16805e-09
3.65129e-08
-2.46391e-09
-2.96277e-09
4.1171e-08
-1.88428e-09
-8.43929e-09
6.87643e-08
-1.52514e-09
-1.49564e-08
8.04943e-08
-1.3936e-09
-2.18706e-08
8.81166e-08
-1.56757e-09
-2.86416e-08
9.24404e-08
-1.99524e-09
-3.48098e-08
9.41168e-08
-2.63678e-09
-3.99611e-08
9.36915e-08
-3.48838e-09
-4.37161e-08
9.16425e-08
-4.54418e-09
-4.57534e-08
8.83956e-08
-5.7708e-09
-4.58674e-08
8.43527e-08
-7.10121e-09
-4.40178e-08
7.99369e-08
-8.44253e-09
-4.03668e-08
7.55451e-08
-9.69035e-09
-3.51903e-08
7.14736e-08
-1.07625e-08
-2.88007e-08
6.79234e-08
-1.16264e-08
-2.14899e-08
6.5037e-08
-1.22844e-08
-1.35435e-08
6.29137e-08
-1.27465e-08
-5.21973e-09
6.16182e-08
-1.3021e-08
3.23328e-09
6.11846e-08
-1.31149e-08
1.15724e-08
6.16253e-08
-1.30302e-08
1.95511e-08
6.2928e-08
-1.27647e-08
2.69091e-08
6.50595e-08
-1.23109e-08
3.33732e-08
6.79563e-08
-1.16601e-08
3.8637e-08
7.15211e-08
-1.08009e-08
4.2396e-08
7.56135e-08
-9.73019e-09
4.4369e-08
8.00348e-08
-8.48001e-09
4.43905e-08
8.44883e-08
-7.13469e-09
4.2496e-08
8.85723e-08
-5.80125e-09
3.88966e-08
9.18563e-08
-4.57327e-09
3.39143e-08
9.39357e-08
-3.51705e-09
2.7919e-08
9.43837e-08
-2.66516e-09
2.13281e-08
9.27204e-08
-2.02277e-09
1.45882e-08
8.83989e-08
-1.59264e-09
8.2297e-09
8.0767e-08
-1.41265e-09
2.88434e-09
6.90138e-08
-1.53247e-09
4.12719e-08
-1.8756e-09
-3.18913e-09
4.5327e-08
-9.6778e-10
-8.63867e-09
7.4711e-08
-4.95722e-10
-1.50342e-08
8.72028e-08
-3.1302e-10
-2.17965e-08
9.53081e-08
-4.30257e-10
-2.84398e-08
9.98818e-08
-7.98468e-10
-3.45475e-08
1.01602e-07
-1.37733e-09
-3.97278e-08
1.01041e-07
-2.16863e-09
-4.36016e-08
9.86911e-08
-3.17456e-09
-4.58115e-08
9.4983e-08
-4.37806e-09
-4.60874e-08
9.03698e-08
-5.74008e-09
-4.43395e-08
8.53516e-08
-7.16285e-09
-4.06931e-08
8.03826e-08
-8.48483e-09
-3.5439e-08
7.57985e-08
-9.57783e-09
-2.89272e-08
7.18329e-08
-1.04226e-08
-2.14836e-08
6.86371e-08
-1.10431e-08
-1.33989e-08
6.62974e-08
-1.14683e-08
-4.93712e-09
6.48739e-08
-1.17174e-08
3.65012e-09
6.43979e-08
-1.18014e-08
1.21177e-08
6.48801e-08
-1.1723e-08
2.02156e-08
6.631e-08
-1.14797e-08
2.76792e-08
6.86566e-08
-1.10607e-08
3.4223e-08
7.18603e-08
-1.04465e-08
3.95146e-08
7.58355e-08
-9.60742e-09
4.32161e-08
8.04316e-08
-8.51856e-09
4.503e-08
8.5417e-08
-7.19753e-09
4.48342e-08
9.04576e-08
-5.77333e-09
4.27202e-08
9.50985e-08
-4.41077e-09
3.89506e-08
9.88329e-08
-3.20893e-09
3.38881e-08
1.01204e-07
-2.205e-09
2.79049e-08
1.01781e-07
-1.41501e-09
2.13927e-08
1.0007e-07
-8.36459e-10
1.47579e-08
9.54997e-08
-4.66761e-10
8.48056e-09
8.73897e-08
-3.44768e-10
3.12551e-09
7.48852e-08
-5.17912e-10
4.53739e-08
-9.75788e-10
-3.38512e-09
4.86974e-08
1.5109e-11
-8.75545e-09
7.94609e-08
6.1971e-10
-1.49669e-08
9.25445e-08
8.69268e-10
-2.15036e-08
1.0103e-07
8.15821e-10
-2.79388e-08
1.05803e-07
5.12492e-10
-3.38972e-08
1.07562e-07
-1.76534e-12
-3.90284e-08
1.06899e-07
-7.25135e-10
-4.29717e-08
1.04305e-07
-1.67287e-09
-4.53604e-08
1.00228e-07
-2.85427e-09
-4.59119e-08
9.51548e-08
-4.23413e-09
-4.44688e-08
8.95895e-08
-5.68098e-09
-4.10622e-08
8.39844e-08
-7.00843e-09
-3.59138e-08
7.87425e-08
-8.09343e-09
-2.93611e-08
7.41971e-08
-8.91505e-09
-2.17914e-08
7.05693e-08
-9.50328e-09
-1.35279e-08
6.79317e-08
-9.89865e-09
-4.85798e-09
6.63335e-08
-1.01285e-08
3.94557e-09
6.57995e-08
-1.02048e-08
1.26175e-08
6.6338e-08
-1.01314e-08
2.08924e-08
6.79409e-08
-9.90448e-09
2.84775e-08
7.05839e-08
-9.51231e-09
3.50468e-08
7.42182e-08
-8.92747e-09
4.02201e-08
7.87717e-08
-8.10969e-09
4.36574e-08
8.40232e-08
-7.02933e-09
4.51422e-08
8.96401e-08
-5.7072e-09
4.46436e-08
9.52194e-08
-4.26452e-09
4.23199e-08
1.00309e-07
-2.88682e-09
3.84585e-08
1.04403e-07
-1.70695e-09
3.34105e-08
1.07011e-07
-7.60976e-10
2.75457e-08
1.07685e-07
-3.87645e-11
2.12075e-08
1.05934e-07
4.75298e-10
1.47641e-08
1.01164e-07
7.7994e-10
8.63843e-09
9.2677e-08
8.37393e-10
3.34038e-09
7.95878e-08
5.95595e-10
4.8712e-08
2.17509e-12
-3.50025e-09
5.13664e-08
8.32673e-10
-8.78848e-09
8.31619e-08
1.58352e-09
-1.48292e-08
9.66944e-08
1.8945e-09
-2.11735e-08
1.05474e-07
1.89778e-09
-2.74214e-08
1.10402e-07
1.65085e-09
-3.32473e-08
1.12194e-07
1.19426e-09
-3.83263e-08
1.11453e-07
5.24063e-10
-4.23173e-08
1.08674e-07
-3.7814e-10
-4.48779e-08
1.04326e-07
-1.53701e-09
-4.56753e-08
9.88581e-08
-2.90586e-09
-4.4499e-08
9.27398e-08
-4.32696e-09
-4.13273e-08
8.6434e-08
-5.62238e-09
-3.63177e-08
8.04198e-08
-6.68639e-09
-2.97795e-08
7.51469e-08
-7.48685e-09
-2.21159e-08
7.09627e-08
-8.05724e-09
-1.36982e-08
6.79472e-08
-8.43431e-09
-4.84095e-09
6.61275e-08
-8.65132e-09
4.16042e-09
6.55212e-08
-8.72272e-09
1.30214e-08
6.61306e-08
-8.65292e-09
2.14439e-08
6.79536e-08
-8.43761e-09
2.91197e-08
7.0973e-08
-8.0624e-09
3.56674e-08
7.51621e-08
-7.49418e-09
4.06974e-08
8.04412e-08
-6.6965e-09
4.3893e-08
8.64627e-08
-5.63607e-09
4.51e-08
9.27769e-08
-4.34494e-09
4.43428e-08
9.89046e-08
-2.92813e-09
4.18322e-08
1.04384e-07
-1.56272e-09
3.78995e-08
1.08741e-07
-4.06313e-10
3.28866e-08
1.1153e-07
4.94037e-10
2.71287e-08
1.12279e-07
1.16325e-09
2.09506e-08
1.10492e-07
1.61971e-09
1.46795e-08
1.05567e-07
1.86764e-09
8.70033e-09
9.67896e-08
1.8674e-09
3.46911e-09
8.3257e-08
1.56235e-09
5.13602e-08
8.19664e-10
-3.52804e-09
5.34953e-08
1.39904e-09
-8.72395e-09
8.6114e-08
2.24416e-09
-1.46374e-08
1.00007e-07
2.60049e-09
-2.08339e-08
1.09022e-07
2.64803e-09
-2.69537e-08
1.14076e-07
2.44568e-09
-3.26929e-08
1.15899e-07
2.034e-09
-3.77398e-08
1.15096e-07
1.40446e-09
-4.17672e-08
1.12173e-07
5.27091e-10
-4.44183e-08
1.07593e-07
-6.15278e-10
-4.53384e-08
1.01735e-07
-1.95631e-09
-4.43074e-08
9.5042e-08
-3.33398e-09
-4.12879e-08
8.80018e-08
-4.5858e-09
-3.64119e-08
8.11614e-08
-5.61826e-09
-2.99461e-08
7.50811e-08
-6.39903e-09
-2.22648e-08
7.02349e-08
-6.95468e-09
-1.37714e-08
6.67734e-08
-7.31861e-09
-4.81402e-09
6.46945e-08
-7.52521e-09
4.29604e-09
6.40034e-08
-7.59278e-09
1.3258e-08
6.46965e-08
-7.52612e-09
2.17528e-08
6.67775e-08
-7.3205e-09
2.94421e-08
7.02417e-08
-6.95769e-09
3.59178e-08
7.50913e-08
-6.40342e-09
4.08066e-08
8.11757e-08
-5.62455e-09
4.3843e-08
8.80209e-08
-4.59474e-09
4.49006e-08
9.50666e-08
-3.34626e-09
4.40103e-08