/*--------------------------------*- C++ -*----------------------------------*\
| =========                 |                                                 |
| \\      /  F ield         | OpenFOAM: The Open Source CFD Toolbox           |
|  \\    /   O peration     | Version:  v2012                                 |
|   \\  /    A nd           | Website:  www.openfoam.com                      |
|    \\/     M anipulation  |                                                 |
\*---------------------------------------------------------------------------*/
FoamFile
{
    version     2.0;
    format      ascii;
    class       volVectorField;
    location    "14";
    object      U;
}
// * * * * * * * * * * * * * * * * * * * * * * * * * * * * * * * * * * * * * //

dimensions      [0 1 -1 0 0 0 0];


internalField   nonuniform List<vector> 
78750
(
(-7.10484e-06 -8.44574e-05 5.13669e-05)
(-2.78221e-05 -7.08921e-05 0.000118828)
(-7.2159e-05 -3.39105e-05 0.00017487)
(-0.000133154 1.23066e-05 0.000235812)
(-0.000204591 5.97639e-05 0.00029943)
(-0.000282788 0.000104729 0.000363395)
(-0.000364134 0.000145169 0.000424351)
(-0.000445978 0.000181027 0.000478806)
(-0.000526547 0.000212838 0.000523241)
(-0.000604891 0.000241498 0.000554655)
(-0.000680101 0.000266998 0.000570595)
(-0.000751196 0.000288273 0.000569297)
(-0.000816384 0.000303435 0.00055017)
(-0.000874236 0.000311084 0.000513461)
(-0.000923449 0.000310689 0.000460987)
(-0.000962178 0.000302591 0.000395676)
(-0.000990787 0.000287025 0.000317002)
(-0.0010079 0.000265203 0.000229087)
(-0.0010133 0.000238357 0.000135016)
(-0.00100714 0.000207841 3.73425e-05)
(-0.000989496 0.000175039 -6.10799e-05)
(-0.00096081 0.000141227 -0.000157634)
(-0.000921554 0.000107528 -0.000249712)
(-0.000872549 7.47319e-05 -0.00033459)
(-0.000814558 4.352e-05 -0.000410079)
(-0.000748517 1.43238e-05 -0.000474114)
(-0.000675427 -1.25126e-05 -0.000524721)
(-0.000596306 -3.67087e-05 -0.000560042)
(-0.000512267 -5.78719e-05 -0.000578218)
(-0.000424566 -7.5429e-05 -0.000577434)
(-0.000334261 -8.83798e-05 -0.000555758)
(-0.000242056 -9.52236e-05 -0.000511283)
(-0.00015079 -9.3604e-05 -0.000442015)
(-7.73905e-05 -8.04466e-05 -0.000346493)
(-2.50247e-05 -4.48304e-05 -0.000175558)
(-3.45174e-05 0.000469904 -0.000296753)
(-9.96189e-05 0.000878946 -0.000346152)
(-0.000185594 0.00108946 -0.000337617)
(-0.000302015 0.00123956 -0.000340228)
(-0.000421487 0.00132958 -0.000352196)
(-0.000535806 0.00136366 -0.000367382)
(-0.000641629 0.00135972 -0.000388884)
(-0.000735831 0.00133362 -0.000422197)
(-0.000815734 0.00129822 -0.000470697)
(-0.000880178 0.00125789 -0.000534879)
(-0.000929035 0.00121156 -0.000607821)
(-0.00096148 0.00115256 -0.00067309)
(-0.000977081 0.00107539 -0.000714138)
(-0.000980789 0.000988264 -0.000735568)
(-0.000973012 0.000895878 -0.000742176)
(-0.000955042 0.000801273 -0.000739055)
(-0.000928373 0.000706621 -0.000729865)
(-0.000894498 0.0006138 -0.000717173)
(-0.000854809 0.000524416 -0.000703205)
(-0.000810583 0.000439571 -0.000689704)
(-0.000762894 0.000359979 -0.000677974)
(-0.000712585 0.000286112 -0.000668638)
(-0.000660388 0.000218065 -0.000661846)
(-0.000606772 0.000155967 -0.000657366)
(-0.000552136 9.96284e-05 -0.000654401)
(-0.000496787 4.89358e-05 -0.000651886)
(-0.00044098 3.47346e-06 -0.000648597)
(-0.000384966 -3.68671e-05 -0.000642879)
(-0.000329048 -7.24796e-05 -0.000632838)
(-0.000273434 -0.000103248 -0.000615748)
(-0.000218166 -0.00012917 -0.000588526)
(-0.000162637 -0.000149136 -0.00054488)
(-0.000107217 -0.000160765 -0.000469429)
(-6.39536e-05 -0.000156744 -0.000341487)
(-3.18493e-05 -8.96335e-05 -8.44987e-05)
(-5.97919e-05 0.000911961 0.000323262)
(-0.000137358 0.00156277 0.000523984)
(-0.000235683 0.00184396 0.000625757)
(-0.000361002 0.00201997 0.000685035)
(-0.000479421 0.00210679 0.000697646)
(-0.000584324 0.00212051 0.000669824)
(-0.000676332 0.00207882 0.000601597)
(-0.000753105 0.00199975 0.00049772)
(-0.000812725 0.00189734 0.000359945)
(-0.000853822 0.00178165 0.000195299)
(-0.000875911 0.00165789 1.23692e-05)
(-0.000879862 0.00152987 -0.000173144)
(-0.000868547 0.00139994 -0.000345241)
(-0.000844817 0.00127021 -0.000482437)
(-0.000810406 0.00114174 -0.000572258)
(-0.000769698 0.00101754 -0.000622176)
(-0.0007241 0.000899406 -0.000645772)
(-0.000675199 0.000788982 -0.000652001)
(-0.000624792 0.000687813 -0.000647313)
(-0.000573823 0.000596164 -0.000635493)
(-0.00052328 0.000513863 -0.000619513)
(-0.000473848 0.00044038 -0.000601278)
(-0.000426082 0.000375233 -0.00058204)
(-0.000380289 0.000317534 -0.000562602)
(-0.000336763 0.000266612 -0.000543351)
(-0.000295539 0.000221566 -0.00052438)
(-0.000256649 0.000181868 -0.000505444)
(-0.000220022 0.000146767 -0.000486037)
(-0.000185582 0.000116002 -0.000465214)
(-0.000153203 8.92032e-05 -0.000441546)
(-0.000122604 6.66006e-05 -0.00041265)
(-9.306e-05 4.84629e-05 -0.000374306)
(-6.403e-05 3.58066e-05 -0.000318805)
(-3.99689e-05 3.02126e-05 -0.000237068)
(-2.28273e-05 3.99554e-05 -5.75607e-05)
(-7.19225e-05 0.00119441 0.000698447)
(-0.000138012 0.00199422 0.00105075)
(-0.000207562 0.002288 0.00117856)
(-0.000294377 0.00241391 0.00125814)
(-0.000375985 0.00242718 0.00130471)
(-0.000451907 0.00236519 0.00131035)
(-0.000521823 0.00226316 0.00127397)
(-0.000582622 0.00213622 0.00119217)
(-0.000631233 0.00199761 0.00106923)
(-0.000664591 0.00185178 0.000909169)
(-0.000681598 0.0017036 0.000721339)
(-0.000683224 0.00155425 0.000515523)
(-0.000670975 0.00140569 0.000308947)
(-0.00064694 0.00125848 0.000118229)
(-0.000614448 0.00111649 -3.74347e-05)
(-0.000575612 0.000984366 -0.000147368)
(-0.000534455 0.000865217 -0.000223846)
(-0.00049127 0.000759852 -0.000277113)
(-0.00044717 0.000667866 -0.000313413)
(-0.000403648 0.000589157 -0.000337252)
(-0.000361431 0.000522665 -0.00035152)
(-0.000321176 0.000467128 -0.000358626)
(-0.000283362 0.000421024 -0.000360128)
(-0.000248357 0.000383 -0.000357362)
(-0.000216337 0.000351487 -0.000351222)
(-0.000187431 0.000325255 -0.000342524)
(-0.000161552 0.000302911 -0.000331792)
(-0.000138572 0.000283447 -0.00031954)
(-0.000118208 0.000265587 -0.000306319)
(-0.000100107 0.000248515 -0.000292262)
(-8.36055e-05 0.000231266 -0.000277431)
(-6.75811e-05 0.000213152 -0.0002636)
(-5.03339e-05 0.000193266 -0.000254521)
(-3.43926e-05 0.000171053 -0.000243403)
(-2.08832e-05 0.000132249 -0.000147866)
(-4.47203e-05 0.000862999 0.000639088)
(-6.70953e-05 0.0013473 0.000928691)
(-8.196e-05 0.00156101 0.00101687)
(-9.5773e-05 0.00170185 0.00107847)
(-0.000109111 0.0017792 0.00112533)
(-0.000124902 0.00180306 0.00114996)
(-0.000144029 0.00178403 0.00115345)
(-0.000164138 0.00173101 0.00113365)
(-0.000182867 0.00165137 0.00109076)
(-0.000197215 0.00155153 0.00102382)
(-0.000205586 0.00143729 0.000936159)
(-0.000207441 0.00131445 0.000832546)
(-0.000203216 0.00118834 0.000720591)
(-0.000194475 0.00106438 0.00060738)
(-0.000182845 0.00094728 0.000501087)
(-0.000169547 0.000841046 0.000407921)
(-0.000155709 0.000748232 0.00033066)
(-0.000142012 0.000669823 0.000268755)
(-0.000128783 0.000605627 0.000220401)
(-0.000116239 0.000554794 0.000183713)
(-0.000104699 0.000516114 0.000156839)
(-9.42601e-05 0.000487969 0.00013819)
(-8.504e-05 0.000468641 0.000126176)
(-7.70788e-05 0.000456272 0.000119505)
(-7.03855e-05 0.000449057 0.000116779)
(-6.4904e-05 0.00044515 0.000116826)
(-6.05167e-05 0.00044277 0.00011824)
(-5.70635e-05 0.000440123 0.000119699)
(-5.4194e-05 0.000435575 0.000119942)
(-5.15833e-05 0.00042735 0.000117672)
(-4.87298e-05 0.000413443 0.000111215)
(-4.48288e-05 0.00039149 9.61367e-05)
(-3.79687e-05 0.000358492 6.14002e-05)
(-2.8967e-05 0.000312124 1.05531e-05)
(-1.74025e-05 0.000210879 -7.35675e-06)
(-1.46219e-05 0.00059449 0.000496913)
(-1.23484e-05 0.000877711 0.000683838)
(-4.30242e-06 0.00101275 0.000731207)
(1.30912e-05 0.00110948 0.000764444)
(3.53633e-05 0.00116951 0.000789487)
(5.94931e-05 0.00119711 0.000802317)
(8.36738e-05 0.0011984 0.000802898)
(0.000106815 0.0011781 0.000792784)
(0.000128132 0.00114157 0.000773058)
(0.00014695 0.00109311 0.000744943)
(0.000162775 0.00103688 0.000709793)
(0.000175137 0.000975827 0.000669326)
(0.00018374 0.000912787 0.000625477)
(0.000188307 0.00085022 0.000580403)
(0.000188861 0.00079081 0.000536423)
(0.000185496 0.000736756 0.000495538)
(0.000178502 0.000689746 0.000459334)
(0.00016856 0.000650292 0.000428921)
(0.00015622 0.000618569 0.000404256)
(0.000142041 0.000594059 0.000384936)
(0.00012664 0.000576002 0.000370565)
(0.000110508 0.000563352 0.00036039)
(9.41299e-05 0.000555026 0.000353785)
(7.79032e-05 0.000549778 0.000349797)
(6.21648e-05 0.000546409 0.000347618)
(4.71919e-05 0.000543583 0.000346141)
(3.32123e-05 0.000540019 0.000344368)
(2.04434e-05 0.000534255 0.000340919)
(9.09593e-06 0.000524788 0.00033426)
(-6.07939e-07 0.000509836 0.000322646)
(-8.40626e-06 0.000487554 0.000304351)
(-1.393e-05 0.000455657 0.000274568)
(-1.59545e-05 0.000411633 0.000222584)
(-1.43687e-05 0.000351622 0.000149912)
(-8.68184e-06 0.000217873 8.07331e-05)
(5.12614e-07 0.000304013 0.000365147)
(1.09803e-05 0.000444679 0.000443701)
(2.35308e-05 0.000519217 0.000441712)
(4.41592e-05 0.000581099 0.000439767)
(6.74944e-05 0.000630194 0.000440512)
(9.15632e-05 0.000668499 0.000438781)
(0.000115151 0.000698328 0.000433638)
(0.000137356 0.000721132 0.000425567)
(0.000157341 0.000737906 0.000414553)
(0.000174574 0.000749421 0.000400442)
(0.000188652 0.000756147 0.000383201)
(0.000199361 0.000759001 0.000363236)
(0.000206602 0.000758937 0.000341244)
(0.000210339 0.00075723 0.00031867)
(0.000210571 0.000754746 0.000296949)
(0.000207486 0.000752217 0.000277457)
(0.000201346 0.000749761 0.000260806)
(0.000192609 0.000747578 0.000247236)
(0.000181649 0.000745278 0.000236911)
(0.000168942 0.000742721 0.000229797)
(0.000154881 0.00073949 0.000225377)
(0.000139861 0.000735438 0.00022336)
(0.000124216 0.00073014 0.000223101)
(0.000108253 0.000723463 0.000224201)
(9.22368e-05 0.00071492 0.000225914)
(7.64024e-05 0.000704258 0.000227736)
(6.09711e-05 0.000690765 0.00022875)
(4.61434e-05 0.000673863 0.000228195)
(3.21802e-05 0.00065236 0.000224768)
(1.9293e-05 0.000625011 0.000217471)
(7.79581e-06 0.000589776 0.00020471)
(-1.9621e-06 0.000544571 0.000182408)
(-8.47604e-06 0.000486523 0.000140428)
(-1.04807e-05 0.000409685 8.05593e-05)
(-7.52671e-06 0.000234667 3.20682e-05)
(-3.23343e-06 0.000208292 0.000290028)
(-2.18667e-06 0.00036498 0.000302739)
(-5.45352e-06 0.000439385 0.000272959)
(-7.48638e-06 0.000498783 0.000246003)
(-8.31509e-06 0.000547258 0.000226256)
(-8.13252e-06 0.000587233 0.000207625)
(-6.97351e-06 0.000620972 0.000187372)
(-4.72871e-06 0.000649667 0.000164782)
(-1.3109e-06 0.000674702 0.000140756)
(3.1896e-06 0.000696741 0.000116623)
(8.62545e-06 0.00071673 9.41953e-05)
(1.47427e-05 0.000734974 7.40268e-05)
(2.12508e-05 0.000751965 5.61641e-05)
(2.77614e-05 0.000767452 3.99799e-05)
(3.41105e-05 0.000781739 2.52874e-05)
(4.01501e-05 0.000794495 1.218e-05)
(4.57562e-05 0.000805989 1.19868e-06)
(5.07398e-05 0.000815933 -7.48926e-06)
(5.50305e-05 0.000824527 -1.33026e-05)
(5.83945e-05 0.000831384 -1.63488e-05)
(6.07174e-05 0.000836601 -1.64562e-05)
(6.18389e-05 0.000839682 -1.4016e-05)
(6.16303e-05 0.000840682 -9.20555e-06)
(6.00072e-05 0.000839 -2.67186e-06)
(5.6952e-05 0.000834608 5.25719e-06)
(5.24656e-05 0.000826702 1.37205e-05)
(4.66498e-05 0.000815005 2.21908e-05)
(3.9641e-05 0.000798283 2.95876e-05)
(3.16986e-05 0.000775663 3.51962e-05)
(2.31187e-05 0.000745021 3.77564e-05)
(1.43201e-05 0.000704244 3.59853e-05)
(5.88746e-06 0.000649523 2.59168e-05)
(-8.79653e-07 0.000576353 8.2648e-07)
(-4.12634e-06 0.000477784 -3.70867e-05)
(-4.41494e-06 0.000256751 -5.60208e-05)
(-6.25296e-06 0.000167485 0.000173367)
(-1.04142e-05 0.00034946 0.000194343)
(-1.76383e-05 0.000433017 0.000186478)
(-2.61807e-05 0.000497732 0.000174969)
(-3.42022e-05 0.000548118 0.000162218)
(-4.13404e-05 0.000588133 0.000146749)
(-4.74143e-05 0.00062014 0.000127707)
(-5.21375e-05 0.000646472 0.000105374)
(-5.53251e-05 0.000668324 8.04164e-05)
(-5.67795e-05 0.000687205 5.46691e-05)
(-5.648e-05 0.000703747 2.99954e-05)
(-5.44471e-05 0.000719036 7.99008e-06)
(-5.08727e-05 0.000733292 -1.09073e-05)
(-4.59381e-05 0.000747253 -2.65656e-05)
(-3.99051e-05 0.000760816 -3.92622e-05)
(-3.30027e-05 0.000774423 -4.88485e-05)
(-2.55343e-05 0.000787715 -5.54795e-05)
(-1.7744e-05 0.000800946 -5.89625e-05)
(-9.99599e-06 0.000813557 -5.96147e-05)
(-2.52713e-06 0.000825695 -5.73392e-05)
(4.37653e-06 0.000836685 -5.25201e-05)
(1.04472e-05 0.000846592 -4.5226e-05)
(1.55172e-05 0.00085464 -3.60469e-05)
(1.93909e-05 0.000860755 -2.5248e-05)
(2.19389e-05 0.000863915 -1.36271e-05)
(2.31029e-05 0.000863821 -1.65237e-06)
(2.2896e-05 0.000859093 9.71973e-06)
(2.13909e-05 0.000848965 1.99149e-05)
(1.87548e-05 0.000831361 2.78816e-05)
(1.51973e-05 0.000804564 3.29616e-05)
(1.10021e-05 0.000765148 3.37848e-05)
(6.51693e-06 0.000709538 2.80901e-05)
(2.42121e-06 0.000631742 1.12742e-05)
(1.10613e-07 0.000524586 -1.49776e-05)
(-1.1882e-06 0.0002805 -3.49811e-05)
(-7.39259e-06 0.000164475 0.000122223)
(-1.36798e-05 0.000355049 0.000164418)
(-2.18301e-05 0.000441519 0.000177084)
(-3.20177e-05 0.000507091 0.000180293)
(-4.15143e-05 0.000557374 0.000176646)
(-5.00691e-05 0.000596099 0.000167376)
(-5.75711e-05 0.000626484 0.000153476)
(-6.38576e-05 0.000650415 0.000135427)
(-6.87323e-05 0.00066985 0.000114171)
(-7.20373e-05 0.000685728 9.10376e-05)
(-7.36819e-05 0.000699397 6.81396e-05)
(-7.36715e-05 0.000711322 4.70626e-05)
(-7.20729e-05 0.000722461 2.88863e-05)
(-6.90601e-05 0.000732939 1.3752e-05)
(-6.48301e-05 0.00074349 1.83114e-06)
(-5.95601e-05 0.00075395 -7.02393e-06)
(-5.34527e-05 0.000764816 -1.26412e-05)
(-4.674e-05 0.000775698 -1.51932e-05)
(-3.96664e-05 0.000786913 -1.45555e-05)
(-3.24826e-05 0.000797861 -1.09932e-05)
(-2.54385e-05 0.000808705 -4.48582e-06)
(-1.87453e-05 0.000818643 4.55701e-06)
(-1.26371e-05 0.000827634 1.60315e-05)
(-7.29399e-06 0.000834654 2.92685e-05)
(-2.86637e-06 0.000839469 4.37097e-05)
(5.8343e-07 0.000840744 5.81373e-05)
(3.05032e-06 0.000837906 7.16153e-05)
(4.58641e-06 0.000829148 8.29963e-05)
(5.27179e-06 0.000813251 9.17044e-05)
(5.24179e-06 0.000787483 9.68292e-05)
(4.61912e-06 0.000749352 9.75787e-05)
(3.53295e-06 0.000694369 9.20126e-05)
(2.1518e-06 0.000617605 7.72385e-05)
(1.1763e-06 0.000511234 5.30144e-05)
(5.76275e-07 0.000269957 1.70199e-05)
(-8.05925e-06 0.00016014 9.11243e-05)
(-1.50937e-05 0.000343968 0.000148445)
(-2.35397e-05 0.000426651 0.000173273)
(-3.40222e-05 0.000488845 0.000185696)
(-4.36877e-05 0.000535648 0.00018806)
(-5.23345e-05 0.000571136 0.000183223)
(-5.98859e-05 0.00059794 0.000172675)
(-6.6211e-05 0.000618463 0.000157352)
(-7.10859e-05 0.000634063 0.000137968)
(-7.43736e-05 0.000646282 0.000115955)
(-7.59527e-05 0.00065584 9.31558e-05)
(-7.58383e-05 0.000663857 7.1559e-05)
(-7.40701e-05 0.000670758 5.23879e-05)
(-7.08123e-05 0.000677422 3.63457e-05)
(-6.62365e-05 0.000683971 2.35437e-05)
(-6.05926e-05 0.000691029 1.40912e-05)
(-5.40682e-05 0.000698456 7.94195e-06)
(-4.69192e-05 0.000706648 5.20588e-06)
(-3.93696e-05 0.000715226 5.79214e-06)
(-3.16892e-05 0.000724386 9.75146e-06)
(-2.41003e-05 0.000733514 1.69167e-05)
(-1.68713e-05 0.000742601 2.72728e-05)
(-1.02249e-05 0.000750778 4.05144e-05)
(-4.37986e-06 0.000757799 5.62456e-05)
(5.37179e-07 0.000762527 7.34415e-05)
(4.427e-06 0.000764458 9.0837e-05)
(7.28616e-06 0.000762122 0.000106771)
(9.14836e-06 0.000754612 0.000120023)
(1.01025e-05 0.000739895 0.000129627)
(1.02494e-05 0.000716268 0.000135082)
(9.67798e-06 0.000680612 0.000135446)
(8.39598e-06 0.000629659 0.000129196)
(6.41401e-06 0.000558257 0.000113367)
(4.47324e-06 0.000460126 8.68847e-05)
(2.82147e-06 0.000238106 3.70472e-05)
(-7.09152e-06 0.000156264 6.08233e-05)
(-1.37013e-05 0.000328584 0.000121888)
(-2.20217e-05 0.000405706 0.000151857)
(-3.24063e-05 0.000462916 0.000168404)
(-4.20901e-05 0.000505389 0.000173607)
(-5.07307e-05 0.000536511 0.000170781)
(-5.82506e-05 0.000559225 0.000161797)
(-6.44064e-05 0.000575389 0.00014744)
(-6.8986e-05 0.00058682 0.000128532)
(-7.17729e-05 0.000594584 0.000106378)
(-7.26898e-05 0.000599953 8.30173e-05)
(-7.17044e-05 0.000603595 6.04115e-05)
(-6.89315e-05 0.000606494 4.013e-05)
(-6.45024e-05 0.000609054 2.29691e-05)
(-5.86602e-05 0.000612027 9.35079e-06)
(-5.16246e-05 0.000615564 -6.62237e-07)
(-4.3702e-05 0.000620174 -6.9986e-06)
(-3.51532e-05 0.000625737 -9.70762e-06)
(-2.63062e-05 0.0006325 -8.73702e-06)
(-1.74342e-05 0.000640076 -4.11242e-06)
(-8.86875e-06 0.00064845 4.21404e-06)
(-8.72791e-07 0.000656962 1.61534e-05)
(6.25768e-06 0.000665342 3.15438e-05)
(1.2313e-05 0.00067267 4.98264e-05)
(1.7089e-05 0.000678422 7.00338e-05)
(2.04917e-05 0.000681409 9.05808e-05)
(2.24765e-05 0.00068081 0.000109652)
(2.31099e-05 0.000675078 0.000125496)
(2.25046e-05 0.000662913 0.000137023)
(2.082e-05 0.000642103 0.000143552)
(1.82004e-05 0.000610422 0.000144365)
(1.46918e-05 0.000564338 0.000137749)
(1.04202e-05 0.000499854 0.000120574)
(6.66038e-06 0.000410899 9.13594e-05)
(3.78772e-06 0.000210083 3.51213e-05)
(-5.89678e-06 0.00015649 2.11311e-05)
(-1.23996e-05 0.000321905 7.48288e-05)
(-2.10698e-05 0.000395193 0.000104523)
(-3.21494e-05 0.000448634 0.000121132)
(-4.27525e-05 0.000486839 0.000125767)
(-5.23452e-05 0.000513417 0.000122018)
(-6.06767e-05 0.000530921 0.000111622)
(-6.74004e-05 0.000541641 9.53981e-05)
(-7.21862e-05 0.000547103 7.40641e-05)
(-7.4808e-05 0.000548921 4.91697e-05)
(-7.5131e-05 0.000548099 2.28643e-05)
(-7.31554e-05 0.000545894 -2.60002e-06)
(-6.89867e-05 0.000543027 -2.5564e-05)
(-6.2846e-05 0.000540494 -4.49423e-05)
(-5.50123e-05 0.000538753 -6.02822e-05)
(-4.58104e-05 0.000538522 -7.14016e-05)
(-3.55914e-05 0.000539946 -7.83139e-05)
(-2.47487e-05 0.00054343 -8.09811e-05)
(-1.36537e-05 0.000548798 -7.94331e-05)
(-2.71652e-06 0.000556129 -7.35926e-05)
(7.69287e-06 0.000564923 -6.34499e-05)
(1.71802e-05 0.000574929 -4.89764e-05)
(2.54139e-05 0.000585329 -3.03996e-05)
(3.20701e-05 0.00059556 -8.25703e-06)
(3.69264e-05 0.000604515 1.62959e-05)
(3.98194e-05 0.000611335 4.1538e-05)
(4.07348e-05 0.000614624 6.52989e-05)
(3.97351e-05 0.000613179 8.55386e-05)
(3.70115e-05 0.000605205 0.000100773)
(3.28047e-05 0.000588915 0.000110268)
(2.74109e-05 0.000561736 0.000113313)
(2.10195e-05 0.000520733 0.000108324)
(1.40078e-05 0.000461838 9.203e-05)
(8.29337e-06 0.000379853 6.34808e-05)
(4.09176e-06 0.000193555 1.19435e-05)
(-4.56042e-06 0.000174 -2.00142e-05)
(-1.12522e-05 0.000344657 1.92716e-05)
(-2.05271e-05 0.000419287 4.4822e-05)
(-3.27841e-05 0.00047192 5.82736e-05)
(-4.48581e-05 0.000507612 5.97051e-05)
(-5.59438e-05 0.000529916 5.24075e-05)
(-6.5601e-05 0.000541966 3.79373e-05)
(-7.33231e-05 0.000545969 1.69141e-05)
(-7.87203e-05 0.000544081 -9.66028e-06)
(-8.14867e-05 0.000537877 -3.99971e-05)
(-8.14768e-05 0.000529066 -7.1615e-05)
(-7.86875e-05 0.00051884 -0.000102072)
(-7.32727e-05 0.000508578 -0.000129409)
(-6.54945e-05 0.000499157 -0.000152452)
(-5.57088e-05 0.000491631 -0.000170591)
(-4.43241e-05 0.000486534 -0.00018365)
(-3.17806e-05 0.000484534 -0.000191604)
(-1.85565e-05 0.000485753 -0.000194486)
(-5.13611e-06 0.000490442 -0.00019227)
(7.9942e-06 0.000498297 -0.000184931)
(2.03512e-05 0.00050913 -0.000172386)
(3.14717e-05 0.000522216 -0.000154642)
(4.0922e-05 0.000536951 -0.000131871)
(4.83272e-05 0.000552226 -0.000104703)
(5.33875e-05 0.000567059 -7.43791e-05)
(5.59216e-05 0.000580007 -4.28897e-05)
(5.58933e-05 0.000589743 -1.26978e-05)
(5.34171e-05 0.000594466 1.37325e-05)
(4.87389e-05 0.000592426 3.45878e-05)
(4.22032e-05 0.000581306 4.89487e-05)
(3.42476e-05 0.000558625 5.62668e-05)
(2.52671e-05 0.000521038 5.51794e-05)
(1.59213e-05 0.000464662 4.2721e-05)
(8.70962e-06 0.0003841 1.88189e-05)
(3.5513e-06 0.000199062 -1.94971e-05)
(-3.46631e-06 0.000210605 -5.06892e-05)
(-1.03646e-05 0.000399472 -2.80325e-05)
(-1.98292e-05 0.000480878 -9.49793e-06)
(-3.26914e-05 0.00053651 -1.46623e-06)
(-4.55922e-05 0.000571772 -4.83026e-06)
(-5.75569e-05 0.000591043 -1.6829e-05)
(-6.79737e-05 0.000597712 -3.62859e-05)
(-7.6281e-05 0.000594834 -6.28094e-05)
(-8.19939e-05 0.000584795 -9.53636e-05)
(-8.4788e-05 0.000569904 -0.000131802)
(-8.44937e-05 0.000552005 -0.000169285)
(-8.11212e-05 0.000532986 -0.000205004)
(-7.48557e-05 0.000514292 -0.000236794)
(-6.60134e-05 0.000497417 -0.000263356)
(-5.49983e-05 0.00048339 -0.000284115)
(-4.22697e-05 0.000473254 -0.000298946)
(-2.83362e-05 0.000467559 -0.000307892)
(-1.37077e-05 0.000466824 -0.000311032)
(1.07636e-06 0.000471059 -0.000308376)
(1.54768e-05 0.000480231 -0.000299871)
(2.89646e-05 0.000493798 -0.000285401)
(4.10252e-05 0.000511179 -0.000264888)
(5.11722e-05 0.000531306 -0.000238429)
(5.89773e-05 0.000553089 -0.000206599)
(6.41e-05 0.000574994 -0.000170711)
(6.63248e-05 0.000595487 -0.000132965)
(6.56009e-05 0.00061262 -9.61967e-05)
(6.20704e-05 0.000624435 -6.32768e-05)
(5.60218e-05 0.000628533 -3.63624e-05)
(4.78958e-05 0.000622408 -1.65349e-05)
(3.82123e-05 0.000602932 -4.17846e-06)
(2.754e-05 0.000566537 -2.9257e-07)
(1.67423e-05 0.000508676 -7.2713e-06)
(8.71828e-06 0.000423708 -2.42834e-05)
(2.88124e-06 0.000225951 -4.65673e-05)
(-2.7268e-06 0.000261323 -6.31455e-05)
(-9.60765e-06 0.000476294 -5.36705e-05)
(-1.86844e-05 0.000568222 -4.2342e-05)
(-3.12755e-05 0.00062954 -3.99028e-05)
(-4.40162e-05 0.000666636 -4.78165e-05)
(-5.5865e-05 0.000684495 -6.40909e-05)
(-6.61612e-05 0.000687338 -8.80172e-05)
(-7.43113e-05 0.000678631 -0.000119317)
(-7.98148e-05 0.000661496 -0.000156838)
(-8.2325e-05 0.000638602 -0.000198116)
(-8.16831e-05 0.000612469 -0.00023996)
(-7.79255e-05 0.000585229 -0.000279272)
(-7.12731e-05 0.0005589 -0.000313813)
(-6.2075e-05 0.000535097 -0.000342335)
(-5.07578e-05 0.000515303 -0.000364427)
(-3.77951e-05 0.000500561 -0.000380092)
(-2.36869e-05 0.000491758 -0.000389503)
(-8.94821e-06 0.000489314 -0.000392778)
(5.90176e-06 0.000493473 -0.000389969)
(2.03341e-05 0.000504 -0.000380989)
(3.38293e-05 0.000520482 -0.000365685)
(4.58728e-05 0.000542037 -0.000343848)
(5.59764e-05 0.000567604 -0.000315448)
(6.36876e-05 0.000595685 -0.000280877)
(6.86416e-05 0.000624619 -0.00024138)
(7.05891e-05 0.00065235 -0.000199213)
(6.94666e-05 0.000676675 -0.000157515)
(6.54032e-05 0.000695013 -0.000119526)
(5.87251e-05 0.000704609 -8.77634e-05)
(4.98973e-05 0.000702269 -6.34061e-05)
(3.94897e-05 0.00068443 -4.67163e-05)
(2.81407e-05 0.000646792 -3.82762e-05)
(1.6827e-05 0.000584258 -3.98333e-05)
(8.63194e-06 0.000490339 -4.99947e-05)
(2.39834e-06 0.000270048 -5.92594e-05)
(-2.53654e-06 0.00031845 -6.04225e-05)
(-9.40265e-06 0.000561812 -5.76256e-05)
(-1.80062e-05 0.000665513 -5.09943e-05)
(-3.00939e-05 0.000733827 -5.22994e-05)
(-4.233e-05 0.00077395 -6.31024e-05)
(-5.37031e-05 0.000791712 -8.20125e-05)
(-6.3524e-05 0.000791924 -0.000108637)
(-7.12184e-05 0.000778766 -0.00014281)
(-7.62776e-05 0.00075584 -0.000183243)
(-7.83726e-05 0.00072645 -0.000227219)
(-7.73512e-05 0.00069349 -0.000271249)
(-7.32902e-05 0.000659617 -0.000312114)
(-6.64388e-05 0.00062708 -0.000347588)
(-5.71802e-05 0.000597869 -0.000376599)
(-4.59525e-05 0.000573545 -0.000398882)
(-3.32236e-05 0.000555391 -0.000414608)
(-1.94681e-05 0.000544259 -0.00042401)
(-5.16886e-06 0.000540726 -0.000427288)
(9.19388e-06 0.000544941 -0.00042448)
(2.31364e-05 0.000556781 -0.000415517)
(3.61771e-05 0.000575694 -0.000400168)
(4.78318e-05 0.000600844 -0.000378171)
(5.76176e-05 0.000630954 -0.000349328)
(6.50896e-05 0.000664452 -0.000313888)
(6.98473e-05 0.000699329 -0.000272915)
(7.1628e-05 0.000733292 -0.00022865)
(7.03363e-05 0.000763639 -0.000184345)
(6.6109e-05 0.000787414 -0.000143538)
(5.926e-05 0.000801257 -0.000108996)
(5.02859e-05 0.000801495 -8.20256e-05)
(3.97462e-05 0.0007839 -6.27832e-05)
(2.83087e-05 0.00074359 -5.1576e-05)
(1.69522e-05 0.000674688 -4.96519e-05)
(8.85095e-06 0.000569929 -5.54966e-05)
(2.34985e-06 0.000323272 -5.80703e-05)
(-2.78058e-06 0.000377402 -4.80292e-05)
(-9.7143e-06 0.000648638 -4.53211e-05)
(-1.8149e-05 0.000764056 -4.00754e-05)
(-3.00048e-05 0.000839483 -4.26783e-05)
(-4.19971e-05 0.000882988 -5.45133e-05)
(-5.31085e-05 0.000901046 -7.44457e-05)
(-6.26887e-05 0.000899166 -0.000102302)
(-7.01443e-05 0.000882044 -0.000137939)
(-7.49625e-05 0.000853897 -0.000179998)
(-7.67834e-05 0.000818531 -0.000225545)
(-7.54534e-05 0.000779401 -0.000270883)
(-7.1073e-05 0.000739572 -0.000312639)
(-6.39354e-05 0.000701701 -0.000348584)
(-5.4483e-05 0.000667955 -0.000377719)
(-4.31755e-05 0.000640062 -0.000399922)
(-3.04984e-05 0.000619269 -0.000415478)
(-1.69058e-05 0.000606475 -0.000424749)
(-2.85e-06 0.000602215 -0.000427953)
(1.12359e-05 0.000606691 -0.000425198)
(2.49206e-05 0.000619725 -0.000416348)
(3.77532e-05 0.000640809 -0.000401159)
(4.92779e-05 0.000669068 -0.000379241)
(5.90076e-05 0.000703269 -0.00035029)
(6.64726e-05 0.000741692 -0.000314411)
(7.12238e-05 0.000782152 -0.000272608)
(7.29597e-05 0.000821967 -0.00022713)
(7.15693e-05 0.000858019 -0.000181386)
(6.7203e-05 0.000886807 -0.00013912)
(6.02113e-05 0.000904468 -0.000103285)
(5.11013e-05 0.000906743 -7.52352e-05)
(4.04629e-05 0.000888888 -5.51147e-05)
(2.89325e-05 0.000845364 -4.30234e-05)
(1.75058e-05 0.000769657 -3.99884e-05)
(9.37446e-06 0.000653665 -4.46532e-05)
(2.65812e-06 0.000380129 -4.69902e-05)
(-3.27984e-06 0.000434469 -2.93041e-05)
(-1.02636e-05 0.000731695 -2.17334e-05)
(-1.86853e-05 0.00085806 -1.51973e-05)
(-3.04655e-05 0.000940258 -1.6932e-05)
(-4.23784e-05 0.000987067 -2.79877e-05)
(-5.34305e-05 0.00100556 -4.73006e-05)
(-6.30486e-05 0.00100169 -7.48721e-05)
(-7.06029e-05 0.000980658 -0.000110745)
(-7.5524e-05 0.000947161 -0.000153797)
(-7.73806e-05 0.000905519 -0.000201246)
(-7.59391e-05 0.00085979 -0.000249028)
(-7.1286e-05 0.000813815 -0.000292985)
(-6.37538e-05 0.000770759 -0.000330135)
(-5.39202e-05 0.000733006 -0.0003594)
(-4.23301e-05 0.00070219 -0.000381082)
(-2.94667e-05 0.000679466 -0.000395936)
(-1.57739e-05 0.000665589 -0.000404615)
(-1.66106e-06 0.000660941 -0.00040758)
(1.24642e-05 0.000665676 -0.000404961)
(2.61925e-05 0.000679644 -0.000396625)
(3.91214e-05 0.000702477 -0.000382096)
(5.0812e-05 0.000733435 -0.000360709)
(6.07862e-05 0.000771403 -0.000331665)
(6.84877e-05 0.000814769 -0.000294625)
(7.3337e-05 0.000861163 -0.00025065)
(7.49901e-05 0.000907393 -0.000202774)
(7.33618e-05 0.000949555 -0.000155233)
(6.86887e-05 0.000983535 -0.000112128)
(6.14055e-05 0.00100498 -7.62298e-05)
(5.20754e-05 0.00100914 -4.8627e-05)
(4.13227e-05 0.000990821 -2.92477e-05)
(2.97137e-05 0.000944036 -1.80339e-05)
(1.82227e-05 0.000861695 -1.59794e-05)
(1.00155e-05 0.000735003 -2.20296e-05)
(3.17907e-06 0.00043598 -2.91047e-05)
(-3.76136e-06 0.000485251 -8.28666e-06)
(-1.06203e-05 0.00080483 7.04058e-06)
(-1.89198e-05 0.000940657 1.64883e-05)
(-3.04782e-05 0.00102882 1.69861e-05)
(-4.2106e-05 0.00107866 7.90849e-06)
(-5.3008e-05 0.00109766 -9.61868e-06)
(-6.2568e-05 0.00109205 -3.57881e-05)
(-7.01907e-05 0.00106734 -7.09192e-05)
(-7.55427e-05 0.00102831 -0.000114452)
(-7.76457e-05 0.000979608 -0.000163818)
(-7.63758e-05 0.00092666 -0.000214198)
(-7.18473e-05 0.0008745 -0.000260085)
(-6.43465e-05 0.000826572 -0.00029785)
(-5.41938e-05 0.000785006 -0.000326793)
(-4.24108e-05 0.00075135 -0.000347491)
(-2.93291e-05 0.000726647 -0.000361238)
(-1.54104e-05 0.000711587 -0.00036912)
(-1.07527e-06 0.000706552 -0.000371746)
(1.32643e-05 0.000711663 -0.00036931)
(2.71992e-05 0.000726801 -0.000361626)
(4.03061e-05 0.000751588 -0.000348091)
(5.21328e-05 0.000785338 -0.00032761)
(6.23467e-05 0.000827016 -0.000298877)
(6.99195e-05 0.000875095 -0.000261308)
(7.45435e-05 0.000927478 -0.000215566)
(7.59326e-05 0.000980755 -0.000165256)
(7.4e-05 0.00102985 -0.000115911)
(6.88027e-05 0.00106923 -7.24113e-05)
(6.13593e-05 0.00109422 -3.73237e-05)
(5.20097e-05 0.00110004 -1.11748e-05)
(4.13191e-05 0.00108116 6.38349e-06)
(2.99163e-05 0.00103135 1.55795e-05)
(1.85723e-05 0.000943122 1.53467e-05)
(1.04334e-05 0.000807108 6.3166e-06)
(3.6786e-06 0.000486015 -8.50258e-06)
(-4.20903e-06 0.000527272 1.08092e-05)
(-1.08579e-05 0.00086454 3.4657e-05)
(-1.89867e-05 0.00100793 4.7541e-05)
(-3.01821e-05 0.00110091 5.05807e-05)
(-4.14252e-05 0.00115328 4.36734e-05)
(-5.20038e-05 0.00117273 2.79988e-05)
(-6.13051e-05 0.00116581 3.36821e-06)
(-6.91369e-05 0.001138 -3.08692e-05)
(-7.46222e-05 0.00109416 -7.44152e-05)
(-7.70349e-05 0.0010398 -0.00012409)
(-7.62763e-05 0.000980652 -0.000174438)
(-7.22722e-05 0.000921819 -0.000219908)
(-6.51058e-05 0.00086734 -0.000257143)
(-5.50711e-05 0.000820293 -0.000285392)
(-4.3035e-05 0.000782526 -0.000305392)
(-2.97042e-05 0.000754944 -0.000318435)
(-1.54546e-05 0.000738191 -0.000325814)
(-7.62525e-07 0.000732587 -0.000328231)
(1.39316e-05 0.000738251 -0.000325902)
(2.81925e-05 0.000755066 -0.000318614)
(4.15452e-05 0.000782718 -0.000305671)
(5.36093e-05 0.000820566 -0.000285781)
(6.36749e-05 0.000867716 -0.000257674)
(7.08868e-05 0.000922317 -0.000220626)
(7.49521e-05 0.000981301 -0.000175386)
(7.57876e-05 0.00104063 -0.000125256)
(7.34706e-05 0.00109522 -7.57316e-05)
(6.81192e-05 0.00113929 -3.22641e-05)
(6.04189e-05 0.0011673 1.92739e-06)
(5.12657e-05 0.00117436 2.65404e-05)
(4.08497e-05 0.001155 4.22448e-05)
(2.97688e-05 0.00110267 4.92528e-05)
(1.8731e-05 0.00100966 4.64329e-05)
(1.07231e-05 0.000866172 3.38931e-05)
(4.14984e-06 0.00052758 1.04659e-05)
(-4.52749e-06 0.000560567 2.56732e-05)
(-1.09396e-05 0.000910977 5.68755e-05)
(-1.89235e-05 0.00106003 7.2785e-05)
(-2.97842e-05 0.0011567 7.80809e-05)
(-4.07143e-05 0.00121099 7.30186e-05)
(-5.09651e-05 0.00123083 5.88665e-05)
(-6.01261e-05 0.00122294 3.54517e-05)
(-6.80803e-05 0.00119277 1.93931e-06)
(-7.35302e-05 0.0011455 -4.11076e-05)
(-7.63746e-05 0.00108651 -8.97628e-05)
(-7.61177e-05 0.00102128 -0.00013846)
(-7.25187e-05 0.000954855 -0.000182395)
(-6.56486e-05 0.000892204 -0.000218653)
(-5.58687e-05 0.000837681 -0.00024624)
(-4.36915e-05 0.00079438 -0.00026601)
(-3.0131e-05 0.00076302 -0.000278793)
(-1.55913e-05 0.000744059 -0.000285927)
(-5.68687e-07 0.00073773 -0.000288241)
(1.44574e-05 0.0007441 -0.000285973)