/*--------------------------------*- C++ -*----------------------------------*\
| =========                 |                                                 |
| \\      /  F ield         | OpenFOAM: The Open Source CFD Toolbox           |
|  \\    /   O peration     | Version:  v2006                                 |
|   \\  /    A nd           | Website:  www.openfoam.com                      |
|    \\/     M anipulation  |                                                 |
\*---------------------------------------------------------------------------*/
FoamFile
{
    version     2.0;
    format      ascii;
    class       volScalarField;
    location    "24";
    object      omega;
}
// * * * * * * * * * * * * * * * * * * * * * * * * * * * * * * * * * * * * * //

dimensions      [0 0 -1 0 0 0 0];


internalField   nonuniform List<scalar> 
78750
(
357.433
14.5693
14.5889
14.5855
14.5611
14.5267
14.4904
14.4561
14.425
14.3969
14.3713
14.3482
14.3273
14.3083
14.2911
14.2753
14.2607
14.2469
14.2336
14.2206
14.2075
14.1937
14.1787
14.1619
14.1425
14.1197
14.0923
14.0592
14.0187
13.9696
13.9116
13.8468
13.7817
13.7284
356.486
523.49
5.25569
5.66018
5.78611
5.78841
5.74424
5.68815
5.63762
5.59805
5.56829
5.54546
5.52751
5.51313
5.50129
5.49139
5.48252
5.4743
5.46618
5.45783
5.44862
5.43796
5.42459
5.40765
5.38645
5.36026
5.32808
5.2885
5.23913
5.17569
5.09131
4.97722
4.82852
4.65526
4.46228
523.232
523.556
4.8196
5.02287
5.07354
5.04603
4.99669
4.95664
4.93207
4.91926
4.91296
4.9112
4.91291
4.91732
4.92397
4.93254
4.94284
4.95467
4.96788
4.98226
4.99754
5.01332
5.02904
5.04395
5.05709
5.06723
5.07282
5.07194
5.06167
5.03677
4.99005
4.91395
4.80623
4.67636
4.50729
524.01
523.487
4.65864
4.83349
4.91854
4.95306
4.95442
4.94019
4.92182
4.90308
4.88403
4.86524
4.84764
4.83178
4.81799
4.80647
4.79738
4.79088
4.78709
4.78617
4.78824
4.7934
4.80175
4.81331
4.82784
4.84461
4.86198
4.87732
4.88761
4.88839
4.87178
4.8283
4.75269
4.65277
4.50789
524.303
523.472
4.56948
4.72101
4.80252
4.84551
4.85406
4.83545
4.79983
4.75677
4.71414
4.67648
4.64473
4.61908
4.59948
4.58512
4.57504
4.5683
4.56408
4.56178
4.56111
4.56214
4.56533
4.5716
4.58223
4.59876
4.62292
4.65492
4.69141
4.72485
4.74335
4.73431
4.69177
4.61846
4.49469
524.994
523.44
4.51997
4.65989
4.73232
4.77058
4.77753
4.75785
4.72213
4.6809
4.64189
4.60941
4.58397
4.56541
4.55371
4.54809
4.54714
4.54908
4.55198
4.55403
4.55371
4.54991
4.54207
4.53032
4.51524
4.49867
4.48521
4.48179
4.49508
4.52677
4.56812
4.59972
4.60046
4.56039
4.46447
525.336
523.432
4.48057
4.61492
4.68547
4.72275
4.73269
4.71807
4.68629
4.64648
4.60655
4.57225
4.54706
4.53249
4.52862
4.53429
4.54705
4.56335
4.57978
4.59363
4.6028
4.60565
4.60097
4.58794
4.56614
4.53463
4.49459
4.45325
4.42298
4.41819
4.44564
4.49145
4.5226
4.51174
4.44311
525.763
523.421
4.45345
4.58183
4.64714
4.67895
4.68449
4.66654
4.63284
4.5935
4.55738
4.5309
4.51775
4.51928
4.53468
4.56086
4.59287
4.62523
4.65368
4.67672
4.69372
4.7035
4.70496
4.697
4.67873
4.64797
4.60166
4.54115
4.47571
4.42283
4.40306
4.42338
4.45893
4.46683
4.42217
525.903
523.415
4.42847
4.55332
4.61571
4.64349
4.64629
4.62719
4.59354
4.5555
4.52267
4.50245
4.49957
4.51515
4.54639
4.58702
4.62948
4.66777
4.6994
4.72466
4.74357
4.75538
4.7592
4.75397
4.73855
4.71084
4.66704
4.60472
4.52886
4.45453
4.4049
4.39993
4.42813
4.44372
4.41578
526.149
523.405
4.40584
4.5262
4.5853
4.60954
4.60943
4.58836
4.55411
4.51813
4.49215
4.48534
4.50183
4.53941
4.58976
4.64253
4.69027
4.72949
4.76082
4.7858
4.80468
4.81715
4.82252
4.81978
4.80754
4.78365
4.74406
4.68418
4.60455
4.51721
4.44435
4.41132
4.42122
4.435
4.41632
526.467
523.395
4.38329
4.49966
4.55631
4.57743
4.57423
4.5503
4.51444
4.48105
4.46516
4.47592
4.51296
4.56788
4.62748
4.68186
4.72647
4.76146
4.78945
4.81195
4.82921
4.84109
4.84695
4.84564
4.83561
4.81423
4.77684
4.71892
4.6403
4.55164
4.47266
4.42902
4.42915
4.43986
4.42568
527.008
523.387
4.36458
4.47469
4.5261
4.54177
4.53272
4.50455
4.47111
4.45164
4.46048
4.49959
4.56004
4.62608
4.68576
4.73423
4.77142
4.80045
4.8241
4.84344
4.8589
4.87036
4.87714
4.878
4.87119
4.85383
4.8213
4.76865
4.69394
4.60506
4.51892
4.46128
4.44681
4.44959
4.43385
527.479
523.381
4.34655
4.44905
4.4937
4.5022
4.48598
4.45644
4.43511
4.44095
4.47824
4.53831
4.60617
4.66775
4.7176
4.75583
4.78483
4.80799
4.8276
4.8444
4.8587
4.87026
4.8783
4.88153
4.87806
4.86494
4.83829
4.79425
4.73083
4.65326
4.57146
4.5075
4.4793
4.46995
4.44608
527.752
523.378
4.32711
4.41779
4.45365
4.45633
4.44083
4.42749
4.43699
4.47502
4.53314
4.59935
4.65943
4.70756
4.74452
4.77274
4.79486
4.81353
4.83037
4.8458
4.85985
4.87206
4.88151
4.88702
4.88687
4.87855
4.85887
4.82459
4.77432
4.70934
4.63418
4.56569
4.52293
4.49863
4.46202
527.756
523.378
4.31129
4.39164
4.42427
4.43127
4.43105
4.44273
4.47472
4.52154
4.57439
4.6261
4.66941
4.70386
4.73121
4.75337
4.772
4.78886
4.80509
4.82077
4.83566
4.84908
4.85999
4.86731
4.86954
4.86477
4.85108
4.82713
4.79319
4.74684
4.68685
4.62362
4.57326
4.53588
4.4846
527.707
523.375
4.29927
4.37708
4.41402
4.43119
4.44518
4.46726
4.49878
4.53505
4.57389
4.61263
4.64699
4.6763
4.70103
4.72195
4.74008
4.75694
4.77363
4.79024
4.80649
4.8216
4.83446
4.84397
4.84845
4.84627
4.8365
4.81975
4.79825
4.76711
4.72158
4.6661
4.61264
4.56578
4.50242
527.732
523.363
4.28267
4.36306
4.40716
4.43262
4.45212
4.47134
4.49126
4.51174
4.53571
4.56626
4.59769
4.62668
4.6517
4.67257
4.69013
4.7062
4.72236
4.7391
4.75636
4.77334
4.78896
4.80197
4.81027
4.81223
4.80752
4.79889
4.79041
4.77517
4.74573
4.70125
4.64921
4.59565
4.52169
527.904
523.35
4.26528
4.34685
4.39559
4.42532
4.4462
4.46195
4.47467
4.48754
4.50572
4.53359
4.56404
4.59183
4.61458
4.6323
4.64638
4.65899
4.67212
4.68683
4.70344
4.72125
4.73933
4.75643
4.7699
4.77734
4.77797
4.77536
4.7752
4.77078
4.75363
4.71911
4.67075
4.6147
4.5361
528.162
523.343
4.25332
4.33356
4.3836
4.41443
4.43494
4.44868
4.45867
4.4694
4.48616
4.51198
4.53883
4.56128
4.57775
4.58923
4.5978
4.6056
4.6145
4.62585
4.64029
4.65749
4.67711
4.69825
4.71812
4.73365
4.74305
4.74966
4.75864
4.76433
4.75898
4.7354
4.69304
4.63708
4.5561
528.465
523.34
4.24734
4.32524
4.37452
4.40508
4.42517
4.43874
4.44939
4.46158
4.4797
4.5035
4.52526
4.5413
4.55164
4.55815
4.56306
4.56799
4.57398
4.5819
4.59246
4.60604
4.62348
4.64474
4.66804
4.69023
4.70827
4.72382
4.73987
4.75134
4.75265
4.73708
4.70177
4.64993
4.57233
528.753
523.341
4.24498
4.32108
4.36959
4.40025
4.42084
4.4353
4.44691
4.4592
4.47582
4.49522
4.51169
4.52381
4.53284
4.54067
4.5485
4.55648
4.56408
4.57099
4.57755
4.5845
4.59381
4.60747
4.62663
4.65009
4.67482
4.70086
4.72681
4.74602
4.75375
4.7443
4.71409
4.66554
4.59097
529.032
523.343
4.24388
4.31881
4.36719
4.39877
4.42086
4.43686
4.44929
4.46112
4.47613
4.49339
4.50954
4.5246
4.54016
4.55725
4.57533
4.59242
4.60633
4.61573
4.62035
4.62055
4.61782
4.61556
4.61902
4.63173
4.65315
4.68249
4.71393
4.73747
4.7486
4.74372
4.71958
4.67658
4.60684
529.254
523.344
4.2434
4.31833
4.36767
4.40087
4.42494
4.44244
4.45499
4.46539
4.47799
4.49465
4.51336
4.53449
4.55906
4.58688
4.6159
4.64284
4.66463
4.67953
4.68694
4.68637
4.67744
4.66199
4.6469
4.6413
4.65114
4.67871
4.71457
4.74291
4.75606
4.75108
4.72712
4.68542
4.61761
529.458
523.343
4.23953
4.3148
4.36587
4.40095
4.42719
4.44661
4.45961
4.46865
4.47834
4.4936
4.51335
4.53747
4.56624
4.59896
4.63344
4.66638
4.69458
4.71628
4.73082
4.73735
4.73383
4.71835
4.69413
4.67104
4.66192
4.67738
4.71159
4.74335
4.76037
4.75883
4.73849
4.69923
4.63049
529.595
523.338
4.23197
4.30731
4.35999
4.39698
4.42496
4.44564
4.45885
4.46633
4.47221
4.4827
4.49951
4.52211
4.5503
4.58339
4.61951
4.65552
4.68789
4.71497
4.73655
4.75245
4.76116
4.75897
4.74331
4.71689
4.69154
4.68734
4.71247
4.74671
4.7685
4.76742
4.74499
4.70408
4.63422
529.71
523.333
4.22132
4.29463
4.34747
4.38565
4.41462
4.43599
4.44976
4.45727
4.46236
4.47127
4.48769
4.51101
4.54059
4.57556
4.61414
4.65293
4.68769
4.71632
4.73913
4.75746
4.77204
4.78195
4.78432
4.77429
4.75065
4.72641
4.72333
4.74199
4.76828
4.78075
4.76787
4.73033
4.66102
529.789
523.331
4.21431
4.28512
4.33698
4.37503
4.40374
4.42488
4.43901
4.44771
4.45507
4.46718
4.48693
4.51321
4.54536
4.58303
4.62485
4.6671
4.70437
4.73374
4.75555
4.77164
4.78378
4.79449
4.80637
4.81679
4.81844
4.80958
4.79505
4.78358
4.78251
4.78475
4.775
4.74485
4.68648
529.864
523.33
4.21082
4.27949
4.33004
4.36763
4.39649
4.41852
4.43451
4.44604
4.45685
4.47185
4.492
4.517
4.54798
4.58641
4.63138
4.67766
4.71764
4.74754
4.76776
4.7803
4.78754
4.79563
4.81346
4.84242
4.87408
4.89705
4.89944
4.88282
4.85959
4.83802
4.81433
4.78125
4.72723
529.975
523.327
4.20674
4.27473
4.32536
4.36378
4.39399
4.41759
4.43488
4.44662
4.45562
4.46592
4.47979
4.49984
4.53015
4.57355
4.62763
4.68338
4.72974
4.76202
4.78062
4.78703
4.78312
4.7791
4.79434
4.83948
4.90605
4.96594
4.99271
4.98032
4.94174
4.8966
4.85519
4.81412
4.75651
530.15
523.322
4.19981
4.26723
4.31829
4.35771
4.38854
4.4121
4.42844
4.43772
4.44255
4.44802
4.45932
4.48238
4.52275
4.58112
4.64978
4.71538
4.76619
4.79897
4.8145
4.81315
4.79476
4.77043
4.76816
4.81158
4.9006
4.99669
5.06138
5.07569
5.04202
4.98018
4.91482
4.8533
4.77994
530.424
523.319
4.19523
4.26212
4.31301
4.352
4.38094
4.40111
4.41284
4.41697
4.41813
4.4251
4.44603
4.48812
4.55297
4.6326
4.71225
4.77838
4.82461
4.851
4.85826
4.84513
4.81045
4.76836
4.75603
4.80541
4.90883
5.01327
5.08553
5.11211
5.09138
5.03449
4.96423
4.88973
4.79701
530.73
523.317
4.19167
4.25741
4.30682
4.3434
4.3685
4.38364
4.38998
4.39036
4.39365
4.41294
4.4559
4.52369
4.60787
4.69417
4.77039
4.83071
4.87371
4.89856
4.90353
4.88448
4.83653
4.76937
4.72713
4.76953
4.9005
5.04096
5.13014
5.15604
5.12935
5.06673
4.98923
4.90087
4.78595
531.081
523.317
4.18949
4.25395
4.30177
4.33532
4.35519
4.36385
4.36549
4.37003
4.3942
4.44673
4.52406
4.61398
4.70197
4.77801
4.83932
4.88811
4.92669
4.9543
4.9678
4.96198
4.92848
4.85876
4.76387
4.70456
4.75879
4.90568
5.0505
5.1274
5.1306
5.08156
5.00634
4.9113
4.78453
531.335
523.321
4.19609
4.25939
4.29988
4.32141
4.33012
4.33609
4.35485
4.40187
4.47914
4.57326
4.66695
4.74779
4.812
4.86273
4.90469
4.94102
4.97178
4.99474
5.00711
5.00523
4.98277
4.93097
4.84505
4.74574
4.70117
4.76858
4.91534
5.04578
5.09952
5.07992
5.01738
4.92545
4.79917
531.469
523.329
4.19993
4.2581
4.29266
4.31315
4.33257
4.36675
4.4266
4.50859
4.59493
4.66999
4.72872
4.7749
4.81459
4.85277
4.89199
4.93194
4.97039
5.00406
5.02921
5.04194
5.03747
5.00789
4.94333
4.84156
4.73467
4.69029
4.75556
4.89322
5.00774
5.0451
5.01663
4.94305
4.8263
531.562
523.335
4.20214
4.25834
4.29464
4.32283
4.35538
4.40217
4.46548
4.53538
4.59938
4.65391
4.70117
4.74452
4.78652
4.82954
4.87483
4.92157
4.96788
5.01112
5.04823
5.0764
5.09174
5.08803
5.05626
4.98725
4.88237
4.77634
4.72608
4.77661
4.88762
4.97111
4.98741
4.94637
4.85182
531.572
523.337
4.20296
4.26001
4.29907
4.3313
4.36575
4.40835
4.46191
4.52017
4.57523
4.62426
4.66788
4.70826
4.74808
4.79016
4.83588
4.88457
4.93442
4.98299
5.02727
5.06477
5.09271
5.10653
5.09899
5.06194
4.99146
4.8975
4.80413
4.76791
4.81835
4.90313
4.94939
4.9388
4.86929
531.503
523.333
4.19607
4.25297
4.29255
4.32343
4.35187
4.38298
4.42172
4.46836
4.51614
4.56149
4.60391
4.64476
4.68588
4.72989
4.77863
4.83154
4.8869
4.94238
4.99497
5.04251
5.08301
5.11255
5.1248
5.11234
5.07032
5.00115
4.91056
4.83288
4.81891
4.8694
4.9209
4.92891
4.87828
531.41
523.326
4.1825
4.23604
4.27408
4.30258
4.32673
4.35157
4.38209
4.42241
4.46691
4.511
4.55292
4.59334
4.6339
4.67704
4.72497
4.77802
4.83482
4.89337
4.95075
5.0047
5.05405
5.09577
5.12427
5.13283
5.11711
5.07486
5.00436
4.92299
4.87266
4.88126
4.91539
4.92428
4.88018
531.313
523.322
4.17026
4.2194
4.25588
4.28413
4.30893
4.3348
4.36548
4.40366
4.44412
4.48307
4.51972
4.5555
4.59247
4.63279
4.67849
4.73026
4.78697
4.84684
4.90713
4.96519
5.02058
5.07126
5.11186
5.13614
5.14044
5.12027
5.07078
5.00062
4.93985
4.92052
4.93196
4.93095
4.88282
531.286
523.32
4.1611
4.20684
4.24243
4.27101
4.29653
4.32258
4.35147
4.38461
4.41876
4.45159
4.48301
4.51439
4.54744
4.58393
4.62585
4.67441
4.72909
4.78871
4.85092
4.91326
4.97559
5.0365
5.09024
5.13059
5.15388
5.15299
5.12224
5.06617
5.00561
4.96866
4.9569
4.93919
4.87955
531.315
523.318
4.15304
4.1954
4.2295
4.25784
4.28351
4.30945
4.33737
4.36747
4.39766
4.42627
4.45313
4.47923
4.50604
4.53534
4.56944
4.61044
4.65895
4.71475
4.77618
4.84106
4.90962
4.98113
5.04932
5.10759
5.1505
5.16836
5.15554
5.11559
5.06363
5.0204
4.99236
4.95841
4.88509
531.415
523.316
4.1461
4.1853
4.2181
4.24689
4.27417
4.30192
4.3304
4.3584
4.38429
4.40718
4.42723
4.44543
4.46331
4.48287
4.50685
4.53819
4.57895
4.62987
4.68989
4.75728
4.83281
4.91617
5.00029
5.07858
5.14189
5.17784
5.18005
5.15151
5.10532
5.05863
5.01958
4.97321
4.88864
531.494
523.315
4.14069
4.17762
4.21011
4.24038
4.26956
4.29762
4.3235
4.34591
4.3642
4.37827
4.38846
4.3954
4.40053
4.40639
4.41641
4.43474
4.46558
4.51114
4.57088
4.64378
4.73076
4.82998
4.93354
5.03506
5.12103
5.17806
5.1992
5.18613
5.14931
5.10294
5.05652
4.9997
4.90366
531.617
523.314
4.13611
4.17146
4.20355
4.23366
4.26143
4.28551
4.30505
4.31988
4.32989
4.335
4.33503
4.33007
4.32107
4.3105
4.30269
4.30384
4.32081
4.35846
4.41765
4.49856
4.60179
4.72251
4.85045
4.97636
5.08522
5.16238
5.20008
5.1997
5.17135
5.12832
5.08007
5.01874
4.91574
531.667
523.313
4.13
4.16208
4.19087
4.21685
4.23943
4.25764
4.2708
4.2788
4.28167
4.27915
4.27059
4.25534
4.23352
4.20657
4.17933
4.16167
4.16248
4.18757
4.24084
4.32851
4.44997
4.59635
4.75498
4.91314
5.05197
5.15533
5.21466
5.22939
5.20876
5.1666
5.11563
5.04901
4.9371
531.747
523.314
4.12203
4.14787
4.1708
4.19086
4.20763
4.22038
4.22853
4.23185
4.23039
4.22414
4.21251
4.19439
4.16879
4.13545
4.10021
4.09348
4.11463
4.09143
4.16368
4.14915
4.26659
4.42767
4.6137
4.80562
4.97944
5.11467
5.20083
5.23626
5.22847
5.19204
5.14238
5.07477
4.95883
531.76
523.316
4.11703
4.13767
4.15611
4.17208
4.18527
4.19536
4.20233
4.20652
4.20839
4.20795
4.20444
4.19627
4.18155
4.15868
4.12691
4.09174
4.1166
4.09625
4.14193
4.09341
4.11605
4.2378
4.4378
4.67237
4.89889
5.08199
5.20346
5.26238
5.26814
5.23702
5.18728
5.11613
4.99375
531.843
523.319
4.12026
4.14467
4.17036
4.19818
4.22867
4.26184
4.29675
4.33116
4.36218
4.38697
4.40301
4.40837
4.40181
4.38279
4.35129
4.30616
4.24279
4.16136
4.09209
4.14407
4.13299
4.18819
4.19678
4.41861
4.69939
4.96196
5.156
5.2636
5.29477
5.27309
5.22558
5.15433
5.03289
531.931
523.325
4.14293
4.1935
4.25691
4.33338
4.42016
4.51156
4.59889
4.67349
4.72974
4.76532
4.77996
4.77424
4.74919
4.70656
4.64947
4.58227
4.5094
4.43309
4.34894
4.25705
4.17159
4.11605
4.13226
4.26395
4.5066
4.79758
5.05973
5.2388
5.32049
5.32338
5.28253
5.20976
5.09007
532.098
523.331
4.1828
4.27441
4.38604
4.51397
4.64959
4.77865
4.88513
4.95974
5.00201
5.01585
5.00508
4.97191
4.9174
4.84325
4.75408
4.65844
4.56727
4.48996
4.42993
4.38422
4.3493
4.32887
4.33845
4.4079
4.56308
4.78974
5.03081
5.22154
5.32727
5.35237
5.32346
5.25691
5.14462
532.3
523.337
4.2134
4.3262
4.45676
4.60472
4.7597
4.9002
5.00835
5.08046
5.12225
5.14038
5.13852
5.11686
5.07314
5.00434
4.90953
4.79321
4.66773
4.55246
4.46707
4.42172
4.41308
4.43351
4.47962
4.56066
4.69575
4.88737
5.09876
5.27479
5.37798
5.40593
5.37615
5.30479
5.18143
532.556
523.334
4.18133
4.26822
4.38687
4.54114
4.71059
4.86325
4.98078
5.06342
5.11972
5.15796
5.18312
5.19644
5.19563
5.17473
5.12451
5.03562
4.90463
4.7415
4.57453
4.44382
4.37877
4.38045
4.43377
4.52745
4.66998
4.868
5.09186
5.28302
5.40155
5.44102
5.41634
5.34433
5.21436
532.814
523.329
4.17404
4.26742
4.39857
4.5525
4.69519
4.80257
4.87445
4.92338
4.96023
4.9899
5.01415
5.03412
5.05038
5.06207
5.06523
5.05046
5.00192
4.90264
4.74983
4.57227
4.42956
4.37523
4.41771
4.52356
4.67117
4.8639
5.08994
5.29753
5.43475
5.48395
5.46118
5.38488
5.2457
533.037
523.331
4.19857
4.30629
4.43094
4.54938
4.64162
4.70911
4.76708
4.82684
4.8876
4.9417
4.98299
5.00957
5.02162
5.0201
5.00795
4.99082
4.97198
4.94164
4.873
4.74195
4.56488
4.41236
4.36246
4.43102
4.58051
4.78316
5.02123
5.25369
5.42675
5.50369
5.49542
5.42374
5.28708
533.261
523.325
4.17618
4.25102
4.32185
4.38696
4.45333
4.53321
4.63205
4.74328
4.85273
4.94646
5.01735
5.06484
5.08971
5.09127
5.06863
5.02573
4.97749
4.94393
4.9249
4.88655
4.78904
4.63781
4.5069
4.47418
4.55228
4.71859
4.94663
5.19464
5.40126
5.5114
5.52548
5.46762
5.34018
533.413
523.331
4.15703
4.21976
4.29609
4.39206
4.50906
4.64031
4.77267
4.89234
4.98973
5.0613
5.10824
5.13372
5.1403
5.12903
5.09989
5.05399
4.99837
4.95167
4.93332
4.93411
4.91302
4.83388
4.7133
4.62207
4.61883
4.71579
4.89986
5.13791
5.36474
5.50525
5.54285
5.49855
5.38021
533.627
523.342
4.20658
4.31755
4.44779
4.58969
4.73077
4.85847
4.96328
5.04066
5.09147
5.11952
5.12798
5.11832
5.09039
5.04315
4.97974
4.91487
4.87076
4.86242
4.88925
4.93044
4.95247
4.92822
4.85922
4.78372
4.75062
4.79206
4.9194
5.12283
5.34644
5.50346
5.55968
5.53277
5.43381
533.744
523.353
4.24807
4.37323
4.49503
4.60844
4.71095
4.80189
4.88119
4.94901
5.00467
5.04609
5.07048
5.0747
5.05441
5.00507
4.93132
4.85834
4.82138
4.83557
4.88814
4.95437
5.01237
5.04632
5.04872
5.02786
5.00712
5.01682
5.0865
5.23049
5.40611
5.53562
5.58149
5.55164
5.43752
533.82
523.36
4.23008
4.33195
4.43944
4.55633
4.67996
4.80079
4.90831
4.99656
5.0651
5.11639
5.15246
5.17281
5.17382
5.1487
5.09028
5.0057
4.93145
4.90898
4.94458
5.0123
5.08602
5.14943
5.19177
5.21101
5.21563
5.22491
5.26665
5.36398
5.48825
5.57885
5.60256
5.55263
5.39429
533.777
523.371
4.24849
4.37427
4.5149
4.65738
4.78521
4.88802
4.96474
5.01989
5.05898
5.08642
5.10469
5.11386
5.11128
5.09172
5.0491
4.98405
4.91913
4.89768
4.94474
5.03905
5.14388
5.2326
5.29603
5.33501
5.35646
5.37451
5.41051
5.48107
5.56411
5.61607
5.61268
5.53361
5.33078
533.704
523.372
4.2734
4.41455
4.55282
4.67603
4.77977
4.86512
4.93388
4.98794
5.03017
5.06353
5.08934
5.10675
5.11238
5.10013
5.06299
4.99954
4.9268
4.88779
4.92595
5.0371
5.17523
5.29283
5.37597
5.42762
5.458
5.48244
5.51859
5.5719
5.6209
5.63621
5.60158
5.48952
5.2572
533.568
523.366
4.27473
4.41108
4.53714
4.64991
4.74451
4.81641
4.86729
4.90529
4.93934
4.97387
5.00872
5.04153
5.06745
5.07789
5.06097
5.00828
4.92836
4.86121
4.86851
4.97626
5.14299
5.29497
5.40607
5.47709
5.51743
5.54324
5.57381
5.61334
5.64166
5.63598
5.58233
5.45076
5.2068
533.42
523.357
4.22632
4.32764
4.42948
4.52597
4.60425
4.66179
4.70752
4.75258
4.80106
4.85039
4.89824
4.94554
4.99302
5.03471
5.05443
5.03087
4.95295
4.84472
4.78251
4.8524
5.04714
5.255
5.40788
5.50202
5.5546
5.58252
5.60335
5.6225
5.62671
5.6008
5.53181
5.39126
5.15449
533.259
523.351
4.1975
4.28979
4.3893
4.47914
4.55131
4.61426
4.68013
4.75183
4.82125
4.87864
4.92196
4.95816
4.99918
5.05357
5.11308
5.14802
5.12031
5.00481
4.83102
4.72388
4.81938
5.0744
5.32061
5.48477
5.57566
5.61668
5.63209
5.6367
5.62547
5.5895
5.51736
5.3815
5.1554
533.149
523.348
4.20182
4.29449
4.38351
4.46205
4.53575
4.6177
4.71334
4.81367
4.90219
4.96769
5.00908
5.03255
5.05098
5.08413
5.14516
5.21907
5.264
5.23478
5.09856
4.88097
4.73686
4.84368
5.12307
5.38147
5.54695
5.63352
5.66696
5.66716
5.6407
5.58955
5.50761
5.37001
5.15103
533.083
523.342
4.16821
4.23132
4.29636
4.37019
4.46163
4.57373
4.69735
4.81458
4.90919
4.97552
5.0166
5.0384
5.05109
5.07423
5.13093
5.22546
5.328
5.39151
5.37078
5.22853
4.98703
4.82377
4.92876
5.20946
5.45839
5.60737
5.67759
5.69655
5.67705
5.62646
5.5442
5.40825
5.189
533.109
523.34
4.163
4.23402
4.3246
4.44136
4.58164
4.7307
4.86648
4.97006
5.03533
5.06919
5.08076
5.07537
5.05968
5.05093
5.07746
5.16049
5.28815
5.4185
5.50571
5.50497
5.37295
5.13217
4.96627
5.05771
5.31925
5.54792
5.67551
5.72053
5.706
5.65114
5.56324
5.42442
5.20484
533.12
523.337
4.18264
4.27937
4.39796
4.5365
4.6831
4.82021
4.93173
5.00994
5.05816
5.08526
5.09731
5.09666
5.08637
5.07467
5.07625
5.11095
5.194
5.31813
5.4519
5.55573
5.58371
5.48851
5.28859
5.14565
5.22416
5.43626
5.61668
5.71494
5.73628
5.69949
5.62
5.48402
5.2584
533.199
523.34
4.18538
4.27585
4.38081
4.49859
4.62318
4.74656
4.8604
4.95593
5.02737
5.07672
5.10767
5.12061
5.11571
5.09774
5.07777
5.07307
5.10511
5.18917
5.31773
5.45889
5.57328
5.61862
5.55346
5.39774
5.29776
5.38863
5.56778
5.69354
5.73282
5.70507
5.63114
5.50398
5.28744
533.243
523.34
4.17626
4.25471
4.34854
4.46185
4.59259
4.73274
4.86922
4.98563
5.07184
5.13114
5.16893
5.18638
5.18377
5.16254
5.12522
5.07786
5.0384
5.04421
5.13396
5.30292
5.49577
5.65311
5.73016
5.68576
5.53746
5.43197
5.49811
5.65497
5.75216
5.75428
5.68334
5.54322
5.31957
533.399
523.339
4.18607
4.28962
4.42136
4.57819
4.74472
4.90301
5.03599
5.13214
5.19312
5.22672
5.23719
5.22757
5.2034
5.17227
5.14202
5.11631
5.09225
5.07089
5.07705
5.15327
5.31429
5.51609
5.69713
5.80616
5.79697
5.68069
5.58356
5.61004
5.70186
5.75689
5.73882
5.63654
5.43438
533.37
523.357
4.28177
4.47635
4.69146
4.89976
5.07335
5.19956
5.27263
5.30544
5.30766
5.28279
5.23874
5.18824
5.14371
5.11357
5.10173
5.10981
5.14096
5.20286
5.30365
5.4394
5.59508
5.75164
5.89397
6.00198
6.04132
5.98551
5.8726
5.79249
5.77211
5.76823
5.73937
5.65968
5.50424
533.442
523.405
4.44385
4.72297
4.96622
5.13694
5.22131
5.25134
5.24781
5.21272
5.15205
5.08815
5.0545
5.07301
5.1372
5.22721
5.32964
5.43859
5.55154
5.66749
5.78524
5.90279
6.01633
6.11977
6.20362
6.25215
6.24365
6.16763
6.06097
5.99904
5.981
5.94614
5.87546
5.75739
5.56566
533.545
523.439
4.52874
4.79444
4.97488
5.07709
5.13559
5.17408
5.20054
5.21785
5.22842
5.23381
5.23952
5.25685
5.29784
5.36879
5.4691
5.59316
5.73289
5.88025
6.02725
6.16706
6.29428
6.40164
6.47891
6.51016
6.47259
6.34717
6.15754
6.00797
5.97387
5.97931
5.94051
5.82909
5.61327
533.427
523.427
4.47875
4.71551
4.90748
5.0496
5.13482
5.17944
5.20114
5.21085
5.21836
5.22946
5.2453
5.26922
5.30972
5.37795
5.48126
5.61868
5.78038
5.95183
6.1198
6.2763
6.41746
6.53995
6.63912
6.70609
6.72405
6.6654
6.50419
6.26685
6.06558
5.96626
5.91867
5.85703
5.72301
533.271
523.426
4.45972
4.70149
4.89495
5.01857
5.08044
5.10271
5.09988
5.08803
5.0873
5.1114
5.16221
5.23395
5.32296
5.43144
5.56319
5.71939
5.89578
6.0809
6.2589
6.41628
6.54503
6.64174
6.70634
6.74131
6.75259
6.74523
6.70373
6.5876
6.39327
6.19269
6.04955
5.93212
5.75848
533.555
523.432
4.47627
4.7454
4.95454
5.08437
5.14851
5.16914
5.15958
5.13058
5.09735
5.07987
5.0952
5.1458
5.22479
5.33182
5.4758
5.66071
5.87601
6.10179
6.31685
6.50272
6.64474
6.73065
6.75105
6.70137
6.5909
6.45876
6.37318
6.36804
6.36322
6.29355
6.17968
6.01081
5.71149
533.728
523.527
4.6733
4.95491
5.11157
5.17231
5.1836
5.16636
5.12972
5.08807
5.0582
5.054
5.08395
5.14817
5.23747
5.34469
5.47355
5.63377
5.83262
6.06573
6.31377
6.54891
6.74403
6.87537
6.92506
6.88184
6.74342
6.52681
6.28808
6.13251
6.09715
6.105
6.07277
5.95823
5.70567
533.101
523.547
4.62139
4.80532
4.92424
5.01275
5.06883
5.09815
5.10732
5.10321
5.10232
5.12486
5.18417
5.2809
5.40273
5.53453
5.66874
5.8091
5.96664
6.14996
6.35819
6.57949
6.79478
6.97929
7.10795
7.1621
7.13426
7.02657
6.84689
6.61909
6.39805
6.23311
6.1322
6.05301
5.93048
532.831
523.497
4.45268
4.64282
4.83257
4.97662
5.0544
5.08248
5.07372
5.0414
5.01054
5.01081
5.06778
5.19202
5.36764
5.56088
5.74294
5.9061
6.06286
6.22971
6.41607
6.61862
6.82338
7.01387
7.17517
7.28999
7.33799
7.30021
7.16369
6.9341
6.66083
6.44233
6.33089
6.24554
6.02954
533.531
523.516
4.47855
4.70359
4.89425
5.01367
5.07188
5.091
5.08074
5.04961
5.0112
4.98309
4.99359
5.08169
5.27077
5.53719
5.81903
6.05427
6.23278
6.38193
6.52995
6.69164
6.86468
7.034
7.18121
7.28608
7.32299
7.26952
7.1213
6.90901
6.69218
6.52425
6.38518
6.1719
5.74021
534.78
523.552
4.49224
4.70254
4.87019
4.96612
5.00435
5.00169
4.96972
4.93181
4.90509
4.88593
4.87062
4.88495
4.98621
5.2171
5.55433
5.91774
6.22052
6.43694
6.59284
6.7223
6.84388
6.95739
7.04932
7.10164
7.09877
7.02857
6.89653
6.72787
6.5555
6.38854
6.1827
5.85379
5.37077
535.503
523.623
4.61572
4.86907
5.03658
5.10781
5.11534
5.07031
4.98612
4.90264
4.85808
4.85495
4.86956
4.88965
4.93544
5.05818
5.30057
5.64589
6.01684
6.33523
6.5637
6.70923
6.79942
6.8573
6.89226
6.90164
6.87415
6.8025
6.69102
6.55109
6.38972
6.19226
5.92218
5.56105
5.14484
535.66
523.637
4.69274
4.90322
5.00137
5.04255
5.05418
5.04391
5.01718
4.97834
4.93811
4.91003
4.89841
4.89802
4.90518
4.93194
5.01424
5.19298
5.47529
5.8206
6.16761
6.46013
6.66351
6.77373
6.80993
6.79656
6.74913
6.67441
6.57662
6.45974
6.32199
6.14532
5.8942
5.55518
5.17894
535.484
523.483
4.42748
4.60921
4.78756
4.93473
5.02729
5.07496
5.08741
5.06921
5.03278
4.99439
4.96765
4.95906
4.96419
4.97356
4.98523
5.01391
5.09135
5.24748
5.48706
5.78694
6.10388
6.38745
6.59384
6.70361
6.72326
6.67897
6.59328
6.47944
6.34179
6.17191
5.9424
5.62809
5.26269
535.199
523.518
4.50005
4.7489
4.93716
5.04143
5.07983
5.07318
5.03397
4.98122
4.93434
4.90241
4.88628
4.88656
4.90458
4.937
4.9755
5.01328
5.05124
5.1002
5.17986
5.31203
5.50882
5.76119
6.0357
6.28436
6.46327
6.55062
6.56052
6.51447
6.42453
6.29135
6.09895
5.81485
5.44057
535.17
523.599
4.68569
4.91167
5.01134
5.05059
5.06609
5.06355
5.04459
5.01364
4.97949
4.95318
4.94189
4.94742
4.96809
5.00007
5.03803
5.07691
5.11345
5.14697
5.18045
5.22351
5.29396
5.41382
5.59645
5.83004
6.07188
6.26417
6.3706
6.39764
6.36337
6.2763
6.13253
5.90503
5.57185
535.075
523.441
4.45374
4.62645
4.778
4.92491
5.03894
5.10924
5.14164
5.13995
5.10836
5.06083
5.01502
4.98673
4.98519
5.01013
5.05334
5.10363
5.15277
5.198
5.23819
5.27239
5.30412
5.34591
5.42173
5.55821
5.76103
5.99583
6.1922
6.3033
6.32953
6.28748
6.18302
5.99078
5.67086
535.124
523.378
4.26092
4.4017
4.54741
4.69448
4.8395
4.96798
5.06412
5.12433
5.14906
5.13579
5.0864
5.01512
4.94434
4.89833
4.89601
4.94109
5.01834
5.10449
5.18459
5.25084
5.30191
5.3398
5.37505
5.43373
5.54963
5.73275
5.94431
6.11253
6.19979
6.20772
6.14839
6.00491
5.72726
535.113
523.39
4.28324
4.4124
4.53306
4.66292
4.79913
4.92239
5.0214
5.10066
5.16592
5.216
5.24337
5.23648
5.18675
5.10008
5.00167
4.93048
4.9245
4.99488
5.11033
5.22509
5.31891
5.38786
5.43301
5.46752
5.52687
5.65182
5.84247
6.03115
6.15443
6.19445
6.16207
6.04325
5.77572
535.095
523.373
4.23061
4.36607
4.5335
4.71737
4.88467
5.00939
5.08836
5.13607
5.16532
5.18623
5.2109
5.2458
5.28052
5.2907
5.25202
5.15757
5.03649
4.95587
4.97886
5.09167
5.2236
5.33208
5.4074
5.45156
5.48596
5.56227
5.72328
5.9275
6.08474
6.15183
6.13856
6.03546
5.78063
535.08
523.392
4.28481
4.47344
4.67931
4.86345
4.99713
5.07925
5.13058
5.16651
5.19244
5.20906
5.21831
5.22851
5.25125
5.28935
5.32882
5.34341
5.30526
5.21152
5.12114
5.12082
5.21639
5.34393
5.45216
5.5232
5.55778
5.58758
5.67747
5.84743
6.01495
6.10724
6.11893
6.04745
5.83384
534.95
523.446
4.44542
4.70573
4.9223
5.06254
5.13114
5.16038
5.17451
5.1891
5.21322
5.24434
5.27411
5.29704
5.31314
5.3262
5.34061
5.3563
5.36495
5.35339
5.32544
5.32077
5.37332
5.46526
5.55585
5.61994
5.64959
5.65928
5.70593
5.84454
6.02095
6.13674
6.16225
6.09539
5.86644
534.94
523.474
4.50671
4.73373
4.86946
4.92977
4.95466
4.96748
4.98143
5.0088
5.05572
5.1174
5.18188
5.23832
5.28129
5.30927
5.32382
5.3325
5.35007
5.39129
5.45989
5.54804
5.64441
5.73294
5.79566
5.82019
5.80129
5.75323
5.73477
5.82074
5.9772
6.08881
6.11021
6.03217
5.79028
534.746
523.486
4.51098
4.71574
4.86087
4.96421
5.02932
5.06555
5.08436
5.09845
5.12252
5.1659
5.22455
5.28599
5.33896
5.37758
5.40027
5.4094
5.41603
5.44382
5.51668
5.63686
5.78197
5.91803
6.0165
6.06176
6.04602
5.97392
5.89036
5.88339
5.98223
6.09463
6.13423
6.07636
5.84762
534.244
523.488
4.4359
4.60908
4.74808
4.84119
4.88841
4.90321
4.90263
4.90793
4.94178
5.01401
5.11233
5.21253
5.29627
5.35815
5.40156
5.43404
5.46781
5.5208
5.60669
5.72576
5.86791
6.01564
6.14612
6.23743
6.2734
6.24102
6.14259
6.0307
5.98298
6.00808
6.03221
6.00117
5.8394
534.117
523.534
4.4962
4.69712
4.8427
4.92678
4.96539
4.97305
4.96013
4.93995
4.9352
4.97151
5.05372
5.15731
5.25125
5.32075
5.36728
5.40378
5.45584
5.5561
5.71202
5.89163
6.05886
6.20311
6.32549
6.42218
6.48259
6.49033
6.43127
6.31416
6.19613
6.13128
6.09879
6.0404
5.85235
534.219
523.543
4.51558
4.68067
4.78596
4.85949
4.90997
4.93232
4.92439
4.89208
4.85386
4.84627
4.90274
5.01786
5.14938
5.25701
5.32803
5.37305
5.42239
5.52563
5.71452
5.95623
6.17814
6.34545
6.46793
6.55603
6.60626
6.60753
6.54993
6.44834
6.34397
6.26701
6.19663
6.06813
5.76028
534.664
523.493
4.35893
4.46267
4.56951
4.68449
4.78812
4.86044
4.88849
4.86824
4.80884
4.74057
4.71894
4.78957
4.93847
5.10198
5.22677
5.30269
5.35345
5.43042
5.59239
5.85176
6.14035
6.36474
6.49927
6.57314
6.61738
6.63314
6.59678
6.49905
6.36675
6.22842
6.0665
5.83076
5.46978
535.197
523.48
4.32309
4.45758
4.60024
4.73073
4.84201
4.93182
4.99049
5.0013
4.95076
4.8405
4.70122
4.60801
4.64024
4.79901
5.00251
5.16738
5.26721
5.32713
5.40689
5.57527
5.8585
6.19053
6.45271
6.57971
6.59069
6.54833
6.50372
6.45757
6.38607
6.27061
6.0786
5.77149
5.37418
535.039
523.484
4.34881
4.48283
4.59726
4.69229
4.7783
4.86227
4.94437
5.01605
5.05895
5.04922
4.9675
4.81322
4.6399
4.56188
4.64511
4.84278
5.0512
5.19759
5.27622
5.32768
5.42701
5.64463
5.97765
6.32914
6.56643
6.62015
6.53858
6.40957
6.28278
6.1533
5.98193
5.72318
5.39294
534.834
523.468
4.3699
4.5029
4.60531
4.68811
4.75709
4.8155
4.86782
4.91893
4.97034
5.0158
5.03938
5.01748
4.92572
4.76821
4.62297
4.60155
4.74399
4.97862
5.19263
5.31741
5.35721
5.36275
5.41992
5.61258
5.94722
6.30836
6.52978
6.55539
6.44528
6.26551
6.04166
5.76377
5.43027
534.857
523.416
4.2155
4.28414
4.37262
4.48201
4.59938
4.71018
4.80517
4.88181
4.94266
4.9925
5.03465
5.0644
5.06391
5.00132
4.84646
4.63008
4.4901
4.56758
4.83277
5.13503
5.34601
5.4392
5.43566
5.38988
5.4017
5.57136
5.88444
6.19965
6.37717
6.39717
6.27474
5.99309
5.57794
534.884
523.444
4.26636
4.37389
4.48892
4.59706
4.68987
4.7655
4.82659
4.87821
4.92609
4.97557
5.03069
5.09175
5.14969
5.18179
5.15176
5.01448
4.75796
4.52632
4.56051
4.85748
5.20394
5.45699
5.60222
5.65854
5.65345
5.63229
5.65446
5.75296
5.88594
5.98162
5.99868
5.9094
5.7179
534.161
523.455
4.28961
4.40134
4.51456
4.62192
4.71629
4.79163
4.84552
4.87982
4.90031
4.91661
4.94135
4.98597
5.04999
5.11106
5.13313
5.08411
4.94094
4.72688
4.61977
4.83148