/*--------------------------------*- C++ -*----------------------------------*\
| =========                 |                                                 |
| \\      /  F ield         | OpenFOAM: The Open Source CFD Toolbox           |
|  \\    /   O peration     | Version:  v2006                                 |
|   \\  /    A nd           | Website:  www.openfoam.com                      |
|    \\/     M anipulation  |                                                 |
\*---------------------------------------------------------------------------*/
FoamFile
{
    version     2.0;
    format      ascii;
    class       surfaceScalarField;
    location    "24";
    object      phi;
}
// * * * * * * * * * * * * * * * * * * * * * * * * * * * * * * * * * * * * * //

dimensions      [1 0 -1 0 0 0 0];
oriented        oriented;


internalField   nonuniform List<scalar> 
228225
(
-1.21408e-05
1.79072e-07
1.6378e-07
-1.13467e-05
-8.32158e-07
3.82816e-08
-9.84611e-06
-1.42116e-06
-7.92289e-08
-7.95654e-06
-1.67578e-06
-2.13692e-07
-5.94655e-06
-1.69057e-06
-3.19336e-07
-3.97669e-06
-1.57861e-06
-3.91155e-07
-2.10974e-06
-1.42595e-06
-4.40911e-07
-3.59075e-07
-1.27406e-06
-4.76527e-07
1.27254e-06
-1.13107e-06
-5.00478e-07
2.78238e-06
-9.9788e-07
-5.11889e-07
4.16921e-06
-8.73839e-07
-5.12924e-07
5.43776e-06
-7.58599e-07
-5.099e-07
6.59565e-06
-6.51581e-07
-5.06262e-07
7.65068e-06
-5.52034e-07
-5.02945e-07
8.60978e-06
-4.59109e-07
-4.99954e-07
9.47855e-06
-3.71802e-07
-4.96938e-07
1.0261e-05
-2.88929e-07
-4.93482e-07
1.09591e-05
-2.09065e-07
-4.8906e-07
1.15729e-05
-1.30566e-07
-4.83162e-07
1.21006e-05
-5.24676e-08
-4.75222e-07
1.25387e-05
2.65166e-08
-4.64638e-07
1.28763e-05
1.12842e-07
-4.50456e-07
1.31025e-05
2.05443e-07
-4.31686e-07
1.32025e-05
3.0729e-07
-4.07256e-07
1.31575e-05
4.20964e-07
-3.75998e-07
1.29452e-05
5.48955e-07
-3.36718e-07
1.25398e-05
6.93556e-07
-2.88207e-07
1.19124e-05
8.56743e-07
-2.29355e-07
1.10296e-05
1.04042e-06
-1.57717e-07
9.85487e-06
1.24677e-06
-7.20978e-08
8.33956e-06
1.47916e-06
3.61032e-08
6.41613e-06
1.73915e-06
1.84302e-07
4.09023e-06
1.99389e-06
3.32192e-07
1.62384e-06
2.0705e-06
3.96223e-07
1.38002e-06
2.44128e-07
-1.76138e-06
1.97192e-06
-3.17895e-08
-3.95862e-06
1.88562e-06
-5.20386e-07
-5.72896e-06
1.33841e-06
-9.89235e-07
-7.061e-06
9.13359e-07
-1.25694e-06
-7.98256e-06
6.26741e-07
-1.39565e-06
-8.5153e-06
4.27468e-07
-1.47325e-06
-8.69492e-06
2.7419e-07
-1.52043e-06
-8.57575e-06
1.55493e-07
-1.54863e-06
-8.23696e-06
9.01843e-08
-1.55997e-06
-7.76064e-06
8.27168e-08
-1.55687e-06
-7.19979e-06
1.08153e-07
-1.5428e-06
-6.57905e-06
1.43078e-07
-1.52238e-06
-5.91077e-06
1.80643e-07
-1.50047e-06
-5.20193e-06
2.18638e-07
-1.47949e-06
-4.45778e-06
2.56629e-07
-1.45988e-06
-3.6833e-06
2.94982e-07
-1.44125e-06
-2.88383e-06
3.3451e-07
-1.4229e-06
-2.06528e-06
3.76385e-07
-1.40401e-06
-1.23436e-06
4.22113e-07
-1.38361e-06
-3.99686e-07
4.73601e-07
-1.36076e-06
4.27927e-07
5.3322e-07
-1.33434e-06
1.24001e-06
6.03858e-07
-1.30313e-06
2.02235e-06
6.8886e-07
-1.26579e-06
2.7583e-06
7.92116e-07
-1.22082e-06
3.42741e-06
9.18084e-07
-1.16628e-06
4.00418e-06
1.0718e-06
-1.09966e-06
4.45586e-06
1.2595e-06
-1.01768e-06
4.73914e-06
1.4893e-06
-9.15892e-07
4.80053e-06
1.76675e-06
-7.87773e-07
4.58038e-06
2.09179e-06
-6.24888e-07
4.02041e-06
2.45774e-06
-4.18606e-07
3.10101e-06
2.82996e-06
-1.71323e-07
1.90655e-06
3.10701e-06
8.14693e-08
6.80107e-07
3.0528e-06
2.44229e-07
1.87523e-06
1.8481e-07
-1.68538e-07
2.09433e-06
4.57974e-08
-1.30873e-06
3.1445e-06
-1.18894e-07
-2.86067e-06
3.13502e-06
-2.44741e-07
-4.41994e-06
2.78918e-06
-3.1657e-07
-5.72869e-06
2.2951e-06
-3.59636e-07
-6.66442e-06
1.7561e-06
-3.92933e-07
-7.21971e-06
1.25514e-06
-4.25701e-07
-7.46574e-06
8.59062e-07
-4.57606e-07
-7.48461e-06
5.92522e-07
-4.83553e-07
-7.33921e-06
4.36264e-07
-4.99053e-07
-7.07882e-06
3.54126e-07
-5.0649e-07
-6.74205e-06
3.16998e-07
-5.10823e-07
-6.35577e-06
3.0887e-07
-5.14665e-07
-5.93793e-06
3.19566e-07
-5.18933e-07
-5.50019e-06
3.42603e-07
-5.23887e-07
-5.0498e-06
3.73941e-07
-5.2954e-07
-4.59088e-06
4.11315e-07
-5.35923e-07
-4.1255e-06
4.53813e-07
-5.43017e-07
-3.65442e-06
5.01579e-07
-5.50756e-07
-3.17773e-06
5.55612e-07
-5.58905e-07
-2.69534e-06
6.17628e-07
-5.67016e-07
-2.20739e-06
6.89986e-07
-5.74284e-07
-1.7148e-06
7.75713e-07
-5.7965e-07
-1.21975e-06
8.78702e-07
-5.81832e-07
-7.26613e-07
1.00407e-06
-5.79315e-07
-2.43327e-07
1.15858e-06
-5.70246e-07
2.16134e-07
1.35192e-06
-5.52049e-07
6.25263e-07
1.60088e-06
-5.20868e-07
9.40126e-07
1.92297e-06
-4.71231e-07
1.10704e-06
2.32102e-06
-3.9628e-07
1.08134e-06
2.77184e-06
-2.88538e-07
8.62701e-07
3.19511e-06
-1.46679e-07
5.29754e-07
3.44005e-06
-2.87846e-10
1.65217e-07
3.29415e-06
1.22901e-07
1.92771e-06
1.12206e-07
-1.79941e-07
2.19646e-06
7.73503e-08
-5.02785e-07
3.48219e-06
-1.46984e-08
-7.58706e-07
3.51927e-06
-1.28358e-07
-9.61431e-07
3.23602e-06
-2.44087e-07
-1.14316e-06
2.80336e-06
-3.26422e-07
-1.30495e-06
2.29749e-06
-3.795e-07
-1.43433e-06
1.80052e-06
-4.15939e-07
-1.51643e-06
1.38158e-06
-4.40405e-07
-1.53492e-06
1.06396e-06
-4.52948e-07
-1.48106e-06
8.37829e-07
-4.55456e-07
-1.36192e-06
6.86144e-07
-4.51227e-07
-1.19127e-06
5.88675e-07
-4.4242e-07
-9.78906e-07
5.26563e-07
-4.30185e-07
-7.31434e-07
4.87313e-07
-4.1538e-07
-4.54311e-07
4.64003e-07
-3.98713e-07
-1.52896e-07
4.53125e-07
-3.80818e-07
1.66655e-07
4.53797e-07
-3.62282e-07
4.96936e-07
4.66928e-07
-3.43674e-07
8.2925e-07
4.94502e-07
-3.25546e-07
1.15384e-06
5.39121e-07
-3.08436e-07
1.46033e-06
6.03631e-07
-2.92855e-07
1.73841e-06
6.90764e-07
-2.79245e-07
1.97818e-06
8.03439e-07
-2.67883e-07
2.16995e-06
9.45275e-07
-2.58737e-07
2.30434e-06
1.12053e-06
-2.51231e-07
2.37294e-06
1.33352e-06
-2.43915e-07
2.37067e-06
1.58788e-06
-2.34038e-07
2.29558e-06
1.89355e-06
-2.1788e-07
2.14512e-06
2.26433e-06
-1.91176e-07
1.9137e-06
2.70069e-06
-1.48485e-07
1.59966e-06
3.17021e-06
-8.45476e-08
1.21908e-06
3.57935e-06
-3.92186e-09
7.65328e-07
3.79211e-06
1.01309e-07
2.89933e-07
3.60778e-06
1.6119e-07
2.09811e-06
1.18669e-07
2.32054e-07
1.90394e-06
6.01314e-08
2.91072e-07
3.39728e-06
2.58388e-08
1.92567e-07
3.64428e-06
-2.64612e-08
-1.11559e-08
3.50929e-06
-6.94251e-08
-3.14589e-07
3.2042e-06
-9.72151e-08
-7.04023e-07
2.79576e-06
-1.08644e-07
-1.15172e-06
2.3563e-06
-1.07946e-07
-1.60848e-06
1.93777e-06
-9.93378e-08
-2.0258e-06
1.56657e-06
-8.52546e-08
-2.37346e-06
1.25383e-06
-6.83517e-08
-2.63942e-06
1.00282e-06
-5.07852e-08
-2.81896e-06
8.01442e-07
-3.33409e-08
-2.90768e-06
6.32223e-07
-1.71052e-08
-2.90172e-06
4.84724e-07
-3.58411e-09
-2.80371e-06
3.54238e-07
1.14934e-08
-2.61568e-06
2.4028e-07
2.45259e-08
-2.34344e-06
1.45726e-07
3.549e-08
-1.99741e-06
7.53506e-08
4.51681e-08
-1.59099e-06
3.36572e-08
5.40095e-08
-1.13667e-06
2.20842e-08
6.22613e-08
-6.48729e-07
4.52448e-08
6.99574e-08
-1.46623e-07
1.11241e-07
7.69024e-08
3.43012e-07
2.30637e-07
8.26339e-08
7.89192e-07
4.12051e-07
8.6505e-08
1.15922e-06
6.62271e-07
8.77049e-08
1.42468e-06
9.82453e-07
8.51274e-08
1.5655e-06
1.36852e-06
7.80968e-08
1.5761e-06
1.81469e-06
6.78713e-08
1.46786e-06
2.31421e-06
5.80165e-08
1.26252e-06
2.85087e-06
5.48287e-08
9.8618e-07
3.3804e-06
6.57707e-08
6.65833e-07
3.80488e-06
9.4313e-08
3.34429e-07
3.99108e-06
1.31746e-07
7.7054e-08
3.71554e-06
1.48671e-07
2.0779e-06
9.60292e-08
-8.05642e-08
1.91414e-06
6.9977e-08
-2.9271e-07
3.52948e-06
7.9834e-08
-5.61896e-07
3.85872e-06
5.48444e-08
-8.49472e-07
3.77844e-06
1.85015e-08
-1.15725e-06
3.52374e-06
-1.1704e-08
-1.47638e-06
3.14152e-06
-2.65493e-08
-1.78316e-06
2.69308e-06
-2.9911e-08
-2.06009e-06
2.23964e-06
-2.48619e-08
-2.29695e-06
1.81849e-06
-1.50151e-08
-2.48491e-06
1.44562e-06
-3.81615e-09
-2.61788e-06
1.12549e-06
1.02937e-08
-2.69021e-06
8.48331e-07
2.5416e-08
-2.69549e-06
5.97228e-07
4.02374e-08
-2.62442e-06
3.59437e-07
5.41546e-08
-2.46358e-06
1.26589e-07
6.67206e-08
-2.21305e-06
-8.83471e-08
7.79718e-08
-1.88616e-06
-2.69775e-07
8.84419e-08
-1.48668e-06
-4.23342e-07
9.90082e-08
-1.02603e-06
-5.3786e-07
1.10609e-07
-5.2171e-07
-6.06617e-07
1.24083e-07
7.11134e-09
-6.23993e-07
1.40077e-07
5.43483e-07
-5.84524e-07
1.59011e-07
1.07353e-06
-4.80908e-07
1.81071e-07
1.58076e-06
-3.01982e-07
2.0635e-07
2.04681e-06
-3.84374e-08
2.34163e-07
2.41452e-06
3.52133e-07
2.62095e-07
2.65362e-06
8.43038e-07
2.85888e-07
2.73411e-06
1.43338e-06
3.00378e-07
2.63411e-06
2.11187e-06
3.01974e-07
2.35052e-06
2.84265e-06
2.91518e-07
1.90779e-06
3.54726e-06
2.75569e-07
1.36222e-06
4.08836e-06
2.61678e-07
7.8601e-07
4.31685e-06
2.49817e-07
2.74585e-07
4.00824e-06
2.17864e-07
2.23289e-06
1.18503e-07
4.1277e-08
1.80634e-06
6.61172e-08
-4.35739e-08
3.51691e-06
9.72381e-08
-2.55197e-07
3.97685e-06
9.3423e-08
-5.13319e-07
3.96096e-06
7.55673e-08
-7.92689e-07
3.74542e-06
5.76761e-08
-1.09168e-06
3.39099e-06
4.95272e-08
-1.4011e-06
2.95048e-06
5.20372e-08
-1.70962e-06
2.48623e-06
6.19731e-08
-2.00754e-06
2.04003e-06
7.64199e-08
-2.28365e-06
1.6291e-06
9.26842e-08
-2.51873e-06
1.25258e-06
1.08041e-07
-2.69114e-06
9.00391e-07
1.20407e-07
-2.78331e-06
5.60956e-07
1.28497e-07
-2.78454e-06
2.2896e-07
1.31737e-07
-2.6928e-06
-9.54669e-08
1.30326e-07
-2.49399e-06
-4.1266e-07
1.25467e-07
-2.19737e-06
-6.8578e-07
1.19309e-07
-1.83148e-06
-9.03479e-07
1.1413e-07
-1.4193e-06
-1.06199e-06
1.11818e-07
-9.77919e-07
-1.16187e-06
1.13709e-07
-5.20286e-07
-1.20261e-06
1.20795e-07
-5.6246e-08
-1.18258e-06
1.33803e-07
4.07311e-07
-1.09799e-06
1.53275e-07
8.65791e-07
-9.40543e-07
1.79796e-07
1.30131e-06
-6.88927e-07
2.14644e-07
1.70801e-06
-3.12976e-07
2.58033e-07
2.04193e-06
2.02089e-07
3.06649e-07
2.26364e-06
8.57202e-07
3.54101e-07
2.31545e-06
1.66833e-06
3.91445e-07
2.15609e-06
2.59216e-06
4.09681e-07
1.78158e-06
3.5161e-06
4.05564e-07
1.24396e-06
4.24291e-06
3.829e-07
6.62383e-07
4.55427e-06
3.4387e-07
1.94017e-07
4.20331e-06
2.72864e-07
2.29407e-06
1.32264e-07
-5.26071e-08
1.79056e-06
6.80533e-08
-2.19611e-07
3.56667e-06
1.16943e-07
-4.78521e-07
4.1065e-06
1.29107e-07
-7.69338e-07
4.12826e-06
1.2347e-07
-1.07339e-06
3.93585e-06
1.13609e-07
-1.38385e-06
3.59152e-06
1.09936e-07
-1.68625e-06
3.13831e-06
1.14584e-07
-1.96509e-06
2.64029e-06
1.24798e-07
-2.20632e-06
2.14394e-06
1.37375e-07
-2.394e-06
1.66789e-06
1.48956e-07
-2.50847e-06
1.21059e-06
1.56543e-07
-2.52917e-06
7.6298e-07
1.58189e-07
-2.4409e-06
3.19698e-07
1.53048e-07
-2.23925e-06
-1.14154e-07
1.41499e-07
-1.94411e-06
-5.1586e-07
1.25269e-07
-1.58774e-06
-8.76183e-07
1.07134e-07
-1.19035e-06
-1.17341e-06
9.02058e-08
-7.75083e-07
-1.39599e-06
7.71824e-08
-3.58131e-07
-1.54831e-06
6.93001e-08
5.05122e-08
-1.63757e-06
6.69824e-08
4.44286e-07
-1.66722e-06
7.07486e-08
8.18988e-07
-1.6384e-06
8.10181e-08
1.17283e-06
-1.55008e-06
9.81299e-08
1.50648e-06
-1.39687e-06
1.2255e-07
1.82191e-06
-1.16044e-06
1.55924e-07
2.11716e-06
-8.08442e-07
2.00014e-07
2.37719e-06
-3.1229e-07
2.54104e-07
2.55546e-06
3.63238e-07
3.15437e-07
2.59999e-06
1.24604e-06
3.77544e-07
2.45343e-06
2.30991e-06
4.28719e-07
2.07685e-06
3.43695e-06
4.55826e-07
1.49899e-06
4.37016e-06
4.50793e-07
8.48243e-07
4.79465e-06
4.10529e-07
2.78396e-07
4.45353e-06
3.19676e-07
2.42595e-06
1.46353e-07
4.19224e-10
1.72151e-06
6.82378e-08
-9.09478e-08
3.5281e-06
1.29661e-07
-2.91629e-07
4.15246e-06
1.5457e-07
-5.3986e-07
4.21727e-06
1.59136e-07
-8.06956e-07
4.04779e-06
1.55088e-07
-1.08224e-06
3.71333e-06
1.53434e-07
-1.35086e-06
3.249e-06
1.5791e-07
-1.59371e-06
2.71683e-06
1.66311e-07
-1.7876e-06
2.16273e-06
1.75128e-07
-1.90578e-06
1.60507e-06
1.81029e-07
-1.92305e-06
1.04719e-06
1.8072e-07
-1.8251e-06
4.93291e-07
1.71772e-07
-1.61925e-06
-4.00881e-08
1.53961e-07
-1.31898e-06
-5.43802e-07
1.29382e-07
-9.52477e-07
-9.84061e-07
1.01686e-07
-5.55869e-07
-1.34761e-06
7.47885e-08
-1.5751e-07
-1.62378e-06
5.19604e-08
2.28989e-07
-1.81746e-06
3.49155e-08
5.98457e-07
-1.94158e-06
2.37471e-08
9.46431e-07
-2.00425e-06
1.86517e-08
1.2688e-06
-2.00975e-06
2.01095e-08
1.56207e-06
-1.96015e-06
2.84261e-08
1.82345e-06
-1.8553e-06
4.37759e-08
2.05174e-06
-1.69176e-06
6.65333e-08
2.2481e-06
-1.45511e-06
9.82224e-08
2.41222e-06
-1.11367e-06
1.40995e-07
2.5325e-06
-6.28217e-07
1.95482e-07
2.58843e-06
4.61115e-08
2.60953e-07
2.55343e-06
9.47047e-07
3.33689e-07
2.36968e-06
2.08974e-06
4.03623e-07
1.99058e-06
3.36178e-06
4.54069e-07
1.42396e-06
4.46951e-06
4.67171e-07
7.8646e-07
5.00092e-06
4.31085e-07
2.45439e-07
4.66252e-06
3.31675e-07
2.52477e-06
1.45836e-07
-3.06786e-09
1.65608e-06
6.80642e-08
-7.10234e-08
3.45683e-06
1.38981e-07
-2.28268e-07
4.13572e-06
1.73771e-07
-4.34197e-07
4.2373e-06
1.85711e-07
-6.64494e-07
4.09226e-06
1.85675e-07
-9.08645e-07
3.77227e-06
1.85091e-07
-1.14707e-06
3.29858e-06
1.88754e-07
-1.34921e-06
2.72415e-06
1.94773e-07
-1.47836e-06
2.09278e-06
1.99049e-07
-1.50097e-06
1.43032e-06
1.97324e-07
-1.39924e-06
7.59324e-07
1.86091e-07
-1.17818e-06
1.08076e-07
1.64104e-07
-8.61765e-07
-4.89975e-07
1.33428e-07
-4.92529e-07
-1.0116e-06
9.85078e-08
-9.94197e-08
-1.44129e-06
6.40716e-08
2.91685e-07
-1.77246e-06
3.36918e-08
6.67293e-07
-2.00863e-06
9.19183e-09
1.02414e-06
-2.16608e-06
-8.27866e-09
1.36076e-06
-2.25877e-06
-1.94709e-08
1.675e-06
-2.29347e-06
-2.50568e-08
1.96379e-06
-2.2739e-06
-2.46755e-08
2.22357e-06
-2.20184e-06
-1.8122e-08
2.45098e-06
-2.07722e-06
-5.49761e-09
2.64081e-06
-1.89707e-06
1.54687e-08
2.7876e-06
-1.64702e-06
4.51045e-08
2.88508e-06
-1.29624e-06
8.50535e-08
2.92663e-06
-8.06555e-07
1.36698e-07
2.90524e-06
-1.33065e-07
2.0036e-07
2.78406e-06
7.93528e-07
2.74309e-07
2.52681e-06
1.99509e-06
3.51295e-07
2.09536e-06
3.37678e-06
4.15648e-07
1.49721e-06
4.62124e-06
4.45435e-07
8.38235e-07
5.23869e-06
4.2e-07
2.70666e-07
4.90558e-06
3.22901e-07
2.65497e-06
1.383e-07
1.48563e-08
1.57173e-06
6.90718e-08
-1.39533e-08
3.33783e-06
1.47502e-07
-1.21542e-07
4.05284e-06
1.90233e-07
-2.78812e-07
4.18606e-06
2.08314e-07
-4.5846e-07
4.06063e-06
2.11114e-07
-6.42093e-07
3.7451e-06
2.10661e-07
-8.03045e-07
3.2463e-06
2.13113e-07
-9.03608e-07
2.60821e-06
2.16387e-07
-9.0635e-07
1.88054e-06
2.14876e-07
-7.91799e-07
1.11257e-06
2.03099e-07
-5.68868e-07
3.5744e-07
1.78842e-07
-2.67254e-07
-3.37555e-07
1.43908e-07
7.8891e-08
-9.39342e-07
1.03121e-07
4.37808e-07
-1.43277e-06
6.21703e-08
7.8836e-07
-1.8171e-06
2.51812e-08
1.11874e-06
-2.09732e-06
-5.59152e-09
1.42765e-06
-2.28971e-06
-2.78872e-08
1.71902e-06
-2.41269e-06
-4.48091e-08
1.99246e-06
-2.47592e-06
-5.63303e-08
2.24521e-06
-2.48389e-06
-6.23664e-08
2.47321e-06
-2.43916e-06
-6.27564e-08
2.67142e-06
-2.34284e-06
-5.72225e-08
2.83413e-06
-2.19457e-06
-4.53678e-08
2.95536e-06
-1.99164e-06
-2.66573e-08
3.02777e-06
-1.71842e-06
-9.92061e-10
3.03719e-06
-1.3456e-06
3.99494e-08
2.98035e-06
-8.41502e-07
9.17666e-08
2.84637e-06
-1.5572e-07
1.56516e-07
2.63076e-06
7.75872e-07
2.32911e-07
2.30556e-06
2.00558e-06
3.13915e-07
1.84708e-06
3.45013e-06
3.83787e-07
1.27238e-06
4.77455e-06
4.19502e-07
6.7914e-07
5.43161e-06
3.97983e-07
2.02362e-07
5.07544e-06
3.04193e-07
2.72649e-06
1.27768e-07
-1.94506e-08
1.51738e-06
7.33476e-08
-9.13575e-08
3.24772e-06
1.61725e-07
-2.25383e-07
3.97483e-06
2.11865e-07
-3.96086e-07
4.123e-06
2.33612e-07
-5.72913e-07
4.0001e-06
2.37213e-07
-7.23127e-07
3.65897e-06
2.3622e-07
-8.07922e-07
3.09456e-06
2.36419e-07
-7.92109e-07
2.35867e-06
2.33619e-07
-6.60971e-07
1.52878e-06
2.20501e-07
-4.29301e-07
6.87904e-07
1.92861e-07
-1.31876e-07
-9.2944e-08
1.52825e-07
1.92506e-07
-7.68641e-07
1.06579e-07
5.17384e-07
-1.32483e-06
6.04998e-08
8.30351e-07
-1.76471e-06
1.88835e-08
1.12593e-06
-2.09761e-06
-1.51359e-08
1.40414e-06
-2.3343e-06
-4.12914e-08
1.66992e-06
-2.49402e-06
-6.15141e-08
1.92508e-06
-2.59118e-06
-7.67057e-08
2.16737e-06
-2.63106e-06
-8.71718e-08
2.39264e-06
-2.61621e-06
-9.29762e-08
2.59544e-06
-2.54799e-06
-9.39915e-08
2.76928e-06
-2.42681e-06
-8.9878e-08
2.9066e-06
-2.25183e-06
-8.00692e-08
2.99582e-06
-2.01718e-06
-6.3661e-08
3.02198e-06
-1.70562e-06
-3.89258e-08
2.97644e-06
-1.29558e-06
-4.42998e-09
2.85352e-06
-7.64878e-07
4.63651e-08
2.65585e-06
-6.88577e-08
1.10874e-07
2.38248e-06
8.59492e-07
1.89676e-07
2.02956e-06
2.08127e-06
2.76825e-07
1.58947e-06
3.5333e-06
3.55915e-07
1.07794e-06
4.88307e-06
4.01327e-07
5.70765e-07
5.55025e-06
3.86367e-07
1.68546e-07
5.17882e-06
2.96459e-07
2.76875e-06
1.2391e-07
-3.44807e-08
1.47445e-06
7.69739e-08
-1.40486e-07
3.18035e-06
1.73082e-07
-3.1049e-07
3.91548e-06
2.29157e-07
-5.06752e-07
4.06495e-06
2.54154e-07
-6.81943e-07
3.9165e-06
2.58665e-07
-7.79949e-07
3.49999e-06
2.56883e-07
-7.6221e-07
2.8243e-06
2.52427e-07
-6.22731e-07
1.98092e-06
2.3816e-07
-3.88166e-07
1.08634e-06
2.07746e-07
-1.03531e-07
2.4049e-07
1.62647e-07
1.94074e-07
-5.0136e-07
1.10687e-07
4.82477e-07
-1.1171e-06
5.99461e-08
7.55836e-07
-1.613e-06
1.4724e-08
1.01528e-06
-2.00295e-06
-2.12751e-08
1.26504e-06
-2.2979e-06
-4.95262e-08
1.50982e-06
-2.50764e-06
-7.14899e-08
1.75178e-06
-2.64757e-06
-8.84426e-08
1.98923e-06
-2.72728e-06
-1.01371e-07
2.21798e-06
-2.74919e-06
-1.10638e-07
2.43248e-06
-2.71437e-06
-1.16351e-07
2.62606e-06
-2.62321e-06
-1.18377e-07
2.791e-06
-2.47544e-06
-1.16325e-07
2.91738e-06
-2.26872e-06
-1.0949e-07
2.98869e-06
-1.99189e-06
-9.66077e-08
2.98676e-06
-1.62797e-06
-7.57076e-08
2.90185e-06
-1.16628e-06
-4.43278e-08
2.73083e-06
-5.91865e-07
-1.8758e-09
2.47138e-06
1.2917e-07
6.16333e-08
2.13805e-06
1.05259e-06
1.40495e-07
1.75011e-06
2.23731e-06
2.32133e-07
1.32313e-06
3.63891e-06
3.21336e-07
8.74765e-07
4.95071e-06
3.80276e-07
4.54989e-07
5.59308e-06
3.7621e-07
1.30047e-07
5.2107e-06
2.92284e-07
2.77613e-06
1.22026e-07
-8.51724e-08
1.47691e-06
8.23226e-08
-2.79051e-07
3.185e-06
1.88922e-07
-5.24262e-07
3.90867e-06
2.51814e-07
-7.65493e-07
4.02721e-06
2.78821e-07
-9.43151e-07
3.81276e-06
2.81298e-07
-9.95492e-07
3.27963e-06
2.72641e-07
-9.13643e-07
2.48969e-06
2.52697e-07
-7.32998e-07
1.58409e-06
2.16096e-07
-5.03397e-07
6.92298e-07
1.64347e-07
-2.61789e-07
-1.07568e-07
1.06352e-07
-2.83987e-08
-7.86495e-07
5.16585e-08
2.00233e-07
-1.35001e-06
4.21343e-09
4.28175e-07
-1.81106e-06
-2.99321e-08
6.62879e-07
-2.18051e-06
-5.7194e-08
9.0703e-07
-2.46395e-06
-7.81395e-08
1.16017e-06
-2.66659e-06
-9.42135e-08
1.41951e-06
-2.80014e-06
-1.06809e-07
1.68084e-06
-2.87187e-06
-1.16783e-07
1.93901e-06
-2.8829e-06
-1.24493e-07
2.18801e-06
-2.83338e-06
-1.30024e-07
2.421e-06
-2.723e-06
-1.33225e-07
2.62983e-06
-2.5506e-06
-1.33699e-07
2.80082e-06
-2.30905e-06
-1.30685e-07
2.91412e-06
-1.98217e-06
-1.2303e-07
2.95184e-06
-1.55695e-06
-1.08748e-07
2.89926e-06
-1.0284e-06
-8.52767e-08
2.74531e-06
-3.8827e-07
-4.95743e-08
2.48935e-06
3.85571e-07
-2.46996e-10
2.13531e-06
1.33272e-06
7.42826e-08
1.71502e-06
2.49358e-06
1.64601e-07
1.26574e-06
3.82821e-06
2.60687e-07
8.24209e-07
5.05773e-06
3.35197e-07
4.29697e-07
5.63991e-06
3.4833e-07
1.24321e-07
5.24047e-06
2.76289e-07
2.78679e-06
1.14342e-07
-8.70883e-08
1.48052e-06
8.30603e-08
-2.9597e-07
3.19619e-06
1.97399e-07
-5.58587e-07
3.90689e-06
2.64197e-07
-8.09126e-07
3.99071e-06
2.8691e-07
-9.8878e-07
3.71458e-06
2.77758e-07
-1.05646e-06
3.09721e-06
2.50055e-07
-1.02839e-06
2.25494e-06
2.06643e-07
-9.44632e-07
1.34965e-06
1.50633e-07
-8.3482e-07
4.91834e-07
9.05934e-08
-7.09469e-07
-2.68831e-07
3.58537e-08
-5.65534e-07
-9.22208e-07
-8.2734e-09
-3.96127e-07
-1.47989e-06
-3.95721e-08
-1.96516e-07
-1.94764e-06
-6.30705e-08
3.14422e-08
-2.32806e-06
-8.04485e-08
2.82414e-07
-2.62143e-06
-9.35289e-08
5.50237e-07
-2.83074e-06
-1.03709e-07
8.29411e-07
-2.9673e-06
-1.12043e-07
1.11472e-06
-3.03805e-06
-1.1916e-07
1.4008e-06
-3.04372e-06
-1.2529e-07
1.68204e-06
-2.98421e-06
-1.30443e-07
1.95236e-06
-2.85888e-06
-1.34467e-07
2.20366e-06
-2.66492e-06
-1.3702e-07
2.42167e-06
-2.38961e-06
-1.37492e-07
2.58761e-06
-2.01315e-06
-1.35012e-07
2.68356e-06
-1.52492e-06
-1.2804e-07
2.68887e-06
-9.1949e-07
-1.14275e-07
2.58337e-06
-1.924e-07
-9.03865e-08
2.35592e-06
6.6507e-07
-5.19884e-08
2.01387e-06
1.67059e-06
4.39205e-09
1.5847e-06
2.8389e-06
8.42912e-08
1.12482e-06
4.11284e-06
1.75954e-07
6.97594e-07
5.22894e-06
2.56932e-07
3.38767e-07
5.71414e-06
2.85627e-07
8.43209e-08
5.26449e-06
2.31459e-07
2.77877e-06
9.31636e-08
5.96067e-09
1.40528e-06
6.88338e-08
-4.96454e-08
3.0785e-06
1.72984e-07
-1.77547e-07
3.80069e-06
2.33882e-07
-3.3292e-07
3.89847e-06
2.47434e-07
-4.78788e-07
3.63424e-06
2.26073e-07
-6.07356e-07
3.04093e-06
1.8476e-07
-7.18719e-07
2.23369e-06
1.32549e-07
-8.09987e-07
1.36319e-06
7.76763e-08
-8.69894e-07
5.23395e-07
2.83018e-08
-8.8261e-07
-2.45688e-07
-1.04698e-08
-8.36707e-07
-9.30245e-07
-3.7906e-08
-7.32111e-07
-1.52749e-06
-5.70429e-08
-5.75488e-07
-2.03389e-06
-7.04135e-08
-3.77304e-07
-2.4462e-06
-8.00817e-08
-1.48637e-07
-2.76268e-06
-8.74548e-08
1.006e-07
-2.98654e-06
-9.34776e-08
3.63199e-07
-3.13114e-06
-9.88111e-08
6.3341e-07
-3.20446e-06
-1.03847e-07
9.06024e-07
-3.20767e-06
-1.08709e-07
1.17626e-06
-3.14112e-06
-1.13377e-07
1.43943e-06
-3.0044e-06
-1.17709e-07
1.6879e-06
-2.79202e-06
-1.21419e-07
1.9095e-06
-2.4871e-06
-1.24172e-07
2.09114e-06
-2.0695e-06
-1.25361e-07
2.2171e-06
-1.52692e-06
-1.2405e-07
2.26663e-06
-8.50513e-07
-1.18616e-07
2.21642e-06
-3.59812e-08
-1.06322e-07
2.04951e-06
9.14853e-07
-8.29691e-08
1.76459e-06
1.99882e-06
-4.33366e-08
1.38791e-06
3.19942e-06
1.62747e-08
9.77503e-07
4.43186e-06
9.17047e-08
6.02944e-07
5.43805e-06
1.6596e-07
2.86376e-07
5.82876e-06
2.02551e-07
6.86579e-08
5.31453e-06
1.6818e-07
2.78262e-06
6.4962e-08
1.01789e-07
1.25591e-06
4.71329e-08
2.459e-07
2.80868e-06
1.25352e-07
3.40991e-07
3.53229e-06
1.73022e-07
3.84749e-07
3.67332e-06
1.81153e-07
3.8297e-07
3.47538e-06
1.60437e-07
3.14406e-07
2.98424e-06
1.25097e-07
1.9196e-07
2.2715e-06
8.45058e-08
5.00174e-08
1.45946e-06
4.55772e-08
-7.49289e-08
6.35101e-07
1.31565e-08
-1.57505e-07
-1.51919e-07
-1.1262e-08
-1.80344e-07
-8.78786e-07
-2.86816e-08
-1.47335e-07
-1.51948e-06
-4.10686e-08
-6.6707e-08
-2.06447e-06
-5.01081e-08
5.19828e-08
-2.50806e-06
-5.68854e-08
2.00153e-07
-2.84876e-06
-6.21548e-08
3.69726e-07
-3.08962e-06
-6.65609e-08
5.53716e-07
-3.24456e-06
-7.06294e-08
7.46596e-07
-3.32273e-06
-7.46802e-08
9.43539e-07
-3.32576e-06
-7.89294e-08
1.1401e-06
-3.25431e-06
-8.3447e-08
1.33228e-06
-3.10851e-06
-8.81387e-08
1.51344e-06
-2.88053e-06
-9.27283e-08
1.67405e-06
-2.55083e-06
-9.69568e-08
1.80651e-06
-2.10167e-06
-1.00384e-07
1.9004e-06
-1.51845e-06
-1.02473e-07
1.93959e-06
-7.87542e-07
-1.02306e-07
1.90258e-06
9.90833e-08
-9.82482e-08
1.77083e-06
1.13368e-06
-8.73114e-08
1.5385e-06
2.29583e-06
-6.49411e-08
1.22586e-06
3.53853e-06
-2.67235e-08
8.81817e-07
4.74886e-06
2.68655e-08
5.63083e-07
5.67215e-06
8.4532e-08
2.7871e-07
5.99257e-06
1.20436e-07
7.48375e-08
5.41377e-06
1.04321e-07
2.81778e-06
3.8963e-08
8.70122e-08
1.13386e-06
3.45875e-08
2.58322e-07
2.54625e-06
9.07642e-08
4.37801e-07
3.22677e-06
1.25775e-07
5.91783e-07
3.38586e-06
1.33252e-07
7.05644e-07
3.24e-06
1.21327e-07
7.50003e-07
2.83957e-06
1.00148e-07
7.29436e-07
2.2163e-06
7.56394e-08
6.73319e-07
1.46357e-06
5.19006e-08
6.14129e-07
6.62922e-07
3.12848e-08
5.74098e-07
-1.26198e-07
1.42432e-08
5.60415e-07
-8.65329e-07
1.7128e-10
5.7357e-07
-1.52169e-06
-1.1001e-08
6.10526e-07
-2.08175e-06
-1.97309e-08
6.69277e-07
-2.54085e-06
-2.60228e-08
7.49584e-07
-2.89883e-06
-3.0311e-08
8.5047e-07
-3.15719e-06
-3.34015e-08
9.66847e-07
-3.32491e-06
-3.61165e-08
1.09349e-06
-3.41057e-06
-3.89008e-08
1.22583e-06
-3.41595e-06
-4.22501e-08
1.35875e-06
-3.34089e-06
-4.64445e-08
1.48659e-06
-3.185e-06
-5.14607e-08
1.60156e-06
-2.93858e-06
-5.7033e-08
1.6956e-06
-2.58216e-06
-6.28233e-08
1.76525e-06
-2.10316e-06
-6.82609e-08
1.80723e-06
-1.48788e-06
-7.26808e-08
1.81396e-06
-7.19034e-07
-7.53921e-08
1.77122e-06
2.17288e-07
-7.56865e-08
1.65929e-06
1.31753e-06
-7.22269e-08
1.46729e-06
2.54959e-06
-6.21629e-08
1.20455e-06
3.84242e-06
-4.16397e-08
9.05073e-07
5.05675e-06
-8.97147e-09
6.09444e-07
5.9371e-06
3.00716e-08
3.2582e-07
6.2163e-06
5.91714e-08
1.01578e-07
5.58121e-06
5.58164e-08
2.89689e-06
2.11244e-08
3.08214e-08
1.07149e-06
3.11084e-08
1.16382e-07
2.38456e-06
7.57904e-08
2.32047e-07
3.00771e-06
1.03132e-07
3.50351e-07
3.1555e-06
1.11841e-07
4.58021e-07
3.02438e-06
1.07776e-07
5.38033e-07
2.66238e-06
9.70455e-08
5.89312e-07
2.08219e-06
8.27276e-08
6.24553e-07
1.36132e-06
6.69334e-08
6.57271e-07
5.7929e-07
5.08626e-08
6.94979e-07
-1.99107e-07
3.51583e-08
7.35364e-07
-9.26424e-07
2.06693e-08
7.78479e-07
-1.57346e-06
8.60205e-09
8.25781e-07
-2.12894e-06
-1.70143e-10
8.80915e-07
-2.59177e-06
-4.29332e-09
9.5075e-07
-2.96289e-06
-5.85773e-09
1.04049e-06
-3.24119e-06
-5.82788e-09
1.14759e-06
-3.42658e-06
-5.55105e-09
1.26662e-06
-3.52395e-06
-5.7583e-09
1.3922e-06
-3.53453e-06
-7.13757e-09
1.51775e-06
-3.45635e-06
-1.02325e-08
1.6341e-06
-3.28635e-06
-1.513e-08
1.72965e-06
-3.01255e-06
-2.17138e-08
1.79605e-06
-2.61915e-06
-2.955e-08
1.83067e-06
-2.10023e-06
-3.76956e-08
1.83495e-06
-1.44741e-06
-4.48873e-08
1.80986e-06
-6.44101e-07
-5.00058e-08
1.75041e-06
3.2908e-07
-5.25578e-08
1.64345e-06
1.47669e-06
-5.25046e-08
1.47413e-06
2.76763e-06
-4.91634e-08
1.23976e-06
4.11654e-06
-4.03618e-08
9.59077e-07
5.36061e-06
-2.39336e-08
6.62084e-07
6.23422e-06
-1.03391e-09
3.65207e-07
6.49269e-06
1.94125e-08
1.18667e-07
5.80306e-06
2.334e-08
3.00385e-06
1.00504e-08
-1.8606e-08
1.05817e-06
3.15034e-08
-3.532e-08
2.32791e-06
7.30382e-08
-3.36832e-08
2.90813e-06
9.76943e-08
-1.85459e-08
3.03264e-06
1.07534e-07
9.92768e-09
2.88874e-06
1.0702e-07
5.22493e-08
2.51998e-06
9.99737e-08
1.07969e-07
1.93824e-06
8.81766e-08
1.75706e-07
1.22052e-06
7.30201e-08
2.50955e-07
4.4818e-07
5.58258e-08
3.26784e-07
-3.13332e-07
3.83579e-08
3.97619e-07
-1.02019e-06
2.28806e-08
4.63758e-07
-1.65116e-06
1.1508e-08
5.30869e-07
-2.20144e-06
5.31645e-09
6.0741e-07
-2.67268e-06
4.29349e-09
7.01784e-07
-3.06456e-06
7.21521e-09
8.20058e-07
-3.37148e-06
1.19248e-08
9.62e-07
-3.58502e-06
1.64192e-08
1.12062e-06
-3.70225e-06
1.95837e-08
1.28852e-06
-3.72345e-06
2.09261e-08
1.45766e-06
-3.64541e-06
1.98074e-08
1.61601e-06
-3.46081e-06
1.59924e-08
1.74724e-06
-3.15309e-06
9.17986e-09
1.83907e-06
-2.71075e-06
-3.70559e-10
1.88452e-06
-2.13473e-06
-1.10918e-08
1.88467e-06
-1.42618e-06
-2.15221e-08
1.84546e-06
-5.75522e-07
-2.95255e-08
1.77137e-06
4.36948e-07
-3.39655e-08
1.65867e-06
1.62415e-06
-3.50365e-08
1.49573e-06
2.96375e-06
-3.35978e-08
1.27342e-06
4.36788e-06
-2.96392e-08
9.98569e-07
5.65657e-06
-2.19356e-08
6.9489e-07
6.547e-06
-1.0133e-08
3.86724e-07
6.79701e-06
2.58788e-09
1.26315e-07
6.05364e-06
8.32475e-09
3.12321e-06
5.20128e-09
-3.78271e-08
1.06489e-06
3.06648e-08
-1.09741e-07
2.32838e-06
7.11165e-08
-1.84813e-07
2.88817e-06
9.47842e-08
-2.50118e-07
2.99357e-06
1.0418e-07
-2.94337e-07
2.82989e-06
1.02921e-07
-3.07748e-07
2.43919e-06
9.41013e-08
-2.91813e-07
1.84275e-06
7.94788e-08
-2.55473e-07
1.12329e-06
6.08385e-08
-2.09878e-07
3.62113e-07
4.04172e-08
-1.63382e-07
-3.80959e-07
2.10736e-08
-1.17497e-07
-1.07162e-06
5.48747e-09
-6.77501e-08
-1.69739e-06
-3.57644e-09
-5.24007e-09
-2.25789e-06
-6.11633e-09
7.98781e-08
-2.75419e-06
-3.65174e-09
1.94256e-07
-3.18163e-06
2.66165e-09
3.4e-07
-3.5283e-06
1.10713e-08
5.15553e-07
-3.77946e-06
1.88904e-08
7.13636e-07
-3.92521e-06
2.4899e-08
9.25765e-07
-3.96439e-06
2.8827e-08
1.14436e-06
-3.89446e-06
3.04598e-08
1.35815e-06
-3.70397e-06
2.93547e-08
1.55055e-06
-3.37035e-06
2.48231e-08
1.70275e-06
-2.8795e-06
1.64772e-08
1.79878e-06
-2.23589e-06
5.03302e-09
1.83187e-06
-1.45212e-06
-7.25399e-09
1.80616e-06
-5.32222e-07
-1.77063e-08
1.73126e-06
5.35804e-07
-2.41094e-08
1.61336e-06
1.76783e-06
-2.60023e-08
1.44904e-06
3.1525e-06
-2.47632e-08
1.23014e-06
4.60829e-06
-2.20611e-08
9.58886e-07
5.9451e-06
-1.80549e-08
6.57685e-07
6.85909e-06
-1.19273e-08
3.56873e-07
7.101e-06
-4.42681e-09
1.10561e-07
6.29734e-06
1.14385e-09
3.2297e-06
2.42599e-09
-3.97734e-08
1.07802e-06
2.61977e-08
-1.29145e-07
2.35429e-06
6.31144e-08
-2.38566e-07
2.91257e-06
8.4759e-08
-3.47384e-07
3.01036e-06
9.18223e-08
-4.40892e-07
2.83609e-06
8.71237e-08
-5.10571e-07
2.43494e-06
7.37899e-08
-5.58166e-07
1.83593e-06
5.43065e-08
-5.91342e-07
1.12495e-06
3.1413e-08
-6.1678e-07
3.79341e-07
8.12798e-09
-6.36927e-07
-3.49398e-07
-1.14871e-08
-6.47809e-07
-1.03548e-06
-2.53181e-08
-6.40802e-07
-1.67197e-06
-3.24606e-08
-6.06678e-07
-2.25875e-06
-3.32627e-08
-5.38084e-07
-2.79363e-06
-2.91195e-08
-4.31403e-07
-3.26642e-06
-2.18036e-08
-2.87343e-07
-3.65909e-06
-1.31444e-08
-1.10319e-07
-3.95159e-06
-4.73423e-09
9.29032e-08
-4.13109e-06
2.83798e-09
3.15604e-07
-4.19567e-06
8.77426e-09
5.52955e-07
-4.14497e-06
1.33529e-08
7.98606e-07
-3.96578e-06
1.63285e-08
1.04084e-06
-3.62934e-06
1.68861e-08
1.25887e-06
-3.11126e-06
1.38195e-08
1.42778e-06
-2.41138e-06
6.60797e-09
1.52758e-06
-1.54832e-06
-3.60461e-09
1.55098e-06
-5.4151e-07
-1.41465e-08
1.50343e-06
6.04628e-07
-2.1327e-08
1.39757e-06
1.89678e-06
-2.31843e-08
1.24261e-06
3.3276e-06
-2.03364e-08
1.04042e-06
4.82545e-06
-1.53301e-08
7.95777e-07
6.19931e-06
-1.0166e-08
5.29623e-07
7.12933e-06
-4.93916e-09
2.71759e-07
7.35768e-06
9.89908e-11
7.48395e-08
6.49023e-06
2.77752e-09
3.30078e-06
2.38096e-09
-1.07347e-08
1.07184e-06
1.64674e-08
-5.77815e-08
2.35645e-06
4.45251e-08
-1.36868e-07
2.92974e-06
6.16286e-08
-2.29886e-07
3.03858e-06
6.45542e-08
-3.25645e-07
2.87655e-06
5.50945e-08
-4.25062e-07
2.49736e-06
3.68198e-08
-5.28608e-07
1.92605e-06
1.32732e-08
-6.35726e-07
1.24418e-06
-1.2229e-08
-7.42961e-07
5.22673e-07
-3.61951e-08
-8.42812e-07
-1.94336e-07
-5.52807e-08
-9.27443e-07
-8.83033e-07
-6.78487e-08
-9.87163e-07
-1.53858e-06
-7.36625e-08
-1.01445e-06
-2.15773e-06
-7.36732e-08
-1.0041e-06
-2.73454e-06
-6.93181e-08
-9.53591e-07
-3.25465e-06
-6.21046e-08
-8.63517e-07
-3.69545e-06
-5.34871e-08
-7.3794e-07
-4.03222e-06
-4.4682e-08
-5.83173e-07
-4.24913e-06
-3.64336e-08
-4.04268e-07
-4.34539e-06
-2.88789e-08
-2.03528e-07
-4.32361e-06
-2.1794e-08
1.83999e-08
-4.17243e-06
-1.49729e-08
2.58053e-07
-3.85995e-06
-8.76256e-09
5.02326e-07
-3.35089e-06
-4.40841e-09
7.28782e-07
-2.63397e-06
-3.67034e-09
9.09413e-07
-1.72121e-06
-7.60297e-09
1.01838e-06
-6.35735e-07
-1.46354e-08
1.04482e-06
5.9961e-07
-2.13375e-08