/*--------------------------------*- C++ -*----------------------------------*\
| =========                 |                                                 |
| \\      /  F ield         | OpenFOAM: The Open Source CFD Toolbox           |
|  \\    /   O peration     | Version:  v2006                                 |
|   \\  /    A nd           | Website:  www.openfoam.com                      |
|    \\/     M anipulation  |                                                 |
\*---------------------------------------------------------------------------*/
FoamFile
{
    version     2.0;
    format      ascii;
    class       volScalarField;
    location    "24";
    object      T;
}
// * * * * * * * * * * * * * * * * * * * * * * * * * * * * * * * * * * * * * //

dimensions      [0 0 0 1 0 0 0];


internalField   nonuniform List<scalar> 
78750
(
299.108
298.31
298.229
298.196
298.176
298.162
298.152
298.144
298.137
298.131
298.125
298.12
298.115
298.109
298.104
298.099
298.094
298.089
298.084
298.079
298.074
298.068
298.063
298.058
298.052
298.047
298.041
298.035
298.029
298.023
298.025
298.066
298.241
298.686
299.432
299.577
298.937
298.58
298.408
298.325
298.281
298.256
298.241
298.23
298.222
298.213
298.205
298.197
298.189
298.18
298.172
298.163
298.154
298.144
298.134
298.124
298.114
298.103
298.092
298.08
298.067
298.055
298.042
298.03
298.025
298.042
298.122
298.332
298.749
299.449
299.676
299.129
298.757
298.521
298.388
298.328
298.306
298.299
298.296
298.294
298.292
298.288
298.283
298.278
298.272
298.265
298.257
298.248
298.239
298.229
298.218
298.207
298.196
298.185
298.175
298.168
298.165
298.169
298.186
298.227
298.312
298.47
298.725
299.154
299.879
299.703
299.209
298.893
298.681
298.534
298.445
298.398
298.376
298.366
298.361
298.36
298.359
298.359
298.359
298.359
298.358
298.356
298.352
298.348
298.341
298.333
298.324
298.312
298.3
298.287
298.275
298.267
298.265
298.277
298.319
298.416
298.598
298.871
299.306
300.044
299.763
299.336
299.051
298.853
298.695
298.575
298.492
298.439
298.407
298.391
298.386
298.386
298.391
298.398
298.405
298.413
298.419
298.424
298.427
298.428
298.426
298.421
298.413
298.403
298.393
298.384
298.383
298.398
298.439
298.523
298.668
298.887
299.189
299.663
300.432
299.773
299.36
299.083
298.891
298.732
298.603
298.509
298.449
298.414
298.397
298.393
298.398
298.408
298.423
298.441
298.46
298.479
298.497
298.512
298.524
298.532
298.536
298.535
298.53
298.52
298.507
298.496
298.496
298.524
298.601
298.755
299.002
299.342
299.846
300.629
299.797
299.417
299.145
298.953
298.796
298.664
298.561
298.488
298.442
298.42
298.415
298.424
298.444
298.471
298.503
298.534
298.564
298.59
298.612
298.629
298.642
298.65
298.654
298.653
298.647
298.638
298.627
298.624
298.647
298.725
298.89
299.161
299.535
300.076
300.864
299.806
299.441
299.171
298.978
298.821
298.685
298.577
298.501
298.457
298.439
298.442
298.462
298.492
298.529
298.568
298.606
298.639
298.666
298.688
298.705
298.719
298.729
298.735
298.737
298.737
298.733
298.728
298.725
298.74
298.799
298.946
299.216
299.602
300.152
300.939
299.819
299.473
299.203
299.008
298.852
298.717
298.607
298.53
298.487
298.474
298.485
298.514
298.554
298.598
298.642
298.68
298.713
298.738
298.759
298.776
298.788
298.798
298.804
298.809
298.811
298.813
298.815
298.823
298.845
298.907
299.049
299.315
299.707
300.268
301.069
299.828
299.497
299.23
299.037
298.883
298.75
298.644
298.572
298.536
298.532
298.553
298.591
298.635
298.68
298.721
298.755
298.782
298.804
298.821
298.835
298.846
298.854
298.86
298.864
298.868
298.872
298.881
298.898
298.935
299.008
299.155
299.424
299.828
300.413
301.242
299.839
299.527
299.268
299.079
298.931
298.804
298.702
298.635
298.604
298.607
298.632
298.671
298.714
298.754
298.789
298.817
298.839
298.858
298.873
298.885
298.895
298.903
298.909
298.914
298.918
298.926
298.941
298.973
299.034
299.145
299.334
299.641
300.075
300.688
301.541
299.846
299.546
299.296
299.113
298.97
298.85
298.756
298.699
298.679
298.689
298.718
298.755
298.791
298.824
298.851
298.873
298.891
298.907
298.92
298.931
298.94
298.947
298.953
298.958
298.963
298.971
298.989
299.027
299.106
299.251
299.491
299.853
300.325
300.956
301.806
299.853
299.567
299.325
299.148
299.011
298.896
298.812
298.765
298.754
298.767
298.793
298.823
298.852
298.878
298.899
298.917
298.932
298.945
298.958
298.968
298.978
298.986
298.992
298.998
299.005
299.014
299.033
299.074
299.16
299.324
299.601
300.008
300.505
301.134
301.96
299.858
299.582
299.349
299.178
299.045
298.937
298.863
298.827
298.822
298.835
298.857
298.88
298.903
298.923
298.94
298.955
298.968
298.98
298.992
299.003
299.013
299.022
299.031
299.039
299.048
299.059
299.078
299.115
299.194
299.352
299.628
300.044
300.542
301.156
301.96
299.862
299.593
299.367
299.201
299.072
298.97
298.906
298.877
298.874
298.885
298.902
298.921
298.939
298.955
298.969
298.982
298.994
299.006
299.018
299.03
299.041
299.053
299.065
299.079
299.093
299.111
299.135
299.176
299.254
299.404
299.666
300.064
300.54
301.132
301.93
299.87
299.612
299.394
299.234
299.108
299.01
298.95
298.922
298.917
298.925
298.938
298.952
298.966
298.98
298.992
299.003
299.014
299.026
299.038
299.051
299.064
299.079
299.096
299.115
299.137
299.165
299.2
299.25
299.335
299.483
299.734
300.108
300.559
301.139
301.942
299.883
299.65
299.448
299.296
299.178
299.084
299.02
298.985
298.971
298.969
298.974
298.982
298.991
299.001
299.01
299.019
299.029
299.04
299.052
299.065
299.08
299.097
299.118
299.144
299.176
299.215
299.266
299.334
299.436
299.595
299.845
300.204
300.642
301.221
302.037
299.896
299.688
299.505
299.365
299.256
299.166
299.1
299.056
299.031
299.019
299.014
299.014
299.016
299.021
299.027
299.034
299.042
299.051
299.063
299.076
299.092
299.111
299.134
299.164
299.203
299.253
299.318
299.405
299.526
299.703
299.962
300.32
300.759
301.35
302.178
299.906
299.717
299.551
299.422
299.32
299.235
299.166
299.116
299.082
299.06
299.047
299.04
299.037
299.038
299.041
299.046
299.052
299.061
299.072
299.085
299.101
299.121
299.147
299.181
299.226
299.284
299.362
299.467
299.609
299.808
300.086
300.453
300.9
301.504
302.342
299.912
299.735
299.58
299.458
299.36
299.276
299.205
299.15
299.111
299.085
299.068
299.058
299.053
299.052
299.053
299.056
299.062
299.069
299.079
299.092
299.109
299.13
299.158
299.195
299.243
299.307
299.393
299.51
299.67
299.889
300.187
300.57
301.031
301.65
302.493
299.916
299.747
299.6
299.481
299.385
299.3
299.228
299.172
299.132
299.104
299.086
299.075
299.069
299.066
299.066
299.069
299.074
299.081
299.091
299.103
299.12
299.143
299.173
299.212
299.264
299.332
299.425
299.552
299.727
299.966
300.286
300.688
301.164
301.794
302.639
299.919
299.757
299.614
299.499
299.403
299.318
299.246
299.191
299.151
299.123
299.106
299.094
299.088
299.085
299.085
299.088
299.094
299.102
299.112
299.125
299.141
299.164
299.195
299.236
299.29
299.361
299.457
299.589
299.773
300.027
300.365
300.783
301.273
301.911
302.755
299.923
299.767
299.628
299.516
299.422
299.339
299.269
299.215
299.176
299.15
299.132
299.121
299.115
299.113
299.114
299.118
299.124
299.133
299.143
299.156
299.172
299.194
299.226
299.269
299.327
299.404
299.506
299.645
299.838
300.102
300.454
300.884
301.383
302.026
302.865
299.928
299.781
299.65
299.542
299.453
299.374
299.307
299.254
299.215
299.188
299.17
299.158
299.15
299.146
299.146
299.15
299.156
299.164
299.174
299.185
299.2
299.221
299.25
299.294
299.355
299.439
299.551
299.699
299.9
300.173
300.533
300.969
301.471
302.112
302.941
299.935
299.802
299.68
299.579
299.496
299.423
299.36
299.308
299.268
299.238
299.216
299.199
299.187
299.179
299.175
299.176
299.181
299.188
299.198
299.21
299.224
299.243
299.269
299.306
299.363
299.448
299.571
299.737
299.955
300.239
300.604
301.039
301.54
302.179
303.004
299.942
299.823
299.712
299.62
299.543
299.476
299.417
299.366
299.324
299.289
299.26
299.236
299.218
299.205
299.199
299.198
299.202
299.21
299.221
299.234
299.25
299.269
299.293
299.322
299.362
299.425
299.529
299.691
299.92
300.224
300.608
301.057
301.562
302.203
303.031
299.948
299.839
299.739
299.654
299.582
299.518
299.46
299.406
299.359
299.318
299.283
299.256
299.236
299.224
299.219
299.219
299.225
299.235
299.247
299.263
299.283
299.309
299.34
299.373
299.41
299.458
299.535
299.664
299.869
300.167
300.561
301.032
301.555
302.207
303.047
299.95
299.847
299.751
299.669
299.597
299.533
299.473
299.417
299.368
299.326
299.294
299.271
299.256
299.248
299.244
299.245
299.25
299.259
299.272
299.291
299.316
299.352
299.396
299.442
299.487
299.535
299.601
299.709
299.887
300.164
300.551
301.028
301.563
302.228
303.083
299.952
299.853
299.76
299.68
299.61
299.547
299.488
299.435
299.389
299.352
299.325
299.305
299.291
299.281
299.274
299.27
299.27
299.276
299.288
299.308
299.338
299.384
299.446
299.514
299.579
299.641
299.71
299.809
299.971
300.23
300.607
301.079
301.619
302.3
303.17
299.955
299.862
299.775
299.699
299.633
299.574
299.52
299.471
299.429
299.395
299.368
299.346
299.328
299.312
299.298
299.289
299.286
299.29
299.303
299.324
299.359
299.414
299.49
299.578
299.668
299.755
299.848
299.964
300.131
300.381
300.741
301.193
301.731
302.432
303.321
299.958
299.87
299.788
299.717
299.653
299.597
299.547
299.5
299.46
299.425
299.396
299.369
299.345
299.324
299.307
299.297
299.295
299.302
299.318
299.346
299.392
299.464
299.565
299.681
299.791
299.887
299.986
300.115
300.301
300.569
300.931
301.365
301.895
302.61
303.502
299.962
299.881
299.805
299.737
299.676
299.622
299.574
299.529
299.488
299.451
299.416
299.384
299.354
299.331
299.314
299.305
299.304
299.31
299.324
299.348
299.392
299.469
299.594
299.762
299.946
300.111
300.25
300.392
300.578
300.841
301.19
301.603
302.123
302.842
303.725
299.964
299.888
299.816
299.752
299.694
299.643
299.595
299.547
299.499
299.452
299.408
299.37
299.342
299.325
299.319
299.32
299.325
299.332
299.342
299.355
299.376
299.413
299.488
299.626
299.835
300.085
300.331
300.557
300.787
301.06
301.398
301.794
302.301
303.009
303.874
299.965
299.891
299.82
299.755
299.694
299.632
299.566
299.498
299.436
299.384
299.347
299.326
299.319
299.322
299.33
299.341
299.354
299.368
299.383
299.399
299.42
299.449
299.497
299.584
299.737
299.97
300.262
300.571
300.874
301.186
301.531
301.919
302.412
303.097
303.938
299.962
299.879
299.799
299.722
299.644
299.563
299.486
299.422
299.377
299.353
299.345
299.347
299.355
299.364
299.374
299.384
299.394
299.405
299.416
299.429
299.443
299.463
299.495
299.551
299.652
299.829
300.098
300.443
300.821
301.203
301.589
301.989
302.477
303.146
303.97
299.957
299.865
299.776
299.692
299.608
299.526
299.459
299.412
299.386
299.375
299.373
299.376
299.38
299.386
299.394
299.402
299.412
299.424
299.436
299.45
299.465
299.484
299.509
299.547
299.61
299.725
299.924
300.229
300.628
301.077
301.535
301.982
302.485
303.144
303.952
299.953
299.855
299.762
299.678
299.597
299.523
299.467
299.431
299.412
299.403
299.401
299.403
299.407
299.413
299.42
299.429
299.439
299.452
299.465
299.481
299.498
299.518
299.544
299.578
299.627
299.708
299.847
300.082
300.436
300.893
301.402
301.905
302.436
303.094
303.893
299.954
299.858
299.769
299.691
299.619
299.555
299.506
299.473
299.453
299.441
299.435
299.432
299.432
299.434
299.439
299.446
299.455
299.466
299.48
299.497
299.515
299.538
299.567
299.603
299.651
299.722
299.833
300.017
300.312
300.736
301.257
301.801
302.363
303.027
303.828
299.959
299.871
299.79
299.72
299.657
299.602
299.556
299.522
299.497
299.48
299.468
299.461
299.457
299.457
299.46
299.466
299.475
299.487
299.501
299.518
299.539
299.564
299.595
299.635
299.687
299.758
299.862
300.022
300.276
300.655
301.154
301.707
302.283
302.957
303.77
299.963
299.884
299.81
299.745
299.688
299.637
299.593
299.558
299.531
299.511
299.497
299.488
299.482
299.481
299.482
299.487
299.495
299.507
299.522
299.54
299.561
299.588
299.623
299.669
299.728
299.806
299.913
300.069
300.304
300.653
301.124
301.665
302.243
302.927
303.756
299.967
299.895
299.827
299.767
299.713
299.666
299.625
299.591
299.564
299.543
299.527
299.516
299.509
299.506
299.506
299.51
299.517
299.528
299.542
299.561
299.584
299.614
299.653
299.705
299.773
299.862
299.982
300.146
300.38
300.711
301.157
301.673
302.242
302.935
303.781
299.971
299.908
299.847
299.792
299.743
299.699
299.661
299.629
299.602
299.58
299.563
299.55
299.54
299.535
299.533
299.535
299.541
299.551
299.565
299.583
299.606
299.636
299.678
299.734
299.809
299.91
300.044
300.224
300.469
300.802
301.234
301.73
302.288
302.988
303.842
299.975
299.92
299.867
299.817
299.773
299.733
299.697
299.665
299.637
299.614
299.595
299.58
299.569
299.562
299.559
299.56
299.566
299.576
299.59
299.608
299.632
299.663
299.705
299.764
299.843
299.949
300.092
300.283
300.539
300.877
301.304
301.784
302.334
303.035
303.891
299.979
299.932
299.885
299.841
299.8
299.762
299.729
299.698
299.671
299.648
299.629
299.613
299.601
299.594
299.592
299.593
299.599
299.61
299.624
299.642
299.664
299.695
299.738
299.797
299.879
299.991
300.143
300.347
300.616
300.963
301.389
301.861
302.404
303.105
303.96
299.983
299.942
299.901
299.86
299.823
299.788
299.757
299.73
299.704
299.682
299.664
299.648
299.637
299.631
299.629
299.632
299.64
299.651
299.665
299.683
299.704
299.733
299.772
299.827
299.903
300.011
300.162
300.368
300.644
300.999
301.43
301.902
302.442
303.14
303.988
299.986
299.951
299.915
299.88
299.846
299.816
299.788
299.763
299.741
299.721
299.705
299.693
299.684
299.68
299.68
299.685
299.693
299.705
299.719
299.737
299.758
299.785
299.823
299.875
299.95
300.055
300.204
300.411
300.69
301.05
301.483
301.953
302.49
303.185
304.031
299.989
299.962
299.932
299.903
299.874
299.849
299.825
299.804
299.786
299.77
299.757
299.747
299.74
299.735
299.734
299.736
299.741
299.75
299.762
299.779
299.8
299.827
299.862
299.909
299.975
300.07
300.207
300.404
300.678
301.038
301.477
301.952
302.491
303.183
304.03
299.993
299.973
299.95
299.924
299.899
299.873
299.847
299.822
299.797
299.775
299.754
299.737
299.724
299.714
299.709
299.709
299.713
299.723
299.738
299.761
299.791
299.832
299.883
299.944
300.018
300.114
300.246
300.432
300.694
301.045
301.48
301.955
302.496
303.196
304.058
299.994
299.971
299.937
299.892
299.836
299.774
299.708
299.646
299.591
299.544
299.507
299.48
299.463
299.455
299.457
299.469
299.489
299.519
299.557
299.603
299.657
299.718
299.791
299.878
299.977
300.092
300.231
300.414
300.667
301.011
301.447
301.932
302.481
303.193
304.073
299.974
299.906
299.814
299.702
299.582
299.471
299.379
299.308
299.258
299.225
299.206
299.199
299.201
299.212
299.231
299.259
299.295
299.339
299.391
299.449
299.514
299.587
299.673
299.776
299.898
300.039
300.203
300.402
300.659
300.998
301.428
301.914
302.474
303.206
304.114
299.936
299.796
299.647
299.508
299.399
299.327
299.285
299.264
299.255
299.255
299.259
299.267
299.28
299.298
299.323
299.357
299.401
299.453
299.51
299.568
299.625
299.683
299.747
299.826
299.926
300.054
300.215
300.417
300.679
301.023
301.458
301.949
302.517
303.266
304.191
299.92
299.763
299.63
299.535
299.472
299.423
299.378
299.339
299.309
299.287
299.272
299.262
299.256
299.256
299.265
299.286
299.326
299.387
299.469
299.564
299.663
299.757
299.845
299.934
300.038
300.167
300.329
300.533
300.796
301.139
301.566
302.048
302.621
303.39
304.33
299.946
299.838
299.736
299.636
299.535
299.44
299.369
299.329
299.312
299.306
299.303
299.297
299.286
299.271
299.252
299.233
299.22
299.226
299.264
299.344
299.464
299.609
299.759
299.902
300.044
300.198
300.381
300.606
300.888
301.244
301.678
302.159
302.736
303.519
304.464
299.956
299.861
299.756
299.647
299.55
299.489
299.466
299.468
299.477
299.484
299.484
299.481
299.475
299.466
299.453
299.432
299.403
299.367
299.335
299.33
299.375
299.484
299.648
299.841
300.041
300.244
300.462
300.71
301.007
301.37
301.8
302.275
302.852
303.638
304.574
299.949
299.842
299.734
299.638
299.571
299.538
299.526
299.516
299.5
299.479
299.458
299.44
299.427
299.42
299.418
299.421
299.424
299.424
299.415
299.4
299.395
299.428
299.526
299.694
299.912
300.159
300.43
300.73
301.071
301.463
301.906
302.382
302.958
303.739
304.666
299.954
299.863
299.786
299.727
299.689
299.663
299.638
299.607
299.572
299.536
299.505
299.481
299.462
299.449
299.44
299.437
299.438
299.441
299.445
299.446
299.451
299.472
299.534
299.659
299.853
300.101
300.386
300.707
301.073
301.491
301.953
302.439
303.018
303.793
304.71
299.971
299.912
299.856
299.805
299.752
299.697
299.639
299.584
299.535
299.497
299.47
299.452
299.442
299.439
299.442
299.45
299.462
299.474
299.478
299.471
299.457
299.448
299.47
299.552
299.718
299.968
300.285
300.65
301.059
301.512
302.001
302.502
303.089
303.869
304.783
299.967
299.893
299.816
299.737
299.662
299.595
299.541
299.502
299.478
299.464
299.458
299.458
299.461
299.469
299.482
299.498
299.519
299.539
299.555
299.562
299.559
299.553
299.56
299.608
299.725
299.929
300.219
300.584
301.012
301.493
302.008
302.526
303.122
303.904
304.807
299.958
299.871
299.79
299.719
299.662
299.618
299.585
299.56
299.54
299.526
299.516
299.512
299.514
299.523
299.542
299.568
299.598
299.626
299.647
299.665
299.685
299.714
299.759
299.834
299.955
300.141
300.403
300.746
301.163
301.643
302.153
302.665
303.26
304.03
304.902
299.965
299.893
299.824
299.76
299.699
299.643
299.594
299.555
299.526
299.506
299.493
299.486
299.486
299.495
299.515
299.551
299.603
299.664
299.721
299.77
299.815
299.864
299.93
300.023
300.155
300.34
300.593
300.924
301.332
301.803
302.298
302.794
303.379
304.125
304.96
299.965
299.888
299.809
299.731
299.663
299.61
299.572
299.547
299.531
299.519
299.51
299.505
299.504
299.509
299.523
299.551
299.599
299.67
299.753
299.838
299.917
299.996
300.086
300.199
300.347
300.543
300.799
301.126
301.525
301.98
302.445
302.918
303.483
304.19
304.981
299.96
299.873
299.788
299.714
299.657
299.616
299.586
299.562
299.543
299.529
299.518
299.513
299.514
299.52
299.534
299.561
299.605
299.673
299.765
299.873
299.985
300.098
300.219
300.358
300.529
300.742
301.008
301.334
301.719
302.144
302.568
303.01
303.545
304.202
304.951
299.957
299.868
299.789
299.726
299.68
299.647
299.62
299.597
299.575
299.555
299.539
299.527
299.522
299.524
299.535
299.559
299.6
299.665
299.757
299.873
300.006
300.145
300.291
300.454
300.645
300.875
301.153
301.481
301.856
302.254
302.644
303.054
303.555
304.17
304.894
299.965
299.894
299.832
299.78
299.737
299.699
299.664
299.629
299.596
299.567
299.543
299.525
299.514
299.511
299.516
299.533
299.567
299.625
299.716
299.843
299.997
300.164
300.336
300.519
300.726
300.968
301.251
301.575
301.931
302.299
302.659
303.043
303.516
304.107
304.826
299.974
299.917
299.861
299.81
299.763
299.721
299.683
299.649
299.618
299.592
299.571
299.556
299.546
299.54
299.538
299.542
299.554
299.582
299.639
299.739
299.891
300.081
300.287
300.497
300.717
300.963
301.246
301.566
301.914
302.268
302.612
302.978
303.435
304.024
304.76
299.973
299.913
299.854
299.801
299.753
299.711
299.674
299.64
299.61
299.586
299.567
299.555
299.548
299.547
299.551
299.562
299.577
299.6
299.635
299.698
299.807
299.975
300.192
300.429
300.671
300.924
301.202
301.51
301.844
302.185
302.521
302.882
303.339
303.951
304.719
299.978
299.93
299.883
299.838
299.797
299.757
299.719
299.684
299.653
299.628
299.608
299.594
299.584
299.577
299.575
299.579
299.591
299.609
299.638
299.683
299.759
299.885
300.074
300.316
300.58
300.85
301.13
301.433
301.759
302.097
302.434
302.799
303.27
303.914
304.715
299.981
299.936
299.887
299.835
299.782
299.731
299.687
299.652
299.628
299.613
299.605
299.599
299.595
299.593
299.593
299.596
299.605
299.621
299.645
299.681
299.739
299.834
299.984
300.201
300.47
300.761
301.057
301.362
301.682
302.017
302.362
302.737
303.222
303.891
304.712
299.978
299.927
299.871
299.815
299.764
299.724
299.698
299.685
299.681
299.681
299.681
299.678
299.672
299.662
299.65
299.641
299.637
299.641
299.657
299.685
299.731
299.806
299.927
300.112
300.364
300.664
300.985
301.315
301.655
302.002
302.351
302.73
303.22
303.9
304.731
299.978
299.93
299.882
299.838
299.803
299.778
299.765
299.76
299.76
299.762
299.764
299.764
299.761
299.752
299.735
299.714
299.692
299.676
299.671
299.682
299.713
299.768
299.861
300.013
300.239
300.534
300.867
301.209
301.556
301.914
302.282
302.673
303.171
303.873
304.727
299.983
299.946
299.909
299.876
299.848
299.825
299.809
299.8
299.798
299.803
299.812
299.823
299.832
299.836
299.831
299.815
299.788
299.753
299.721
299.702
299.706
299.735
299.797
299.906
300.088
300.366
300.727
301.13
301.532
301.918
302.294
302.696
303.213
303.931
304.778
299.987
299.955
299.922
299.888
299.857
299.831
299.814
299.812
299.823
299.844
299.869
299.894
299.913
299.921
299.918
299.904
299.88
299.847
299.807
299.767
299.737
299.73
299.752
299.811
299.926
300.129
300.446
300.866
301.34
301.811
302.242
302.657
303.157
303.842
304.661
299.982
299.938
299.891
299.845
299.809
299.791
299.797
299.827
299.875
299.936
299.994
300.033
300.045
300.03
299.996
299.954
299.911
299.871
299.837
299.811
299.796
299.797
299.814
299.855
299.933
300.075
300.312
300.66
301.103
301.594
302.076
302.525
303.042
303.756
304.628
299.971
299.905
299.84
299.789
299.768
299.784
299.83
299.913
300.027
300.134
300.195
300.196
300.154
300.095
300.036
299.985
299.942
299.909
299.884
299.869
299.864
299.87
299.891
299.933
300.011
300.147
300.367
300.688
301.097
301.56
302.038
302.507
303.062
303.822
304.699
299.961
299.88
299.809
299.763
299.748
299.762
299.806
299.885
299.994
300.108
300.199
300.249
300.258
300.235
300.196
300.15
300.105
300.063
300.027
299.998
299.978
299.969
299.973
299.997
300.054
300.171
300.38
300.715
301.169
301.683
302.177
302.634
303.161
303.854
304.632
299.961
299.881
299.813
299.759
299.721
299.702
299.705
299.739
299.824
299.959
300.114
300.246
300.326
300.352
300.337
300.3
300.255
300.21
300.171
300.138
300.112
300.092
300.08
300.077
300.094
300.146
300.263
300.492
300.871
301.382
301.935
302.432
302.945
303.604
304.436
299.969
299.908
299.86
299.823
299.795
299.774
299.759
299.759
299.789
299.871
300.01
300.179
300.332
300.43
300.466
300.456
300.419
300.372
300.324
300.281
300.245
300.218
300.198
300.189
300.195
300.225
300.297
300.437
300.691
301.099
301.641
302.2
302.811
303.625
304.623
299.98
299.932
299.885
299.848
299.824
299.811
299.802
299.793
299.787
299.803
299.872
300.01
300.194
300.372
300.499
300.562
300.571
300.548
300.51
300.469
300.429
300.394
300.366
300.352
300.362
300.417
300.544
300.764
301.084
301.5
301.985
302.504
303.134
303.961
304.829
299.965
299.889
299.827
299.793
299.788
299.8
299.828
299.874
299.94
300.023
300.123
300.241
300.372
300.497
300.592
300.645
300.659
300.645
300.618
300.586
300.556
300.529
300.506
300.491
300.494
300.537
300.655
300.889
301.257
301.725
302.212
302.668
303.183
303.806
304.427
299.961
299.895
299.86
299.846
299.837
299.829
299.824
299.833
299.875
299.972
300.133
300.339
300.55
300.717
300.815
300.851
300.843
300.812
300.77
300.729
300.694
300.667
300.647
300.633
300.626
300.633
300.671
300.77
300.973
301.316
301.779
302.275
302.763
303.313
304.083
299.987
299.969
299.961
299.953
299.945
299.937
299.927
299.911
299.896
299.91
299.994
300.172
300.423
300.674
300.849
300.924
300.925
300.887
300.834
300.781
300.734
300.698
300.669
300.644
300.619
300.593
300.57
300.575
300.67
300.943
301.415
301.937
302.505
303.337
304.54
299.99
299.959
299.918
299.884
299.87
299.872
299.883
299.894
299.897
299.898
299.931
300.046
300.279
300.602
300.91
301.096
301.136
301.085
300.998
300.906
300.825
300.766
300.727
300.7
300.678
300.662
300.668
300.732
300.911
301.254
301.728
302.286
303.057
304.209
305.527
299.977
299.926
299.885
299.865
299.864
299.872
299.879
299.877
299.857
299.82
299.781
299.783
299.89
300.15
300.536
300.928
301.193
301.284
301.247
301.154
301.051
300.967
300.922
300.919
300.953
301.025
301.148
301.345
301.636
302.019
302.485
303.099
303.971
305.041
306.126
299.983
299.945
299.921
299.923
299.942
299.969
299.994
300.006
299.999
299.978
299.955
299.943
299.973
300.089
300.333
300.688
301.067
301.363
301.514
301.537
301.486
301.419
301.379
301.393
301.47
301.605
301.795
302.04
302.345
302.709
303.163
303.773
304.554
305.413
306.285
299.967
299.903
299.868
299.869
299.89
299.921
299.951
299.969
299.968
299.947
299.913
299.883
299.874
299.908
300.016
300.228
300.544
300.923
301.292
301.583
301.76
301.833
301.847
301.858
301.909
302.027
302.217
302.465
302.753
303.078
303.47
303.987
304.645
305.373
306.151
299.978
299.936
299.906
299.89
299.891
299.908
299.94
299.986
300.037
300.07
300.069
300.035
299.982
299.934
299.913
299.942
300.049
300.255
300.56
300.934
301.325
301.679
301.957
302.152
302.286
302.403
302.539
302.715
302.934
303.194
303.509
303.923
304.484
305.166
305.94
299.982
299.94
299.909
299.899
299.91
299.935
299.971
300.016
300.064
300.107
300.133
300.132
300.103
300.058
300.012
299.98
299.974
300.012
300.116
300.305
300.586
300.942
301.338
301.727
302.072
302.355
302.588
302.795
303.001
303.226
303.493
303.842
304.343
305.02
305.824
299.971
299.916
299.893
299.901
299.925
299.956
299.99
300.026
300.061
300.089
300.108
300.112
300.1
300.077
300.048
300.02
300.003
300.001
300.026
300.093
300.222
300.434
300.736
301.114
301.532
301.94
302.296
302.592
302.852
303.109
303.389
303.729
304.199
304.864
305.671
299.974
299.928
299.901
299.887
299.882
299.885
299.896
299.919
299.955
300.002
300.054
300.101
300.134
300.147
300.138
300.116
300.088
300.065
300.055
300.066
300.111
300.211
300.389
300.665
301.04
301.487
301.949
302.369
302.723
303.032
303.333
303.674
304.141
304.816
305.64
299.992
299.976
299.966
299.963
299.961
299.958
299.952
299.945
299.941
299.947
299.968
300.008
300.062
300.12
300.17
300.199
300.202
300.184
300.158
300.136
300.132
300.157
300.234
300.391
300.652
301.026
301.486
301.973
302.43
302.835
303.204
303.578
304.058
304.745
305.575
300.005
300.01
300.016
300.022
300.026
300.029
300.031
300.031
300.028
300.02
300.007
299.994
299.992
300.01
300.052
300.111
300.17
300.214
300.232
300.23
300.222
300.226
300.261
300.351
300.528
300.819
301.223
301.706
302.208
302.68
303.104
303.512
304.01
304.708
305.535
299.999
299.989
299.975
299.961
299.954
299.957
299.97
299.989
300.012
300.036
300.058
300.071
300.071
300.061
300.052
300.058
300.087
300.139
300.196
300.239
300.258
300.265
300.281
300.331
300.452
300.685
301.052
301.536
302.077
302.604
303.069
303.496
304.002
304.696
305.503
300.004
300.006
300.009
300.018
300.037
300.06
300.082
300.101
300.116
300.124
300.128
300.134
300.144
300.155
300.162
300.164
300.164
300.171
300.194
300.233
300.274
300.303
300.323
300.351
300.417
300.565
300.847
301.28
301.828
302.406
302.931
303.388
303.894
304.569
305.371
300.003
300.003
300.007
300.018
300.036
300.058
300.081
300.105
300.126
300.139
300.145
300.151
300.161
300.178
300.202
300.231
300.258
300.281
300.297
300.313
300.335
300.361
300.388
300.421
300.476
300.582
300.788
301.134
301.617
302.178
302.727
303.215
303.761
304.509
305.364
300.005
300.012
300.028
300.053
300.084
300.114
300.144
300.171
300.19
300.201
300.205
300.207
300.213
300.226
300.251
300.288
300.336
300.384
300.419
300.436
300.44
300.446
300.464
300.502
300.573
300.702
300.927
301.284
301.771
302.33
302.868
303.356
303.904
304.595
305.317
300.008
300.019
300.035
300.056
300.082
300.11
300.139
300.168
300.195
300.215
300.225
300.228
300.229
300.237
300.255
300.287
300.335
300.396
300.46
300.51
300.537
300.549
300.559
300.583
300.638
300.747
300.951
301.289
301.771
302.336
302.869
303.321
303.793
304.361
304.998
300.008
300.022
300.04
300.063
300.094
300.129
300.168
300.208
300.245
300.272
300.286
300.288
300.289
300.296
300.314
300.345
300.389
300.443
300.498
300.544
300.574
300.59
300.6
300.614
300.64
300.696
300.81
301.03
301.404
301.928
302.51
303.021
303.524
304.133
304.885
300.014
300.037
300.063
300.092
300.124
300.159
300.197
300.239
300.282
300.321
300.346
300.357
300.359
300.367
300.39
300.434
300.499
300.579
300.652
300.696
300.706
300.697
300.689
300.693
300.716
300.769
300.869
301.049
301.361
301.83
302.386
302.89
303.41
304.091
304.971
300.013
300.034
300.055
300.078
300.104
300.133
300.168
300.209
300.257
300.309
300.356
300.383
300.389
300.386
300.394
300.429
300.498
300.602
300.72
300.808
300.836
300.812
300.773
300.744
300.744
300.793
300.912
301.127
301.46
301.9
302.378
302.847
303.424
304.282
305.346
300.019
300.05
300.081
300.111
300.142
300.172
300.204
300.239
300.283
300.336
300.398
300.454
300.486
300.489
300.479
300.482
300.519
300.608
300.746
300.903
301.023
301.069
301.055
301.024
301.016
301.062
301.191
301.42
301.759
302.186
302.65
303.18
303.89
304.814
305.81
300.016
300.045
300.077
300.113
300.149
300.182
300.209
300.234
300.261
300.299
300.353
300.424
300.5
300.552
300.565
300.549
300.535
300.558
300.64
300.791
300.986
301.172
301.3
301.37
301.422
301.511
301.681
301.945
302.28
302.651
303.056
303.555
304.213
304.979
305.773
300.027
300.077
300.125
300.169
300.208
300.239
300.263
300.281
300.295
300.309
300.331
300.371
300.437
300.526
300.608
300.651
300.646
300.616
300.602
300.643
300.759
300.95
301.179
301.395
301.569
301.711
301.87
302.098
302.407
302.766
303.148
303.59
304.151
304.826
305.604
300.023
300.06
300.092
300.124
300.155
300.187
300.216
300.242
300.263
300.28
300.295
300.313
300.345
300.403
300.495
300.609
300.705
300.748
300.735
300.702
300.699
300.761
300.909
301.139
301.415
301.69
301.927
302.13
302.34
302.606
302.948
303.387
303.979
304.742
305.605
300.022
300.059
300.097
300.135
300.174
300.21
300.242
300.269
300.289
300.303
300.31
300.311
300.31
300.316
300.345
300.42
300.551
300.707
300.822
300.852
300.822
300.795
300.822
300.937
301.161
301.487
301.88
302.287
302.657
302.973
303.283
303.672
304.216
304.885
305.566
300.028
300.078
300.124
300.169
300.212
300.253
300.292
300.328
300.361
300.39
300.416
300.436
300.447
300.448
300.442
300.445
300.483
300.594
300.771
300.924
300.971
300.931
300.881
300.877
300.951
301.126
301.408
301.783
302.217
302.656
303.063
303.458
303.884
304.352
304.951
300.028
300.077
300.125
300.174
300.223
300.271
300.314
300.351
300.384
300.413
300.442
300.472
300.501
300.528
300.551
300.576