/*--------------------------------*- C++ -*----------------------------------*\
| =========                 |                                                 |
| \\      /  F ield         | OpenFOAM: The Open Source CFD Toolbox           |
|  \\    /   O peration     | Version:  v2006                                 |
|   \\  /    A nd           | Website:  www.openfoam.com                      |
|    \\/     M anipulation  |                                                 |
\*---------------------------------------------------------------------------*/
FoamFile
{
    version     2.0;
    format      ascii;
    class       volVectorField;
    location    "24";
    object      U;
}
// * * * * * * * * * * * * * * * * * * * * * * * * * * * * * * * * * * * * * //

dimensions      [0 1 -1 0 0 0 0];


internalField   nonuniform List<vector> 
78750
(
(-0.0226927 -0.0107838 -0.00968724)
(-0.0214172 -0.0193053 -0.0183599)
(-0.0180484 -0.019781 -0.0195796)
(-0.0146533 -0.0190644 -0.0199914)
(-0.0114202 -0.0178089 -0.0198888)
(-0.00815004 -0.0163308 -0.0195046)
(-0.00498169 -0.0148264 -0.0190175)
(-0.00198626 -0.0133854 -0.0185124)
(0.000813104 -0.0120266 -0.0180111)
(0.00341175 -0.0107447 -0.0175145)
(0.00580735 -0.00953285 -0.0170207)
(0.00800286 -0.00838999 -0.0165312)
(0.010008 -0.00731564 -0.0160466)
(0.0118359 -0.00630798 -0.0155653)
(0.0134991 -0.00536354 -0.0150835)
(0.0150082 -0.00447722 -0.0145962)
(0.0163716 -0.00364227 -0.0140973)
(0.0175942 -0.00285025 -0.0135799)
(0.0186781 -0.00209092 -0.0130362)
(0.0196216 -0.00135212 -0.0124581)
(0.0204194 -0.000620241 -0.0118368)
(0.0210628 0.000118864 -0.0111577)
(0.0215333 0.000881154 -0.0104072)
(0.0218087 0.00168385 -0.00956863)
(0.021862 0.00254486 -0.00862246)
(0.0216603 0.00348175 -0.00754466)
(0.0211645 0.00450967 -0.00630497)
(0.02033 0.00563662 -0.00486439)
(0.0191063 0.00685634 -0.0031726)
(0.0174375 0.00814286 -0.00117219)
(0.0152571 0.00946738 0.00121)
(0.0124554 0.0108893 0.00402368)
(0.00886755 0.0124994 0.00684409)
(0.00469733 0.01315 0.0078194)
(0.00108812 0.00861476 0.00447721)
(-0.00154458 0.0126962 -0.00733489)
(-0.00469215 -0.00242301 -0.0257519)
(-0.00820448 -0.0144341 -0.0365189)
(-0.0108996 -0.0198939 -0.0411235)
(-0.0127255 -0.0207743 -0.0425321)
(-0.0138649 -0.019258 -0.0424727)
(-0.0144052 -0.0169971 -0.0418042)
(-0.014421 -0.014801 -0.0409555)
(-0.0140113 -0.012829 -0.0400953)
(-0.013302 -0.0110807 -0.0392796)
(-0.0124211 -0.00951759 -0.0384914)
(-0.0114314 -0.00811327 -0.037717)
(-0.0103577 -0.00684187 -0.0369564)
(-0.00921288 -0.00567986 -0.0362102)
(-0.00800614 -0.00460685 -0.035474)
(-0.00674572 -0.00360342 -0.0347393)
(-0.0054399 -0.00265003 -0.0339953)
(-0.00409773 -0.00172561 -0.0332295)
(-0.0027296 -0.000806994 -0.0324276)
(-0.00134865 0.000132149 -0.0315736)
(2.95111e-05 0.00112128 -0.0306482)
(0.00139007 0.00219262 -0.0296287)
(0.00271372 0.00338017 -0.0284931)
(0.00397546 0.00471946 -0.027217)
(0.00514438 0.00624714 -0.0257731)
(0.00618224 0.0079997 -0.024127)
(0.00704177 0.0100124 -0.0222304)
(0.00766366 0.0123212 -0.020003)
(0.00798028 0.014979 -0.0173013)
(0.00790426 0.0180741 -0.0139055)
(0.00731576 0.0217249 -0.00958229)
(0.00606898 0.0258913 -0.00440539)
(0.00424647 0.0296416 0.0005795)
(0.00217366 0.0301611 0.00370028)
(0.000293145 0.0194484 0.00309434)
(0.000254769 0.0272648 -0.0037086)
(-0.000978659 0.0396918 -0.0132072)
(-0.00345637 0.0399979 -0.018206)
(-0.00611792 0.0365182 -0.019674)
(-0.00859384 0.0315142 -0.019203)
(-0.0104475 0.0260357 -0.0182324)
(-0.0116254 0.0208617 -0.0175137)
(-0.0122659 0.0165502 -0.0171298)
(-0.0124701 0.0135289 -0.0168739)
(-0.0123369 0.0117134 -0.0166031)
(-0.0119718 0.0106334 -0.0163561)
(-0.0114655 0.0099227 -0.0161637)
(-0.0108592 0.0094363 -0.0160215)
(-0.0101883 0.00909974 -0.015923)
(-0.00947635 0.00887548 -0.015863)
(-0.00873868 0.00874554 -0.0158374)
(-0.00798435 0.00870368 -0.015843)
(-0.00721823 0.00875193 -0.0158762)
(-0.00644244 0.00889925 -0.0159318)
(-0.00565754 0.00916159 -0.0160018)
(-0.0048634 0.00956263 -0.0160736)
(-0.00405987 0.0101346 -0.0161291)
(-0.00324763 0.0109186 -0.0161436)
(-0.00242876 0.0119655 -0.016085)
(-0.0016079 0.0133363 -0.0159122)
(-0.000797109 0.0151016 -0.0155742)
(-1.70849e-05 0.0173521 -0.015003)
(0.000714322 0.0202197 -0.014095)
(0.00134379 0.02377 -0.0127053)
(0.00177198 0.0279042 -0.0106915)
(0.00190354 0.0323508 -0.00796931)
(0.00166779 0.0364057 -0.00474411)
(0.00120376 0.0387713 -0.00169982)
(0.000599579 0.03702 0.000722847)
(2.41114e-05 0.021762 0.00142966)
(-9.32178e-05 0.023319 -0.0018705)
(-0.00053665 0.0348949 -0.00766794)
(-0.00107499 0.0338934 -0.0108492)
(-0.00147591 0.0294357 -0.0121567)
(-0.00179162 0.0232162 -0.0123114)
(-0.002048 0.0163262 -0.0118931)
(-0.00227937 0.00986221 -0.0113496)
(-0.00247008 0.00485643 -0.0108177)
(-0.00256111 0.00155397 -0.0102242)
(-0.00252886 -0.000367469 -0.00952545)
(-0.00237993 -0.00129048 -0.0087647)
(-0.00213533 -0.00152785 -0.00798507)
(-0.001815 -0.00130378 -0.00720891)
(-0.00143171 -0.000785868 -0.00645221)
(-0.000994932 -9.36497e-05 -0.0057288)
(-0.000513308 0.000692598 -0.00505229)
(3.79694e-06 0.00152418 -0.00443683)
(0.00054523 0.00237668 -0.00389726)
(0.00109767 0.00324351 -0.0034491)
(0.00164574 0.00413031 -0.00310833)
(0.0021726 0.0050512 -0.00289066)
(0.00266101 0.00602682 -0.00281001)
(0.00309424 0.00708391 -0.00287528)
(0.00345624 0.00825898 -0.00308462)
(0.00372925 0.00960585 -0.00341611)
(0.00389307 0.0112059 -0.00381411)
(0.00394026 0.0131988 -0.00417641)
(0.00388581 0.0158469 -0.00437782)
(0.00371683 0.0194754 -0.00428521)
(0.00341365 0.0242346 -0.00373412)
(0.0029601 0.0298612 -0.00260583)
(0.00232596 0.035242 -0.00103422)
(0.00165253 0.0384223 0.000473911)
(0.000921926 0.0372767 0.0016959)
(0.000161132 0.0221528 0.0016657)
(0.000254924 0.0234178 -0.00110096)
(0.000502325 0.0399663 -0.00502614)
(0.000432824 0.042085 -0.00738045)
(0.000186801 0.0402915 -0.00845183)
(-0.000228885 0.0368618 -0.0086302)
(-0.000814181 0.0325756 -0.00805404)
(-0.00152337 0.0281607 -0.00692598)
(-0.00228606 0.0240592 -0.00546443)
(-0.00303619 0.0204732 -0.003869)
(-0.00368541 0.017496 -0.00230152)
(-0.00419283 0.0151419 -0.000833175)
(-0.00455889 0.013281 0.000532151)
(-0.00478257 0.0117303 0.00176769)
(-0.00485109 0.0103865 0.00283946)
(-0.00476333 0.00921682 0.00374324)
(-0.00452368 0.00822493 0.00449039)
(-0.00413913 0.00744012 0.00509903)
(-0.00362276 0.00690604 0.00558843)
(-0.00299381 0.00667306 0.00597495)
(-0.00227464 0.00679447 0.00626899)
(-0.00148693 0.00732191 0.00647317)
(-0.000656975 0.00829701 0.00658155)
(0.000176688 0.00975962 0.00657679)
(0.000958393 0.0117508 0.00643254)
(0.00164125 0.0143044 0.00611195)
(0.0021831 0.0174376 0.00556019)
(0.00252864 0.0210893 0.00473929)
(0.00265446 0.0252 0.0036997)
(0.00257131 0.0297496 0.00259641)
(0.0023033 0.0346245 0.00168592)
(0.00187835 0.0394107 0.00122419)
(0.00134535 0.0431922 0.00127015)
(0.000830928 0.0448026 0.00160914)
(0.000339996 0.0417645 0.00194912)
(-2.584e-05 0.0235828 0.00141746)
(-2.9902e-05 0.0209705 -0.000629847)
(-0.000281658 0.0379171 -0.00333265)
(-0.00070338 0.0407643 -0.00495532)
(-0.00114469 0.0393753 -0.00555033)
(-0.00164524 0.0360618 -0.00539993)
(-0.00218446 0.0313079 -0.00457295)
(-0.00271416 0.0259364 -0.00326009)
(-0.00320331 0.0206704 -0.00170897)
(-0.00363161 0.0159102 -0.000119437)
(-0.00398544 0.0118286 0.00138405)
(-0.00425122 0.00851256 0.00274692)
(-0.00442335 0.0058309 0.00398996)
(-0.00449162 0.00355273 0.00511436)
(-0.00443962 0.00153181 0.00607867)
(-0.00424783 -0.000307728 0.00685881)
(-0.00390662 -0.00198554 0.00745635)
(-0.00342528 -0.00346803 0.00789802)
(-0.00281808 -0.00468527 0.0082275)
(-0.00210055 -0.00555593 0.00849219)
(-0.00129551 -0.00599643 0.00873563)
(-0.000433152 -0.00592441 0.008993)
(0.000457893 -0.00526357 0.00929003)
(0.00133917 -0.00392022 0.0096419)
(0.00220079 -0.0017609 0.0100609)
(0.00302495 0.00133908 0.0105204)
(0.00373571 0.00538686 0.0109114)
(0.00425639 0.0103487 0.0110602)
(0.0045361 0.016156 0.0107648)
(0.00453064 0.0226869 0.00988283)
(0.00421313 0.0297047 0.00847197)
(0.00357931 0.0366499 0.00685967)
(0.00268218 0.0422806 0.00548621)
(0.0017865 0.0449174 0.00457817)
(0.000894168 0.0421618 0.00376467)
(0.000141953 0.0237821 0.00201835)
(8.72916e-05 0.0208309 -0.000256722)
(5.00974e-05 0.0396064 -0.00201793)
(-0.00022988 0.0441944 -0.0032162)
(-0.000613839 0.0437875 -0.00364707)
(-0.00106305 0.0413379 -0.0034721)
(-0.00155392 0.0375004 -0.00272878)
(-0.00206663 0.0328615 -0.00151188)
(-0.00258266 0.0280545 3.77855e-06)
(-0.00308947 0.023491 0.00164173)
(-0.00357048 0.0193409 0.00325284)
(-0.00399962 0.0156033 0.0047173)
(-0.00434545 0.0121823 0.00594374)
(-0.00457061 0.00894373 0.00687068)
(-0.00465363 0.00577401 0.00746678)
(-0.00457965 0.00263136 0.0077359)
(-0.00433218 -0.000396688 0.00773004)
(-0.00391519 -0.00311617 0.00754851)
(-0.00336073 -0.00536879 0.00729674)
(-0.00270721 -0.00706253 0.0070605)
(-0.0019939 -0.00814863 0.00689793)
(-0.0012447 -0.00859131 0.00685171)
(-0.000476248 -0.00834902 0.0069535)
(0.000294801 -0.00735512 0.00722818)
(0.0010525 -0.00548451 0.00770201)
(0.00179425 -0.0024856 0.00842969)
(0.00251179 0.00188439 0.00942801)
(0.00314341 0.00768584 0.0105858)
(0.00362518 0.0149226 0.0116611)
(0.00387842 0.0234284 0.0122768)
(0.0038087 0.0326373 0.0120478)
(0.0033362 0.0413835 0.0108922)
(0.00249756 0.0478889 0.00922744)
(0.00158766 0.0504456 0.00758359)
(0.000695337 0.0463702 0.00571103)
(5.67313e-05 0.0254613 0.00262269)
(-4.02978e-06 0.020014 -5.32013e-05)
(-0.000190215 0.0393596 -0.00123274)
(-0.000579879 0.0447727 -0.00208084)
(-0.0010186 0.0447116 -0.00230136)
(-0.00150821 0.0423547 -0.00198239)
(-0.0020328 0.0383437 -0.00112143)
(-0.00255419 0.033226 0.0002103)
(-0.00304199 0.0277403 0.00181931)
(-0.00347878 0.0224031 0.00348806)
(-0.00384129 0.017427 0.00502451)
(-0.00409965 0.0127933 0.00627855)
(-0.00421818 0.00837282 0.00714701)
(-0.0041638 0.00403557 0.00757835)
(-0.00391905 -0.000260038 0.00758199)
(-0.00349846 -0.00442922 0.00723583)
(-0.00294351 -0.00828934 0.0066713)
(-0.00230165 -0.0116132 0.00603785)
(-0.00162772 -0.0142001 0.00546354)
(-0.000940458 -0.0160361 0.00500052)
(-0.000249974 -0.0171794 0.00466068)
(0.000418312 -0.0176537 0.00446237)
(0.00105767 -0.0174627 0.00441994)
(0.00166538 -0.0165872 0.00454628)
(0.00222673 -0.0149594 0.00485735)
(0.00275895 -0.0123576 0.00540723)
(0.00327561 -0.00841181 0.00628445)
(0.00374634 -0.00284013 0.00752248)
(0.00412502 0.00464308 0.00906195)
(0.00433818 0.0142144 0.010657)
(0.00428866 0.0255484 0.0118068)
(0.00385441 0.0373302 0.0119609)
(0.00296815 0.0469833 0.0109896)
(0.00195472 0.0514334 0.00936339)
(0.000925307 0.0479117 0.0070136)
(0.000135695 0.0262711 0.00304264)
(3.2123e-05 0.0196354 0.000194778)
(-2.91143e-05 0.0397027 -0.000415454)
(-0.000309933 0.0462717 -0.000947654)
(-0.00067748 0.0467789 -0.00100956)
(-0.00109728 0.044801 -0.000615085)
(-0.00156044 0.0410995 0.000264798)
(-0.0020278 0.0361076 0.00158487)
(-0.00246093 0.0305148 0.00315462)
(-0.00283182 0.0248296 0.00473924)
(-0.00310023 0.0192464 0.00611244)
(-0.00321938 0.0137438 0.00708512)
(-0.00315445 0.00824854 0.00753394)
(-0.0028969 0.00278527 0.00743808)
(-0.00246483 -0.00248255 0.00689294)
(-0.00189744 -0.00730922 0.00607482)
(-0.00124821 -0.0114554 0.00517507)
(-0.00058145 -0.0147223 0.00435204)
(6.59541e-05 -0.0170694 0.00368264)
(0.00069112 -0.0186148 0.00315958)
(0.00129074 -0.0194566 0.00277803)
(0.00184876 -0.0196444 0.00254447)
(0.00236077 -0.0192001 0.00246446)
(0.00282314 -0.0181199 0.00254415)
(0.00322587 -0.0163579 0.00279319)
(0.00357525 -0.0137369 0.00324871)
(0.00387847 -0.00989646 0.00400157)
(0.00412165 -0.00442805 0.00514802)
(0.00427621 0.00308133 0.00673249)
(0.00431056 0.013026 0.00866139)
(0.004161 0.0253211 0.0105412)
(0.00370742 0.0386351 0.0116711)
(0.00283386 0.049848 0.0114758)
(0.00183762 0.0550015 0.0101071)
(0.00084049 0.0510978 0.00758598)
(0.000101708 0.0277517 0.00317716)
(1.2743e-05 0.0188513 0.000302225)
(-2.12907e-05 0.0389767 4.37994e-05)
(-0.000239226 0.0461918 -0.000251071)
(-0.000538035 0.0470515 -0.000200973)
(-0.000890794 0.045226 0.000233338)
(-0.00129682 0.0414861 0.00110752)
(-0.00171775 0.0361685 0.00239864)
(-0.00209826 0.0299555 0.00390898)
(-0.00238676 0.0233542 0.00536439)
(-0.00252283 0.0165735 0.00647788)
(-0.00245761 0.00970162 0.00702388)
(-0.00217887 0.00289608 0.00692268)
(-0.00171757 -0.00356959 0.00627299)
(-0.00113446 -0.00939551 0.00529207)
(-0.000490541 -0.0143463 0.00421418)
(0.000171759 -0.0182849 0.00321839)
(0.000807516 -0.0211643 0.0024058)
(0.00140846 -0.0231277 0.00177385)
(0.0019846 -0.0243436 0.0012876)
(0.00252743 -0.0248973 0.000940548)
(0.00302919 -0.0248357 0.000731675)
(0.00348603 -0.0241826 0.000660877)
(0.00389336 -0.0229392 0.000729943)
(0.00423899 -0.0210734 0.000943927)
(0.00451543 -0.0184392 0.00133149)
(0.00472367 -0.0146947 0.00196923)
(0.00484737 -0.00938359 0.00296269)
(0.00486869 -0.00197737 0.00440025)
(0.0047609 0.00815327 0.00629361)
(0.00447336 0.0212735 0.0084078)
(0.00392147 0.0362923 0.010117)
(0.0029847 0.0498101 0.0106341)
(0.00193791 0.0566325 0.00971575)
(0.000902018 0.0532278 0.00736718)
(0.000128731 0.0289631 0.0030315)
(1.90157e-05 0.0179787 0.000423165)
(3.73974e-05 0.0378696 0.000448493)
(-9.7759e-05 0.0456959 0.000349741)
(-0.000322558 0.047045 0.00050795)
(-0.000594472 0.0456021 0.00100131)
(-0.000907871 0.0421944 0.00191181)
(-0.00121889 0.036968 0.00323207)
(-0.00145573 0.0304189 0.00472673)
(-0.0015537 0.0230051 0.00603422)
(-0.00146089 0.0150824 0.00679175)
(-0.00116857 0.00705841 0.00680261)
(-0.000715107 -0.000582112 0.00613263)
(-0.000162724 -0.00741332 0.0050371)
(0.000432677 -0.0131749 0.00380552)
(0.00103002 -0.0177656 0.00265427)
(0.00159605 -0.0211796 0.00170202)
(0.0021201 -0.0235452 0.000967436)
(0.00261418 -0.0250829 0.000398415)
(0.00308591 -0.0259321 -3.46036e-05)
(0.00352442 -0.0261559 -0.000337878)
(0.00392493 -0.0257897 -0.000515418)
(0.00428086 -0.0248498 -0.000568153)
(0.00458374 -0.0233335 -0.000493234)
(0.00482029 -0.0212091 -0.000283622)
(0.00497981 -0.0183099 9.61505e-05)
(0.00505603 -0.0142961 0.000723654)
(0.00502303 -0.00876671 0.00170113)
(0.00486631 -0.00118501 0.00312682)
(0.00457915 0.00916944 0.00503563)
(0.00414687 0.0227208 0.00722598)
(0.00351383 0.0384637 0.00910329)
(0.00258318 0.0527711 0.00985697)
(0.00160883 0.0598869 0.00913925)
(0.000701899 0.0560531 0.0069526)
(8.04775e-05 0.03026 0.00283051)
(-7.16157e-06 0.0171775 0.000574342)
(-6.50294e-05 0.0365897 0.000896903)
(-0.000258333 0.0445663 0.00101774)
(-0.000512008 0.0461008 0.00131814)
(-0.000791561 0.0447135 0.00191511)
(-0.00108271 0.041096 0.00291207)
(-0.00130922 0.0352474 0.0042467)
(-0.00138257 0.0276414 0.00556068)
(-0.00125824 0.0189145 0.00639128)
(-0.000940429 0.00979475 0.00642653)
(-0.000481655 0.00103952 0.00568625)
(4.8683e-05 -0.00675261 0.00446036)
(0.000594561 -0.0132782 0.00309378)
(0.00112726 -0.0184857 0.00183119)
(0.0016355 -0.0224462 0.000789582)
(0.00210632 -0.0252702 -6.62294e-06)
(0.00255229 -0.0271869 -0.000608358)
(0.0029853 -0.0283854 -0.00107357)
(0.00340066 -0.0289434 -0.00142043)
(0.00379072 -0.0288992 -0.00165894)
(0.00414835 -0.0282741 -0.00179496)
(0.00446465 -0.0270759 -0.00182947)
(0.00472819 -0.0252991 -0.00175791)
(0.00491512 -0.0229137 -0.00156933)
(0.00501401 -0.0197352 -0.00122763)
(0.00500717 -0.0154517 -0.000650506)
(0.00487271 -0.00977016 0.000258616)
(0.00460664 -0.00214741 0.00162639)
(0.00421298 0.0082371 0.0035458)
(0.00369847 0.0220292 0.00588191)
(0.00304939 0.0384339 0.00804818)
(0.0021992 0.0536804 0.00914328)
(0.00135133 0.0613525 0.00868353)
(0.000581907 0.0574482 0.00668608)
(7.63179e-05 0.0308593 0.00273054)
(-1.08511e-05 0.016611 0.000759668)
(-0.000117996 0.0356699 0.00140254)
(-0.00037558 0.0438061 0.00176603)
(-0.000681829 0.0455141 0.00224622)
(-0.000982583 0.0441281 0.00299223)
(-0.00124143 0.0401357 0.00410371)
(-0.00133741 0.0334325 0.00536347)
(-0.00120352 0.0246914 0.0062351)
(-0.000871371 0.0149893 0.00628741)
(-0.000418276 0.00543744 0.0054859)
(7.75209e-05 -0.00314096 0.00414652)
(0.000567482 -0.0103574 0.00266818)
(0.00103294 -0.0161808 0.00132357)
(0.00147497 -0.0207391 0.000224854)
(0.00189859 -0.0241686 -0.000617157)
(0.00230342 -0.0265989 -0.001241)
(0.00270363 -0.028229 -0.00171304)
(0.00310512 -0.0291882 -0.0020769)
(0.00349469 -0.0295148 -0.0023482)
(0.00386495 -0.0292271 -0.0025372)
(0.0042071 -0.0283338 -0.00264913)
(0.00451025 -0.0268357 -0.00268403)
(0.00475521 -0.0247199 -0.00263592)
(0.00491914 -0.0218856 -0.00248451)
(0.00498632 -0.0181321 -0.00219252)
(0.00492312 -0.0132922 -0.00169177)
(0.00471524 -0.00716854 -0.000887821)
(0.00435886 0.000667682 0.000355296)
(0.00386152 0.0109334 0.00217306)
(0.00325548 0.024297 0.00452181)
(0.0025722 0.0401981 0.00689867)
(0.00179149 0.0550786 0.00835054)
(0.0010807 0.0624382 0.00820972)
(0.000457277 0.0582579 0.00645565)
(5.87313e-05 0.0311356 0.00265081)
(-3.99951e-05 0.0163843 0.00103865)
(-0.000276926 0.0353053 0.00216499)
(-0.000682052 0.04343 0.00287674)
(-0.00108607 0.0449781 0.00357405)
(-0.00142875 0.0430383 0.00443049)
(-0.00165864 0.0377796 0.00543112)
(-0.00163966 0.0294842 0.00609998)
(-0.00139671 0.0195006 0.00595536)
(-0.00103263 0.00933213 0.00495138)
(-0.000631785 6.29e-05 0.0034415)
(-0.000238088 -0.00782065 0.00186263)
(0.000141637 -0.0142844 0.000492102)
(0.00051741 -0.0194917 -0.000584351)
(0.000902126 -0.0236136 -0.00138909)
(0.00130231 -0.0267536 -0.0019778)
(0.00171134 -0.0289964 -0.00240905)
(0.0021344 -0.0304842 -0.00273714)
(0.00257093 -0.0313033 -0.00299287)
(0.00300511 -0.0314705 -0.00318929)
(0.00342893 -0.0309908 -0.00333383)
(0.00383393 -0.0298638 -0.00342963)
(0.00420642 -0.0280822 -0.00347552)
(0.00452039 -0.025606 -0.0034629)
(0.00476128 -0.0222858 -0.00337787)
(0.00489937 -0.0179457 -0.00318294)
(0.00489618 -0.0125175 -0.00282152)
(0.00473141 -0.00586791 -0.00220025)
(0.0043951 0.0023169 -0.00117631)
(0.00388659 0.012605 0.000417646)
(0.0032334 0.0255987 0.0026336)
(0.00249213 0.0409116 0.00511044)
(0.00169035 0.0553295 0.00692571)
(0.00101135 0.062457 0.00719804)
(0.00043595 0.0583302 0.00582899)
(5.65392e-05 0.0311714 0.00238947)
(-3.76988e-05 0.0165351 0.0013075)
(-0.000286854 0.0355982 0.00300732)
(-0.000729426 0.0435074 0.00406426)
(-0.00115545 0.0445362 0.00480804)
(-0.00151194 0.0416605 0.00542264)
(-0.00174687 0.0350317 0.00574848)
(-0.00176414 0.0257502 0.00537302)
(-0.00164621 0.0156055 0.0042344)
(-0.00147653 0.00596674 0.00267298)
(-0.00128464 -0.00251294 0.00111936)
(-0.00106705 -0.00971817 -0.000167477)
(-0.000810561 -0.0157666 -0.00113212)
(-0.000504823 -0.0207955 -0.00182589)
(-0.000146791 -0.024877 -0.00232262)
(0.000256278 -0.0280319 -0.00268309)
(0.000684884 -0.030292 -0.00295126)
(0.00113714 -0.0317753 -0.0031613)
(0.00161015 -0.0325558 -0.003333)
(0.00208725 -0.0326402 -0.00347374)
(0.00256156 -0.0320262 -0.00358701)
(0.00302599 -0.0307076 -0.0036737)
(0.00345886 -0.0286672 -0.00373163)
(0.00384523 -0.0257896 -0.00375431)
(0.00417509 -0.021864 -0.00373222)
(0.00440521 -0.0167734 -0.00363931)
(0.00449933 -0.0104716 -0.00343128)
(0.00442511 -0.00289697 -0.00302548)
(0.00415586 0.00610605 -0.0022839)
(0.00368395 0.0168577 -0.00102826)
(0.00303456 0.0296952 0.000847504)
(0.00227022 0.0441413 0.00311036)
(0.00146132 0.0572482 0.00496201)
(0.000822628 0.0633028 0.00548476)
(0.000324266 0.0587306 0.0045606)
(1.79323e-05 0.031218 0.00182917)
(9.96997e-06 0.0162493 0.00125185)
(3.77118e-06 0.0352937 0.00315207)
(-0.000185554 0.0431834 0.00433576)
(-0.000424668 0.0439858 0.00494189)
(-0.000681049 0.0406636 0.00514028)
(-0.000924687 0.0335086 0.00477343)
(-0.00111334 0.02404 0.00374511)
(-0.00127394 0.0140701 0.00231253)
(-0.00140345 0.00469307 0.000868868)
(-0.0014705 -0.00368301 -0.000321179)
(-0.00144658 -0.0110061 -0.00119286)
(-0.00132147 -0.0173196 -0.00180126)
(-0.00110167 -0.0226489 -0.0022271)
(-0.000801568 -0.0269859 -0.00253322)
(-0.000440911 -0.0303199 -0.00275966)
(-4.58601e-05 -0.0326883 -0.00293232)
(0.000377561 -0.0342247 -0.00307127)
(0.00082396 -0.0350054 -0.00319023)
(0.00127731 -0.0350386 -0.00329523)
(0.00173192 -0.0343238 -0.00338928)
(0.00217872 -0.0328537 -0.00347228)
(0.00259899 -0.0305838 -0.00353992)
(0.00298938 -0.0273456 -0.00359197)
(0.00333431 -0.0229086 -0.0036177)
(0.00359924 -0.017152 -0.00360094)
(0.00375454 -0.00999961 -0.00351342)
(0.00376463 -0.00140982 -0.00329424)
(0.00359378 0.00865479 -0.00282517)
(0.00322252 0.020278 -0.00193502)
(0.00266679 0.0334669 -0.000493304)
(0.00198621 0.0474551 0.00135721)
(0.00126612 0.0593517 0.0029736)
(0.000701748 0.064317 0.00356055)
(0.000270363 0.0591015 0.00303134)
(7.81144e-06 0.0311613 0.00116846)
(4.55384e-05 0.0149095 0.000964889)
(0.000309073 0.0330626 0.00261561)
(0.000509384 0.0412345 0.00371472)
(0.000620452 0.0425863 0.00420703)
(0.000645466 0.0400021 0.00423537)
(0.000590092 0.033939 0.003737)
(0.000429745 0.0254508 0.00276516)
(0.000201157 0.0160715 0.00160501)
(-3.20631e-05 0.00679396 0.000536622)
(-0.000211449 -0.0019041 -0.000308346)
(-0.000299782 -0.00979463 -0.0009316)
(-0.000289161 -0.0167404 -0.00138761)
(-0.000191928 -0.022648 -0.00172426)
(-2.23187e-05 -0.027455 -0.00196997)
(0.000205007 -0.0311362 -0.00214488)
(0.000467968 -0.0337286 -0.00226991)
(0.000759863 -0.0353958 -0.00236569)
(0.00107613 -0.0362373 -0.00244752)
(0.0014024 -0.0362696 -0.00252905)
(0.00173301 -0.0355006 -0.0026185)
(0.00205692 -0.0339292 -0.00271679)
(0.00236262 -0.0314777 -0.00281694)
(0.00264936 -0.0279375 -0.00291628)
(0.00289882 -0.0230918 -0.00300014)
(0.0030924 -0.0167872 -0.00305349)
(0.00321037 -0.00890164 -0.00306125)
(0.00322244 0.00061696 -0.00299315)
(0.00309253 0.0117099 -0.00277168)
(0.00279553 0.0242168 -0.00225608)
(0.00233805 0.0377853 -0.00131011)
(0.00176712 0.0513227 2.53759e-06)
(0.00116375 0.0619953 0.00122029)
(0.000673404 0.0659509 0.00176298)
(0.000278209 0.0599467 0.00157243)
(1.43279e-05 0.031372 0.000578993)
(1.88152e-05 0.0132311 0.00076504)
(0.000278743 0.0296874 0.00207628)
(0.000597762 0.0375524 0.00297839)
(0.000876414 0.0392895 0.00338239)
(0.00108766 0.0374616 0.00340682)
(0.00122766 0.0326191 0.00305782)
(0.00124667 0.0252762 0.00239699)
(0.00117016 0.0166078 0.00161847)
(0.00106294 0.00754641 0.000882865)
(0.000975626 -0.00130157 0.000250816)
(0.000931521 -0.0095212 -0.000277487)
(0.000933107 -0.0168261 -0.000706103)
(0.000975903 -0.0230506 -0.00102558)
(0.00105618 -0.0281255 -0.00122917)
(0.00117368 -0.0320387 -0.00133101)
(0.00132377 -0.034817 -0.00136722)
(0.00150178 -0.0366051 -0.001377)
(0.00170602 -0.0375104 -0.0013826)
(0.00192434 -0.0375545 -0.00141198)
(0.00214893 -0.036744 -0.00148366)
(0.0023659 -0.0350817 -0.00160149)
(0.00256551 -0.0324693 -0.00175823)
(0.00274294 -0.0286817 -0.00194294)
(0.00288205 -0.0235437 -0.00212705)
(0.0029767 -0.0168847 -0.00227741)
(0.0030211 -0.00852307 -0.0023717)
(0.00299912 0.00166005 -0.00240059)
(0.00288096 0.0135973 -0.00233964)
(0.00263607 0.0269648 -0.00210641)
(0.00225631 0.0411002 -0.00158097)
(0.0017668 0.0546083 -0.000757741)
(0.00123152 0.0646664 7.49242e-05)
(0.000765168 0.0680672 0.000529697)
(0.000350164 0.0614086 0.000569283)
(3.23189e-05 0.0320088 0.00020471)
(-1.0054e-05 0.0121655 0.000698657)
(0.000103903 0.0271717 0.0017856)
(0.00029404 0.0343855 0.00250594)
(0.00049468 0.0361357 0.0028414)
(0.0006782 0.0346935 0.00290006)
(0.000838895 0.0306267 0.00271683)
(0.000948648 0.0241191 0.00232136)
(0.00101144 0.0160644 0.0018065)
(0.00106099 0.00733448 0.00124755)
(0.00111784 -0.00138024 0.000687575)
(0.00118387 -0.00955326 0.000172602)
(0.00125394 -0.0168379 -0.000235955)
(0.00132794 -0.0230707 -0.000485525)
(0.00141124 -0.028214 -0.000560273)
(0.00151486 -0.0322732 -0.000490391)
(0.0016481 -0.0352522 -0.00034127)
(0.00180871 -0.037204 -0.000182722)
(0.00199796 -0.0382128 -5.15717e-05)
(0.00220617 -0.0382982 1.58805e-05)
(0.00242029 -0.0374499 -1.05746e-05)
(0.00262094 -0.0356556 -0.000139285)
(0.00279825 -0.0327975 -0.000371067)
(0.00293817 -0.0286688 -0.000688954)
(0.00302421 -0.0231659 -0.0010434)
(0.00305605 -0.016154 -0.00136702)
(0.00303888 -0.00742964 -0.00160494)
(0.00297243 0.00320155 -0.00174044)
(0.00284249 0.0157383 -0.00178937)
(0.00262236 0.0298013 -0.00174825)
(0.00228923 0.0444943 -0.00155253)
(0.00184211 0.0581382 -0.00115114)
(0.00132873 0.0678752 -0.000665494)
(0.00085304 0.0709211 -0.000313241)
(0.000402068 0.0636431 -0.000112436)
(3.78081e-05 0.0330917 -2.8792e-05)
(-2.36469e-05 0.011781 0.000695845)
(-5.23237e-05 0.0260082 0.0016916)
(-6.11451e-05 0.0326106 0.00230798)
(-4.5633e-05 0.0341033 0.0026002)
(-1.03886e-05 0.0325967 0.0026752)
(4.80473e-05 0.0285936 0.00256534)
(0.000131496 0.0221935 0.00226253)
(0.000233481 0.014226 0.00180033)
(0.000352645 0.00558277 0.00123568)
(0.000479305 -0.00299369 0.000651054)
(0.000601375 -0.0109706 0.000152974)
(0.000713344 -0.0180578 -0.000161112)
(0.000820682 -0.0241664 -0.000239825)
(0.000936358 -0.0293087 -9.09039e-05)
(0.00107667 -0.0334999 0.000226667)
(0.00125531 -0.0367103 0.000620753)
(0.00147082 -0.038883 0.000992734)
(0.00171963 -0.0400427 0.00128549)
(0.00199779 -0.0401977 0.00147395)
(0.00228341 -0.0393142 0.00152401)
(0.00255482 -0.0373357 0.00142091)
(0.00280123 -0.0341134 0.00114416)
(0.00299466 -0.0295031 0.000703244)
(0.00311196 -0.0234773 0.000159115)
(0.00314889 -0.0159832 -0.000385907)
(0.00311408 -0.00685336 -0.00082809)
(0.0030194 0.00415297 -0.00110853)
(0.00286846 0.0171484 -0.00123885)
(0.00264845 0.031834 -0.00127116)
(0.00233432 0.0472304 -0.00122302)
(0.00190587 0.0614171 -0.00106356)
(0.00139561 0.0713399 -0.000816952)
(0.000904895 0.0742877 -0.000577264)
(0.000426708 0.0664084 -0.000342729)
(3.93478e-05 0.0344186 -9.67289e-05)
(-2.45144e-05 0.0117955 0.000668406)
(-0.000120591 0.0258251 0.00161642)
(-0.000250141 0.0321059 0.00218036)
(-0.00036756 0.033354 0.0024368)
(-0.000455448 0.0316335 0.00248536)
(-0.0005062 0.0274125 0.00234182)
(-0.000504451 0.0208639 0.00197879)
(-0.000457208 0.012873 0.00143069)
(-0.000385761 0.0043531 0.000790721)
(-0.000308568 -0.00398794 0.000192469)
(-0.000233985 -0.0117123 -0.000230655)
(-0.000158585 -0.0186399 -0.00039239)
(-6.9654e-05 -0.0247539 -0.000273539)
(4.90885e-05 -0.0300794 8.54328e-05)
(0.000212354 -0.0345946 0.000602547)
(0.000429501 -0.0382046 0.00117511)
(0.000700953 -0.040779 0.0017032)
(0.00101126 -0.0422268 0.00211548)
(0.00135574 -0.0425477 0.00239915)
(0.00171621 -0.041704 0.00254503)
(0.00207523 -0.0395889 0.00253021)
(0.00242266 -0.0359828 0.002315)
(0.00272016 -0.0307729 0.00187389)
(0.00293314 -0.0240058 0.00124256)
(0.00304184 -0.0157589 0.00053045)
(0.00304551 -0.00598363 -0.000116264)
(0.00295846 0.00552158 -0.000580212)
(0.00279821 0.0189396 -0.000832181)
(0.0025704 0.0340922 -0.000937098)
(0.00225972 0.0500285 -0.000976741)
(0.00183961 0.0646891 -0.000962553)
(0.00133669 0.0748267 -0.000867711)
(0.000850731 0.0777001 -0.000706139)
(0.000383333 0.0692138 -0.000460542)
(2.52098e-05 0.0357197 -0.000134882)
(-1.97587e-05 0.0119308 0.000570722)
(-0.000130625 0.0260246 0.00142755)
(-0.000309128 0.0321778 0.00193224)
(-0.00049184 0.03325 0.00213239)
(-0.000656825 0.0313095 0.00210761)
(-0.00079587 0.0268271 0.00185424)
(-0.000893506 0.0201056 0.00135341)
(-0.000955617 0.0121 0.000679308)
(-0.00100166 0.00370231 -2.89199e-05)
(-0.0010409 -0.00446886 -0.000614032)
(-0.0010705 -0.0120904 -0.00095538)
(-0.00107833 -0.0190667 -0.00100244)
(-0.00104845 -0.0254069 -0.000772655)
(-0.00096654 -0.0311108 -0.000330444)
(-0.000822586 -0.0360969 0.000235164)
(-0.000613015 -0.040196 0.000830941)
(-0.000342114 -0.0432111 0.00137847)
(-2.20368e-05 -0.0450118 0.00182956)
(0.000331887 -0.0455723 0.00217037)
(0.000710858 -0.0448761 0.00241443)
(0.00111259 -0.0427764 0.00255118)
(0.00152596 -0.0389898 0.00253743)
(0.00192093 -0.0333129 0.0023051)
(0.00225441 -0.0257933 0.00182047)
(0.00248538 -0.0166292 0.00114191)
(0.00258939 -0.00595361 0.00042123)
(0.00256608 0.0062956 -0.000161832)
(0.002435 0.0202972 -0.000497522)
(0.00222009 0.0360004 -0.000608905)
(0.00192897 0.0525664 -0.00061379)
(0.00154651 0.0678495 -0.000602339)
(0.00109797 0.0783232 -0.000570958)
(0.000670921 0.0811086 -0.00048814)
(0.000274586 0.0718853 -0.000318411)
(4.27704e-06 0.0368065 -8.73822e-05)
(-3.47163e-07 0.0120329 0.000378768)
(-4.16123e-05 0.026334 0.00104782)
(-0.000159598 0.0325937 0.00145355)
(-0.000304215 0.0336776 0.00156982)
(-0.000459804 0.0317188 0.00144402)
(-0.000623471 0.0272557 0.00105815)
(-0.000792799 0.0206396 0.000417218)
(-0.000965028 0.0128295 -0.000360573)
(-0.00114296 0.0046524 -0.00111167)
(-0.00131802 -0.003372 -0.00168684)
(-0.00147556 -0.0110003 -0.00199539)
(-0.00159936 -0.0181664 -0.00201751)
(-0.00167481 -0.0248627 -0.00178742)
(-0.00169121 -0.0310419 -0.00136961)
(-0.00164175 -0.0365599 -0.000840996)
(-0.00152398 -0.0411851 -0.00027837)
(-0.00134148 -0.0446698 0.000253134)
(-0.00110495 -0.0468603 0.000713751)
(-0.00082731 -0.0477407 0.001097)
(-0.000515742 -0.0473214 0.00141701)
(-0.00016617 -0.0454587 0.00168755)
(0.000219892 -0.041798 0.00189107)
(0.000628267 -0.0359933 0.00195897)
(0.00103112 -0.0279855 0.00180148)
(0.00138274 -0.0179817 0.00137825)
(0.00163341 -0.00626567 0.000762165)
(0.0017489 0.00698168 0.000136087)
(0.00172709 0.0217441 -0.000307948)
(0.00159165 0.0379418 -0.000496728)
(0.00136815 0.0548387 -0.000506392)
(0.00106417 0.0703557 -0.000457334)
(0.000715726 0.0808809 -0.000398084)
(0.000396088 0.0834712 -0.000317801)
(0.000122914 0.0735584 -0.00018297)
(-1.89775e-05 0.0373161 -3.38172e-05)
(2.66697e-05 0.0117539 9.09896e-05)
(0.000129518 0.0260251 0.00042665)
(0.000190522 0.0325269 0.000658847)
(0.000206012 0.033854 0.000668069)
(0.00017839 0.032187 0.000458544)
(0.000103459 0.0281893 7.87076e-06)
(-3.27373e-05 0.0220782 -0.000678932)
(-0.000229537 0.0147147 -0.00146857)
(-0.000467373 0.00684993 -0.00220323)
(-0.000720983 -0.00104883 -0.00275532)
(-0.000964674 -0.00874694 -0.0030529)
(-0.00117815 -0.0161485 -0.00307931)
(-0.00134885 -0.0232051 -0.00285535)
(-0.00146878 -0.0298337 -0.00242399)
(-0.00153139 -0.0358599 -0.00184691)