/*--------------------------------*- C++ -*----------------------------------*\
| =========                 |                                                 |
| \\      /  F ield         | OpenFOAM: The Open Source CFD Toolbox           |
|  \\    /   O peration     | Version:  v2006                                 |
|   \\  /    A nd           | Website:  www.openfoam.com                      |
|    \\/     M anipulation  |                                                 |
\*---------------------------------------------------------------------------*/
FoamFile
{
    version     2.0;
    format      ascii;
    class       volScalarField;
    location    "48";
    object      nut;
}
// * * * * * * * * * * * * * * * * * * * * * * * * * * * * * * * * * * * * * //

dimensions      [0 2 -1 0 0 0 0];


internalField   nonuniform List<scalar> 
78750
(
1.51988e-07
3.26941e-08
4.75555e-07
1.9269e-06
3.04776e-06
3.11989e-06
2.68157e-06
2.6479e-06
2.88784e-06
1.22865e-06
1.40427e-07
5.91047e-07
4.71641e-07
2.70541e-08
3.99616e-07
4.21518e-07
1.28078e-06
5.73272e-06
8.53378e-06
1.21112e-05
1.76568e-05
2.60208e-05
3.16583e-05
3.32496e-05
3.0772e-05
2.74775e-05
2.53815e-05
2.62814e-05
2.92584e-05
3.43212e-05
4.11508e-05
4.89681e-05
5.72093e-05
5.55295e-05
9.98875e-06
4.50995e-07
8.24702e-07
1.20981e-05
1.57221e-05
2.70952e-05
2.71823e-05
4.19394e-05
3.26085e-05
3.32151e-05
2.56608e-05
1.81951e-05
1.60518e-05
1.94261e-05
1.59116e-05
1.35896e-05
1.17074e-05
8.4187e-06
6.92677e-06
6.50704e-06
7.29722e-06
9.38852e-06
1.40263e-05
1.91673e-05
1.47035e-05
1.08307e-05
1.06955e-05
1.29636e-05
1.61568e-05
1.93419e-05
2.4354e-05
3.22264e-05
4.12841e-05
4.80756e-05
4.20869e-05
1.13751e-05
7.7651e-06
9.25696e-06
2.04321e-05
2.37169e-05
1.74195e-05
1.88302e-05
1.7987e-05
1.85598e-05
1.62127e-05
1.18492e-05
1.13474e-05
8.52731e-06
7.07869e-06
7.31825e-06
9.52099e-06
1.20675e-05
1.36537e-05
1.50941e-05
1.66337e-05
1.79971e-05
1.78922e-05
1.68393e-05
1.61484e-05
1.58878e-05
1.20629e-05
8.22907e-06
9.94429e-06
2.03141e-05
4.7715e-05
7.13037e-05
8.45178e-05
5.52514e-05
4.71147e-05
4.66307e-05
1.15955e-05
1.27755e-05
1.51615e-05
3.87316e-05
1.53554e-05
9.01302e-06
1.35407e-05
2.76577e-05
4.82268e-05
2.85704e-05
2.44165e-05
2.386e-05
3.26257e-05
6.46384e-05
4.53795e-05
2.36141e-05
2.08938e-05
2.72734e-05
3.93651e-05
4.92924e-05
4.63606e-05
3.16293e-05
1.94536e-05
1.49924e-05
1.38726e-05
1.30137e-05
1.51727e-05
1.36339e-05
5.49197e-06
7.6659e-06
1.85136e-05
4.89738e-05
9.54812e-05
9.93026e-05
6.41839e-05
1.16063e-05
1.38524e-05
5.35879e-05
0.000118233
7.82601e-05
3.83953e-05
1.63943e-05
5.82742e-06
2.27747e-06
2.38519e-06
5.91923e-06
1.60363e-05
1.96681e-05
2.21657e-05
2.61219e-05
3.1545e-05
3.79043e-05
4.55126e-05
5.23125e-05
5.16083e-05
5.65077e-05
6.13098e-05
3.11423e-05
1.24353e-05
7.38594e-06
7.37763e-06
9.01278e-06
1.32482e-05
1.06948e-05
6.3916e-06
9.0622e-06
1.71825e-05
2.87646e-05
4.19879e-05
8.00189e-05
1.03279e-05
1.40387e-05
7.06394e-05
0.000135526
0.000140836
9.6787e-05
5.86453e-05
4.06484e-05
3.40878e-05
3.2269e-05
3.12617e-05
2.97615e-05
2.79427e-05
2.70943e-05
2.96999e-05
3.79637e-05
4.94482e-05
8.04317e-05
7.44162e-05
5.30056e-05
3.07661e-05
3.24757e-05
1.04817e-05
8.24951e-06
1.85546e-05
1.93301e-05
2.23712e-05
1.83641e-05
1.24283e-05
6.29129e-06
6.14006e-06
1.25297e-05
2.18519e-05
4.01542e-05
0.000113972
1.10761e-05
5.5078e-06
3.00931e-05
7.79149e-05
5.03131e-05
3.96576e-05
3.25527e-05
2.68487e-05
2.37126e-05
2.2666e-05
2.23783e-05
2.20928e-05
2.23284e-05
2.46688e-05
3.23074e-05
5.60722e-05
5.53081e-05
2.40445e-05
1.72223e-05
1.66617e-05
1.6428e-05
1.79617e-05
2.38039e-05
2.62139e-05
2.79322e-05
3.34636e-05
3.56225e-05
2.85442e-05
1.49566e-05
7.11253e-06
3.93698e-06
5.75708e-06
1.3787e-05
5.10425e-05
0.000121205
1.26546e-05
6.01337e-06
4.09597e-05
0.000135748
9.8934e-05
5.05324e-05
3.80817e-05
3.97582e-05
4.4452e-05
4.92252e-05
5.17414e-05
5.35152e-05
6.02156e-05
7.36865e-05
8.11788e-05
7.26878e-05
6.24806e-05
5.35271e-05
4.70187e-05
5.08043e-05
5.51159e-05
3.71379e-05
2.73533e-05
2.62127e-05
2.92227e-05
2.79486e-05
1.86428e-05
1.18659e-05
9.73205e-06
1.01703e-05
1.33993e-05
2.38053e-05
5.93813e-05
0.00010144
5.79991e-05
1.32849e-05
1.29527e-05
0.00036846
0.000174835
5.50665e-05
2.94437e-05
2.34355e-05
2.44229e-05
3.37516e-05
6.11126e-05
0.000108004
7.87748e-05
5.64945e-05
5.84078e-05
7.09661e-05
7.76522e-05
6.48304e-05
4.69794e-05
3.47954e-05
2.84785e-05
2.68663e-05
2.89035e-05
3.17176e-05
3.30768e-05
3.19336e-05
2.60201e-05
1.91826e-05
1.31224e-05
8.08549e-06
7.25445e-06
1.00942e-05
1.85105e-05
4.58648e-05
9.20497e-05
5.08305e-05
1.25566e-05
5.10914e-06
2.20772e-05
2.30762e-05
2.45007e-05
2.67264e-05
3.54825e-05
7.15193e-05
0.000121806
7.87121e-05
6.22665e-05
5.49231e-05
4.41326e-05
3.93031e-05
4.43616e-05
6.15913e-05
9.30774e-05
0.000119858
9.94454e-05
5.99273e-05
4.08481e-05
3.53909e-05
3.65103e-05
3.86324e-05
3.89154e-05
3.78272e-05
3.42477e-05
2.91472e-05
2.56974e-05
1.89552e-05
1.23687e-05
1.26456e-05
1.99382e-05
5.66378e-05
6.85183e-05
1.10095e-05
3.78315e-06
1.36451e-05
2.85813e-05
5.60631e-05
0.000110916
0.000102791
6.7819e-05
6.55169e-05
9.00155e-05
0.000144459
0.000143819
0.000133508
0.000169612
0.000158774
0.000120102
0.000113268
0.000110248
8.65862e-05
5.69522e-05
3.97213e-05
3.37216e-05
3.48863e-05
4.0045e-05
4.64485e-05
5.3237e-05
5.9723e-05
6.29381e-05
6.04332e-05
5.27438e-05
3.4809e-05
1.57047e-05
9.45113e-06
2.00861e-05
0.000102011
9.43226e-06
7.88681e-06
4.55953e-05
0.000135584
0.000182448
0.000173108
0.000131799
9.84872e-05
8.70535e-05
7.33765e-05
6.12136e-05
6.21903e-05
7.2541e-05
8.74847e-05
0.000104992
0.000128828
0.000160146
0.000180551
0.000150992
8.87776e-05
5.09434e-05
3.61574e-05
3.2906e-05
3.60325e-05
4.32433e-05
5.36662e-05
6.74266e-05
8.28028e-05
9.3898e-05
9.37853e-05
7.79623e-05
3.85841e-05
9.55823e-06
1.02089e-05
4.97776e-05
8.57001e-06
8.80852e-06
6.03711e-05
0.000138384
0.000117475
7.08057e-05
4.57892e-05
4.36329e-05
6.35839e-05
0.000114584
0.000172854
0.000223538
0.000235857
0.000196703
0.000163206
0.000151468
0.000153784
0.00015697
0.000141346
0.000100377
6.15119e-05
4.14176e-05
3.50026e-05
3.65942e-05
4.31529e-05
5.33351e-05
6.71217e-05
8.36812e-05
9.85543e-05
0.000104719
9.70298e-05
6.56919e-05
1.50977e-05
7.89743e-06
2.85602e-05
7.80903e-06
8.17819e-06
5.08286e-05
0.00012568
0.000130552
9.70859e-05
6.12411e-05
4.7364e-05
4.97427e-05
6.36465e-05
8.68354e-05
0.000114865
0.000139739
0.000153786
0.000154101
0.000145456
0.000135561
0.000125476
0.000108658
8.23111e-05
5.63979e-05
4.03684e-05
3.45212e-05
3.65609e-05
4.47162e-05
5.72145e-05
7.17313e-05
8.54715e-05
9.50138e-05
9.67617e-05
8.58506e-05
4.91504e-05
1.34226e-05
1.09377e-05
4.012e-05
7.68779e-06
8.12094e-06
5.05486e-05
0.000134025
0.000137888
0.000112731
8.01191e-05
5.66355e-05
4.82028e-05
5.2607e-05
6.73631e-05
9.05254e-05
0.000119417
0.000149721
0.000175346
0.000189658
0.000188276
0.000172193
0.000145548
0.000111588
7.68855e-05
5.19212e-05
3.9915e-05
3.82203e-05
4.45984e-05
5.77583e-05
7.51181e-05
9.13128e-05
0.000101041
0.000102345
9.46545e-05
7.0297e-05
1.69763e-05
7.7582e-06
2.56383e-05
6.5313e-06
8.13677e-06
4.79329e-05
0.000125655
0.000140324
0.000124893
8.92836e-05
5.60291e-05
4.13562e-05
4.12742e-05
5.20045e-05
7.14875e-05
9.69986e-05
0.000124709
0.000149507
0.000164315
0.000161879
0.000141592
0.000112784
8.59263e-05
6.54728e-05
5.20571e-05
4.59539e-05
4.75998e-05
5.7479e-05
7.41691e-05
9.11891e-05
0.000100749
0.000100941
9.24639e-05
7.03822e-05
3.07134e-05
1.19824e-05
1.46345e-05
6.1101e-05
7.50648e-06
8.27805e-06
5.30351e-05
0.000133114
0.000142847
0.000130113
0.000104578
7.19041e-05
4.81906e-05
4.01031e-05
4.49587e-05
6.02077e-05
8.34143e-05
0.000110468
0.000134785
0.000147362
0.000140345
0.000116651
8.98635e-05
6.95372e-05
5.69597e-05
5.0961e-05
5.13243e-05
5.8437e-05
7.16367e-05
8.67602e-05
9.76312e-05
0.000101656
0.000100115
9.47042e-05
8.32659e-05
4.98522e-05
1.1476e-05
8.10302e-06
3.66464e-05
6.12737e-06
7.85418e-06
5.2399e-05
0.000138255
0.000155225
0.000149023
0.000128767
9.49728e-05
6.14569e-05
4.22681e-05
3.71492e-05
4.20682e-05
5.41048e-05
7.00786e-05
8.34711e-05
8.54358e-05
7.44579e-05
6.0216e-05
5.1568e-05
5.04504e-05
5.50576e-05
6.2333e-05
6.98613e-05
7.70009e-05
8.35793e-05
8.86975e-05
9.1019e-05
8.95033e-05
8.30654e-05
6.81156e-05
4.04302e-05
1.72148e-05
1.13795e-05
1.97789e-05
8.08808e-05
7.59892e-06
7.95844e-06
5.44659e-05
0.000146253
0.00016964
0.000171071
0.000164012
0.000143452
0.000105944
6.91424e-05
4.8244e-05
4.06811e-05
4.10061e-05
4.58508e-05
5.20559e-05
5.47451e-05
5.10397e-05
4.48462e-05
4.19049e-05
4.42447e-05
5.03059e-05
5.74016e-05
6.39917e-05
6.98729e-05
7.52116e-05
7.99391e-05
8.36988e-05
8.58052e-05
8.47164e-05
7.66555e-05
5.43234e-05
2.2335e-05
8.54378e-06
1.08124e-05
5.42826e-05
5.8977e-06
7.91295e-06
5.53173e-05
0.00014875
0.000172097
0.000176964
0.000179268
0.00017975
0.00017111
0.000140371
9.6198e-05
6.50862e-05
4.96006e-05
4.28809e-05
4.09427e-05
4.17122e-05
4.26437e-05
4.08104e-05
3.66789e-05
3.44056e-05
3.67275e-05
4.30059e-05
5.0542e-05
5.6869e-05
6.10115e-05
6.29455e-05
6.28535e-05
6.09978e-05
5.73777e-05
5.03434e-05
3.50813e-05
1.59532e-05
1.00397e-05
2.00381e-05
6.86228e-05
7.32776e-06
7.62641e-06
4.88025e-05
0.000142456
0.000181199
0.00019147
0.000192688
0.00019142
0.000192206
0.000193943
0.000184577
0.00014988
0.000105886
7.51884e-05
5.76613e-05
4.79582e-05
4.31586e-05
4.1385e-05
4.01356e-05
3.66186e-05
3.14162e-05
2.80807e-05
2.88661e-05
3.33155e-05
3.82442e-05
4.054e-05
3.85601e-05
3.25884e-05
2.59764e-05
2.20413e-05
2.37989e-05
2.07973e-05
6.73622e-06
6.87173e-06
3.66193e-05
7.20333e-06
7.32396e-06
4.49299e-05
0.000138421
0.000187221
0.000198936
0.000196968
0.000188211
0.000179082
0.000176291
0.000184432
0.000201129
0.000209726
0.000186281
0.000137389
9.56336e-05
6.97256e-05
5.46604e-05
4.65977e-05
4.34565e-05
4.29824e-05
4.17416e-05
3.74176e-05
3.1443e-05
2.47669e-05
1.36176e-05
2.31516e-06
1.6848e-06
1.83859e-07
6.8428e-07
2.83978e-06
8.46196e-06
1.95605e-05
6.72128e-05
3.60948e-05
7.228e-06
7.24022e-06
4.25446e-05
0.000133265
0.000190306
0.00020737
0.000209977
0.000203503
0.000189714
0.000171197
0.000154048
0.000145774
0.000151274
0.000171169
0.000196192
0.000200232
0.000163267
0.00011209
7.56551e-05
5.43138e-05
4.24515e-05
3.66172e-05
3.44706e-05
3.32962e-05
3.00046e-05
2.32497e-05
1.48015e-05
7.03916e-06
6.52899e-07
3.38147e-06
1.63283e-06
1.95268e-06
4.83787e-06
9.04922e-06
4.47289e-05
5.09792e-06
7.41105e-06
4.42426e-05
0.000133183
0.000191354
0.000209421
0.000213046
0.000209872
0.000204145
0.000197765
0.000189325
0.000176362
0.000160934
0.00015066
0.000152963
0.000172326
0.000208261
0.000243246
0.000234253
0.000169009
0.000106961
7.16776e-05
5.38719e-05
4.5538e-05
4.23942e-05
4.09748e-05
3.76137e-05
3.46197e-05
3.03729e-05
5.14918e-05
4.75207e-06
1.32638e-06
1.74467e-06
4.23107e-07
3.9655e-06
8.28551e-06
7.83353e-06
4.67263e-05
0.000138268
0.00018966
0.000202894
0.000201644
0.000192149
0.000180257
0.000171753
0.000169832
0.00017406
0.000180542
0.000183654
0.000181143
0.000178063
0.000181926
0.000194824
0.000208279
0.000202035
0.000162406
0.000112012
7.67654e-05
5.77991e-05
4.82143e-05
3.72623e-05
9.58821e-06
1.90654e-06
1.85688e-06
6.40279e-06
1.76928e-05
2.83304e-05
2.75879e-05
4.07345e-05
4.51657e-05
8.6627e-06
8.2108e-06
5.07495e-05
0.000146514
0.00019311
0.000198829
0.00018905
0.00017275
0.000158263
0.000150203
0.000149397
0.000155434
0.00016739
0.000182541
0.000195319
0.000200019
0.000197667
0.000198121
0.000211573
0.000238696
0.000259717
0.000233305
0.000153201
8.33682e-05
4.78521e-05
3.1963e-05
2.31702e-05
1.49456e-05
8.15891e-06
8.35724e-06
1.65737e-05
3.63317e-05
3.91422e-05
1.71937e-05
1.39552e-05
1.35837e-06
8.74407e-06
6.02021e-05
0.00016723
0.000195019
0.000187908
0.00016728
0.000146549
0.000136317
0.000138072
0.000148769
0.000164884
0.000184367
0.000207195
0.000233719
0.000261499
0.000282906
0.000287165
0.000270863
0.000244478
0.000219548
0.000198709
0.000178821
0.000154466
0.000124253
0.00010295
9.30946e-05
7.49579e-05
5.98617e-05
4.44933e-05
1.78288e-05
4.49323e-06
6.84389e-06
9.82868e-06
8.79286e-06
5.23086e-06
8.77057e-06
6.37428e-05
0.000173153
0.00018586
0.000162652
0.000129918
0.000110241
0.000109496
0.000125286
0.00015427
0.000191584
0.000231364
0.000269622
0.000305316
0.000339064
0.000370157
0.000380575
0.000372927
0.000363632
0.000346176
0.000235715
0.000126213
6.36191e-05
2.90321e-05
1.037e-05
1.12038e-05
2.85065e-05
6.48448e-05
7.30167e-05
4.30361e-05
2.63317e-05
2.96354e-05
4.48857e-05
6.88682e-05
8.64907e-06
8.72579e-06
6.09249e-05
0.000170296
0.000170199
0.000131924
9.63516e-05
8.29453e-05
8.95092e-05
0.000112509
0.00014846
0.000190423
0.000229662
0.000260396
0.000280592
0.000289967
0.000289386
0.000282623
0.000277189
0.000279986
0.00028982
0.000292771
0.000263677
0.000180605
8.67166e-05
3.75205e-05
1.97108e-05
2.0016e-05
3.397e-05
5.17696e-05
5.99853e-05
6.07314e-05
6.32732e-05
6.50183e-05
4.22564e-05
3.99608e-06
8.53516e-06
5.60739e-05
0.000160784
0.000156183
0.000109827
7.49053e-05
6.50849e-05
7.48809e-05
0.000102263
0.000145715
0.000197714
0.000246839
0.000286076
0.000314499
0.000333937
0.000346537
0.000353482
0.000354391
0.000347157
0.000328683
0.000297433
0.000257503
0.000218503
0.000185032
0.000148484
0.000105962
7.76687e-05
6.15446e-05
4.43764e-05
3.31489e-05
3.24317e-05
3.94005e-05
4.6786e-05
4.30769e-05
3.94065e-06
8.49092e-06
5.02425e-05
0.000145018
0.000145278
9.84466e-05
6.24633e-05
5.0927e-05
5.71331e-05
8.0131e-05
0.000122883
0.000183996
0.000251641
0.000312054
0.000359592
0.000394907
0.000418746
0.000419173
0.000416192
0.000411709
0.000405828
0.000398677
0.000390427
0.000381332
0.000331685
0.000232933
0.000122314
6.51285e-05
4.66767e-05
4.10284e-05
3.54337e-05
2.97488e-05
2.78384e-05
3.75776e-05
3.92109e-05
5.43182e-06
8.38346e-06
4.43624e-05
0.000129592
0.000135764
9.08155e-05
5.52293e-05
4.12783e-05
4.12266e-05
5.45011e-05
8.64302e-05
0.000143343
0.000222233
0.000306602
0.000380796
0.00042005
0.000422656
0.000423269
0.000421899
0.000418577
0.000413345
0.000406265
0.000397435
0.000361142
0.000268778
0.000165816
8.74468e-05
5.05562e-05
4.41587e-05
5.36018e-05
5.41495e-05
3.99973e-05
3.20575e-05
4.46031e-05
3.53606e-05
4.91744e-06
8.63094e-06
4.31778e-05
0.000125286
0.000127476
7.82982e-05
4.74452e-05
3.7208e-05
3.56678e-05
4.17869e-05
6.29716e-05
0.000108775
0.000184881
0.00028079
0.000371667
0.000414787
0.000419738
0.000422646
0.00042349
0.000422283
0.000419058
0.000413867
0.000406791
0.000355147
0.000277429
0.000190289
0.000113017
6.58809e-05
4.85185e-05
5.21497e-05
6.50127e-05
6.61103e-05
6.1374e-05
6.7336e-05
3.71155e-05
4.2791e-06
8.91636e-06
4.63272e-05
0.000126362
0.00010891
5.74867e-05
3.46831e-05
3.15486e-05
3.70615e-05
4.56818e-05
6.42924e-05
0.000105861
0.000178418
0.000272939
0.000363018
0.000409639
0.00041604
0.000420633
0.000423316
0.000424039
0.000422797
0.000419621
0.000407726
0.000357858
0.000296746
0.000228026
0.000157672
0.000100813
6.88165e-05
5.93692e-05
6.64559e-05
7.95916e-05
8.4027e-05
7.96271e-05
4.48372e-05
4.84472e-06
8.97564e-06
5.03737e-05
0.000123816
9.42162e-05
4.80299e-05
2.83227e-05
2.60545e-05
3.49913e-05
5.12473e-05
7.66104e-05
0.000119817
0.000183876
0.000257604
0.000325171
0.000376895
0.00040945
0.000417497
0.000421215
0.00042323
0.000423473
0.0004129
0.00038333
0.000342174
0.000292396
0.000236311
0.000179118
0.00012936
9.50994e-05
7.8547e-05
7.58116e-05
7.81739e-05
7.76451e-05
7.74354e-05
5.79207e-05
6.69048e-06
8.83013e-06
5.01096e-05
0.000123587
0.000104574
5.85859e-05
3.21013e-05
2.36835e-05
2.67446e-05
3.91011e-05
6.24023e-05
0.000101716
0.000158041
0.000222192
0.000282632
0.000332932
0.000371188
0.000397676
0.000413156
0.000418145
0.000412593
0.000395608
0.00036702
0.000327961
0.000280559
0.000228575
0.000177743
0.000134285
0.000102252
8.22802e-05
7.18732e-05
6.75585e-05
6.90804e-05
7.80239e-05
5.5368e-05
7.56697e-06
8.99333e-06
5.10306e-05
0.000128205
0.000123419
8.09119e-05
4.37646e-05
2.7128e-05
2.21694e-05
2.38834e-05
3.3094e-05
5.54607e-05
9.85636e-05
0.000162085
0.000231265
0.000291854
0.000339702
0.00037559
0.000400333
0.000412277
0.000413429
0.000399442
0.000371838
0.000332356
0.00028391
0.00023072
0.000178249
0.000132013
9.59635e-05
7.21196e-05
6.0953e-05
6.1486e-05
7.2148e-05
8.62995e-05
4.23567e-05
7.25679e-06
9.32112e-06
5.76294e-05
0.00013584
0.000129251
9.37533e-05
5.82511e-05
3.79547e-05
2.90421e-05
2.36031e-05
1.98251e-05
2.44063e-05
4.42342e-05
8.85377e-05
0.000157536
0.000231525
0.000293833
0.000340945
0.000374222
0.000394054
0.00039967
0.000390404
0.000366608
0.000329921
0.000283134
0.000230162
0.000175988
0.000126192
8.60461e-05
5.94997e-05
4.84723e-05
5.34345e-05
7.13078e-05
7.92141e-05
2.95089e-05
6.43137e-06
9.40769e-06
6.4061e-05
0.000140177
0.000135757
0.000107113
7.22963e-05
4.80903e-05
3.7542e-05
3.34333e-05
2.54215e-05
1.69136e-05
1.98228e-05
4.00829e-05
8.65605e-05
0.000156227
0.000225692
0.000277868
0.000312613
0.00033505
0.000347921
0.000350999
0.000342961
0.000322913
0.000291087
0.000249088
0.000200093
0.000149229
0.000103506
6.99135e-05
5.25631e-05
5.276e-05
6.87631e-05
7.5392e-05
2.60624e-05
6.12796e-06
9.10823e-06
6.06226e-05
0.000140138
0.000151204
0.000138864
0.000106312
6.68712e-05
4.26888e-05
3.39064e-05
3.18897e-05
2.51658e-05
1.68666e-05
2.11232e-05
4.40185e-05
9.14683e-05
0.000153396
0.00020842
0.000247649
0.000274201
0.000292227
0.000302331
0.000302837
0.00029242
0.000271404
0.000241236
0.000203812
0.000161902
0.000120305
8.57514e-05
6.43022e-05
5.93791e-05
7.14847e-05
7.95849e-05
2.76834e-05
6.33455e-06
8.98138e-06
5.929e-05
0.000148022
0.00016769
0.000163998
0.000147997
0.000113797
7.08469e-05
4.34147e-05
3.16338e-05
2.68354e-05
2.0661e-05
1.48677e-05
2.0191e-05
4.21682e-05
8.50708e-05
0.000135675
0.000173042
0.000194762
0.000208279
0.000219718
0.000231925
0.000243871
0.000251087
0.000247982
0.000231356
0.000202118
0.000164952
0.000127748
9.972e-05
8.77185e-05
9.36569e-05
0.000101809
3.63818e-05
6.75843e-06
9.00966e-06
6.07911e-05
0.00015929
0.000179589
0.000174554
0.000166202
0.000158185
0.000137496
9.41682e-05
5.75042e-05
3.97155e-05
3.20519e-05
2.37713e-05
1.33359e-05
1.28124e-05
2.67342e-05
5.89455e-05
0.000104814
0.000144863
0.000172327
0.000192923
0.000208788
0.000218005
0.000219433
0.000214505
0.000204769
0.000189862
0.000169161
0.000144881
0.000123223
0.000112206
0.000116915
0.000126571
5.18e-05
7.51202e-06
8.91809e-06
5.778e-05
0.000159199
0.000183337
0.000174927
0.00015929
0.000149677
0.000148242
0.000142017
0.00010954
6.8064e-05
4.40596e-05
3.44783e-05
2.94418e-05
1.96759e-05
1.32195e-05
1.91573e-05
4.09938e-05
8.04916e-05
0.000114405
0.000125241
0.000130353
0.000143725
0.000168297
0.000197787
0.000218315
0.000221427
0.000209197
0.000188178
0.000166626
0.000152938
0.000150591
0.000145838
5.79422e-05
7.7882e-06
8.92588e-06
5.47496e-05
0.000154421
0.000182416
0.000171369
0.000151581
0.000139717
0.000141454
0.000154066
0.000164997
0.000145586
9.23446e-05
5.34864e-05
3.8579e-05
3.80477e-05
3.85815e-05
2.67553e-05
1.51117e-05
1.774e-05
4.1917e-05
9.14473e-05
0.000133448
0.000142253
0.000140765
0.000148696
0.000166861
0.000182985
0.000186533
0.000179282
0.000168521
0.000161464
0.000161579
0.000158543
6.7158e-05
8.16026e-06
9.177e-06
5.58822e-05
0.000154974
0.000176539
0.000157837
0.000133472
0.000121564
0.000124378
0.000137882
0.000156804
0.000171903
0.000160948
0.0001059
5.6223e-05
3.68852e-05
3.8106e-05
5.10333e-05
5.58795e-05
3.79418e-05
2.18399e-05
2.44673e-05
4.95897e-05
8.37449e-05
0.000100907
0.000106399
0.000119156
0.00014598
0.000175785
0.000191016
0.000191284
0.000185606
0.000178706
0.000159849
6.09635e-05
8.0906e-06
9.35329e-06
5.61954e-05
0.000153205
0.00016637
0.000141046
0.000116183
0.000109362
0.000118793
0.000137493
0.000157816
0.000172709
0.000173729
0.000147445
9.44702e-05
5.51876e-05
4.25965e-05
4.76709e-05
5.96522e-05
6.02818e-05
4.05409e-05
2.38786e-05
2.72727e-05
5.48036e-05
9.24634e-05
0.000109318
0.000109514
0.000114982
0.000134177
0.00016075
0.000179406
0.000184685
0.000180053
0.000159055
5.98524e-05
8.26712e-06
9.33301e-06
5.33593e-05
0.000144071
0.000150976
0.000119655
9.52593e-05
9.36584e-05
0.000110987
0.000138675
0.000164775
0.000178733
0.000172681
0.00014221
9.87526e-05
6.70335e-05
5.6421e-05
6.33732e-05
8.01978e-05
9.1199e-05
7.94033e-05
5.30214e-05
3.49517e-05
3.40275e-05
5.12653e-05
7.89716e-05
9.93345e-05
0.000106037
0.000111071
0.000123643
0.00014217
0.000157855
0.000163472
0.000148053
5.40873e-05
8.32183e-06
9.27427e-06
5.19342e-05
0.000137154
0.000136765
0.000101715
7.68631e-05
7.58012e-05
9.53144e-05
0.000129501
0.000164516
0.000183796
0.000175413
0.000137218
9.18035e-05
6.66042e-05
6.50881e-05
8.13607e-05
0.000107291
0.000128081
0.000126129
9.92304e-05
6.55672e-05
4.18268e-05
3.27366e-05
3.89789e-05
5.69268e-05
7.68982e-05
9.24104e-05
0.000106027
0.000122496
0.000139748
0.000149274
0.000131557
4.40919e-05
8.02847e-06
9.06779e-06
4.90409e-05
0.000132685
0.000135915
0.000101874
7.16172e-05
6.47871e-05
7.91268e-05
0.000110145
0.00014544
0.000167344
0.000162335
0.000127872
8.67374e-05
6.67463e-05
7.32196e-05
0.000100905
0.000138141
0.00016876
0.000179539
0.000164858
0.000130447
9.13098e-05
6.09126e-05
4.43565e-05
4.11795e-05
4.82298e-05
6.05278e-05
7.50687e-05
9.29015e-05
0.000114329
0.000131419
0.000121143
4.00094e-05
7.79696e-06
8.94124e-06
4.81992e-05
0.000135749
0.000145537
0.000110521
6.9775e-05
5.39393e-05
6.07464e-05
8.67703e-05
0.000124454
0.000156704
0.000166238
0.000141059
9.23505e-05
6.0415e-05
6.11921e-05
9.19556e-05
0.000144792
0.000197263
0.000228347
0.000232389
0.000213191
0.000177544
0.000135321
9.78724e-05
7.19764e-05
5.82674e-05
5.47193e-05
5.89606e-05
7.00538e-05
8.88755e-05
0.00011167
0.000116057
4.06622e-05
7.93517e-06
8.97103e-06
4.95228e-05
0.000144521
0.000156063
0.000117916
7.25162e-05
5.13789e-05
5.32473e-05
7.51474e-05
0.000111751
0.000147951
0.00016831
0.000161166
0.00011984
7.05483e-05
5.25195e-05
6.97308e-05
0.000116661
0.000175602
0.000220633
0.000240213
0.000237499
0.000218358
0.000187013
0.000148542
0.000110911
8.18009e-05
6.43636e-05
5.78916e-05
6.10956e-05
7.48032e-05
9.93326e-05
0.000115149
4.24127e-05
8.35113e-06
9.09117e-06
5.20705e-05
0.000153268
0.000152536
0.000105414
6.73525e-05
5.0648e-05
5.24768e-05
7.41707e-05
0.000112248
0.000147623
0.000162797
0.000150781
0.000114069
7.29097e-05
5.17768e-05
6.13072e-05
0.000103844
0.000166264
0.00021385
0.000233671
0.00023263
0.000217301
0.000190676
0.000156591
0.000121595
9.25458e-05
7.31432e-05
6.38186e-05
6.45702e-05
7.78043e-05
0.000105069
0.000121434
4.23019e-05
8.61521e-06
9.38365e-06
5.76112e-05
0.000153683
0.000132564
8.56033e-05
6.0558e-05
5.33078e-05
5.87212e-05
8.10097e-05
0.000121389
0.000165054
0.000195783
0.000203623
0.000173382
0.000106796
5.47799e-05
4.05295e-05
6.10257e-05
0.000116274
0.000169164
0.000185838
0.000181411
0.000170984
0.000157205
0.00013856
0.000116262
9.50641e-05
7.95803e-05
7.22878e-05
7.52372e-05
9.21303e-05
0.000121929
0.000129405
4.22911e-05
8.68216e-06
9.48025e-06
6.17334e-05
0.000144106
0.000117157
7.56161e-05
5.6676e-05
5.57961e-05
6.64475e-05
8.7511e-05
0.000117507
0.000147723
0.000170623
0.000184292
0.000185408
0.000161305
0.000105009
5.35985e-05
3.61199e-05
5.10107e-05
0.000101637
0.000157887
0.000171343
0.000158724
0.000141198
0.000125111
0.000110699
9.79613e-05
8.84939e-05
8.53558e-05
9.25818e-05
0.000113815
0.000141794
0.000133888
4.19604e-05
8.45858e-06
9.39068e-06
6.15475e-05
0.000142204
0.00012729
8.83254e-05
6.22172e-05
5.5442e-05
6.29817e-05
8.23778e-05
0.000111771
0.000145198
0.000174156
0.000193585
0.000202113
0.000197462
0.000170928
0.000116165
6.06288e-05
3.44851e-05
3.64689e-05
6.57553e-05
0.000106748
0.000123269
0.000119932
0.000110939
0.000102496
9.65725e-05
9.39893e-05
9.67119e-05
0.000108777
0.0001325
0.000156359
0.000139193
4.22489e-05
8.17203e-06
9.08003e-06
5.6045e-05
0.000145464
0.000151637
0.000122191
8.17401e-05
5.82992e-05
5.32947e-05
6.18962e-05
8.19556e-05
0.000110432
0.000141539
0.000169878
0.000192208
0.00020554
0.000204083
0.000177406
0.000121539
6.36426e-05
3.36513e-05
3.12548e-05
5.46672e-05
9.30414e-05
0.00011189
0.000109319
0.000100748
9.50641e-05
9.58242e-05
0.000104629
0.000122431
0.000146582
0.000163475
0.000139559
4.23314e-05
8.00852e-06
8.82643e-06
4.89088e-05
0.00013837
0.000161663
0.000146942
0.000112159
7.49512e-05
5.48994e-05
5.23242e-05
6.48014e-05
9.20635e-05
0.000129672
0.000167662
0.000198878
0.000221661
0.000234201
0.000227902
0.000188369
0.00011988
6.02486e-05
3.28423e-05
3.09269e-05
4.91511e-05
7.69673e-05
9.34186e-05
9.49154e-05
9.15993e-05
9.20947e-05
0.000101459
0.000121235
0.00014566
0.000159795
0.000137351
4.27412e-05
8.04682e-06
8.70926e-06
4.5199e-05
0.000135814
0.000157714
0.000133856
0.000106426
8.59044e-05
6.6058e-05
5.33896e-05
5.49849e-05
7.37077e-05
0.000112193
0.000166507
0.000223476
0.00027098
0.000300269
0.000295988
0.000239561
0.000148405
7.50423e-05
3.92565e-05
2.96893e-05
3.91945e-05
6.43169e-05
8.77861e-05
9.4575e-05
9.18409e-05
9.07726e-05
9.78761e-05
0.000115594
0.000138941
0.000152999
0.000131938
4.15369e-05
8.12602e-06
8.92676e-06
4.63678e-05
0.000140166
0.000155344
0.000115187
8.60009e-05
7.78318e-05
7.51991e-05
6.76499e-05
6.51906e-05
7.91169e-05
0.000114726
0.000169908
0.000232865
0.000291153
0.000333991
0.000336143
0.000284097
0.000169175
7.83014e-05
3.89817e-05
2.92764e-05
3.56132e-05
5.46808e-05
7.90103e-05
9.18385e-05
9.12425e-05
8.92764e-05
9.48498e-05
0.000111244
0.00013438
0.000149515
0.000127318
3.92375e-05
8.12714e-06
9.44084e-06
5.62301e-05
0.000157883
0.000134297
8.34947e-05
6.3535e-05
6.49236e-05
7.51205e-05
8.2542e-05
8.85708e-05
0.000107446
0.00014884
0.000207797
0.000269015
0.000319483
0.000345063
0.000337895
0.000282525
0.000166649
7.6218e-05
3.67756e-05
2.86578e-05
3.84419e-05
5.48672e-05
7.02887e-05
8.28528e-05
8.8002e-05
8.89839e-05
9.49415e-05
0.000111234
0.000134524
0.00014955
0.000123398
3.72985e-05
8.08268e-06
9.48527e-06
6.31442e-05
0.000154368
0.000103221
6.35722e-05
5.64785e-05
6.77181e-05
8.74659e-05
0.000106221
0.000123018
0.000145459
0.000178647
0.000218787
0.000258456
0.000292893
0.000317261
0.0003179
0.000270573
0.000176216
8.7679e-05
4.00734e-05
2.52493e-05
3.28536e-05
5.44106e-05
6.52984e-05
7.12655e-05
7.85525e-05
8.56328e-05
9.48396e-05
0.00011189
0.000135177
0.00014986
0.000121901
3.68051e-05
8.08969e-06
9.32131e-06
6.36911e-05
0.000141844
8.41701e-05
5.29629e-05
5.19384e-05
7.05084e-05
0.000101446
0.000132095
0.000156622
0.000178697
0.000203001
0.000230076
0.000256994
0.000280448
0.000297192
0.000300017
0.000273657
0.000206588
0.000120607
5.70459e-05
2.77985e-05
2.35555e-05
4.06591e-05
6.28396e-05
6.55913e-05
6.89192e-05
7.89238e-05
9.31124e-05
0.000111743
0.000135116
0.000150884
0.000124741
3.77975e-05
8.19509e-06
9.01006e-06
5.70641e-05
0.000140419
8.79239e-05
5.23189e-05
4.73369e-05
6.27919e-05
9.5869e-05
0.000137098
0.000173674
0.00020232
0.000226771
0.000250253
0.000272974
0.000293167
0.000308358
0.00031434
0.00030158
0.000255684
0.000175712
9.34877e-05
4.2004e-05
2.17237e-05
2.36731e-05
4.72496e-05
6.59297e-05
6.35908e-05
6.84499e-05
8.61906e-05
0.00011162
0.000137189
0.00015302
0.00012753
3.84844e-05
8.22897e-06
9.0963e-06
5.44838e-05
0.000144321
0.000100777
5.65558e-05
4.44096e-05
5.22602e-05
7.79356e-05
0.000119956
0.000168929
0.000214292
0.000252634
0.000285262
0.000313759
0.000338168
0.000356812
0.000366424
0.000360805
0.000328554
0.000257734
0.000159378
7.57372e-05
3.1618e-05
1.73573e-05
2.45995e-05
5.44227e-05
6.8927e-05
6.32783e-05
7.19901e-05
0.00010003
0.000133778
0.000150066
0.000120215
3.63966e-05
8.01767e-06
9.33834e-06
5.87351e-05
0.000142325
8.38624e-05
5.11551e-05
4.58216e-05
5.51824e-05
7.95732e-05
0.000122343
0.000178241
0.000234785
0.000284149
0.000326224
0.000363826
0.000394107
0.000391783
0.000384655
0.000375667
0.000364898
0.000336253
0.000243557
0.000135324
5.85352e-05
2.33748e-05
1.42808e-05
2.56557e-05
6.10834e-05
7.5838e-05
7.16428e-05
8.64975e-05
0.00011991
0.000141517
0.000109271
3.29277e-05
7.62301e-06
9.39051e-06
6.52257e-05
0.000125653
6.5863e-05
4.52202e-05
4.95371e-05
6.78597e-05
9.57262e-05
0.00013434
0.000182358
0.000233187
0.000281361
0.000325335
0.000364586
0.000394358
0.000401472
0.000395643
0.000387941
0.000378376
0.000367027
0.00030712
0.000212111
0.000113558
4.76353e-05
1.90038e-05
1.26068e-05
2.44204e-05
6.23764e-05
9.08596e-05
9.64505e-05
0.00011656
0.000136544
0.000106203
3.12328e-05
7.30955e-06
9.22886e-06
6.76011e-05
0.000113122
6.37992e-05
4.49774e-05
4.99841e-05
7.26063e-05
0.00010673
0.000144716
0.000184284
0.000224773
0.000264577
0.000301803
0.000334672
0.000361303
0.000380046
0.000390297
0.00039279
0.000386866
0.000368054
0.000330531
0.00027093
0.000190161
0.000104436
4.48142e-05
1.82731e-05
1.18363e-05
2.13683e-05
5.92811e-05
0.000107385
0.000123892
0.000134412
0.000103773
3.12956e-05
7.25975e-06
8.82095e-06
5.84787e-05
0.000124697
9.5654e-05
5.74451e-05
4.37556e-05
5.05142e-05
7.53448e-05
0.000115402
0.000161505
0.000205939
0.000246791
0.000283961
0.000316639
0.000343421
0.000363007
0.000374781
0.000379004
0.000375819
0.000364047
0.000341378
0.000305825
0.000255409
0.000187427
0.000109629
4.97812e-05
2.08219e-05
1.2254e-05
1.91401e-05
5.57919e-05
0.000110253
0.000122817
9.93976e-05
3.25721e-05
7.50026e-06
8.67912e-06
5.24238e-05
0.000126626
0.00013277
9.61744e-05
5.10877e-05
3.62146e-05
4.24094e-05
6.77598e-05
0.000113312
0.000170806
0.000227166
0.00027631
0.000317834
0.000351811
0.000377173
0.000392663
0.000398271
0.0003954
0.00038536
0.000368002
0.000341886
0.000305707
0.000258145
0.000196323
0.000122599
5.91202e-05
2.48361e-05
1.32854e-05
1.95971e-05
5.84877e-05
0.000104732
9.99761e-05
3.43834e-05
7.85259e-06
8.68581e-06
5.4406e-05
0.000138262
0.000152837
0.000141658
9.86582e-05
5.09694e-05
3.51017e-05
4.1576e-05
6.89149e-05
0.000119627
0.000186335
0.000253984
0.000313636
0.000363644
0.000402103
0.00042114
0.000421535
0.00042021
0.000417193
0.000409752
0.000387279
0.000354767
0.000314169
0.00026487
0.00020327
0.000128924
6.14591e-05
2.40244e-05
1.29066e-05
2.34766e-05
7.159e-05
9.84903e-05
3.45037e-05