/*--------------------------------*- C++ -*----------------------------------*\
| =========                 |                                                 |
| \\      /  F ield         | OpenFOAM: The Open Source CFD Toolbox           |
|  \\    /   O peration     | Version:  v2006                                 |
|   \\  /    A nd           | Website:  www.openfoam.com                      |
|    \\/     M anipulation  |                                                 |
\*---------------------------------------------------------------------------*/
FoamFile
{
    version     2.0;
    format      ascii;
    class       volVectorField;
    location    "48";
    object      U;
}
// * * * * * * * * * * * * * * * * * * * * * * * * * * * * * * * * * * * * * //

dimensions      [0 1 -1 0 0 0 0];


internalField   nonuniform List<vector> 
78750
(
(-2.21317 0.302428 0.435306)
(1.40025 0.330939 0.334592)
(0.734519 0.162135 0.118371)
(0.527094 0.12881 -0.0234011)
(0.521898 0.127623 -0.121946)
(0.574332 0.107139 -0.22938)
(0.619092 0.108393 -0.313134)
(0.63586 0.159028 -0.359427)
(0.634015 0.129476 -0.445869)
(0.632156 0.195531 -0.473757)
(0.587736 0.273128 -0.48373)
(0.53216 0.213509 -0.575065)
(0.466545 0.383102 -0.525923)
(0.357144 0.571478 -0.481128)
(0.266846 0.370513 -0.663134)
(0.221547 0.0364798 -0.886493)
(0.197517 -0.162864 -0.984469)
(0.184043 -0.228874 -0.981291)
(0.17354 -0.227385 -0.929114)
(0.164567 -0.2021 -0.868251)
(0.155548 -0.177558 -0.826965)
(0.147163 -0.162166 -0.813464)
(0.138352 -0.159025 -0.824973)
(0.129382 -0.166737 -0.850618)
(0.120102 -0.18072 -0.871702)
(0.110621 -0.194371 -0.881988)
(0.0999105 -0.205656 -0.881734)
(0.0887092 -0.211671 -0.877047)
(0.0781267 -0.216209 -0.868868)
(0.0673196 -0.223429 -0.861038)
(0.0559715 -0.232581 -0.847079)
(0.0436069 -0.241729 -0.839377)
(0.0312337 -0.242158 -0.807709)
(0.0349972 -0.268217 -0.822543)
(-0.00316804 -0.255637 -0.709074)
(-0.782848 1.21987 0.144788)
(0.617504 -0.295332 -0.44766)
(-0.393976 -0.683642 -0.671892)
(0.241714 -0.443673 -0.733277)
(-0.120167 -0.325054 -0.753262)
(0.106582 -0.247091 -0.78362)
(-0.00186202 -0.189251 -0.84096)
(0.0604872 -0.0828042 -0.817626)
(0.0591602 0.00701659 -0.873063)
(0.0761291 0.12983 -0.889797)
(0.0962495 0.284985 -0.858506)
(0.115011 0.450583 -0.814554)
(0.13978 0.582394 -0.770997)
(0.180042 0.622914 -0.760482)
(0.239807 0.584136 -0.75962)
(0.294172 0.552947 -0.695505)
(0.325969 0.542173 -0.539223)
(0.341329 0.525911 -0.322611)
(0.349773 0.488359 -0.0835919)
(0.353243 0.429561 0.128456)
(0.349587 0.371884 0.294214)
(0.336599 0.334549 0.398197)
(0.317005 0.32818 0.430205)
(0.291995 0.350625 0.383903)
(0.262401 0.380726 0.248437)
(0.231057 0.404495 0.0609868)
(0.204876 0.418011 -0.114926)
(0.182464 0.412065 -0.249948)
(0.160015 0.406176 -0.355475)
(0.141711 0.41042 -0.447223)
(0.127896 0.415135 -0.523457)
(0.114244 0.418349 -0.580648)
(0.0926228 0.389388 -0.609772)
(0.0756233 0.3929 -0.632776)
(0.024897 0.446795 -0.517428)
(-0.273123 1.26801 -0.239971)
(0.204935 0.36621 -0.60179)
(-0.199072 0.4311 -0.539878)
(-0.0145105 0.311328 -0.487271)
(-0.16335 0.322297 -0.490473)
(-0.125521 0.322669 -0.450713)
(-0.161411 0.332871 -0.397144)
(-0.141655 0.330606 -0.396066)
(-0.148001 0.334994 -0.38363)
(-0.132224 0.305297 -0.321253)
(-0.125682 0.271245 -0.303638)
(-0.108567 0.20635 -0.236504)
(-0.0894338 0.115741 -0.154699)
(-0.0726913 -0.00462605 -0.0753964)
(-0.0540818 -0.0985683 -0.0152032)
(-0.0332181 -0.146016 0.0336774)
(-0.00785952 -0.174927 0.0745786)
(0.0223365 -0.18603 0.110583)
(0.0535011 -0.178711 0.141659)
(0.0831963 -0.14815 0.168096)
(0.107565 -0.0927722 0.189859)
(0.126279 -0.00785941 0.206038)
(0.13567 0.0935489 0.204973)
(0.135219 0.199635 0.175417)
(0.130506 0.292404 0.112044)
(0.117996 0.321053 -0.0421328)
(0.106126 0.345329 -0.246368)
(0.0975237 0.374915 -0.42704)
(0.0827802 0.341415 -0.510541)
(0.063937 0.301916 -0.504352)
(0.0471337 0.310661 -0.485723)
(0.0338042 0.360839 -0.492531)
(0.0193863 0.434627 -0.514109)
(0.014387 0.517549 -0.514537)
(-0.00226861 0.549989 -0.376844)
(-0.0956919 1.0121 -0.265415)
(0.105101 0.349618 -0.457553)
(-0.0464325 0.240701 -0.41887)
(0.0426393 0.213932 -0.29103)
(-0.0178071 0.256857 -0.085319)
(-0.00660395 0.194647 0.0537845)
(-0.0332442 0.0740264 0.124118)
(-0.0388751 0.043727 0.159468)
(-0.0521756 0.0900185 0.186689)
(-0.0576636 0.152569 0.242535)
(-0.0668828 0.227765 0.285343)
(-0.0754928 0.292823 0.320102)
(-0.0833374 0.308154 0.327405)
(-0.0909574 0.278918 0.330549)
(-0.0965798 0.192994 0.324902)
(-0.0977155 0.0484255 0.313168)
(-0.0944914 -0.0798181 0.300471)
(-0.0886096 -0.16575 0.288512)
(-0.079444 -0.215908 0.277653)
(-0.0664169 -0.237265 0.265546)
(-0.0478423 -0.225692 0.251795)
(-0.0227769 -0.168528 0.238815)
(0.00723114 -0.0613402 0.231222)
(0.0357747 0.0582809 0.219221)
(0.0613303 0.212633 0.209719)
(0.07359 0.37634 0.216161)
(0.0649222 0.452148 0.213455)
(0.0535531 0.502999 0.110801)
(0.0518824 0.5994 -0.116951)
(0.0422344 0.632237 -0.329804)
(0.0283728 0.596428 -0.427672)
(0.0183278 0.569439 -0.439353)
(0.0101811 0.569051 -0.420656)
(0.00575664 0.590267 -0.385154)
(-0.00410416 0.569127 -0.261901)
(0.000716946 0.867251 -0.43291)
(0.109452 0.641323 -0.543705)
(0.0932211 0.555356 -0.537889)
(0.11732 0.496158 -0.50346)
(0.128644 0.475394 -0.409686)
(0.145915 0.469653 -0.281281)
(0.150738 0.457144 -0.141523)
(0.147002 0.421545 -0.0201039)
(0.127484 0.364957 0.0387354)
(0.112142 0.310013 0.0565768)
(0.109591 0.256111 0.0805869)
(0.116207 0.181139 0.122314)
(0.127773 0.0752923 0.157693)
(0.140876 -0.0439758 0.178364)
(0.151228 -0.16184 0.188083)
(0.159642 -0.274318 0.194599)
(0.166293 -0.377677 0.205287)
(0.164554 -0.46427 0.225171)
(0.151848 -0.526138 0.252542)
(0.136092 -0.562799 0.277089)
(0.124078 -0.588793 0.281211)
(0.105156 -0.60862 0.253682)
(0.073466 -0.556677 0.220349)
(0.0419748 -0.402842 0.191897)
(0.0216238 -0.192408 0.182225)
(0.0203478 0.0208175 0.220411)
(0.0281055 0.141217 0.263799)
(0.0355346 0.197465 0.269774)
(0.0453276 0.300291 0.186903)
(0.0544919 0.407396 0.0328779)
(0.0538867 0.491217 -0.0878143)
(0.0452244 0.552993 -0.175012)
(0.0291849 0.608409 -0.23765)
(0.0195484 0.653491 -0.257474)
(0.00625139 0.614945 -0.192367)
(0.0266339 0.233414 -0.29637)
(0.0779321 0.196547 -0.412118)
(0.092951 0.202136 -0.457616)
(0.111222 0.219493 -0.47402)
(0.130805 0.250165 -0.461693)
(0.155009 0.293381 -0.415293)
(0.180906 0.334647 -0.338696)
(0.209153 0.353403 -0.252806)
(0.238435 0.346269 -0.179048)
(0.268704 0.323459 -0.123376)
(0.300447 0.288192 -0.078466)
(0.334898 0.236432 -0.0376658)
(0.371709 0.164413 0.00136581)
(0.410267 0.0829866 0.0352697)
(0.444378 0.0139131 0.0581481)
(0.46382 -0.0393864 0.0771108)
(0.467404 -0.0909596 0.0996762)
(0.457599 -0.0994384 0.108272)
(0.429204 -0.0403916 0.0968215)
(0.389651 -0.0776351 0.132567)
(0.3446 -0.153523 0.19763)
(0.294138 0.000336189 0.158548)
(0.241324 0.241678 0.0415518)
(0.196943 0.324904 -0.0159265)
(0.16659 0.277089 0.00617788)
(0.146882 0.224704 0.0616193)
(0.133604 0.217073 0.131848)
(0.118438 0.241667 0.246205)
(0.0963971 0.359514 0.309321)
(0.0792947 0.527487 0.150759)
(0.0620532 0.624517 -0.0319039)
(0.0449601 0.678995 -0.144077)
(0.0265865 0.738664 -0.22108)
(0.0164788 0.769974 -0.245014)
(0.00326126 0.73036 -0.219168)
(-0.0165286 0.0653954 0.124734)
(-0.00450334 0.325572 0.00730981)
(-0.00354047 0.334327 -0.00254059)
(0.00526244 0.297274 0.0286966)
(0.0195476 0.230928 0.0750602)
(0.0413791 0.156206 0.113398)
(0.070413 0.0728524 0.145951)
(0.10466 -0.0169655 0.172951)
(0.142214 -0.105215 0.193121)
(0.179714 -0.18948 0.208215)
(0.214085 -0.277806 0.223069)
(0.241914 -0.375202 0.238118)
(0.259175 -0.473905 0.249893)
(0.264509 -0.551329 0.25543)
(0.261275 -0.584947 0.254085)
(0.253104 -0.56246 0.248368)
(0.237974 -0.474873 0.242379)
(0.216735 -0.365143 0.23544)
(0.194808 -0.279773 0.218749)
(0.171909 -0.224964 0.191554)
(0.148404 -0.184039 0.16558)
(0.131017 -0.132629 0.14483)
(0.127236 -0.0706539 0.124801)
(0.136642 -0.0251423 0.113881)
(0.147372 0.0130881 0.111515)
(0.150711 0.0597009 0.114166)
(0.146007 0.113163 0.128764)
(0.131348 0.165136 0.192795)
(0.102524 0.283214 0.297311)
(0.0693206 0.510548 0.204272)
(0.0353391 0.676575 -0.0543855)
(0.0102192 0.763896 -0.246123)
(-1.24311e-05 0.842886 -0.312938)
(-0.00316947 0.878174 -0.315691)
(-0.0100323 0.823966 -0.255482)
(-0.0376942 0.0940933 0.182382)
(-0.0531564 -0.0398428 0.110568)
(-0.066494 -0.058689 0.102182)
(-0.0766961 -0.0788038 0.0986862)
(-0.0805726 -0.131655 0.0882936)
(-0.0699052 -0.230035 0.074517)
(-0.0492749 -0.313698 0.0642061)
(-0.0235561 -0.369432 0.0537085)
(0.00598374 -0.390508 0.0434687)
(0.0359386 -0.379593 0.0342007)
(0.0627425 -0.33977 0.0270014)
(0.0827539 -0.282135 0.0241307)
(0.0932318 -0.223967 0.028719)
(0.0943102 -0.176792 0.0430523)
(0.0879221 -0.141702 0.0673773)
(0.0779208 -0.110042 0.0976118)
(0.0684055 -0.0687162 0.125453)
(0.0602222 -0.01471 0.140458)
(0.0516467 0.0329742 0.139122)
(0.0407571 0.0576588 0.130602)
(0.0260106 0.0604226 0.129418)
(0.00906017 0.0572107 0.145574)
(-0.00726401 0.0623885 0.172493)
(-0.0213731 0.073186 0.198042)
(-0.0330533 0.0915872 0.22172)
(-0.0431184 0.13133 0.248865)
(-0.0522318 0.216324 0.27668)
(-0.0604049 0.370708 0.285637)
(-0.0624502 0.59098 0.234267)
(-0.0576368 0.811779 0.0671623)
(-0.0559055 0.913889 -0.154948)
(-0.0561291 0.90739 -0.271832)
(-0.0497382 0.8999 -0.286504)
(-0.0373728 0.873079 -0.248933)
(-0.0185206 0.714761 -0.117138)
(0.00640916 0.402145 0.103892)
(0.0119503 0.400543 0.0939543)
(0.0162888 0.381638 0.0861329)
(0.0213545 0.308722 0.0748014)
(0.0343007 0.119787 0.0701854)
(0.052245 -0.112506 0.0748242)
(0.0689249 -0.325983 0.0792566)
(0.0790695 -0.483298 0.0790134)
(0.0834292 -0.574319 0.0739489)
(0.0856491 -0.616337 0.0650971)
(0.0894728 -0.618984 0.0529995)
(0.0951207 -0.581484 0.0382695)
(0.0985513 -0.527533 0.023946)
(0.0980129 -0.478425 0.0139334)
(0.0938079 -0.437841 0.0131382)
(0.0866974 -0.39869 0.0271537)
(0.0784025 -0.350576 0.0591702)
(0.0713378 -0.286174 0.103457)
(0.0662153 -0.207733 0.145343)
(0.0611524 -0.129105 0.170254)
(0.0543438 -0.0657386 0.174692)
(0.0438127 -0.0221622 0.166272)
(0.0284227 0.0062672 0.155881)
(0.00999627 0.0236527 0.153715)
(-0.00992205 0.0337127 0.165186)
(-0.0306672 0.0417891 0.191737)
(-0.0502374 0.0616141 0.229918)
(-0.0642693 0.124985 0.267054)
(-0.0660438 0.271764 0.275539)
(-0.0520893 0.495445 0.217932)
(-0.0301635 0.707255 0.100417)
(-0.0122978 0.82959 0.00338104)
(-0.00526485 0.840845 -0.0284925)
(-0.00363415 0.790867 -0.00116368)
(0.00365413 0.570889 0.0992767)
(0.0123179 0.027427 0.112553)
(0.0558062 -0.0431543 0.120004)
(0.104739 -0.137302 0.117058)
(0.157327 -0.224427 0.111698)
(0.210316 -0.319368 0.106586)
(0.256449 -0.410081 0.101558)
(0.282539 -0.466863 0.0945163)
(0.283263 -0.483773 0.0848238)
(0.265749 -0.48574 0.0727016)
(0.234028 -0.48667 0.0568568)
(0.199438 -0.470315 0.0395191)
(0.17138 -0.41447 0.025547)
(0.151004 -0.327073 0.0140352)
(0.134265 -0.237836 0.000327954)
(0.118766 -0.169952 -0.0153954)
(0.104509 -0.130062 -0.0277677)
(0.0919597 -0.109986 -0.0321404)
(0.080551 -0.0974491 -0.0233041)
(0.0704897 -0.0781059 0.00855973)
(0.062259 -0.0388195 0.0595325)
(0.0526731 0.0154997 0.10541)
(0.040319 0.0676749 0.13037)
(0.0266245 0.108883 0.136084)
(0.0119554 0.139475 0.132887)
(-0.00382226 0.161818 0.130489)
(-0.0208505 0.177161 0.134869)
(-0.0390815 0.186417 0.148075)
(-0.0565005 0.193783 0.169055)
(-0.0675147 0.213391 0.193263)
(-0.0652028 0.271025 0.210579)
(-0.0471744 0.383255 0.209933)
(-0.0196175 0.541563 0.20083)
(0.00128037 0.681353 0.201597)
(0.00643746 0.673193 0.212476)
(0.00969358 0.532926 0.222689)
(0.00977868 -0.176913 0.0611091)
(0.0397207 -0.398339 0.0652135)
(0.0676601 -0.525506 0.0649558)
(0.088707 -0.592775 0.06311)
(0.0981654 -0.609031 0.058105)
(0.0990985 -0.586385 0.0494761)
(0.0951595 -0.519114 0.0373033)
(0.0884479 -0.425489 0.0229419)
(0.0803752 -0.345491 0.0089529)
(0.0715933 -0.298251 -0.00252363)
(0.0598971 -0.282285 -0.0122264)
(0.0465441 -0.284906 -0.0197966)
(0.0365304 -0.282863 -0.0243949)
(0.030011 -0.266337 -0.0268663)
(0.026701 -0.235559 -0.0272226)
(0.0258172 -0.200907 -0.025045)
(0.0253753 -0.168916 -0.019948)
(0.0243899 -0.137013 -0.00992818)
(0.0226839 -0.0985918 0.00964402)
(0.0207424 -0.0477625 0.0405898)
(0.0185022 0.0119174 0.0717777)
(0.0148696 0.0682183 0.0900561)
(0.00985597 0.11307 0.0947348)
(0.00409865 0.146627 0.0925395)
(-0.00204442 0.171717 0.0898059)
(-0.00839839 0.190084 0.0899701)
(-0.0149785 0.202521 0.0938855)
(-0.0218281 0.210001 0.101199)
(-0.0282935 0.214582 0.111507)
(-0.0323468 0.221089 0.124969)
(-0.0309036 0.242238 0.143673)
(-0.0211082 0.314565 0.175436)
(-0.00217365 0.494558 0.229188)
(0.004525 0.565482 0.245131)
(0.0045929 0.499883 0.209642)
(0.0150777 -0.329893 0.0454146)
(0.037818 -0.476315 0.0702856)
(0.0502256 -0.503082 0.0785194)
(0.0559883 -0.502415 0.079682)
(0.0577805 -0.497155 0.0754267)
(0.0557622 -0.491632 0.0632986)
(0.0504799 -0.488443 0.0413227)
(0.0440169 -0.481721 0.0140082)
(0.0391172 -0.455349 -0.0114227)
(0.0366067 -0.403369 -0.0297599)
(0.0349782 -0.340152 -0.0398221)
(0.0321525 -0.28278 -0.0445414)
(0.0278214 -0.236885 -0.0473774)
(0.022983 -0.200598 -0.0497302)
(0.0185604 -0.171974 -0.0508853)
(0.0151828 -0.149706 -0.0500143)
(0.0129155 -0.131983 -0.0468996)
(0.0113985 -0.115586 -0.0406899)
(0.0103859 -0.0952593 -0.0278311)
(0.0102066 -0.0623575 -0.00194863)
(0.0108794 -0.0129861 0.0330957)
(0.0112486 0.0433298 0.0611939)
(0.0105744 0.0935588 0.0739707)
(0.00903694 0.132008 0.0751214)
(0.00711958 0.159466 0.0716848)
(0.00509423 0.178329 0.0684424)
(0.00302588 0.190591 0.0672519)
(0.000833302 0.197819 0.0682838)
(-0.00159202 0.201314 0.071368)
(-0.00411812 0.202428 0.0767085)
(-0.00615732 0.204624 0.0859218)
(-0.00746789 0.227171 0.107056)
(-0.00100197 0.364697 0.162254)
(0.00259981 0.494533 0.19243)
(0.00181404 0.459586 0.150661)
(0.0025197 -0.466141 0.0664843)
(0.00324691 -0.587117 0.0803793)
(0.00433842 -0.597659 0.0784081)
(0.00603049 -0.584577 0.0733915)
(0.00833496 -0.547206 0.0635522)
(0.0101711 -0.471058 0.0429008)
(0.00904934 -0.369243 0.008414)
(0.00343575 -0.29164 -0.0251415)
(-0.00452884 -0.256332 -0.044385)
(-0.0117039 -0.242992 -0.0529825)
(-0.0164302 -0.234484 -0.0566659)
(-0.0187383 -0.224131 -0.0581058)
(-0.0188933 -0.209861 -0.058303)
(-0.0172013 -0.191635 -0.0576697)
(-0.0143973 -0.171664 -0.0565124)
(-0.0112744 -0.152396 -0.0548429)
(-0.00833935 -0.134756 -0.052353)
(-0.00577905 -0.117746 -0.0483434)
(-0.00351552 -0.0982818 -0.0409459)
(-0.001465 -0.0708582 -0.0259168)
(0.000250366 -0.0304327 -1.1564e-05)
(0.00134675 0.0190846 0.0282714)
(0.00206331 0.0668127 0.046907)
(0.00272262 0.105761 0.054057)
(0.00330639 0.1349 0.0542899)
(0.00382603 0.155574 0.0521341)
(0.00422985 0.169517 0.0501462)
(0.00442719 0.178385 0.0492776)
(0.00431613 0.183548 0.0497732)
(0.00383935 0.186127 0.0518208)
(0.00311176 0.187903 0.0561337)
(0.00179584 0.198048 0.0673757)
(0.000349064 0.287702 0.106799)
(-0.000700004 0.429618 0.138104)
(0.000515434 0.410116 0.102283)
(-0.00447472 -0.415367 0.061999)
(-0.00891462 -0.549122 0.0748002)
(-0.0124331 -0.571466 0.0777956)
(-0.0147823 -0.570081 0.0788067)
(-0.0163081 -0.552265 0.077921)
(-0.0150003 -0.510369 0.072485)
(-0.00915347 -0.444447 0.0590986)
(-0.00113321 -0.376235 0.0395842)
(0.00567444 -0.322241 0.0198582)
(0.00976169 -0.283922 0.00367162)
(0.0113877 -0.256878 -0.0084767)
(0.0115156 -0.236555 -0.017371)
(0.0109289 -0.219598 -0.0238142)
(0.0101605 -0.20354 -0.0283275)
(0.0096301 -0.18673 -0.0312025)
(0.00951438 -0.168732 -0.032593)
(0.00968402 -0.14996 -0.0325442)
(0.00989881 -0.130149 -0.0308336)
(0.0100119 -0.107092 -0.0265978)
(0.00999462 -0.0765932 -0.0178917)
(0.0100026 -0.0352512 -0.00268146)
(0.0102139 0.0132099 0.0159461)
(0.0101627 0.0587644 0.0301572)
(0.00967042 0.0947668 0.0369017)
(0.00914035 0.120882 0.0383987)
(0.00877474 0.139371 0.0375967)
(0.0085792 0.152412 0.0363195)
(0.00845776 0.161595 0.035449)
(0.00827049 0.16811 0.0354172)
(0.00790488 0.173174 0.0365548)
(0.00732063 0.179795 0.039763)
(0.00651913 0.202995 0.0497481)
(0.00386335 0.312091 0.0802959)
(0.00111596 0.421464 0.0989086)
(0.00131588 0.399028 0.0741585)
(-0.00101608 -0.419715 0.0354452)
(-0.000403298 -0.567692 0.0371991)
(-0.000309255 -0.592269 0.0398381)
(0.000509176 -0.591255 0.043694)
(0.00198809 -0.575492 0.0494981)
(0.00461373 -0.542959 0.057187)
(0.00874091 -0.487971 0.0625066)
(0.0138849 -0.414698 0.0580329)
(0.0181881 -0.344129 0.0444023)
(0.0207805 -0.289195 0.0282632)
(0.0219652 -0.249635 0.0138798)
(0.0221814 -0.22106 0.00233832)
(0.0217861 -0.199575 -0.00659483)
(0.021073 -0.182407 -0.0134357)
(0.020267 -0.16757 -0.0186313)
(0.0195171 -0.15352 -0.0224705)
(0.0188652 -0.139027 -0.0250412)
(0.0182393 -0.123087 -0.0261816)
(0.017513 -0.104419 -0.0253334)
(0.0166002 -0.0805406 -0.0211658)
(0.0155785 -0.0477491 -0.0115817)
(0.014714 -0.00551075 0.00307048)
(0.014152 0.0387763 0.0168767)
(0.0138054 0.0762676 0.0249441)
(0.0136194 0.103893 0.02776)
(0.0136336 0.123078 0.027798)
(0.0138181 0.136354 0.0268574)
(0.0140938 0.145749 0.0258443)
(0.0143547 0.152585 0.0252236)
(0.0144552 0.157786 0.0253337)
(0.0142527 0.162646 0.0267254)
(0.0133552 0.173992 0.0322906)
(0.00847884 0.263144 0.0587926)
(0.00311327 0.387648 0.0777882)
(0.00166546 0.366352 0.0559438)
(0.00042628 -0.435157 0.0319883)
(0.000209843 -0.586878 0.0367824)
(-0.000514485 -0.615906 0.0408458)
(-0.000924411 -0.619313 0.0460074)
(-0.00108675 -0.610199 0.0528224)
(-0.000740072 -0.586234 0.0610886)
(0.000575875 -0.53754 0.0692019)
(0.00349571 -0.460595 0.0713225)
(0.00703928 -0.37718 0.0633097)
(0.00969821 -0.309495 0.0498923)
(0.0114694 -0.260951 0.0366884)
(0.0127894 -0.226295 0.0256842)
(0.0138922 -0.200331 0.0168829)
(0.0148321 -0.179591 0.00981055)
(0.0155884 -0.161733 0.00399434)
(0.0161307 -0.144924 -0.000942841)
(0.0163823 -0.12737 -0.00521412)
(0.0161891 -0.107197 -0.00869585)
(0.0153436 -0.082735 -0.0107059)
(0.0137114 -0.0530361 -0.00997903)
(0.011445 -0.0182566 -0.00525109)
(0.00908966 0.0195359 0.0030641)
(0.00727442 0.0555189 0.0116638)
(0.00628858 0.0848101 0.0173422)
(0.00605911 0.106098 0.0198575)
(0.00634522 0.121121 0.0204753)
(0.00693071 0.132106 0.020254)
(0.00765923 0.140681 0.0198097)
(0.00839519 0.14807 0.0195432)
(0.00903908 0.156048 0.0198287)
(0.00960412 0.170664 0.0216262)
(0.00988798 0.220428 0.0294401)
(0.00630101 0.351154 0.0483301)
(0.00259051 0.429128 0.0567237)
(0.00137358 0.396107 0.0434156)
(-6.23932e-05 -0.454981 0.0188124)
(-0.00348537 -0.597146 0.00985197)
(-0.00698723 -0.621056 0.0100857)
(-0.0104205 -0.622012 0.0145695)
(-0.0139117 -0.61175 0.0229449)
(-0.016734 -0.590369 0.035178)
(-0.0181773 -0.553228 0.0504019)
(-0.0169682 -0.491843 0.0635667)
(-0.0130137 -0.411773 0.0656209)
(-0.00872934 -0.337946 0.0567902)
(-0.00544466 -0.283051 0.0450352)
(-0.00302041 -0.244408 0.0349391)
(-0.00116836 -0.216229 0.0272332)
(0.000326909 -0.1941 0.0213537)
(0.00151422 -0.175011 0.0166001)
(0.00230044 -0.15659 0.0124198)
(0.00252416 -0.136543 0.00849286)
(0.00195995 -0.112713 0.00489845)
(0.000564635 -0.0838738 0.00229188)
(-0.0013127 -0.0504539 0.001671)
(-0.00308466 -0.0144857 0.00355746)
(-0.00404993 0.0205254 0.00720411)
(-0.00378771 0.0506418 0.0108647)
(-0.00250056 0.0739242 0.0132978)
(-0.000556945 0.0910465 0.0144353)
(0.00172881 0.103771 0.0147144)
(0.00416454 0.113616 0.0145399)
(0.0066451 0.121608 0.0142068)
(0.0090207 0.128471 0.0139676)
(0.0109542 0.13495 0.0141261)
(0.0120942 0.143327 0.0154508)
(0.0116566 0.168429 0.0216489)
(0.00668592 0.293536 0.0426792)
(0.00192955 0.391188 0.0509946)
(0.00111329 0.356098 0.0369906)
(-0.00234455 -0.431133 0.00735213)
(-0.00896152 -0.569226 -0.00209072)
(-0.0145934 -0.593782 -0.00194184)
(-0.0197149 -0.598331 0.00198737)
(-0.0248147 -0.594543 0.00969392)
(-0.0290642 -0.582932 0.0217685)
(-0.0320259 -0.560205 0.0388308)
(-0.0328176 -0.518596 0.0598714)
(-0.0301107 -0.452136 0.0772738)
(-0.0248936 -0.375115 0.0816384)
(-0.0198926 -0.309077 0.0753361)
(-0.0162491 -0.260015 0.0656064)
(-0.0139924 -0.224312 0.0564224)
(-0.0128387 -0.196647 0.048742)
(-0.012493 -0.172296 0.0422258)
(-0.0127994 -0.147225 0.0362719)
(-0.0137427 -0.118315 0.030536)
(-0.0152732 -0.085097 0.02524)
(-0.0170628 -0.0510058 0.021059)
(-0.018514 -0.0201133 0.0184253)
(-0.0190859 0.00622057 0.0171808)
(-0.0185628 0.0284917 0.016868)
(-0.0170135 0.0472707 0.0169435)
(-0.0147096 0.0628951 0.0170167)
(-0.0119857 0.0757887 0.0169332)
(-0.00909619 0.0865542 0.0167074)
(-0.00618893 0.0959194 0.0164134)
(-0.00334929 0.104787 0.0161362)
(-0.000645765 0.114719 0.0159793)
(0.00193978 0.130091 0.0161945)
(0.00431699 0.166194 0.0179006)
(0.00486776 0.264039 0.0240066)
(0.00183367 0.40953 0.0329533)
(3.12848e-05 0.45735 0.0346705)
(0.000485295 0.404441 0.0268575)
(-0.00149918 -0.420736 0.00561551)
(-0.007373 -0.557403 -0.0036974)
(-0.0128314 -0.58318 -0.00730367)
(-0.0181496 -0.589183 -0.00832659)
(-0.0239014 -0.587963 -0.00711048)
(-0.0294239 -0.581758 -0.00264643)
(-0.0343089 -0.570394 0.00657763)
(-0.0379946 -0.550039 0.0227418)
(-0.0389908 -0.512055 0.0464803)
(-0.0357196 -0.45152 0.0701939)
(-0.0296106 -0.381161 0.0840073)
(-0.023421 -0.316948 0.0873908)
(-0.0187056 -0.265004 0.0845571)
(-0.01593 -0.224392 0.0790915)
(-0.0148695 -0.191077 0.072851)
(-0.0149856 -0.160403 0.0663793)
(-0.0156148 -0.129001 0.0595915)
(-0.0160545 -0.0967063 0.0524464)
(-0.0158801 -0.0663293 0.0455358)
(-0.0150601 -0.0399833 0.039736)
(-0.013667 -0.0174999 0.0352944)
(-0.0117901 0.00197527 0.0319651)
(-0.00950922 0.0190468 0.0294186)
(-0.00691585 0.0340114 0.0274111)
(-0.00417267 0.0470764 0.0258153)
(-0.00146572 0.0584589 0.0245876)
(0.00103868 0.0684115 0.0237344)
(0.00318631 0.0772712 0.0232882)
(0.00484876 0.08573 0.0232908)
(0.00603349 0.0958826 0.0238353)
(0.00692577 0.115768 0.0253721)
(0.00775383 0.177637 0.0303837)
(0.0045104 0.321089 0.0444089)
(0.00156919 0.386523 0.0470258)
(0.00100823 0.343848 0.0361486)
(-0.00318523 -0.403954 0.00785183)
(-0.00912354 -0.531958 -0.0070844)
(-0.0136856 -0.554095 -0.0133318)
(-0.0177931 -0.557489 -0.0165885)
(-0.0220586 -0.553667 -0.0183951)
(-0.0261271 -0.545761 -0.0186103)
(-0.0299614 -0.535993 -0.0166886)
(-0.0333728 -0.52521 -0.0115215)
(-0.0359246 -0.511279 -0.000845504)
(-0.0364719 -0.486756 0.0183313)
(-0.033288 -0.443001 0.0437753)
(-0.0268137 -0.383976 0.0670333)
(-0.0191013 -0.320909 0.0831366)
(-0.0119617 -0.262431 0.0916741)
(-0.00655815 -0.212873 0.0942818)
(-0.00322854 -0.172413 0.093058)
(-0.00162168 -0.138236 0.0896192)
(-0.00104854 -0.106946 0.0847493)
(-0.000863642 -0.0775419 0.0786871)
(-0.000802146 -0.0518438 0.0718967)
(-0.000882803 -0.0309564 0.0652025)
(-0.000973755 -0.013877 0.0591353)
(-0.00079175 0.000948928 0.0537776)
(-0.000115064 0.0146232 0.0489697)
(0.00114689 0.0278008 0.0445301)
(0.00296887 0.0409702 0.0403532)
(0.0052348 0.0546535 0.0363953)
(0.00768352 0.0694966 0.0327119)
(0.00981144 0.086626 0.0295044)
(0.0111078 0.109567 0.0273803)
(0.0113491 0.153178 0.0282455)
(0.0113253 0.270754 0.0330874)
(0.0116155 0.440291 0.0295806)
(0.00866875 0.478222 0.0262055)
(0.00447412 0.406716 0.0220995)
(-0.00304482 -0.384108 -0.00558083)
(-0.00607622 -0.52834 -0.0286533)
(-0.00783004 -0.558719 -0.0353633)
(-0.00890148 -0.567189 -0.0379426)
(-0.00971036 -0.567317 -0.0390316)
(-0.010264 -0.561565 -0.0394011)
(-0.0107824 -0.551318 -0.0394216)
(-0.0115959 -0.538286 -0.0390584)
(-0.01285 -0.524424 -0.0376231)
(-0.0143029 -0.510607 -0.0334279)
(-0.0152781 -0.494117 -0.0233122)
(-0.014328 -0.46768 -0.00430441)
(-0.0102255 -0.426053 0.0215103)
(-0.00341277 -0.371774 0.0481419)
(0.00478615 -0.311291 0.0708831)
(0.01282 -0.251715 0.0872597)
(0.0193812 -0.198606 0.096919)
(0.0238366 -0.153963 0.101096)
(0.0262134 -0.116053 0.101641)
(0.0269113 -0.0822895 0.10004)
(0.0263856 -0.0531739 0.0969697)
(0.0249725 -0.0313307 0.092817)
(0.023024 -0.0170461 0.0881785)
(0.021038 -0.0079378 0.0835821)
(0.0196405 -0.00143477 0.0792251)
(0.0195468 0.00423087 0.075107)
(0.0213682 0.0103687 0.0710983)
(0.0254115 0.0186598 0.066707)
(0.0310706 0.0329371 0.0604354)
(0.034087 0.0589701 0.0493572)
(0.032236 0.0880204 0.0365405)
(0.0176719 0.137248 0.0400627)
(0.0037791 0.313684 0.0635919)
(-3.2715e-05 0.420946 0.0649468)
(-0.00109095 0.392471 0.0471364)
(-0.00135199 -0.368137 -0.0196525)
(-0.00122925 -0.519747 -0.0434661)
(-0.000739312 -0.554485 -0.049955)
(3.72128e-05 -0.564611 -0.0523116)
(0.00101119 -0.565482 -0.0532091)
(0.00214798 -0.559714 -0.0533401)
(0.00344765 -0.548029 -0.0531252)
(0.00484319 -0.531008 -0.0529888)
(0.0060448 -0.510029 -0.0532925)
(0.00658726 -0.487808 -0.0540492)
(0.00620221 -0.46755 -0.0545543)
(0.00513983 -0.450537 -0.0530848)
(0.00411933 -0.434273 -0.0468459)
(0.00425538 -0.412871 -0.0325001)
(0.00678052 -0.380133 -0.00907424)
(0.0120578 -0.334466 0.0196067)
(0.0193375 -0.279106 0.0482313)
(0.0272339 -0.220288 0.072431)
(0.0341656 -0.165249 0.0895492)
(0.0389896 -0.118831 0.099377)
(0.0412653 -0.0813756 0.103754)
(0.0409433 -0.0506685 0.105205)
(0.0379752 -0.0261516 0.105643)
(0.0325982 -0.0101848 0.105889)
(0.0256341 -0.00433428 0.106233)
(0.0172127 -0.00879808 0.107221)
(0.00735296 -0.0223967 0.110128)
(-0.00343028 -0.0364852 0.115061)
(-0.0138986 -0.0201183 0.114818)
(-0.023298 0.0798965 0.0922784)
(-0.0297981 0.271957 0.0452295)
(-0.0248463 0.452041 0.0142541)
(-0.0215916 0.514628 0.00873072)
(-0.016517 0.49239 0.0103724)
(-0.00592946 0.364318 0.0117044)
(0.000667836 -0.374139 -0.0300239)
(0.00310439 -0.534284 -0.0522098)
(0.0052212 -0.573608 -0.0585378)
(0.00719876 -0.585977 -0.0611425)
(0.00923662 -0.58892 -0.0625711)
(0.0112455 -0.585758 -0.0633688)
(0.0131999 -0.577328 -0.06369)
(0.0151847 -0.563582 -0.0636104)
(0.0172875 -0.543899 -0.0632543)
(0.0194911 -0.517686 -0.0628797)
(0.0215009 -0.485988 -0.0629387)
(0.0227371 -0.452552 -0.0637559)
(0.0227084 -0.422264 -0.064934)
(0.0214598 -0.397766 -0.0651324)
(0.0195227 -0.37764 -0.0622554)
(0.0176357 -0.357089 -0.0532784)
(0.0168533 -0.329192 -0.0346928)
(0.018135 -0.288201 -0.00642237)
(0.0213619 -0.23355 0.0264339)
(0.025531 -0.170353 0.0573326)
(0.0292733 -0.107327 0.0810895)
(0.0315531 -0.0522827 0.0957986)
(0.032032 -0.00812044 0.103147)
(0.0309017 0.0270445 0.106384)
(0.0277509 0.0570225 0.10838)
(0.0212875 0.084427 0.110816)
(0.0110646 0.108467 0.114074)
(-0.00172676 0.126365 0.117884)
(-0.0202057 0.132184 0.122008)
(-0.0349101 0.151456 0.120111)
(-0.0331803 0.19065 0.110132)
(-0.00542189 0.129241 0.109619)
(0.0189879 0.281048 0.100951)
(0.0292812 0.386926 0.0734368)
(0.0172589 0.317843 0.0567007)
(0.00296734 -0.384076 -0.0370224)
(0.00925076 -0.537611 -0.0548712)
(0.0144994 -0.576598 -0.05988)
(0.0188465 -0.588532 -0.0623091)
(0.0230054 -0.590545 -0.0643064)
(0.0268288 -0.586165 -0.0664273)
(0.0301469 -0.576632 -0.0688495)
(0.0329454 -0.562767 -0.0715468)
(0.0352799 -0.545304 -0.0742814)
(0.0373266 -0.524639 -0.0766328)
(0.0393865 -0.500293 -0.0781404)
(0.0417346 -0.471197 -0.078592)
(0.0443443 -0.437322 -0.0782457)
(0.0467553 -0.401393 -0.0776932)
(0.0484053 -0.368134 -0.0772921)
(0.0491936 -0.341215 -0.0767309)
(0.049628 -0.320901 -0.0750476)
(0.0505092 -0.304219 -0.0705357)
(0.0528668 -0.286185 -0.0599876)
(0.057909 -0.260307 -0.0392922)
(0.0657445 -0.222151 -0.0093866)
(0.0750573 -0.173657 0.0223749)
(0.0842702 -0.122125 0.0484982)
(0.0923857 -0.0752914 0.065581)
(0.0997548 -0.0370024 0.0744916)
(0.106902 -0.00673121 0.0780351)
(0.115513 0.0185494 0.0780895)
(0.121288 0.0371556 0.0759202)
(0.124115 0.064824 0.0726477)
(0.116018 0.0582204 0.0673927)
(0.0989881 -0.0320935 0.0906739)
(0.0798332 -0.0621513 0.0968215)
(0.0390967 0.129235 0.113537)
(0.0257303 0.427691 0.13056)
(0.00547443 0.498027 0.0906982)
(0.00269882 -0.41714 -0.0411361)
(0.00989527 -0.572911 -0.0554491)
(0.0161733 -0.609816 -0.0588442)
(0.0214814 -0.619944 -0.0605505)
(0.0265042 -0.61979 -0.0622951)
(0.0309077 -0.612344 -0.0646161)
(0.0344249 -0.598386 -0.0678078)
(0.0369536 -0.578307 -0.0720056)
(0.038391 -0.55295 -0.0770782)
(0.0386924 -0.524101 -0.0825564)
(0.0380016 -0.493997 -0.0876732)
(0.0367035 -0.464128 -0.0915811)
(0.0353338 -0.434412 -0.0936151)
(0.0343666 -0.403715 -0.0934488)
(0.0339397 -0.371537 -0.0911488)
(0.0336948 -0.339297 -0.0871076)
(0.0330423 -0.309524 -0.0817184)
(0.0316777 -0.283699 -0.0749069)
(0.0297244 -0.261129 -0.0656765)
(0.0275774 -0.239194 -0.0515828)
(0.0262342 -0.213914 -0.0290011)
(0.0270943 -0.182177 0.0025936)
(0.0299586 -0.145871 0.0377111)
(0.0328512 -0.111879 0.0693827)
(0.0342067 -0.0860922 0.0940905)
(0.0315904 -0.0685398 0.115647)
(0.0243752 -0.044054 0.135042)
(0.0158404 0.0226452 0.125187)
(0.0108376 0.16599 0.0572588)
(0.00110901 0.320639 -0.0225637)
(-0.0249357 0.410955 -0.0545241)
(-0.059228 0.472929 -0.0416915)
(-0.073103 0.542129 -0.00950956)
(-0.0574271 0.579645 0.00769845)
(-0.0238812 0.458238 0.000529208)
(0.00533954 -0.441318 -0.0425176)
(0.0150398 -0.5874 -0.0528929)
(0.0227034 -0.620083 -0.0559131)
(0.0287169 -0.626945 -0.0581228)
(0.0341635 -0.623191 -0.0609938)
(0.0386201 -0.611368 -0.0651036)
(0.0417445 -0.591997 -0.0707939)
(0.0434144 -0.565588 -0.07803)
(0.0436762 -0.533526 -0.0862075)
(0.0427797 -0.497993 -0.0944161)
(0.0410313 -0.461492 -0.10188)
(0.0386707 -0.426348 -0.10808)
(0.0359067 -0.394009 -0.112684)
(0.0329896 -0.36444 -0.115512)
(0.0301975 -0.336239 -0.116497)
(0.0277539 -0.307747 -0.115683)
(0.0256889 -0.278766 -0.113352)
(0.0237317 -0.251421 -0.110072)
(0.021487 -0.228398 -0.106325)
(0.0187239 -0.210238 -0.101958)
(0.0153153 -0.194606 -0.0957157)
(0.0110219 -0.176279 -0.0839732)
(0.00583358 -0.145795 -0.0587821)
(4.87185e-05 -0.0939048 -0.0147225)
(-0.00746719 -0.0264763 0.0377498)
(-0.0158236 0.0380316 0.0835082)
(-0.0275346 0.0931225 0.118973)
(-0.040465 0.15277 0.138283)
(-0.046216 0.243256 0.130614)
(-0.039024 0.351324 0.101494)
(-0.0261619 0.428022 0.0879376)
(-0.0236467 0.43225 0.0955218)
(-0.0150448 0.312193 0.122381)
(-0.000635017 0.14293 0.136908)
(0.0066412 0.051171 0.102114)
(0.00515 -0.491445 -0.0314849)