/*--------------------------------*- C++ -*----------------------------------*\
| =========                 |                                                 |
| \\      /  F ield         | OpenFOAM: The Open Source CFD Toolbox           |
|  \\    /   O peration     | Version:  v2006                                 |
|   \\  /    A nd           | Website:  www.openfoam.com                      |
|    \\/     M anipulation  |                                                 |
\*---------------------------------------------------------------------------*/
FoamFile
{
    version     2.0;
    format      ascii;
    class       volScalarField;
    location    "88";
    object      alphat;
}
// * * * * * * * * * * * * * * * * * * * * * * * * * * * * * * * * * * * * * //

dimensions      [1 -1 -1 0 0 0 0];


internalField   nonuniform List<scalar> 
78750
(
8.1491e-06
3.48434e-05
3.41072e-05
4.40814e-05
3.38885e-05
2.5412e-05
2.71813e-05
3.20157e-05
4.21616e-05
5.93157e-05
7.8555e-05
0.000102747
0.000123353
0.000142587
0.00015676
0.000167163
0.000175899
0.000179192
0.000184091
0.000184404
0.000186472
0.00018597
0.000186144
0.000185614
0.000185243
0.000184589
0.000184523
0.000183443
0.000175908
0.000169368
0.000185281
0.000155087
3.50657e-05
2.36245e-05
1.32143e-05
2.84584e-05
0.000110032
1.69405e-05
4.35917e-06
1.03725e-06
2.01564e-06
1.0145e-05
2.05827e-05
3.77584e-05
5.07411e-05
6.31009e-05
6.55481e-05
6.40995e-05
6.11028e-05
5.82437e-05
5.48616e-05
5.20644e-05
4.95332e-05
4.75761e-05
4.65499e-05
4.63693e-05
4.76012e-05
5.02644e-05
5.43709e-05
5.94939e-05
6.46963e-05
6.90641e-05
7.00391e-05
6.8087e-05
6.12105e-05
4.94064e-05
3.29358e-05
2.63658e-05
4.64984e-05
8.26744e-06
5.72409e-06
6.3165e-06
4.12764e-06
8.2306e-06
1.46563e-05
2.31677e-05
4.47841e-05
4.68341e-05
5.18394e-05
5.25131e-05
5.37688e-05
5.41851e-05
5.46128e-05
5.48881e-05
5.48942e-05
5.49341e-05
5.52102e-05
5.53511e-05
5.52116e-05
5.47626e-05
5.45027e-05
5.47444e-05
5.58804e-05
5.77888e-05
6.036e-05
6.29497e-05
6.42612e-05
6.03005e-05
5.04631e-05
3.66148e-05
2.83775e-05
1.98858e-05
1.4216e-05
1.57462e-05
5.17562e-06
7.57606e-06
1.12004e-05
3.57084e-06
1.66983e-05
2.04943e-05
3.05883e-05
4.10137e-05
5.53457e-05
6.00363e-05
6.28025e-05
6.39636e-05
6.41839e-05
6.2439e-05
5.96652e-05
5.77649e-05
5.71618e-05
5.67908e-05
5.63021e-05
5.58771e-05
5.56088e-05
5.52657e-05
5.46173e-05
5.36168e-05
5.23852e-05
5.10259e-05
4.95536e-05
4.79535e-05
4.59541e-05
4.28184e-05
3.63816e-05
2.70031e-05
1.47156e-05
7.75106e-06
1.25609e-05
5.62008e-06
5.69532e-06
1.84071e-06
4.97102e-06
1.98748e-05
4.13221e-05
1.06724e-05
2.80955e-06
8.13063e-07
1.1198e-05
2.31652e-05
3.4109e-05
4.37972e-05
5.07992e-05
5.52598e-05
5.74754e-05
5.78493e-05
5.71264e-05
5.58363e-05
5.47922e-05
5.42928e-05
5.3701e-05
5.26455e-05
5.11914e-05
4.93677e-05
4.72223e-05
4.50085e-05
4.32343e-05
4.24551e-05
4.28874e-05
4.26695e-05
3.55801e-05
1.96533e-05
1.18291e-05
2.1598e-05
5.86758e-06
5.68166e-06
2.27637e-05
8.18563e-06
4.20639e-06
2.89038e-06
3.51492e-06
5.75882e-06
7.10487e-06
2.42605e-06
3.99344e-06
2.46318e-06
3.61902e-06
1.0028e-05
2.26397e-05
3.2964e-05
4.12101e-05
4.72276e-05
5.12842e-05
5.40613e-05
5.61812e-05
5.78615e-05
5.84926e-05
5.73788e-05
5.44749e-05
4.99356e-05
4.42215e-05
3.85408e-05
3.41146e-05
3.16036e-05
3.03905e-05
2.73165e-05
2.08023e-05
2.0463e-05
4.59611e-05
6.09913e-06
1.02321e-05
1.0523e-05
5.84709e-06
1.18409e-05
1.0643e-06
2.52786e-06
3.9605e-06
6.52563e-06
5.37391e-07
5.64626e-06
9.70673e-06
6.31354e-06
7.34672e-06
4.66799e-06
8.06116e-06
1.67529e-05
2.33988e-05
2.8487e-05
3.21268e-05
3.50965e-05
3.85878e-05
4.30945e-05
4.75139e-05
4.99044e-05
4.91795e-05
4.4714e-05
3.64211e-05
2.72671e-05
2.08366e-05
1.7822e-05
1.72381e-05
1.81061e-05
2.61395e-05
6.98371e-05
6.27217e-06
3.00454e-06
1.903e-05
5.9626e-05
9.14898e-05
6.43933e-05
4.41772e-05
3.26981e-05
2.54953e-05
1.95563e-05
1.02466e-05
7.13703e-06
2.98057e-06
4.76277e-06
3.29085e-06
5.63834e-06
3.94069e-08
2.80918e-07
1.18362e-05
2.06399e-05
2.35901e-05
2.36006e-05
2.48591e-05
2.99814e-05
3.76696e-05
4.45615e-05
4.86114e-05
4.68134e-05
3.56423e-05
2.09763e-05
1.31954e-05
1.11412e-05
1.35662e-05
2.60898e-05
7.80116e-05
6.5423e-06
5.08277e-06
4.65067e-05
0.000102051
0.000124926
0.000139759
0.00015332
0.000162341
0.000164795
0.000158843
0.000144407
0.000123525
0.000101135
8.12938e-05
6.34294e-05
4.84647e-05
3.17938e-05
1.88473e-05
6.65357e-06
3.9329e-06
7.69444e-07
5.42132e-06
8.82966e-06
1.5795e-05
2.30895e-05
2.36149e-05
2.4426e-05
3.47277e-05
4.2903e-05
3.24046e-05
1.61281e-05
9.90335e-06
1.0653e-05
2.2163e-05
7.85598e-05
6.67967e-06
5.98637e-06
2.59147e-05
5.71949e-05
8.63861e-05
9.62405e-05
9.57139e-05
9.40427e-05
9.51805e-05
0.000101438
0.000114995
0.000136909
0.000166204
0.000198079
0.000224033
0.000234675
0.000222568
0.000186121
0.000138642
9.56357e-05
6.44878e-05
4.24236e-05
1.86754e-05
2.93556e-06
9.31197e-07
9.66774e-07
7.87474e-06
1.6946e-05
2.84504e-05
2.60757e-05
1.6351e-05
8.65008e-06
8.51922e-06
1.88948e-05
7.71894e-05
6.74272e-06
1.12244e-05
5.73853e-05
0.000159572
0.000187638
0.000175334
0.000157779
0.000138827
0.000119945
0.000104702
9.60256e-05
9.41385e-05
9.75702e-05
0.000105092
0.000117001
0.0001356
0.000165925
0.000213432
0.00027251
0.000305645
0.000260124
0.000159276
8.54347e-05
5.31827e-05
4.43335e-05
3.88141e-05
2.63925e-05
1.87462e-05
1.91502e-05
2.41357e-05
3.11638e-05
1.29339e-05
8.08152e-06
1.63442e-05
7.95525e-05
6.94161e-06
1.16786e-05
6.71092e-05
0.000138073
0.000142952
0.000133229
0.000117924
0.000101769
8.84748e-05
8.27738e-05
8.89502e-05
0.000108734
0.000138861
0.00016794
0.000180322
0.000169174
0.000144811
0.000123355
0.000114431
0.000122796
0.000150675
0.000183011
0.000168367
0.000109067
6.66295e-05
4.07718e-05
2.71805e-05
2.92914e-05
5.29183e-05
5.54296e-05
5.07349e-05
1.81393e-05
8.14324e-06
1.4885e-05
8.00949e-05
7.24698e-06
9.02059e-06
4.04124e-05
0.000129847
0.000173792
0.00017319
0.000153982
0.000119525
7.90692e-05
4.91046e-05
3.45237e-05
3.23764e-05
4.11382e-05
6.21088e-05
9.74707e-05
0.000142586
0.000175917
0.000174235
0.000145415
0.000119558
0.000109072
0.000104818
8.4553e-05
4.50245e-05
1.9914e-05
8.79075e-06
1.74304e-06
9.53676e-06
2.87397e-05
6.17062e-05
4.67408e-05
1.52828e-05
9.80656e-06
1.93571e-05
8.10813e-05
7.63886e-06
1.143e-05
6.70142e-05
0.000197316
0.000225201
0.000207591
0.000185194
0.000156715
0.000117026
7.62082e-05
4.73218e-05
3.13198e-05
2.67353e-05
3.16545e-05
4.38593e-05
6.29625e-05
9.0142e-05
0.000124062
0.000151858
0.000156115
0.000151016
0.000164134
0.000192266
0.000178826
9.1498e-05
3.9428e-05
2.46367e-05
3.18644e-05
4.87367e-05
5.18862e-05
5.92245e-05
1.70718e-05
8.992e-06
1.78927e-05
8.5788e-05
7.78026e-06
1.17302e-05
9.66778e-05
0.0002038
0.000194175
0.00017447
0.000145959
0.000113697
8.72714e-05
6.87086e-05
5.45972e-05
4.32824e-05
4.06369e-05
5.00886e-05
6.63569e-05
8.43638e-05
0.000100574
0.00010758
9.87625e-05
8.07795e-05
6.61616e-05
5.71674e-05
4.93686e-05
4.06796e-05
3.35217e-05
3.08202e-05
3.48777e-05
3.51343e-05
4.16593e-05
5.93649e-05
4.50405e-05
1.53584e-05
1.11089e-05
2.36671e-05
7.8352e-05
8.07685e-06
1.04114e-05
6.81653e-05
0.00018442
0.000214212
0.000207884
0.00017363
0.000122043
7.84023e-05
4.98121e-05
3.11154e-05
1.92432e-05
1.59887e-05
2.31328e-05
3.45827e-05
3.98876e-05
4.26607e-05
4.54604e-05
4.64436e-05
4.57799e-05
4.45296e-05
4.2655e-05
4.05711e-05
3.83325e-05
3.62585e-05
3.49837e-05
3.57177e-05
4.00374e-05
4.51527e-05
4.12053e-05
2.39425e-05
1.27829e-05
1.2905e-05
3.07774e-05
6.91704e-05
8.15349e-06
1.14155e-05
7.56301e-05
0.000203959
0.000219961
0.000200491
0.000179446
0.000165982
0.0001547
0.0001311
9.4312e-05
6.0922e-05
3.57462e-05
1.60941e-05
4.75833e-06
3.05803e-06
7.93322e-06
1.62446e-05
2.21726e-05
2.60264e-05
3.05408e-05
3.64979e-05
4.31191e-05
4.91274e-05
5.34759e-05
5.63572e-05
5.81812e-05
5.71694e-05
4.97139e-05
3.50292e-05
2.01782e-05
1.28215e-05
1.3945e-05
3.28963e-05
6.65833e-05
7.86782e-06
1.19692e-05
0.00010204
0.000224966
0.000223653
0.000198421
0.000163613
0.000132543
0.000117179
0.000120626
0.000133991
0.000126315
8.50534e-05
5.03663e-05
2.99341e-05
1.34157e-05
4.17945e-07
1.13885e-06
1.94308e-06
1.25644e-05
3.6089e-05
5.50383e-05
6.85054e-05
7.84623e-05
8.48301e-05
8.79995e-05
8.72308e-05
7.88852e-05
5.77603e-05
3.21321e-05
1.71105e-05
1.2137e-05
1.55428e-05
3.85435e-05
6.42721e-05
7.81245e-06
1.1705e-05
9.61757e-05
0.000230319
0.000251432
0.000249351
0.000234404
0.000200368
0.0001498
0.000109411
9.14028e-05
8.90439e-05
8.6502e-05
6.63903e-05
4.13749e-05
2.54722e-05
1.46148e-05
4.4223e-06
7.558e-07
1.29763e-06
4.20372e-06
1.21029e-05
1.66229e-05
3.6427e-05
4.99087e-05
5.93216e-05
6.54769e-05
6.37705e-05
4.70862e-05
2.63591e-05
1.576e-05
1.23156e-05
1.57042e-05
3.86579e-05
6.37039e-05
7.75201e-06
1.11705e-05
8.21765e-05
0.00021692
0.000234455
0.000222877
0.000207859
0.000198586
0.000192625
0.000177184
0.000148176
0.000123759
0.000114502
0.000110861
8.98613e-05
5.4344e-05
2.81263e-05
1.18973e-05
7.12735e-07
1.71429e-06
3.84898e-06
1.98263e-06
1.0264e-08
6.93946e-06
1.21493e-05
2.87781e-05
4.25174e-05
4.97245e-05
4.05214e-05
2.00704e-05
1.17211e-05
1.12011e-05
1.71919e-05
4.39318e-05
6.24942e-05
7.8171e-06
1.12374e-05
8.13331e-05
0.000222503
0.000245727
0.000232783
0.000206673
0.000179841
0.000161234
0.000152373
0.000146889
0.000136377
0.000123434
0.000118238
0.000122185
0.000118271
8.6212e-05
4.7004e-05
1.91782e-05
3.86363e-06
1.92833e-06
4.01163e-06
3.28408e-06
2.48707e-06
1.9763e-07
8.74377e-06
1.09722e-05
3.9138e-06
1.22989e-05
1.28835e-05
1.01763e-05
9.58775e-06
1.47927e-05
3.85443e-05
6.52002e-05
7.95183e-06
1.11976e-05
7.61752e-05
0.000215519
0.000249575
0.000241539
0.000218205
0.000191613
0.000170307
0.000157979
0.000153496
0.000151446
0.000144634
0.000132773
0.000124558
0.00012582
0.000130271
0.000116786
7.89237e-05
3.96839e-05
1.0246e-05
2.18281e-06
1.9279e-07
2.75381e-06
1.14808e-05
6.04733e-06
3.55394e-06
9.11418e-07
1.16546e-06
1.97698e-06
4.43714e-06
8.3717e-06
1.5157e-05
4.01138e-05
6.69423e-05
8.05806e-06
1.11224e-05
6.95213e-05
0.000202473
0.000238066
0.000225693
0.000197039
0.000168747
0.0001506
0.000144269
0.000147507
0.000156337
0.000164458
0.000163798
0.000152307
0.000140041
0.000138447
0.000149566
0.000158665
0.000135531
8.42019e-05
3.96416e-05
1.19772e-05
1.28541e-06
4.9349e-06
1.15821e-05
3.60271e-06
1.79016e-06
3.98072e-08
2.25712e-06
1.0191e-06
6.25415e-06
1.37287e-05
3.86849e-05
6.47779e-05
8.20619e-06
1.13619e-05
6.71622e-05
0.000190373
0.000221082
0.000204392
0.000174372
0.000149032
0.000135088
0.000132434
0.000139726
0.000155421
0.000176598
0.000196536
0.000203782
0.00019058
0.000166909
0.000151779
0.000154891
0.00017378
0.000185463
0.000151341
8.65533e-05
3.66511e-05
9.14824e-06
2.79452e-06
5.30757e-06
5.62093e-06
2.11692e-06
1.72821e-06
2.34256e-06
5.12036e-06
1.48733e-05
4.53887e-05
6.2512e-05
8.31373e-06
1.18552e-05
6.8971e-05
0.000188865
0.000204651
0.000173396
0.000142004
0.000127058
0.000125591
0.000132375
0.00014519
0.000163867
0.000188237
0.000216552
0.000243747
0.00025924
0.000250151
0.000218259
0.000186395
0.000173513
0.00018404
0.000208669
0.000211921
0.000157271
8.28898e-05
3.22856e-05
7.57886e-06
1.29897e-06
7.75261e-07
3.5147e-06
6.43213e-07
2.85288e-06
1.12505e-05
3.83605e-05
6.25528e-05
8.38424e-06
1.24889e-05
7.41373e-05
0.000193221
0.000180505
0.000132601
0.000106658
0.000105576
0.000119667
0.000141284
0.000165836
0.000191878
0.000219539
0.000248545
0.000277233
0.000301708
0.000314037
0.000303161
0.000266932
0.000223694
0.000195985
0.000193329
0.00021376
0.000235198
0.000204127
0.000113058
4.42886e-05
1.22752e-05
8.95663e-06
4.68268e-06
4.4571e-07
1.76617e-06
1.18745e-05
4.62815e-05
5.63513e-05
8.51925e-06
1.27556e-05
7.62083e-05
0.000181737
0.000146847
9.85783e-05
8.28767e-05
9.26585e-05
0.00011929
0.000154417
0.000189738
0.00022114
0.000249052
0.000275426
0.000301366
0.000326217
0.000346891
0.000356509
0.000345009
0.000307947
0.00025783
0.000216656
0.000197332
0.000201008
0.000219226
0.00022626
0.00018353
9.21665e-05
2.36688e-05
2.2469e-06
4.05356e-07
5.18029e-07
8.19284e-06
3.35534e-05
6.36089e-05
8.45587e-06
1.25276e-05
7.02549e-05
0.000162226
0.000131545
8.90846e-05
7.38501e-05
8.12125e-05
0.000104676
0.000139092
0.000178331
0.000216642
0.000251148
0.000281997
0.000310607
0.000338126
0.000364656
0.000388296
0.000400404
0.000386766
0.000367913
0.000317096
0.000263055
0.000228074
0.000218025
0.000222032
0.000205162
0.000132081
4.67774e-05
4.78983e-06
8.66504e-08
6.23479e-07
5.39372e-06
2.53577e-05
6.6561e-05
9.09752e-06
1.23295e-05
6.54605e-05
0.000159389
0.000150643
0.000111054
7.97722e-05
6.95853e-05
7.62788e-05
9.64013e-05
0.000128034
0.000168111
0.000211966
0.000255661
0.000297422
0.000336781
0.000372988
0.00040322
0.000411899
0.000397935
0.000381995
0.000364205
0.000327398
0.000270509
0.000224082
0.000195815
0.000171023
0.00011763
4.77161e-05
6.95334e-06
2.29217e-06
2.58135e-06
1.4226e-05
7.78303e-05
4.94884e-05
8.82529e-06
1.25321e-05
6.85136e-05
0.000172692
0.000185425
0.000160131
0.000114464
7.8668e-05
6.45963e-05
6.70196e-05
8.27078e-05
0.000110899
0.000149993
0.000196772
0.000248349
0.000302389
0.000353692
0.00039301
0.000412933
0.000413645
0.000399114
0.000372753
0.000335083
0.000283983
0.000221002
0.000158065
0.000109142
7.62358e-05
5.4352e-05
4.05423e-05
5.30848e-06
1.49166e-06
3.89516e-06
2.18679e-05
6.42645e-05
7.70707e-06
1.2889e-05
7.9668e-05
0.000202621
0.00022874
0.000220533
0.000190246
0.000136891
9.01344e-05
6.78438e-05
6.52259e-05
7.80672e-05
0.000105128
0.000145436
0.000200025
0.000274261
0.000366323
0.000448173
0.00044408
0.000437358
0.000427998
0.00041601
0.000401488
0.000384673
0.00036617
0.00027968
0.000182377
0.000117808
8.04908e-05
9.4447e-05
6.59486e-06
1.24796e-07
2.18034e-06
8.21788e-06
8.54319e-05
9.68433e-06
1.29916e-05
8.76953e-05
0.000225883
0.000259896
0.000262757
0.000253338
0.000223769
0.000162328
0.00010201
7.21913e-05
6.76169e-05
8.23229e-05
0.000115309
0.000170004
0.000262008
0.000405619
0.000448018
0.00044703
0.000443613
0.000437681
0.000429157
0.000417999
0.000404256
0.000318334
0.000169597
9.83189e-05
6.75912e-05
8.71427e-06
2.68055e-06
1.12079e-05
2.79098e-05
3.35788e-05
6.07431e-05
5.22738e-05
9.70267e-06
1.28355e-05
8.57199e-05
0.00022788
0.000260855
0.000263279
0.00026053
0.000254555
0.000231812
0.000171562
0.000105631
7.30611e-05
6.89625e-05
8.62706e-05
0.000124097
0.000183395
0.000265428
0.000368938
0.000444863
0.00044389
0.00044081
0.00043554
0.000427954
0.000361953
0.000271348
0.000185295
0.000108468
4.97267e-05
1.28907e-05
4.54621e-06
1.09789e-05
2.90117e-05
4.82383e-05
5.86713e-05
2.43724e-05
5.65648e-06
1.28525e-05
8.4649e-05
0.000222979
0.000247917
0.000242754
0.00023562
0.000235
0.000238626
0.000230339
0.00018278
0.000116969
8.10783e-05
7.50644e-05
8.98586e-05
0.0001219
0.000168781
0.000223633
0.000273151
0.00030449
0.000313703
0.000304681
0.000283448
0.000256562
0.000229224
0.000201625
0.000170705
0.000140245
0.000115531
8.58686e-05
6.03224e-05
6.40099e-05
7.07577e-05
7.07962e-05
4.51839e-05
3.03115e-06
1.2751e-05
8.38789e-05
0.000221076
0.000246977
0.000238497
0.000223951
0.000216625
0.000220492
0.000229698
0.000227914
0.000191996
0.000134981
9.9964e-05
9.39879e-05
0.000110676
0.000147642
0.00020295
0.000264783
0.000312667
0.000335488
0.000335017
0.00031721
0.00028954
0.000257884
0.000222097
0.000189078
0.000195026
0.000309209
0.000278364
0.000148738
5.57609e-05
1.90182e-05
8.71731e-06
2.39666e-05
1.13274e-05
1.26032e-05
7.89396e-05
0.000216515
0.000247873
0.000234943
0.000209964
0.000194376
0.000197689
0.000216488
0.000237543
0.000240004
0.000204732
0.000149958
0.000115548
0.000110642
0.000135451
0.000204135
0.000339273
0.000421273
0.000418347
0.00041303
0.000404827
0.000393448
0.000378962
0.000362116
0.000212782
4.52001e-05
2.19719e-05
3.28219e-05
5.73542e-05
5.93838e-05
4.42702e-05
5.32304e-05
7.42982e-05
9.82778e-06
1.2449e-05
7.05888e-05
0.000199886
0.000236974
0.000219993
0.000184449
0.000159038
0.000157249
0.000178393
0.000216338
0.000257404
0.000277803
0.000249533
0.000182299
0.000131718
0.000114964
0.000126797
0.00016652
0.000231328
0.000294654
0.000321603
0.000310648
0.000277344
0.000229248
0.000164415
9.09142e-05
3.97638e-05
2.26208e-05
2.73305e-05
4.87334e-05
7.15617e-05
8.37033e-05
8.08776e-05
2.99425e-05
4.1692e-06
1.24601e-05
6.27151e-05
0.00017474
0.000211937
0.000195596
0.000157616
0.00012905
0.000125085
0.000143414
0.000178855
0.000225122
0.000273462
0.000309902
0.000308674
0.000248637
0.000174307
0.00013331
0.000125014
0.000140443
0.000172068
0.000206982
0.000229069
0.000231989
0.000219876
0.000199022
0.00017332
0.000139149
9.56453e-05
6.49979e-05
5.32956e-05
5.31316e-05
7.20314e-05
0.000110095
6.41925e-05
3.26225e-06
1.23405e-05
5.57123e-05
0.000152488
0.000187985
0.000172838
0.000133662
0.000103541
9.99656e-05
0.000120958
0.000163925
0.000223788
0.000288512
0.00034353
0.00037658
0.000371373
0.000310781
0.000224095
0.000166274
0.000147592
0.000159254
0.000192399
0.000233365
0.000262889
0.000269696
0.000257849
0.000237782
0.000216465
0.000195132
0.000167352
0.000114334
7.46886e-05
5.25513e-05
2.89412e-05
3.21482e-05
7.42976e-06
1.25058e-05
5.52997e-05
0.000151913
0.000185129
0.000166103
0.000123515
9.24968e-05
8.87416e-05
0.000109724
0.0001544
0.00022146
0.000302669
0.000382637
0.00044521
0.000474807
0.000450784
0.000362397
0.000256095
0.000190968
0.000175401
0.000202554
0.000264703
0.000335091
0.000373851
0.000375482
0.000360094
0.000316062
0.000161288
6.98758e-05
5.18207e-05
5.0993e-05
3.38306e-05
2.79563e-05
8.01087e-05
9.81763e-06
1.27583e-05
5.93205e-05
0.000167921
0.000195105
0.000163286
0.000116038
8.78224e-05
8.66326e-05
0.000110655
0.000160095
0.000232735
0.000318984
0.000405203
0.000479419
0.000530505
0.000542056
0.000491064
0.000378824
0.000266963
0.000206519
0.00020012
0.000242339
0.000323304
0.000398426
0.000394963
0.000361568
0.000223443
7.85542e-05
3.6179e-05
4.07251e-05
6.28322e-05
5.63847e-05
6.24178e-05
9.3772e-05
9.20462e-06
1.31246e-05
6.43044e-05
0.000184397
0.00019693
0.000148175
0.000105322
8.60657e-05
8.85834e-05
0.000113673
0.00016361
0.000236472
0.000322681
0.000409483
0.000486721
0.000545128
0.000563234
0.000553719
0.000473264
0.000354314
0.00025648
0.000209982
0.000212107
0.000251729
0.000301297
0.00031904
0.00028309
0.000193839
8.97321e-05
3.77493e-05
2.99211e-05
4.85437e-05
8.18754e-05
0.000109267
5.56193e-05
7.56672e-06
1.35298e-05
6.81414e-05
0.000187246
0.000170112
0.000112286
8.581e-05
8.33078e-05
9.62314e-05
0.000126996
0.000179817
0.000252658
0.000336426
0.000421075
0.000499208
0.000560429
0.000572219
0.000566171
0.000541447
0.000439899
0.000326349
0.000248669
0.000217802
0.00022623
0.000256733
0.000278131
0.000263595
0.000208335
0.000126002
5.86465e-05
3.13995e-05
3.22693e-05
6.06104e-05
0.000107953
4.94355e-05
7.37616e-06
1.40284e-05
7.66117e-05
0.000183587
0.000129006
7.98338e-05
7.1305e-05
8.63808e-05
0.000115996
0.000158972
0.000216589
0.000285315
0.000358295
0.000430394
0.000497972
0.000553864
0.000578623
0.000573375
0.000563904
0.000486485
0.000382625
0.000296552
0.000249275
0.000240061
0.000256552
0.000272924
0.000260681
0.000213474
0.000146747
8.42822e-05
4.48027e-05
3.12037e-05
4.18524e-05
8.83738e-05
5.33809e-05
7.83689e-06
1.41486e-05
8.8903e-05
0.000166062
9.5124e-05
6.21352e-05
6.72336e-05
9.94239e-05
0.000149287
0.000204663
0.000260803
0.00031746
0.000374257
0.000430228
0.000483608
0.000530661
0.000564693
0.000576136
0.000553525
0.0004925
0.000408988
0.00033267
0.000284446
0.000268182
0.000274382
0.000280304
0.000260292
0.000209779
0.000148568
9.74456e-05
6.00312e-05
3.75667e-05
3.60308e-05
6.82695e-05
6.0248e-05
8.39127e-06
1.38753e-05
9.59406e-05
0.000150753
8.74114e-05
6.01268e-05
6.68316e-05
0.000101563
0.00015625
0.00021522
0.000270261
0.000321519
0.000370656
0.000418203
0.000463306
0.000503343
0.000532977
0.000543598
0.000525935
0.00047853
0.00041464
0.000355606
0.000316726
0.000301135
0.000299812
0.000292844
0.000260792
0.000203589
0.000143288
9.92675e-05
6.82979e-05
4.4746e-05
3.85988e-05
6.77115e-05
6.26998e-05
8.64913e-06
1.34071e-05
9.21771e-05
0.000159542
0.000111016
7.04423e-05
5.94067e-05
7.61952e-05
0.000119179
0.000179744
0.000243897
0.000303482
0.00035695
0.000404844
0.00044712
0.000481971
0.000505152
0.000510546
0.000493713
0.000457486
0.000413272
0.000374564
0.000349322
0.000336697
0.000326901
0.000304644
0.000258827
0.00019438
0.000133961
9.48554e-05
7.12671e-05
5.34938e-05
5.05165e-05
8.61778e-05
6.14548e-05
8.55134e-06
1.31334e-05
8.72022e-05
0.000173348
0.000152024
9.96569e-05
6.19446e-05
5.54702e-05
7.65206e-05
0.000122075
0.00018347
0.000248451
0.000308831
0.000361518
0.000405248
0.00043825
0.000458029
0.000462727
0.000453402
0.000435008
0.000414237
0.000395999
0.000381138
0.000366083
0.000343992
0.000307197
0.000251514
0.000183807
0.000124437
8.85456e-05
7.16201e-05
6.42165e-05
7.21146e-05
0.000116856
5.97347e-05
8.35253e-06
1.28662e-05
8.57342e-05
0.000182244
0.000180631
0.000147269
9.72004e-05
6.41652e-05
5.85145e-05
7.66398e-05
0.000115323
0.000168618
0.000226611
0.000280621
0.00032646
0.00036265
0.000389096
0.000406555
0.00041631
0.000419556
0.000416956
0.000408518
0.000393581
0.000370743
0.000337795
0.000292194
0.000233563
0.000169431
0.00011574
8.37532e-05
7.15645e-05
7.39235e-05
9.51737e-05
0.000138468
5.80548e-05
8.2348e-06
1.26888e-05
8.60751e-05
0.000197219
0.000212913
0.000203045
0.000171213
0.000118129
7.70463e-05
6.1699e-05
6.67376e-05
8.90436e-05
0.000127613
0.000177734
0.000230394
0.000278199
0.00031816
0.000349919
0.000373512
0.000388983
0.000396153
0.000394195
0.000381851
0.000357973
0.000321883
0.000273615
0.000215563
0.000156027
0.000107791
7.92237e-05
7.01861e-05
7.92882e-05
0.000110262
0.000145965
5.64911e-05
8.218e-06
1.25227e-05
8.51783e-05
0.000212178
0.000237472
0.000234605
0.0002288
0.000214804
0.000171158
0.000114851
7.97006e-05
6.64216e-05
6.96249e-05
8.91257e-05
0.000125805
0.000175234
0.000227014
0.000273176
0.000311551
0.000341743
0.000362595
0.000371632
0.000366249
0.00034544
0.000310394
0.000263704
0.000209225
0.000153729
0.000107196
7.81146e-05
6.87077e-05
7.9593e-05
0.00011468
0.000148382
5.65214e-05
8.26391e-06
1.27246e-05
8.53019e-05
0.000214379
0.000227878
0.000208995
0.000201392
0.00021596
0.000242501
0.000248706
0.000202432
0.000136276
9.28706e-05
7.31844e-05
7.23929e-05
9.1472e-05
0.00013172
0.000185987
0.000241139
0.000288798
0.000325328
0.00034737
0.000351615
0.000336755
0.000304494
0.000259379
0.00020795
0.000156596
0.000111343
7.96234e-05
6.69722e-05
7.5798e-05
0.0001111
0.000148944
5.76487e-05
8.41817e-06
1.32882e-05
8.8896e-05
0.000207543
0.000203751
0.000176077
0.000165051
0.000175562
0.000207268
0.000256756
0.000305931
0.000316005
0.000250605
0.000157224
9.8846e-05
7.51906e-05
7.90126e-05
0.000110891
0.000166515
0.000229473
0.000283931
0.000321803
0.000338801
0.00033265
0.000303873
0.000257171
0.000202975
0.000152859
0.000111539
8.03793e-05
6.48695e-05
7.05756e-05
0.000104766
0.000146145
5.47975e-05
8.42903e-06
1.38018e-05
9.56044e-05
0.000199209
0.00016615
0.000142905
0.000150204
0.000173872
0.000205034
0.000244792
0.000295842
0.000352115
0.000391247
0.000365869
0.000242132
0.000130429
8.29865e-05
7.89123e-05
0.000110543
0.000172425
0.000244292
0.000301926
0.000333009
0.000335182
0.000309562
0.000259878
0.000197396
0.000141134
0.000102123
7.70131e-05
6.41598e-05
7.00761e-05
0.000105288
0.00014519
4.92844e-05
8.27255e-06
1.36459e-05
9.8222e-05
0.000170442
0.000112369
0.00010392
0.000137584
0.000194079
0.000247368
0.000287564
0.000321587
0.000356913
0.000391928
0.000409674
0.000369339
0.000242816
0.000132321
8.96405e-05
9.62175e-05
0.00014426
0.000221112
0.000294132
0.000335161
0.000339545
0.000313027
0.000261001
0.000193164
0.000130288
8.9947e-05
7.05959e-05
6.52463e-05
7.68744e-05
0.000115813
0.000144178
4.39341e-05
7.99082e-06
1.3013e-05
8.71041e-05
0.000141444
7.8719e-05
7.67157e-05
0.000121602
0.000202433
0.000278599
0.00032726
0.000353878
0.000368746
0.000376249
0.000368813
0.00032823
0.000248907
0.000165176
0.00011861
0.000116902
0.000160005
0.000235798
0.000307309
0.000342694
0.000340389
0.000310227
0.000258182
0.000191177
0.000126532
8.34583e-05
6.51296e-05
6.60163e-05
8.65452e-05
0.000128933
0.000140873
4.11071e-05
7.85204e-06
1.26603e-05
7.6432e-05
0.000139178
6.87129e-05
5.53955e-05
8.63569e-05
0.000158943
0.000244432
0.00031047
0.000350276
0.000365354
0.000355911
0.00032163
0.00026782
0.000210978
0.000170505
0.000157601
0.000177187
0.000227433
0.000288397
0.000331193
0.000344284
0.000333139
0.000303671
0.000257246
0.000196476
0.000133345
8.62451e-05
6.35953e-05
6.3965e-05
8.92931e-05
0.000134139
0.00013625
4.01024e-05
7.88458e-06
1.2904e-05
8.22215e-05
0.000144474
6.81214e-05
4.49321e-05
6.33457e-05
0.000120934
0.000196339
0.000258214
0.000295935
0.000308133
0.000296491
0.000269791
0.000243301
0.000229965
0.000233982
0.000251441
0.000275325
0.000299561
0.000318165
0.000326677
0.000324437
0.000312549
0.00029046
0.000255644
0.000207064
0.000150556
0.000100843
7.11092e-05
6.49396e-05
8.54564e-05
0.000131172
0.000139102
4.21761e-05
8.15788e-06
1.3108e-05
0.000104933
0.000121671
5.76382e-05
4.48818e-05
6.64573e-05
0.000124212
0.000187236
0.000231298
0.000258231
0.000274517
0.00028644
0.000298218
0.00030887
0.000313966
0.000312882
0.000310322
0.000310089
0.00031162
0.00031201
0.000309322
0.000303407
0.000294065
0.000279275
0.000255294
0.000218949
0.000171274
0.000121729
8.50146e-05
7.01601e-05
8.16124e-05
0.000125028
0.000149023
4.64019e-05
8.51712e-06
1.29642e-05
0.000123594
8.73461e-05
4.64665e-05
4.72779e-05
7.74754e-05
0.000135077
0.000190425
0.000232187
0.000265449
0.000292138
0.000310049
0.000317972
0.000318815
0.000317594
0.000317477
0.00031828
0.000317793
0.000314075
0.000306965
0.000297946
0.000288679
0.000279322
0.000267816
0.000250431
0.000223408
0.000185145
0.000140075
0.000100514
7.92869e-05
8.41603e-05
0.000124177
0.000160114
5.0503e-05
8.72904e-06
1.24628e-05
0.000102294
8.3925e-05
4.53752e-05
4.515e-05
6.77753e-05
0.00011088
0.000162528
0.000206619
0.000239458
0.000263252
0.000280783
0.000294695
0.000306954
0.000318193
0.000327441
0.000332622
0.000331684
0.00032403
0.000311427
0.000297268
0.000284464
0.000273558
0.000262247
0.000246409
0.000222053
0.00018733
0.000145644
0.000107648
8.61356e-05
9.0642e-05
0.000131492
0.000169146
5.24405e-05
8.74788e-06
1.1972e-05
7.12444e-05
0.00011907
6.30009e-05
4.00335e-05
4.09016e-05
6.06541e-05
0.000100675
0.000149693
0.000194257
0.000231621
0.000263479
0.000290923
0.000314
0.000332403
0.000345485
0.000351915
0.000349949
0.000338886
0.000320735
0.000299967
0.00028105
0.000265844
0.000252677
0.00023734
0.000215325
0.000184255
0.000146844
0.000112585
9.38103e-05
0.00010112
0.000143904
0.000174831
5.26113e-05
8.62931e-06
1.18552e-05
6.03752e-05
0.000135917
0.000118364
5.54661e-05
3.04109e-05
3.13517e-05
5.40597e-05
0.0001006
0.000159293
0.00021422
0.000260869
0.000299734
0.000331098
0.000354562
0.00036965
0.000375775
0.000372066
0.000358212
0.000336037
0.000309837
0.000284641
0.000263547
0.000246118
0.00022868
0.000206449
0.000176799
0.000142743
0.000113501
0.00010016
0.000112918
0.000157764
0.000178828
5.29113e-05
8.60985e-06
1.21348e-05
6.26122e-05
0.000149005
0.000156944
9.73477e-05
3.88229e-05
2.45738e-05
3.45773e-05
7.04986e-05
0.000133776
0.000205577
0.00026874
0.000319445
0.00035751
0.000382548
0.000394883
0.000395926
0.000387188
0.000369697
0.000344784
0.00031523
0.000285109
0.000258096
0.000235567
0.00021569
0.000194285
0.00016796
0.000138661
0.000114937
0.000107532
0.000126308
0.000171053
0.000178465
5.14197e-05
8.4961e-06
1.25327e-05
7.42944e-05
0.000164268
0.000132888
8.37848e-05
4.51074e-05
2.91871e-05
3.5889e-05
6.98338e-05
0.000131353
0.000201467
0.000264103
0.000314704
0.000351664
0.000373948
0.000382482
0.000380515
0.000371548
0.000357222
0.000337409
0.000312143
0.000283163
0.000253618
0.000226369
0.000202241
0.000179522
0.000155931
0.000132528
0.000115768
0.00011503
0.00013913
0.000181072
0.000177454
5.04933e-05
8.49319e-06
1.26527e-05
9.0016e-05
0.000148007
9.49163e-05
5.41707e-05
3.86073e-05
3.75273e-05
5.23558e-05
9.00281e-05
0.000139662
0.000188009
0.000231795
0.000269797
0.0002995
0.00031828
0.000325963
0.000325673
0.000321404
0.000314959
0.000305291
0.000290245
0.000268989
0.00024319
0.000216107
0.000190516
0.000167102
0.000145318
0.000126446
0.000115757
0.000121304
0.000149872
0.000188079
0.00017445
4.894e-05
8.44613e-06
1.22174e-05
8.89308e-05
0.000142207
0.00010276
6.22775e-05
4.31317e-05
4.1567e-05
5.58531e-05
8.58604e-05
0.000123219
0.000160255
0.00019493
0.000226347
0.000251912
0.000268467
0.000275292
0.000275579
0.000274028
0.000273095
0.000271597
0.000265972
0.000253012
0.000232366
0.000206901
0.000180856
0.000157338
0.000137737
0.000123465
0.00011836
0.000129011
0.000159835
0.000193532
0.000173674
4.86659e-05
8.48057e-06
1.18945e-05
8.2506e-05
0.000158674
0.000153783
0.000117369
6.89095e-05
4.33308e-05
3.94438e-05
5.37768e-05
8.50777e-05
0.000125073
0.000163946
0.000198028
0.000225259
0.000242278
0.000247616
0.000245125
0.000241659
0.000241612
0.000244611
0.000246423
0.000241828
0.000228027
0.00020626
0.000180707
0.000155893
0.000135328
0.000121926
0.000119496
0.000133425
0.000165891
0.000197582
0.000176333
4.99266e-05
8.64965e-06
1.19104e-05
8.22575e-05
0.00016884
0.000176363
0.000165796
0.000130218
7.43407e-05
4.3239e-05
3.7138e-05
5.05195e-05
8.36089e-05
0.000129294
0.000174315
0.000210434
0.000232632
0.000238049
0.000231018
0.000221763
0.000218184
0.000221532
0.000227292
0.000228517
0.000220338
0.000202782
0.000179859
0.000156483
0.000136843
0.000124641
0.000124202
0.000140654
0.000174211
0.000203171
0.000177438
5.04121e-05
8.70374e-06
1.20065e-05
8.72712e-05
0.000173831
0.000172995
0.000164818
0.000158491
0.000133524
7.8616e-05
4.50521e-05
3.90094e-05
5.47927e-05
9.21258e-05
0.000142587
0.00019013
0.000222129
0.000231632
0.000221748
0.000206064
0.000197193
0.000198983
0.000207422
0.000213986
0.000211082
0.00019704
0.000176037
0.000154014
0.000135951
0.000125829
0.000127976
0.000147106
0.000181616
0.000208451
0.000180232
5.09849e-05
8.80654e-06
1.19254e-05
8.88236e-05
0.000172134