/*--------------------------------*- C++ -*----------------------------------*\
| =========                 |                                                 |
| \\      /  F ield         | OpenFOAM: The Open Source CFD Toolbox           |
|  \\    /   O peration     | Version:  v2006                                 |
|   \\  /    A nd           | Website:  www.openfoam.com                      |
|    \\/     M anipulation  |                                                 |
\*---------------------------------------------------------------------------*/
FoamFile
{
    version     2.0;
    format      ascii;
    class       volScalarField;
    location    "88";
    object      k;
}
// * * * * * * * * * * * * * * * * * * * * * * * * * * * * * * * * * * * * * //

dimensions      [0 2 -2 0 0 0 0];


internalField   nonuniform List<scalar> 
78750
(
0.00246128
0.0128328
0.00909852
0.00418733
0.00214866
0.00203615
0.00306286
0.00409108
0.00508329
0.00592501
0.00665988
0.00730977
0.00785628
0.00830136
0.00865394
0.00892008
0.00910848
0.00922597
0.00928953
0.00930799
0.00929667
0.00926107
0.00921328
0.00915724
0.00911115
0.00906914
0.00905143
0.00903772
0.00907103
0.00909975
0.00920404
0.00906095
0.00985409
0.00905028
0.00507095
0.17304
0.10842
0.0352426
0.00585054
0.000502907
0.000370842
0.00125749
0.00156226
0.0019337
0.00209348
0.00226168
0.00229321
0.00229562
0.00226107
0.00220499
0.00212541
0.00204075
0.00195251
0.0018812
0.00182157
0.00179202
0.0017916
0.00183527
0.00191868
0.00204538
0.00220223
0.00239053
0.00258962
0.00282349
0.00303854
0.00331385
0.00352625
0.00386541
0.00361199
0.00466403
0.00351532
0.00455655
0.00181304
0.00209546
0.00176554
0.00162249
0.00177361
0.00178503
0.00179771
0.00175329
0.00170508
0.00163811
0.00156529
0.00148437
0.00139981
0.0013185
0.00124292
0.00117045
0.00110164
0.0010377
0.000982503
0.0009393
0.000911213
0.000898712
0.00090145
0.000916426
0.000940898
0.000969877
0.00100686
0.00104457
0.00110128
0.00113519
0.00109166
0.000824825
0.00251046
0.00631197
0.00333935
0.00158131
0.00181739
0.00173916
0.0014828
0.00124135
0.00123831
0.00125585
0.00128734
0.00130052
0.00128386
0.00123261
0.00116262
0.00109344
0.00104011
0.000996847
0.000956772
0.000921026
0.000891037
0.000866565
0.000846478
0.000829586
0.0008146
0.000800095
0.000783967
0.000763375
0.000734787
0.000696991
0.00065067
0.000601893
0.000538104
0.000452733
0.00067098
0.00281733
0.00169639
0.000434926
0.000867863
0.000828293
0.000652322
0.000280624
5.1446e-05
1.39625e-05
0.000174306
0.000356712
0.000520557
0.000663263
0.000766859
0.000832671
0.000863918
0.00086987
0.000861489
0.00084096
0.000818271
0.0008008
0.000790088
0.000784504
0.000782897
0.000785053
0.000790915
0.000799753
0.000809435
0.000815821
0.000813658
0.000797914
0.000769162
0.000733382
0.000740778
0.00115908
0.00297424
0.00165679
0.0016439
0.000889014
0.000587079
0.000209545
9.7216e-05
0.000113355
0.000146358
4.29345e-05
5.81616e-05
3.54738e-05
5.56803e-05
0.000157063
0.000345259
0.000480214
0.000572379
0.000628118
0.000654965
0.000663323
0.000662855
0.000659724
0.000657018
0.000657156
0.000662509
0.000674985
0.000696654
0.000730221
0.000778631
0.000843966
0.00092533
0.00101651
0.00112032
0.00132401
0.00181035
0.00310982
0.00303607
0.00122573
0.000239671
0.000315584
6.27972e-05
0.000113463
0.000152459
0.000205471
1.38668e-05
0.000124269
0.000181746
0.000102194
0.000120554
8.73082e-05
0.000163456
0.000344451
0.00046842
0.000545872
0.000587942
0.000606565
0.000612547
0.000612687
0.000610049
0.000607261
0.000607288
0.000613505
0.00063078
0.000667786
0.000739746
0.000870167
0.00108415
0.00137848
0.0017696
0.00224471
0.00322822
0.000831447
0.00268662
0.00329678
0.00322326
0.00287156
0.00243896
0.00197796
0.00153125
0.0011342
0.00057278
0.000376244
0.000145161
0.000209574
0.000123914
0.000165528
8.13933e-07
4.54076e-06
0.000207788
0.000428906
0.000576491
0.000638385
0.000645567
0.000641279
0.000640141
0.000637987
0.000636207
0.000637019
0.000645454
0.000675345
0.000763408
0.000981965
0.00141031
0.00200284
0.0025058
0.00342732
0.00139749
0.00345916
0.00430105
0.00482454
0.00523842
0.0055275
0.00566187
0.0056374
0.00546386
0.00516929
0.00474203
0.0042002
0.0036099
0.00294672
0.00232938
0.00157656
0.000950963
0.000342014
0.000200588
3.29907e-05
0.000144608
0.0002537
0.000651448
0.000883049
0.00086727
0.00076617
0.000731888
0.000736475
0.000750779
0.000788481
0.000928742
0.00132687
0.00201923
0.00259484
0.00366317
0.00165194
0.00305959
0.00356671
0.0037734
0.00385862
0.00390886
0.00397941
0.00410535
0.00430234
0.00455967
0.00483525
0.00509442
0.00530294
0.00543808
0.00546496
0.00535409
0.00505786
0.00454478
0.003824
0.00298019
0.00204383
0.00105992
0.000211766
4.95039e-05
3.59336e-05
0.000495536
0.000786786
0.000779753
0.00072238
0.000736562
0.000862668
0.00126954
0.00203245
0.00268369
0.00394776
0.00443486
0.00549266
0.0056513
0.00561806
0.00552758
0.00539767
0.00522354
0.00500118
0.00475358
0.0045308
0.0043748
0.00429533
0.0042861
0.00433601
0.00442982
0.00455379
0.00467335
0.00475206
0.00476798
0.00469459
0.00446014
0.00389499
0.00299964
0.00213358
0.00142405
0.000834227
0.000541953
0.000619142
0.000771885
0.000833789
0.000877397
0.00119871
0.00209278
0.00283854
0.00431312
0.00476574
0.00465331
0.00461895
0.00463039
0.00465102
0.00465091
0.00460667
0.00451571
0.00442145
0.00439845
0.00445391
0.0045232
0.00455041
0.00451707
0.00442974
0.00430982
0.00419215
0.00410852
0.00406276
0.004033
0.00398666
0.00388234
0.00362194
0.00307626
0.00225279
0.00139397
0.000873144
0.000760422
0.000797898
0.000839017
0.000871847
0.00108126
0.00196466
0.00286624
0.00464296
0.00342755
0.004822
0.0053511
0.00553485
0.00552751
0.00533748
0.0049476
0.00432743
0.00352558
0.0028319
0.00255034
0.00269174
0.0030462
0.00340916
0.00368044
0.00383956
0.00389528
0.00385782
0.0037468
0.00359639
0.0034214
0.00318538
0.00276667
0.00183143
0.000645461
3.62038e-05
0.000325575
0.000699574
0.000872675
0.000949299
0.00103842
0.00139297
0.00230025
0.00323143
0.00499747
0.00527517
0.00594039
0.00614823
0.00623001
0.00624316
0.00615224
0.0058763
0.00528451
0.00427879
0.00305674
0.00208991
0.00170586
0.00181844
0.00216458
0.00256292
0.00290972
0.00315815
0.00331153
0.00339251
0.00341989
0.00340513
0.00335943
0.00327017
0.00303904
0.00237172
0.00141018
0.00085358
0.000714711
0.000761917
0.000841379
0.000935649
0.00128033
0.00231439
0.00330523
0.00503328
0.00585083
0.00531162
0.0051687
0.00509811
0.00502255
0.00487965
0.00459224
0.00408026
0.00333948
0.00252552
0.00190987
0.00175244
0.00199135
0.00231648
0.00258847
0.00278035
0.00289245
0.00293173
0.00289119
0.00276672
0.00255462
0.00225324
0.00186225
0.00141526
0.000990605
0.000696265
0.00062614
0.000703251
0.000805304
0.000909622
0.0010871
0.00158081
0.00262599
0.00359988
0.0052264
0.00442175
0.0054056
0.0057283
0.00583191
0.00581565
0.00567669
0.00536456
0.00477618
0.00384687
0.00266646
0.00158276
0.00106356
0.00106481
0.00118969
0.00130797
0.00140868
0.00146181
0.00145298
0.00140066
0.0013177
0.0012039
0.00107289
0.000941657
0.000833659
0.000774018
0.000775888
0.000829387
0.000898339
0.000967436
0.00106408
0.00129584
0.00192546
0.00298483
0.00386611
0.005123
0.00489761
0.0056916
0.00596571
0.00611832
0.00623656
0.00633224
0.00639859
0.00639374
0.00619295
0.00557596
0.0044069
0.00283186
0.00126007
0.000330384
0.000164512
0.000322792
0.000553968
0.000698012
0.0007581
0.000770643
0.000769454
0.000766867
0.00077127
0.000790037
0.000826558
0.000878493
0.00093979
0.00100686
0.00108792
0.00121664
0.00148598
0.00208578
0.0030458
0.00382768
0.00482503
0.00545832
0.00559813
0.00568715
0.00572627
0.00570245
0.00559541
0.00540901
0.00519086
0.00501628
0.00490208
0.00473736
0.00428896
0.0033565
0.00210836
0.000895393
2.70037e-05
5.97568e-05
6.01756e-05
0.000199304
0.00039244
0.000524552
0.000609642
0.000680787
0.000750479
0.000820575
0.000888509
0.000953778
0.00102201
0.00111019
0.00126531
0.00161616
0.00235814
0.0032933
0.0039855
0.0048821
0.00509882
0.00573613
0.00599821
0.00615862
0.00626076
0.00628461
0.00619707
0.00594741
0.00549818
0.00491339
0.00431591
0.00374457
0.00311082
0.00231187
0.00145582
0.000741023
0.000210698
3.48864e-05
4.81554e-05
9.99138e-05
0.000174301
0.000168809
0.000326165
0.000445403
0.000541962
0.000633435
0.000729042
0.000844487
0.00101271
0.0012824
0.00169433
0.00237211
0.00328458
0.00395718
0.00484122
0.00468327
0.00536655
0.00566354
0.00586551
0.00604429
0.0061975
0.00630983
0.00635888
0.00630937
0.00610386
0.00570323
0.0051523
0.00451231
0.0037474
0.00276052
0.00161505
0.000644666
3.48889e-05
7.74171e-05
0.000135323
4.05304e-05
1.16452e-07
6.41962e-05
0.000110417
0.000264761
0.000406224
0.00052152
0.00062594
0.00077371
0.00109144
0.00173853
0.00263852
0.00347022
0.00407951
0.00496211
0.0048614
0.00568202
0.00598749
0.00616563
0.00629829
0.0063907
0.0064385
0.00643283
0.0063657
0.00622989
0.00600403
0.00565621
0.00519019
0.00464483
0.00400508
0.00318582
0.00210675
0.000935233
0.000183875
8.32123e-05
0.000127808
5.71829e-05
2.56533e-05
1.93106e-06
8.74053e-05
0.000118773
5.05443e-05
0.000229229
0.00048721
0.000879303
0.00148826
0.00247464
0.00348169
0.00417157
0.00514771
0.00484711
0.00578893
0.00615178
0.00636956
0.00654366
0.00668558
0.00679036
0.00684315
0.00682536
0.00672697
0.0065503
0.00629569
0.00595186
0.00551768
0.00501943
0.00446772
0.00380067
0.00291062
0.00173518
0.000473515
8.93511e-05
5.68013e-06
4.4502e-05
0.000118422
7.19608e-05
3.93409e-05
1.05923e-05
2.39351e-05
9.82545e-05
0.000472867
0.00139404
0.00250312
0.00354105
0.00426088
0.00531262
0.0049888
0.00598018
0.00636856
0.00659184
0.00676699
0.00691711
0.00704434
0.00713555
0.00716725
0.007118
0.00698105
0.00676495
0.00647719
0.00611515
0.00567962
0.00519739
0.00470318
0.00418687
0.00356365
0.00270697
0.00153386
0.000451455
3.60413e-05
7.75098e-05
0.000129203
5.57587e-05
2.55842e-05
5.3449e-07
0.00011665
0.000125007
0.00117318
0.00246012
0.0035702
0.00437119
0.00558102
0.00543763
0.00646128
0.00683751
0.00704578
0.00720889
0.00735286
0.00747505
0.00755713
0.00758148
0.00753396
0.00740827
0.00720997
0.00695161
0.00663989
0.00626757
0.00582284
0.00531887
0.00480123
0.00430407
0.00380372
0.00320882
0.0023805
0.00123145
0.000272969
5.29249e-05
8.50547e-05
0.000108308
2.62001e-05
7.9003e-05
0.000336842
0.00110475
0.00270853
0.00388011
0.00464645
0.00576133
0.00612629
0.0069317
0.00719096
0.00734982
0.0075175
0.00772134
0.0079228
0.00805271
0.00807792
0.00800399
0.0078481
0.00762709
0.00735697
0.00705142
0.00671626
0.00634373
0.00591553
0.00542418
0.00489841
0.00438565
0.00390302
0.00340977
0.00281796
0.00199562
0.00087066
0.00015717
2.98886e-05
1.99047e-05
7.53903e-05
8.69006e-05
0.000679362
0.00232383
0.00365203
0.00454208
0.00581172
0.00712025
0.00733527
0.00733048
0.00736184
0.00750563
0.00781283
0.00817891
0.00843675
0.00852254
0.0084571
0.00828294
0.00803654
0.00774354
0.00742062
0.00707782
0.00671826
0.00633525
0.00591202
0.00543315
0.00490876
0.00437912
0.00388056
0.00340995
0.00289881
0.00221715
0.00118038
0.000297229
0.000205715
7.84802e-05
5.71476e-05
0.000469176
0.00269863
0.00404574
0.00491328
0.00607288
0.00777142
0.00732889
0.00709937
0.00700983
0.00711467
0.0075168
0.00805734
0.00848345
0.00870235
0.00873442
0.00862419
0.00841172
0.0081294
0.00780213
0.00744771
0.00707747
0.00669593
0.00629876
0.00587207
0.00540015
0.00488394
0.00435139
0.00383731
0.00335482
0.00288101
0.00236516
0.00169268
0.000658172
6.11912e-05
3.53443e-05
0.000129653
0.00213519
0.00380734
0.00472744
0.00594287
0.00774434
0.00717573
0.00692052
0.00677119
0.00675599
0.00701263
0.00750853
0.00802909
0.0084199
0.0086372
0.00868898
0.00860083
0.0084016
0.00811917
0.00777839
0.00739951
0.00699754
0.00658067
0.00614488
0.00568471
0.00518903
0.00464762
0.00407941
0.00352367
0.00300478
0.00250053
0.00194466
0.00118139
0.000138675
8.70615e-06
0.000145225
0.00138267
0.00353049
0.0049428
0.00669845
0.00742339
0.00734104
0.00724781
0.00710247
0.00689673
0.0067284
0.00680014
0.00715712
0.00764755
0.00809699
0.00840471
0.00854295
0.00852554
0.00837747
0.00812673
0.00779938
0.00741684
0.00699238
0.00652545
0.00601562
0.00547402
0.00489576
0.00426685
0.00360076
0.00294045
0.00233122
0.00175234
0.0010808
0.000242974
0.000290304
0.00078441
0.00365782
0.0047934
0.00553743
0.006005
0.00744107
0.00792243
0.00805455
0.00801003
0.00779098
0.00738313
0.00691409
0.00667019
0.00680774
0.00723423
0.00773742
0.00814833
0.00839617
0.00847572
0.00841052
0.00823251
0.00796607
0.0076245
0.00721407
0.00673882
0.00620655
0.00562442
0.00499133
0.0042952
0.00352844
0.00274844
0.00203363
0.00139322
0.00079022
0.000126742
0.000267881
0.00120273
0.00351692
0.00452598
0.00522501
0.00766159
0.00845186
0.00880804
0.00897139
0.00897146
0.00874848
0.00824151
0.00752519
0.00692838
0.00676664
0.00704468
0.00752294
0.00797346
0.00828806
0.00844566
0.00847034
0.00839518
0.00822919
0.00796833
0.00761741
0.0071837
0.00667881
0.0061205
0.00553762
0.0049115
0.00415863
0.00326288
0.00234983
0.00156524
0.000430812
1.77524e-05
0.000795694
0.00256596
0.00494381
0.00830973
0.00773243
0.00856761
0.00902821
0.00934903
0.00957765
0.00965377
0.00949618
0.00900139
0.00815401
0.00730593
0.00693939
0.00711866
0.00755093
0.00797176
0.00826213
0.00840755
0.00844813
0.00839997
0.00826093
0.00803028
0.00770923
0.00730209
0.00681867
0.00621464
0.0053092
0.00393901
0.00233214
0.000787699
0.00067124
0.00291548
0.00436015
0.00377814
0.00431918
0.00564543
0.00720694
0.00761385
0.00838068
0.00885148
0.00923784
0.00960725
0.00990868
0.0100592
0.00996588
0.00949919
0.00857173
0.00756566
0.00710073
0.00722848
0.00760098
0.00795604
0.00820161
0.0083314
0.00836708
0.00832456
0.00820511
0.00800792
0.00773175
0.00735172
0.00681134
0.00602692
0.00486418
0.00325133
0.00154271
0.000990694
0.00255454
0.00429791
0.00519696
0.00629197
0.00662371
0.00330732
0.00774266
0.0082821
0.00870218
0.00908512
0.0094983
0.0099104
0.0102489
0.010427
0.010365
0.00995188
0.00905745
0.00800328
0.0074383
0.00743117
0.00767704
0.00794408
0.00814499
0.00826782
0.00832176
0.00831524
0.00825273
0.00813638
0.0079677
0.00774762
0.0074758
0.00714194
0.00671473
0.0061508
0.00548249
0.0049871
0.00487486
0.00475117
0.00420958
0.00318011
0.00165519
0.00770315
0.00818837
0.00859974
0.00897266
0.00938385
0.00982781
0.0102563
0.0105837
0.0107266
0.0106328
0.0102335
0.00942904
0.00846005
0.00784645
0.00768658
0.00776487
0.00789114
0.00798388
0.00802575
0.00801604
0.00795578
0.00784528
0.00768529
0.00747746
0.00722148
0.00691315
0.00656671
0.00629864
0.0059741
0.00522646
0.00442792
0.00294627
0.00188654
0.00354286
0.00815954
0.00759858
0.00817117
0.00856957
0.00890968
0.00929128
0.00974654
0.0102643
0.0107576
0.0111011
0.0112155
0.0110717
0.0106198
0.00979255
0.00879911
0.00807668
0.00775611
0.00767241
0.00764769
0.00759873
0.00749154
0.00730323
0.0070227
0.00664905
0.00619597
0.00569921
0.00509437
0.00411993
0.00381774
0.00516828
0.00569324
0.00505254
0.00412668
0.004075
0.00520404
0.00673217
0.00747537
0.00803989
0.00837678
0.00865196
0.0089682
0.00939028
0.00996509
0.0106388
0.0112436
0.0116441
0.0118023
0.0117167
0.0113442
0.0105766
0.00949217
0.00852255
0.00794432
0.00768776
0.00757244
0.00747184
0.00732196
0.00708234
0.00671792
0.006198
0.00550063
0.00463072
0.00373344
0.00333929
0.0040208
0.00481533
0.00510033
0.00523989
0.00544274
0.00538654
0.0023988
0.00767388
0.00803518
0.00823526
0.0084028
0.0086125
0.00894432
0.00950889
0.0103137
0.0111402
0.011771
0.0121413
0.0122768
0.0122146
0.0119533
0.0114125
0.0105047
0.00942858
0.00856718
0.00806141
0.00780902
0.00766583
0.00753969
0.00738287
0.00716755
0.00687177
0.00647526
0.00596679
0.00536657
0.00481595
0.00444899
0.00418638
0.00414357
0.00415639
0.00373342
0.00178066
0.00781987
0.00808474
0.00821255
0.00830127
0.00840296
0.00859654
0.00906155
0.00994008
0.0109904
0.0118642
0.0124276
0.0127055
0.0127583
0.0126295
0.0123307
0.0118199
0.0110069
0.00994624
0.00896715
0.00830663
0.00792973
0.00770368
0.00753006
0.00735641
0.00715493
0.00691241
0.00662707
0.00630346
0.00593349
0.00541447
0.00473076
0.00401102
0.00301398
0.00254572
0.00400707
0.00826749
0.00850165
0.00863427
0.00871386
0.00877391
0.00886833
0.00918247
0.00998033
0.0110731
0.012042
0.0127019
0.0130668
0.0132013
0.0131562
0.012957
0.0125995
0.0120314
0.0111555
0.0100089
0.00893416
0.00819554
0.00775285
0.00746227
0.00722079
0.00697778
0.0067191
0.00644415
0.00608611
0.00548675
0.00515552
0.00464625
0.00367072
0.00310998
0.00388005
0.00603686
0.00869186
0.00887051
0.00900608
0.00909529
0.00916643
0.00926051
0.0095332
0.0102903
0.0113926
0.0123809
0.0130577
0.0134458
0.013613
0.0136098
0.0134644
0.0131849
0.0127516
0.0120954
0.0111155
0.00988185
0.00876115
0.00798678
0.00749479
0.00714465
0.00683289
0.00651278
0.00612446
0.00551844
0.00480883
0.00511837
0.00499064
0.00429007
0.00395866
0.0044428
0.00532764
0.00919281
0.00915446
0.00915333
0.00917358
0.00924002
0.00941128
0.00976718
0.0105245
0.0116231
0.0126397
0.0133593
0.0137933
0.014007
0.0140511
0.0139562
0.013735
0.0133841
0.0128705
0.0121145
0.0110405
0.00977938
0.00868389
0.00792052
0.00740228
0.00699884
0.00661862
0.00618443
0.00558655
0.0047938
0.00462905
0.00508852
0.00499951
0.00482787
0.00478478
0.00427971
0.0097951
0.00922954
0.00895025
0.00881911
0.00886278
0.00924034
0.00990602
0.0108202
0.0119168
0.0129066
0.0136268
0.0140856
0.0143366
0.0144244
0.0143783
0.0142111
0.0139219
0.013502
0.0129069
0.0120529
0.0109214
0.00970946
0.00870541
0.00799159
0.00747489
0.0070438
0.00661049
0.00608076
0.00534206
0.00456857
0.00457073
0.00497696
0.00509368
0.00500248
0.00423134
0.0106989
0.0093131
0.00871011
0.00839214
0.00842092
0.0091366
0.0102571
0.0114098
0.0124764
0.0133496
0.0139851
0.0144056
0.0146486
0.0147446
0.0147154
0.0145729
0.0143174
0.0139459
0.0134334
0.0127183
0.0117579
0.0106309
0.00956232
0.00872008
0.00809393
0.00759194
0.00712465
0.00660923
0.00595159
0.00510567
0.00445343
0.00456927
0.00483896
0.0049327
0.00476582
0.0110741
0.009072
0.00828395
0.00784137
0.00790129
0.00896949
0.0104885
0.0118114
0.0128435
0.0136315
0.0142126
0.0146141
0.0148588
0.0149656
0.0149501
0.0148233
0.01459
0.0142449
0.013767
0.0131186
0.0122703
0.0112651
0.0102536
0.00938753
0.00869961
0.00813213
0.007609
0.00706065
0.00642354
0.00563881
0.00477984
0.00437496
0.00461092
0.00494311
0.0053188
0.0107155
0.00873047
0.00798489
0.00750156
0.00742956
0.00836258
0.00992978
0.0113626
0.0124839
0.0133444
0.0139939
0.0144617
0.014768
0.0149292
0.0149595
0.0148703
0.014668
0.0143501
0.0139019
0.0133009
0.0125372
0.011652
0.0107497
0.00993486
0.00923992
0.00863171
0.00805343
0.00745375
0.00679644
0.00603609
0.00514482
0.00446646
0.00457603
0.00499723
0.00543366
0.00977974
0.00846085
0.00798644
0.00754923
0.00709737
0.00718547
0.00828964
0.00980423
0.0111596
0.0122387
0.0130724
0.0136978
0.0141406
0.0144194
0.0145495
0.0145431
0.0144082
0.0141461
0.0137514
0.013219
0.0125596
0.0118173
0.0110607
0.0103467
0.00969148
0.00907465
0.00845844
0.00781151
0.00712943
0.00639003
0.00553482
0.0048041
0.00472305
0.00497727
0.00512242
0.00905297
0.00857362
0.00843347
0.00816288
0.00759228
0.0068369
0.00677267
0.00778924
0.00918196
0.0104534
0.0114951
0.0123134
0.0129314
0.0133685
0.0136402
0.0137591
0.0137345
0.0135733
0.0132821
0.0128726
0.0123682
0.011803
0.0112114
0.0106173
0.0100267
0.00942772
0.00879797
0.00812205
0.00742624
0.00673038
0.00597594
0.00531537
0.00507741
0.00506222
0.00480891
0.00831645
0.00862103
0.00888127
0.00894936
0.00872894
0.00804135
0.00704054
0.00665646
0.007241
0.00830362
0.00942317
0.0104186
0.0112361
0.0118731
0.0123348
0.0126312
0.0127741
0.0127765
0.0126523
0.0124184
0.0120936
0.0116973
0.0112469
0.0107547
0.0102249
0.00965102
0.00902315
0.00834148
0.00765204
0.0070074
0.00636903
0.00581086
0.00549498
0.00527426
0.00469257
0.00768729
0.00867157
0.00930151
0.00972842
0.00997083
0.00986871
0.00917825
0.00791954
0.00689777
0.00670075
0.00722204
0.00811359
0.00908107
0.00996033
0.0106849
0.0112351
0.0116182
0.0118438
0.0119257
0.0118808
0.0117268
0.0114803
0.0111544
0.0107576
0.0102919
0.00975304
0.00913997
0.00846776
0.00779929
0.00720767
0.00667505
0.00621763
0.00589252
0.00556994
0.00478085
0.00719953
0.00848471
0.00929228
0.00994802
0.0105857
0.0111223
0.0113687
0.011034
0.00987512
0.00830661
0.00709618
0.00665131
0.00694732
0.0076982
0.00858736
0.00941269
0.010089
0.0105924
0.0109238
0.011102
0.0111467
0.0110757
0.0109013
0.0106298
0.0102616
0.00979447
0.00923029
0.00858686
0.00793364
0.0073714
0.00690165
0.00650363
0.00618919
0.0058339
0.00500117
0.00737556
0.00843452
0.00911803
0.00972624
0.0104419
0.0112742
0.012092
0.0126949
0.0128676
0.0123502
0.010993
0.00916865
0.0075984
0.00681338
0.00691536
0.00758191
0.00839925
0.00913221
0.00970513
0.0101095
0.010358
0.0104697
0.01046
0.0103364
0.0100987
0.00974562
0.00927616
0.00870017
0.00807132
0.00751865
0.0071041
0.00676543
0.00648225
0.00614615
0.00541508
0.00808181
0.00869878
0.00915705
0.00965884
0.0103444
0.0111958
0.0121045
0.0129496
0.0136106
0.0139927
0.0139843
0.0133757
0.0119083
0.00978434
0.00787452
0.00701688
0.00721956
0.00787709
0.00855717
0.0091139
0.00951942
0.009779
0.00990406
0.00990416
0.00978295
0.00954002
0.00917407
0.00869305
0.00812237
0.00756763
0.00717477
0.00690122
0.00667186
0.00638199
0.00576498
0.00904153
0.00892762
0.00912629
0.00963249
0.0105753
0.0116878
0.0126594
0.013433
0.0140281
0.014446
0.0146724
0.0146808
0.0143854
0.0135056
0.0115603
0.00901205
0.00747047
0.00732406
0.00780358
0.00836692
0.00883826
0.00918034
0.00938959
0.0094683
0.00941974
0.00924163
0.00893383
0.00852492
0.00805397
0.007563
0.0071872
0.0069488
0.00675752
0.00649688
0.00588089
0.00940754
0.00842256
0.00833373
0.00887475
0.0103275
0.0119963
0.0132385
0.0140584
0.0145883
0.0149054
0.015041
0.0150066
0.0147988
0.0143663
0.0134803
0.0115837
0.00913144
0.00786293
0.00779662
0.00815604
0.00854945
0.00886912
0.00908588
0.00918552
0.00915961
0.0089963
0.00868589
0.00827029
0.00786324
0.00749243
0.00717759
0.00694931
0.00674918
0.00645168
0.00569947
0.00901576
0.0076263
0.00730885
0.00764276
0.00919558
0.0112076
0.0126948
0.0136803
0.0143374
0.0147464
0.0149336
0.0149088
0.0146748
0.0142071
0.0134076
0.0120709
0.0102123
0.00884262
0.00845133
0.00854932
0.00876339
0.00896516
0.00910897
0.00916482
0.0091106
0.00892305
0.00857802
0.00810054
0.00765446
0.00736881
0.00715276
0.00695612
0.00674543
0.00640003
0.00551847
0.00864675
0.0074961
0.00701413
0.00675236
0.00739651
0.0092764
0.0109997
0.0122323
0.0131061
0.0137077
0.0140615
0.0141648
0.014
0.0135316
0.0127182
0.0116024
0.0104657
0.0097037
0.0093933
0.00933572
0.00937349
0.00943071
0.00946372
0.00943674
0.00932018
0.00908556
0.00869878
0.00815097
0.00756753
0.00719082
0.00700841
0.00685714
0.00667082
0.00633433
0.00543908
0.00891005
0.00796961
0.00741972
0.00682538
0.00651095
0.00781564
0.00949704
0.0107788
0.0117165
0.0123904
0.0128224
0.0130057
0.0129228
0.0125784
0.0120506
0.0114871
0.0110053
0.0106489
0.010414
0.0102703
0.010182
0.0101175
0.010046
0.0099359
0.00975787
0.00948553
0.00908505
0.00852546
0.00785062
0.00727402
0.00695889
0.00677947
0.00661049
0.00633373
0.0055626
0.00917793
0.0079676
0.00738663
0.00693741
0.00678004
0.00767467
0.0089694
0.00998467
0.0107764
0.0113916
0.0118357
0.0121103
0.0122294
0.0122198
0.0121114
0.0119343
0.0117206
0.0115026
0.0113023
0.0111279
0.0109763
0.0108375
0.0106943
0.0105238
0.0103016
0.0100064
0.00960929
0.00907349
0.00838732
0.00766551
0.0071419
0.00685796
0.0066776
0.00645731
0.00580467
0.0090508
0.0075263
0.00683055
0.00652355
0.00686637
0.00766837
0.00863196
0.00944757
0.0101468
0.0107462
0.0112405
0.0116253
0.0119016
0.0120734
0.0121494
0.0121442
0.012077
0.0119684
0.0118352
0.0116896
0.0115387
0.0113839
0.0112188
0.0110282
0.0107934
0.0104978
0.0101179
0.00961878
0.00896603
0.00819777
0.00751765
0.00710412
0.00687346
0.0066416
0.00594785
0.00830339
0.00686371
0.00619305
0.00588312
0.00623778
0.00692357
0.00774302
0.00851806
0.00921554
0.00984574
0.010409
0.0108974
0.0113019
0.0116162
0.0118395
0.0119769
0.0120393
0.0120405
0.0119937
0.0119104
0.0118003
0.0116696
0.0115181
0.0113363
0.0111098
0.0108259
0.0104644
0.0099935
0.00937645
0.00862586
0.00790795
0.00743269
0.00715302
0.00686078
0.00598507
0.00745494
0.00665635
0.00623099
0.00579712
0.00549778
0.00565355
0.00629154
0.00712807
0.00794839
0.00870586
0.00939496
0.0100072
0.0105365
0.0109764
0.0113238
0.0115812
0.0117556
0.011857
0.0118961
0.0118835
0.0118291
0.0117419
0.0116248
0.011472
0.0112719
0.0110135
0.0106782
0.0102357
0.00965061
0.00892926
0.00821535
0.00770599
0.00736906
0.00698483
0.00591753
0.00703823
0.00717381
0.00705858
0.00670936
0.00598143
0.00513244
0.00505347
0.00579227
0.00674044
0.00763355
0.00843394
0.00914588
0.00976934
0.0103032
0.0107467
0.011101
0.0113699
0.0115595
0.0116771
0.0117313
0.0117319
0.0116886
0.0116069
0.0114844
0.0113136
0.0110857
0.0107831
0.0103783
0.00984035
0.00917742
0.00851244
0.00800701
0.00763395
0.00717932
0.00599009
0.00730587
0.00755339
0.00753579
0.00738261
0.00696254
0.00586578
0.00480961
0.00506275
0.00595603
0.0068887
0.007721
0.00845949
0.00911616
0.00969384
0.0101929
0.0106137
0.0109564
0.0112212
0.0114094
0.0115258
0.0115781
0.0115756
0.011525
0.0114278
0.0112819
0.0110804
0.0108058
0.0104306
0.00992823
0.0093149
0.00870147
0.00820945
0.00780472
0.00727399
0.00596086
0.00807798
0.00751523
0.00726412
0.0070527
0.00674209
0.00611336
0.00514611
0.00516884
0.00590528
0.00671619
0.00745022
0.00811306
0.00871804
0.00926816
0.00976456
0.0102065
0.0105901
0.0109082
0.011154
0.011325
0.0114241
0.0114573
0.0114301
0.0113466
0.0112123
0.0110275
0.0107795
0.0104425
0.00999073
0.00943921
0.00888146
0.00840806
0.0079855
0.00740652
0.00602393
0.00854602
0.00746322
0.00704109
0.00665456
0.00612522
0.00558379
0.00530499
0.00560004
0.00621156
0.00682776
0.00740969
0.00796351
0.00848797
0.00898208
0.00944634
0.00988047
0.0102796
0.0106321
0.0109235
0.0111433
0.0112881
0.011359
0.0113576
0.0112863
0.0111528
0.0109638
0.0107151
0.0103897
0.0099696
0.00947121
0.00896896
0.00852314
0.00809592
0.00747995
0.00600342
0.00777134
0.00718364
0.0070236
0.00677103
0.0062753
0.00564959
0.00534157
0.00554005
0.0060163
0.00655052
0.00708234
0.0075999
0.00809914
0.00857777
0.00903805
0.00948333
0.00991172
0.0103107
0.0106596
0.0109397
0.0111415
0.0112619
0.0113003
0.0112565
0.0111383
0.0109543
0.0107075
0.0103894
0.00998881
0.00952255
0.00905091
0.00861678
0.00818319
0.00754627
0.00603644
0.0068384
0.00711003
0.00733465
0.00740027
0.00722584
0.00666029
0.00578099
0.00519904
0.00528257
0.00574203
0.00629688
0.00685049
0.00738304
0.00789164
0.00838221
0.00886497
0.00934587
0.00981847
0.0102568
0.010631
0.0109217
0.0111199
0.0112227
0.0112283
0.0111429
0.0109746
0.0107315
0.0104174
0.0100324
0.00959389
0.00915058
0.00873546
0.0083164
0.00770267
0.00623636
0.006552
0.00711498
0.00750316
0.00778013
0.00792056
0.00778512
0.00712198
0.0059162
0.00502935
0.00497535
0.00541095
0.00597333
0.00653474
0.00706988
0.00758379
0.00809305
0.00861693
0.0091592
0.00969441
0.0101811
0.0105845
0.0108867
0.0110828
0.0111708
0.0111545
0.0110361
0.0108199
0.0105136
0.0101301
0.00969845
0.00926531
0.00885573
0.00843507
0.00781229
0.00632851
0.00667759
0.00706207
0.00742234
0.0077634
0.00806758
0.00822019
0.00807816
0.00735822
0.00598677
0.00499735
0.00492288
0.00532678
0.00584266
0.00635316
0.00684492
0.00733549
0.00785423
0.0084223
0.00902826
0.0096202
0.010139
0.0105484
0.0108398
0.0110144
0.011078
0.01103
0.0108694
0.0106006
0.0102405
0.0098265
0.00940852
0.00900973
0.00859712
0.00798486
0.00651926
0.00669601
0.00698798
0.00734341
0.00771762
0.00809812
0.008369
0.00841945
0.00814716
0.00728524
0.00587794
0.00505156
0.00506775
0.00543582
0.00586967
0.00629836
0.00672698
0.00718718
0.00771648
0.00833163
0.0089943
0.00962157
0.010144
0.0105385
0.0108068
0.0109576
0.0109888
0.0108935
0.0106717
0.0103423
0.0099495
0.00954537
0.00915044
0.00872841
0.00808327
0.00651789
0.00661502
0.00693407
0.00733266
0.00777265
0.0082481
0.0086217
0.00876807
0.00862655
0.00812205
0.00703577
0.00572224
0.00516282
0.00525759
0.00557062
0.00592051
0.00627519
0.00665527
0.00710309
0.00766323
0.00833636
0.00904105
0.0096657
0.0101569
0.0105126
0.0107476
0.0108632
0.0108485
0.0106967
0.0104232
0.0100727
0.00969491
0.00930952
0.00888186
0.0082115
0.00658169
0.00649613
0.00677483
0.00718422
0.00769559
0.0083163
0.00885822
0.00915373
0.00914351
0.00880657
0.00805354
0.00678733
0.00567251
0.00532364
0.00543229
0.00567544
0.00594728
0.00624039
0.0065869
0.00704343
0.00766012
0.0084062
0.00914291
0.00975263
0.0102094
0.0105318
0.0107291
0.0107899
0.0107
0.0104728
0.0101555
0.00979844
0.00942133
0.00899045
0.00830158
0.00661076
0.00656879
0.00678126
0.00715202
0.00768924
0.00842137
0.00910688
0.00953887
0.00966389
0.00948364
0.00895918
0.00798085
0.00664549
0.00571979
0.00546848
0.00554857
0.00572807
0.00593915
0.00618634
0.00651389
0.00699425
0.00767457
0.00846963
0.00920151
0.00977468
0.0101932
0.0104819
0.0106417
0.0106552
0.010518
0.0102651
0.00994527
0.00958244
0.00915014
0.00844924
0.00676075
0.00675197
0.00694131
0.00729783
0.0078795
0.00870616
0.00947961
0.00999214
0.0102159
0.0101694
0.00984538
0.00917387
0.00805055
0.00672608
0.00588518
0.00561839
0.00563175
0.00574392
0.00590105
0.0061163
0.0064508
0.00699596
0.00777411
0.00862396
0.00935119
0.00989714
0.0102802
0.0105078
0.0105727
0.0104821
0.0102729
0.00999125
0.00966164
0.00925989
0.00859284
0.00692001
0.00697595
0.00717211
0.00756724
0.00826099
0.00919361
0.0100137
0.0105658
0.010858
0.0109148
0.010739
0.0102998
0.00951052
0.00829943
0.00699119
0.00615001
0.0058109
0.00573326
0.00576283
0.00585307
0.00602714
0.00636865
0.0069858
0.00784305
0.0086952
0.00937763
0.00989357
0.0102643
0.0104691
0.0104827
0.0103345
0.0100826
0.00976136
0.00935086
0.00865309
0.006945
0.00709315
0.00730922
0.00779767
0.00869325
0.00975062
0.0105915
0.0111601
0.0115002
0.0116357
0.0115698
0.0112886
0.0107476
0.00985635
0.00858927
0.00730425
0.00645473
0.00604776
0.00588358
0.00583064
0.00585421
0.00599718
0.00638514
0.00713844
0.00812002
0.00898688
0.00960364
0.0100119
0.010252
0.0103313
0.0102599
0.0100767
0.009816
0.00946504
0.00884006
0.00718737