/*--------------------------------*- C++ -*----------------------------------*\
| =========                 |                                                 |
| \\      /  F ield         | OpenFOAM: The Open Source CFD Toolbox           |
|  \\    /   O peration     | Version:  v2006                                 |
|   \\  /    A nd           | Website:  www.openfoam.com                      |
|    \\/     M anipulation  |                                                 |
\*---------------------------------------------------------------------------*/
FoamFile
{
    version     2.0;
    format      ascii;
    class       volScalarField;
    location    "88";
    object      nut;
}
// * * * * * * * * * * * * * * * * * * * * * * * * * * * * * * * * * * * * * //

dimensions      [0 2 -1 0 0 0 0];


internalField   nonuniform List<scalar> 
78750
(
1.07264e-06
1.18439e-05
1.38895e-05
1.98438e-05
1.6447e-05
1.3056e-05
1.44798e-05
1.76172e-05
2.3832e-05
3.43515e-05
4.64767e-05
6.19883e-05
7.57511e-05
8.89609e-05
9.91823e-05
0.00010709
0.000113927
0.000117189
0.00012142
0.00012254
0.000124737
0.000125133
0.000125911
0.000126146
0.000126444
0.000126496
0.000126943
0.000126632
0.000121933
0.000117789
0.000129696
0.00010813
2.51847e-05
1.69426e-05
1.01034e-05
3.55741e-05
0.000157473
2.16934e-05
4.42715e-06
8.48707e-07
1.48048e-06
7.05868e-06
1.41043e-05
2.55603e-05
3.42385e-05
4.25048e-05
4.4149e-05
4.31923e-05
4.11958e-05
3.92915e-05
3.70274e-05
3.51482e-05
3.34421e-05
3.21135e-05
3.14084e-05
3.12681e-05
3.20781e-05
3.38536e-05
3.66056e-05
4.0054e-05
4.35706e-05
4.65522e-05
4.72643e-05
4.60467e-05
4.14816e-05
3.36516e-05
2.25162e-05
1.83701e-05
3.31836e-05
6.56135e-06
2.46043e-06
3.39413e-06
3.30066e-06
5.61128e-06
1.05053e-05
1.62609e-05
3.13675e-05
3.2759e-05
3.61701e-05
3.65568e-05
3.73369e-05
3.75392e-05
3.77574e-05
3.78714e-05
3.77963e-05
3.77383e-05
3.78337e-05
3.78251e-05
3.7613e-05
3.71812e-05
3.68741e-05
3.69088e-05
3.75533e-05
3.87263e-05
4.03558e-05
4.20118e-05
4.28325e-05
4.01599e-05
3.3599e-05
2.43799e-05
1.89142e-05
1.32458e-05
9.45017e-06
1.05301e-05
4.13098e-06
5.9024e-06
1.05033e-05
2.76981e-06
1.22037e-05
1.45187e-05
2.1386e-05
2.84327e-05
3.81885e-05
4.1289e-05
4.30678e-05
4.37399e-05
4.37651e-05
4.24556e-05
4.04576e-05
3.90656e-05
3.85629e-05
3.82245e-05
3.78117e-05
3.74454e-05
3.71879e-05
3.68839e-05
3.63797e-05
3.56443e-05
3.47579e-05
3.37884e-05
3.2745e-05
3.16188e-05
3.02343e-05
2.81153e-05
2.38517e-05
1.76906e-05
9.64072e-06
5.10522e-06
8.6345e-06
4.6238e-06
3.69928e-06
1.23402e-06
3.61946e-06
1.38753e-05
2.88373e-05
7.37027e-06
1.9274e-06
5.54937e-07
7.62577e-06
1.57536e-05
2.31579e-05
2.96884e-05
3.43816e-05
3.7344e-05
3.87835e-05
3.89793e-05
3.84388e-05
3.75201e-05
3.67707e-05
3.63899e-05
3.59492e-05
3.51991e-05
3.41828e-05
3.29187e-05
3.14377e-05
2.99071e-05
2.86619e-05
2.80663e-05
2.82588e-05
2.80178e-05
2.32974e-05
1.28725e-05
7.86833e-06
1.52749e-05
4.87515e-06
3.99067e-06
1.69701e-05
5.99551e-06
3.041e-06
2.05899e-06
2.47724e-06
4.01251e-06
4.8988e-06
1.66017e-06
2.72098e-06
1.67489e-06
2.45824e-06
6.80708e-06
1.53606e-05
2.23555e-05
2.79355e-05
3.2e-05
3.47323e-05
3.65958e-05
3.80139e-05
3.9135e-05
3.95476e-05
3.87817e-05
3.68078e-05
3.37303e-05
2.98599e-05
2.60109e-05
2.30057e-05
2.12865e-05
2.04375e-05
1.83577e-05
1.40571e-05
1.4221e-05
3.39367e-05
5.09224e-06
7.15562e-06
7.52537e-06
4.15036e-06
8.42822e-06
7.56379e-07
1.78892e-06
2.78361e-06
4.55462e-06
3.72684e-07
3.89676e-06
6.67682e-06
4.33305e-06
5.03412e-06
3.19554e-06
5.51617e-06
1.14626e-05
1.60093e-05
1.94895e-05
2.19773e-05
2.40055e-05
2.63905e-05
2.94718e-05
3.24977e-05
3.41426e-05
3.36641e-05
3.06322e-05
2.49805e-05
1.87332e-05
1.43471e-05
1.23062e-05
1.1956e-05
1.2707e-05
1.89917e-05
5.35046e-05
5.28143e-06
2.03163e-06
1.32717e-05
4.19766e-05
6.48626e-05
4.59851e-05
3.17678e-05
2.36285e-05
1.84741e-05
1.41851e-05
7.42836e-06
5.16259e-06
2.14761e-06
3.41221e-06
2.34074e-06
3.97972e-06
2.7614e-08
1.95713e-07
8.21302e-06
1.42848e-05
1.63032e-05
1.63011e-05
1.71671e-05
2.07024e-05
2.60118e-05
3.07809e-05
3.3606e-05
3.24116e-05
2.47389e-05
1.46217e-05
9.26437e-06
7.91188e-06
9.83462e-06
1.96889e-05
6.17268e-05
5.59889e-06
3.38012e-06
3.1767e-05
7.09418e-05
8.79613e-05
9.94197e-05
0.000110003
0.000117348
0.00011992
0.000116284
0.000106272
9.13036e-05
7.50005e-05
6.04065e-05
4.71583e-05
3.60006e-05
2.35566e-05
1.39033e-05
4.87725e-06
2.85586e-06
5.51517e-07
3.8307e-06
6.16903e-06
1.09717e-05
1.6033e-05
1.64257e-05
1.69999e-05
2.41822e-05
2.99277e-05
2.26908e-05
1.13831e-05
7.09844e-06
7.84376e-06
1.70988e-05
6.35e-05
5.79343e-06
3.98074e-06
1.79299e-05
4.05265e-05
6.21252e-05
6.99325e-05
7.01073e-05
6.93199e-05
7.05021e-05
7.54056e-05
8.56912e-05
0.000102186
0.000124192
0.000148154
0.000167728
0.000175871
0.000166955
0.00013971
0.000104067
7.16839e-05
4.81693e-05
3.15135e-05
1.37822e-05
2.14235e-06
6.65092e-07
6.75092e-07
5.44983e-06
1.17638e-05
1.98558e-05
1.82784e-05
1.15423e-05
6.21557e-06
6.35056e-06
1.48567e-05
6.35266e-05
5.91793e-06
7.65955e-06
4.08213e-05
0.00011551
0.000137213
0.000129277
0.000117208
0.000103834
9.02437e-05
7.9144e-05
7.28047e-05
7.14646e-05
7.40567e-05
7.96738e-05
8.85563e-05
0.000102454
0.000125167
0.0001608
0.00020511
0.000229867
0.000195472
0.000119545
6.39605e-05
3.95727e-05
3.26667e-05
2.83476e-05
1.91256e-05
1.3431e-05
1.35621e-05
1.69912e-05
2.19586e-05
9.21777e-06
5.99167e-06
1.29773e-05
6.62841e-05
6.14142e-06
8.0335e-06
4.74347e-05
9.85978e-05
0.000102853
9.65594e-05
8.6082e-05
7.48067e-05
6.54667e-05
6.16139e-05
6.65221e-05
8.1576e-05
0.000104383
0.000126389
0.000135799
0.000127448
0.000109104
9.29232e-05
8.61662e-05
9.24063e-05
0.000113293
0.000137474
0.000126315
8.1654e-05
4.96857e-05
3.01994e-05
1.98997e-05
2.11297e-05
3.77294e-05
3.9256e-05
3.58639e-05
1.28926e-05
5.97049e-06
1.17602e-05
6.67492e-05
6.42166e-06
6.02917e-06
2.80123e-05
9.16854e-05
0.000124121
0.00012483
0.000111898
8.7528e-05
5.83374e-05
3.64842e-05
2.57876e-05
2.42508e-05
3.0833e-05
4.65287e-05
7.29696e-05
0.000106696
0.000131625
0.000130405
0.000108905
8.96125e-05
8.18021e-05
7.86157e-05
6.33721e-05
3.36766e-05
1.48066e-05
6.44303e-06
1.25211e-06
6.75308e-06
2.02656e-05
4.35666e-05
3.31479e-05
1.09813e-05
7.32865e-06
1.55038e-05
6.82268e-05
6.80806e-06
7.715e-06
4.73016e-05
0.000142148
0.000164251
0.000152904
0.000137536
0.000117176
8.79788e-05
5.75313e-05
3.58082e-05
2.36983e-05
2.019e-05
2.384e-05
3.29392e-05
4.71687e-05
6.74082e-05
9.26794e-05
0.000113405
0.0001166
0.000112842
0.000122704
0.000143788
0.000133758
6.84105e-05
2.93662e-05
1.81254e-05
2.30848e-05
3.49105e-05
3.69388e-05
4.21342e-05
1.22317e-05
6.67226e-06
1.42938e-05
7.2101e-05
6.92304e-06
8.0976e-06
6.94826e-05
0.000148616
0.000142964
0.000129557
0.0001092
8.55958e-05
6.59759e-05
5.19845e-05
4.11821e-05
3.24606e-05
3.03009e-05
3.72193e-05
4.92441e-05
6.26048e-05
7.46944e-05
8.00128e-05
7.36019e-05
6.03473e-05
4.9543e-05
4.28524e-05
3.69594e-05
3.03263e-05
2.48065e-05
2.25836e-05
2.52843e-05
2.52335e-05
2.97518e-05
4.23447e-05
3.22235e-05
1.1129e-05
8.38676e-06
1.91222e-05
6.63292e-05
7.21892e-06
7.12094e-06
4.84368e-05
0.000132927
0.000155875
0.000152605
0.000128577
9.11724e-05
5.90368e-05
3.76888e-05
2.35267e-05
1.4452e-05
1.18922e-05
1.70795e-05
2.54321e-05
2.92733e-05
3.12812e-05
3.33265e-05
3.40442e-05
3.35471e-05
3.26059e-05
3.11837e-05
2.95829e-05
2.78497e-05
2.62286e-05
2.51928e-05
2.56229e-05
2.86556e-05
3.23108e-05
2.95562e-05
1.72954e-05
9.41622e-06
9.94278e-06
2.51872e-05
5.90816e-05
7.33455e-06
7.73589e-06
5.32681e-05
0.00014614
0.000159382
0.000146735
0.000132593
0.000123778
0.000116403
9.9533e-05
7.22202e-05
4.69337e-05
2.75422e-05
1.23038e-05
3.58763e-06
2.27416e-06
5.8394e-06
1.18804e-05
1.61556e-05
1.89155e-05
2.21448e-05
2.64031e-05
3.11211e-05
3.53786e-05
3.84335e-05
4.04429e-05
4.17191e-05
4.10024e-05
3.57103e-05
2.52566e-05
1.4676e-05
9.52387e-06
1.08246e-05
2.70277e-05
5.70837e-05
7.10414e-06
8.24596e-06
7.31004e-05
0.000163636
0.000164311
0.000147051
0.000122225
9.97365e-05
8.87198e-05
9.17489e-05
0.000102252
9.66997e-05
6.53719e-05
3.88682e-05
2.31152e-05
1.03007e-05
3.16741e-07
8.48738e-07
1.42825e-06
9.16092e-06
2.62079e-05
3.98689e-05
4.95267e-05
5.66369e-05
6.11665e-05
6.34156e-05
6.28625e-05
5.68891e-05
4.17294e-05
2.33092e-05
1.25351e-05
9.10116e-06
1.21912e-05
3.18494e-05
5.53105e-05
7.07474e-06
8.07187e-06
6.8687e-05
0.000166607
0.000183421
0.000183293
0.000173564
0.000149453
0.000112611
8.29148e-05
6.97373e-05
6.82154e-05
6.63742e-05
5.09491e-05
3.17336e-05
1.95056e-05
1.11525e-05
3.35284e-06
5.67508e-07
9.63978e-07
3.0942e-06
8.84533e-06
1.20943e-05
2.64341e-05
3.61547e-05
4.2926e-05
4.73606e-05
4.61467e-05
3.41321e-05
1.91929e-05
1.16017e-05
9.28664e-06
1.2373e-05
3.20578e-05
5.49891e-05
7.034e-06
7.62966e-06
5.81895e-05
0.000155771
0.000169893
0.000162817
0.000153013
0.000147245
0.000143791
0.00013314
0.000112122
9.4315e-05
8.77816e-05
8.53155e-05
6.92685e-05
4.18682e-05
2.1606e-05
9.09391e-06
5.41095e-07
1.29008e-06
2.86878e-06
1.46534e-06
7.53987e-09
5.07669e-06
8.86435e-06
2.09654e-05
3.09532e-05
3.61998e-05
2.95283e-05
1.46755e-05
8.66309e-06
8.50082e-06
1.36537e-05
3.65633e-05
5.40563e-05
7.10739e-06
7.68123e-06
5.77383e-05
0.000160189
0.000178456
0.000170334
0.000152294
0.000133417
0.000120376
0.000114421
0.000110875
0.000103448
9.40944e-05
9.05484e-05
9.38989e-05
9.10818e-05
6.6425e-05
3.61476e-05
1.46757e-05
2.93386e-06
1.45045e-06
2.98871e-06
2.42774e-06
1.82903e-06
1.44856e-07
6.3938e-06
8.00964e-06
2.85502e-06
8.97881e-06
9.43538e-06
7.52005e-06
7.2522e-06
1.17164e-05
3.21121e-05
5.64897e-05
7.23131e-06
7.63886e-06
5.39877e-05
0.000154987
0.000181083
0.000176577
0.000160625
0.000141978
0.000126986
0.000118495
0.000115755
0.000114755
0.000110065
0.000101448
9.5528e-05
9.67925e-05
0.000100424
9.01145e-05
6.08621e-05
3.05026e-05
7.81924e-06
1.64858e-06
1.44055e-07
2.03869e-06
8.4441e-06
4.43071e-06
2.59872e-06
6.65894e-07
8.51788e-07
1.44944e-06
3.28744e-06
6.35441e-06
1.20191e-05
3.34128e-05
5.79784e-05
7.32639e-06
7.58094e-06
4.93846e-05
0.000146152
0.000173477
0.000165727
0.000145671
0.000125517
0.000112628
0.000108413
0.000111323
0.000118446
0.000125038
0.000124942
0.000116542
0.00010748
0.000106534
0.00011531
0.000122458
0.000104627
6.4925e-05
3.04441e-05
9.1253e-06
9.68867e-07
3.67935e-06
8.55511e-06
2.64281e-06
1.30787e-06
2.90503e-08
1.65223e-06
7.55213e-07
4.76361e-06
1.09277e-05
3.23075e-05
5.62454e-05
7.47819e-06
7.76594e-06
4.80125e-05
0.000138556
0.000162628
0.000151651
0.000130344
0.000112095
0.000102091
0.000100431
0.000106235
0.000118423
0.000134821
0.000150316
0.000156133
0.000146279
0.000128345
0.000116913
0.000119467
0.000134132
0.000143165
0.000116756
6.66435e-05
2.8084e-05
6.94734e-06
2.09861e-06
3.94091e-06
4.13182e-06
1.5465e-06
1.26246e-06
1.73237e-06
3.91485e-06
1.19408e-05
3.81517e-05
5.45078e-05
7.59446e-06
8.1328e-06
4.95776e-05
0.000138354
0.000151661
0.000129771
0.000107211
9.65842e-05
9.58912e-05
0.000101318
0.000111267
0.00012568
0.000144472
0.000166328
0.000187366
0.00019944
0.000192614
0.000168211
0.000143782
0.000133938
0.000142103
0.000161088
0.000163489
0.000121162
6.36698e-05
2.46476e-05
5.73078e-06
9.72078e-07
5.74368e-07
2.58618e-06
4.75297e-07
2.17338e-06
9.00196e-06
3.21901e-05
5.45168e-05
7.65956e-06
8.63839e-06
5.37477e-05
0.000142672
0.00013487
0.000100194
8.14243e-05
8.11816e-05
9.23578e-05
0.000109183
0.000128165
0.000148236
0.000169535
0.000191878
0.000213999
0.000232895
0.000242441
0.000234087
0.00020616
0.000172805
0.000151417
0.000149344
0.000165048
0.000181455
0.000157281
8.68997e-05
3.38514e-05
9.28531e-06
6.69448e-06
3.46831e-06
3.30422e-07
1.34878e-06
9.62622e-06
3.92624e-05
4.95178e-05
7.82588e-06
8.87002e-06
5.54102e-05
0.000134451
0.00010998
7.47891e-05
6.3635e-05
7.16939e-05
9.26155e-05
0.000120002
0.000147424
0.000171716
0.000193245
0.000213558
0.000233527
0.000252659
0.000268566
0.000275927
0.000266959
0.000238224
0.000199401
0.000167496
0.000152472
0.000155186
0.000169069
0.000174251
0.000141068
7.06037e-05
1.80024e-05
1.68951e-06
3.02653e-07
3.91626e-07
6.54015e-06
2.82513e-05
5.5633e-05
7.73651e-06
8.70154e-06
5.0955e-05
0.000119699
9.82925e-05
6.74786e-05
5.66799e-05
6.29106e-05
8.1486e-05
0.000108496
0.000139164
0.000169002
0.00019578
0.000219637
0.000241703
0.000262889
0.000283286
0.000301426
0.000310611
0.000299832
0.000285024
0.000245476
0.000203468
0.000176226
0.00016825
0.000171086
0.000157798
0.000101319
3.5703e-05
3.61841e-06
6.51558e-08
4.77382e-07
4.27737e-06
2.13339e-05
5.83429e-05
8.32826e-06
8.5054e-06
4.71631e-05
0.000116868
0.000111779
8.33889e-05
6.06561e-05
5.35194e-05
5.91566e-05
7.5132e-05
0.000100028
0.000131451
0.00016574
0.000199805
0.000232267
0.000262772
0.000290749
0.000314013
0.000320461
0.000309285
0.000296582
0.000282452
0.000253596
0.000209232
0.000173031
0.00015091
0.00013151
9.02008e-05
3.64327e-05
5.27193e-06
1.73673e-06
2.01687e-06
1.18534e-05
6.70318e-05
4.38404e-05
8.14302e-06
8.61334e-06
4.92971e-05
0.000126578
0.000137464
0.000119881
8.65434e-05
6.01112e-05
4.98485e-05
5.2109e-05
6.46138e-05
8.68538e-05
0.000117586
0.000154272
0.000194629
0.000236817
0.000276765
0.000307244
0.000322489
0.000322685
0.000310968
0.000290039
0.000260345
0.000220282
0.000171105
0.000122104
8.40902e-05
5.85686e-05
4.16283e-05
3.09428e-05
4.02996e-06
1.11623e-06
3.09506e-06
1.85094e-05
5.66655e-05
7.10364e-06
8.88128e-06
5.75863e-05
0.000149257
0.000170411
0.00016578
0.000144125
0.000104488
6.93527e-05
5.26081e-05
5.08916e-05
6.11553e-05
8.25283e-05
0.000114267
0.00015717
0.000215434
0.000287607
0.000351657
0.00034819
0.00034261
0.000334917
0.000325131
0.000313336
0.00029974
0.00028484
0.000217149
0.000141261
9.09609e-05
6.19594e-05
7.25005e-05
5.0229e-06
9.14781e-08
1.58703e-06
6.67349e-06
7.35381e-05
8.73869e-06
8.99817e-06
6.37477e-05
0.000167261
0.00019461
0.000198519
0.000192823
0.000171389
0.000125069
7.90938e-05
5.63234e-05
5.30121e-05
6.47327e-05
9.07954e-05
0.000133915
0.000206364
0.000319377
0.000352619
0.000351661
0.000348748
0.000343812
0.000336793
0.00032766
0.000316458
0.000248765
0.000132172
7.62777e-05
5.21965e-05
6.74418e-06
2.14863e-06
9.37502e-06
2.32952e-05
2.75969e-05
5.12707e-05
4.58651e-05
8.96149e-06
8.90269e-06
6.23539e-05
0.000168828
0.000195474
0.000199182
0.000198716
0.000195473
0.000178996
0.000133137
8.23991e-05
5.72802e-05
5.42687e-05
6.80276e-05
9.79329e-05
0.000144745
0.000209446
0.000291032
0.0003508
0.000349897
0.000347314
0.00034299
0.000336826
0.000284687
0.000213239
0.000145461
8.50816e-05
3.90757e-05
1.02519e-05
3.73425e-06
9.43123e-06
2.55967e-05
4.34612e-05
5.44425e-05
2.30987e-05
5.40642e-06
8.91135e-06
6.1516e-05
0.000165088
0.000185754
0.000183788
0.000180057
0.000181016
0.000184972
0.000179408
0.000142923
9.1805e-05
6.38578e-05
5.92658e-05
7.10326e-05
9.63969e-05
0.00013346
0.000176788
0.000215862
0.00024054
0.000247723
0.000240501
0.000223645
0.000202342
0.000180696
0.000158855
0.000134407
0.000110331
9.08197e-05
6.75744e-05
4.77725e-05
5.11497e-05
5.69053e-05
5.72477e-05
3.79001e-05
2.73856e-06
8.84031e-06
6.09403e-05
0.000163563
0.000184854
0.000180343
0.000170974
0.000166833
0.000171074
0.000179251
0.000178631
0.00015099
0.000106462
7.90307e-05
7.44132e-05
8.76723e-05
0.000116952
0.000160721
0.000209616
0.000247436
0.000265401
0.000264936
0.000250773
0.000228839
0.000203786
0.0001755
0.000149419
0.000154074
0.000243764
0.000218494
0.000116245
4.36378e-05
1.43907e-05
6.4296e-06
1.88137e-05
9.89285e-06
8.73387e-06
5.73557e-05
0.000160159
0.000185404
0.000177458
0.000160097
0.000149568
0.000153353
0.00016902
0.000186346
0.00018894
0.000161623
0.000118663
9.15992e-05
8.77911e-05
0.000107489
0.000161941
0.000269036
0.000333932
0.000331498
0.00032721
0.00032073
0.000311896
0.000300841
0.000288227
0.000170248
3.6712e-05
1.85171e-05
2.82951e-05
4.88821e-05
4.93957e-05
3.60765e-05
4.37074e-05
6.37012e-05
9.01231e-06
8.60864e-06
5.12146e-05
0.000147727
0.000177101
0.000165997
0.000140499
0.000122307
0.000122012
0.00013942
0.00016996
0.000202945
0.000219574
0.000197609
0.000144609
0.000104632
9.1394e-05
0.000100809
0.000132342
0.000183746
0.000233903
0.00025513
0.000246278
0.000219762
0.000181661
0.000130514
7.26184e-05
3.22937e-05
1.89671e-05
2.36976e-05
4.2863e-05
6.32627e-05
7.44695e-05
7.29626e-05
2.76729e-05
3.94861e-06
8.60972e-06
4.54611e-05
0.000129094
0.000158367
0.000147578
0.000120075
9.93114e-05
9.71951e-05
0.000112319
0.000140874
0.000177994
0.000216756
0.00024604
0.00024534
0.000197795
0.000138767
0.000106178
9.95765e-05
0.000111837
0.000136963
0.00016468
0.000182169
0.000184403
0.000174686
0.00015804
0.000137592
0.000110539
7.62412e-05
5.22462e-05
4.33388e-05
4.38269e-05
6.04983e-05
9.40735e-05
5.58062e-05
2.94507e-06
8.50695e-06
4.02857e-05
0.000112496
0.000140368
0.000130372
0.000101848
7.97593e-05
7.78292e-05
9.4993e-05
0.000129519
0.000177505
0.000229401
0.000273567
0.000300181
0.000296215
0.000247984
0.000178853
0.000132707
0.000117771
0.000127035
0.000153426
0.000186049
0.000209555
0.000214964
0.00020552
0.00018954
0.00017258
0.000155622
0.000133535
9.13478e-05
5.98637e-05
4.21992e-05
2.31126e-05
2.60305e-05
6.5123e-06
8.60512e-06
3.99888e-05
0.000112288
0.00013867
0.0001258
9.45526e-05
7.1582e-05
6.93775e-05
8.64865e-05
0.000122403
0.000176215
0.000241386
0.000305596
0.000355886
0.00037975
0.000360647
0.000289966
0.000204892
0.000152737
0.000140225
0.000161876
0.000211517
0.000267789
0.000298861
0.00030034
0.000288284
0.000253339
0.00012955
5.64903e-05
4.19314e-05
4.08488e-05
2.67152e-05
2.21413e-05
6.52868e-05
8.53228e-06
8.78015e-06
4.30608e-05
0.000124789
0.000147079
0.000124591
8.95642e-05
6.85038e-05
6.81631e-05
8.76357e-05
0.000127369
0.000185713
0.000255024
0.000324355
0.000384071
0.00042521
0.000434593
0.000393755
0.000303738
0.000213988
0.000165455
0.000160246
0.000193999
0.000258829
0.000319093
0.000316562
0.000290177
0.000179756
6.35668e-05
2.96977e-05
3.3602e-05
5.11793e-05
4.54805e-05
5.08531e-05
7.8802e-05
8.20351e-06
9.04964e-06
4.69049e-05
0.000137793
0.000149389
0.000113923
8.19962e-05
6.7668e-05
7.01134e-05
9.03912e-05
0.000130536
0.000189108
0.000258461
0.000328347
0.000390575
0.000437666
0.000452348
0.000444782
0.000380165
0.000284571
0.000205916
0.000168491
0.00017011
0.000201839
0.000241605
0.00025595
0.000227338
0.000155994
7.25819e-05
3.09365e-05
2.50153e-05
4.08564e-05
6.89279e-05
9.28442e-05
4.84027e-05
6.94604e-06
9.36544e-06
4.99417e-05
0.000140618
0.000129818
8.70316e-05
6.74502e-05
6.60846e-05
7.66976e-05
0.000101485
0.000143963
0.000202565
0.000270011
0.000338217
0.000401212
0.000450607
0.000460225
0.000455447
0.00043559
0.00035388
0.000262479
0.000199923
0.000175022
0.000181726
0.000206199
0.00022341
0.000211826
0.000167593
0.000101619
4.76321e-05
2.59607e-05
2.73799e-05
5.24271e-05
9.46625e-05
4.41971e-05
6.8688e-06
9.78674e-06
5.65491e-05
0.000138811
9.92461e-05
6.25351e-05
5.66635e-05
6.91381e-05
9.30878e-05
0.00012771
0.000174109
0.000229481
0.000288315
0.00034647
0.000401
0.000446119
0.000466145
0.000461969
0.000454356
0.00039196
0.000308234
0.00023883
0.000200681
0.000193199
0.000206436
0.000219612
0.000209802
0.000171892
0.000118298
6.81571e-05
3.65707e-05
2.60508e-05
3.60586e-05
7.79168e-05
4.80881e-05
7.30196e-06
9.9683e-06
6.61482e-05
0.00012652
7.38385e-05
4.91861e-05
5.39132e-05
8.00959e-05
0.000120388
0.000165066
0.000210349
0.00025606
0.000301903
0.000347096
0.000390206
0.000428211
0.000455701
0.000464947
0.00044669
0.000397414
0.000329978
0.000268343
0.000229381
0.000216215
0.00022119
0.000225976
0.000209883
0.000169216
0.000119923
7.87745e-05
4.87389e-05
3.09061e-05
3.05057e-05
5.95742e-05
5.39349e-05
7.76474e-06
9.83887e-06
7.16724e-05
0.000115228
6.80769e-05
4.77254e-05
5.37083e-05
8.20123e-05
0.000126339
0.000174061
0.000218566
0.000259995
0.000299705
0.00033813
0.000374581
0.000406934
0.00043087
0.000439427
0.00042511
0.000386746
0.000335055
0.000287295
0.000255833
0.000243208
0.000242141
0.000236551
0.00021073
0.000164594
0.000115932
8.0404e-05
5.54487e-05
3.6616e-05
3.22892e-05
5.83645e-05
5.55466e-05
7.94411e-06
9.49477e-06
6.86879e-05
0.00012145
8.59285e-05
5.5477e-05
4.74856e-05
6.14234e-05
9.64021e-05
0.000145564
0.000197589
0.000245877
0.000289184
0.000327958
0.000362169
0.000390356
0.000409083
0.000413398
0.000399711
0.000370322
0.000334473
0.000303095
0.000282635
0.000272415
0.000264524
0.000246591
0.000209622
0.000157568
0.000108739
7.71372e-05
5.81025e-05
4.38929e-05
4.21676e-05
7.37194e-05
5.39869e-05
7.82528e-06
9.25301e-06
6.45896e-05
0.000131001
0.000116568
7.75913e-05
4.90301e-05
4.44886e-05
6.17997e-05
9.88771e-05
0.000148775
0.000201555
0.000250573
0.000293322
0.000328781
0.00035552
0.000371521
0.000375279
0.000367662
0.000352694
0.000335807
0.00032099
0.000308934
0.000296755
0.000278914
0.000249194
0.000204186
0.000149418
0.000101381
7.23806e-05
5.88039e-05
5.3115e-05
6.05162e-05
9.99212e-05
5.23155e-05
7.64842e-06
9.01802e-06
6.31751e-05
0.000137037
0.000137737
0.000113807
7.61803e-05
5.10125e-05
4.70231e-05
6.19578e-05
9.34973e-05
0.000136884
0.000184068
0.00022799
0.000265248
0.000294645
0.000316111
0.000330265
0.000338158
0.000340765
0.000338635
0.000331778
0.000319668
0.000301172
0.000274502
0.000237588
0.000190107
0.000138149
9.46565e-05
6.88304e-05
5.92117e-05
6.1733e-05
8.05464e-05
0.000119014
5.09904e-05
7.56715e-06
8.85442e-06
6.32653e-05
0.000148054
0.000162057
0.000156381
0.000133292
9.29722e-05
6.13171e-05
4.95538e-05
5.39239e-05
7.21985e-05
0.000103665
0.000144518
0.000187423
0.000226361
0.000258898
0.000284748
0.000303945
0.000316534
0.000322374
0.000320801
0.000310798
0.000291437
0.00026217
0.000223019
0.00017592
0.000127609
8.84965e-05
6.54586e-05
5.85233e-05
6.68712e-05
9.42298e-05
0.000126486
4.99376e-05
7.58524e-06
8.70872e-06
6.25634e-05
0.000159411
0.000180998
0.000180954
0.000178226
0.000168668
0.000135361
9.1501e-05
6.39444e-05
5.35939e-05
5.64074e-05
7.23973e-05
0.000102353
0.000142695
0.00018495
0.000222622
0.00025394
0.000278586
0.000295621
0.000303032
0.000298701
0.00028181
0.000253332
0.000215381
0.000171096
0.000125991
8.82121e-05
6.47433e-05
5.7572e-05
6.75984e-05
9.87639e-05
0.000129516
5.02662e-05
7.65438e-06
8.85962e-06
6.28131e-05
0.000161636
0.000174464
0.000162147
0.00015804
0.000170927
0.000193008
0.000198674
0.000162215
0.000109578
7.49498e-05
5.92643e-05
5.87894e-05
7.44372e-05
0.000107335
0.00015168
0.000196765
0.000235744
0.000265649
0.000283732
0.000287292
0.000275255
0.00024901
0.000212267
0.000170371
0.00012855
9.17384e-05
6.60633e-05
5.62242e-05
6.46198e-05
9.6188e-05
0.000130753
5.15424e-05
7.82312e-06
9.31815e-06
6.58521e-05
0.000157397
0.000156991
0.000137631
0.000130645
0.000140312
0.000166701
0.000207223
0.000247312
0.00025563
0.000202818
0.000127344
8.01735e-05
6.11014e-05
6.43319e-05
9.04286e-05
0.000135936
0.000187475
0.000232102
0.000263199
0.000277246
0.000272369
0.000248977
0.000210899
0.000166666
0.000125765
9.2086e-05
6.67975e-05
5.45652e-05
6.04048e-05
9.12444e-05
0.000129165
4.93245e-05
7.86913e-06
9.77191e-06
7.13656e-05
0.000152206
0.000129149
0.000112899
0.00012018
0.000140308
0.000166353
0.000199249
0.000241191
0.000287223
0.000319104
0.000298253
0.000197237
0.00010618
6.75745e-05
6.43355e-05
9.02524e-05
0.000140938
0.000199858
0.000247196
0.000272844
0.000274843
0.000254072
0.000213552
0.000162488
0.000116483
8.46406e-05
6.42794e-05
5.4219e-05
6.03156e-05
9.23104e-05
0.000129211
4.46579e-05
7.75623e-06
9.7149e-06
7.36235e-05
0.000130869
8.80499e-05
8.3078e-05
0.000111393
0.00015813
0.000202195
0.000235468
0.000263584
0.000292662
0.000321372
0.000335813
0.000302561
0.000198713
0.000108136
7.32057e-05
7.86255e-05
0.000118011
0.000181061
0.000241067
0.000274932
0.00027879
0.00025731
0.000214868
0.000159375
0.000107884
7.49176e-05
5.93299e-05
5.5567e-05
6.66426e-05
0.000102147
0.000128993
4.00028e-05
7.51357e-06
9.22494e-06
6.50231e-05
0.000108264
6.16439e-05
6.15178e-05
9.88268e-05
0.00016545
0.00022827
0.000268486
0.000290541
0.000302877
0.000309095
0.000302974
0.000269562
0.0002043
0.000135444
9.71609e-05
9.57445e-05
0.000131123
0.000193388
0.00025224
0.000281523
0.000279903
0.000255415
0.000212924
0.000158066
0.000105062
6.98041e-05
5.50942e-05
5.66749e-05
7.55349e-05
0.000114226
0.000126436
3.75173e-05
7.38844e-06
8.8948e-06
5.66877e-05
0.000105835
5.33995e-05
4.41543e-05
6.99761e-05
0.000129738
0.000200167
0.000254665
0.000287585
0.000300133
0.000292469
0.000264334
0.000220101
0.000173347
0.000140041
0.000129404
0.000145493
0.000186822
0.000237026
0.00027237
0.000283346
0.000274424
0.000250448
0.000212513
0.000162722
0.000110908
7.22758e-05
5.39633e-05
5.51823e-05
7.83125e-05
0.000119235
0.00012254
3.66343e-05
7.41408e-06
9.0696e-06
6.11979e-05
0.000110355
5.31212e-05
3.58426e-05
5.13778e-05
9.88381e-05
0.000160989
0.000212059
0.000243248
0.000253401
0.000243898
0.00022197
0.000200191
0.000189229
0.000192552
0.000206951
0.000226664
0.000246698
0.000262132
0.000269287
0.000267617
0.000258025
0.000240048
0.000211591
0.000171765
0.000125347
8.4499e-05
6.02534e-05
5.5933e-05
7.48887e-05
0.000116533
0.000124987
3.84593e-05
7.65342e-06
9.33302e-06
7.91346e-05
9.44171e-05
4.57874e-05
3.63083e-05
5.43138e-05
0.000101967
0.000153995
0.000190419
0.000212712
0.000226211
0.000236098
0.000245858
0.000254689
0.000258942
0.000258103
0.000256056
0.00025594
0.000257298
0.000257731
0.000255643
0.00025091
0.000243368
0.000231347
0.000211749
0.000181931
0.000142723
0.000101936
7.18187e-05
6.01213e-05
7.11704e-05
0.000110677
0.000133489
4.21786e-05
7.97148e-06
9.35976e-06
9.41312e-05
6.85194e-05
3.74449e-05
3.86892e-05
6.37017e-05
0.000111271
0.000157014
0.000191562
0.000219096
0.000241203
0.00025606
0.00026267
0.000263434
0.000262498
0.000262482
0.000263238
0.000262941
0.000259985
0.000254235
0.000246919
0.000239413
0.000231849
0.000222521
0.000208335
0.000186162
0.000154651
0.000117465
8.48742e-05
6.77506e-05
7.31096e-05
0.000109577
0.00014305
4.58037e-05
8.16176e-06
8.9796e-06
7.76064e-05
6.54647e-05
3.63695e-05
3.68884e-05
5.57728e-05
9.14775e-05
0.000134228
0.000170738
0.000197952
0.000217693
0.000232262
0.000243845
0.00025407
0.000263464
0.000271223
0.000275631
0.000274984
0.000268785
0.000258496
0.000246928
0.000236499
0.000227665
0.000218512
0.000205608
0.00018562
0.000156984
0.000122516
9.11337e-05
7.3712e-05
7.87653e-05
0.00011601
0.000151075
4.75532e-05
8.18421e-06
8.48163e-06
5.32517e-05
9.11596e-05
4.92811e-05
3.2096e-05
3.33788e-05
4.99407e-05
8.31843e-05
0.000123853
0.000160821
0.000191828
0.000218282
0.000241095
0.000260307
0.000275667
0.000286635
0.000292106
0.000290629
0.000281616
0.000266728
0.000249675
0.000234175
0.000221781
0.000211106
0.000198641
0.000180608
0.000154996
0.000124047
9.57383e-05
8.06164e-05
8.81499e-05
0.000127221
0.000156394
4.7774e-05
8.0844e-06
8.28943e-06
4.46312e-05
0.000102704
9.07769e-05
4.33354e-05
2.4339e-05
2.55837e-05
4.45566e-05
8.32451e-05
0.000132013
0.000177654
0.00021643
0.000248758
0.000274881
0.000294472
0.000307132
0.000312374
0.000309465
0.00029814
0.000279906
0.000258329
0.000237599
0.000220301
0.00020608
0.000191868
0.000173656
0.000149216
0.000121053
9.69585e-05
8.64945e-05
9.88519e-05
0.000139909
0.000160367
4.81467e-05
8.0777e-06
8.4676e-06
4.63476e-05
0.000113167
0.000121021
7.60309e-05
3.08179e-05
1.99005e-05
2.84055e-05
5.83081e-05
0.000110943
0.000170684
0.000223261
0.000265496
0.000297242
0.000318182
0.000328582
0.000329614
0.00032253
0.000308177
0.000287656
0.000263275
0.000238429
0.000216188
0.000197707
0.000181461
0.000163941
0.00014228
0.000118101
9.86788e-05
9.33585e-05
0.000111101
0.000152266
0.000160562
4.69301e-05
7.98758e-06
8.81477e-06
5.56331e-05
0.000126526
0.000104329
6.68944e-05
3.64696e-05
2.38367e-05
2.95803e-05
5.78602e-05
0.000109084
0.000167497
0.000219713
0.000261928
0.000292807
0.000311485
0.000318733
0.000317255
0.000309966
0.000298232
0.000281943
0.000261119
0.000237206
0.000212831
0.000190391
0.000170577
0.000151956
0.000132596
0.0001134
9.9918e-05
0.000100409
0.000122957
0.000161807
0.000160193
4.62226e-05
7.99802e-06
9.03217e-06
6.82482e-05
0.000115181
7.53729e-05
4.39188e-05
3.17893e-05
3.10817e-05
4.34738e-05
7.48764e-05
0.000116265
0.000156605
0.000193162
0.000224915
0.000249768
0.000265533
0.000272063
0.000271963
0.000268567
0.000263381
0.000255534
0.000243219
0.000225732
0.000204459
0.000182126
0.000161061
0.000141842
0.000124007
0.000108665
0.000100411
0.000106427
0.00013304
0.000168693
0.000157995
4.49282e-05
7.96505e-06
8.75843e-06
6.74893e-05
0.000110512
8.13268e-05
5.02298e-05
3.53983e-05
3.44775e-05
4.65119e-05
7.15942e-05
0.0001028
0.000133742
0.000162725
0.000189005
0.000210419
0.000224331
0.000230135
0.000230499
0.000229352
0.000228753
0.000227719
0.000223266
0.000212701
0.000195716
0.000174706
0.000153229
0.000133905
0.000117924
0.000106528
0.000103122
0.000113667
0.000142386
0.00017409
0.000157685
4.47646e-05
8.00233e-06
8.45263e-06
6.20642e-05
0.00012216
0.000120263
9.31385e-05
5.55634e-05
3.55131e-05
3.26985e-05
4.48203e-05
7.105e-05
0.000104528
0.000137065
0.000165606
0.000188435
0.000202746
0.000207306
0.000205336
0.000202575
0.000202706
0.000205428
0.000207194
0.00020362
0.000192345
0.000174396
0.000153285
0.000132831
0.000116021
0.00010539
0.000104343
0.000117822
0.000148068
0.000178012
0.000160289
4.59508e-05
8.15906e-06
8.41686e-06
6.1598e-05
0.000129578
0.00013752
0.00013096
0.000104047
6.01549e-05
3.54836e-05
3.08072e-05
4.2143e-05
6.99062e-05
0.000108205
0.000145952
0.000176258
0.000194926
0.000199559
0.000193783
0.000186165
0.00018334
0.00018637
0.000191472
0.000192802
0.000186245
0.000171806
0.000152861
0.00013357
0.000117511
0.000107903
0.000108615
0.00012437
0.000155653
0.000183189
0.000161395
4.64209e-05
8.21191e-06
8.51385e-06
6.56118e-05
0.000134027
0.000135668
0.000131083
0.000127433
0.000108267
6.42836e-05
3.72017e-05
3.24673e-05
4.57965e-05
7.71419e-05
0.000119497
0.000159424
0.000186337
0.000194403
0.000186222
0.000173193
0.000165916
0.000167644
0.000175023
0.000180873
0.000178775
0.000167289
0.000149932
0.000131742
0.000116986
0.000109146
0.000112114
0.000130262
0.000162441
0.000188095
0.000164029
4.6964e-05
8.3096e-06
8.4914e-06