/*--------------------------------*- C++ -*----------------------------------*\
| =========                 |                                                 |
| \\      /  F ield         | OpenFOAM: The Open Source CFD Toolbox           |
|  \\    /   O peration     | Version:  v2006                                 |
|   \\  /    A nd           | Website:  www.openfoam.com                      |
|    \\/     M anipulation  |                                                 |
\*---------------------------------------------------------------------------*/
FoamFile
{
    version     2.0;
    format      ascii;
    class       volScalarField;
    location    "53";
    object      alphat;
}
// * * * * * * * * * * * * * * * * * * * * * * * * * * * * * * * * * * * * * //

dimensions      [1 -1 -1 0 0 0 0];


internalField   nonuniform List<scalar> 
78750
(
3.46288e-09
4.8356e-07
7.68817e-07
9.82964e-07
1.15113e-06
1.28248e-06
1.38045e-06
1.44667e-06
1.48282e-06
1.4909e-06
1.47314e-06
1.4319e-06
1.36972e-06
1.28931e-06
1.19373e-06
1.08649e-06
9.72075e-07
8.51799e-07
7.308e-07
6.14067e-07
5.06761e-07
4.13841e-07
3.39209e-07
2.84625e-07
2.49062e-07
2.29096e-07
2.20263e-07
2.18534e-07
2.21006e-07
2.25524e-07
2.2925e-07
2.26236e-07
2.06185e-07
1.64446e-07
5.02183e-09
2.11255e-09
2.09451e-06
3.94823e-06
6.6461e-06
9.06681e-06
1.0528e-05
1.16731e-05
1.25061e-05
1.30426e-05
1.33043e-05
1.3315e-05
1.30993e-05
1.2682e-05
1.20887e-05
1.13456e-05
1.04804e-05
9.5239e-06
8.50452e-06
7.46011e-06
6.42444e-06
5.42328e-06
4.47956e-06
3.61406e-06
2.84536e-06
2.18725e-06
1.64914e-06
1.23381e-06
9.36192e-07
7.45703e-07
6.53162e-07
4.56803e-07
3.59693e-07
4.81289e-07
9.44363e-07
1.97848e-08
2.64366e-09
2.50281e-06
5.10997e-06
8.12699e-06
1.03965e-05
1.22961e-05
1.39067e-05
1.52255e-05
1.62558e-05
1.7005e-05
1.74829e-05
1.77012e-05
1.76732e-05
1.74131e-05
1.69364e-05
1.56145e-05
1.40699e-05
1.289e-05
1.20769e-05
1.15765e-05
1.06395e-05
9.36453e-06
8.10486e-06
6.88273e-06
5.72062e-06
4.64067e-06
3.66256e-06
2.80342e-06
2.08503e-06
1.16411e-06
6.05261e-07
5.00555e-07
8.81842e-07
1.14732e-06
3.24079e-08
4.39596e-09
2.01786e-06
4.35808e-06
7.27743e-06
1.09889e-05
1.54331e-05
1.74012e-05
1.8857e-05
2.00004e-05
2.08526e-05
2.14341e-05
2.17647e-05
2.18638e-05
2.17499e-05
2.10041e-05
1.9116e-05
1.73556e-05
1.5861e-05
1.46506e-05
1.37286e-05
1.31068e-05
1.28141e-05
1.27751e-05
1.18527e-05
1.04809e-05
9.09861e-06
7.71721e-06
6.3602e-06
4.43996e-06
2.27793e-06
1.19592e-06
8.97341e-07
1.52905e-06
1.22412e-06
4.43143e-08
6.44647e-09
2.16603e-06
4.81194e-06
8.2909e-06
1.27997e-05
1.81206e-05
2.12368e-05
2.27098e-05
2.38215e-05
2.46065e-05
2.50958e-05
2.53175e-05
2.52982e-05
2.5063e-05
2.32524e-05
2.09613e-05
1.88899e-05
1.71116e-05
1.56169e-05
1.43889e-05
1.34271e-05
1.27439e-05
1.23373e-05
1.2146e-05
1.19912e-05
1.15147e-05
1.0255e-05
8.0255e-06
5.30224e-06
3.05081e-06
1.79324e-06
1.44096e-06
2.55906e-06
1.28884e-06
5.66012e-08
9.00692e-09
2.10556e-06
4.74095e-06
8.39521e-06
1.33214e-05
1.92293e-05
2.43968e-05
2.58456e-05
2.69192e-05
2.76581e-05
2.80962e-05
2.8264e-05
2.81889e-05
2.61859e-05
2.36549e-05
2.12624e-05
1.91259e-05
1.7265e-05
1.56619e-05
1.42935e-05
1.31539e-05
1.22577e-05
1.16174e-05
1.12084e-05
1.09218e-05
1.05e-05
9.54704e-06
7.78889e-06
5.50392e-06
3.48172e-06
2.26722e-06
1.98944e-06
3.66797e-06
1.37655e-06
6.82567e-08
1.17973e-08
2.12093e-06
4.86186e-06
8.87903e-06
1.45407e-05
2.13431e-05
2.72117e-05
2.86154e-05
2.96207e-05
3.02738e-05
3.06136e-05
3.06742e-05
2.93356e-05
2.65254e-05
2.37166e-05
2.1171e-05
1.8951e-05
1.70391e-05
1.53894e-05
1.39609e-05
1.27368e-05
1.17311e-05
1.09658e-05
1.04239e-05
1.00145e-05
9.53584e-06
8.67999e-06
7.22158e-06
5.35355e-06
3.66831e-06
2.63938e-06
2.56767e-06
4.76399e-06
1.45287e-06
7.92809e-08
1.5067e-08
2.13607e-06
4.96656e-06
9.29761e-06
1.55927e-05
2.30996e-05
2.95931e-05
3.11446e-05
3.20929e-05
3.2681e-05
3.29502e-05
3.21695e-05
2.92513e-05
2.61445e-05
2.32428e-05
2.06876e-05
1.84939e-05
1.66139e-05
1.49854e-05
1.35574e-05
1.23056e-05
1.12397e-05
1.03863e-05
9.73591e-06
9.21069e-06
8.64794e-06
7.81642e-06
6.56168e-06
5.03839e-06
3.68352e-06
2.88992e-06
3.08644e-06
5.5491e-06
1.52491e-06
8.90877e-08
1.81749e-08
2.16714e-06
5.09209e-06
9.71191e-06
1.65886e-05
2.47233e-05
3.1453e-05
3.33192e-05
3.42296e-05
3.47722e-05
3.49051e-05
3.2107e-05
2.88161e-05
2.55762e-05
2.26531e-05
2.0135e-05
1.7998e-05
1.61742e-05
1.45914e-05
1.31919e-05
1.1946e-05
1.08621e-05
9.96791e-06
9.2514e-06
8.63795e-06
7.99239e-06
7.1472e-06
6.01784e-06
4.74786e-06
3.6662e-06
3.10391e-06
3.59861e-06
6.02289e-06
1.58614e-06
9.80767e-08
2.14722e-08
2.19485e-06
5.18951e-06
1.00317e-05
1.73568e-05
2.59154e-05
3.27032e-05
3.53861e-05
3.62653e-05
3.67725e-05
3.48586e-05
3.17502e-05
2.83343e-05
2.50593e-05
2.2156e-05
1.96796e-05
1.75892e-05
1.581e-05
1.42659e-05
1.28962e-05
1.16671e-05
1.05809e-05
9.66264e-06
8.89636e-06
8.20797e-06
7.48516e-06
6.61409e-06
5.56759e-06
4.48498e-06
3.62195e-06
3.26896e-06
4.0561e-06
6.27235e-06
1.6411e-06
1.06396e-07
2.45161e-08
2.22061e-06
5.26922e-06
1.02813e-05
1.79558e-05
2.68416e-05
3.36551e-05
3.72041e-05
3.80659e-05
3.7216e-05
3.47223e-05
3.14271e-05
2.79273e-05
2.46399e-05
2.1759e-05
1.93138e-05
1.72513e-05
1.54951e-05
1.39707e-05
1.26186e-05
1.14046e-05
1.03288e-05
9.41287e-06
8.63013e-06
7.90033e-06
7.12581e-06
6.23448e-06
5.24466e-06
4.2969e-06
3.6018e-06
3.43054e-06
4.50047e-06
6.37782e-06
1.68862e-06
1.14301e-07
2.7733e-08
2.24409e-06
5.33581e-06
1.04918e-05
1.84587e-05
2.75707e-05
3.43143e-05
3.77271e-05
3.84558e-05
3.71655e-05
3.44978e-05
3.1112e-05
2.75938e-05
2.43291e-05
2.14825e-05
1.90664e-05
1.70231e-05
1.52772e-05
1.37572e-05
1.2407e-05
1.11938e-05
1.01173e-05
9.19879e-06
8.40436e-06
7.64731e-06
6.83946e-06
5.93885e-06
4.99584e-06
4.1518e-06
3.58964e-06
3.57563e-06
4.90809e-06
6.41787e-06
1.73115e-06
1.21823e-07
3.08193e-08
2.26537e-06
5.39454e-06
1.06745e-05
1.88887e-05
2.81809e-05
3.48584e-05
3.80762e-05
3.85799e-05
3.70876e-05
3.42772e-05
3.08266e-05
2.7308e-05
2.40744e-05
2.12629e-05
1.88722e-05
1.68407e-05
1.50948e-05
1.35673e-05
1.2207e-05
1.09852e-05
9.90467e-06
8.98889e-06
8.19642e-06
7.43297e-06
6.61478e-06
5.71994e-06
4.8204e-06
4.05878e-06
3.60335e-06
3.72759e-06
5.3085e-06
6.41134e-06
1.76846e-06
1.28985e-07
3.41125e-08
2.2874e-06
5.45471e-06
1.08609e-05
1.93155e-05
2.87406e-05
3.52965e-05
3.82988e-05
3.85889e-05
3.6929e-05
3.40252e-05
3.05582e-05
2.70747e-05
2.38936e-05
2.11281e-05
1.87661e-05
1.67447e-05
1.49928e-05
1.3448e-05
1.20642e-05
1.08177e-05
9.71587e-06
8.78782e-06
7.99044e-06
7.22486e-06
6.40977e-06
5.53446e-06
4.68164e-06
3.99243e-06
3.62772e-06
3.87575e-06
5.68777e-06
6.38799e-06
1.80195e-06
1.35755e-07
3.73608e-08
2.30844e-06
5.51324e-06
1.10398e-05
1.9713e-05
2.92399e-05
3.56702e-05
3.84721e-05
3.85673e-05
3.67586e-05
3.37785e-05
3.03082e-05
2.68677e-05
2.37435e-05
2.10262e-05
1.8694e-05
1.66826e-05
1.49234e-05
1.3358e-05
1.19458e-05
1.06685e-05
9.53948e-06
8.5951e-06
7.79232e-06
7.02974e-06
6.22785e-06
5.38187e-06
4.5783e-06
3.95493e-06
3.67015e-06
4.03271e-06
6.06402e-06
6.34906e-06
1.83176e-06
1.42136e-07
4.07988e-08
2.33111e-06
5.57672e-06
1.12313e-05
2.01258e-05
2.97241e-05
3.59935e-05
3.85829e-05
3.84932e-05
3.65618e-05
3.35382e-05
3.00934e-05
2.67159e-05
2.36597e-05
2.09958e-05
1.8695e-05
1.66924e-05
1.49223e-05
1.33304e-05
1.18812e-05
1.05622e-05
9.39255e-06
8.41759e-06
7.5991e-06
6.83614e-06
6.05124e-06
5.24135e-06
4.49052e-06
3.93053e-06
3.71948e-06
4.18969e-06
6.42632e-06
6.30867e-06
1.85898e-06
1.48135e-07
4.4216e-08
2.35311e-06
5.63959e-06
1.14194e-05
2.05202e-05
3.01677e-05
3.62759e-05
3.86662e-05
3.84074e-05
3.63688e-05
3.33147e-05
2.99038e-05
2.65934e-05
2.36071e-05
2.09979e-05
1.87296e-05
1.6737e-05
1.49566e-05
1.33374e-05
1.18491e-05
1.04846e-05
9.26985e-06
8.25895e-06
7.42023e-06
6.65482e-06
5.88797e-06
5.11671e-06
4.41951e-06
3.92073e-06
3.77945e-06
4.35362e-06
6.78471e-06
6.26488e-06
1.88371e-06
1.53781e-07
4.77795e-08
2.37635e-06
5.70615e-06
1.16166e-05
2.09244e-05
3.05992e-05
3.6529e-05
3.87206e-05
3.83072e-05
3.61847e-05
3.31239e-05
2.97651e-05
2.65324e-05
2.36208e-05
2.10676e-05
1.88313e-05
1.6847e-05
1.50531e-05
1.34018e-05
1.18677e-05
1.04493e-05
9.17912e-06
8.1207e-06
7.25264e-06
6.47968e-06
5.7298e-06
4.99818e-06
4.35514e-06
3.91636e-06
3.84242e-06
4.51749e-06
7.13045e-06
6.22602e-06
1.90685e-06
1.59111e-07
5.13227e-08
2.39889e-06
5.77182e-06
1.18107e-05
2.13143e-05
3.10019e-05
3.67584e-05
3.87652e-05
3.82119e-05
3.60183e-05
3.29597e-05
2.96573e-05
2.65035e-05
2.36671e-05
2.11711e-05
1.89688e-05
1.69946e-05
1.51886e-05
1.35059e-05
1.19247e-05
1.04494e-05
9.11917e-06
8.00702e-06
7.10372e-06
6.31864e-06
5.58291e-06
4.88938e-06
4.29923e-06
3.91888e-06
3.91063e-06
4.68515e-06
7.46876e-06
6.18883e-06
1.92834e-06
1.64157e-07
5.4973e-08
2.42216e-06
5.83965e-06
1.201e-05
2.17078e-05
3.13936e-05
3.69715e-05
3.88012e-05
3.81238e-05
3.5878e-05
3.28379e-05
2.9602e-05
2.65319e-05
2.37722e-05
2.13335e-05
1.91647e-05
1.71996e-05
1.53792e-05
1.36617e-05
1.20288e-05
1.04901e-05
9.09186e-06
7.91654e-06
6.97036e-06
6.16792e-06
5.44306e-06
4.78543e-06
4.24638e-06
3.92287e-06
3.979e-06
4.8514e-06
7.79379e-06
6.15873e-06
1.94893e-06
1.68954e-07
5.85988e-08
2.4447e-06
5.90633e-06
1.22063e-05
2.20898e-05
3.17654e-05
3.71728e-05
3.88388e-05
3.80494e-05
3.57605e-05
3.27436e-05
2.95751e-05
2.65883e-05
2.39058e-05
2.15266e-05
1.93949e-05
1.74426e-05
1.56113e-05
1.38605e-05
1.21754e-05
1.05703e-05
9.09874e-06
7.85326e-06
6.8576e-06
6.03231e-06
5.314e-06
4.68886e-06
4.19823e-06
3.9297e-06
4.04919e-06
5.01889e-06
8.10933e-06
6.13294e-06
1.96856e-06
1.73529e-07
6.23068e-08
2.46768e-06
5.97434e-06
1.24058e-05
2.2473e-05
3.21287e-05
3.73668e-05
3.8879e-05
3.79915e-05
3.56728e-05
3.26882e-05
2.95915e-05
2.66889e-05
2.40838e-05
2.17648e-05
1.96713e-05
1.77333e-05
1.58919e-05
1.41071e-05
1.23671e-05
1.06913e-05
9.14037e-06
7.81672e-06
6.76449e-06
5.91064e-06
5.1941e-06
4.59731e-06
4.15176e-06
3.93589e-06
4.11728e-06
5.18277e-06
8.41016e-06
6.11333e-06
1.98747e-06
1.77904e-07
6.5987e-08
2.48992e-06
6.04109e-06
1.26026e-05
2.28472e-05
3.24787e-05
3.75566e-05
3.89264e-05
3.79499e-05
3.56065e-05
3.2655e-05
2.96283e-05
2.68089e-05
2.42821e-05
2.20268e-05
1.99768e-05
1.80594e-05
1.62133e-05
1.43979e-05
1.26032e-05
1.08541e-05
9.21858e-06
7.80994e-06
6.69436e-06
5.80602e-06
5.08599e-06
4.51291e-06
4.10875e-06
3.94316e-06
4.18547e-06
5.34642e-06
8.7013e-06
6.09971e-06
2.00614e-06
1.82104e-07
6.97347e-08
2.51244e-06
6.10871e-06
1.28021e-05
2.32229e-05
3.28245e-05
3.7746e-05
3.89826e-05
3.7927e-05
3.55662e-05
3.2651e-05
2.96944e-05
2.69569e-05
2.45083e-05
2.23182e-05
2.0315e-05
1.84223e-05
1.65757e-05
1.47322e-05
1.28833e-05
1.10586e-05
9.33423e-06
7.83408e-06
6.64826e-06
5.71911e-06
4.98964e-06
4.43474e-06
4.06739e-06
3.94891e-06
4.25018e-06
5.50519e-06
8.98068e-06
6.0912e-06
2.02402e-06
1.86138e-07
7.34521e-08
2.5341e-06
6.17476e-06
1.2999e-05
2.35925e-05
3.31631e-05
3.79371e-05
3.90496e-05
3.79201e-05
3.55426e-05
3.2661e-05
2.97708e-05
2.71135e-05
2.47442e-05
2.26234e-05
2.06737e-05
1.88134e-05
1.69736e-05
1.51076e-05
1.32069e-05
1.13055e-05
9.48841e-06
7.89118e-06
6.62854e-06
5.65235e-06
4.90745e-06
4.36506e-06
4.02981e-06
3.95524e-06
4.31403e-06
5.6637e-06
9.25716e-06
6.09302e-06
2.0422e-06
1.90032e-07
7.72264e-08
2.55575e-06
6.24104e-06
1.31981e-05
2.39661e-05
3.35048e-05
3.81364e-05
3.91308e-05
3.79316e-05
3.55384e-05
3.26886e-05
2.98622e-05
2.72829e-05
2.49926e-05
2.29431e-05
2.10511e-05
1.92294e-05
1.74031e-05
1.55209e-05
1.35724e-05
1.1595e-05
9.68266e-06
7.98376e-06
6.63754e-06
5.60746e-06
4.84031e-06
4.30391e-06
3.99519e-06
3.96058e-06
4.37476e-06
5.81874e-06
9.52641e-06
6.10347e-06
2.06079e-06
1.93805e-07
8.09702e-08
2.57633e-06
6.30509e-06
1.33942e-05
2.43367e-05
3.38492e-05
3.83487e-05
3.92287e-05
3.79572e-05
3.55436e-05
3.27207e-05
2.99542e-05
2.74512e-05
2.52408e-05
2.32663e-05
2.14382e-05
1.96628e-05
1.78585e-05
1.59674e-05
1.39762e-05
1.19248e-05
9.91615e-06
8.11253e-06
6.67685e-06
5.58658e-06
4.79063e-06
4.25376e-06
3.966e-06
3.9674e-06
4.4348e-06
5.9724e-06
9.79077e-06
6.12049e-06
2.07978e-06
1.97464e-07
8.47633e-08
2.59662e-06
6.36854e-06
1.35905e-05
2.47076e-05
3.41924e-05
3.85602e-05
3.93348e-05
3.79924e-05
3.55571e-05
3.27591e-05
3.00501e-05
2.76213e-05
2.549e-05
2.3592e-05
2.18315e-05
2.01087e-05
1.83343e-05
1.64427e-05
1.44157e-05
1.22943e-05
1.01898e-05
8.27911e-06
6.74827e-06
5.59133e-06
4.75963e-06
4.21528e-06
3.94224e-06
3.97498e-06
4.49319e-06
6.12528e-06
1.00485e-05
6.14389e-06
2.09912e-06
2.01026e-07
8.85284e-08
2.61585e-06
6.42967e-06
1.37834e-05
2.50715e-05
3.45123e-05
3.87519e-05
3.94268e-05
3.80285e-05
3.55718e-05
3.27954e-05
3.01409e-05
2.77845e-05
2.57322e-05
2.39127e-05
2.22243e-05
2.05605e-05
1.88239e-05
1.69401e-05
1.48844e-05
1.26977e-05
1.04993e-05
8.48111e-06
6.85124e-06
5.62246e-06
4.74891e-06
4.19054e-06
3.9262e-06
3.98574e-06
4.55256e-06
6.27964e-06
1.03025e-05
6.17208e-06
2.11866e-06
2.04494e-07
9.23362e-08
2.63473e-06
6.48981e-06
1.39737e-05
2.54267e-05
3.48184e-05
3.89313e-05
3.95094e-05
3.80573e-05
3.55839e-05
3.28306e-05
3.02293e-05
2.79429e-05
2.59682e-05
2.42274e-05
2.26136e-05
2.10139e-05
1.93223e-05
1.74548e-05
1.53787e-05
1.31329e-05
1.08439e-05
8.71861e-06
6.9864e-06
5.68087e-06
4.75947e-06
4.18048e-06
3.91857e-06
4.00001e-06
4.61247e-06
6.43338e-06
1.05529e-05
6.20572e-06
2.13851e-06
2.07883e-07
9.61264e-08
2.65292e-06
6.54886e-06
1.41617e-05
2.577e-05
3.51056e-05
3.9094e-05
3.95784e-05
3.80766e-05
3.55966e-05
3.28638e-05
3.03106e-05
2.80913e-05
2.61929e-05
2.45313e-05
2.29945e-05
2.14632e-05
1.9823e-05
1.79793e-05
1.58906e-05
1.35921e-05
1.12167e-05
8.98641e-06
7.15072e-06
5.76564e-06
4.79187e-06
4.18667e-06
3.9215e-06
4.02012e-06
4.6752e-06
6.5887e-06
1.08017e-05
6.24324e-06
2.15853e-06
2.11191e-07
9.99581e-08
2.67088e-06
6.60842e-06
1.43534e-05
2.61076e-05
3.53792e-05
3.92423e-05
3.96343e-05
3.8084e-05
3.55986e-05
3.28877e-05
3.03834e-05
2.82307e-05
2.64076e-05
2.48248e-05
2.33659e-05
2.1906e-05
2.03224e-05
1.85097e-05
1.64161e-05
1.40721e-05
1.16155e-05
9.28265e-06
7.34322e-06
5.87629e-06
4.84613e-06
4.20951e-06
3.93561e-06
4.04668e-06
4.74108e-06
6.74544e-06
1.10497e-05
6.28543e-06
2.17885e-06
2.14428e-07
1.03772e-07
2.68777e-06
6.66615e-06
1.45435e-05
2.64329e-05
3.56338e-05
3.93723e-05
3.96744e-05
3.80784e-05
3.55906e-05
3.2904e-05
3.04485e-05
2.83603e-05
2.66104e-05
2.51052e-05
2.37246e-05
2.23384e-05
2.08154e-05
1.90393e-05
1.69476e-05
1.4565e-05
1.20328e-05
9.6017e-06
7.56054e-06
6.01128e-06
4.9221e-06
4.2499e-06
3.96241e-06
4.0814e-06
4.81177e-06
6.90537e-06
1.12977e-05
6.33042e-06
2.19926e-06
2.17589e-07
1.07618e-07
2.70408e-06
6.72261e-06
1.47317e-05
2.6752e-05
3.58743e-05
3.94868e-05
3.97e-05
3.80604e-05
3.55724e-05
3.2914e-05
3.05065e-05
2.84802e-05
2.68012e-05
2.53724e-05
2.407e-05
2.27587e-05
2.12994e-05
1.95648e-05
1.74813e-05
1.50666e-05
1.24651e-05
9.94039e-06
7.80032e-06
6.16905e-06
5.01896e-06
4.30776e-06
4.00256e-06
4.12551e-06
4.88883e-06
7.07005e-06
1.15478e-05
6.37898e-06
2.21987e-06
2.20679e-07
1.11458e-07
2.71993e-06
6.77866e-06
1.49193e-05
2.70632e-05
3.60986e-05
3.95838e-05
3.97085e-05
3.80263e-05
3.55402e-05
3.29168e-05
3.05562e-05
2.85889e-05
2.6979e-05
2.56254e-05
2.44008e-05
2.31648e-05
2.17708e-05
2.00811e-05
1.80106e-05
1.55699e-05
1.29052e-05
1.02929e-05
8.05862e-06
6.34717e-06
5.13567e-06
4.383e-06
4.05653e-06
4.17978e-06
4.97335e-06
7.24113e-06
1.18003e-05
6.42969e-06
2.24054e-06
2.2369e-07
1.1531e-07
2.73539e-06
6.8343e-06
1.51077e-05
2.73704e-05
3.6309e-05
3.96636e-05
3.97003e-05
3.79773e-05
3.54952e-05
3.2908e-05
3.05956e-05
2.86877e-05
2.71464e-05
2.5867e-05
2.47189e-05
2.35574e-05
2.22291e-05
2.05861e-05
1.85323e-05
1.60707e-05
1.3349e-05
1.06553e-05
8.33217e-06
6.54341e-06
5.27092e-06
4.47528e-06
4.12487e-06
4.24547e-06
5.06688e-06
7.42025e-06
1.20567e-05
6.48295e-06
2.26131e-06
2.26625e-07
1.19132e-07
2.75039e-06
6.88916e-06
1.52935e-05
2.76668e-05
3.65035e-05
3.97258e-05
3.96732e-05
3.79104e-05
3.54333e-05
3.2882e-05
3.06188e-05
2.87724e-05
2.73021e-05
2.60973e-05
2.50242e-05
2.39357e-05
2.26723e-05
2.10764e-05
1.90414e-05
1.65629e-05
1.37899e-05
1.10216e-05
8.61659e-06
6.75481e-06
5.42296e-06
4.58383e-06
4.20757e-06
4.32319e-06
5.17111e-06
7.60969e-06
1.23181e-05
6.53809e-06
2.28213e-06
2.29474e-07
1.22974e-07
2.76526e-06
6.94455e-06
1.54834e-05
2.79656e-05
3.6688e-05
3.97739e-05
3.9632e-05
3.78302e-05
3.53598e-05
3.28473e-05
3.06358e-05
2.885e-05
2.74448e-05
2.63105e-05
2.53131e-05
2.42976e-05
2.3098e-05
2.15492e-05
1.95346e-05
1.70426e-05
1.42238e-05
1.13878e-05
8.90827e-06
6.97853e-06
5.58986e-06
4.70756e-06
4.30432e-06
4.41368e-06
5.28827e-06
7.81061e-06
1.25848e-05
6.59508e-06
2.30299e-06
2.32237e-07
1.26792e-07
2.78003e-06
7.00072e-06
1.56748e-05
2.82562e-05
3.6855e-05
3.98018e-05
3.95696e-05
3.77296e-05
3.52678e-05
3.27961e-05
3.06386e-05
2.89161e-05
2.75799e-05
2.65161e-05
2.55875e-05
2.46413e-05
2.35049e-05
2.20027e-05
2.00089e-05
1.75061e-05
1.46462e-05
1.17496e-05
9.20333e-06
7.2115e-06
5.76958e-06
4.84566e-06
4.41548e-06
4.51805e-06
5.41941e-06
8.02583e-06
1.2858e-05
6.65364e-06
2.32389e-06
2.34906e-07
1.30617e-07
2.79513e-06
7.05851e-06
1.58686e-05
2.85415e-05
3.70066e-05
3.98108e-05
3.94875e-05
3.76098e-05
3.5158e-05
3.27293e-05
3.06282e-05
2.89705e-05
2.77036e-05
2.67106e-05
2.58519e-05
2.49709e-05
2.3893e-05
2.24354e-05
2.04623e-05
1.79505e-05
1.50543e-05
1.21039e-05
9.49892e-06
7.45097e-06
5.95966e-06
4.99622e-06
4.53998e-06
4.63604e-06
5.56484e-06
8.25652e-06
1.3138e-05
6.71397e-06
2.34483e-06
2.37485e-07
1.34405e-07
2.81027e-06
7.11798e-06
1.60612e-05
2.88155e-05
3.71384e-05
3.97976e-05
3.93822e-05
3.74673e-05
3.50272e-05
3.26436e-05
3.06021e-05
2.90117e-05
2.78154e-05
2.68932e-05
2.61035e-05
2.52869e-05
2.42639e-05
2.28466e-05
2.08929e-05
1.83736e-05
1.54453e-05
1.2448e-05
9.79274e-06
7.69508e-06
6.15863e-06
5.15813e-06
4.67702e-06
4.76736e-06
5.72499e-06
8.50408e-06
1.34251e-05
6.77591e-06
2.36587e-06
2.39968e-07
1.38178e-07
2.82507e-06
7.17759e-06
1.62528e-05
2.90795e-05
3.72512e-05
3.97626e-05
3.92543e-05
3.73024e-05
3.4875e-05
3.25383e-05
3.0559e-05
2.90382e-05
2.79139e-05
2.70628e-05
2.63411e-05
2.55871e-05
2.4617e-05
2.32366e-05
2.12987e-05
1.87726e-05
1.58166e-05
1.27796e-05
1.00824e-05
7.94176e-06
6.36489e-06
5.33038e-06
4.82615e-06
4.91187e-06
5.90003e-06
8.76897e-06
1.37183e-05
6.83931e-06
2.38694e-06
2.42357e-07
1.41882e-07
2.83887e-06
7.23498e-06
1.64402e-05
2.93291e-05
3.73425e-05
3.97045e-05
3.91021e-05
3.7113e-05
3.46989e-05
3.24108e-05
3.04965e-05
2.90478e-05
2.79972e-05
2.72179e-05
2.6564e-05
2.5871e-05
2.49512e-05
2.36052e-05
2.16807e-05
1.91466e-05
1.61664e-05
1.30965e-05
1.0366e-05
8.18886e-06
6.57637e-06
5.51131e-06
4.98639e-06
5.06945e-06
6.0906e-06
9.05242e-06
1.40182e-05
6.9043e-06
2.40819e-06
2.44652e-07
1.4553e-07
2.85231e-06
7.29152e-06
1.66246e-05
2.95658e-05
3.74143e-05
3.96247e-05
3.89269e-05
3.69001e-05
3.44995e-05
3.2261e-05
3.04148e-05
2.90397e-05
2.80637e-05
2.7357e-05
2.67705e-05
2.61369e-05
2.5265e-05
2.39505e-05
2.20377e-05
1.94955e-05
1.64941e-05
1.33984e-05
1.06427e-05
8.43564e-06
6.79204e-06
5.69966e-06
5.1566e-06
5.23927e-06
6.29633e-06
9.35423e-06
1.4323e-05
6.97065e-06
2.42943e-06
2.46851e-07
1.49084e-07
2.86469e-06
7.34538e-06
1.68026e-05
2.97858e-05
3.74644e-05
3.95224e-05
3.87284e-05
3.66634e-05
3.42765e-05
3.20879e-05
3.03105e-05
2.9011e-05
2.81119e-05
2.7479e-05
2.696e-05
2.63845e-05
2.55577e-05
2.42714e-05
2.23678e-05
1.98177e-05
1.67983e-05
1.3684e-05
1.0912e-05
8.68167e-06
7.01162e-06
5.89502e-06
5.33613e-06
5.42077e-06
6.51713e-06
9.67476e-06
1.46317e-05
7.03792e-06
2.45078e-06
2.4895e-07
1.52556e-07
2.87657e-06
7.39788e-06
1.69763e-05
2.9992e-05
3.74959e-05
3.94002e-05
3.85087e-05
3.6405e-05
3.40315e-05
3.18931e-05
3.01852e-05
2.89627e-05
2.81415e-05
2.75828e-05
2.7131e-05
2.66123e-05
2.58282e-05
2.45673e-05
2.26706e-05
2.01128e-05
1.70789e-05
1.39516e-05
1.11725e-05
8.92624e-06
7.23485e-06
6.09736e-06
5.52493e-06
5.61385e-06
6.75311e-06
1.00142e-05
1.49442e-05
7.10662e-06
2.47271e-06
2.50958e-07
1.55916e-07
2.88749e-06
7.44761e-06
1.71427e-05
3.01808e-05
3.75067e-05
3.92571e-05
3.82677e-05
3.61248e-05
3.37648e-05
3.16767e-05
3.00387e-05
2.88941e-05
2.81517e-05
2.76676e-05
2.72823e-05
2.68187e-05
2.60747e-05
2.48361e-05
2.29443e-05
2.03791e-05
1.73346e-05
1.42016e-05
1.14228e-05
9.16786e-06
7.46073e-06
6.30623e-06
5.72295e-06
5.8186e-06
7.00436e-06
1.03724e-05
1.52589e-05
7.1764e-06
2.49487e-06
2.5288e-07
1.5917e-07
2.89778e-06
7.49554e-06
1.73038e-05
3.03554e-05
3.75003e-05
3.9096e-05
3.80078e-05
3.58255e-05
3.34789e-05
3.14411e-05
2.9873e-05
2.88069e-05
2.81435e-05
2.77337e-05
2.7414e-05
2.70037e-05
2.62971e-05
2.5078e-05
2.3189e-05
2.06168e-05
1.75654e-05
1.44335e-05
1.1663e-05
9.4057e-06
7.6881e-06
6.52073e-06
5.92977e-06
6.03513e-06
7.2714e-06
1.07495e-05
1.55756e-05
7.24761e-06
2.51724e-06
2.54731e-07
1.62298e-07
2.90721e-06
7.54086e-06
1.74578e-05
3.05139e-05
3.74753e-05
3.89163e-05
3.77289e-05
3.55073e-05
3.31745e-05
3.11872e-05
2.96891e-05
2.87015e-05
2.81169e-05
2.77806e-05
2.75253e-05
2.71663e-05
2.64947e-05
2.52923e-05
2.34047e-05
2.08264e-05
1.77723e-05
1.46481e-05
1.18926e-05
9.63887e-06
7.91587e-06
6.7398e-06
6.14456e-06
6.26285e-06
7.55367e-06
1.11442e-05
1.58923e-05
7.32003e-06
2.53975e-06
2.56527e-07
1.65307e-07
2.91597e-06
7.58415e-06
1.7606e-05
3.06585e-05
3.74344e-05
3.87202e-05
3.74335e-05
3.51729e-05
3.28545e-05
3.0918e-05
2.949e-05
2.85809e-05
2.80745e-05
2.78104e-05
2.76177e-05
2.73078e-05
2.66684e-05
2.54803e-05
2.35928e-05
2.10098e-05
1.79573e-05
1.48475e-05
1.21123e-05
9.86681e-06
8.14271e-06
6.96205e-06
6.36634e-06
6.50138e-06
7.85128e-06
1.15563e-05
1.62088e-05
7.39404e-06
2.56248e-06
2.58291e-07
1.68191e-07
2.92398e-06
7.62519e-06
1.77479e-05
3.07886e-05
3.73766e-05
3.8507e-05
3.71211e-05
3.48224e-05
3.25194e-05
3.0634e-05
2.9277e-05
2.84462e-05
2.80167e-05
2.78236e-05
2.76918e-05
2.74289e-05
2.68193e-05
2.56433e-05
2.37552e-05
2.11696e-05
1.81239e-05
1.50355e-05
1.23242e-05
1.00902e-05
8.36838e-06
7.18641e-06
6.59359e-06
6.74903e-06
8.16242e-06
1.19833e-05
1.65231e-05
7.46933e-06
2.58537e-06
2.60036e-07
1.7096e-07
2.93137e-06
7.6644e-06
1.78848e-05
3.09059e-05
3.73039e-05
3.82786e-05
3.67937e-05
3.44581e-05
3.21716e-05
3.03377e-05
2.90522e-05
2.82991e-05
2.79454e-05
2.78218e-05
2.7749e-05
2.75307e-05
2.69482e-05
2.57823e-05
2.38933e-05
2.13076e-05
1.82746e-05
1.52152e-05
1.25301e-05
1.03096e-05
8.59255e-06
7.41224e-06
6.82575e-06
7.00553e-06
8.48689e-06
1.24242e-05
1.68347e-05
7.54577e-06
2.60843e-06
2.61773e-07
1.7361e-07
2.93813e-06
7.70167e-06
1.80161e-05
3.10101e-05
3.72157e-05
3.80341e-05
3.64508e-05
3.40799e-05
3.18115e-05
3.003e-05
2.88164e-05
2.81407e-05
2.78621e-05
2.78066e-05
2.77911e-05
2.76151e-05
2.70574e-05
2.58994e-05
2.40093e-05
2.1426e-05
1.84111e-05
1.53876e-05
1.27309e-05
1.05257e-05
8.81534e-06
7.63894e-06
7.06112e-06
7.26862e-06
8.82253e-06
1.28767e-05
1.71424e-05
7.62324e-06
2.63166e-06
2.63509e-07
1.76154e-07
2.94437e-06
7.73743e-06
1.81432e-05
3.11032e-05
3.71139e-05
3.77753e-05
3.6094e-05
3.36896e-05
3.14412e-05
2.97133e-05
2.8572e-05
2.79732e-05
2.77684e-05
2.77794e-05
2.7819e-05
2.76832e-05
2.71478e-05
2.59963e-05
2.41048e-05
2.15263e-05
1.85342e-05
1.55523e-05
1.29266e-05
1.07387e-05
9.03689e-06
7.8665e-06
7.30045e-06
7.54039e-06
9.16861e-06
1.33387e-05
1.74449e-05
7.70101e-06
2.65493e-06
2.6524e-07
1.78585e-07
2.95001e-06
7.77134e-06
1.82652e-05
3.11842e-05
3.69981e-05
3.75018e-05
3.57231e-05
3.32872e-05
3.1061e-05
2.9388e-05
2.83197e-05
2.77973e-05
2.76652e-05
2.7741e-05
2.7834e-05
2.77361e-05
2.72211e-05
2.60746e-05
2.4182e-05
2.16104e-05
1.86451e-05
1.57096e-05
1.31172e-05
1.09483e-05
9.2569e-06
8.0948e-06
7.54365e-06
7.81957e-06
9.52501e-06
1.38092e-05
1.77421e-05
7.77892e-06
2.67821e-06
2.66963e-07
1.80914e-07
2.95516e-06
7.80378e-06
1.83831e-05
3.12546e-05
3.6869e-05
3.72141e-05
3.53389e-05
3.28739e-05
3.06722e-05
2.90556e-05
2.80607e-05
2.76142e-05
2.75535e-05
2.76924e-05
2.78367e-05
2.77748e-05
2.72783e-05
2.61356e-05
2.42423e-05
2.168e-05
1.87454e-05
1.58604e-05
1.3304e-05
1.1156e-05
9.47648e-06
8.32432e-06
7.7902e-06
8.10513e-06
9.89063e-06
1.42867e-05
1.80336e-05
7.85666e-06
2.70144e-06
2.6867e-07
1.83137e-07
2.95973e-06
7.83438e-06
1.84959e-05
3.13135e-05
3.67265e-05
3.69124e-05
3.49417e-05
3.24501e-05
3.02755e-05
2.87166e-05
2.77954e-05
2.74242e-05
2.74333e-05
2.76335e-05
2.78272e-05
2.77993e-05
2.73197e-05
2.61802e-05
2.42869e-05
2.17364e-05
1.88362e-05
1.6005e-05
1.34866e-05
1.13612e-05
9.69518e-06
8.55469e-06
8.0399e-06
8.39682e-06
1.02649e-05
1.47704e-05
1.8319e-05
7.93367e-06
2.72451e-06
2.70352e-07
1.85257e-07
2.96377e-06
7.86335e-06
1.86041e-05
3.13615e-05
3.6571e-05
3.65972e-05
3.45326e-05
3.20175e-05
2.98725e-05
2.83728e-05
2.75255e-05
2.72285e-05
2.73057e-05
2.75649e-05
2.78056e-05
2.78096e-05
2.73453e-05
2.62086e-05
2.43167e-05
2.1781e-05
1.8919e-05
1.61449e-05
1.36668e-05
1.15656e-05
9.91429e-06
8.78675e-06
8.29303e-06
8.6946e-06
1.06481e-05
1.52594e-05
1.8598e-05
8.00985e-06
2.74738e-06
2.71995e-07
1.87276e-07
2.96726e-06
7.89056e-06
1.87075e-05
3.13986e-05
3.6403e-05
3.62692e-05
3.41123e-05
3.15768e-05
2.94641e-05
2.80249e-05
2.72517e-05
2.70278e-05
2.71711e-05
2.74869e-05
2.77721e-05
2.78057e-05
2.73553e-05
2.62213e-05
2.43324e-05
2.18147e-05
1.89949e-05
1.628e-05
1.38439e-05
1.17685e-05
1.01337e-05
9.02073e-06
8.54994e-06
8.99869e-06
1.104e-05
1.57533e-05
1.88708e-05
8.08507e-06
2.77008e-06
2.73598e-07
1.89194e-07
2.97018e-06
7.91589e-06
1.88056e-05
3.14248e-05
3.6223e-05
3.59293e-05
3.36822e-05
3.11296e-05
2.9052e-05
2.76746e-05
2.69754e-05
2.68233e-05
2.70305e-05
2.74002e-05
2.7727e-05
2.77878e-05
2.735e-05
2.62191e-05
2.43359e-05
2.18406e-05
1.90678e-05
1.6413e-05
1.40194e-05
1.19709e-05
1.03537e-05
9.25678e-06
8.81082e-06
9.30927e-06
1.14409e-05
1.6252e-05
1.91377e-05
8.15946e-06
2.79256e-06
2.75163e-07
1.91004e-07
2.97246e-06
7.93904e-06
1.88978e-05
3.14398e-05
3.60311e-05
3.55776e-05
3.32425e-05
3.06765e-05
2.86371e-05
2.73231e-05
2.6698e-05
2.66164e-05
2.68852e-05
2.73057e-05
2.7671e-05
2.77562e-05
2.73295e-05
2.62025e-05
2.43283e-05
2.18614e-05
1.91417e-05
1.65459e-05
1.4194e-05
1.21727e-05
1.05742e-05
9.49481e-06
9.07559e-06
9.62635e-06
1.18504e-05
1.67547e-05
1.93995e-05
8.23374e-06
2.81499e-06
2.76709e-07
1.92706e-07
2.97407e-06
7.95984e-06
1.89837e-05
3.14438e-05
3.58278e-05
3.52147e-05
3.2794e-05
3.02182e-05
2.82201e-05
2.69712e-05
2.64207e-05
2.64085e-05
2.67366e-05
2.7205e-05
2.76055e-05
2.77122e-05
2.72949e-05
2.61726e-05
2.43114e-05
2.18795e-05
1.92201e-05
1.66815e-05
1.43699e-05
1.23753e-05
1.07959e-05
9.73502e-06
9.34406e-06
9.94934e-06
1.22676e-05
1.72597e-05
1.96561e-05
8.30776e-06
2.83736e-06
2.78241e-07
1.94297e-07
2.97494e-06
7.97806e-06
1.90627e-05
3.14364e-05
3.56127e-05
3.48403e-05
3.23364e-05
2.97549e-05
2.78017e-05
2.66202e-05
2.61448e-05
2.62013e-05
2.65867e-05
2.71e-05
2.75323e-05
2.76575e-05
2.72478e-05
2.61304e-05
2.42853e-05
2.18939e-05
1.93007e-05
1.68188e-05
1.45467e-05
1.25791e-05
1.10194e-05
9.97799e-06
9.61664e-06
1.02783e-05
1.26922e-05
1.77663e-05
1.99092e-05
8.38208e-06
2.85977e-06
2.79769e-07
1.95785e-07
2.97512e-06
7.99378e-06
1.9135e-05
3.14181e-05
3.53863e-05
3.44544e-05
3.18699e-05
2.9287e-05
2.73826e-05
2.62709e-05
2.58718e-05
2.59967e-05
2.64377e-05
2.69933e-05
2.74542e-05
2.75947e-05
2.71906e-05
2.60782e-05
2.42515e-05
2.19046e-05
1.93817e-05
1.69568e-05
1.47245e-05
1.27843e-05
1.12452e-05
1.02242e-05
9.89367e-06
1.06135e-05
1.31237e-05
1.82738e-05
2.01592e-05
8.45675e-06
2.88223e-06
2.81303e-07
1.97174e-07
2.97463e-06
8.00709e-06
1.9201e-05
3.13891e-05
3.51478e-05
3.4056e-05
3.13935e-05
2.88137e-05
2.69626e-05
2.59243e-05
2.56033e-05
2.57966e-05
2.62921e-05
2.68876e-05
2.73739e-05
2.75265e-05
2.71256e-05
2.60176e-05
2.42109e-05
2.19113e-05
1.94611e-05
1.70938e-05
1.4902e-05
1.29902e-05
1.14728e-05
1.04736e-05
1.01755e-05
1.09552e-05
1.35623e-05
1.87818e-05
2.04076e-05
8.53241e-06
2.9049e-06
2.82862e-07
1.98483e-07
2.97357e-06
8.01838e-06
1.92617e-05
3.13502e-05
3.48972e-05
3.36443e-05
3.09063e-05
2.83344e-05
2.65415e-05
2.55809e-05
2.53401e-05
2.56025e-05
2.61521e-05
2.67861e-05
2.72953e-05
2.74569e-05
2.70568e-05
2.59524e-05
2.41667e-05
2.19165e-05
1.954e-05
1.72305e-05
1.50792e-05
1.31962e-05
1.17016e-05
1.07255e-05
1.04617e-05
1.13035e-05
1.40082e-05
1.92903e-05
2.06539e-05
8.60874e-06
2.92774e-06
2.84445e-07
1.99719e-07
2.97202e-06
8.02787e-06
1.93175e-05
3.13013e-05
3.46331e-05
3.3218e-05
3.04073e-05
2.78479e-05
2.61181e-05
2.52422e-05
2.50832e-05
2.54151e-05
2.60192e-05
2.66911e-05
2.72211e-05
2.73889e-05
2.69869e-05
2.58849e-05
2.41208e-05
2.19216e-05
1.96188e-05
1.73666e-05
1.5256e-05
1.34024e-05
1.19312e-05
1.09796e-05
1.07518e-05
1.1658e-05
1.44608e-05
1.97988e-05
2.08989e-05
8.68622e-06
2.95089e-06
2.86062e-07
2.00901e-07
2.97012e-06
8.03612e-06
1.937e-05
3.12432e-05
3.43551e-05
3.27759e-05
2.98956e-05
2.73537e-05
2.56909e-05
2.49029e-05
2.48288e-05
2.52336e-05
2.58947e-05
2.66053e-05
2.71552e-05
2.73266e-05
2.69203e-05
2.58196e-05
2.4078e-05
2.19317e-05
1.97002e-05
1.75034e-05
1.54327e-05
1.36086e-05
1.21617e-05
1.12357e-05
1.10457e-05
1.20187e-05
1.49203e-05
2.03073e-05
2.11414e-05
8.76409e-06
2.97421e-06
2.877e-07
2.02039e-07
2.96797e-06
8.0435e-06
1.94198e-05
3.11756e-05
3.40618e-05
3.23166e-05
2.93704e-05
2.68516e-05
2.52607e-05
2.45645e-05
2.45786e-05
2.50591e-05
2.57795e-05
2.65298e-05
2.70989e-05
2.72719e-05
2.68588e-05
2.57586e-05
2.40412e-05
2.19505e-05
1.9786e-05
1.76416e-05
1.56095e-05
1.38146e-05
1.23925e-05
1.14937e-05
1.13445e-05
1.23853e-05
1.53867e-05
2.0816e-05
2.13825e-05
8.84284e-06
2.99784e-06
2.89369e-07
2.03154e-07
2.96576e-06
8.05067e-06
1.94687e-05
3.10995e-05
3.37528e-05
3.18397e-05
2.88316e-05
2.63412e-05
2.48262e-05
2.42247e-05
2.43301e-05
2.48899e-05
2.56731e-05
2.64657e-05
2.70546e-05
2.7228e-05
2.68064e-05
2.57058e-05
2.40143e-05
2.19818e-05
1.98792e-05
1.77832e-05
1.57878e-05
1.40217e-05
1.26248e-05
1.17548e-05
1.1649e-05
1.27581e-05
1.5859e-05
2.13236e-05
2.16206e-05
8.9218e-06
3.02164e-06
2.91059e-07
2.04251e-07