/*--------------------------------*- C++ -*----------------------------------*\
| =========                 |                                                 |
| \\      /  F ield         | OpenFOAM: The Open Source CFD Toolbox           |
|  \\    /   O peration     | Version:  v2006                                 |
|   \\  /    A nd           | Website:  www.openfoam.com                      |
|    \\/     M anipulation  |                                                 |
\*---------------------------------------------------------------------------*/
FoamFile
{
    version     2.0;
    format      ascii;
    class       volScalarField;
    location    "53";
    object      T;
}
// * * * * * * * * * * * * * * * * * * * * * * * * * * * * * * * * * * * * * //

dimensions      [0 0 0 1 0 0 0];


internalField   nonuniform List<scalar> 
78750
(
300.066
300.181
300.267
300.327
300.371
300.404
300.429
300.449
300.464
300.475
300.482
300.485
300.484
300.478
300.469
300.456
300.439
300.418
300.394
300.366
300.336
300.306
300.276
300.248
300.224
300.204
300.192
300.188
300.199
300.238
300.337
300.551
300.972
301.674
302.607
300.058
300.167
300.266
300.353
300.427
300.491
300.546
300.591
300.629
300.659
300.681
300.696
300.704
300.706
300.701
300.689
300.67
300.644
300.613
300.576
300.535
300.49
300.444
300.399
300.357
300.32
300.293
300.28
300.294
300.353
300.494
300.776
301.266
301.993
302.912
300.058
300.169
300.268
300.356
300.434
300.503
300.563
300.617
300.664
300.706
300.742
300.772
300.797
300.817
300.83
300.838
300.838
300.831
300.816
300.793
300.763
300.726
300.682
300.635
300.584
300.536
300.494
300.469
300.477
300.544
300.715
301.043
301.576
302.321
303.243
300.06
300.173
300.278
300.373
300.457
300.529
300.592
300.648
300.697
300.742
300.781
300.815
300.845
300.87
300.891
300.908
300.92
300.927
300.929
300.924
300.911
300.891
300.864
300.83
300.79
300.747
300.706
300.676
300.675
300.736
300.91
301.253
301.805
302.564
303.497
300.07
300.204
300.327
300.436
300.532
300.612
300.679
300.738
300.79
300.836
300.876
300.911
300.941
300.965
300.986
301.003
301.015
301.023
301.026
301.025
301.017
301.004
300.983
300.957
300.925
300.89
300.857
300.835
300.841
300.911
301.099
301.462
302.026
302.791
303.732
300.075
300.219
300.351
300.467
300.568
300.652
300.721
300.78
300.833
300.88
300.921
300.958
300.989
301.016
301.04
301.059
301.075
301.086
301.093
301.094
301.091
301.082
301.067
301.047
301.021
300.994
300.968
300.954
300.97
301.052
301.254
301.633
302.205
302.974
303.922
300.082
300.24
300.384
300.512
300.62
300.709
300.781
300.843
300.898
300.946
300.988
301.025
301.057
301.085
301.108
301.128
301.143
301.154
301.16
301.161
301.157
301.148
301.135
301.116
301.095
301.072
301.053
301.049
301.079
301.179
301.403
301.801
302.379
303.145
304.097
300.088
300.258
300.412
300.547
300.66
300.751
300.825
300.887
300.943
300.992
301.035
301.073
301.106
301.136
301.161
301.182
301.198
301.209
301.215
301.216
301.213
301.204
301.191
301.175
301.155
301.137
301.124
301.129
301.173
301.291
301.535
301.95
302.532
303.297
304.251
300.094
300.274
300.437
300.579
300.698
300.792
300.868
300.933
300.989
301.04
301.084
301.123
301.158
301.189
301.216
301.237
301.253
301.264
301.269
301.269
301.265
301.255
301.242
301.226
301.208
301.193
301.187
301.201
301.259
301.396
301.66
302.09
302.676
303.44
304.395
300.099
300.288
300.459
300.608
300.73
300.827
300.905
300.971
301.028
301.08
301.125
301.167
301.204
301.237
301.264
301.287
301.303
301.314
301.319
301.319
301.314
301.303
301.29
301.274
301.257
301.245
301.244
301.267
301.338
301.492
301.773
302.216
302.805
303.57
304.525
300.103
300.3
300.478
300.632
300.759
300.858
300.939
301.007
301.066
301.119
301.167
301.21
301.249
301.283
301.312
301.335
301.352
301.363
301.368
301.367
301.36
301.349
301.335
301.319
301.304
301.294
301.298
301.329
301.412
301.582
301.88
302.332
302.925
303.692
304.646
300.107
300.312
300.497
300.656
300.786
300.888
300.97
301.04
301.101
301.156
301.206
301.251
301.292
301.327
301.357
301.381
301.399
301.41
301.414
301.413
301.406
301.395
301.38
301.363
301.349
301.341
301.349
301.388
301.482
301.665
301.977
302.439
303.035
303.804
304.757
300.111
300.322
300.513
300.678
300.811
300.916
301
301.072
301.135
301.192
301.243
301.29
301.332
301.369
301.4
301.425
301.443
301.455
301.459
301.458
301.45
301.438
301.423
301.406
301.392
301.387
301.399
301.445
301.549
301.745
302.069
302.538
303.137
303.908
304.861
300.115
300.333
300.531
300.7
300.837
300.944
301.03
301.103
301.168
301.226
301.28
301.328
301.372
301.41
301.442
301.468
301.487
301.499
301.503
301.502
301.494
301.482
301.466
301.449
301.436
301.432
301.447
301.499
301.612
301.82
302.155
302.63
303.232
304.006
304.957
300.118
300.344
300.547
300.721
300.861
300.97
301.058
301.133
301.199
301.26
301.315
301.365
301.41
301.45
301.483
301.509
301.529
301.541
301.546
301.544
301.536
301.524
301.508
301.491
301.478
301.476
301.495
301.553
301.674
301.892
302.238
302.717
303.321
304.097
305.048
300.122
300.354
300.563
300.742
300.885
300.996
301.086
301.162
301.231
301.293
301.349
301.401
301.448
301.488
301.522
301.549
301.569
301.582
301.587
301.586
301.578
301.565
301.549
301.533
301.521
301.52
301.542
301.605
301.734
301.961
302.315
302.799
303.405
304.183
305.134
300.125
300.364
300.579
300.762
300.907
301.02
301.112
301.19
301.261
301.324
301.382
301.436
301.483
301.525
301.56
301.588
301.609
301.622
301.627
301.626
301.618
301.606
301.59
301.574
301.562
301.564
301.589
301.657
301.793
302.029
302.39
302.877
303.485
304.265
305.215
300.129
300.374
300.594
300.782
300.93
301.045
301.138
301.218
301.29
301.355
301.415
301.47
301.519
301.561
301.597
301.626
301.647
301.661
301.667
301.666
301.658
301.646
301.63
301.614
301.604
301.607
301.635
301.708
301.851
302.094
302.462
302.952
303.561
304.343
305.293
300.132
300.384
300.609
300.801
300.952
301.068
301.163
301.245
301.318
301.385
301.446
301.502
301.552
301.596
301.633
301.662
301.684
301.698
301.705
301.704
301.697
301.685
301.67
301.655
301.645
301.65
301.681
301.759
301.908
302.158
302.532
303.024
303.634
304.418
305.367
300.136
300.393
300.625
300.82
300.973
301.092
301.188
301.271
301.346
301.415
301.477
301.535
301.586
301.63
301.668
301.698
301.721
301.735
301.743
301.743
301.736
301.724
301.709
301.695
301.686
301.693
301.727
301.809
301.963
302.22
302.6
303.093
303.704
304.49
305.439
300.139
300.403
300.639
300.838
300.994
301.114
301.212
301.297
301.373
301.443
301.507
301.566
301.618
301.664
301.702
301.733
301.756
301.772
301.779
301.78
301.774
301.763
301.749
301.735
301.727
301.736
301.773
301.859
302.019
302.281
302.666
303.16
303.772
304.56
305.509
300.142
300.412
300.654
300.856
301.014
301.136
301.236
301.322
301.4
301.471
301.537
301.596
301.65
301.696
301.736
301.767
301.791
301.807
301.816
301.817
301.812
301.801
301.787
301.775
301.768
301.778
301.818
301.908
302.073
302.341
302.73
303.225
303.837
304.627
305.576
300.145
300.421
300.668
300.874
301.034
301.157
301.258
301.346
301.426
301.498
301.565
301.626
301.68
301.728
301.768
301.8
301.825
301.842
301.851
301.853
301.849
301.839
301.826
301.814
301.809
301.821
301.863
301.957
302.127
302.4
302.793
303.289
303.901
304.692
305.641
300.149
300.431
300.682
300.891
301.054
301.178
301.281
301.37
301.451
301.525
301.593
301.655
301.711
301.759
301.8
301.833
301.858
301.876
301.886
301.889
301.885
301.876
301.865
301.854
301.85
301.863
301.908
302.005
302.18
302.457
302.854
303.35
303.963
304.755
305.704
300.152
300.439
300.695
300.908
301.073
301.199
301.303
301.393
301.476
301.551
301.621
301.684
301.74
301.79
301.831
301.865
301.891
301.909
301.92
301.924
301.921
301.914
301.903
301.893
301.89
301.906
301.953
302.054
302.232
302.514
302.914
303.411
304.023
304.817
305.766
300.155
300.448
300.709
300.925
301.091
301.219
301.324
301.416
301.5
301.577
301.648
301.712
301.769
301.82
301.862
301.897
301.923
301.943
301.954
301.959
301.957
301.95
301.941
301.932
301.931
301.948
301.998
302.101
302.284
302.57
302.973
303.47
304.082
304.877
305.826
300.158
300.457
300.722
300.941
301.109
301.239
301.345
301.439
301.524
301.602
301.674
301.739
301.798
301.849
301.892
301.928
301.955
301.975
301.988
301.993
301.993
301.987
301.978
301.971
301.971
301.99
302.042
302.149
302.335
302.625
303.03
303.528
304.14
304.936
305.885
300.161
300.465
300.735
300.957
301.127
301.258
301.366
301.461
301.547
301.627
301.7
301.767
301.826
301.878
301.922
301.958
301.987
302.007
302.021
302.027
302.028
302.023
302.016
302.01
302.011
302.032
302.086
302.196
302.386
302.679
303.087
303.585
304.196
304.993
305.942
300.164
300.473
300.747
300.973
301.145
301.277
301.386
301.482
301.57
301.651
301.726
301.793
301.854
301.907
301.952
301.989
302.018
302.039
302.053
302.061
302.062
302.059
302.053
302.048
302.052
302.074
302.131
302.243
302.436
302.733
303.143
303.641
304.252
305.049
305.999
300.166
300.481
300.76
300.988
301.162
301.295
301.406
301.504
301.593
301.675
301.751
301.82
301.882
301.935
301.981
302.019
302.048
302.07
302.085
302.094
302.097
302.094
302.09
302.087
302.092
302.115
302.174
302.29
302.486
302.786
303.198
303.695
304.306
305.105
306.054
300.169
300.489
300.772
301.003
301.179
301.314
301.426
301.525
301.616
301.699
301.776
301.846
301.909
301.964
302.01
302.048
302.079
302.102
302.117
302.127
302.131
302.13
302.126
302.125
302.131
302.157
302.218
302.336
302.535
302.839
303.253
303.75
304.36
305.159
306.109
300.172
300.497
300.784
301.018
301.196
301.332
301.446
301.546
301.638
301.723
301.801
301.873
301.936
301.992
302.039
302.078
302.109
302.133
302.149
302.159
302.164
302.165
302.163
302.163
302.171
302.199
302.262
302.382
302.585
302.891
303.307
303.803
304.413
305.213
306.164
300.175
300.505
300.796
301.033
301.212
301.35
301.465
301.567
301.661
301.747
301.827
301.899
301.963
302.02
302.068
302.107
302.139
302.163
302.181
302.192
302.198
302.199
302.199
302.201
302.211
302.24
302.306
302.429
302.634
302.943
303.36
303.857
304.466
305.267
306.218
300.177
300.513
300.808
301.048
301.229
301.368
301.485
301.588
301.683
301.771
301.852
301.925
301.99
302.048
302.096
302.137
302.169
302.194
302.212
302.224
302.231
302.234
302.235
302.238
302.25
302.282
302.35
302.475
302.683
302.995
303.414
303.91
304.518
305.32
306.271
300.18
300.52
300.82
301.063
301.246
301.387
301.504
301.61
301.706
301.795
301.877
301.951
302.017
302.075
302.125
302.166
302.199
302.224
302.243
302.256
302.264
302.268
302.271
302.276
302.289
302.323
302.394
302.522
302.732
303.047
303.467
303.963
304.571
305.373
306.325
300.183
300.528
300.832
301.078
301.263
301.405
301.524
301.631
301.729
301.819
301.902
301.977
302.045
302.103
302.153
302.195
302.229
302.255
302.274
302.288
302.297
302.303
302.307
302.313
302.329
302.365
302.438
302.568
302.782
303.099
303.521
304.016
304.623
305.426
306.379
300.185
300.536
300.844
301.093
301.28
301.423
301.544
301.652
301.751
301.843
301.927
302.004
302.072
302.131
302.182
302.224
302.258
302.285
302.305
302.32
302.33
302.337
302.342
302.35
302.368
302.407
302.482
302.615
302.832
303.151
303.575
304.069
304.675
305.479
306.433
300.188
300.544
300.856
301.108
301.297
301.442
301.564
301.674
301.774
301.867
301.953
302.03
302.099
302.159
302.211
302.253
302.288
302.315
302.336
302.352
302.363
302.371
302.378
302.388
302.408
302.448
302.526
302.663
302.882
303.204
303.629
304.122
304.728
305.532
306.487
300.191
300.552
300.868
301.123
301.314
301.461
301.584
301.696
301.798
301.892
301.979
302.057
302.127
302.188
302.239
302.283
302.318
302.346
302.367
302.383
302.395
302.404
302.413
302.425
302.447
302.49
302.571
302.71
302.933
303.257
303.683
304.176
304.781
305.586
306.541
300.194
300.56
300.881
301.139
301.331
301.479
301.605
301.718
301.821
301.917
302.005
302.084
302.154
302.216
302.268
302.312
302.347
302.376
302.398
302.415
302.428
302.438
302.448
302.462
302.487
302.532
302.616
302.759
302.984
303.311
303.738
304.23
304.834
305.64
306.595
300.197
300.568
300.893
301.154
301.348
301.498
301.625
301.74
301.845
301.942
302.031
302.111
302.182
302.244
302.297
302.341
302.377
302.406
302.429
302.447
302.46
302.472
302.484
302.499
302.526
302.575
302.661
302.807
303.036
303.365
303.793
304.284
304.887
305.693
306.649
300.2
300.576
300.906
301.17
301.366
301.517
301.646
301.762
301.868
301.967
302.057
302.138
302.21
302.273
302.326
302.37
302.407
302.436
302.46
302.478
302.493
302.506
302.519
302.536
302.566
302.617
302.707
302.856
303.088
303.42
303.849
304.339
304.941
305.748
306.704
300.203
300.585
300.919
301.186
301.383
301.536
301.666
301.784
301.892
301.992
302.083
302.165
302.238
302.301
302.355
302.4
302.437
302.466
302.49
302.509
302.525
302.539
302.554
302.574
302.605
302.66
302.753
302.906
303.141
303.476
303.905
304.394
304.995
305.802
306.759
300.205
300.593
300.931
301.201
301.4
301.555
301.687
301.806
301.916
302.017
302.109
302.192
302.266
302.33
302.384
302.429
302.466
302.497
302.521
302.541
302.558
302.573
302.589
302.611
302.645
302.703
302.799
302.956
303.194
303.531
303.961
304.449
305.049
305.856
306.813
300.208
300.601
300.944
301.217
301.418
301.574
301.707
301.828
301.939
302.042
302.135
302.219
302.294
302.358
302.413
302.458
302.496
302.527
302.552
302.572
302.59
302.606
302.624
302.648
302.685
302.746
302.846
303.006
303.248
303.588
304.018
304.504
305.103
305.911
306.868
300.211
300.609
300.957
301.232
301.435
301.593
301.728
301.85
301.963
302.067
302.162
302.247
302.322
302.386
302.441
302.487
302.525
302.557
302.582
302.603
302.622
302.64
302.659
302.686
302.725
302.789
302.893
303.057
303.302
303.644
304.075
304.56
305.157
305.965
306.923
300.214
300.618
300.969
301.247
301.452
301.611
301.748
301.872
301.986
302.092
302.188
302.274
302.35
302.415
302.47
302.517
302.555
302.587
302.613
302.635
302.654
302.673
302.695
302.723
302.765
302.833
302.94
303.108
303.357
303.702
304.132
304.615
305.212
306.019
306.977
300.217
300.626
300.982
301.263
301.469
301.63
301.769
301.894
302.01
302.117
302.214
302.301
302.377
302.443
302.499
302.546
302.584
302.616
302.643
302.666
302.686
302.706
302.73
302.76
302.805
302.876
302.988
303.159
303.412
303.759
304.189
304.671
305.266
306.074
307.031
300.22
300.634
300.994
301.278
301.486
301.649
301.789
301.916
302.034
302.142
302.24
302.328
302.405
302.472
302.528
302.575
302.614
302.646
302.673
302.697
302.718
302.74
302.765
302.797
302.846
302.92
303.035
303.211
303.467
303.816
304.247
304.727
305.32
306.128
307.085
300.223
300.642
301.007
301.293
301.503
301.667
301.809
301.938
302.057
302.167
302.267
302.355
302.433
302.5
302.556
302.604
302.643
302.676
302.703
302.727
302.75
302.773
302.799
302.835
302.886
302.963
303.083
303.263
303.523
303.874
304.304
304.782
305.374
306.181
307.138
300.226
300.65
301.019
301.308
301.52
301.686
301.83
301.96
302.081
302.192
302.293
302.383
302.461
302.528
302.585
302.632
302.672
302.705
302.733
302.758
302.781
302.806
302.834
302.872
302.926
303.007
303.13
303.314
303.578
303.931
304.361
304.837
305.428
306.234
307.191
300.229
300.658
301.032
301.323
301.537
301.705
301.85
301.982
302.105
302.217
302.319
302.41
302.489
302.556
302.613
302.661
302.701
302.734
302.763
302.789
302.813
302.839
302.869
302.909
302.966
303.05
303.178
303.366
303.633
303.988
304.417
304.891
305.481
306.287
307.243
300.231
300.667
301.044
301.339
301.554
301.723
301.87
302.005
302.129
302.243
302.346
302.437
302.517
302.584
302.642
302.69
302.73
302.764
302.793
302.819
302.844
302.871
302.903
302.946
303.005
303.094
303.225
303.417
303.688
304.045
304.473
304.945
305.533
306.338
307.295
300.234
300.675
301.056
301.354
301.571
301.742
301.891
302.027
302.153
302.268
302.372
302.464
302.544
302.613
302.67
302.718
302.759
302.793
302.823
302.849
302.876
302.904
302.938
302.982
303.045
303.137
303.272
303.468
303.742
304.101
304.528
304.998
305.585
306.389
307.345
300.237
300.683
301.069
301.369
301.588
301.761
301.911
302.049
302.177
302.293
302.399
302.492
302.572
302.641
302.699
302.747
302.788
302.822
302.852
302.88
302.907
302.936
302.972
303.019
303.084
303.18
303.319
303.519
303.796
304.157
304.583
305.051
305.636
306.44
307.395
300.24
300.691
301.081
301.384
301.605
301.78
301.932
302.072
302.201
302.319
302.426
302.519
302.6
302.669
302.727
302.775
302.816
302.851
302.881
302.91
302.938
302.969
303.006
303.055
303.124
303.222
303.365
303.569
303.85
304.212
304.637
305.102
305.686
306.489
307.444
300.243
300.699
301.094
301.4
301.623
301.799
301.953
302.094
302.225
302.345
302.452
302.547
302.628
302.697
302.755
302.804
302.845
302.88
302.911
302.94
302.969
303.001
303.04
303.091
303.163
303.265
303.412
303.619
303.903
304.266
304.69
305.153
305.735
306.538
307.492
300.246
300.708
301.106
301.415
301.64
301.818
301.974
302.117
302.25
302.371
302.479
302.575
302.656
302.726
302.784
302.832
302.873
302.909
302.94
302.969
302.999
303.033
303.074
303.127
303.201
303.307
303.458
303.669
303.955
304.32
304.742
305.203
305.784
306.586
307.539
300.249
300.716
301.119
301.43
301.657
301.837
301.995
302.14
302.274
302.397
302.506
302.602
302.685
302.754
302.812
302.861
302.902
302.937
302.969
302.999
303.03
303.065
303.107
303.163
303.24
303.349
303.503
303.718
304.007
304.372
304.793
305.253
305.832
306.632
307.585
300.252
300.724
301.132
301.446
301.674
301.856
302.016
302.163
302.299
302.423
302.534
302.63
302.713
302.782
302.84
302.889
302.93
302.966
302.998
303.029
303.06
303.096
303.141
303.199
303.278
303.39
303.548
303.767
304.058
304.425
304.843
305.301
305.878
306.678
307.63
300.254
300.732
301.144
301.461
301.692
301.875
302.037
302.186
302.324
302.449
302.561
302.658
302.741
302.811
302.869
302.917
302.959
302.994
303.027
303.058
303.091
303.128
303.174
303.234
303.316
303.432
303.593
303.815
304.109
304.476
304.893
305.348
305.924
306.723
307.673
300.257
300.741
301.157
301.476
301.709
301.895
302.059
302.21
302.349
302.476
302.589
302.686
302.769
302.839
302.897
302.946
302.987
303.023
303.056
303.088
303.121
303.159
303.207
303.269
303.354
303.472
303.637
303.862
304.159
304.526
304.941
305.394
305.969
306.766
307.716
300.26
300.749
301.169
301.492
301.727
301.914
302.08
302.233
302.374
302.503
302.616
302.714
302.798
302.867
302.925
302.974
303.015
303.051
303.084
303.117
303.151
303.19
303.239
303.304
303.391
303.513
303.681
303.909
304.208
304.575
304.989
305.439
306.012
306.808
307.757
300.263
300.757
301.182
301.508
301.744
301.934
302.102
302.257
302.4
302.53
302.644
302.743
302.826
302.896
302.954
303.002
303.044
303.08
303.113
303.146
303.181
303.221
303.272
303.338
303.428
303.552
303.724
303.955
304.255
304.623
305.035
305.483
306.054
306.849
307.796
300.266
300.765
301.195
301.523
301.762
301.954
302.124
302.281
302.426
302.557
302.672
302.771
302.855
302.924
302.982
303.031
303.072
303.108
303.142
303.175
303.211
303.252
303.304
303.372
303.464
303.592
303.766
303.999
304.302
304.67
305.079
305.525
306.095
306.888
307.835
300.269
300.774
301.208
301.539
301.78
301.974
302.146
302.305
302.452
302.585
302.701
302.8
302.884
302.953
303.011
303.059
303.1
303.136
303.17
303.204
303.24
303.283
303.336
303.406
303.5
303.63
303.807
304.043
304.348
304.715
305.123
305.567
306.135
306.926
307.871
300.272
300.782
301.221
301.555
301.799
301.994
302.169
302.331
302.479
302.613
302.73
302.829
302.913
302.982
303.039
303.087
303.128
303.165
303.199
303.233
303.27
303.313
303.368
303.439
303.536
303.668
303.847
304.086
304.392
304.759
305.164
305.606
306.173
306.963
307.907
300.275
300.791
301.234
301.572
301.818
302.016
302.192
302.356
302.507
302.641
302.759
302.859
302.942
303.011
303.068
303.116
303.157
303.193
303.227
303.262
303.299
303.344
303.399
303.473
303.571
303.706
303.887
304.128
304.435
304.802
305.205
305.644
306.209
306.998
307.942
300.278
300.8
301.248
301.589
301.837
302.037
302.216
302.382
302.535
302.671
302.789
302.889
302.972
303.04
303.097
303.144
303.185
303.221
303.256
303.291
303.329
303.374
303.431
303.506
303.606
303.743
303.927
304.17
304.477
304.843
305.244
305.681
306.245
307.033
307.975
300.281
300.809
301.262
301.606
301.857
302.059
302.241
302.409
302.563
302.701
302.819
302.919
303.002
303.07
303.126
303.173
303.214
303.25
303.284
303.32
303.358
303.404
303.462
303.538
303.641
303.779
303.965
304.21
304.519
304.884
305.282
305.717
306.279
307.066
308.007
300.284
300.818
301.276
301.624
301.877
302.082
302.266
302.437
302.593
302.731
302.851
302.95
303.033
303.1
303.156
303.202
303.243
303.279
303.313
303.349
303.388
303.435
303.494
303.571
303.675
303.815
304.003
304.25
304.559
304.923
305.319
305.752
306.312
307.098
308.039
300.288
300.828
301.291
301.643
301.898
302.106
302.292
302.465
302.623
302.763
302.882
302.982
303.064
303.131
303.186
303.232
303.271
303.307
303.342
303.378
303.417
303.465
303.525
303.604
303.709
303.851
304.041
304.289
304.598
304.961
305.355
305.786
306.345
307.13
308.07
300.291
300.838
301.307
301.662
301.92
302.13
302.319
302.495
302.654
302.795
302.915
303.014
303.095
303.162
303.216
303.261
303.301
303.336
303.371
303.407
303.447
303.495
303.556
303.636
303.743
303.887
304.078
304.327
304.637
304.999
305.39
305.819
306.376
307.16
308.1
300.295
300.848
301.322
301.681
301.942
302.155
302.347
302.525
302.686
302.828
302.948
303.047
303.128
303.193
303.246
303.291
303.33
303.365
303.4
303.436
303.477
303.526
303.588
303.669
303.777
303.922
304.115
304.365
304.675
305.036
305.424
305.851
306.407
307.19
308.13
300.298
300.859
301.339
301.701
301.965
302.18
302.375
302.556
302.719
302.862
302.982
303.08
303.16
303.225
303.277
303.321
303.36
303.395
303.429
303.465
303.507
303.556
303.619
303.701
303.811
303.958
304.152
304.403
304.713
305.071
305.458
305.883
306.438
307.22
308.159
300.302
300.87
301.356
301.722
301.989
302.207
302.405
302.588
302.753
302.896
303.016
303.114
303.193
303.257
303.308
303.352
303.389
303.424
303.459
303.495
303.537
303.587
303.651
303.734
303.845
303.993
304.189
304.44
304.75
305.107
305.491
305.914
306.468
307.25
308.189
300.306
300.881
301.373
301.743
302.013
302.234
302.435
302.62
302.787
302.931
303.051
303.148
303.226
303.289
303.34
303.382
303.419
303.454
303.488
303.525
303.567
303.618
303.682
303.767
303.879
304.029
304.226
304.478
304.787
305.142
305.524
305.945
306.498
307.279
308.219
300.31
300.893
301.391
301.765
302.038
302.262
302.466
302.654
302.822
302.967
303.087
303.183
303.26
303.322
303.372
303.413
303.45
303.484
303.518
303.555
303.597
303.649
303.714
303.8
303.914
304.064
304.262
304.515
304.824
305.178
305.556
305.976
306.528
307.309
308.249
300.314
300.904
301.409
301.787
302.063
302.29
302.497
302.688
302.858
303.004
303.123
303.219
303.295
303.355
303.404
303.444
303.48
303.514
303.548
303.585
303.627
303.68
303.746
303.833
303.948
304.1
304.299
304.552
304.861
305.212
305.589
306.006
306.558
307.338
308.278
300.318
300.916
301.427
301.81
302.089
302.319
302.53
302.723
302.895
303.041
303.16
303.255
303.329
303.388
303.436
303.476
303.511
303.544
303.578
303.615
303.658
303.711
303.778
303.866
303.983
304.136
304.336
304.59
304.898
305.247
305.621
306.037
306.588
307.368
308.308
300.323
300.929
301.446
301.833
302.115
302.349
302.563
302.759
302.933
303.079
303.197
303.291
303.364
303.422
303.469
303.508
303.542
303.575
303.608
303.645
303.689
303.742
303.811
303.9
304.017
304.172
304.373
304.627
304.934
305.282
305.653
306.067
306.618
307.398
308.338
300.327
300.941
301.465
301.856
302.142
302.379
302.597
302.796
302.971
303.117
303.235
303.328
303.4
303.456
303.502
303.54
303.573
303.606
303.639
303.676
303.72
303.774
303.843
303.933
304.052
304.208
304.411
304.665
304.972
305.317
305.686
306.099
306.648
307.429
308.369
300.332
300.954
301.485
301.881
302.17
302.411
302.631
302.834
303.01
303.157
303.274
303.365
303.436
303.491
303.535
303.572
303.605
303.637
303.67
303.707
303.751
303.806
303.876
303.967
304.087
304.245
304.448
304.703
305.008
305.352
305.718
306.129
306.678
307.459
308.4
300.336
300.967
301.505
301.905
302.198
302.443
302.668
302.872
303.05
303.197
303.313
303.403
303.472
303.526
303.568
303.604
303.637
303.668
303.701
303.738
303.782
303.838
303.909
304.001
304.123
304.281
304.486
304.741
305.045
305.387
305.752
306.161
306.71
307.49
308.431
300.341
300.98
301.525
301.931
302.228
302.476
302.705
302.913
303.092
303.239
303.354
303.442
303.509
303.561
303.602
303.637
303.669
303.699
303.732
303.769
303.814
303.87
303.941
304.035
304.158
304.318
304.523
304.779
305.082
305.422
305.784
306.192
306.74
307.52
308.462
300.346
300.994
301.547
301.957
302.258
302.511
302.744
302.955
303.135
303.281
303.395
303.481
303.547
303.597
303.637
303.67
303.701
303.731
303.764
303.801
303.846
303.902
303.975
304.07
304.194
304.355
304.561
304.817
305.12
305.457
305.817
306.224
306.772
307.552
308.494
300.351
301.009
301.569
301.985
302.29
302.547
302.784
302.998
303.18
303.325
303.437
303.522
303.585
303.633
303.671
303.704
303.734
303.763
303.795
303.832
303.878
303.935
304.008
304.104
304.23
304.392
304.599
304.855
305.157
305.492
305.85
306.255
306.803
307.583
308.526
300.356
301.024
301.592
302.013
302.323
302.585
302.826
303.043
303.226
303.371
303.481
303.563
303.624
303.67
303.707
303.738
303.766
303.795
303.827
303.865
303.91
303.968
304.043
304.14
304.266
304.43
304.638
304.894
305.195
305.528
305.884
306.288
306.836
307.616
308.559
300.361
301.039
301.616
302.043
302.357
302.623
302.869
303.089
303.273
303.417
303.525
303.605
303.664
303.708
303.742
303.772
303.8
303.828
303.86
303.897
303.943
304.001
304.077
304.175
304.303
304.468
304.677
304.932
305.232
305.564
305.917
306.32
306.867
307.648
308.591
300.367
301.056
301.641
302.073
302.392
302.663
302.914
303.137
303.321
303.464
303.57
303.647
303.704
303.746
303.779
303.807
303.833
303.861
303.892
303.93
303.976
304.035
304.112
304.211
304.34
304.507
304.716
304.972
305.271
305.601
305.952
306.354
306.901
307.682
308.625
300.373
301.072
301.666
302.104
302.428
302.704
302.959
303.185
303.37
303.511
303.616
303.69
303.744
303.784
303.815
303.842
303.867
303.894
303.925
303.963
304.009
304.069
304.147
304.247
304.378
304.545
304.756
305.011
305.309
305.636
305.986
306.387
306.933
307.714
308.658
300.379
301.089
301.692
302.136
302.465
302.746
303.006
303.234
303.419
303.56
303.662
303.734
303.785
303.823
303.852
303.877
303.902
303.928
303.959
303.996
304.043
304.104
304.182
304.284
304.416
304.585
304.796
305.052
305.348
305.674
306.021
306.421
306.968
307.749
308.693
300.385
301.107
301.719
302.169
302.503
302.789
303.053
303.284
303.469
303.608
303.708
303.778
303.826
303.861
303.889
303.913
303.936
303.962
303.992
304.029
304.077
304.138
304.218
304.321
304.454
304.624
304.836
305.092
305.387
305.71
306.056
306.455
307.001
307.782
308.726
300.391
301.125
301.746
302.203
302.542
302.834
303.102
303.335
303.52
303.658
303.755
303.822
303.868
303.901
303.926
303.949
303.971
303.996
304.026
304.063
304.111
304.173
304.254
304.359
304.494
304.665
304.878
305.133
305.427
305.748
306.092
306.49
307.036
307.817
308.761
300.397
301.143
301.775
302.238
302.582
302.88
303.153
303.388
303.573
303.709
303.803
303.867
303.91
303.94
303.964
303.985
304.006
304.03
304.06
304.097
304.145
304.208
304.29
304.396
304.532
304.705
304.918
305.173
305.465
305.784
306.126
306.523
307.07
307.85
308.794
300.404
301.162
301.804
302.274
302.624
302.928
303.206
303.443
303.627
303.76
303.852
303.912
303.952
303.98
304.002
304.021
304.041
304.065
304.094
304.131
304.18
304.244
304.327
304.434
304.572
304.746
304.96
305.215
305.506
305.823
306.163
306.559
307.106
307.886
308.83
300.411
301.182
301.834
302.312
302.668
302.978
303.261
303.5
303.683
303.814
303.902
303.959
303.996
304.021
304.04
304.058
304.077
304.1
304.128
304.166
304.215
304.279
304.363
304.472
304.611
304.785
305
305.255
305.544
305.859
306.197
306.593
307.139
307.919
308.863
300.418
301.203
301.866
302.351
302.714
303.03
303.318
303.558
303.741
303.869
303.953
304.006
304.04
304.062
304.079
304.095
304.113
304.135
304.163
304.201
304.25
304.315
304.4
304.51
304.651
304.827
305.042
305.297
305.585
305.898
306.234
306.629
307.175
307.955
308.898
300.426
301.224
301.899
302.392
302.761
303.084
303.377
303.62
303.801
303.926
304.006
304.055
304.084
304.104
304.119
304.133
304.149
304.17
304.198
304.235
304.285
304.351
304.437
304.548
304.689
304.866
305.082
305.336
305.623
305.934
306.269
306.662
307.208
307.987
308.93
300.433
301.246
301.933
302.434
302.81
303.14
303.438
303.683
303.863
303.984
304.059
304.104
304.13
304.146
304.159
304.171
304.186
304.206
304.234
304.271
304.321
304.387
304.474
304.587
304.73
304.908
305.124
305.378
305.663
305.972
306.306
306.699
307.244
308.023
308.966
300.441
301.27
301.968
302.477
302.861
303.199
303.502
303.748
303.926
304.044
304.115
304.155
304.177
304.19
304.199
304.21
304.223
304.243
304.269
304.306
304.356
304.423
304.511
304.625
304.769
304.948
305.164
305.417
305.701
306.008
306.34
306.732
307.277
308.055
308.997
300.45
301.293
302.004
302.522
302.913
303.259
303.568
303.815
303.991
304.105
304.171
304.206
304.224
304.234
304.241
304.249
304.261
304.28
304.306
304.343
304.393
304.461
304.55
304.664
304.81
304.99
305.206
305.459
305.741
306.047
306.377
306.768
307.313
308.091
309.033
300.458
301.318
302.041
302.568
302.967
303.32
303.635
303.884
304.058
304.167
304.228
304.259
304.272
304.278
304.282
304.289
304.299
304.317
304.342
304.379
304.43
304.498
304.587
304.703
304.849
305.029
305.246
305.497
305.778
306.082
306.41
306.801
307.345
308.123
309.064
300.467
301.343
302.079
302.614
303.022
303.383
303.703
303.953
304.126
304.231
304.287
304.312
304.321
304.323
304.325
304.329
304.338
304.355
304.38
304.416
304.467
304.536
304.627
304.743
304.89
305.072
305.289
305.539
305.819
306.12
306.448
306.838
307.382
308.159
309.099
300.476
301.369
302.118
302.662
303.078
303.447
303.772
304.024
304.195
304.296
304.346
304.367
304.371
304.369
304.368
304.37
304.377
304.392
304.417
304.453
304.504
304.573
304.665
304.782
304.93
305.111
305.328
305.578
305.856
306.155
306.481
306.87
307.414
308.19
309.13
300.485
301.395
302.157
302.71
303.134
303.512
303.843
304.096
304.265
304.362
304.407
304.422
304.422
304.416
304.412
304.411