/*--------------------------------*- C++ -*----------------------------------*\
| =========                 |                                                 |
| \\      /  F ield         | OpenFOAM: The Open Source CFD Toolbox           |
|  \\    /   O peration     | Version:  v2006                                 |
|   \\  /    A nd           | Website:  www.openfoam.com                      |
|    \\/     M anipulation  |                                                 |
\*---------------------------------------------------------------------------*/
FoamFile
{
    version     2.0;
    format      ascii;
    class       volVectorField;
    location    "53";
    object      U;
}
// * * * * * * * * * * * * * * * * * * * * * * * * * * * * * * * * * * * * * //

dimensions      [0 1 -1 0 0 0 0];


internalField   nonuniform List<vector> 
78750
(
(-0.000168056 -0.000466828 0.00236352)
(-2.73639e-05 -0.00255492 0.00497833)
(0.000189946 -0.00438747 0.00593694)
(0.000960197 -0.00564487 0.00608757)
(0.00195 -0.00641171 0.00591323)
(0.00313238 -0.00677844 0.00563599)
(0.00444444 -0.00682683 0.00533696)
(0.00581169 -0.00661722 0.00504347)
(0.00717237 -0.00619483 0.0047629)
(0.00847834 -0.00559599 0.00449465)
(0.0096892 -0.00485122 0.00423493)
(0.0107708 -0.00398721 0.0039788)
(0.011695 -0.00302887 0.00372064)
(0.0124398 -0.00200129 0.00345418)
(0.0129893 -0.000931668 0.00317218)
(0.0133342 0.000148513 0.00286606)
(0.0134732 0.0011998 0.00252622)
(0.0134055 0.00217897 0.00214053)
(0.0131266 0.00303462 0.00169407)
(0.0126643 0.00371249 0.00117617)
(0.0120612 0.00416047 0.000584531)
(0.0113649 0.00434128 -6.88608e-05)
(0.0106259 0.00424844 -0.000754711)
(0.00989552 0.00391591 -0.00143082)
(0.00922126 0.00341319 -0.00205398)
(0.00864141 0.00282868 -0.00259374)
(0.00818043 0.00225168 -0.00304038)
(0.00784321 0.00176773 -0.00340267)
(0.00760594 0.0014765 -0.00369611)
(0.00740082 0.00152909 -0.00392481)
(0.00709054 0.00216672 -0.00405765)
(0.00643831 0.00370212 -0.00399681)
(0.00512734 0.00622201 -0.00355204)
(0.00306214 0.00854411 -0.00250879)
(0.000780603 0.00660884 -0.00089754)
(-3.55228e-06 -0.000765896 0.00136708)
(9.24673e-05 -0.00401374 0.00292046)
(0.000185511 -0.0078429 0.00344785)
(0.000359883 -0.0112081 0.00340849)
(0.000639518 -0.0136771 0.00313816)
(0.00103681 -0.0152664 0.00281563)
(0.00155213 -0.0160877 0.00251666)
(0.00217064 -0.0162551 0.00226888)
(0.00287364 -0.0158775 0.00207604)
(0.00363878 -0.0150456 0.00193242)
(0.00444193 -0.013833 0.00182971)
(0.00525871 -0.012301 0.00175977)
(0.00606533 -0.0105037 0.00171545)
(0.00683903 -0.00849187 0.00169041)
(0.00755776 -0.00631634 0.00167844)
(0.00819695 -0.0040313 0.00167255)
(0.0087313 -0.00170512 0.00166354)
(0.00915247 0.000582355 0.001641)
(0.00945331 0.00274269 0.00159047)
(0.00962666 0.00469104 0.00149646)
(0.00966892 0.00635045 0.00134259)
(0.00957968 0.00765087 0.00111378)
(0.00936505 0.00853552 0.00079797)
(0.00903493 0.00897251 0.000387571)
(0.00860679 0.00896301 -0.000120944)
(0.00810969 0.00855821 -0.000726596)
(0.00757802 0.00788241 -0.00142408)
(0.0070402 0.00716866 -0.00220195)
(0.00650359 0.00680849 -0.00303382)
(0.00593795 0.00739561 -0.0038522)
(0.00525885 0.00969477 -0.00450312)
(0.00433242 0.0142954 -0.00471558)
(0.00304746 0.0204383 -0.00419134)
(0.0015376 0.0240656 -0.00286776)
(0.000159351 0.0164498 -0.000997417)
(1.32391e-05 -0.00207866 0.00102936)
(0.000242026 -0.00548866 0.00225937)
(0.000470325 -0.00867096 0.00287078)
(0.000732442 -0.0115775 0.00315097)
(0.0010379 -0.0141131 0.00325911)
(0.00139531 -0.0162141 0.00327719)
(0.00181033 -0.0178197 0.00324965)
(0.00227832 -0.0188997 0.0031952)
(0.00279539 -0.0194464 0.0031219)
(0.00335483 -0.0194686 0.00303367)
(0.0039475 -0.0189881 0.00293316)
(0.00456329 -0.018036 0.00282308)
(0.00519216 -0.0166495 0.00270672)
(0.00582451 -0.0148698 0.00258802)
(0.00644559 -0.0127414 0.00247094)
(0.00704486 -0.010291 0.00236196)
(0.00760975 -0.00755762 0.00226641)
(0.00811493 -0.0046442 0.00218198)
(0.00854066 -0.00168491 0.00210297)
(0.00886474 0.00117721 0.00202165)
(0.00906957 0.00383582 0.00193398)
(0.00914615 0.00622425 0.00184053)
(0.00908753 0.00827156 0.00173591)
(0.00888991 0.00990764 0.00160529)
(0.00855656 0.011085 0.00142668)
(0.00809337 0.0118069 0.00116953)
(0.00751138 0.0121718 0.000791904)
(0.00682912 0.0124397 0.00024014)
(0.00606866 0.013106 -0.000536526)
(0.00523376 0.0149397 -0.00153864)
(0.00430657 0.0188327 -0.00261543)
(0.00325671 0.0250306 -0.00337521)
(0.0020951 0.0317284 -0.00334584)
(0.000962665 0.0336496 -0.00238528)
(9.60937e-05 0.0209477 -0.000801164)
(-1.18752e-06 -0.00381018 0.00112174)
(0.000269713 -0.00990114 0.00261257)
(0.000711639 -0.0150109 0.00349705)
(0.00130392 -0.0192907 0.00399554)
(0.00199658 -0.0227059 0.00424716)
(0.00272233 -0.0252094 0.00434533)
(0.00345837 -0.0269076 0.00436383)
(0.00419745 -0.0279052 0.00434496)
(0.00491623 -0.0282561 0.00430581)
(0.00560673 -0.0280156 0.00425404)
(0.0062658 -0.0272401 0.00419217)
(0.00689109 -0.0259841 0.00411982)
(0.00748106 -0.0243 0.00403519)
(0.00803254 -0.0222387 0.00393592)
(0.00854065 -0.0198309 0.00382315)
(0.00900669 -0.0170727 0.00370086)
(0.00942248 -0.0139737 0.00357056)
(0.00977548 -0.0105975 0.00342917)
(0.0100548 -0.00703274 0.00327451)
(0.0102456 -0.00338767 0.00310659)
(0.0103326 0.000213161 0.00292786)
(0.0102981 0.00363308 0.00274171)
(0.0101302 0.00673007 0.00255037)
(0.00982685 0.00943353 0.00236027)
(0.0093839 0.0117329 0.00217713)
(0.0088021 0.0136265 0.0019888)
(0.00808603 0.0151783 0.00175879)
(0.00725156 0.016598 0.00142421)
(0.00631917 0.0183554 0.000902694)
(0.00529349 0.0212924 0.000112539)
(0.00419123 0.0263855 -0.000913229)
(0.00303445 0.0336638 -0.00184273)
(0.00188467 0.0405885 -0.0021557)
(0.00085301 0.0410975 -0.00162473)
(9.71545e-05 0.0244339 -0.000511182)
(5.43132e-06 -0.00503304 0.00101472)
(0.000270327 -0.01299 0.00232918)
(0.000712131 -0.0193871 0.00308145)
(0.00129557 -0.0244862 0.00348474)
(0.00196695 -0.0283503 0.00367775)
(0.00266791 -0.0310575 0.00374699)
(0.00336866 -0.0328123 0.00374948)
(0.00407204 -0.0337899 0.00372867)
(0.00476377 -0.0340796 0.00370054)
(0.00543287 -0.0337413 0.00367144)
(0.00607693 -0.0328316 0.00364377)
(0.00669373 -0.0314037 0.00361766)
(0.00728071 -0.0295084 0.00359181)
(0.00782647 -0.0271969 0.00356379)
(0.00832718 -0.024485 0.00353383)
(0.00877868 -0.0213568 0.00350673)
(0.00916754 -0.0178409 0.00348093)
(0.00948619 -0.0140007 0.00345056)
(0.00972924 -0.00991495 0.00340891)
(0.00988923 -0.00567335 0.00334991)
(0.00995503 -0.00137684 0.00326907)
(0.00991556 0.00285843 0.00316412)
(0.00975829 0.00690284 0.00303544)
(0.00947123 0.0106296 0.0028864)
(0.00904707 0.0139447 0.00272003)
(0.00848855 0.0168243 0.00253436)
(0.00780354 0.0193588 0.00231631)
(0.00699724 0.0218024 0.00203148)
(0.00607098 0.0246566 0.00161125)
(0.00503392 0.0287329 0.000960393)
(0.00391758 0.0348459 6.2741e-05)
(0.00275636 0.0427109 -0.000835502)
(0.00166317 0.0492003 -0.00127072)
(0.000731556 0.0479798 -0.00102611)
(7.27913e-05 0.0275362 -0.000294151)
(3.9279e-06 -0.00654524 0.000987619)
(0.000286102 -0.016922 0.00227906)
(0.000766944 -0.0250876 0.00304181)
(0.00140081 -0.031372 0.00347447)
(0.00212055 -0.0359249 0.003704)
(0.00286793 -0.0389614 0.0038096)
(0.00359562 -0.0407909 0.00384121)
(0.00430937 -0.0417169 0.00384152)
(0.00500804 -0.041888 0.0038278)
(0.00567164 -0.0413789 0.00380485)
(0.00629922 -0.0402576 0.00377496)
(0.00689115 -0.038588 0.00373894)
(0.00743885 -0.0364328 0.0036966)
(0.00793931 -0.0338093 0.00365218)
(0.00839079 -0.0306954 0.00361089)
(0.00877861 -0.0271098 0.00357378)
(0.00909573 -0.0231015 0.00353978)
(0.00933989 -0.0187367 0.00350679)
(0.00950919 -0.0140924 0.00347192)
(0.00960112 -0.00925192 0.0034317)
(0.0096125 -0.00430473 0.00338224)
(0.00953904 0.000649227 0.00331945)
(0.00937173 0.00549631 0.00323953)
(0.00909831 0.0101146 0.00313983)
(0.00870941 0.0143956 0.00301884)
(0.00819881 0.0182903 0.00287429)
(0.00756418 0.0218705 0.0026984)
(0.00680409 0.0253947 0.00246763)
(0.00591536 0.0293801 0.00212718)
(0.00490311 0.0346176 0.00159094)
(0.00379649 0.0417957 0.000822288)
(0.00263805 0.0503111 -3.27706e-06)
(0.00157873 0.0564928 -0.000497546)
(0.000693257 0.0538611 -0.00048285)
(7.14026e-05 0.0301527 -9.94471e-05)
(1.59988e-05 -0.00797237 0.000882812)
(0.000321836 -0.0205114 0.00201215)
(0.000819517 -0.0301409 0.00265735)
(0.00145011 -0.0372798 0.00300739)
(0.00214165 -0.0421951 0.00318269)
(0.00283964 -0.0452795 0.00325679)
(0.0035083 -0.047003 0.00327315)
(0.00415887 -0.0477573 0.00326398)
(0.00479495 -0.0477149 0.00324549)
(0.00539861 -0.0469619 0.00322167)
(0.00597047 -0.045575 0.00319449)
(0.00650645 -0.0436248 0.00316466)
(0.00699993 -0.0411525 0.00313376)
(0.00744947 -0.0381489 0.00310379)
(0.00784355 -0.0346066 0.00307961)
(0.00817182 -0.0305641 0.00306298)
(0.00843067 -0.026084 0.00305463)
(0.00861867 -0.0212436 0.0030544)
(0.00873549 -0.0161259 0.00306126)
(0.00878141 -0.0108136 0.0030732)
(0.00875618 -0.00538746 0.00308681)
(0.00865732 6.95892e-05 0.00309702)
(0.00848301 0.00546398 0.00309712)
(0.00822905 0.010693 0.00307911)
(0.00788555 0.0156641 0.00303521)
(0.00744154 0.0203365 0.00295816)
(0.00688732 0.024785 0.00283871)
(0.00621348 0.0292742 0.00265765)
(0.00541048 0.0343215 0.00237194)
(0.00447829 0.0406561 0.00191345)
(0.0034412 0.0487633 0.00125083)
(0.0023473 0.0576541 0.000518257)
(0.00137507 0.063249 2.49265e-05)
(0.000585788 0.0591378 -0.000106588)
(4.78068e-05 0.0324036 2.15282e-05)
(1.33308e-05 -0.00948273 0.0007829)
(0.000296333 -0.0242492 0.00178938)
(0.000753787 -0.0353335 0.00237821)
(0.00132983 -0.0432893 0.00271352)
(0.0019563 -0.0485451 0.0028945)
(0.0025858 -0.0516945 0.00298162)
(0.00319075 -0.0533579 0.00301195)
(0.00378201 -0.0539922 0.00301263)
(0.00436443 -0.0537896 0.0029992)
(0.00492314 -0.0528463 0.00297514)
(0.00545568 -0.0512473 0.00294224)
(0.0059549 -0.049055 0.00290349)
(0.00641999 -0.0462729 0.00285896)
(0.00684217 -0.0428799 0.00281208)
(0.00720691 -0.0389026 0.00276571)
(0.0075082 -0.0343972 0.00272249)
(0.00774298 -0.0294429 0.00268505)
(0.00790989 -0.024131 0.00265616)
(0.00800904 -0.0185547 0.00263886)
(0.00804171 -0.0128013 0.00263609)
(0.00800962 -0.00694858 0.00264982)
(0.00791399 -0.00106837 0.00267976)
(0.00775407 0.00476679 0.00272201)
(0.00752635 0.0104816 0.00276832)
(0.00722392 0.0160129 0.00280647)
(0.00683623 0.0213474 0.00282146)
(0.0063501 0.026582 0.00279539)
(0.00575052 0.0319979 0.00270278)
(0.00502297 0.0381096 0.00250055)
(0.00416356 0.0455713 0.00212869)
(0.00319283 0.0546419 0.00156114)
(0.00216304 0.0639258 0.000908011)
(0.00125935 0.0690334 0.000419366)
(0.000532923 0.0636269 0.000180534)
(4.3508e-05 0.0342595 0.00010902)
(1.80468e-05 -0.0107727 0.000681066)
(0.00028706 -0.0273807 0.0015713)
(0.000712174 -0.0396298 0.00210366)
(0.00124037 -0.0482148 0.00241297)
(0.00180928 -0.0537113 0.00258184)
(0.0023772 -0.0568858 0.00266375)
(0.00292493 -0.0584826 0.00269304)
(0.00346222 -0.0589993 0.00269238)
(0.00399391 -0.0586427 0.00267892)
(0.00450822 -0.0575182 0.00265665)
(0.00499536 -0.0557165 0.00262786)
(0.00545563 -0.0532685 0.00259235)
(0.00588648 -0.0501468 0.00255241)
(0.00627231 -0.0463636 0.00251127)
(0.00660572 -0.04196 0.00247145)
(0.00688167 -0.037008 0.00243442)
(0.00709657 -0.0316025 0.00240111)
(0.00724846 -0.0258493 0.00237259)
(0.00733703 -0.0198531 0.00235069)
(0.00736335 -0.0137086 0.00233823)
(0.00732922 -0.00749454 0.00233869)
(0.00723644 -0.00127654 0.00235562)
(0.00708599 0.00488757 0.00239092)
(0.00687666 0.0109479 0.00244286)
(0.00660343 0.0168774 0.00250442)
(0.00625661 0.0227048 0.00256251)
(0.00582188 0.0285678 0.00259727)
(0.00528136 0.0347756 0.00257862)
(0.00461782 0.0418348 0.00245971)
(0.00382551 0.0503006 0.00218068)
(0.00292309 0.0601788 0.00171344)
(0.00196913 0.0696765 0.00114545)
(0.00113944 0.0742489 0.000676019)
(0.00047635 0.0675973 0.000368969)
(3.64484e-05 0.0358736 0.00015921)
(1.41885e-05 -0.0120306 0.000599954)
(0.000254289 -0.0304434 0.00140068)
(0.000637581 -0.043844 0.00189195)
(0.00111813 -0.0530631 0.00218479)
(0.0016378 -0.0588211 0.00234853)
(0.00215772 -0.0620527 0.00243053)
(0.0026647 -0.0636165 0.00246221)
(0.0031639 -0.064044 0.00246213)
(0.00365905 -0.063566 0.00244802)
(0.00413723 -0.0622987 0.0024246)
(0.00459366 -0.0603086 0.00239306)
(0.0050292 -0.0575969 0.00235315)
(0.00543269 -0.0541611 0.00230962)
(0.00579638 -0.0500194 0.00226627)
(0.00611414 -0.0452214 0.0022256)
(0.00638081 -0.0398502 0.00218897)
(0.00659235 -0.0340131 0.00215698)
(0.00674594 -0.0278287 0.00213012)
(0.00684012 -0.0214137 0.00210935)
(0.00687466 -0.0148719 0.00209637)
(0.00685041 -0.00828858 0.00209397)
(0.00676884 -0.00172925 0.00210601)
(0.00663111 0.004757 0.00213634)
(0.00643694 0.0111408 0.00218689)
(0.00618306 0.0174295 0.00225558)
(0.00586143 0.0236975 0.0023341)
(0.00545836 0.0301307 0.00240541)
(0.00495561 0.0370741 0.00243944)
(0.00433535 0.0450275 0.00238768)
(0.00359131 0.054443 0.00218871)
(0.00274069 0.0650752 0.00180907)
(0.00184715 0.0747633 0.0013153)
(0.00107161 0.0788862 0.000865602)
(0.000448295 0.0711223 0.000511103)
(3.65231e-05 0.0373094 0.000198757)
(1.61141e-05 -0.0131115 0.000533536)
(0.000244659 -0.0330665 0.00126426)
(0.000607812 -0.047456 0.00172393)
(0.00106167 -0.0572285 0.00200306)
(0.00155053 -0.0632234 0.00216112)
(0.00203801 -0.0665155 0.00224194)
(0.00251615 -0.0680564 0.00227585)
(0.00298679 -0.068406 0.00227936)
(0.00344885 -0.0678222 0.00226536)
(0.00389639 -0.0664166 0.00224102)
(0.00432506 -0.0642339 0.00220696)
(0.00472979 -0.0612788 0.00216771)
(0.00510407 -0.0575539 0.00212769)
(0.00544189 -0.0530822 0.00209016)
(0.00573785 -0.0479215 0.00205687)
(0.00598759 -0.0421638 0.00202823)
(0.00618759 -0.0359257 0.00200381)
(0.00633511 -0.0293347 0.0019829)
(0.00642824 -0.0225174 0.00196515)
(0.00646584 -0.0155866 0.00195111)
(0.00644771 -0.00863568 0.00194278)
(0.00637424 -0.00173523 0.00194392)
(0.00624599 0.00506715 0.00195947)
(0.00606278 0.0117546 0.00199415)
(0.00582208 0.0183626 0.00205061)
(0.00551706 0.0250093 0.00212648)
(0.00513529 0.0319311 0.00221035)
(0.00465948 0.0395121 0.00227582)
(0.00407271 0.0482451 0.00227545)
(0.00336914 0.0584776 0.00214628)
(0.00256492 0.0697221 0.00184726)
(0.00172827 0.0794925 0.00142392)
(0.00100281 0.0831674 0.000998971)
(0.000416846 0.0743499 0.0006146)
(3.37452e-05 0.0386308 0.000228039)
(1.4121e-05 -0.0141856 0.000483019)
(0.000229115 -0.0356929 0.00115556)
(0.000573923 -0.0510871 0.00158305)
(0.00100663 -0.0614215 0.00184267)
(0.00147233 -0.0676563 0.00198794)
(0.00193589 -0.0710121 0.00206043)
(0.00239094 -0.0725349 0.00208934)
(0.00283983 -0.0728167 0.00209085)
(0.0032793 -0.0721251 0.00207368)
(0.00370398 -0.0705726 0.00204411)
(0.00410931 -0.0681985 0.00200668)
(0.00449028 -0.0650092 0.0019662)
(0.00484166 -0.0610099 0.0019269)
(0.0051583 -0.056229 0.00189202)
(0.00543586 -0.0507313 0.00186335)
(0.00567092 -0.0446161 0.00184137)
(0.00586072 -0.0380063 0.00182558)
(0.0060029 -0.0310354 0.00181496)
(0.00609545 -0.0238358 0.00180849)
(0.00613668 -0.0165266 0.00180558)
(0.00612545 -0.00920733 0.00180679)
(0.00606103 -0.00195338 0.00181423)
(0.00594291 0.00518657 0.00183146)
(0.00577025 0.0122025 0.00186302)
(0.00554062 0.0191505 0.00191332)
(0.00524797 0.0261839 0.00198404)
(0.00488116 0.0335838 0.0020695)
(0.00442454 0.0417701 0.00214921)
(0.00386294 0.0512288 0.00218048)
(0.00319154 0.0622081 0.00210204)
(0.00242556 0.0739973 0.00186721)
(0.00163635 0.0838254 0.00150283)
(0.000951319 0.0870998 0.00110156)
(0.000393939 0.0773153 0.000696666)
(3.2701e-05 0.0398514 0.000252623)
(1.57136e-05 -0.0151653 0.000443234)
(0.000227634 -0.0380786 0.00107195)
(0.000565288 -0.0543767 0.00147771)
(0.000985806 -0.0652119 0.00172582)
(0.00143462 -0.0716582 0.00186399)
(0.00187845 -0.0750697 0.0019316)
(0.00231266 -0.0765745 0.00195692)
(0.00273994 -0.0767921 0.0019558)
(0.0031567 -0.0759957 0.00193702)
(0.00355756 -0.0742985 0.00190643)
(0.00393796 -0.0717389 0.00186904)
(0.00429342 -0.0683243 0.00182946)
(0.00461935 -0.0640641 0.00179182)
(0.00491156 -0.058993 0.00175922)
(0.00516687 -0.053183 0.00173331)
(0.005383 -0.0467395 0.00171437)
(0.00555814 -0.03979 0.00170168)
(0.00569058 -0.0324712 0.00169397)
(0.00577854 -0.0249181 0.00168995)
(0.00582013 -0.0172533 0.00168877)
(0.00581349 -0.00958057 0.00169066)
(0.0057568 -0.00197926 0.0016973)
(0.00564836 0.00549884 0.00171177)
(0.00548633 0.0128465 0.00173846)
(0.00526778 0.020134 0.00178255)
(0.00498694 0.0275434 0.00184803)
(0.0046337 0.0353929 0.0019331)
(0.00419415 0.0441324 0.00202233)
(0.00365527 0.0542374 0.002078)
(0.00301364 0.0658607 0.00204146)
(0.00228397 0.078087 0.00186173)
(0.00154028 0.0879024 0.0015495)
(0.000894492 0.090775 0.00117219)
(0.000366677 0.0800656 0.000754935)
(2.98097e-05 0.0409807 0.000269299)
(1.50845e-05 -0.0161599 0.000415644)
(0.000221739 -0.0405034 0.00101003)
(0.00055084 -0.0577126 0.00139418)
(0.000959194 -0.0690378 0.00162676)
(0.00139214 -0.0756771 0.00175323)
(0.00181786 -0.0791293 0.00181242)
(0.0022332 -0.0806057 0.00183167)
(0.002641 -0.0807511 0.00182596)
(0.0030374 -0.0798436 0.00180368)
(0.00341699 -0.0779971 0.00177065)
(0.00377539 -0.0752504 0.00173191)
(0.00410838 -0.0716135 0.00169227)
(0.00441193 -0.0671015 0.00165597)
(0.00468264 -0.0617566 0.0016262)
(0.00491828 -0.0556579 0.00160466)
(0.00511752 -0.0489157 0.0015916)
(0.00527938 -0.0416601 0.00158611)
(0.00540278 -0.0340283 0.00158655)
(0.00548633 -0.0261547 0.00159101)
(0.00552811 -0.0181616 0.00159791)
(0.00552586 -0.010153 0.00160659)
(0.00547695 -0.00220948 0.00161777)
(0.00537857 0.00561526 0.00163364)
(0.0052278 0.0133148 0.00165805)
(0.00502091 0.0209684 0.00169645)
(0.00475201 0.0287783 0.00175445)
(0.00441168 0.0370904 0.00183349)
(0.00398764 0.0463755 0.00192297)
(0.00346904 0.0570935 0.00199087)
(0.00285405 0.0693065 0.00198266)
(0.00215721 0.0819133 0.00184503)
(0.00145446 0.0916926 0.00157526)
(0.000843936 0.0941853 0.00121969)
(0.000342774 0.0826072 0.000795502)
(2.77691e-05 0.0420193 0.000280592)
(1.62276e-05 -0.0171016 0.000394737)
(0.000221402 -0.0427798 0.000963369)
(0.000544991 -0.060823 0.0013321)
(0.00094273 -0.0725832 0.0015539)
(0.00136039 -0.0793854 0.00167214)
(0.00176818 -0.082866 0.00172529)
(0.00216452 -0.0843097 0.00174018)
(0.00255242 -0.0843817 0.00173134)
(0.00292787 -0.0833638 0.001707)
(0.00328558 -0.0813701 0.00167297)
(0.0036214 -0.0784405 0.00163432)
(0.00393149 -0.0745886 0.00159578)
(0.00421235 -0.0698362 0.00156147)
(0.00446141 -0.0642336 0.00153434)
(0.00467729 -0.0578672 0.00151584)
(0.00485949 -0.0508521 0.00150599)
(0.00500779 -0.0433201 0.0015037)
(0.00512168 -0.0354074 0.00150717)
(0.00520013 -0.027246 0.00151435)
(0.00524131 -0.0189553 0.00152346)
(0.00524268 -0.0106371 0.00153363)
(0.00520096 -0.00237109 0.00154521)
(0.00511239 0.00578877 0.00156001)
(0.00497295 0.0138365 0.0015815)
(0.00477805 0.0218579 0.00161515)
(0.00452141 0.0300698 0.00166726)
(0.00419409 0.0388384 0.00174121)
(0.00378522 0.0486461 0.00182985)
(0.00328609 0.0599303 0.00190586)
(0.00269657 0.0726634 0.00191884)
(0.00203139 0.085574 0.00181457)
(0.00136804 0.0952685 0.00157994)
(0.000791945 0.0973777 0.00124445)
(0.000317866 0.0849634 0.000818368)
(2.52104e-05 0.0429736 0.000286015)
(1.58708e-05 -0.0180557 0.000383126)
(0.000216969 -0.0450796 0.000933875)
(0.000532559 -0.06395 0.00128757)
(0.000918168 -0.0761253 0.00149549)
(0.00132002 -0.0830688 0.00160196)
(0.00171016 -0.0865629 0.00164638)
(0.00208832 -0.0879643 0.00165512)
(0.00245752 -0.087956 0.00164208)
(0.00281352 -0.0868226 0.0016152)
(0.00315114 -0.0846789 0.00158027)
(0.00346644 -0.0815668 0.00154239)
(0.00375588 -0.0775049 0.00150636)
(0.00401652 -0.0725229 0.00147622)
(0.00424647 -0.0666798 0.00145476)
(0.00444511 -0.0600689 0.00144317)
(0.00461261 -0.052809 0.00144111)
(0.00474935 -0.0450322 0.00144704)
(0.00485532 -0.0368719 0.00145865)
(0.00492978 -0.0284554 0.00147327)
(0.00497104 -0.0198967 0.00148852)
(0.00497639 -0.0112923 0.00150283)
(0.00494206 -0.00271816 0.00151598)
(0.0048635 0.0057738 0.00152925)
(0.00473572 0.0141784 0.00154592)
(0.00455318 0.0225852 0.00157165)
(0.00430909 0.0312205 0.00161364)
(0.00399476 0.0404621 0.00167711)
(0.00360052 0.0507954 0.00175813)
(0.00311962 0.0626287 0.00183392)
(0.00255361 0.0758455 0.00185841)
(0.00191769 0.0890189 0.0017775)
(0.00129034 0.0986116 0.00157011)
(0.000745767 0.100351 0.0012523)
(0.000296416 0.0871444 0.000828143)
(2.34464e-05 0.0438502 0.000287734)
(1.62736e-05 -0.0189704 0.000375027)
(0.000214304 -0.0472638 0.000910901)
(0.000522359 -0.0668966 0.00125076)
(0.00089575 -0.0794401 0.00144566)
(0.00128163 -0.0864995 0.00154135)
(0.0016541 -0.0899966 0.00157799)
(0.00201411 -0.0913519 0.0015814)
(0.00236462 -0.0912624 0.00156494)
(0.00270126 -0.0900143 0.00153636)
(0.00301904 -0.0877233 0.00150142)
(0.00331428 -0.0844338 0.00146526)
(0.00358382 -0.08017 0.00143262)
(0.00382526 -0.0749706 0.00140737)
(0.00403735 -0.0689034 0.001392)
(0.00422013 -0.0620684 0.00138733)
(0.00437433 -0.054588 0.00139264)
(0.00450079 -0.0465935 0.00140601)
(0.00459988 -0.0382151 0.00142472)
(0.00467112 -0.0295742 0.00144572)
(0.00471287 -0.0207777 0.00146619)
(0.00472226 -0.0119152 0.00148409)
(0.00469512 -0.00305645 0.00149869)
(0.0046262 0.00575049 0.00151083)
(0.00450963 0.0145025 0.00152346)
(0.00433903 0.0232926 0.00154226)
(0.0041071 0.0323531 0.00157487)
(0.00380533 0.042068 0.00162773)
(0.00342512 0.0529173 0.00169932)
(0.00296152 0.0652727 0.00177075)
(0.00241769 0.0789278 0.00180015)
(0.00180951 0.0923117 0.00173471)
(0.0012161 0.101771 0.001548)
(0.000701443 0.103141 0.00124578)
(0.000275964 0.0891719 0.000826926)
(2.16407e-05 0.0446578 0.000286527)
(1.57557e-05 -0.019888 0.000372965)
(0.000209 -0.0494468 0.000898641)
(0.000508029 -0.0698276 0.00122421)
(0.000868601 -0.082719 0.0014036)
(0.00123879 -0.0898768 0.00148607)
(0.00159452 -0.0933664 0.00151319)
(0.00193768 -0.0946694 0.00151019)
(0.00227105 -0.0944947 0.00148975)
(0.00259007 -0.09313 0.00145937)
(0.00288995 -0.090692 0.00142483)
(0.00316719 -0.0872288 0.00139133)
(0.00341899 -0.0827717 0.0013636)
(0.00364343 -0.0773685 0.00134541)
(0.00383985 -0.0710959 0.00133902)
(0.00400881 -0.0640602 0.00134488)
(0.00415153 -0.0563859 0.00136177)
(0.00426926 -0.0482027 0.0013872)
(0.00436269 -0.0396359 0.00141778)
(0.00443157 -0.0307995 0.00144971)
(0.00447435 -0.0217916 0.00147932)
(0.00448809 -0.0126927 0.0015037)
(0.00446827 -0.00356428 0.00152129)
(0.00440899 0.0055516 0.00153227)
(0.00430357 0.0146545 0.00153933)
(0.00414476 0.023839 0.00154832)
(0.00392474 0.0333402 0.00156767)
(0.00363505 0.0435421 0.00160524)
(0.00326804 0.0549126 0.00166196)
(0.00282039 0.0677812 0.00172259)
(0.00229683 0.0818519 0.00174943)
(0.00171397 0.0954199 0.00169157)
(0.00115113 0.104739 0.00151926)
(0.000663336 0.105752 0.00123036)
(0.000259017 0.0910596 0.000819176)
(2.04964e-05 0.0454052 0.000284282)
(1.562e-05 -0.0207714 0.000371669)
(0.000204462 -0.0515301 0.000885904)
(0.000494724 -0.072604 0.00119544)
(0.000842673 -0.0858049 0.00135851)
(0.00119759 -0.0930413 0.00142786)
(0.00153724 -0.0965156 0.00144588)
(0.00186432 -0.0977635 0.00143686)
(0.00218138 -0.0975032 0.00141276)
(0.00248376 -0.096023 0.00138087)
(0.00276685 -0.0934413 0.00134693)
(0.0030274 -0.0898102 0.00131617)
(0.00326295 -0.0851684 0.00129333)
(0.003472 -0.0795736 0.00128203)
(0.00365437 -0.0731113 0.00128431)
(0.00381107 -0.0658937 0.00130033)
(0.00394368 -0.0580472 0.00132857)
(0.00405376 -0.0497 0.00136614)
(0.00414228 -0.0409718 0.0014092)
(0.00420917 -0.0319683 0.0014534)
(0.004253 -0.0227779 0.00149436)
(0.00427074 -0.0134702 0.0015283)
(0.00425761 -0.00409619 0.00155258)
(0.00420722 0.00531021 0.00156636)
(0.00411212 0.014753 0.00157148)
(0.00396431 0.0243285 0.00157344)
(0.00375544 0.0342719 0.00158097)
(0.00347712 0.044963 0.00160304)
(0.00312253 0.0568507 0.00164283)
(0.00268978 0.0702163 0.00168866)
(0.00218504 0.0846732 0.00170714)
(0.00162573 0.0983913 0.0016503)
(0.00109108 0.107554 0.00148707)
(0.00062809 0.108214 0.0012094)
(0.000243457 0.0928271 0.000807522)
(1.93698e-05 0.0461006 0.000281836)
(1.49577e-05 -0.0216507 0.000373573)
(0.000198541 -0.0535964 0.00087854)
(0.000479577 -0.0753466 0.00117171)
(0.000815158 -0.0888394 0.00131738)
(0.0011557 -0.0961417 0.00137269)
(0.00148058 -0.0995939 0.00138099)
(0.00179311 -0.100783 0.00136556)
(0.00209554 -0.100436 0.00133762)
(0.0023831 -0.0988403 0.0013042)
(0.00265132 -0.0961174 0.00127106)
(0.00289716 -0.092324 0.00124349)
(0.00311843 -0.0875072 0.00122624)
(0.00331401 -0.0817343 0.00122286)
(0.00348412 -0.0750998 0.00123523)
(0.0036301 -0.0677208 0.00126324)
(0.00375387 -0.0597252 0.00130503)
(0.00385728 -0.0512383 0.00135727)
(0.00394154 -0.0423735 0.00141556)
(0.00400682 -0.0332275 0.00147485)
(0.00405182 -0.0238775 0.00152995)
(0.00407349 -0.0143808 0.001576)
(0.00406687 -0.00477637 0.0016092)
(0.00402505 0.0049122 0.00162743)
(0.00393989 0.0146942 0.00163152)
(0.00380261 0.0246666 0.00162643)
(0.00360434 0.0350624 0.0016211)
(0.0033367 0.0462526 0.0016256)
(0.00299359 0.0586624 0.00164528)
(0.00257447 0.0725208 0.00167197)
(0.00208677 0.0873505 0.00167668)
(0.00154875 0.101204 0.001615)
(0.00103925 0.11021 0.0014561)
(0.000598255 0.110534 0.00118749)
(0.000230795 0.0944861 0.00079549)
(1.87441e-05 0.0467507 0.000280434)
(1.45434e-05 -0.0224991 0.00037437)
(0.000193327 -0.0555746 0.0008668)
(0.000465821 -0.0779549 0.00114125)
(0.000789905 -0.0917086 0.00126872)
(0.00111718 -0.0990617 0.00131019)
(0.00142856 -0.102486 0.00130915)
(0.00172788 -0.103615 0.00128753)
(0.00201707 -0.103181 0.00125578)
(0.00229128 -0.101471 0.00122064)
(0.00254619 -0.0986108 0.00118784)
(0.00277896 -0.0946606 0.00116273)
(0.00298764 -0.0896766 0.00115008)
(0.00317137 -0.0837362 0.0011534)
(0.00333066 -0.0769423 0.00117451)
(0.00346712 -0.0694176 0.00121324)
(0.00358291 -0.0612911 0.00126759)
(0.00368009 -0.0526855 0.00133408)
(0.00376015 -0.0437079 0.00140801)
(0.00382348 -0.0344455 0.00148389)
(0.00386895 -0.0249632 0.00155581)
(0.00389362 -0.0153046 0.00161792)
(0.00389241 -0.00549406 0.00166499)
(0.00385806 0.00445747 0.00169328)
(0.00378182 0.0145666 0.00170186)
(0.00365421 0.0249312 0.00169444)
(0.00346581 0.03578 0.00167948)
(0.00320819 0.0474712 0.00166776)
(0.00287588 0.0604012 0.0016667)
(0.00246946 0.074742 0.00167172)
(0.00199749 0.0899253 0.00165862)
(0.00147904 0.103893 0.00158741)
(0.00099234 0.112737 0.00142894)
(0.00057124 0.112732 0.0011673)
(0.000219358 0.0960509 0.00078503)
(1.81194e-05 0.0473611 0.000280538)
(1.38398e-05 -0.0233403 0.000376502)
(0.000187501 -0.0575298 0.000857558)
(0.00045157 -0.0805242 0.00111386)
(0.000764869 -0.0945245 0.00122359)
(0.00108005 -0.101919 0.00125157)
(0.00137936 -0.105312 0.00124137)
(0.00166701 -0.106379 0.00121366)
(0.00194462 -0.105857 0.00117808)
(0.00220721 -0.104035 0.00114116)
(0.00245061 -0.101039 0.0011086)
(0.00267211 -0.0969381 0.0010858)
(0.00286994 -0.0917953 0.00107756)
(0.00304346 -0.0856984 0.00108738)
(0.00319339 -0.0787585 0.00111707)
(0.00332154 -0.0711033 0.00116641)
(0.00343024 -0.0628629 0.00123332)
(0.00352179 -0.0541569 0.00131415)
(0.00359793 -0.0450859 0.00140399)
(0.00365929 -0.0357271 0.00149693)
(0.00370496 -0.0261325 0.00158646)
(0.00373214 -0.0163311 0.00166583)
(0.00373569 -0.00633127 0.00172855)
(0.00370809 0.00387099 0.00176917)
(0.00364006 0.0143013 0.0017849)
(0.00352141 0.0250582 0.00177773)
(0.00334221 0.0363646 0.00175524)
(0.00309393 0.0485631 0.00172841)
(0.00277162 0.0620169 0.00170642)
(0.00237684 0.0768385 0.00168812)
(0.00191914 0.0923686 0.00165421)
(0.00141832 0.106445 0.00156976)
(0.000951881 0.115133 0.00140842)
(0.000548317 0.114815 0.00115168)
(0.000209991 0.0975305 0.000778152)
(1.7817e-05 0.0479365 0.000282693)
(1.33457e-05 -0.0241537 0.000376633)
(0.000182477 -0.0594075 0.000842747)
(0.000439127 -0.0829774 0.00107897)
(0.00074294 -0.0971996 0.00117055)
(0.00104753 -0.104625 0.00118534)
(0.00133636 -0.107982 0.00116633)
(0.00161393 -0.108986 0.00113261)
(0.00188154 -0.108376 0.00109303)
(0.00213416 -0.106443 0.00105385)
(0.0023677 -0.103316 0.00102071)
(0.00257957 -0.0990683 0.000999047)
(0.00276812 -0.0937727 0.000993709)
(0.00293285 -0.087527 0.00100827)
(0.00307458 -0.0804505 0.00104461)
(0.00319523 -0.0726761 0.00110266)
(0.0032973 -0.0643354 0.0011805)
(0.00338327 -0.0555454 0.00127457)
(0.00345511 -0.0464005 0.00137994)
(0.00351374 -0.0369676 0.00149055)
(0.00355855 -0.0272853 0.00159945)
(0.00358693 -0.0173663 0.00169906)
(0.00359387 -0.00720121 0.00178156)
(0.00357168 0.00323141 0.00183963)
(0.00351067 0.0139684 0.00186809)
(0.00340005 0.0251099 0.00186662)
(0.00322933 0.0368717 0.00184118)
(0.00298981 0.0495773 0.00180247)
(0.00267688 0.0635528 0.0017611)
(0.00229296 0.0788478 0.00171935)
(0.00184839 0.094712 0.00166302)
(0.00136366 0.108884 0.00156285)
(0.000915516 0.117418 0.0013962)
(0.000527709 0.116797 0.00114235)
(0.000201562 0.0989339 0.000775953)
(1.75017e-05 0.0484807 0.000286989)
(1.26857e-05 -0.024959 0.000377103)
(0.000177255 -0.0612619 0.000829244)
(0.000426896 -0.0853938 0.00104671)
(0.000722119 -0.0998265 0.00112142)
(0.00101734 -0.107275 0.00112396)
(0.00129705 -0.110594 0.00109667)
(0.00156599 -0.111534 0.00105723)
(0.00182514 -0.110837 0.00101374)
(0.00206936 -0.108795 0.000972201)
(0.00229467 -0.105539 0.000938206)
(0.00249855 -0.101148 0.000917195)
(0.0026794 -0.0957055 0.000914036)
(0.00283676 -0.089318 0.000932357)
(0.00297155 -0.0821131 0.000974154)
(0.00308573 -0.0742288 0.0010395)
(0.0031819 -0.0657984 0.00112665)
(0.00326271 -0.0569364 0.00123223)
(0.00333037 -0.0477311 0.00135142)
(0.00338606 -0.0382395 0.00147818)
(0.00342947 -0.0284866 0.00160538)
(0.00345826 -0.0184684 0.00172492)
(0.0034676 -0.00815639 0.00182795)
(0.00344977 0.00249023 0.00190543)
(0.00339478 0.0135219 0.00194974)
(0.00329131 0.0250417 0.00195786)
(0.00312836 0.0372577 0.0019335)
(0.00289699 0.0504723 0.00188638)
(0.00259284 0.0649715 0.00182795)
(0.00221894 0.0807394 0.00176354)
(0.0017863 0.096935 0.00168411)
(0.00131603 0.111203 0.00156652)
(0.000884164 0.11959 0.00139259)
(0.000510262 0.118684 0.00113978)
(0.000194705 0.100269 0.000778593)