/*--------------------------------*- C++ -*----------------------------------*\
| =========                 |                                                 |
| \\      /  F ield         | OpenFOAM: The Open Source CFD Toolbox           |
|  \\    /   O peration     | Version:  v2006                                 |
|   \\  /    A nd           | Website:  www.openfoam.com                      |
|    \\/     M anipulation  |                                                 |
\*---------------------------------------------------------------------------*/
FoamFile
{
    version     2.0;
    format      ascii;
    class       volScalarField;
    location    "14";
    object      alphat;
}
// * * * * * * * * * * * * * * * * * * * * * * * * * * * * * * * * * * * * * //

dimensions      [1 -1 -1 0 0 0 0];


internalField   nonuniform List<scalar> 
78750
(
1.18851e-06
2.10057e-05
5.7846e-05
3.72392e-05
3.22673e-05
4.74516e-05
9.18281e-05
0.000137805
0.000123995
0.000100205
7.87988e-05
5.79676e-05
3.88838e-05
2.3956e-05
1.51622e-05
1.48178e-05
2.84454e-05
6.35044e-05
9.27703e-05
0.000107184
0.000119508
0.00012914
0.000136407
0.000143063
0.000150046
0.000157354
0.000164407
0.000169896
0.000171329
0.000165523
0.000151938
0.000134821
0.000120532
9.81812e-05
6.23352e-06
2.69344e-05
0.000124904
0.000344912
9.24846e-05
7.92501e-05
0.000119723
0.000204635
0.000319816
0.000449235
0.000574225
0.000673591
0.000739313
0.000777093
0.000783535
0.000744192
0.000671255
0.000602761
0.000566067
0.000553688
0.000539289
0.000505599
0.000453358
0.000397184
0.000351472
0.000320194
0.0002995
0.000283194
0.00026649
0.000247819
0.000228403
0.00021068
0.000198675
0.000190429
0.000146548
9.25518e-06
1.73837e-05
1.82671e-05
4.65108e-05
8.38903e-05
0.000154905
0.000242595
0.000306319
0.000339431
0.00035597
0.000366952
0.00037592
0.000383319
0.000387714
0.000386424
0.000377081
0.000359918
0.00034032
0.000327158
0.000328099
0.000346343
0.00037804
0.000408444
0.000419712
0.000409493
0.000391442
0.000374253
0.000361476
0.000356956
0.000357443
0.00035397
0.000337845
0.000294093
0.00020823
9.85986e-05
8.58484e-06
6.93828e-06
8.7702e-05
0.000130623
0.000146979
0.000152421
0.000156945
0.000162451
0.000169242
0.000176902
0.000184885
0.000193063
0.000201955
0.000211554
0.000219489
0.000223843
0.000225162
0.000225717
0.000228101
0.000233059
0.000240154
0.000248976
0.000256141
0.000254244
0.000244665
0.000230934
0.000216194
0.000207678
0.000211058
0.000222147
0.000227655
0.000225443
0.000231098
0.000231408
0.000162357
1.34161e-05
2.57197e-06
2.82522e-05
4.90828e-05
5.30364e-05
5.2777e-05
5.24651e-05
5.25153e-05
5.27761e-05
5.31157e-05
5.35612e-05
5.41727e-05
5.49901e-05
5.651e-05
5.90263e-05
6.26089e-05
6.80764e-05
7.60853e-05
8.51548e-05
9.48933e-05
0.000104981
0.000108565
0.000109636
0.000126308
0.000168855
0.000217151
0.000247448
0.00028076
0.000297978
0.000257881
0.000183157
9.2089e-05
7.34818e-05
6.9414e-05
8.9827e-05
1.50876e-05
6.21764e-06
4.08291e-05
8.45494e-05
0.000104278
0.00011137
0.000114925
0.000116493
0.000116533
0.000115876
0.000115792
0.000114819
0.000110482
0.00010706
0.000108839
0.000110462
0.000100147
9.87482e-05
0.000139155
0.000261443
0.000254727
0.000147033
9.5759e-05
5.78167e-05
3.67116e-05
3.40244e-05
4.48775e-05
6.06006e-05
6.46593e-05
5.95354e-05
5.65696e-05
6.23646e-05
6.85072e-05
8.72326e-05
0.000137696
1.46116e-05
1.02843e-05
7.74326e-05
0.000175552
0.000188718
0.000189841
0.000186671
0.000178933
0.000166134
0.00015415
0.00015421
9.89169e-05
3.99202e-05
3.2252e-05
4.81193e-05
9.08975e-05
8.24491e-05
3.56394e-05
3.32277e-05
5.48548e-05
9.24731e-05
0.000118422
0.0001205
0.000120231
0.000132669
0.00016023
0.000192499
0.000207516
0.000200096
0.000192302
0.00020222
0.000234068
0.000282415
0.000304993
0.000123274
1.2693e-05
9.13512e-06
7.51694e-05
0.000184332
0.00020878
0.000223655
0.000231502
0.000226099
0.000185548
0.00011194
6.56756e-05
5.29017e-05
6.09325e-05
6.16759e-05
4.03299e-05
3.12834e-05
3.84289e-05
5.98201e-05
9.26393e-05
0.000132166
0.000173044
0.000208287
0.000234278
0.000251459
0.000262141
0.000270215
0.000279933
0.000294895
0.000317019
0.00034352
0.000364346
0.000370492
0.000357631
0.00027911
0.000105026
1.22881e-05
8.88747e-06
6.53308e-05
0.000207804
0.00022746
0.000226373
0.000210767
0.000168297
0.000113421
7.53669e-05
5.19682e-05
3.72472e-05
3.14126e-05
3.26796e-05
3.24609e-05
3.03627e-05
3.69665e-05
5.93564e-05
9.66549e-05
0.000135275
0.000166391
0.000189235
0.000203812
0.000210788
0.000212057
0.000209985
0.00020696
0.000205307
0.000207542
0.000217512
0.00024113
0.000280506
0.000313018
0.000267076
9.9645e-05
1.24265e-05
9.8901e-06
8.73036e-05
0.000209633
0.000232334
0.000232693
0.00021618
0.000183058
0.000139305
9.75106e-05
6.50989e-05
4.40057e-05
3.44424e-05
3.41648e-05
3.64276e-05
3.20024e-05
2.95738e-05
3.83663e-05
6.23095e-05
9.80342e-05
0.000133453
0.000164214
0.000191471
0.000213509
0.000226345
0.000227407
0.00021722
0.000199207
0.000178544
0.000162468
0.000160568
0.00017786
0.000198297
0.000164131
5.97597e-05
9.57092e-06
9.2803e-06
6.83079e-05
0.000205998
0.000226016
0.00021902
0.000189015
0.000138961
9.30314e-05
6.59708e-05
5.23522e-05
4.35143e-05
3.44741e-05
2.80602e-05
2.8552e-05
3.39344e-05
3.59372e-05
3.54968e-05
4.09715e-05
5.61407e-05
8.20377e-05
0.000116375
0.000152467
0.000184262
0.0002081
0.000220576
0.000219177
0.000202923
0.000174842
0.000150302
0.00014737
0.00016714
0.000180586
0.000131844
5.01082e-05
6.77736e-06
9.10995e-06
5.96076e-05
0.000186129
0.00023028
0.000229985
0.000211728
0.000184645
0.000153052
0.000116603
8.22565e-05
5.91158e-05
4.59388e-05
3.80004e-05
3.44482e-05
3.80283e-05
4.94046e-05
5.65374e-05
4.90076e-05
4.03853e-05
3.9042e-05
4.65025e-05
6.22197e-05
8.24109e-05
0.000101742
0.000117707
0.000131815
0.000148779
0.000170037
0.00019143
0.000208825
0.000208081
0.000176274
0.000128429
6.56518e-05
8.09887e-06
9.87199e-06
5.84172e-05
0.000187426
0.000215146
0.000200804
0.000170887
0.000133446
0.000101194
8.17814e-05
7.21544e-05
6.39456e-05
5.20359e-05
3.93149e-05
2.93659e-05
2.33494e-05
2.23277e-05
2.83461e-05
4.25217e-05
6.49764e-05
0.000100439
0.000158569
0.000216601
0.000216027
0.000174828
0.0001384
0.000115306
0.000103825
0.000106579
0.000129029
0.000153581
0.000103373
6.52398e-05
6.91455e-05
8.30899e-05
8.99508e-06
1.05519e-05
6.10247e-05
0.00018959
0.00022048
0.000209328
0.000183289
0.000145625
0.000106902
7.8653e-05
6.13505e-05
5.18253e-05
4.8887e-05
5.05419e-05
5.3582e-05
6.00885e-05
6.56623e-05
6.35281e-05
5.96047e-05
6.12265e-05
7.26428e-05
9.9411e-05
0.000150639
0.000211947
0.000210179
0.00016888
0.000138267
9.70157e-05
3.91153e-05
2.43827e-05
2.59837e-05
3.54351e-05
5.44483e-05
0.000100099
3.5487e-05
6.14192e-06
1.05582e-05
6.75214e-05
0.000198198
0.000227927
0.000222471
0.000194114
0.000142993
9.62166e-05
6.8464e-05
5.15847e-05
3.98323e-05
3.33994e-05
2.69473e-05
1.71687e-05
1.58396e-05
3.04793e-05
6.43319e-05
9.39076e-05
0.000106796
0.000115032
0.000125349
0.000138993
0.000148057
0.000143142
0.000128594
0.000111021
8.37208e-05
5.72932e-05
5.0695e-05
6.63224e-05
0.000109922
0.000102849
3.31906e-05
1.28595e-05
2.37123e-06
1.01553e-05
6.87169e-05
0.000185906
0.000210001
0.000204718
0.000168018
0.000110543
6.68887e-05
3.93814e-05
2.10061e-05
1.31623e-05
1.97449e-05
6.27838e-05
4.3037e-05
3.16434e-05
3.46696e-05
4.90992e-05
6.68867e-05
9.00465e-05
0.000123451
0.000154718
0.000158221
0.000135575
0.000106917
8.69768e-05
7.76489e-05
7.57805e-05
8.10483e-05
9.71965e-05
0.000122028
0.000130367
8.72623e-05
3.65665e-05
1.48168e-05
3.55386e-06
9.6542e-06
6.17469e-05
0.000182477
0.000212393
0.000200584
0.000166447
0.000124704
8.89649e-05
6.21742e-05
4.02823e-05
2.09819e-05
1.10719e-05
1.30884e-05
3.41162e-05
0.000147269
0.000114836
6.95907e-05
5.23676e-05
4.94203e-05
5.51395e-05
6.91053e-05
0.000101988
0.000180608
0.000224099
0.000150245
7.91344e-05
4.73681e-05
4.08823e-05
5.12284e-05
7.80048e-05
9.98376e-05
8.27561e-05
4.84081e-05
2.52738e-05
5.42551e-06
1.00938e-05
6.01541e-05
0.000191968
0.000217865
0.000192373
0.000146745
0.000107852
8.65736e-05
7.69273e-05
7.01178e-05
5.93654e-05
4.23389e-05
2.30052e-05
1.25133e-05
1.28533e-05
2.24113e-05
5.84114e-05
0.000189026
0.000152723
0.000106677
8.02895e-05
6.07106e-05
4.63653e-05
4.43348e-05
6.0365e-05
9.89722e-05
0.000161325
0.000147052
0.000100337
8.02571e-05
9.52713e-05
0.000138791
0.000108369
4.4075e-05
6.47176e-06
1.024e-05
5.81253e-05
0.000179254
0.000207109
0.000182178
0.000136267
9.78898e-05
7.88079e-05
7.27796e-05
6.96975e-05
6.38245e-05
5.85971e-05
5.3513e-05
4.12772e-05
2.39916e-05
1.33514e-05
1.29701e-05
2.11222e-05
4.24559e-05
8.97549e-05
0.000120354
9.79049e-05
6.93043e-05
4.56029e-05
3.31247e-05
3.71525e-05
5.09962e-05
7.13249e-05
9.05616e-05
9.31083e-05
9.75776e-05
0.000110069
0.00011593
5.49898e-05
8.29165e-06
1.13044e-05
7.31244e-05
0.000207729
0.00021455
0.000176331
0.000124678
9.22792e-05
8.27343e-05
8.83236e-05
9.81402e-05
9.58188e-05
7.94166e-05
6.61932e-05
6.07785e-05
5.31106e-05
3.67419e-05
2.13389e-05
1.44425e-05
1.53496e-05
2.34354e-05
3.98859e-05
6.10606e-05
7.133e-05
5.88043e-05
3.22778e-05
1.83163e-05
2.15236e-05
4.17233e-05
6.59246e-05
8.46929e-05
9.75924e-05
0.000102509
8.67537e-05
3.20995e-05
6.3905e-06
1.12561e-05
7.89574e-05
0.000185293
0.000176017
0.000135206
9.18029e-05
6.79056e-05
6.11177e-05
6.5527e-05
7.70473e-05
9.03579e-05
9.66703e-05
9.18244e-05
8.38294e-05
7.74903e-05
6.66901e-05
4.84207e-05
3.0876e-05
2.03184e-05
1.6769e-05
1.90326e-05
2.74335e-05
4.51516e-05
8.28744e-05
0.000106754
7.55811e-05
6.2742e-05
7.31356e-05
9.68254e-05
0.00011716
0.000124387
0.000106493
5.95154e-05
2.0083e-05
4.04808e-06
1.1026e-05
7.61765e-05
0.000193923
0.000200504
0.000174971
0.000136386
0.000104593
8.70785e-05
8.08639e-05
8.04501e-05
8.02895e-05
7.7555e-05
7.41761e-05
7.31847e-05
7.54124e-05
7.88653e-05
7.8072e-05
6.74717e-05
5.05723e-05
3.61221e-05
2.75749e-05
2.54871e-05
3.15466e-05
4.53374e-05
6.04088e-05
6.2457e-05
5.78295e-05
6.26498e-05
8.13244e-05
0.000110128
0.000124334
0.000106309
7.22109e-05
2.4944e-05
5.64248e-06
1.02474e-05
5.91002e-05
0.000173371
0.000195862
0.00017971
0.000144579
0.000103951
7.44222e-05
5.91913e-05
5.50172e-05
6.02443e-05
7.40397e-05
9.14204e-05
0.000103166
0.000106808
0.00010754
0.000108196
0.000105105
9.16602e-05
6.77333e-05
4.25298e-05
2.39893e-05
1.59262e-05
1.69351e-05
2.70353e-05
4.12036e-05
5.8478e-05
7.57579e-05
9.01652e-05
0.000100465
0.000101073
9.43009e-05
8.34761e-05
3.48758e-05
7.77321e-06
1.02768e-05
5.39058e-05
0.000165988
0.00020317
0.000194436
0.000173662
0.000148435
0.000120065
8.97683e-05
6.58691e-05
5.37327e-05
5.3189e-05
6.39326e-05
8.61644e-05
0.000116556
0.00014565
0.000164434
0.000170235
0.000160073
0.000127647
7.92896e-05
3.87742e-05
1.93886e-05
1.32852e-05
1.49809e-05
2.49174e-05
3.95153e-05
5.89239e-05
8.27986e-05
0.000100145
0.000108005
0.000111097
9.69389e-05
3.14217e-05
7.70759e-06
1.11025e-05
5.98113e-05
0.000178168
0.000206292
0.000179475
0.000132593
9.61819e-05
8.30281e-05
8.55722e-05
8.53334e-05
7.25503e-05
6.31541e-05
6.58687e-05
8.19963e-05
0.000113591
0.000162098
0.0002154
0.000246023
0.000249129
0.000225199
0.000138758
5.44739e-05
2.26408e-05
1.29939e-05
1.10972e-05
1.59484e-05
2.92031e-05
4.80017e-05
7.23171e-05
9.7908e-05
0.000114337
0.000118925
0.000107136
3.48949e-05
8.56003e-06
1.16007e-05
7.86311e-05
0.000197779
0.000201127
0.000171867
0.000122838
8.43355e-05
6.86185e-05
6.97182e-05
7.79846e-05
8.1825e-05
8.27112e-05
9.21621e-05
0.000117956
0.000162615
0.000216026
0.000254091
0.000261957
0.000211611
8.91159e-05
2.63577e-05
9.91622e-06
1.22855e-05
2.1289e-05
2.19168e-05
2.48546e-05
3.62557e-05
5.12872e-05
6.70732e-05
8.33233e-05
9.74631e-05
0.000109066
0.000106564
3.48077e-05
9.06335e-06
1.09313e-05
7.19662e-05
0.00018975
0.000191974
0.000157358
0.000110383
7.74932e-05
6.33399e-05
6.31962e-05
7.1876e-05
8.20293e-05
8.9826e-05
0.000101163
0.000124122
0.000163239
0.000219475
0.000276438
0.000258307
0.000139001
5.15888e-05
1.79939e-05
7.30221e-06
8.92185e-06
2.31287e-05
3.52306e-05
3.921e-05
4.54917e-05
5.31769e-05
6.08814e-05
7.18847e-05
8.8478e-05
0.000104262
7.68264e-05
2.48146e-05
7.34803e-06
1.08048e-05
6.98114e-05
0.00019247
0.000195229
0.000162162
0.000119626
8.71073e-05
6.8696e-05
6.17393e-05
6.35707e-05
7.13965e-05
8.23859e-05
9.60685e-05
0.000114771
0.000140141
0.000169311
0.000192844
0.000195561
0.000162709
0.000100559
4.80643e-05
2.28309e-05
1.49153e-05
1.68287e-05
2.2037e-05
2.69109e-05
3.30747e-05
4.07988e-05
4.99459e-05
6.30074e-05
8.22282e-05
9.51685e-05
5.98755e-05
2.00912e-05
5.90312e-06
1.1024e-05
7.39342e-05
0.000197886
0.000192939
0.000151617
0.000106365
7.85081e-05
6.73443e-05
6.67472e-05
7.16704e-05
7.82998e-05
8.5521e-05
9.56668e-05
0.000112066
0.000135923
0.000164624
0.000190775
0.000200884
0.000179094
0.000126822
7.37262e-05
4.15754e-05
2.79313e-05
2.48748e-05
2.54806e-05
2.59994e-05
2.74461e-05
3.14184e-05
4.02443e-05
5.7177e-05
8.03671e-05
8.96577e-05
5.60159e-05
2.05414e-05
6.14516e-06
1.07914e-05
7.04075e-05
0.000192775
0.000189372
0.000149838
0.000105497
7.61387e-05
6.18847e-05
5.8852e-05
6.49073e-05
7.76065e-05
9.24911e-05
0.000106851
0.000123566
0.000147224
0.000178262
0.000208966
0.000222489
0.000199694
0.000141058
7.96581e-05
4.2145e-05
2.63849e-05
2.38241e-05
2.73282e-05
3.00492e-05
3.11469e-05
3.32892e-05
4.03719e-05
5.88627e-05
8.6829e-05
9.39322e-05
5.80047e-05
2.19969e-05
6.44113e-06
1.09441e-05
7.2096e-05
0.000192922
0.000183086
0.000137356
9.61632e-05
7.46024e-05
6.64709e-05
6.50777e-05
6.79701e-05
7.52692e-05
8.66682e-05
0.000101135
0.00011887
0.000141736
0.00017057
0.000200617
0.000219468
0.000213374
0.000177555
0.000122174
7.05728e-05
3.85343e-05
2.38361e-05
1.95176e-05
2.03729e-05
2.38265e-05
3.03249e-05
4.25956e-05
6.52596e-05
9.56849e-05
0.000104357
6.33073e-05
2.24538e-05
6.01302e-06
1.07708e-05
7.02681e-05
0.000188844
0.000174147
0.000124856
8.42461e-05
6.41474e-05
5.77832e-05
6.03037e-05
6.94048e-05
8.24229e-05
9.6403e-05
0.00011044
0.000126043
0.00014547
0.000169678
0.000196037
0.000216983
0.000222912
0.000208492
0.000175502
0.00013144
8.77783e-05
5.42813e-05
3.28709e-05
2.08516e-05
1.62192e-05
1.83404e-05
2.86971e-05
5.26871e-05
8.75717e-05
0.00010001
6.40886e-05
2.21853e-05
5.38249e-06
1.08105e-05
6.99282e-05
0.000190068
0.000175995
0.000126335
8.79702e-05
7.00296e-05
6.28502e-05
6.05116e-05
6.3281e-05
7.25738e-05
8.73613e-05
0.000104919
0.000123666
0.00014425
0.000167702
0.00019274
0.00021435
0.000225448
0.000221309
0.000202612
0.000174105
0.00014108
0.000107218
7.50879e-05
4.77115e-05
2.84369e-05
1.8878e-05
1.91186e-05
3.20414e-05
6.35501e-05
8.73316e-05
6.41893e-05
2.26748e-05
5.04064e-06
1.07145e-05
6.67996e-05
0.000182904
0.000165384
0.000111328
7.44164e-05
6.09326e-05
5.98414e-05
6.27375e-05
6.65642e-05
7.38776e-05
8.72818e-05
0.000106144
0.000127898
0.000150919
0.000175044
0.000199334
0.000219912
0.000230688
0.000227029
0.000209219
0.0001826
0.000154639
0.000130526
0.000109912
8.81942e-05
6.34704e-05
4.13827e-05
2.85984e-05
2.78446e-05
4.30241e-05
7.44e-05
7.34975e-05
2.51092e-05
5.21763e-06
1.08463e-05
6.76707e-05
0.000180912
0.000164996
0.00011308
7.61582e-05
6.2633e-05
6.22663e-05
6.59057e-05
6.82471e-05
7.10937e-05
7.91662e-05
9.47142e-05
0.00011672
0.000142627
0.00017026
0.000197635
0.0002211
0.00023504
0.000234391
0.000217952
0.000189536
0.000156926
0.000129029
0.000111282
0.000102463
9.44522e-05
7.82019e-05
5.66407e-05
4.13315e-05
3.92104e-05
5.6834e-05
8.53704e-05
2.87572e-05
5.35829e-06
1.05812e-05
6.28243e-05
0.000173638
0.000161283
0.000109337
7.09511e-05
5.70597e-05
5.85471e-05
6.77775e-05
7.6384e-05
7.96654e-05
8.21817e-05
9.08859e-05
0.000108714
0.000134634
0.000165472
0.000197412
0.000225797
0.00024487
0.000249273
0.000236778
0.000209353
0.00017262
0.000135223
0.00010606
8.96757e-05
8.47754e-05
8.39947e-05
7.53956e-05
5.86687e-05
4.92568e-05
6.00792e-05
9.27387e-05
3.01537e-05
5.01696e-06
1.07904e-05
6.34603e-05
0.000174018
0.00016723
0.000119043
7.73661e-05
5.93446e-05
5.77397e-05
6.57672e-05
7.68235e-05
8.37004e-05
8.48064e-05
8.64615e-05
9.5704e-05
0.000115662
0.000145735
0.000182218
0.000218738
0.000247532
0.000261648
0.00025764
0.000236325
0.000201436
0.000158981
0.000117612
8.58644e-05
6.72832e-05
6.03852e-05
6.04191e-05
6.05075e-05
6.14179e-05
7.44561e-05
9.10587e-05
2.7185e-05
4.40584e-06
1.0579e-05
6.01618e-05
0.000169088
0.000162957
0.000114027
7.28187e-05
5.53165e-05
5.41314e-05
6.41088e-05
8.13182e-05
9.8182e-05
0.000105418
0.000102756
0.000100439
0.000107705
0.00012835
0.000161668
0.000201745
0.000238252
0.000261128
0.000265576
0.000252279
0.00022432
0.000185289
0.000140319
9.77538e-05
6.5916e-05
4.77345e-05
4.17071e-05
4.53965e-05
5.65186e-05
7.2641e-05
7.26865e-05
2.22792e-05
3.92963e-06
1.08279e-05
6.08781e-05
0.000169734
0.000167183
0.000121979
7.90472e-05
5.80986e-05
5.34182e-05
5.93187e-05
7.27699e-05
9.03509e-05
0.000105944
0.000112779
0.000110987
0.000109324
0.000116799
0.000137781
0.000171283
0.000209691
0.000240673
0.000255081
0.000251676
0.000233675
0.000204347
0.000166267
0.000123501
8.37479e-05
5.48597e-05
3.93142e-05
3.59111e-05
4.38186e-05
5.96624e-05
6.02997e-05
1.98046e-05
3.83376e-06
1.08009e-05
6.13085e-05
0.000169493
0.000161684
0.000112537
7.24745e-05
5.52806e-05
5.34456e-05
6.17967e-05
7.72302e-05
9.61534e-05
0.000113765
0.000124754
0.000126496
0.000122844
0.000122249
0.000131766
0.000154099
0.000186262
0.000218712
0.00023985
0.000244374
0.00023429
0.000213649
0.000185297
0.000150941
0.000113365
7.86483e-05
5.36694e-05
4.13151e-05
4.18969e-05
5.55436e-05
6.41857e-05
2.1672e-05
4.09628e-06
1.10411e-05
6.39822e-05
0.000172617
0.000163005
0.000115018
7.46601e-05
5.61201e-05
5.2727e-05
5.9461e-05
7.3408e-05
9.12773e-05
0.000108924
0.000122169
0.000128373
0.000128541
0.000127801
0.000132562
0.000147147
0.000171814
0.000201327
0.000225821
0.000237048
0.000233673
0.000219163
0.000197333
0.000170479
0.000139762
0.000107102
7.7328e-05
5.68011e-05
4.96872e-05
5.92766e-05
7.92929e-05
2.76578e-05
4.51759e-06
1.09472e-05
6.49834e-05
0.000171859
0.000158619
0.000109631
7.17057e-05
5.53761e-05
5.35132e-05
6.14626e-05
7.62478e-05
9.41667e-05
0.000110997
0.00012339
0.000130025
0.000132203
0.000133643
0.000139044
0.000152091
0.000173632
0.000200152
0.000223742
0.000236453
0.00023556
0.000223483
0.000204058
0.000180108
0.000153022
0.000123538
9.38457e-05
6.95937e-05
5.77642e-05
6.43496e-05
8.9581e-05
3.28071e-05
4.81716e-06
1.11127e-05
6.79075e-05
0.000175414
0.000161282
0.000113517
7.49421e-05
5.70028e-05
5.33709e-05
5.9365e-05
7.20584e-05
8.80113e-05
0.000103321
0.000115141
0.000122825
0.000127876
0.000133188
0.000142118
0.000157331
0.000179292
0.000204785
0.00022686
0.000238496
0.000237107
0.000224685
0.000204761
0.000180198
0.000152683
0.000123329
9.44655e-05
7.14008e-05
6.0772e-05
6.87074e-05
9.38301e-05
3.26261e-05
4.82215e-06
1.09899e-05
6.96684e-05
0.000176182
0.000159034
0.000111055
7.47723e-05
5.8665e-05
5.61421e-05
6.26752e-05
7.5039e-05
8.92621e-05
0.000101412
0.000109741
0.00011548
0.000121384
0.000130047
0.000143431
0.000162641
0.000186922
0.000212448
0.000232599
0.000241388
0.000237046
0.000221632
0.000198449
0.000170449
0.000140227
0.000110666
8.52692e-05
6.79974e-05
6.3142e-05
7.57633e-05
9.55603e-05
2.92478e-05
4.54561e-06
1.10467e-05
7.10978e-05
0.000178818
0.00016238
0.0001156
7.84203e-05
6.07003e-05
5.65491e-05
6.15227e-05
7.26415e-05
8.60159e-05
9.70678e-05
0.000103325
0.000106584
0.000111186
0.00012069
0.000136714
0.000159172
0.00018604
0.000212769
0.000232815
0.000240614
0.000234426
0.000216042
0.000188684
0.000155999
0.000122622
9.39792e-05
7.40263e-05
6.43786e-05
6.69328e-05
8.41844e-05
9.15138e-05
2.54709e-05
4.12252e-06
1.09183e-05
7.17429e-05
0.000178621
0.000160414
0.000114275
7.99166e-05
6.43052e-05
6.10762e-05
6.59198e-05
7.62573e-05
8.88104e-05
9.90982e-05
0.000103564
0.000102964
0.000102562
0.000107885
0.000121832
0.00014456
0.000173405
0.000202817
0.000225516
0.000235532
0.000230652
0.000212132
0.000183005
0.000147505
0.000111833
8.30518e-05
6.55038e-05
6.01677e-05
6.77316e-05
8.61685e-05
8.12091e-05
2.2234e-05
3.74609e-06
1.09373e-05
7.1932e-05
0.000179539
0.000161125
0.000115008
8.07512e-05
6.54704e-05
6.26768e-05
6.78259e-05
7.83447e-05
9.14687e-05
0.000103198
0.000109049
0.000107017
0.000100781
9.76192e-05
0.000103059
0.000119177
0.000144897
0.000175588
0.000203262
0.000219994
0.000221792
0.000208845
0.000183591
0.000149874
0.000113828
8.32801e-05
6.3882e-05
5.74989e-05
6.48244e-05
8.18063e-05
7.30411e-05
2.04576e-05
3.5518e-06
1.07987e-05
7.13061e-05
0.000177842
0.000158891
0.000113606
8.1455e-05
6.80242e-05
6.65565e-05
7.24024e-05
8.30764e-05
9.64352e-05
0.000109469
0.000118047
0.000118237
0.000109889
9.89625e-05
9.34208e-05
9.79708e-05
0.000113671
0.000138754
0.000167745
0.000191874
0.000203726
0.000200926
0.000184853
0.000158425
0.000126256
9.53779e-05
7.2955e-05
6.31014e-05
6.7604e-05
8.31724e-05
7.56142e-05
2.14016e-05
3.57573e-06
1.07427e-05
6.90708e-05
0.000176023
0.000158895
0.000113746
8.11828e-05
6.78754e-05
6.70696e-05
7.38933e-05
8.55797e-05
0.000100057
0.000115023
0.000127257
0.000132452
0.000127076
0.000112739
9.74315e-05
8.92605e-05
9.18277e-05
0.000105263
0.000127698
0.000153878
0.000175062
0.000184152
0.000179549
0.000163268
0.000138903
0.000111955
8.95656e-05
7.79982e-05
8.11384e-05
9.6838e-05
9.05602e-05
2.53157e-05
3.74031e-06
1.06239e-05
6.68525e-05
0.000172646
0.00015656
0.000112147
8.07831e-05
6.85036e-05
6.85307e-05
7.61794e-05
8.88425e-05
0.000104547
0.000121335
0.000136822
0.000147501
0.000148649
0.000137099
0.000116602
9.70075e-05
8.60556e-05
8.59967e-05
9.63161e-05
0.00011535
0.000138461
0.000157091
0.000164109
0.000158375
0.000143008
0.000123123
0.000105234
9.60356e-05
0.000100491
0.000116068
0.000107588
2.97299e-05
3.88858e-06
1.05999e-05
6.44948e-05
0.000169871
0.00015453
0.000109711
7.89102e-05
6.7532e-05
6.83312e-05
7.66792e-05
9.03053e-05
0.000107527
0.000126532
0.000145281
0.000161098
0.000169797
0.000165977
0.000147486
0.000120857
9.73197e-05
8.35863e-05
8.05683e-05
8.72779e-05
0.000102371
0.000122003
0.000138084
0.000143122
0.000136639
0.000123821
0.000111764
0.000107103
0.000114028
0.000127943
0.00011453
3.15731e-05
3.92734e-06
1.0633e-05
6.40488e-05
0.000167716
0.000148966
0.000103168
7.51693e-05
6.67509e-05
6.98398e-05
7.96971e-05
9.43006e-05
0.000112544
0.000133133
0.000154377
0.000174073
0.000188771
0.000193028
0.000181437
0.000154812
0.000123007
9.6995e-05
8.12416e-05
7.53836e-05
7.8202e-05
8.88291e-05
0.000104606
0.000118454
0.000123111
0.000118944
0.000112723
0.000111799
0.000119952
0.000131084
0.000112438
3.0817e-05
3.86485e-06
1.07449e-05
6.50622e-05
0.000166847
0.000142033
9.5318e-05
7.05082e-05
6.54106e-05
7.15524e-05
8.393e-05
0.000100152
0.000119267
0.000140569
0.000163015
0.000185012
0.000203861
0.000214785
0.000211406
0.000190302
0.000156838
0.000122668
9.62428e-05
7.94405e-05
7.10404e-05
7.01201e-05
7.64133e-05
8.83197e-05
0.00010056
0.000107256
0.000109233
0.000112738
0.000121961
0.000131046
0.000108956
2.971e-05
3.82007e-06
1.08879e-05
6.86182e-05
0.000166579
0.000133526
8.75507e-05
6.66269e-05
6.50535e-05
7.47164e-05
9.02915e-05
0.0001086
0.000128503
0.000149776
0.000172057
0.000194424
0.000214898
0.000229512
0.000232153
0.000217594
0.000187359
0.000150912
0.000118328
9.39825e-05
7.74793e-05
6.74464e-05
6.36839e-05
6.66666e-05
7.58456e-05
8.8107e-05
9.95271e-05
0.000110181
0.000122179
0.000130252
0.000105812
2.90764e-05
3.84437e-06
1.09568e-05
7.24361e-05
0.000164956
0.000127454
8.35918e-05
6.49461e-05
6.53012e-05
7.75021e-05
9.59256e-05
0.000116165
0.000136442
0.000156858
0.000177795
0.000199068
0.000219439
0.000235842
0.000242911
0.00023481
0.000210245
0.000175727
0.000141185
0.000112864
9.17006e-05
7.61028e-05
6.51185e-05
5.94344e-05
6.03343e-05
6.82176e-05
8.19222e-05
9.90012e-05
0.000116429
0.000126936
0.000104228
2.92882e-05
4.00543e-06
1.09023e-05
7.45087e-05
0.000163192
0.000129143
8.68838e-05
6.63659e-05
6.45742e-05
7.57359e-05
9.50539e-05
0.000117446
0.000139525
0.000160513
0.000180944
0.000201264
0.000220992
0.000237878
0.000247336
0.000243553
0.000223649
0.000191874
0.000157456
0.000127785
0.00010513
8.80532e-05
7.4375e-05
6.36033e-05
5.75007e-05
5.82085e-05
6.69701e-05
8.38219e-05
0.000105536
0.000121615
0.000104077
2.96938e-05
4.23857e-06
1.07471e-05
7.34885e-05
0.000164024
0.000141921
0.00010151
7.36533e-05
6.42197e-05
6.91824e-05
8.49113e-05
0.000107338
0.000131996
0.000156005
0.000178653
0.000200285
0.000220991
0.000239357
0.00025158
0.000251938
0.000236206
0.00020648
0.000171246
0.000139248
0.000114593
9.68048e-05
8.30894e-05
7.11088e-05
6.13195e-05
5.64518e-05
5.91347e-05
7.139e-05
9.36863e-05
0.000116689
0.0001055
2.96392e-05
4.43995e-06
1.05783e-05
7.10154e-05
0.000166338
0.000157919
0.000124382
8.91262e-05
6.85008e-05
6.36469e-05
7.15867e-05
8.98291e-05
0.000115069
0.000143084
0.000170675
0.000196645
0.00022084
0.000242329
0.000257901
0.000261884
0.000249016
0.000219819
0.000182325
0.000146631
0.000118763
9.9482e-05
8.60398e-05
7.48564e-05
6.45533e-05
5.72608e-05
5.65057e-05
6.57225e-05
8.79883e-05
0.000115737
0.000105093
2.81521e-05
4.41549e-06
1.04549e-05
6.92546e-05
0.000170009
0.000170243
0.000145896
0.000113102
8.40575e-05
6.75709e-05
6.46241e-05
7.37057e-05
9.34214e-05
0.000121227
0.000153038
0.000185151
0.000215533
0.000242688
0.000263616
0.000272754
0.000263991
0.000236015
0.000195743
0.000154457
0.000120813
9.75635e-05
8.26796e-05
7.2147e-05
6.31329e-05
5.64599e-05
5.56458e-05
6.50384e-05
8.88332e-05
0.000117957
0.000100397
2.57866e-05
4.17624e-06
1.0418e-05
6.82508e-05
0.000173256
0.000174451
0.000151722
0.000126843
0.000104005
8.34374e-05
7.02367e-05
6.82524e-05
7.81996e-05
9.96679e-05
0.00013051
0.000166539
0.000203339
0.000237273
0.00026434
0.000278831
0.000274623
0.000249631
0.000209198
0.000164008
0.000124462
9.58393e-05
7.781e-05
6.69107e-05
5.95215e-05
5.48434e-05
5.5624e-05
6.65962e-05
9.17538e-05
0.000118232
9.20361e-05
2.35425e-05
3.86521e-06
1.05035e-05
6.8072e-05
0.000173659
0.000170417
0.00014279
0.000120744
0.000109757
0.000100979
8.78756e-05
7.67508e-05
7.55811e-05
8.71023e-05
0.00011134
0.000145977
0.000186288
0.000226468
0.000260371
0.000281186
0.000282596
0.000262274
0.000224292
0.000177857
0.00013355
9.88266e-05
7.5842e-05
6.2648e-05
5.58166e-05
5.31763e-05
5.58984e-05
6.82505e-05
9.32298e-05
0.000115517
8.51784e-05
2.22103e-05
3.64705e-06
1.06877e-05
6.9332e-05
0.000173113
0.000162179
0.000127941
0.000105551
0.000100653
0.000104993
0.000105701
9.65881e-05
8.72491e-05
8.831e-05
0.000103403
0.000132222
0.000171448
0.000214881
0.000254447
0.000281334
0.000288236
0.000272815
0.000238894
0.000194468
0.000148627
0.000109104
8.02937e-05
6.25943e-05
5.38432e-05
5.17002e-05
5.59007e-05
6.931e-05
9.35979e-05
0.000113056
8.23518e-05
2.18807e-05
3.55151e-06
1.09282e-05
7.40985e-05
0.000175346
0.000152569
0.000114088
9.39167e-05
9.27414e-05
0.000103032
0.000114396
0.000115918
0.000107758
0.000102101
0.000108498
0.000129686
0.000163992
0.000206124
0.000247737
0.000278758
0.000290471
0.000279836
0.000250502
0.000209919
0.000165702
0.000124342
9.08638e-05
6.78441e-05
5.50856e-05
5.11148e-05
5.53348e-05
6.9444e-05
9.38786e-05
0.000113021
8.38218e-05
2.24389e-05
3.55968e-06
1.10285e-05
8.03162e-05
0.000174378
0.000138198
0.000100077
8.55656e-05
8.94666e-05
0.000103971
0.000120131
0.000128763
0.000126978
0.000121832
0.000123562
0.000137956
0.000165398
0.000201897
0.000240081
0.0002705
0.00028447
0.000278243
0.000254531
0.000219734
0.000180083
0.000140472
0.000105178
7.78449e-05
6.03667e-05
5.27796e-05
5.49343e-05
6.83372e-05
9.34171e-05
0.000114806
8.83436e-05
2.35371e-05
3.61242e-06
1.08913e-05
8.21182e-05
0.000166639
0.000126437
9.13012e-05
7.993e-05
8.58296e-05
0.000101791
0.000119966
0.000132989
0.000138016
0.000138434
0.000141155
0.000151984
0.000172957
0.000201906
0.000233236
0.000259276
0.000272623
0.00026946
0.000251171
0.00022256
0.000188623
0.000153064
0.000118992
8.98065e-05
6.8619e-05
5.71397e-05
5.61309e-05
6.7406e-05
9.25084e-05
0.000117464
9.46605e-05
2.4911e-05
3.67632e-06
1.05667e-05
7.64186e-05
0.000159253
0.00012848
9.34479e-05
7.69228e-05
7.68243e-05
8.81901e-05
0.000105881
0.00012379
0.000137397
0.00014645
0.000154416
0.00016566
0.000182823
0.000205475
0.000230083
0.000250945
0.000262154
0.00026029
0.000245841
0.000222221
0.000193329
0.000162029
0.000130511
0.0001014
7.80164e-05
6.32797e-05
5.90345e-05
6.75808e-05
9.17779e-05
0.000120201
0.000101458
2.62998e-05
3.73027e-06
1.02584e-05
6.87892e-05
0.000156351
0.000143182
0.000108777
8.06943e-05
6.87505e-05
7.04224e-05
8.22672e-05
0.00010074
0.000121376
0.000140424
0.000157028
0.000172982
0.000190538
0.000210361
0.000230663
0.000247512
0.000256389
0.000254442
0.000241814
0.000221142
0.000195617
0.00016758
0.000138647
0.00011073
8.67459e-05
7.00346e-05
6.33549e-05
6.96502e-05
9.2743e-05
0.00012344
0.000107801
2.75707e-05
3.77907e-06
1.00173e-05
6.26136e-05
0.000154875
0.000156094
0.000129599
9.64603e-05
7.33671e-05
6.38251e-05
6.53757e-05
7.60783e-05
9.43972e-05
0.000117707
0.000142554
0.000166678
0.000189657
0.000211561
0.000231394
0.000246586
0.000253981
0.000251588
0.000239693
0.000220608
0.000197065
0.000171055
0.000143902
0.000117147
9.33588e-05
7.59027e-05
6.79971e-05
7.31368e-05
9.57189e-05
0.000127457
0.000113002
2.85615e-05
3.83297e-06
9.81063e-06
5.64025e-05
0.000149708
0.000157546
0.000136339
0.000109614
8.81264e-05
7.36438e-05
6.58778e-05
6.53829e-05
7.30468e-05
8.94813e-05
0.000113927
0.000143536
0.000174449
0.000203386
0.000227759
0.000244957
0.000252703
0.000250115
0.000238317
0.000219873
0.000197366
0.000172555
0.000146592
0.000120865
9.77805e-05
8.05959e-05
7.27114e-05
7.80107e-05
0.000101013
0.000132654
0.000116928
2.92762e-05
3.90199e-06
9.66508e-06
5.04784e-05
0.000139142
0.000149004
0.000125682
0.000100321
8.80664e-05
8.56996e-05
8.31239e-05
7.6808e-05
7.24037e-05
7.55955e-05
8.92703e-05
0.000114143
0.000147825
0.000184642
0.000217718
0.000241304
0.000252151
0.000250204
0.000238151
0.000219564
0.000197252
0.000172836
0.000147344
0.000122196
9.98934e-05
8.36655e-05
7.68915e-05
8.36011e-05
0.000107954
0.000138557
0.000119272
2.95866e-05