/*--------------------------------*- C++ -*----------------------------------*\
| =========                 |                                                 |
| \\      /  F ield         | OpenFOAM: The Open Source CFD Toolbox           |
|  \\    /   O peration     | Version:  v2006                                 |
|   \\  /    A nd           | Website:  www.openfoam.com                      |
|    \\/     M anipulation  |                                                 |
\*---------------------------------------------------------------------------*/
FoamFile
{
    version     2.0;
    format      ascii;
    class       volScalarField;
    location    "14";
    object      nut;
}
// * * * * * * * * * * * * * * * * * * * * * * * * * * * * * * * * * * * * * //

dimensions      [0 2 -1 0 0 0 0];


internalField   nonuniform List<scalar> 
78750
(
2.25221e-07
4.29208e-06
1.47529e-05
1.40252e-05
1.75025e-05
3.19329e-05
6.84009e-05
0.000107235
9.83433e-05
8.00675e-05
6.30226e-05
4.61678e-05
3.06931e-05
1.86734e-05
1.166e-05
1.12539e-05
2.13547e-05
4.71656e-05
6.83737e-05
7.87241e-05
8.77996e-05
9.51562e-05
0.000100951
0.000106414
0.000112217
0.000118355
0.000124393
0.00012935
0.000131333
0.000127898
0.000118554
0.000106532
9.68445e-05
8.0715e-05
5.34607e-06
2.79005e-05
0.000157147
0.00046294
0.000112659
8.24808e-05
0.000112246
0.000181453
0.000275344
0.000380421
0.000481316
0.000560746
0.000612399
0.00064125
0.000644664
0.000610958
0.00055029
0.000493809
0.000463766
0.000453889
0.000442475
0.00041521
0.000372547
0.000326395
0.000288569
0.000262369
0.000244672
0.000230456
0.000215893
0.000199818
0.000183353
0.000168616
0.000159025
0.000153248
0.00011949
7.83041e-06
1.15761e-05
1.37762e-05
3.68604e-05
6.82451e-05
0.000127777
0.000201297
0.000254881
0.000282903
0.00029706
0.000306553
0.000314352
0.000320822
0.000324737
0.000323814
0.000316017
0.000301467
0.000284591
0.000272759
0.00027235
0.000286058
0.000310838
0.000334829
0.000343656
0.000335424
0.000321144
0.000307768
0.00029809
0.000295131
0.000296052
0.000293336
0.000279832
0.000243363
0.000172293
8.19614e-05
7.35265e-06
4.89628e-06
6.38732e-05
9.66007e-05
0.000109954
0.000115099
0.000119425
0.000124395
0.000130284
0.000136806
0.000143554
0.000150442
0.000157891
0.000165894
0.000172551
0.000176289
0.000177463
0.000177823
0.000179401
0.000182841
0.000187856
0.000194221
0.000199411
0.000197733
0.000190297
0.000179864
0.000168882
0.000162995
0.000166624
0.000176466
0.000181935
0.000181246
0.000186911
0.00018822
0.000133005
1.12683e-05
1.74865e-06
1.97262e-05
3.47287e-05
3.78499e-05
3.79121e-05
3.78922e-05
3.81051e-05
3.84517e-05
3.88412e-05
3.92951e-05
3.9862e-05
4.05744e-05
4.18007e-05
4.37631e-05
4.65176e-05
5.0679e-05
5.67295e-05
6.35839e-05
7.0952e-05
7.85861e-05
8.13669e-05
8.22862e-05
9.49355e-05
0.000127076
0.000163632
0.000186763
0.00021235
0.000225917
0.000196054
0.000139775
7.05646e-05
5.64502e-05
5.38456e-05
7.09058e-05
1.24425e-05
4.27725e-06
2.90727e-05
6.13465e-05
7.65849e-05
8.25444e-05
8.58096e-05
8.75158e-05
8.80071e-05
8.79115e-05
8.81926e-05
8.77456e-05
8.46634e-05
8.21961e-05
8.36571e-05
8.49481e-05
7.70172e-05
7.58718e-05
0.000106741
0.000200234
0.0001948
0.000112185
7.28547e-05
4.38973e-05
2.78474e-05
2.57849e-05
3.39511e-05
4.57379e-05
4.86787e-05
4.47342e-05
4.25033e-05
4.70247e-05
5.21772e-05
6.7674e-05
0.000109108
1.20582e-05
7.21327e-06
5.62398e-05
0.000129219
0.000140004
0.000141736
0.000140158
0.000135057
0.000126036
0.000117514
0.000118046
7.59742e-05
3.07218e-05
2.47942e-05
3.69415e-05
6.97806e-05
6.33712e-05
2.74836e-05
2.56876e-05
4.23751e-05
7.1251e-05
9.09966e-05
9.24132e-05
9.21357e-05
0.000101703
0.000122988
0.000148091
0.000160227
0.000155372
0.000150524
0.000159902
0.000187245
0.000228753
0.000250307
0.000102902
1.09459e-05
6.38753e-06
5.43873e-05
0.000135134
0.000154366
0.000166593
0.000173595
0.000170592
0.000140833
8.54842e-05
5.04217e-05
4.06642e-05
4.66988e-05
4.71223e-05
3.08064e-05
2.40269e-05
2.97856e-05
4.66038e-05
7.21541e-05
0.000102716
0.00013416
0.000161147
0.000180981
0.000194088
0.000202303
0.000208659
0.000216475
0.000228597
0.000246608
0.000268447
0.000286287
0.000292908
0.000284598
0.000223735
8.51227e-05
1.02851e-05
6.20179e-06
4.74398e-05
0.000153037
0.000168957
0.000169421
0.000158851
0.000127724
8.6687e-05
5.79816e-05
4.01831e-05
2.88899e-05
2.43682e-05
2.52775e-05
2.50003e-05
2.33146e-05
2.84193e-05
4.57989e-05
7.47269e-05
0.000104611
0.00012862
0.000146206
0.00015742
0.000162813
0.000163856
0.000162377
0.00016021
0.000159138
0.000161094
0.000169051
0.000187637
0.000218656
0.000244782
0.000210119
7.95259e-05
1.04115e-05
6.92707e-06
6.32101e-05
0.000153767
0.000171828
0.00017331
0.000162068
0.000138128
0.000105821
7.45784e-05
5.00727e-05
3.39209e-05
2.64819e-05
2.61414e-05
2.77682e-05
2.4351e-05
2.24968e-05
2.9214e-05
4.75189e-05
7.48686e-05
0.000102021
0.000125623
0.00014657
0.000163591
0.000173678
0.000174879
0.00016758
0.000154377
0.000139224
0.000127739
0.000127522
0.000142749
0.000160747
0.000134511
4.98212e-05
8.28012e-06
6.51373e-06
4.97959e-05
0.00015207
0.00016811
0.000163972
0.00014238
0.000105337
7.10091e-05
5.07331e-05
4.05642e-05
3.39382e-05
2.69862e-05
2.19346e-05
2.21919e-05
2.62079e-05
2.7608e-05
2.71471e-05
3.12077e-05
4.26082e-05
6.20777e-05
8.78576e-05
0.000114884
0.000138583
0.000156216
0.000165274
0.000163967
0.000151689
0.000130822
0.000112926
0.000111632
0.000127932
0.000139629
0.000102975
3.96912e-05
5.63176e-06
6.32215e-06
4.29474e-05
0.000136202
0.000170058
0.0001711
0.000158557
0.000139105
0.000115939
8.87852e-05
6.29486e-05
4.54548e-05
3.54554e-05
2.93719e-05
2.65683e-05
2.91833e-05
3.77372e-05
4.30596e-05
3.72622e-05
3.06657e-05
2.95945e-05
3.51642e-05
4.69326e-05
6.20426e-05
7.64907e-05
8.83997e-05
9.89001e-05
0.000111507
0.000127284
0.000143167
0.000156157
0.000155701
0.000132036
9.63827e-05
4.97737e-05
6.53124e-06
6.89766e-06
4.25167e-05
0.000138526
0.000160419
0.000150796
0.000129153
0.00010147
7.74084e-05
6.29283e-05
5.5845e-05
4.97991e-05
4.08007e-05
3.10157e-05
2.32199e-05
1.83885e-05
1.74251e-05
2.1885e-05
3.25127e-05
4.92945e-05
7.57726e-05
0.000119229
0.000162552
0.000161933
0.000130965
0.000103663
8.63899e-05
7.7811e-05
7.98615e-05
9.66216e-05
0.000114917
7.72113e-05
4.85104e-05
5.13168e-05
6.27372e-05
7.35566e-06
7.37426e-06
4.44078e-05
0.000140243
0.000164675
0.000157591
0.000138983
0.000111175
8.21424e-05
6.07818e-05
4.76132e-05
4.03297e-05
3.80963e-05
3.94019e-05
4.17558e-05
4.67349e-05
5.09178e-05
4.91109e-05
4.59086e-05
4.6947e-05
5.54361e-05
7.55314e-05
0.000113996
0.000159758
0.000157713
0.000125993
0.000102454
7.14133e-05
2.86834e-05
1.79077e-05
1.91417e-05
2.6197e-05
4.05979e-05
7.60916e-05
2.8168e-05
5.30586e-06
7.42585e-06
4.9448e-05
0.000147388
0.00017107
0.000168309
0.000147987
0.000109903
7.4625e-05
5.36185e-05
4.08122e-05
3.18624e-05
2.69921e-05
2.19172e-05
1.39782e-05
1.28052e-05
2.42595e-05
5.04414e-05
7.27891e-05
8.19855e-05
8.75542e-05
9.47155e-05
0.000104455
0.000110894
0.000107049
9.6156e-05
8.31075e-05
6.28503e-05
4.32531e-05
3.85772e-05
5.0903e-05
8.51873e-05
8.08641e-05
2.67681e-05
1.07513e-05
2.08212e-06
7.15965e-06
5.04089e-05
0.000138312
0.000157632
0.000154898
0.00012815
8.50518e-05
5.19646e-05
3.09194e-05
1.67096e-05
1.06431e-05
1.61091e-05
5.05943e-05
3.40527e-05
2.4718e-05
2.68316e-05
3.77705e-05
5.12987e-05
6.88931e-05
9.41195e-05
0.000117371
0.000119328
0.000101643
7.97738e-05
6.47864e-05
5.80442e-05
5.71694e-05
6.19103e-05
7.51239e-05
9.51329e-05
0.000102282
6.8864e-05
2.90009e-05
1.17533e-05
2.97587e-06
6.77425e-06
4.51128e-05
0.000135332
0.000158953
0.000151303
0.000126522
9.55529e-05
6.87566e-05
4.85023e-05
3.17574e-05
1.67774e-05
9.02973e-06
1.08367e-05
2.80585e-05
0.000118823
9.11957e-05
5.44721e-05
4.0481e-05
3.787e-05
4.20415e-05
5.25986e-05
7.76709e-05
0.000137578
0.00017023
0.000113446
5.92805e-05
3.52744e-05
3.04346e-05
3.83114e-05
5.86946e-05
7.54788e-05
6.27523e-05
3.68137e-05
1.94419e-05
4.48293e-06
7.06063e-06
4.3853e-05
0.000142185
0.000162856
0.000144886
0.000111271
8.22694e-05
6.63402e-05
5.9147e-05
5.40983e-05
4.60097e-05
3.30462e-05
1.81938e-05
1.0086e-05
1.05153e-05
1.84093e-05
4.74316e-05
0.000150823
0.000120046
8.2693e-05
6.14373e-05
4.5955e-05
3.48554e-05
3.33704e-05
4.58705e-05
7.55498e-05
0.000122603
0.00011098
7.52095e-05
5.98391e-05
7.09751e-05
0.000103854
8.18586e-05
3.40591e-05
5.38597e-06
7.17366e-06
4.2557e-05
0.000133648
0.000156117
0.000138632
0.000104671
7.58925e-05
6.15644e-05
5.7098e-05
5.47492e-05
5.01434e-05
4.60643e-05
4.21378e-05
3.26349e-05
1.9138e-05
1.07982e-05
1.06203e-05
1.73562e-05
3.4652e-05
7.21271e-05
9.49113e-05
7.57169e-05
5.25391e-05
3.39647e-05
2.4515e-05
2.77958e-05
3.86252e-05
5.41279e-05
6.82967e-05
6.95661e-05
7.23945e-05
8.16118e-05
8.66793e-05
4.22456e-05
6.94632e-06
7.96158e-06
5.37334e-05
0.000155114
0.000161773
0.000134106
9.5625e-05
7.13267e-05
6.43058e-05
6.88677e-05
7.66596e-05
7.49443e-05
6.22032e-05
5.19509e-05
4.78368e-05
4.19712e-05
2.92301e-05
1.71572e-05
1.17601e-05
1.2622e-05
1.93217e-05
3.26672e-05
4.91814e-05
5.60475e-05
4.49138e-05
2.3986e-05
1.34554e-05
1.60332e-05
3.16114e-05
5.03036e-05
6.4817e-05
7.50687e-05
7.96782e-05
6.86854e-05
2.63166e-05
5.60991e-06
8.01626e-06
5.86476e-05
0.000139765
0.000134146
0.000104112
7.14741e-05
5.34149e-05
4.8393e-05
5.19885e-05
6.10782e-05
7.1506e-05
7.63761e-05
7.24667e-05
6.614e-05
6.11886e-05
5.27737e-05
3.84772e-05
2.47152e-05
1.64342e-05
1.37126e-05
1.56759e-05
2.2554e-05
3.6547e-05
6.52993e-05
8.18441e-05
5.67953e-05
4.68733e-05
5.50913e-05
7.39333e-05
9.07856e-05
9.79381e-05
8.54415e-05
4.89483e-05
1.71172e-05
3.61143e-06
7.7919e-06
5.58851e-05
0.000144223
0.00015042
0.000132312
0.000103964
8.03945e-05
6.74751e-05
6.30828e-05
6.3059e-05
6.31207e-05
6.10804e-05
5.84854e-05
5.77492e-05
5.95449e-05
6.23111e-05
6.17366e-05
5.34291e-05
4.01493e-05
2.88008e-05
2.21164e-05
2.05645e-05
2.55109e-05
3.64586e-05
4.79824e-05
4.88545e-05
4.46076e-05
4.79463e-05
6.22174e-05
8.46917e-05
9.64041e-05
8.33108e-05
5.74431e-05
2.03899e-05
4.8989e-06
7.2373e-06
4.35556e-05
0.000129793
0.00014802
0.000136907
0.000110976
8.03878e-05
5.79736e-05
4.64081e-05
4.33427e-05
4.75891e-05
5.85426e-05
7.22881e-05
8.15609e-05
8.44365e-05
8.50316e-05
8.55844e-05
8.31853e-05
7.2597e-05
5.37038e-05
3.37801e-05
1.91114e-05
1.27531e-05
1.36326e-05
2.17619e-05
3.2922e-05
4.61492e-05
5.90156e-05
6.95419e-05
7.70559e-05
7.74736e-05
7.27012e-05
6.53089e-05
2.81793e-05
6.75335e-06
7.16049e-06
3.91575e-05
0.0001228
0.000151935
0.000146667
0.000132019
0.000113661
9.25647e-05
6.96647e-05
5.14468e-05
4.22063e-05
4.19521e-05
5.05421e-05
6.81795e-05
9.22482e-05
0.00011528
0.000130161
0.000134785
0.000126787
0.000101157
6.28825e-05
3.07838e-05
1.54275e-05
1.06322e-05
1.20646e-05
2.00815e-05
3.16576e-05
4.67657e-05
6.5153e-05
7.84074e-05
8.45538e-05
8.75255e-05
7.75297e-05
2.59686e-05
6.80718e-06
7.81141e-06
4.41685e-05
0.000134259
0.000157319
0.000138243
0.000103125
7.55108e-05
6.56512e-05
6.78765e-05
6.76952e-05
5.75048e-05
5.00327e-05
5.21862e-05
6.49772e-05
9.00298e-05
0.000128495
0.000170778
0.000195108
0.000197642
0.000178745
0.00011022
4.33345e-05
1.80416e-05
1.03943e-05
8.93728e-06
1.29075e-05
2.36323e-05
3.87145e-05
5.81205e-05
7.85671e-05
9.19329e-05
9.63118e-05
8.79757e-05
2.94398e-05
7.60489e-06
8.24431e-06
5.83405e-05
0.000149102
0.000153176
0.000132149
9.54134e-05
6.62319e-05
5.44218e-05
5.56171e-05
6.23106e-05
6.5312e-05
6.58855e-05
7.328e-05
9.36847e-05
0.000129093
0.000171479
0.000201727
0.000208049
0.000168169
7.09087e-05
2.10339e-05
7.94182e-06
9.84338e-06
1.70794e-05
1.76881e-05
2.01928e-05
2.95609e-05
4.18418e-05
5.47273e-05
6.81305e-05
8.01525e-05
9.059e-05
8.97528e-05
2.9986e-05
8.11414e-06
7.78044e-06
5.35369e-05
0.000143447
0.000146626
0.000121349
8.59737e-05
6.09653e-05
5.02556e-05
5.04023e-05
5.74248e-05
6.55076e-05
7.1633e-05
8.05522e-05
9.87244e-05
0.000129762
0.000174434
0.000219732
0.000205388
0.000110599
4.11058e-05
1.43734e-05
5.84862e-06
7.14859e-06
1.85247e-05
2.83186e-05
3.17231e-05
3.70763e-05
4.36312e-05
5.0269e-05
5.97962e-05
7.43036e-05
8.85528e-05
6.61591e-05
2.18045e-05
6.63273e-06
7.64987e-06
5.16836e-05
0.000144927
0.000148579
0.000124629
9.2852e-05
6.82876e-05
5.4344e-05
4.91729e-05
5.08126e-05
5.71108e-05
6.58432e-05
7.66684e-05
9.14751e-05
0.000111599
0.000134766
0.000153476
0.000155656
0.00012955
8.0115e-05
3.83328e-05
1.82358e-05
1.1928e-05
1.34636e-05
1.76551e-05
2.16387e-05
2.67665e-05
3.33287e-05
4.12857e-05
5.27687e-05
6.97768e-05
8.17721e-05
5.21468e-05
1.77952e-05
5.3159e-06
7.83609e-06
5.50105e-05
0.000149738
0.000147547
0.000117092
8.29644e-05
6.18259e-05
5.34505e-05
5.32577e-05
5.73526e-05
6.27151e-05
6.84628e-05
7.64865e-05
8.94752e-05
0.000108413
0.000131229
0.000152042
0.000160106
0.000142778
0.000101156
5.88506e-05
3.32183e-05
2.23334e-05
1.98965e-05
2.0397e-05
2.08575e-05
2.21156e-05
2.55193e-05
3.30976e-05
4.77452e-05
6.80778e-05
7.68626e-05
4.8554e-05
1.80048e-05
5.47251e-06
7.67313e-06
5.24135e-05
0.000145959
0.000144937
0.000115856
8.24275e-05
6.00927e-05
4.92438e-05
4.70776e-05
5.20527e-05
6.22724e-05
7.41696e-05
8.55772e-05
9.88237e-05
0.000117603
0.000142282
0.000166724
0.000177499
0.000159343
0.000112608
6.36423e-05
3.37065e-05
2.11168e-05
1.9063e-05
2.18579e-05
2.40549e-05
2.50094e-05
2.68936e-05
3.29445e-05
4.86478e-05
7.26001e-05
7.92697e-05
4.93671e-05
1.89304e-05
5.70087e-06
7.77941e-06
5.36404e-05
0.000146035
0.000140148
0.000106292
7.52614e-05
5.90071e-05
5.29971e-05
5.21387e-05
5.45802e-05
6.04731e-05
6.95929e-05
8.11162e-05
9.52111e-05
0.00011338
0.000136307
0.000160211
0.000175202
0.000170321
0.000141753
9.75823e-05
5.64103e-05
3.08289e-05
1.90798e-05
1.56221e-05
1.6309e-05
1.91039e-05
2.44135e-05
3.45313e-05
5.33708e-05
7.89258e-05
8.67611e-05
5.31273e-05
1.9165e-05
5.33302e-06
7.67079e-06
5.24379e-05
0.000143378
0.000133715
9.69472e-05
6.61897e-05
5.09478e-05
4.62543e-05
4.84792e-05
5.58776e-05
6.63462e-05
7.75255e-05
8.8702e-05
0.0001011
0.000116536
0.000135785
0.00015675
0.000173395
0.000178065
0.000166515
0.00014017
0.000105006
7.01613e-05
4.342e-05
2.63168e-05
1.67119e-05
1.30227e-05
1.47781e-05
2.3263e-05
4.30396e-05
7.20864e-05
8.29787e-05
5.37383e-05
1.89665e-05
4.78193e-06
7.68696e-06
5.2072e-05
0.000144021
0.000134902
9.7968e-05
6.9062e-05
5.55937e-05
5.02983e-05
4.86599e-05
5.09933e-05
5.84903e-05
7.03447e-05
8.43738e-05
9.93191e-05
0.000115711
0.000134386
0.000154322
0.000171512
0.0001803
0.000176918
0.000161924
0.000139119
0.000112731
8.56963e-05
6.00542e-05
3.8204e-05
2.28176e-05
1.52032e-05
1.5492e-05
2.61862e-05
5.2388e-05
7.25588e-05
5.38358e-05
1.93407e-05
4.46094e-06
7.61879e-06
4.97759e-05
0.00013872
0.000126911
8.64746e-05
5.85784e-05
4.85426e-05
4.80549e-05
5.05858e-05
5.37468e-05
5.96379e-05
7.03805e-05
8.54714e-05
0.000102851
0.000121222
0.000140465
0.000159833
0.000176225
0.000184767
0.000181757
0.000167432
0.000146073
0.000123657
0.000104339
8.78462e-05
7.05045e-05
5.07887e-05
3.31885e-05
2.30362e-05
2.25916e-05
3.52261e-05
6.14459e-05
6.12519e-05
2.12498e-05
4.59283e-06
7.71405e-06
5.03885e-05
0.000137092
0.000126512
8.77777e-05
5.9934e-05
4.99259e-05
5.00804e-05
5.32615e-05
5.52496e-05
5.75402e-05
6.3986e-05
7.64191e-05
9.40199e-05
0.000114735
0.000136822
0.000158696
0.000177435
0.000188541
0.000187956
0.000174724
0.000151901
0.000125724
0.000103326
8.90574e-05
8.19397e-05
7.54941e-05
6.25158e-05
4.53478e-05
3.32201e-05
3.17466e-05
4.64855e-05
7.06025e-05
2.41972e-05
4.709e-06
7.51068e-06
4.67125e-05
0.000131411
0.000123494
8.47365e-05
5.57491e-05
4.54432e-05
4.70963e-05
5.48347e-05
6.19544e-05
6.46427e-05
6.66157e-05
7.35351e-05
8.77841e-05
0.000108526
0.000133206
0.000158764
0.000181468
0.000196705
0.000200182
0.000190116
0.000168085
0.000138594
0.000108573
8.51534e-05
7.19749e-05
6.79918e-05
6.73051e-05
6.03949e-05
4.70689e-05
3.9736e-05
4.89797e-05
7.65844e-05
2.54034e-05
4.4281e-06
7.6535e-06
4.71424e-05
0.000131617
0.00012798
9.21891e-05
6.07188e-05
4.72104e-05
4.643e-05
5.32413e-05
6.24045e-05
6.80724e-05
6.89484e-05
7.01897e-05
7.75281e-05
9.34934e-05
0.000117591
0.000146829
0.000176086
0.000199133
0.0002104
0.000207131
0.00018999
0.000161972
0.00012789
9.46803e-05
6.91916e-05
5.42759e-05
4.87502e-05
4.88067e-05
4.89579e-05
4.99435e-05
6.11358e-05
7.57594e-05
2.31096e-05
3.91764e-06
7.49705e-06
4.46775e-05
0.000127863
0.000124679
8.82765e-05
5.71317e-05
4.39978e-05
4.3536e-05
5.19328e-05
6.61287e-05
7.99763e-05
8.58938e-05
8.3659e-05
8.16354e-05
8.73492e-05
0.000103866
0.000130591
0.000162743
0.000192002
0.000210293
0.00021378
0.000203034
0.000180544
0.000149192
0.000113087
7.89134e-05
5.33536e-05
3.87821e-05
3.40385e-05
3.72387e-05
4.66686e-05
6.05379e-05
6.1333e-05
1.91872e-05
3.51395e-06
7.66854e-06
4.51969e-05
0.000128394
0.000128002
9.45032e-05
6.20432e-05
4.6208e-05
4.29535e-05
4.80555e-05
5.92095e-05
7.36722e-05
8.64494e-05
9.20047e-05
9.04488e-05
8.89414e-05
9.48224e-05
0.000111625
0.000138527
0.000169363
0.000194193
0.000205666
0.000202817
0.000188261
0.000164643
0.000134033
9.96844e-05
6.7765e-05
4.45833e-05
3.21658e-05
2.96428e-05
3.65306e-05
5.0252e-05
5.13767e-05
1.71701e-05
3.4291e-06
7.6527e-06
4.55718e-05
0.000128417
0.000124036
8.74184e-05
5.70841e-05
4.4138e-05
4.31231e-05
5.01923e-05
6.29565e-05
7.85204e-05
9.29591e-05
0.000101923
0.000103269
0.000100159
9.95008e-05
0.000107039
0.000124953
0.000150803
0.000176864
0.000193776
0.000197286
0.000189042
0.000172333
0.000149464
0.000121814
9.16153e-05
6.37426e-05
4.37305e-05
3.39542e-05
3.48229e-05
4.67109e-05
5.45955e-05
1.87231e-05
3.64925e-06
7.83656e-06
4.76528e-05
0.000131042
0.000125308
8.9537e-05
5.89285e-05
4.49008e-05
4.2634e-05
4.83966e-05
5.9956e-05
7.46662e-05
8.91408e-05
9.99569e-05
0.000104959
0.000104978
0.00010422
0.000107918
0.000119587
0.000139422
0.000163169
0.000182839
0.000191774
0.00018892
0.000177099
0.000159409
0.000137712
0.000112952
8.66767e-05
6.27712e-05
4.6379e-05
4.09589e-05
4.94524e-05
6.69416e-05
2.3723e-05
4.00791e-06
7.77601e-06
4.8461e-05
0.000130671
0.000122161
8.55326e-05
5.67422e-05
4.44225e-05
4.33766e-05
5.01381e-05
6.24007e-05
7.71671e-05
9.098e-05
0.000101097
0.000106445
0.000108102
0.000109125
0.000113359
0.000123805
0.000141148
0.000162524
0.000181515
0.000191688
0.000190851
0.000180979
0.00016519
0.000145777
0.000123868
0.000100068
7.61507e-05
5.66931e-05
4.74138e-05
5.34219e-05
7.52952e-05
2.80487e-05
4.27049e-06
7.90977e-06
5.07685e-05
0.000133715
0.000124536
8.87898e-05
5.94339e-05
4.58087e-05
4.33272e-05
4.84975e-05
5.90579e-05
7.22259e-05
8.48028e-05
9.44551e-05
0.000100663
0.000104671
0.000108864
0.000115991
0.000128229
0.000145955
0.000166549
0.000184368
0.000193716
0.000192506
0.000182365
0.000166162
0.000146225
0.000123923
0.000100161
7.68379e-05
5.82792e-05
4.99523e-05
5.70976e-05
7.89527e-05
2.79428e-05
4.28572e-06
7.83521e-06
5.2186e-05
0.000134566
0.000123059
8.70668e-05
5.94494e-05
4.72621e-05
4.56817e-05
5.13081e-05
6.16174e-05
7.33802e-05
8.33689e-05
9.01525e-05
9.47571e-05
9.94577e-05
0.000106392
0.000117169
0.000132691
0.000152345
0.000173018
0.000189328
0.000196416
0.000192848
0.000180304
0.000161469
0.000138737
0.000114213
9.02395e-05
6.96774e-05
5.57897e-05
5.21877e-05
6.32874e-05
8.07894e-05
2.51667e-05
4.05568e-06
7.89063e-06
5.33698e-05
0.00013685
0.000125879
9.07706e-05
6.24153e-05
4.89335e-05
4.60422e-05
5.04119e-05
5.97256e-05
7.08213e-05
7.99328e-05
8.50288e-05
8.76021e-05
9.12392e-05
9.88685e-05
0.000111817
0.000130014
0.000151811
0.000173508
0.000189781
0.000196107
0.000191077
0.000176147
0.000153934
0.000127392
0.000100287
7.70346e-05
6.08858e-05
5.32272e-05
5.57701e-05
7.0843e-05
7.78851e-05
2.20533e-05
3.69242e-06
7.80645e-06
5.39143e-05
0.000136872
0.000124539
8.98896e-05
6.37313e-05
5.19324e-05
4.97996e-05
5.40835e-05
6.27834e-05
7.32369e-05
8.17529e-05
8.53987e-05
8.48121e-05
8.43478e-05
8.85619e-05
9.98297e-05
0.000118274
0.000141715
0.00016563
0.000184094
0.000192251
0.000188305
0.000173278
0.00014963
0.000120792
9.18013e-05
6.84225e-05
5.42426e-05
5.01624e-05
5.69404e-05
7.31162e-05
6.96365e-05
1.93768e-05
3.3644e-06
7.82925e-06
5.41263e-05
0.000137736
0.000125224
9.05564e-05
6.44583e-05
5.29228e-05
5.11522e-05
5.57019e-05
6.45748e-05
7.5532e-05
8.52765e-05
9.01015e-05
8.83583e-05
8.31034e-05
8.03574e-05
8.46721e-05
9.77384e-05
0.000118661
0.000143652
0.000166195
0.000179834
0.000181326
0.000170828
0.000150324
0.000122929
9.36234e-05
6.87948e-05
5.3104e-05
4.81904e-05
5.48325e-05
6.98386e-05
6.29749e-05
1.78997e-05
3.19152e-06
7.73354e-06
5.3679e-05
0.000136498
0.00012356
8.95245e-05
6.50899e-05
5.50545e-05
5.43861e-05
5.9533e-05
6.85605e-05
7.97409e-05
9.05958e-05
9.77078e-05
9.78238e-05
9.08364e-05
8.16938e-05
7.69864e-05
8.05862e-05
9.33431e-05
0.00011379
0.000137443
0.000157137
0.000166826
0.000164581
0.000151536
0.000130063
0.000103911
7.88141e-05
6.06551e-05
5.29011e-05
5.72198e-05
7.10552e-05
6.52083e-05
1.87073e-05
3.20718e-06
7.68979e-06
5.19738e-05
0.00013503
0.000123477
8.95584e-05
6.48182e-05
5.49066e-05
5.48063e-05
6.07891e-05
7.0687e-05
8.28289e-05
9.53215e-05
0.000105497
0.000109787
0.000105271
9.33034e-05
8.05264e-05
7.36519e-05
7.56414e-05
8.65782e-05
0.00010491
0.000126323
0.000143661
0.000151124
0.000147417
0.000134194
0.00011439
9.24975e-05
7.43794e-05
6.52482e-05
6.84773e-05
8.24594e-05
7.78095e-05
2.20365e-05
3.34629e-06
7.59775e-06
5.02719e-05
0.000132387
0.000121632
8.82858e-05
6.44941e-05
5.54141e-05
5.60105e-05
6.27007e-05
7.34413e-05
8.66385e-05
0.000100681
0.000113593
0.000122463
0.000123373
0.000113711
9.66146e-05
8.02731e-05
7.11024e-05
7.09491e-05
7.93664e-05
9.49686e-05
0.000113939
0.000129253
0.000135066
0.000130452
0.000117978
0.000101845
8.7418e-05
8.02696e-05
8.46429e-05
9.85668e-05
9.21586e-05
2.58019e-05
3.47503e-06
7.57084e-06
4.84661e-05
0.000130221
0.000120038
8.6363e-05
6.29956e-05
5.46212e-05
5.58421e-05
6.3121e-05
7.46865e-05
8.918e-05
0.000105107
0.000120773
0.000133951
0.000141163
0.000137926
0.000122472
0.000100258
8.06294e-05
6.91564e-05
6.658e-05
7.20656e-05
8.44923e-05
0.00010069
0.000113995
0.000118243
0.000113048
0.000102692
9.30488e-05
8.96605e-05
9.61195e-05
0.000108671
9.81021e-05
2.74058e-05
3.51221e-06
7.59304e-06
4.81674e-05
0.000128759
0.000115953
8.14306e-05
6.01914e-05
5.41326e-05
5.71834e-05
6.56919e-05
7.80738e-05
9.34377e-05
0.000110714
0.000128494
0.00014494
0.000157177
0.000160678
0.000150951
0.000128702
0.000102156
8.04548e-05
6.7307e-05
6.24004e-05
6.47142e-05
7.35265e-05
8.66431e-05
9.82164e-05
0.000102241
9.90227e-05
9.41931e-05
9.39079e-05
0.000101408
0.000111619
9.65364e-05
2.68118e-05
3.46172e-06
7.67937e-06
4.90206e-05
0.000128414
0.000110906
7.55344e-05
5.67108e-05
5.32603e-05
5.87683e-05
6.93356e-05
8.30553e-05
9.91541e-05
0.000117046
0.000135857
0.000154255
0.000169986
0.000179067
0.000176185
0.000158507
0.000130529
0.000101985
7.99224e-05
6.59025e-05
5.89049e-05
5.81586e-05
6.3447e-05
7.34568e-05
8.38183e-05
8.96486e-05
9.16451e-05
9.50591e-05
0.000103463
0.000111932
9.38095e-05
2.5912e-05
3.42554e-06
7.80264e-06
5.18789e-05
0.000128715
0.000104753
6.97771e-05
5.39248e-05
5.32722e-05
6.16451e-05
7.4841e-05
9.02837e-05
0.000107038
0.000124913
0.000143603
0.000162335
0.000179451
0.000191636
0.000193789
0.000181556
0.000156229
0.000125731
9.84807e-05
7.8133e-05
6.43607e-05
5.60203e-05
5.29445e-05
5.55385e-05
6.33726e-05
7.38818e-05
8.38096e-05
9.32443e-05
0.000103996
0.000111579
9.13317e-05
2.54084e-05
3.44923e-06
7.87867e-06
5.49483e-05
0.000127884
0.000100357
6.6905e-05
5.28072e-05
5.37173e-05
6.41993e-05
7.97727e-05
9.68276e-05
0.000113894
0.000131057
0.000148635
0.000166468
0.00018352
0.000197222
0.000203089
0.000196246
0.000175626
0.000146689
0.000117748
9.40286e-05
7.63205e-05
6.33007e-05
5.41781e-05
4.95255e-05
5.04277e-05
5.72595e-05
6.91063e-05
8.3967e-05
9.93179e-05
0.000108946
9.00988e-05
2.56143e-05
3.59308e-06
7.85965e-06
5.66339e-05
0.000126716
0.000101818
6.96e-05
5.40062e-05
5.31986e-05
6.28715e-05
7.92383e-05
9.81251e-05
0.000116719
0.000134375
0.000151541
0.000168591
0.000185122
0.000199248
0.000207126
0.000203895
0.00018715
0.000160465
0.000131579
0.000106682
8.76769e-05
7.33703e-05
6.19511e-05
5.30138e-05
4.80319e-05
4.88155e-05
5.64651e-05
7.11012e-05
9.00733e-05
0.000104445
9.00125e-05
2.59721e-05
3.80129e-06
7.74942e-06
5.58326e-05
0.000127215
0.000111653
8.10199e-05
5.96699e-05
5.27301e-05
5.73553e-05
7.08025e-05
8.97843e-05
0.000110594
0.000130823
0.00014988
0.000168057
0.000185433
0.00020082
0.000211031
0.000211269
0.000197999
0.000172993
0.000143378
0.000116488
9.57696e-05
8.08258e-05
6.93278e-05
5.93317e-05
5.12253e-05
4.72992e-05
4.9792e-05
6.04921e-05
7.99222e-05
0.000100209
9.12507e-05
2.59272e-05
3.98318e-06
7.61538e-06
5.38467e-05
0.000128695
0.000123818
9.87666e-05
7.17152e-05
5.58686e-05
5.25211e-05
5.9563e-05
7.51133e-05
9.64796e-05
0.000120138
0.000143403
0.000165271
0.000185615
0.000203656
0.000216701
0.000219985
0.000209101
0.0001845
0.00015294
0.000122909
9.94647e-05
8.32435e-05
7.1946e-05
6.25821e-05
5.40081e-05
4.80165e-05
4.7591e-05
5.57016e-05
7.51014e-05
9.94718e-05
9.09887e-05
2.46584e-05
3.9669e-06
7.50989e-06
5.24007e-05
0.000131274
0.00013318
0.000115484
9.05668e-05
6.8114e-05
5.54033e-05
5.35246e-05
6.14882e-05
7.82819e-05
0.000101831
0.000128716
0.000155818
0.000181426
0.000204282
0.000221864
0.000229498
0.000222052
0.000198439
0.000164495
0.000129718
0.00010139
8.18211e-05
6.93042e-05
6.04743e-05
5.29629e-05
4.74717e-05
4.6986e-05
5.52564e-05
7.6002e-05
0.000101609
8.71217e-05
2.26437e-05
3.75907e-06
7.47161e-06
5.15936e-05
0.000133737
0.000136484
0.000120142
0.000101578
8.4161e-05
6.8186e-05
5.79392e-05
5.67601e-05
6.54199e-05
8.36922e-05
0.000109822
0.000140293
0.000171378
0.000200009
0.000222814
0.000234986
0.000231376
0.000210243
0.000176111
0.000137993
0.000104659
8.05484e-05
6.53811e-05
5.62435e-05
5.00974e-05
4.62838e-05
4.71529e-05
5.67998e-05
7.87818e-05
0.000102176
8.01144e-05
2.07359e-05
3.4845e-06
7.53036e-06
5.14784e-05
0.000134192
0.000133561
0.000113376
9.70499e-05
8.91446e-05
8.27056e-05
7.24914e-05
6.37386e-05
6.31395e-05
7.30901e-05
9.36979e-05
0.000123049
0.000157162
0.000191132
0.000219767
0.000237318
0.000238461
0.000221246
0.000189132
0.000149907
0.000112507
8.32215e-05
6.38636e-05
5.27901e-05
4.71178e-05
4.50326e-05
4.75645e-05
5.84275e-05
8.03211e-05
0.000100134
7.43491e-05
1.96069e-05
3.29003e-06
7.67104e-06
5.25326e-05
0.000134119
0.000127531
0.000102046
8.53403e-05
8.22995e-05
8.65377e-05
8.76098e-05
8.04174e-05
7.29493e-05
7.41208e-05
8.70464e-05
0.000111522
0.000144769
0.000181549
0.000215031
0.000237762
0.00024357
0.000230488
0.000201767
0.00016418
0.000125425
9.20388e-05
6.77332e-05
5.28418e-05
4.55441e-05
4.38844e-05
4.76865e-05
5.94795e-05
8.08129e-05
9.81824e-05
7.19901e-05
1.9333e-05
3.20343e-06
7.87212e-06
5.63802e-05
0.000136478
0.000120629
9.16148e-05
7.65338e-05
7.64505e-05
8.55767e-05
9.54551e-05
9.70204e-05
9.04146e-05
8.58725e-05
9.14522e-05
0.000109497
0.000138616
0.00017434
0.000209607
0.000235883
0.000245789
0.000236759
0.000211891
0.000177507
0.000140066
0.000105069
7.67732e-05
5.73553e-05
4.66517e-05
4.3436e-05
4.72552e-05
5.96522e-05
8.11157e-05
9.82011e-05
7.32876e-05
1.9819e-05
3.20885e-06
7.98496e-06
6.13998e-05
0.000136365
0.000109878
8.09403e-05
7.03001e-05
7.43433e-05
8.69846e-05
0.000100885
0.000108369
0.000107022
0.00010281
0.000104394
0.000116678
0.00014
0.000170987
0.000203388
0.000229192
0.000241034
0.000235741
0.000215615
0.000186093
0.000152465
0.000118893
8.90078e-05
6.58982e-05
5.11708e-05
4.48704e-05
4.69185e-05
5.86972e-05
8.06995e-05
9.97147e-05
7.71934e-05
2.0769e-05
3.25406e-06
7.90936e-06
6.28811e-05
0.000130465
0.000100683
7.40274e-05
6.58939e-05
7.16052e-05
8.55217e-05
0.000101176
0.000112386
0.000116765
0.000117202
0.000119574
0.000128813
0.000146652
0.000171254
0.000197871
0.000219988
0.000231319
0.000228625
0.000213082
0.000188773
0.000159949
0.000129761
0.00010086
7.61343e-05
5.82272e-05
4.85992e-05
4.79357e-05
5.78741e-05
7.98738e-05
0.000101963
8.26512e-05
2.19601e-05
3.30971e-06
7.65769e-06
5.8323e-05
0.000124151
0.000101777
7.53061e-05
6.3062e-05
6.38764e-05
7.40285e-05
8.93774e-05
0.000104813
0.000116519
0.000124297
0.000131115
0.000140699
0.000155307
0.000174575
0.000195503
0.00021324
0.000222766
0.000221173
0.000208875
0.000188777
0.000164201
0.000137587
0.000110806
8.60977e-05
6.62874e-05
5.38637e-05
5.04247e-05
5.80122e-05
7.9217e-05
0.0001043
8.85433e-05
2.31693e-05
3.35715e-06
7.39575e-06
5.21821e-05
0.000120996
0.00011236
8.66003e-05
6.52781e-05
5.65215e-05
5.86806e-05
6.91924e-05
8.52083e-05
0.000102983
0.00011934
0.000133557
0.000147182
0.000162147
0.00017903
0.000196315
0.000210656
0.000218206
0.000216537
0.000205772
0.000188158
0.000166415
0.00014254
0.000117916
9.41796e-05
7.38194e-05
5.96863e-05
5.41547e-05
5.98081e-05
8.00622e-05
0.00010712
9.40772e-05
2.42847e-05
3.4009e-06
7.1877e-06
4.72599e-05
0.000119181
0.000121624
0.000102179
7.70401e-05
5.94647e-05
5.25183e-05
5.44984e-05
6.40232e-05
7.99179e-05
9.99968e-05
0.000121328
0.00014199
0.000161635
0.000180335
0.000197251
0.0002102
0.000216497
0.000214444
0.000204289
0.000188004
0.000167921
0.000145741
0.000122599
9.98139e-05
7.95848e-05
6.47888e-05
5.81957e-05
6.28595e-05
8.26887e-05
0.000110668
9.86596e-05
2.5164e-05
3.45006e-06
7.01524e-06
4.24529e-05
0.000114943
0.000122462
0.000107145
8.70849e-05
7.08212e-05
5.99214e-05
5.42936e-05
5.45218e-05
6.14796e-05
7.57895e-05
9.68644e-05
0.000122297
0.000148799
0.000173575
0.000194421
0.00020912
0.000215734
0.000213517
0.000203432
0.000187675
0.000168451
0.000147266
0.000125109
0.00010317
8.351e-05
6.89213e-05
6.23356e-05
6.71454e-05
8.73664e-05
0.000115297
0.000102175
2.58112e-05
3.51366e-06
6.8836e-06
3.78934e-05
0.000106742
0.000115846
9.88579e-05
7.97979e-05
7.07974e-05
6.95665e-05
6.81091e-05
6.35426e-05
6.04757e-05
6.36732e-05
7.56609e-05
9.71274e-05
0.000126076
0.000157671
0.000186034
0.000206253
0.000215554
0.000213899
0.000203594
0.000187698
0.00016862
0.00014775
0.00012597
0.000104498
8.548e-05
7.16902e-05
6.60511e-05
7.20906e-05
9.35207e-05
0.000120597
0.000104353
2.61127e-05