/*--------------------------------*- C++ -*----------------------------------*\
| =========                 |                                                 |
| \\      /  F ield         | OpenFOAM: The Open Source CFD Toolbox           |
|  \\    /   O peration     | Version:  v2006                                 |
|   \\  /    A nd           | Website:  www.openfoam.com                      |
|    \\/     M anipulation  |                                                 |
\*---------------------------------------------------------------------------*/
FoamFile
{
    version     2.0;
    format      ascii;
    class       volScalarField;
    location    "14";
    object      omega;
}
// * * * * * * * * * * * * * * * * * * * * * * * * * * * * * * * * * * * * * //

dimensions      [0 0 -1 0 0 0 0];


internalField   nonuniform List<scalar> 
78750
(
299.393
28.5362
43.0008
51.1796
62.6271
69.7373
70.6016
67.4825
62.4493
56.857
51.0954
44.9488
38.4169
31.8616
26.3949
24.2073
26.5317
30.8554
34.4932
37.0128
38.7157
39.7961
40.4023
40.6914
40.7756
40.7054
40.5072
40.1955
39.7798
39.2639
38.5959
37.6567
36.1715
33.3982
400.301
870.302
109.022
110.143
91.8394
75.5785
66.1271
60.7854
57.4429
55.1263
53.3278
51.85
50.5827
49.4799
48.5433
47.7589
47.1271
46.6178
46.1783
45.7346
45.2288
44.6185
43.8778
43.0113
42.0452
41.0138
39.9588
38.9171
37.9044
36.9374
36.0346
35.185
34.3063
33.1137
30.6162
593.674
418.853
23.2711
33.3662
39.0048
42.2188
43.9407
44.9005
45.4312
45.6804
45.7278
45.6265
45.4121
45.1062
44.7198
44.2583
43.7315
43.1562
42.5385
41.8427
41.0352
40.1876
39.432
38.8427
38.4476
38.2441
38.2059
38.2917
38.4098
38.4385
38.2766
37.8579
37.0839
35.6666
32.4577
592.445
430
20.2268
22.9476
24.902
26.4846
27.7709
28.8269
29.7023
30.4172
30.9764
31.4036
31.7192
31.9104
31.9419
31.8169
31.571
31.2537
30.8888
30.4866
30.063
29.6748
29.4022
29.2779
29.3105
29.5322
29.9962
30.7475
31.726
32.8002
33.8067
34.5787
34.9013
34.4095
32.4284
603.523
421.229
11.8407
13.0978
13.7009
14.0677
14.3223
14.5107
14.6525
14.7532
14.8268
14.9061
15.0073
15.1481
15.33
15.5461
15.7899
16.0427
16.3189
16.6121
16.8952
17.1886
17.5999
18.1695
18.8043
19.4579
20.1314
20.7895
21.3697
21.7833
22.0511
21.6739
21.3953
24.7419
28.3268
607.592
428.645
15.8194
17.2279
17.9031
18.2711
18.4596
18.5226
18.4865
18.3635
18.1722
17.8972
17.5761
17.3619
17.2706
17.2569
17.2661
17.2822
17.3233
17.3429
17.2411
16.6545
15.3282
13.5924
12.3599
12.2672
13.0156
13.9855
14.8631
15.7534
17.1314
19.3593
22.7684
26.6434
28.6724
624.36
440.991
17.5703
17.6261
17.4854
17.2657
16.9895
16.6459
16.1906
15.5522
14.6958
13.4717
12.1905
12.2059
12.8906
13.4597
13.6389
13.32
14.1564
15.8246
17.0846
17.7934
18.2042
18.561
19.018
19.6247
20.3788
21.2957
22.4149
23.7538
25.2631
26.8156
28.2299
29.2605
29.5085
620.429
438.49
17.0386
17.7012
18.0848
18.3299
18.4461
18.4327
18.2583
17.7834
16.6964
15.1111
13.8545
13.3177
13.4816
14.4807
16.3599
18.3072
19.6515
20.5898
21.3185
21.9278
22.4877
23.0469
23.6352
24.2653
24.9347
25.6248
26.3004
26.9213
27.4559
27.8732
28.1109
28.0364
27.2001
607.57
438.545
17.541
17.8397
17.8438
17.7337
17.5445
17.2769
16.9068
16.4166
15.7588
14.7367
13.4785
12.6944
12.6936
13.5865
15.5033
17.8592
19.6479
20.7489
21.5119
22.1314
22.6946
23.248
23.8165
24.411
25.033
25.6727
26.307
26.8985
27.3905
27.7122
27.8032
27.6004
26.7785
607.999
440.865
17.9339
18.5002
18.7516
18.841
18.7814
18.557
18.1224
17.424
16.4811
15.4431
14.4618
13.7103
13.2746
13.1577
13.7811
15.4662
17.5399
19.1894
20.3407
21.1628
21.7785
22.2688
22.6962
23.1106
23.5535
24.064
24.6834
25.4425
26.2905
26.9949
27.2786
27.0065
25.5703
596.99
439.62
18.0008
18.4515
18.6021
18.6463
18.6075
18.4693
18.1688
17.609
16.7297
15.5614
14.2562
13.1586
12.6565
12.5817
12.6398
13.0376
14.0217
15.3835
16.7014
17.7464
18.511
19.0601
19.4505
19.7253
19.9262
20.1074
20.3547
20.7811
21.4154
22.0194
22.2818
21.9926
20.5242
587.195
437.339
18.0212
18.7975
19.1012
19.2364
19.2566
19.1761
18.9968
18.7036
18.241
17.5254
16.5105
15.2486
14.0433
13.334
13.0821
12.8729
12.522
12.2033
12.3236
13.0152
13.9457
14.827
15.5826
16.2201
16.7597
17.2091
17.5606
17.8383
18.0806
18.245
18.2108
17.8994
17.3263
590.269
441.168
18.6751
19.1432
19.3003
19.354
19.3347
19.2423
19.0603
18.7761
18.3933
17.8885
17.1585
16.0506
14.5333
12.9835
12.0069
12.0075
12.5609
13.024
13.2498
13.4211
13.6
13.7785
13.9582
14.1429
14.3362
14.5235
14.6672
14.7517
14.8054
14.9275
15.3612
16.0801
16.8094
593.439
445.371
19.1456
19.4369
19.5064
19.4728
19.3426
19.0996
18.7158
18.1964
17.6231
17.1203
16.7858
16.5804
16.3365
16.0941
15.6637
15.0234
14.3799
13.8458
13.3985
13.025
12.7357
12.49
12.2115
11.8224
11.3078
10.7312
10.3377
10.6206
11.4405
12.5077
13.8035
15.0978
16.0126
586.675
448.28
19.2831
19.4799
19.5239
19.4606
19.271
18.8985
18.2481
17.2871
16.1411
15.0426
14.2136
13.3176
11.8808
11.5913
13.0654
13.6813
13.6923
13.5664
13.4854
13.5099
13.6217
13.7714
13.9158
14.0077
14.0013
13.8964
13.7844
13.8349
14.0784
14.3744
14.5966
14.287
12.245
576.66
447.287
19.3869
19.6947
19.7578
19.6672
19.3926
18.8233
17.7841
16.2044
14.3137
13.136
14.2816
15.6721
14.5846
12.6516
11.8687
11.8981
12.2506
12.7713
13.2126
13.4223
13.4209
13.2963
13.162
13.1782
13.5069
14.142
14.86
15.3936
15.6294
15.6095
15.2899
14.2012
11.4366
579.942
442.882
19.0374
19.6001
19.8289
19.9332
19.9311
19.7818
19.3586
18.423
16.7496
14.4415
12.6605
13.759
16.3205
17.0604
16.5212
15.4222
14.0594
13.1185
12.7961
12.9467
13.3179
13.6355
13.6237
13.2237
12.4959
11.7788
11.5323
11.7716
12.1449
12.3423
12.2791
11.9144
11.6079
584.552
444.58
19.4634
19.9163
20.0672
20.11
20.0767
19.9769
19.823
19.5982
19.1567
18.2081
16.4548
13.9915
12.1375
12.6624
14.6997
16.6589
17.0694
16.6046
15.6842
14.5138
13.4035
12.6508
12.6289
13.4858
14.2408
14.1935
13.693
13.0773
12.5885
12.5098
12.7451
13.0973
13.6838
587.223
445.633
19.5893
19.9981
20.1169
20.1181
20.0206
19.8135
19.5006
19.124
18.7317
18.3055
17.7213
16.7603
15.1883
13.1076
11.4157
11.7204
13.5528
15.4696
16.6184
16.7207
16.0441
14.7218
12.9953
11.6335
11.7902
12.8956
13.7374
14.1707
14.4617
14.8361
15.3031
15.7755
16.2894
591.327
451.736
20.3017
20.3487
20.3263
20.2602
20.1429
19.9823
19.8142
19.628
19.3678
18.9922
18.4711
17.7824
16.9058
15.7349
14.131
12.3342
11.2135
11.5306
12.9239
14.415
15.2959
15.2178
14.2174
12.447
10.6131
10.5459
11.9787
13.2922
14.2011
14.8239
15.2085
15.4009
15.4936
587.164
452.164
20.0069
19.9776
19.904
19.751
19.4721
19.0633
18.6118
18.1991
17.8463
17.5459
17.2748
16.9986
16.672
16.2339
15.6125
14.729
13.5725
12.4537
11.9787
12.4919
13.7094
14.9098
15.5176
15.446
15.0004
14.6301
14.6721
14.9447
15.2272
15.4205
15.4416
15.1565
14.366
581.608
449.093
19.8379
20.1035
20.2184
20.2458
20.1715
19.9864
19.7159
19.3963
19.0332
18.5998
18.073
17.4815
16.9095
16.4228
16.012
15.6274
15.2062
14.6838
14.0709
13.5259
13.3073
13.6348
14.2201
14.5834
14.6813
14.7342
14.911
15.1571
15.3381
15.3848
15.2482
14.8085
13.8395
585.807
445.238
19.629
20.0877
20.254
20.2918
20.2037
19.9605
19.5488
19.027
18.5132
18.1062
17.7968
17.494
17.1297
16.6973
16.2325
15.7738
15.3311
14.8786
14.3583
13.6859
12.7963
11.943
11.7504
12.4552
13.3821
14.0331
14.4023
14.619
14.7616
14.8506
14.8791
14.9003
15.2749
594.634
445.521
19.9351
20.5007
20.747
20.8919
20.968
20.9624
20.8228
20.4523
19.8096
19.0478
18.408
17.9651
17.6251
17.2898
16.9154
16.4981
16.05
15.5785
15.0612
14.4318
13.6461
12.9205
12.2192
12.0843
12.9686
14.2431
15.2645
15.8751
16.1953
16.3462
16.3846
16.4073
16.7477
596.534
451.769
20.4063
20.5378
20.5575
20.518
20.4164
20.2479
20.0472
19.8308
19.5019
18.9774
18.377
17.8929
17.5326
17.2111
16.8895
16.5697
16.2342
15.8613
15.4262
14.8104
13.6447
12.5536
11.8948
11.4841
12.0936
13.7828
15.5665
16.8363
17.5237
17.8082
17.8653
17.8649
18.2294
601.579
456.2
20.6713
20.6109
20.5816
20.5086
20.3339
20.0058
19.5711
19.1606
18.7889
18.3976
17.992
17.6361
17.321
17.0098
16.6901
16.3333
15.903
15.3394
14.3934
12.3218
9.65144
10.5216
12.6373
12.8989
12.9981
14.0063
15.5287
16.8868
17.83
18.4304
18.8469
19.2642
20.0845
604.117
452.897
20.1551
20.283
20.3352
20.3002
20.1285
19.7725
19.2878
18.8367
18.4877
18.1837
17.877
17.5765
17.2911
16.9951
16.6695
16.3086
15.8711
15.216
14.0187
11.9024
9.38293
9.66837
12.4657
13.768
14.3645
15.0014
15.8753
16.8956
17.889
18.6907
19.258
19.6955
19.9632
595.355
451.36
20.1177
20.3166
20.4066
20.4224
20.3297
20.0757
19.6477
19.1435
18.6958
18.3378
18.0319
17.7495
17.4847
17.2257
16.9576
16.667
16.3358
15.9263
15.3506
14.4366
13.0619
11.8597
12.025
12.744
13.5456
14.5302
15.6756
16.8943
18.0382
18.9302
19.4922
19.7623
19.3383
589.202
452.475
20.1905
20.2721
20.2978
20.2688
20.1488
19.9006
19.5495
19.1775
18.8335
18.5145
18.2078
17.9099
17.6223
17.3362
17.0419
16.7326
16.3969
16.0097
15.5205
14.8618
14.0395
13.3324
13.1521
13.3165
13.5521
13.9889
14.7928
16.0277
17.4219
18.5142
19.1775
19.446
18.8913
589.723
451.487
20.01
20.1282
20.1699
20.1486
20.0247
19.7511
19.3517
18.9558
18.6695
18.4709
18.2877
18.0787
17.836
17.5589
17.2507
16.9093
16.5203
16.0469
15.4146
14.5083
13.2904
12.1703
11.964
12.6722
13.5666
14.3622
15.062
15.8305
16.8079
17.7163
18.3331
18.6354
18.2851
589.959
452.122
20.0426
20.0923
20.1019
20.0671
19.949
19.713
19.3913
19.0668
18.8057
18.6182
18.4688
18.3195
18.1493
17.9462
17.7067
17.4256
17.0882
16.665
16.1036
15.3135
14.1734
12.6865
11.2971
10.7707
11.3685
12.7628
14.4502
15.9213
16.9261
17.5802
17.9986
18.1742
17.731
587.525
451.502
19.8508
19.8998
19.8994
19.84
19.6683
19.3422
18.9398
18.6361
18.5113
18.493
18.4857
18.4476
18.3699
18.2565
18.1137
17.9405
17.7264
17.454
17.0954
16.6058
15.9183
14.9534
13.684
12.2683
11.1035
10.8055
11.8981
13.9869
15.9198
17.0398
17.587
17.7392
17.0903
584.993
451.389
19.8987
19.9467
19.9508
19.9178
19.8076
19.5553
19.1485
18.7097
18.4314
18.3682
18.4088
18.4453
18.4366
18.3838
18.3021
18.2
18.0754
17.921
17.7236
17.4625
17.1063
16.6101
15.9175
14.9799
13.7962
12.5048
11.5947
11.9008
13.4832
15.0841
16.0016
16.3616
15.8994
584.135
451.048
19.683
19.6783
19.6401
19.5658
19.4326
19.2102
18.8863
18.5129
18.2215
18.1276
18.1987
18.3103
18.3765
18.3797
18.3341
18.2569
18.1559
18.0338
17.8884
17.7142
17.5017
17.2365
16.8926
16.4261
15.7819
14.9179
13.8678
12.9069
12.6401
13.2788
14.1035
14.613
14.6283
584.576
451.774
19.8339
19.8147
19.7723
19.6957
19.5645
19.3619
19.0673
18.6838
18.2948
18.0414
18.0065
18.118
18.2423
18.3079
18.3069
18.2527
18.1559
18.0255
17.8654
17.6757
17.4562
17.2105
16.9507
16.6899
16.4104
16.037
15.482
14.7105
13.8429
13.2683
13.3192
13.6827
13.9835
584.899
450.509
19.5593
19.5716
19.5318
19.442
19.2953
19.1212
18.9388
18.7037
18.4034
18.1012
17.9157
17.9205
18.0472
18.1775
18.2495
18.2533
18.1918
18.0736
17.9041
17.6837
17.4108
17.0841
16.7141
16.3405
16.0397
15.8585
15.7107
15.4182
14.8628
14.1541
13.7375
13.7551
13.8831
584.038
451.648
19.8917
19.8875
19.8379
19.7337
19.5529
19.3242
19.1202
18.9205
18.6683
18.3601
18.0552
17.8635
17.8565
17.9729
18.105
18.1904
18.2042
18.1458
18.0186
17.8225
17.5524
17.1991
16.7527
16.2149
15.6357
15.1521
14.9275
14.9362
14.8996
14.6301
14.3031
14.1004
13.8582
582.535
450.713
19.6544
19.676
19.6343
19.5257
19.3275
19.0817
18.9116
18.8343
18.7614
18.6287
18.4251
18.1867
18.0032
17.9529
18.0194
18.122
18.1917
18.2003
18.1401
18.0066
17.7922
17.4845
17.0662
16.5127
15.8061
14.9849
14.2338
13.8588
13.9258
14.0703
14.0502
13.8949
13.4993
581.384
452.33
20.0936
20.0903
20.0335
19.9039
19.6574
19.3111
19.0147
18.8607
18.7963
18.7386
18.6423
18.4969
18.3226
18.1726
18.1095
18.1397
18.2031
18.2454
18.2404
18.1758
18.0417
17.8258
17.5103
17.0702
16.4709
15.6778
14.7119
13.7679
13.2085
13.1403
13.2282
13.22
12.9783
581.193
452.22
19.9441
19.9429
19.8957
19.7698
19.5132
19.1503
18.854
18.7312
18.7282
18.7552
18.7594
18.7215
18.641
18.5312
18.4296
18.3803
18.3837
18.4009
18.4011
18.3659
18.2835
18.1423
17.927
17.6182
17.19
16.6071
15.8329
14.881
13.9221
13.2732
13.0402
12.991
12.8991
581.895
453.967
20.2998
20.256
20.1885
20.0386
19.7319
19.2698
18.8411
18.6178
18.5849
18.6422
18.7144
18.7652
18.7823
18.7632
18.7196
18.678
18.6584
18.6501
18.6348
18.5987
18.5322
18.426
18.2686
18.0466
17.7429
17.3341
16.7884
16.0733
15.2013
14.3312
13.7441
13.4993
13.3681
582.963
453.303
20.1024
20.0985
20.0614
19.9327
19.632
19.1525
18.6761
18.3901
18.3189
18.3838
18.5066
18.6391
18.7564
18.8437
18.8969
18.9242
18.9372
18.9347
18.9126
18.8671
18.7951
18.6913
18.5481
18.3561
18.1038
17.7753
17.348
16.7888
16.0683
15.2357
14.5286
14.1472
13.9087
583.706
454.456
20.3735
20.3539
20.3132
20.1807
19.86
19.3135
18.7052
18.255
18.0434
18.0285
18.1389
18.3175
18.5247
18.727
18.8988
19.0278
19.1117
19.149
19.1432
19.0995
19.0218
18.9101
18.7601
18.5657
18.3181
18.0048
17.6063
17.0924
16.4328
15.6606
14.97
14.5444
14.2056
583.712
453.475
20.1279
20.159
20.1635
20.0831
19.8244
19.3325
18.7245
18.1954
17.8533
17.7077
17.729
17.8834
18.1363
18.439
18.7358
18.9825
19.1562
19.2511
19.2762
19.2437
19.1631
19.0388
18.8698
18.6519
18.3787
18.0404
17.6227
17.107
16.4803
15.7829
15.1636
14.7247
14.2682
583.014
453.882
20.2653
20.2977
20.3097
20.2488
20.0235
19.5573
18.9251
18.305
17.8192
17.5053
17.3649
17.3969
17.5993
17.9415
18.3487
18.7306
19.0245
19.2073
19.2882
19.2856
19.2138
19.0806
18.8871
18.6298
18.3022
17.8973
17.4154
16.8737
16.2976
15.7155
15.1915
14.7383
14.1388
581.945
452.788
20.0017
20.0795
20.1358
20.1411
20.0188
19.6858
19.1613
18.5692
18.023
17.577
17.2535
17.0754
17.0805
17.301
17.711
18.2048
18.6532
18.9764
19.1633
19.233
19.2052
19.0912
18.8935
18.6075
18.2227
17.7277
17.1292
16.4838
15.8864
15.3795
14.9378
14.4919
13.8082
580.993
452.994
20.0451
20.1063
20.1612
20.1826
20.1044
19.8485
19.4143
18.889
18.3603
17.8734
17.4461
17.0947
16.8546
16.7915
16.9766
17.4093
17.9647
18.4696
18.8319
19.0424
19.1217
19.0866
18.9429
18.6873
18.306
17.7781
17.0928
16.2975
15.5339
14.937
14.4911
14.0679
13.422
580.509
451.99
19.7887
19.8807
19.9679
20.0413
20.0495
19.9157
19.6117
19.1909
18.7256
18.2603
17.813
17.3918
17.0101
16.705
16.5554
16.6697
17.0832
17.6644
18.2156
18.6252
18.8759
18.9831
18.96
18.8097
18.5222
18.0745
17.4397
16.6231
15.7291
14.952
14.3913
13.9433
13.3512
580.584
451.815
19.7519
19.8357
19.9192
20.002
20.0496
19.9973
19.8036
19.4919
19.1117
18.7007
18.278
17.8513
17.4242
17.0056
16.6255
16.3709
16.3815
16.7345
17.3103
17.8999
18.3629
18.6607
18.8035
18.8059
18.6682
18.375
17.8991
17.2222
16.3914
15.5668
14.911
14.3938
13.7544
581.009
451.099
19.594
19.6965
19.7924
19.8955
19.9869
20.0125
19.9234
19.7216
19.4398
19.1078
18.743
18.3536
17.9429
17.5104
17.0562
16.6047
16.2442
16.1377
16.3956
16.937
17.5513
18.061
18.3986
18.5715
18.5945
18.4662
18.1691
17.6831
17.0254
16.2994
15.6441
15.0673
14.3071
581.379
451.179
19.6296
19.7172
19.7979
19.89
19.9891
20.0569
20.0404
19.9251
19.7299
19.4777
19.1831
18.8531
18.4907
18.0945
17.6574
17.1734
16.6588
16.198
15.9622
16.0936
16.5637
17.178
17.7199
18.088
18.2747
18.2942
18.1464
17.8208
17.3272
16.7322
16.1316
15.531
14.6604
581.47
451.47
19.6707
19.734
19.7985
19.8794
19.9834
20.0844
20.1275
20.0831
19.9606
19.7789
19.5517
19.286
18.9844
18.6454
18.2623
17.824
17.3188
16.7572
16.2187
15.8627
15.8516
16.2125
16.7909
17.353
17.7424
17.9232
17.9063
17.7001
17.3212
16.8226
16.2734
15.6674
14.7249
581.312
452.354
19.8064
19.8173
19.8514
19.9085
20.0046
20.1275
20.2181
20.2343
20.1741
20.0523
19.8826
19.6738
19.4292
19.1483
18.8265
18.4546
18.0176
17.5006
16.9131
16.3218
15.866
15.7057
15.921
16.4168
16.9609
17.3481
17.5023
17.4287
17.1567
16.7402
16.2408
15.6499
14.6891
581.212
453.285
19.904
19.8595
19.8669
19.9071
19.9996
20.1431
20.2743
20.3408
20.3341
20.2653
20.147
19.9882
19.7943
19.5663
19.3012
18.9931
18.63
18.1949
17.6752
17.0804
16.4661
15.9461
15.6668
15.7335
16.1048
16.5772
16.9197
17.0237
16.8948
16.5879
16.164
15.6191
14.6876
581.299
453.746
19.8979
19.8181
19.8091
19.8348
19.9206
20.0871
20.2682
20.393
20.4425
20.4247
20.3521
20.2354
20.0823
19.8964
19.677
19.421
19.1207
18.7629
18.3327
17.8226
17.2413
16.6351
16.0945
15.7432
15.6789
15.8993
16.2417
16.4848
16.5175
16.3531
16.0449
15.5972
14.7718
581.745
453.25
19.7857
19.7298
19.7278
19.7344
19.7708
19.9019
20.1037
20.2889
20.4092
20.4579
20.443
20.3749
20.2633
20.115
19.9325
19.7161
19.4618
19.1602
18.7999
18.3723
17.8731
17.3175
16.7504
16.2451
15.8832
15.7424
15.8306
16.0166
16.1203
16.0649
15.8677
15.5338
14.858
582.366
451.934
19.6426
19.6834
19.7238
19.7265
19.6875
19.6949
19.8265
20.0294
20.2148
20.339
20.3943
20.386
20.3232
20.2148
20.0662
19.881
19.659
19.3954
19.0811
18.7091
18.2746
17.7845
17.2685
16.7703
16.3341
16.0106
15.8548
15.8586
15.9058
15.8767
15.7408
15.4903
14.9396
582.884
450.517
19.5662
19.7432
19.8545
19.8927
19.8197
19.6688
19.5906
19.6785
19.8669
20.0556
20.1909
20.2576
20.258
20.2001
20.0905
19.9355
19.7381
19.4966
19.2046
18.8559
18.4471
17.9873
17.5099
17.0549
16.649
16.31
16.0703
15.9548
15.915
15.8517
15.7169
15.4844
14.9528
582.802
449.505
19.5635
19.8711
20.0768
20.2096
20.2178
20.049
19.761
19.5609
19.5678
19.7163
19.8918
20.026
20.0954
20.0978
20.0369
19.9191
19.7494
19.5282
19.2506
18.9091
18.4978
18.0274
17.5394
17.091
16.7175
16.4204
16.2031
16.0744
16.0002
15.9037
15.744
15.4805
14.8695
582.167
449.243
19.5919
19.9618
20.2336
20.4647
20.6111
20.5918
20.3409
19.9396
19.6261
19.5454
19.6389
19.7835
19.9005
19.9593
19.9513
19.8786
19.7452
19.5518
19.2941
18.9632
18.5473
18.0515
17.5156
17.0178
16.627
16.3519
16.1702
16.0616
15.984
15.8712
15.6893
15.3848
14.6691
581.355
449.868
19.6897
20.0332
20.3095
20.5866
20.8391
20.9875
20.9365
20.6335
20.1705
19.7883
19.6405
19.6749
19.772
19.8527
19.8822
19.851
19.7578
19.6014
19.3766
19.0726
18.674
18.1742
17.595
17.012
16.5333
16.2142
16.0288
15.9217
15.8352
15.7116
15.52
15.197
14.434
580.793
451.184
19.8598
20.1175
20.3524
20.6191
20.909
21.1533
21.2588
21.1586
20.8335
20.3763
20.0013
19.8343
19.8227
19.865
19.8941
19.8822
19.8188
19.6981
19.5127
19.2487
18.8899
18.4216
17.8443
17.2021
16.6011
16.1542
15.8892
15.7407
15.6263
15.488
15.2947
14.9792
14.2385
580.556
452.901
20.0526
20.2014
20.3935
20.6505
20.9545
21.2336
21.4041
21.4173
21.2568
20.932
20.5371
20.2331
20.0852
20.0406
20.027
20.002
19.9454
19.8454
19.6918
19.4678
19.1572
18.7427
18.2121
17.5775
16.9032
16.3074
15.8918
15.646
15.4807
15.3217
15.1295
14.8357
14.1552
580.591
453.936
20.0235
20.062
20.2235
20.5003
20.854
21.1856
21.4099
21.495
21.442
21.2598
20.9804
20.6897
20.4768
20.3543
20.2819
20.2216
20.1494
20.0502
19.9105
19.7133
19.4427
19.0816
18.6144
18.0348
17.3666
16.6853
16.1122
15.7196
15.4657
15.2682
15.0689
14.7928
14.1694
580.74
453.47
19.7204
19.6979
19.8263
20.093
20.4678
20.8567
21.1648
21.3508
21.413
21.3629
21.2211
21.0291
20.8433
20.6978
20.5878
20.4946
20.4003
20.2907
20.1521
19.9684
19.7243
19.4051
18.9954
18.4831
17.8691
17.1856
16.5221
15.989
15.619
15.3567
15.1312
14.8552
14.2613
580.914
451.48
19.291
19.2984
19.3912
19.5605
19.8227
20.173
20.5487
20.8692
21.0905
21.2042
21.2208
21.1639
21.0666
20.9589
20.8537
20.7514
20.6457
20.5281
20.3879
20.2112
19.9846
19.6959
19.3316
18.879
18.3297
17.6889
17.0063
16.3817
15.8987
15.5537
15.2826
14.9861
14.3896
581.057
449.284
19.0464
19.1623
19.2452
19.2999
19.3447
19.4565
19.7042
20.0529
20.4073
20.6981
20.8973
21.0065
21.0429
21.0277
20.9782
20.9061
20.8162
20.708
20.5762
20.4103
20.2007
19.9374
19.6098
19.2065
18.717
18.1346
17.4786
16.8202
16.2561
15.83
15.5029
15.17
14.5428
581.184
447.641
18.9492
19.2062
19.3612
19.4496
19.4423
19.3373
19.2404
19.2991
19.5458
19.8936
20.2376
20.5156
20.7122
20.8311
20.8845
20.8867
20.8492
20.7784
20.6747
20.5323
20.3463
20.1098
19.8151
19.4535
19.0142
18.4859
17.8735
17.2217
16.6168
16.1302
15.7508
15.3757
14.7024
581.323
446.72
18.8399
19.2011
19.4507
19.6628
19.8147
19.8349
19.6562
19.3581
19.1516
19.184
19.4314
19.7716
20.0985
20.359
20.5407
20.6511
20.7008
20.699
20.6494
20.5509
20.4025
20.2011
19.9424
19.6213
19.2281
18.751
18.187
17.5637
16.9527
16.432
16.0111
15.5934
14.8657
581.505
446.547
18.8754
19.2988
19.5723
19.8018
20.0236
20.2465
20.3585
20.202
19.7913
19.3379
19.094
19.1521
19.4146
19.7327
20.0152
20.2313
20.3794
20.4643
20.488
20.452
20.3568
20.2015
19.9851
19.7057
19.356
18.9262
18.4114
17.8293
17.2373
16.7102
16.2655
15.8128
15.0319
581.733
448.015
19.5498
20.0827
20.3684
20.5072
20.5343
20.6068
20.8092
20.9225
20.7623
20.3109
19.7115
19.245
19.1082
19.2499
19.5043
19.7591
19.9713
20.1269
20.2215
20.2532
20.2197
20.1193
19.9523
19.7178
19.4115
19.0267
18.56
18.0238
17.464
16.9467
16.4894
16.0057
15.1701
581.928
451.882
20.7808
21.3985
21.7615
21.9132
21.785
21.5381
21.4772
21.5166
21.4432
21.1719
20.674
20.0171
19.4546
19.2138
19.2549
19.4251
19.6205
19.7935
19.9252
20.0046
20.0226
19.9727
19.8532
19.6615
19.3951
19.0515
18.6312
18.146
17.6317
17.1405
16.6841
16.1767
15.2858
582.034
456.638
21.7575
22.2754
22.7164
22.9989
22.9471
22.6697
22.4269
22.2561
22.0614
21.7828
21.3755
20.8026
20.1257
19.5781
19.3261
19.3122
19.4135
19.5485
19.6754
19.7708
19.8173
19.8021
19.7182
19.5597
19.3238
19.0106
18.626
18.1838
17.7129
17.2509
16.7999
16.2702
15.3156
581.889
458.14
21.8324
22.2416
22.8071
23.2891
23.4441
23.3654
23.1848
22.9576
22.6881
22.3605
21.9486
21.42
20.7684
20.0965
19.6038
19.3738
19.3357
19.3958
19.4888
19.5763
19.6312
19.6337
19.571
19.4334
19.2167
18.9227
18.5623
18.1531
17.7195
17.2857
16.8442
16.2982
15.2834
581.552
454.635
20.9883
21.4921
22.3005
23.0391
23.4293
23.5694
23.5538
23.4237
23.1986
22.8887
22.492
21.9932
21.377
20.6753
20.0222
19.5721
19.3568
19.3077
19.3454
19.4115
19.465
19.4768
19.4269
19.3009
19.0918
18.802
18.4464
18.0493
17.636
17.2214
16.789
16.2335
15.1699
581.045
449.646
19.7208
20.3289
21.2585
22.2149
22.8838
23.2884
23.4973
23.5483
23.4629
23.2587
22.9464
22.5249
21.9823
21.3168
20.5886
19.9402
19.5014
19.2881
19.2354
19.2632
19.3099
19.3312
19.2961
19.1835
18.9825
18.6939
18.3343
17.9349
17.5266
17.1213
16.6967
16.1406
15.0515
580.589
446.159
18.5178
18.9538
19.6174
20.5813
21.5568
22.3385
22.8817
23.2088
23.3504
23.3347
23.1823
22.9042
22.4985
21.953
21.2712
20.5224
19.8567
19.4068
19.1928
19.1397
19.1618
19.1898
19.1733
19.0799
18.8928
18.6096
18.2468
17.8401
17.4275
17.0238
16.6043
16.0543
14.9643
580.285
444.99
18.0114
18.2048
18.4509
18.974
19.8404
20.842
21.7341
22.3979
22.8238
23.0471
23.1011
23.0088
22.7809
22.4142
21.8936
21.2167
20.4534
19.7666
19.3075
19.0933
19.0456
19.0646
19.0679
19.0037
18.8442
18.5808
18.2274
17.8214
17.4068
17.0027
16.5863
16.0439
14.9631
580.199
445.536
18.4189
18.6744
18.8046
18.9063
19.1529
19.7219
20.5436
21.3756
22.0399
22.4898
22.7457
22.8389
22.7896
22.6055
22.278
21.7857
21.1206
20.3537
19.6616
19.2018
18.9991
18.9633
18.9733
18.9409
18.8181
18.5886
18.2606
17.8688
17.4592
17.0548
16.6374
16.0977
15.0256
580.286
446.6
18.9562
19.3979
19.6963
19.8948
19.9478
19.957
20.1804
20.6954
21.3253
21.8788
22.2764
22.5137
22.6086
22.5727
22.4064
22.0959
21.6171
20.9643
20.2125
19.5362
19.1028
18.9321
18.9042
18.8889
18.8069
18.6239
18.339
17.9805
17.5903
17.1934
16.7767
16.2387
15.1734
580.526
446.731
18.703
19.1164
19.5427
20.0522
20.5195
20.7367
20.7157
20.7318
20.9778
21.3908
21.8087
22.1314
22.3306
22.406
22.3611
22.1904
21.8775
21.4002
20.7587
20.0281
19.3924
19.0189
18.8881
18.855
18.7968
18.6534
18.4115
18.0913
17.7279
17.344
16.93
16.39
15.3197
580.751
446.306
17.9769
18.1511
18.4819
19.1181
20.0425
20.8552
21.2505
21.2743
21.1864
21.2368
21.4653
21.7571
22.0037
22.1562
22.2028
22.139
21.9565
21.6378
21.1605
20.5273
19.8295
19.2637
18.9622
18.8575
18.7998
18.6884
18.4877
18.2057
17.87
17.5005
17.0904
16.5488
15.4727
580.988
446.961
17.9475
17.964
18.0831
18.4555
19.3775
20.5583
21.3928
21.7498
21.7528
21.5916
21.4907
21.5549
21.7177
21.8739
21.966
21.9746
21.8896
21.6967
21.3725
20.8952
20.2814
19.648
19.1771
18.9361
18.8241
18.7151
18.5428
18.2956
17.9889
17.6375
17.2352
16.6959
15.6196
581.239
449.51
18.9962
19.1533
19.2536
19.3432
19.7713
20.7484
21.6609
22.1626
22.3164
22.222
21.976
21.7429
21.6511
21.6728
21.7239
21.7465
21.7118
21.5992
21.3864
21.0482
20.5712
20.0001
19.4693
19.1123
18.9179
18.7781
18.6089
18.3803
18.0946
17.7593
17.3665
16.8327
15.7603
581.477
451.9
19.9672
20.3141
20.5608
20.6935
20.8379
21.3983
22.1452
22.6444
22.8543
22.8459
22.6553
22.318
21.956
21.7097
21.5987
21.5545
21.5133
21.4342
21.2894
21.052
20.698
20.2315
19.7249
19.3089
19.0429
18.8632
18.6844
18.4631
18.1899
17.8651
17.478
16.9434
15.8592
581.579
452.185
20.1582
20.536
20.889
21.19
21.399
21.7533
22.3774
22.934
23.2497
23.3508
23.2786
23.0389
22.6353
22.1562
21.7675
21.5345
21.4017
21.2971
21.1728
20.9949
20.7336
20.3716
19.9306
19.5022
19.1796
18.9548
18.7572
18.5351
18.269
17.9524
17.572
17.0429
15.9634
581.726
451.247
19.822
20.1086
20.5006
20.9786
21.3585
21.6857
22.2063
22.8372
23.3199
23.5824
23.658
23.5755
23.3305
22.907
22.3662
21.8761
21.5368
21.3144
21.1418
20.9676
20.7544
20.4727
20.1113
19.7103
19.353
19.0783
18.8499
18.6176
18.353
18.0426
17.6686
17.1456
16.0734
581.918
451.5
19.4089
19.451
19.8471
20.5829
21.2169
21.6322
22.0424
22.6069
23.1805
23.5934
23.8151
23.8728
23.7826
23.5328
23.1051
22.5502
22.0133
21.5978
21.2954
21.0528
20.8228
20.5669
20.2591
19.9033
19.5472
19.2393
18.9761
18.7232
18.4515
18.142
17.7724
17.2549
16.1889
582.154
452.425
18.8038
18.4481
18.7746
19.8517
20.8903
21.5681
22.0342
22.5037
23.037
23.5176
23.8521
24.028
24.0586
23.9463
23.6736
23.2304
22.672
22.1209
21.6628
21.2977
20.9862
20.688
20.3745
20.0361
19.6942
19.3811
19.1006
18.8306
18.5472
18.2311
17.8573
17.3332
16.249
582.219
452.068
18.1166
17.4831
17.5152
18.5019
19.8371
20.9125
21.6589
22.2268
22.7593
23.2743
23.7014
23.9927
24.1437
24.1622
24.0453
23.7795
23.364
22.8486
22.3221
21.8464
21.4251
21.0339
20.6479
20.2575
19.8789
19.5384
19.2376
18.9537
18.6619
18.3412
17.9648
17.4373
16.3434
582.364
450.297
18.1797
17.744
17.3489
17.2389
18.0002
19.3372
20.5225
21.3855
22.0567
22.6436
23.1506
23.5356
23.7759
23.8684
23.8195
23.6404
23.3537
22.9958
22.6068
22.2113
21.8147
21.4094
20.9854
20.5436
20.1083
19.7146
19.3733
19.0637
18.7573
18.4281
18.0452
17.5066
16.3868
582.391
449.411
19.2018
19.2503
18.8436
17.8551
16.8914
17.4028
18.8895
20.1507
21.018
21.685
22.2632
22.7472
23.1016
23.3135
23.3897
23.3435
23.1949
22.9694
22.6905
22.3738
22.0251
21.6428
21.2237
20.7738
20.3185
19.8945
19.5194
19.1799
18.8499
18.5026
18.1054
17.5504
16.3994
582.221
449.984
20.1257
20.7169
20.7715
20.1363
18.4164
16.6797
17.2188
18.8659
20.1516
20.9373
21.4284
21.8277
22.2075
22.5244
22.7454
22.8631
22.8822
22.8129
22.667
22.4545
22.1812
21.8482
21.4558
21.0124
20.5451
20.0948
19.688
19.3199
18.9674
18.6029
18.1914
17.6199
16.435
582.038
450.2
20.3977
21.2796
21.8066
21.8921
21.1637
19.125
17.0873
17.3616
18.9619
20.4022
21.3328
21.8728
22.2164
22.4585
22.6209
22.7143
22.7459
22.718
22.6309
22.4839
22.2752
22.0015
21.659
21.2499
20.7933
20.327
19.8871
19.4833
19.1001
18.7104
18.2766
17.682
16.4706
582.131
449.136
20.1966
20.9794
21.6415
22.2502
22.6059
22.3236
20.7999
18.5986
17.6464
18.5044
20.0239
21.1815
21.8751
22.2819
22.5187
22.649
22.7049
22.6999
22.6387
22.5213
22.3456
22.1072
21.8011
21.4267
20.9965
20.5406
20.0929
19.6696
19.2627
18.8494
18.3924
17.7692
16.5107
582.114
449.786
20.0109
20.5488
21.097
21.7515
22.4906
23.2247
23.6736
23.3283
21.5561
18.6294
16.8694
17.9521
19.692
20.8836
21.6277
22.0893
22.3591
22.4936
22.5276
22.4802
22.3596
22.1667
21.899
21.5564
21.1493
20.7036
20.2518
19.813
19.3836
18.9432
18.4524
17.7748
16.4079
581.716
454.918
20.608
20.8915
21.4079
21.8851
22.0874
22.1679
22.4355
22.8365
22.9986
22.3628
19.5511
16.7836
17.581
19.3852
20.5726
21.2816
21.7356
22.0307
22.2039
22.2736
22.2494
22.1352
21.9314
21.6406
21.2742
20.8568
20.4189
19.9793
19.5373
19.0755
18.5569
17.845
16.4424
581.912
456.355
20.3229
20.5144
21.6006
22.593
22.863
22.5072
21.682
20.6945
19.7225
18.647
18.17
18.9853
19.9195
20.5952
21.0955
21.4929
21.8003
22.0129
22.1414
22.1935
22.1681
22.0621
21.8734
21.6049
21.269
20.8869
20.4803
20.0602
19.6234
19.1538
18.6128
17.8517
16.3524
581.556
452.329
18.7936
18.5758
19.9474
21.3757
21.913
21.8203
21.059
19.7786
18.9077
19.0189
19.5733
20.1826
20.699
21.1061
21.4337
21.6979
21.9015
22.0449
22.1288
22.1513
22.1083
21.9948
21.8082
21.5512
21.2345
20.8739
20.4834
20.0685
19.6242
19.1351
18.5597
17.7357
16.1301
580.882
452.086
18.29
17.3522
17.7047
19.2267
20.1643
20.5549
20.4223
19.855
19.3797
19.5086
19.9737
20.4446
20.8518
21.1899
21.4666
21.688
21.8561
21.9726
22.0382
22.0508
22.0062
21.8997
21.7289
21.496
21.2087
20.8781
20.5129
20.1161
19.6833
19.2012
18.6309
17.812
16.1969
580.556
451.68
18.2062
16.9751
16.3585
17.6697
18.6454
19.1666
19.3763
19.414
19.4875
19.7188
20.0618
20.4352
20.7945
21.1157
21.3884
21.6093
21.7777
21.8939
21.9594
21.9729
21.9309
21.8296
21.6673
21.4461
21.1729
20.8561
20.5019
20.1113
19.679
19.1903
18.6007
17.7336
16.0055
579.802
452.045
18.3891
16.8035
14.7679
15.9033
17.357
18.1965
18.6949
19.0231
19.2892
19.5658
19.8753
20.2116
20.556
20.8826
21.1711
21.4109
21.5979
21.7318
21.8149
21.8469
21.8254
21.747
21.6095
21.4138
21.1648
20.8696
20.5334
20.1573
19.7371
19.26
18.6851
17.8428
16.1465
579.851
454.199
18.9242
17.254
14.3821
13.7939
15.8871
17.1847
17.9232
18.4203
18.8054
19.1433
19.4728
19.813
20.1719
20.533
20.8686
21.1561
21.3848
21.5527
21.6632
21.7181
21.7166
21.657
21.5376
21.3595
21.127
20.8467
20.5238
20.1598
19.7508
19.2833
18.7132
17.8584
16.0844
579.308
454.175
18.8654
17.5751
15.36
12.4559
14.5651
16.2771
17.223
17.8279
18.2764
18.6448
18.9783
19.3107
19.6647
20.0426
20.4201
20.7679
21.0603
21.2869
21.4489
21.5489
21.5875
21.5632
21.4748
21.3232
21.1124
20.849
20.5388
20.1846
19.7833
19.322
18.7553
17.8958
16.0905
579.216
453.005
18.7368
17.7415
15.9151
11.9345
12.9218
15.2482
16.5067
17.2483
17.7657
18.1718
18.5188
18.8425
19.1735
19.5341
19.9236
20.314
20.6633
20.945
21.1539
21.2946
21.3703
21.3813
21.327
21.2078
21.0268
20.7895
20.5018
20.1667
19.7823
19.3368
18.7858
17.9426
16.1423
579.1
451.788
18.9376
18.3104
16.9719
13.5057
10.9594
13.8454
15.6508
16.6322
17.2575
17.7175
18.0859
18.4037
18.7039
19.0179
19.37
19.7635
20.1677
20.5321