/*--------------------------------*- C++ -*----------------------------------*\
| =========                 |                                                 |
| \\      /  F ield         | OpenFOAM: The Open Source CFD Toolbox           |
|  \\    /   O peration     | Version:  v2006                                 |
|   \\  /    A nd           | Website:  www.openfoam.com                      |
|    \\/     M anipulation  |                                                 |
\*---------------------------------------------------------------------------*/
FoamFile
{
    version     2.0;
    format      ascii;
    class       volVectorField;
    location    "14";
    object      U;
}
// * * * * * * * * * * * * * * * * * * * * * * * * * * * * * * * * * * * * * //

dimensions      [0 1 -1 0 0 0 0];


internalField   nonuniform List<vector> 
78750
(
(-0.429888 0.0517119 1.9735)
(0.446323 -0.00216935 1.89888)
(0.227109 -0.147646 1.74064)
(0.0375617 -0.202085 1.20535)
(0.0560884 -0.132565 0.33327)
(0.0802722 -0.0246272 -0.344371)
(0.0741396 0.0460176 -0.656699)
(0.0554632 0.0726605 -0.749052)
(0.0313765 0.0737005 -0.751221)
(0.0091351 0.0631624 -0.718681)
(-0.0107736 0.0495035 -0.671645)
(-0.0311627 0.0364008 -0.609485)
(-0.0519806 0.0236158 -0.527886)
(-0.0719707 0.00875312 -0.425648)
(-0.0902354 -0.0104603 -0.309448)
(-0.107045 -0.0357856 -0.191939)
(-0.121703 -0.0657397 -0.0966519)
(-0.132299 -0.0931198 -0.0490738)
(-0.138527 -0.113309 -0.0436568)
(-0.142562 -0.128877 -0.0535719)
(-0.144716 -0.141768 -0.0628787)
(-0.144664 -0.152302 -0.0665247)
(-0.1433 -0.161094 -0.0647408)
(-0.141245 -0.168436 -0.0597372)
(-0.138608 -0.174157 -0.053141)
(-0.135309 -0.178114 -0.0458219)
(-0.130966 -0.180321 -0.0384236)
(-0.124892 -0.180947 -0.0314792)
(-0.116291 -0.180367 -0.0253478)
(-0.104613 -0.179198 -0.0198964)
(-0.0893704 -0.177846 -0.0142193)
(-0.0705604 -0.176652 -0.00711471)
(-0.0494992 -0.175263 0.00205481)
(-0.0299841 -0.17121 0.0118926)
(-0.0129339 -0.147663 0.021373)
(0.161722 -0.102791 -2.04876)
(0.129597 -0.350304 -3.01384)
(0.165335 -0.340648 -3.3902)
(0.18903 -0.250547 -2.72933)
(0.206379 -0.114551 -1.77682)
(0.222794 0.0203666 -1.23857)
(0.240825 0.127694 -0.992768)
(0.257385 0.202393 -0.874453)
(0.272106 0.24889 -0.810743)
(0.283254 0.272554 -0.772025)
(0.291754 0.280207 -0.746271)
(0.297887 0.276791 -0.727141)
(0.302122 0.265741 -0.711228)
(0.304658 0.249205 -0.696921)
(0.305577 0.228829 -0.683628)
(0.304877 0.206046 -0.671142)
(0.302578 0.182399 -0.65943)
(0.298851 0.159567 -0.648061)
(0.294022 0.13903 -0.636046)
(0.288325 0.121817 -0.622348)
(0.281584 0.108734 -0.605805)
(0.273338 0.100597 -0.585189)
(0.263018 0.0975903 -0.559564)
(0.250248 0.0984928 -0.529013)
(0.235097 0.100909 -0.494938)
(0.217862 0.102148 -0.459282)
(0.198845 0.100157 -0.423497)
(0.178239 0.0938147 -0.388063)
(0.156151 0.0829227 -0.352496)
(0.132754 0.0681128 -0.315633)
(0.108188 0.0504833 -0.276005)
(0.0824111 0.0309133 -0.233575)
(0.0566763 0.00998365 -0.191312)
(0.0337185 -0.0120881 -0.148651)
(0.0124048 -0.0357563 -0.0747824)
(-0.0161288 -0.0798561 0.249862)
(-0.00117224 0.0196266 -0.118851)
(-0.00949182 0.0410705 -0.293387)
(-0.00452858 0.0694215 -0.394496)
(0.00315599 0.100711 -0.450841)
(0.0159768 0.129195 -0.476588)
(0.0334982 0.152493 -0.490287)
(0.0544209 0.171014 -0.498234)
(0.077185 0.18513 -0.502311)
(0.0999709 0.19502 -0.503208)
(0.121365 0.200828 -0.501399)
(0.140419 0.202802 -0.497215)
(0.156523 0.201222 -0.490835)
(0.169323 0.196331 -0.482189)
(0.178696 0.188252 -0.470814)
(0.184771 0.176838 -0.455794)
(0.188014 0.16183 -0.436161)
(0.189289 0.143601 -0.412201)
(0.189577 0.123963 -0.386362)
(0.189472 0.106502 -0.362608)
(0.188806 0.0951797 -0.344504)
(0.186864 0.0917726 -0.333878)
(0.182807 0.0952767 -0.331158)
(0.176166 0.103389 -0.335867)
(0.167026 0.114128 -0.346929)
(0.155789 0.126655 -0.362995)
(0.142456 0.141201 -0.382066)
(0.126553 0.157839 -0.399493)
(0.108111 0.175079 -0.409081)
(0.0879489 0.189495 -0.406278)
(0.0675483 0.196975 -0.389965)
(0.0484903 0.194116 -0.360797)
(0.0317156 0.177725 -0.316889)
(0.017869 0.141664 -0.245213)
(0.00534652 0.0704545 -0.0942735)
(-0.0102741 -0.128912 0.0797977)
(-0.0113364 -0.0536317 0.0818769)
(-0.00416088 -0.0101373 0.0632167)
(0.00592931 0.0191978 0.0418278)
(0.0182928 0.0440006 0.0206217)
(0.0325887 0.068155 0.00111361)
(0.0480226 0.0923094 -0.0163386)
(0.0638014 0.115888 -0.0315262)
(0.0794867 0.138235 -0.0439974)
(0.094847 0.158941 -0.0531638)
(0.109625 0.178186 -0.0591625)
(0.123662 0.196085 -0.0622092)
(0.136715 0.212007 -0.0613983)
(0.148509 0.224751 -0.055796)
(0.159209 0.233644 -0.0455997)
(0.168852 0.23872 -0.0315622)
(0.177385 0.240725 -0.0149942)
(0.184583 0.24055 0.00232827)
(0.190207 0.239395 0.0186451)
(0.193638 0.238157 0.0325069)
(0.19461 0.237584 0.0432151)
(0.192932 0.238345 0.0507998)
(0.188413 0.241281 0.0550507)
(0.181282 0.24738 0.0553759)
(0.172357 0.257663 0.0510229)
(0.162425 0.273289 0.0417007)
(0.151616 0.294322 0.0273367)
(0.139546 0.316143 0.00704739)
(0.126684 0.331476 -0.0207243)
(0.113364 0.333702 -0.0575716)
(0.0994428 0.320152 -0.102695)
(0.0829911 0.293781 -0.143375)
(0.0634562 0.259918 -0.158275)
(0.0436088 0.22148 -0.142528)
(0.0222906 0.162435 -0.0789393)
(-0.00570253 -0.0515145 0.104144)
(0.00125363 -0.13969 0.118587)
(0.0170224 -0.173027 0.115761)
(0.0357659 -0.186747 0.113105)
(0.0570272 -0.19074 0.111729)
(0.0794793 -0.188372 0.111251)
(0.101999 -0.181421 0.110997)
(0.123917 -0.170835 0.11057)
(0.14488 -0.157202 0.109679)
(0.16465 -0.140854 0.108095)
(0.183032 -0.122052 0.105896)
(0.200086 -0.100756 0.103263)
(0.216003 -0.0766848 0.100437)
(0.230694 -0.0501284 0.097716)
(0.244132 -0.0213848 0.0956771)
(0.25621 0.00888378 0.0947885)
(0.266386 0.0392263 0.0962308)
(0.273653 0.0692787 0.0984576)
(0.278183 0.0990967 0.101081)
(0.280874 0.126954 0.103937)
(0.283087 0.153467 0.106531)
(0.285225 0.18237 0.109321)
(0.286366 0.212452 0.111394)
(0.285127 0.236898 0.111544)
(0.280632 0.253702 0.110915)
(0.273286 0.265937 0.109818)
(0.264837 0.275318 0.105932)
(0.255894 0.280559 0.0971561)
(0.245944 0.280542 0.083261)
(0.233318 0.281317 0.0678484)
(0.212591 0.293826 0.0869045)
(0.183688 0.311578 0.149967)
(0.130519 0.346291 0.131814)
(0.077484 0.384715 0.0391925)
(0.0393774 0.357827 -0.0144785)
(0.0102248 -0.161626 0.0116957)
(0.0338135 -0.268168 -0.00117401)
(0.052513 -0.298783 -0.0063884)
(0.0697849 -0.304371 -0.00855003)
(0.0869709 -0.299587 -0.00975615)
(0.103917 -0.288944 -0.0106973)
(0.120623 -0.274537 -0.0116601)
(0.13726 -0.257332 -0.0127737)
(0.153825 -0.237583 -0.0140987)
(0.170112 -0.215467 -0.0157134)
(0.185663 -0.191812 -0.0172894)
(0.200292 -0.164914 -0.021219)
(0.214058 -0.132498 -0.0287665)
(0.225562 -0.096011 -0.0374212)
(0.234295 -0.0579264 -0.0456242)
(0.241143 -0.0165846 -0.0519671)
(0.24847 0.0328067 -0.0520835)
(0.254635 0.079126 -0.0503939)
(0.257229 0.11078 -0.0512459)
(0.256991 0.129392 -0.0534813)
(0.254002 0.136555 -0.051218)
(0.250574 0.140089 -0.0375048)
(0.247926 0.159249 -0.0103674)
(0.243822 0.205663 0.0224056)
(0.236333 0.267382 0.0494283)
(0.225916 0.324355 0.06577)
(0.213336 0.367004 0.0736897)
(0.19818 0.397574 0.0791865)
(0.179525 0.42445 0.0890201)
(0.156855 0.458581 0.106288)
(0.129733 0.506307 0.124429)
(0.0975385 0.567544 0.111665)
(0.0578302 0.630363 0.0442058)
(0.0285493 0.663709 -0.0204264)
(0.00990784 0.634344 -0.0514699)
(0.00888715 -0.316872 0.0045031)
(0.0190866 -0.398554 0.0158532)
(0.026121 -0.403937 0.0227124)
(0.031777 -0.398497 0.0268081)
(0.0373788 -0.390757 0.0290933)
(0.043087 -0.38157 0.0298171)
(0.0491912 -0.370723 0.0292287)
(0.0557779 -0.357058 0.0276574)
(0.0625262 -0.338861 0.0254243)
(0.0681787 -0.316974 0.0225466)
(0.0720329 -0.293715 0.0175497)
(0.0738658 -0.256374 -0.00409466)
(0.0765721 -0.1974 -0.0437215)
(0.0809866 -0.139178 -0.0748339)
(0.0839647 -0.094124 -0.0914718)
(0.0842829 -0.0612989 -0.0985563)
(0.0828313 -0.0117218 -0.0730786)
(0.0793467 0.0775707 -0.0356017)
(0.0725003 0.164277 -0.0242849)
(0.0644644 0.227021 -0.0286148)
(0.0557557 0.273393 -0.0334315)
(0.0458471 0.313553 -0.033175)
(0.0350112 0.353425 -0.0277649)
(0.0246115 0.394218 -0.0197993)
(0.0159722 0.434316 -0.0117882)
(0.00912989 0.472651 -0.00457497)
(0.00324621 0.510625 0.00225488)
(-0.00266342 0.551477 0.00906659)
(-0.0091701 0.597777 0.0146089)
(-0.0158626 0.648278 0.0152807)
(-0.0215668 0.697362 0.00680186)
(-0.0249702 0.73731 -0.0129769)
(-0.0265311 0.759616 -0.0401253)
(-0.0244958 0.749755 -0.0678155)
(-0.0128937 0.613425 -0.0760586)
(-0.00114224 -0.318606 0.00840512)
(0.000944611 -0.401146 0.0094949)
(0.00406044 -0.408727 0.00903442)
(0.00735509 -0.40675 0.00807901)
(0.0108426 -0.401185 0.0066988)
(0.0142044 -0.392065 0.00505293)
(0.0171981 -0.379272 0.00315555)
(0.0195274 -0.361323 0.00113192)
(0.0209342 -0.332255 0.000105096)
(0.0206733 -0.281095 0.00356515)
(0.0168665 -0.213853 0.0120195)
(0.00877509 -0.162805 0.0197213)
(-0.000802794 -0.129174 0.0227659)
(-0.0104916 -0.0856244 0.024758)
(-0.0208527 -0.00708306 0.0299369)
(-0.0330797 0.0937694 0.0274722)
(-0.0485344 0.174196 0.00914603)
(-0.0626168 0.22914 -0.011177)
(-0.0730218 0.272158 -0.0271431)
(-0.0797882 0.308004 -0.0399387)
(-0.0839221 0.339647 -0.0499076)
(-0.0862357 0.369223 -0.0575981)
(-0.0870463 0.398006 -0.0637535)
(-0.0863828 0.426637 -0.06906)
(-0.0842973 0.455289 -0.0739095)
(-0.0810277 0.48385 -0.0783254)
(-0.0768528 0.511927 -0.0820977)
(-0.0718955 0.538662 -0.08509)
(-0.0660593 0.56284 -0.087655)
(-0.0589965 0.583248 -0.0908032)
(-0.0502738 0.598673 -0.0956273)
(-0.0401133 0.607004 -0.102182)
(-0.0295177 0.603526 -0.108984)
(-0.0178506 0.573843 -0.112272)
(-0.00531202 0.443974 -0.0875299)
(-3.88317e-05 -0.322116 0.00931123)
(-0.00278081 -0.43043 0.018915)
(-0.00578395 -0.442196 0.023617)
(-0.00856472 -0.441974 0.0263437)
(-0.011606 -0.437712 0.0278654)
(-0.0144257 -0.429418 0.0279531)
(-0.0171352 -0.41571 0.0261781)
(-0.020002 -0.3924 0.0218765)
(-0.0228689 -0.354844 0.0150939)
(-0.0248925 -0.302273 0.00799978)
(-0.0255512 -0.233179 0.00454593)
(-0.0267185 -0.154819 0.00755738)
(-0.0311253 -0.0891486 0.0164996)
(-0.0375114 -0.035 0.0313714)
(-0.0430388 0.0295477 0.0511052)
(-0.0471561 0.115876 0.0663517)
(-0.0514572 0.196815 0.0608432)
(-0.056293 0.247956 0.0401912)
(-0.0605702 0.280487 0.020236)
(-0.063848 0.305342 0.00381622)
(-0.0659664 0.327055 -0.00985501)
(-0.0667473 0.347856 -0.0217731)
(-0.0660763 0.36903 -0.0328604)
(-0.0638627 0.391298 -0.0438619)
(-0.0600631 0.415036 -0.0553524)
(-0.0547595 0.440378 -0.0677951)
(-0.0481901 0.467173 -0.0815644)
(-0.0407876 0.494884 -0.0968488)
(-0.0332282 0.522504 -0.113252)
(-0.0263855 0.548293 -0.128918)
(-0.02101 0.569492 -0.14033)
(-0.0170671 0.582721 -0.144621)
(-0.0138605 0.584478 -0.140469)
(-0.0104847 0.564243 -0.120449)
(-0.00615091 0.447952 -0.0482017)
(0.00101956 -0.332921 0.0145727)
(0.00265534 -0.410688 0.020794)
(0.00301843 -0.421108 0.0231345)
(0.00259525 -0.421115 0.0245676)
(0.00142437 -0.416736 0.0259691)
(-0.000489469 -0.40818 0.0278305)
(-0.00314713 -0.394787 0.0305036)
(-0.00668334 -0.374716 0.0342383)
(-0.0113778 -0.345225 0.0385871)
(-0.0174255 -0.303401 0.0409918)
(-0.0240739 -0.246123 0.0373043)
(-0.0293054 -0.173478 0.0279492)
(-0.0334079 -0.100401 0.0202549)
(-0.0384391 -0.041615 0.0213072)
(-0.0438596 0.0138338 0.0342217)
(-0.0476574 0.0845118 0.056419)
(-0.0489158 0.168975 0.074982)
(-0.0494814 0.241556 0.0768548)
(-0.0510992 0.291167 0.0669321)
(-0.053656 0.325322 0.0534702)
(-0.0565246 0.350507 0.0398397)
(-0.0591341 0.369962 0.0276318)
(-0.061031 0.385678 0.01754)
(-0.061882 0.399371 0.00949801)
(-0.0614129 0.412691 0.00306289)
(-0.0593969 0.427321 -0.00228495)
(-0.0557393 0.445155 -0.00705455)
(-0.0506091 0.468406 -0.0117373)
(-0.0445077 0.499178 -0.0166676)
(-0.0381823 0.536481 -0.0214397)
(-0.0323361 0.571214 -0.0240066)
(-0.0273329 0.590846 -0.0215123)
(-0.0228946 0.588214 -0.011632)
(-0.0173066 0.542509 0.0122641)
(-0.00437379 0.349478 0.057887)
(-0.00465573 -0.318778 0.0141229)
(-0.00845015 -0.425778 0.0153442)
(-0.0103843 -0.438067 0.0153434)
(-0.0118327 -0.437493 0.0147339)
(-0.013218 -0.431601 0.0134736)
(-0.0145079 -0.420161 0.0114728)
(-0.0158071 -0.400711 0.00859958)
(-0.0170632 -0.367767 0.00516874)
(-0.0180182 -0.317327 0.00292643)
(-0.0185448 -0.254651 0.00462838)
(-0.0189625 -0.189725 0.0111524)
(-0.0197187 -0.124819 0.0193807)
(-0.0208782 -0.054845 0.0237399)
(-0.0227687 0.0142346 0.0233546)
(-0.0255074 0.0695753 0.0253057)
(-0.0276145 0.115699 0.0341547)
(-0.0272482 0.1651 0.0480142)
(-0.0236921 0.22053 0.0603423)
(-0.0180467 0.27275 0.0655431)
(-0.0122785 0.313746 0.0650394)
(-0.0076747 0.34269 0.0629934)
(-0.00459064 0.36274 0.0613539)
(-0.00290225 0.376666 0.0604522)
(-0.00240822 0.386083 0.060493)
(-0.00297446 0.392186 0.0618675)
(-0.00445389 0.396375 0.0651266)
(-0.00660023 0.400866 0.0709703)
(-0.00908308 0.40935 0.0801413)
(-0.0113753 0.426141 0.0926052)
(-0.0123836 0.450741 0.105638)
(-0.0111603 0.472387 0.11491)
(-0.00810065 0.479474 0.11999)
(-0.00359343 0.465112 0.123024)
(0.00124741 0.412006 0.125751)
(0.00591428 0.255012 0.10785)
(-0.000381894 -0.285008 0.00370271)
(0.00324267 -0.40472 0.00802287)
(0.00560225 -0.42821 0.0110783)
(0.00768556 -0.433174 0.0133112)
(0.00951101 -0.431311 0.0154659)
(0.0107946 -0.423907 0.0178272)
(0.0114822 -0.411165 0.0206168)
(0.0116867 -0.392891 0.0239327)
(0.0116217 -0.367402 0.0275034)
(0.011685 -0.329843 0.0305047)
(0.0124089 -0.275504 0.0319197)
(0.0139473 -0.207699 0.0315884)
(0.0159232 -0.134807 0.0294197)
(0.0176681 -0.0633461 0.0239342)
(0.0180822 -0.00167165 0.0159074)
(0.0165665 0.0435155 0.0117404)
(0.0139149 0.0759322 0.0163688)
(0.0111218 0.105886 0.0303169)
(0.00899774 0.141552 0.0502892)
(0.0080046 0.185609 0.0682696)
(0.00795848 0.233404 0.0778832)
(0.00877105 0.27662 0.0808264)
(0.0104137 0.312776 0.0813817)
(0.0125261 0.343595 0.0816648)
(0.0146668 0.370863 0.0823423)
(0.0165476 0.395493 0.0837358)
(0.0177864 0.417206 0.0862572)
(0.0181601 0.434267 0.0904599)
(0.0182898 0.44565 0.0965168)
(0.0191355 0.450996 0.103466)
(0.0208778 0.448584 0.109725)
(0.0226036 0.436522 0.114737)
(0.0220401 0.41574 0.121007)
(0.0176056 0.383934 0.128593)
(0.00921682 0.304368 0.113031)
(0.00103086 -0.314167 -0.00270975)
(0.00684157 -0.44717 -0.00148439)
(0.0114967 -0.469062 -0.00171923)
(0.0160406 -0.470401 -0.00312393)
(0.0209379 -0.463482 -0.00574908)
(0.0254736 -0.449032 -0.00958163)
(0.0293583 -0.425714 -0.0144939)
(0.032364 -0.390748 -0.0199961)
(0.033995 -0.343392 -0.0244231)
(0.0338586 -0.288845 -0.0246984)
(0.0320594 -0.232515 -0.0181249)
(0.0290433 -0.172504 -0.00411814)
(0.0253589 -0.102917 0.0147261)
(0.021551 -0.0219976 0.0317313)
(0.0181692 0.0636118 0.0393737)
(0.0144611 0.143914 0.0360351)
(0.010163 0.20846 0.024902)
(0.0051515 0.255238 0.0138675)
(-0.000322407 0.288151 0.00940998)
(-0.00510869 0.309455 0.0112609)
(-0.00761679 0.321551 0.0149938)
(-0.0076529 0.328346 0.0183352)
(-0.0056979 0.332402 0.021194)
(-0.00153829 0.335307 0.0238168)
(0.00517409 0.338388 0.0263479)
(0.0139899 0.343119 0.0287186)
(0.0243764 0.349927 0.0306916)
(0.035334 0.356856 0.0318855)
(0.0443511 0.360714 0.0326746)
(0.049339 0.362868 0.0347149)
(0.0494189 0.370519 0.041674)
(0.0425925 0.394206 0.0652191)
(0.0299514 0.425499 0.103407)
(0.0159564 0.438714 0.129286)
(0.0039021 0.369753 0.109233)
(0.00434659 -0.355147 -0.000342514)
(0.01111 -0.487273 0.010826)
(0.0157534 -0.509376 0.0144248)
(0.0198856 -0.510455 0.0155832)
(0.0243525 -0.50336 0.0156664)
(0.028724 -0.489342 0.0149839)
(0.0327814 -0.467584 0.0134973)
(0.0364384 -0.435291 0.0107478)
(0.0395873 -0.389958 0.00597999)
(0.042068 -0.33266 -0.00144345)
(0.0437626 -0.266166 -0.0116094)
(0.0447951 -0.194584 -0.0227119)
(0.0457229 -0.124778 -0.0299807)
(0.0468369 -0.0595348 -0.0303841)
(0.0477989 0.000250612 -0.0264944)
(0.0477437 0.0491045 -0.0190996)
(0.046523 0.0934492 -0.0110121)
(0.0455164 0.137638 -0.00495407)
(0.0455975 0.179826 -0.00146246)
(0.0465826 0.214742 0.000190317)
(0.0478426 0.239134 5.08182e-05)
(0.0487163 0.253196 -0.00160335)
(0.0491713 0.258803 -0.00358309)
(0.0495054 0.258266 -0.00496248)
(0.0497963 0.253347 -0.00469158)
(0.0499911 0.246841 -0.00116278)
(0.0499395 0.243411 0.00718105)
(0.0486886 0.256549 0.0231805)
(0.0449395 0.305514 0.0411491)
(0.0361881 0.371555 0.0513727)
(0.022875 0.429391 0.060636)
(0.00869949 0.471858 0.0765864)
(-0.00209653 0.495509 0.0936577)
(-0.0091926 0.483947 0.0988632)
(-0.0042671 0.332718 0.050214)
(0.00474082 -0.403378 0.0103309)
(0.00950743 -0.5231 0.0173341)
(0.0128774 -0.540263 0.0178464)
(0.0155284 -0.53954 0.016939)
(0.0183244 -0.531471 0.015315)
(0.0213471 -0.516477 0.0132247)
(0.0245644 -0.492129 0.0106494)
(0.0278867 -0.453407 0.00742035)
(0.0308652 -0.399551 0.00339164)
(0.0322469 -0.33666 -0.00248807)
(0.0306045 -0.267565 -0.0133171)
(0.025056 -0.195066 -0.0273109)
(0.0158307 -0.124182 -0.0309144)
(0.00514565 -0.0402703 -0.0218227)
(-0.00160232 0.0724646 -0.020681)
(-0.00350275 0.168863 -0.033085)
(-0.00638848 0.219458 -0.0356123)
(-0.00826732 0.248667 -0.0312895)
(-0.00896568 0.271308 -0.0251275)
(-0.00851831 0.292176 -0.0192381)
(-0.00713697 0.312078 -0.0149967)
(-0.00525539 0.329729 -0.0129246)
(-0.00329894 0.343348 -0.0126987)
(-0.00181023 0.35217 -0.0134721)
(-0.00146813 0.356525 -0.013774)
(-0.00293291 0.358843 -0.0109258)
(-0.00685034 0.365358 -0.00127674)
(-0.0132079 0.386615 0.0175217)
(-0.020012 0.426752 0.0393505)
(-0.0253894 0.466895 0.0540895)
(-0.0287041 0.489712 0.0618541)
(-0.0301562 0.493332 0.0648905)
(-0.0275527 0.461754 0.0563374)
(-0.0170677 0.36309 0.0221309)
(-0.0046423 0.211763 -0.0144724)
(-0.00347523 -0.402188 0.0253976)
(-0.00936716 -0.519682 0.0342857)
(-0.0138775 -0.53615 0.0362107)
(-0.0182305 -0.536939 0.0373859)
(-0.0228755 -0.530202 0.0387426)
(-0.0273506 -0.514698 0.0405293)
(-0.0318895 -0.485492 0.0429174)
(-0.0363814 -0.435542 0.0455067)
(-0.0403313 -0.362914 0.0448362)
(-0.0439658 -0.265279 0.0296647)
(-0.046828 -0.13243 -0.0220045)
(-0.0492838 0.0138114 -0.110118)
(-0.057391 0.0840078 -0.146099)
(-0.0690577 0.0982565 -0.104178)
(-0.0776798 0.130155 -0.0509821)
(-0.0803194 0.181482 -0.0232276)
(-0.0783422 0.221948 -0.0142913)
(-0.0744052 0.252599 -0.0130139)
(-0.0699972 0.276567 -0.0158173)
(-0.0658318 0.293359 -0.0191816)
(-0.0622584 0.303831 -0.0198746)
(-0.0591461 0.310744 -0.016636)
(-0.0559097 0.317382 -0.00923238)
(-0.0519974 0.326879 0.00204011)
(-0.0470239 0.341662 0.0158307)
(-0.0413719 0.363156 0.0291614)
(-0.0361479 0.390825 0.0389483)
(-0.0316203 0.421781 0.0444286)
(-0.026932 0.449715 0.0461673)
(-0.0213163 0.467066 0.0455839)
(-0.0148339 0.471666 0.0436373)
(-0.00736486 0.462126 0.0387569)
(1.87254e-05 0.425593 0.0236323)
(0.00662877 0.343054 -0.0129807)
(0.00257737 0.226404 -0.0265452)
(-0.00425218 -0.349083 0.0220492)
(-0.00757662 -0.477445 0.024944)
(-0.0106917 -0.50042 0.0252668)
(-0.0136185 -0.504764 0.0253964)
(-0.0172155 -0.500908 0.0257136)
(-0.0215538 -0.488563 0.0266594)
(-0.0268216 -0.465394 0.0294393)
(-0.0332387 -0.428535 0.0365996)
(-0.040514 -0.376128 0.0504604)
(-0.0471831 -0.307619 0.0679092)
(-0.0500808 -0.216057 0.0724541)
(-0.0446553 -0.0849115 0.0298594)
(-0.0323639 0.0664758 -0.0721019)
(-0.0226599 0.16685 -0.167654)
(-0.022256 0.19189 -0.187213)
(-0.0247337 0.193527 -0.169849)
(-0.0282483 0.195161 -0.136179)
(-0.0316973 0.210451 -0.0962508)
(-0.0334423 0.237334 -0.0660799)
(-0.0328667 0.266992 -0.0492977)
(-0.0306745 0.29387 -0.0436709)
(-0.0277591 0.31407 -0.0462516)
(-0.0259828 0.321605 -0.0529611)
(-0.0261567 0.316927 -0.0563276)
(-0.0273652 0.307422 -0.0514452)
(-0.0289811 0.302096 -0.0341484)
(-0.0299783 0.312176 -0.0054797)
(-0.0288218 0.339128 0.0240383)
(-0.0248017 0.370817 0.043315)
(-0.01868 0.393818 0.0482671)
(-0.0121876 0.403413 0.0433949)
(-0.00590537 0.401695 0.0337452)
(-0.000203671 0.386422 0.0177339)
(0.00390266 0.351455 -0.0064801)
(0.000892598 0.271035 -0.0156343)
(-0.000708371 -0.356239 0.0177384)
(0.00206042 -0.49714 0.0240409)
(0.00333951 -0.520996 0.0250887)
(0.00441883 -0.52326 0.0245404)
(0.00513112 -0.515681 0.0227043)
(0.00506414 -0.49731 0.0191435)
(0.00383651 -0.464839 0.0134104)
(0.00119075 -0.417997 0.00665513)
(-0.00250377 -0.362525 0.00322535)
(-0.00635965 -0.303895 0.00937772)
(-0.00932554 -0.245626 0.030119)
(-0.010238 -0.186562 0.0632825)
(-0.00730765 -0.109198 0.0878499)
(0.00199161 0.00490641 0.0669379)
(0.0141252 0.12947 -0.00442762)
(0.0233213 0.223677 -0.0939954)
(0.0242331 0.267278 -0.168455)
(0.0190483 0.267577 -0.187048)
(0.0138649 0.259026 -0.178648)
(0.00895302 0.252969 -0.156872)
(0.00571183 0.255784 -0.128424)
(0.00560925 0.269697 -0.100107)
(0.00818043 0.296058 -0.0758255)
(0.0123045 0.335828 -0.0619261)
(0.0149693 0.374303 -0.0715152)
(0.0132484 0.388994 -0.0947886)
(0.00936239 0.386472 -0.105012)
(0.00628409 0.381352 -0.0999419)
(0.00446316 0.378893 -0.0853636)
(0.0038136 0.38177 -0.0639496)
(0.00397082 0.388129 -0.04354)
(0.00422282 0.390557 -0.0326488)
(0.00410053 0.385269 -0.0303611)
(0.00333017 0.366881 -0.033565)
(0.000106981 0.293273 -0.029055)
(0.0022671 -0.367096 0.0185952)
(0.00824743 -0.511437 0.0239827)
(0.0112869 -0.537261 0.0249817)
(0.0133592 -0.53884 0.0248666)
(0.0149431 -0.529327 0.0238257)
(0.0155909 -0.507657 0.0214688)
(0.0149389 -0.469773 0.0172324)
(0.0128796 -0.416145 0.0115628)
(0.0100833 -0.35607 0.00636415)
(0.00762847 -0.29666 0.00327265)
(0.00603213 -0.235548 0.00387421)
(0.00509016 -0.170598 0.011251)
(0.0046016 -0.109089 0.0288601)
(0.00533926 -0.0528304 0.0550975)
(0.00948143 0.0146803 0.075999)
(0.0187782 0.110418 0.0672252)
(0.0306116 0.21855 0.0133546)
(0.0388316 0.300413 -0.0635617)
(0.0405389 0.34028 -0.136382)
(0.0356423 0.339462 -0.181606)
(0.0291547 0.318231 -0.193311)
(0.0239333 0.292657 -0.182172)
(0.0211943 0.27042 -0.153551)
(0.0222819 0.26336 -0.110802)
(0.0272954 0.28812 -0.0653801)
(0.0336079 0.33604 -0.0470636)
(0.0361366 0.373765 -0.0629822)
(0.0338931 0.395003 -0.0849287)
(0.0292412 0.408665 -0.094236)
(0.0241941 0.420441 -0.089786)
(0.0194005 0.432167 -0.0780615)
(0.0149541 0.441823 -0.0667862)
(0.010805 0.446575 -0.0583146)
(0.00607634 0.439095 -0.0493762)
(-8.756e-05 0.348907 -0.0241565)
(0.00407161 -0.423495 0.0135422)
(0.0079613 -0.547764 0.0189913)
(0.00978233 -0.56325 0.0193332)
(0.010663 -0.559095 0.0180518)
(0.011043 -0.543972 0.0149336)
(0.0105206 -0.514917 0.00887632)
(0.00879542 -0.468094 -0.00131712)
(0.00583799 -0.409083 -0.0138974)
(0.00203278 -0.351007 -0.0237657)
(-0.00187283 -0.300893 -0.0276685)
(-0.00512409 -0.255563 -0.0256135)
(-0.00709356 -0.206245 -0.0179928)
(-0.0074371 -0.14798 -0.00478929)
(-0.00688532 -0.0888771 0.0133621)
(-0.00599599 -0.0363067 0.0353504)
(-0.00334811 0.0182056 0.0581355)
(0.00382997 0.0900582 0.0699782)
(0.0162094 0.180364 0.0548355)
(0.0298415 0.268905 0.00896588)
(0.0400392 0.331763 -0.0553428)
(0.0441124 0.356581 -0.119109)
(0.0412724 0.345881 -0.16542)
(0.0340898 0.316364 -0.182546)
(0.0259243 0.28735 -0.169681)
(0.0174268 0.277907 -0.126687)
(0.00955399 0.310707 -0.0609426)
(0.00306178 0.3726 -0.0146769)
(-0.00418227 0.420528 -0.00860092)
(-0.0113793 0.446595 -0.0173662)
(-0.0173399 0.461954 -0.0244368)
(-0.0212223 0.472112 -0.0288981)
(-0.022394 0.477775 -0.0325133)
(-0.020875 0.475687 -0.0338827)
(-0.0160046 0.450005 -0.0270627)
(-0.00548628 0.316293 -0.00418357)
(-0.00119871 -0.428318 0.0310816)
(-0.00606963 -0.536351 0.0357799)
(-0.00995677 -0.546649 0.0356756)
(-0.0136998 -0.539177 0.0350201)
(-0.0176628 -0.518735 0.0334917)
(-0.0212697 -0.480319 0.0298926)
(-0.0239315 -0.420867 0.0224997)
(-0.0252808 -0.350236 0.0116974)
(-0.0259279 -0.283726 0.000962612)
(-0.0266444 -0.228774 -0.00673695)
(-0.0277282 -0.184871 -0.0107282)
(-0.0290387 -0.147605 -0.0112799)
(-0.0301806 -0.111436 -0.00823421)
(-0.0307903 -0.0729474 -0.00101754)
(-0.0308779 -0.0338975 0.0103778)
(-0.0304347 0.00429056 0.0253622)
(-0.0288388 0.0467784 0.0427277)
(-0.024373 0.103305 0.0583639)
(-0.0157811 0.179469 0.0622244)
(-0.00438598 0.267578 0.0440008)
(0.00713581 0.349617 0.00149846)
(0.0149961 0.407099 -0.0583654)
(0.0163403 0.432289 -0.117154)
(0.0129951 0.438269 -0.15233)
(0.00815447 0.439369 -0.156266)
(0.00323629 0.446143 -0.136129)
(-0.001252 0.464151 -0.10197)
(-0.00524333 0.484946 -0.0716952)
(-0.00941663 0.498796 -0.0524036)
(-0.0136435 0.504996 -0.0407558)
(-0.0167903 0.504197 -0.033666)
(-0.0176519 0.495569 -0.0294709)
(-0.015247 0.47383 -0.0268193)
(-0.00931621 0.416752 -0.0223082)
(0.00058061 0.24818 -0.0140537)
(-0.00497058 -0.391985 0.011853)
(-0.0102153 -0.503896 0.00734357)
(-0.0131617 -0.51858 0.00673611)
(-0.015201 -0.516193 0.00698896)
(-0.0166079 -0.503908 0.00777651)
(-0.0165742 -0.480455 0.00891266)
(-0.0144411 -0.443937 0.00967503)
(-0.0103169 -0.395905 0.0087249)
(-0.00554269 -0.342632 0.00560596)
(-0.00171195 -0.290248 0.00136845)
(0.000275631 -0.240888 -0.00237991)
(0.000366465 -0.193455 -0.00440111)
(-0.000709443 -0.146886 -0.00430906)
(-0.00199341 -0.102206 -0.002391)
(-0.00290281 -0.0613267 0.00103789)
(-0.00312207 -0.0252821 0.00589227)
(-0.00229211 0.00680786 0.0122666)
(-0.000231488 0.0384167 0.0204545)
(0.00405567 0.0753272 0.0302981)
(0.011944 0.12351 0.0395084)
(0.0233687 0.185125 0.0429018)
(0.0368184 0.255577 0.033964)
(0.0487653 0.317003 0.00656242)
(0.055264 0.348447 -0.0309357)
(0.0566694 0.364112 -0.0600123)
(0.0552249 0.386196 -0.074261)
(0.0531401 0.42021 -0.0756986)
(0.0514092 0.457807 -0.0688133)
(0.0493704 0.48692 -0.0589943)
(0.0463394 0.502087 -0.0501974)
(0.0422735 0.504371 -0.0437781)
(0.0371092 0.495511 -0.0392482)
(0.0310575 0.475873 -0.0362573)
(0.0237582 0.439292 -0.0361627)
(0.00966695 0.307647 -0.0301741)
(-0.00415 -0.351709 0.0123752)
(-0.00454646 -0.493646 0.00724502)
(-0.00382153 -0.519419 0.00634744)
(-0.00203983 -0.523609 0.00695099)
(0.000456594 -0.518208 0.00867632)
(0.00358476 -0.503044 0.0115444)
(0.00756771 -0.474164 0.0154987)
(0.012745 -0.426285 0.0196604)
(0.018972 -0.360166 0.0221789)
(0.0252985 -0.285405 0.0211985)
(0.0301903 -0.215513 0.01617)
(0.0326003 -0.159954 0.0090474)
(0.032872 -0.118703 0.00283831)
(0.0321401 -0.0860376 -0.000794986)
(0.0314133 -0.0571248 -0.0017028)
(0.0311949 -0.0302692 -0.000462887)
(0.0314628 -0.005583 0.00222007)
(0.0324271 0.0170921 0.00597204)
(0.0346559 0.0393621 0.0109112)
(0.0386849 0.064732 0.0177726)
(0.045317 0.0994712 0.0278944)
(0.0546108 0.154314 0.0430844)
(0.0662787 0.245384 0.0592836)
(0.0759648 0.351699 0.0562009)
(0.07612 0.420901 0.0251795)
(0.0687539 0.449691 -0.0141461)
(0.0606048 0.467145 -0.043047)
(0.0546819 0.487267 -0.0570172)
(0.0503016 0.507182 -0.0608709)
(0.0460413 0.523037 -0.0604283)
(0.0406826 0.534952 -0.0587436)
(0.0331006 0.543581 -0.0567149)
(0.024135 0.546518 -0.0545863)
(0.0146629 0.534024 -0.0520179)
(0.00100106 0.411138 -0.0398796)
(0.00119658 -0.356884 -0.0176093)
(0.00870468 -0.518076 -0.0264796)
(0.0142066 -0.551601 -0.0280087)
(0.0195716 -0.557627 -0.0288436)
(0.0251162 -0.552585 -0.0296628)
(0.0300508 -0.538578 -0.0303593)
(0.0337749 -0.515873 -0.0302333)
(0.0361387 -0.484081 -0.0273447)
(0.0377717 -0.44035 -0.0189677)
(0.0400945 -0.378698 -0.00530137)
(0.0438069 -0.298867 0.00788738)
(0.047603 -0.214081 0.0136354)
(0.0496878 -0.142102 0.0112481)
(0.0498718 -0.0900087 0.0055007)
(0.0490746 -0.0540325 0.000453322)
(0.0481544 -0.0278204 -0.00249435)
(0.0476269 -0.0068811 -0.00335975)
(0.0477199 0.0111336 -0.00255159)
(0.0484473 0.027561 -0.000432624)
(0.0497537 0.0442751 0.00306915)
(0.0517518 0.0653714 0.00898943)
(0.0546834 0.100586 0.0200191)
(0.0588463 0.171662 0.0402848)
(0.0659642 0.29614 0.0648037)
(0.0701505 0.430295 0.0647342)
(0.0653582 0.516653 0.0298857)
(0.0549434 0.55476 -0.0185053)
(0.044303 0.572507 -0.0586333)
(0.0356706 0.586737 -0.0824527)
(0.0288598 0.600594 -0.0927839)
(0.0228957 0.61304 -0.094995)
(0.017017 0.621726 -0.0933211)
(0.0112896 0.621726 -0.0907145)
(0.00522571 0.595378 -0.0866044)
(-0.00160368 0.42942 -0.063669)
(0.00694752 -0.423644 -0.00662679)
(0.0164976 -0.573101 -0.00402766)
(0.0221913 -0.599691 -0.00447477)
(0.0261489 -0.59963 -0.00584362)
(0.0297881 -0.58729 -0.00830915)
(0.0327997 -0.561637 -0.0126047)
(0.0345658 -0.518205 -0.020094)
(0.0342019 -0.459679 -0.0306703)
(0.0315602 -0.400806 -0.0392701)
(0.0280252 -0.347791 -0.0395102)
(0.0256562 -0.291587 -0.0297306)
(0.0258578 -0.224742 -0.0162913)
(0.0277955 -0.156194 -0.00822351)
(0.0302113 -0.0990729 -0.00680552)
(0.0329442 -0.0574573 -0.00821654)
(0.036028 -0.0289886 -0.00961512)
(0.0392813 -0.00933301 -0.0102674)
(0.0427253 0.00554595 -0.0102446)
(0.0464463 0.0181077 -0.00961054)
(0.049959 0.0296395 -0.00830691)
(0.0527207 0.042582 -0.00536879)
(0.053003 0.0671537 0.00379211)
(0.0470224 0.122278 0.022214)
(0.0398933 0.227772 0.0532227)
(0.0380178 0.37342 0.0786891)
(0.037062 0.502339 0.0702075)
(0.0335313 0.580883 0.0289587)
(0.0287658 0.619954 -0.0213057)
(0.0246543 0.63913 -0.0623606)
(0.0217331 0.649376 -0.0896818)
(0.0194459 0.655811 -0.107005)
(0.0168271 0.660356 -0.11866)
(0.0136675 0.65994 -0.126114)
(0.00889565 0.637822 -0.125891)
(-0.000276937 0.467304 -0.0707142)
(0.00318568 -0.473694 -0.00646094)
(0.00372979 -0.590591 -0.00869725)
(0.00436203 -0.603376 -0.00880358)
(0.00437999 -0.598088 -0.00844215)
(0.00407743 -0.582233 -0.00803535)
(0.0035107 -0.552743 -0.00807113)
(0.00276573 -0.502932 -0.00990456)
(0.00186774 -0.433847 -0.0154815)
(0.000237107 -0.36265 -0.0234058)
(-0.00232716 -0.302015 -0.0288484)
(-0.00506101 -0.249051 -0.0290842)
(-0.00669502 -0.197519 -0.0251766)
(-0.00641977 -0.148875 -0.0210076)
(-0.00449078 -0.109248 -0.0184878)
(-0.00148375 -0.0803345 -0.0167682)
(0.00210317 -0.0595569 -0.0150799)
(0.00602255 -0.0433897 -0.013105)
(0.0100569 -0.0295499 -0.0105767)
(0.0138303 -0.0162989 -0.00696324)
(0.0170939 0.000970473 3.35922e-05)
(0.0181905 0.0428809 0.0182502)
(0.0149734 0.140917 0.0405966)
(0.0049931 0.259172 0.0353422)
(-0.00903529 0.344839 0.0308208)
(-0.0167585 0.430949 0.0480705)
(-0.0184226 0.520636 0.0545606)
(-0.0170214 0.588893 0.0334288)
(-0.0144709 0.628634 -0.00537256)
(-0.0114512 0.650306 -0.0462286)