/*--------------------------------*- C++ -*----------------------------------*\
| =========                 |                                                 |
| \\      /  F ield         | OpenFOAM: The Open Source CFD Toolbox           |
|  \\    /   O peration     | Version:  v2012                                 |
|   \\  /    A nd           | Website:  www.openfoam.com                      |
|    \\/     M anipulation  |                                                 |
\*---------------------------------------------------------------------------*/
FoamFile
{
    version     2.0;
    format      ascii;
    class       volVectorField;
    location    "6";
    object      U;
}
// * * * * * * * * * * * * * * * * * * * * * * * * * * * * * * * * * * * * * //

dimensions      [0 1 -1 0 0 0 0];


internalField   nonuniform List<vector> 
78750
(
(4.39672e-06 -9.81777e-05 0.000261017)
(1.26347e-05 -0.000100632 0.000589748)
(4.02278e-06 -6.5857e-05 0.000821674)
(-1.47454e-05 -1.40239e-05 0.00103426)
(-4.45581e-05 4.49523e-05 0.00121648)
(-8.40318e-05 0.000105677 0.00136141)
(-0.000131523 0.000164419 0.001463)
(-0.000185131 0.000218643 0.00151896)
(-0.000242855 0.00026642 0.00153005)
(-0.000303646 0.000307906 0.0015002)
(-0.000365919 0.000342919 0.00143541)
(-0.000427915 0.00037092 0.00134337)
(-0.000487834 0.000391135 0.00123154)
(-0.000544377 0.00040337 0.00110531)
(-0.00059613 0.000407197 0.000969496)
(-0.000641874 0.000402412 0.000828417)
(-0.000680996 0.00038983 0.000684434)
(-0.000712731 0.000370642 0.00053921)
(-0.000736224 0.000346199 0.000394387)
(-0.000750618 0.000317975 0.000251451)
(-0.000755105 0.000287539 0.00011249)
(-0.000748965 0.0002564 -2.07276e-05)
(-0.000731861 0.000226122 -0.000145378)
(-0.000704269 0.000198191 -0.000257599)
(-0.000666057 0.000172483 -0.000358275)
(-0.000619158 0.000149903 -0.000442377)
(-0.000563906 0.000129569 -0.000509836)
(-0.000501904 0.000110955 -0.000558617)
(-0.000434475 9.34044e-05 -0.000586711)
(-0.000362521 7.6119e-05 -0.000593043)
(-0.000287017 5.88211e-05 -0.000575749)
(-0.000208401 4.18379e-05 -0.000533018)
(-0.000129241 2.65247e-05 -0.000462859)
(-6.50764e-05 1.51012e-05 -0.000364035)
(-1.92958e-05 4.62358e-06 -0.000185417)
(-4.19597e-05 0.000142024 0.000283532)
(-0.000107722 0.000346212 0.000606675)
(-0.000204357 0.000463969 0.000817401)
(-0.000338602 0.000563541 0.000976821)
(-0.000477558 0.000644879 0.00107525)
(-0.000611265 0.000706334 0.00111762)
(-0.000734634 0.000753762 0.00110304)
(-0.000842647 0.000793595 0.00103086)
(-0.000933134 0.000832174 0.000901139)
(-0.00100341 0.000870073 0.00072188)
(-0.00105237 0.000904713 0.00050757)
(-0.00108067 0.00093063 0.000283604)
(-0.00108924 0.000941651 8.65519e-05)
(-0.00108062 0.000934639 -5.00858e-05)
(-0.00105977 0.000912924 -0.000118687)
(-0.00103138 0.000882161 -0.000138604)
(-0.000998611 0.00084569 -0.000138436)
(-0.000963075 0.000803776 -0.000141628)
(-0.000925254 0.000755283 -0.000161878)
(-0.000884906 0.000699191 -0.000203563)
(-0.000841522 0.000635479 -0.000264297)
(-0.000794517 0.000565483 -0.000337345)
(-0.000743773 0.000491921 -0.000413996)
(-0.000689338 0.000418258 -0.000485589)
(-0.000631696 0.000348379 -0.000544141)
(-0.000571381 0.000285404 -0.000584878)
(-0.000508946 0.000229689 -0.000609953)
(-0.00044504 0.000180158 -0.000622928)
(-0.000380353 0.00013576 -0.00062464)
(-0.000315386 9.55087e-05 -0.000614322)
(-0.000250537 5.83988e-05 -0.000589851)
(-0.000185415 2.47801e-05 -0.000544334)
(-0.000120881 -3.90857e-06 -0.000461761)
(-7.10716e-05 -1.86719e-05 -0.000318167)
(-3.46499e-05 7.37402e-06 -5.65137e-05)
(-0.000111855 0.000846687 0.00089788)
(-0.000245334 0.0014415 0.00148011)
(-0.000430684 0.00171342 0.00177666)
(-0.00067952 0.00188459 0.00196849)
(-0.000924622 0.00196862 0.00204663)
(-0.00114322 0.00197807 0.00201912)
(-0.00133255 0.00193104 0.00189443)
(-0.00148372 0.00184402 0.00168954)
(-0.00159383 0.00173218 0.00142347)
(-0.00166176 0.0016071 0.00112031)
(-0.00168877 0.00147805 0.000805757)
(-0.00167888 0.00135184 0.000505901)
(-0.00163738 0.001234 0.000241889)
(-0.00157039 0.00112583 2.69318e-05)
(-0.00148434 0.0010283 -0.000135539)
(-0.00138621 0.000941598 -0.00025246)
(-0.00128189 0.000864205 -0.000335123)
(-0.00117545 0.000792659 -0.000393678)
(-0.00106988 0.000724121 -0.000436425)
(-0.000967013 0.000656572 -0.000470023)
(-0.000867598 0.000589617 -0.000497882)
(-0.000772666 0.000525532 -0.000517538)
(-0.000683401 0.000467903 -0.000525511)
(-0.000599502 0.000416458 -0.000524445)
(-0.000521641 0.000370519 -0.000517236)
(-0.000450102 0.000329817 -0.000505001)
(-0.000384278 0.000293641 -0.000489599)
(-0.000323932 0.000261257 -0.000471518)
(-0.00026858 0.00023226 -0.000450887)
(-0.000217917 0.000205881 -0.000426926)
(-0.000171423 0.000182076 -0.000397853)
(-0.000128096 0.000160451 -0.000360297)
(-8.68804e-05 0.00014163 -0.000308)
(-5.40723e-05 0.000126479 -0.000231793)
(-2.96793e-05 0.000116083 -5.51473e-05)
(-0.000176367 0.0013681 0.00121541)
(-0.000349436 0.00222389 0.00191605)
(-0.000566213 0.00261357 0.00223059)
(-0.000847029 0.00278142 0.00241174)
(-0.0011116 0.00274704 0.00247026)
(-0.00135243 0.00257178 0.00242029)
(-0.00155731 0.0023224 0.00227813)
(-0.00171645 0.00203783 0.00205945)
(-0.00181933 0.00174255 0.00178193)
(-0.00186548 0.00145273 0.00146408)
(-0.00185901 0.00118207 0.00112436)
(-0.00180994 0.000939056 0.000783779)
(-0.00172788 0.000725192 0.000468616)
(-0.00161932 0.000542378 0.00022516)
(-0.00149899 0.00040483 0.000105139)
(-0.00137709 0.000319575 7.06018e-05)
(-0.00125301 0.000272143 5.14148e-05)
(-0.00112928 0.000247326 1.73211e-05)
(-0.0010088 0.000235477 -3.17359e-05)
(-0.000893097 0.000230055 -8.70892e-05)
(-0.000783642 0.000227476 -0.000138652)
(-0.000681309 0.000226742 -0.000179337)
(-0.000587402 0.000229142 -0.000204257)
(-0.000503047 0.000236399 -0.000212435)
(-0.000427107 0.000247062 -0.000209775)
(-0.000359383 0.000259438 -0.000200935)
(-0.000299934 0.000272519 -0.000187829)
(-0.000248011 0.000285237 -0.000172662)
(-0.0002029 0.000296295 -0.000157068)
(-0.000163857 0.000304811 -0.000142311)
(-0.000130026 0.000309235 -0.000128848)
(-9.96397e-05 0.000306501 -0.000122548)
(-6.98786e-05 0.000293243 -0.000134344)
(-4.56168e-05 0.000270794 -0.000154895)
(-2.59496e-05 0.000219949 -0.000100079)
(-0.000117184 0.00134146 0.000982007)
(-0.00021174 0.00203451 0.00149144)
(-0.000322494 0.00230505 0.00168819)
(-0.000456744 0.0024154 0.00178683)
(-0.000583804 0.00237855 0.00180982)
(-0.000704663 0.00221646 0.00176337)
(-0.000817361 0.00196043 0.00165898)
(-0.000914147 0.0016433 0.00150864)
(-0.000986312 0.00129653 0.0013267)
(-0.00102791 0.000947999 0.00112843)
(-0.00103814 0.000620004 0.000929695)
(-0.00102177 0.000329441 0.000744831)
(-0.000986262 8.7056e-05 0.000584253)
(-0.00093931 -0.000101229 0.000453981)
(-0.000886327 -0.000236033 0.000353289)
(-0.000830299 -0.000321539 0.000275706)
(-0.000771415 -0.000364945 0.000213281)
(-0.000710333 -0.00037347 0.000164048)
(-0.000648657 -0.000354555 0.000129945)
(-0.000588156 -0.000314843 0.000112749)
(-0.000530151 -0.000260334 0.000111574)
(-0.000475697 -0.000196211 0.000123757)
(-0.00042529 -0.00012688 0.000145442)
(-0.00037894 -5.59887e-05 0.000172702)
(-0.000336451 1.34612e-05 0.000201819)
(-0.000297516 7.93369e-05 0.000230054)
(-0.000261592 0.00014037 0.000255315)
(-0.000228374 0.000195156 0.000275677)
(-0.000197487 0.000242233 0.000289057)
(-0.000168374 0.000280131 0.00029401)
(-0.000140432 0.000307036 0.00028872)
(-0.000112642 0.000320467 0.000268179)
(-8.3349e-05 0.000317268 0.000220317)
(-5.77822e-05 0.00029379 0.000147801)
(-3.06059e-05 0.000214108 8.2157e-05)
(-5.82071e-06 0.000804499 0.000607078)
(1.78731e-05 0.00115182 0.000879227)
(4.94311e-05 0.00127469 0.00096186)
(9.98341e-05 0.0013071 0.000994095)
(0.000153278 0.00125416 0.000984056)
(0.000204562 0.00112854 0.000932115)
(0.000249842 0.000949804 0.000846555)
(0.000288118 0.000738859 0.00073786)
(0.000317675 0.000517571 0.000617783)
(0.000337967 0.000304862 0.000496465)
(0.0003482 0.000114916 0.00038226)
(0.000348261 -4.35063e-05 0.000281123)
(0.00033814 -0.000165907 0.000197341)
(0.000318879 -0.000252446 0.000132269)
(0.00029214 -0.000304366 8.68957e-05)
(0.000259881 -0.00032482 6.09107e-05)
(0.000223721 -0.000319272 5.25102e-05)
(0.000185721 -0.000293653 5.9331e-05)
(0.000147558 -0.0002535 7.89276e-05)
(0.000110434 -0.000203937 0.000108478)
(7.53952e-05 -0.000149241 0.000145068)
(4.33315e-05 -9.28317e-05 0.000185591)
(1.49163e-05 -3.71206e-05 0.000227261)
(-9.41445e-06 1.62467e-05 0.000267577)
(-2.93464e-05 6.62771e-05 0.000304557)
(-4.48518e-05 0.000112304 0.000336489)
(-5.60346e-05 0.000153925 0.000362112)
(-6.30322e-05 0.000190622 0.000380109)
(-6.6019e-05 0.000221775 0.000389252)
(-6.52906e-05 0.000246119 0.00038822)
(-6.10432e-05 0.00026211 0.000375731)
(-5.32603e-05 0.000267579 0.000347261)
(-4.15121e-05 0.000260189 0.0002918)
(-2.98145e-05 0.000234382 0.00021027)
(-1.47601e-05 0.000147515 0.000119525)
(2.88043e-05 0.000149588 0.000389704)
(7.47024e-05 0.000195322 0.00048937)
(0.000125491 0.000215025 0.000491945)
(0.000195598 0.00022088 0.000483436)
(0.000264591 0.00021266 0.000469391)
(0.00032768 0.000193917 0.000446683)
(0.000382264 0.000170767 0.00041654)
(0.000426659 0.000148611 0.000381021)
(0.000459032 0.00013179 0.000341986)
(0.000478512 0.0001226 0.000300622)
(0.000484617 0.000122456 0.000258735)
(0.000477611 0.000132564 0.000219027)
(0.000458584 0.000152933 0.000184613)
(0.000429276 0.000181985 0.000158116)
(0.00039181 0.000216535 0.000140628)
(0.000348662 0.000253123 0.000131427)
(0.000302372 0.00028856 0.000129091)
(0.000255023 0.000320456 0.000132388)
(0.000208119 0.000346981 0.000140086)
(0.000162995 0.000367259 0.000151273)
(0.000120449 0.000380893 0.000164992)
(8.11079e-05 0.000388158 0.000180498)
(4.54344e-05 0.000389577 0.000196817)
(1.37705e-05 0.000386305 0.000213193)
(-1.35721e-05 0.000379438 0.000228643)
(-3.62579e-05 0.000370356 0.000242364)
(-5.3883e-05 0.000360141 0.000253183)
(-6.61596e-05 0.000349674 0.000260161)
(-7.30927e-05 0.000338796 0.000262105)
(-7.49076e-05 0.000326858 0.000257854)
(-7.18932e-05 0.000312097 0.000245875)
(-6.43298e-05 0.000292509 0.000222226)
(-5.19488e-05 0.000265501 0.000176577)
(-3.92896e-05 0.000223045 0.000110631)
(-2.08212e-05 0.000105559 4.84253e-05)
(3.73088e-06 -4.84013e-05 0.000360389)
(1.44643e-05 2.84351e-05 0.000370928)
(1.72475e-05 5.9818e-05 0.000330695)
(2.29171e-05 7.83756e-05 0.000295046)
(2.76298e-05 8.64066e-05 0.000271206)
(3.01897e-05 8.41931e-05 0.000254412)
(3.03597e-05 7.16335e-05 0.00024284)
(2.8489e-05 5.88727e-05 0.000229823)
(2.51505e-05 5.90299e-05 0.000208267)
(2.11635e-05 7.95586e-05 0.00017522)
(1.73863e-05 0.000122535 0.000132411)
(1.45331e-05 0.000184487 8.38673e-05)
(1.3301e-05 0.000258433 3.47844e-05)
(1.39062e-05 0.00033398 -9.46156e-06)
(1.6114e-05 0.000401196 -4.42772e-05)
(1.9597e-05 0.000456007 -6.93162e-05)
(2.44231e-05 0.000500284 -8.65099e-05)
(2.99884e-05 0.000534675 -9.70421e-05)
(3.58819e-05 0.000560291 -0.000101383)
(4.14874e-05 0.000577342 -0.000100064)
(4.63296e-05 0.000586519 -9.33456e-05)
(4.98507e-05 0.000587746 -8.19371e-05)
(5.17343e-05 0.000581512 -6.62383e-05)
(5.16064e-05 0.000567387 -4.72418e-05)
(4.93971e-05 0.000545781 -2.59563e-05)
(4.52613e-05 0.000516013 -4.10252e-06)
(3.90159e-05 0.000477958 1.72432e-05)
(3.13393e-05 0.000434706 3.56816e-05)
(2.28305e-05 0.000390337 4.96387e-05)
(1.39726e-05 0.000346128 5.79872e-05)
(5.36353e-06 0.000302843 5.97368e-05)
(-2.28502e-06 0.000259734 5.07124e-05)
(-7.28103e-06 0.000216834 2.14395e-05)
(-8.98171e-06 0.000162549 -2.76403e-05)
(-6.71413e-06 2.42243e-05 -6.38961e-05)
(-1.01947e-05 -0.000108563 0.000236486)
(-1.7278e-05 2.23335e-06 0.000275847)
(-2.84889e-05 5.00189e-05 0.000270934)
(-4.23829e-05 8.61263e-05 0.000256646)
(-5.6518e-05 0.000113567 0.000236547)
(-7.08803e-05 0.000135874 0.000209137)
(-8.59609e-05 0.000155106 0.000174172)
(-0.000101662 0.000174011 0.00013402)
(-0.000117258 0.000193925 9.2408e-05)
(-0.000131291 0.000216229 5.31289e-05)
(-0.000142268 0.000240737 1.78138e-05)
(-0.000148732 0.000267586 -1.34576e-05)
(-0.000149708 0.000295903 -4.17309e-05)
(-0.000144838 0.000325423 -6.72117e-05)
(-0.000134701 0.000355015 -8.98246e-05)
(-0.000120261 0.000384278 -0.000108596)
(-0.000102738 0.000412085 -0.000123216)
(-8.30998e-05 0.000438234 -0.000133113)
(-6.22795e-05 0.000461809 -0.000138424)
(-4.10924e-05 0.000482832 -0.000138814)
(-2.03447e-05 0.000500512 -0.000134551)
(-7.65752e-07 0.000515036 -0.000125315)
(1.69393e-05 0.000525664 -0.000111546)
(3.21687e-05 0.000532713 -9.32893e-05)
(4.43309e-05 0.000535457 -7.16151e-05)
(5.29351e-05 0.000534314 -4.73605e-05)
(5.75334e-05 0.000528438 -2.24475e-05)
(5.78496e-05 0.000518035 1.43968e-06)
(5.41392e-05 0.00050206 2.17963e-05)
(4.69021e-05 0.000480113 3.6898e-05)
(3.70167e-05 0.000449869 4.43618e-05)
(2.53771e-05 0.000408963 4.0576e-05)
(1.38915e-05 0.000352418 1.82842e-05)
(6.1916e-06 0.00027379 -2.11991e-05)
(1.12171e-06 8.6842e-05 -5.99374e-05)
(-1.40994e-05 -8.26975e-05 0.000173055)
(-2.68918e-05 3.3012e-05 0.000239969)
(-4.19318e-05 8.18374e-05 0.000260325)
(-6.1026e-05 0.000117859 0.00026454)
(-7.91037e-05 0.00014548 0.00025611)
(-9.58365e-05 0.000167104 0.000236327)
(-0.000111027 0.000185207 0.000206097)
(-0.000124306 0.00020086 0.000167079)
(-0.000135145 0.000215705 0.000123169)
(-0.000143132 0.000230124 7.8925e-05)
(-0.000148059 0.000245208 3.81372e-05)
(-0.000149864 0.000260748 2.67549e-06)
(-0.000148604 0.000277287 -2.68345e-05)
(-0.000144439 0.000294244 -5.09844e-05)
(-0.000137608 0.000311889 -7.01414e-05)
(-0.000128441 0.00032947 -8.49611e-05)
(-0.000117312 0.000347226 -9.54918e-05)
(-0.000104616 0.000364347 -0.000102047)
(-9.07792e-05 0.000381106 -0.000104397)
(-7.62758e-05 0.000396646 -0.000102678)
(-6.15977e-05 0.000411282 -9.6471e-05)
(-4.72225e-05 0.000424087 -8.58197e-05)
(-3.36145e-05 0.000435416 -7.03224e-05)
(-2.12134e-05 0.000444262 -5.03479e-05)
(-1.04099e-05 0.000450985 -2.61938e-05)
(-1.52143e-06 0.000454418 5.95712e-07)
(5.22498e-06 0.000454793 2.82747e-05)
(9.77911e-06 0.000450705 5.38813e-05)
(1.2224e-05 0.000442043 7.50045e-05)
(1.28029e-05 0.000426674 8.91501e-05)
(1.18075e-05 0.000403404 9.50728e-05)
(9.57287e-06 0.000368468 9.05099e-05)
(6.51989e-06 0.000318425 7.21122e-05)
(4.01176e-06 0.000246123 4.00446e-05)
(1.82039e-06 7.16294e-05 -8.14157e-06)
(-1.20185e-05 -6.2464e-05 0.000125012)
(-2.30641e-05 4.69787e-05 0.000205784)
(-3.65552e-05 9.26428e-05 0.000239496)
(-5.36011e-05 0.000126081 0.000254504)
(-6.96073e-05 0.00015097 0.000253732)
(-8.41507e-05 0.000170018 0.000240253)
(-9.70147e-05 0.000184841 0.000215606)
(-0.000107884 0.000196917 0.000181764)
(-0.000116325 0.000206924 0.000142118)
(-0.000122108 0.000215807 0.000101012)
(-0.000125089 0.000223857 6.22343e-05)
(-0.00012536 0.000231805 2.79601e-05)
(-0.000123024 0.000239695 -9.76404e-07)
(-0.000118329 0.000248073 -2.45975e-05)
(-0.000111485 0.000256835 -4.33226e-05)
(-0.000102818 0.000266392 -5.75071e-05)
(-9.26025e-05 0.000276459 -6.7437e-05)
(-8.123e-05 0.000287334 -7.32165e-05)
(-6.90244e-05 0.000298557 -7.48627e-05)
(-5.64143e-05 0.000310325 -7.22389e-05)
(-4.37523e-05 0.000322016 -6.51422e-05)
(-3.14791e-05 0.000333743 -5.32681e-05)
(-1.99447e-05 0.000344725 -3.63897e-05)
(-9.567e-06 0.000354979 -1.44434e-05)
(-6.48341e-07 0.000363554 1.20929e-05)
(6.50666e-06 0.00037033 4.1984e-05)
(1.17401e-05 0.000374122 7.29275e-05)
(1.49972e-05 0.00037454 0.00010189)
(1.63993e-05 0.000369979 0.00012563)
(1.61645e-05 0.00035945 0.000141638)
(1.45535e-05 0.000340492 0.000148149)
(1.17918e-05 0.000310779 0.000143355)
(8.15615e-06 0.000266163 0.000123846)
(4.93183e-06 0.000201488 8.89736e-05)
(2.86375e-06 4.51418e-05 2.47124e-05)
(-1.00088e-05 -6.09133e-05 6.90929e-05)
(-1.98606e-05 3.60664e-05 0.000149543)
(-3.28455e-05 7.57162e-05 0.000189182)
(-4.92438e-05 0.000103557 0.000209368)
(-6.48033e-05 0.000123174 0.000212068)
(-7.8794e-05 0.00013659 0.000201225)
(-9.0896e-05 0.00014564 0.000179036)
(-0.00010066 0.000151353 0.000147494)
(-0.000107687 0.000154852 0.000109792)
(-0.000111692 0.000156744 6.98044e-05)
(-0.000112625 0.000157873 3.11982e-05)
(-0.000110562 0.000158647 -3.58018e-06)
(-0.000105743 0.000159776 -3.33804e-05)
(-9.8434e-05 0.000161462 -5.78929e-05)
(-8.90115e-05 0.000164254 -7.717e-05)
(-7.78132e-05 0.000168191 -9.14617e-05)
(-6.52807e-05 0.000173655 -0.000100907)
(-5.17876e-05 0.000180485 -0.000105628)
(-3.78209e-05 0.000188884 -0.000105597)
(-2.37778e-05 0.000198491 -0.000100729)
(-1.01605e-05 0.000209326 -9.08303e-05)
(2.64171e-06 0.000220835 -7.5698e-05)
(1.41411e-05 0.000232826 -5.52013e-05)
(2.39924e-05 0.000244545 -2.94061e-05)
(3.1782e-05 0.000255627 1.10658e-06)
(3.72855e-05 0.000265128 3.49553e-05)
(4.02954e-05 0.000272458 6.96763e-05)
(4.08551e-05 0.000276432 0.000102054)
(3.90979e-05 0.000276136 0.000128669)
(3.5351e-05 0.000269938 0.000146846)
(2.99424e-05 0.000256301 0.000154536)
(2.31606e-05 0.000232578 0.000149464)
(1.55048e-05 0.000195909 0.00012745)
(9.11862e-06 0.000141528 8.77589e-05)
(4.74355e-06 9.03595e-06 1.60107e-05)
(-8.31152e-06 -4.18551e-05 8.86845e-06)
(-1.86658e-05 5.79082e-05 8.18192e-05)
(-3.33551e-05 9.77133e-05 0.000124769)
(-5.24856e-05 0.000123654 0.000147207)
(-7.10524e-05 0.000139005 0.000149601)
(-8.7794e-05 0.000146281 0.000137139)
(-0.000102138 0.000147267 0.000112538)
(-0.000113414 0.000143701 7.8169e-05)
(-0.000121081 0.000136724 3.69723e-05)
(-0.000124774 0.0001278 -7.08633e-06)
(-0.000124408 0.000117765 -5.05615e-05)
(-0.000120096 0.000107855 -9.04978e-05)
(-0.000112137 9.87027e-05 -0.000125325)
(-0.000100937 9.12879e-05 -0.000154174)
(-8.69878e-05 8.59567e-05 -0.000176878)
(-7.08371e-05 8.34427e-05 -0.000193321)
(-5.30616e-05 8.3824e-05 -0.000203659)
(-3.42912e-05 8.7555e-05 -0.000207856)
(-1.51205e-05 9.44287e-05 -0.000205994)
(3.78591e-06 0.000104571 -0.000197914)
(2.18113e-05 0.000117473 -0.000183563)
(3.8309e-05 0.000132954 -0.000162753)
(5.2691e-05 0.000150236 -0.000135547)
(6.43591e-05 0.000168807 -0.000102234)
(7.28614e-05 0.000187592 -6.38006e-05)
(7.78088e-05 0.000205723 -2.19889e-05)
(7.90431e-05 0.000221807 2.03449e-05)
(7.65674e-05 0.000234622 5.96583e-05)
(7.06846e-05 0.000242512 9.23314e-05)
(6.18421e-05 0.000243881 0.000115522)
(5.06461e-05 0.000236619 0.000126956)
(3.7628e-05 0.000218308 0.000123796)
(2.3841e-05 0.000185823 0.000100938)
(1.30973e-05 0.000134974 5.82196e-05)
(5.70508e-06 8.32639e-06 -1.18854e-05)
(-8.32255e-06 3.23313e-06 -4.5466e-05)
(-2.12422e-05 0.000123728 1.47831e-05)
(-3.90721e-05 0.000170153 5.68567e-05)
(-6.28e-05 0.000196646 7.72697e-05)
(-8.59924e-05 0.000207536 7.53324e-05)
(-0.000106866 0.000205812 5.67826e-05)
(-0.000124517 0.000194498 2.48585e-05)
(-0.000138033 0.000175863 -1.80226e-05)
(-0.000146724 0.000152376 -6.88055e-05)
(-0.000150161 0.000125935 -0.00012341)
(-0.000148295 9.87065e-05 -0.000177608)
(-0.000141431 7.21276e-05 -0.000227995)
(-0.000130086 4.78577e-05 -0.000272192)
(-0.000114913 2.68196e-05 -0.00030895)
(-9.65944e-05 1.01929e-05 -0.000337722)
(-7.58362e-05 -1.53044e-06 -0.000358442)
(-5.33189e-05 -7.5866e-06 -0.000371171)
(-2.9741e-05 -7.87328e-06 -0.000375994)
(-5.751e-06 -2.0317e-06 -0.00037288)
(1.79515e-05 9.63891e-06 -0.000361713)
(4.06923e-05 2.70936e-05 -0.000342242)
(6.17348e-05 4.96291e-05 -0.000314295)
(8.03108e-05 7.67458e-05 -0.000277913)
(9.55843e-05 0.000107266 -0.000233704)
(0.000106752 0.000140072 -0.000183082)
(0.000113118 0.000173338 -0.000128581)
(0.000114271 0.000205318 -7.38003e-05)
(0.000110175 0.000233612 -2.30303e-05)
(0.000101195 0.000256023 1.98809e-05)
(8.80271e-05 0.000269732 5.17642e-05)
(7.15056e-05 0.000272081 7.03132e-05)
(5.25651e-05 0.000259763 7.24903e-05)
(3.27845e-05 0.00022925 5.29415e-05)
(1.77736e-05 0.000175727 1.24513e-05)
(6.88771e-06 3.73467e-05 -4.67993e-05)
(-8.73346e-06 9.00936e-05 -6.17698e-05)
(-2.3613e-05 0.000252045 -1.55287e-05)
(-4.31166e-05 0.000312757 1.93482e-05)
(-6.92219e-05 0.000343762 3.27207e-05)
(-9.44216e-05 0.000350816 2.3089e-05)
(-0.000116627 0.000338785 -4.65424e-06)
(-0.000134584 0.000311918 -4.78153e-05)
(-0.00014715 0.00027449 -0.000104278)
(-0.000153351 0.000230094 -0.000170979)
(-0.000152971 0.00018255 -0.000243037)
(-0.000146723 0.000135346 -0.00031433)
(-0.000135874 9.15804e-05 -0.000379238)
(-0.000121639 5.30914e-05 -0.000434302)
(-0.000104846 2.0984e-05 -0.000478444)
(-8.60593e-05 -4.33525e-06 -0.000511978)
(-6.573e-05 -2.24543e-05 -0.000535682)
(-4.43106e-05 -3.33658e-05 -0.00055016)
(-2.22433e-05 -3.69174e-05 -0.000555823)
(6.74456e-08 -3.32226e-05 -0.000552719)
(2.22404e-05 -2.21965e-05 -0.000540619)
(4.37942e-05 -3.97929e-06 -0.00051897)
(6.4406e-05 2.19202e-05 -0.000486933)
(8.36388e-05 5.54386e-05 -0.000443604)
(0.000100768 9.68258e-05 -0.000388395)
(0.0001149 0.000145407 -0.000322305)
(0.000124703 0.000198443 -0.000249248)
(0.000128855 0.000252096 -0.000175285)
(0.000126401 0.000302208 -0.000106943)
(0.000117371 0.000344385 -4.92408e-05)
(0.000102829 0.000374643 -5.35861e-06)
(8.39021e-05 0.000388598 2.2897e-05)
(6.18505e-05 0.000381736 3.31838e-05)
(3.86785e-05 0.000349031 2.10979e-05)
(2.12153e-05 0.000284415 -1.18111e-05)
(7.8417e-06 0.000111675 -5.73055e-05)
(-8.32774e-06 0.000187405 -4.65982e-05)
(-2.25403e-05 0.000391757 -1.36325e-05)
(-4.0243e-05 0.000466111 9.67686e-06)
(-6.37824e-05 0.000499965 1.34276e-05)
(-8.62352e-05 0.000500932 -4.56528e-06)
(-0.000105237 0.000474968 -4.1573e-05)
(-0.000119576 0.000428485 -9.66665e-05)
(-0.000128131 0.000366229 -0.000168462)
(-0.000129544 0.000294554 -0.000252258)
(-0.000125072 0.000226506 -0.000338893)
(-0.000116314 0.000171925 -0.000418872)
(-0.000104649 0.000132229 -0.000486414)
(-9.12853e-05 0.000103382 -0.000539962)
(-7.64212e-05 7.92713e-05 -0.000581131)
(-6.09546e-05 6.01234e-05 -0.000610995)
(-4.48318e-05 4.64099e-05 -0.000631151)
(-2.821e-05 3.81977e-05 -0.000643125)
(-1.13583e-05 3.55106e-05 -0.000647655)
(5.5319e-06 3.83141e-05 -0.000645094)
(2.22409e-05 4.64663e-05 -0.000635096)
(3.85203e-05 5.97675e-05 -0.000616892)
(5.42886e-05 7.79718e-05 -0.00058888)
(6.95358e-05 0.000100366 -0.000549508)
(8.35595e-05 0.00012796 -0.000497271)
(9.6245e-05 0.000167592 -0.000430406)
(0.000106376 0.000223629 -0.000350375)
(0.000112621 0.000295036 -0.000262736)
(0.000113344 0.000372019 -0.000177055)
(0.000107011 0.000439952 -0.000103256)
(9.48181e-05 0.000490281 -4.67044e-05)
(7.8144e-05 0.000518636 -8.62867e-06)
(5.79692e-05 0.00051871 1.03368e-05)
(3.66113e-05 0.000484515 7.87015e-06)
(2.04905e-05 0.000408519 -1.37313e-05)
(7.48587e-06 0.000198545 -4.5482e-05)
(-6.55761e-06 0.00027374 -2.96242e-05)
(-1.83556e-05 0.000514113 -6.71761e-06)
(-3.28231e-05 0.000600841 7.30319e-06)
(-5.23597e-05 0.000638619 3.86159e-06)
(-7.08496e-05 0.000635665 -1.97025e-05)
(-8.69363e-05 0.000599451 -6.27101e-05)
(-9.87907e-05 0.000534708 -0.000125864)
(-0.000104706 0.000453598 -0.000205725)
(-0.000105619 0.000375024 -0.000292618)
(-0.000102533 0.00031152 -0.000376057)
(-9.6122e-05 0.000266131 -0.000448702)
(-8.7194e-05 0.000235698 -0.000507405)
(-7.62252e-05 0.000213291 -0.000552538)
(-6.34913e-05 0.000193387 -0.000586445)
(-4.9821e-05 0.000177035 -0.000610298)
(-3.52146e-05 0.000164822 -0.00062603)
(-1.99806e-05 0.000157349 -0.000635035)
(-4.4248e-06 0.000154904 -0.0006381)
(1.11509e-05 0.000157605 -0.000635459)
(2.64324e-05 0.000165276 -0.000626919)
(4.10919e-05 0.000177568 -0.000611747)
(5.4802e-05 0.000193809 -0.000588615)
(6.75442e-05 0.000213315 -0.000555705)
(7.84319e-05 0.000234964 -0.000511966)
(8.73044e-05 0.000264856 -0.000454827)
(9.3746e-05 0.000310221 -0.000383669)
(9.70535e-05 0.000374407 -0.000301288)
(9.66553e-05 0.00045443 -0.000214675)
(9.15873e-05 0.000537768 -0.000134305)
(8.08839e-05 0.000605074 -7.02509e-05)
(6.59845e-05 0.000642925 -2.64346e-05)
(4.87923e-05 0.000646661 -2.05285e-06)
(3.05501e-05 0.000608954 2.41686e-06)
(1.70319e-05 0.000521564 -1.03016e-05)
(5.98744e-06 0.00027824 -3.17195e-05)
(-5.92141e-06 0.000347655 -1.76004e-05)
(-1.63895e-05 0.000620283 1.24372e-06)
(-2.9343e-05 0.000719538 1.12002e-05)
(-4.68447e-05 0.000763211 4.83711e-06)
(-6.3875e-05 0.000761096 -2.03859e-05)
(-7.93721e-05 0.000719921 -6.47648e-05)
(-9.0904e-05 0.000645702 -0.00012855)
(-9.84564e-05 0.00055984 -0.000205643)
(-0.000101947 0.000481123 -0.000286168)
(-0.000101413 0.000418454 -0.000361682)
(-9.69261e-05 0.000373484 -0.000427233)
(-8.89506e-05 0.000342341 -0.000480524)
(-7.81896e-05 0.000318949 -0.00052164)
(-6.50498e-05 0.000297925 -0.000552552)
(-5.06172e-05 0.000280509 -0.000574173)
(-3.50514e-05 0.000267459 -0.000588289)
(-1.87444e-05 0.000259432 -0.000596302)
(-2.07283e-06 0.000256729 -0.000598951)
(1.46106e-05 0.000259511 -0.000596459)
(3.0949e-05 0.000267596 -0.000588628)
(4.65606e-05 0.000280661 -0.000574748)
(6.10437e-05 0.000298028 -0.000553459)
(7.42336e-05 0.00031891 -0.000523045)
(8.5021e-05 0.000342035 -0.000482699)
(9.30058e-05 0.00037291 -0.000430438)
(9.75149e-05 0.000417777 -0.000366059)
(9.81327e-05 0.000480638 -0.000291647)
(9.48063e-05 0.000559892 -0.000211927)
(8.75538e-05 0.000646748 -0.000135137)
(7.64979e-05 0.000722263 -7.12136e-05)
(6.1542e-05 0.00076438 -2.65447e-05)
(4.51222e-05 0.000766986 -8.84755e-07)
(2.82498e-05 0.00072345 6.1835e-06)
(1.57597e-05 0.00062392 -2.77767e-06)
(5.63906e-06 0.000349356 -2.01715e-05)
(-5.73869e-06 0.00041627 -3.92666e-06)
(-1.55143e-05 0.000719995 1.62636e-05)
(-2.77679e-05 0.000832038 2.58194e-05)
(-4.43635e-05 0.000883157 1.96051e-05)
(-6.09545e-05 0.000884457 -4.55839e-06)
(-7.64303e-05 0.000842427 -4.71267e-05)
(-8.8404e-05 0.000765608 -0.000107477)
(-9.73712e-05 0.000678168 -0.00017894)
(-0.000102598 0.000597682 -0.000252781)
(-0.000103453 0.00053127 -0.000322331)
(-9.99346e-05 0.000480687 -0.000383565)
(-9.23462e-05 0.000443139 -0.000434303)
(-8.14533e-05 0.00041418 -0.000473893)
(-6.78243e-05 0.000389489 -0.000503543)
(-5.25639e-05 0.000369279 -0.00052424)
(-3.60798e-05 0.000354301 -0.000537627)
(-1.8777e-05 0.000345126 -0.00054515)
(-1.07898e-06 0.000342047 -0.000547603)
(1.66255e-05 0.000345198 -0.000545211)
(3.39382e-05 0.000354435 -0.000537768)
(5.04362e-05 0.000369459 -0.0005245)
(6.57167e-05 0.000389696 -0.000503979)
(7.93675e-05 0.000414377 -0.000474612)
(9.02784e-05 0.000443267 -0.000435472)
(9.78822e-05 0.000480735 -0.000385352)
(0.000101425 0.000531284 -0.000324884)
(0.000100615 0.000597792 -0.000256124)
(9.54778e-05 0.00067852 -0.000182992)
(8.6659e-05 0.000766385 -0.000111992)
(7.4906e-05 0.000843818 -5.17919e-05)
(5.97316e-05 0.000886529 -9.16297e-06)
(4.34504e-05 0.00088561 1.5231e-05)
(2.71819e-05 0.000834594 2.19097e-05)
(1.51883e-05 0.000722401 1.30827e-05)
(5.58123e-06 0.000417066 -5.95594e-06)
(-6.02249e-06 0.000476584 1.27272e-05)
(-1.54554e-05 0.00080802 3.8595e-05)
(-2.73045e-05 0.000932003 5.02964e-05)
(-4.34323e-05 0.000990901 4.62866e-05)
(-5.97358e-05 0.000996163 2.47041e-05)
(-7.50903e-05 0.000954755 -1.45691e-05)
(-8.76395e-05 0.000878123 -7.01962e-05)
(-9.75293e-05 0.000789478 -0.000135945)
(-0.000103791 0.000705026 -0.00020425)
(-0.000105594 0.000631608 -0.00026956)
(-0.000102793 0.000571736 -0.000328183)
(-9.56102e-05 0.000524283 -0.000377675)
(-8.47163e-05 0.00048662 -0.000416786)
(-7.0821e-05 0.00045591 -0.000445878)
(-5.48648e-05 0.000431374 -0.000466132)
(-3.75756e-05 0.000413474 -0.000479055)
(-1.93805e-05 0.00040258 -0.000486237)
(-7.40346e-07 0.000398937 -0.000488552)
(1.79045e-05 0.00040263 -0.000486274)
(3.61077e-05 0.000413573 -0.000479136)
(5.34071e-05 0.000431518 -0.000466278)
(6.93812e-05 0.000456085 -0.000446129)
(8.3299e-05 0.000486818 -0.000417198)
(9.42148e-05 0.000524489 -0.000378336)
(0.000101425 0.000571953 -0.000329197)
(0.000104262 0.000631862 -0.000271026)
(0.000102508 0.000705369 -0.000206225)
(9.63187e-05 0.000789988 -0.00013842)
(8.6532e-05 0.000878896 -7.30714e-05)
(7.41168e-05 0.000955897 -1.76706e-05)
(5.89475e-05 0.000997724 2.15413e-05)
(4.28434e-05 0.0009927 4.32265e-05)
(2.69282e-05 0.000933874 4.75519e-05)
(1.52517e-05 0.000809807 3.63851e-05)
(5.9201e-06 0.000476945 1.13472e-05)
(-6.31931e-06 0.000528986 2.96313e-05)
(-1.54323e-05 0.000883673 6.30916e-05)
(-2.68999e-05 0.00101814 7.79864e-05)
(-4.25124e-05 0.00108439 7.68145e-05)
(-5.83751e-05 0.00109423 5.82638e-05)
(-7.34649e-05 0.001055 2.25734e-05)
(-8.6202e-05 0.000979306 -2.86715e-05)
(-9.65321e-05 0.000889064 -8.96626e-05)
(-0.00010339 0.000799448 -0.000153559)
(-0.000105882 0.000717339 -0.000215358)
(-0.000103764 0.000646209 -0.000271624)
(-9.71411e-05 0.000586601 -0.000319866)
(-8.65415e-05 0.000537831 -0.000358479)
(-7.27375e-05 0.00049857 -0.000387239)
(-5.64349e-05 0.000467819 -0.000407491)
(-3.86395e-05 0.000445726 -0.000420311)
(-1.98442e-05 0.00043243 -0.00042732)
(-5.63958e-07 0.000427995 -0.000429556)
(1.87187e-05 0.000432459 -0.000427344)
(3.75203e-05 0.000445785 -0.000420362)
(5.53256e-05 0.000467906 -0.000407581)
(7.16433e-05 0.000498685 -0.000387385)
(8.54651e-05 0.000537974 -0.000358715)
(9.60856e-05 0.000586776 -0.000320239)
(0.000102735 0.000646425 -0.000272199)
(0.000104887 0.000717614 -0.0002162)
(0.000102443 0.000799811 -0.00015472)
(9.5648e-05 0.000889558 -9.11606e-05)
(8.53991e-05 0.000979984 -3.04656e-05)
(7.27679e-05 0.00105593 2.05841e-05)
(5.78134e-05 0.00109543 5.61956e-05)
(4.20962e-05 0.00108575 7.47953e-05)
(2.66367e-05 0.00101957 7.61825e-05)
(1.52959e-05 0.000885069 6.1671e-05)
(6.25301e-06 0.000529092 2.87551e-05)
(-6.52575e-06 0.000571756 4.28158e-05)
(-1.52983e-05 0.00094445 8.29364e-05)
(-2.64246e-05 0.00108732 0.000100709)
(-4.15147e-05 0.0011598 0.00010196)
(-5.68499e-05 0.00117389 8.5784e-05)
(-7.14835e-05 0.00113729 5.27214e-05)
(-8.40326e-05 0.00106293 4.59297e-06)
(-9.43644e-05 0.000971286 -5.29393e-05)
(-0.000101412 0.000876492 -0.000113413)
(-0.000104282 0.000785513 -0.000172211)
(-0.00010268 0.000702657 -0.000226143)
(-9.66281e-05 0.000629928 -0.000272872)
(-8.65259e-05 0.000568429 -0.0003108)
(-7.3058e-05 0.000518489 -0.000339376)
(-5.68714e-05 0.000480056 -0.000359555)
(-3.89329e-05 0.000452849 -0.000372448)
(-1.99378e-05 0.00043663 -0.000379434)
(-4.23008e-07 0.000431237 -0.000381648)