/*--------------------------------*- C++ -*----------------------------------*\
| =========                 |                                                 |
| \\      /  F ield         | OpenFOAM: The Open Source CFD Toolbox           |
|  \\    /   O peration     | Version:  v2012                                 |
|   \\  /    A nd           | Website:  www.openfoam.com                      |
|    \\/     M anipulation  |                                                 |
\*---------------------------------------------------------------------------*/
FoamFile
{
    version     2.0;
    format      ascii;
    class       surfaceScalarField;
    location    "89";
    object      phi;
}
// * * * * * * * * * * * * * * * * * * * * * * * * * * * * * * * * * * * * * //

dimensions      [1 0 -1 0 0 0 0];
oriented        oriented;


internalField   nonuniform List<scalar> 
228225
(
-8.2013e-10
-5.14269e-10
1.06858e-09
-1.80509e-09
2.32297e-09
-1.33602e-09
-4.44184e-09
4.40743e-09
-1.77154e-09
-8.97524e-09
6.34551e-09
-1.81093e-09
-1.52532e-08
8.12035e-09
-1.84494e-09
-2.29559e-08
9.67204e-09
-1.96695e-09
-3.17593e-08
1.09843e-08
-2.18223e-09
-4.13113e-08
1.20362e-08
-2.48331e-09
-5.13029e-08
1.28402e-08
-2.84909e-09
-6.14282e-08
1.33941e-08
-3.26838e-09
-7.14271e-08
1.37196e-08
-3.72034e-09
-8.10498e-08
1.38215e-08
-4.19775e-09
-9.0093e-08
1.3726e-08
-4.68446e-09
-9.83524e-08
1.34385e-08
-5.17627e-09
-1.05682e-07
1.29864e-08
-5.66007e-09
-1.11923e-07
1.2378e-08
-6.13346e-09
-1.16979e-07
1.16382e-08
-6.58534e-09
-1.2074e-07
1.07752e-08
-7.01495e-09
-1.2314e-07
9.81212e-09
-7.40952e-09
-1.24128e-07
8.75655e-09
-7.77021e-09
-1.23667e-07
7.6301e-09
-8.08917e-09
-1.21745e-07
6.44031e-09
-8.36531e-09
-1.18359e-07
5.20719e-09
-8.5918e-09
-1.13524e-07
3.93642e-09
-8.7696e-09
-1.07282e-07
2.6494e-09
-8.89427e-09
-9.96685e-08
1.35831e-09
-8.96931e-09
-9.07753e-08
9.8033e-11
-8.99399e-09
-8.06471e-08
-1.14913e-09
-8.97539e-09
-6.9414e-08
-2.31801e-09
-8.91623e-09
-5.72006e-08
-3.38917e-09
-8.82371e-09
-4.4195e-08
-4.31478e-09
-8.68966e-09
-3.06904e-08
-5.03441e-09
-8.47217e-09
-1.7265e-08
-5.42897e-09
-7.99504e-09
-5.30067e-09
-5.3251e-09
-6.64094e-09
-3.71237e-09
-1.58758e-09
-2.29472e-09
1.32492e-08
-1.14691e-08
-1.08311e-08
2.38897e-08
-1.303e-08
-2.16428e-08
2.90049e-08
-1.37869e-08
-3.36764e-08
3.28901e-08
-1.45098e-08
-4.61556e-08
3.57263e-08
-1.51284e-08
-5.8535e-08
3.77045e-08
-1.56527e-08
-7.0404e-08
3.89743e-08
-1.61203e-08
-8.1484e-08
3.96611e-08
-1.65457e-08
-9.15619e-08
3.98593e-08
-1.6941e-08
-1.00509e-07
3.9647e-08
-1.73069e-08
-1.08224e-07
3.9085e-08
-1.76492e-08
-1.14665e-07
3.82255e-08
-1.79655e-08
-1.1979e-07
3.71119e-08
-1.82592e-08
-1.23606e-07
3.57804e-08
-1.85265e-08
-1.26113e-07
3.42649e-08
-1.87701e-08
-1.27346e-07
3.25956e-08
-1.89857e-08
-1.27332e-07
3.07997e-08
-1.91755e-08
-1.26127e-07
2.89058e-08
-1.93355e-08
-1.23786e-07
2.69373e-08
-1.94677e-08
-1.20378e-07
2.49171e-08
-1.95679e-08
-1.15977e-07
2.28664e-08
-1.9638e-08
-1.10667e-07
2.08057e-08
-1.96742e-08
-1.04532e-07
1.87503e-08
-1.9678e-08
-9.76674e-08
1.67167e-08
-1.96456e-08
-9.01616e-08
1.47208e-08
-1.95772e-08
-8.21129e-08
1.27779e-08
-1.94673e-08
-7.36026e-08
1.09008e-08
-1.93135e-08
-6.47458e-08
9.10075e-09
-1.91074e-08
-5.56117e-08
7.38734e-09
-1.88389e-08
-4.62831e-08
5.76886e-09
-1.84877e-08
-3.68206e-08
4.25312e-09
-1.80326e-08
-2.72725e-08
2.85428e-09
-1.74342e-08
-1.77169e-08
1.59999e-09
-1.65845e-08
-8.44974e-09
6.01437e-10
-1.51948e-08
-5.54825e-11
-1.21063e-08
-6.69249e-10
2.32604e-08
-9.34225e-09
-4.50319e-09
3.88572e-08
-1.11329e-08
-9.38923e-09
4.57828e-08
-1.1891e-08
-1.47849e-08
5.07424e-08
-1.24582e-08
-2.03222e-08
5.41728e-08
-1.29084e-08
-2.57481e-08
5.64227e-08
-1.32924e-08
-3.08863e-08
5.77426e-08
-1.36321e-08
-3.56027e-08
5.83281e-08
-1.39483e-08
-3.98221e-08
5.83231e-08
-1.42455e-08
-4.3483e-08
5.7841e-08
-1.45333e-08
-4.6556e-08
5.69683e-08
-1.48093e-08
-4.90286e-08
5.57751e-08
-1.50781e-08
-5.0899e-08
5.43173e-08
-1.53348e-08
-5.21784e-08
5.26424e-08
-1.5582e-08
-5.28918e-08
5.079e-08
-1.58142e-08
-5.30568e-08
4.8795e-08
-1.60334e-08
-5.27109e-08
4.66881e-08
-1.62342e-08
-5.18865e-08
4.44999e-08
-1.64174e-08
-5.06281e-08
4.22552e-08
-1.65777e-08
-4.89711e-08
3.99771e-08
-1.6717e-08
-4.69613e-08
3.76863e-08
-1.68303e-08
-4.46374e-08
3.54019e-08
-1.6919e-08
-4.20517e-08
3.31433e-08
-1.69792e-08
-3.92514e-08
3.0927e-08
-1.70117e-08
-3.62821e-08
2.87635e-08
-1.70115e-08
-3.31818e-08
2.66555e-08
-1.69782e-08
-2.99813e-08
2.46059e-08
-1.69051e-08
-2.67049e-08
2.26118e-08
-1.67883e-08
-2.3364e-08
2.06635e-08
-1.66158e-08
-1.99638e-08
1.87426e-08
-1.63751e-08
-1.64852e-08
1.68177e-08
-1.60423e-08
-1.28962e-08
1.48437e-08
-1.55794e-08
-9.14704e-09
1.27508e-08
-1.48996e-08
-5.1652e-09
1.04392e-08
-1.38204e-08
6.08437e-09
-1.13041e-08
-1.83525e-10
2.8e-08
-4.55561e-09
-8.66092e-10
4.57166e-08
-6.17751e-09
-1.73994e-09
5.3653e-08
-6.99589e-09
-2.83034e-09
5.93752e-08
-7.54125e-09
-4.10165e-09
6.33974e-08
-7.95516e-09
-5.47181e-09
6.61063e-08
-8.31325e-09
-6.86442e-09
6.77887e-08
-8.65129e-09
-8.22654e-09
6.86636e-08
-8.97714e-09
-9.49658e-09
6.88983e-08
-9.30276e-09
-1.06493e-08
6.86206e-08
-9.62769e-09
-1.16527e-08
6.79312e-08
-9.95794e-09
-1.24987e-08
6.69083e-08
-1.02886e-08
-1.31748e-08
6.56163e-08
-1.06225e-08
-1.36862e-08
6.41061e-08
-1.0953e-08
-1.4036e-08
6.24219e-08
-1.12816e-08
-1.42399e-08
6.05995e-08
-1.16012e-08
-1.43091e-08
5.86712e-08
-1.19126e-08
-1.42666e-08
5.6664e-08
-1.2209e-08
-1.4121e-08
5.46021e-08
-1.24909e-08
-1.38965e-08
5.25059e-08
-1.2752e-08
-1.36128e-08
5.03939e-08
-1.29928e-08
-1.32852e-08
4.8282e-08
-1.32074e-08
-1.29362e-08
4.61884e-08
-1.33948e-08
-1.25796e-08
4.41212e-08
-1.35491e-08
-1.22306e-08
4.20821e-08
-1.36704e-08
-1.18818e-08
4.00632e-08
-1.3754e-08
-1.15325e-08
3.80527e-08
-1.37983e-08
-1.11537e-08
3.60294e-08
-1.37963e-08
-1.07038e-08
3.3958e-08
-1.37429e-08
-1.01239e-08
3.17867e-08
-1.36255e-08
-9.31597e-09
2.9439e-08
-1.34303e-08
-8.14484e-09
2.68098e-08
-1.31359e-08
-6.41596e-09
2.37457e-08
-1.27231e-08
-3.93152e-09
2.00532e-08
-1.20989e-08
1.25009e-08
-1.03488e-08
-1.01301e-09
3.01252e-08
-1.11246e-09
-8.80497e-10
4.79488e-08
-2.36554e-09
-1.79488e-10
5.60481e-08
-3.09532e-09
7.59608e-10
6.20037e-08
-3.56714e-09
1.77222e-09
6.62997e-08
-3.91552e-09
2.79471e-09
6.93144e-08
-4.23043e-09
3.78855e-09
7.13293e-08
-4.53542e-09
4.73548e-09
7.25617e-08
-4.84355e-09
5.61382e-09
7.31739e-08
-5.15516e-09
6.41853e-09
7.32939e-08
-5.4774e-09
7.13779e-09
7.30184e-08
-5.80682e-09
7.76602e-09
7.24262e-08
-6.14669e-09
8.29629e-09
7.15773e-08
-6.49104e-09
8.72198e-09
7.05227e-08
-6.84123e-09
9.02979e-09
6.93021e-08
-7.19044e-09
9.21942e-09
6.79504e-08
-7.53918e-09
9.27675e-09
6.64951e-08
-7.88053e-09
9.19316e-09
6.49611e-08
-8.21457e-09
8.96387e-09
6.33678e-08
-8.53463e-09
8.57607e-09
6.17323e-08
-8.84066e-09
8.02817e-09
6.00683e-08
-9.12632e-09
7.31559e-09
5.83868e-08
-9.39132e-09
6.44066e-09
5.66926e-08
-9.62988e-09
5.41697e-09
5.49865e-08
-9.8419e-09
4.25994e-09
5.32615e-08
-1.00221e-08
2.98983e-09
5.15031e-08
-1.01703e-08
1.63716e-09
4.96859e-08
-1.0281e-08
2.51571e-10
4.777e-08
-1.03533e-08
-1.10838e-09
4.56965e-08
-1.03804e-08
-2.3459e-09
4.33829e-08
-1.03574e-08
-3.34822e-09
4.07118e-08
-1.02717e-08
-3.94258e-09
3.75244e-08
-1.01195e-08
-3.88255e-09
3.35978e-08
-9.91401e-09
-2.84799e-09
2.86385e-08
-9.61815e-09
1.8123e-08
-8.47056e-09
-1.13058e-09
3.04959e-08
7.60046e-10
-8.72225e-10
4.78623e-08
-1.72091e-10
1.11211e-10
5.58329e-08
-7.68422e-10
1.47947e-09
6.17842e-08
-1.14808e-09
3.02764e-09
6.61844e-08
-1.43376e-09
4.65087e-09
6.93874e-08
-1.69666e-09
6.28013e-09
7.16641e-08
-1.96316e-09
7.85993e-09
7.32158e-08
-2.23466e-09
9.35253e-09
7.41988e-08
-2.51764e-09
1.07267e-08
7.47299e-08
-2.81009e-09
1.19579e-08
7.49018e-08
-3.11522e-09
1.30292e-08
7.4784e-08
-3.42834e-09
1.39225e-08
7.44336e-08
-3.75113e-09
1.46293e-08
7.38938e-08
-4.07772e-09
1.51397e-08
7.32015e-08
-4.40864e-09
1.54417e-08
7.23847e-08
-4.73767e-09
1.55334e-08
7.14681e-08
-5.0648e-09
1.5409e-08
7.04699e-08
-5.38393e-09
1.50649e-08
6.94062e-08
-5.69487e-09
1.45012e-08
6.82878e-08
-5.99185e-09
1.37209e-08
6.71232e-08
-6.27463e-09
1.273e-08
6.59153e-08
-6.5379e-09
1.15403e-08
6.4663e-08
-6.7815e-09
1.01689e-08
6.33588e-08
-7.00055e-09
8.63716e-09
6.19881e-08
-7.1949e-09
6.97485e-09
6.0526e-08
-7.36014e-09
5.22136e-09
5.89348e-08
-7.496e-09
3.43031e-09
5.71592e-08
-7.59834e-09
1.67246e-09
5.51211e-08
-7.66616e-09
3.44881e-11
5.27127e-08
-7.69295e-09
-1.36428e-09
4.97851e-08
-7.67344e-09
-2.37152e-09
4.61377e-08
-7.60668e-09
-2.74367e-09
4.14934e-08
-7.52327e-09
-2.19319e-09
3.54939e-08
-7.40722e-09
2.25842e-08
-6.65322e-09
-9.04291e-10
3.00031e-08
1.39614e-09
-6.18759e-10
4.68956e-08
6.82524e-10
3.03386e-10
5.47045e-08
2.05715e-10
1.57434e-09
6.06074e-08
-9.39128e-11
3.01931e-09
6.50533e-08
-3.14092e-10
4.54653e-09
6.83833e-08
-5.23336e-10
6.09204e-09
7.0854e-08
-7.35094e-10
7.6044e-09
7.26591e-08
-9.55293e-10
9.04116e-09
7.39438e-08
-1.18211e-09
1.0372e-08
7.48201e-08
-1.4194e-09
1.15659e-08
7.53712e-08
-1.66513e-09
1.26075e-08
7.56635e-08
-1.92096e-09
1.34775e-08
7.57457e-08
-2.18207e-09
1.41632e-08
7.56579e-08
-2.44939e-09
1.46545e-08
7.54296e-08
-2.71788e-09
1.49413e-08
7.50858e-08
-2.9878e-09
1.50185e-08
7.46441e-08
-3.25413e-09
1.48853e-08
7.41199e-08
-3.51686e-09
1.45412e-08
7.35226e-08
-3.77113e-09
1.39855e-08
7.28593e-08
-4.01687e-09
1.32271e-08
7.21321e-08
-4.24956e-09
1.22727e-08
7.13394e-08
-4.46917e-09
1.11327e-08
7.04734e-08
-4.67157e-09
9.82943e-09
6.95205e-08
-4.85686e-09
8.37998e-09
6.84578e-08
-5.0213e-09
6.81849e-09
6.72522e-08
-5.16511e-09
5.18252e-09
6.58551e-08
-5.28489e-09
3.52542e-09
6.41996e-08
-5.38092e-09
1.90286e-09
6.21923e-08
-5.44969e-09
3.98703e-10
5.97069e-08
-5.48968e-09
-8.91397e-10
5.65701e-08
-5.49458e-09
-1.83497e-09
5.25502e-08
-5.46908e-09
-2.23069e-09
4.73298e-08
-5.4415e-09
-1.82158e-09
4.0493e-08
-5.40788e-09
2.56624e-08
-4.8993e-09
-5.5577e-10
2.91776e-08
1.3797e-09
-3.69184e-10
4.58516e-08
8.58985e-10
2.39396e-10
5.35888e-08
5.06269e-10
1.07882e-09
5.94783e-08
2.90528e-10
2.03833e-09
6.39682e-08
1.25573e-10
3.05853e-09
6.73921e-08
-2.86153e-11
4.09426e-09
7.00029e-08
-1.85984e-10
5.11436e-09
7.19871e-08
-3.46914e-10
6.08686e-09
7.34872e-08
-5.15962e-10
6.9885e-09
7.46084e-08
-6.90744e-10
7.80107e-09
7.54317e-08
-8.7274e-10
8.50735e-09
7.60168e-08
-1.05958e-09
9.09324e-09
7.64112e-08
-1.25219e-09
9.54939e-09
7.6649e-08
-1.4467e-09
9.86609e-09
7.67574e-08
-1.64375e-09
1.00346e-08
7.67557e-08
-1.83947e-09
1.00543e-08
7.66594e-08
-2.03426e-09
9.91954e-09
7.64782e-08
-2.22431e-09
9.63252e-09
7.62191e-08
-2.40992e-09
9.197e-09
7.58839e-08
-2.58747e-09
8.61456e-09
7.54713e-08
-2.7573e-09
7.89436e-09
7.49747e-08
-2.91605e-09
7.04998e-09
7.43824e-08
-3.06414e-09
6.09442e-09
7.3675e-08
-3.19852e-09
5.04565e-09
7.28249e-08
-3.31972e-09
3.93164e-09
7.17921e-08
-3.42496e-09
2.77995e-09
7.05214e-08
-3.51489e-09
1.62946e-09
6.89369e-08
-3.58701e-09
5.27863e-10
6.69354e-08
-3.64175e-09
-4.66476e-10
6.43773e-08
-3.67552e-09
-1.28325e-09
6.10733e-08
-3.68673e-09
-1.82783e-09
5.67708e-08
-3.67689e-09
-1.95076e-09
5.11253e-08
-3.67126e-09
-1.4816e-09
4.36843e-08
-3.66255e-09
2.74945e-08
-3.3124e-09
-4.14411e-10
2.82972e-08
1.29543e-09
-4.32984e-10
4.49014e-08
9.67915e-10
-2.04818e-10
5.26168e-08
7.44619e-10
1.52783e-10
5.85107e-08
6.08898e-10
5.84703e-10
6.30309e-08
5.04865e-10
1.0632e-09
6.6513e-08
4.0314e-10
1.55937e-09
6.92056e-08
2.98796e-10
2.0622e-09
7.12959e-08
1.89049e-10
2.55185e-09
7.29223e-08
7.53407e-11
3.01342e-09
7.41897e-08
-4.22624e-11
3.43269e-09
7.5175e-08
-1.62197e-10
3.7962e-09
7.59374e-08
-2.85673e-10
4.10246e-09
7.65195e-08
-4.11683e-10
4.33574e-09
7.69546e-08
-5.40651e-10
4.49573e-09
7.72667e-08
-6.69485e-10
4.577e-09
7.74743e-08
-7.98567e-10
4.57249e-09
7.75884e-08
-9.24951e-10
4.48363e-09
7.76172e-08
-1.04934e-09
4.30638e-09
7.75638e-08
-1.16897e-09
4.04786e-09
7.74282e-08
-1.28456e-09
3.7063e-09
7.72054e-08
-1.39348e-09
3.2921e-09
7.68865e-08
-1.49651e-09
2.80965e-09
7.64559e-08
-1.59121e-09
2.26988e-09
7.58921e-08
-1.67846e-09
1.68994e-09
7.5163e-08
-1.75603e-09
1.08036e-09
7.42256e-08
-1.82489e-09
4.63936e-10
7.302e-08
-1.88303e-09
-1.33152e-10
7.14661e-08
-1.93157e-09
-6.84073e-10
6.94541e-08
-1.96853e-09
-1.14983e-09
6.68385e-08
-1.99436e-09
-1.49173e-09
6.34208e-08
-2.00602e-09
-1.6519e-09
5.89382e-08
-2.00772e-09
-1.54314e-09
5.30321e-08
-2.01497e-09
-1.06323e-09
4.5229e-08
-2.02245e-09
2.82407e-08
-1.81096e-09
-5.14809e-10
2.7454e-08
1.35802e-09
-7.99459e-10
4.39548e-08
1.23081e-09
-9.35993e-10
5.16253e-08
1.12966e-09
-9.92048e-10
5.74923e-08
1.07186e-09
-9.87063e-10
6.20044e-08
1.02164e-09
-9.3528e-10
6.54948e-08
9.6877e-10
-8.5313e-10
6.82119e-08
9.09696e-10
-7.43146e-10
7.03403e-08
8.46905e-10
-6.1957e-10
7.20183e-08
7.79539e-10
-4.87446e-10
7.33483e-08
7.09718e-10
-3.55932e-10
7.44072e-08
6.36341e-10
-2.30706e-10
7.52515e-08
5.61523e-10
-1.21506e-10
7.59237e-08
4.84965e-10
-2.78002e-11
7.64542e-08
4.08889e-10
3.93498e-11
7.6866e-08
3.32397e-10
8.25974e-11
7.71747e-08
2.5692e-10
9.68732e-11
7.73913e-08
1.81647e-10
8.54125e-11
7.75215e-08
1.0856e-10
4.31779e-11
7.75676e-08
3.74649e-11
-2.65061e-11
7.75271e-08
-2.93587e-11
-1.20384e-10
7.73944e-08
-9.34804e-11
-2.41413e-10
7.71581e-08
-1.5196e-10
-3.79104e-10
7.68021e-08
-2.07333e-10
-5.32213e-10
7.63022e-08
-2.57525e-10
-6.90901e-10
7.5626e-08
-3.03672e-10
-8.48902e-10
7.4728e-08
-3.44118e-10
-9.96208e-10
7.35476e-08
-3.80271e-10
-1.12326e-09
7.20025e-08
-4.10782e-10
-1.21251e-09
6.99826e-08
-4.3725e-10
-1.25671e-09
6.73398e-08
-4.58312e-10
-1.23575e-09
6.38754e-08
-4.75377e-10
-1.13139e-09
5.93241e-08
-4.90129e-10
-9.09157e-10
5.33269e-08
-5.16457e-10
-5.40182e-10
4.54068e-08
-5.47777e-10
2.81832e-08
-4.81811e-10
-7.04966e-10
2.6636e-08
1.52229e-09
-1.21641e-09
4.28966e-08
1.57113e-09
-1.6199e-09
5.04548e-08
1.57274e-09
-1.94412e-09
5.62393e-08
1.57754e-09
-2.20446e-09
6.06913e-08
1.57292e-09
-2.40613e-09
6.41409e-08
1.55746e-09
-2.5623e-09
6.68314e-08
1.5347e-09
-2.67386e-09
6.89462e-08
1.5054e-09
-2.74691e-09
7.06201e-08
1.47257e-09
-2.79044e-09
7.1955e-08
1.43586e-09
-2.8053e-09
7.30252e-08
1.39752e-09
-2.79805e-09
7.38872e-08
1.35682e-09
-2.77135e-09
7.45815e-08
1.31576e-09
-2.7301e-09
7.51388e-08
1.27335e-09
-2.67479e-09
7.55797e-08
1.23174e-09
-2.61209e-09
7.59195e-08
1.19012e-09
-2.53683e-09
7.61674e-08
1.1502e-09
-2.45646e-09
7.63293e-08
1.11087e-09
-2.36756e-09
7.64056e-08
1.07384e-09
-2.27349e-09
7.63946e-08
1.03791e-09
-2.17334e-09
7.62886e-08
1.00468e-09
-2.065e-09
7.60769e-08
9.72856e-10
-1.94865e-09
7.57418e-08
9.43921e-10
-1.82241e-09
7.52599e-08
9.16464e-10
-1.68571e-09
7.45976e-08
8.91792e-10
-1.53781e-09
7.37108e-08
8.68338e-10
-1.37628e-09
7.25386e-08
8.47146e-10
-1.19967e-09
7.10007e-08
8.26323e-10
-1.01192e-09
6.89879e-08
8.06445e-10
-8.13197e-10
6.6356e-08
7.85157e-10
-6.08872e-10
6.29093e-08
7.62353e-10
-4.07491e-10
5.83888e-08
7.32735e-10
-2.10138e-10
5.24434e-08
6.86958e-10
-3.40686e-11
4.46062e-08
6.24628e-10
2.75913e-08
5.57347e-10
-8.26045e-10
2.58715e-08
1.58955e-09
-1.45642e-09
4.17712e-08
1.75639e-09
-1.98629e-09
4.91623e-08
1.82249e-09
-2.43436e-09
5.48202e-08
1.86797e-09
-2.81051e-09
5.91763e-08
1.89113e-09
-3.12202e-09
6.25512e-08
1.90052e-09
-3.3747e-09
6.51844e-08
1.89947e-09
-3.5746e-09
6.72537e-08
1.89218e-09
-3.7256e-09
6.88923e-08
1.87953e-09
-3.83362e-09
7.01984e-08
1.86421e-09
-3.90009e-09
7.1246e-08
1.84605e-09
-3.93011e-09
7.20889e-08
1.82707e-09
-3.92086e-09
7.27679e-08
1.80666e-09
-3.88043e-09
7.33115e-08
1.78653e-09
-3.80885e-09
7.37415e-08
1.76586e-09
-3.70681e-09
7.40716e-08
1.74621e-09
-3.57724e-09
7.43118e-08
1.7266e-09
-3.42314e-09
7.44662e-08
1.70846e-09
-3.24315e-09
7.45364e-08
1.69069e-09
-3.04295e-09
7.45188e-08
1.67461e-09
-2.8193e-09
7.44074e-08
1.65898e-09
-2.57844e-09
7.41897e-08
1.64501e-09
-2.31744e-09
7.385e-08
1.63134e-09
-2.03949e-09
7.33637e-08
1.61902e-09
-1.74737e-09
7.26994e-08
1.60652e-09
-1.4448e-09
7.18129e-08
1.59468e-09
-1.13307e-09
7.06464e-08
1.5817e-09
-8.22138e-10
6.91209e-08
1.56796e-09
-5.17155e-10
6.71323e-08
1.55106e-09
-2.31802e-10
6.45399e-08
1.53054e-09
1.87246e-11
6.11565e-08
1.50279e-09
2.12133e-10
5.67308e-08
1.46438e-09
3.24767e-10
5.09263e-08
1.4041e-09
3.18844e-10
4.32925e-08
1.31994e-09
2.67513e-08
1.15899e-09
-7.63451e-10
2.52182e-08
1.41749e-09
-1.36532e-09
4.07531e-08
1.61961e-09
-1.88652e-09
4.79744e-08
1.70818e-09
-2.33399e-09
5.35031e-08
1.76531e-09
-2.71437e-09
5.77585e-08
1.79822e-09
-3.03297e-09
6.10541e-08
1.81571e-09
-3.29603e-09
6.36225e-08
1.82399e-09
-3.5047e-09
6.56386e-08
1.82509e-09
-3.66636e-09
6.72312e-08
1.82219e-09
-3.78141e-09
6.84977e-08
1.81575e-09
-3.85275e-09
6.95093e-08
1.80793e-09
-3.8814e-09
7.032e-08
1.79845e-09
-3.87252e-09
7.09686e-08
1.78896e-09
-3.82316e-09
7.14844e-08
1.77887e-09
-3.73855e-09
7.18875e-08
1.76959e-09
-3.62154e-09
7.21928e-08
1.76033e-09
-3.4699e-09
7.24087e-08
1.75234e-09
-3.28841e-09
7.25409e-08
1.74469e-09
-3.08161e-09
7.25894e-08
1.73848e-09
-2.84643e-09
7.25523e-08
1.73267e-09
-2.58867e-09
7.2422e-08
1.72823e-09
-2.31283e-09
7.21883e-08
1.72397e-09
-2.01485e-09
7.1834e-08
1.72074e-09
-1.70747e-09
7.13369e-08
1.71719e-09
-1.38727e-09
7.06653e-08
1.71401e-09
-1.06063e-09
6.97776e-08
1.70964e-09
-7.35949e-10
6.86167e-08
1.70445e-09
-4.18541e-10
6.71078e-08
1.69648e-09
-1.21628e-10
6.51491e-08
1.68547e-09
1.43605e-10
6.26066e-08
1.66854e-09
3.57524e-10
5.92987e-08
1.6441e-09
4.97893e-10
5.49847e-08
1.60659e-09
5.35646e-10
4.93404e-08
1.54828e-09
4.33683e-10
4.19333e-08
1.46277e-09
2.59072e-08
1.27646e-09
-5.34245e-10
2.47793e-08
9.74083e-10
-9.91274e-10
4.00724e-08
1.13509e-09
-1.40218e-09
4.71814e-08
1.20654e-09
-1.77325e-09
5.26224e-08
1.25153e-09
-2.10124e-09
5.68085e-08
1.27586e-09
-2.38131e-09
6.00465e-08
1.2889e-09
-2.61956e-09
6.25665e-08
1.29403e-09
-2.81395e-09
6.45395e-08
1.29448e-09
-2.96939e-09
6.60938e-08
1.29115e-09
-3.08298e-09
6.73243e-08
1.28613e-09
-3.15351e-09
6.83026e-08
1.27951e-09
-3.18861e-09
6.90808e-08
1.27282e-09
-3.18471e-09
6.96987e-08
1.26576e-09
-3.14396e-09
7.01844e-08
1.25958e-09
-3.07023e-09
7.05591e-08
1.25375e-09
-2.96284e-09
7.08365e-08
1.24938e-09
-2.82631e-09
7.10264e-08
1.24576e-09
-2.66245e-09
7.11331e-08
1.24386e-09
-2.4753e-09
7.11585e-08
1.24284e-09
-2.26541e-09
7.10994e-08
1.24352e-09
-2.03823e-09
7.09497e-08
1.24491e-09
-1.79558e-09
7.06981e-08
1.24772e-09
-1.5422e-09
7.03294e-08
1.25082e-09
-1.28044e-09
6.98204e-08
1.25476e-09
-1.01621e-09
6.91416e-08
1.25829e-09
-7.50235e-10
6.8251e-08
1.26176e-09
-4.92446e-10
6.70943e-08
1.2637e-09
-2.46782e-10
6.55974e-08
1.26413e-09
-2.00361e-11
6.36625e-08
1.2611e-09
1.74522e-10
6.11577e-08
1.25395e-09
3.25453e-10
5.7908e-08
1.23969e-09
4.16098e-10
5.36779e-08
1.21576e-09
4.27917e-10
4.81538e-08
1.17509e-09
3.32864e-10
4.09144e-08
1.11433e-09
2.52687e-08
9.70107e-10
-2.11305e-10
2.46291e-08
3.60889e-10
-4.56951e-10
3.98902e-08
4.2883e-10
-7.17953e-10
4.6982e-08
4.59478e-10
-9.76801e-10
5.24068e-08
4.75656e-10
-1.226e-09
5.65757e-08
4.81085e-10
-1.45706e-09
5.97961e-08
4.80057e-10
-1.66076e-09
6.22968e-08
4.75504e-10
-1.83973e-09
6.42496e-08
4.68093e-10
-1.98692e-09
6.5782e-08
4.59462e-10
-2.1017e-09
6.69899e-08
4.49758e-10
-2.18592e-09
6.79443e-08
4.40263e-10
-2.23331e-09
6.86988e-08
4.30854e-10
-2.24953e-09
6.92922e-08
4.22612e-10
-2.23571e-09
6.97542e-08
4.15245e-10
-2.18912e-09
7.0105e-08
4.09739e-10
-2.11961e-09
7.03598e-08
4.05671e-10
-2.02525e-09
7.05273e-08
4.0401e-10
-1.90901e-09
7.06134e-08
4.04232e-10
-1.77399e-09
7.06187e-08
4.0657e-10
-1.62895e-09
7.05415e-08
4.10324e-10
-1.46888e-09
7.0375e-08
4.16173e-10
-1.3032e-09
7.0109e-08
4.23247e-10
-1.13407e-09
6.97272e-08
4.31976e-10
-9.61579e-10
6.92081e-08
4.41411e-10
-7.93219e-10
6.85207e-08
4.51826e-10
-6.30048e-10
6.76251e-08
4.62161e-10
-4.73886e-10
6.64659e-08
4.7257e-10
-3.28037e-10
6.49709e-08
4.8183e-10
-1.98011e-10
6.3042e-08
4.89878e-10
-8.50912e-11
6.05498e-08
4.95211e-10
5.3864e-12
5.73197e-08
4.97312e-10
6.90064e-11
5.31199e-08
4.93953e-10
1.02819e-10
4.76388e-08
4.83152e-10
9.29517e-11
4.04603e-08
4.63711e-10
2.49527e-08
4.09227e-10
1.02565e-10
2.47932e-08
-2.64835e-10
5.28355e-11
4.02388e-08
-3.01443e-10
-5.92028e-11
4.74137e-08
-3.18059e-10
-2.16317e-10
5.28964e-08
-3.3349e-10
-3.94757e-10
5.71044e-08
-3.50046e-10
-5.80166e-10
6.03488e-08
-3.66541e-10
-7.63295e-10
6.28626e-08
-3.83285e-10
-9.3323e-10
6.48193e-08
-3.99652e-10
-1.08399e-09
6.63493e-08
-4.15919e-10
-1.21197e-09
6.75492e-08
-4.31301e-10
-1.31497e-09
6.84924e-08
-4.45962e-10
-1.3893e-09
6.92324e-08
-4.59106e-10
-1.43575e-09
6.98101e-08
-4.70906e-10
-1.45549e-09
7.02547e-08
-4.8057e-10
-1.44931e-09
7.05882e-08
-4.88327e-10
-1.42343e-09
7.08252e-08
-4.93501e-10
-1.3741e-09
7.09762e-08
-4.96506e-10
-1.31111e-09
7.1046e-08
-4.96773e-10
-1.23406e-09
7.10368e-08
-4.94381e-10
-1.14903e-09
7.09457e-08
-4.88925e-10
-1.05991e-09
7.07669e-08
-4.81145e-10
-9.696e-10
7.04893e-08
-4.70736e-10
-8.81775e-10
7.00974e-08
-4.58442e-10
-7.9767e-10
6.95684e-08
-4.44086e-10
-7.19531e-10
6.88723e-08
-4.28464e-10
-6.51103e-10
6.79672e-08
-4.11448e-10
-5.90975e-10
6.67986e-08
-3.9384e-10
-5.34756e-10
6.52924e-08
-3.75458e-10
-4.87575e-10
6.33506e-08
-3.57029e-10
-4.41111e-10
6.08416e-08
-3.38215e-10
-3.92036e-10
5.75905e-08
-3.1953e-10
-3.35404e-10
5.33622e-08
-3.00148e-10
-2.59166e-10
4.78436e-08
-2.79407e-10
-1.5892e-10
4.06142e-08
-2.52873e-10
2.49972e-08
-2.05413e-10
3.21644e-10
2.52213e-08
-7.49943e-10
4.21248e-10
4.10128e-08
-8.72701e-10
4.17171e-10
4.83448e-08
-9.28062e-10
3.41869e-10
5.3942e-08
-9.70218e-10
2.20348e-10
5.82311e-08
-1.00485e-09
7.17811e-11
6.15326e-08
-1.03502e-09
-8.71979e-11
6.4084e-08
-1.06193e-09
-2.46581e-10
6.60646e-08
-1.08674e-09
-3.9579e-10
6.76072e-08
-1.1095e-09
-5.27708e-10
6.88122e-08
-1.13063e-09
-6.39386e-10
6.97539e-08
-1.14971e-09
-7.28364e-10
7.04886e-08
-1.16683e-09
-7.94499e-10
7.10575e-08
-1.18141e-09
-8.37896e-10
7.14917e-08
-1.19352e-09
-8.60251e-10
7.18133e-08
-1.20264e-09
-8.65437e-10
7.20385e-08
-1.2089e-09
-8.55209e-10
7.21773e-08
-1.21186e-09
-8.33243e-10
7.22361e-08
-1.21182e-09
-8.04365e-10
7.2216e-08
-1.2084e-09
-7.70257e-10
7.21152e-08
-1.20197e-09
-7.38702e-10
7.1927e-08
-1.19231e-09
-7.12467e-10
7.16408e-08
-1.17992e-09
-6.88154e-10
7.124e-08
-1.16469e-09
-6.75121e-10
7.07021e-08
-1.14721e-09
-6.71075e-10
6.99952e-08
-1.12742e-09
-6.75676e-10
6.90778e-08
-1.10592e-09
-6.87536e-10
6.78928e-08
-1.08257e-09
-7.04018e-10
6.63654e-08
-1.05776e-09
-7.14359e-10
6.43945e-08
-1.03105e-09
-7.18111e-10
6.18463e-08
-1.00235e-09
-6.98773e-10
5.85412e-08
-9.70448e-10
-6.41518e-10
5.42401e-08
-9.3379e-10
-5.33891e-10
4.86215e-08
-8.87987e-10
-3.48833e-10
4.12574e-08
-8.25823e-10
2.53445e-08
-6.96483e-10
4.09835e-10
2.58133e-08
-1.00295e-09
5.77683e-10
4.20166e-08
-1.16931e-09
6.29825e-10
4.95367e-08
-1.2451e-09
6.00261e-10
5.52722e-08
-1.30116e-09
5.16036e-10
5.96617e-08
-1.34559e-09
3.96216e-10
6.30345e-08
-1.38279e-09
2.60186e-10
6.56359e-08
-1.41542e-09
1.18974e-10
6.76497e-08
-1.44457e-09
-1.58038e-11
6.92134e-08
-1.47118e-09
-1.37179e-10
7.04301e-08
-1.49534e-09
-2.4363e-10
7.1377e-08
-1.5173e-09
-3.31105e-10
7.21119e-08
-1.53671e-09
-3.9764e-10
7.2678e-08
-1.55359e-09
-4.45463e-10
7.3107e-08
-1.56748e-09
-4.76372e-10
7.34225e-08
-1.57837e-09
-4.92028e-10
7.36407e-08
-1.58583e-09
-4.97605e-10
7.37726e-08
-1.58994e-09
-4.94495e-10
7.38241e-08
-1.59038e-09
-4.88045e-10
7.37974e-08
-1.58735e-09
-4.83737e-10
7.36901e-08
-1.58067e-09
-4.82045e-10
7.34958e-08
-1.57067e-09
-4.85056e-10
7.32032e-08
-1.55732e-09
-5.00656e-10
7.27956e-08
-1.54105e-09
-5.25394e-10
7.22494e-08
-1.5219e-09
-5.62202e-10
7.15323e-08
-1.50034e-09
-6.09017e-10
7.06007e-08
-1.47637e-09
-6.63806e-10
6.93968e-08
-1.45033e-09
-7.16633e-10
6.78427e-08
-1.42194e-09
-7.67336e-10
6.5835e-08
-1.39113e-09
-7.98778e-10
6.32359e-08
-1.35693e-09
-8.00934e-10
5.9861e-08
-1.31823e-09
-7.54185e-10
5.54647e-08
-1.27215e-09
-6.35193e-10
4.97169e-08
-1.21335e-09
-4.23117e-10
4.2178e-08
-1.1327e-09
2.58832e-08
-9.61655e-10
3.73421e-10
2.6444e-08
-1.0044e-09
5.26741e-10
4.30289e-08
-1.16696e-09
5.82926e-10
5.07243e-08
-1.24193e-09
5.63806e-10
5.65894e-08
-1.29811e-09
4.94425e-10
6.10731e-08
-1.34242e-09
3.94088e-10
6.45141e-08
-1.37972e-09
2.81055e-10
6.71632e-08
-1.41234e-09
1.60843e-10
6.92097e-08
-1.44172e-09
4.87448e-11
7.07946e-08
-1.46844e-09
-5.15517e-11
7.20241e-08
-1.49293e-09
-1.37482e-10
7.29775e-08
-1.51508e-09
-2.04614e-10
7.37146e-08
-1.53492e-09
-2.54756e-10
7.42796e-08
-1.55207e-09
-2.85591e-10
7.47058e-08
-1.56644e-09
-3.03387e-10
7.50171e-08
-1.57765e-09
-3.08252e-10
7.52307e-08
-1.58562e-09
-3.03248e-10
7.53577e-08
-1.59006e-09
-2.93298e-10
7.54048e-08
-1.59099e-09
-2.81011e-10
7.53738e-08
-1.58827e-09
-2.72022e-10
7.52626e-08
-1.58206e-09
-2.67863e-10
7.50645e-08
-1.57235e-09
-2.73896e-10
7.4768e-08
-1.55944e-09
-2.89006e-10
7.43557e-08
-1.54341e-09
-3.19337e-10
7.38034e-08
-1.52466e-09
-3.61025e-10
7.30778e-08
-1.50331e-09
-4.14174e-10
7.21344e-08
-1.4797e-09
-4.78264e-10
7.09132e-08
-1.45385e-09
-5.43371e-10
6.93347e-08
-1.42583e-09
-6.06195e-10
6.72924e-08
-1.39522e-09
-6.53266e-10
6.46452e-08
-1.36142e-09
-6.73805e-10
6.12036e-08
-1.323e-09
-6.47063e-10
5.67164e-08
-1.27746e-09
-5.5661e-10
5.08448e-08
-1.21932e-09
-3.77958e-10
4.31395e-08
-1.14093e-09
2.64816e-08
-9.75071e-10
2.45181e-10
2.69972e-08
-7.99438e-10
3.34806e-10
4.38592e-08
-9.1774e-10
3.50693e-10
5.16824e-08
-9.7432e-10
3.1554e-10
5.76422e-08
-1.01866e-09
2.48846e-10
6.2195e-08
-1.05471e-09
1.63217e-10
6.56855e-08
-1.08581e-09
7.16017e-11
6.83693e-08
-1.11376e-09
-1.85266e-11
7.04391e-08
-1.13939e-09
-1.01432e-10
7.20389e-08
-1.16321e-09
-1.67371e-10
7.32769e-08
-1.18525e-09
-2.18649e-10
7.42343e-08
-1.20553e-09
-2.53187e-10
7.4972e-08
-1.22376e-09
-2.71516e-10
7.55356e-08
-1.23975e-09
-2.68387e-10
7.59591e-08
-1.25316e-09
-2.57107e-10
7.6267e-08
-1.26381e-09
-2.30984e-10
7.64769e-08
-1.27139e-09
-1.97887e-10
7.66006e-08
-1.27581e-09
-1.61384e-10
7.66446e-08
-1.2769e-09
-1.23712e-10
7.66112e-08
-1.27469e-09
-9.0466e-11
7.64979e-08
-1.26915e-09
-6.35437e-11
7.62981e-08
-1.26047e-09
-4.64637e-11
7.6e-08
-1.24874e-09
-4.26872e-11
7.55857e-08
-1.23427e-09
-5.32863e-11
7.50305e-08
-1.21726e-09
-7.75937e-11
7.43005e-08
-1.19803e-09
-1.15343e-10
7.33498e-08
-1.17681e-09
-1.66824e-10
7.21174e-08
-1.15384e-09
-2.2419e-10
7.05221e-08
-1.12915e-09
-2.84602e-10
6.84554e-08
-1.10266e-09
-3.41557e-10
6.57734e-08
-1.07388e-09
-3.76512e-10
6.22833e-08
-1.04196e-09
-3.84805e-10
5.77292e-08
-1.005e-09
-3.47906e-10
5.17665e-08
-9.59236e-10
-2.47768e-10
4.39387e-08
-9.00218e-10
2.70146e-08
-7.79502e-10
7.54958e-11
2.73895e-08
-4.66983e-10
6.5721e-11
4.43839e-08
-5.15748e-10
2.10261e-11
5.22689e-08
-5.42705e-10
-4.21296e-11
5.82745e-08
-5.67777e-10
-1.1736e-10
6.28601e-08
-5.90212e-10
-1.93213e-10
6.63733e-08
-6.11167e-10
-2.65434e-10
6.90719e-08
-6.31219e-10
-3.26236e-10
7.11506e-08
-6.50602e-10
-3.71312e-10
7.27547e-08
-6.69306e-10
-4.02271e-10
7.39937e-08
-6.87185e-10
-4.12614e-10
7.49497e-08
-7.0396e-10
-4.06688e-10
7.56845e-08
-7.19343e-10
-3.81556e-10
7.62444e-08
-7.32989e-10
-3.42106e-10
7.66636e-08
-7.44601e-10
-2.89668e-10
7.69675e-08
-7.53879e-10
-2.25538e-10
7.71738e-08
-7.606e-10
-1.53765e-10
7.72945e-08
-7.64578e-10
-8.00739e-11
7.73364e-08
-7.65715e-10
-6.65213e-12
7.73016e-08
-7.63955e-10
6.25944e-11
7.71879e-08
-7.59367e-10
1.25998e-10
7.69884e-08
-7.52027e-10
1.75846e-10
7.6691e-08
-7.42149e-10
2.14361e-10
7.62779e-08
-7.29936e-10
2.37161e-10
7.57238e-08
-7.15703e-10
2.43222e-10
7.49942e-08
-6.99744e-10
2.32691e-10
7.40427e-08
-6.82401e-10
2.05956e-10
7.28077e-08
-6.6396e-10
1.6669e-10
7.12069e-08
-6.44698e-10
1.1546e-10
6.91306e-08
-6.24752e-10
5.9608e-11
6.64337e-08
-6.04129e-10
3.39734e-12
6.29215e-08
-5.82592e-10
-4.40471e-11
5.83361e-08
-5.59483e-10
-7.30916e-11
5.23299e-08
-5.33339e-10
-7.55e-11
4.44437e-08
-5.04553e-10
2.7394e-08
-4.53948e-10
-9.59709e-11
2.75777e-08
-9.35805e-11
-2.00028e-10
4.45553e-08
-6.47799e-11
-3.07619e-10
5.24334e-08
-5.83236e-11
-4.05519e-10
5.84334e-08
-6.13986e-11
-4.89263e-10
6.30135e-08
-6.82161e-11
-5.60263e-10
6.65208e-08
-7.74108e-11
-6.14829e-10
6.92131e-08
-8.82817e-11
-6.46434e-10
7.12849e-08
-1.00291e-10
-6.60874e-10
7.28816e-08
-1.12965e-10
-6.5445e-10
7.4113e-08
-1.25818e-10
-6.27662e-10
7.50615e-08
-1.38391e-10
-5.81217e-10
7.5789e-08
-1.50264e-10
-5.18687e-10
7.63419e-08
-1.61032e-10
-4.39677e-10
7.6755e-08
-1.70345e-10
-3.46518e-10
7.70535e-08
-1.77891e-10
-2.45745e-10
7.72556e-08
-1.83432e-10
-1.36886e-10
7.73732e-08
-1.8677e-10
-2.73538e-11
7.74133e-08
-1.87802e-10
8.39769e-11
7.7378e-08
-1.86484e-10
1.89405e-10
7.72651e-08
-1.82862e-10
2.87489e-10
7.70676e-08
-1.7704e-10
3.74561e-10
7.67735e-08
-1.69206e-10
4.47239e-10
7.63646e-08
-1.59602e-10
5.04317e-10
7.58155e-08
-1.48538e-10
5.43378e-10
7.50916e-08
-1.36367e-10
5.62155e-10
7.41464e-08
-1.23487e-10
5.63976e-10
7.29178e-08
-1.10316e-10
5.43379e-10
7.13235e-08
-9.73107e-11
5.05818e-10
6.92538e-08
-8.49382e-11
4.48917e-10
6.65633e-08
-7.36849e-11
3.78043e-10
6.30574e-08
-6.40632e-11
2.90993e-10
5.84784e-08
-5.67182e-11
1.95738e-10
5.24794e-08
-5.27929e-11
9.46601e-11
4.46021e-08
-5.77962e-11
2.75741e-08
-8.51811e-11
-2.35624e-10
2.75631e-08
2.4946e-10
-4.25606e-10
4.43948e-08
3.50522e-10
-5.85476e-10
5.22067e-08
3.87592e-10
-7.1381e-10
5.81562e-08
4.04622e-10
-8.08001e-10
6.2697e-08
4.12118e-10
-8.74424e-10
6.6173e-08
4.13795e-10
-9.14212e-10
6.88397e-08
4.11506e-10
-9.24585e-10
7.08903e-08
4.06464e-10
-9.11813e-10
7.2469e-08
3.99562e-10
-8.76296e-10
7.36849e-08
3.91581e-10
-8.17893e-10
7.46199e-08
3.83121e-10
-7.39204e-10
7.53357e-08
3.74733e-10
-6.43032e-10
7.58788e-08
3.66843e-10
-5.30158e-10
7.62835e-08
3.59864e-10
-4.07125e-10
7.65753e-08
3.54089e-10
-2.74093e-10
7.67723e-08
3.498e-10
-1.33645e-10
7.68866e-08
3.4716e-10
7.72065e-12
7.69249e-08
3.46298e-10
1.48828e-10
7.68897e-08
3.47241e-10
2.86154e-10
7.67786e-08
3.49967e-10
4.13475e-10
7.65846e-08
3.54345e-10
5.32404e-10
7.62958e-08
3.60214e-10