/*--------------------------------*- C++ -*----------------------------------*\
| =========                 |                                                 |
| \\      /  F ield         | OpenFOAM: The Open Source CFD Toolbox           |
|  \\    /   O peration     | Version:  v2012                                 |
|   \\  /    A nd           | Website:  www.openfoam.com                      |
|    \\/     M anipulation  |                                                 |
\*---------------------------------------------------------------------------*/
FoamFile
{
    version     2.0;
    format      ascii;
    class       volScalarField;
    location    "900/heater";
    object      T;
}
// * * * * * * * * * * * * * * * * * * * * * * * * * * * * * * * * * * * * * //

dimensions      [0 0 0 1 0 0 0];


internalField   nonuniform List<scalar> 
80
(
452.3267
452.6629
452.7409
452.5604
453.0736
453.4778
453.5555
453.3066
454.7141
455.2985
455.375
454.9443
457.5516
458.5289
458.6017
457.7739
496.5675
496.5775
496.5781
496.5685
489.7688
489.7824
489.7846
489.7728
483.0325
483.0555
483.0609
483.044
476.3406
476.4195
476.4322
476.3701
469.6149
469.9606
469.9892
469.6888
462.4723
464.053
464.1109
462.6584
496.5669
496.5771
496.5779
496.5683
489.7674
489.7816
489.784
489.7725
483.0307
483.0547
483.0604
483.044
476.3387
476.4189
476.432
476.3706
469.614
469.961
469.9899
469.6902
462.4754
464.0563
464.1141
462.6613
457.5603
458.5374
458.6097
457.781
454.7269
455.3109
455.3869
454.9555
453.0904
453.4943
453.5715
453.3219
452.3442
452.6808
452.7594
452.5795
)
;

boundaryField
{
    minY
    {
        type            fixedValue;
        value           uniform 500;
    }
    minZ
    {
        type            zeroGradient;
    }
    maxZ
    {
        type            zeroGradient;
    }
    heater_to_topAir
    {
        type            compressible::turbulentTemperatureRadCoupledMixed;
        refValue        nonuniform List<scalar> 
40
(
360.1125
362.7014
364.9822
366.904
355.0387
356.7356
357.9701
358.696
355.5615
357.4386
358.8543
359.7131
357.8851
360.6949
363.3155
365.6903
358.7382
361.854
364.7936
367.5084
358.7391
361.855
364.7947
367.5095
357.8879
360.6979
363.3186
365.6935
355.5657
357.4426
358.858
359.7161
355.0449
356.7418
357.9762
358.7019
360.1206
362.7098
364.9909
366.9129
)
;
        refGradient     nonuniform List<scalar> 
40
(
-2.235262
-2.235262
-2.210088
-2.210088
-2.337847
-2.337847
-2.323667
-2.323667
-2.413262
-2.413262
-2.403927
-2.403927
-2.506741
-2.506741
-2.499827
-2.499827
-2.655818
-2.655818
-2.649421
-2.649421
-2.655895
-2.655895
-2.649481
-2.649481
-2.506937
-2.506937
-2.499955
-2.499955
-2.413538
-2.413538
-2.404115
-2.404115
-2.338206
-2.338206
-2.323923
-2.323923
-2.235626
-2.235626
-2.210401
-2.210401
)
;
        valueFraction   nonuniform List<scalar> 
40
(
0.0003213253
0.0003213253
0.0003213253
0.0003213253
0.0003213253
0.0003213253
0.0003213253
0.0003213253
0.0003213253
0.0003213253
0.0003213253
0.0003213253
0.0003213253
0.0003213253
0.0003213253
0.0003213253
0.0003213253
0.0003213253
0.0003213253
0.0003213253
0.0003213253
0.0003213253
0.0003213253
0.0003213253
0.0003213253
0.0003213253
0.0003213253
0.0003213253
0.0003213253
0.0003213253
0.0003213253
0.0003213253
0.0003213253
0.0003213253
0.0003213253
0.0003213253
0.0003213253
0.0003213253
0.0003213253
0.0003213253
)
;
        value           nonuniform List<scalar> 
40
(
452.2383
452.5754
452.6542
452.4741
452.9836
453.3886
453.4666
453.2177
454.6251
455.2105
455.2874
454.8565
457.465
458.4438
458.5175
457.6897
462.3888
463.9716
464.0304
462.5777
462.392
463.9749
464.0336
462.5806
457.4737
458.4523
458.5254
457.6968
454.6379
455.2229
455.2993
454.8678
453.0004
453.405
453.4826
453.233
452.2557
452.5933
452.6727
452.4932
)
;
        Tnbr            T;
        qrNbr           qr;
        qr              none;
        thermalInertia  false;
        thicknessLayers List<scalar> 0();
        kappaLayers     List<scalar> 0();
        kappaMethod     solidThermo;
        kappa           none;
        alphaAni        none;
        alpha           none;
    }
    heater_to_rightSolid
    {
        type            compressible::turbulentTemperatureCoupledBaffleMixed;
        refValue        nonuniform List<scalar> 10(452.1459 452.7701 454.0918 456.1365 458.6059 458.6084 456.1435 454.103 452.785 452.1611);
        refGradient     uniform 0;
        valueFraction   nonuniform List<scalar> 10(0.4999997 0.4999997 0.4999997 0.4999997 0.4999997 0.4999997 0.4999997 0.4999997 0.4999997 0.4999997);
        value           nonuniform List<scalar> 10(452.3281 453.0137 454.4942 456.9329 460.6124 460.6151 456.9399 454.5055 453.0289 452.3453);
        Tnbr            T;
        thicknessLayers List<scalar> 0();
        kappaLayers     List<scalar> 0();
        kappaMethod     solidThermo;
        kappa           none;
        alphaAni        none;
        alpha           none;
        field           T;
    }
    heater_to_leftSolid
    {
        type            compressible::turbulentTemperatureCoupledBaffleMixed;
        refValue        nonuniform List<scalar> 10(451.753 452.3829 453.7076 455.7561 458.2394 458.2422 455.7639 453.7201 452.4006 451.775);
        refGradient     uniform 0;
        valueFraction   nonuniform List<scalar> 10(0.4999997 0.4999997 0.4999997 0.4999997 0.4999997 0.4999997 0.4999997 0.4999997 0.4999997 0.4999997);
        value           nonuniform List<scalar> 10(452.0149 452.7036 454.1871 456.6316 460.3361 460.3391 456.6398 454.1998 452.7209 452.0346);
        Tnbr            T;
        thicknessLayers List<scalar> 0();
        kappaLayers     List<scalar> 0();
        kappaMethod     solidThermo;
        kappa           none;
        alphaAni        none;
        alpha           none;
        field           T;
    }
    heater_to_bottomAir
    {
        type            compressible::turbulentTemperatureRadCoupledMixed;
        refValue        nonuniform List<scalar> 
92
(
454.6641
454.8068
454.8312
454.7172
455.7209
455.8263
455.8213
455.7376
456.8913
457.1242
457.1753
456.9237
453.6819
456.5041
457.6143
455.0502
454.3319
457.2272
458.3125
455.6295
455.8642
458.342
459.2135
456.8483
457.8603
459.3648
459.9464
458.3737
459.2383
459.2383
459.9492
459.9492
460.2748
460.2748
459.45
459.45
458.7929
459.3768
459.6222
460.164
460.6885
461.1983
462.0134
462.4435
462.3163
462.6846
458.7999
453.6783
456.5007
457.6273
459.4027
455.0728
459.6239
454.3289
457.2212
458.3199
460.1888
455.6456
460.6902
455.863
458.3374
459.2181
461.215
456.8586
462.0146
457.8602
459.3619
459.9492
462.4548
458.3778
462.3176
459.2403
459.9492
460.2772
462.6924
459.4517
459.2403
459.9492
460.2772
459.4517
456.8936
457.1284
457.1814
456.9304
455.7234
455.8324
455.8298
455.7484
454.6683
454.8148
454.8428
454.7328
)
;
        refGradient     nonuniform List<scalar> 
92
(
-0.04040119
-0.04040119
-0.04371733
-0.04371733
-0.04040119
-0.04040119
-0.04371733
-0.04371733
-0.1440681
-0.1440681
-0.1432197
-0.1432197
-1.267569
-1.267569
-1.268289
-1.268289
-1.267569
-1.267569
-1.268289
-1.268289
-0.8213352
-0.8213352
-0.8201249
-0.8201249
-0.8213352
-0.8213352
-0.8201249
-0.8201249
-0.1440681
-0.5109536
-0.1440681
-0.5109536
-0.1432197
-0.5109536
-0.1432197
-0.5109536
-1.301065
-1.279484
-1.301065
-1.279484
-0.7543991
-0.7349863
-0.7543991
-0.7349863
-0.7543991
-0.7349863
-1.301065
-1.26603
-1.26603
-1.263488
-1.279484
-1.263488
-1.301065
-1.26603
-1.26603
-1.263488
-1.279484
-1.263488
-0.7543991
-0.819287
-0.819287
-0.8186178
-0.7349863
-0.8186178
-0.7543991
-0.819287
-0.819287
-0.8186178
-0.7349863
-0.8186178
-0.7543991
-0.5089869
-0.5089869
-0.5089869
-0.7349863
-0.5089869
-0.1413293
-0.1413293
-0.1426363
-0.1426363
-0.1413293
-0.1413293
-0.1426363
-0.1426363
-0.04007098
-0.04007098
-0.0433376
-0.0433376
-0.04007098
-0.04007098
-0.0433376
-0.0433376
)
;
        valueFraction   nonuniform List<scalar> 
92
(
0.0003213253
0.0003213253
0.0003213253
0.0003213253
0.0003213253
0.0003213253
0.0003213253
0.0003213253
0.0003213253
0.0003213253
0.0003213253
0.0003213253
0.0003213253
0.0003213253
0.0003213253
0.0003213253
0.0003213253
0.0003213253
0.0003213253
0.0003213253
0.0003213253
0.0003213253
0.0003213253
0.0003213253
0.0003213253
0.0003213253
0.0003213253
0.0003213253
0.0003213253
0.0003213253
0.0003213253
0.0003213253
0.0003213253
0.0003213253
0.0003213253
0.0003213253
0.000321325
0.000321325
0.000321325
0.000321325
0.000321325
0.000321325
0.000321325
0.000321325
0.000321325
0.000321325
0.000321325
0.0003213253
0.0003213253
0.0003213253
0.000321325
0.0003213253
0.000321325
0.0003213253
0.0003213253
0.0003213253
0.000321325
0.0003213253
0.000321325
0.0003213253
0.0003213253
0.0003213253
0.000321325
0.0003213253
0.000321325
0.0003213253
0.0003213253
0.0003213253
0.000321325
0.0003213253
0.000321325
0.0003213253
0.0003213253
0.0003213253
0.000321325
0.0003213253
0.0003213253
0.0003213253
0.0003213253
0.0003213253
0.0003213253
0.0003213253
0.0003213253
0.0003213253
0.0003213253
0.0003213253
0.0003213253
0.0003213253
0.0003213253
0.0003213253
0.0003213253
0.0003213253
)
;
        value           nonuniform List<scalar> 
92
(
452.2774
452.6138
452.6917
452.511
453.0251
453.4296
453.5072
453.258
454.6668
455.2516
455.328
454.8968
496.5437
496.5546
496.5556
496.5452
489.7401
489.7547
489.7572
489.7446
483.0015
483.0254
483.031
483.0134
476.3053
476.3848
476.3976
476.335
457.5071
469.5768
458.4852
469.9229
458.558
469.9517
457.7293
469.6508
496.5473
496.5486
489.7438
489.7481
483.0047
483.0164
476.3083
476.338
469.5778
469.6519
496.5468
496.5431
496.5543
496.5553
496.5484
496.545
489.7424
489.7387
489.7539
489.7567
489.7478
489.7443
483.0028
482.9997
483.0245
483.0305
483.0164
483.0134
476.3064
476.3035
476.3842
476.3975
476.3385
476.3355
469.5769
469.5759
469.9233
469.9524
469.6533
469.6521
457.5157
458.4937
458.566
457.7363
454.6795
455.264
455.3399
454.9081
453.042
453.446
453.5232
453.2733
452.2949
452.6317
452.7102
452.5301
)
;
        Tnbr            T;
        qrNbr           qr;
        qr              none;
        thermalInertia  false;
        thicknessLayers List<scalar> 0();
        kappaLayers     List<scalar> 0();
        kappaMethod     solidThermo;
        kappa           none;
        alphaAni        none;
        alpha           none;
    }
}


// ************************************************************************* //
