/*--------------------------------*- C++ -*----------------------------------*\
| =========                 |                                                 |
| \\      /  F ield         | OpenFOAM: The Open Source CFD Toolbox           |
|  \\    /   O peration     | Version:  v2006                                 |
|   \\  /    A nd           | Website:  www.openfoam.com                      |
|    \\/     M anipulation  |                                                 |
\*---------------------------------------------------------------------------*/
FoamFile
{
    version     2.0;
    format      ascii;
    class       volScalarField;
    location    "96";
    object      omega;
}
// * * * * * * * * * * * * * * * * * * * * * * * * * * * * * * * * * * * * * //

dimensions      [0 0 -1 0 0 0 0];


internalField   nonuniform List<scalar> 
78750
(
2400.73
358.387
247.579
143.029
42.0472
14.4914
26.0372
20.7543
25.0281
21.8145
23.8837
22.4205
23.0344
22.5646
22.5622
22.3676
22.2247
22.0611
21.8896
21.7061
21.5084
21.2943
21.0613
20.8068
20.5276
20.2203
19.8816
19.5078
19.0937
18.6329
18.1154
17.5275
16.8605
15.8842
542.249
700.204
31.3227
29.5691
16.1829
11.4598
14.1152
12.9562
14.313
14.1367
14.6825
14.8468
15.1347
15.3203
15.4904
15.6159
15.7086
15.7689
15.8011
15.8084
15.7924
15.7529
15.689
15.5981
15.4772
15.3227
15.1315
14.9004
14.6272
14.3107
13.9518
13.5488
13.077
12.4021
10.9934
804.105
425.098
6.67509
10.3411
12.2022
10.4232
10.5799
10.9033
10.5481
10.4883
10.2128
10.0638
10.0041
10.1452
10.4993
11.0371
11.7284
12.5405
13.4228
14.1973
14.6721
14.9113
15.059
15.1765
15.2712
15.3366
15.3643
15.3461
15.2741
15.1404
14.9362
14.6457
14.2209
13.5168
12.3963
809.094
408.915
8.91769
11.039
12.0505
13.2401
14.0138
14.5232
14.8867
15.0721
15.1145
15.0028
14.7331
14.2894
13.7065
12.9001
11.6183
8.94239
5.74572
5.72667
6.34838
9.52797
11.5939
12.7992
13.5228
13.9931
14.3224
14.56
14.7245
14.8163
14.8244
14.7242
14.4496
13.7808
12.6792
812.065
412.85
11.7122
12.6412
12.9855
13.0384
12.9744
12.873
12.7664
12.6767
12.5983
12.5113
12.3743
12.1453
11.7561
11.0208
9.43364
6.69183
4.47087
5.27418
7.41013
9.48969
11.0317
12.0104
12.6345
13.0768
13.4284
13.7308
14.0005
14.2337
14.4114
14.5044
14.462
14.213
14.1389
816.294
410.819
11.07
13.0571
13.96
14.4312
14.7106
14.8656
14.9043
14.8275
14.6473
14.3854
14.0573
13.661
13.1904
12.6419
11.9452
10.7653
8.41764
5.22704
4.00535
3.84878
4.40812
6.19966
7.93654
9.36054
10.4892
11.3606
12.031
12.5779
13.0399
13.4067
13.6051
13.4761
13.8881
818.568
413.932
12.7858
14.2474
14.7155
14.8864
14.9299
14.8611
14.681
14.4086
14.0566
13.6221
13.0729
12.3697
11.4819
10.3448
8.7271
6.24237
3.74528
4.05695
4.20332
4.06552
3.68332
4.09954
5.89182
7.34424
8.51081
9.47594
10.3344
11.1166
11.8446
12.5575
13.3056
14.1416
15.4179
821.568
418.149
13.8368
14.8644
15.2017
15.2932
15.2497
15.0975
14.8919
14.6839
14.4526
14.1623
13.795
13.3293
12.7827
12.2176
11.6213
10.902
9.9435
8.55811
6.7429
5.06892
3.95764
3.70572
3.8482
3.50373
3.8633
5.55609
7.09453
8.39645
9.62283
10.7656
11.7681
12.7387
15.0239
823.381
424.541
15.1146
15.3142
15.2461
15.0371
14.6702
14.1783
13.7278
13.4683
13.3551
13.2334
13.0225
12.7614
12.498
12.2016
11.8508
11.466
11.0653
10.6459
10.1689
9.63232
9.0047
8.20678
7.19156
5.84804
4.20246
4.20455
4.29331
5.93731
7.53779
9.3279
11.6186
14.188
16.7328
825.388
423.596
14.7695
15.2696
15.4096
15.3908
15.2231
14.8889
14.4253
13.9456
13.5822
13.3883
13.3224
13.2989
13.255
13.1819
13.098
13.0168
12.9342
12.8494
12.7654
12.673
12.5547
12.3519
11.8961
11.0507
9.67401
7.15597
4.16451
3.98105
5.24031
6.63554
8.45097
11.6092
15.8614
826.718
419.869
14.4934
15.3916
15.7571
15.9465
16.0237
15.9694
15.7149
15.2121
14.5328
13.851
13.3431
13.0847
13.0195
13.0457
13.0892
13.1206
13.1376
13.1413
13.1312
13.1072
13.0676
13.0058
12.8889
12.5723
11.5997
9.67241
6.45098
4.43386
5.54074
7.28875
9.9189
13.5664
17.433
828.684
422.214
15.05
15.8443
16.162
16.3164
16.3749
16.3535
16.2535
16.0434
15.6522
15.0429
14.2891
13.5579
13.0234
12.7461
12.655
12.6422
12.644
12.6418
12.6265
12.5915
12.5305
12.4347
12.2899
12.0757
11.737
11.0701
9.64206
7.19213
5.31827
5.58545
7.35176
12.4837
17.3356
829.369
422.217
15.059
15.9625
16.358
16.565
16.6577
16.6456
16.5287
16.3257
16.0681
15.7497
15.3153
14.7368
14.1061
13.5751
13.2139
13.0004
12.8471
12.6961
12.5255
12.3271
12.0918
11.8079
11.4597
11.0256
10.4771
9.6912
8.28337
4.81201
4.35644
5.63297
8.2233
12.5083
17.7111
830.985
423.436
15.5062
16.4266
16.8319
17.0456
17.148
17.1533
17.0527
16.8277
16.4804
16.0463
15.5486
14.9742
14.3703
13.9099
13.6426
13.4914
13.3801
13.2569
13.0948
12.8848
12.6202
12.2949
11.9006
11.4261
10.8569
10.1455
9.05289
6.65404
4.24508
5.23065
8.29706
13.5701
18.5445
832.07
425.457
15.9309
16.593
16.8478
16.958
16.9754
16.9039
16.7468
16.5349
16.313
16.0787
15.761
15.2665
14.5704
13.9314
13.6323
13.561
13.543
13.5173
13.4632
13.366
13.2148
13.0016
12.7198
12.362
11.9196
11.3821
10.7422
9.77003
7.27089
4.52864
5.80832
13.8681
19.0239
832.1
429.236
16.7004
17.1106
17.2447
17.2687
17.1933
16.9957
16.6587
16.211
15.7495
15.3946
15.1591
14.9253
14.5603
14.0823
13.7416
13.6207
13.5966
13.5919
13.5858
13.5624
13.5067
13.4061
13.2516
13.0348
12.7479
12.3839
11.9411
11.4374
10.6455
7.30226
4.68388
11.7561
18.2174
833.509
429.352
16.5034
16.8985
17.0404
17.0694
16.9939
16.8026
16.5222
16.2101
15.8664
15.4812
15.1187
14.8288
14.5811
14.3291
14.1001
13.9574
13.8881
13.8499
13.8248
13.8017
13.7679
13.7091
13.612
13.466
13.2618
12.9924
12.6583
12.2573
11.6363
9.10684
7.80147
12.3539
18.7266
836.178
431.994
17.1658
17.3567
17.3275
17.1791
16.8837
16.4103
15.835
15.3849
15.1883
15.111
15.0119
14.8658
14.7018
14.5475
14.4211
14.3361
14.2814
14.2378
14.1983
14.1582
14.1096
14.0417
13.9425
13.8021
13.6104
13.3596
13.051
12.6634
12.0063
10.0806
9.47849
15.1507
20.5059
837.688
433.81
17.2533
17.352
17.3264
17.1948
16.9028
16.3872
15.6569
14.8872
14.371
14.1955
14.2053
14.2635
14.3182
14.3634
14.4018
14.4345
14.459
14.4739
14.4795
14.4725
14.4476
14.3977
14.3149
14.1922
14.0206
13.792
13.5078
13.1142
12.4041
11.1082
11.4396
16.8645
21.4046
836.747
431.155
16.8705
17.1929
17.282
17.2502
17.0837
16.7411
16.185
15.4165
14.5579
13.8672
13.5051
13.4225
13.496
13.6364
13.7982
13.96
14.1077
14.2341
14.3402
14.4249
14.4823
14.505
14.4868
14.4202
14.2938
14.0924
13.7846
13.2978
12.5098
11.6829
13.5304
19.3778
22.1677
834.406
430.957
17.2516
17.6216
17.7147
17.6907
17.5579
17.2948
16.8809
16.3033
15.5548
14.6972
13.9059
13.3442
13.0496
12.9622
13.0026
13.1174
13.2763
13.46
13.6547
13.8488
14.0302
14.1874
14.3119
14.3922
14.4102
14.3385
14.1367
13.754
13.1753
12.7309
14.3651
20.958
23.851
832.261
432.742
17.3662
17.6172
17.6724
17.6305
17.4856
17.2183
16.8327
16.3545
15.7998
15.1669
14.4776
13.8164
13.2841
12.9301
12.7359
12.6568
12.6577
12.7199
12.8355
12.9984
13.198
13.4216
13.6585
13.895
14.1131
14.2898
14.3959
14.3997
14.2709
14.011
13.6544
14.0796
17.9524
823.91
431.66
17.4072
17.8642
18.0054
18.0127
17.9093
17.6878
17.3604
16.9441
16.4293
15.8097
15.1065
14.3774
13.7102
13.1826
12.8199
12.5923
12.4539
12.3743
12.3417
12.3576
12.4273
12.5576
12.7512
13.0035
13.3036
13.6281
14.0001
14.3786
14.424
14.3205
13.823
8.87349
5.7645
830.753
432.513
17.905
18.3427
18.4219
18.3538
18.1674
17.8701
17.537
17.2458
16.9539
16.5624
16.0002
15.2636
14.4424
13.683
13.1072
12.7289
12.4723
12.2726
12.1028
11.9569
11.8457
11.7908
11.8238
11.9781
12.2786
12.6681
12.8793
12.766
13.3666
14.2228
13.8273
14.7241
19.9566
855.03
436.013
18.4978
18.6887
18.6328
18.4472
18.1112
17.5999
17.029
16.6076
16.3693
16.1868
15.9207
15.4604
14.7797
14.0069
13.3366
12.8827
12.5534
12.2552
11.9503
11.5937
11.1753
10.8043
10.567
10.5348
11.4263
13.8792
17.3025
19.6295
19.9128
19.5201
19.7682
21.7742
25.522
850.145
438.128
18.964
19.1087
19.0505
18.8707
18.5399
18.0146
17.3392
16.6957
16.2317
15.9347
15.6999
15.4113
14.9746
14.3836
13.7742
13.2861
12.9351
12.6545
12.3769
12.0353
11.5432
10.829
10.0015
9.72236
11.4225
15.4693
20.1445
23.2359
24.0684
24.0149
24.0384
24.4065
24.7382
827.298
438.176
19.0562
19.2812
19.2958
19.1926
18.9581
18.5532
17.9556
17.2434
16.5879
16.1064
15.7793
15.5079
15.1914
14.7658
14.2567
13.7721
13.3859
13.0993
12.8797
12.687
12.4723
12.1642
11.664
10.9238
10.2491
10.7673
13.3653
16.7326
19.254
20.9675
22.1793
22.7815
22.8553
817.922
437.362
19.1646
19.6086
19.7627
19.7782
19.6678
19.4033
18.9261
18.1935
17.2907
16.4445
15.8436
15.4844
15.2419
14.9971
14.6927
14.3522
14.0359
13.7818
13.5959
13.4665
13.377
13.3087
13.2342
13.1126
12.8877
12.5271
12.1314
11.8428
11.5491
11.4454
12.9901
15.561
16.81
814.964
435.423
19.1482
19.8553
20.1316
20.2324
20.2124
20.0718
19.7798
19.2634
18.4433
17.3887
16.382
15.6562
15.2054
14.9012
14.637
14.3765
14.1348
13.9319
13.7744
13.6594
13.5853
13.5549
13.5731
13.6223
13.7399
13.9129
13.827
13.3471
12.7291
11.8914
11.3776
11.8902
9.15488
820.923
436.198
19.4025
20.0753
20.3034
20.3486
20.2652
20.0516
19.697
19.2124
18.5785
17.7039
16.6989
15.8665
15.3288
14.9907
14.7309
14.4984
14.2877
14.0939
13.9093
13.7303
13.562
13.4222
13.3448
13.2967
13.1288
13.2433
14.4712
16.1732
17.2506
17.3011
16.1969
13.7796
12.6881
833.61
439.873
19.9277
20.3392
20.4383
20.3883
20.197
19.8226
19.2153
18.4543
17.7321
16.9977
16.1787
15.4752
15.0175
14.7234
14.5003
14.3091
14.1071
13.8683
13.595
13.3003
13.012
12.774
12.5612
12.821
14.9148
17.7746
19.5073
20.168
20.227
19.6955
18.4958
17.9236
20.4436
843.253
444.56
20.4717
20.5651
20.5339
20.3988
20.1072
19.5624
18.6617
17.5603
16.7261
16.181
15.6764
15.2575
15.0026
14.8276
14.6556
14.4482
14.167
13.7815
13.2802
12.6687
12.0215
11.378
11.5954
14.548
19.3921
23.1081
24.0001
23.4441
22.2611
20.7735
19.8538
20.7357
23.4302
840.94
447.81
20.5962
20.4674
20.3598
20.1754
19.8131
19.131
18.0058
16.6496
15.7634
15.4973
15.3758
15.242
15.1464
15.0841
15.0131
14.9028
14.7305
14.4687
14.0833
13.5345
12.8055
12.0042
11.7373
13.478
17.7266
22.4895
25.6798
27.1598
27.2774
26.3477
25.1285
24.5427
24.6621
830.692
447.009
20.3854
20.3277
20.265
20.118
19.7989
19.1844
18.1485
16.7361
15.52
15.1146
15.1914
15.3417
15.4608
15.5461
15.5969
15.6056
15.5625
15.4552
15.2743
15.0063
14.6354
14.142
13.5512
13.038
13.2298
14.8594
17.3431
19.6341
21.8482
23.9351
24.8039
24.4756
23.629
827.526
444.097
20.2333
20.3277
20.3281
20.2478
20.0451
19.649
18.9477
17.7861
16.2344
15.0439
14.6828
14.8077
15.0789
15.3674
15.6303
15.8442
15.9892
16.0452
15.997
15.8278
15.5213
15.0537
14.3966
13.5421
12.6327
12.1195
12.9248
15.1826
16.3218
17.6285
20.2363
22.0599
23.0841
836.81
443.644
20.3687
20.4213
20.3821
20.2833
20.1045
19.8223
19.3892
18.6574
17.3673
15.673
14.4698
14.11
14.2675
14.6346
15.0729
15.5244
15.9492
16.3075
16.5612
16.6656
16.5686
16.2179
15.5956
14.7383
13.7146
12.4923
11.154
12.4775
16.6136
17.7009
19.7413
22.4818
24.9043
845.132
446.291
20.5882
20.4427
20.286
20.0758
19.7697
19.3677
18.8824
18.2686
17.3519
15.9112
14.3455
13.3728
13.1197
13.3418
13.8134
14.3994
15.029
15.6638
16.2542
16.6818
16.8669
16.7795
16.3864
15.643
14.5075
12.8641
10.1532
6.373
12.4726
16.7121
18.7399
21.7627
24.878
847.037
449.949
20.835
20.4633
20.1687
19.8045
19.2998
18.6788
17.9463
16.9919
15.6554
14.0006
12.5637
11.9223
12.0984
12.8032
13.633
14.3652
15.0109
15.6378
16.4984
17.7068
18.7703
19.376
19.5564
19.3269
18.545
16.9446
13.9992
8.0404
8.64663
17.8461
20.3274
22.4546
25.3103
848.66
451.971
20.872
20.3689
19.9634
19.4326
18.7219
17.9222
17.0069
15.7195
13.731
11.1959
9.65346
10.6237
13.3311
16.7391
19.5172
20.8987
21.4904
21.875
22.2164
22.551
22.8527
23.045
23.0295
22.6847
21.827
20.1734
17.1897
11.5384
6.32421
17.6306
23.467
25.2919
27.1293
846.943
452.168
20.7277
20.1788
19.7145
19.0944
18.3092
17.4937
16.6277
15.4628
13.6283
11.0252
9.38155
11.4692
15.5695
19.555
21.9849
22.8169
23.2147
23.5525
23.9179
24.3306
24.7739
25.1884
25.4696
25.4772
25.049
23.9792
21.9228
18.2169
12.6832
13.3694
20.7214
24.1202
26.0963
840.531
451.429
20.5479
20.0379
19.5754
18.9371
18.1021
17.1995
16.278
15.1829
13.6137
11.191
7.93304
6.03704
8.4958
13.6905
18.9336
22.2812
23.6225
24.1841
24.583
24.975
25.4054
25.8888
26.4041
26.8722
27.1467
27.0409
26.3433
24.75
21.8985
18.5489
18.1501
20.1365
22.6711
836.358
448.695
20.354
20.0672
19.7347
19.2223
18.4552
17.5047
16.5091
15.4321
14.06
12.1267
9.46718
6.57158
5.29504
7.61882
12.8963
18.3846
22.2165
24.2632
25.1121
25.5243
25.8131
26.0709
26.3297
26.6005
26.8686
27.0874
27.16
26.8958
25.9874
24.1579
22.0272
21.6978
23.6559
840.019
445.739
20.3612
20.3196
20.1457
19.819
19.2395
18.3492
17.2951
16.2363
15.099
13.6326
11.5838
8.9225
6.08968
6.08429
5.77502
11.4522
17.2823
21.8341
24.9728
26.7846
27.612
27.9429
28.0016
27.8422
27.4569
26.8305
25.9964
25.0514
24.0808
23.0839
22.3318
22.8137
24.6428
839.117
443.353
20.3982
20.5384
20.4908
20.3237
19.9785
19.3334
18.3577
17.2536
16.1959
15.0998
13.7116
11.854
9.64059
7.36037
4.9667
6.65172
7.81464
13.3718
18.5846
22.8483
26.0841
28.388
29.8456
30.6141
30.7873
30.3496
29.2454
27.4763
25.2332
23.0408
21.7089
21.7176
22.6278
828.308
442.878
20.5166
20.6988
20.6883
20.5821
20.3621
19.9618
19.268
18.2717
17.2083
16.272
15.3797
14.2808
12.7916
11.038
9.33363
7.76347
6.31675
5.80166
7.62255
11.1496
15.1338
18.9422
22.2526
24.9666
27.1416
28.7935
29.8344
30.1008
29.4379
27.9269
26.0985
24.576
23.267
822.174
444.441
20.7356
20.8352
20.7949
20.6752
20.4566
20.117
19.635
18.9278
17.9976
17.0579
16.2647
15.5617
14.777
13.7527
12.4956
11.2176
10.0841
9.11227
8.29855
7.78124
7.87539
8.87495
10.6133
12.4827
14.0996
15.5851
17.3465
19.6273
22.2236
24.5323
25.4444
25.096
24.0491
824.77
447.725
21.0902
21.0216
20.9106
20.7355
20.4499
20.0279
19.5057
18.8947
18.1511
17.3273
16.5619
15.8991
15.2737
14.5826
13.7458
12.791
11.8505
11.0391
10.3887
9.87937
9.54097
9.28703
8.69165
7.54427
6.44527
6.20485
6.88666
8.17558
10.7046
14.2375
19.147
22.0829
23.2025
831.645
450.22
21.2421
21.0707
20.9303
20.7378
20.4339
19.9999
19.4723
18.8705
18.1805
17.4198
16.6717
15.9821
15.3097
14.5698
13.6841
12.6611
11.6326
10.7194
9.97602
9.47713
8.6989
8.46166
10.0555
12.2379
13.6909
14.1181
13.6169
12.3397
10.7035
9.49241
14.6749
19.8397
22.7502
838.833
451.294
21.2807
21.0552
20.8794
20.6498
20.3174
19.9062
19.4464
18.9138
18.2775
17.5387
16.76
15.9996
15.2274
14.3419
13.2292
11.8997
10.4897
9.11894
7.76448
6.44068
9.59814
14.8048
17.9785
19.5329
20.0918
19.9703
19.24
17.8839
15.9596
13.5543
13.9562
18.6336
22.7153
844.102
451.888
21.3401
21.0387
20.7937
20.4929
20.1178
19.7703
19.4476
19.05
18.5272
17.8677
17.1075
16.3114
15.4805
14.518
13.2879
11.726
9.85228
7.66177
5.4637
7.20523
12.5406
18.9813
22.0782
23.038
23.3008
23.1572
22.5984
21.5636
19.9895
17.6945
15.7368
19.1532
23.9168
848.6
452.821
21.4609
21.036
20.684
20.2647
19.7979
19.5095
19.3538
19.1217
18.7412
18.2059
17.5379
16.7925
16.0025
15.1142
13.9883
12.5023
10.5721
8.09695
5.46738
6.75713
9.94085
16.7145
22.1775
24.2928
24.7272
24.6262
24.1556
23.2339
21.7357
19.627
18.2759
21.252
25.5138
849.309
454.014
21.5413
20.9767
20.5097
19.9492
19.3639
19.1368
19.1757
19.1397
18.9296
18.5462
18.0075
17.358
16.6458
15.8656
14.9334
13.7079
12.0798
9.95036
7.1807
4.25816
5.7724
9.58929
16.3675
21.8361
24.4529
24.9826
24.6484
23.7515
22.2151
20.4388
20.2951
22.8505
25.9779
844.36
454.938
21.5586
20.8804
20.3057
19.5923
18.8646
18.6678
18.8792
19.0274
18.9891
18.7724
18.3929
17.8825
17.2915
16.6461
15.9168
15.0199
13.8307
12.2669
10.2718
7.72021
4.97665
6.22995
8.19855
13.7916
19.6436
23.3202
24.4431
24.0667
22.8918
21.4424
21.4686
23.2534
25.3455
838.395
455.463
21.5573
20.8105
20.1511
19.2906
18.3816
18.141
18.4897
18.8118
18.9435
18.8998
18.6986
18.3577
17.9114
17.398
16.8269
16.1608
15.3325
14.2461
12.8685
11.198
9.15151
6.58698
4.0847
6.26894
9.51759
16.3918
21.2455
23.2801
23.2756
22.5083
22.3398
23.2705
24.5855
835.235
455.99
21.5609
20.7979
20.1086
19.1636
18.0532
17.5748
17.9216
18.367
18.6454
18.7547
18.7177
18.5517
18.2782
17.924
17.5084
17.0297
16.4529
15.7294
14.8048
13.6683
12.3482
10.81
8.92529
6.56338
4.21618
7.1578
13.4669
19.2952
21.9628
22.7001
22.896
23.3875
24.2573
834.99
455.281
21.438
20.8126
20.2371
19.3974
18.2239
17.2876
17.2745
17.7163
18.1297
18.4008
18.5268
18.5223
18.4071
18.2036
17.9307
17.5971
17.1951
16.7013
16.0844
15.318
14.3966
13.3467
12.1477
10.6967
8.83378
6.71703
7.03763
12.7646
18.5517
21.3288
22.5226
23.2876
24.2685
836.968
452.848
21.3244
21.0256
20.7143
20.1849
19.2363
17.9008
16.9305
16.8136
17.1691
17.5958
17.923
18.1126
18.1766
18.1358
18.011
17.8166
17.5558
17.2229
16.8046
16.2817
15.6388
14.868
13.977
12.9374
11.6472
9.94628
7.99635
9.00315
15.3568
19.2445
21.6725
23.1389
24.623
840.094
449.25
21.2807
21.3491
21.3206
21.1565
20.7097
19.6975
18.1138
16.7644
16.2614
16.4558
16.907
17.3242
17.6107
17.7627
17.8021
17.7524
17.6268
17.4302
17.1607
16.8064
16.3524
15.7773
15.0652
14.2058
13.1443
11.7447
9.9421
9.2583
14.1823
18.7873
21.2635
23.0224
24.8957
841.307
447.571
21.3392
21.5145
21.5673
21.5548
21.4473
21.0968
20.1491
18.489
16.7761
15.786
15.6974
16.113
16.6063
16.992
17.2418
17.3721
17.4044
17.3543
17.2301
17.03
16.7413
16.3418
15.7968
15.0828
14.1707
12.9705
11.4133
10.3703
13.687
19.9737
22.0808
23.4925
25.1079
839.331
448.508
21.43
21.4881
21.4675
21.3986
21.2935
21.175
20.9675
20.2864
18.8538
17.0476
15.6593
15.2012
15.4718
15.9709
16.4139
16.731
16.9326
17.0397
17.0691
17.0288
16.9128
16.7047
16.3726
15.8799
15.1988
14.2877
13.0794
11.8043
12.6052
18.4246
22.9164
24.4107
25.6088
837.366
451.801
21.7687
21.6423
21.5427
21.3945
21.148
20.8179
20.5701
20.431
20.0257
18.9786
17.3211
15.7185
14.9335
15.0119
15.4565
15.9049
16.254
16.5052
16.6795
16.7939
16.8517
16.8449
16.7551
16.5494
16.1956
15.6691
14.9349
13.9697
13.1623
14.6735
20.2036
23.4191
25.1388
837.452
454.47
21.897
21.6721
21.5925
21.5022
21.3116
20.9431
20.449
20.1035
19.9349
19.6584
18.915
17.4756
15.8167
14.8545
14.7871
15.1355
15.5268
15.8511
16.1122
16.3274
16.5052
16.6483
16.7514
16.7999
16.7647
16.6023
16.2958
15.8432
15.3502
14.8264
15.9808
20.0557
23.1357
840.18
454.579
21.6564
21.4559
21.4327
21.4162
21.328
21.0986
20.6706
20.1503
19.7711
19.5346
19.2541
18.6185
17.2679
15.6289
14.715
14.6413
14.915
15.2285
15.5044
15.7467
15.9665
16.1743
16.3752
16.5674
16.7257
16.8135
16.9252
17.1396
17.4444
17.2362
15.3312
18.3086
23.2167
849.811
453.052
21.4015
21.3047
21.3333
21.3492
21.2943
21.1269
20.8087
20.3334
19.8419
19.4757
19.1942
18.8489
18.135
16.6772
15.1395
14.4691
14.4935
14.7239
14.9567
15.1618
15.3485
15.527
15.7104
15.9081
16.1276
16.6015
17.6835
18.9292
19.6626
19.1014
17.5786
21.1966
26.7131
860.206
452.297
21.4097
21.359
21.4001
21.4199
21.3607
21.174
20.8284
20.342
19.8168
19.386
19.0602
18.7448
18.2833
17.3205
15.7347
14.5659
14.269
14.3705
14.5265
14.6589
14.7676
14.8549
14.9313
15.0447
15.4788
17.0874
19.5125
21.177
21.6298
21.1631
21.5264
24.7859
29.0183
860.052
452.793
21.4071
21.2883
21.3052
21.3291
21.2896
21.1163
20.751
20.2101
19.6438
19.202
18.8715
18.5494
18.1195
17.3969
16.1133
14.7931
14.2366
14.1942
14.2669
14.3263
14.3543
14.3417
14.304
14.3866
15.2436
17.8762
21.2112
22.925
23.2528
23.379
24.4774
26.5781
29.0652
850.323
453.561
21.282
21.0674
21.0424
21.0459
20.9987
20.8235
20.4547
19.886
19.2709
18.8281
18.5441
18.263
17.855
17.2004
16.1899
15.0492
14.4124
14.2558
14.2503
14.2527
14.2223
14.1423
14.0225
14.0203
14.79
17.4343
21.4417
23.9472
24.5416
24.9365
25.8312
26.959
28.1622
841.84
453.105
21.1078
20.9171
20.9009
20.9003
20.838
20.6393
20.2479
19.6528
18.9568
18.4102
18.1018
17.8651
17.524
16.9665
16.1676
15.3125
14.7581
14.5463
14.4772
14.4331
14.3671
14.2573
14.0984
13.9599
14.2185
15.8493
19.5211
23.3145
25.0056
25.6606
26.2583
26.8151
27.336
838.494
451.612
20.9372
20.8212
20.8321
20.8503
20.8118
20.6368
20.2536
19.6358
18.8415
18.0956
17.6327
17.3763
17.1102
16.6994
16.1365
15.5648
15.1642
14.9592
14.8542
14.7757
14.6881
14.5728
14.4189
14.2385
14.1553
14.6615
16.7713
20.6086
23.8316
25.3195
26.0282
26.4429
26.8133
839.019
450.37
20.8267
20.7351
20.7407
20.7666
20.7807
20.7119
20.4518
19.9166
19.0826
18.0897
17.3023
16.8957
16.6733
16.4252
16.0992
15.765
15.5107
15.3507
15.2463
15.1591
15.0662
14.9562
14.8215
14.6641
14.5214
14.5551
15.3093
17.7099
21.3191
23.9021
25.1683
25.8315
26.4951
841.604
450.008
20.8365
20.6963
20.6428
20.6159
20.6234
20.6415
20.5529
20.2321
19.5808
18.5562
17.4011
16.6086
16.2742
16.1288
15.9942
15.844
15.7112
15.6093
15.5282
15.4493
15.3598
15.2534
15.1283
14.9913
14.8747
14.8716
15.225
16.509
19.3142
22.3471
24.195
25.2643
26.421
844.318
450.9
20.9547
20.7028
20.5668
20.4618
20.4146
20.4548
20.48
20.3536
19.9775
19.2302
18.0464
16.803
16.0751
15.8433
15.7981
15.7743
15.742
15.7028
15.6571
15.5964
15.5145
15.4085
15.2798
15.1402
15.0374
15.1015
15.5591
16.6565
18.7939
21.6275
23.6944
25.0035
26.5039
845.527
452.335
21.0276
20.6439
20.434
20.267
20.1825
20.2403
20.3302
20.3156
20.1253
19.6792
18.8181
17.4988
16.2798
15.7018
15.5894
15.6217
15.665
15.6869
15.6821
15.6461
15.5764
15.4714
15.333
15.176
15.0645
15.1896
15.8764
17.2305
19.2084
21.7223
23.6813
24.9818
26.5392
844.944
453.74
21.0197
20.522
20.2514
20.0253
19.9041
19.9893
20.1338
20.1829
20.0867
19.811
19.2576
18.2488
16.8857
15.8784
15.5227
15.5077
15.5785
15.642
15.6724
15.6624
15.6095
15.5112
15.3681
15.1941
15.0593
15.1977
16.0632
17.7752
19.8603
22.1166
23.8311
24.9981
26.4219
843.488
453.899
20.8819
20.3698
20.0828
19.8019
19.5878
19.6427
19.8417
19.963
19.9391
19.7539
19.3599
18.641
17.4992
16.3116
15.6731
15.5264
15.5725
15.6494
15.7013
15.7137
15.6805
15.5969
15.4601
15.2789
15.1085
15.1697
15.9977
17.9397
20.2757
22.41
23.9196
24.9547
26.2233
842.224
452.659
20.7555
20.3325
20.0657
19.7295
19.3165
19.1448
19.3242
19.5454
19.6343
19.5563
19.2851
18.755
17.8878
16.8138
16.0252
15.7202
15.6949
15.7509
15.8037
15.8278
15.8125
15.7498
15.6336
15.4659
15.2759
15.2201
15.8019
17.6636
20.2784
22.4903
23.9057
24.8596
26.0343
841.672
451.092
20.7735
20.4649
20.2319
19.8778
19.2819
18.6832
18.6217
18.891
19.1105
19.1623
19.0212
18.6494
18.0069
17.169
16.4398
16.0611
15.9624
15.9753
16.0087
16.0287
16.0209
15.9748
15.8818
15.7358
15.5441
15.3923
15.6468
17.0903
19.7659
22.2419
23.7511
24.7204
25.9102
842.105
450.685
20.9139
20.6284
20.4013
20.0633
19.4388
18.5106
17.9977
18.1534
18.4531
18.6186
18.5981
18.3706
17.9235
17.3278
16.7776
16.4461
16.321
16.2961
16.3014
16.3052
16.2929
16.2541
16.1805
16.0616
15.8926
15.7091
15.7349
16.6579
19.0403
21.7406
23.4849
24.5663
25.8755
843.265
451.623
21.002
20.6086
20.3219
19.9603
19.3826
18.4537
17.6039
17.5168
17.8006
18.0274
18.0961
17.9952
17.7336
17.3724
17.0312
16.8087
16.7044
16.6643
16.6473
16.6314
16.6047
16.5588
16.4866
16.3776
16.2241
16.042
15.9742
16.5564
18.5073
21.218
23.2115
24.458
25.9547
844.801
453.296
21.0602
20.4789
20.0569
19.5683
18.9785
18.2235
17.3617
17.0657
17.2696
17.5127
17.6445
17.651
17.5485
17.3787
17.2106
17.0944
17.0317
16.9992
16.9765
16.9512
16.9151
16.8621
16.7865
16.679
16.5314
16.3553
16.274
16.7497
18.4257
21.0021
23.1204
24.4926
26.1512
846.103
454.767
21.0522
20.2911
19.7165
19.0422
18.3832
17.7923
17.1184
16.738
16.8453
17.0793
17.2589
17.357
17.3806
17.3528
17.3093
17.2763
17.2579
17.2454
17.23
17.205
17.165
17.1052
17.0213
16.905
16.7508
16.5802
16.5486
17.127
18.7682
21.1987
23.2851
24.6862
26.4081
846.801
455.82
20.9452
20.037
19.3294
18.4758
17.7478
17.2817
16.8435
16.5279
16.5677
16.7686
16.9636
17.1139
17.2156
17.2784
17.3185
17.349
17.3737
17.3898
17.3939
17.3824
17.3515
17.2961
17.2112
17.0869
16.9166
16.7324
16.753
17.5473
19.3517
21.6898
23.6308
24.972
26.649
846.741
455.719
20.6629
19.6763
18.8692
17.8594
17.0634
16.6993
16.4783
16.3235
16.3618
16.532
16.7231
16.8963
17.0409
17.1577
17.2517
17.3281
17.3889
17.4333
17.4603
17.4681
17.4534
17.4115
17.3362
17.216
17.0433
16.8584
16.9369
17.9665
20.0095
22.2728
24.0148
25.2455
26.8065
846.142
454.2
20.3855
19.477
18.6725
17.5597
16.5556
16.1364
16.0342
16.0225
16.1013
16.2632
16.4544
16.6439
16.8188
16.975
17.1111
17.2276
17.3246
17.4017
17.4588
17.4949
17.5072
17.4901
17.4353
17.3274
17.1534
16.9507
17.0235
18.203
20.5272
22.7673
24.3311
25.4453
26.8691
845.328
452.03
20.2745
19.5868
18.9381
17.8895
16.5488
15.7346
15.5415
15.5904
15.7203
15.9009
16.1064
16.3164
16.519
16.709
16.8821
17.0359
17.1694
17.2816
17.3731
17.4446
17.4948
17.519
17.5092
17.4468
17.3116
17.1223
17.1428
18.2749
20.8074
23.0924
24.5383
25.5547
26.8538
844.599
450.395
20.2955
19.8284
19.394
18.6104
17.1895
15.7455
15.1042
15.0453
15.1975
15.415
15.6534
15.8934
16.1284
16.3557
16.5704
16.7677
16.945
17.0993
17.2313
17.3432
17.4355
17.5054
17.546
17.5382
17.4572
17.301
17.2575
18.1684
20.7489
23.1904
24.6225
25.5915
26.8133
844.129
449.342
20.2809
19.9672
19.7059
19.2219
18.1499
16.4218
15.0676
14.6041
14.6525
14.8732
15.1377
15.4077
15.6733
15.9329
16.1824
16.4205
16.6425
16.8415
17.0181
17.1759
17.3179
17.4449
17.5524
17.6231
17.6303
17.5546
17.5024
18.131
20.4922
23.1085
24.6065
25.5798
26.7688
843.733
448.495
20.2195
19.9949
19.8396
19.5661
18.9245
17.5176
15.6809
14.5266
14.237
14.3702
14.6318
14.9166
15.2006
15.4837
15.7664
16.0436
16.3083
16.5516
16.7721
16.973
17.1593
17.3344
17.4973
17.6358
17.7273
17.7479
17.7515
18.2037
20.1998
22.9023
24.5081
25.5287
26.7105
843.102
448.425
20.2297
19.9895
19.8518
19.6756
19.311
18.4373
16.7566
15.0125
14.1385
14.0165
14.2071
14.4772
14.7589
15.0446
15.3385
15.6413
15.9426
16.2277
16.4933
16.7419
16.9791
17.2109
17.4374
17.6505
17.833
17.9628
18.0658
18.4581
20.0724
22.666
24.3374
25.4053
26.5694
842.011
449.225
20.2034
19.8218
19.6045
19.4157
19.1792
18.6799
17.5475
15.8012
14.4308
13.9317
13.9645
14.1763
14.4296
14.6962
14.9793
15.2849
15.6038
15.9191
16.2214
16.5096
16.7888
17.0661
17.3423
17.6139
17.871
18.1007
18.3218
18.7499
20.0767
22.4018
24.0675
25.1557
26.2897
840.663
450.874
20.1772
19.5685
19.2007
18.9126
18.69
18.3415
17.6079
16.2822
14.8499
14.0822
13.9335
14.0496
14.2442
14.4657
14.7117
14.9911
15.3008
15.6286
15.9593
16.287
16.6135
16.9439
17.2781
17.6127
17.941
18.2572
18.581
19.0631
20.1788
22.1385
23.7058
24.7708
25.8739
839.345
452.021
19.9609
19.1315
18.61
18.2245
18.0241
17.7566
17.2109
16.2723
15.1109
14.3152
14.0542
14.0777
14.2035
14.3684
14.5642
14.8006
15.0815
15.3978
15.7353
16.0835
16.4411
16.8103
17.1906
17.5785
17.9674
18.3552
18.7636
19.3012
20.2822
21.8956
23.3065
24.3171
25.4051
838.328
452.188
19.6361
18.6572
17.9976
17.4931
17.2984
17.1038
16.6864
16.0036
15.1633
14.5043
14.2151
14.1671
14.2247
14.3303
14.4718
14.6568
14.8942
15.1848
15.5189
15.8841
16.2743
16.6878
17.1223
17.5717
18.0254
18.4773
18.9457
19.5143
20.3924
21.7186
22.9522
23.8923
24.9775
837.65
450.883
19.3272
18.381
17.6547
16.9318
16.5627
16.4024
16.1399
15.6842
15.1069
14.6084
14.3378
14.2509
14.2606
14.3191
14.413
14.5485
14.7383
14.9904
15.3033
15.6668
16.0732
16.518
16.9982
17.5067
18.0287
18.5504
19.0799
19.6797
20.4949
21.617
22.6972
23.5727
24.6656
837.309
449.176
19.371
18.652
18.0005
17.0677
16.1858
15.7756
15.5802
15.3201
14.9521
14.5851
14.3422
14.2343
14.2127
14.2384
14.2967
14.3927
14.5412
14.7571
15.0493
15.4137
15.8415
16.325
16.8599
17.438
18.0399
18.6412
19.2361
19.8669
20.6392
21.6154
22.5669
23.3829
24.4768
837.158
447.797
19.6422
19.1898
18.7377
17.9232
16.62
15.5463
15.0856
14.885
14.6749
14.4322
14.2379
14.1326
14.0998
14.1103
14.1484
14.2167
14.3294
14.5059
14.7653
15.1151
15.5504
16.062
16.6447
17.2918
17.9811
18.6778
19.3593
20.0461
20.8121
21.6991
22.5531
23.3162
24.4002
837.16
447.611
19.9243
19.6149
19.3374
18.8235
17.6879
16.0772
14.962
14.512
14.32
14.1615
14.0227
13.9345
13.9022
13.9085
13.9386
13.9919
14.0797
14.2245
14.4557
14.7932
15.2405
15.7868
16.424
17.1463
17.9304
18.7306
19.5065
20.2583
21.0345
21.8609
22.634
23.3427
24.3969
837.19
448.429
20.0432
19.7004
19.4682
19.1322
18.4161
16.9671
15.3631
14.4371
14.0732
13.9121
13.8094
13.7435
13.718
13.7241
13.7497
13.7915
13.8564
13.9664
14.1571
14.4635
14.9032
15.4685
16.1487
16.9396
17.8196
18.7338
19.6208
20.458
21.2688
22.0629
22.7726
23.43
24.4434
837.259
449.9
20.0791
19.5734
19.2623
18.929
18.4208
17.4322
15.9111
14.6448
14.0094
13.743
13.6172
13.5491
13.5221
13.5265
13.55
13.5866
13.6391
13.7268
13.8875
14.1673
14.5992
15.1845
15.9062
16.7597
17.7283
18.7516
19.7471
20.6679
21.5158
22.2876
22.9435
23.552
24.5171
837.295
451.083
19.969
19.2815
18.8604
18.4672
18.016
17.316
16.1752
14.9286
14.1242
13.7388
13.5569
13.4609
13.4137
13.4004
13.4082
13.4289
13.4617
13.5217
13.6454
13.8865
14.2946
14.8838
15.634
16.5372
17.5836
18.7146
19.8263
20.8402
21.7342
22.4961
23.1123
23.6807
24.601
837.336
451.347
19.6477
18.8161
18.3091
17.8786
17.4743
16.9185
16.0806
15.0568
14.2361
13.7609
13.512
13.3733
13.2981
13.2657
13.2603
13.2704
13.2921
13.3365
13.4364
13.6484
14.0361
14.6276
15.4039
16.3461
17.4492
18.6673
19.8855
20.99
21.9301
22.6878
23.2749
23.8123
24.694
837.385
450.388
19.1938
18.307
17.7547
17.297
16.9399
16.5103
15.8881
15.1045
14.3751
13.8714
13.5643
13.3736
13.2516
13.1781
13.1386
13.1216
13.1207
13.1415
13.212
13.3882
13.7445
14.33
15.1288
16.1071
17.2554
18.5449
19.8653
21.0696
22.0697
22.8399
23.4148
23.935
24.7927
837.546
448.758
18.9132
18.111
17.5593
16.999
16.5431
16.1558
15.6779
15.065
14.4234
13.9037
13.5461
13.3103
13.1525
13.0499
12.9873
12.9523
12.9372
12.9434
12.9937
13.1412
13.4677
14.0457
14.8692
15.8876
17.0726
18.4068
19.8023
21.0967
22.1614
22.956
23.5332
24.0503
24.9034
837.845
447.456
19.0419
18.4249
17.9348
17.2701
16.5397
16.0018
15.572
15.0915
14.5456
14.0303
13.6216
13.323
13.1038
12.9443
12.8327
12.7584
12.7135
12.6953
12.7203
12.8371
13.1315
13.6998
14.5567
15.6337
16.8756
18.2567
19.7132
21.0895
22.2256
23.0594
23.6535
24.1801
25.0444
838.317
447.296
19.4363
18.9732
18.5821
17.9583
17.0165
16.1272
15.5139
15.0351
14.5528
14.069
13.6456
13.3125
13.0549
12.8555
12.7038
12.5923
12.5144
12.4663
12.4606
12.5414
12.7982
13.3508
14.2415
15.3978
16.7203
18.1574
19.6567
21.0849
22.2727
23.1405
23.7544
24.2965
25.1803
838.763
448.186
19.7424
19.3126
19.0012
18.5318
17.6994
16.6328
15.7404
15.1238
14.6365
14.1795
13.7546
13.3896
13.0844
12.8304
12.6212
12.4541
12.3264
12.2353
12.1898