/*--------------------------------*- C++ -*----------------------------------*\
| =========                 |                                                 |
| \\      /  F ield         | OpenFOAM: The Open Source CFD Toolbox           |
|  \\    /   O peration     | Version:  v2012                                 |
|   \\  /    A nd           | Website:  www.openfoam.com                      |
|    \\/     M anipulation  |                                                 |
\*---------------------------------------------------------------------------*/
FoamFile
{
    version     2.0;
    format      ascii;
    class       surfaceScalarField;
    location    "49";
    object      phi;
}
// * * * * * * * * * * * * * * * * * * * * * * * * * * * * * * * * * * * * * //

dimensions      [1 0 -1 0 0 0 0];
oriented        oriented;


internalField   nonuniform List<scalar> 
228225
(
-3.33233e-09
3.7572e-09
-6.52508e-10
-1.16791e-08
1.30828e-08
-4.73577e-09
-2.45294e-08
1.87591e-08
-5.90691e-09
-4.16009e-08
2.34998e-08
-6.43207e-09
-6.21913e-08
2.74177e-08
-6.82367e-09
-8.54535e-08
3.04888e-08
-7.22915e-09
-1.10541e-07
3.2767e-08
-7.67816e-09
-1.36615e-07
3.42636e-08
-8.19137e-09
-1.62925e-07
3.50683e-08
-8.75696e-09
-1.88758e-07
3.52188e-08
-9.38577e-09
-2.13499e-07
3.48076e-08
-1.00662e-08
-2.36574e-07
3.38818e-08
-1.08083e-08
-2.57508e-07
3.25389e-08
-1.1601e-08
-2.75889e-07
3.08253e-08
-1.24507e-08
-2.91371e-07
2.88307e-08
-1.33439e-08
-3.03671e-07
2.65797e-08
-1.42806e-08
-3.12582e-07
2.41548e-08
-1.52436e-08
-3.17955e-07
2.15933e-08
-1.6221e-08
-3.19711e-07
1.8951e-08
-1.71931e-08
-3.1782e-07
1.6264e-08
-1.81559e-08
-3.12312e-07
1.3578e-08
-1.90866e-08
-3.03258e-07
1.09138e-08
-1.99666e-08
-2.90788e-07
8.30662e-09
-2.07734e-08
-2.75073e-07
5.77293e-09
-2.14907e-08
-2.56316e-07
3.34073e-09
-2.20973e-08
-2.34766e-07
1.028e-09
-2.25777e-08
-2.10711e-07
-1.14118e-09
-2.29134e-08
-1.84478e-07
-3.14309e-09
-2.30899e-08
-1.56447e-07
-4.94063e-09
-2.30894e-08
-1.2706e-07
-6.49503e-09
-2.28911e-08
-9.68616e-08
-7.74872e-09
-2.24507e-08
-6.65884e-08
-8.61648e-09
-2.16571e-08
-3.74797e-08
-8.93072e-09
-2.01773e-08
-1.2079e-08
-8.40799e-09
-1.69913e-08
-5.31354e-09
-6.76681e-09
-9.8866e-09
3.03732e-08
-1.6728e-08
-3.37514e-08
5.51611e-08
-1.82165e-08
-6.24662e-08
6.64885e-08
-1.90122e-08
-9.35194e-08
7.45709e-08
-2.00189e-08
-1.25086e-07
7.99354e-08
-2.09502e-08
-1.55921e-07
8.30882e-08
-2.17654e-08
-1.85049e-07
8.44136e-08
-2.25174e-08
-2.11819e-07
8.42536e-08
-2.32213e-08
-2.35733e-07
8.28761e-08
-2.38935e-08
-2.56505e-07
8.05185e-08
-2.45286e-08
-2.73925e-07
7.73655e-08
-2.51373e-08
-2.87922e-07
7.35916e-08
-2.57137e-08
-2.98462e-07
6.93446e-08
-2.62645e-08
-3.05617e-07
6.47591e-08
-2.67794e-08
-3.09474e-07
5.99511e-08
-2.72625e-08
-3.10188e-07
5.50026e-08
-2.77101e-08
-3.07906e-07
4.99979e-08
-2.81244e-08
-3.02823e-07
4.50083e-08
-2.84985e-08
-2.9513e-07
4.00918e-08
-2.88343e-08
-2.8505e-07
3.53086e-08
-2.91242e-08
-2.728e-07
3.06972e-08
-2.93698e-08
-2.58607e-07
2.62888e-08
-2.95672e-08
-2.42693e-07
2.21068e-08
-2.97147e-08
-2.25285e-07
1.81696e-08
-2.98062e-08
-2.06594e-07
1.44906e-08
-2.98395e-08
-1.86841e-07
1.10813e-08
-2.9807e-08
-1.66232e-07
7.95092e-09
-2.9702e-08
-1.44972e-07
5.10961e-09
-2.95105e-08
-1.23267e-07
2.56784e-09
-2.92144e-08
-1.01315e-07
3.35526e-10
-2.87834e-08
-7.93337e-08
-1.54455e-09
-2.81837e-08
-5.7547e-08
-3.04362e-09
-2.73613e-08
-3.62685e-08
-4.07453e-09
-2.61337e-08
-1.63244e-08
-4.38259e-09
-2.39696e-08
-2.59469e-09
-1.90437e-08
-7.733e-09
4.62082e-08
-8.10179e-09
-2.05741e-08
7.77609e-08
-9.75793e-09
-3.49526e-08
9.14078e-08
-1.05408e-08
-4.98262e-08
1.00703e-07
-1.126e-08
-6.44922e-08
1.06546e-07
-1.19439e-08
-7.84547e-08
1.09694e-07
-1.26432e-08
-9.13713e-08
1.10688e-07
-1.33578e-08
-1.02993e-07
1.09985e-07
-1.41095e-08
-1.13163e-07
1.07927e-07
-1.4881e-08
-1.21773e-07
1.04808e-07
-1.56794e-08
-1.28786e-07
1.0086e-07
-1.64819e-08
-1.34189e-07
9.62844e-08
-1.729e-08
-1.3801e-07
9.12451e-08
-1.80806e-08
-1.40283e-07
8.58872e-08
-1.88533e-08
-1.41077e-07
8.033e-08
-1.9588e-08
-1.4048e-07
7.46958e-08
-2.02877e-08
-1.38613e-07
6.90667e-08
-2.0936e-08
-1.35584e-07
6.35124e-08
-2.15344e-08
-1.31507e-07
5.80874e-08
-2.20719e-08
-1.26499e-07
5.28476e-08
-2.25483e-08
-1.2067e-07
4.78259e-08
-2.29566e-08
-1.14131e-07
4.305e-08
-2.33007e-08
-1.06985e-07
3.8538e-08
-2.35757e-08
-9.93273e-08
3.42943e-08
-2.37849e-08
-9.12359e-08
3.03253e-08
-2.39247e-08
-8.27926e-08
2.6633e-08
-2.39963e-08
-7.40705e-08
2.32235e-08
-2.39943e-08
-6.51391e-08
2.00921e-08
-2.39141e-08
-5.60563e-08
1.72297e-08
-2.37434e-08
-4.68806e-08
1.46246e-08
-2.34654e-08
-3.76388e-08
1.22634e-08
-2.30512e-08
-2.83662e-08
1.01337e-08
-2.24475e-08
-1.9126e-08
8.21564e-09
-2.15327e-08
-9.96069e-09
6.47368e-09
-2.00195e-08
3.91322e-09
-1.64701e-08
-8.4418e-09
5.0434e-08
4.21759e-09
-1.52691e-08
8.16338e-08
2.95243e-09
-2.11235e-08
9.53034e-08
1.95857e-09
-2.63609e-08
1.04728e-07
1.21341e-09
-3.11601e-08
1.10836e-07
5.0891e-10
-3.55277e-08
1.14324e-07
-2.64297e-10
-3.94384e-08
1.15739e-07
-1.14031e-09
-4.28544e-08
1.15505e-07
-2.10339e-09
-4.57472e-08
1.13973e-07
-3.15446e-09
-4.80937e-08
1.11418e-07
-4.26279e-09
-4.98826e-08
1.08075e-07
-5.42627e-09
-5.11181e-08
1.04132e-07
-6.61231e-09
-5.18093e-08
9.97534e-08
-7.81588e-09
-5.19846e-08
9.50682e-08
-9.00766e-09
-5.16702e-08
9.01952e-08
-1.01783e-08
-5.09224e-08
8.52428e-08
-1.12959e-08
-4.97921e-08
8.02968e-08
-1.236e-08
-4.83439e-08
7.54174e-08
-1.3353e-08
-4.66389e-08
7.06576e-08
-1.42759e-08
-4.47308e-08
6.60551e-08
-1.51162e-08
-4.26688e-08
6.16402e-08
-1.58764e-08
-4.05038e-08
5.74332e-08
-1.65485e-08
-3.82745e-08
5.34465e-08
-1.71361e-08
-3.60218e-08
4.96766e-08
-1.76363e-08
-3.37655e-08
4.61215e-08
-1.80528e-08
-3.1523e-08
4.2773e-08
-1.83828e-08
-2.92927e-08
3.96204e-08
-1.8627e-08
-2.70602e-08
3.66408e-08
-1.8782e-08
-2.47692e-08
3.37877e-08
-1.88472e-08
-2.23431e-08
3.10104e-08
-1.88136e-08
-1.96464e-08
2.8236e-08
-1.86688e-08
-1.64819e-08
2.53739e-08
-1.84046e-08
-1.25029e-08
2.2285e-08
-1.80485e-08
-7.32629e-09
1.8827e-08
-1.75308e-08
1.21791e-08
-1.55915e-08
-9.07649e-09
4.88846e-08
1.06262e-08
-1.2489e-08
7.53778e-08
9.66808e-09
-1.30848e-08
8.72637e-08
8.63489e-09
-1.20213e-08
9.57563e-08
7.91008e-09
-1.00003e-08
1.01543e-07
7.27119e-09
-7.39486e-09
1.05181e-07
6.53897e-09
-4.46513e-09
1.07111e-07
5.69785e-09
-1.39413e-09
1.07687e-07
4.74634e-09
1.68366e-09
1.07182e-07
3.71366e-09
4.66878e-09
1.05831e-07
2.603e-09
7.48346e-09
1.03815e-07
1.44438e-09
1.00766e-08
1.01296e-07
2.43956e-10
1.23883e-08
9.84003e-08
-9.60536e-10
1.43776e-08
9.5244e-08
-2.16444e-09
1.60091e-08
9.19126e-08
-3.34944e-09
1.72744e-08
8.84844e-08
-4.50701e-09
1.81653e-08
8.502e-08
-5.61399e-09
1.8676e-08
8.15739e-08
-6.66661e-09
1.87998e-08
7.81841e-08
-7.6502e-09
1.85367e-08
7.48831e-08
-8.56427e-09
1.78832e-08
7.16915e-08
-9.39928e-09
1.68519e-08
6.8623e-08
-1.0157e-08
1.54463e-08
6.56821e-08
-1.08317e-08
1.36842e-08
6.28652e-08
-1.14266e-08
1.1584e-08
6.0161e-08
-1.19385e-08
9.1818e-09
5.75469e-08
-1.23714e-08
6.5359e-09
5.49901e-08
-1.27243e-08
3.73556e-09
5.2442e-08
-1.30009e-08
8.95847e-10
4.98293e-08
-1.32027e-08
-1.82116e-09
4.7058e-08
-1.33302e-08
-4.20588e-09
4.39988e-08
-1.33785e-08
-5.93525e-09
4.04762e-08
-1.33727e-08
-6.46936e-09
3.62426e-08
-1.34241e-08
-5.04563e-09
3.09846e-08
-1.35809e-08
1.99389e-08
-1.28055e-08
-5.49272e-09
4.36509e-08
1.07271e-08
-6.01415e-09
6.60777e-08
9.82098e-09
-3.90411e-09
7.6342e-08
8.81197e-09
-2.25661e-10
8.39082e-08
8.16919e-09
4.3181e-09
8.9365e-08
7.63429e-09
9.31034e-09
9.31365e-08
7.0512e-09
1.44574e-08
9.55887e-08
6.37668e-09
1.95325e-08
9.69815e-08
5.62985e-09
2.43605e-08
9.75406e-08
4.81251e-09
2.88172e-08
9.74313e-08
3.94408e-09
3.28023e-08
9.68009e-08
3.02788e-09
3.62542e-08
9.57592e-08
2.08552e-09
3.91257e-08
9.44069e-08
1.12267e-09
4.1395e-08
9.28184e-08
1.5461e-10
4.30427e-08
9.1061e-08
-7.95319e-10
4.40622e-08
8.91885e-08
-1.72291e-09
4.44552e-08
8.7249e-08
-2.624e-09
4.42396e-08
8.52757e-08
-3.48384e-09
4.34236e-08
8.32982e-08
-4.29971e-09
4.20323e-08
8.13361e-08
-5.06169e-09
4.00898e-08
7.94037e-08
-5.76899e-09
3.76206e-08
7.75056e-08
-6.41522e-09
3.46666e-08
7.56392e-08
-7.00131e-09
3.12607e-08
7.37929e-08
-7.52365e-09
2.74626e-08
7.19444e-08
-7.98445e-09
2.33322e-08
7.00604e-08
-8.38248e-09
1.89539e-08
6.80897e-08
-8.72136e-09
1.44337e-08
6.59637e-08
-9.00263e-09
9.91109e-09
6.35834e-08
-9.23137e-09
5.56012e-09
6.08188e-08
-9.40827e-09
1.60559e-09
5.74867e-08
-9.53536e-09
-1.62311e-09
5.33488e-08
-9.64317e-09
-3.58604e-09
4.80692e-08
-9.86254e-09
-3.55941e-09
4.12322e-08
-1.02764e-08
2.64405e-08
-1.006e-08
-2.16906e-09
3.81563e-08
7.66434e-09
-1.25696e-09
5.8407e-08
6.75727e-09
1.39405e-09
6.78012e-08
5.89064e-09
5.04076e-09
7.49034e-08
5.35892e-09
9.21444e-09
8.0236e-08
4.954e-09
1.36343e-08
8.41859e-08
4.53043e-09
1.81053e-08
8.70545e-08
4.06445e-09
2.24597e-08
8.90729e-08
3.55288e-09
2.65768e-08
9.04173e-08
3.00722e-09
3.03508e-08
9.12306e-08
2.42604e-09
3.37106e-08
9.16203e-08
1.82144e-09
3.65965e-08
9.1678e-08
1.19503e-09
3.89713e-08
9.14726e-08
5.59339e-10
4.08095e-08
9.10645e-08
-8.43033e-11
4.20835e-08
9.04988e-08
-7.12392e-10
4.27901e-08
8.98155e-08
-1.33332e-09
4.29302e-08
8.90438e-08
-1.93405e-09
4.251e-08
8.82085e-08
-2.51185e-09
4.1539e-08
8.73259e-08
-3.05841e-09
4.00415e-08
8.64071e-08
-3.57273e-09
3.80374e-08
8.54562e-08
-4.04881e-09
3.55597e-08
8.44704e-08
-4.487e-09
3.2644e-08
8.34391e-08
-4.88342e-09
2.93334e-08
8.2342e-08
-5.23965e-09
2.56856e-08
8.11482e-08
-5.55376e-09
2.17616e-08
7.98117e-08
-5.82851e-09
1.76456e-08
7.82698e-08
-6.06382e-09
1.34384e-08
7.6434e-08
-6.2642e-09
9.26912e-09
7.41854e-08
-6.43145e-09
5.29484e-09
7.1362e-08
-6.56909e-09
1.71304e-09
6.77452e-08
-6.67712e-09
-1.19762e-09
6.30429e-08
-6.78369e-09
-2.98824e-09
5.6856e-08
-6.9952e-09
-3.03914e-09
4.86637e-08
-7.38175e-09
3.07098e-08
-7.30792e-09
-6.37699e-10
3.41648e-08
4.62957e-09
1.13266e-10
5.37731e-08
3.88201e-09
1.75222e-09
6.29155e-08
3.24803e-09
3.87942e-09
6.99055e-08
2.86862e-09
6.27098e-09
7.52641e-08
2.58116e-09
8.79313e-09
7.93671e-08
2.29652e-09
1.13535e-08
8.25054e-08
1.98869e-09
1.38715e-08
8.48926e-08
1.66279e-09
1.62742e-08
8.66962e-08
1.31699e-09
1.85082e-08
8.80406e-08
9.57322e-10
2.05195e-08
8.9025e-08
5.82743e-10
2.22763e-08
8.97237e-08
1.98834e-10
2.37368e-08
9.01971e-08
-1.87629e-10
2.48805e-08
9.04906e-08
-5.67436e-10
2.56827e-08
9.06411e-08
-9.45989e-10
2.61349e-08
9.06771e-08
-1.31301e-09
2.62253e-08
9.06204e-08
-1.66777e-09
2.59529e-08
9.04851e-08
-2.00358e-09
2.53183e-08
9.02799e-08
-2.32045e-09
2.43306e-08
9.0008e-08
-2.61347e-09
2.30052e-08
8.96664e-08
-2.88363e-09
2.13555e-08
8.92458e-08
-3.12757e-09
1.94157e-08
8.87283e-08
-3.3473e-09
1.72082e-08
8.80875e-08
-3.54083e-09
1.47869e-08
8.72835e-08
-3.71108e-09
1.21912e-08
8.62633e-08
-3.85727e-09
9.4935e-09
8.49517e-08
-3.98325e-09
6.76506e-09
8.32503e-08
-4.08961e-09
4.11126e-09
8.10228e-08
-4.18102e-09
1.63794e-09
7.80906e-08
-4.25726e-09
-5.03503e-10
7.42085e-08
-4.3212e-09
-2.12838e-09
6.90557e-08
-4.38887e-09
-2.92751e-09
6.21899e-08
-4.53442e-09
-2.50397e-09
5.30347e-08
-4.79347e-09
3.29215e-08
-4.71667e-09
-4.88786e-10
3.16612e-08
2.99224e-09
-4.70408e-10
5.12089e-08
2.54711e-09
-6.26668e-11
6.03189e-08
2.18734e-09
5.66775e-10
6.73063e-08
1.97004e-09
1.3328e-09
7.26954e-08
1.80137e-09
2.19861e-09
7.68739e-08
1.62841e-09
3.13044e-09
8.01285e-08
1.444e-09
4.10145e-09
8.26766e-08
1.24632e-09
5.07614e-09
8.46795e-08
1.04073e-09
6.02989e-09
8.62612e-08
8.26008e-10
6.93236e-09
8.75139e-08
6.07673e-10
7.76246e-09
8.85092e-08
3.854e-10
8.49594e-09
8.93003e-08
1.63751e-10
9.11e-09
8.99289e-08
-5.25876e-11
9.58475e-09
9.0425e-08
-2.58895e-10
9.90844e-09
9.08116e-08
-4.5693e-10
1.00675e-08
9.11039e-08
-6.4283e-10
1.00563e-08
9.13123e-08
-8.16773e-10
9.87047e-09
9.14413e-08
-9.74528e-10
9.50511e-09
9.14907e-08
-1.11733e-09
8.96184e-09
9.14521e-08
-1.24218e-09
8.24918e-09
9.1311e-08
-1.352e-09
7.37822e-09
9.10452e-08
-1.44487e-09
6.36475e-09
9.06229e-08
-1.52446e-09
5.23989e-09
9.00005e-08
-1.58976e-09
4.02728e-09
8.91188e-08
-1.64507e-09
2.7716e-09
8.78983e-08
-1.69016e-09
1.52043e-09
8.62333e-08
-1.73002e-09
3.24915e-10
8.39818e-08
-1.76502e-09
-7.39938e-10
8.09561e-08
-1.79953e-09
-1.60292e-09
7.69026e-08
-1.83288e-09
-2.15386e-09
7.14872e-08
-1.87928e-09
-2.23706e-09
6.42541e-08
-1.98079e-09
-1.6461e-09
5.45998e-08
-2.15609e-09
3.34161e-08
-2.14083e-09
-1.02786e-09
3.01097e-08
2.57888e-09
-1.83266e-09
4.95137e-08
2.49971e-09
-2.44744e-09
5.85414e-08
2.39164e-09
-2.92974e-09
6.54607e-08
2.32831e-09
-3.2929e-09
7.07974e-08
2.26206e-09
-3.54088e-09
7.49403e-08
2.18137e-09
-3.67371e-09
7.81786e-08
2.08327e-09
-3.70122e-09
8.07285e-08
1.97415e-09
-3.62745e-09
8.27528e-08
1.85469e-09
-3.47029e-09
8.43727e-08
1.73053e-09
-3.23881e-09
8.56809e-08
1.60182e-09
-2.949e-09
8.6746e-08
1.47417e-09
-2.61758e-09
8.76208e-08
1.3476e-09
-2.25992e-09
8.83438e-08
1.22743e-09
-1.89258e-09
8.89446e-08
1.113e-09
-1.53232e-09
8.94418e-08
1.00997e-09
-1.19627e-09
8.98498e-08
9.1703e-10
-8.97231e-10
9.0175e-08
8.38157e-10
-6.47439e-10
9.04197e-08
7.71247e-10
-4.50744e-10
9.05794e-08
7.17813e-10
-3.20955e-10
9.0645e-08
6.74998e-10
-2.5321e-10
9.0599e-08
6.44862e-10
-2.49203e-10
9.0418e-08
6.23349e-10
-3.05039e-10
9.00674e-08
6.11567e-10
-4.11033e-10
8.95024e-08
6.0468e-10
-5.58441e-10
8.86617e-08
6.03076e-10
-7.27118e-10
8.74655e-08
6.01315e-10
-8.97363e-10
8.58067e-08
5.99091e-10
-1.05183e-09
8.35447e-08
5.90394e-10
-1.16329e-09
8.04923e-08
5.74791e-10
-1.20567e-09
7.64e-08
5.46167e-10
-1.1541e-09
7.09368e-08
4.97556e-10
-9.51363e-10
6.36565e-08
3.97025e-10
-5.58012e-10
5.39646e-08
2.37361e-10
3.27644e-08
9.76722e-11
-1.57765e-09
2.89855e-08
2.70305e-09
-2.94387e-09
4.79435e-08
2.93574e-09
-4.16944e-09
5.67474e-08
3.01846e-09
-5.26036e-09
6.34843e-08
3.06696e-09
-6.20646e-09
6.86677e-08
3.07795e-09
-7.00569e-09
7.26807e-08
3.05785e-09
-7.6519e-09
7.58065e-08
3.01658e-09
-8.13902e-09
7.82601e-08
2.95749e-09
-8.47589e-09
8.02e-08
2.88809e-09
-8.66171e-09
8.17482e-08
2.80993e-09
-8.70303e-09
8.29942e-08
2.72933e-09
-8.61342e-09
8.40077e-08
2.64698e-09
-8.39789e-09
8.48392e-08
2.56855e-09
-8.07769e-09
8.55283e-08
2.49402e-09
-7.66454e-09
8.6102e-08
2.42832e-09
-7.17419e-09
8.65814e-08
2.37061e-09
-6.6277e-09
8.69781e-08
2.32484e-09
-6.0414e-09
8.72999e-08
2.28899e-09
-5.43506e-09
8.75455e-08
2.2664e-09
-4.81774e-09
8.77102e-08
2.2544e-09
-4.21266e-09
8.7782e-08
2.25479e-09
-3.62124e-09
8.7745e-08
2.26345e-09
-3.05638e-09
8.75729e-08
2.28133e-09
-2.52702e-09
8.72329e-08
2.3034e-09
-2.03104e-09
8.66783e-08
2.32988e-09
-1.57642e-09
8.58507e-08
2.35504e-09
-1.16029e-09
8.46698e-08
2.3784e-09
-7.79458e-10
8.30341e-08
2.3935e-09
-4.39478e-10
8.08056e-08
2.39904e-09
-1.41192e-10
7.78064e-08
2.38777e-09
1.04184e-10
7.37964e-08
2.35717e-09
2.85951e-10
6.84609e-08
2.29447e-09
3.87464e-10
6.13749e-08
2.17899e-09
3.85826e-10
5.19733e-08
1.99385e-09
3.14668e-08
1.68323e-09
-1.78921e-09
2.8126e-08
2.64863e-09
-3.36213e-09
4.64588e-08
3.05847e-09
-4.81757e-09
5.49607e-08
3.2407e-09
-6.135e-09
6.14534e-08
3.34795e-09
-7.29427e-09
6.64337e-08
3.39498e-09
-8.29037e-09
7.02697e-08
3.40499e-09
-9.10897e-09
7.32397e-08
3.38679e-09
-9.74951e-09
7.55503e-08
3.34987e-09
-1.02054e-08
7.73596e-08
3.2978e-09
-1.04813e-08
7.87848e-08
3.23792e-09
-1.05765e-08
7.9917e-08
3.17231e-09
-1.04998e-08
8.08231e-08
3.10717e-09
-1.02586e-08
8.1556e-08
3.04358e-09
-9.87101e-09
8.21531e-08
2.98691e-09
-9.35223e-09
8.26443e-08
2.9373e-09
-8.71619e-09
8.30483e-08
2.89918e-09
-7.9892e-09
8.33795e-08
2.87158e-09
-7.1907e-09
8.36429e-08
2.8578e-09
-6.34026e-09
8.3841e-08
2.85562e-09
-5.46569e-09
8.39668e-08
2.86712e-09
-4.58277e-09
8.40107e-08
2.88883e-09
-3.71208e-09
8.39537e-08
2.92164e-09
-2.87377e-09
8.3772e-08
2.9609e-09
-2.07555e-09
8.34302e-08
3.00651e-09
-1.33664e-09
8.2885e-08
3.05291e-09
-6.59963e-10
8.20765e-08
3.09916e-09
-5.96616e-11
8.093e-08
3.13894e-09
4.58878e-10
7.93447e-08
3.17049e-09
8.8669e-10
7.71923e-08
3.1865e-09
1.20697e-09
7.43006e-08
3.18409e-09
1.40371e-09
7.04459e-08
3.1542e-09
1.44947e-09
6.53277e-08
3.08881e-09
1.30864e-09
5.85505e-08
2.96363e-09
9.40052e-10
4.95816e-08
2.76115e-09
3.00639e-08
2.34288e-09
-1.54751e-09
2.75881e-08
2.08368e-09
-3.00098e-09
4.54131e-08
2.50288e-09
-4.40713e-09
5.36655e-08
2.69887e-09
-5.70993e-09
5.99515e-08
2.80603e-09
-6.88105e-09
6.47516e-08
2.85187e-09
-7.89404e-09
6.84256e-08
2.85792e-09
-8.73481e-09
7.12435e-08
2.8374e-09
-9.39102e-09
7.34106e-08
2.79551e-09
-9.85122e-09
7.50805e-08
2.74012e-09
-1.01145e-08
7.63723e-08
2.67463e-09
-1.01769e-08
7.73745e-08
2.6058e-09
-1.00481e-08
7.81575e-08
2.53592e-09
-9.73342e-09
7.87726e-08
2.47084e-09
-9.25555e-09
7.92612e-08
2.41196e-09
-8.626e-09
7.96518e-08
2.36419e-09
-7.87233e-09
7.9967e-08
2.32779e-09
-7.02003e-09
8.02193e-08
2.30651e-09
-6.09156e-09
8.04177e-08
2.29927e-09
-5.12193e-09
8.05617e-08
2.30839e-09
-4.13664e-09
8.06481e-08
2.33136e-09
-3.15701e-09
8.0664e-08
2.36908e-09
-2.21442e-09
8.05933e-08
2.41762e-09
-1.32813e-09
8.04089e-08
2.4766e-09
-5.17358e-10
8.00784e-08
2.54092e-09
2.03363e-10
7.95555e-08
2.60918e-09
8.21473e-10
7.8784e-08
2.67541e-09
1.32547e-09
7.76875e-08
2.73741e-09
1.71016e-09
7.61711e-08
2.78849e-09
1.97179e-09
7.41078e-08
2.82558e-09
2.09475e-09
7.13349e-08
2.84106e-09
2.07474e-09
6.76356e-08
2.83039e-09
1.89407e-09
6.27259e-08
2.7817e-09
1.54119e-09
5.62279e-08
2.67766e-09
9.89976e-10
4.76382e-08
2.49405e-09
2.89613e-08
2.09235e-09
-9.9981e-10
2.75532e-08
1.0338e-09
-2.14354e-09
4.52305e-08
1.32755e-09
-3.34553e-09
5.33991e-08
1.46821e-09
-4.52704e-09
5.95983e-08
1.53359e-09
-5.6275e-09
6.4307e-08
1.5455e-09
-6.60798e-09
6.78815e-08
1.52511e-09
-7.43925e-09
7.05941e-08
1.47995e-09
-8.09497e-09
7.26483e-08
1.41767e-09
-8.55584e-09
7.42013e-08
1.34211e-09
-8.81498e-09
7.53715e-08
1.25917e-09
-8.86527e-09
7.62526e-08
1.17214e-09
-8.7112e-09
7.69151e-08
1.0875e-09
-8.36271e-09
7.74158e-08
1.00782e-09
-7.83433e-09
7.77958e-08
9.38529e-10
-7.15433e-09
7.80885e-08
8.81329e-10
-6.34392e-09
7.83161e-08
8.40452e-10
-5.43382e-09
7.84952e-08
8.1625e-10
-4.46193e-09
7.86331e-08
8.11463e-10
-3.45832e-09
7.87331e-08
8.24835e-10
-2.45749e-09
7.8789e-08
8.57461e-10
-1.49026e-09
7.8791e-08
9.06427e-10
-5.87675e-10
7.87192e-08
9.71245e-10
2.2677e-10
7.85487e-08
1.04754e-09
9.26916e-10
7.82429e-08
1.13351e-09
1.50125e-09
7.77575e-08
1.22369e-09
1.93742e-09
7.70322e-08
1.31539e-09
2.22978e-09
7.59928e-08
1.40246e-09
2.379e-09
7.45411e-08
1.48168e-09
2.38526e-09
7.25536e-08
1.54647e-09
2.26062e-09
6.98666e-08
1.59335e-09
2.01111e-09
6.62694e-08
1.61529e-09
1.65084e-09
6.14806e-08
1.60638e-09
1.19422e-09
5.51336e-08
1.55045e-09
6.66597e-10
4.67349e-08
1.43082e-09
2.84696e-08
1.15874e-09
-3.75404e-10
2.81323e-08
-2.04728e-10
-1.1623e-09
4.61256e-08
-1.06958e-10
-2.13217e-09
5.44203e-08
-5.22395e-11
-3.17254e-09
6.0689e-08
-5.00144e-11
-4.2005e-09
6.54193e-08
-8.44423e-11
-5.1549e-09
6.8979e-08
-1.44174e-10
-5.98147e-09
7.16454e-08
-2.22707e-10
-6.64745e-09
7.36314e-08
-3.17333e-10
-7.12182e-09
7.50982e-08
-4.2245e-10
-7.3895e-09
7.61724e-08
-5.33383e-10
-7.4437e-09
7.69501e-08
-6.44142e-10
-7.28461e-09
7.75087e-08
-7.51551e-10
-6.92517e-09
7.79065e-08
-8.4983e-10
-6.38438e-09
7.81907e-08
-9.36091e-10
-5.68529e-09
7.83955e-08
-1.00553e-09
-4.86128e-09
7.85478e-08
-1.05639e-09
-3.94412e-09
7.86639e-08
-1.08531e-09
-2.97438e-09
7.8755e-08
-1.09218e-09
-1.98853e-09
7.88223e-08
-1.07541e-09
-1.02416e-09
7.88626e-08
-1.03674e-09
-1.19408e-10
7.88627e-08
-9.76412e-10
6.92862e-10
7.88043e-08
-8.97943e-10
1.38666e-09
7.86583e-08
-8.03212e-10
1.93864e-09
7.83885e-08
-6.9714e-10
2.33294e-09
7.79455e-08
-5.82789e-10
2.56221e-09
7.72687e-08
-4.65915e-10
2.6285e-09
7.62781e-08
-3.50144e-10
2.53505e-09
7.48747e-08
-2.41413e-10
2.3042e-09
7.29289e-08
-1.4322e-10
1.95589e-09
7.02758e-08
-6.08236e-11
1.52331e-09
6.66982e-08
3.33647e-12
1.04792e-09
6.19135e-08
4.30949e-11
5.82059e-10
5.55475e-08
5.20952e-11
1.90992e-10
4.71045e-08
1.96866e-11
2.87177e-08
-5.53182e-11
1.39151e-10
2.93047e-08
-1.31148e-09
-3.40493e-10
4.80077e-08
-1.40342e-09
-1.09382e-09
5.66111e-08
-1.43634e-09
-1.9946e-09
6.30851e-08
-1.49588e-09
-2.93867e-09
6.79405e-08
-1.57718e-09
-3.84824e-09
7.15617e-08
-1.67366e-09
-4.65995e-09
7.42416e-08
-1.7839e-09
-5.32689e-09
7.6203e-08
-1.90496e-09
-5.81264e-09
7.76194e-08
-2.03458e-09
-6.09745e-09
7.86237e-08
-2.16785e-09
-6.16707e-09
7.93213e-08
-2.30074e-09
-6.02523e-09
7.97933e-08
-2.4274e-09
-5.67969e-09
8.01054e-08
-2.54386e-09
-5.15066e-09
8.03071e-08
-2.64482e-09
-4.46552e-09
8.04382e-08
-2.72717e-09
-3.65887e-09
8.05266e-08
-2.78682e-09
-2.76594e-09
8.05929e-08
-2.82223e-09
-1.82727e-09
8.06475e-08
-2.83108e-09
-8.8413e-10
8.06947e-08
-2.81375e-09
1.85142e-11
8.07287e-08
-2.76997e-09
8.46443e-10
8.07378e-08
-2.70211e-09
1.56183e-09
8.07001e-08
-2.61182e-09
2.13591e-09
8.05863e-08
-2.50324e-09
2.55084e-09
8.03551e-08
-2.37955e-09
2.78692e-09
7.99555e-08
-2.24609e-09
2.84151e-09
7.93203e-08
-2.10687e-09
2.72079e-09
7.83668e-08
-1.96762e-09
2.43935e-09
7.6988e-08
-1.83225e-09
2.02567e-09
7.50491e-08
-1.70582e-09
1.51623e-09
7.23754e-08
-1.59079e-09
9.63562e-10
6.87416e-08
-1.49009e-09
4.29004e-10
6.38516e-08
-1.40416e-09
-5.64437e-12
5.73177e-08
-1.33603e-09
-2.37048e-10
4.86241e-08
-1.28679e-09
2.96601e-08
-1.17994e-09
4.28175e-10
3.09075e-08
-2.03045e-09
1.43617e-10
5.05485e-08
-2.25688e-09
-4.60812e-10
5.9567e-08
-2.35176e-09
-1.24792e-09
6.63298e-08
-2.45585e-09
-2.11385e-09
7.13746e-08
-2.57008e-09
-2.9659e-09
7.51103e-08
-2.69442e-09
-3.74379e-09
7.78459e-08
-2.82856e-09
-4.38709e-09
7.982e-08
-2.9719e-09
-4.86283e-09
8.12152e-08
-3.12123e-09
-5.14112e-09
8.21759e-08
-3.27309e-09
-5.21296e-09
8.28136e-08
-3.42227e-09
-5.07121e-09
8.32183e-08
-3.56433e-09
-4.73361e-09
8.34597e-08
-3.69379e-09
-4.21391e-09
8.3594e-08
-3.80657e-09
-3.53968e-09
8.36635e-08
-3.89799e-09
-2.74813e-09
8.37007e-08
-3.96521e-09
-1.87894e-09
8.37269e-08
-4.00513e-09
-9.6958e-10
8.3756e-08
-4.01675e-09
-6.67387e-11
8.37908e-08
-3.99901e-09
7.8643e-10
8.38274e-08
-3.95303e-09
1.55436e-09
8.38513e-08
-3.87986e-09
2.19528e-09
8.38404e-08
-3.78264e-09
2.68455e-09
8.37609e-08
-3.66426e-09
3.00085e-09
8.357e-08
-3.52945e-09
3.12737e-09
8.32104e-08
-3.38235e-09
3.06388e-09
8.26115e-08
-3.22844e-09
2.82272e-09
8.16825e-08
-3.0722e-09
2.41699e-09
8.03107e-08
-2.9188e-09
1.88752e-09
7.83509e-08
-2.77171e-09
1.27792e-09
7.56191e-08
-2.63407e-09
6.49224e-10
7.18755e-08
-2.50644e-09
8.14949e-11
6.68097e-08
-2.38849e-09
-3.35187e-10
6.00105e-08
-2.27791e-09
-4.7839e-10
5.09379e-08
-2.17107e-09
3.11162e-08
-1.93351e-09
4.72845e-10
3.27252e-08
-2.2906e-09
2.44093e-10
5.33465e-08
-2.56933e-09
-3.01861e-10
6.28036e-08
-2.69049e-09
-1.0343e-09
6.98755e-08
-2.81331e-09
-1.84731e-09
7.51289e-08
-2.94229e-09
-2.65403e-09
7.89954e-08
-3.07877e-09
-3.38425e-09
8.18025e-08
-3.22418e-09
-3.9894e-09
8.38023e-08
-3.37746e-09
-4.4294e-09
8.51902e-08
-3.53648e-09
-4.67422e-09
8.61192e-08
-3.69697e-09
-4.71577e-09
8.67102e-08
-3.85459e-09
-4.55317e-09
8.70588e-08
-4.00398e-09
-4.19524e-09
8.72417e-08
-4.14047e-09
-3.65933e-09
8.73188e-08
-4.25897e-09
-2.97833e-09
8.73375e-08
-4.35563e-09
-2.18229e-09
8.73322e-08
-4.42663e-09
-1.31346e-09
8.73279e-08
-4.46971e-09
-4.1365e-10
8.73383e-08
-4.48292e-09
4.75037e-10
8.73683e-08
-4.46608e-09
1.30997e-09
8.74125e-08
-4.41939e-09
2.04972e-09
8.74563e-08
-4.34482e-09
2.65983e-09
8.74747e-08
-4.24466e-09
3.11264e-09
8.74322e-08
-4.12274e-09
3.38264e-09
8.72812e-08
-3.98297e-09
3.46449e-09
8.69611e-08
-3.8304e-09
3.34845e-09
8.63946e-08
-3.66976e-09
3.05454e-09
8.54856e-08
-3.50639e-09
2.59626e-09
8.41125e-08
-3.34464e-09
2.01372e-09
8.21219e-08
-3.18873e-09
1.35664e-09
7.93176e-08
-3.04081e-09
6.87394e-10
7.54468e-08
-2.90187e-09
8.6418e-11
7.01811e-08
-2.77013e-09
-3.49254e-10
6.3088e-08
-2.64263e-09
-4.986e-10
5.35994e-08
-2.51312e-09
3.28452e-08
-2.22619e-09
3.43869e-10
3.45197e-08
-2.13892e-09
6.59393e-11
5.60183e-08
-2.39253e-09
-4.94707e-10
6.58682e-08
-2.50506e-09
-1.21475e-09
7.32182e-08
-2.62297e-09
-1.99491e-09
7.86591e-08
-2.74873e-09
-2.76138e-09
8.26436e-08
-2.88357e-09
-3.44484e-09
8.55142e-08
-3.02796e-09
-3.99767e-09
8.75367e-08
-3.181e-09
-4.38354e-09
8.89166e-08
-3.33985e-09
-4.57968e-09
8.98162e-08
-3.50062e-09
-4.57645e-09
9.03634e-08
-3.65841e-09
-4.36951e-09
9.06608e-08
-3.80831e-09
-3.97202e-09
9.07898e-08
-3.94514e-09
-3.4038e-09
9.08157e-08
-4.06433e-09
-2.69407e-09
9.07886e-08
-4.1615e-09
-1.87488e-09
9.07469e-08
-4.23336e-09
-9.85784e-10
9.07166e-08
-4.27712e-09
-7.10614e-11
9.07137e-08
-4.29137e-09
8.30543e-10
9.07429e-08
-4.27538e-09
1.67372e-09
9.0799e-08
-4.22987e-09
2.42205e-09
9.08659e-08
-4.15628e-09
3.03587e-09
9.0917e-08
-4.05738e-09
3.4922e-09
9.09137e-08
-3.93647e-09
3.76525e-09
9.08054e-08
-3.79794e-09
3.84691e-09
9.05266e-08
-3.64636e-09
3.73229e-09
8.99955e-08
-3.48691e-09
3.43285e-09
8.91091e-08
-3.3245e-09
2.9717e-09
8.77392e-08
-3.16401e-09
2.37829e-09
8.57231e-08
-3.00933e-09
1.70588e-09
8.28551e-08
-2.86327e-09
1.00812e-09
7.88687e-08
-2.72671e-09
3.68834e-10
7.34212e-08
-2.59891e-09
-1.25657e-10
6.60591e-08
-2.47763e-09
-3.57139e-10
5.61912e-08
-2.35917e-09
3.45865e-08
-2.09923e-09
1.07198e-10
3.61129e-08
-1.69977e-09
-2.92138e-10
5.82881e-08
-1.87099e-09
-9.14854e-10
6.84409e-08
-1.94951e-09
-1.65621e-09
7.6003e-08
-2.04469e-09
-2.42455e-09
8.15841e-08
-2.15434e-09
-3.15835e-09
8.5652e-08
-2.27681e-09
-3.79391e-09
8.85621e-08
-2.41132e-09
-4.29222e-09
9.05904e-08
-2.55597e-09
-4.61866e-09
9.1951e-08
-2.70763e-09
-4.75438e-09
9.28138e-08
-2.86191e-09
-4.69167e-09
9.33132e-08
-3.01403e-09
-4.42788e-09
9.35571e-08
-3.15884e-09
-3.97737e-09
9.36319e-08
-3.2914e-09
-3.36335e-09
9.36068e-08
-3.40697e-09
-2.60856e-09
9.35356e-08
-3.5015e-09
-1.74923e-09
9.3459e-08
-3.57149e-09
-8.23876e-10
9.34055e-08
-3.61446e-09
1.2796e-10
9.33916e-08
-3.62879e-09
1.05988e-09
9.3423e-08
-3.61399e-09
1.93565e-09
9.34939e-08
-3.57053e-09
2.7163e-09
9.35873e-08
-3.50004e-09
3.36131e-09
9.36745e-08
-3.405e-09
3.8509e-09
9.37148e-08
-3.28886e-09
4.15629e-09
9.36539e-08
-3.15571e-09
4.27206e-09
9.34226e-08
-3.01026e-09
4.1896e-09
9.29342e-08
-2.85745e-09
3.92081e-09
9.20806e-08
-2.70242e-09
3.48248e-09
9.0727e-08
-2.54994e-09
2.90712e-09
8.87037e-08
-2.40436e-09
2.23273e-09
8.5796e-08
-2.26881e-09
1.5205e-09
8.17279e-08
-2.14518e-09
8.32589e-10
7.61436e-08
-2.03402e-09
2.51768e-10
6.85751e-08
-1.93626e-09
-1.17123e-10
5.84126e-08
-1.85324e-09
3.61474e-08
-1.67671e-09
-1.61993e-10
3.73971e-08
-1.12182e-09
-7.06759e-10
6.00131e-08
-1.18173e-09
-1.41275e-09
7.0361e-08
-1.21297e-09
-2.18871e-09
7.80553e-08
-1.27619e-09
-2.96112e-09
8.37173e-08
-1.36257e-09
-3.66715e-09
8.7825e-08
-1.46678e-09
-4.25856e-09
9.07422e-08
-1.58611e-09
-4.70642e-09
9.27523e-08
-1.71767e-09
-4.97193e-09
9.40764e-08
-1.85764e-09
-5.04597e-09
9.48896e-08
-2.0014e-09
-4.92177e-09
9.53319e-08
-2.14399e-09
-4.60007e-09
9.55158e-08
-2.2803e-09
-4.09545e-09
9.5532e-08
-2.40543e-09
-3.42476e-09
9.54532e-08
-2.5148e-09
-2.62256e-09
9.53364e-08
-2.60441e-09
-1.71702e-09
9.52245e-08
-2.67093e-09
-7.4693e-10
9.51479e-08
-2.71191e-09
2.44204e-10
9.51244e-08
-2.72582e-09
1.22229e-09
9.51599e-08
-2.71215e-09
2.13802e-09
9.52482e-08
-2.6714e-09
2.95756e-09
9.53715e-08
-2.60508e-09
3.65076e-09
9.54993e-08
-2.51563e-09
4.1811e-09
9.55885e-08
-2.40637e-09
4.53539e-09
9.55819e-08
-2.28129e-09
4.69732e-09
9.54067e-08
-2.14495e-09
4.6605e-09
9.49721e-08
-2.00227e-09
4.43411e-09
9.41654e-08
-1.8583e-09
4.03484e-09
9.28466e-08
-1.718e-09
3.48255e-09
9.08403e-08
-1.586e-09
2.81893e-09
8.79255e-08
-1.46605e-09
2.08851e-09
8.38187e-08
-1.36104e-09
1.35046e-09
7.81558e-08
-1.2735e-09
6.74506e-10
7.04589e-08
-1.20821e-09
1.55653e-10
6.01066e-08
-1.17335e-09
3.7411e-08
-1.1089e-09
-4.01521e-10
3.83445e-08
-5.44092e-10
-1.07951e-09
6.11807e-08
-4.91441e-10
-1.86708e-09
7.16225e-08
-4.74264e-10
-2.67943e-09
7.9373e-08
-5.04376e-10
-3.45469e-09
8.50588e-08
-5.66162e-10
-4.14403e-09
8.91631e-08
-6.50627e-10
-4.70121e-09
9.20547e-08
-7.53143e-10
-5.10132e-09
9.40218e-08
-8.69856e-10
-5.31856e-09
9.52899e-08
-9.96336e-10
-5.33927e-09
9.60389e-08
-1.12776e-09
-5.16196e-09
9.64126e-08
-1.25901e-09
-4.78898e-09
9.65278e-08
-1.38512e-09
-4.23379e-09
9.64785e-08
-1.50126e-09
-3.51769e-09
9.63409e-08
-1.60306e-09
-2.66987e-09
9.61746e-08
-1.68659e-09
-1.72106e-09
9.60254e-08
-1.74874e-09
-7.09712e-10
9.59247e-08
-1.78709e-09
3.20769e-10
9.58918e-08
-1.80025e-09
1.33671e-09
9.59327e-08
-1.78766e-09
2.29365e-09
9.60413e-08
-1.74986e-09
3.15468e-09
9.61983e-08
-1.68824e-09
3.88799e-09
9.6372e-08
-1.6052e-09
4.46188e-09
9.65166e-08
-1.50384e-09
4.86082e-09
9.65725e-08
-1.38806e-09
5.06611e-09
9.64634e-08
-1.26224e-09
5.07506e-09
9.60951e-08
-1.13119e-09
4.88913e-09
9.53507e-08
-9.99873e-10
4.52237e-09
9.40866e-08
-8.73355e-10
3.99729e-09
9.21226e-08
-7.56463e-10
3.34194e-09
8.92334e-08
-6.53587e-10
2.5993e-09
8.51306e-08
-5.68563e-10
1.81522e-09
7.94455e-08
-5.0588e-10
1.05362e-09
7.16949e-08
-4.7408e-10
3.95719e-10
6.12525e-08
-4.88281e-10
3.8344e-08
-5.37123e-10
-5.74007e-10
3.89812e-08
-6.31259e-11
-1.34189e-09
6.18706e-08
7.96902e-11
-2.1858e-09
7.2329e-08
1.36675e-10
-3.02545e-09
8.00764e-08
1.34875e-10
-3.80146e-09
8.57408e-08
9.47443e-11
-4.47335e-09
8.98065e-08
2.88515e-11
-5.0055e-09
9.26451e-08
-5.83698e-11
-5.36933e-09
9.45473e-08
-1.60999e-10
-5.54887e-09
9.57423e-08
-2.74166e-10
-5.53069e-09
9.64131e-08
-3.9291e-10
-5.31177e-09
9.67076e-08
-5.12213e-10
-4.9022e-09
9.67453e-08
-6.27525e-10
-4.31423e-09
9.66239e-08
-7.34231e-10
-3.56851e-09
9.64224e-08
-8.27946e-10
-2.69147e-09
9.62034e-08
-9.05067e-10
-1.71863e-09
9.60142e-08
-9.62474e-10
-6.84323e-10
9.58885e-08
-9.98004e-10
3.71567e-10
9.58461e-08
-1.0102e-09
1.41038e-09
9.58938e-08
-9.98667e-10
2.39045e-09
9.60246e-08
-9.63788e-10
3.27681e-09
9.62188e-08
-9.0701e-10
4.03671e-09
9.64427e-08
-8.30485e-10
4.64144e-09
9.66489e-08
-7.37309e-10
5.06972e-09
9.67746e-08
-6.31093e-10
5.30941e-09
9.6741e-08
-5.16188e-10
5.3501e-09