/*--------------------------------*- C++ -*----------------------------------*\
| =========                 |                                                 |
| \\      /  F ield         | OpenFOAM: The Open Source CFD Toolbox           |
|  \\    /   O peration     | Version:  v2012                                 |
|   \\  /    A nd           | Website:  www.openfoam.com                      |
|    \\/     M anipulation  |                                                 |
\*---------------------------------------------------------------------------*/
FoamFile
{
    version     2.0;
    format      ascii;
    class       volVectorField;
    location    "50";
    object      U;
}
// * * * * * * * * * * * * * * * * * * * * * * * * * * * * * * * * * * * * * //

dimensions      [0 1 -1 0 0 0 0];


internalField   nonuniform List<vector> 
78750
(
(-2.6711e-06 -8.64742e-05 0.000107501)
(-9.79812e-06 -0.000111189 0.000186327)
(-2.7177e-05 -0.000105631 0.000227957)
(-5.17959e-05 -8.76037e-05 0.000258293)
(-8.26177e-05 -6.32781e-05 0.000280095)
(-0.00011843 -3.61604e-05 0.000295452)
(-0.000157965 -8.89374e-06 0.000305595)
(-0.0001998 1.69409e-05 0.000311343)
(-0.000242651 4.00783e-05 0.000313033)
(-0.000285303 5.99807e-05 0.000310877)
(-0.000326691 7.61614e-05 0.000304827)
(-0.000365832 8.86439e-05 0.000294894)
(-0.000401882 9.73428e-05 0.000280993)
(-0.000434106 0.000102518 0.000263209)
(-0.000461903 0.000104274 0.000241616)
(-0.000484779 0.000102995 0.000216539)
(-0.000502293 9.89352e-05 0.000188458)
(-0.000514088 9.25587e-05 0.000158103)
(-0.000520141 8.39657e-05 0.000125353)
(-0.000520227 7.36426e-05 9.14585e-05)
(-0.000514374 6.18315e-05 5.72046e-05)
(-0.000502665 4.88656e-05 2.35148e-05)
(-0.000485262 3.49817e-05 -8.70162e-06)
(-0.000462398 2.04911e-05 -3.84885e-05)
(-0.000434369 5.65092e-06 -6.49321e-05)
(-0.000401547 -9.20202e-06 -8.71383e-05)
(-0.000364361 -2.3727e-05 -0.000104297)
(-0.000323311 -3.74724e-05 -0.000115664)
(-0.000278985 -4.99068e-05 -0.000120625)
(-0.000232047 -6.03187e-05 -0.000118771)
(-0.00018308 -6.7806e-05 -0.000109952)
(-0.000132518 -7.11338e-05 -9.44753e-05)
(-8.20184e-05 -6.86139e-05 -7.31667e-05)
(-4.12207e-05 -5.81387e-05 -4.79973e-05)
(-1.2277e-05 -3.18664e-05 -1.33642e-05)
(-9.59131e-06 0.000212134 -0.000293865)
(-3.94863e-05 0.000425758 -0.000408078)
(-7.4994e-05 0.000533577 -0.000444308)
(-0.000125153 0.000615618 -0.000477491)
(-0.000177507 0.000674516 -0.000505307)
(-0.000228902 0.000712648 -0.000526235)
(-0.000277992 0.000733728 -0.00054134)
(-0.000323765 0.000739553 -0.000552603)
(-0.000365332 0.00073328 -0.000560547)
(-0.000401865 0.000716194 -0.000566206)
(-0.000433235 0.000690741 -0.000569763)
(-0.000459049 0.000657901 -0.000572002)
(-0.000479252 0.000619872 -0.000572912)
(-0.000493914 0.00057733 -0.000573055)
(-0.000503021 0.000532106 -0.000572321)
(-0.000506972 0.000484332 -0.000571345)
(-0.000505881 0.000435504 -0.000569952)
(-0.000500037 0.000385994 -0.000568442)
(-0.000489746 0.000336904 -0.000566621)
(-0.000475351 0.000288485 -0.000564644)
(-0.000457204 0.000241534 -0.000562318)
(-0.000435668 0.000196174 -0.00055977)
(-0.0004111 0.000152953 -0.000556712)
(-0.000383869 0.000111928 -0.000553043)
(-0.000354336 7.34705e-05 -0.000548438)
(-0.000322857 3.76196e-05 -0.000542627)
(-0.000289776 4.65146e-06 -0.000535063)
(-0.000255439 -2.53639e-05 -0.000525064)
(-0.000220205 -5.21669e-05 -0.000511515)
(-0.000184432 -7.55804e-05 -0.00049287)
(-0.00014828 -9.51782e-05 -0.000466901)
(-0.000111449 -0.000110247 -0.000429393)
(-7.42293e-05 -0.000118981 -0.000370069)
(-4.4731e-05 -0.000116696 -0.000275986)
(-2.3044e-05 -7.32212e-05 -8.78375e-05)
(-7.38375e-06 0.000450576 -0.00015483)
(-2.57508e-05 0.000779894 -0.000240785)
(-4.30176e-05 0.000921236 -0.000276002)
(-6.75955e-05 0.00101745 -0.000300467)
(-9.22777e-05 0.00107735 -0.000319042)
(-0.000115747 0.00110978 -0.00033368)
(-0.00013762 0.00111939 -0.000346263)
(-0.000157617 0.00111181 -0.00035718)
(-0.000175402 0.00108965 -0.00036734)
(-0.000190743 0.00105677 -0.000376508)
(-0.000203546 0.00101471 -0.000385208)
(-0.000213739 0.000966303 -0.000393017)
(-0.000221361 0.000912546 -0.000400281)
(-0.000226425 0.000855633 -0.00040655)
(-0.00022907 0.00079621 -0.000412078)
(-0.000229335 0.000735963 -0.000416667)
(-0.000227449 0.000675244 -0.000420524)
(-0.000223566 0.00061527 -0.000423343)
(-0.000217862 0.000556226 -0.00042536)
(-0.000210545 0.000499211 -0.000426214)
(-0.000201792 0.000444293 -0.000426117)
(-0.000191763 0.000392072 -0.000424918)
(-0.000180655 0.000342545 -0.000422766)
(-0.000168609 0.000296094 -0.000419516)
(-0.00015579 0.000252667 -0.000415218)
(-0.000142309 0.000212503 -0.000409645)
(-0.000128308 0.000175549 -0.000402643)
(-0.000113886 0.000141969 -0.000393715)
(-9.9182e-05 0.000111747 -0.000382238)
(-8.42866e-05 8.50524e-05 -0.000367069)
(-6.92406e-05 6.19625e-05 -0.000346468)
(-5.37863e-05 4.27598e-05 -0.000317107)
(-3.77176e-05 2.76275e-05 -0.000273085)
(-2.36953e-05 1.72185e-05 -0.000207759)
(-1.42015e-05 1.0233e-05 -6.51465e-05)
(-9.64742e-06 0.00055635 0.00010606)
(-2.12552e-05 0.000918205 8.32416e-05)
(-2.80165e-05 0.0010758 5.22645e-05)
(-3.74264e-05 0.00118328 2.6898e-05)
(-4.57455e-05 0.00125198 8.32526e-06)
(-5.31583e-05 0.00128962 -8.61101e-06)
(-5.97948e-05 0.00130331 -2.56201e-05)
(-6.57356e-05 0.00129736 -4.37396e-05)
(-7.08669e-05 0.00127656 -6.25503e-05)
(-7.51665e-05 0.00124342 -8.24215e-05)
(-7.85775e-05 0.00120133 -0.000102737)
(-8.11045e-05 0.00115179 -0.000123662)
(-8.27286e-05 0.00109732 -0.000144542)
(-8.35571e-05 0.00103882 -0.000165512)
(-8.35701e-05 0.000978202 -0.000185682)
(-8.27862e-05 0.00091644 -0.000204783)
(-8.13492e-05 0.000854982 -0.000222412)
(-7.9358e-05 0.000794137 -0.000238716)
(-7.68818e-05 0.000734918 -0.000253358)
(-7.40362e-05 0.000677473 -0.000266462)
(-7.08771e-05 0.000622498 -0.000277777)
(-6.75148e-05 0.000570019 -0.000287418)
(-6.4014e-05 0.000520485 -0.000295197)
(-6.04285e-05 0.000473613 -0.000301336)
(-5.68081e-05 0.000429645 -0.000305681)
(-5.32017e-05 0.000388392 -0.000308312)
(-4.96022e-05 0.000350016 -0.000308985)
(-4.6027e-05 0.000314327 -0.000307595)
(-4.23992e-05 0.000281146 -0.000303812)
(-3.86513e-05 0.000250026 -0.000297259)
(-3.45781e-05 0.000220589 -0.000287187)
(-2.97276e-05 0.000192249 -0.000273224)
(-2.32787e-05 0.000164275 -0.000254913)
(-1.60652e-05 0.000135769 -0.000226418)
(-1.09732e-05 8.61372e-05 -0.000126389)
(-1.14188e-05 0.000553578 0.000238985)
(-1.92899e-05 0.000875506 0.000253036)
(-2.02417e-05 0.00101808 0.000225973)
(-2.01943e-05 0.00111832 0.000201772)
(-1.76835e-05 0.00118482 0.000184208)
(-1.38536e-05 0.00122516 0.000168206)
(-9.2767e-06 0.00124415 0.000150988)
(-4.40647e-06 0.00124679 0.000132474)
(5.85366e-07 0.00123589 0.000112446)
(5.47509e-06 0.00121491 9.14014e-05)
(1.01603e-05 0.00118555 6.9306e-05)
(1.45155e-05 0.00115032 4.68e-05)
(1.84718e-05 0.00111029 2.39939e-05)
(2.19877e-05 0.00106739 1.5045e-06)
(2.48901e-05 0.00102223 -2.09049e-05)
(2.72103e-05 0.00097617 -4.26353e-05)
(2.89522e-05 0.000929622 -6.34678e-05)
(3.00864e-05 0.000883635 -8.29849e-05)
(3.05871e-05 0.000838378 -0.000101173)
(3.04686e-05 0.000794564 -0.000117744)
(2.97081e-05 0.000752199 -0.000132741)
(2.83302e-05 0.000711733 -0.000145976)
(2.63273e-05 0.00067304 -0.000157534)
(2.37367e-05 0.000636344 -0.000167301)
(2.05677e-05 0.000601393 -0.000175381)
(1.68791e-05 0.000568199 -0.000181706)
(1.27272e-05 0.000536334 -0.000186393)
(8.23196e-06 0.000505538 -0.000189403)
(3.57475e-06 0.000474973 -0.000190886)
(-1.04339e-06 0.00044397 -0.000190704)
(-5.3521e-06 0.000411275 -0.000189015)
(-8.83547e-06 0.000375437 -0.000187132)
(-1.04076e-05 0.000334084 -0.000188083)
(-9.05744e-06 0.000284548 -0.000186707)
(-7.7248e-06 0.000183293 -0.00012615)
(-7.75918e-06 0.000511056 0.000259716)
(-1.05126e-05 0.000779577 0.000278179)
(-8.42668e-06 0.000901244 0.000252479)
(-3.95763e-06 0.000989186 0.000229394)
(2.73255e-06 0.00105135 0.00021353)
(1.05202e-05 0.00109249 0.00019945)
(1.87597e-05 0.00111751 0.000184817)
(2.70312e-05 0.00112916 0.000169074)
(3.50425e-05 0.00113068 0.000152385)
(4.25475e-05 0.00112368 0.000134701)
(4.93912e-05 0.00111043 0.000116302)
(5.54178e-05 0.00109193 9.72641e-05)
(6.05584e-05 0.00106983 7.79625e-05)
(6.47465e-05 0.00104468 5.85879e-05)
(6.79699e-05 0.0010177 3.95448e-05)
(7.01907e-05 0.000989299 2.0966e-05)
(7.13916e-05 0.00096038 3.08544e-06)
(7.15789e-05 0.000931099 -1.40015e-05)
(7.08016e-05 0.000902127 -3.00323e-05)
(6.9053e-05 0.000873488 -4.497e-05)
(6.63964e-05 0.000845651 -5.86201e-05)
(6.2845e-05 0.000818484 -7.1009e-05)
(5.84738e-05 0.00079223 -8.20104e-05)
(5.33202e-05 0.00076661 -9.1701e-05)
(4.74826e-05 0.000741634 -0.000100011)
(4.10302e-05 0.000716813 -0.000107069)
(3.41052e-05 0.000691851 -0.000112873)
(2.6843e-05 0.000665922 -0.000117627)
(1.94602e-05 0.000638236 -0.000121383)
(1.21745e-05 0.000607384 -0.000124347)
(5.29723e-06 0.000571737 -0.000126817)
(-6.98824e-07 0.000528839 -0.000130733)
(-4.76957e-06 0.00047553 -0.000139811)
(-5.60118e-06 0.000407471 -0.000149784)
(-5.57216e-06 0.00026175 -0.00011197)
(-3.77277e-06 0.00044846 0.00021065)
(-3.27597e-06 0.000681198 0.000218445)
(-4.58165e-07 0.000788482 0.000194734)
(4.61207e-06 0.000868889 0.000174437)
(1.10559e-05 0.000928307 0.00016084)
(1.81115e-05 0.000971444 0.000149528)
(2.53696e-05 0.00100151 0.000138306)
(3.25637e-05 0.00102151 0.000126782)
(3.94707e-05 0.00103322 0.000114803)
(4.59084e-05 0.00103865 0.000102432)
(5.17274e-05 0.00103878 8.96331e-05)
(5.68343e-05 0.00103503 7.65725e-05)
(6.11424e-05 0.00102796 6.33133e-05)
(6.46056e-05 0.0010186 5.00898e-05)
(6.7169e-05 0.00100726 3.6968e-05)
(6.88201e-05 0.000994711 2.41946e-05)
(6.95383e-05 0.000981088 1.18307e-05)
(6.9347e-05 0.000966976 8.39856e-08)
(6.82435e-05 0.000952356 -1.10253e-05)
(6.62668e-05 0.000937646 -2.13289e-05)
(6.34343e-05 0.000922699 -3.08477e-05)
(5.98051e-05 0.000907758 -3.94555e-05)
(5.54203e-05 0.000892527 -4.72162e-05)
(5.03577e-05 0.000877044 -5.40465e-05)
(4.46816e-05 0.000860805 -6.00552e-05)
(3.85025e-05 0.000843566 -6.52058e-05)
(3.19305e-05 0.0008245 -6.96612e-05)
(2.51207e-05 0.000802911 -7.34558e-05)
(1.82532e-05 0.000777392 -7.68057e-05)
(1.15506e-05 0.000746468 -7.97615e-05)
(5.28036e-06 0.000707705 -8.27602e-05)
(-1.48364e-07 0.000658256 -8.73167e-05)
(-3.87987e-06 0.000593814 -9.67132e-05)
(-4.82504e-06 0.000509062 -0.000107438)
(-4.60294e-06 0.000323753 -8.18883e-05)
(-1.66557e-06 0.000398537 0.00014774)
(-5.28208e-07 0.000617624 0.000147808)
(1.20534e-06 0.00071978 0.000129738)
(4.31106e-06 0.000797591 0.000114518)
(8.07589e-06 0.000857 0.000104264)
(1.21521e-05 0.000901925 9.58277e-05)
(1.63323e-05 0.000935869 8.77996e-05)
(2.05135e-05 0.00096098 7.9749e-05)
(2.45569e-05 0.000979406 7.16604e-05)
(2.83673e-05 0.00099231 6.34177e-05)
(3.1856e-05 0.00100109 5.50984e-05)
(3.49515e-05 0.00100636 4.66688e-05)
(3.75979e-05 0.00100909 3.82745e-05)
(3.97382e-05 0.00100957 2.99223e-05)
(4.13232e-05 0.00100851 2.18029e-05)
(4.23649e-05 0.00100599 1.39056e-05)
(4.2813e-05 0.00100256 6.41352e-06)
(4.26613e-05 0.000998155 -6.92838e-07)
(4.19216e-05 0.000993162 -7.26782e-06)
(4.05901e-05 0.000987412 -1.3361e-05)
(3.86958e-05 0.000981139 -1.88528e-05)
(3.62545e-05 0.000974042 -2.38274e-05)
(3.33103e-05 0.000966187 -2.81941e-05)
(2.99043e-05 0.000957087 -3.20704e-05)
(2.61033e-05 0.000946566 -3.53943e-05)
(2.19787e-05 0.000933851 -3.83181e-05)
(1.76256e-05 0.000918376 -4.08159e-05)
(1.3159e-05 0.00089888 -4.30851e-05)
(8.72038e-06 0.00087413 -4.51284e-05)
(4.47668e-06 0.000842007 -4.71399e-05)
(6.2539e-07 0.000800092 -4.92588e-05)
(-2.52829e-06 0.000744743 -5.26435e-05)
(-4.40884e-06 0.000671392 -5.93274e-05)
(-4.49697e-06 0.000573654 -6.68933e-05)
(-3.6685e-06 0.000359073 -4.92117e-05)
(-1.25293e-06 0.000365234 0.000100408)
(-8.17218e-07 0.000582473 0.000101723)
(-4.97512e-07 0.000683841 9.1906e-05)
(3.40522e-07 0.000761755 8.33099e-05)
(1.51688e-06 0.00082171 7.71733e-05)
(2.89326e-06 0.00086817 7.1949e-05)
(4.39193e-06 0.000904114 6.68186e-05)
(5.97508e-06 0.000932162 6.17002e-05)
(7.58893e-06 0.000953897 5.65038e-05)
(9.18715e-06 0.000970919 5.13155e-05)
(1.07214e-05 0.000984043 4.60772e-05)
(1.21527e-05 0.000994302 4.0922e-05)
(1.34374e-05 0.00100208 3.58175e-05)
(1.45435e-05 0.00100807 3.0913e-05)
(1.54388e-05 0.00101241 2.61826e-05)
(1.60769e-05 0.00101562 2.17534e-05)
(1.64625e-05 0.00101765 1.75757e-05)
(1.65739e-05 0.00101887 1.37819e-05)
(1.64021e-05 0.0010191 1.02904e-05)
(1.59329e-05 0.00101857 7.26046e-06)
(1.51685e-05 0.001017 4.58116e-06)
(1.41193e-05 0.00101447 2.33593e-06)
(1.27992e-05 0.00101053 3.92362e-07)
(1.12366e-05 0.00100507 -1.18622e-06)
(9.46203e-06 0.000997402 -2.55619e-06)
(7.52271e-06 0.000987117 -3.67512e-06)
(5.47889e-06 0.000973118 -4.72643e-06)
(3.40033e-06 0.000954483 -5.69543e-06)
(1.37129e-06 0.000929419 -6.78592e-06)
(-5.1208e-07 0.000896085 -7.98595e-06)
(-2.13017e-06 0.000851456 -9.58521e-06)
(-3.31645e-06 0.000792049 -1.21701e-05)
(-3.75236e-06 0.000712605 -1.71762e-05)
(-3.28047e-06 0.000606682 -2.30864e-05)
(-2.33453e-06 0.000373996 -1.56367e-05)
(-1.79391e-06 0.000344696 7.22035e-05)
(-2.4273e-06 0.000561955 8.10531e-05)
(-3.37771e-06 0.000663279 7.99868e-05)
(-4.34641e-06 0.000741031 7.79266e-05)
(-5.04977e-06 0.000801127 7.59863e-05)
(-5.51714e-06 0.00084774 7.37421e-05)
(-5.80136e-06 0.000884281 7.11639e-05)
(-5.90498e-06 0.000912974 6.8246e-05)
(-5.84776e-06 0.000935831 6.5169e-05)
(-5.64291e-06 0.000954008 6.19284e-05)
(-5.31445e-06 0.000968743 5.86842e-05)
(-4.88039e-06 0.000980595 5.54189e-05)
(-4.37287e-06 0.000990367 5.22881e-05)
(-3.81473e-06 0.000998277 4.92615e-05)
(-3.22445e-06 0.00100487 4.64809e-05)
(-2.64483e-06 0.00101013 4.39362e-05)
(-2.09029e-06 0.00101445 4.17595e-05)
(-1.58976e-06 0.00101769 3.98881e-05)
(-1.17137e-06 0.00102012 3.84156e-05)
(-8.29443e-07 0.0010215 3.71839e-05)
(-5.88488e-07 0.00102195 3.62879e-05)
(-4.49903e-07 0.00102105 3.56075e-05)
(-4.17516e-07 0.00101879 3.52027e-05)
(-4.83802e-07 0.00101455 3.49243e-05)
(-6.39457e-07 0.00100807 3.48066e-05)
(-8.68562e-07 0.000998434 3.46752e-05)
(-1.14297e-06 0.000984991 3.45382e-05)
(-1.43709e-06 0.000966314 3.41911e-05)
(-1.71584e-06 0.000941045 3.36097e-05)
(-1.93971e-06 0.000906856 3.25608e-05)
(-2.07408e-06 0.000861143 3.09218e-05)
(-2.06609e-06 0.000799962 2.80609e-05)
(-1.82118e-06 0.000718447 2.30755e-05)
(-1.30905e-06 0.000609746 1.62854e-05)
(-7.29898e-07 0.000371849 1.18119e-05)
(-2.41315e-06 0.000330408 5.64658e-05)
(-3.8662e-06 0.000544671 7.37501e-05)
(-5.60735e-06 0.000644286 7.95702e-05)
(-7.63593e-06 0.000720716 8.26122e-05)
(-9.34264e-06 0.000779545 8.38804e-05)
(-1.07515e-05 0.000825262 8.39668e-05)
(-1.19028e-05 0.000860897 8.31571e-05)
(-1.28139e-05 0.000889043 8.17827e-05)
(-1.34718e-05 0.000911309 7.9971e-05)
(-1.38917e-05 0.000929241 7.79475e-05)
(-1.40728e-05 0.00094366 7.57621e-05)
(-1.40365e-05 0.000955529 7.35928e-05)
(-1.37902e-05 0.000965223 7.14515e-05)
(-1.33656e-05 0.000973373 6.94891e-05)
(-1.27756e-05 0.000980087 6.76884e-05)
(-1.20575e-05 0.000985794 6.6175e-05)
(-1.12303e-05 0.000990429 6.48989e-05)
(-1.0328e-05 0.000994276 6.39545e-05)
(-9.37378e-06 0.000997111 6.32861e-05)
(-8.40134e-06 0.000999081 6.29756e-05)
(-7.42677e-06 0.00099986 6.29102e-05)
(-6.46992e-06 0.000999479 6.31298e-05)
(-5.54361e-06 0.000997446 6.34981e-05)
(-4.66706e-06 0.000993606 6.40294e-05)
(-3.84199e-06 0.000987232 6.45628e-05)
(-3.0729e-06 0.000977874 6.50863e-05)
(-2.3626e-06 0.000964425 6.54088e-05)
(-1.71111e-06 0.000945934 6.54807e-05)
(-1.11514e-06 0.000920635 6.5063e-05)
(-5.7666e-07 0.000886697 6.40407e-05)
(-1.11308e-07 0.000841178 6.20486e-05)
(2.5036e-07 0.000780666 5.8621e-05)
(4.6837e-07 0.000700103 5.27412e-05)
(6.22518e-07 0.000593226 4.40944e-05)
(6.31003e-07 0.000359849 2.92904e-05)
(-2.61408e-06 0.000318916 4.36088e-05)
(-4.40099e-06 0.000526688 6.50806e-05)
(-6.46351e-06 0.000623193 7.44658e-05)
(-8.87977e-06 0.000696959 8.01047e-05)
(-1.09642e-05 0.000753718 8.30722e-05)
(-1.27055e-05 0.000797515 8.4292e-05)
(-1.41685e-05 0.000831633 8.43932e-05)
(-1.53409e-05 0.000858261 8.36829e-05)
(-1.62318e-05 0.000879326 8.24669e-05)
(-1.68218e-05 0.00089599 8.08866e-05)
(-1.71286e-05 0.000909424 7.91538e-05)
(-1.71465e-05 0.000920214 7.73403e-05)
(-1.69025e-05 0.000929102 7.56093e-05)
(-1.64007e-05 0.000936339 7.39928e-05)
(-1.56796e-05 0.000942411 7.26202e-05)
(-1.47551e-05 0.000947358 7.14908e-05)
(-1.36711e-05 0.0009515 7.07019e-05)
(-1.24469e-05 0.000954724 7.02187e-05)
(-1.11275e-05 0.000957222 7.0105e-05)
(-9.74068e-06 0.000958748 7.0291e-05)
(-8.3278e-06 0.000959367 7.08057e-05)
(-6.91413e-06 0.000958697 7.15453e-05)
(-5.53221e-06 0.000956649 7.25061e-05)
(-4.20595e-06 0.000952658 7.35536e-05)
(-2.95611e-06 0.000946415 7.46536e-05)
(-1.79754e-06 0.000937076 7.56407e-05)
(-7.45691e-07 0.000923973 7.64451e-05)
(1.82259e-07 0.000905795 7.68588e-05)
(9.78678e-07 0.000881251 7.67513e-05)
(1.62174e-06 0.000848215 7.5835e-05)
(2.08474e-06 0.000804286 7.38294e-05)
(2.29292e-06 0.000745873 7.01223e-05)
(2.16977e-06 0.000668579 6.38032e-05)
(1.8691e-06 0.00056617 5.40587e-05)
(1.40618e-06 0.00034332 3.39619e-05)
(-2.19886e-06 0.000310278 2.83022e-05)
(-3.87947e-06 0.000511118 4.7683e-05)
(-5.8411e-06 0.000604181 5.69384e-05)
(-8.19577e-06 0.000675241 6.26483e-05)
(-1.02643e-05 0.000729618 6.55781e-05)
(-1.20372e-05 0.000771469 6.6779e-05)
(-1.35256e-05 0.00080371 6.6809e-05)
(-1.47387e-05 0.000828757 6.60602e-05)
(-1.564e-05 0.000848198 6.47453e-05)
(-1.62312e-05 0.00086348 6.31029e-05)
(-1.64963e-05 0.000875452 6.12613e-05)
(-1.64561e-05 0.000885014 5.93967e-05)
(-1.61067e-05 0.000892595 5.75898e-05)
(-1.54823e-05 0.000898772 5.59785e-05)
(-1.45993e-05 0.000903717 5.46083e-05)
(-1.34994e-05 0.000907804 5.35818e-05)
(-1.22146e-05 0.00091103 5.2908e-05)
(-1.07938e-05 0.000913621 5.26517e-05)
(-9.27354e-06 0.000915435 5.27829e-05)
(-7.70397e-06 0.000916568 5.33258e-05)
(-6.12286e-06 0.000916746 5.42108e-05)
(-4.5753e-06 0.000915927 5.54233e-05)
(-3.09543e-06 0.000913681 5.68574e-05)
(-1.71839e-06 0.000909789 5.84632e-05)
(-4.68236e-07 0.000903607 6.01027e-05)
(6.30604e-07 0.000894649 6.16938e-05)
(1.56149e-06 0.000881932 6.30646e-05)
(2.31032e-06 0.000864528 6.40934e-05)
(2.86548e-06 0.000840878 6.45564e-05)
(3.21973e-06 0.000809279 6.42584e-05)
(3.34671e-06 0.000767152 6.2847e-05)
(3.1985e-06 0.000711401 5.98456e-05)
(2.705e-06 0.000637613 5.43622e-05)
(2.10368e-06 0.000540169 4.56835e-05)
(1.44023e-06 0.000328267 2.69691e-05)
(-1.35561e-06 0.000306319 9.70139e-06)
(-2.65981e-06 0.000502953 2.14513e-05)
(-4.2935e-06 0.000593965 2.77168e-05)
(-6.32914e-06 0.000663165 3.14521e-05)
(-8.23208e-06 0.000715959 3.30299e-05)
(-9.91481e-06 0.000756208 3.32168e-05)
(-1.13762e-05 0.000787012 3.24874e-05)
(-1.25732e-05 0.000810525 3.11069e-05)
(-1.34844e-05 0.000828572 2.93044e-05)
(-1.40693e-05 0.000842354 2.71845e-05)
(-1.43309e-05 0.000852985 2.49291e-05)
(-1.42544e-05 0.000861124 2.2668e-05)
(-1.38634e-05 0.000867476 2.05447e-05)
(-1.31709e-05 0.000872378 1.86505e-05)
(-1.22146e-05 0.000876282 1.70974e-05)
(-1.10276e-05 0.000879314 1.59385e-05)
(-9.66277e-06 0.000881751 1.5248e-05)
(-8.16098e-06 0.000883561 1.50368e-05)
(-6.58316e-06 0.000884879 1.53346e-05)
(-4.98042e-06 0.000885535 1.6108e-05)
(-3.40381e-06 0.000885524 1.73413e-05)
(-1.90028e-06 0.000884531 1.89581e-05)
(-5.17788e-07 0.000882392 2.09016e-05)
(7.06556e-07 0.000878614 2.3059e-05)
(1.7474e-06 0.000872818 2.534e-05)
(2.57715e-06 0.00086425 2.76033e-05)
(3.18685e-06 0.000852203 2.97312e-05)
(3.56773e-06 0.0008355 3.15567e-05)
(3.7272e-06 0.000812878 3.29304e-05)
(3.66409e-06 0.000782426 3.36513e-05)
(3.39968e-06 0.000741899 3.34948e-05)
(2.91118e-06 0.000688071 3.2084e-05)
(2.21077e-06 0.000616934 2.88278e-05)
(1.5292e-06 0.000522883 2.33266e-05)
(9.23815e-07 0.000318546 1.17746e-05)
(-3.84761e-07 0.00030894 -9.06799e-06)
(-1.28914e-06 0.000506357 -7.42988e-06)
(-2.5076e-06 0.000597504 -5.47972e-06)
(-4.1893e-06 0.000666616 -4.61067e-06)
(-5.89483e-06 0.000718974 -5.01533e-06)
(-7.50257e-06 0.000758654 -6.28743e-06)
(-8.93665e-06 0.000788614 -8.20081e-06)
(-1.01431e-05 0.000811223 -1.05939e-05)
(-1.10618e-05 0.000828147 -1.33414e-05)
(-1.16694e-05 0.000840815 -1.62383e-05)
(-1.19369e-05 0.00085019 -1.91662e-05)
(-1.18669e-05 0.000857167 -2.19967e-05)
(-1.14645e-05 0.00086229 -2.4615e-05)
(-1.07603e-05 0.000866131 -2.69052e-05)
(-9.78116e-06 0.000868971 -2.87778e-05)
(-8.57827e-06 0.000871163 -3.01463e-05)
(-7.19925e-06 0.000872801 -3.0961e-05)
(-5.70337e-06 0.000874072 -3.11787e-05)
(-4.14878e-06 0.000874913 -3.07969e-05)
(-2.59913e-06 0.000875361 -2.9822e-05)
(-1.11093e-06 0.000875204 -2.83e-05)
(2.6115e-07 0.000874322 -2.62854e-05)
(1.46566e-06 0.000872334 -2.38672e-05)
(2.46752e-06 0.000868932 -2.11384e-05)
(3.23135e-06 0.000863516 -1.82196e-05)
(3.74211e-06 0.000855512 -1.52278e-05)
(3.99172e-06 0.000843991 -1.23002e-05)
(3.98869e-06 0.000827956 -9.56139e-06)
(3.74676e-06 0.00080593 -7.14817e-06)
(3.30623e-06 0.000776187 -5.17273e-06)
(2.69879e-06 0.000736292 -3.76904e-06)
(1.97332e-06 0.000683209 -3.09401e-06)
(1.19949e-06 0.000612782 -3.41261e-06)
(6.08969e-07 0.000519612 -4.60529e-06)
(1.62047e-07 0.000316943 -6.15689e-06)
(4.25126e-07 0.000318737 -2.47921e-05)
(-1.56991e-07 0.000521996 -3.27395e-05)
(-9.9349e-07 0.000615669 -3.50192e-05)
(-2.33227e-06 0.00068635 -3.70111e-05)
(-3.84454e-06 0.000739603 -3.9362e-05)
(-5.34309e-06 0.000779535 -4.2024e-05)
(-6.73531e-06 0.000809353 -4.49602e-05)
(-7.92735e-06 0.000831415 -4.81455e-05)
(-8.86451e-06 0.000847627 -5.15275e-05)
(-9.49194e-06 0.000859363 -5.50124e-05)
(-9.79111e-06 0.000867788 -5.84768e-05)
(-9.74829e-06 0.000873708 -6.17953e-05)
(-9.37614e-06 0.000877862 -6.48413e-05)
(-8.69473e-06 0.000880714 -6.74989e-05)
(-7.74619e-06 0.00088273 -6.9663e-05)
(-6.57069e-06 0.000884143 -7.12496e-05)
(-5.22927e-06 0.000885216 -7.21941e-05)
(-3.78246e-06 0.000886003 -7.24587e-05)
(-2.29777e-06 0.000886595 -7.20302e-05)
(-8.37741e-07 0.000886884 -7.09235e-05)
(5.34031e-07 0.000886795 -6.91787e-05)
(1.75633e-06 0.000886049 -6.68612e-05)
(2.78233e-06 0.000884389 -6.40574e-05)
(3.56629e-06 0.000881337 -6.08717e-05)
(4.08487e-06 0.000876403 -5.74208e-05)
(4.31853e-06 0.000868831 -5.38283e-05)
(4.27099e-06 0.000857788 -5.02179e-05)
(3.95513e-06 0.000842086 -4.67028e-05)
(3.41056e-06 0.000820329 -4.33786e-05)
(2.67668e-06 0.000790589 -4.03002e-05)
(1.83646e-06 0.000750481 -3.74901e-05)
(9.62351e-07 0.000696756 -3.49233e-05)
(2.03126e-07 0.000625254 -3.25318e-05)
(-2.39863e-07 0.00053034 -2.97245e-05)
(-5.35487e-07 0.000323634 -2.18867e-05)
(9.10569e-07 0.000334383 -3.45319e-05)
(4.80687e-07 0.000547114 -4.89543e-05)
(-7.55611e-08 0.000644948 -5.41779e-05)
(-1.17471e-06 0.000718531 -5.81867e-05)
(-2.5167e-06 0.000773629 -6.19346e-05)
(-3.91082e-06 0.000814674 -6.56386e-05)
(-5.22837e-06 0.000844964 -6.94083e-05)
(-6.37795e-06 0.000867087 -7.32871e-05)
(-7.28767e-06 0.000882971 -7.7257e-05)
(-7.90831e-06 0.000894181 -8.12474e-05)
(-8.20277e-06 0.000901871 -8.51537e-05)
(-8.16578e-06 0.00090702 -8.88596e-05)
(-7.80146e-06 0.00091033 -9.22403e-05)
(-7.13663e-06 0.000912416 -9.51804e-05)
(-6.20423e-06 0.000913688 -9.75716e-05)
(-5.05644e-06 0.000914512 -9.93284e-05)
(-3.74896e-06 0.000915078 -0.000100382)
(-2.35014e-06 0.000915555 -0.000100695)
(-9.23132e-07 0.000915944 -0.00010025)
(4.62301e-07 0.000916232 -9.9066e-05)
(1.73859e-06 0.000916237 -9.71804e-05)
(2.84817e-06 0.00091576 -9.4664e-05)
(3.73945e-06 0.00091442 -9.16022e-05)
(4.37206e-06 0.000911797 -8.81053e-05)
(4.71502e-06 0.000907263 -8.42875e-05)
(4.76368e-06 0.000900102 -8.02752e-05)
(4.51315e-06 0.000889326 -7.61824e-05)
(3.99486e-06 0.000873763 -7.21132e-05)
(3.24827e-06 0.000851835 -6.81339e-05)
(2.33878e-06 0.000821598 -6.42601e-05)
(1.34423e-06 0.000780446 -6.04365e-05)
(3.85696e-07 0.000725055 -5.65163e-05)
(-3.6526e-07 0.00065097 -5.22039e-05)
(-6.93132e-07 0.000552384 -4.65982e-05)
(-9.58213e-07 0.000337316 -3.22562e-05)
(1.02395e-06 0.000353637 -3.79021e-05)
(5.80069e-07 0.000577316 -5.4748e-05)
(1.34364e-07 0.000680049 -6.11591e-05)
(-8.57854e-07 0.000757062 -6.60057e-05)
(-2.11197e-06 0.000814486 -7.03452e-05)
(-3.4201e-06 0.000856969 -7.44946e-05)
(-4.66499e-06 0.000888059 -7.8628e-05)
(-5.74411e-06 0.000910453 -8.28122e-05)
(-6.59111e-06 0.000926263 -8.70514e-05)
(-7.15389e-06 0.000937105 -9.12783e-05)
(-7.40223e-06 0.000944283 -9.53995e-05)
(-7.32052e-06 0.000948791 -9.92944e-05)
(-6.92404e-06 0.000951454 -0.000102845)
(-6.23053e-06 0.000952883 -0.000105928)
(-5.27997e-06 0.000953587 -0.000108441)
(-4.12206e-06 0.00095391 -0.00011029)
(-2.81607e-06 0.000954123 -0.000111412)
(-1.42408e-06 0.000954354 -0.000111761)
(-1.62126e-08 0.000954668 -0.000111328)
(1.33848e-06 0.000954991 -0.000110123)
(2.57645e-06 0.000955189 -0.000108191)
(3.63572e-06 0.000954983 -0.000105596)
(4.47055e-06 0.000954021 -0.000102433)
(5.03346e-06 0.000951787 -9.88048e-05)
(5.30351e-06 0.000947662 -9.48336e-05)
(5.26581e-06 0.000940814 -9.06377e-05)
(4.93128e-06 0.000930239 -8.63374e-05)
(4.32268e-06 0.000914628 -8.20247e-05)
(3.48906e-06 0.000892354 -7.77646e-05)
(2.49358e-06 0.000861298 -7.35508e-05)
(1.42691e-06 0.000818751 -6.93099e-05)
(4.02977e-07 0.000761154 -6.48424e-05)
(-3.82197e-07 0.000683843 -5.97806e-05)
(-6.95095e-07 0.00058067 -5.31048e-05)
(-1.04352e-06 0.000355326 -3.62941e-05)
(8.60655e-07 0.000373872 -3.58373e-05)
(3.0091e-07 0.000608094 -5.13559e-05)
(-1.65486e-07 0.000715545 -5.72944e-05)
(-1.16817e-06 0.000795915 -6.18653e-05)
(-2.38502e-06 0.000855611 -6.60312e-05)
(-3.63591e-06 0.000899559 -7.00784e-05)
(-4.80156e-06 0.000931462 -7.41481e-05)
(-5.80072e-06 0.000954203 -7.82991e-05)
(-6.56187e-06 0.000969987 -8.25166e-05)
(-7.0393e-06 0.000980565 -8.67356e-05)
(-7.20583e-06 0.000987294 -9.0851e-05)
(-7.05432e-06 0.000991275 -9.47482e-05)
(-6.58921e-06 0.00099336 -9.82999e-05)
(-5.8364e-06 0.000994243 -0.000101392)
(-4.83495e-06 0.000994443 -0.000103912)
(-3.63457e-06 0.000994368 -0.000105775)
(-2.29211e-06 0.000994281 -0.00010691)
(-8.72172e-07 0.000994355 -0.000107279)
(5.58956e-07 0.00099463 -0.000106865)
(1.93279e-06 0.000995062 -0.000105686)
(3.18328e-06 0.000995472 -0.000103778)
(4.25362e-06 0.000995592 -0.000101213)
(5.09154e-06 0.000995009 -9.8077e-05)
(5.66152e-06 0.0009932 -9.448e-05)
(5.93327e-06 0.000989466 -9.05374e-05)
(5.89692e-06 0.000982949 -8.63759e-05)
(5.55891e-06 0.000972545 -8.21097e-05)
(4.94549e-06 0.000956892 -7.78426e-05)
(4.09782e-06 0.000934233 -7.36386e-05)
(3.08335e-06 0.000902359 -6.95106e-05)
(1.97981e-06 0.00085838 -6.53955e-05)
(9.00219e-07 0.000798587 -6.11353e-05)
(2.22031e-08 0.000718046 -5.641e-05)
(-3.61903e-07 0.000610341 -5.02824e-05)
(-8.67411e-07 0.000374836 -3.47516e-05)
(5.08895e-07 0.000392676 -3.01782e-05)
(-2.20966e-07 0.0006356 -4.16733e-05)
(-8.03522e-07 0.000746956 -4.59367e-05)
(-1.88726e-06 0.00083008 -4.941e-05)
(-3.11789e-06 0.000891642 -5.28439e-05)
(-4.32778e-06 0.000936748 -5.63751e-05)
(-5.42625e-06 0.000969277 -6.0067e-05)
(-6.33691e-06 0.000992224 -6.39233e-05)
(-7.0021e-06 0.00100792 -6.79057e-05)
(-7.38083e-06 0.00101818 -7.19251e-05)
(-7.44942e-06 0.00102446 -7.58731e-05)
(-7.19882e-06 0.00102791 -7.9624e-05)
(-6.64324e-06 0.00102945 -8.30553e-05)
(-5.80874e-06 0.0010298 -8.60457e-05)
(-4.7322e-06 0.00102954 -8.84915e-05)
(-3.46027e-06 0.0010291 -9.0302e-05)
(-2.05318e-06 0.00102876 -9.14136e-05)
(-5.73867e-07 0.0010287 -9.17828e-05)
(9.12584e-07 0.00102899 -9.13982e-05)
(2.3392e-06 0.00102955 -9.02709e-05)
(3.644e-06 0.00103022 -8.84441e-05)
(4.76833e-06 0.00103069 -8.59814e-05)
(5.6616e-06 0.00103054 -8.2973e-05)
(6.28429e-06 0.00102918 -7.95222e-05)
(6.61174e-06 0.0010259 -7.57502e-05)
(6.62982e-06 0.00101976 -7.17792e-05)
(6.345e-06 0.00100962 -6.77341e-05)
(5.77652e-06 0.000994016 -6.37224e-05)
(4.96487e-06 0.00097113 -5.9832e-05)
(3.96495e-06 0.000938628 -5.60998e-05)
(2.85084e-06 0.000893513 -5.25185e-05)
(1.71205e-06 0.000831902 -4.90127e-05)
(7.11028e-07 0.000748684 -4.54212e-05)
(1.78701e-07 0.000637185 -4.10097e-05)
(-5.18641e-07 0.000393198 -2.9464e-05)
(9.76226e-08 0.000408463 -2.29247e-05)
(-8.01213e-07 0.000657529 -2.90646e-05)
(-1.55032e-06 0.000771621 -3.10402e-05)
(-2.75349e-06 0.000856646 -3.29931e-05)
(-4.01595e-06 0.000919436 -3.53938e-05)
(-5.20264e-06 0.000965246 -3.81858e-05)
(-6.24121e-06 0.000998059 -4.13164e-05)
(-7.07019e-06 0.00102098 -4.47279e-05)
(-7.64035e-06 0.0010364 -4.83402e-05)
(-7.9181e-06 0.00104623 -5.20444e-05)
(-7.88349e-06 0.00105198 -5.5717e-05)
(-7.53557e-06 0.00105485 -5.92296e-05)
(-6.88462e-06 0.0010558 -6.24552e-05)
(-5.95827e-06 0.00105562 -6.52766e-05)
(-4.79537e-06 0.00105489 -6.75886e-05)
(-3.44449e-06 0.00105409 -6.93055e-05)
(-1.96392e-06 0.00105351 -7.03624e-05)
(-4.12768e-07 0.00105335 -7.07201e-05)
(1.14493e-06 0.00105366 -7.03645e-05)
(2.6414e-06 0.0010544 -6.93094e-05)
(4.0146e-06 0.00105536 -6.75936e-05)
(5.20982e-06 0.00105623 -6.52814e-05)
(6.17635e-06 0.00105654 -6.24586e-05)
(6.87593e-06 0.00105571 -5.92297e-05)
(7.27991e-06 0.00105296 -5.57117e-05)
(7.37509e-06 0.00104731 -5.20309e-05)
(7.16487e-06 0.00103757 -4.83154e-05)
(6.66434e-06 0.00102221 -4.46876e-05)
(5.90367e-06 0.000999339 -4.12552e-05)
(4.93706e-06 0.000966552 -3.80968e-05)
(3.82058e-06 0.000920747 -3.52673e-05)
(2.62244e-06 0.000857938 -3.28095e-05)
(1.47962e-06 0.000772868 -3.07608e-05)
(7.71828e-07 0.000658703 -2.86611e-05)
(-1.0478e-07 0.000408711 -2.24523e-05)
(-2.85842e-07 0.000420494 -1.58852e-05)
(-1.3175e-06 0.000673035 -1.66386e-05)
(-2.2287e-06 0.00078865 -1.62891e-05)
(-3.54659e-06 0.000874662 -1.66797e-05)
(-4.84567e-06 0.000938007 -1.80045e-05)
(-6.01613e-06 0.00098401 -2.00111e-05)
(-7.00714e-06 0.00101673 -2.25323e-05)
(-7.77079e-06 0.00103934 -2.5448e-05)
(-8.26114e-06 0.00105428 -2.86384e-05)
(-8.45167e-06 0.00106352 -3.19751e-05)
(-8.32827e-06 0.00106862 -3.53221e-05)
(-7.89053e-06 0.00107082 -3.85486e-05)
(-7.15641e-06 0.00107113 -4.15256e-05)
(-6.15106e-06 0.00107037 -4.41394e-05)
(-4.91145e-06 0.00106915 -4.62862e-05)
(-3.48823e-06 0.00106796 -4.78846e-05)