/*--------------------------------*- C++ -*----------------------------------*\
| =========                 |                                                 |
| \\      /  F ield         | OpenFOAM: The Open Source CFD Toolbox           |
|  \\    /   O peration     | Version:  v2012                                 |
|   \\  /    A nd           | Website:  www.openfoam.com                      |
|    \\/     M anipulation  |                                                 |
\*---------------------------------------------------------------------------*/
FoamFile
{
    version     2.0;
    format      ascii;
    class       surfaceScalarField;
    location    "67";
    object      phi;
}
// * * * * * * * * * * * * * * * * * * * * * * * * * * * * * * * * * * * * * //

dimensions      [1 0 -1 0 0 0 0];
oriented        oriented;


internalField   nonuniform List<scalar> 
228225
(
-1.96926e-09
1.15157e-09
5.34495e-10
-5.92376e-09
6.493e-09
-2.53681e-09
-1.26898e-08
1.00198e-08
-3.25408e-09
-2.23092e-08
1.30944e-08
-3.47936e-09
-3.43978e-08
1.5759e-08
-3.66631e-09
-4.84346e-08
1.7967e-08
-3.93101e-09
-6.38764e-08
1.97267e-08
-4.28414e-09
-8.01787e-08
2.10294e-08
-4.72813e-09
-9.68528e-08
2.19136e-08
-5.23993e-09
-1.13426e-07
2.23895e-08
-5.81411e-09
-1.29505e-07
2.25078e-08
-6.42966e-09
-1.44703e-07
2.22817e-08
-7.08413e-09
-1.58708e-07
2.17659e-08
-7.75999e-09
-1.7123e-07
2.0979e-08
-8.45668e-09
-1.82044e-07
1.99716e-08
-9.15962e-09
-1.90938e-07
1.87586e-08
-9.86234e-09
-1.97771e-07
1.73873e-08
-1.05559e-08
-2.02405e-07
1.58732e-08
-1.12382e-08
-2.04762e-07
1.42492e-08
-1.18949e-08
-2.04774e-07
1.25312e-08
-1.25156e-08
-2.02441e-07
1.0756e-08
-1.30917e-08
-1.97757e-07
8.9374e-09
-1.36195e-08
-1.90779e-07
7.10488e-09
-1.40841e-08
-1.81568e-07
5.27103e-09
-1.44809e-08
-1.70234e-07
3.46251e-09
-1.47985e-08
-1.56894e-07
1.69405e-09
-1.50334e-08
-1.4172e-07
4.64108e-12
-1.51775e-08
-1.2487e-07
-1.62089e-09
-1.52298e-08
-1.06573e-07
-3.11201e-09
-1.51842e-08
-8.70916e-08
-4.44539e-09
-1.50367e-08
-6.67603e-08
-5.56709e-09
-1.47636e-08
-4.60623e-08
-6.40478e-09
-1.42928e-08
-2.58722e-08
-6.81469e-09
-1.33752e-08
-8.10555e-09
-6.56703e-09
-1.11997e-08
-4.33357e-09
-3.772e-09
-5.3827e-09
2.03902e-08
-1.38561e-08
-2.01942e-08
3.67385e-08
-1.54337e-08
-3.83415e-08
4.43946e-08
-1.62282e-08
-5.82027e-08
5.00408e-08
-1.70845e-08
-7.85942e-08
5.39972e-08
-1.78462e-08
-9.87006e-08
5.65759e-08
-1.85036e-08
-1.17889e-07
5.80177e-08
-1.91018e-08
-1.35733e-07
5.85277e-08
-1.96554e-08
-1.51901e-07
5.82625e-08
-2.01789e-08
-1.66199e-07
5.73555e-08
-2.06705e-08
-1.78468e-07
5.59147e-08
-2.11379e-08
-1.88637e-07
5.4029e-08
-2.15771e-08
-1.96658e-07
5.17784e-08
-2.19928e-08
-2.02532e-07
4.92331e-08
-2.23791e-08
-2.06276e-07
4.64541e-08
-2.27397e-08
-2.07944e-07
4.34971e-08
-2.30686e-08
-2.07603e-07
4.04123e-08
-2.33686e-08
-2.05332e-07
3.72376e-08
-2.36338e-08
-2.01227e-07
3.40114e-08
-2.38678e-08
-1.95407e-07
3.07758e-08
-2.40651e-08
-1.87987e-07
2.75638e-08
-2.42265e-08
-1.79109e-07
2.44053e-08
-2.43465e-08
-1.68904e-07
2.13258e-08
-2.44259e-08
-1.57522e-07
1.83489e-08
-2.44609e-08
-1.45101e-07
1.54945e-08
-2.44501e-08
-1.31806e-07
1.27809e-08
-2.43854e-08
-1.17762e-07
1.02245e-08
-2.42624e-08
-1.03154e-07
7.83977e-09
-2.4069e-08
-8.81146e-08
5.64112e-09
-2.37915e-08
-7.28004e-08
3.64356e-09
-2.34047e-08
-5.73513e-08
1.8653e-09
-2.28812e-08
-4.19181e-08
3.34974e-10
-2.21739e-08
-2.67074e-08
-8.84835e-10
-2.11388e-08
-1.22816e-08
-1.6251e-09
-1.93699e-08
-1.22687e-09
-1.53868e-08
-3.22649e-09
3.30113e-08
-9.3952e-09
-1.04334e-08
5.51705e-08
-1.12245e-08
-1.89124e-08
6.48989e-08
-1.20259e-08
-2.79294e-08
7.17237e-08
-1.26651e-08
-3.69998e-08
7.62701e-08
-1.32035e-08
-4.57754e-08
7.90479e-08
-1.36959e-08
-5.40209e-08
8.04225e-08
-1.41592e-08
-6.15644e-08
8.06868e-08
-1.46161e-08
-6.82944e-08
8.00582e-08
-1.50663e-08
-7.41307e-08
7.87133e-08
-1.552e-08
-7.90351e-08
7.67884e-08
-1.59692e-08
-8.29884e-08
7.43983e-08
-1.64188e-08
-8.59857e-08
7.16354e-08
-1.68585e-08
-8.80413e-08
6.85804e-08
-1.72911e-08
-8.91821e-08
6.53001e-08
-1.7706e-08
-8.94368e-08
6.18565e-08
-1.8105e-08
-8.88453e-08
5.82997e-08
-1.84782e-08
-8.74565e-08
5.46781e-08
-1.88298e-08
-8.53342e-08
5.10398e-08
-1.91505e-08
-8.25474e-08
4.74283e-08
-1.944e-08
-7.91648e-08
4.38723e-08
-1.96912e-08
-7.52523e-08
4.03993e-08
-1.99057e-08
-7.08825e-08
3.70326e-08
-2.00773e-08
-6.61196e-08
3.37925e-08
-2.02071e-08
-6.1024e-08
3.06885e-08
-2.0289e-08
-5.56522e-08
2.77317e-08
-2.03226e-08
-5.0058e-08
2.49295e-08
-2.03001e-08
-4.42843e-08
2.22831e-08
-2.02167e-08
-3.83734e-08
1.97887e-08
-2.00588e-08
-3.23529e-08
1.74352e-08
-1.98114e-08
-2.62437e-08
1.5202e-08
-1.94469e-08
-2.00491e-08
1.306e-08
-1.89198e-08
-1.37671e-08
1.09611e-08
-1.81259e-08
-7.39476e-09
8.83343e-09
-1.68333e-08
5.18304e-09
-1.38039e-08
-2.83437e-09
3.76228e-08
-1.77743e-09
-5.48147e-09
6.11822e-08
-3.36296e-09
-7.93869e-09
7.16424e-08
-4.28756e-09
-1.03533e-08
7.90557e-08
-4.91675e-09
-1.27718e-08
8.4113e-08
-5.42503e-09
-1.51495e-08
8.7333e-08
-5.90722e-09
-1.74291e-08
8.91071e-08
-6.40566e-09
-1.95565e-08
8.97357e-08
-6.91992e-09
-2.14925e-08
8.94543e-08
-7.46189e-09
-2.32002e-08
8.84441e-08
-8.0235e-09
-2.46544e-08
8.68529e-08
-8.61039e-09
-2.58397e-08
8.47959e-08
-9.21031e-09
-2.67521e-08
8.23716e-08
-9.82503e-09
-2.73909e-08
7.96592e-08
-1.04411e-08
-2.77584e-08
7.67288e-08
-1.10587e-08
-2.78763e-08
7.36366e-08
-1.16649e-08
-2.77485e-08
7.04334e-08
-1.22601e-08
-2.7413e-08
6.71704e-08
-1.28296e-08
-2.68914e-08
6.38932e-08
-1.33724e-08
-2.62198e-08
6.06343e-08
-1.38785e-08
-2.54206e-08
5.74216e-08
-1.4348e-08
-2.4526e-08
5.42765e-08
-1.47724e-08
-2.35607e-08
5.12178e-08
-1.51516e-08
-2.25463e-08
4.82575e-08
-1.54781e-08
-2.15011e-08
4.5396e-08
-1.57531e-08
-2.04342e-08
4.26335e-08
-1.597e-08
-1.93377e-08
3.99611e-08
-1.61274e-08
-1.81952e-08
3.73599e-08
-1.62181e-08
-1.6968e-08
3.47972e-08
-1.62376e-08
-1.55845e-08
3.22252e-08
-1.61731e-08
-1.39421e-08
2.95708e-08
-1.60104e-08
-1.18806e-08
2.67313e-08
-1.57326e-08
-9.14113e-09
2.35598e-08
-1.53391e-08
-5.4467e-09
1.98845e-08
-1.47443e-08
1.25959e-08
-1.28602e-08
-3.75006e-09
3.83964e-08
2.97555e-09
-4.75145e-09
6.0406e-08
1.77895e-09
-4.38954e-09
7.03607e-08
9.20882e-10
-3.29812e-09
7.76041e-08
3.58507e-10
-1.82998e-09
8.27256e-08
-8.03852e-11
-1.71233e-10
8.61902e-08
-5.15426e-10
1.5622e-09
8.83498e-08
-9.77e-10
3.29541e-09
8.94795e-08
-1.4762e-09
4.96697e-09
8.97872e-08
-2.00527e-09
6.54166e-09
8.94417e-08
-2.57102e-09
7.98526e-09
8.85708e-08
-3.16307e-09
9.2828e-09
8.72834e-08
-3.78366e-09
1.04098e-08
8.56624e-08
-4.41992e-09
1.13591e-08
8.37828e-08
-5.06984e-09
1.21029e-08
8.17015e-08
-5.72023e-09
1.26404e-08
7.94716e-08
-6.36999e-09
1.29461e-08
7.7134e-08
-7.00664e-09
1.30155e-08
7.47285e-08
-7.62865e-09
1.28475e-08
7.22863e-08
-8.22458e-09
1.24408e-08
6.9835e-08
-8.79322e-09
1.17916e-08
6.73947e-08
-9.32506e-09
1.09053e-08
6.49821e-08
-9.81941e-09
9.78481e-09
6.26063e-08
-1.02685e-08
8.44311e-09
6.02706e-08
-1.0672e-08
6.89642e-09
5.79693e-08
-1.10239e-08
5.16364e-09
5.56882e-08
-1.13241e-08
3.29193e-09
5.34011e-08
-1.15675e-08
1.33791e-09
5.10668e-08
-1.17543e-08
-6.0816e-10
4.86241e-08
-1.18791e-08
-2.43243e-09
4.59866e-08
-1.19384e-08
-3.97263e-09
4.30318e-08
-1.19213e-08
-4.99259e-09
3.95889e-08
-1.18361e-08
-5.12257e-09
3.54237e-08
-1.17353e-08
-3.85608e-09
3.02326e-08
-1.16152e-08
1.93131e-08
-1.05723e-08
-3.00872e-09
3.68288e-08
4.57746e-09
-3.22178e-09
5.69733e-08
3.64387e-09
-1.96453e-09
6.62141e-08
2.88987e-09
1.35918e-10
7.30848e-08
2.41828e-09
2.69119e-09
7.8121e-08
2.05063e-09
5.4767e-09
8.17213e-08
1.68275e-09
8.34255e-09
8.42031e-08
1.28074e-09
1.11743e-08
8.57985e-08
8.49288e-10
1.38838e-08
8.66948e-08
3.82927e-10
1.64059e-08
8.70302e-08
-1.12795e-10
1.86902e-08
8.69202e-08
-6.31785e-10
2.0694e-08
8.64512e-08
-1.17279e-09
2.23927e-08
8.56981e-08
-1.73326e-09
2.37614e-08
8.47171e-08
-2.30383e-09
2.47869e-08
8.35585e-08
-2.88281e-09
2.54565e-08
8.22603e-08
-3.45863e-09
2.57637e-08
8.08578e-08
-4.02974e-09
2.56988e-08
7.93769e-08
-4.58589e-09
2.527e-08
7.78415e-08
-5.1256e-09
2.4478e-08
7.62675e-08
-5.64007e-09
2.33323e-08
7.46688e-08
-6.12815e-09
2.18436e-08
7.30521e-08
-6.58242e-09
2.00342e-08
7.14189e-08
-7.00239e-09
1.79253e-08
6.97619e-08
-7.38223e-09
1.55511e-08
6.80651e-08
-7.72201e-09
1.29552e-08
6.63014e-08
-8.01729e-09
1.01965e-08
6.44288e-08
-8.26874e-09
7.34947e-09
6.23868e-08
-8.47335e-09
4.51538e-09
6.00892e-08
-8.63196e-09
1.82491e-09
5.74182e-08
-8.73987e-09
-5.58938e-10
5.42091e-08
-8.79403e-09
-2.40641e-09
5.02422e-08
-8.80554e-09
-3.34907e-09
4.52114e-08
-8.84643e-09
-2.90241e-09
3.87281e-08
-8.94106e-09
2.47782e-08
-8.36744e-09
-1.74205e-09
3.45105e-08
4.06213e-09
-1.42362e-09
5.33698e-08
3.28332e-09
2.64407e-11
6.21061e-08
2.65806e-09
2.12212e-09
6.87161e-08
2.27313e-09
4.56569e-09
7.36918e-08
1.9843e-09
7.18816e-09
7.74052e-08
1.69488e-09
9.8638e-09
8.01394e-08
1.38663e-09
1.25014e-08
8.21093e-08
1.05387e-09
1.50179e-08
8.34766e-08
7.01463e-10
1.73538e-08
8.43684e-08
3.25072e-10
1.94649e-08
8.48796e-08
-7.01031e-11
2.13052e-08
8.50878e-08
-4.77808e-10
2.28496e-08
8.5051e-08
-8.97999e-10
2.40778e-08
8.48176e-08
-1.32794e-09
2.49714e-08
8.4425e-08
-1.75979e-09
2.55182e-08
8.39052e-08
-2.19256e-09
2.57145e-08
8.32812e-08
-2.61827e-09
2.55542e-08
8.25733e-08
-3.03603e-09
2.50401e-08
8.17946e-08
-3.43878e-09
2.41773e-08
8.09555e-08
-3.82581e-09
2.29771e-08
8.00598e-08
-4.19102e-09
2.14563e-08
7.91071e-08
-4.53414e-09
1.96372e-08
7.80893e-08
-4.85012e-09
1.7546e-08
7.69913e-08
-5.13923e-09
1.52219e-08
7.57876e-08
-5.39748e-09
1.27073e-08
7.44403e-08
-5.62571e-09
1.00633e-08
7.28947e-08
-5.82103e-09
7.36132e-09
7.10746e-08
-5.98507e-09
4.69067e-09
6.88746e-08
-6.11571e-09
2.17123e-09
6.61517e-08
-6.21303e-09
-5.81437e-11
6.27104e-08
-6.27248e-09
-1.79903e-09
5.82893e-08
-6.30838e-09
-2.73218e-09
5.253e-08
-6.38249e-09
-2.44686e-09
4.49644e-08
-6.5231e-09
2.85012e-08
-6.16933e-09
-7.63813e-10
3.23668e-08
2.90689e-09
-4.29328e-10
5.07411e-08
2.2952e-09
5.6182e-10
5.92907e-08
1.82432e-09
1.92111e-09
6.58156e-08
1.54148e-09
3.47764e-09
7.08059e-08
1.32806e-09
5.14112e-09
7.46219e-08
1.12141e-09
6.83904e-09
7.75389e-08
9.01675e-10
8.51889e-09
7.97595e-08
6.71053e-10
1.01286e-08
8.14401e-08
4.26325e-10
1.1631e-08
8.26959e-08
1.69597e-10
1.29909e-08
8.36173e-08
-9.83911e-11
1.41794e-08
8.42707e-08
-3.70684e-10
1.51726e-08
8.47101e-08
-6.52608e-10
1.59533e-08
8.49744e-08
-9.37436e-10
1.65071e-08
8.50965e-08
-1.22471e-09
1.68208e-08
8.50988e-08
-1.5088e-09
1.68934e-08
8.5e-08
-1.78962e-09
1.67155e-08
8.48119e-08
-2.06183e-09
1.62916e-08
8.45434e-08
-2.32554e-09
1.56264e-08
8.41972e-08
-2.57603e-09
1.47274e-08
8.37722e-08
-2.81371e-09
1.36087e-08
8.32609e-08
-3.03458e-09
1.22872e-08
8.26497e-08
-3.23942e-09
1.07858e-08
8.19167e-08
-3.42492e-09
9.13764e-09
8.10293e-08
-3.59225e-09
7.3743e-09
7.99416e-08
-3.73881e-09
5.54646e-09
7.85899e-08
-3.86619e-09
3.7046e-09
7.68873e-08
-3.97258e-09
1.92496e-09
7.47149e-08
-4.0598e-09
2.88675e-10
7.19139e-08
-4.1251e-09
-1.10199e-09
6.82672e-08
-4.16831e-09
-2.10226e-09
6.3488e-08
-4.19691e-09
-2.49731e-09
5.71824e-08
-4.25811e-09
-2.0022e-09
4.88356e-08
-4.36421e-09
3.06106e-08
-4.11261e-09
-4.88384e-10
3.07152e-08
2.13934e-09
-4.83321e-10
4.89841e-08
1.75389e-09
-1.48548e-10
5.74912e-08
1.4646e-09
3.6646e-10
6.40067e-08
1.29096e-09
9.94323e-10
6.90214e-08
1.15899e-09
1.68792e-09
7.29007e-08
1.02738e-09
2.42114e-09
7.5915e-08
8.89805e-10
3.16977e-09
7.82684e-08
7.43587e-10
3.9049e-09
8.01119e-08
5.919e-10
4.60987e-09
8.15604e-08
4.32501e-10
5.25798e-09
8.26986e-08
2.68608e-10
5.84061e-09
8.3592e-08
9.81067e-11
6.33221e-09
8.42881e-08
-7.16893e-11
6.72704e-09
8.4824e-08
-2.41968e-10
7.00616e-09
8.52259e-08
-4.11045e-10
7.17196e-09
8.55145e-08
-5.79622e-10
7.21173e-09
8.57034e-08
-7.43301e-10
7.12408e-09
8.5803e-08
-9.02405e-10
6.90233e-09
8.5816e-08
-1.05324e-09
6.55499e-09
8.57424e-08
-1.19695e-09
6.08223e-09
8.55758e-08
-1.33045e-09
5.49239e-09
8.53057e-08
-1.45511e-09
4.79705e-09
8.49136e-08
-1.56827e-09
4.01162e-09
8.43738e-08
-1.67163e-09
3.15469e-09
8.36492e-08
-1.76298e-09
2.25215e-09
8.26894e-08
-1.84429e-09
1.32955e-09
8.14255e-08
-1.9138e-09
4.25935e-10
7.97648e-08
-1.97386e-09
-4.1725e-10
7.7582e-08
-2.02302e-09
-1.15083e-09
7.471e-08
-2.063e-09
-1.71606e-09
7.09226e-08
-2.09129e-09
-2.02975e-09
6.59203e-08
-2.11624e-09
-1.97848e-09
5.92943e-08
-2.16544e-09
-1.40112e-09
5.05043e-08
-2.24453e-09
3.1311e-08
-2.10237e-09
-7.08388e-10
2.94752e-08
1.94903e-09
-1.17202e-09
4.76169e-08
1.82907e-09
-1.45702e-09
5.60613e-08
1.71496e-09
-1.63313e-09
6.25319e-08
1.65059e-09
-1.72441e-09
6.7521e-08
1.59279e-09
-1.7464e-09
7.13928e-08
1.52911e-09
-1.70602e-09
7.44188e-08
1.45557e-09
-1.61336e-09
7.68006e-08
1.37606e-09
-1.48182e-09
7.86899e-08
1.28997e-09
-1.32199e-09
8.01986e-08
1.2006e-09
-1.14042e-09
8.14119e-08
1.10694e-09
-9.52326e-10
8.23916e-08
1.01237e-09
-7.67137e-10
8.31856e-08
9.1592e-10
-5.90421e-10
8.38277e-08
8.20829e-10
-4.34604e-10
8.43433e-08
7.26912e-10
-3.06655e-10
8.47494e-08
6.37309e-10
-2.12873e-10
8.50585e-08
5.509e-10
-1.55317e-10
8.52767e-08
4.69433e-10
-1.38326e-10
8.54065e-08
3.91694e-10
-1.6049e-10
8.54445e-08
3.2036e-10
-2.21447e-10
8.53838e-08
2.53669e-10
-3.20015e-10
8.52104e-08
1.93839e-10
-4.5005e-10
8.49052e-08
1.38679e-10
-6.06003e-10
8.44394e-08
9.00295e-11
-7.79988e-10
8.37752e-08
4.65507e-11
-9.5704e-10
8.28598e-08
8.92116e-12
-1.12999e-09
8.16235e-08
-2.55439e-11
-1.28296e-09
7.99719e-08
-5.57675e-11
-1.3941e-09
7.77795e-08
-8.47982e-11
-1.4499e-09
7.48784e-08
-1.11678e-10
-1.43237e-09
7.10431e-08
-1.38952e-10
-1.31571e-09
6.5974e-08
-1.70882e-10
-1.05733e-09
5.92657e-08
-2.28908e-10
-6.19367e-10
5.03788e-08
-3.12463e-10
3.10129e-08
-3.2155e-10
-1.04634e-09
2.84538e-08
2.06904e-09
-1.87951e-09
4.62647e-08
2.18395e-09
-2.57916e-09
5.45488e-08
2.21191e-09
-3.17499e-09
6.08952e-08
2.23242e-09
-3.6744e-09
6.57864e-08
2.235e-09
-4.0855e-09
6.95823e-08
2.22027e-09
-4.40916e-09
7.25487e-08
2.19408e-09
-4.6521e-09
7.48862e-08
2.15787e-09
-4.82195e-09
7.67423e-08
2.11627e-09
-4.92188e-09
7.82291e-08
2.06926e-09
-4.95791e-09
7.94283e-08
2.02042e-09
-4.93822e-09
8.04026e-08
1.96914e-09
-4.86679e-09
8.11969e-08
1.91861e-09
-4.7542e-09
8.18457e-08
1.86788e-09
-4.60391e-09
8.23726e-08
1.81982e-09
-4.42179e-09
8.27954e-08
1.77309e-09
-4.21807e-09
8.31235e-08
1.73048e-09
-3.99483e-09
8.33628e-08
1.69082e-09
-3.75828e-09
8.35135e-08
1.65623e-09
-3.511e-09
8.35729e-08
1.62478e-09
-3.25837e-09
8.35316e-08
1.59835e-09
-2.99732e-09
8.33769e-08
1.57472e-09
-2.73756e-09
8.30873e-08
1.55542e-09
-2.46939e-09
8.26356e-08
1.53794e-09
-2.20251e-09
8.19822e-08
1.52348e-09
-1.92511e-09
8.10767e-08
1.50919e-09
-1.65066e-09
7.9849e-08
1.49589e-09
-1.36502e-09
7.82083e-08
1.48024e-09
-1.07958e-09
7.60312e-08
1.4624e-09
-7.9516e-10
7.31557e-08
1.43834e-09
-5.2295e-10
6.93628e-08
1.40726e-09
-2.72082e-10
6.43632e-08
1.36091e-09
-5.72748e-11
5.77654e-08
1.28541e-09
9.99491e-11
4.90487e-08
1.17408e-09
3.00987e-08
1.01306e-09
-1.21895e-09
2.75925e-08
2.08066e-09
-2.21475e-09
4.49178e-08
2.34113e-09
-3.08795e-09
5.29727e-08
2.45038e-09
-3.85377e-09
5.914e-08
2.52077e-09
-4.51294e-09
6.38892e-08
2.55606e-09
-5.069e-09
6.75681e-08
2.57018e-09
-5.52669e-09
7.04377e-08
2.56835e-09
-5.88738e-09
7.26916e-08
2.55672e-09
-6.15888e-09
7.44759e-08
2.53688e-09
-6.33967e-09
7.58982e-08
2.51303e-09
-6.4387e-09
7.70406e-08
2.4854e-09
-6.45593e-09
7.79629e-08
2.45731e-09
-6.39772e-09
7.87108e-08
2.42832e-09
-6.26946e-09
7.93166e-08
2.40129e-09
-6.07838e-09
7.9805e-08
2.37534e-09
-5.82731e-09
8.01919e-08
2.35297e-09
-5.52479e-09
8.04884e-08
2.33291e-09
-5.17781e-09
8.06991e-08
2.31729e-09
-4.79513e-09
8.08258e-08
2.30444e-09
-4.3815e-09
8.08634e-08
2.29611e-09
-3.94572e-09
8.08045e-08
2.29023e-09
-3.48909e-09
8.06342e-08
2.28815e-09
-3.02403e-09
8.03332e-08
2.28743e-09
-2.55023e-09
7.98729e-08
2.28906e-09
-2.07415e-09
7.92166e-08
2.29025e-09
-1.60237e-09
7.83134e-08
2.29159e-09
-1.14147e-09
7.70977e-08
2.28988e-09
-6.98911e-10
7.54804e-08
2.28508e-09
-2.8481e-10
7.3345e-08
2.27321e-09
8.32113e-11
7.05348e-08
2.25315e-09
3.82604e-10
6.68429e-08
2.21934e-09
5.89116e-10
6.19914e-08
2.16672e-09
6.64045e-10
5.56106e-08
2.07915e-09
5.59362e-10
4.7204e-08
1.94919e-09
2.89711e-08
1.68735e-09
-1.0884e-09
2.69394e-08
1.74098e-09
-2.01234e-09
4.38159e-08
2.0251e-09
-2.84734e-09
5.16579e-08
2.15304e-09
-3.59772e-09
5.7658e-08
2.23042e-09
-4.25204e-09
6.22709e-08
2.27168e-09
-4.80897e-09
6.5836e-08
2.29006e-09
-5.27188e-09
6.86064e-08
2.29435e-09
-5.64074e-09
7.07727e-08
2.2875e-09
-5.91688e-09
7.24762e-08
2.27421e-09
-6.09698e-09
7.38247e-08
2.25561e-09
-6.18889e-09
7.48969e-08
2.2352e-09
-6.19353e-09
7.57539e-08
2.21318e-09
-6.11322e-09
7.64393e-08
2.19241e-09
-5.95794e-09
7.69872e-08
2.17256e-09
-5.72715e-09
7.74206e-08
2.15607e-09
-5.43613e-09
7.77573e-08
2.14217e-09
-5.08803e-09
7.8007e-08
2.1329e-09
-4.69095e-09
7.81764e-08
2.12704e-09
-4.25774e-09
7.82651e-08
2.1262e-09
-3.79353e-09
7.82709e-08
2.12872e-09
-3.30777e-09
7.81841e-08
2.13576e-09
-2.81285e-09
7.79922e-08
2.14523e-09
-2.31119e-09
7.76743e-08
2.15788e-09
-1.81362e-09
7.72044e-08
2.17121e-09
-1.32648e-09
7.65448e-08
2.1856e-09
-8.6171e-10
7.56481e-08
2.19817e-09
-4.18855e-10
7.44488e-08
2.20886e-09
-1.70406e-11
7.2863e-08
2.21425e-09
3.38451e-10
7.07769e-08
2.21349e-09
6.28889e-10
6.80421e-08
2.20215e-09
8.36009e-10
6.44588e-08
2.17782e-09
9.30689e-10
5.97631e-08
2.13269e-09
8.84397e-10
5.3601e-08
2.05601e-09
6.54425e-10
4.55e-08
1.9353e-09
2.79569e-08
1.66784e-09
-7.13034e-10
2.66256e-08
1.02642e-09
-1.40231e-09
4.32761e-08
1.22914e-09
-2.07405e-09
5.10088e-08
1.32144e-09
-2.70753e-09
5.6917e-08
1.37326e-09
-3.28089e-09
6.14503e-08
1.39538e-09
-3.78865e-09
6.49418e-08
1.4009e-09
-4.22042e-09
6.76435e-08
1.3943e-09
-4.57048e-09
6.97425e-08
1.3801e-09
-4.83477e-09
7.13811e-08
1.35975e-09
-5.01173e-09
7.26647e-08
1.33665e-09
-5.09973e-09
7.36741e-08
1.31151e-09
-5.1026e-09
7.44688e-08
1.28712e-09
-5.02248e-09
7.5095e-08
1.26369e-09
-4.86354e-09
7.55854e-08
1.24363e-09
-4.63558e-09
7.59657e-08
1.22674e-09
-4.34498e-09
7.62521e-08
1.215e-09
-4.0032e-09
7.64571e-08
1.20778e-09
-3.62023e-09
7.65857e-08
1.20662e-09
-3.20418e-09
7.66401e-08
1.21039e-09
-2.77097e-09
7.6616e-08
1.22012e-09
-2.3264e-09
7.65062e-08
1.23419e-09
-1.88361e-09
7.6296e-08
1.25317e-09
-1.45231e-09
7.5967e-08
1.27498e-09
-1.03821e-09
7.54911e-08
1.29978e-09
-6.50049e-10
7.48331e-08
1.32512e-09
-2.9795e-10
7.39439e-08
1.3508e-09
1.56689e-11
7.27614e-08
1.37405e-09
2.83428e-10
7.1201e-08
1.39427e-09
4.9768e-10
6.91535e-08
1.40822e-09
6.54391e-10
6.64718e-08
1.41468e-09
7.4049e-10
6.29634e-08
1.40944e-09
7.44321e-10
5.83692e-08
1.3892e-09
6.53934e-10
5.23472e-08
1.3444e-09
4.49296e-10
4.44368e-08
1.26805e-09
2.73208e-08
1.08512e-09
-2.40747e-10
2.67475e-08
1.17285e-10
-6.31603e-10
4.34947e-08
1.75121e-10
-1.09306e-09
5.12647e-08
2.03207e-10
-1.57585e-09
5.71912e-08
2.09265e-10
-2.05029e-09
6.17253e-08
1.99982e-10
-2.49587e-09
6.52048e-08
1.80971e-10
-2.88891e-09
6.78826e-08
1.55916e-10
-3.22177e-09
6.99497e-08
1.25699e-10
-3.48339e-09
7.15487e-08
9.28255e-11
-3.6647e-09
7.27886e-08
5.80482e-11
-3.7653e-09
7.37504e-08
2.36542e-11
-3.78279e-09
7.44968e-08
-9.27731e-12
-3.72431e-09
7.50738e-08
-3.89111e-11
-3.59021e-09
7.55173e-08
-6.48477e-11
-3.39136e-09
7.58522e-08
-8.51051e-11
-3.13638e-09
7.60977e-08
-9.97403e-11
-2.83753e-09
7.6265e-08
-1.07231e-10
-2.50554e-09
7.63617e-08
-1.08138e-10
-2.15301e-09
7.63886e-08
-1.0145e-10
-1.7909e-09
7.63433e-08
-8.82654e-11
-1.4343e-09
7.62168e-08
-6.81164e-11
-1.09159e-09
7.59962e-08
-4.26132e-11
-7.74677e-10
7.56607e-08
-1.17787e-11
-4.89005e-10
7.51839e-08
2.22659e-11
-2.43751e-10
7.45279e-08
5.96255e-11
-4.06487e-11
7.36451e-08
9.74994e-11
1.12572e-10
7.24708e-08
1.35492e-10
2.21521e-10
7.09218e-08
1.71227e-10
2.83193e-10
6.88866e-08
2.0405e-10
3.05458e-10
6.62197e-08
2.31595e-10
2.89702e-10
6.27267e-08
2.5316e-10
2.41766e-10
5.81506e-08
2.66024e-10
1.72108e-10
5.21484e-08
2.67882e-10
9.08375e-11
4.42623e-08
2.55644e-10
2.71973e-08
2.14553e-10
1.82991e-10
2.73126e-08
-7.49188e-10
5.81033e-11
4.44609e-08
-8.39955e-10
-2.07496e-10
5.2409e-08
-8.79394e-10
-5.54211e-10
5.84581e-08
-9.19131e-10
-9.40302e-10
6.30723e-08
-9.61264e-10
-1.3307e-09
6.65987e-08
-1.00451e-09
-1.69579e-09
6.92986e-08
-1.04957e-09
-2.0184e-09
7.13678e-08
-1.09562e-09
-2.2827e-09
7.29551e-08
-1.14266e-09
-2.47698e-09
7.41721e-08
-1.18899e-09
-2.59796e-09
7.51046e-08
-1.234e-09
-2.64135e-09
7.58166e-08
-1.27573e-09
-2.61262e-09
7.63579e-08
-1.3135e-09
-2.51461e-09
7.67647e-08
-1.34545e-09
-2.35561e-09
7.70652e-08
-1.37115e-09
-2.14841e-09
7.72782e-08
-1.38905e-09
-1.90151e-09
7.74176e-08
-1.39912e-09
-1.62974e-09
7.749e-08
-1.40032e-09
-1.34447e-09
7.74981e-08
-1.39318e-09
-1.06394e-09
7.74381e-08
-1.37723e-09
-7.95919e-10
7.73024e-08
-1.35357e-09
-5.53518e-10
7.7076e-08
-1.32229e-09
-3.46672e-10
7.67391e-08
-1.285e-09
-1.82964e-10
7.62623e-08
-1.24218e-09
-6.70502e-11
7.56083e-08
-1.19577e-09
-3.29887e-12
7.47261e-08
-1.14645e-09
1.48627e-11
7.35505e-08
-1.0962e-09
-1.18276e-11
7.19942e-08
-1.04558e-09
-7.40035e-11
6.99443e-08
-9.96224e-10
-1.55692e-10
6.72503e-08
-9.48066e-10
-2.42347e-10
6.37144e-08
-9.01825e-10
-3.07371e-10
5.90728e-08
-8.56096e-10
-3.24345e-10
5.29758e-08
-8.09594e-10
-2.61318e-10
4.49553e-08
-7.57354e-10
2.75904e-08
-6.54004e-10
4.53227e-10
2.82278e-08
-1.36782e-09
5.05387e-10
4.59806e-08
-1.57197e-09
3.74745e-10
5.42009e-08
-1.66277e-09
1.27195e-10
6.04451e-08
-1.73838e-09
-1.89291e-10
6.51942e-08
-1.80556e-09
-5.33504e-10
6.88109e-08
-1.8685e-09
-8.71346e-10
7.15657e-08
-1.92899e-09
-1.17994e-09
7.36643e-08
-1.98843e-09
-1.43945e-09
7.52606e-08
-2.04648e-09
-1.6374e-09
7.64731e-08
-2.10294e-09
-1.76656e-09
7.73903e-08
-2.15641e-09
-1.82608e-09
7.80812e-08
-2.20609e-09
-1.81206e-09
7.85972e-08
-2.25028e-09
-1.73985e-09
7.8978e-08
-2.28817e-09
-1.60742e-09
7.92525e-08
-2.31818e-09
-1.43415e-09
7.94422e-08
-2.33982e-09
-1.2236e-09
7.95608e-08
-2.35194e-09
-9.97029e-10
7.96168e-08
-2.35457e-09
-7.63092e-10
7.96122e-08
-2.34715e-09
-5.40097e-10
7.95442e-08
-2.33029e-09
-3.37501e-10
7.94038e-08
-2.30401e-09
-1.68533e-10
7.91764e-08
-2.26951e-09
-4.10467e-11
7.88399e-08
-2.22732e-09
3.57109e-11
7.83647e-08
-2.17903e-09
5.88323e-11
7.77103e-08
-2.1255e-09
2.94931e-11
7.68246e-08
-2.06844e-09
-5.14367e-11
7.56381e-08
-2.00866e-09
-1.69918e-10
7.4061e-08
-1.94753e-09
-3.14211e-10
7.19744e-08
-1.88522e-09
-4.67033e-10
6.92231e-08
-1.82202e-09
-5.95806e-10
6.56006e-08
-1.75651e-09
-6.70851e-10
6.08348e-08
-1.68639e-09
-6.5248e-10
5.45616e-08
-1.60567e-09
-4.87226e-10
4.62981e-08
-1.50546e-09
2.83937e-08
-1.29231e-09
5.3014e-10
2.93427e-08
-1.64447e-09
6.48613e-10
4.77611e-08
-1.89928e-09
5.78636e-10
5.62837e-08
-2.01428e-09
3.85741e-10
6.27471e-08
-2.1066e-09
1.13331e-10
6.76514e-08
-2.18607e-09
-1.91159e-10
7.13743e-08
-2.25833e-09
-4.97382e-10
7.41986e-08
-2.32686e-09
-7.7898e-10
7.6338e-08
-2.39286e-09
-1.01459e-09
7.79547e-08
-2.45699e-09
-1.19591e-09
7.91716e-08
-2.51856e-09
-1.31174e-09
8.00831e-08
-2.57695e-09
-1.36051e-09
8.07607e-08
-2.6307e-09
-1.34368e-09
8.12597e-08
-2.67883e-09
-1.2675e-09
8.16214e-08
-2.71979e-09
-1.13901e-09
8.18774e-08
-2.75272e-09
-9.69945e-10
8.20497e-08
-2.77637e-09
-7.75023e-10
8.21541e-08
-2.7903e-09
-5.608e-10
8.21988e-08
-2.79379e-09
-3.5036e-10
8.21869e-08
-2.78698e-09
-1.49876e-10
8.2115e-08
-2.76975e-09
2.08001e-11
8.1974e-08
-2.74286e-09
1.56647e-10
8.17482e-08
-2.70678e-09
2.4557e-10
8.14147e-08
-2.66277e-09
2.78831e-10
8.09417e-08
-2.61173e-09
2.57795e-10
8.02874e-08
-2.55521e-09
1.80159e-10
7.93959e-08
-2.49422e-09
5.5645e-11
7.81955e-08
-2.4302e-09
-1.12844e-10
7.65911e-08
-2.36378e-09
-3.01047e-10
7.44593e-08
-2.29561e-09
-4.90909e-10
7.16377e-08
-2.22503e-09
-6.50493e-10
6.79115e-08
-2.1508e-09
-7.43641e-10
6.29976e-08
-2.06914e-09
-7.27389e-10
5.65174e-08
-1.97315e-09
-5.46019e-10
4.79695e-08
-1.85158e-09
2.94382e-08
-1.59039e-09
4.50797e-10
3.04757e-08
-1.58372e-09
5.39314e-10
4.94978e-08
-1.82538e-09
4.64839e-10
5.82952e-08
-1.93597e-09
2.78105e-10
6.4959e-08
-2.02615e-09
2.70435e-11
7.00056e-08
-2.10413e-09
-2.47884e-10
7.38271e-08
-2.17578e-09
-5.22554e-10
7.67157e-08
-2.24396e-09
-7.68383e-10
7.88944e-08
-2.31014e-09
-9.68508e-10
8.05308e-08
-2.37447e-09
-1.11538e-09
8.17539e-08
-2.43661e-09
-1.19803e-09
8.26614e-08
-2.49546e-09
-1.21609e-09
8.3329e-08
-2.54997e-09
-1.17103e-09
8.38139e-08
-2.59869e-09
-1.07071e-09
8.41605e-08
-2.64049e-09
-9.1977e-10
8.44014e-08
-2.67404e-09
-7.32136e-10
8.45606e-08
-2.69853e-09
-5.19485e-10
8.46541e-08
-2.71307e-09
-2.93743e-10
8.46914e-08
-2.71734e-09
-7.15257e-11
8.46753e-08
-2.71107e-09
1.35602e-10
8.46029e-08
-2.69455e-09
3.14464e-10
8.4464e-08
-2.6681e-09
4.51264e-10
8.42427e-08
-2.63263e-09
5.41265e-10
8.39144e-08
-2.58896e-09
5.75478e-10
8.34463e-08
-2.53844e-09
5.49874e-10
8.27938e-08
-2.48219e-09
4.71455e-10
8.18994e-08
-2.42167e-09
3.34781e-10
8.06871e-08
-2.35795e-09
1.61192e-10
7.90589e-08
-2.29208e-09
-4.18404e-11
7.68856e-08
-2.22442e-09
-2.49465e-10
7.39992e-08
-2.15478e-09
-4.29816e-10
7.01765e-08
-2.0817e-09
-5.5519e-10
6.51247e-08
-2.0021e-09
-5.817e-10
5.84516e-08
-1.90929e-09
-4.56781e-10
4.96401e-08
-1.79405e-09
3.05282e-08
-1.54763e-09
2.65245e-10
3.14783e-08
-1.26901e-09
2.60353e-10
5.09519e-08
-1.44738e-09
1.31216e-10
5.99556e-08
-1.53165e-09
-7.55245e-11
6.67695e-08
-1.60466e-09
-3.2059e-10
7.19224e-08
-1.67073e-09
-5.77371e-10
7.58161e-08
-1.73352e-09
-8.16804e-10
7.87509e-08
-1.79502e-09
-1.02096e-09
8.09556e-08
-1.85585e-09
-1.17856e-09
8.26033e-08
-1.91597e-09
-1.27896e-09
8.38269e-08
-1.97454e-09
-1.31315e-09
8.47275e-08
-2.03056e-09
-1.28521e-09
8.53834e-08
-2.08265e-09
-1.19575e-09
8.58544e-08
-2.12953e-09
-1.05268e-09
8.61862e-08
-2.16983e-09
-8.62015e-10
8.64134e-08
-2.20243e-09
-6.35946e-10
8.65608e-08
-2.22629e-09
-3.87058e-10
8.66456e-08
-2.24074e-09
-1.28608e-10
8.66775e-08
-2.24525e-09
1.27855e-10
8.66598e-08
-2.23974e-09
3.65179e-10
8.65889e-08
-2.2243e-09
5.73731e-10
8.6455e-08
-2.19945e-09
7.41884e-10
8.62408e-08
-2.16587e-09
8.58646e-10
8.59211e-08
-2.1246e-09
9.21272e-10
8.54614e-08
-2.07677e-09
9.21892e-10
8.48157e-08
-2.02374e-09
8.66485e-10
8.39239e-08
-1.9668e-09
7.51426e-10
8.27077e-08
-1.9073e-09
5.90942e-10
8.10657e-08
-1.84627e-09
3.96552e-10
7.8865e-08
-1.7845e-09
1.84003e-10
7.59323e-08
-1.72204e-09
-1.81061e-11
7.20387e-08
-1.65825e-09
-1.87966e-10
6.68836e-08
-1.59098e-09
-2.84593e-10
6.00651e-08
-1.516e-09
-2.69512e-10
5.10541e-08
-1.42831e-09
3.15044e-08
-1.24616e-09
4.59023e-11
3.22496e-08
-8.15492e-10
-8.66581e-11
5.1984e-08
-9.02461e-10
-2.88611e-10
6.11069e-08
-9.47833e-10
-5.32287e-10
6.80063e-08
-9.95224e-10
-7.82584e-10
7.32177e-08
-1.04314e-09
-1.02219e-09
7.71485e-08
-1.09231e-09
-1.23292e-09
8.01037e-08
-1.14309e-09
-1.3989e-09
8.2316e-08
-1.19528e-09
-1.50648e-09
8.39618e-08
-1.24819e-09
-1.55773e-09
8.51764e-08
-1.30071e-09
-1.54114e-09
8.60636e-08
-1.35153e-09
-1.46194e-09
8.67035e-08
-1.39926e-09
-1.32364e-09
8.71578e-08
-1.44247e-09
-1.13005e-09
8.74736e-08
-1.47985e-09
-8.93218e-10
8.76864e-08
-1.51021e-09
-6.21418e-10
8.78224e-08
-1.53259e-09
-3.28947e-10
8.7899e-08
-1.54625e-09
-2.65474e-11
8.79267e-08
-1.55074e-09
2.71423e-10
8.79086e-08
-1.54591e-09
5.49961e-10
8.78413e-08
-1.5319e-09
8.00909e-10
8.77145e-08
-1.50917e-09
1.00831e-09
8.75104e-08
-1.47845e-09
1.16794e-09
8.72029e-08
-1.4407e-09
1.27021e-09
8.67563e-08
-1.3971e-09
1.31174e-09
8.61234e-08
-1.34898e-09
1.29069e-09
8.52423e-08
-1.29773e-09
1.21091e-09
8.40329e-08
-1.24475e-09
1.07662e-09
8.23914e-08
-1.19134e-09
8.97906e-10
8.01823e-08
-1.13859e-09
6.88813e-10
7.72291e-08
-1.08719e-09
4.63512e-10
7.32992e-08
-1.03733e-09
2.5019e-10
6.80875e-08
-9.88498e-10
6.77814e-11
6.11864e-08
-9.3958e-10
-4.69937e-11
5.20606e-08
-8.91543e-10
3.22589e-08
-8.01474e-10
-1.66294e-10
3.27516e-08
-3.36483e-10
-4.14433e-10
5.25589e-08
-3.26389e-10
-6.92363e-10
6.17148e-08
-3.30125e-10
-9.7133e-10
6.86355e-08
-3.49821e-10
-1.2342e-09
7.38573e-08
-3.7793e-10
-1.46205e-09
7.77895e-08
-4.11985e-10
-1.64753e-09
8.07384e-08
-4.50711e-10
-1.77613e-09
8.29386e-08
-4.92989e-10
-1.84333e-09
8.45676e-08
-5.37513e-10
-1.84907e-09
8.57626e-08
-5.82847e-10
-1.78521e-09
8.66286e-08
-6.27443e-10
-1.6597e-09
8.7247e-08
-6.69826e-10
-1.47314e-09
8.76805e-08
-7.08512e-10
-1.23554e-09
8.79776e-08
-7.42207e-10
-9.54301e-10
8.81746e-08
-7.69704e-10
-6.4016e-10
8.82982e-08
-7.90083e-10
-3.04714e-10
8.83666e-08
-8.02594e-10
3.83971e-11
8.83904e-08
-8.06833e-10
3.77232e-10
8.83731e-08
-8.02624e-10
6.96063e-10
8.83111e-08
-7.90132e-10
9.88001e-10
8.81936e-08
-7.6977e-10
1.23952e-09
8.80026e-08
-7.42265e-10
1.43753e-09
8.77112e-08
-7.08552e-10
1.58178e-09
8.72829e-08
-6.69807e-10
1.66412e-09
8.66693e-08
-6.27339e-10
1.68144e-09
8.58077e-08
-5.82614e-10
1.63542e-09
8.46164e-08
-5.37108e-10
1.52735e-09
8.29905e-08
-4.92344e-10
1.36784e-09
8.0793e-08
-4.49751e-10
1.16002e-09
7.78461e-08
-4.1063e-10
9.21177e-10
7.39154e-08
-3.76066e-10
6.614e-10
6.86944e-08
-3.47261e-10
4.0047e-10
6.17742e-08
-3.26336e-10
1.62485e-10
5.26183e-08
-3.20462e-10
3.27501e-08
-3.28029e-10
-3.2307e-10
3.29899e-08
8.3698e-11
-6.58159e-10
5.27189e-08
1.76908e-10
-9.9306e-10
6.1838e-08
2.10094e-10
-1.30092e-09
6.87271e-08
2.1523e-10
-1.56554e-09
7.39199e-08
2.05158e-10
-1.78758e-09
7.78235e-08
1.85118e-10
-1.94967e-09
8.07439e-08
1.57759e-10
-2.05128e-09
8.2915e-08
1.2505e-10
-2.08706e-09
8.4515e-08
8.87654e-11
-2.05758e-09
8.56809e-08
5.08313e-11
-1.95944e-09
8.65188e-08
1.27087e-11
-1.79982e-09
8.71106e-08
-2.43945e-11
-1.5804e-09
8.752e-08
-5.87202e-11
-1.30968e-09
8.77958e-08
-8.86217e-11
-9.96631e-10
8.79753e-08
-1.13155e-10
-6.54423e-10
8.80856e-08
-1.31378e-10
-2.90031e-10
8.81455e-08
-1.42648e-10
8.17247e-11
8.81657e-08
-1.4651e-10
4.48122e-10
8.81498e-08
-1.42859e-10
7.96057e-10
8.80941e-08
-1.31794e-10
1.11505e-09
8.79878e-08
-1.13761e-10
1.39474e-09
8.78123e-08
-8.94007e-11
1.62476e-09
8.75402e-08
-5.9645e-11
1.8e-09