/*--------------------------------*- C++ -*----------------------------------*\
| =========                 |                                                 |
| \\      /  F ield         | OpenFOAM: The Open Source CFD Toolbox           |
|  \\    /   O peration     | Version:  v2006                                 |
|   \\  /    A nd           | Website:  www.openfoam.com                      |
|    \\/     M anipulation  |                                                 |
\*---------------------------------------------------------------------------*/
FoamFile
{
    version     2.0;
    format      ascii;
    class       volScalarField;
    location    "80";
    object      nut;
}
// * * * * * * * * * * * * * * * * * * * * * * * * * * * * * * * * * * * * * //

dimensions      [0 2 -1 0 0 0 0];


internalField   nonuniform List<scalar> 
78750
(
1.19793e-09
2.26034e-07
4.31661e-07
6.4242e-07
8.52752e-07
1.05877e-06
1.25748e-06
1.44636e-06
1.62338e-06
1.78698e-06
1.93603e-06
2.06981e-06
2.1879e-06
2.29022e-06
2.37597e-06
2.44485e-06
2.49687e-06
2.53197e-06
2.55002e-06
2.55072e-06
2.53384e-06
2.49818e-06
2.44286e-06
2.36678e-06
2.2686e-06
2.14699e-06
2.00042e-06
1.82776e-06
1.62943e-06
1.40645e-06
1.15961e-06
8.91029e-07
6.12712e-07
3.5144e-07
4.92573e-09
3.36959e-09
2.06928e-06
4.46592e-06
6.64267e-06
8.30514e-06
9.60339e-06
1.07102e-05
1.17229e-05
1.26977e-05
1.36722e-05
1.4672e-05
1.57156e-05
1.68513e-05
1.81061e-05
1.85797e-05
1.86591e-05
1.86563e-05
1.85793e-05
1.84351e-05
1.82293e-05
1.79661e-05
1.76462e-05
1.72684e-05
1.68289e-05
1.63202e-05
1.57336e-05
1.46481e-05
1.27895e-05
1.09387e-05
9.02477e-06
6.96359e-06
5.01103e-06
3.762e-06
2.18607e-06
1.88225e-08
5.9191e-09
2.00113e-06
4.43404e-06
7.39522e-06
1.05053e-05
1.32895e-05
1.5534e-05
1.728e-05
1.86418e-05
1.97168e-05
2.05709e-05
2.12456e-05
2.17754e-05
2.22097e-05
2.2541e-05
2.23509e-05
2.20523e-05
2.16804e-05
2.12504e-05
2.07772e-05
2.0276e-05
1.9513e-05
1.84785e-05
1.73792e-05
1.62722e-05
1.51721e-05
1.40561e-05
1.28575e-05
1.14526e-05
9.71818e-06
7.77632e-06
6.28553e-06
5.90223e-06
2.16933e-06
3.29597e-08
9.33351e-09
1.92109e-06
4.42478e-06
7.98612e-06
1.23454e-05
1.64537e-05
1.95426e-05
2.16375e-05
2.29879e-05
2.37734e-05
2.41076e-05
2.4073e-05
2.37392e-05
2.31731e-05
2.24395e-05
2.15862e-05
2.06463e-05
1.96498e-05
1.86228e-05
1.75882e-05
1.6569e-05
1.5592e-05
1.46873e-05
1.3881e-05
1.31873e-05
1.25922e-05
1.20303e-05
1.13619e-05
1.03997e-05
9.06979e-06
7.69723e-06
7.09866e-06
7.48513e-06
1.95447e-06
4.31682e-08
1.33824e-08
1.89223e-06
4.52374e-06
8.67513e-06
1.41895e-05
1.93997e-05
2.30538e-05
2.52564e-05
2.63491e-05
2.65617e-05
2.60892e-05
2.51219e-05
2.38401e-05
2.24011e-05
2.09264e-05
1.94965e-05
1.81524e-05
1.69058e-05
1.57501e-05
1.46743e-05
1.36743e-05
1.27609e-05
1.19564e-05
1.12843e-05
1.07596e-05
1.03704e-05
1.00475e-05
9.64412e-06
8.99328e-06
8.10233e-06
7.38366e-06
7.66384e-06
7.82369e-06
1.80852e-06
4.98912e-08
1.73481e-08
1.9182e-06
4.70735e-06
9.40992e-06
1.60097e-05
2.21982e-05
2.61765e-05
2.80522e-05
2.86763e-05
2.80859e-05
2.67146e-05
2.48796e-05
2.28605e-05
2.08733e-05
1.90506e-05
1.74486e-05
1.60692e-05
1.48835e-05
1.38507e-05
1.29315e-05
1.21017e-05
1.13554e-05
1.06926e-05
1.01147e-05
9.62823e-06
9.22783e-06
8.86485e-06
8.43872e-06
7.86672e-06
7.24665e-06
7.01781e-06
7.99747e-06
7.49893e-06
1.71607e-06
5.4579e-08
2.12595e-08
1.9427e-06
4.83326e-06
9.89806e-06
1.72008e-05
2.39041e-05
2.79101e-05
2.95966e-05
2.9571e-05
2.82929e-05
2.62108e-05
2.37588e-05
2.12943e-05
1.90473e-05
1.71173e-05
1.55115e-05
1.41911e-05
1.30994e-05
1.21824e-05
1.14009e-05
1.07361e-05
1.01801e-05
9.70685e-06
9.28217e-06
8.88191e-06
8.48728e-06
8.06734e-06
7.58151e-06
7.03728e-06
6.59653e-06
6.69532e-06
8.12664e-06
6.96638e-06
1.6528e-06
5.85941e-08
2.45857e-08
1.97162e-06
4.92862e-06
1.02248e-05
1.80426e-05
2.51844e-05
2.92127e-05
3.05977e-05
3.00678e-05
2.82063e-05
2.55944e-05
2.27603e-05
2.00868e-05
1.77693e-05
1.58527e-05
1.43023e-05
1.30568e-05
1.2053e-05
1.12352e-05
1.05668e-05
1.00343e-05
9.62064e-06
9.27283e-06
8.92936e-06
8.54412e-06
8.09259e-06
7.5673e-06
6.98518e-06
6.42292e-06
6.07573e-06
6.36367e-06
8.0557e-06
6.55367e-06
1.61554e-06
6.28935e-08
2.77947e-08
1.99059e-06
4.97703e-06
1.04005e-05
1.85099e-05
2.58356e-05
2.97644e-05
3.08737e-05
2.99755e-05
2.77394e-05
2.48272e-05
2.18104e-05
1.90611e-05
1.67336e-05
1.48358e-05
1.33122e-05
1.20949e-05
1.11252e-05
1.03582e-05
9.77099e-06
9.36489e-06
9.11211e-06
8.93152e-06
8.72524e-06
8.40747e-06
7.93332e-06
7.31789e-06
6.63891e-06
6.03578e-06
5.72793e-06
6.12076e-06
7.95298e-06
6.20553e-06
1.58955e-06
6.7741e-08
3.08204e-08
2.01026e-06
5.0171e-06
1.05252e-05
1.88487e-05
2.63416e-05
3.0219e-05
3.11193e-05
2.99371e-05
2.74286e-05
2.43233e-05
2.12122e-05
1.84419e-05
1.61283e-05
1.42518e-05
1.27447e-05
1.15369e-05
1.05717e-05
9.81204e-06
9.2489e-06
8.89739e-06
8.72714e-06
8.6472e-06
8.5394e-06
8.2854e-06
7.81325e-06
7.1432e-06
6.39578e-06
5.75807e-06
5.46752e-06
5.9214e-06
7.84026e-06
5.94125e-06
1.57351e-06
7.2971e-08
3.38326e-08
2.02379e-06
5.0399e-06
1.06056e-05
1.90692e-05
2.66214e-05
3.03911e-05
3.10966e-05
2.96964e-05
2.70059e-05
2.3793e-05
2.06473e-05
1.78862e-05
1.55953e-05
1.37378e-05
1.22404e-05
1.10342e-05
1.00678e-05
9.31121e-06
8.76773e-06
8.46532e-06
8.36886e-06
8.38056e-06
8.36669e-06
8.18201e-06
7.73076e-06
7.03437e-06
6.24387e-06
5.58298e-06
5.30541e-06
5.80776e-06
7.7943e-06
5.71342e-06
1.56261e-06
7.83727e-08
3.69949e-08
2.04095e-06
5.07454e-06
1.071e-05
1.93122e-05
2.69107e-05
3.05794e-05
3.11142e-05
2.95345e-05
2.67094e-05
2.34325e-05
2.02815e-05
1.75427e-05
1.52762e-05
1.34321e-05
1.19344e-05
1.07161e-05
9.73002e-06
8.95313e-06
8.3982e-06
8.10367e-06
8.03523e-06
8.0951e-06
8.14267e-06
8.01587e-06
7.59949e-06
6.9094e-06
6.11134e-06
5.45053e-06
5.19364e-06
5.74413e-06
7.79624e-06
5.52877e-06
1.55709e-06
8.37698e-08
4.01193e-08
2.05447e-06
5.1019e-06
1.0798e-05
1.95099e-05
2.71129e-05
3.06606e-05
3.10304e-05
2.92954e-05
2.63684e-05
2.30577e-05
1.99222e-05
1.72174e-05
1.49812e-05
1.31545e-05
1.16601e-05
1.04338e-05
9.43272e-06
8.63942e-06
8.07516e-06
7.78707e-06
7.73833e-06
7.83159e-06
7.92283e-06
7.84039e-06
7.45803e-06
6.78833e-06
6.00449e-06
5.36222e-06
5.13713e-06
5.74429e-06
7.86154e-06
5.36839e-06
1.55517e-06
8.90496e-08
4.34917e-08
2.07218e-06
5.14352e-06
1.09224e-05
1.97609e-05
2.73512e-05
3.07649e-05
3.09764e-05
2.91102e-05
2.6113e-05
2.27954e-05
1.96902e-05
1.70232e-05
1.48142e-05
1.29982e-05
1.14985e-05
1.02543e-05
9.22731e-06
8.40508e-06
7.81518e-06
7.51289e-06
7.46192e-06
7.56451e-06
7.67801e-06
7.62744e-06
7.28054e-06
6.6459e-06
5.89662e-06
5.29026e-06
5.10788e-06
5.77922e-06
7.96225e-06
5.23932e-06
1.55713e-06
9.41932e-08
4.6776e-08
2.08734e-06
5.18031e-06
1.10341e-05
1.99787e-05
2.75399e-05
3.08203e-05
3.08835e-05
2.89007e-05
2.58492e-05
2.25376e-05
1.94711e-05
1.68473e-05
1.467e-05
1.28689e-05
1.13678e-05
1.01094e-05
9.05926e-06
8.20977e-06
7.59432e-06
7.27539e-06
7.21713e-06
7.32139e-06
7.44539e-06
7.41598e-06
7.10003e-06
6.50486e-06
5.80065e-06
5.24162e-06
5.11164e-06
5.85644e-06
8.10043e-06
5.13023e-06
1.5618e-06
9.91709e-08
5.02993e-08
2.10586e-06
5.22779e-06
1.11739e-05
2.02392e-05
2.77573e-05
3.08943e-05
3.08178e-05
2.87406e-05
2.56596e-05
2.23707e-05
1.93494e-05
1.67682e-05
1.46182e-05
1.28263e-05
1.13177e-05
1.0038e-05
8.95698e-06
8.07135e-06
7.41841e-06
7.06739e-06
6.98627e-06
7.07783e-06
7.20099e-06
7.18516e-06
6.90042e-06
6.35184e-06
5.70269e-06
5.19998e-06
5.12936e-06
5.95359e-06
8.25445e-06
5.04573e-06
1.56928e-06
1.04016e-07
5.37177e-08
2.12257e-06
5.27217e-06
1.13049e-05
2.04754e-05
2.79431e-05
3.09445e-05
3.07392e-05
2.85784e-05
2.54759e-05
2.22147e-05
1.92416e-05
1.67059e-05
1.45874e-05
1.28093e-05
1.12974e-05
9.99971e-06
8.88963e-06
7.96845e-06
7.27703e-06
6.8907e-06
6.78193e-06
6.8545e-06
6.96989e-06
6.96175e-06
6.70436e-06
6.20303e-06
5.61298e-06
5.17198e-06
5.16679e-06
6.077e-06
8.42508e-06
4.97655e-06
1.57859e-06
1.08713e-07
5.73425e-08
2.14173e-06
5.32397e-06
1.14557e-05
2.0742e-05
2.81512e-05
3.10152e-05
3.0693e-05
2.84678e-05
2.53606e-05
2.21353e-05
1.92112e-05
1.67181e-05
1.46269e-05
1.28588e-05
1.13397e-05
1.00195e-05
8.87503e-06
7.91131e-06
7.17222e-06
6.73783e-06
6.58914e-06
6.63188e-06
6.73142e-06
6.72743e-06
6.49862e-06
6.04814e-06
5.52159e-06
5.14643e-06
5.21061e-06
6.21068e-06
8.59977e-06
4.92599e-06
1.58989e-06
1.13295e-07
6.08696e-08
2.1596e-06
5.37414e-06
1.16023e-05
2.09944e-05
2.83417e-05
3.10761e-05
3.06457e-05
2.83621e-05
2.52529e-05
2.20642e-05
1.91902e-05
1.67425e-05
1.46837e-05
1.29312e-05
1.14103e-05
1.00719e-05
8.89555e-06
7.88948e-06
7.1012e-06
6.61468e-06
6.4209e-06
6.42793e-06
6.50564e-06
6.50083e-06
6.29791e-06
5.89796e-06
5.4359e-06
5.12848e-06
5.26508e-06
6.35883e-06
8.7776e-06
4.88536e-06
1.6021e-06
1.17736e-07
6.45714e-08
2.1792e-06
5.42963e-06
1.1764e-05
2.12711e-05
2.85532e-05
3.11612e-05
3.06344e-05
2.83064e-05
2.52042e-05
2.20541e-05
1.92277e-05
1.6822e-05
1.47926e-05
1.3054e-05
1.153e-05
1.01719e-05
8.96081e-06
7.90777e-06
7.06314e-06
6.51434e-06
6.26581e-06
6.22891e-06
6.27874e-06
6.27001e-06
6.09265e-06
5.74448e-06
5.34859e-06
5.11082e-06
5.32232e-06
6.51256e-06
8.95491e-06
4.85861e-06
1.61573e-06
1.22061e-07
6.81894e-08
2.19769e-06
5.48416e-06
1.19252e-05
2.15431e-05
2.87591e-05
3.12468e-05
3.06287e-05
2.82575e-05
2.51606e-05
2.20477e-05
1.92698e-05
1.69097e-05
1.49153e-05
1.31973e-05
1.16769e-05
1.03044e-05
9.06155e-06
7.96177e-06
7.05868e-06
6.44328e-06
6.13483e-06
6.04868e-06
6.06564e-06
6.04885e-06
5.8941e-06
5.59581e-06
5.26499e-06
5.09666e-06
5.38416e-06
6.67262e-06
9.1274e-06
4.83743e-06
1.62952e-06
1.26238e-07
7.19546e-08
2.21718e-06
5.54234e-06
1.20991e-05
2.18386e-05
2.89899e-05
3.13617e-05
3.06596e-05
2.82513e-05
2.51619e-05
2.20848e-05
1.93523e-05
1.70352e-05
1.50747e-05
1.33773e-05
1.18617e-05
1.04759e-05
9.20115e-06
8.05246e-06
7.08612e-06
6.39628e-06
6.02032e-06
5.87847e-06
5.85771e-06
5.82977e-06
5.69596e-06
5.44666e-06
5.18048e-06
5.08189e-06
5.44676e-06
6.83531e-06
9.29634e-06
4.8251e-06
1.64406e-06
1.30278e-07
7.56507e-08
2.23555e-06
5.59928e-06
1.22733e-05
2.21368e-05
2.92288e-05
3.14901e-05
3.07017e-05
2.82497e-05
2.51634e-05
2.2121e-05
1.9436e-05
1.71662e-05
1.52456e-05
1.35759e-05
1.20721e-05
1.0679e-05
9.37602e-06
8.17916e-06
7.14751e-06
6.379e-06
5.93044e-06
5.72799e-06
5.66513e-06
5.62225e-06
5.50608e-06
5.3029e-06
5.09923e-06
5.06946e-06
5.51249e-06
7.00297e-06
9.46081e-06
4.81715e-06
1.65859e-06
1.3415e-07
7.94665e-08
2.25445e-06
5.65818e-06
1.2454e-05
2.24428e-05
2.94616e-05
3.16152e-05
3.07569e-05
2.82709e-05
2.51918e-05
2.21844e-05
1.95453e-05
1.73213e-05
1.54404e-05
1.38002e-05
1.23113e-05
1.09144e-05
9.58591e-06
8.34129e-06
7.24185e-06
6.38941e-06
5.86179e-06
5.59299e-06
5.48345e-06
5.42209e-06
5.32064e-06
5.16101e-06
5.01776e-06
5.05559e-06
5.57645e-06
7.16808e-06
9.61417e-06
4.81206e-06
1.67294e-06
1.37853e-07
8.32242e-08
2.27255e-06
5.7163e-06
1.26327e-05
2.27367e-05
2.96803e-05
3.17293e-05
3.0803e-05
2.82921e-05
2.52199e-05
2.22463e-05
1.96546e-05
1.74802e-05
1.56444e-05
1.40402e-05
1.25733e-05
1.11793e-05
9.8304e-06
8.54036e-06
7.37254e-06
6.43336e-06
5.82119e-06
5.48087e-06
5.32e-06
5.23593e-06
5.1452e-06
5.02544e-06
4.93979e-06
5.04392e-06
5.64357e-06
7.34008e-06
9.7709e-06
4.81216e-06
1.68735e-06
1.41369e-07
8.70715e-08
2.29092e-06
5.77666e-06
1.28203e-05
2.3033e-05
2.98963e-05
3.18416e-05
3.08513e-05
2.8322e-05
2.52597e-05
2.23209e-05
1.97765e-05
1.76515e-05
1.58617e-05
1.42963e-05
1.2856e-05
1.14706e-05
1.01067e-05
8.77483e-06
7.53946e-06
6.51172e-06
5.80903e-06
5.39132e-06
5.17389e-06
5.06243e-06
4.978e-06
4.89402e-06
4.86266e-06
5.03096e-06
5.70861e-06
7.51036e-06
9.92207e-06
4.81452e-06
1.70134e-06
1.44692e-07
9.0857e-08
2.3082e-06
5.8348e-06
1.30038e-05
2.33156e-05
3.00962e-05
3.19403e-05
3.08881e-05
2.83425e-05
2.52946e-05
2.23931e-05
1.98975e-05
1.78246e-05
1.60851e-05
1.45639e-05
1.31569e-05
1.1787e-05
1.04145e-05
9.04549e-06
7.74476e-06
6.62854e-06
5.83055e-06
5.33025e-06
5.05104e-06
4.90692e-06
4.82341e-06
4.77019e-06
4.78925e-06
5.01996e-06
5.77754e-06
7.69116e-06
1.00742e-05
4.82409e-06
1.71585e-06
1.47824e-07
9.4697e-08
2.32559e-06
5.89362e-06
1.31896e-05
2.35984e-05
3.02924e-05
3.20356e-05
3.09232e-05
2.83639e-05
2.53386e-05
2.2472e-05
2.00223e-05
1.80012e-05
1.63137e-05
1.48401e-05
1.34714e-05
1.21238e-05
1.07498e-05
9.3497e-06
7.98717e-06
6.78333e-06
5.88574e-06
5.29781e-06
4.95177e-06
4.76961e-06
4.68132e-06
4.6534e-06
4.7187e-06
5.00982e-06
5.84835e-06
7.87744e-06
1.02271e-05
4.83963e-06
1.73094e-06
1.5077e-07
9.84765e-08
2.34222e-06
5.95081e-06
1.3371e-05
2.38692e-05
3.04736e-05
3.2117e-05
3.09448e-05
2.83714e-05
2.53688e-05
2.25403e-05
2.0141e-05
1.81761e-05
1.65449e-05
1.51238e-05
1.3799e-05
1.24803e-05
1.11119e-05
9.68677e-06
8.26641e-06
6.9763e-06
5.9764e-06
5.297e-06
4.87966e-06
4.65416e-06
4.55503e-06
4.54637e-06
4.65305e-06
5.00187e-06
5.92136e-06
8.06777e-06
1.03788e-05
4.85921e-06
1.74639e-06
1.53532e-07
1.0228e-07
2.35893e-06
6.00857e-06
1.35543e-05
2.41389e-05
3.065e-05
3.21931e-05
3.09616e-05
2.83749e-05
2.53958e-05
2.26062e-05
2.02578e-05
1.83498e-05
1.67764e-05
1.54106e-05
1.41344e-05
1.28512e-05
1.14961e-05
1.00533e-05
8.58027e-06
7.20594e-06
6.10196e-06
5.32782e-06
4.83504e-06
4.56104e-06
4.44501e-06
4.44943e-06
4.59242e-06
4.99597e-06
5.99584e-06
8.26012e-06
1.05294e-05
4.88263e-06
1.76212e-06
1.56117e-07
1.06026e-07
2.37522e-06
6.06538e-06
1.37339e-05
2.43973e-05
3.08119e-05
3.22549e-05
3.09639e-05
2.83638e-05
2.54093e-05
2.26615e-05
2.03673e-05
1.85192e-05
1.70068e-05
1.57e-05
1.44772e-05
1.32353e-05
1.19006e-05
1.04472e-05
8.92706e-06
7.47127e-06
6.26285e-06
5.39169e-06
4.81993e-06
4.49255e-06
4.3535e-06
4.36442e-06
4.53784e-06
4.9917e-06
6.06949e-06
8.45194e-06
1.06767e-05
4.90859e-06
1.77793e-06
1.58532e-07
1.09774e-07
2.39169e-06
6.12313e-06
1.39146e-05
2.46524e-05
3.09666e-05
3.23081e-05
3.09567e-05
2.8343e-05
2.54138e-05
2.27098e-05
2.04707e-05
1.8683e-05
1.72329e-05
1.59878e-05
1.48224e-05
1.36278e-05
1.23208e-05
1.08648e-05
9.30404e-06
7.77059e-06
6.45835e-06
5.48839e-06
4.83437e-06
4.449e-06
4.28098e-06
4.29189e-06
4.49006e-06
4.99092e-06
6.14664e-06
8.64306e-06
1.08217e-05
4.937e-06
1.79375e-06
1.60787e-07
1.13473e-07
2.40806e-06
6.18153e-06
1.40921e-05
2.48967e-05
3.11069e-05
3.2346e-05
3.09334e-05
2.83057e-05
2.54031e-05
2.27484e-05
2.05657e-05
1.88397e-05
1.7454e-05
1.62734e-05
1.51694e-05
1.4027e-05
1.27541e-05
1.13028e-05
9.70827e-06
8.10186e-06
6.68785e-06
5.61833e-06
4.8794e-06
4.43176e-06
4.22906e-06
4.23354e-06
4.45064e-06
4.99443e-06
6.22598e-06
8.83358e-06
1.09647e-05
4.96739e-06
1.80949e-06
1.62892e-07
1.17153e-07
2.42415e-06
6.24033e-06
1.42683e-05
2.51348e-05
3.12369e-05
3.2372e-05
3.08967e-05
2.82542e-05
2.53777e-05
2.27735e-05
2.06486e-05
1.8986e-05
1.76672e-05
1.65539e-05
1.55146e-05
1.44292e-05
1.31967e-05
1.17574e-05
1.01364e-05
8.46272e-06
6.95008e-06
5.78088e-06
4.95486e-06
4.44104e-06
4.19824e-06
4.1901e-06
4.42021e-06
5.0023e-06
6.30647e-06
9.02263e-06
1.11061e-05
4.99965e-06
1.82512e-06
1.64854e-07
1.20768e-07
2.43952e-06
6.29737e-06
1.44416e-05
2.53631e-05
3.13525e-05
3.23828e-05
3.08448e-05
2.81876e-05
2.53378e-05
2.27852e-05
2.07202e-05
1.91235e-05
1.78736e-05
1.68298e-05
1.58578e-05
1.48328e-05
1.36456e-05
1.22248e-05
1.05846e-05
8.84992e-06
7.24322e-06
5.97532e-06
5.06079e-06
4.47744e-06
4.18955e-06
4.16281e-06
4.40002e-06
5.0154e-06
6.38839e-06
9.2102e-06
1.12462e-05
5.0334e-06
1.84058e-06
1.66682e-07
1.24325e-07
2.45441e-06
6.35297e-06
1.4611e-05
2.55836e-05
3.14575e-05
3.23787e-05
3.07747e-05
2.81023e-05
2.52807e-05
2.27821e-05
2.07794e-05
1.92503e-05
1.80711e-05
1.70989e-05
1.61966e-05
1.52353e-05
1.40978e-05
1.27014e-05
1.10487e-05
9.25993e-06
7.56464e-06
6.19985e-06
5.19616e-06
4.54056e-06
4.20316e-06
4.15227e-06
4.39084e-06
5.03438e-06
6.47186e-06
9.39578e-06
1.1385e-05
5.06851e-06
1.85587e-06
1.68381e-07
1.27824e-07
2.46866e-06
6.40771e-06
1.47809e-05
2.57991e-05
3.15511e-05
3.23624e-05
3.06926e-05
2.80047e-05
2.52094e-05
2.27622e-05
2.08229e-05
1.93649e-05
1.82591e-05
1.73602e-05
1.65295e-05
1.56343e-05
1.45502e-05
1.31833e-05
1.15247e-05
9.68865e-06
7.9111e-06
6.45223e-06
5.35965e-06
4.62991e-06
4.23929e-06
4.15924e-06
4.39371e-06
5.06026e-06
6.55786e-06
9.5802e-06
1.15228e-05
5.10476e-06
1.87096e-06
1.69958e-07
1.31274e-07
2.48255e-06
6.46169e-06
1.49488e-05
2.6006e-05
3.16324e-05
3.23314e-05
3.05938e-05
2.78904e-05
2.5124e-05
2.27319e-05
2.08567e-05
1.94679e-05
1.84366e-05
1.76132e-05
1.68559e-05
1.6029e-05
1.50014e-05
1.36685e-05
1.20096e-05
1.0133e-05
8.27962e-06
6.72992e-06
5.54932e-06
4.74426e-06
4.29745e-06
4.18388e-06
4.40916e-06
5.09373e-06
6.6469e-06
9.76373e-06
1.16602e-05
5.14211e-06
1.88586e-06
1.71422e-07
1.3466e-07
2.49595e-06
6.51477e-06
1.5115e-05
2.62046e-05
3.17007e-05
3.22859e-05
3.04801e-05
2.77609e-05
2.50231e-05
2.26866e-05
2.08782e-05
1.95615e-05
1.86032e-05
1.78553e-05
1.71737e-05
1.64175e-05
1.5449e-05
1.41537e-05
1.24999e-05
1.0589e-05
8.66641e-06
7.03007e-06
5.7632e-06
4.8824e-06
4.37715e-06
4.22637e-06
4.43795e-06
5.13588e-06
6.74022e-06
9.94742e-06
1.17978e-05
5.18056e-06
1.90058e-06
1.72784e-07
1.37975e-07
2.50882e-06
6.56657e-06
1.52782e-05
2.63938e-05
3.1756e-05
3.22254e-05
3.03501e-05
2.76156e-05
2.49079e-05
2.26284e-05
2.08884e-05
1.96453e-05
1.87627e-05
1.80901e-05
1.74838e-05
1.67994e-05
1.58921e-05
1.46375e-05
1.29932e-05
1.10539e-05
9.06835e-06
7.34991e-06
5.999e-06
5.04263e-06
4.47734e-06
4.2863e-06
4.48016e-06
5.18709e-06
6.83824e-06
1.01316e-05
1.19362e-05
5.22017e-06
1.91516e-06
1.74056e-07
1.41223e-07
2.52125e-06
6.61743e-06
1.5439e-05
2.65737e-05
3.17979e-05
3.21496e-05
3.0204e-05
2.74546e-05
2.4778e-05
2.25567e-05
2.08865e-05
1.97182e-05
1.8912e-05
1.83159e-05
1.77845e-05
1.71722e-05
1.63278e-05
1.51168e-05
1.34862e-05
1.15243e-05
9.48232e-06
7.68707e-06
6.25493e-06
5.22365e-06
4.59722e-06
4.36345e-06
4.5362e-06
5.24825e-06
6.94215e-06
1.03173e-05
1.20762e-05
5.26115e-06
1.92966e-06
1.75252e-07
1.44386e-07
2.53308e-06
6.66672e-06
1.55961e-05
2.67437e-05
3.18265e-05
3.20584e-05
3.00414e-05
2.72776e-05
2.46335e-05
2.2472e-05
2.08734e-05
1.97812e-05
1.90524e-05
1.85335e-05
1.80778e-05
1.75368e-05
1.67556e-05
1.55903e-05
1.3977e-05
1.19976e-05
9.90554e-06
8.03921e-06
6.52917e-06
5.42404e-06
4.73579e-06
4.45723e-06
4.6058e-06
5.31939e-06
7.05209e-06
1.05047e-05
1.22184e-05
5.30362e-06
1.94413e-06
1.76388e-07
1.47462e-07
2.54434e-06
6.71458e-06
1.57499e-05
2.69039e-05
3.18412e-05
3.1951e-05
2.98619e-05
2.70849e-05
2.44749e-05
2.23747e-05
2.08492e-05
1.98339e-05
1.91826e-05
1.8741e-05
1.83609e-05
1.78913e-05
1.71723e-05
1.60543e-05
1.44618e-05
1.24702e-05
1.03349e-05
8.40408e-06
6.82013e-06
5.64274e-06
4.8924e-06
4.56745e-06
4.68931e-06
5.40128e-06
7.16913e-06
1.0695e-05
1.23638e-05
5.34783e-06
1.95864e-06
1.7748e-07
1.50448e-07
2.55502e-06
6.76094e-06
1.59003e-05
2.70541e-05
3.18422e-05
3.18275e-05
2.96657e-05
2.68766e-05
2.43027e-05
2.22656e-05
2.08148e-05
1.98775e-05
1.93045e-05
1.89402e-05
1.86356e-05
1.82369e-05
1.75795e-05
1.65063e-05
1.49368e-05
1.29385e-05
1.07672e-05
8.77906e-06
7.12593e-06
5.87845e-06
5.06616e-06
4.69354e-06
4.78645e-06
5.49395e-06
7.29361e-06
1.08886e-05
1.25135e-05
5.39402e-06
1.97328e-06
1.78543e-07
1.53348e-07
2.56515e-06
6.80595e-06
1.60476e-05
2.71943e-05
3.18285e-05
3.1687e-05
2.94522e-05
2.66529e-05
2.41172e-05
2.2145e-05
2.07701e-05
1.99114e-05
1.94166e-05
1.91293e-05
1.88993e-05
1.85708e-05
1.79745e-05
1.69469e-05
1.54002e-05
1.33989e-05
1.11986e-05
9.161e-06
7.44433e-06
6.12981e-06
5.25643e-06
4.8354e-06
4.89756e-06
5.59816e-06
7.4266e-06
1.10867e-05
1.26678e-05
5.44227e-06
1.98807e-06
1.79591e-07
1.56158e-07
2.57472e-06
6.84955e-06
1.61915e-05
2.73241e-05
3.17999e-05
3.15293e-05
2.92219e-05
2.64146e-05
2.39198e-05
2.20143e-05
2.07169e-05
1.99375e-05
1.95209e-05
1.931e-05
1.91536e-05
1.88936e-05
1.83567e-05
1.73734e-05
1.58505e-05
1.38492e-05
1.16262e-05
9.54683e-06
7.77268e-06
6.39489e-06
5.46199e-06
4.99239e-06
5.0225e-06
5.7142e-06
7.56886e-06
1.12904e-05
1.28276e-05
5.49278e-06
2.00311e-06
1.80636e-07
1.58883e-07
2.58375e-06
6.89187e-06
1.63324e-05
2.74433e-05
3.17559e-05
3.13539e-05
2.89744e-05
2.61619e-05
2.37108e-05
2.18739e-05
2.06551e-05
1.99554e-05
1.96166e-05
1.94812e-05
1.93971e-05
1.92038e-05
1.87241e-05
1.77836e-05
1.62844e-05
1.42862e-05
1.20474e-05
9.93384e-06
8.10852e-06
6.67183e-06
5.68169e-06
5.16411e-06
5.16153e-06
5.84299e-06
7.72183e-06
1.15013e-05
1.29933e-05
5.54556e-06
2.01842e-06
1.81686e-07
1.61523e-07
2.59224e-06
6.93283e-06
1.647e-05
2.75514e-05
3.1696e-05
3.11609e-05
2.87106e-05
2.58962e-05
2.3492e-05
2.17258e-05
2.05869e-05
1.99671e-05
1.97058e-05
1.96448e-05
1.96311e-05
1.95021e-05
1.90768e-05
1.81765e-05
1.67003e-05
1.47073e-05
1.24579e-05
1.03178e-05
8.44848e-06
6.95818e-06
5.91399e-06
5.34971e-06
5.31432e-06
5.98455e-06
7.88642e-06
1.17207e-05
1.31648e-05
5.60068e-06
2.03407e-06
1.8275e-07
1.64079e-07
2.60015e-06
6.9724e-06
1.66042e-05
2.7648e-05
3.16197e-05
3.09495e-05
2.84302e-05
2.56177e-05
2.32636e-05
2.15702e-05
2.05124e-05
1.99727e-05
1.97882e-05
1.98002e-05
1.98552e-05
1.97878e-05
1.94138e-05
1.85508e-05
1.70963e-05
1.51109e-05
1.28571e-05
1.06967e-05
8.78972e-06
7.25131e-06
6.15694e-06
5.5482e-06
5.48107e-06
6.14074e-06
8.06449e-06
1.19507e-05
1.33425e-05
5.6581e-06
2.05008e-06
1.83832e-07
1.66553e-07
2.60751e-06
7.01057e-06
1.67349e-05
2.77326e-05
3.15266e-05
3.07201e-05
2.81339e-05
2.53276e-05
2.30274e-05
2.14092e-05
2.04338e-05
1.99745e-05
1.9866e-05
1.99495e-05
2.00706e-05
2.00616e-05
1.97351e-05
1.89058e-05
1.74714e-05
1.54952e-05
1.32429e-05
1.1068e-05
9.12964e-06
7.54884e-06
6.40872e-06
5.75844e-06
5.66135e-06
6.31157e-06
8.25717e-06
1.21926e-05
1.35263e-05
5.71786e-06
2.06651e-06
1.84938e-07
1.68945e-07
2.61424e-06
7.04718e-06
1.68616e-05
2.78049e-05
3.14162e-05
3.04719e-05
2.78215e-05
2.50258e-05
2.27833e-05
2.12428e-05
2.03511e-05
1.99725e-05
1.99394e-05
2.0093e-05
2.02778e-05
2.0324e-05
2.0041e-05
1.92416e-05
1.78249e-05
1.58591e-05
1.36132e-05
1.14292e-05
9.46537e-06
7.84804e-06
6.6671e-06
5.97897e-06
5.85457e-06
6.49734e-06
8.46614e-06
1.24487e-05
1.3716e-05
5.77994e-06
2.08339e-06
1.86069e-07
1.7126e-07
2.62039e-06
7.08231e-06
1.69845e-05
2.78646e-05
3.12883e-05
3.02049e-05
2.74934e-05
2.47134e-05
2.25329e-05
2.10726e-05
2.02664e-05
1.9969e-05
2.00107e-05
2.02326e-05
2.04784e-05
2.05761e-05
2.03322e-05
1.95584e-05
1.81567e-05
1.62018e-05
1.39665e-05
1.17783e-05
9.79489e-06
8.14693e-06
6.93045e-06
6.2086e-06
6.05985e-06
6.69756e-06
8.69162e-06
1.27191e-05
1.39112e-05
5.84429e-06
2.10076e-06
1.87229e-07
1.73496e-07
2.62589e-06
7.11579e-06
1.71032e-05
2.79113e-05
3.11421e-05
2.99183e-05
2.71489e-05
2.43897e-05
2.22755e-05
2.08985e-05
2.01795e-05
1.99642e-05
2.00805e-05
2.03695e-05
2.06738e-05
2.08192e-05
2.06098e-05
1.98569e-05
1.8467e-05
1.65228e-05
1.43015e-05
1.21135e-05
1.01161e-05
8.4434e-06
7.19673e-06
6.44566e-06
6.27629e-06
6.9124e-06
8.9349e-06
1.30058e-05
1.41113e-05
5.91087e-06
2.11866e-06
1.88418e-07
1.75664e-07
2.63083e-06
7.14784e-06
1.72182e-05
2.79451e-05
3.09773e-05
2.96118e-05
2.67883e-05
2.40556e-05
2.20123e-05
2.07216e-05
2.00921e-05
1.99598e-05
2.01507e-05
2.05055e-05
2.08657e-05
2.1055e-05
2.08752e-05
2.01385e-05
1.87569e-05
1.68229e-05
1.4618e-05
1.24341e-05
1.04276e-05
8.73581e-06
7.46429e-06
6.68879e-06
6.50288e-06
7.14126e-06
9.19567e-06
1.33083e-05
1.43157e-05
5.97952e-06
2.13709e-06
1.8964e-07
1.77761e-07
2.63513e-06
7.17827e-06
1.73291e-05
2.79654e-05
3.0793e-05
2.92845e-05
2.64108e-05
2.37103e-05
2.17426e-05
2.05415e-05
2.00037e-05
1.99559e-05
2.02217e-05
2.06416e-05
2.10556e-05
2.12852e-05
2.11304e-05
2.04047e-05
1.90279e-05
1.71029e-05
1.49163e-05
1.27396e-05
1.07286e-05
9.02289e-06
7.73191e-06
6.93665e-06
6.73868e-06
7.38392e-06
9.47454e-06
1.36274e-05
1.45242e-05
6.05019e-06
2.15608e-06
1.90895e-07
1.79798e-07
2.63892e-06
7.20743e-06
1.74367e-05
2.79726e-05
3.05892e-05
2.89364e-05
2.60169e-05
2.33546e-05
2.14674e-05
2.03593e-05
1.99155e-05
1.99535e-05
2.02948e-05
2.0779e-05
2.12448e-05
2.15113e-05
2.13768e-05
2.06574e-05
1.92817e-05
1.73645e-05
1.51972e-05
1.30303e-05
1.10185e-05
9.30357e-06
7.99807e-06
7.18795e-06
6.98268e-06
7.63967e-06
9.77099e-06
1.39625e-05
1.47358e-05
6.12262e-06
2.1756e-06
1.92183e-07
1.81772e-07
2.64212e-06
7.23513e-06
1.75404e-05
2.79657e-05
3.03647e-05
2.85666e-05
2.56061e-05
2.29883e-05
2.11863e-05
2.01748e-05
1.98273e-05
1.99524e-05
2.03697e-05
2.09181e-05
2.14343e-05
2.17346e-05
2.16162e-05
2.08986e-05
1.95205e-05
1.761e-05
1.54626e-05
1.33073e-05
1.12978e-05
9.57772e-06
8.26234e-06
7.44206e-06
7.23389e-06
7.90778e-06
1.00846e-05
1.4313e-05
1.49503e-05
6.19674e-06
2.19565e-06
1.93507e-07
1.83692e-07
2.64484e-06
7.26164e-06
1.76408e-05
2.79453e-05
3.012e-05
2.8176e-05
2.51798e-05
2.26124e-05
2.09004e-05
1.99899e-05
1.974e-05
1.99527e-05
2.04464e-05
2.10588e-05
2.16241e-05
2.19555e-05
2.18493e-05
2.11295e-05
1.97462e-05
1.78413e-05
1.57138e-05
1.35712e-05
1.15664e-05
9.84466e-06
8.52356e-06
7.69773e-06
7.49165e-06
8.18776e-06
1.0415e-05
1.46781e-05
1.51666e-05
6.27218e-06
2.21617e-06
1.94865e-07
1.85554e-07
2.64702e-06
7.28675e-06
1.77372e-05
2.79102e-05
2.98542e-05
2.77643e-05
2.47381e-05
2.22271e-05
2.06091e-05
1.98039e-05
1.96525e-05
1.99532e-05
2.05239e-05
2.12006e-05
2.18143e-05
2.21748e-05
2.20774e-05
2.13518e-05
1.99612e-05
1.80617e-05
1.59535e-05
1.38241e-05
1.18258e-05
1.01052e-05
8.78193e-06
7.95456e-06
7.75499e-06
8.47818e-06
1.07608e-05
1.50563e-05
1.53839e-05
6.34867e-06
2.23712e-06
1.96258e-07
1.87361e-07
2.64872e-06
7.31059e-06
1.78299e-05
2.78609e-05
2.95681e-05
2.73334e-05
2.42835e-05
2.18345e-05
2.03132e-05
1.96141e-05
1.95623e-05
1.99524e-05
2.06013e-05
2.13429e-05
2.20043e-05
2.23917e-05
2.23003e-05
2.15663e-05
2.01672e-05
1.82738e-05
1.61836e-05
1.40671e-05
1.20765e-05
1.03594e-05
9.0372e-06
8.21211e-06
8.02358e-06
8.7791e-06
1.11209e-05
1.54457e-05
1.56019e-05
6.42609e-06
2.25848e-06
1.97691e-07
1.89108e-07
2.64986e-06
7.33286e-06
1.79181e-05
2.77965e-05
2.92614e-05
2.68834e-05
2.38169e-05
2.14355e-05
2.00141e-05
1.94227e-05
1.94713e-05
1.99512e-05
2.06788e-05
2.14853e-05
2.21936e-05
2.26063e-05
2.25184e-05
2.1774e-05
2.03663e-05
1.84805e-05
1.64061e-05
1.43015e-05
1.23192e-05
1.06076e-05
9.28928e-06
8.47007e-06
8.29696e-06
9.09002e-06
1.14952e-05
1.58453e-05
1.5819e-05
6.50386e-06
2.28012e-06
1.99157e-07
1.90797e-07
2.65047e-06
7.35355e-06
1.80016e-05
2.77172e-05
2.89352e-05
2.64166e-05
2.33406e-05
2.10322e-05
1.97127e-05
1.92295e-05
1.93785e-05
1.99485e-05
2.0755e-05
2.16263e-05
2.23809e-05
2.28172e-05
2.27306e-05
2.19745e-05
2.0559e-05
1.8683e-05
1.66223e-05
1.45284e-05
1.25547e-05
1.08501e-05
9.53819e-06
8.72803e-06
8.57433e-06
9.40991e-06
1.18824e-05
1.62531e-05
1.60347e-05
6.58143e-06
2.30191e-06
2.00649e-07
1.9242e-07
2.65045e-06
7.3723e-06
1.80795e-05
2.76225e-05
2.85892e-05
2.59336e-05
2.28558e-05
2.06257e-05
1.941e-05
1.90354e-05
1.92847e-05
1.99446e-05
2.083e-05
2.17659e-05
2.2566e-05
2.30243e-05
2.29371e-05
2.21679e-05
2.07448e-05
1.88799e-05
1.68313e-05
1.47474e-05
1.27829e-05
1.10871e-05
9.78399e-06
8.986e-06
8.85558e-06
9.73845e-06
1.2282e-05
1.66687e-05
1.6248e-05
6.6585e-06
2.32381e-06
2.0217e-07
1.93979e-07
2.64984e-06
7.38912e-06
1.81518e-05
2.75127e-05
2.82244e-05
2.54362e-05
2.23648e-05
2.02177e-05
1.91074e-05
1.88414e-05
1.91904e-05
1.99397e-05
2.09033e-05
2.19032e-05
2.27478e-05
2.32266e-05
2.3137e-05
2.23537e-05
2.09233e-05
1.90702e-05
1.70326e-05
1.4958e-05
1.30031e-05
1.13175e-05
1.00259e-05
9.24347e-06
9.14057e-06
1.00757e-05
1.26938e-05
1.70913e-05
1.64575e-05
6.73468e-06
2.34571e-06
2.03721e-07
1.95472e-07
2.64856e-06
7.40372e-06
1.82179e-05
2.73872e-05
2.78405e-05
2.49247e-05
2.18678e-05
1.98089e-05
1.88055e-05
1.8648e-05
1.90962e-05
1.99342e-05
2.09755e-05
2.20387e-05
2.29265e-05
2.34242e-05
2.33308e-05
2.25325e-05
2.1095e-05
1.92539e-05
1.72265e-05
1.51607e-05
1.32156e-05
1.15415e-05
1.02634e-05
9.49933e-06
9.42773e-06
1.04199e-05
1.31155e-05
1.75178e-05
1.66624e-05
6.80948e-06
2.36748e-06
2.05297e-07
1.96906e-07
2.64668e-06
7.4163e-06
1.82784e-05
2.72467e-05
2.74381e-05
2.44005e-05
2.13668e-05
1.94006e-05
1.85056e-05
1.84564e-05
1.90031e-05
1.9929e-05
2.1047e-05
2.21722e-05
2.31019e-05
2.3617e-05
2.35185e-05
2.2705e-05
2.12611e-05
1.94318e-05
1.74136e-05
1.53561e-05
1.34212e-05
1.17598e-05
1.04972e-05
9.75463e-06
9.71811e-06
1.07716e-05
1.35467e-05
1.7947e-05
1.68627e-05
6.88294e-06
2.38912e-06
2.06898e-07
1.98284e-07
2.64417e-06
7.42681e-06
1.8333e-05
2.70905e-05
2.70165e-05
2.38634e-05
2.08618e-05
1.89932e-05
1.82081e-05
1.82673e-05
1.89121e-05
1.99252e-05
2.11192e-05
2.23054e-05
2.32756e-05
2.38064e-05
2.37017e-05
2.28732e-05
2.1424e-05
1.96056e-05
1.75954e-05
1.55454e-05
1.36208e-05
1.19727e-05
1.0727e-05
1.00079e-05
1.00095e-05
1.11288e-05
1.39851e-05
1.83762e-05
1.70573e-05
6.95466e-06
2.41055e-06
2.08521e-07
1.99618e-07
2.64117e-06
7.43567e-06
1.83828e-05
2.69189e-05
2.65762e-05
2.33151e-05
2.03543e-05
1.85879e-05
1.79144e-05
1.80815e-05
1.88236e-05
1.99233e-05
2.11925e-05
2.24387e-05
2.34479e-05
2.39931e-05
2.38816e-05
2.3039e-05
2.15864e-05
1.9777e-05
1.77727e-05
1.57293e-05
1.38146e-05
1.21804e-05
1.0953e-05
1.02596e-05
1.0303e-05
1.14911e-05
1.44297e-05
1.88041e-05
1.72462e-05
7.02461e-06
2.4317e-06
2.10165e-07
2.00915e-07
2.6377e-06
7.44306e-06
1.8428e-05
2.67311e-05
2.61166e-05
2.27559e-05
1.98447e-05
1.81847e-05
1.76257e-05
1.78999e-05
1.87379e-05
1.99238e-05
2.1268e-05
2.25735e-05
2.36205e-05
2.41788e-05
2.40603e-05
2.32054e-05
2.17521e-05
1.99488e-05
1.79477e-05
1.59091e-05
1.40038e-05
1.23839e-05
1.11762e-05
1.05115e-05
1.06007e-05
1.18584e-05
1.48785e-05
1.92286e-05
1.74286e-05
7.09245e-06
2.45254e-06
2.11821e-07
2.02185e-07
2.63392e-06
7.44947e-06
1.84693e-05
2.65273e-05
2.56391e-05
2.21884e-05
1.93351e-05
1.7784e-05
1.73414e-05
1.77209e-05
1.86538e-05
1.9926e-05
2.13455e-05
2.27101e-05
2.37938e-05
2.43639e-05
2.42383e-05
2.33732e-05
2.19221e-05
2.01217e-05
1.81209e-05
1.60855e-05
1.4189e-05
1.25838e-05
1.13971e-05
1.07635e-05
1.09018e-05
1.2231e-05
1.53318e-05
1.965e-05
1.76052e-05
7.15855e-06
2.47344e-06
2.13489e-07