/*--------------------------------*- C++ -*----------------------------------*\
| =========                 |                                                 |
| \\      /  F ield         | OpenFOAM: The Open Source CFD Toolbox           |
|  \\    /   O peration     | Version:  v2006                                 |
|   \\  /    A nd           | Website:  www.openfoam.com                      |
|    \\/     M anipulation  |                                                 |
\*---------------------------------------------------------------------------*/
FoamFile
{
    version     2.0;
    format      ascii;
    class       volScalarField;
    location    "80";
    object      omega;
}
// * * * * * * * * * * * * * * * * * * * * * * * * * * * * * * * * * * * * * //

dimensions      [0 0 -1 0 0 0 0];


internalField   nonuniform List<scalar> 
78750
(
352.441
13.5494
13.5745
13.6001
13.6256
13.6505
13.6744
13.6973
13.7187
13.7385
13.7566
13.7729
13.7874
13.8001
13.8109
13.8196
13.8265
13.8314
13.8343
13.8352
13.8342
13.8309
13.8255
13.8176
13.8073
13.7942
13.7783
13.7595
13.7377
13.7136
13.6883
13.6647
13.6485
13.6468
356.397
517.17
4.15808
4.24886
4.32944
4.40044
4.46258
4.51636
4.56234
4.60109
4.63322
4.65929
4.67986
4.6954
4.70636
4.71331
4.71674
4.71701
4.71443
4.70925
4.70171
4.69197
4.68006
4.66596
4.64953
4.63051
4.6086
4.58344
4.55413
4.51936
4.47758
4.42652
4.36397
4.29229
4.22103
523.272
517.182
4.22251
4.35969
4.47734
4.57445
4.65285
4.71544
4.76485
4.80309
4.83173
4.85203
4.86501
4.87161
4.87262
4.86885
4.861
4.84968
4.83549
4.81904
4.80092
4.78173
4.76197
4.7419
4.72155
4.70069
4.67877
4.65492
4.62783
4.59569
4.55592
4.50507
4.44054
4.36647
4.28969
523.624
517.197
4.28259
4.45641
4.59948
4.71037
4.79369
4.8559
4.90203
4.93531
4.95792
4.9714
4.97693
4.97543
4.96771
4.95449
4.93652
4.91457
4.8895
4.86225
4.83385
4.80543
4.77805
4.75258
4.72943
4.70838
4.68856
4.6685
4.64614
4.61891
4.58357
4.53645
4.47609
4.40813
4.33537
523.976
517.215
4.3372
4.53883
4.69838
4.81553
4.89884
4.95823
5.00041
5.02923
5.047
5.0552
5.0548
5.04648
5.03085
5.00852
4.98026
4.947
4.90992
4.87039
4.83004
4.79076
4.75457
4.72317
4.69741
4.67717
4.66134
4.64785
4.63377
4.61544
4.58868
4.5495
4.49718
4.4366
4.36762
524.323
517.233
4.38437
4.60821
4.78078
4.90305
4.9871
5.04559
5.08634
5.1133
5.12862
5.13352
5.12869
5.11454
5.09154
5.06032
5.02181
4.9773
4.92838
4.87698
4.82536
4.77619
4.73226
4.69553
4.66667
4.64549
4.63093
4.62097
4.61253
4.60146
4.58293
4.55242
4.509
4.45564
4.39017
524.647
517.25
4.42657
4.66853
4.85125
4.97736
5.06201
5.11989
5.15936
5.1845
5.19736
5.19891
5.18956
5.16955
5.13928
5.0995
5.05143
4.99671
4.9374
4.87593
4.81523
4.75881
4.71
4.6703
4.63983
4.61817
4.60436
4.59667
4.59224
4.58697
4.57563
4.55311
4.51768
4.47044
4.40811
524.961
517.265
4.46224
4.71996
4.91239
5.04314
5.12959
5.18801
5.2274
5.25187
5.26333
5.26254
5.24971
5.22498
5.1888
5.14212
5.08642
5.02369
4.95631
4.88712
4.81958
4.75787
4.70526
4.66248
4.62926
4.60515
4.58951
4.58112
4.57776
4.57573
4.56973
4.55396
4.52543
4.48368
4.42491
525.245
517.279
4.49551
4.76736
4.96822
5.1029
5.19083
5.24961
5.28866
5.31215
5.32187
5.31844
5.30195
5.2725
5.23064
5.17754
5.11497
5.04522
4.97106
4.89578
4.8235
4.75911
4.70526
4.66162
4.6274
4.60194
4.58471
4.57496
4.57122
4.57053
4.56792
4.55719
4.5342
4.49723
4.4423
525.512
517.292
4.52679
4.81191
5.02096
5.15977
5.24952
5.309
5.34807
5.37096
5.37939
5.37382
5.35422
5.32071
5.27393
5.21523
5.14664
5.07071
4.99054
4.90982
4.83329
4.76651
4.71149
4.66718
4.63231
4.60591
4.58739
4.57621
4.57147
4.57094
4.57025
4.56314
4.54458
4.51183
4.46076
525.758
517.306
4.55635
4.85346
5.06968
5.21195
5.30313
5.36308
5.40197
5.42406
5.43097
5.42307
5.40025
5.36265
5.31105
5.24699
5.17271
5.09109
5.00553
4.92018
4.84047
4.77257
4.71766
4.67395
4.6397
4.6136
4.59487
4.58305
4.57758
4.57684
4.57712
4.5724
4.55713
4.52785
4.48019
525.99
517.32
4.58665
4.89552
5.11854
5.26399
5.35648
5.41686
5.45561
5.47699
5.48252
5.47246
5.44664
5.40524
5.34912
5.27999
5.2003
5.11317
5.02231
4.93228
4.84912
4.7797
4.72465
4.68161
4.64834
4.62312
4.60492
4.59321
4.58754
4.58673
4.58759
4.58448
4.57169
4.5452
4.50033
526.207
517.334
4.61477
4.93404
5.163
5.31118
5.40482
5.46558
5.50417
5.52484
5.52901
5.51682
5.4881
5.44306
5.38268
5.30882
5.22411
5.13188
5.03614
4.94185
4.8557
4.78524
4.7305
4.68864
4.65692
4.63328
4.61641
4.60562
4.60048
4.59998
4.60134
4.59932
4.58826
4.56383
4.52092
526.416
517.349
4.64446
4.97418
5.20879
5.35937
5.45391
5.51495
5.55335
5.5733
5.57613
5.5619
5.53041
5.48191
5.4175
5.33914
5.24961
5.15243
5.05185
4.95314
4.86358
4.79148
4.73663
4.69568
4.66551
4.64366
4.62851
4.61917
4.61511
4.61538
4.61739
4.61625
4.60645
4.58348
4.5418
526.615
517.363
4.67172
5.01057
5.25013
5.40285
5.4983
5.55969
5.598
5.61736
5.619
5.6029
5.56888
5.51724
5.44916
5.36672
5.27281
5.17109
5.06601
4.96316
4.87035
4.7967
4.74182
4.70196
4.67356
4.65386
4.6409
4.63356
4.63116
4.63264
4.63551
4.63509
4.62613
4.60403
4.56281
526.807
517.378
4.70053
5.04868
5.29303
5.44767
5.54387
5.60552
5.64369
5.66244
5.66291
5.64502
5.60859
5.554
5.4825
5.39625
5.29821
5.19212
5.08259
4.97546
4.87892
4.80294
4.74738
4.70816
4.68134
4.66373
4.65313
4.64812
4.6478
4.65093
4.65494
4.65527
4.64692
4.62527
4.58391
526.991
517.393
4.72708
5.08337
5.33195
5.48837
5.58538
5.64742
5.6856
5.70389
5.70335
5.68389
5.64532
5.5881
5.51355
5.42389
5.32213
5.21206
5.0984
4.98724
4.88707
4.80869
4.75235
4.71371
4.6885
4.67318
4.66518
4.66285
4.665
4.67014
4.67553
4.67663
4.66866
4.64706
4.60499
527.17
517.409
4.75492
5.11954
5.37232
5.53042
5.62816
5.69055
5.7287
5.74652
5.74501
5.72403
5.68346
5.62381
5.54647
5.4537
5.3485
5.23464
5.11693
5.00157
4.89733
4.81569
4.75778
4.71915
4.6952
4.68202
4.67671
4.67728
4.68222
4.68973
4.69679
4.69879
4.69111
4.6693
4.62605
527.343
517.424
4.78082
5.15283
5.4094
5.56913
5.66771
5.73056
5.76881
5.78629
5.78393
5.7616
5.71925
5.65747
5.57769
5.48219
5.37394
5.25671
5.13531
5.01601
4.90781
4.82272
4.76299
4.72412
4.70129
4.69026
4.68777
4.69147
4.69948
4.70963
4.71856
4.7215
4.71401
4.69172
4.64692
527.512
517.441
4.8077
5.18729
5.44771
5.60909
5.70851
5.77182
5.81012
5.8272
5.82398
5.80037
5.75637
5.69264
5.61069
5.51277
5.40177
5.28142
5.15645
5.03313
4.92054
4.83118
4.76883
4.72907
4.7069
4.69779
4.69809
4.70506
4.71641
4.72952
4.74061
4.74468
4.73738
4.71443
4.66772
527.676
517.456
4.83291
5.21933
5.48338
5.6465
5.74693
5.81081
5.84922
5.86593
5.86189
5.8371
5.79163
5.72623
5.64243
5.54245
5.42914
5.3061
5.17796
5.05089
4.93403
4.84019
4.77485
4.73383
4.71204
4.7047
4.7078
4.71817
4.73304
4.74929
4.76267
4.76791
4.76075
4.73701
4.68814
527.837
517.473
4.85877
5.25212
5.51994
5.68502
5.78666
5.85111
5.88945
5.9056
5.90066
5.8747
5.82789
5.76102
5.67564
5.57391
5.45859
5.33314
5.20202
5.07123
4.94985
4.85085
4.78177
4.73879
4.71686
4.71098
4.71676
4.73059
4.74918
4.76882
4.78473
4.79129
4.78429
4.75964
4.70834
527.994
517.488
4.88313
5.28276
5.55424
5.72164
5.82503
5.89017
5.92814
5.9435
5.93762
5.9106
5.86264
5.79458
5.70794
5.60483
5.48793
5.36051
5.22681
5.09263
4.96687
4.86255
4.78934
4.74394
4.72146
4.71677
4.72514
4.74247
4.76488
4.78805
4.80662
4.81459
4.80778
4.78207
4.7281
528.147
517.505
4.90782
5.31366
5.58873
5.75856
5.86313
5.92896
5.96709
5.98168
5.97493
5.94695
5.89801
5.82896
5.74132
5.63714
5.51896
5.38989
5.2539
5.11648
4.98629
4.87625
4.79822
4.74969
4.72605
4.72212
4.73287
4.75366
4.77998
4.80681
4.82813
4.8375
4.83076
4.80406
4.74734
528.297
517.521
4.93125
5.34273
5.62115
5.79321
5.89903
5.96568
6.00417
6.01847
6.01079
5.98194
5.93219
5.8624
5.77406
5.66916
5.55012
5.41984
5.28202
5.14178
5.00746
4.89173
4.80845
4.75623
4.73088
4.72728
4.74016
4.76434
4.79462
4.82523
4.84945
4.86042
4.85415
4.82596
4.76613
528.443
517.538
4.95476
5.37188
5.65387
5.82767
5.93453
6.00195
6.04085
6.05505
6.04652
6.01696
5.96658
5.89626
5.80747
5.70214
5.58257
5.45144
5.31216
5.16946
5.03124
4.90984
4.82074
4.76411
4.73629
4.73242
4.74703
4.77442
4.80863
4.84305
4.87021
4.88284
4.87727
4.84737
4.7843
528.586
517.554
4.97701
5.39918
5.68458
5.85996
5.96793
6.03625
6.07572
6.09005
6.08097
6.05085
6.00001
5.92937
5.84038
5.73494
5.6152
5.48367
5.34342
5.19878
5.05717
4.9305
4.83529
4.77369
4.74272
4.73794
4.75382
4.78415
4.82219
4.86048
4.89079
4.90564
4.90053
4.86904
4.80212
528.725
517.57
4.99914
5.42616
5.7148
5.89166
6.0007
6.0699
6.11001
6.12463
6.11541
6.08459
6.03333
5.96252
5.87358
5.7683
5.64871
5.51713
5.37634
5.23022
5.08568
4.95412
4.85253
4.7854
4.75056
4.74414
4.76067
4.79357
4.83531
4.87748
4.91115
4.92848
4.92382
4.89073
4.81962
528.859
517.586
5.02022
5.45161
5.74322
5.92149
6.03159
6.10172
6.14253
6.15752
6.14829
6.11701
6.0656
5.99491
5.90629
5.80147
5.68238
5.55113
5.41025
5.26319
5.11629
4.98037
4.87246
4.79949
4.76019
4.7514
4.76795
4.80295
4.84812
4.89413
4.93122
4.95116
4.94699
4.91224
4.83672
528.989
517.602
5.04107
5.47662
5.77102
5.95059
6.0617
6.13275
6.17429
6.18972
6.18059
6.14898
6.09755
6.02712
5.939
5.83486
5.71652
5.58594
5.44536
5.29782
5.1491
5.00931
4.89522
4.81621
4.77192
4.76004
4.7759
4.81245
4.86074
4.9105
4.95105
4.97362
4.96994
4.93349
4.85338
529.115
517.618
5.06107
5.50038
5.79729
5.97804
6.09013
6.16212
6.20444
6.22043
6.21153
6.17978
6.12853
6.05856
5.97115
5.86794
5.75064
5.62105
5.48118
5.33365
5.18367
5.04063
4.92075
4.8357
4.78604
4.77043
4.78486
4.82232
4.87327
4.92647
4.97033
4.9956
4.99247
4.95432
4.86956
529.237
517.634
5.0808
5.52372
5.82286
6.00462
6.11762
6.19053
6.23365
6.25023
6.24168
6.20995
6.15896
6.08955
6.003
5.90088
5.78484
5.65653
5.51771
5.37064
5.21994
5.07424
4.94905
4.85809
4.8028
4.78287
4.79511
4.83278
4.88589
4.94235
4.98969
5.01725
5.01457
4.97469
4.88522
529.355
517.65
5.09988
5.54625
5.84713
6.02973
6.14359
6.21741
6.26137
6.27863
6.27058
6.23917
6.18846
6.11969
6.03414
5.93331
5.81875
5.69199
5.55456
5.40838
5.25753
5.10982
4.97996
4.8834
4.82239
4.79764
4.80699
4.84414
4.89884
4.95822
5.00895
5.03855
5.03619
4.99455
4.90034
529.469
517.666
5.11847
5.56823
5.87047
6.0538
6.16849
6.2432
6.28797
6.30591
6.29839
6.2674
6.21703
6.14904
6.06464
5.96527
5.85238
5.72739
5.59164
5.44674
5.29624
5.14719
5.01337
4.91163
4.84494
4.81502
4.82078
4.85665
4.91231
4.97419
5.02802
5.05946
5.05731
5.01387
4.91493
529.58
517.681
5.13624
5.58902
5.89252
6.07653
6.19201
6.2676
6.3132
6.33184
6.32488
6.29439
6.24451
6.17743
6.09433
5.99656
5.88551
5.76248
5.62866
5.48537
5.33571
5.18598
5.04901
4.94266
4.8705
4.83517
4.83678
4.87061
4.92652
4.99036
5.04692
5.07996
5.07791
5.03263
4.92899
529.687
517.696
5.15341
5.60899
5.91361
6.09822
6.21441
6.29082
6.33723
6.35656
6.35021
6.32027
6.27097
6.20491
6.12319
6.02714
5.91806
5.79716
5.66548
5.52409
5.3757
5.22592
5.08663
4.97629
4.89902
4.85822
4.85518
4.88625
4.94167
5.00686
5.0657
5.10005
5.09797
5.05082
4.94251
529.792
517.711
5.16989
5.62804
5.93356
6.11865
6.23552
6.31276
6.35996
6.37999
6.37422
6.34487
6.29628
6.23136
6.15116
6.05694
5.94994
5.83129
5.70192
5.56268
5.41593
5.26667
5.12589
5.01226
4.93034
4.88417
4.87615
4.9038
4.95796
5.02383
5.08442
5.11979
5.11752
5.06845
4.95551
529.894
517.726
5.18579
5.64621
5.95246
6.13795
6.25548
6.33351
6.3815
6.40224
6.39712
6.3684
6.32053
6.2568
6.17823
6.08593
5.98112
5.86484
5.73792
5.60104
5.45624
5.308
5.16648
5.05027
4.96426
4.91293
4.89973
4.9234
4.97558
5.04142
5.10318
5.13919
5.13656
5.08554
4.96801
529.994
517.74
5.20105
5.66343
5.97025
6.15607
6.2742
6.353
6.40176
6.4232
6.41873
6.3907
6.34368
6.28119
6.20424
6.11398
6.01146
5.89766
5.77331
5.63896
5.49638
5.3496
5.20804
5.08995
5.00046
4.94434
4.9259
4.94515
4.99466
5.05975
5.12208
5.15835
5.15515
5.1021
4.98003
530.092
517.754
5.21561
5.67973
5.98697
6.17306
6.29175
6.37129
6.42081
6.44295
6.43914
6.41184
6.36574
6.3046
6.22937
6.14114
6.04099
5.92975
5.80807
5.67638
5.53625
5.39128
5.25028
5.131
5.03866
4.97816
4.95457
4.96905
5.01527
5.07891
5.1412
5.1773
5.17332
5.11817
4.99162
530.188
517.768
5.22956
5.69514
6.00264
6.18891
6.30811
6.38837
6.43862
6.46144
6.45829
6.43176
6.38664
6.32691
6.25346
6.16734
6.06956
5.96097
5.84206
5.71315
5.57564
5.43282
5.29289
5.17309
5.07856
5.01417
4.98559
4.9951
5.0375
5.09903
5.16063
5.19615
5.19114
5.13381
5.00282
530.283
517.781
5.24279
5.7096
6.01725
6.20365
6.32332
6.40426
6.45521
6.47871
6.47622
6.45047
6.40642
6.34815
6.27653
6.19257
6.09723
5.99127
5.87522
5.7492
5.61448
5.47407
5.33569
5.21599
5.11988
5.05212
5.0188
5.02321
5.06134
5.12012
5.18044
5.21493
5.20867
5.14907
5.01368
530.376
517.794
5.25537
5.72318
6.03084
6.21728
6.33739
6.41896
6.47059
6.49473
6.49291
6.46796
6.42501
6.36825
6.29851
6.21675
6.12387
6.0206
5.90739
5.78439
5.65259
5.51483
5.37842
5.25945
5.16239
5.09179
5.05404
5.05333
5.08681
5.14228
5.20071
5.23375
5.22599
5.16401
5.02427
530.467
517.807
5.26727
5.73587
6.0434
6.22983
6.35033
6.4325
6.48478
6.50954
6.50836
6.48423
6.44245
6.38724
6.3194
6.23987
6.14948
6.04891
5.93857
5.81853
5.68981
5.55493
5.42088
5.30322
5.20582
5.13295
5.09113
5.08533
5.11388
5.16552
5.22151
5.25268
5.24317
5.17872
5.03464
530.557
517.819
5.27854
5.74771
6.05499
6.24133
6.36215
6.44489
6.49777
6.52313
6.52258
6.49927
6.45869
6.40506
6.33914
6.26184
6.17396
6.07612
5.96868
5.85166
5.72602
5.5942
5.46285
5.34705
5.24991
5.17534
5.1299
5.11915
5.14256
5.1899
5.24291
5.2718
5.26029
5.19326
5.04487
530.646
517.831
5.28918
5.75869
6.06558
6.25176
6.37287
6.45614
6.50961
6.53553
6.53559
6.51312
6.47378
6.42174
6.35776
6.28269
6.19731
6.10219
5.99766
5.88369
5.76121
5.63257
5.50421
5.39074
5.29441
5.21872
5.17011
5.15464
5.17278
5.21545
5.26499
5.2912
5.27744
5.20771
5.05501
530.734
517.843
5.2992
5.76884
6.07521
6.26116
6.38251
6.46627
6.52028
6.54674
6.5474
6.52576
6.48769
6.43726
6.37521
6.30236
6.21946
6.12705
6.02541
5.91451
5.79523
5.66988
5.54484
5.43411
5.33907
5.26281
5.21155
5.19166
5.20453
5.24221
5.28784
5.31097
5.29472
5.22215
5.06512
530.821
517.854
5.30861
5.77815
6.08386
6.26952
6.39108
6.4753
6.52983
6.5568
6.55805
6.53726
6.50049
6.45168
6.39155
6.3209
6.24045
6.15071
6.05193
5.94408
5.82802
5.70606
5.58452
5.47692
5.38365
5.30736
5.25398
5.23004
5.23769
5.27013
5.31147
5.33119
5.3122
5.23666
5.07526
530.907
517.865
5.3174
5.78662
6.09156
6.27686
6.39858
6.48323
6.53825
6.56572
6.56755
6.54761
6.51218
6.46499
6.40677
6.33829
6.26024
6.17312
6.07717
5.97234
5.85953
5.74107
5.62331
5.51906
5.42792
5.35208
5.29712
5.26956
5.27221
5.29938
5.33601
5.35196
5.32997
5.2513
5.08546
530.993
517.876
5.32559
5.79427
6.0983
6.28318
6.40504
6.49009
6.5456
6.57356
6.57597
6.55691
6.52283
6.47728
6.42094
6.35459
6.2789
6.19435
6.10117
5.99932
5.88975
5.77488
5.66115
5.56044
5.47173
5.39677
5.34074
5.31003
5.30795
5.32988
5.36149
5.37334
5.34812
5.26615
5.09577
531.079
517.886
5.33315
5.80107
6.10408
6.28849
6.41044
6.49589
6.55186
6.5803
6.5833
6.56514
6.53247
6.48856
6.43409
6.36983
6.29643
6.21438
6.1239
6.025
5.91866
5.80743
5.69795
5.60094
5.51489
5.44119
5.38455
5.3512
5.34476
5.36153
5.38794
5.39542
5.36673
5.28126
5.10624
531.165
517.896
5.34013
5.80707
6.10893
6.29282
6.41484
6.50066
6.55708
6.58601
6.58961
6.57239
6.54118
6.49893
6.44631
6.38409
6.31293
6.2333
6.14545
6.04941
5.94627
5.83873
5.73364
5.64046
5.55728
5.48516
5.42839
5.39288
5.38244
5.39418
5.41529
5.4182
5.38583
5.2967
5.11691
531.251
517.906
5.34649
5.81224
6.11284
6.29614
6.41821
6.50438
6.56125
6.59066
6.5949
6.57866
6.54897
6.5084
6.45762
6.39741
6.32842
6.25114
6.16583
6.07258
5.97259
5.86874
5.76816
5.6789
5.59878
5.52854
5.47203
5.43483
5.42079
5.42772
5.44354
5.44171
5.40549
5.31253
5.1278
531.337
517.915
5.3523
5.81665
6.11586
6.29852
6.42059
6.5071
6.56442
6.59432
6.59922
6.58402
6.55592
6.51706
6.46813
6.40989
6.34301
6.268
6.18515
6.09461
5.99769
5.89752
5.80151
5.71623
5.6393
5.57118
5.51528
5.47684
5.45962
5.46202
5.47257
5.46593
5.42571
5.32874
5.13893
531.424
517.924
5.35754
5.82026
6.11797
6.29992
6.42196
6.50878
6.56653
6.59695
6.60255
6.58845
6.56201
6.52491
6.47783
6.42155
6.35674
6.28394
6.20346
6.11555
6.02165
5.92512
5.83371
5.75244
5.6788
5.61299
5.55804
5.51873
5.49875
5.49693
5.50234
5.49084
5.44652
5.3454
5.15034
531.512
517.933
5.36226
5.82318
6.11925
6.30041
6.42238
6.50949
6.56766
6.5986
6.60496
6.59203
6.56733
6.53202
6.48681
6.43247
6.3697
6.29904
6.22087
6.13551
6.04455
5.95164
5.86483
5.78758
5.71727
5.6539
5.60015
5.56034
5.53802
5.53232
5.53274
5.5164
5.46789
5.36248
5.16203
531.601
517.942
5.36646
5.82534
6.11965
6.29995
6.42179
6.50915
6.56774
6.59923
6.60641
6.59476
6.57186
6.53838
6.49505
6.44265
6.3819
6.31335
6.23744
6.15457
6.06651
5.97719
5.89496
5.8217
5.75475
5.69392
5.64156
5.60159
5.57726
5.56804
5.56367
5.54255
5.48983
5.38002
5.17401
531.69
517.95
5.37019
5.82685
6.11926
6.29861
6.42026
6.50784
6.56682
6.59888
6.60698
6.59679
6.57568
6.54402
6.50257
6.45212
6.39337
6.32693
6.25325
6.17283
6.08764
6.0019
5.9242
5.85488
5.79125
5.73301
5.68219
5.64232
5.61635
5.60396
5.59503
5.56923
5.51228
5.39798
5.18629
531.781
517.958
5.37343
5.82765
6.11802
6.29634
6.41775
6.5055
6.56484
6.59749
6.60659
6.59807
6.57869
6.54886
6.50932
6.46084
6.40412
6.33978
6.26832
6.19036
6.10805
6.02595
5.95271
5.88725
5.8269
5.77125
5.72206
5.6825
5.65519
5.6399
5.62669
5.59636
5.53521
5.41635
5.19883
531.872
517.966
5.37621
5.82781
6.11602
6.29323
6.41433
6.5022
6.56187
6.59505
6.60514
6.59832
6.58076
6.55284
6.51527
6.4688
6.41415
6.35193
6.28272
6.20723
6.12786
6.04951
5.9806
5.91889
5.86173
5.80864
5.76116
5.72206
5.69369
5.67587
5.65856
5.62387
5.55858
5.43512
5.21167
531.963
517.974
5.37851
5.82729
6.11321
6.28923
6.40999
6.49793
6.5579
6.59163
6.60276
6.59771
6.58201
6.55603
6.52045
6.47602
6.42346
6.36339
6.29646
6.22351
6.14719
6.07277
6.00804
5.94993
5.89585
5.84527
5.7995
5.761
5.73179
5.71173
5.69058
5.65167
5.5823
5.45422
5.22475
532.055
517.981
5.38035
5.82614
6.10966
6.28443
6.40478
6.49276
6.55298
6.58725
6.59943
6.5962
6.58241
6.5584
6.52485
6.48249
6.43203
6.37414
6.30954
6.23921
6.16605
6.09577
6.03506
5.98041
5.9293
5.88114
5.83708
5.79926
5.76941
5.74739
5.72267
5.67971
5.60634
5.47362
5.23805
532.147
517.989
5.3817
5.82432
6.10535
6.27881
6.3987
6.48669
6.54715
6.58195
6.59521
6.59385
6.58201
6.55999
6.52848
6.4882
6.43987
6.38419
6.32194
6.25428
6.1844
6.1184
6.06161
6.0103
5.96206
5.91628
5.87393
5.83685
5.80651
5.78275
5.75472
5.70791
5.63063
5.49328
5.25153
532.24
517.996
5.3826
5.8219
6.10035
6.27244
6.39185
6.4798
6.54047
6.5758
6.59018
6.59074
6.58086
6.56085
6.53139
6.4932
6.447
6.39353
6.33366
6.26872
6.20218
6.14055
6.08759
6.03954
5.9941
5.95064
5.90999
5.87374
5.84309
5.81783
5.7867
5.73623
5.65511
5.51311
5.26513
532.333
518.002
5.38303
5.81886
6.09464
6.26531
6.38419
6.47208
6.53295
6.56882
6.58436
6.58689
6.579
6.56102
6.53361
6.49751
6.45345
6.4022
6.34473
6.28254
6.21941
6.16218
6.11298
6.06812
6.02538
5.98418
5.9452
5.9098
5.87894
5.85241
5.81843
5.7645
5.67967
5.53304
5.27883
532.425
518.009
5.38306
5.81528
6.08832
6.25751
6.37583
6.46363
6.52468
6.56112
6.57786
6.58241
6.57653
6.56057
6.53521
6.50119
6.45927
6.41025
6.35521
6.29581
6.23616
6.18332
6.13781
6.09604
6.05594
6.01694
5.97964
5.94517
5.91424
5.8866
5.84996
5.79274
5.7043
5.55309
5.29263
532.518
518.015
5.38268
5.81116
6.08137
6.24904
6.36675
6.45443
6.51567
6.55271
6.57071
6.57733
6.57348
6.55955
6.53624
6.5043
6.46452
6.41775
6.36516
6.30861
6.25252
6.20401
6.1621
6.12333
6.08577
6.04888
6.0132
5.97963
5.94867
5.92017
5.88111
5.82081
5.7289
5.57316
5.30648
532.61
518.021
5.38198
5.8066
6.07389
6.23996
6.35701
6.44454
6.50596
6.54367
6.56303
6.57175
6.56992
6.55801
6.53674
6.50689
6.46927
6.42478
6.37469
6.32109
6.2687
6.22439
6.18593
6.15004
6.11491
6.08005
6.04592
6.01327
5.98245
5.95315
5.91188
5.8487
5.75344
5.59325
5.32036
532.702
518.027
5.38097
5.80159
6.06586
6.23027
6.3466
6.43392
6.49552
6.534
6.55494
6.56567
6.56584
6.55595
6.53674
6.50901
6.47357
6.43141
6.38391
6.33338
6.28489
6.24461
6.20943
6.17625
6.14343
6.11051
6.07791
6.04626
6.01586
5.98564
5.94221
5.8763
5.77783
5.61327
5.33425
532.793
518.033
5.37971
5.79621
6.05737
6.22003
6.33557
6.42261
6.48433
6.52362
6.54639
6.55901
6.56116
6.55333
6.53624
6.51067
6.47746
6.43769
6.39288
6.34557
6.30118
6.26474
6.23266
6.20206
6.17142
6.14035
6.10923
6.07862
6.04879
6.01766
5.97218
5.90368
5.80213
5.63332
5.3483
532.883
518.038
5.3782
5.79043
6.04838
6.20923
6.32391
6.4106
6.47237
6.5124
6.53698
6.55157
6.55582
6.55014
6.53524
6.51188
6.48096
6.44365
6.40161
6.35765
6.31752
6.28476
6.25566
6.2275
6.19891
6.16959
6.13989
6.1103
6.08108
6.0491
6.00168
5.93072
5.8262
5.65324
5.36234
532.972
518.044
5.37646
5.78427
6.03892
6.19791
6.31169
6.39797
6.45975
6.50054
6.52697
6.54356
6.54991
6.54642
6.53374
6.51265
6.48409
6.44929
6.4101
6.36961
6.3338
6.30464
6.27841
6.25259
6.22597
6.1983
6.16995
6.14137
6.11277
6.08001
6.03075
5.95747
5.85009
5.67307
5.37633
533.061
518.049
5.37441
5.77766
6.02893
6.18601
6.29885
6.38467
6.44639
6.4879
6.51618
6.53478
6.5433
6.54206
6.53169
6.51294
6.4868
6.4546
6.41837
6.38146
6.35
6.32434
6.30088
6.27732
6.25257
6.22647
6.1994
6.17177
6.14379
6.11028
6.05928
5.98379
5.87366
5.69267
5.39018
533.148
518.055
5.37207
5.77059
6.01842
6.17359
6.28547
6.37081
6.43248
6.47472
6.50484
6.52544
6.53611
6.53713
6.5291
6.51276
6.48913
6.45963
6.42646
6.39326
6.36611
6.34387
6.32311
6.30174
6.27879
6.25419
6.22832
6.20159
6.17422
6.14001
6.08736
6.00978
5.897
5.7121
5.40392
533.235
518.06
5.36934
5.76297
6.00733
6.16057
6.2715
6.35635
6.41797
6.46096
6.49294
6.51552
6.52832
6.53162
6.52596
6.51209
6.49106
6.46437
6.43442
6.40512
6.38216
6.36322
6.34506
6.32579
6.30458
6.28142
6.2567
6.23082
6.20402
6.1691
6.11487
6.03528
5.91992
5.73122
5.41743
533.32
518.064
5.36619
5.75483
5.99567
6.14697
6.25694
6.34135
6.40299
6.44681
6.48068
6.50523
6.52012
6.52566
6.52237
6.51101
6.49265
6.4689
6.44235
6.41718
6.39825
6.38245
6.36679
6.34954
6.33
6.30822
6.28461
6.25954
6.23329
6.19769
6.14195
6.06044
5.9426
5.75016
5.43083
533.404
518.069
5.36266
5.74619
5.98342
6.13271
6.24171
6.3257
6.38747
6.43227
6.46811
6.49463
6.5116
6.51935
6.51841
6.50956
6.49393
6.47323
6.45026
6.42943
6.41435
6.40155
6.38826
6.37294
6.35501
6.33456
6.312
6.28769
6.26196
6.22567
6.16846
6.0851
5.96484
5.76873
5.44397
533.487
518.073
5.35886
5.73713
5.97061
6.1178
6.22576
6.30934
6.3714
6.41741
6.45532
6.48387
6.50292
6.51285
6.51425
6.5079
6.49501
6.47744
6.45816
6.4418
6.43043
6.4205
6.40948
6.39602
6.37964
6.36047
6.33894
6.31538
6.29016
6.25321
6.19459
6.10946
5.98685
5.78714
5.45701
533.568
518.077
5.35488
5.7277
5.95723
6.10214
6.20893
6.29208
6.35459
6.40225
6.44225
6.4729
6.4941
6.50626
6.50998
6.50614
6.496
6.48159
6.46609
6.45421
6.44642
6.43926
6.43042
6.41874
6.40385
6.38592
6.36536
6.3425
6.31778
6.28017
6.22018
6.13332
6.00841
5.80518
5.4698
533.647
518.082
5.35085
5.71801
5.94333
6.08572
6.19114
6.27372
6.33676
6.38643
6.42863
6.46159
6.48514
6.49965
6.50578
6.50446
6.4971
6.48589
6.47423
6.46674
6.46238
6.45786
6.45112
6.44115
6.42768
6.41093
6.3913
6.36918
6.34493
6.30671
6.24544
6.15692
6.02978
5.82309
5.48252
533.726
518.086
5.34681
5.70806
5.92888
6.06849
6.17229
6.25412
6.31765
6.36949
6.41419
6.44979
6.47594
6.49299
6.50164
6.50293
6.49843
6.4905
6.4828
6.4795
6.47836
6.47634
6.47158
6.46323
6.45111
6.43551
6.41688
6.39571
6.37161
6.33269
6.27014
6.18004
6.05072
5.84064
5.49498
533.802
518.091
5.34283
5.69793
5.91394
6.05046
6.15234
6.23318
6.29715
6.35132
6.39878
6.43731
6.46636
6.48619
6.49755
6.50161
6.50009
6.4956
6.49201
6.49264
6.4945
6.49479
6.49188
6.48507
6.47426
6.45981
6.44222
6.42207
6.39803
6.35837
6.29458
6.20293
6.0715
5.85808
5.50736
533.878
518.096
5.33891
5.6876
5.89851
6.03162
6.13123
6.21077
6.27508
6.33169
6.38216
6.42392
6.45617
6.47906
6.49336
6.50038
6.50204
6.50117
6.50186
6.50617
6.51081
6.51324
6.51205
6.50666
6.49709
6.48373
6.46714
6.44799
6.42396
6.38351
6.31849
6.22534
6.09183
5.87514
5.51946
533.951
518.101
5.33512
5.67717
5.88266
6.01202
6.10897
6.18688
6.25138
6.31049
6.3642
6.4095
6.44524
6.47144
6.48893
6.49912
6.50415
6.50708
6.51217
6.51998
6.52724
6.5317
6.53212
6.52809
6.51969
6.50739
6.4918
6.47365
6.44961
6.40838
6.34217
6.24756
6.11202
5.8921
5.53147
534.023
518.106
5.33149
5.66669
5.86646
5.9917
6.08556
6.16146
6.22599
6.28765
6.34477
6.39383
6.43333
6.46314
6.48407
6.49768
6.5063
6.51325
6.52277
6.53395
6.54372
6.55009
6.55204
6.54927
6.54197
6.53067
6.51601
6.49879
6.4747
6.43269
6.3653
6.26927
6.13175
5.90865
5.54315
534.093
518.112
5.32815
5.65628
5.85001
5.97073
6.06103
6.13448
6.19883
6.26306
6.32374
6.37681
6.42033
6.45401
6.47864
6.49593
6.50839
6.51958
6.53349
6.54795
6.56014
6.56837
6.57181
6.57026
6.56403
6.5537
6.53996
6.52366
6.4995
6.45672
6.3882
6.2908
6.15133
5.92509
5.55471
534.164
518.118
5.32514
5.64597
5.83334
5.94915
6.03536
6.10591
6.16985
6.23662
6.30099
6.35828
6.4061
6.44391
6.47254
6.49378
6.51038
6.5261
6.54429
6.56189
6.57643
6.58646
6.59132
6.59095
6.58573
6.5763
6.56341
6.54796
6.52369
6.48014
6.41051
6.31176
6.17039
5.94105
5.56587
534.231
518.124
5.32245
5.63579
5.81653
5.92701
6.00858
6.07572
6.139
6.20815
6.27629
6.33801
6.39039
6.43263
6.46554
6.49105
6.51211
6.53267
6.555
6.57566
6.59249
6.6043
6.61058
6.61139
6.60717
6.59863
6.58659
6.57197
6.54759
6.50328
6.43259
6.33254
6.18931
5.9569
5.57689
534.299
518.131
5.32001
5.62571
5.7996
5.90439
5.98077
6.04398
6.10639
6.17754
6.24939
6.31572
6.37293
6.4199
6.4574
6.4875
6.51333
6.53898
6.56538
6.58904
6.60816
6.62174
6.62944
6.6314
6.62817
6.62049
6.60923
6.59537
6.57083
6.52575
6.45401
6.35269
6.20762
5.97219
5.58745
534.364
518.138
5.31772
5.61569
5.78261
5.88138
5.952
6.0107
6.07199
6.14462
6.22007
6.29113
6.3534
6.40538
6.44777
6.48276
6.51368
6.5446
6.57506
6.60178
6.62323
6.63866
6.64784
6.65103
6.64881
6.64201
6.63154
6.61845
6.59376
6.54794
6.4752
6.37265
6.22579
5.98737
5.59786
534.431
518.145
5.31551
5.60577
5.76564
5.85808
5.92239
5.97598
6.0356
6.10945
6.1884
6.26422
6.33169
6.3889
6.43644
6.4766
6.5129
6.54919
6.58374
6.61357
6.63747
6.65484
6.66559
6.67005
6.66889
6.66297
6.65324
6.64086
6.61596
6.56938
6.49564
6.3919
6.24327
6.00191
5.60774
534.494
518.152
5.31361
5.5962
5.74886
5.83456
5.89203
5.94002
5.99764
6.07241
6.15467
6.23518
6.30788
6.37042
6.42329
6.46888
6.51085
6.55249
6.59115
6.62419
6.65066
6.67012
6.68259
6.68847
6.68846
6.6835
6.67466
6.66293
6.63786
6.59057
6.51588
6.41097
6.26062
6.01634
5.61749
534.559
518.16
5.31217
5.58706
5.73225
5.81082
5.86075
5.90264
5.95804
6.03369
6.11921
6.20434
6.28224
6.35016
6.40848
6.45967
6.50755
6.55441
6.59714
6.63345
6.66259
6.68428
6.6986
6.706
6.70725
6.70338
6.6956
6.68426
6.65892
6.6109
6.53528
6.42923
6.27718
6.03005
5.62664
534.621
518.168
5.31164
5.57869
5.71598
5.78673
5.82836
5.86359
5.91666
5.99338
6.08231
6.17206
6.25508
6.32831
6.3921
6.44901
6.50294
6.55486
6.60162
6.64125
6.6732
6.69728
6.71365
6.72278
6.72551
6.72292
6.71635
6.70538
6.67974
6.63099
6.55447
6.44731
6.29359
6.04362
5.63563
534.686
518.177
5.31223
5.57122
5.70013
5.76233
5.79467
5.82246
5.87307
5.95119
6.04387
6.13841
6.22659
6.30512
6.37436
6.43701
6.49695
6.55376
6.60449
6.64746
6.6823
6.7089
6.72744
6.73845
6.74277
6.74155
6.73622
6.72559
6.69962
6.65015
6.57274
6.4645
6.30914
6.05638
5.64393
534.746
518.188
5.31399
5.5647
5.68482
5.73767
5.75953
5.77891
5.82668
5.90646
6.00337
6.10308
6.1966
6.28048
6.35518
6.42359
6.48942
6.55098
6.60565
6.65203
6.68988
6.71916
6.74009
6.75319
6.75933
6.75968
6.75572
6.74549
6.71922
6.66904
6.59077
6.48146
6.32448
6.06896
5.65202
534.811
518.199
5.31668
5.55905
5.6702
5.71312
5.7233
5.73295
5.777
5.85842
5.96006
6.06548
6.16473
6.25416
6.33443
6.40865
6.48016
6.54631
6.60487
6.65468
6.69562
6.72771
6.75116
6.76649
6.77458
6.77659
6.77405
6.76427
6.73773
6.68688
6.60779
6.49745
6.33889
6.08066
5.65932
534.871
518.211
5.3198
5.55404
5.6564
5.68912
5.68663
5.68496
5.72386
5.80628
5.91282
6.02449
6.13
6.22541
6.31155
6.39179
6.46879
6.53947
6.60194
6.65529
6.6995
6.7346
6.7608
6.77862
6.78889
6.79278
6.79182
6.78259
6.75584
6.70437
6.6245
6.51317
6.35304
6.09212
5.66638
534.936
518.222
5.32289
5.54947
5.64358
5.66625
5.65052
5.63604
5.6679
5.74997
5.86103
5.97923
6.09149
6.19337
6.28576
6.37231
6.45475
6.52994
6.59641
6.65341
6.70102
6.73928
6.76841
6.78888
6.8015
6.8074
6.80813
6.79953
6.77266
6.72067
6.6401
6.52784
6.36622
6.10268
5.67263
534.995
518.232
5.32564
5.54516
5.63166
5.64474
5.61564
5.58716
5.60991
5.68988
5.80453
5.92912
6.04843
6.15719
6.25626
6.34947
6.43745
6.51736
6.58803
6.64893
6.7002
6.74191
6.77425
6.79766
6.81289
6.82105
6.82364
6.81582
6.78895
6.73652
6.65532
6.54217
6.37909
6.11298
5.67864
535.061
518.242
5.32807
5.54106
5.62055
5.62458
5.58239
5.53932
5.55141
5.62732
5.74413
5.87446
6.00074
6.11657
6.22259
6.32268
6.41638
6.50119
6.5763
6.64133
6.69649
6.74186
6.77762
6.80417
6.82221
6.83279
6.83738
6.83048
6.80376
6.75103
6.66932
6.5554
6.39095
6.12236
5.68389
535.12
518.252
5.33043
5.53707
5.60984
5.60517
5.55027
5.49265
5.49317
5.56344
5.68092
5.81605
5.94892
6.07178
6.18486
6.29198
6.39156
6.48152
6.56135
6.63081
6.69016
6.73952
6.77901
6.80899
6.83012
6.84337
6.85015
6.84434
6.8179
6.76498
6.68285
6.56821
6.40245
6.13144
5.68887
535.187
518.261
5.33302
5.5332
5.59926
5.58598
5.51857
5.44675
5.43567
5.49954
5.61649
5.75534
5.89406
6.02353
6.14351
6.25751
6.36295
6.45817
6.54288
6.61696
6.68072
6.73425
6.77766
6.81127
6.83566
6.85174
6.86089
6.85635
6.83037
6.77744
6.69504
6.57981
6.41284
6.13952
5.69305
535.247
518.272
5.33595
5.52934
5.58851
5.56647
5.48646
5.40058
5.37815
5.43553
5.55142
5.69324
5.83714
5.97276
6.09933
6.21991
6.33112
6.43165
6.52141
6.60033
6.66873
6.7267
6.77432
6.81183
6.83974
6.85889
6.87055
6.86742
6.84203
6.78922
6.70664
6.59088
6.42277
6.14721
5.69686
535.315
518.284
5.339
5.5253
5.57755
5.54672
5.45398
5.35391
5.32008
5.37097
5.48561
5.62998
5.77855
5.91985
6.05264
6.17933
6.29608
6.40185
6.49665
6.58048
6.65364
6.71617
6.76811
6.80965
6.84121
6.86355
6.87792
6.87642
6.85183
6.79932
6.71674
6.6006
6.43147
6.15378
5.69974
535.375
518.295
5.34172
5.52086
5.56638
5.52694
5.42149
5.30689
5.26101
5.30498
5.41823
5.56502
5.71804
5.86476
6.00353
6.13603
6.25822
6.36924
6.4692