/*--------------------------------*- C++ -*----------------------------------*\
| =========                 |                                                 |
| \\      /  F ield         | OpenFOAM: The Open Source CFD Toolbox           |
|  \\    /   O peration     | Version:  v2006                                 |
|   \\  /    A nd           | Website:  www.openfoam.com                      |
|    \\/     M anipulation  |                                                 |
\*---------------------------------------------------------------------------*/
FoamFile
{
    version     2.0;
    format      ascii;
    class       volScalarField;
    location    "80";
    object      T;
}
// * * * * * * * * * * * * * * * * * * * * * * * * * * * * * * * * * * * * * //

dimensions      [0 0 0 1 0 0 0];


internalField   nonuniform List<scalar> 
78750
(
300.029
300.085
300.14
300.192
300.242
300.289
300.334
300.376
300.415
300.452
300.487
300.519
300.55
300.578
300.604
300.628
300.651
300.672
300.692
300.71
300.727
300.742
300.757
300.77
300.781
300.791
300.799
300.804
300.809
300.822
300.867
301.004
301.327
301.932
302.828
300.055
300.16
300.255
300.34
300.416
300.484
300.545
300.6
300.65
300.695
300.734
300.77
300.802
300.83
300.854
300.876
300.894
300.91
300.923
300.934
300.944
300.951
300.956
300.959
300.961
300.961
300.96
300.957
300.957
300.97
301.022
301.17
301.499
302.085
302.959
300.073
300.213
300.34
300.454
300.553
300.639
300.714
300.779
300.837
300.888
300.934
300.973
301.008
301.038
301.063
301.084
301.101
301.115
301.125
301.131
301.134
301.134
301.13
301.124
301.115
301.104
301.091
301.078
301.072
301.087
301.153
301.326
301.668
302.25
303.128
300.087
300.253
300.405
300.538
300.651
300.745
300.824
300.893
300.952
301.005
301.052
301.093
301.129
301.161
301.188
301.21
301.229
301.243
301.254
301.261
301.263
301.262
301.257
301.248
301.234
301.217
301.198
301.181
301.175
301.198
301.284
301.483
301.838
302.421
303.308
300.098
300.286
300.456
300.604
300.724
300.822
300.904
300.973
301.034
301.088
301.135
301.177
301.214
301.246
301.273
301.296
301.313
301.326
301.334
301.339
301.339
301.336
301.33
301.32
301.306
301.289
301.271
301.258
301.261
301.3
301.411
301.635
302.004
302.597
303.493
300.107
300.313
300.499
300.657
300.785
300.886
300.97
301.041
301.104
301.16
301.21
301.254
301.293
301.327
301.354
301.376
301.392
301.401
301.406
301.406
301.402
301.394
301.383
301.369
301.354
301.337
301.322
301.316
301.332
301.391
301.528
301.774
302.16
302.767
303.669
300.115
300.334
300.532
300.699
300.831
300.935
301.021
301.094
301.159
301.217
301.269
301.316
301.357
301.391
301.419
301.44
301.453
301.46
301.461
301.457
301.449
301.437
301.422
301.406
301.389
301.374
301.365
301.368
301.398
301.478
301.639
301.907
302.31
302.933
303.841
300.121
300.352
300.559
300.734
300.872
300.979
301.067
301.143
301.21
301.271
301.326
301.375
301.418
301.454
301.483
301.503
301.515
301.519
301.516
301.507
301.493
301.476
301.458
301.438
301.421
301.407
301.402
301.414
301.458
301.556
301.738
302.024
302.443
303.081
303.995
300.126
300.367
300.583
300.764
300.906
301.016
301.107
301.185
301.255
301.318
301.376
301.427
301.473
301.51
301.539
301.56
301.571
301.574
301.569
301.557
301.539
301.518
301.495
301.473
301.453
301.44
301.439
301.458
301.514
301.628
301.829
302.132
302.567
303.219
304.138
300.131
300.381
300.605
300.792
300.939
301.052
301.145
301.226
301.299
301.365
301.425
301.479
301.526
301.565
301.595
301.615
301.626
301.627
301.62
301.605
301.585
301.56
301.534
301.509
301.488
301.475
301.476
301.502
301.567
301.695
301.911
302.23
302.679
303.344
304.267
300.135
300.393
300.625
300.818
300.969
301.085
301.181
301.264
301.339
301.407
301.47
301.526
301.575
301.615
301.646
301.667
301.678
301.679
301.67
301.654
301.631
301.604
301.575
301.548
301.525
301.512
301.515
301.545
301.619
301.76
301.99
302.322
302.785
303.461
304.388
300.14
300.406
300.645
300.844
300.998
301.118
301.216
301.301
301.379
301.449
301.514
301.572
301.623
301.664
301.696
301.718
301.728
301.728
301.719
301.701
301.676
301.647
301.616
301.587
301.563
301.55
301.556
301.59
301.672
301.822
302.065
302.41
302.884
303.57
304.501
300.144
300.418
300.663
300.868
301.026
301.148
301.248
301.336
301.416
301.489
301.556
301.616
301.668
301.711
301.744
301.766
301.776
301.776
301.766
301.747
301.72
301.689
301.657
301.627
301.602
301.59
301.597
301.636
301.725
301.886
302.14
302.495
302.979
303.675
304.609
300.148
300.43
300.682
300.892
301.053
301.178
301.281
301.371
301.453
301.528
301.597
301.659
301.712
301.756
301.79
301.812
301.823
301.823
301.811
301.791
301.764
301.731
301.698
301.667
301.642
301.631
301.64
301.683
301.779
301.949
302.214
302.577
303.071
303.774
304.712
300.152
300.442
300.7
300.914
301.079
301.206
301.311
301.403
301.487
301.565
301.636
301.699
301.754
301.8
301.834
301.857
301.868
301.867
301.856
301.835
301.806
301.773
301.738
301.707
301.682
301.672
301.684
301.732
301.834
302.013
302.287
302.659
303.16
303.871
304.811
300.156
300.453
300.718
300.937
301.105
301.234
301.341
301.436
301.522
301.601
301.674
301.739
301.796
301.842
301.877
301.901
301.912
301.911
301.9
301.878
301.849
301.814
301.779
301.747
301.723
301.714
301.729
301.781
301.889
302.076
302.359
302.738
303.246
303.964
304.906
300.16
300.464
300.735
300.958
301.129
301.261
301.37
301.466
301.554
301.635
301.71
301.777
301.835
301.883
301.919
301.943
301.955
301.954
301.942
301.92
301.89
301.856
301.82
301.787
301.764
301.756
301.774
301.831
301.946
302.141
302.432
302.816
303.33
304.054
304.998
300.164
300.475
300.752
300.98
301.153
301.287
301.398
301.496
301.586
301.669
301.746
301.814
301.874
301.923
301.96
301.984
301.997
301.996
301.985
301.963
301.932
301.897
301.861
301.828
301.805
301.799
301.82
301.881
302.003
302.205
302.503
302.893
303.412
304.141
305.088
300.167
300.486
300.768
301
301.176
301.312
301.424
301.525
301.617
301.702
301.78
301.85
301.911
301.961
301.999
302.025
302.038
302.038
302.026
302.004
301.974
301.938
301.902
301.87
301.847
301.843
301.867
301.933
302.06
302.269
302.574
302.969
303.492
304.226
305.175
300.171
300.496
300.784
301.02
301.199
301.336
301.451
301.553
301.647
301.734
301.814
301.885
301.947
301.998
302.038
302.064
302.078
302.079
302.068
302.046
302.016
301.98
301.944
301.912
301.89
301.887
301.914
301.984
302.117
302.333
302.644
303.043
303.571
304.309
305.26
300.175
300.506
300.8
301.039
301.22
301.36
301.476
301.581
301.676
301.765
301.846
301.92
301.983
302.035
302.075
302.103
302.117
302.119
302.108
302.087
302.057
302.022
301.985
301.954
301.933
301.932
301.961
302.036
302.175
302.398
302.714
303.117
303.648
304.391
305.343
300.178
300.517
300.815
301.059
301.242
301.383
301.502
301.608
301.705
301.795
301.878
301.953
302.018
302.071
302.112
302.14
302.156
302.158
302.149
302.128
302.099
302.064
302.028
301.996
301.977
301.977
302.01
302.089
302.234
302.462
302.784
303.19
303.724
304.47
305.424
300.182
300.526
300.83
301.077
301.263
301.406
301.526
301.634
301.733
301.825
301.91
301.986
302.052
302.106
302.148
302.178
302.194
302.198
302.189
302.169
302.14
302.106
302.07
302.039
302.021
302.023
302.059
302.142
302.292
302.526
302.853
303.262
303.799
304.549
305.503
300.185
300.536
300.846
301.096
301.284
301.429
301.551
301.66
301.761
301.855
301.941
302.018
302.085
302.141
302.184
302.214
302.232
302.236
302.229
302.21
302.182
302.148
302.113
302.083
302.065
302.07
302.108
302.196
302.351
302.591
302.922
303.334
303.873
304.626
305.581
300.189
300.546
300.86
301.114
301.304
301.451
301.574
301.685
301.788
301.884
301.971
302.05
302.118
302.175
302.219
302.25
302.269
302.274
302.268
302.25
302.223
302.19
302.156
302.127
302.11
302.117
302.158
302.25
302.41
302.655
302.99
303.405
303.947
304.701
305.657
300.192
300.556
300.875
301.132
301.324
301.473
301.598
301.711
301.815
301.912
302.001
302.081
302.151
302.208
302.253
302.286
302.305
302.312
302.307
302.29
302.265
302.233
302.199
302.171
302.156
302.164
302.208
302.304
302.47
302.72
303.058
303.475
304.019
304.775
305.732
300.195
300.565
300.889
301.15
301.344
301.494
301.621
301.736
301.842
301.941
302.031
302.112
302.183
302.241
302.287
302.321
302.341
302.349
302.345
302.33
302.306
302.275
302.243
302.215
302.201
302.212
302.259
302.359
302.529
302.784
303.126
303.544
304.089
304.848
305.805
300.199
300.574
300.904
301.168
301.364
301.516
301.645
301.761
301.869
301.969
302.061
302.143
302.215
302.274
302.321
302.355
302.377
302.386
302.383
302.369
302.347
302.317
302.286
302.26
302.248
302.26
302.31
302.414
302.589
302.848
303.193
303.612
304.159
304.919
305.875
300.202
300.584
300.918
301.185
301.384
301.537
301.668
301.786
301.895
301.997
302.09
302.174
302.246
302.307
302.355
302.39
302.412
302.422
302.421
302.409
302.387
302.359
302.33
302.305
302.294
302.308
302.361
302.469
302.648
302.912
303.259
303.68
304.227
304.988
305.944
300.205
300.593
300.932
301.203
301.403
301.558
301.691
301.81
301.921
302.025
302.119
302.204
302.278
302.339
302.388
302.424
302.447
302.458
302.458
302.447
302.428
302.401
302.373
302.35
302.34
302.357
302.412
302.524
302.707
302.975
303.325
303.746
304.294
305.055
306.011
300.208
300.602
300.946
301.22
301.423
301.579
301.713
301.835
301.948
302.052
302.149
302.235
302.309
302.371
302.421
302.457
302.482
302.494
302.495
302.486
302.468
302.443
302.416
302.395
302.387
302.405
302.464
302.579
302.766
303.037
303.389
303.811
304.359
305.12
306.075
300.212
300.611
300.96
301.238
301.442
301.6
301.736
301.859
301.974
302.08
302.178
302.265
302.34
302.403
302.454
302.491
302.516
302.529
302.532
302.524
302.507
302.485
302.46
302.44
302.434
302.454
302.515
302.633
302.824
303.099
303.453
303.874
304.422
305.183
306.138
300.215
300.621
300.974
301.255
301.461
301.621
301.759
301.884
302
302.108
302.207
302.295
302.372
302.435
302.486
302.524
302.55
302.565
302.568
302.562
302.547
302.526
302.503
302.484
302.48
302.503
302.566
302.687
302.882
303.16
303.515
303.936
304.484
305.245
306.199
300.218
300.63
300.988
301.272
301.48
301.642
301.782
301.908
302.026
302.136
302.236
302.325
302.403
302.467
302.519
302.558
302.584
302.6
302.604
302.599
302.586
302.567
302.546
302.529
302.527
302.551
302.617
302.741
302.939
303.22
303.576
303.997
304.545
305.305
306.258
300.221
300.639
301.003
301.289
301.499
301.663
301.804
301.933
302.052
302.164
302.265
302.356
302.434
302.499
302.552
302.591
302.618
302.634
302.64
302.637
302.625
302.608
302.588
302.574
302.573
302.6
302.668
302.795
302.996
303.279
303.636
304.057
304.604
305.363
306.316
300.225
300.648
301.016
301.306
301.519
301.684
301.827
301.957
302.079
302.191
302.294
302.386
302.465
302.531
302.584
302.624
302.652
302.669
302.676
302.674
302.664
302.648
302.631
302.618
302.62
302.648
302.719
302.848
303.052
303.337
303.695
304.115
304.661
305.42
306.372
300.228
300.657
301.031
301.323
301.538
301.705
301.85
301.982
302.105
302.219
302.324
302.417
302.497
302.563
302.617
302.657
302.686
302.703
302.711
302.71
302.702
302.688
302.673
302.663
302.666
302.697
302.77
302.901
303.107
303.394
303.752
304.172
304.718
305.476
306.427
300.231
300.667
301.045
301.341
301.557
301.726
301.873
302.007
302.132
302.248
302.353
302.447
302.528
302.595
302.649
302.69
302.719
302.738
302.747
302.747
302.74
302.728
302.715
302.707
302.712
302.745
302.82
302.954
303.162
303.451
303.81
304.228
304.773
305.531
306.481
300.234
300.676
301.059
301.358
301.576
301.747
301.895
302.031
302.158
302.276
302.383
302.478
302.559
302.627
302.682
302.723
302.753
302.772
302.782
302.783
302.778
302.768
302.757
302.75
302.758
302.793
302.87
303.007
303.217
303.507
303.866
304.284
304.827
305.585
306.535
300.238
300.685
301.073
301.375
301.595
301.768
301.918
302.056
302.185
302.304
302.412
302.508
302.591
302.659
302.714
302.756
302.786
302.806
302.817
302.819
302.815
302.807
302.798
302.794
302.804
302.841
302.92
303.059
303.271
303.563
303.921
304.338
304.881
305.638
306.587
300.241
300.694
301.087
301.392
301.615
301.789
301.941
302.081
302.212
302.332
302.442
302.539
302.623
302.692
302.747
302.789
302.82
302.84
302.852
302.855
302.853
302.846
302.839
302.837
302.85
302.889
302.97
303.111
303.325
303.618
303.976
304.392
304.934
305.69
306.639
300.244
300.704
301.101
301.409
301.634
301.81
301.964
302.106
302.238
302.361
302.472
302.57
302.654
302.724
302.779
302.822
302.853
302.874
302.886
302.891
302.89
302.885
302.88
302.88
302.895
302.936
303.02
303.163
303.379
303.673
304.031
304.445
304.986
305.741
306.689
300.247
300.713
301.115
301.427
301.653
301.831
301.987
302.131
302.265
302.39
302.502
302.601
302.686
302.756
302.812
302.855
302.887
302.908
302.921
302.927
302.927
302.924
302.92
302.923
302.94
302.983
303.069
303.214
303.432
303.727
304.084
304.498
305.037
305.792
306.739
300.251
300.722
301.129
301.444
301.672
301.853
302.011
302.157
302.293
302.419
302.532
302.633
302.718
302.788
302.845
302.888
302.92
302.942
302.956
302.962
302.964
302.962
302.961
302.965
302.984
303.03
303.118
303.265
303.484
303.78
304.137
304.55
305.088
305.842
306.789
300.254
300.732
301.144
301.461
301.692
301.874
302.034
302.182
302.32
302.448
302.563
302.664
302.75
302.821
302.878
302.921
302.954
302.976
302.99
302.998
303.001
303
303.001
303.007
303.029
303.077
303.167
303.316
303.537
303.833
304.19
304.601
305.138
305.891
306.837
300.257
300.741
301.158
301.479
301.711
301.896
302.058
302.208
302.348
302.477
302.594
302.696
302.782
302.854
302.91
302.954
302.987
303.01
303.025
303.033
303.037
303.038
303.041
303.049
303.073
303.123
303.215
303.366
303.588
303.885
304.242
304.651
305.187
305.939
306.886
300.261
300.751
301.172
301.496
301.731
301.917
302.082
302.234
302.376
302.507
302.625
302.728
302.815
302.886
302.943
302.988
303.02
303.044
303.059
303.069
303.074
303.076
303.08
303.091
303.116
303.169
303.263
303.416
303.639
303.937
304.293
304.701
305.236
305.987
306.933
300.264
300.76
301.187
301.514
301.751
301.939
302.106
302.26
302.404
302.537
302.656
302.76
302.847
302.919
302.977
303.021
303.054
303.078
303.094
303.104
303.11
303.114
303.12
303.132
303.16
303.214
303.311
303.465
303.69
303.988
304.343
304.751
305.284
306.034
306.98
300.267
300.77
301.201
301.531
301.771
301.961
302.13
302.286
302.433
302.567
302.687
302.792
302.88
302.952
303.01
303.054
303.087
303.112
303.128
303.139
303.146
303.152
303.159
303.173
303.203
303.26
303.358
303.514
303.74
304.039
304.393
304.799
305.331
306.081
307.027
300.271
300.779
301.216
301.549
301.791
301.983
302.154
302.313
302.461
302.598
302.719
302.824
302.913
302.985
303.043
303.087
303.121
303.146
303.163
303.174
303.183
303.189
303.198
303.215
303.246
303.305
303.405
303.563
303.79
304.089
304.443
304.848
305.378
306.128
307.074
300.274
300.789
301.23
301.567
301.811
302.005
302.179
302.34
302.49
302.628
302.751
302.857
302.946
303.019
303.076
303.121
303.155
303.179
303.197
303.21
303.219
303.227
303.237
303.256
303.29
303.35
303.453
303.612
303.84
304.139
304.492
304.896
305.425
306.175
307.12
300.277
300.798
301.245
301.585
301.831
302.028
302.203
302.367
302.52
302.659
302.783
302.89
302.979
303.052
303.109
303.154
303.188
303.213
303.232
303.245
303.255
303.264
303.277
303.297
303.333
303.396
303.5
303.661
303.89
304.19
304.542
304.944
305.472
306.221
307.167
300.281
300.808
301.26
301.603
301.851
302.05
302.228
302.395
302.549
302.691
302.816
302.923
303.013
303.085
303.143
303.188
303.222
303.247
303.266
303.28
303.291
303.302
303.316
303.338
303.376
303.441
303.547
303.709
303.94
304.24
304.591
304.991
305.519
306.268
307.214
300.284
300.818
301.275
301.621
301.872
302.073
302.254
302.422
302.579
302.722
302.849
302.957
303.046
303.119
303.176
303.221
303.255
303.281
303.3
303.315
303.327
303.339
303.355
303.379
303.419
303.486
303.595
303.759
303.99
304.29
304.64
305.039
305.566
306.315
307.261
300.288
300.828
301.29
301.639
301.892
302.096
302.279
302.451
302.61
302.755
302.882
302.99
303.08
303.153
303.21
303.255
303.289
303.315
303.335
303.35
303.363
303.377
303.394
303.42
303.462
303.532
303.642
303.808
304.041
304.34
304.689
305.087
305.613
306.362
307.309
300.291
300.838
301.305
301.658
301.913
302.119
302.305
302.479
302.641
302.787
302.915
303.024
303.114
303.186
303.244
303.288
303.323
303.349
303.369
303.385
303.399
303.414
303.433
303.461
303.505
303.577
303.69
303.858
304.091
304.391
304.739
305.135
305.66
306.409
307.357
300.295
300.848
301.32
301.676
301.934
302.143
302.332
302.508
302.672
302.82
302.949
303.058
303.148
303.22
303.277
303.322
303.356
303.383
303.403
303.42
303.435
303.451
303.472
303.502
303.549
303.623
303.738
303.908
304.142
304.442
304.789
305.184
305.708
306.457
307.405
300.298
300.858
301.336
301.695
301.955
302.167
302.358
302.537
302.704
302.853
302.983
303.093
303.182
303.254
303.311
303.356
303.39
303.416
303.438
303.455
303.471
303.489
303.511
303.543
303.592
303.669
303.786
303.958
304.194
304.493
304.839
305.233
305.756
306.505
307.454
300.302
300.868
301.351
301.714
301.977
302.191
302.385
302.567
302.736
302.887
303.018
303.127
303.217
303.289
303.345
303.389
303.424
303.45
303.472
303.49
303.507
303.526
303.55
303.584
303.635
303.715
303.835
304.008
304.246
304.545
304.889
305.282
305.805
306.554
307.503
300.306
300.879
301.367
301.733
301.998
302.215
302.412
302.597
302.768
302.921
303.052
303.162
303.252
303.323
303.379
303.423
303.457
303.484
303.506
303.525
303.543
303.563
303.589
303.625
303.679
303.761
303.883
304.059
304.298
304.597
304.94
305.331
305.853
306.603
307.552
300.309
300.889
301.383
301.752
302.02
302.239
302.439
302.627
302.801
302.955
303.087
303.198
303.287
303.358
303.413
303.457
303.491
303.518
303.54
303.56
303.579
303.6
303.627
303.666
303.722
303.807
303.932
304.11
304.35
304.649
304.991
305.381
305.902
306.652
307.602
300.313
300.9
301.399
301.771
302.042
302.264
302.467
302.658
302.834
302.99
303.123
303.233
303.322
303.392
303.448
303.491
303.525
303.552
303.575
303.595
303.615
303.637
303.666
303.707
303.766
303.853
303.981
304.161
304.403
304.702
305.042
305.431
305.951
306.701
307.652
300.317
300.91
301.414
301.79
302.064
302.289
302.495
302.689
302.867
303.025
303.158
303.268
303.357
303.427
303.482
303.525
303.558
303.586
303.609
303.63
303.651
303.675
303.705
303.748
303.809
303.899
304.03
304.212
304.455
304.754
305.093
305.481
306.001
306.75
307.701
300.32
300.921
301.43
301.81
302.086
302.314
302.523
302.721
302.901
303.06
303.194
303.304
303.392
303.462
303.516
303.559
303.592
303.62
303.643
303.665
303.686
303.712
303.744
303.789
303.853
303.946
304.079
304.264
304.508
304.807
305.145
305.531
306.05
306.8
307.751
300.324
300.931
301.446
301.829
302.108
302.339
302.552
302.752
302.935
303.095
303.23
303.34
303.427
303.496
303.55
303.592
303.626
303.653
303.677
303.699
303.722
303.749
303.783
303.829
303.896
303.992
304.128
304.315
304.561
304.86
305.196
305.581
306.1
306.849
307.801
300.328
300.942
301.462
301.849
302.13
302.364
302.581
302.785
302.97
303.131
303.266
303.376
303.463
303.531
303.584
303.626
303.66
303.687
303.711
303.734
303.758
303.786
303.822
303.87
303.939
304.038
304.177
304.367
304.614
304.913
305.248
305.631
306.15
306.899
307.85
300.332
300.952
301.479
301.868
302.153
302.39
302.611
302.817
303.005
303.167
303.303
303.412
303.498
303.566
303.619
303.66
303.693
303.721
303.745
303.769
303.794
303.823
303.86
303.911
303.983
304.084
304.226
304.418
304.666
304.965
305.299
305.681
306.199
306.948
307.9
300.335
300.963
301.495
301.888
302.176
302.417
302.641
302.851
303.04
303.204
303.34
303.448
303.534
303.601
303.653
303.694
303.727
303.755
303.78
303.804
303.829
303.86
303.899
303.952
304.026
304.13
304.275
304.469
304.719
305.017
305.35
305.731
306.248
306.997
307.949
300.339
300.974
301.512
301.909
302.199
302.443
302.671
302.885
303.077
303.241
303.377
303.485
303.57
303.636
303.688
303.728
303.761
303.789
303.814
303.838
303.865
303.896
303.937
303.992
304.069
304.176
304.323
304.52
304.771
305.069
305.4
305.78
306.297
307.046
307.997
300.343
300.985
301.528
301.929
302.223
302.471
302.703
302.919
303.113
303.279
303.414
303.522
303.606
303.672
303.722
303.762
303.795
303.822
303.848
303.873
303.9
303.933
303.976
304.033
304.112
304.222
304.372
304.571
304.823
305.121
305.451
305.829
306.346
307.094
308.045
300.347
300.996
301.545
301.95
302.247
302.499
302.735
302.955
303.151
303.317
303.452
303.559
303.643
303.707
303.757
303.796
303.829
303.856
303.882
303.907
303.936
303.97
304.014
304.073
304.155
304.267
304.42
304.621
304.875
305.172
305.5
305.878
306.394
307.142
308.093
300.351
301.008
301.563
301.971
302.271
302.527
302.767
302.991
303.189
303.356
303.491
303.597
303.679
303.743
303.792
303.831
303.863
303.89
303.916
303.942
303.971
304.007
304.052
304.114
304.198
304.313
304.468
304.672
304.926
305.223
305.55
305.927
306.442
307.189
308.14
300.355
301.019
301.581
301.993
302.296
302.556
302.8
303.027
303.227
303.395
303.529
303.635
303.716
303.778
303.827
303.865
303.897
303.924
303.95
303.977
304.007
304.043
304.091
304.154
304.24
304.358
304.516
304.721
304.977
305.273
305.599
305.974
306.489
307.236
308.187
300.359
301.031
301.598
302.015
302.322
302.586
302.834
303.064
303.266
303.434
303.568
303.673
303.753
303.814
303.862
303.9
303.931
303.958
303.984
304.011
304.042
304.08
304.129
304.194
304.283
304.403
304.563
304.771
305.027
305.323
305.647
306.022
306.536
307.283
308.233
300.363
301.043
301.617
302.037
302.348
302.616
302.869
303.102
303.306
303.474
303.608
303.711
303.79
303.85
303.897
303.934
303.965
303.992
304.018
304.046
304.078
304.117
304.167
304.234
304.325
304.448
304.611
304.82
305.077
305.372
305.695
306.068
306.582
307.328
308.278
300.367
301.055
301.635
302.06
302.375
302.647
302.904
303.141
303.346
303.514
303.647
303.749
303.827
303.887
303.932
303.969
303.999
304.026
304.053
304.081
304.113
304.153
304.205
304.274
304.367
304.492
304.658
304.869
305.126
305.421
305.742
306.115
306.628
307.374
308.323
300.372
301.067
301.654
302.083
302.402
302.679
302.941
303.18
303.387
303.555
303.687
303.788
303.865
303.923
303.968
304.003
304.033
304.061
304.087
304.115
304.149
304.19
304.243
304.314
304.409
304.537
304.704
304.917
305.175
305.469
305.789
306.16
306.673
307.418
308.366
300.376
301.08
301.674
302.108
302.43
302.712
302.978
303.221
303.429
303.597
303.727
303.827
303.902
303.959
304.003
304.038
304.068
304.095
304.121
304.15
304.184
304.226
304.281
304.354
304.451
304.581
304.75
304.965
305.223
305.516
305.835
306.205
306.718
307.462
308.41
300.381
301.093
301.694
302.133
302.46
302.747
303.018
303.263
303.472
303.639
303.769
303.867
303.94
303.996
304.039
304.073
304.102
304.129
304.156
304.185
304.219
304.262
304.319
304.393
304.492
304.624
304.796
305.012
305.27
305.563
305.88
306.249
306.761
307.505
308.452
300.385
301.107
301.715
302.158
302.49
302.782
303.058
303.307
303.516
303.683
303.811
303.907
303.979
304.033
304.075
304.109
304.137
304.164
304.19
304.22
304.255
304.299
304.356
304.432
304.534
304.668
304.841
305.058
305.318
305.609
305.925
306.293
306.805
307.547
308.493
300.39
301.121
301.737
302.185
302.522
302.82
303.101
303.352
303.562
303.728
303.854
303.948
304.018
304.071
304.111
304.144
304.172
304.198
304.225
304.255
304.29
304.335
304.394
304.471
304.575
304.711
304.886
305.104
305.363
305.654
305.968
306.336
306.846
307.588
308.534
300.395
301.135
301.759
302.213
302.555
302.859
303.145
303.399
303.609
303.774
303.898
303.99
304.058
304.109
304.148
304.18
304.207
304.233
304.26
304.29
304.326
304.371
304.431
304.51
304.616
304.753
304.93
305.15
305.409
305.698
306.011
306.378
306.888
307.629
308.574
300.4
301.15
301.782
302.242
302.589
302.899
303.19
303.448
303.658
303.821
303.943
304.032
304.098
304.147
304.185
304.216
304.243
304.268
304.295
304.325
304.361
304.408
304.469
304.549
304.656
304.796
304.974
305.194
305.454
305.742
306.053
306.419
306.928
307.669
308.613
300.406
301.166
301.806
302.272
302.625
302.941
303.238
303.497
303.708
303.869
303.988
304.076
304.139
304.187
304.223
304.253
304.279
304.304
304.33
304.36
304.397
304.444
304.506
304.588
304.697
304.838
305.018
305.239
305.498
305.785
306.095
306.46
306.969
307.708
308.651
300.411
301.182
301.831
302.303
302.662
302.985
303.287
303.549
303.759
303.918
304.035
304.119
304.181
304.226
304.261
304.29
304.315
304.339
304.366
304.396
304.433
304.481
304.544
304.627
304.737
304.879
305.06
305.282
305.541
305.827
306.135
306.499
307.007
307.746
308.689
300.417
301.199
301.857
302.335
302.7
303.03
303.338
303.602
303.811
303.968
304.082
304.164
304.223
304.266
304.299
304.327
304.351
304.375
304.401
304.432
304.469
304.518
304.582
304.666
304.777
304.921
305.104
305.326
305.584
305.869
306.176
306.539
307.047
307.784
308.726
300.423
301.216
301.884
302.368
302.74
303.077
303.39
303.656
303.865
304.019
304.13
304.209
304.265
304.307
304.338
304.365
304.388
304.412
304.438
304.468
304.506
304.555
304.619
304.705
304.817
304.962
305.145
305.368
305.626
305.909
306.215
306.577
307.084
307.821
308.762
300.429
301.234
301.911
302.402
302.781
303.125
303.444
303.712
303.919
304.071
304.179
304.255
304.309
304.348
304.378
304.403
304.426
304.449
304.474
304.504
304.543
304.592
304.658
304.744
304.857
305.004
305.188
305.411
305.668
305.95
306.254
306.615
307.122
307.858
308.799
300.436
301.252
301.94
302.437
302.823
303.175
303.498
303.768
303.974
304.124
304.229
304.301
304.352
304.389
304.418
304.442
304.463
304.486
304.511
304.541
304.58
304.63
304.696
304.783
304.897
305.045
305.23
305.452
305.709
305.989
306.292
306.652
307.158
307.894
308.834
300.442
301.271
301.968
302.473
302.866
303.225
303.554
303.825
304.03
304.177
304.279
304.348
304.397
304.431
304.458
304.481
304.502
304.524
304.548
304.579
304.617
304.668
304.734
304.823
304.938
305.087
305.272
305.495
305.75
306.029
306.331
306.69
307.196
307.93
308.87
300.449
301.291
301.998
302.51
302.91
303.277
303.611
303.883
304.086
304.23
304.329
304.395
304.441
304.474
304.499
304.52
304.54
304.561
304.586
304.616
304.655
304.706
304.773
304.862
304.978
305.127
305.313
305.536
305.79
306.067
306.368
306.726
307.231
307.965
308.904
300.456
301.311
302.028
302.548
302.956
303.331
303.669
303.941
304.143
304.284
304.379
304.443
304.486
304.517
304.54
304.56
304.579
304.6
304.624
304.654
304.693
304.745
304.813
304.902
305.02
305.169
305.356
305.578
305.831
306.107
306.406
306.763
307.268
308.001
308.94
300.463
301.331
302.06
302.588
303.003
303.386
303.729
304.002
304.201
304.339
304.431
304.491
304.531
304.56
304.582
304.601
304.619
304.639
304.663
304.693
304.732
304.783
304.852
304.942
305.06
305.21
305.397
305.618
305.87
306.145
306.442
306.798
307.302
308.036
308.974
300.47
301.352
302.093
302.629
303.053
303.444
303.791
304.064
304.261
304.395
304.483
304.54
304.577
304.604
304.624
304.641
304.659
304.678
304.702
304.732
304.771
304.823
304.892
304.983
305.102
305.253
305.439
305.661
305.911
306.184
306.48
306.836
307.339
308.072
309.01
300.478
301.375
302.127
302.673
303.105
303.505
303.857
304.13
304.323
304.453
304.536
304.589
304.624
304.648
304.666
304.683
304.699
304.718
304.741
304.771
304.81
304.862
304.932
305.024
305.143
305.294
305.48
305.701
305.95
306.221
306.516
306.871
307.374
308.106
309.044
300.486
301.399
302.164
302.718
303.16
303.569
303.924
304.197
304.387
304.512
304.591
304.64
304.671
304.693
304.71
304.725
304.74
304.758
304.781
304.811
304.851
304.903
304.973
305.066
305.186
305.337
305.524
305.743
305.991
306.261
306.554
306.908
307.411
308.143
309.081
300.495
301.423
302.201
302.765
303.216
303.633
303.993
304.266
304.452
304.572
304.646
304.691
304.719
304.739
304.753
304.767
304.782
304.799
304.822
304.851
304.891
304.944
305.014
305.107
305.227
305.379
305.565
305.784
306.031
306.298
306.59
306.943
307.446
308.177
309.115
300.504
301.449
302.239
302.812
303.272
303.698
304.062
304.334
304.518
304.633
304.703
304.744
304.768
304.785
304.798
304.81
304.824
304.841
304.863
304.892
304.932
304.986
305.057
305.15
305.271
305.423
305.609
305.827
306.072
306.338
306.628
306.981
307.483
308.215
309.152
300.513
301.475
302.278
302.86
303.328
303.762
304.13
304.402
304.583
304.694
304.759
304.796
304.818
304.832
304.843
304.854
304.866
304.883
304.904
304.934
304.973
305.027
305.098
305.192
305.314
305.466
305.651
305.868
306.112
306.376
306.665
307.016
307.518
308.249
309.187
300.523
301.501
302.316
302.908
303.385
303.826
304.198
304.47
304.648
304.756
304.816
304.849
304.868
304.879
304.889
304.898
304.91
304.925
304.947
304.976
305.016
305.07
305.142
305.237
305.358
305.511
305.696
305.912
306.154
306.416
306.704
307.055
307.557
308.288
309.226
300.532
301.527
302.355
302.956
303.442
303.892
304.266
304.538
304.713
304.817
304.873
304.903
304.918
304.927
304.935
304.943
304.953
304.968
304.989
305.018
305.058
305.112
305.185
305.28
305.402
305.554
305.739
305.953
306.193
306.454
306.74
307.091
307.592
308.323
309.261
300.541
301.553
302.395
303.007
303.503
303.959
304.337
304.608
304.78
304.879
304.931
304.957
304.969
304.976
304.981
304.988
304.998
305.012
305.032
305.061
305.101
305.156
305.229
305.325
305.447
305.6
305.784
305.998
306.236
306.495
306.781
307.131
307.632
308.362
309.3
300.551
301.581
302.437
303.06
303.566
304.031
304.412
304.681
304.849
304.943
304.99
305.012
305.021
305.025
305.028
305.034
305.042
305.055
305.075
305.104
305.144
305.199
305.273
305.369
305.491
305.644
305.827
306.04
306.277
306.534
306.818
307.167
307.668
308.398
309.336
300.561
301.61
302.482
303.116
303.633
304.106
304.49
304.757
304.921
305.009
305.051
305.068
305.073
305.075
305.076
305.08
305.088
305.1
305.12
305.149
305.189
305.244
305.318
305.415
305.538
305.691
305.874
306.085
306.32
306.576
306.859
307.208
307.709
308.439
309.377
300.572
301.641
302.528
303.175
303.702
304.184
304.572
304.837
304.995
305.077
305.113
305.125
305.127
305.125
305.125
305.127
305.133
305.145
305.164
305.192
305.233
305.288
305.363
305.46
305.583
305.735
305.917
306.128
306.361
306.615
306.897
307.245
307.746
308.476
309.414
300.583
301.674
302.577
303.235
303.774
304.265
304.655
304.919
305.072
305.147
305.177
305.184
305.181
305.177
305.174
305.175
305.18
305.191
305.21
305.238
305.279