/*--------------------------------*- C++ -*----------------------------------*\
| =========                 |                                                 |
| \\      /  F ield         | OpenFOAM: The Open Source CFD Toolbox           |
|  \\    /   O peration     | Version:  v2006                                 |
|   \\  /    A nd           | Website:  www.openfoam.com                      |
|    \\/     M anipulation  |                                                 |
\*---------------------------------------------------------------------------*/
FoamFile
{
    version     2.0;
    format      ascii;
    class       volVectorField;
    location    "80";
    object      U;
}
// * * * * * * * * * * * * * * * * * * * * * * * * * * * * * * * * * * * * * //

dimensions      [0 1 -1 0 0 0 0];


internalField   nonuniform List<vector> 
78750
(
(9.58258e-05 -0.00116488 0.000461402)
(0.000642624 -0.00269652 0.00119286)
(0.00159733 -0.00366252 0.00183925)
(0.00280571 -0.00425752 0.00242761)
(0.00417143 -0.00461519 0.00295279)
(0.00563591 -0.00482024 0.00340636)
(0.00715756 -0.00492073 0.0037858)
(0.00870185 -0.00494036 0.00409457)
(0.0102384 -0.0048888 0.00433956)
(0.0117399 -0.0047692 0.00452881)
(0.0131812 -0.00458259 0.00467)
(0.0145393 -0.0043302 0.0047698)
(0.0157931 -0.00401471 0.00483356)
(0.0169241 -0.00364036 0.00486503)
(0.0179151 -0.00320628 0.00486803)
(0.0187524 -0.00271574 0.00484554)
(0.0194235 -0.00217578 0.00479989)
(0.0199172 -0.00159476 0.00473314)
(0.020225 -0.000981617 0.00464729)
(0.0203404 -0.000345619 0.00454443)
(0.0202607 0.000303465 0.00442671)
(0.0199828 0.000955407 0.00429617)
(0.0195044 0.00160019 0.00415545)
(0.0188287 0.00222717 0.00400774)
(0.0179625 0.00282455 0.00385695)
(0.0169162 0.00337859 0.00370815)
(0.0157033 0.00386901 0.00356711)
(0.0143418 0.00426918 0.00344105)
(0.0128541 0.00456041 0.00334066)
(0.0112605 0.00475985 0.0032745)
(0.00956261 0.0049964 0.00322861)
(0.00769803 0.00559058 0.00312016)
(0.00552046 0.00684517 0.00276082)
(0.00304365 0.00804947 0.00194841)
(0.00074364 0.00595727 0.000711814)
(9.01343e-06 -0.00330481 0.000889566)
(0.000453393 -0.00819871 0.00223031)
(0.0012736 -0.0116838 0.00317634)
(0.00239984 -0.0141989 0.00383898)
(0.00375436 -0.0160133 0.00430685)
(0.0052691 -0.0172739 0.00464276)
(0.0068801 -0.0180632 0.00488936)
(0.00853404 -0.0184378 0.00507552)
(0.010188 -0.0184424 0.00522039)
(0.011806 -0.0181144 0.00533627)
(0.0133573 -0.0174867 0.00543069)
(0.0148161 -0.0165892 0.0055079)
(0.0161615 -0.0154525 0.00556797)
(0.0173663 -0.0141161 0.00560192)
(0.0184176 -0.012612 0.00560794)
(0.0193106 -0.0109532 0.00559512)
(0.0200304 -0.00915749 0.00556733)
(0.0205644 -0.00724682 0.0055256)
(0.0209049 -0.00524286 0.00547068)
(0.0210452 -0.00316744 0.00540289)
(0.0209803 -0.00104282 0.00532238)
(0.0207085 0.00110789 0.00522902)
(0.0202285 0.00326012 0.00512243)
(0.0195384 0.00538746 0.00500224)
(0.0186381 0.00745909 0.00486814)
(0.0175338 0.00943385 0.00471852)
(0.0162383 0.011273 0.00455684)
(0.0147488 0.0129629 0.00439949)
(0.0130646 0.0145116 0.00426444)
(0.0111998 0.0159964 0.00416059)
(0.00914806 0.0176838 0.0040768)
(0.00687673 0.020032 0.00393489)
(0.00444641 0.022989 0.00353623)
(0.00211473 0.0241448 0.00262549)
(0.000273943 0.0160181 0.00106675)
(2.26524e-05 -0.00503846 0.00100726)
(0.000508746 -0.0131722 0.00241146)
(0.00138275 -0.0194528 0.00330523)
(0.00255129 -0.0241263 0.00386189)
(0.00389579 -0.0274081 0.00420723)
(0.00532835 -0.0295495 0.0044276)
(0.00679003 -0.0307722 0.00457737)
(0.00823964 -0.0312425 0.00468754)
(0.00964727 -0.0310815 0.00477433)
(0.0109909 -0.0303804 0.00484554)
(0.0122536 -0.0292111 0.00490435)
(0.0134214 -0.0276325 0.00495168)
(0.014482 -0.0256954 0.00498738)
(0.0154236 -0.0234484 0.00501004)
(0.0162332 -0.0209432 0.00501612)
(0.0169028 -0.018214 0.00500832)
(0.0174254 -0.0152837 0.00499231)
(0.0177922 -0.0121824 0.00497014)
(0.017998 -0.00894007 0.00494354)
(0.0180383 -0.00558729 0.00491348)
(0.017909 -0.00216061 0.00487847)
(0.0176087 0.00130496 0.00483726)
(0.0171367 0.00478492 0.00479191)
(0.0164908 0.00825403 0.00474332)
(0.0156693 0.0116775 0.00468924)
(0.0146719 0.0150145 0.00462639)
(0.0135008 0.0182246 0.00455302)
(0.012161 0.0212788 0.00447124)
(0.0106598 0.0241875 0.00438671)
(0.00900189 0.0270647 0.00430432)
(0.00717437 0.0301723 0.00420824)
(0.00516761 0.0336876 0.00401801)
(0.0031813 0.0367129 0.00356739)
(0.00139383 0.0358816 0.00262949)
(0.000127027 0.0216872 0.0010484)
(3.55057e-05 -0.00730853 0.00104467)
(0.000584479 -0.0190041 0.00233375)
(0.00149433 -0.0277883 0.003054)
(0.00263585 -0.0339479 0.00345608)
(0.00386655 -0.0378767 0.00368627)
(0.00510295 -0.0401259 0.00382585)
(0.00631125 -0.0411665 0.00391856)
(0.00747485 -0.0413025 0.00398533)
(0.00858105 -0.0407184 0.00403466)
(0.00962121 -0.039533 0.00406937)
(0.0105889 -0.0378292 0.00409005)
(0.0114772 -0.0356688 0.00409679)
(0.012278 -0.033101 0.00409018)
(0.0129818 -0.0301689 0.00407173)
(0.0135783 -0.0269137 0.00404383)
(0.0140578 -0.0233771 0.00400947)
(0.0144118 -0.0195998 0.00397316)
(0.0146349 -0.0156216 0.00394007)
(0.0147241 -0.0114806 0.00391577)
(0.0146782 -0.00721192 0.00390559)
(0.0144967 -0.00284705 0.00391374)
(0.0141796 0.00158582 0.00394274)
(0.0137278 0.00605899 0.00399271)
(0.013141 0.0105411 0.00406013)
(0.0124186 0.0149925 0.00413725)
(0.0115603 0.0193636 0.00421247)
(0.0105677 0.0236021 0.00427278)
(0.00944508 0.027679 0.00430778)
(0.00819774 0.0316341 0.00431242)
(0.00682491 0.0356182 0.00428183)
(0.00531459 0.0398203 0.00419044)
(0.00369092 0.0440048 0.0039612)
(0.00218508 0.046609 0.00347734)
(0.000888869 0.0438429 0.00255739)
(4.2164e-05 0.0249834 0.00101768)
(4.04454e-05 -0.00966503 0.000877194)
(0.000549368 -0.024727 0.00186964)
(0.00134928 -0.0355669 0.00237336)
(0.00231837 -0.042713 0.00263416)
(0.00332934 -0.04691 0.00277205)
(0.00432239 -0.0490772 0.00284494)
(0.00528727 -0.0499009 0.00288204)
(0.00622146 -0.0497632 0.00289581)
(0.00711883 -0.0488671 0.00288956)
(0.0079738 -0.0473289 0.00286469)
(0.00878022 -0.0452207 0.0028214)
(0.00952871 -0.0425921 0.00276029)
(0.0102069 -0.039483 0.00268311)
(0.0108009 -0.0359336 0.00259315)
(0.0112965 -0.0319899 0.00249563)
(0.0116817 -0.027706 0.00239771)
(0.0119476 -0.0231427 0.00230834)
(0.0120894 -0.0183633 0.0022381)
(0.0121069 -0.0134274 0.00219856)
(0.0120035 -0.00838582 0.00220131)
(0.0117848 -0.00327684 0.00225687)
(0.011458 0.00187377 0.00237315)
(0.0110297 0.00704876 0.00255336)
(0.0105051 0.0122316 0.00279346)
(0.00988691 0.0173972 0.00307985)
(0.0091749 0.0225058 0.00338847)
(0.00836696 0.0275118 0.00368766)
(0.00745984 0.0323972 0.00394532)
(0.00644884 0.0372201 0.00413539)
(0.00532546 0.0421183 0.00423434)
(0.0040823 0.0471223 0.00420311)
(0.00278105 0.051581 0.00397366)
(0.00161188 0.0536135 0.00346933)
(0.000625525 0.0491446 0.00254305)
(2.44526e-05 0.0269026 0.000997025)
(4.48973e-05 -0.0116488 0.000627642)
(0.000487516 -0.0293019 0.0013382)
(0.0011583 -0.0415874 0.00172178)
(0.00195597 -0.0493544 0.00194197)
(0.00277644 -0.0536723 0.00206446)
(0.00357737 -0.0557486 0.00212404)
(0.00435932 -0.0564106 0.00214228)
(0.00512608 -0.0560734 0.00212963)
(0.0058709 -0.0549331 0.00208978)
(0.00658635 -0.0530936 0.00202381)
(0.00726601 -0.0506081 0.0019326)
(0.00789798 -0.0475103 0.00181679)
(0.00846767 -0.0438317 0.00167748)
(0.00895921 -0.0396162 0.00151682)
(0.00935772 -0.034928 0.0013388)
(0.00965148 -0.0298526 0.00114992)
(0.00983351 -0.02449 0.000959905)
(0.00990202 -0.0189439 0.000782006)
(0.00986005 -0.0133099 0.000633091)
(0.00971446 -0.0076648 0.000533217)
(0.00947452 -0.00206022 0.000504217)
(0.00915121 0.00347824 0.00056711)
(0.00875565 0.00894773 0.00073847)
(0.00829678 0.0143612 0.00102559)
(0.0077802 0.0197361 0.00142134)
(0.00720686 0.0250844 0.00190026)
(0.006572 0.0304157 0.00241907)
(0.00586533 0.0357627 0.00292387)
(0.00507244 0.041209 0.00335916)
(0.0041773 0.0468414 0.00366848)
(0.00317396 0.0524767 0.00378518)
(0.00214424 0.0570829 0.00363785)
(0.00122907 0.0586374 0.00317531)
(0.000461569 0.0528036 0.00228875)
(1.79964e-05 0.0281737 0.000847836)
(3.42046e-05 -0.0133838 0.000479562)
(0.00038652 -0.0332933 0.0010673)
(0.000926438 -0.0468496 0.00142711)
(0.00157979 -0.0551931 0.0016561)
(0.00225861 -0.0596717 0.00179031)
(0.00292704 -0.0617294 0.00185856)
(0.0035876 -0.0622995 0.00188332)
(0.00424061 -0.0618187 0.00187589)
(0.0048787 -0.0604788 0.00184178)
(0.00549465 -0.0583667 0.00178263)
(0.00607977 -0.0555193 0.00169932)
(0.00662243 -0.0519541 0.00159198)
(0.00710858 -0.0476963 0.00146047)
(0.00752366 -0.042799 0.00130496)
(0.00785491 -0.0373516 0.00112641)
(0.00809311 -0.0314754 0.000927257)
(0.00823372 -0.0253112 0.000712274)
(0.00827656 -0.0190016 0.000489991)
(0.00822557 -0.0126741 0.000274022)
(0.00808865 -0.00643014 8.37859e-05)
(0.00787568 -0.000338649 -5.58915e-05)
(0.00759761 0.00556572 -0.000116699)
(0.00726534 0.0112819 -7.05871e-05)
(0.00688783 0.0168398 0.000104666)
(0.00647016 0.0222928 0.00041881)
(0.00601198 0.0277091 0.000862545)
(0.00550629 0.0331699 0.00140365)
(0.00493959 0.0387784 0.00198841)
(0.00429383 0.0446518 0.00254619)
(0.00355045 0.0508185 0.00299139)
(0.00270425 0.0568887 0.0032258)
(0.00184272 0.0615381 0.00316435)
(0.00107028 0.0626834 0.00276917)
(0.000411589 0.0557207 0.00196145)
(2.58245e-05 0.0292446 0.000690876)
(3.07392e-05 -0.0147082 0.000340209)
(0.000326051 -0.0363621 0.000816497)
(0.000785712 -0.0509601 0.00115106)
(0.00134857 -0.0598422 0.00138134)
(0.00193688 -0.0645282 0.00151994)
(0.00251847 -0.0666293 0.00159034)
(0.00309618 -0.0671639 0.00161476)
(0.00366974 -0.066589 0.00160507)
(0.00423097 -0.065092 0.00156669)
(0.0047722 -0.0627466 0.00150251)
(0.00528512 -0.0595739 0.00141401)
(0.00575903 -0.0555806 0.00130182)
(0.00618182 -0.0507934 0.00116615)
(0.00654166 -0.0452813 0.00100719)
(0.00682866 -0.0391604 0.000825321)
(0.00703567 -0.0325845 0.000621605)
(0.00715877 -0.0257276 0.000398863)
(0.00719759 -0.018766 0.000163142)
(0.00715511 -0.0118577 -7.45623e-05)
(0.00703766 -0.00512779 -0.000297223)
(0.00685477 0.00133856 -0.000481757)
(0.00661728 0.00749976 -0.000600501)
(0.00633644 0.0133612 -0.000624161)
(0.00602198 0.0189751 -0.000526206)
(0.00567883 0.0244329 -0.000288293)
(0.00530587 0.0298556 9.34216e-05)
(0.00489463 0.0353902 0.000601955)
(0.00442838 0.0412044 0.00119549)
(0.00388603 0.0474475 0.00180451)
(0.00324653 0.0540978 0.00232998)
(0.00250185 0.0605924 0.00265157)
(0.00173621 0.0653701 0.00266878)
(0.00103438 0.0662698 0.00235087)
(0.000416552 0.0584407 0.00164268)
(3.45398e-05 0.0303753 0.000553463)
(2.33616e-05 -0.0158955 0.000304357)
(0.000278982 -0.0392054 0.000783064)
(0.000689351 -0.0548443 0.00114257)
(0.0012008 -0.0642867 0.00139303)
(0.0017391 -0.069204 0.00154277)
(0.00227264 -0.0713676 0.00161897)
(0.00280367 -0.0718778 0.00164725)
(0.00333072 -0.0712131 0.0016415)
(0.00384483 -0.0695603 0.00160857)
(0.00433829 -0.0669844 0.00155229)
(0.00480341 -0.0634954 0.00147473)
(0.00523096 -0.0590938 0.00137657)
(0.00561113 -0.053809 0.00125732)
(0.00593496 -0.0477223 0.00111533)
(0.00619534 -0.0409676 0.00094805)
(0.00638719 -0.0337196 0.000752949)
(0.00650717 -0.0261757 0.000528905)
(0.00655429 -0.0185364 0.000278095)
(0.00653039 -0.0109891 8.13153e-06)
(0.006439 -0.0036889 -0.000266036)
(0.00628663 0.00324879 -0.000521311)
(0.00608233 0.00975789 -0.000727825)
(0.00583664 0.0158353 -0.000852505)
(0.00555932 0.0215458 -0.000863781)
(0.00525632 0.0270149 -0.000736248)
(0.00492711 0.032419 -0.00045561)
(0.0045632 0.0379735 -2.48347e-05)
(0.00414882 0.0439132 0.000527883)
(0.0036629 0.0504244 0.00113953)
(0.00308254 0.0574492 0.00170564)
(0.00239622 0.0642839 0.0020905)
(0.00168381 0.069175 0.00217853)
(0.0010175 0.0698684 0.00194138)
(0.000417716 0.0612466 0.00134455)
(3.57708e-05 0.0316135 0.000436542)
(2.18983e-05 -0.0169382 0.000272396)
(0.00025845 -0.0417437 0.000728151)
(0.000641358 -0.058349 0.00107942)
(0.00111888 -0.0683325 0.00132522)
(0.00162021 -0.0734895 0.00147208)
(0.00211574 -0.0757299 0.00154681)
(0.0026082 -0.0762301 0.00157467)
(0.00309611 -0.0754915 0.00156962)
(0.00357054 -0.0737021 0.00153881)
(0.00402396 -0.0709205 0.0014866)
(0.00444912 -0.0671501 0.00141579)
(0.0048378 -0.0623901 0.00132793)
(0.00518176 -0.0566773 0.0012232)
(0.00547404 -0.0501057 0.00110027)
(0.00570961 -0.0428249 0.000956405)
(0.00588517 -0.0350245 0.000788097)
(0.00599869 -0.0269163 0.000592106)
(0.00604921 -0.018716 0.000367016)
(0.00603775 -0.0106251 0.000115265)
(0.00596732 -0.00281754 -0.000154419)
(0.00584274 0.00456917 -0.00042489)
(0.00567094 0.0114482 -0.000670381)
(0.00546032 0.0178041 -0.00085889)
(0.0052189 0.0237025 -0.000956526)
(0.00495182 0.0292874 -0.000932126)
(0.00465866 0.0347716 -0.000761568)
(0.00433145 0.040423 -0.000433551)
(0.00395453 0.0465335 4.04111e-05)
(0.00350759 0.0533254 0.000610931)
(0.00296816 0.0607189 0.00117755)
(0.00232208 0.0678973 0.00159741)
(0.00164534 0.0729361 0.00174192)
(0.00100217 0.0734685 0.00158021)
(0.000414303 0.0641035 0.00109237)
(3.5397e-05 0.0328942 0.000345509)
(1.97527e-05 -0.0179367 0.000278908)
(0.000247307 -0.0442024 0.000756649)
(0.000617352 -0.0617561 0.00112457)
(0.00107781 -0.0722617 0.00137728)
(0.00155858 -0.0776426 0.00152471)
(0.00203131 -0.0799496 0.00159806)
(0.00249937 -0.0804319 0.00162464)
(0.00296129 -0.0796118 0.00161932)
(0.00340813 -0.0776793 0.00158991)
(0.00383257 -0.0746887 0.00154128)
(0.00422789 -0.0706394 0.00147658)
(0.00458682 -0.0655315 0.00139734)
(0.00490251 -0.0594091 0.00130323)
(0.00516966 -0.0523774 0.00119198)
(0.00538485 -0.0445982 0.00105969)
(0.005546 -0.0362725 0.000901788)
(0.00565192 -0.0276231 0.000714149)
(0.00570201 -0.0188777 0.000494577)
(0.00569644 -0.0102526 0.000244331)
(0.00563681 -0.00193955 -2.99164e-05)
(0.00552706 0.00590162 -0.000314122)
(0.00537302 0.013163 -0.000586205)
(0.00518159 0.0198177 -0.000817531)
(0.00495953 0.0259331 -0.000976127)
(0.00471139 0.0316702 -0.00103025)
(0.00443692 0.0372734 -0.000951347)
(0.00412921 0.0430537 -0.000718693)
(0.00377401 0.0493489 -0.000329759)
(0.00335156 0.0564106 0.000181304)
(0.00283996 0.064136 0.000724578)
(0.00222514 0.0716072 0.00115811)
(0.00158049 0.0767507 0.00134532)
(0.000962726 0.0770928 0.00125128)
(0.000395141 0.0669588 0.000866452)
(3.17883e-05 0.0341602 0.000266285)
(1.96554e-05 -0.0189334 0.000287069)
(0.000241814 -0.0466494 0.000770999)
(0.000599586 -0.0651234 0.00113445)
(0.00104081 -0.0761178 0.00137816)
(0.00149766 -0.0816986 0.00151769)
(0.00194417 -0.084059 0.00158611)
(0.00238463 -0.0845168 0.00161049)
(0.00281781 -0.0836137 0.00160555)
(0.00323506 -0.0815414 0.00157928)
(0.00362939 -0.0783514 0.00153697)
(0.00399447 -0.0740422 0.0014823)
(0.00432382 -0.0686184 0.0014173)
(0.00461175 -0.0621335 0.00134184)
(0.00485437 -0.0547046 0.00125333)
(0.0050496 -0.0465031 0.0011469)
(0.0051965 -0.0377371 0.00101626)
(0.00529477 -0.0286341 0.000855032)
(0.00534434 -0.0194259 0.000658429)
(0.00534548 -0.0103349 0.000425034)
(0.00529887 -0.00156338 0.000158736)
(0.00520673 0.0067127 -0.000129242)
(0.00507334 0.0143682 -0.000419166)
(0.00490433 0.0213627 -0.000684229)
(0.00470456 0.0277598 -0.000893494)
(0.00447717 0.0337297 -0.00101505)
(0.00422142 0.0395386 -0.00101805)
(0.00393104 0.0455297 -0.000875989)
(0.0035934 0.0520754 -0.000575991)
(0.00319044 0.0594476 -0.000138244)
(0.00270185 0.0675184 0.000360868)
(0.00211511 0.0752747 0.000786652)
(0.00150228 0.0805069 0.000999959)
(0.000913093 0.080644 0.000961942)
(0.000371141 0.0697341 0.000669513)
(2.83724e-05 0.0353708 0.00019906)
(1.90576e-05 -0.0198918 0.000300294)
(0.000237602 -0.0489858 0.000798673)
(0.000586867 -0.0683223 0.00116612)
(0.00101425 -0.0797642 0.0014068)
(0.00145317 -0.0855212 0.00154096)
(0.00187956 -0.0879233 0.00160481)
(0.00229846 -0.0883504 0.00162614)
(0.00270878 -0.0873603 0.00161985)
(0.00310205 -0.0851458 0.0015942)
(0.00347155 -0.0817568 0.00155483)
(0.00381143 -0.0771921 0.00150583)
(0.00411596 -0.0714623 0.00144944)
(0.00438056 -0.0646314 0.00138551)
(0.00460251 -0.0568278 0.00131118)
(0.00478072 -0.0482319 0.00122112)
(0.00491502 -0.0390579 0.00110829)
(0.00500556 -0.0295369 0.000965368)
(0.00505248 -0.0199041 0.000786348)
(0.00505602 -0.0103866 0.000568353)
(0.00501661 -0.00119506 0.000313403)
(0.00493559 0.00748149 3.01204e-05)
(0.00481564 0.0155041 -0.000264921)
(0.00466107 0.0228241 -0.000547631)
(0.00447621 0.0295047 -0.000789269)
(0.00426292 0.0357255 -0.000959002)
(0.00401981 0.0417718 -0.00102547)
(0.00374084 0.0480117 -0.000959006)
(0.00341476 0.0548416 -0.000739674)
(0.00302586 0.0625398 -0.000376262)
(0.00255573 0.0709435 6.87324e-05)
(0.00199433 0.0789424 0.000472005)
(0.00141356 0.0842103 0.000697385)
(0.000855735 0.0841004 0.00070409)
(0.000343729 0.0723925 0.000493532)
(2.48326e-05 0.0365083 0.000139424)
(1.88107e-05 -0.0208812 0.000318078)
(0.000233036 -0.0513824 0.000830183)
(0.000571261 -0.0715735 0.00119487)
(0.000981253 -0.0834346 0.00142564)
(0.00139872 -0.089341 0.00155032)
(0.00180197 -0.0917679 0.00160791)
(0.00219682 -0.0921545 0.00162617)
(0.00258226 -0.0910719 0.00161981)
(0.00295015 -0.0887144 0.00159726)
(0.0032941 -0.0851314 0.00156452)
(0.00360876 -0.080325 0.00152612)
(0.00388916 -0.0743139 0.00148461)
(0.00413174 -0.0671737 0.00143983)
(0.00433487 -0.0590428 0.00138842)
(0.00449838 -0.0501081 0.00132397)
(0.00462284 -0.0405856 0.00123783)
(0.0047088 -0.0307058 0.00112054)
(0.00475657 -0.0207024 0.0009638)
(0.00476611 -0.010803 0.000762679)
(0.00473732 -0.00122249 0.000517677)
(0.00467067 0.00783978 0.000236397)
(0.0045676 0.0162323 -6.56652e-05)
(0.00443026 0.0238979 -0.000365897)
(0.0042616 0.0308979 -0.000636781)
(0.00406325 0.0374177 -0.000848628)
(0.00383304 0.0437572 -0.000970425)
(0.00356488 0.0503039 -0.000971228)
(0.0032487 0.0574699 -0.000826902)
(0.00287121 0.0655306 -0.000537659)
(0.00241698 0.0742798 -0.000153285)
(0.00187905 0.0825106 0.000216086)
(0.00132876 0.0877928 0.000441276)
(0.000801766 0.0874212 0.000481507)
(0.000319126 0.0749221 0.000341356)
(2.23192e-05 0.0375762 8.88262e-05)
(1.81992e-05 -0.0218207 0.000331265)
(0.000227527 -0.0536309 0.000850448)
(0.000555323 -0.0746012 0.00121022)
(0.000949889 -0.0868354 0.00143143)
(0.00134885 -0.0928704 0.00154729)
(0.00173242 -0.0953143 0.00159874)
(0.00210689 -0.0956578 0.00161333)
(0.00247124 -0.094483 0.00160556)
(0.00281755 -0.0919848 0.001584)
(0.00313978 -0.0882129 0.00155501)
(0.00343302 -0.0831739 0.00152356)
(0.00369303 -0.0768958 0.00149264)
(0.00391711 -0.0694662 0.00146238)
(0.00410449 -0.061034 0.00142959)
(0.00425572 -0.0517921 0.00138774)
(0.00437186 -0.0419581 0.00132754)
(0.00445381 -0.0317605 0.00123821)
(0.00450192 -0.0214299 0.00110934)
(0.00451597 -0.011192 0.000933253)
(0.00449531 -0.00126382 0.000707633)
(0.00443962 0.00814806 0.00043771)
(0.00434941 0.0168822 0.000137347)
(0.00422593 0.0248749 -0.000172059)
(0.00407037 0.0321882 -0.000464039)
(0.00388322 0.0390141 -0.000709319)
(0.00366248 0.0456656 -0.000877132)
(0.00340216 0.0525448 -0.000935944)
(0.00309311 0.0600717 -0.000858985)
(0.0027243 0.068507 -0.000640075)
(0.00228359 0.0775901 -0.000317941)
(0.00176731 0.0860163 1.08096e-05)
(0.00124593 0.0912713 0.000226797)
(0.000748926 0.0906103 0.000291091)
(0.000295317 0.0773197 0.000210843)
(1.98846e-05 0.0385758 4.6405e-05)
(1.75833e-05 -0.0227879 0.00034974)
(0.000221893 -0.0559387 0.000881436)
(0.000538782 -0.0776906 0.00123684)
(0.000917292 -0.0902811 0.00144693)
(0.0012972 -0.0964262 0.00155255)
(0.00166083 -0.0988751 0.00159725)
(0.00201495 -0.0991686 0.00160835)
(0.0023585 -0.0978982 0.00160014)
(0.00268383 -0.09526 0.00158127)
(0.00298527 -0.0913057 0.00155843)
(0.00325835 -0.0860481 0.00153692)
(0.00349951 -0.079526 0.00151996)
(0.00370688 -0.0718387 0.00150771)
(0.00388043 -0.063144 0.00149678)
(0.00402141 -0.0536387 0.00148017)
(0.00413139 -0.043539 0.00144777)
(0.00421161 -0.0330684 0.00138751)
(0.00426249 -0.0224509 0.00128714)
(0.00428354 -0.0119069 0.00113665)
(0.00427351 -0.00165222 0.000931116)
(0.00423102 0.00810189 0.000673342)
(0.00415536 0.0171846 0.000375475)
(0.00404655 0.025524 5.79767e-05)
(0.00390483 0.0331791 -0.000253164)
(0.00372942 0.0403473 -0.000529015)
(0.00351773 0.0473509 -0.000738855)
(0.0032643 0.0546032 -0.000850979)
(0.00296106 0.0625265 -0.000837053)
(0.00259904 0.0713606 -0.000686084)
(0.00216927 0.0807849 -0.000427202)
(0.00167135 0.0893976 -0.000143776)
(0.00117519 0.0946133 5.59819e-05)
(0.000704741 0.0936602 0.000135896)
(0.000276373 0.0795995 0.000104962)
(1.84895e-05 0.0395198 1.37485e-05)
(1.69035e-05 -0.0237035 0.000361631)
(0.000215751 -0.0580958 0.000894137)
(0.000521964 -0.0805534 0.00123783)
(0.00088548 -0.0934551 0.00143355)
(0.00124815 -0.0996912 0.00152789)
(0.00159405 -0.102139 0.00156532)
(0.00193023 -0.102381 0.00157228)
(0.00225551 -0.101016 0.00156256)
(0.00256252 -0.0982418 0.00154488)
(0.0028459 -0.0941117 0.00152624)
(0.00310162 -0.0886457 0.00151234)
(0.00332667 -0.081894 0.00150683)
(0.00351979 -0.0739682 0.00151033)
(0.00368154 -0.0650357 0.00151979)
(0.00381364 -0.0552976 0.00152836)
(0.00391812 -0.0449687 0.00152571)
(0.00399652 -0.0342666 0.00149884)
(0.00404939 -0.0234066 0.00143366)
(0.00407611 -0.0126014 0.00131743)
(0.00407495 -0.00206204 0.0011418)
(0.00404368 0.007999 0.000906093)
(0.00398042 0.0174043 0.000619733)
(0.003884 0.0260749 0.000301755)
(0.00375369 0.0340676 -2.21669e-05)
(0.00358808 0.0415833 -0.000322877)
(0.00338401 0.0489528 -0.000569363)
(0.0031361 0.0565964 -0.000729426)
(0.00283742 0.0649321 -0.000773443)
(0.002481 0.0741704 -0.000686568)
(0.00206085 0.0839233 -0.000489608)
(0.0015804 0.0926926 -0.00025345)
(0.00110818 0.0978416 -7.46385e-05)
(0.000662581 0.0965829 1.39477e-05)
(0.000258081 0.0817646 2.25259e-05)
(1.68794e-05 0.04041 -9.72126e-06)
(1.61091e-05 -0.024639 0.000377137)
(0.000209879 -0.0602974 0.000915912)
(0.000506207 -0.083466 0.00125079)
(0.000855855 -0.0966697 0.00143312)
(0.00120256 -0.102986 0.00151635)
(0.00153209 -0.105425 0.0015466)
(0.00185182 -0.105612 0.00154969)
(0.00216044 -0.104153 0.00153903)
(0.00245079 -0.101245 0.00152334)
(0.00271787 -0.0969479 0.00150983)
(0.00295799 -0.0912881 0.00150443)
(0.00316868 -0.0843278 0.00151101)
(0.00334921 -0.0761902 0.00153032)
(0.00350065 -0.067051 0.00155946)
(0.00362522 -0.0571142 0.0015917)
(0.00372539 -0.0465918 0.00161666)
(0.00380307 -0.0356932 0.0016209)
(0.003859 -0.0246231 0.00158926)
(0.00389246 -0.0135832 0.00150697)
(0.00390126 -0.00277698 0.00136272)
(0.0038822 0.00758502 0.00115228)
(0.00383216 0.0173197 0.000881763)
(0.0037486 0.0263399 0.000567991)
(0.00362963 0.0346966 0.000235753)
(0.00347316 0.0425911 -8.57432e-05)
(0.00327584 0.050359 -0.000365081)
(0.0030325 0.0584247 -0.00056955)
(0.00273712 0.0671984 -0.000668269)
(0.00238467 0.0768566 -0.00064294)
(0.00197191 0.0869413 -0.000506838)
(0.00150578 0.0958607 -0.000319099)
(0.00105358 0.100939 -0.000164762)
(0.000628859 0.0993801 -7.3637e-05)
(0.000244085 0.083831 -3.52924e-05)
(1.61349e-05 0.0412568 -2.35069e-05)
(1.55781e-05 -0.0255281 0.000385715)
(0.000204544 -0.0623639 0.000918222)
(0.000491645 -0.0861749 0.00123563)
(0.000828409 -0.0996392 0.00140011)
(0.00116045 -0.106017 0.00147044)
(0.0014751 -0.108441 0.00149267)
(0.00177991 -0.108572 0.00149117)
(0.00207347 -0.107019 0.00147871)
(0.0023489 -0.103982 0.00146395)
(0.00260147 -0.099522 0.0014543)
(0.00282783 -0.0936767 0.00145601)
(0.00302585 -0.0865194 0.00147333)
(0.00319519 -0.0781856 0.00150744)
(0.00333728 -0.0688603 0.0015559)
(0.00345469 -0.0587514 0.00161237)
(0.00355028 -0.0480685 0.00166666)
(0.00362634 -0.0370127 0.00170505)
(0.00368392 -0.0257763 0.00171131)
(0.00372237 -0.0145473 0.00166864)
(0.00373924 -0.00351741 0.00156262)
(0.00373063 0.00710899 0.00138511)
(0.00369229 0.0171469 0.00113839)
(0.00362038 0.0265021 0.000836492)
(0.00351185 0.0352199 0.000502911)
(0.00336381 0.0434998 0.00016679)
(0.00317262 0.0516792 -0.000139913)
(0.00293344 0.0601817 -0.00038374)
(0.00264123 0.0694043 -0.00053252)
(0.00229262 0.0794837 -0.000564762)
(0.00188688 0.0898882 -0.000486849)
(0.00143414 0.0989356 -0.00034694)
(0.00100053 0.103926 -0.000219046)
(0.00059545 0.102062 -0.000130412)
(0.000229726 0.0857983 -7.12984e-05)
(1.50022e-05 0.0420587 -2.91316e-05)
(1.4798e-05 -0.0264311 0.000395785)
(0.000199221 -0.0644614 0.000925587)
(0.000478043 -0.0889182 0.0012286)
(0.000803483 -0.102636 0.00137715)
(0.00112265 -0.109067 0.00143548)
(0.00142428 -0.111472 0.00145012)
(0.0017161 -0.111545 0.00144434)
(0.00199658 -0.1099 0.00143032)
(0.00225905 -0.106738 0.00141664)
(0.00249904 -0.102126 0.00141077)
(0.00271347 -0.0961082 0.00141912)
(0.00290052 -0.0887714 0.00144612)
(0.00306017 -0.0802622 0.00149321)
(0.00319417 -0.070774 0.00155833)
(0.00330545 -0.0605179 0.00163565)
(0.00339726 -0.0497008 0.00171545)
(0.00347227 -0.0385146 0.00178431)
(0.00353184 -0.0271381 0.00182567)
(0.00357546 -0.0157436 0.0018214)
(0.00360045 -0.00450829 0.00175446)
(0.00360221 0.00637322 0.00161289)
(0.00357537 0.0167161 0.00139462)
(0.00351476 0.0264185 0.0011101)
(0.00341614 0.0355179 0.000780784)
(0.00327585 0.0442089 0.000435252)
(0.00308995 0.0528269 0.000105866)
(0.00285394 0.0617915 -0.000173085)
(0.00256379 0.0714826 -0.000368025)
(0.00221782 0.0819938 -0.000454377)
(0.00181752 0.0927184 -0.000432086)
(0.00137585 0.101888 -0.000339071)
(0.00095779 0.106791 -0.000239031)
(0.000569118 0.104629 -0.000157376)
(0.000218956 0.087678 -8.61394e-05)
(1.46688e-05 0.0428227 -2.68344e-05)
(1.45355e-05 -0.0272948 0.000398867)
(0.000195353 -0.0664435 0.000914298)
(0.00046707 -0.0914868 0.00119499)
(0.000782341 -0.105422 0.00132344)
(0.00108976 -0.11189 0.00136802)
(0.00137942 -0.114268 0.00137422)
(0.00165924 -0.114281 0.0013635)
(0.00192765 -0.112543 0.00134725)
(0.00217822 -0.109259 0.00133386)
(0.00240672 -0.104498 0.00133089)
(0.00261023 -0.0983145 0.00134495)
(0.00278713 -0.0908063 0.00138078)
(0.00293759 -0.0821332 0.00144024)
(0.00306361 -0.0724983 0.00152174)
(0.0031684 -0.062117 0.00162001)
(0.00325552 -0.0511941 0.00172587)
(0.00332809 -0.0399126 0.00182622)
(0.00338787 -0.0284367 0.00190438)
(0.00343465 -0.0169203 0.00194113)
(0.00346577 -0.00552227 0.0019171)
(0.00347616 0.00557726 0.00181656)
(0.00345948 0.0161979 0.00163289)
(0.0034093 0.0262323 0.00137245)
(0.00332015 0.0357097 0.00105404)
(0.00318747 0.0448175 0.000705323)
(0.00300698 0.0538855 0.000358961)
(0.00277444 0.0633244 5.01935e-05)
(0.00248676 0.0734918 -0.000185863)
(0.0021438 0.084434 -0.000321626)
(0.0017491 0.095468 -0.000351072)
(0.00131826 0.104744 -0.000302682)
(0.000914952 0.109549 -0.000230749)
(0.000541915 0.107089 -0.000159541)
(0.000207188 0.0894684 -8.37362e-05)
(1.38712e-05 0.0435462 -1.85955e-05)
(1.3964e-05 -0.0281687 0.000401817)
(0.00019121 -0.0684461 0.000904751)
(0.000456494 -0.0940758 0.00116575)
(0.000762991 -0.10822 0.00127619)
(0.00106038 -0.114717 0.00130818)
(0.00133984 -0.117065 0.00130648)
(0.00160948 -0.117016 0.00129105)
(0.00186765 -0.115189 0.00127254)
(0.00210817 -0.111787 0.00125915)
(0.00232695 -0.106885 0.00125838)
(0.00252119 -0.100546 0.00127694)
(0.0026894 -0.0928799 0.00131976)
(0.00283198 -0.0840576 0.00138899)
(0.00295111 -0.0742917 0.00148353)
(0.00305026 -0.063802 0.00159876)
(0.0031333 -0.0527912 0.00172628)
(0.0032037 -0.0414339 0.00185378)
(0.00326361 -0.0298796 0.001965)
(0.00331313 -0.018263 0.00204036)
(0.00334968 -0.00672238 0.00205873)
(0.00336782 0.00458063 0.002001)
(0.00336038 0.0154732 0.00185577)
(0.0033197 0.0258437 0.00162458)
(0.00323909 0.0357119 0.00132277)
(0.00311311 0.0452554 0.000976384)
(0.00293711 0.0547949 0.000618092)
(0.00270713 0.0647283 0.000284116)
(0.00242101 0.0753869 1.13081e-05)
(0.00208008 0.0867668 -0.00016967)
(0.0016898 0.098108 -0.000247143)
(0.00126826 0.107484 -0.000240947)
(0.000877787 0.112191 -0.000197032)
(0.000518488 0.10944 -0.00013932)
(0.000197336 0.0911742 -6.5976e-05)
(1.35436e-05 0.0442324 -5.2318e-06)
(1.40485e-05 -0.0290104 0.000398238)
(0.000188844 -0.0703514 0.000878702)
(0.000448858 -0.0965164 0.00111351)
(0.000747584 -0.110838 0.00120266)
(0.00103592 -0.117348 0.00122081)
(0.00130627 -0.119658 0.00121066)
(0.00156683 -0.119545 0.00119001)
(0.00181572 -0.117629 0.00116864)
(0.00204689 -0.114112 0.00115451)
(0.00225645 -0.109071 0.0011552)
(0.00244173 -0.10258 0.00117754)
(0.00260137 -0.0947612 0.0012267)
(0.0027359 -0.0857982 0.00130517)
(0.00284765 -0.0759139 0.00141228)
(0.00294028 -0.0653332 0.00154398)
(0.00301796 -0.0542575 0.00169262)
(0.00308452 -0.0428537 0.00184664)
(0.00314259 -0.0312559 0.00199037)
(0.00319272 -0.0195783 0.00210423)
(0.00323263 -0.00793506 0.00216588)
(0.00325677 0.00353478 0.00215333)
(0.00325728 0.0146709 0.00205057)
(0.00322537 0.0253602 0.00185403)
(0.00315309 0.0356135 0.00157492)
(0.00303399 0.0455964 0.00123705)
(0.00286293 0.0556165 0.000872668)
(0.00263614 0.0660541 0.000518919)
(0.00235235 0.0772095 0.000214482)
(0.00201427 0.0890247 -6.87564e-06)
(0.00162911 0.100662 -0.000128121)
(0.00121718 0.110124 -0.000161178)
(0.000839325 0.114725 -0.000144609)
(0.00049356 0.111685 -0.000102584)
(0.00018629 0.0927924 -3.73862e-05)
(1.27732e-05 0.0448787 1.117e-05)
(1.37136e-05 -0.0298586 0.000393802)
(0.000185585 -0.0722656 0.000852573)
(0.000440359 -0.0989607 0.00106315)
(0.000732078 -0.113451 0.00113281)
(0.0010127 -0.119968 0.00113821)
(0.00127563 -0.122238 0.00112017)
(0.001529 -0.12206 0.00109446)
(0.0017704 -0.120054 0.00107004)
(0.0019938 -0.116423 0.00105467)
(0.00219553 -0.111249 0.00105592)
(0.00237315 -0.104613 0.00108067)
(0.00252545 -0.0966497 0.0011342)
(0.00265303 -0.0875555 0.00121925)
(0.00275836 -0.0775624 0.00133562)
(0.00284522 -0.0669007 0.00147992)
(0.00291796 -0.0557715 0.00164537)
(0.00298073 -0.0443345 0.00182146)
(0.00303655 -0.0327099 0.00199348)
(0.00308642 -0.020991 0.00214237)
(0.00312843 -0.00926699 0.00224522)
(0.00315712 0.00234948 0.0022777)
(0.00316417 0.0137149 0.00221947)
(0.00313981 0.0247175 0.00206147)
(0.00307487 0.0353597 0.00181011)
(0.00296185 0.0457933 0.00148617)
(0.00279509 0.0563093 0.00112099)
(0.00257099 0.0672659 0.000752419)
(0.00228909 0.0789283 0.000421022)
(0.00195345 0.0911816 0.00016371)
(0.00157297 0.103111 2.64153e-06)