/*--------------------------------*- C++ -*----------------------------------*\
| =========                 |                                                 |
| \\      /  F ield         | OpenFOAM: The Open Source CFD Toolbox           |
|  \\    /   O peration     | Version:  v2012                                 |
|   \\  /    A nd           | Website:  www.openfoam.com                      |
|    \\/     M anipulation  |                                                 |
\*---------------------------------------------------------------------------*/
FoamFile
{
    version     2.0;
    format      ascii;
    class       surfaceScalarField;
    location    "64";
    object      phi;
}
// * * * * * * * * * * * * * * * * * * * * * * * * * * * * * * * * * * * * * //

dimensions      [1 0 -1 0 0 0 0];
oriented        oriented;


internalField   nonuniform List<scalar> 
228225
(
-2.13783e-09
1.49297e-09
4.08683e-10
-6.67052e-09
7.32515e-09
-2.79245e-09
-1.42306e-08
1.11267e-08
-3.56675e-09
-2.48165e-08
1.44164e-08
-3.83025e-09
-3.80178e-08
1.72467e-08
-4.04626e-09
-5.32536e-08
1.95733e-08
-4.33473e-09
-6.9957e-08
2.14097e-08
-4.70788e-09
-8.75354e-08
2.27494e-08
-5.17034e-09
-1.05472e-07
2.36369e-08
-5.6998e-09
-1.23267e-07
2.40848e-08
-6.2923e-09
-1.40488e-07
2.41504e-08
-6.92746e-09
-1.56731e-07
2.38483e-08
-7.60392e-09
-1.7167e-07
2.32393e-08
-8.30475e-09
-1.8498e-07
2.23452e-08
-9.02999e-09
-1.9644e-07
2.122e-08
-9.76432e-09
-2.05817e-07
1.98854e-08
-1.05073e-08
-2.12966e-07
1.83881e-08
-1.12379e-08
-2.17743e-07
1.67378e-08
-1.19616e-08
-2.20061e-07
1.49813e-08
-1.2664e-08
-2.19863e-07
1.31357e-08
-1.33312e-08
-2.17144e-07
1.12383e-08
-1.39548e-08
-2.11923e-07
9.3038e-09
-1.45299e-08
-2.04243e-07
7.36313e-09
-1.50402e-08
-1.94196e-07
5.42937e-09
-1.54796e-08
-1.81886e-07
3.53004e-09
-1.58355e-08
-1.67465e-07
1.68016e-09
-1.6103e-08
-1.51112e-07
-8.07281e-11
-1.62723e-08
-1.33003e-07
-1.76752e-09
-1.63408e-08
-1.13393e-07
-3.309e-09
-1.63004e-08
-9.25657e-08
-4.68139e-09
-1.61452e-08
-7.08902e-08
-5.82975e-09
-1.58484e-08
-4.88772e-08
-6.67988e-09
-1.53323e-08
-2.74545e-08
-7.08412e-09
-1.43356e-08
-8.63645e-09
-6.80417e-09
-1.20155e-08
-4.45529e-09
-4.18051e-09
-5.96509e-09
2.17156e-08
-1.42574e-08
-2.19612e-08
3.91506e-08
-1.58295e-08
-4.14903e-08
4.72841e-08
-1.66271e-08
-6.28234e-08
5.32542e-08
-1.75054e-08
-8.4694e-08
5.74082e-08
-1.82913e-08
-1.06232e-07
6.00818e-08
-1.89712e-08
-1.26765e-07
6.15339e-08
-1.95914e-08
-1.45834e-07
6.19855e-08
-2.01667e-08
-1.63092e-07
6.16063e-08
-2.07118e-08
-1.78324e-07
6.05411e-08
-2.12245e-08
-1.91368e-07
5.8908e-08
-2.17129e-08
-2.02152e-07
5.68039e-08
-2.21725e-08
-2.10619e-07
5.43163e-08
-2.26085e-08
-2.16784e-07
5.15229e-08
-2.30143e-08
-2.2066e-07
4.84899e-08
-2.33941e-08
-2.22312e-07
4.52797e-08
-2.37411e-08
-2.21814e-07
4.19467e-08
-2.40583e-08
-2.19264e-07
3.85294e-08
-2.43413e-08
-2.1476e-07
3.50699e-08
-2.45922e-08
-2.08434e-07
3.16147e-08
-2.48052e-08
-2.00413e-07
2.81982e-08
-2.49812e-08
-1.90847e-07
2.48517e-08
-2.51144e-08
-1.79879e-07
2.16013e-08
-2.5206e-08
-1.67669e-07
1.84709e-08
-2.52521e-08
-1.54368e-07
1.54805e-08
-2.52501e-08
-1.40145e-07
1.26484e-08
-2.51922e-08
-1.25143e-07
9.99043e-09
-2.50739e-08
-1.09549e-07
7.52144e-09
-2.48824e-08
-9.3512e-08
5.25568e-09
-2.46035e-08
-7.71876e-08
3.20884e-09
-2.4211e-08
-6.07424e-08
1.40018e-09
-2.36767e-08
-4.4331e-08
-1.39541e-10
-2.29523e-08
-2.81858e-08
-1.3399e-09
-2.18879e-08
-1.29081e-08
-2.02506e-09
-2.00583e-08
-1.43229e-09
-1.59308e-08
-3.7608e-09
3.47785e-08
-9.30318e-09
-1.16414e-08
5.81557e-08
-1.11242e-08
-2.08277e-08
6.83986e-08
-1.19283e-08
-3.05522e-08
7.55582e-08
-1.25785e-08
-4.03056e-08
8.02944e-08
-1.31336e-08
-4.97232e-08
8.31483e-08
-1.36483e-08
-5.85587e-08
8.45066e-08
-1.4138e-08
-6.66284e-08
8.46812e-08
-1.46259e-08
-7.38185e-08
8.39052e-08
-1.51098e-08
-8.00455e-08
8.23683e-08
-1.56001e-08
-8.52668e-08
8.02169e-08
-1.60872e-08
-8.94629e-08
7.75754e-08
-1.65761e-08
-9.26351e-08
7.4544e-08
-1.70553e-08
-9.47943e-08
7.12103e-08
-1.75272e-08
-9.5973e-08
6.76473e-08
-1.79805e-08
-9.61955e-08
6.39204e-08
-1.84166e-08
-9.55077e-08
6.00845e-08
-1.88254e-08
-9.39719e-08
5.6201e-08
-1.92097e-08
-9.16544e-08
5.23137e-08
-1.95607e-08
-8.86277e-08
4.84665e-08
-1.98778e-08
-8.49678e-08
4.46912e-08
-2.01537e-08
-8.0742e-08
4.10163e-08
-2.039e-08
-7.60274e-08
3.74661e-08
-2.05803e-08
-7.08907e-08
3.40611e-08
-2.07258e-08
-6.54003e-08
3.08102e-08
-2.08205e-08
-5.96133e-08
2.77247e-08
-2.08638e-08
-5.35865e-08
2.48113e-08
-2.08485e-08
-4.73652e-08
2.20714e-08
-2.07692e-08
-4.10003e-08
1.95012e-08
-2.06125e-08
-3.45181e-08
1.709e-08
-2.0363e-08
-2.79452e-08
1.48196e-08
-1.99929e-08
-2.12923e-08
1.26644e-08
-1.94554e-08
-1.45707e-08
1.05804e-08
-1.86436e-08
-7.77686e-09
8.50025e-09
-1.73174e-08
4.99778e-09
-1.42075e-08
-3.42043e-09
3.93303e-08
-1.13102e-09
-6.51363e-09
6.39258e-08
-2.67867e-09
-9.32832e-09
7.48299e-08
-3.61404e-09
-1.20493e-08
8.25339e-08
-4.25563e-09
-1.47303e-08
8.77591e-08
-4.7825e-09
-1.73365e-08
9.10463e-08
-5.29239e-09
-1.98095e-08
9.28074e-08
-5.82931e-09
-2.20954e-08
9.33586e-08
-6.39117e-09
-2.41541e-08
9.29504e-08
-6.98574e-09
-2.59567e-08
9.17741e-08
-7.60321e-09
-2.74786e-08
8.99878e-08
-8.24983e-09
-2.8706e-08
8.77141e-08
-8.91135e-09
-2.96313e-08
8.50592e-08
-9.58925e-09
-3.0261e-08
8.21071e-08
-1.02685e-08
-3.05989e-08
7.89339e-08
-1.09487e-08
-3.0661e-08
7.55993e-08
-1.1616e-08
-3.04657e-08
7.21582e-08
-1.22701e-08
-3.00394e-08
6.86695e-08
-1.28943e-08
-2.94176e-08
6.51793e-08
-1.34881e-08
-2.86289e-08
6.17197e-08
-1.40414e-08
-2.77052e-08
5.83207e-08
-1.45539e-08
-2.66766e-08
5.50045e-08
-1.50168e-08
-2.55719e-08
5.17905e-08
-1.543e-08
-2.44149e-08
4.86909e-08
-1.57861e-08
-2.32234e-08
4.57057e-08
-1.60866e-08
-2.20085e-08
4.28346e-08
-1.63249e-08
-2.07659e-08
4.00683e-08
-1.65e-08
-1.94773e-08
3.73878e-08
-1.66048e-08
-1.81013e-08
3.47599e-08
-1.66353e-08
-1.6569e-08
3.21368e-08
-1.65791e-08
-1.47725e-08
2.94463e-08
-1.64219e-08
-1.25512e-08
2.65881e-08
-1.61474e-08
-9.6269e-09
2.34164e-08
-1.57589e-08
-5.71687e-09
1.97631e-08
-1.51729e-08
1.25543e-08
-1.3274e-08
-4.36747e-09
3.98307e-08
3.86717e-09
-5.64504e-09
6.25133e-08
2.68962e-09
-5.38058e-09
7.27626e-08
1.80398e-09
-4.27242e-09
8.02048e-08
1.22073e-09
-2.7223e-09
8.54448e-08
7.62897e-10
-9.33268e-10
8.89621e-08
2.9626e-10
9.58009e-10
9.11205e-08
-2.03824e-10
2.84926e-09
9.22061e-08
-7.4029e-10
4.68274e-09
9.24345e-08
-1.31723e-09
6.41317e-09
9.1982e-08
-1.93788e-09
8.00746e-09
9.09828e-08
-2.58876e-09
9.44101e-09
8.95512e-08
-3.27184e-09
1.06974e-08
8.77753e-08
-3.97187e-09
1.17558e-08
8.57348e-08
-4.68672e-09
1.26019e-08
8.34901e-08
-5.40119e-09
1.32163e-08
8.10978e-08
-6.11391e-09
1.35844e-08
7.86013e-08
-6.811e-09
1.37017e-08
7.60436e-08
-7.49047e-09
1.35617e-08
7.34574e-08
-8.1401e-09
1.31692e-08
7.08717e-08
-8.75852e-09
1.25185e-08
6.83072e-08
-9.33583e-09
1.16122e-08
6.57816e-08
-9.87129e-09
1.0455e-08
6.33039e-08
-1.0357e-08
9.06255e-09
6.08772e-08
-1.07928e-08
7.44479e-09
5.84955e-08
-1.11727e-08
5.63153e-09
5.61444e-08
-1.1497e-08
3.66392e-09
5.37969e-08
-1.1761e-08
1.60642e-09
5.1411e-08
-1.1965e-08
-4.53677e-10
4.89246e-08
-1.21046e-08
-2.39303e-09
4.62506e-08
-1.21764e-08
-4.04015e-09
4.32651e-08
-1.21704e-08
-5.15215e-09
3.97964e-08
-1.2097e-08
-5.32756e-09
3.56088e-08
-1.20164e-08
-4.02884e-09
3.0397e-08
-1.19318e-08
1.94421e-08
-1.09177e-08
-3.36131e-09
3.78464e-08
5.34474e-09
-3.64925e-09
5.83854e-08
4.41681e-09
-2.32544e-09
6.78032e-08
3.63414e-09
-6.20171e-11
7.47975e-08
3.14505e-09
2.70574e-09
7.9916e-08
2.76032e-09
5.73689e-09
8.3564e-08
2.369e-09
8.85506e-09
8.60647e-08
1.9361e-09
1.19392e-08
8.76531e-08
1.4686e-09
1.48891e-08
8.85202e-08
9.62315e-10
1.76397e-08
8.88088e-08
4.25067e-10
2.01314e-08
8.86383e-08
-1.47625e-10
2.2317e-08
8.80979e-08
-7.34167e-10
2.41716e-08
8.72665e-08
-1.34409e-09
2.5666e-08
8.62028e-08
-1.96421e-09
2.67897e-08
8.496e-08
-2.59255e-09
2.75251e-08
8.35777e-08
-3.21639e-09
2.78674e-08
8.20933e-08
-3.83378e-09
2.78102e-08
8.05339e-08
-4.43385e-09
2.73592e-08
7.89245e-08
-5.01484e-09
2.6515e-08
7.72819e-08
-5.56756e-09
2.52935e-08
7.56209e-08
-6.09068e-09
2.37018e-08
7.39483e-08
-6.57662e-09
2.17662e-08
7.22652e-08
-7.02493e-09
1.95093e-08
7.0564e-08
-7.42988e-09
1.6967e-08
6.88285e-08
-7.79167e-09
1.41884e-08
6.70306e-08
-8.10609e-09
1.12314e-08
6.51273e-08
-8.37414e-09
8.17794e-09
6.30573e-08
-8.59327e-09
5.13634e-09
6.07326e-08
-8.76479e-09
2.23553e-09
5.80338e-08
-8.8846e-09
-3.42164e-10
5.47936e-08
-8.95023e-09
-2.35955e-09
5.07894e-08
-8.97525e-09
-3.42235e-09
4.57106e-08
-9.03957e-09
-3.01537e-09
3.91638e-08
-9.17538e-09
2.50713e-08
-8.64287e-09
-1.85516e-09
3.5147e-08
4.55476e-09
-1.4972e-09
5.42656e-08
3.76176e-09
7.48533e-11
6.31244e-08
3.10708e-09
2.33962e-09
6.98273e-08
2.70456e-09
4.98098e-09
7.48724e-08
2.40188e-09
7.81545e-09
7.86346e-08
2.09611e-09
1.07121e-08
8.14005e-08
1.7682e-09
1.35635e-08
8.33877e-08
1.41277e-09
1.62887e-08
8.47602e-08
1.03549e-09
1.88164e-08
8.56476e-08
6.32673e-10
2.10999e-08
8.61463e-08
2.09527e-10
2.30932e-08
8.63365e-08
-2.31969e-10
2.47614e-08
8.62772e-08
-6.79743e-10
2.60866e-08
8.60186e-08
-1.13994e-09
2.70485e-08
8.55987e-08
-1.60101e-09
2.76382e-08
8.50516e-08
-2.06242e-09
2.78442e-08
8.44009e-08
-2.51555e-09
2.76713e-08
8.36679e-08
-2.9592e-09
2.71159e-08
8.28661e-08
-3.38599e-09
2.61848e-08
8.20063e-08
-3.79512e-09
2.48956e-08
8.10925e-08
-4.18036e-09
2.32601e-08
8.01241e-08
-4.54145e-09
2.13069e-08
7.90931e-08
-4.87336e-09
1.90633e-08
7.79836e-08
-5.17645e-09
1.657e-08
7.67696e-08
-5.4469e-09
1.38728e-08
7.54121e-08
-5.68574e-09
1.10356e-08
7.38553e-08
-5.89038e-09
8.1344e-09
7.20211e-08
-6.06276e-09
5.26686e-09
6.98026e-08
-6.20118e-09
2.55254e-09
6.70538e-08
-6.30611e-09
1.4432e-10
6.35756e-08
-6.37351e-09
-1.749e-09
5.91021e-08
-6.41952e-09
-2.79523e-09
5.32685e-08
-6.51212e-09
-2.54338e-09
4.55982e-08
-6.6855e-09
2.88931e-08
-6.36517e-09
-7.70037e-10
3.27569e-08
3.16178e-09
-3.9585e-10
5.13556e-08
2.53231e-09
6.78895e-10
6.00129e-08
2.03945e-09
2.13715e-09
6.66225e-08
1.74386e-09
3.81028e-09
7.16803e-08
1.52086e-09
5.59123e-09
7.55493e-08
1.30407e-09
7.41063e-09
7.85079e-08
1.07272e-09
9.20816e-09
8.07605e-08
8.29364e-10
1.09318e-08
8.24655e-08
5.70945e-10
1.25392e-08
8.37394e-08
3.00717e-10
1.39955e-08
8.4674e-08
1.61457e-11
1.52672e-08
8.53368e-08
-2.72272e-10
1.63311e-08
8.57827e-08
-5.68823e-10
1.71664e-08
8.60514e-08
-8.68671e-10
1.77596e-08
8.61768e-08
-1.17053e-09
1.80974e-08
8.6182e-08
-1.46851e-09
1.81736e-08
8.60864e-08
-1.76228e-09
1.79863e-08
8.59019e-08
-2.04632e-09
1.75354e-08
8.56376e-08
-2.32069e-09
1.68261e-08
8.52964e-08
-2.58059e-09
1.58677e-08
8.48769e-08
-2.82647e-09
1.46747e-08
8.43717e-08
-3.05433e-09
1.32669e-08
8.37665e-08
-3.26505e-09
1.16662e-08
8.30388e-08
-3.45545e-09
9.90943e-09
8.21551e-08
-3.62684e-09
8.02763e-09
8.10686e-08
-3.7768e-09
6.07658e-09
7.97139e-08
-3.90715e-09
4.1109e-09
7.80025e-08
-4.01633e-09
2.20846e-09
7.58128e-08
-4.10649e-09
4.5422e-10
7.29828e-08
-4.17515e-09
-1.0391e-09
6.92914e-08
-4.22245e-09
-2.12628e-09
6.44461e-08
-4.25705e-09
-2.5734e-09
5.80458e-08
-4.32997e-09
-2.08334e-09
4.95656e-08
-4.45697e-09
3.10351e-08
-4.22639e-09
-4.89928e-10
3.0976e-08
2.27018e-09
-4.82034e-10
4.9472e-08
1.875e-09
-1.29459e-10
5.8087e-08
1.5748e-09
4.10612e-10
6.4687e-08
1.39474e-09
1.06406e-09
6.97693e-08
1.25777e-09
1.79017e-09
7.37031e-08
1.12071e-09
2.55893e-09
7.67616e-08
9.77031e-10
3.34454e-09
7.91513e-08
8.24095e-10
4.12003e-09
8.10248e-08
6.65348e-10
4.86113e-09
8.24986e-08
4.98609e-10
5.54982e-09
8.36583e-08
3.27426e-10
6.16726e-09
8.45706e-08
1.49604e-10
6.69376e-09
8.52835e-08
-2.77474e-11
7.11773e-09
8.58351e-08
-2.05421e-10
7.42027e-09
8.62518e-08
-3.79976e-10
7.60227e-09
8.65548e-08
-5.53891e-10
7.65226e-09
8.67578e-08
-7.22191e-10
7.56789e-09
8.68716e-08
-8.85156e-10
7.34653e-09
8.68992e-08
-1.03896e-09
6.98569e-09
8.68401e-08
-1.18486e-09
6.4971e-09
8.66881e-08
-1.31969e-09
5.87983e-09
8.64319e-08
-1.44501e-09
5.15334e-09
8.60527e-08
-1.55818e-09
4.3274e-09
8.55239e-08
-1.66112e-09
3.42663e-09
8.48077e-08
-1.75168e-09
2.47569e-09
8.38523e-08
-1.8321e-09
1.50382e-09
8.25872e-08
-1.90075e-09
5.49574e-10
8.09179e-08
-1.96028e-09
-3.46272e-10
7.87163e-08
-2.0094e-09
-1.12486e-09
7.58124e-08
-2.05014e-09
-1.72939e-09
7.19754e-08
-2.08016e-09
-2.07428e-09
6.69003e-08
-2.10859e-09
-2.03538e-09
6.01711e-08
-2.16506e-09
-1.44802e-09
5.12368e-08
-2.25709e-09
3.17163e-08
-2.12988e-09
-7.47435e-10
2.96806e-08
2.04201e-09
-1.24548e-09
4.80472e-08
1.92519e-09
-1.56835e-09
5.65968e-08
1.81029e-09
-1.7756e-09
6.3149e-08
1.74543e-09
-1.89443e-09
6.82025e-08
1.68644e-09
-1.93934e-09
7.21255e-08
1.62075e-09
-1.91333e-09
7.51926e-08
1.54441e-09
-1.82976e-09
7.76079e-08
1.46158e-09
-1.70324e-09
7.95247e-08
1.37175e-09
-1.53957e-09
8.10568e-08
1.2785e-09
-1.35007e-09
8.22901e-08
1.18088e-09
-1.15114e-09
8.32878e-08
1.08252e-09
-9.49452e-10
8.40982e-08
9.82514e-10
-7.53544e-10
8.47559e-08
8.84336e-10
-5.74867e-10
8.52867e-08
7.87805e-10
-4.25902e-10
8.57078e-08
6.96297e-10
-3.0788e-10
8.60322e-08
6.08768e-10
-2.28988e-10
8.62657e-08
5.26972e-10
-1.92195e-10
8.64112e-08
4.49543e-10
-1.94557e-10
8.64649e-08
3.79278e-10
-2.41937e-10
8.64197e-08
3.14246e-10
-3.26523e-10
8.62611e-08
2.56728e-10
-4.47883e-10
8.59694e-08
2.04364e-10
-5.97884e-10
8.55152e-08
1.58968e-10
-7.67824e-10
8.48594e-08
1.17785e-10
-9.45485e-10
8.39483e-08
8.25649e-11
-1.12004e-09
8.27105e-08
5.06342e-11
-1.27427e-09
8.10499e-08
2.24636e-11
-1.39021e-09
7.88384e-08
-5.32061e-12
-1.45228e-09
7.59051e-08
-3.18629e-11
-1.43602e-09
7.20207e-08
-6.05613e-11
-1.32116e-09
6.68804e-08
-9.55879e-11
-1.06426e-09
6.00722e-08
-1.59085e-10
-6.20343e-10
5.10473e-08
-2.51866e-10
3.13713e-08
-2.76439e-10
-1.11692e-09
2.86358e-08
2.15897e-09
-2.00916e-09
4.66564e-08
2.2876e-09
-2.77386e-09
5.50372e-08
2.32163e-09
-3.42794e-09
6.14577e-08
2.34547e-09
-3.98088e-09
6.6406e-08
2.34933e-09
-4.43513e-09
7.02462e-08
2.33442e-09
-4.79648e-09
7.3247e-08
2.30705e-09
-5.06877e-09
7.56114e-08
2.26886e-09
-5.25853e-09
7.74888e-08
2.22481e-09
-5.36931e-09
7.89928e-08
2.175e-09
-5.40876e-09
8.02062e-08
2.12331e-09
-5.38243e-09
8.11929e-08
2.06923e-09
-5.29905e-09
8.19984e-08
2.01621e-09
-5.16559e-09
8.2658e-08
1.96337e-09
-4.98784e-09
8.31956e-08
1.9138e-09
-4.77461e-09
8.36294e-08
1.86621e-09
-4.53676e-09
8.39695e-08
1.82324e-09
-4.27657e-09
8.42215e-08
1.78397e-09
-4.00161e-09
8.43854e-08
1.75059e-09
-3.71519e-09
8.44584e-08
1.72101e-09
-3.42539e-09
8.44309e-08
1.69715e-09
-3.129e-09
8.42895e-08
1.67654e-09
-2.83278e-09
8.40124e-08
1.66071e-09
-2.53748e-09
8.35715e-08
1.64685e-09
-2.23788e-09
8.29262e-08
1.63612e-09
-1.94246e-09
8.20249e-08
1.62534e-09
-1.64239e-09
8.07962e-08
1.61525e-09
-1.34114e-09
7.91475e-08
1.60214e-09
-1.04371e-09
7.69532e-08
1.58607e-09
-7.50016e-10
7.40488e-08
1.56262e-09
-4.71894e-10
7.02117e-08
1.53082e-09
-2.21963e-10
6.51484e-08
1.48188e-09
-1.18152e-11
5.84619e-08
1.40104e-09
1.30986e-10
4.96235e-08
1.28041e-09
3.04017e-08
1.10089e-09
-1.29481e-09
2.77685e-08
2.16112e-09
-2.35984e-09
4.52831e-08
2.43974e-09
-3.30466e-09
5.34242e-08
2.55767e-09
-4.13599e-09
5.96565e-08
2.63273e-09
-4.85587e-09
6.44546e-08
2.66992e-09
-5.46264e-09
6.81698e-08
2.68426e-09
-5.96258e-09
7.10661e-08
2.68138e-09
-6.35813e-09
7.33393e-08
2.66781e-09
-6.65128e-09
7.51374e-08
2.64533e-09
-6.84866e-09
7.65695e-08
2.61848e-09
-6.94755e-09
7.77191e-08
2.58765e-09
-6.95845e-09
7.86467e-08
2.55645e-09
-6.88442e-09
7.93993e-08
2.52457e-09
-6.73031e-09
8.00097e-08
2.49511e-09
-6.506e-09
8.05033e-08
2.46727e-09
-6.2158e-09
8.0896e-08
2.44374e-09
-5.86917e-09
8.11999e-08
2.42327e-09
-5.47555e-09
8.14192e-08
2.4081e-09
-5.04057e-09
8.15557e-08
2.39651e-09
-4.5788e-09
8.16044e-08
2.39026e-09
-4.09177e-09
8.15574e-08
2.38715e-09
-3.58858e-09
8.13993e-08
2.38849e-09
-3.07901e-09
8.11103e-08
2.39161e-09
-2.56659e-09
8.06608e-08
2.39743e-09
-2.05501e-09
8.00134e-08
2.40285e-09
-1.55476e-09
7.91158e-08
2.40834e-09
-1.07012e-09
7.79012e-08
2.41037e-09
-6.09748e-10
7.62786e-08
2.40876e-09
-1.84863e-10
7.413e-08
2.39917e-09
1.88382e-10
7.1296e-08
2.38032e-09
4.84455e-10
6.75671e-08
2.34622e-09
6.80881e-10
6.26614e-08
2.2915e-09
7.39489e-10
5.62051e-08
2.19905e-09
6.07014e-10
4.76946e-08
2.06027e-09
2.92304e-08
1.77912e-09
-1.14811e-09
2.71254e-08
1.79042e-09
-2.13583e-09
4.41803e-08
2.09035e-09
-3.03983e-09
5.21026e-08
2.22611e-09
-3.85216e-09
5.81617e-08
2.30715e-09
-4.56459e-09
6.28174e-08
2.3494e-09
-5.17598e-09
6.64125e-08
2.36705e-09
-5.68029e-09
6.9203e-08
2.3694e-09
-6.08284e-09
7.13817e-08
2.3596e-09
-6.38028e-09
7.3092e-08
2.3427e-09
-6.57342e-09
7.44431e-08
2.32003e-09
-6.66447e-09
7.55152e-08
2.29541e-09
-6.65831e-09
7.63706e-08
2.26922e-09
-6.55808e-09
7.70539e-08
2.24463e-09
-6.369e-09
7.76002e-08
2.22143e-09
-6.10108e-09
7.8033e-08
2.20231e-09
-5.76184e-09
7.83708e-08
2.18659e-09
-5.36275e-09
7.86234e-08
2.17647e-09
-4.91295e-09
7.8798e-08
2.17074e-09
-4.42148e-09
7.88942e-08
2.17107e-09
-3.90223e-09
7.89094e-08
2.1757e-09
-3.36498e-09
7.88336e-08
2.1858e-09
-2.81892e-09
7.8654e-08
2.19907e-09
-2.27159e-09
7.83489e-08
2.21617e-09
-1.73797e-09
7.78914e-08
2.23434e-09
-1.22035e-09
7.72428e-08
2.25381e-09
-7.31614e-10
7.63544e-08
2.27139e-09
-2.76423e-10
7.51594e-08
2.28683e-09
1.33724e-10
7.35723e-08
2.29638e-09
4.87292e-10
7.14774e-08
2.29901e-09
7.69907e-10
6.87241e-08
2.28993e-09
9.60156e-10
6.51098e-08
2.26655e-09
1.03478e-09
6.03673e-08
2.22058e-09
9.58966e-10
5.41387e-08
2.1406e-09
6.96271e-10
4.59458e-08
2.01282e-09
2.81964e-08
1.72969e-09
-7.47295e-10
2.68444e-08
1.02787e-09
-1.48822e-09
4.36811e-08
1.23955e-09
-2.2171e-09
5.14966e-08
1.33654e-09
-2.91034e-09
5.74643e-08
1.38965e-09
-3.54369e-09
6.20389e-08
1.41079e-09
-4.10084e-09
6.55574e-08
1.41389e-09
-4.57584e-09
6.82749e-08
1.40373e-09
-4.95981e-09
7.0381e-08
1.38508e-09
-5.24968e-09
7.20203e-08
1.35959e-09
-5.43778e-09
7.33e-08
1.33098e-09
-5.52414e-09
7.43027e-08
1.30019e-09
-5.51437e-09
7.50892e-08
1.27033e-09
-5.40886e-09
7.5707e-08
1.24182e-09
-5.21599e-09
7.61898e-08
1.21735e-09
-4.94373e-09
7.65642e-08
1.19688e-09
-4.60284e-09
7.68471e-08
1.18261e-09
-4.20502e-09
7.70515e-08
1.17399e-09
-3.76205e-09
7.71825e-08
1.17267e-09
-3.28798e-09
7.72426e-08
1.17751e-09
-2.79631e-09
7.72272e-08
1.18954e-09
-2.2976e-09
7.71288e-08
1.20702e-09
-1.80563e-09
7.69321e-08
1.23043e-09
-1.33338e-09
7.66179e-08
1.25745e-09
-8.86049e-10
7.6157e-08
1.28809e-09
-4.7611e-10
7.55132e-08
1.31958e-09
-1.10357e-10
7.46361e-08
1.35153e-09
2.05939e-10
7.34618e-08
1.38083e-09
4.67432e-10
7.1904e-08
1.40665e-09
6.6839e-10
6.98515e-08
1.42545e-09
8.01804e-10
6.71548e-08
1.4358e-09
8.59378e-10
6.36186e-08
1.43322e-09
8.32737e-10
5.89802e-08
1.4142e-09
7.09885e-10
5.28939e-08
1.36856e-09
4.73104e-10
4.4893e-08
1.28836e-09
2.75728e-08
1.0969e-09
-2.50269e-10
2.70245e-08
6.95539e-11
-6.81841e-10
4.39854e-08
1.27651e-10
-1.19137e-09
5.18498e-08
1.56692e-10
-1.73094e-09
5.78427e-08
1.61192e-10
-2.26292e-09
6.24214e-08
1.48703e-10
-2.75876e-09
6.59284e-08
1.25303e-10
-3.19854e-09
6.86202e-08
9.48976e-11
-3.56769e-09
7.0691e-08
5.85018e-11
-3.85199e-09
7.2286e-08
1.87132e-11
-4.0449e-09
7.35166e-08
-2.29797e-11
-4.14367e-09
7.44658e-08
-6.42886e-11
-4.14886e-09
7.5198e-08
-1.04233e-10
-4.06158e-09
7.57607e-08
-1.40205e-10
-3.89267e-09
7.61912e-08
-1.71659e-10
-3.64599e-09
7.65155e-08
-1.96362e-10
-3.33937e-09
7.67535e-08
-2.14242e-10
-2.98066e-09
7.69172e-08
-2.23581e-10
-2.58808e-09
7.70144e-08
-2.24903e-10
-2.17432e-09
7.7046e-08
-2.17127e-10
-1.75357e-09
7.70096e-08
-2.01431e-10
-1.34486e-09
7.68955e-08
-1.77396e-10
-9.55573e-10
7.66904e-08
-1.46823e-10
-5.99769e-10
7.63724e-08
-1.09872e-10
-2.88412e-10
7.5914e-08
-6.88454e-11
-2.61359e-11
7.52759e-08
-2.43401e-11
1.79886e-10
7.4409e-08
2.09631e-11
3.29498e-10
7.32466e-08
6.65146e-11
4.20583e-10
7.17035e-08
1.09315e-10
4.57168e-10
6.96658e-08
1.48582e-10
4.44639e-10
6.69853e-08
1.81701e-10
3.92219e-10
6.34641e-08
2.07849e-10
3.07116e-10
5.88416e-08
2.2412e-10
2.01969e-10
5.27699e-08
2.27899e-10
9.61086e-11
4.47847e-08
2.15424e-10
2.74945e-08
1.7415e-10
1.89703e-10
2.76697e-08
-8.35088e-10
3.51425e-11
4.50732e-08
-9.31914e-10
-2.75633e-10
5.31334e-08
-9.73476e-10
-6.77309e-10
5.92606e-08
-1.01702e-09
-1.11783e-09
6.39265e-08
-1.06419e-09
-1.55898e-09
6.74836e-08
-1.1134e-09
-1.97275e-09
7.01979e-08
-1.1653e-09
-2.33109e-09
7.2269e-08
-1.21891e-09
-2.61966e-09
7.38491e-08
-1.27406e-09
-2.82639e-09
7.50524e-08
-1.32875e-09
-2.94699e-09
7.59672e-08
-1.38213e-09
-2.97672e-09
7.66597e-08
-1.43187e-09
-2.92019e-09
7.71816e-08
-1.47706e-09
-2.7828e-09
7.75705e-08
-1.51549e-09
-2.57694e-09
7.78561e-08
-1.54649e-09
-2.31333e-09
7.80581e-08
-1.56826e-09
-2.00625e-09
7.81913e-08
-1.58066e-09
-1.6737e-09
7.82626e-08
-1.58249e-09
-1.32672e-09
7.8275e-08
-1.57431e-09
-9.85927e-10
7.82244e-08
-1.55565e-09
-6.65097e-10
7.81026e-08
-1.52775e-09
-3.78157e-10
7.78941e-08
-1.49082e-09
-1.36882e-10
7.75777e-08
-1.44671e-09
4.98007e-11
7.71229e-08
-1.39615e-09
1.76753e-10
7.64906e-08
-1.34137e-09
2.41278e-10
7.5628e-08
-1.28338e-09
2.43972e-10
7.44677e-08
-1.22446e-09
1.94994e-10
7.29199e-08
-1.16547e-09
9.8218e-11
7.08687e-08
-1.10833e-09
-2.33495e-11
6.81604e-08
-1.05314e-09
-1.49966e-10
6.45934e-08
-1.00075e-09
-2.59049e-10
5.9899e-08
-9.49809e-10
-3.12634e-10
5.37219e-08
-8.99184e-10
-2.69479e-10
4.55864e-08
-8.44239e-10
2.79592e-08
-7.34367e-10
4.63771e-10
2.8678e-08
-1.47203e-09
4.90131e-10
4.67329e-08
-1.68613e-09
3.18538e-10
5.50859e-08
-1.78092e-09
1.86162e-11
6.14222e-08
-1.86175e-09
-3.50365e-10
6.62317e-08
-1.93512e-09
-7.46383e-10
6.98838e-08
-2.0051e-09
-1.13096e-09
7.26546e-08
-2.07343e-09
-1.4727e-09
7.47544e-08
-2.14142e-09
-1.75809e-09
7.6341e-08
-2.20853e-09
-1.96776e-09
7.75361e-08
-2.27432e-09
-2.09389e-09
7.84314e-08
-2.33702e-09
-2.13558e-09
7.90981e-08
-2.39558e-09
-2.09847e-09
7.959e-08
-2.44789e-09
-1.98436e-09
7.99487e-08
-2.49287e-09
-1.80322e-09
8.02046e-08
-2.52867e-09
-1.57095e-09
8.03804e-08
-2.55459e-09
-1.3015e-09
8.04907e-08
-2.5693e-09
-1.01034e-09
8.05445e-08
-2.57273e-09
-7.14881e-10
8.0544e-08
-2.56428e-09
-4.32933e-10
8.04863e-08
-2.5446e-09
-1.78551e-10
8.03616e-08
-2.51382e-09
3.51441e-11
8.01546e-08
-2.47329e-09
1.94765e-10
7.98419e-08
-2.42379e-09
2.91189e-10
7.93923e-08
-2.36719e-09
3.24794e-10
7.87634e-08
-2.30462e-09
2.89016e-10
7.79009e-08
-2.23815e-09
1.93439e-10
7.67326e-08
-2.16889e-09
4.34479e-11
7.51659e-08
-2.09856e-09
-1.36697e-10
7.30785e-08
-2.02757e-09
-3.32091e-10
7.03112e-08
-1.95642e-09
-5.05732e-10
6.66529e-08
-1.88377e-09
-6.2697e-10
6.1826e-08
-1.80736e-09
-6.4284e-10
5.54596e-08
-1.72122e-09
-5.02632e-10
4.70617e-08
-1.61667e-09
2.88505e-08
-1.39325e-09
5.39344e-10
2.98897e-08
-1.74915e-09
6.29293e-10
4.86551e-08
-2.01447e-09
5.191e-10
5.73303e-08
-2.13384e-09
2.72887e-10
6.38992e-08
-2.2317e-09
-5.03194e-11
6.88727e-08
-2.3177e-09
-4.05444e-10
7.2636e-08
-2.39736e-09
-7.5381e-10
7.54782e-08
-2.47413e-09
-1.06956e-09
7.76185e-08
-2.54909e-09
-1.32911e-09
7.92234e-08
-2.62271e-09
-1.51684e-09
8.04199e-08
-2.69401e-09
-1.62992e-09
8.13055e-08
-2.76205e-09
-1.66236e-09
8.19548e-08
-2.82504e-09
-1.61647e-09
8.24256e-08
-2.88166e-09
-1.4967e-09
8.27613e-08
-2.93004e-09
-1.31916e-09
8.29953e-08
-2.96905e-09
-1.09311e-09
8.31511e-08
-2.99721e-09
-8.34156e-10
8.32454e-08
-3.0139e-09
-5.57333e-10
8.32871e-08
-3.01829e-09
-2.83722e-10
8.32795e-08
-3.01049e-09
-2.53023e-11
8.32187e-08
-2.99041e-09
2.00418e-10
8.30955e-08
-2.95894e-09
3.7846e-10
8.28926e-08
-2.91669e-09
5.00978e-10
8.25862e-08
-2.86517e-09
5.54525e-10
8.21424e-08
-2.80557e-09
5.41938e-10
8.15172e-08
-2.73973e-09
4.60464e-10
8.06523e-08
-2.66901e-09
3.13189e-10
7.94728e-08
-2.59519e-09
1.18857e-10
7.78806e-08
-2.5192e-09
-1.08578e-10
7.57482e-08
-2.442e-09
-3.43899e-10
7.29087e-08
-2.36311e-09
-5.5e-10
6.91421e-08
-2.2814e-09
-6.90828e-10
6.41585e-08
-2.19313e-09
-7.11107e-10
5.7572e-08
-2.09144e-09
-5.55203e-10
4.88705e-08
-1.96523e-09
2.99888e-08
-1.69323e-09
4.50003e-10
3.11145e-08
-1.67603e-09
5.10481e-10
5.05228e-08
-1.92643e-09
3.89945e-10
5.94899e-08
-2.04073e-09
1.56011e-10
6.62711e-08
-2.13603e-09
-1.46592e-10
7.13943e-08
-2.22029e-09
-4.71989e-10
7.52602e-08
-2.29921e-09
-7.85097e-10
7.81683e-08
-2.37556e-09
-1.06421e-09
8.03472e-08
-2.45068e-09
-1.28592e-09
8.19698e-08
-2.5245e-09
-1.4381e-09
8.31693e-08
-2.59638e-09
-1.51628e-09
8.40473e-08
-2.66491e-09
-1.51335e-09
8.46827e-08
-2.72869e-09
-1.43759e-09
8.51355e-08
-2.78593e-09
-1.29291e-09
8.54525e-08
-2.83518e-09
-1.09288e-09
8.56683e-08
-2.87486e-09
-8.45772e-10
8.58086e-08
-2.90389e-09
-5.68657e-10
8.58905e-08
-2.92122e-09
-2.79699e-10
8.59241e-08
-2.92645e-09
5.97057e-12
8.59125e-08
-2.91923e-09
2.72553e-10
8.58525e-08
-2.89992e-09
5.03602e-10
8.57333e-08
-2.86893e-09
6.86477e-10
8.55377e-08
-2.82734e-09
8.09129e-10
8.52397e-08
-2.77621e-09
8.65081e-10
8.48043e-08
-2.71716e-09
8.49126e-10
8.41847e-08
-2.65164e-09
7.6265e-10
8.33202e-08
-2.58144e-09
6.10958e-10
8.21319e-08
-2.50794e-09
4.07732e-10
8.05177e-08
-2.43257e-09
1.67931e-10
7.83443e-08
-2.35594e-09
-8.4748e-11
7.54386e-08
-2.27811e-09
-3.1553e-10
7.15713e-08
-2.19772e-09
-4.88057e-10
6.64427e-08
-2.11178e-09
-5.54719e-10
5.96518e-08
-2.01373e-09
-4.58563e-10
5.067e-08
-1.89459e-09
3.11694e-08
-1.63917e-09
2.58494e-10
3.21992e-08
-1.34271e-09
2.16329e-10
5.20902e-08
-1.52677e-09
4.33316e-11
6.12775e-08
-1.61349e-09
-2.13112e-10
6.82181e-08
-1.69075e-09
-5.09865e-10
7.34533e-08
-1.76249e-09
-8.12926e-10
7.73943e-08
-1.83208e-09
-1.09074e-09
8.0349e-08
-1.90136e-09
-1.32747e-09
8.25529e-08
-1.97079e-09
-1.50162e-09
8.41845e-08
-2.04009e-09
-1.60516e-09
8.53812e-08
-2.10814e-09
-1.63274e-09
8.62486e-08
-2.17358e-09
-1.58426e-09
8.68683e-08
-2.23471e-09
-1.46108e-09
8.73033e-08
-2.2899e-09
-1.27281e-09
8.7602e-08
-2.33748e-09
-1.03234e-09
8.78012e-08
-2.37607e-09
-7.44279e-10
8.79275e-08
-2.40437e-09
-4.32931e-10
8.79992e-08
-2.42157e-09
-1.08179e-10
8.80268e-08
-2.42703e-09
2.11152e-10
8.80139e-08
-2.42063e-09
5.09011e-10
8.79566e-08
-2.40248e-09
7.70283e-10
8.78444e-08
-2.37323e-09
9.83791e-10
8.76587e-08
-2.33372e-09
1.13598e-09
8.73726e-08
-2.28521e-09
1.22143e-09
8.69493e-08
-2.2291e-09
1.23125e-09
8.63401e-08
-2.16708e-09
1.1701e-09
8.5482e-08
-2.10073e-09
1.04096e-09
8.42929e-08
-2.03178e-09
8.5265e-10
8.26673e-08
-1.96157e-09
6.21849e-10
8.04676e-08
-1.89119e-09
3.65877e-10
7.75149e-08
-1.82093e-09
1.12032e-10
7.3574e-08
-1.75032e-09
-1.03668e-10
6.83365e-08
-1.67734e-09
-2.42937e-10
6.13909e-08
-1.59802e-09
-2.64273e-10
5.2196e-08
-1.50772e-09
3.22267e-08
-1.31965e-09
2.63536e-11
3.30408e-08
-8.69792e-10
-1.38638e-10
5.32167e-08
-9.59115e-10
-3.89385e-10
6.25336e-08
-1.00553e-09
-6.82791e-10
6.95667e-08
-1.05617e-09
-9.84284e-10
7.48643e-08
-1.10901e-09
-1.26981e-09
7.88439e-08
-1.16436e-09
-1.51737e-09
8.18187e-08
-1.22239e-09
-1.70978e-09
8.40284e-08
-1.2827e-09
-1.83707e-09
8.56551e-08
-1.34432e-09
-1.88688e-09
8.68394e-08
-1.40587e-09
-1.86415e-09
8.76893e-08
-1.46569e-09
-1.76241e-09
8.82889e-08
-1.52206e-09
-1.58851e-09
8.87033e-08
-1.57322e-09
-1.35233e-09
8.89824e-08
-1.61758e-09
-1.05902e-09
8.91643e-08
-1.65367e-09
-7.28629e-10
8.92767e-08
-1.68032e-09
-3.71827e-10
8.93388e-08
-1.69662e-09
-4.41193e-12
8.93616e-08
-1.70203e-09
3.56779e-10
8.93487e-08
-1.69635e-09
6.97381e-10
8.92964e-08
-1.67977e-09
1.00147e-09
8.91935e-08
-1.65284e-09
1.25543e-09
8.90207e-08
-1.61645e-09
1.45052e-09
8.87502e-08
-1.57178e-09
1.57481e-09
8.83439e-08
-1.52027e-09
1.62812e-09
8.77515e-08
-1.46355e-09
1.60555e-09
8.6908e-08
-1.40334e-09
1.51197e-09
8.57292e-08
-1.34137e-09
1.35148e-09
8.41069e-08
-1.27926e-09
1.13533e-09
8.19005e-08
-1.21842e-09
8.83493e-10
7.89278e-08
-1.15976e-09
6.13345e-10
7.4949e-08
-1.10369e-09
3.45872e-10
6.9651e-08
-1.04991e-09
1.2076e-10
6.26161e-08
-9.97666e-10
-3.24071e-11
5.32961e-08
-9.48447e-10
3.3051e-08
-8.55809e-10
-1.86241e-10
3.36024e-08
-3.74699e-10
-4.7576e-10
5.38696e-08
-3.64188e-10
-8.01652e-10
6.32275e-08
-3.67771e-10
-1.13153e-09
7.02869e-08
-3.89838e-10
-1.44318e-09
7.55976e-08
-4.22176e-10
-1.71732e-09
7.95791e-08
-4.61815e-10
-1.93659e-09
8.25465e-08
-5.07231e-10
-2.09217e-09
8.47416e-08
-5.57082e-10
-2.17495e-09
8.63482e-08
-6.09796e-10
-2.18204e-09
8.75088e-08
-6.63631e-10
-2.10842e-09
8.83331e-08
-7.16727e-10
-1.95863e-09
8.89068e-08
-7.6727e-10
-1.73826e-09
8.92962e-08
-8.13486e-10
-1.45447e-09
8.95529e-08
-8.53778e-10
-1.11972e-09
8.97156e-08
-8.86699e-10
-7.45775e-10
8.98134e-08
-9.11115e-10
-3.44424e-10
8.98658e-08
-9.26128e-10
6.23303e-11
8.98842e-08
-9.31239e-10
4.6519e-10
8.98725e-08
-9.2623e-10
8.47568e-10
8.98268e-08
-9.11307e-10
1.19065e-09
8.97354e-08
-8.86969e-10
1.48847e-09
8.95788e-08
-8.54105e-10
1.72254e-09
8.93281e-08
-8.13847e-10
1.89217e-09
8.89441e-08
-7.6763e-10
1.98639e-09
8.83754e-08
-7.17043e-10
2.00008e-09
8.75556e-08
-6.63866e-10
1.94241e-09
8.63989e-08
-6.09884e-10
1.80922e-09
8.47956e-08
-5.56955e-10
1.61475e-09
8.26033e-08
-5.06805e-10
1.36382e-09
7.96379e-08
-4.60994e-10
1.07814e-09
7.56579e-08
-4.20837e-10
7.69092e-10
7.03481e-08
-3.87776e-10
4.5991e-10
6.3289e-08
-3.64418e-10
1.81049e-10
5.3931e-08
-3.58576e-10
3.36012e-08
-3.66385e-10
-3.44702e-10
3.38921e-08
5.63316e-11
-7.24123e-10
5.40961e-08
1.51344e-10
-1.10569e-09
6.34237e-08
1.85482e-10
-1.46203e-09
7.04554e-08
1.88921e-10
-1.77954e-09
7.57385e-08
1.75162e-10
-2.04205e-09
7.96912e-08
1.50077e-10
-2.24004e-09
8.26284e-08
1.16565e-10
-2.36751e-09
8.47914e-08
7.68866e-11
-2.41681e-09
8.63652e-08
3.33298e-11
-2.38773e-09
8.74923e-08
-1.28129e-11
-2.28059e-09
8.8284e-08
-5.96116e-11
-2.09516e-09
8.88264e-08
-1.04296e-10
-1.83983e-09
8.91874e-08
-1.45454e-10
-1.52589e-09
8.94188e-08
-1.81501e-10
-1.16001e-09
8.9561e-08
-2.11103e-10
-7.55616e-10
8.9643e-08
-2.33107e-10
-3.30797e-10
8.96854e-08
-2.46723e-10
1.07972e-10
8.96996e-08
-2.51393e-10
5.35822e-10
8.96897e-08
-2.46994e-10
9.45756e-10
8.96518e-08
-2.33641e-10
1.31816e-09
8.9574e-08
-2.11886e-10
1.64402e-09
8.9436e-08
-1.8251e-10
1.90893e-09
8.92084e-08
-1.46666e-10