/*--------------------------------*- C++ -*----------------------------------*\
| =========                 |                                                 |
| \\      /  F ield         | OpenFOAM: The Open Source CFD Toolbox           |
|  \\    /   O peration     | Version:  v2012                                 |
|   \\  /    A nd           | Website:  www.openfoam.com                      |
|    \\/     M anipulation  |                                                 |
\*---------------------------------------------------------------------------*/
FoamFile
{
    version     2.0;
    format      ascii;
    class       volVectorField;
    location    "26";
    object      U;
}
// * * * * * * * * * * * * * * * * * * * * * * * * * * * * * * * * * * * * * //

dimensions      [0 1 -1 0 0 0 0];


internalField   nonuniform List<vector> 
78750
(
(-5.51198e-06 -0.000100204 2.26742e-05)
(-2.37082e-05 -0.000100261 4.1861e-05)
(-6.36025e-05 -6.9257e-05 6.15434e-05)
(-0.000118656 -2.6328e-05 8.75932e-05)
(-0.000183719 1.90778e-05 0.000119918)
(-0.000255334 6.30414e-05 0.000157414)
(-0.000330553 0.000103864 0.0001973)
(-0.00040697 0.000140849 0.000236668)
(-0.000482774 0.000172847 0.000272323)
(-0.000556241 0.000199224 0.000301134)
(-0.00062568 0.000219178 0.000320282)
(-0.000689633 0.000232512 0.000327949)
(-0.000746933 0.000239149 0.000323048)
(-0.000796566 0.000239463 0.000305278)
(-0.000837619 0.000233872 0.000275079)
(-0.000869648 0.000223148 0.000233555)
(-0.000891608 0.000208272 0.00018348)
(-0.000904065 0.000189372 0.000124282)
(-0.000906333 0.000167534 5.93252e-05)
(-0.000898632 0.000143498 -9.20309e-06)
(-0.000881166 0.000117874 -7.91126e-05)
(-0.000854294 9.12777e-05 -0.000148242)
(-0.000818459 6.42383e-05 -0.000214519)
(-0.000774227 3.72577e-05 -0.000275969)
(-0.000722237 1.08142e-05 -0.000330718)
(-0.000663223 -1.46258e-05 -0.000377003)
(-0.000597982 -3.85415e-05 -0.000413114)
(-0.000527414 -6.03669e-05 -0.000437419)
(-0.000452542 -7.93661e-05 -0.00044832)
(-0.000374492 -9.46471e-05 -0.000444321)
(-0.000294251 -0.00010499 -0.000423941)
(-0.000212559 -0.000108795 -0.000385939)
(-0.000131991 -0.000103797 -0.000329248)
(-6.75349e-05 -8.72159e-05 -0.000253695)
(-2.18079e-05 -4.72643e-05 -0.000123832)
(-2.69443e-05 0.00042074 -0.000426717)
(-8.63002e-05 0.000821386 -0.000548182)
(-0.000162714 0.00102911 -0.000575789)
(-0.000264208 0.00117151 -0.000606473)
(-0.000366703 0.00125553 -0.000636307)
(-0.000462902 0.0012878 -0.000659828)
(-0.00054966 0.00128381 -0.000677612)
(-0.000625672 0.0012558 -0.000692357)
(-0.000690205 0.00121126 -0.000704848)
(-0.0007417 0.00114959 -0.000714738)
(-0.000781024 0.00107595 -0.000720378)
(-0.00080971 0.000994977 -0.000722019)
(-0.000827662 0.000910718 -0.000719655)
(-0.000836197 0.000823831 -0.000715379)
(-0.000835644 0.00073652 -0.0007101)
(-0.000826953 0.000649978 -0.000704402)
(-0.000810955 0.00056591 -0.000698579)
(-0.000788366 0.000484741 -0.000693162)
(-0.000760087 0.000407457 -0.000688137)
(-0.000726806 0.000334286 -0.00068362)
(-0.000689318 0.00026572 -0.000679471)
(-0.000648238 0.000201827 -0.000675601)
(-0.000604228 0.000142747 -0.000671777)
(-0.000557823 8.84623e-05 -0.00066772)
(-0.000509553 3.89116e-05 -0.000663068)
(-0.000459866 -5.93007e-06 -0.000657285)
(-0.00040919 -4.61868e-05 -0.000649728)
(-0.000357891 -8.18026e-05 -0.000639341)
(-0.000306357 -0.000112833 -0.000624735)
(-0.000254943 -0.000139014 -0.00060376)
(-0.000203737 -0.000160067 -0.000573684)
(-0.000152183 -0.0001749 -0.000528958)
(-0.000100657 -0.000181236 -0.000455944)
(-6.03465e-05 -0.000172674 -0.000336777)
(-3.03796e-05 -0.000104725 -9.90924e-05)
(-3.1718e-05 0.000834347 2.43623e-08)
(-7.93184e-05 0.00145209 1.02483e-05)
(-0.000130425 0.00170216 1.96942e-05)
(-0.000197102 0.00184386 2.02528e-05)
(-0.00026063 0.00189717 8.09021e-06)
(-0.000317817 0.00188545 -1.61813e-05)
(-0.000368472 0.00182932 -5.56418e-05)
(-0.000411466 0.00174692 -0.000109317)
(-0.000446075 0.00164935 -0.000176556)
(-0.000471671 0.00154516 -0.000252006)
(-0.000488706 0.00143789 -0.00033019)
(-0.000497775 0.00133008 -0.000402463)
(-0.00049987 0.00122098 -0.000461598)
(-0.000495063 0.00111134 -0.000502511)
(-0.000485933 0.00100386 -0.000527911)
(-0.000472667 0.000900146 -0.000541896)
(-0.000455985 0.000800585 -0.000548462)
(-0.000436493 0.000706158 -0.000549822)
(-0.000414857 0.000617562 -0.000547457)
(-0.000391552 0.00053525 -0.000542296)
(-0.000366938 0.000459148 -0.000535263)
(-0.000341399 0.000389311 -0.000526784)
(-0.000315214 0.000325558 -0.000517327)
(-0.000288656 0.000267713 -0.000507035)
(-0.000261935 0.000215548 -0.000496056)
(-0.000235237 0.000168752 -0.000484288)
(-0.000208705 0.000127128 -0.000471523)
(-0.000182449 9.03836e-05 -0.00045726)
(-0.000156577 5.84834e-05 -0.000440666)
(-0.000131161 3.13514e-05 -0.000420396)
(-0.000106177 9.31137e-06 -0.000394219)
(-8.12249e-05 -7.24369e-06 -0.000358013)
(-5.60634e-05 -1.74246e-05 -0.000304277)
(-3.49285e-05 -1.97416e-05 -0.000224902)
(-1.99909e-05 -4.57228e-06 -5.47347e-05)
(-2.94736e-05 0.000964702 0.000377904)
(-5.59263e-05 0.00159331 0.000502357)
(-7.25793e-05 0.00184646 0.000523872)
(-9.52697e-05 0.00199271 0.000535173)
(-0.000117052 0.00205073 0.000547454)
(-0.000138987 0.00204347 0.000552227)
(-0.000162548 0.00199661 0.000542178)
(-0.000187014 0.00192401 0.000509181)
(-0.000210062 0.00183564 0.000453105)
(-0.000229911 0.00173513 0.000375097)
(-0.000245155 0.00162691 0.000280537)
(-0.000254981 0.0015125 0.000175064)
(-0.000259431 0.00139536 6.76641e-05)
(-0.000258723 0.00127815 -3.11761e-05)
(-0.000253752 0.00116411 -0.000112918)
(-0.000245228 0.0010551 -0.00017504)
(-0.000234815 0.000952706 -0.000222089)
(-0.000222403 0.000857064 -0.000257933)
(-0.000208755 0.000768765 -0.000285042)
(-0.000194448 0.000687608 -0.000305427)
(-0.00017979 0.000613254 -0.000320458)
(-0.00016512 0.000545448 -0.000331212)
(-0.000150851 0.000484133 -0.000338421)
(-0.000137114 0.000428864 -0.000342712)
(-0.000123999 0.000379208 -0.000344317)
(-0.000111651 0.000334679 -0.000343621)
(-0.000100065 0.00029478 -0.000340706)
(-8.92416e-05 0.00025904 -0.000335759)
(-7.90716e-05 0.000226918 -0.000328654)
(-6.9421e-05 0.000197981 -0.000319225)
(-5.99361e-05 0.000171693 -0.000307045)
(-4.9887e-05 0.000147689 -0.000292766)
(-3.8059e-05 0.000125375 -0.000277972)
(-2.62819e-05 0.000104595 -0.000255953)
(-1.66773e-05 7.39696e-05 -0.000150744)
(-1.97583e-05 0.000772582 0.000461286)
(-2.70608e-05 0.00120507 0.000606501)
(-2.26743e-05 0.00139812 0.000627509)
(-1.38314e-05 0.0015331 0.000646247)
(-3.38516e-06 0.00161879 0.000664296)
(5.89476e-06 0.00166428 0.000673316)
(1.2347e-05 0.00167725 0.000671305)
(1.61439e-05 0.0016645 0.000657632)
(1.79834e-05 0.00163003 0.000631536)
(1.87648e-05 0.00157807 0.0005923)
(1.91377e-05 0.0015111 0.000540463)
(1.96292e-05 0.00143265 0.000477683)
(2.04629e-05 0.00134549 0.000407344)
(2.19345e-05 0.00125367 0.000333913)
(2.35491e-05 0.00116074 0.000261652)
(2.54535e-05 0.0010706 0.00019508)
(2.75041e-05 0.000985575 0.000137133)
(2.93123e-05 0.000907502 8.84406e-05)
(3.06981e-05 0.000836782 4.8596e-05)
(3.15667e-05 0.000773575 1.65318e-05)
(3.16663e-05 0.000717368 -9.01113e-06)
(3.08561e-05 0.00066771 -2.91148e-05)
(2.91608e-05 0.000623847 -4.45125e-05)
(2.65341e-05 0.000585195 -5.58808e-05)
(2.29302e-05 0.000550909 -6.40205e-05)
(1.84846e-05 0.000520253 -6.94728e-05)
(1.32409e-05 0.000492439 -7.28402e-05)
(7.40945e-06 0.000466574 -7.47202e-05)
(1.25847e-06 0.000441467 -7.60661e-05)
(-4.89137e-06 0.00041596 -7.74518e-05)
(-1.06194e-05 0.000388476 -7.96593e-05)
(-1.52585e-05 0.000357209 -8.59526e-05)
(-1.70302e-05 0.000319503 -0.000105823)
(-1.48103e-05 0.000273411 -0.000134675)
(-1.12082e-05 0.000179624 -0.000105362)
(-9.59122e-06 0.000589987 0.000417333)
(-8.15598e-06 0.000882769 0.000527663)
(-4.01007e-07 0.00102638 0.000538772)
(1.4059e-05 0.00113557 0.000547456)
(3.21418e-05 0.00121332 0.000555916)
(5.19545e-05 0.00126386 0.000558684)
(7.21445e-05 0.00129275 0.000554951)
(9.19043e-05 0.00130292 0.000545677)
(0.000110583 0.00129808 0.000531072)
(0.000127654 0.00128032 0.000511343)
(0.000142701 0.0012524 0.000486676)
(0.000155326 0.00121591 0.000457665)
(0.000165294 0.00117321 0.000424969)
(0.000172364 0.00112603 0.000389712)
(0.000176516 0.00107672 0.000353124)
(0.000177769 0.00102695 0.000316655)
(0.000176327 0.000978678 0.000281802)
(0.000172558 0.000932847 0.000249844)
(0.000166713 0.000890438 0.000221401)
(0.000158997 0.000851718 0.000196566)
(0.000149706 0.000816943 0.000175449)
(0.000139037 0.000785767 0.000157847)
(0.000127214 0.000757895 0.00014345)
(0.000114405 0.000732594 0.000131725)
(0.000100834 0.000709293 0.00012226)
(8.66968e-05 0.000687082 0.000114469)
(7.22289e-05 0.000665174 0.000107833)
(5.7684e-05 0.00064238 0.000101531)
(4.33769e-05 0.000617557 9.46894e-05)
(2.96571e-05 0.000589072 8.63339e-05)
(1.68875e-05 0.000555169 7.54531e-05)
(5.57456e-06 0.000513342 5.8197e-05)
(-2.76299e-06 0.000460624 2.49485e-05)
(-5.90182e-06 0.000393162 -2.15019e-05)
(-5.89112e-06 0.000248414 -3.43838e-05)
(-5.03318e-06 0.000426167 0.000323836)
(-2.69888e-06 0.000634715 0.000359919)
(2.30357e-06 0.000738678 0.000341006)
(1.25956e-05 0.000821669 0.000328778)
(2.58086e-05 0.000885686 0.000322816)
(4.06286e-05 0.000934452 0.000316866)
(5.62392e-05 0.000970902 0.000309615)
(7.20402e-05 0.000997106 0.000301253)
(8.73901e-05 0.00101434 0.000291647)
(0.000101828 0.00102402 0.000280403)
(0.000114928 0.0010269 0.000267248)
(0.000126378 0.00102421 0.000252152)
(0.000135892 0.00101676 0.00023529)
(0.0001433 0.00100588 0.000217195)
(0.000148451 0.000992454 0.000198513)
(0.000151371 0.000977723 0.000179998)
(0.000152045 0.000962214 0.000161994)
(0.000150581 0.000946862 0.000145081)
(0.000147208 0.000931866 0.000129833)
(0.000142013 0.00091771 0.000116488)
(0.000135195 0.00090419 0.000105008)
(0.00012697 0.000891381 9.5443e-05)
(0.000117505 0.000878778 8.75271e-05)
(0.000106989 0.000866192 8.11534e-05)
(9.55924e-05 0.000852878 7.59247e-05)
(8.34858e-05 0.000838401 7.16178e-05)
(7.08764e-05 0.000821734 6.77234e-05)
(5.79542e-05 0.000802069 6.38127e-05)
(4.50157e-05 0.000777873 5.91632e-05)
(3.23076e-05 0.000747625 5.31861e-05)
(2.02277e-05 0.000708783 4.48118e-05)
(9.19305e-06 0.00065847 3.0368e-05)
(6.49925e-07 0.000592356 2.27009e-06)
(-3.41317e-06 0.000504632 -3.57286e-05)
(-4.35431e-06 0.000310475 -4.47989e-05)
(-2.59659e-06 0.000358945 0.00021872)
(-1.61842e-06 0.000567207 0.000221947)
(-1.92267e-06 0.000664864 0.000195671)
(-5.08835e-07 0.000740673 0.000174018)
(2.25039e-06 0.000800061 0.000159963)
(5.93587e-06 0.000846472 0.000148438)
(1.041e-05 0.000882985 0.00013733)
(1.55621e-05 0.000911418 0.000126111)
(2.12488e-05 0.000933613 0.000114906)
(2.72491e-05 0.000950508 0.000103616)
(3.3366e-05 0.000963318 9.24092e-05)
(3.93426e-05 0.000972519 8.12067e-05)
(4.49824e-05 0.000979015 7.02069e-05)
(5.00491e-05 0.000983071 5.9387e-05)
(5.44181e-05 0.000985453 4.90475e-05)
(5.79282e-05 0.000986297 3.92208e-05)
(6.05147e-05 0.000986249 3.02532e-05)
(6.22144e-05 0.000985289 2.224e-05)
(6.28331e-05 0.00098399 1.51952e-05)
(6.24983e-05 0.000982066 9.31414e-06)
(6.12081e-05 0.000979801 4.80636e-06)
(5.89536e-05 0.000976758 1.47489e-06)
(5.57954e-05 0.000972996 -5.91957e-07)
(5.17563e-05 0.000967829 -1.72232e-06)
(4.69078e-05 0.000961048 -1.94905e-06)
(4.13208e-05 0.000951649 -1.72618e-06)
(3.51058e-05 0.000939036 -1.20904e-06)
(2.84045e-05 0.000921703 -9.88901e-07)
(2.14134e-05 0.000898373 -1.34137e-06)
(1.43819e-05 0.000866648 -2.93988e-06)
(7.59803e-06 0.000823977 -6.41316e-06)
(1.52551e-06 0.000766316 -1.42226e-05)
(-2.95284e-06 0.000688726 -3.05384e-05)
(-4.60994e-06 0.000584069 -5.28207e-05)
(-4.2549e-06 0.000350915 -5.12729e-05)
(-2.77613e-06 0.000312576 0.00013173)
(-3.45308e-06 0.00052953 0.000137799)
(-5.48434e-06 0.000630309 0.000126275)
(-7.40272e-06 0.000708111 0.000115241)
(-8.85665e-06 0.000768305 0.000106359)
(-9.81004e-06 0.000815404 9.7836e-05)
(-1.0246e-05 0.000852276 8.87085e-05)
(-1.00835e-05 0.000881563 7.91283e-05)
(-9.32913e-06 0.000904753 6.91324e-05)
(-7.98079e-06 0.000923499 5.90979e-05)
(-6.11232e-06 0.000938549 4.91054e-05)
(-3.77786e-06 0.000951027 3.95648e-05)
(-1.10438e-06 0.000961264 3.05551e-05)
(1.81072e-06 0.000970086 2.24737e-05)
(4.8229e-06 0.000977563 1.53547e-05)
(7.82473e-06 0.000984319 9.53109e-06)
(1.0687e-05 0.000990221 4.94313e-06)
(1.32736e-05 0.000995776 1.72842e-06)
(1.55267e-05 0.00100066 -2.34391e-07)
(1.73518e-05 0.00100516 -8.06155e-07)
(1.86616e-05 0.0010088 -2.60059e-07)
(1.94172e-05 0.00101168 1.44525e-06)
(1.95688e-05 0.00101312 3.94833e-06)
(1.91112e-05 0.00101303 7.20919e-06)
(1.80489e-05 0.00101042 1.079e-05)
(1.64094e-05 0.00100489 1.45822e-05)
(1.42519e-05 0.000995022 1.80739e-05)
(1.1664e-05 0.000979861 2.1078e-05)
(8.77429e-06 0.000957239 2.30101e-05)
(5.7273e-06 0.000925211 2.36319e-05)
(2.71735e-06 0.000880245 2.214e-05)
(-4.52118e-09 0.000818575 1.72287e-05)
(-1.96234e-06 0.000734157 6.0117e-06)
(-2.56743e-06 0.000619823 -9.8199e-06)
(-2.14101e-06 0.000364619 -1.5679e-05)
(-3.81096e-06 0.000294064 8.99705e-05)
(-6.32049e-06 0.000515071 0.000111085)
(-9.95795e-06 0.0006172 0.000115086)
(-1.42576e-05 0.00069522 0.000115097)
(-1.80807e-05 0.000755274 0.000112798)
(-2.13563e-05 0.000801632 0.000108396)
(-2.40664e-05 0.000837866 0.000102382)
(-2.61596e-05 0.000866212 9.50603e-05)
(-2.75868e-05 0.000888838 8.69918e-05)
(-2.83226e-05 0.000906886 7.84219e-05)
(-2.83789e-05 0.000921761 6.98557e-05)
(-2.77842e-05 0.000933999 6.1481e-05)
(-2.65953e-05 0.000944575 5.3746e-05)
(-2.48808e-05 0.000953666 4.67647e-05)
(-2.27307e-05 0.000961982 4.0904e-05)
(-2.02372e-05 0.000969456 3.61763e-05)
(-1.74939e-05 0.000976612 3.28433e-05)
(-1.463e-05 0.000983161 3.08555e-05)
(-1.17426e-05 0.000989467 3.03672e-05)
(-8.92512e-06 0.000995082 3.11636e-05)
(-6.28012e-06 0.00100021 3.32941e-05)
(-3.88447e-06 0.0010042 3.64401e-05)
(-1.8099e-06 0.00100707 4.05529e-05)
(-1.03312e-07 0.00100791 4.5224e-05)
(1.19935e-06 0.00100648 5.03237e-05)
(2.09358e-06 0.00100155 5.53556e-05)
(2.58434e-06 0.000992455 6.01073e-05)
(2.71238e-06 0.000977419 6.40098e-05)
(2.52782e-06 0.000955026 6.67825e-05)
(2.10704e-06 0.000922521 6.77974e-05)
(1.5236e-06 0.000877137 6.65902e-05)
(8.59273e-07 0.000814351 6.18526e-05)
(2.25673e-07 0.000728907 5.17402e-05)
(-7.6651e-08 0.000613043 3.6318e-05)
(1.08617e-08 0.000355912 1.66865e-05)
(-4.82958e-06 0.00028129 6.74036e-05)
(-8.53277e-06 0.000497584 0.0001023)
(-1.31562e-05 0.000596927 0.000116939)
(-1.87162e-05 0.000672505 0.000124623)
(-2.36749e-05 0.000730023 0.000126883)
(-2.79834e-05 0.000774161 0.000125475)
(-3.16301e-05 0.000807978 0.00012136)
(-3.45885e-05 0.000834237 0.00011538)
(-3.67679e-05 0.00085456 0.000108036)
(-3.81493e-05 0.000870679 9.99674e-05)
(-3.87006e-05 0.000883428 9.15544e-05)
(-3.84575e-05 0.000893969 8.33351e-05)
(-3.74381e-05 0.000902683 7.55876e-05)
(-3.57276e-05 0.000910391 6.87423e-05)
(-3.33866e-05 0.000917183 6.29633e-05)
(-3.05322e-05 0.000923651 5.85648e-05)
(-2.72613e-05 0.000929663 5.55866e-05)
(-2.37057e-05 0.000935625 5.42174e-05)
(-1.99761e-05 0.000941205 5.43635e-05)
(-1.62139e-05 0.000946637 5.60825e-05)
(-1.25198e-05 0.000951393 5.91484e-05)
(-9.01275e-06 0.000955529 6.34931e-05)
(-5.77638e-06 0.000958302 6.87686e-05)
(-2.89767e-06 0.00095955 7.47921e-05)
(-4.19045e-07 0.000958264 8.11075e-05)
(1.61309e-06 0.000953946 8.74459e-05)
(3.18871e-06 0.000945165 9.32665e-05)
(4.30657e-06 0.000930909 9.82179e-05)
(4.99047e-06 0.000909075 0.000101671)
(5.27582e-06 0.000877743 0.000103184)
(5.17526e-06 0.000833612 0.000101916)
(4.66574e-06 0.000773106 9.67992e-05)
(3.70083e-06 0.000690736 8.57441e-05)
(2.68189e-06 0.000579851 6.80265e-05)
(1.88488e-06 0.000334356 3.53801e-05)
(-4.79218e-06 0.000271789 4.8713e-05)
(-8.73549e-06 0.000478309 8.92661e-05)
(-1.36685e-05 0.0005729 0.000108777)
(-1.96188e-05 0.00064426 0.000119915)
(-2.49814e-05 0.000698298 0.000124271)
(-2.96281e-05 0.000739037 0.000124038)
(-3.35881e-05 0.000769896 0.000120646)
(-3.67683e-05 0.000793073 0.000114898)
(-3.91042e-05 0.000810653 0.000107543)
(-4.05112e-05 0.000823842 9.91218e-05)
(-4.0984e-05 0.000834003 9.02636e-05)
(-4.05096e-05 0.000841786 8.14111e-05)
(-3.91501e-05 0.000848142 7.3092e-05)
(-3.69475e-05 0.000853376 6.56379e-05)
(-3.40181e-05 0.000858172 5.94509e-05)
(-3.0455e-05 0.000862586 5.47283e-05)
(-2.64146e-05 0.000867084 5.17264e-05)
(-2.2028e-05 0.00087151 5.049e-05)
(-1.74644e-05 0.000876133 5.11158e-05)
(-1.28635e-05 0.000880587 5.34866e-05)
(-8.3945e-06 0.000884946 5.75373e-05)
(-4.1754e-06 0.000888631 6.29944e-05)
(-3.4498e-07 0.000891503 6.96435e-05)
(3.01594e-06 0.00089275 7.70735e-05)
(5.81958e-06 0.000891975 8.49425e-05)
(8.025e-06 0.000888063 9.27273e-05)
(9.60036e-06 0.000880248 9.99922e-05)
(1.05468e-05 0.000866948 0.000106136)
(1.08847e-05 0.000846789 0.000110645)
(1.06495e-05 0.000817377 0.000112831)
(9.86157e-06 0.000776244 0.000111949)
(8.47214e-06 0.000719517 0.000106682)
(6.44653e-06 0.000642715 9.49736e-05)
(4.43834e-06 0.000539214 7.55493e-05)
(2.82925e-06 0.000310792 3.67619e-05)
(-4.00511e-06 0.000265497 2.4134e-05)
(-7.78931e-06 0.000463089 6.04358e-05)
(-1.26783e-05 0.000553098 7.94273e-05)
(-1.87239e-05 0.00062062 9.0356e-05)
(-2.4301e-05 0.000671002 9.4276e-05)
(-2.9235e-05 0.000708436 9.35446e-05)
(-3.34477e-05 0.000735857 8.94864e-05)
(-3.68394e-05 0.000755805 8.29933e-05)
(-3.92662e-05 0.000769935 7.46752e-05)
(-4.06582e-05 0.000779889 6.51918e-05)
(-4.09504e-05 0.000786629 5.50723e-05)
(-4.01558e-05 0.0007913 4.49135e-05)
(-3.82943e-05 0.000794465 3.52055e-05)
(-3.54542e-05 0.000796956 2.65029e-05)
(-3.1737e-05 0.000799061 1.92144e-05)
(-2.73076e-05 0.000801364 1.37458e-05)
(-2.23207e-05 0.000803909 1.03159e-05)
(-1.69838e-05 0.000807049 9.11839e-06)
(-1.14839e-05 0.000810592 1.01645e-05)
(-6.03618e-06 0.000814654 1.34362e-05)
(-8.21289e-07 0.000818807 1.87372e-05)
(3.96826e-06 0.000822933 2.58329e-05)
(8.1897e-06 0.000826361 3.4311e-05)
(1.17072e-05 0.000828726 4.37394e-05)
(1.4439e-05 0.000829098 5.35624e-05)
(1.63253e-05 0.000826823 6.32763e-05)
(1.73547e-05 0.000820639 7.23098e-05)
(1.754e-05 0.000809465 8.01403e-05)
(1.69315e-05 0.000791502 8.61523e-05)
(1.5606e-05 0.000764928 8.97639e-05)
(1.36316e-05 0.000726976 9.01648e-05)
(1.10254e-05 0.000674452 8.61585e-05)
(7.84464e-06 0.000602814 7.56573e-05)
(5.01956e-06 0.000506289 5.76485e-05)
(2.84497e-06 0.000292802 2.22189e-05)
(-2.72833e-06 0.00026844 -4.09245e-06)
(-6.15889e-06 0.000463707 2.05369e-05)
(-1.08527e-05 0.000552242 3.52628e-05)
(-1.68957e-05 0.000617839 4.32557e-05)
(-2.27287e-05 0.000666062 4.49168e-05)
(-2.80118e-05 0.000700789 4.22368e-05)
(-3.26081e-05 0.000725299 3.64317e-05)
(-3.63252e-05 0.000741853 2.81643e-05)
(-3.90084e-05 0.000752519 1.80136e-05)
(-4.05179e-05 0.000758676 6.46583e-06)
(-4.07892e-05 0.000761741 -5.93647e-06)
(-3.97893e-05 0.000762598 -1.86157e-05)
(-3.75558e-05 0.000762287 -3.08136e-05)
(-3.41605e-05 0.000761381 -4.17836e-05)
(-2.97525e-05 0.000760647 -5.08657e-05)
(-2.45134e-05 0.000760395 -5.76362e-05)
(-1.86713e-05 0.000761121 -6.17623e-05)
(-1.24546e-05 0.000762851 -6.30925e-05)
(-6.11629e-06 0.000765779 -6.16182e-05)
(9.94262e-08 0.000769642 -5.74092e-05)
(5.95058e-06 0.000774362 -5.05793e-05)
(1.12101e-05 0.000779395 -4.14131e-05)
(1.56757e-05 0.000784371 -3.03368e-05)
(1.9197e-05 0.000788468 -1.80368e-05)
(2.16799e-05 0.000791044 -5.30054e-06)
(2.30795e-05 0.000791004 7.13024e-06)
(2.33997e-05 0.000787382 1.8652e-05)
(2.26854e-05 0.000778678 2.87426e-05)
(2.10378e-05 0.000763407 3.69287e-05)
(1.8576e-05 0.000739392 4.26788e-05)
(1.54463e-05 0.000704224 4.53762e-05)
(1.17522e-05 0.000654457 4.39635e-05)
(7.72311e-06 0.000585986 3.67045e-05)
(4.44507e-06 0.000492979 2.31529e-05)
(2.08424e-06 0.000286734 -1.24813e-06)
(-1.48703e-06 0.000282747 -3.03997e-05)
(-4.63659e-06 0.000484489 -1.99921e-05)
(-9.04503e-06 0.000575331 -1.12092e-05)
(-1.50283e-05 0.000641899 -7.34894e-06)
(-2.10365e-05 0.000689737 -8.83067e-06)
(-2.66357e-05 0.000723185 -1.4105e-05)
(-3.1574e-05 0.000745448 -2.22948e-05)
(-3.56255e-05 0.000759236 -3.29096e-05)
(-3.85723e-05 0.000766515 -4.55931e-05)
(-4.02447e-05 0.000769108 -5.99835e-05)
(-4.05294e-05 0.000768309 -7.55706e-05)
(-3.93947e-05 0.000765439 -9.15049e-05)
(-3.68681e-05 0.000761406 -0.000106697)
(-3.30593e-05 0.000757213 -0.000120133)
(-2.81293e-05 0.000753475 -0.000131099)
(-2.2297e-05 0.000750889 -0.000139165)
(-1.58191e-05 0.000749742 -0.000144126)
(-8.96412e-06 0.000750388 -0.000145871)
(-2.00929e-06 0.000752786 -0.000144301)
(4.76745e-06 0.000756951 -0.000139427)
(1.10859e-05 0.000762488 -0.000131349)
(1.66832e-05 0.00076906 -0.000120266)
(2.13274e-05 0.00077593 -0.000106592)
(2.48381e-05 0.000782436 -9.10479e-05)
(2.70941e-05 0.000787533 -7.46803e-05)
(2.80484e-05 0.000790257 -5.87035e-05)
(2.77197e-05 0.000789256 -4.40259e-05)
(2.62018e-05 0.000783184 -3.11523e-05)
(2.36391e-05 0.000770171 -2.03953e-05)
(2.02231e-05 0.000748162 -1.2075e-05)
(1.61517e-05 0.000714373 -6.6171e-06)
(1.16395e-05 0.000665478 -4.7757e-06)
(7.04133e-06 0.000597025 -7.85232e-06)
(3.58692e-06 0.000503296 -1.55243e-05)
(1.14453e-06 0.000294343 -2.59115e-05)
(-5.7888e-07 0.000308648 -4.81524e-05)
(-3.55591e-06 0.000524514 -5.00445e-05)
(-7.63725e-06 0.000621285 -4.69471e-05)
(-1.34329e-05 0.000691359 -4.71503e-05)
(-1.94317e-05 0.000740852 -5.16612e-05)
(-2.51108e-05 0.000774324 -5.94436e-05)
(-3.01867e-05 0.000795469 -6.99487e-05)
(-3.43756e-05 0.000807093 -8.29194e-05)
(-3.74304e-05 0.000811601 -9.82105e-05)
(-3.91364e-05 0.000810851 -0.000115532)
(-3.93756e-05 0.000806541 -0.000134208)
(-3.81012e-05 0.000799995 -0.00015303)
(-3.5361e-05 0.000792501 -0.000170617)
(-3.12762e-05 0.000785024 -0.000185819)
(-2.6041e-05 0.000778512 -0.000197934)
(-1.98917e-05 0.000773586 -0.000206643)
(-1.31077e-05 0.000770829 -0.00021187)
(-5.97106e-06 0.000770464 -0.000213602)
(1.23373e-06 0.000772658 -0.000211835)
(8.21785e-06 0.000777217 -0.000206549)
(1.46962e-05 0.000783901 -0.00019775)
(2.03872e-05 0.000792109 -0.000185507)
(2.50452e-05 0.000801199 -0.000170134)
(2.84612e-05 0.000810201 -0.000152325)
(3.05084e-05 0.000818117 -0.000133246)
(3.1121e-05 0.000823634 -0.000114305)
(3.03329e-05 0.00082538 -9.67369e-05)
(2.82459e-05 0.000821623 -8.12392e-05)
(2.50573e-05 0.000810457 -6.80849e-05)
(2.09986e-05 0.000789451 -5.7398e-05)
(1.63278e-05 0.000755746 -4.94039e-05)
(1.13073e-05 0.000705603 -4.45522e-05)
(6.40602e-06 0.000634385 -4.37057e-05)
(2.92778e-06 0.000535904 -4.59404e-05)
(3.95547e-07 0.000315515 -4.40951e-05)
(-1.66793e-07 0.000342279 -5.56873e-05)
(-3.13813e-06 0.000576263 -6.48796e-05)
(-6.91246e-06 0.000680805 -6.54727e-05)
(-1.24674e-05 0.000755953 -6.83388e-05)
(-1.82861e-05 0.000808258 -7.47729e-05)
(-2.38433e-05 0.000842843 -8.41323e-05)
(-2.88181e-05 0.000863657 -9.60919e-05)
(-3.29391e-05 0.000873943 -0.000110595)
(-3.59081e-05 0.000876264 -0.00012764)
(-3.75164e-05 0.000872844 -0.000146959)
(-3.76296e-05 0.000865487 -0.000167615)
(-3.62201e-05 0.000855848 -0.000188116)
(-3.33369e-05 0.000845283 -0.000206905)
(-2.91233e-05 0.00083505 -0.000222844)
(-2.37836e-05 0.000826118 -0.000235341)
(-1.75705e-05 0.000819338 -0.000244244)
(-1.07555e-05 0.000815242 -0.000249562)
(-3.61949e-06 0.000814222 -0.000251353)
(3.5593e-06 0.000816343 -0.000249608)
(1.05001e-05 0.000821525 -0.000244323)
(1.6916e-05 0.000829367 -0.000235424)
(2.2538e-05 0.000839321 -0.000222885)
(2.7105e-05 0.000850523 -0.000206848)
(3.04074e-05 0.000861984 -0.000187901)
(3.22894e-05 0.000872435 -0.00016719)
(3.26996e-05 0.000880496 -0.000146295)
(3.1655e-05 0.000884499 -0.00012674)
(2.92798e-05 0.000882611 -0.000109488)
(2.57731e-05 0.000872597 -9.48075e-05)
(2.14112e-05 0.00085186 -8.26836e-05)
(1.646e-05 0.000817141 -7.31432e-05)
(1.12264e-05 0.000764451 -6.645e-05)
(6.2004e-06 0.000688641 -6.3129e-05)
(2.77856e-06 0.000583111 -6.19491e-05)
(6.94569e-08 0.00034621 -5.27752e-05)
(-1.6273e-07 0.000379819 -5.444e-05)
(-3.22448e-06 0.000632858 -6.54051e-05)
(-6.85258e-06 0.000745722 -6.71952e-05)
(-1.22652e-05 0.000826379 -7.09507e-05)
(-1.79409e-05 0.000881984 -7.80081e-05)
(-2.33499e-05 0.000918063 -8.78783e-05)
(-2.81904e-05 0.000938999 -0.000100374)
(-3.21642e-05 0.000948293 -0.000115541)
(-3.49884e-05 0.000948854 -0.00013344)
(-3.6443e-05 0.000943084 -0.000153694)
(-3.64124e-05 0.000933086 -0.00017518)
(-3.48656e-05 0.000920654 -0.000196205)
(-3.18691e-05 0.000907397 -0.000215167)
(-2.75739e-05 0.000894665 -0.000230987)
(-2.2198e-05 0.000883631 -0.000243233)
(-1.59881e-05 0.000875185 -0.000251874)
(-9.21354e-06 0.000869998 -0.000257022)
(-2.14165e-06 0.000868439 -0.000258752)
(4.95706e-06 0.000870655 -0.000257086)
(1.18085e-05 0.000876494 -0.000251993)
(1.81444e-05 0.000885576 -0.000243389)
(2.36944e-05 0.000897227 -0.000231148)
(2.82043e-05 0.000910543 -0.000215293)
(3.14556e-05 0.000924346 -0.000196254)
(3.32927e-05 0.000937274 -0.000175112)
(3.36359e-05 0.000947709 -0.000153483)
(3.25171e-05 0.000953839 -0.000133081)
(3.00454e-05 0.000953556 -0.000115044)
(2.64321e-05 0.000944437 -9.97547e-05)
(2.19521e-05 0.000923565 -8.71428e-05)
(1.68953e-05 0.000887418 -7.71427e-05)
(1.1557e-05 0.0008316 -6.9901e-05)
(6.44879e-06 0.00075056 -6.58346e-05)
(3.02203e-06 0.000637127 -6.36485e-05)
(1.09071e-07 0.000382037 -5.2624e-05)
(-4.57885e-07 0.000417366 -4.70664e-05)
(-3.68529e-06 0.000688337 -5.52027e-05)
(-7.33258e-06 0.000809023 -5.59916e-05)
(-1.27528e-05 0.000894889 -5.91159e-05)
(-1.83733e-05 0.000953574 -6.57065e-05)
(-2.36909e-05 0.000991059 -7.52477e-05)
(-2.84132e-05 0.00101205 -8.75343e-05)
(-3.22533e-05 0.00102038 -0.000102655)
(-3.49253e-05 0.0010192 -0.000120649)
(-3.62264e-05 0.00101118 -0.000141042)
(-3.60398e-05 0.000998608 -0.000162543)
(-3.43488e-05 0.000983517 -0.000183369)
(-3.12304e-05 0.000967661 -0.000201902)
(-2.68419e-05 0.000952581 -0.000217181)
(-2.14004e-05 0.000939544 -0.000228888)
(-1.51603e-05 0.000929577 -0.000237111)
(-8.37703e-06 0.000923386 -0.000241997)
(-1.31527e-06 0.000921418 -0.000243645)
(5.76204e-06 0.000923801 -0.000242067)
(1.25921e-05 0.000930402 -0.000237245)
(1.89103e-05 0.000940773 -0.000229075)
(2.44549e-05 0.000954202 -0.000217402)
(2.8974e-05 0.000969658 -0.000202131)
(3.22524e-05 0.000985866 -0.000183578)
(3.41178e-05 0.00100128 -0.000162708)
(3.44956e-05 0.00101414 -0.000141143)
(3.34009e-05 0.00102241 -0.000120678)
(3.09449e-05 0.00102378 -0.000102613)
(2.73243e-05 0.00101558 -8.74269e-05)
(2.28225e-05 0.000994646 -7.50695e-05)
(1.77231e-05 0.000957139 -6.54405e-05)
(1.2309e-05 0.000898336 -5.87167e-05)
(7.07724e-06 0.000812248 -5.53654e-05)
(3.55973e-06 0.000691221 -5.42785e-05)
(4.20415e-07 0.000418642 -4.60046e-05)
(-9.45044e-07 0.000452122 -3.59234e-05)
(-4.37896e-06 0.00073854 -3.80599e-05)
(-8.1777e-06 0.00086592 -3.63335e-05)
(-1.37158e-05 0.000956141 -3.77665e-05)
(-1.93698e-05 0.00101728 -4.31659e-05)
(-2.46529e-05 0.00105568 -5.18122e-05)
(-2.93056e-05 0.00107637 -6.34119e-05)
(-3.30408e-05 0.00108343 -7.80089e-05)
(-3.55854e-05 0.00108027 -9.56085e-05)
(-3.67465e-05 0.00106979 -0.000115614)
(-3.64171e-05 0.00105449 -0.000136639)
(-3.45811e-05 0.00103659 -0.000156845)
(-3.13217e-05 0.00101803 -0.000174671)
(-2.68084e-05 0.0010005 -0.000189245)
(-2.12601e-05 0.00098541 -0.000200365)
(-1.49189e-05 0.00097388 -0.000208157)
(-8.0457e-06 0.000966696 -0.000212793)
(-8.98891e-07 0.000964342 -0.00021435)
(6.25842e-06 0.000966968 -0.000212861)
(1.31628e-05 0.000974423 -0.00020829)
(1.9553e-05 0.00098622 -0.000200557)
(2.51719e-05 0.00100157 -0.000189483)
(2.97722e-05 0.00101935 -0.000174941)
(3.31321e-05 0.00103815 -0.00015713)
(3.50863e-05 0.00105628 -0.000136922)
(3.55462e-05 0.00107178 -0.000115884)
(3.45243e-05 0.00108244 -9.58555e-05)
(3.2125e-05 0.00108574 -7.82302e-05)
(2.85399e-05 0.00107877 -6.36035e-05)
(2.40398e-05 0.00105815 -5.19646e-05)
(1.89069e-05 0.00101975 -4.3259e-05)
(1.33981e-05 0.000958549 -3.77586e-05)
(7.99249e-06 0.000868199 -3.61452e-05)
(4.28469e-06 0.000740615 -3.76242e-05)
(9.12505e-07 0.000452838 -3.53072e-05)
(-1.51367e-06 0.000482335 -2.34975e-05)
(-5.15894e-06 0.000780935 -1.82351e-05)
(-9.18191e-06 0.000913501 -1.33e-05)
(-1.49058e-05 0.00100693 -1.25714e-05)
(-2.06463e-05 0.00106965 -1.64559e-05)
(-2.59458e-05 0.00110828 -2.39744e-05)
(-3.05681e-05 0.00112809 -3.46777e-05)
(-3.4239e-05 0.00113342 -4.85407e-05)
(-3.66924e-05 0.00112787 -6.54907e-05)
(-3.77422e-05 0.00111456 -8.4851e-05)
(-3.72866e-05 0.0010962 -0.000105162)
(-3.53153e-05 0.00107519 -0.000124598)
(-3.19151e-05 0.00105366 -0.000141659)
(-2.72516e-05 0.00103346 -0.000155564)
(-2.15443e-05 0.00101613 -0.000166166)
(-1.50378e-05 0.00100291 -0.000173602)
(-7.9916e-06 0.000994657 -0.00017803)
(-6.71336e-07 0.000991911 -0.000179517)
(6.65728e-06 0.00099484 -0.000178091)
(1.37263e-05 0.00100327 -0.000173722)
(2.02673e-05 0.00101668 -0.000166341)
(2.60248e-05 0.00103419 -0.000155789)
(3.07488e-05 0.00105456 -0.000141924)
(3.4223e-05 0.00107626 -0.000124894)
(3.62804e-05 0.00109743 -0.000105479)
(3.68289e-05 0.00111594 -8.51791e-05)
(3.58807e-05 0.00112937 -6.58228e-05)
(3.35359e-05 0.00113502 -4.88707e-05)
(2.9979e-05 0.00112978 -3.49981e-05)
(2.54701e-05 0.00111001 -2.42731e-05)
(2.02852e-05 0.0010714 -1.67126e-05)
(1.46561e-05 0.00100866 -1.27482e-05)
(9.03267e-06 0.000915163 -1.33287e-05)
(5.08633e-06 0.000782483 -1.80531e-05)
(1.48699e-06 0.000482691 -2.31371e-05)
(-2.02946e-06 0.000507538 -1.21944e-05)
(-5.83554e-06 0.000815104 1.22637e-07)
(-1.00909e-05 0.000951359 8.15357e-06)
(-1.60101e-05 0.00104686 1.09639e-05)
(-2.18605e-05 0.00111028 8.5214e-06)
(-2.72137e-05 0.00114843 2.06631e-06)
(-3.18543e-05 0.00116679 -7.79182e-06)
(-3.55102e-05 0.00116987 -2.09454e-05)
(-3.7927e-05 0.00116148 -3.72358e-05)
(-3.89188e-05 0.0011449 -5.59235e-05)
(-3.83845e-05 0.00112305 -7.55157e-05)
(-3.63086e-05 0.00109852 -9.42308e-05)
(-3.27768e-05 0.00107363 -0.00011064)
(-2.79571e-05 0.0010504 -0.000124016)
(-2.20668e-05 0.00103054 -0.000134223)
(-1.53523e-05 0.00101539 -0.000141413)
(-8.07881e-06 0.00100593 -0.000145708)
(-5.20872e-07 0.00100276 -0.000147151)
(7.04382e-06 0.00100605 -0.000145758)