/*--------------------------------*- C++ -*----------------------------------*\
| =========                 |                                                 |
| \\      /  F ield         | OpenFOAM: The Open Source CFD Toolbox           |
|  \\    /   O peration     | Version:  v2012                                 |
|   \\  /    A nd           | Website:  www.openfoam.com                      |
|    \\/     M anipulation  |                                                 |
\*---------------------------------------------------------------------------*/
FoamFile
{
    version     2.0;
    format      ascii;
    class       volVectorField;
    location    "57";
    object      U;
}
// * * * * * * * * * * * * * * * * * * * * * * * * * * * * * * * * * * * * * //

dimensions      [0 1 -1 0 0 0 0];


internalField   nonuniform List<vector> 
78750
(
(-2.25233e-06 -8.02995e-05 0.000117996)
(-7.5287e-06 -0.000106826 0.000205178)
(-2.10359e-05 -0.000104914 0.0002504)
(-4.05074e-05 -9.14899e-05 0.000282271)
(-6.53297e-05 -7.19904e-05 0.00030385)
(-9.45304e-05 -4.95691e-05 0.000317547)
(-0.000127033 -2.6567e-05 0.000324961)
(-0.000161639 -4.43132e-06 0.000327295)
(-0.000197273 1.57127e-05 0.000325289)
(-0.000232915 3.33535e-05 0.000319542)
(-0.000267666 4.80367e-05 0.000310366)
(-0.00030071 5.97298e-05 0.000298081)
(-0.000331317 6.8335e-05 0.000282847)
(-0.000358868 7.4045e-05 0.000264921)
(-0.000382844 7.69127e-05 0.000244486)
(-0.00040286 7.72152e-05 0.000221868)
(-0.00041837 7.51085e-05 0.000197648)
(-0.000429351 7.08711e-05 0.000171721)
(-0.000435443 6.47134e-05 0.000144813)
(-0.000436576 5.69377e-05 0.000117504)
(-0.000432717 4.77225e-05 9.03524e-05)
(-0.000423899 3.73448e-05 6.40313e-05)
(-0.000410223 2.59831e-05 3.91742e-05)
(-0.00039185 1.39055e-05 1.64722e-05)
(-0.000369005 1.32267e-06 -3.44504e-06)
(-0.000341971 -1.14612e-05 -1.99511e-05)
(-0.000311079 -2.41438e-05 -3.25188e-05)
(-0.000276727 -3.63026e-05 -4.06956e-05)
(-0.00023939 -4.74469e-05 -4.41617e-05)
(-0.000199606 -5.68987e-05 -4.28131e-05)
(-0.000157848 -6.38047e-05 -3.6837e-05)
(-0.000114458 -6.6977e-05 -2.68889e-05)
(-7.08675e-05 -6.48048e-05 -1.41867e-05)
(-3.54913e-05 -5.52389e-05 -1.07553e-06)
(-1.02969e-05 -3.07198e-05 1.13648e-05)
(-7.25879e-06 0.000174318 -0.000259093)
(-3.22759e-05 0.000351967 -0.000368015)
(-6.16102e-05 0.000443124 -0.000404437)
(-0.000103415 0.000513613 -0.000436939)
(-0.000147293 0.000565307 -0.000463983)
(-0.000190549 0.000600082 -0.000484681)
(-0.000232071 0.000620872 -0.000500138)
(-0.000270972 0.000629132 -0.000512145)
(-0.000306488 0.00062733 -0.000521171)
(-0.000338102 0.000616423 -0.000528138)
(-0.000365328 0.000598524 -0.000533087)
(-0.000388144 0.000574111 -0.000536736)
(-0.00040633 0.000544998 -0.000539007)
(-0.0004199 0.000511665 -0.000540409)
(-0.000428922 0.000475556 -0.000540816)
(-0.000433431 0.000437032 -0.000540611)
(-0.000433721 0.000397018 -0.000539791)
(-0.000429914 0.000355803 -0.000538639)
(-0.00042222 0.000314364 -0.000536963)
(-0.000410907 0.00027291 -0.000534943)
(-0.000396236 0.000232204 -0.00053237)
(-0.000378509 0.000192362 -0.000529381)
(-0.000358009 0.000153955 -0.000525813)
(-0.00033505 0.000117054 -0.000521609)
(-0.000309931 8.20871e-05 -0.000516446)
(-0.000282968 4.91103e-05 -0.000510127)
(-0.000254458 1.8465e-05 -0.000502154)
(-0.000224725 -9.77289e-06 -0.000491944)
(-0.000194084 -3.52863e-05 -0.00047847)
(-0.000162868 -5.79132e-05 -0.000460348)
(-0.000131217 -7.72032e-05 -0.000435502)
(-9.88639e-05 -9.25135e-05 -0.00040007)
(-6.60379e-05 -0.000102153 -0.000344687)
(-3.98713e-05 -0.000101859 -0.000257714)
(-2.0776e-05 -6.52372e-05 -8.35627e-05)
(-4.79898e-06 0.000389018 -0.00015581)
(-1.96142e-05 0.000670313 -0.000246271)
(-3.32441e-05 0.000791781 -0.000283234)
(-5.3065e-05 0.000875487 -0.000308384)
(-7.32099e-05 0.00092906 -0.000326737)
(-9.251e-05 0.000959851 -0.000340572)
(-0.000110665 0.000971822 -0.000351868)
(-0.000127353 0.000969522 -0.000361167)
(-0.000142366 0.000955079 -0.000369457)
(-0.000155463 0.000931567 -0.00037666)
(-0.000166558 0.000900188 -0.00038331)
(-0.000175578 0.000863174 -0.000389128)
(-0.000182536 0.000821229 -0.000394462)
(-0.000187433 0.000776077 -0.000398987)
(-0.000190336 0.000728176 -0.00040296)
(-0.000191306 0.000678904 -0.000406069)
(-0.000190425 0.000628535 -0.000408672)
(-0.000187824 0.000578125 -0.000410492)
(-0.000183644 0.000527829 -0.000411724)
(-0.000178039 0.000478649 -0.000412034)
(-0.000171154 0.000430667 -0.000411597)
(-0.000163108 0.000384511 -0.00041024)
(-0.000154076 0.000340211 -0.00040809)
(-0.00014417 0.000298223 -0.000404971)
(-0.00013354 0.000258535 -0.00040092)
(-0.000122279 0.000221468 -0.000395685)
(-0.000110521 0.000186993 -0.000389117)
(-9.83422e-05 0.000155341 -0.000380714)
(-8.58676e-05 0.00012649 -0.000369889)
(-7.31721e-05 0.000100638 -0.000355532)
(-6.03112e-05 7.78007e-05 -0.000336004)
(-4.70464e-05 5.82013e-05 -0.000308164)
(-3.31563e-05 4.18692e-05 -0.000266483)
(-2.08749e-05 2.92571e-05 -0.000204656)
(-1.27757e-05 1.62842e-05 -6.91823e-05)
(-6.03519e-06 0.000488206 6.03223e-05)
(-1.45026e-05 0.000804977 2.16285e-05)
(-1.89316e-05 0.000943778 -1.17602e-05)
(-2.5599e-05 0.00103972 -3.72566e-05)
(-3.17402e-05 0.00110267 -5.50036e-05)
(-3.74067e-05 0.00113932 -6.98775e-05)
(-4.26336e-05 0.00115569 -8.3782e-05)
(-4.74588e-05 0.00115547 -9.78635e-05)
(-5.17565e-05 0.0011426 -0.000112062)
(-5.55054e-05 0.00111911 -0.00012692)
(-5.86476e-05 0.00108773 -0.000142086)
(-6.11348e-05 0.00104966 -0.000157573)
(-6.2954e-05 0.00100694 -0.0001729)
(-6.41567e-05 0.000960272 -0.000188281)
(-6.4719e-05 0.000911208 -0.000203251)
(-6.47471e-05 0.000860153 -0.000217949)
(-6.41667e-05 0.000808644 -0.000231685)
(-6.31224e-05 0.000756969 -0.00024457)
(-6.16555e-05 0.000706048 -0.000256304)
(-5.98457e-05 0.000656012 -0.000266977)
(-5.77355e-05 0.000607563 -0.000276322)
(-5.54102e-05 0.000560753 -0.000284415)
(-5.29243e-05 0.000516097 -0.000291019)
(-5.03234e-05 0.000473385 -0.000296295)
(-4.76456e-05 0.000432944 -0.00030003)
(-4.49453e-05 0.000394645 -0.000302248)
(-4.22087e-05 0.00035862 -0.000302712)
(-3.94385e-05 0.000324608 -0.000301341)
(-3.65755e-05 0.000292595 -0.000297683)
(-3.35675e-05 0.000262232 -0.000291248)
(-3.0223e-05 0.000233156 -0.00028121)
(-2.61371e-05 0.00020466 -0.000267019)
(-2.05561e-05 0.000175849 -0.000247855)
(-1.41553e-05 0.000145605 -0.000218186)
(-9.87292e-06 9.11685e-05 -0.00012047)
(-7.99157e-06 0.000495534 0.000174841)
(-1.37766e-05 0.000788246 0.000171168)
(-1.38492e-05 0.000918693 0.000143116)
(-1.32199e-05 0.00101148 0.000119879)
(-1.0872e-05 0.00107439 0.000103773)
(-7.61846e-06 0.00111429 9.00984e-05)
(-3.89027e-06 0.00113549 7.62487e-05)
(5.86974e-09 0.00114235 6.19501e-05)
(3.91425e-06 0.00113733 4.68158e-05)
(7.70523e-06 0.00112334 3.11958e-05)
(1.13165e-05 0.00110181 1.49019e-05)
(1.45975e-05 0.0010749 -1.95988e-06)
(1.75288e-05 0.00104341 -1.94415e-05)
(2.01003e-05 0.00100887 -3.69921e-05)
(2.22244e-05 0.000971766 -5.46412e-05)
(2.39198e-05 0.000933278 -7.18266e-05)
(2.51224e-05 0.000893724 -8.85347e-05)
(2.58384e-05 0.000854075 -0.000104394)
(2.60463e-05 0.00081449 -0.000119397)
(2.57526e-05 0.000775665 -0.00013325)
(2.49397e-05 0.000737628 -0.000145975)
(2.36267e-05 0.000700868 -0.000157346)
(2.17996e-05 0.000665298 -0.000167411)
(1.94903e-05 0.000631205 -0.000176001)
(1.67011e-05 0.000598376 -0.000183177)
(1.34862e-05 0.000566876 -0.000188813)
(9.89049e-06 0.000536316 -0.000192968)
(6.02942e-06 0.000506462 -0.000195544)
(2.02454e-06 0.000476633 -0.000196531)
(-1.93382e-06 0.000446152 -0.000195707)
(-5.58722e-06 0.000413651 -0.000193127)
(-8.46932e-06 0.000377713 -0.000189625)
(-9.6266e-06 0.000336048 -0.000187298)
(-8.17471e-06 0.000285951 -0.000181229)
(-7.04293e-06 0.000183235 -0.000118576)
(-6.11323e-06 0.000470812 0.000202203)
(-8.65292e-06 0.000725737 0.000208852)
(-6.88185e-06 0.000841506 0.0001848)
(-3.39015e-06 0.000925825 0.000164073)
(1.81496e-06 0.000986127 0.000150018)
(7.88131e-06 0.00102706 0.000137932)
(1.43099e-05 0.00105313 0.00012579)
(2.0777e-05 0.00106698 0.000112963)
(2.70669e-05 0.0010715 9.95178e-05)
(3.29827e-05 0.00106821 8.52873e-05)
(3.83968e-05 0.0010591 7.04517e-05)
(4.32197e-05 0.00104494 5.50805e-05)
(4.73933e-05 0.00102719 3.94742e-05)
(5.0835e-05 0.00100638 2.36715e-05)
(5.35431e-05 0.000983609 8.03004e-06)
(5.54385e-05 0.000959164 -7.50478e-06)
(5.6546e-05 0.00093388 -2.25953e-05)
(5.68388e-05 0.000907883 -3.71799e-05)
(5.63425e-05 0.000881805 -5.10028e-05)
(5.50459e-05 0.000855665 -6.40339e-05)
(5.29882e-05 0.000829941 -7.60613e-05)
(5.01755e-05 0.000804529 -8.70944e-05)
(4.66663e-05 0.0007797 -9.69777e-05)
(4.24824e-05 0.000755201 -0.00010576)
(3.77112e-05 0.000731086 -0.000113329)
(3.24082e-05 0.000706903 -0.000119772)
(2.66975e-05 0.0006824 -0.000125027)
(2.06949e-05 0.000656795 -0.000129228)
(1.45893e-05 0.000629352 -0.000132339)
(8.58304e-06 0.000598708 -0.000134452)
(2.95312e-06 0.000563296 -0.00013568)
(-1.88988e-06 0.000520723 -0.000137467)
(-5.02557e-06 0.000467929 -0.000142605)
(-5.36199e-06 0.000400668 -0.000147021)
(-5.22436e-06 0.000256974 -0.000105465)
(-3.38603e-06 0.000426962 0.000172539)
(-3.52164e-06 0.000653496 0.000175189)
(-1.26477e-06 0.000757908 0.000154027)
(2.69162e-06 0.000836281 0.000136218)
(7.80798e-06 0.000894391 0.000124263)
(1.34699e-05 0.000936876 0.000114412)
(1.93376e-05 0.000966875 0.000104748)
(2.51887e-05 0.000987279 9.4914e-05)
(3.08383e-05 0.000999798 8.47148e-05)
(3.61434e-05 0.00100632 7.41929e-05)
(4.09838e-05 0.00100778 6.32617e-05)
(4.52688e-05 0.00100548 5.20826e-05)
(4.89281e-05 0.000999931 4.06454e-05)
(5.19089e-05 0.000992084 2.91607e-05)
(5.41478e-05 0.000982202 1.76742e-05)
(5.56662e-05 0.000970999 6.42963e-06)
(5.64066e-05 0.000958586 -4.56203e-06)
(5.63906e-05 0.000945516 -1.51016e-05)
(5.5607e-05 0.000931766 -2.51735e-05)
(5.40836e-05 0.000917739 -3.46081e-05)
(5.18279e-05 0.0009033 -4.34174e-05)
(4.88884e-05 0.000888695 -5.14647e-05)
(4.52925e-05 0.000873656 -5.8792e-05)
(4.11104e-05 0.000858237 -6.52968e-05)
(3.6392e-05 0.000841973 -7.10534e-05)
(3.12351e-05 0.000824643 -7.59972e-05)
(2.57321e-05 0.000805472 -8.02417e-05)
(2.00228e-05 0.000783805 -8.37708e-05)
(1.42641e-05 0.000758308 -8.67245e-05)
(8.65561e-06 0.000727575 -8.90759e-05)
(3.42832e-06 0.000689276 -9.11125e-05)
(-1.04693e-06 0.000640678 -9.39919e-05)
(-4.01631e-06 0.000577649 -0.000100312)
(-4.55855e-06 0.000495073 -0.000106732)
(-4.29911e-06 0.000315161 -7.80675e-05)
(-1.60348e-06 0.000389032 0.000126688)
(-9.64502e-07 0.000603413 0.000125043)
(5.20099e-07 0.000703249 0.000108874)
(3.08854e-06 0.000779228 9.5389e-05)
(6.25097e-06 0.000837211 8.63229e-05)
(9.7104e-06 0.000881086 7.88968e-05)
(1.32748e-05 0.000914283 7.18753e-05)
(1.68481e-05 0.000938918 6.48472e-05)
(2.03149e-05 0.000957075 5.77889e-05)
(2.35907e-05 0.000969884 5.05721e-05)
(2.65952e-05 0.000978681 4.32589e-05)
(2.92675e-05 0.000984053 3.5797e-05)
(3.15541e-05 0.00098691 2.8314e-05)
(3.34067e-05 0.000987529 2.0808e-05)
(3.48071e-05 0.00098657 1.34423e-05)
(3.56974e-05 0.000984128 6.19714e-06)
(3.60985e-05 0.000980685 -7.61874e-07)
(3.59802e-05 0.000976201 -7.45202e-06)
(3.53513e-05 0.000971032 -1.3734e-05)
(3.42125e-05 0.000965028 -1.96456e-05)
(3.25847e-05 0.000958415 -2.50672e-05)
(3.04819e-05 0.000950921 -3.00602e-05)
(2.79462e-05 0.000942613 -3.45263e-05)
(2.50119e-05 0.000933045 -3.85508e-05)
(2.17363e-05 0.000922056 -4.20572e-05)
(1.81839e-05 0.000908927 -4.51554e-05)
(1.44404e-05 0.000893123 -4.77964e-05)
(1.06004e-05 0.000873458 -5.01218e-05)
(6.79363e-06 0.000848754 -5.20978e-05)
(3.1646e-06 0.000817001 -5.38486e-05)
(-1.08856e-07 0.000775881 -5.54358e-05)
(-2.75641e-06 0.000721923 -5.77877e-05)
(-4.2563e-06 0.000650752 -6.25487e-05)
(-4.1607e-06 0.000556263 -6.74105e-05)
(-3.41115e-06 0.000349434 -4.76523e-05)
(-1.14775e-06 0.000361521 8.96479e-05)
(-8.82637e-07 0.000573725 8.99209e-05)
(-5.15551e-07 0.000672671 8.0802e-05)
(2.843e-07 0.000748643 7.29423e-05)
(1.38944e-06 0.000807053 6.73976e-05)
(2.67062e-06 0.000852271 6.2743e-05)
(4.05681e-06 0.000887228 5.82202e-05)
(5.50713e-06 0.000914476 5.37345e-05)
(6.97141e-06 0.00093557 4.9188e-05)
(8.40457e-06 0.000952058 4.46405e-05)
(9.76666e-06 0.000964734 4.00264e-05)
(1.10211e-05 0.000974588 3.54488e-05)
(1.21293e-05 0.000981986 3.08712e-05)
(1.30641e-05 0.000987599 2.64161e-05)
(1.37931e-05 0.000991553 2.20436e-05)
(1.43024e-05 0.000994329 1.78635e-05)
(1.45685e-05 0.000995889 1.38367e-05)
(1.45977e-05 0.000996571 1.00743e-05)
(1.43608e-05 0.000996223 6.55996e-06)
(1.38623e-05 0.000995068 3.39195e-06)
(1.31066e-05 0.000992835 4.86637e-07)
(1.21045e-05 0.000989616 -2.06799e-06)
(1.08701e-05 0.000984993 -4.37249e-06)
(9.43154e-06 0.000978873 -6.35358e-06)
(7.81676e-06 0.000970611 -8.12849e-06)
(6.07097e-06 0.000959822 -9.64024e-06)
(4.24626e-06 0.000945483 -1.10255e-05)
(2.4058e-06 0.000926704 -1.22488e-05)
(6.24123e-07 0.000901798 -1.34589e-05)
(-1.01038e-06 0.000868994 -1.46156e-05)
(-2.39523e-06 0.000825418 -1.59307e-05)
(-3.37464e-06 0.000767724 -1.78748e-05)
(-3.66006e-06 0.000690896 -2.1637e-05)
(-3.11003e-06 0.00058875 -2.57558e-05)
(-2.23378e-06 0.000364901 -1.63325e-05)
(-1.5381e-06 0.000343155 6.66822e-05)
(-2.06395e-06 0.000555091 7.3837e-05)
(-2.74995e-06 0.000653929 7.23297e-05)
(-3.43913e-06 0.000729748 7.01358e-05)
(-3.89862e-06 0.000788334 6.82512e-05)
(-4.15977e-06 0.000833767 6.62182e-05)
(-4.27771e-06 0.00086937 6.39644e-05)
(-4.25593e-06 0.000897322 6.14599e-05)
(-4.12117e-06 0.000919571 5.88439e-05)
(-3.88477e-06 0.000937248 5.60954e-05)
(-3.57032e-06 0.000951539 5.33368e-05)
(-3.19635e-06 0.000962992 5.05386e-05)
(-2.78676e-06 0.000972367 4.78209e-05)
(-2.35641e-06 0.000979878 4.51484e-05)
(-1.93019e-06 0.000986029 4.26479e-05)
(-1.53266e-06 0.000990826 4.03012e-05)
(-1.17921e-06 0.000994624 3.82204e-05)
(-8.9231e-07 0.000997322 3.63379e-05)
(-6.65501e-07 0.000999171 3.46879e-05)
(-5.19093e-07 0.000999927 3.32029e-05)
(-4.56979e-07 0.000999706 3.19675e-05)
(-4.79508e-07 0.000998138 3.08857e-05)
(-5.80336e-07 0.000995189 3.00225e-05)
(-7.54069e-07 0.000990312 2.92613e-05)
(-9.88702e-07 0.000983246 2.86502e-05)
(-1.26482e-06 0.000973154 2.80546e-05)
(-1.5613e-06 0.000959394 2.75017e-05)
(-1.85146e-06 0.000940632 2.68334e-05)
(-2.10496e-06 0.000915554 2.60511e-05)
(-2.28817e-06 0.000881951 2.49749e-05)
(-2.36882e-06 0.000837306 2.35246e-05)
(-2.29477e-06 0.000777853 2.11738e-05)
(-1.97318e-06 0.000698895 1.71667e-05)
(-1.38754e-06 0.000593861 1.18632e-05)
(-8.10766e-07 0.000364407 9.79429e-06)
(-2.06038e-06 0.000329578 5.35341e-05)
(-3.25889e-06 0.000538852 6.83508e-05)
(-4.6322e-06 0.000636211 7.29923e-05)
(-6.23468e-06 0.000710935 7.5349e-05)
(-7.56206e-06 0.000768492 7.63421e-05)
(-8.6459e-06 0.000813255 7.64219e-05)
(-9.52023e-06 0.000848194 7.57997e-05)
(-1.02101e-05 0.000875821 7.47439e-05)
(-1.07097e-05 0.000897711 7.33485e-05)
(-1.10336e-05 0.000915353 7.1792e-05)
(-1.11842e-05 0.000929549 7.00988e-05)
(-1.11797e-05 0.000941212 6.84073e-05)
(-1.10261e-05 0.000950711 6.67105e-05)
(-1.07489e-05 0.000958635 6.51253e-05)
(-1.03562e-05 0.000965094 6.36241e-05)
(-9.87532e-06 0.000970484 6.23033e-05)
(-9.31528e-06 0.000974752 6.11128e-05)
(-8.70321e-06 0.000978138 6.01505e-05)
(-8.05217e-06 0.000980449 5.93661e-05)
(-7.38133e-06 0.000981838 5.88184e-05)
(-6.7002e-06 0.000982009 5.842e-05)
(-6.01948e-06 0.000980984 5.82164e-05)
(-5.34676e-06 0.000978319 5.81018e-05)
(-4.69192e-06 0.000973858 5.81061e-05)
(-4.05608e-06 0.000966936 5.8105e-05)
(-3.44085e-06 0.000957114 5.81088e-05)
(-2.84528e-06 0.000943357 5.79689e-05)
(-2.26738e-06 0.000924745 5.76633e-05)
(-1.71272e-06 0.0008996 5.70021e-05)
(-1.1825e-06 0.000866146 5.59054e-05)
(-6.90325e-07 0.000821564 5.40734e-05)
(-2.63647e-07 0.000762543 5.11186e-05)
(6.36356e-08 0.000684205 4.61783e-05)
(3.45951e-07 0.000580477 3.90013e-05)
(4.27237e-07 0.000354335 2.70459e-05)
(-2.25941e-06 0.000318265 4.2667e-05)
(-3.75597e-06 0.000521764 6.15123e-05)
(-5.41911e-06 0.000616384 6.94705e-05)
(-7.36827e-06 0.000688792 7.42432e-05)
(-9.03131e-06 0.000744588 7.68355e-05)
(-1.0406e-05 0.000787743 7.80094e-05)
(-1.15567e-05 0.000821451 7.82907e-05)
(-1.24836e-05 0.00084786 7.79294e-05)
(-1.31968e-05 0.00086883 7.71788e-05)
(-1.36825e-05 0.000885496 7.61408e-05)
(-1.39603e-05 0.000898975 7.49821e-05)
(-1.40257e-05 0.000909836 7.37427e-05)
(-1.39024e-05 0.000918774 7.25478e-05)
(-1.35883e-05 0.000926031 7.14051e-05)
(-1.3112e-05 0.000932056 7.04146e-05)
(-1.24818e-05 0.000936891 6.95608e-05)
(-1.17285e-05 0.000940825 6.89217e-05)
(-1.0864e-05 0.000943761 6.84603e-05)
(-9.91608e-06 0.000945869 6.82329e-05)
(-8.90492e-06 0.000946933 6.81793e-05)
(-7.85367e-06 0.000947008 6.83342e-05)
(-6.78295e-06 0.00094575 6.86151e-05)
(-5.71324e-06 0.000943075 6.90356e-05)
(-4.65511e-06 0.000938467 6.94925e-05)
(-3.625e-06 0.000931629 6.99776e-05)
(-2.63668e-06 0.00092178 7.03645e-05)
(-1.70129e-06 0.000908272 7.06161e-05)
(-8.36392e-07 0.000889869 7.05692e-05)
(-4.95641e-08 0.000865317 7.01324e-05)
(6.3298e-07 0.000832577 6.90689e-05)
(1.17993e-06 0.000789311 6.71523e-05)
(1.52453e-06 0.000732045 6.38614e-05)
(1.59185e-06 0.000656486 5.84277e-05)
(1.49431e-06 0.000556584 5.01101e-05)
(1.16066e-06 0.00033951 3.28131e-05)
(-1.9244e-06 0.000309363 2.95643e-05)
(-3.34002e-06 0.000506467 4.68852e-05)
(-4.91168e-06 0.000597948 5.48786e-05)
(-6.79802e-06 0.000667931 5.98309e-05)
(-8.42979e-06 0.000721632 6.24922e-05)
(-9.81699e-06 0.00076312 6.37521e-05)
(-1.0975e-05 0.00079525 6.4078e-05)
(-1.19252e-05 0.000820367 6.37988e-05)
(-1.26426e-05 0.000840022 6.3082e-05)
(-1.31348e-05 0.000855599 6.21167e-05)
(-1.33874e-05 0.000867921 6.099e-05)
(-1.34197e-05 0.000877833 5.98342e-05)
(-1.32283e-05 0.000885742 5.86951e-05)
(-1.28386e-05 0.000892182 5.76734e-05)
(-1.22589e-05 0.000897311 5.67881e-05)
(-1.15189e-05 0.00090147 5.61154e-05)
(-1.06351e-05 0.000904655 5.56497e-05)
(-9.63891e-06 0.000907071 5.5443e-05)
(-8.55554e-06 0.000908588 5.54644e-05)
(-7.41759e-06 0.000909296 5.57404e-05)
(-6.25019e-06 0.000908947 5.62154e-05)
(-5.08122e-06 0.000907504 5.68911e-05)
(-3.93041e-06 0.000904579 5.76883e-05)
(-2.82567e-06 0.000899971 5.85857e-05)
(-1.78548e-06 0.000893087 5.94818e-05)
(-8.24022e-07 0.000883467 6.03315e-05)
(3.85223e-08 0.000870193 6.10062e-05)
(7.92813e-07 0.000852371 6.14257e-05)
(1.42002e-06 0.000828515 6.14129e-05)
(1.9051e-06 0.00079697 6.08192e-05)
(2.21565e-06 0.000755243 5.93492e-05)
(2.29897e-06 0.000700312 5.6607e-05)
(2.0827e-06 0.000627878 5.18381e-05)
(1.74037e-06 0.000532449 4.43556e-05)
(1.23137e-06 0.000325304 2.77967e-05)
(-1.19019e-06 0.000304385 1.32777e-05)
(-2.27136e-06 0.000497214 2.401e-05)
(-3.53094e-06 0.00058666 2.94334e-05)
(-5.11062e-06 0.000654868 3.27329e-05)
(-6.57e-06 0.000707124 3.43001e-05)
(-7.84704e-06 0.000747209 3.47639e-05)
(-8.96161e-06 0.000778136 3.45248e-05)
(-9.87823e-06 0.000802 3.37819e-05)
(-1.05886e-05 0.000820554 3.27114e-05)
(-1.10657e-05 0.00083495 3.14235e-05)
(-1.13167e-05 0.00084624 3.00473e-05)
(-1.1328e-05 0.000855042 2.86562e-05)
(-1.11213e-05 0.000862009 2.73514e-05)
(-1.07003e-05 0.000867445 2.61816e-05)
(-1.009e-05 0.000871762 2.52249e-05)
(-9.31172e-06 0.000875067 2.45068e-05)
(-8.39875e-06 0.000877609 2.40802e-05)
(-7.37981e-06 0.000879356 2.39441e-05)
(-6.29103e-06 0.000880428 2.4124e-05)
(-5.16411e-06 0.000880672 2.45908e-05)
(-4.03674e-06 0.000880089 2.53421e-05)
(-2.93723e-06 0.000878397 2.63222e-05)
(-1.89518e-06 0.000875453 2.75027e-05)
(-9.37915e-07 0.000870809 2.88048e-05)
(-8.57865e-08 0.000864124 3.0178e-05)
(6.45349e-07 0.000854701 3.15239e-05)
(1.24735e-06 0.000841877 3.27704e-05)
(1.70143e-06 0.000824544 3.37974e-05)
(2.01234e-06 0.000801492 3.45028e-05)
(2.17196e-06 0.00077089 3.47289e-05)
(2.18063e-06 0.000730559 3.43011e-05)
(2.00426e-06 0.000677373 3.29109e-05)
(1.64064e-06 0.000607414 3.00794e-05)
(1.24654e-06 0.000515216 2.53712e-05)
(7.94562e-07 0.00031536 1.49123e-05)
(-3.24939e-07 0.000305146 -3.5323e-06)
(-1.02975e-06 0.000497987 -1.89099e-06)
(-1.89025e-06 0.000587288 -4.13607e-07)
(-3.10822e-06 0.000655269 2.31084e-07)
(-4.34178e-06 0.000707078 -9.21525e-09)
(-5.50399e-06 0.000746662 -8.12799e-07)
(-6.54614e-06 0.000776886 -2.01759e-06)
(-7.438e-06 0.000800034 -3.50224e-06)
(-8.13586e-06 0.000817709 -5.19043e-06)
(-8.62628e-06 0.000831264 -6.98239e-06)
(-8.88486e-06 0.000841596 -8.80172e-06)
(-8.91791e-06 0.000849531 -1.05563e-05)
(-8.72462e-06 0.000855558 -1.21796e-05)
(-8.32295e-06 0.000860193 -1.3593e-05)
(-7.73283e-06 0.000863678 -1.47466e-05)
(-6.98482e-06 0.000866326 -1.55828e-05)
(-6.10926e-06 0.00086821 -1.60757e-05)
(-5.14542e-06 0.000869496 -1.61948e-05)
(-4.12585e-06 0.000870123 -1.5943e-05)
(-3.09562e-06 0.000870129 -1.53205e-05)
(-2.0906e-06 0.000869325 -1.43596e-05)
(-1.14489e-06 0.000867612 -1.309e-05)
(-2.94875e-07 0.000864654 -1.15703e-05)
(4.38714e-07 0.000860182 -9.85369e-06)
(1.03346e-06 0.000853658 -8.01823e-06)
(1.47602e-06 0.00084456 -6.1321e-06)
(1.7574e-06 0.000832034 -4.2836e-06)
(1.88405e-06 0.000815147 -2.54644e-06)
(1.85929e-06 0.000792508 -1.0101e-06)
(1.708e-06 0.000762467 2.55907e-07)
(1.44192e-06 0.000722687 1.1582e-06)
(1.08993e-06 0.000670235 1.59397e-06)
(6.92797e-07 0.000601078 1.38162e-06)
(3.99414e-07 0.000509964 5.43752e-07)
(1.08238e-07 0.00031234 -1.01642e-06)
(4.30771e-07 0.000312185 -1.80931e-05)
(4.38841e-08 0.000509462 -2.51881e-05)
(-4.50136e-07 0.000600689 -2.75236e-05)
(-1.33151e-06 0.000669875 -2.93995e-05)
(-2.36631e-06 0.000722403 -3.1321e-05)
(-3.41158e-06 0.000762233 -3.33212e-05)
(-4.40182e-06 0.00079244 -3.5413e-05)
(-5.26814e-06 0.000815264 -3.75995e-05)
(-5.97619e-06 0.000832497 -3.98556e-05)
(-6.48338e-06 0.000845419 -4.21332e-05)
(-6.77542e-06 0.000855104 -4.43657e-05)
(-6.84383e-06 0.000862287 -4.64837e-05)
(-6.69368e-06 0.000867628 -4.84122e-05)
(-6.3338e-06 0.000871534 -5.0085e-05)
(-5.79581e-06 0.000874411 -5.14382e-05)
(-5.10104e-06 0.000876456 -5.24229e-05)
(-4.29062e-06 0.000877893 -5.29996e-05)
(-3.40279e-06 0.000878764 -5.31469e-05)
(-2.48044e-06 0.000879149 -5.28559e-05)
(-1.56198e-06 0.000878952 -5.21374e-05)
(-6.91363e-07 0.000878114 -5.10147e-05)
(9.32061e-08 0.000876395 -4.95285e-05)
(7.62895e-07 0.000873578 -4.77298e-05)
(1.28614e-06 0.000869246 -4.56822e-05)
(1.64812e-06 0.000862968 -4.34539e-05)
(1.83416e-06 0.000854069 -4.11177e-05)
(1.85081e-06 0.000841793 -3.87432e-05)
(1.69962e-06 0.000825046 -3.63923e-05)
(1.41347e-06 0.000802522 -3.41099e-05)
(1.01458e-06 0.000772405 -3.19127e-05)
(5.58188e-07 0.000732419 -2.97846e-05)
(9.709e-08 0.000679456 -2.76596e-05)
(-2.59734e-07 0.000609506 -2.54056e-05)
(-3.99368e-07 0.000517129 -2.25723e-05)
(-5.3382e-07 0.000316647 -1.55325e-05)
(9.05063e-07 0.000324606 -2.76271e-05)
(6.764e-07 0.000529763 -4.08969e-05)
(4.49978e-07 0.000624485 -4.60292e-05)
(-1.97813e-07 0.000696149 -4.98032e-05)
(-1.07269e-06 0.000750289 -5.3014e-05)
(-2.02161e-06 0.000791143 -5.59396e-05)
(-2.94428e-06 0.000821842 -5.8734e-05)
(-3.77802e-06 0.000844833 -6.14764e-05)
(-4.46287e-06 0.000861915 -6.41901e-05)
(-4.96645e-06 0.000874534 -6.68545e-05)
(-5.26306e-06 0.00088374 -6.94199e-05)
(-5.34483e-06 0.000890413 -7.18249e-05)
(-5.2112e-06 0.000895167 -7.39994e-05)
(-4.87961e-06 0.00089854 -7.58772e-05)
(-4.37079e-06 0.000900876 -7.73945e-05)
(-3.71824e-06 0.000902488 -7.85013e-05)
(-2.95796e-06 0.000903529 -7.91566e-05)
(-2.12967e-06 0.000904142 -7.9338e-05)
(-1.27697e-06 0.000904323 -7.90362e-05)
(-4.47472e-07 0.000904065 -7.82617e-05)
(3.20738e-07 0.000903214 -7.70378e-05)
(9.90289e-07 0.000901607 -7.54071e-05)
(1.52365e-06 0.000898919 -7.34199e-05)
(1.89716e-06 0.000894796 -7.11414e-05)
(2.09256e-06 0.000888688 -6.86373e-05)
(2.10588e-06 0.000879969 -6.59785e-05)
(1.93647e-06 0.000867749 -6.32245e-05)
(1.60613e-06 0.000850964 -6.0424e-05)
(1.14003e-06 0.000828155 -5.75935e-05)
(5.89458e-07 0.000797505 -5.47066e-05)
(5.79584e-09 0.000756555 -5.16737e-05)
(-5.16783e-07 0.000702146 -4.8307e-05)
(-8.47648e-07 0.00063002 -4.42582e-05)
(-8.66806e-07 0.000534608 -3.87792e-05)
(-9.46781e-07 0.000327276 -2.55755e-05)
(1.03579e-06 0.000340426 -3.14987e-05)
(8.13041e-07 0.000554946 -4.7275e-05)
(6.94829e-07 0.000653893 -5.35986e-05)
(1.56563e-07 0.000728553 -5.81963e-05)
(-6.28992e-07 0.000784774 -6.19749e-05)
(-1.49878e-06 0.000826968 -6.53152e-05)
(-2.35576e-06 0.000858486 -6.84353e-05)
(-3.12444e-06 0.000881854 -7.14416e-05)
(-3.75923e-06 0.000899031 -7.43801e-05)
(-4.21621e-06 0.000911496 -7.72368e-05)
(-4.47617e-06 0.000920427 -7.99733e-05)
(-4.52485e-06 0.000926703 -8.25268e-05)
(-4.369e-06 0.000931046 -8.48333e-05)
(-4.02127e-06 0.000933977 -8.68218e-05)
(-3.50488e-06 0.000935928 -8.84332e-05)
(-2.85124e-06 0.000937181 -8.96112e-05)
(-2.09812e-06 0.000937963 -9.03193e-05)
(-1.2864e-06 0.000938372 -9.05296e-05)
(-4.59621e-07 0.000938466 -9.0237e-05)
(3.36912e-07 0.000938181 -8.94472e-05)
(1.06323e-06 0.00093741 -8.81886e-05)
(1.67959e-06 0.000935921 -8.64985e-05)
(2.15356e-06 0.000933423 -8.44332e-05)
(2.45881e-06 0.000929477 -8.20523e-05)
(2.58132e-06 0.000923556 -7.9427e-05)
(2.5118e-06 0.000914932 -7.66209e-05)
(2.26014e-06 0.000902717 -7.36966e-05)
(1.84091e-06 0.000885726 -7.06908e-05)
(1.29385e-06 0.000862472 -6.76157e-05)
(6.63564e-07 0.000830988 -6.4423e-05)
(1.45632e-08 0.000788736 -6.10005e-05)
(-5.63244e-07 0.000732357 -5.71065e-05)
(-9.15374e-07 0.000657424 -5.23146e-05)
(-9.15321e-07 0.000558071 -4.57517e-05)
(-1.05357e-06 0.000341986 -3.00116e-05)
(9.03061e-07 0.000357361 -3.03135e-05)
(5.78982e-07 0.000581015 -4.50991e-05)
(4.41782e-07 0.000684079 -5.1069e-05)
(-1.03254e-07 0.000761706 -5.54604e-05)
(-8.57888e-07 0.00081998 -5.91099e-05)
(-1.67762e-06 0.000863553 -6.23762e-05)
(-2.46638e-06 0.000895905 -6.54525e-05)
(-3.16773e-06 0.000919721 -6.84397e-05)
(-3.72837e-06 0.000937032 -7.13687e-05)
(-4.11264e-06 0.000949433 -7.42275e-05)
(-4.30163e-06 0.000958137 -7.69684e-05)
(-4.28714e-06 0.000964115 -7.95329e-05)
(-4.07128e-06 0.0009681 -8.18494e-05)
(-3.67087e-06 0.000970685 -8.38528e-05)
(-3.10677e-06 0.0009723 -8.5477e-05)
(-2.41338e-06 0.000973284 -8.66724e-05)
(-1.62605e-06 0.000973847 -8.73952e-05)
(-7.86438e-07 0.000974133 -8.76242e-05)
(6.12216e-08 0.00097417 -8.73474e-05)
(8.76717e-07 0.000973925 -8.6577e-05)
(1.61615e-06 0.000973251 -8.53344e-05)
(2.24256e-06 0.000971931 -8.36634e-05)
(2.72159e-06 0.000969623 -8.16137e-05)
(3.03032e-06 0.000965893 -7.92515e-05)
(3.15301e-06 0.000960144 -7.66417e-05)
(3.08278e-06 0.000951636 -7.3856e-05)
(2.82372e-06 0.000939397 -7.09519e-05)
(2.39841e-06 0.000922207 -6.79763e-05)
(1.83552e-06 0.000898468 -6.49402e-05)
(1.18313e-06 0.000866143 -6.18108e-05)
(4.95603e-07 0.000822543 -5.84833e-05)
(-1.32081e-07 0.000764181 -5.47489e-05)
(-5.67029e-07 0.000686397 -5.02183e-05)
(-6.33831e-07 0.000583101 -4.40785e-05)
(-9.07051e-07 0.000358241 -2.92917e-05)
(5.85146e-07 0.000373155 -2.56734e-05)
(1.12521e-07 0.000604319 -3.6888e-05)
(-1.39494e-07 0.000710782 -4.13609e-05)
(-7.67725e-07 0.000790844 -4.47712e-05)
(-1.53699e-06 0.000850811 -4.77719e-05)
(-2.32318e-06 0.000895491 -5.05876e-05)
(-3.05537e-06 0.000928511 -5.33416e-05)
(-3.67917e-06 0.00095265 -5.60852e-05)
(-4.15294e-06 0.00097004 -5.88275e-05)
(-4.44867e-06 0.00098233 -6.15339e-05)
(-4.54675e-06 0.000990811 -6.4152e-05)
(-4.44235e-06 0.000996484 -6.66128e-05)
(-4.14276e-06 0.00100014 -6.8847e-05)
(-3.66207e-06 0.0010024 -7.0783e-05)
(-3.02431e-06 0.00100372 -7.23597e-05)
(-2.26125e-06 0.00100446 -7.35223e-05)
(-1.4097e-06 0.00100485 -7.4233e-05)
(-5.08586e-07 0.00100504 -7.44649e-05)
(3.96808e-07 0.00100507 -7.42116e-05)
(1.26682e-06 0.00100488 -7.34796e-05)
(2.05939e-06 0.00100435 -7.22955e-05)
(2.73685e-06 0.00100322 -7.06968e-05)
(3.2707e-06 0.00100115 -6.87385e-05)
(3.63231e-06 0.00099766 -6.64815e-05)
(3.80556e-06 0.000992139 -6.39971e-05)
(3.78473e-06 0.000983791 -6.1354e-05)
(3.57244e-06 0.00097161 -5.86212e-05)
(3.18381e-06 0.000954304 -5.58499e-05)
(2.65027e-06 0.000930222 -5.30738e-05)
(2.00793e-06 0.000897228 -5.02824e-05)
(1.30584e-06 0.000852539 -4.74214e-05)
(6.165e-07 0.000792529 -4.43563e-05)
(6.18225e-08 0.000712383 -4.08405e-05)
(-1.44477e-07 0.000605791 -3.62371e-05)
(-5.89038e-07 0.000373628 -2.49896e-05)
(2.05003e-07 0.000386302 -1.93809e-05)
(-4.29989e-07 0.000622637 -2.56869e-05)
(-8.4117e-07 0.00073143 -2.80555e-05)
(-1.58135e-06 0.000813144 -3.0072e-05)
(-2.3866e-06 0.000874222 -3.21353e-05)
(-3.15744e-06 0.000919595 -3.42924e-05)
(-3.83645e-06 0.000952974 -3.65591e-05)
(-4.38732e-06 0.000977224 -3.89294e-05)
(-4.77718e-06 0.000994533 -4.13718e-05)
(-4.97895e-06 0.00100661 -4.3832e-05)
(-4.98273e-06 0.0010148 -4.62417e-05)
(-4.7847e-06 0.00102013 -4.85273e-05)
(-4.39245e-06 0.00102343 -5.06134e-05)
(-3.82385e-06 0.00102535 -5.24302e-05)
(-3.10375e-06 0.00102638 -5.39138e-05)
(-2.26124e-06 0.00102688 -5.50127e-05)
(-1.33308e-06 0.00102712 -5.56873e-05)
(-3.60066e-07 0.00102723 -5.59134e-05)
(6.18284e-07 0.00102726 -5.56828e-05)
(1.5577e-06 0.00102717 -5.50038e-05)
(2.42131e-06 0.0010268 -5.38996e-05)
(3.17066e-06 0.00102591 -5.24103e-05)
(3.77491e-06 0.00102411 -5.05867e-05)
(4.21126e-06 0.00102093 -4.84928e-05)
(4.45902e-06 0.0010157 -4.6198e-05)
(4.50916e-06 0.00100761 -4.37772e-05)
(4.3642e-06 0.000995603 -4.13035e-05)
(4.03634e-06 0.000978356 -3.88443e-05)
(3.54761e-06 0.00095415 -3.64533e-05)
(2.93033e-06 0.000920796 -3.41604e-05)
(2.22135e-06 0.000875428 -3.19692e-05)
(1.47384e-06 0.000814334 -2.98552e-05)
(7.83133e-07 0.00073258 -2.77545e-05)
(4.05702e-07 0.000623724 -2.52783e-05)
(-2.09701e-07 0.000386518 -1.8923e-05)
(-1.62035e-07 0.000396031 -1.30957e-05)
(-9.16661e-07 0.000635051 -1.43567e-05)
(-1.48838e-06 0.000745042 -1.45451e-05)
(-2.34487e-06 0.00082756 -1.51036e-05)
(-3.1881e-06 0.000889124 -1.61769e-05)
(-3.94677e-06 0.000934719 -1.76266e-05)
(-4.58577e-06 0.000968117 -1.93609e-05)
(-5.0765e-06 0.000992219 -2.13127e-05)
(-5.39048e-06 0.00100927 -2.34129e-05)
(-5.51142e-06 0.001021 -2.55854e-05)
(-5.43067e-06 0.00102878 -2.77481e-05)
(-5.14947e-06 0.0010337 -2.98217e-05)
(-4.67471e-06 0.00103661 -3.17275e-05)
(-4.02612e-06 0.00103816 -3.3396e-05)