/*--------------------------------*- C++ -*----------------------------------*\
| =========                 |                                                 |
| \\      /  F ield         | OpenFOAM: The Open Source CFD Toolbox           |
|  \\    /   O peration     | Version:  v2006                                 |
|   \\  /    A nd           | Website:  www.openfoam.com                      |
|    \\/     M anipulation  |                                                 |
\*---------------------------------------------------------------------------*/
FoamFile
{
    version     2.0;
    format      ascii;
    class       volScalarField;
    location    "56";
    object      nut;
}
// * * * * * * * * * * * * * * * * * * * * * * * * * * * * * * * * * * * * * //

dimensions      [0 2 -1 0 0 0 0];


internalField   nonuniform List<scalar> 
78750
(
1.09718e-08
4.63657e-07
6.10852e-07
7.39645e-07
8.50291e-07
9.40668e-07
1.01177e-06
1.06542e-06
1.10342e-06
1.1273e-06
1.13829e-06
1.13743e-06
1.1257e-06
1.10414e-06
1.07362e-06
1.03493e-06
9.89119e-07
9.37052e-07
8.77714e-07
8.13116e-07
7.44478e-07
6.73306e-07
6.01534e-07
5.3157e-07
4.66105e-07
4.07665e-07
3.58008e-07
3.17642e-07
2.85694e-07
2.60107e-07
2.37759e-07
2.1393e-07
1.81931e-07
1.40536e-07
4.51391e-09
1.97773e-09
9.7989e-07
2.67583e-06
5.62074e-06
7.75564e-06
8.97918e-06
9.93545e-06
1.06407e-05
1.11185e-05
1.13938e-05
1.1491e-05
1.14332e-05
1.12415e-05
1.09357e-05
1.05344e-05
1.00553e-05
9.51543e-06
8.92968e-06
8.30768e-06
7.66263e-06
7.00334e-06
6.3366e-06
5.67052e-06
5.01232e-06
4.37123e-06
3.75822e-06
3.18441e-06
2.65912e-06
2.18961e-06
1.78517e-06
1.11964e-06
6.35825e-07
5.93422e-07
8.69015e-07
1.78729e-08
2.55546e-09
1.65716e-06
3.72967e-06
6.5672e-06
1.07458e-05
1.2394e-05
1.36801e-05
1.46695e-05
1.53898e-05
1.58667e-05
1.61237e-05
1.6182e-05
1.606e-05
1.57758e-05
1.49575e-05
1.39857e-05
1.31693e-05
1.2496e-05
1.19559e-05
1.15247e-05
1.07782e-05
9.87195e-06
8.95423e-06
8.02933e-06
7.10069e-06
6.17487e-06
5.26169e-06
4.37494e-06
3.53826e-06
2.40133e-06
1.22283e-06
7.9991e-07
1.01897e-06
1.04268e-06
2.83495e-08
4.53263e-09
1.69366e-06
3.84462e-06
6.74694e-06
1.06767e-05
1.54844e-05
1.69054e-05
1.80179e-05
1.88538e-05
1.94414e-05
1.98051e-05
1.99671e-05
1.89399e-05
1.75247e-05
1.62679e-05
1.5155e-05
1.41542e-05
1.32614e-05
1.24873e-05
1.18579e-05
1.14077e-05
1.11668e-05
1.11383e-05
1.11902e-05
1.04146e-05
9.29668e-06
8.14349e-06
6.96668e-06
5.24224e-06
3.03649e-06
1.68286e-06
1.18314e-06
1.67421e-06
1.08975e-06
3.73821e-08
6.32505e-09
1.7709e-06
4.02714e-06
7.12836e-06
1.13068e-05
1.63639e-05
1.93905e-05
2.05229e-05
2.13628e-05
2.19438e-05
2.2295e-05
2.24422e-05
2.14997e-05
1.97416e-05
1.80982e-05
1.66275e-05
1.53059e-05
1.41188e-05
1.30639e-05
1.2156e-05
1.1427e-05
1.09149e-05
1.06403e-05
1.05717e-05
1.05771e-05
1.03725e-05
9.57441e-06
7.96259e-06
5.76087e-06
3.63854e-06
2.24026e-06
1.73306e-06
2.63078e-06
1.14111e-06
4.61416e-08
8.82688e-09
1.74799e-06
4.03122e-06
7.31809e-06
1.18105e-05
1.71159e-05
2.17507e-05
2.28646e-05
2.36728e-05
2.42122e-05
2.45144e-05
2.41963e-05
2.24324e-05
2.05988e-05
1.88725e-05
1.72784e-05
1.5818e-05
1.4482e-05
1.32646e-05
1.21733e-05
1.12349e-05
1.04933e-05
9.98606e-06
9.71399e-06
9.60731e-06
9.46635e-06
8.94613e-06
7.73545e-06
5.90481e-06
4.02364e-06
2.72252e-06
2.32371e-06
3.64022e-06
1.21204e-06
5.41221e-08
1.13455e-08
1.76671e-06
4.13227e-06
7.69245e-06
1.27216e-05
1.86409e-05
2.37965e-05
2.48881e-05
2.56592e-05
2.61502e-05
2.63947e-05
2.52669e-05
2.32039e-05
2.11366e-05
1.92199e-05
1.74827e-05
1.59139e-05
1.44885e-05
1.31848e-05
1.19961e-05
1.09397e-05
1.00582e-05
9.39759e-06
8.96986e-06
8.7293e-06
8.53368e-06
8.11478e-06
7.18434e-06
5.73182e-06
4.18892e-06
3.11182e-06
2.94399e-06
4.52413e-06
1.27529e-06
6.12494e-08
1.41396e-08
1.78222e-06
4.21535e-06
8.0164e-06
1.35341e-05
1.99596e-05
2.52834e-05
2.67973e-05
2.75346e-05
2.79836e-05
2.74793e-05
2.53859e-05
2.31014e-05
2.09192e-05
1.89361e-05
1.71702e-05
1.5598e-05
1.41823e-05
1.28896e-05
1.16996e-05
1.06174e-05
9.67937e-06
8.93315e-06
8.3939e-06
8.02578e-06
7.72164e-06
7.28446e-06
6.49974e-06
5.35023e-06
4.15091e-06
3.358e-06
3.49285e-06
5.09192e-06
1.33159e-06
6.73248e-08
1.68504e-08
1.81062e-06
4.31701e-06
8.34581e-06
1.43207e-05
2.11972e-05
2.66254e-05
2.85242e-05
2.92309e-05
2.94652e-05
2.75721e-05
2.51717e-05
2.2722e-05
2.04408e-05
1.84137e-05
1.66436e-05
1.50943e-05
1.37179e-05
1.2471e-05
1.13242e-05
1.02744e-05
9.35115e-06
8.59621e-06
8.01389e-06
7.5652e-06
7.16251e-06
6.66389e-06
5.93296e-06
4.98356e-06
4.05961e-06
3.53589e-06
3.9883e-06
5.36913e-06
1.3759e-06
7.28029e-08
1.96178e-08
1.83662e-06
4.39724e-06
8.59919e-06
1.49278e-05
2.21203e-05
2.7552e-05
3.01634e-05
3.0731e-05
2.95421e-05
2.7371e-05
2.48028e-05
2.22462e-05
1.99176e-05
1.78855e-05
1.61348e-05
1.46177e-05
1.32813e-05
1.20782e-05
1.09757e-05
9.96649e-06
9.07453e-06
8.33475e-06
7.73818e-06
7.23775e-06
6.75668e-06
6.1952e-06
5.48162e-06
4.66399e-06
3.94602e-06
3.64963e-06
4.39276e-06
5.47719e-06
1.41285e-06
7.79851e-08
2.22769e-08
1.86394e-06
4.4718e-06
8.8188e-06
1.54446e-05
2.28914e-05
2.82895e-05
3.07961e-05
3.09665e-05
2.9508e-05
2.71172e-05
2.44013e-05
2.17702e-05
1.94199e-05
1.73964e-05
1.56695e-05
1.41834e-05
1.28817e-05
1.17156e-05
1.06521e-05
9.68322e-06
8.83139e-06
8.12504e-06
7.53922e-06
7.0162e-06
6.4844e-06
5.87518e-06
5.16644e-06
4.43504e-06
3.86425e-06
3.74886e-06
4.7451e-06
5.48831e-06
1.44322e-06
8.31577e-08
2.49978e-08
1.8887e-06
4.53298e-06
8.99465e-06
1.58533e-05
2.34722e-05
2.87979e-05
3.11002e-05
3.10411e-05
2.9378e-05
2.6837e-05
2.4035e-05
2.13693e-05
1.90168e-05
1.70073e-05
1.53008e-05
1.38367e-05
1.25568e-05
1.14127e-05
1.03727e-05
9.42946e-06
8.60635e-06
7.92867e-06
7.35893e-06
6.82943e-06
6.27001e-06
5.63335e-06
4.93222e-06
4.26425e-06
3.80264e-06
3.83185e-06
5.04387e-06
5.46386e-06
1.46959e-06
8.83583e-08
2.76636e-08
1.91142e-06
4.58688e-06
9.14753e-06
1.62076e-05
2.39674e-05
2.92195e-05
3.13379e-05
3.10751e-05
2.92351e-05
2.65727e-05
2.37092e-05
2.10264e-05
1.86811e-05
1.66885e-05
1.5e-05
1.3552e-05
1.22855e-05
1.11531e-05
1.01249e-05
9.19588e-06
8.39206e-06
7.73767e-06
7.18544e-06
6.66012e-06
6.09191e-06
5.44753e-06
4.76254e-06
4.14781e-06
3.77221e-06
3.92152e-06
5.32254e-06
5.41669e-06
1.49242e-06
9.35847e-08
3.04375e-08
1.93301e-06
4.63664e-06
9.28815e-06
1.65266e-05
2.43867e-05
2.95425e-05
3.14878e-05
3.1055e-05
2.90838e-05
2.63443e-05
2.34518e-05
2.07696e-05
1.84373e-05
1.64592e-05
1.47822e-05
1.3341e-05
1.20777e-05
1.09462e-05
9.91837e-06
8.99131e-06
8.19391e-06
7.55149e-06
7.01057e-06
6.49117e-06
5.92418e-06
5.28575e-06
4.62523e-06
4.0603e-06
3.75781e-06
4.01141e-06
5.58125e-06
5.3667e-06
1.5133e-06
9.87841e-08
3.31897e-08
1.95226e-06
4.68166e-06
9.41808e-06
1.68214e-05
2.47669e-05
2.98286e-05
3.16148e-05
3.10302e-05
2.89478e-05
2.61509e-05
2.32452e-05
2.05738e-05
1.82592e-05
1.62956e-05
1.46264e-05
1.31864e-05
1.19186e-05
1.07788e-05
9.74148e-06
8.80628e-06
8.00566e-06
7.36736e-06
6.8337e-06
6.32201e-06
5.76436e-06
5.14308e-06
4.5149e-06
3.99971e-06
3.76377e-06
4.11335e-06
5.83942e-06
5.31358e-06
1.53261e-06
1.03929e-07
3.60686e-08
1.97155e-06
4.72796e-06
9.55242e-06
1.71177e-05
2.51252e-05
3.00746e-05
3.17062e-05
3.09914e-05
2.88282e-05
2.60029e-05
2.3105e-05
2.04556e-05
1.81618e-05
1.6211e-05
1.4545e-05
1.30996e-05
1.18198e-05
1.06633e-05
9.60724e-06
8.65367e-06
7.83811e-06
7.19276e-06
6.65831e-06
6.15121e-06
5.60542e-06
5.00736e-06
4.41658e-06
3.95173e-06
3.77883e-06
4.21927e-06
6.09144e-06
5.26599e-06
1.55121e-06
1.08996e-07
3.89399e-08
1.98927e-06
4.77238e-06
9.68433e-06
1.74063e-05
2.54657e-05
3.03034e-05
3.17901e-05
3.09586e-05
2.87299e-05
2.58909e-05
2.30121e-05
2.03923e-05
1.81232e-05
1.61858e-05
1.4521e-05
1.3066e-05
1.17681e-05
1.05873e-05
9.50395e-06
8.52313e-06
7.68393e-06
7.02418e-06
6.48435e-06
5.9811e-06
5.45031e-06
4.88073e-06
4.33154e-06
3.91811e-06
3.80687e-06
4.3365e-06
6.34759e-06
5.2214e-06
1.56919e-06
1.13971e-07
4.19346e-08
2.00773e-06
4.82037e-06
9.8267e-06
1.77089e-05
2.58033e-05
3.05153e-05
3.18604e-05
3.09277e-05
2.86543e-05
2.58208e-05
2.29749e-05
2.03924e-05
1.81515e-05
1.62284e-05
1.45636e-05
1.30961e-05
1.17752e-05
1.05639e-05
9.44525e-06
8.42765e-06
7.55357e-06
6.86854e-06
6.31524e-06
5.81164e-06
5.29567e-06
4.75686e-06
4.25155e-06
3.89018e-06
3.83986e-06
4.45761e-06
6.60074e-06
5.18499e-06
1.58709e-06
1.18851e-07
4.49283e-08
2.02547e-06
4.86846e-06
9.97079e-06
1.80103e-05
2.61299e-05
3.07168e-05
3.19287e-05
3.09054e-05
2.85984e-05
2.57798e-05
2.2974e-05
2.04342e-05
1.82256e-05
1.63194e-05
1.46555e-05
1.31744e-05
1.18273e-05
1.05805e-05
9.4202e-06
8.35825e-06
7.44127e-06
6.72354e-06
6.15166e-06
5.64552e-06
5.14495e-06
4.63894e-06
4.17923e-06
3.87049e-06
3.88102e-06
4.5873e-06
6.85601e-06
5.15285e-06
1.60465e-06
1.23629e-07
4.80325e-08
2.04423e-06
4.92058e-06
1.01258e-05
1.83264e-05
2.64579e-05
3.09114e-05
3.19944e-05
3.08923e-05
2.85652e-05
2.57725e-05
2.30143e-05
2.05222e-05
1.83498e-05
1.64636e-05
1.48031e-05
1.33089e-05
1.19345e-05
1.06486e-05
9.44062e-06
8.32608e-06
7.35601e-06
6.59486e-06
5.99614e-06
5.48248e-06
4.99547e-06
4.52244e-06
4.109e-06
3.85323e-06
3.92483e-06
4.7202e-06
7.10844e-06
5.12901e-06
1.62237e-06
1.28307e-07
5.11362e-08
2.06269e-06
4.97344e-06
1.02835e-05
1.86424e-05
2.67771e-05
3.10989e-05
3.20607e-05
3.08881e-05
2.85475e-05
2.57852e-05
2.30776e-05
2.06365e-05
1.85041e-05
1.66424e-05
1.49891e-05
1.34848e-05
1.2084e-05
1.07573e-05
9.49775e-06
8.32482e-06
7.29474e-06
6.48254e-06
5.85102e-06
5.32614e-06
4.85107e-06
4.41064e-06
4.04336e-06
3.84041e-06
3.97325e-06
4.85869e-06
7.3596e-06
5.10901e-06
1.63977e-06
1.32876e-07
5.43342e-08
2.08205e-06
5.02969e-06
1.04506e-05
1.89708e-05
2.70984e-05
3.12848e-05
3.21304e-05
3.08957e-05
2.85494e-05
2.58225e-05
2.31685e-05
2.07809e-05
1.86919e-05
1.6859e-05
1.52178e-05
1.37077e-05
1.22827e-05
1.09147e-05
9.59986e-06
8.36247e-06
7.26409e-06
6.39077e-06
5.71822e-06
5.1764e-06
4.7099e-06
4.30038e-06
3.97854e-06
3.82821e-06
4.02267e-06
4.99922e-06
7.60663e-06
5.09575e-06
1.65724e-06
1.37337e-07
5.75295e-08
2.10109e-06
5.08633e-06
1.06198e-05
1.92991e-05
2.74132e-05
3.14677e-05
3.22043e-05
3.0913e-05
2.85635e-05
2.5872e-05
2.32713e-05
2.09384e-05
1.88962e-05
1.70972e-05
1.54739e-05
1.39637e-05
1.2519e-05
1.11116e-05
9.7403e-06
8.43469e-06
7.26256e-06
6.32085e-06
5.60099e-06
5.03738e-06
4.57597e-06
4.19493e-06
3.91692e-06
3.8184e-06
4.07467e-06
5.14357e-06
7.85039e-06
5.08593e-06
1.67446e-06
1.41679e-07
6.08033e-08
2.12057e-06
5.14517e-06
1.07965e-05
1.96387e-05
2.77331e-05
3.16555e-05
3.22876e-05
3.09445e-05
2.85942e-05
2.59384e-05
2.33906e-05
2.11134e-05
1.91205e-05
1.73599e-05
1.57604e-05
1.42563e-05
1.2797e-05
1.13527e-05
9.92426e-06
8.54637e-06
7.29429e-06
6.27557e-06
5.50081e-06
4.90939e-06
4.44845e-06
4.09248e-06
3.85595e-06
3.80797e-06
4.12589e-06
5.28791e-06
8.08751e-06
5.08038e-06
1.6914e-06
1.45899e-07
6.40733e-08
2.13944e-06
5.20359e-06
1.09746e-05
1.99804e-05
2.80537e-05
3.18496e-05
3.23815e-05
3.09869e-05
2.86332e-05
2.60099e-05
2.35135e-05
2.12922e-05
1.93514e-05
1.76338e-05
1.60644e-05
1.45733e-05
1.31058e-05
1.16294e-05
1.01456e-05
8.69407e-06
7.35821e-06
6.25649e-06
5.42093e-06
4.79639e-06
4.33121e-06
3.99633e-06
3.79839e-06
3.79947e-06
4.1791e-06
5.43542e-06
8.32016e-06
5.07798e-06
1.70821e-06
1.49984e-07
6.74088e-08
2.15828e-06
5.26283e-06
1.11576e-05
2.03325e-05
2.83862e-05
3.2057e-05
3.24916e-05
3.10425e-05
2.86826e-05
2.60902e-05
2.36443e-05
2.14796e-05
1.95929e-05
1.7922e-05
1.6388e-05
1.49163e-05
1.34469e-05
1.19433e-05
1.04064e-05
8.88006e-06
7.45621e-06
6.26523e-06
5.36258e-06
4.69913e-06
4.22434e-06
3.90573e-06
3.74254e-06
3.79009e-06
4.23016e-06
5.58082e-06
8.54514e-06
5.0773e-06
1.72438e-06
1.53923e-07
7.074e-08
2.17637e-06
5.32093e-06
1.13393e-05
2.06773e-05
2.86955e-05
3.22419e-05
3.25874e-05
3.10944e-05
2.87305e-05
2.61686e-05
2.3773e-05
2.16653e-05
1.98346e-05
1.82141e-05
1.67208e-05
1.5275e-05
1.3811e-05
1.22866e-05
1.07007e-05
9.1005e-06
7.58684e-06
6.30275e-06
5.32821e-06
4.62076e-06
4.13113e-06
3.82375e-06
3.69122e-06
3.78286e-06
4.28329e-06
5.73109e-06
8.77159e-06
5.08157e-06
1.7403e-06
1.57708e-07
7.41252e-08
2.19435e-06
5.37949e-06
1.1524e-05
2.10246e-05
2.89971e-05
3.24196e-05
3.26789e-05
3.1149e-05
2.87829e-05
2.62508e-05
2.39047e-05
2.18537e-05
2.008e-05
1.85125e-05
1.70642e-05
1.56501e-05
1.41979e-05
1.26588e-05
1.10282e-05
9.35562e-06
7.75072e-06
6.36982e-06
5.31871e-06
4.56218e-06
4.05223e-06
3.75058e-06
3.64391e-06
3.77621e-06
4.33518e-06
5.8804e-06
8.99422e-06
5.09214e-06
1.75652e-06
1.61335e-07
7.7505e-08
2.21166e-06
5.43698e-06
1.17057e-05
2.13583e-05
2.92769e-05
3.25772e-05
3.27535e-05
3.11895e-05
2.88281e-05
2.6327e-05
2.40296e-05
2.20356e-05
2.03206e-05
1.8809e-05
1.74099e-05
1.60333e-05
1.45997e-05
1.30529e-05
1.13833e-05
9.64151e-06
7.94576e-06
6.46644e-06
5.33537e-06
4.52542e-06
3.99002e-06
3.68861e-06
3.60284e-06
3.7724e-06
4.38946e-06
6.03613e-06
9.21442e-06
5.10642e-06
1.77284e-06
1.64791e-07
8.09281e-08
2.22892e-06
5.49565e-06
1.18925e-05
2.16904e-05
2.9547e-05
3.27251e-05
3.28202e-05
3.12245e-05
2.88735e-05
2.64024e-05
2.4152e-05
2.22148e-05
2.05591e-05
1.91053e-05
1.77586e-05
1.6424e-05
1.5015e-05
1.34668e-05
1.17639e-05
9.95676e-06
8.17152e-06
6.59299e-06
5.37886e-06
4.51122e-06
3.94521e-06
3.63847e-06
3.56854e-06
3.77196e-06
4.44648e-06
6.19732e-06
9.4328e-06
5.12505e-06
1.78933e-06
1.6807e-07
8.43358e-08
2.24525e-06
5.55286e-06
1.20782e-05
2.20088e-05
2.97963e-05
3.28533e-05
3.28691e-05
3.12428e-05
2.89025e-05
2.64636e-05
2.42626e-05
2.23837e-05
2.0789e-05
1.93952e-05
1.81043e-05
1.68162e-05
1.54375e-05
1.38946e-05
1.21647e-05
1.0297e-05
8.42511e-06
6.74848e-06
5.44946e-06
4.52081e-06
3.9196e-06
3.60215e-06
3.54291e-06
3.77639e-06
4.50697e-06
6.363e-06
9.64811e-06
5.14641e-06
1.80579e-06
1.71166e-07
8.77661e-08
2.26117e-06
5.60919e-06
1.22625e-05
2.23216e-05
3.00336e-05
3.297e-05
3.29085e-05
3.12534e-05
2.89256e-05
2.65206e-05
2.43686e-05
2.2547e-05
2.10129e-05
1.968e-05
1.84468e-05
1.72087e-05
1.58651e-05
1.43332e-05
1.25823e-05
1.06592e-05
8.70425e-06
6.93141e-06
5.54622e-06
4.55387e-06
3.9134e-06
3.58028e-06
3.52678e-06
3.78647e-06
4.57116e-06
6.5322e-06
9.8603e-06
5.17101e-06
1.82226e-06
1.74077e-07
9.11775e-08
2.27648e-06
5.66436e-06
1.24438e-05
2.26227e-05
3.02524e-05
3.30688e-05
3.29308e-05
3.12471e-05
2.89322e-05
2.65656e-05
2.44624e-05
2.26975e-05
2.12248e-05
1.99546e-05
1.87819e-05
1.75975e-05
1.62934e-05
1.47781e-05
1.30121e-05
1.1039e-05
9.00523e-06
7.13922e-06
5.6679e-06
4.61014e-06
3.92713e-06
3.57388e-06
3.52126e-06
3.80294e-06
4.63916e-06
6.70436e-06
1.00678e-05
5.19749e-06
1.83858e-06
1.76804e-07
9.45987e-08
2.29149e-06
5.71901e-06
1.26241e-05
2.29173e-05
3.04591e-05
3.31557e-05
3.2942e-05
3.12301e-05
2.8928e-05
2.6601e-05
2.45461e-05
2.28376e-05
2.14268e-05
2.02203e-05
1.91098e-05
1.79813e-05
1.67203e-05
1.52262e-05
1.34506e-05
1.1433e-05
9.32509e-06
7.36942e-06
5.81275e-06
4.68859e-06
3.96044e-06
3.58322e-06
3.52717e-06
3.82707e-06
4.71227e-06
6.87971e-06
1.02718e-05
5.22645e-06
1.85477e-06
1.79349e-07
9.7987e-08
2.30608e-06
5.7727e-06
1.28015e-05
2.32008e-05
3.06491e-05
3.32265e-05
3.29381e-05
3.11982e-05
2.89086e-05
2.66208e-05
2.46149e-05
2.2964e-05
2.16163e-05
2.04749e-05
1.94281e-05
1.83578e-05
1.7143e-05
1.56741e-05
1.38938e-05
1.18368e-05
9.65969e-06
7.61844e-06
5.97837e-06
4.78782e-06
4.0128e-06
3.60849e-06
3.54502e-06
3.85896e-06
4.78962e-06
7.05796e-06
1.04712e-05
5.25697e-06
1.87076e-06
1.81714e-07
1.01352e-07
2.32037e-06
5.82563e-06
1.29761e-05
2.34747e-05
3.08261e-05
3.32845e-05
3.29205e-05
3.11521e-05
2.88752e-05
2.66275e-05
2.46724e-05
2.30798e-05
2.17953e-05
2.07192e-05
1.97368e-05
1.87259e-05
1.75594e-05
1.61191e-05
1.43385e-05
1.22475e-05
1.00063e-05
7.88397e-06
6.16306e-06
4.90655e-06
4.08333e-06
3.64922e-06
3.57494e-06
3.89996e-06
4.87499e-06
7.23938e-06
1.06671e-05
5.28929e-06
1.88654e-06
1.83906e-07
1.04673e-07
2.33435e-06
5.8777e-06
1.31486e-05
2.37417e-05
3.09901e-05
3.33288e-05
3.28905e-05
3.10945e-05
2.88297e-05
2.66195e-05
2.47122e-05
2.31779e-05
2.19592e-05
2.09504e-05
2.00335e-05
1.90832e-05
1.79668e-05
1.65577e-05
1.47806e-05
1.26602e-05
1.03602e-05
8.16184e-06
6.36391e-06
5.04301e-06
4.17126e-06
3.70556e-06
3.61782e-06
3.95131e-06
4.96873e-06
7.42594e-06
1.08602e-05
5.32323e-06
1.90209e-06
1.8593e-07
1.07977e-07
2.34832e-06
5.93053e-06
1.33212e-05
2.40009e-05
3.11414e-05
3.33607e-05
3.28478e-05
3.10237e-05
2.87713e-05
2.66007e-05
2.47439e-05
2.32672e-05
2.21105e-05
2.11684e-05
2.03182e-05
1.94295e-05
1.83646e-05
1.6989e-05
1.52189e-05
1.30736e-05
1.07199e-05
8.45059e-06
6.57943e-06
5.19576e-06
4.27527e-06
3.77646e-06
3.67297e-06
4.01245e-06
5.06993e-06
7.61695e-06
1.10512e-05
5.35905e-06
1.91747e-06
1.87797e-07
1.11233e-07
2.36223e-06
5.98417e-06
1.34908e-05
2.42496e-05
3.12781e-05
3.33784e-05
3.27912e-05
3.09392e-05
2.86985e-05
2.65662e-05
2.476e-05
2.33427e-05
2.22502e-05
2.13727e-05
2.05881e-05
1.97623e-05
1.87503e-05
1.741e-05
1.56496e-05
1.34837e-05
1.10816e-05
8.74697e-06
6.80756e-06
5.36369e-06
4.39497e-06
3.86207e-06
3.74096e-06
4.08421e-06
5.17967e-06
7.8139e-06
1.12415e-05
5.39673e-06
1.93272e-06
1.89511e-07
1.14445e-07
2.37554e-06
6.03683e-06
1.36584e-05
2.44904e-05
3.14025e-05
3.33834e-05
3.2722e-05
3.08419e-05
2.8613e-05
2.65196e-05
2.47646e-05
2.34068e-05
2.23788e-05
2.15675e-05
2.08474e-05
2.00829e-05
1.91243e-05
1.78207e-05
1.60726e-05
1.38898e-05
1.14442e-05
9.04968e-06
7.04683e-06
5.54539e-06
4.52921e-06
3.96159e-06
3.82123e-06
4.16613e-06
5.29722e-06
8.01562e-06
1.14307e-05
5.43648e-06
1.94788e-06
1.91086e-07
1.17582e-07
2.38829e-06
6.08805e-06
1.38222e-05
2.47202e-05
3.1513e-05
3.3375e-05
3.2639e-05
3.07303e-05
2.85127e-05
2.64579e-05
2.47546e-05
2.34568e-05
2.24935e-05
2.17485e-05
2.10935e-05
2.03896e-05
1.94836e-05
1.8218e-05
1.64845e-05
1.42888e-05
1.18051e-05
9.35663e-06
7.29582e-06
5.73992e-06
4.67741e-06
4.07478e-06
3.91396e-06
4.25871e-06
5.42348e-06
8.22326e-06
1.16196e-05
5.47822e-06
1.96299e-06
1.92531e-07
1.20667e-07
2.40062e-06
6.13836e-06
1.3984e-05
2.49419e-05
3.16114e-05
3.33538e-05
3.25428e-05
3.06051e-05
2.83989e-05
2.6383e-05
2.47324e-05
2.34952e-05
2.25966e-05
2.19177e-05
2.13278e-05
2.06844e-05
1.98298e-05
1.86017e-05
1.6885e-05
1.46799e-05
1.21632e-05
9.66664e-06
7.5533e-06
5.94607e-06
4.83848e-06
4.20079e-06
4.01854e-06
4.36162e-06
5.55823e-06
8.43649e-06
1.18089e-05
5.5222e-06
1.97812e-06
1.93864e-07
1.23662e-07
2.41233e-06
6.18694e-06
1.41412e-05
2.51521e-05
3.16961e-05
3.33189e-05
3.24321e-05
3.04648e-05
2.82695e-05
2.62925e-05
2.46957e-05
2.35194e-05
2.26856e-05
2.20728e-05
2.15475e-05
2.09644e-05
2.01612e-05
1.89698e-05
1.72711e-05
1.50607e-05
1.25164e-05
9.97804e-06
7.81813e-06
6.16303e-06
5.01184e-06
4.33925e-06
4.1349e-06
4.47515e-06
5.70216e-06
8.65628e-06
1.19993e-05
5.56839e-06
1.9933e-06
1.95102e-07
1.26578e-07
2.42351e-06
6.23408e-06
1.42951e-05
2.5353e-05
3.17681e-05
3.32705e-05
3.2307e-05
3.03097e-05
2.81254e-05
2.61876e-05
2.46453e-05
2.35307e-05
2.27621e-05
2.22152e-05
2.17541e-05
2.12304e-05
2.04778e-05
1.93229e-05
1.76414e-05
1.54293e-05
1.28633e-05
1.02896e-05
8.08925e-06
6.38992e-06
5.19671e-06
4.48947e-06
4.26248e-06
4.59891e-06
5.85499e-06
8.88217e-06
1.21912e-05
5.61712e-06
2.00863e-06
1.96263e-07
1.29391e-07
2.43403e-06
6.27929e-06
1.44437e-05
2.55417e-05
3.18261e-05
3.32077e-05
3.21667e-05
3.01389e-05
2.79658e-05
2.60673e-05
2.45798e-05
2.35277e-05
2.28248e-05
2.23436e-05
2.1946e-05
2.14809e-05
2.07781e-05
1.96593e-05
1.79959e-05
1.5782e-05
1.31995e-05
1.05985e-05
8.36479e-06
6.62565e-06
5.39252e-06
4.65123e-06
4.40133e-06
4.73324e-06
6.01749e-06
9.11537e-06
1.23858e-05
5.66841e-06
2.02417e-06
1.97364e-07
1.32116e-07
2.44401e-06
6.32295e-06
1.45885e-05
2.57202e-05
3.18708e-05
3.31307e-05
3.20113e-05
2.99529e-05
2.77914e-05
2.59329e-05
2.45009e-05
2.3512e-05
2.2875e-05
2.24591e-05
2.21239e-05
2.17157e-05
2.1061e-05
1.99774e-05
1.83331e-05
1.61211e-05
1.35264e-05
1.0904e-05
8.64349e-06
6.86892e-06
5.59831e-06
4.82392e-06
4.55109e-06
4.87798e-06
6.18957e-06
9.3557e-06
1.25834e-05
5.7224e-06
2.03997e-06
1.98415e-07
1.34735e-07
2.4533e-06
6.36453e-06
1.47276e-05
2.58862e-05
3.19009e-05
3.30384e-05
3.18399e-05
2.97508e-05
2.76014e-05
2.57835e-05
2.44077e-05
2.34827e-05
2.29117e-05
2.25606e-05
2.22866e-05
2.19338e-05
2.13254e-05
2.02757e-05
1.86504e-05
1.6443e-05
1.38416e-05
1.12058e-05
8.92495e-06
7.11916e-06
5.81354e-06
5.00726e-06
4.71187e-06
5.03368e-06
6.3723e-06
9.60474e-06
1.27854e-05
5.77935e-06
2.05613e-06
1.99432e-07
1.37262e-07
2.46205e-06
6.40449e-06
1.48624e-05
2.60413e-05
3.19172e-05
3.29313e-05
3.16531e-05
2.95337e-05
2.73974e-05
2.56212e-05
2.43025e-05
2.3442e-05
2.29369e-05
2.26497e-05
2.24355e-05
2.21359e-05
2.15715e-05
2.05539e-05
1.89478e-05
1.67473e-05
1.41436e-05
1.14996e-05
9.20564e-06
7.37424e-06
6.03693e-06
5.20044e-06
4.88321e-06
5.20014e-06
6.56576e-06
9.8627e-06
1.2992e-05
5.83915e-06
2.07266e-06
2.00426e-07
1.39685e-07
2.47013e-06
6.4424e-06
1.49917e-05
2.61838e-05
3.19184e-05
3.28083e-05
3.14499e-05
2.93006e-05
2.71786e-05
2.54453e-05
2.41846e-05
2.33894e-05
2.29502e-05
2.2726e-05
2.257e-05
2.23215e-05
2.17986e-05
2.08112e-05
1.92236e-05
1.70326e-05
1.44325e-05
1.17887e-05
9.48709e-06
7.63408e-06
6.26793e-06
5.40306e-06
5.06504e-06
5.37781e-06
6.77098e-06
1.01311e-05
1.3204e-05
5.90201e-06
2.08965e-06
2.01411e-07
1.42014e-07
2.47767e-06
6.47857e-06
1.51162e-05
2.6315e-05
3.19056e-05
3.26703e-05
3.12312e-05
2.90528e-05
2.69462e-05
2.52572e-05
2.40566e-05
2.33269e-05
2.29527e-05
2.27903e-05
2.26906e-05
2.24905e-05
2.20062e-05
2.10463e-05
1.94765e-05
1.72973e-05
1.4707e-05
1.20718e-05
9.76766e-06
7.89752e-06
6.50576e-06
5.61453e-06
5.25703e-06
5.56666e-06
6.98837e-06
1.04107e-05
1.34219e-05
5.96797e-06
2.10716e-06
2.02401e-07
1.4424e-07
2.48454e-06
6.51268e-06
1.52351e-05
2.64338e-05
3.18778e-05
3.25161e-05
3.09961e-05
2.87894e-05
2.66998e-05
2.50564e-05
2.39171e-05
2.32534e-05
2.29443e-05
2.28429e-05
2.27979e-05
2.2644e-05
2.21951e-05
2.12598e-05
1.97065e-05
1.75411e-05
1.49665e-05
1.23485e-05
1.00472e-05
8.16394e-06
6.74965e-06
5.8343e-06
5.45889e-06
5.76676e-06
7.21844e-06
1.07021e-05
1.36457e-05
6.03719e-06
2.12528e-06
2.03413e-07
1.46374e-07
2.49089e-06
6.54508e-06
1.53493e-05
2.65416e-05
3.18363e-05
3.23468e-05
3.07456e-05
2.85119e-05
2.64409e-05
2.48445e-05
2.37675e-05
2.31702e-05
2.29258e-05
2.28845e-05
2.28924e-05
2.27818e-05
2.2365e-05
2.1451e-05
1.99127e-05
1.77627e-05
1.52092e-05
1.26166e-05
1.03239e-05
8.43202e-06
6.99863e-06
6.06158e-06
5.6701e-06
5.97798e-06
7.46163e-06
1.10063e-05
1.38757e-05
6.10953e-06
2.14402e-06
2.04458e-07
1.48409e-07
2.49659e-06
6.57538e-06
1.54578e-05
2.66372e-05
3.178e-05
3.21615e-05
3.04789e-05
2.82198e-05
2.61695e-05
2.46219e-05
2.36085e-05
2.30783e-05
2.28985e-05
2.29163e-05
2.29753e-05
2.29054e-05
2.25171e-05
2.16209e-05
2.00951e-05
1.79611e-05
1.54332e-05
1.28733e-05
1.05956e-05
8.70055e-06
7.25217e-06
6.29635e-06
5.89101e-06
6.201e-06
7.71897e-06
1.13247e-05
1.41127e-05
6.18508e-06
2.16343e-06
2.05544e-07
1.50359e-07
2.50179e-06
6.60413e-06
1.55621e-05
2.67225e-05
3.17101e-05
3.19606e-05
3.01969e-05
2.7914e-05
2.58866e-05
2.43894e-05
2.34409e-05
2.29781e-05
2.28625e-05
2.29387e-05
2.30471e-05
2.30152e-05
2.26521e-05
2.177e-05
2.02542e-05
1.81361e-05
1.5637e-05
1.31159e-05
1.08595e-05
8.96712e-06
7.50854e-06
6.53746e-06
6.12085e-06
6.43549e-06
7.99078e-06
1.16577e-05
1.43558e-05
6.26357e-06
2.18353e-06
2.06682e-07
1.52223e-07
2.50638e-06
6.63092e-06
1.56611e-05
2.6796e-05
3.16253e-05
3.17434e-05
2.98988e-05
2.75946e-05
2.55927e-05
2.41479e-05
2.32655e-05
2.28707e-05
2.28194e-05
2.29529e-05
2.31092e-05
2.31128e-05
2.27715e-05
2.18999e-05
2.03914e-05
1.82885e-05
1.58206e-05
1.33431e-05
1.11136e-05
9.22955e-06
7.76586e-06
6.78357e-06
6.35895e-06
6.6812e-06
8.2774e-06
1.20056e-05
1.46043e-05
6.34487e-06
2.20434e-06
2.07878e-07
1.54021e-07
2.51055e-06
6.6565e-06
1.57569e-05
2.68599e-05
3.15266e-05
3.15105e-05
2.95858e-05
2.72628e-05
2.52892e-05
2.38987e-05
2.30837e-05
2.27573e-05
2.27698e-05
2.29599e-05
2.31625e-05
2.31992e-05
2.28767e-05
2.20122e-05
2.05083e-05
1.84198e-05
1.59845e-05
1.35544e-05
1.13563e-05
9.48593e-06
8.02231e-06
7.03328e-06
6.60417e-06
6.93777e-06
8.57886e-06
1.23687e-05
1.48571e-05
6.42854e-06
2.22582e-06
2.09133e-07
1.55752e-07
2.5142e-06
6.68055e-06
1.58488e-05
2.69133e-05
3.14133e-05
3.12612e-05
2.92575e-05
2.69188e-05
2.49764e-05
2.36423e-05
2.2896e-05
2.26386e-05
2.27149e-05
2.29607e-05
2.32082e-05
2.3276e-05
2.29693e-05
2.21091e-05
2.06074e-05
1.85323e-05
1.61307e-05
1.37503e-05
1.15872e-05
9.73499e-06
8.2762e-06
7.28496e-06
6.85583e-06
7.20604e-06
8.89556e-06
1.2747e-05
1.51139e-05
6.51436e-06
2.24797e-06
2.10451e-07
1.57432e-07
2.51747e-06
6.70358e-06
1.59381e-05
2.69577e-05
3.12864e-05
3.09964e-05
2.8915e-05
2.65638e-05
2.46558e-05
2.33802e-05
2.27038e-05
2.25157e-05
2.26555e-05
2.29562e-05
2.32471e-05
2.33438e-05
2.30505e-05
2.2192e-05
2.06906e-05
1.86284e-05
1.62614e-05
1.3932e-05
1.18065e-05
9.97622e-06
8.52679e-06
7.53811e-06
7.11389e-06
7.48542e-06
9.22764e-06
1.31403e-05
1.53739e-05
6.60191e-06
2.27071e-06
2.11831e-07
1.59058e-07
2.52032e-06
6.72548e-06
1.60247e-05
2.69927e-05
3.11452e-05
3.07156e-05
2.85582e-05
2.61982e-05
2.43279e-05
2.31131e-05
2.25078e-05
2.23895e-05
2.25926e-05
2.29474e-05
2.32803e-05
2.34039e-05
2.31216e-05
2.22625e-05
2.07603e-05
1.87111e-05
1.63801e-05
1.41015e-05
1.20147e-05
1.02091e-05
8.77301e-06
7.79138e-06
7.37682e-06
7.77486e-06
9.57482e-06
1.35483e-05
1.56362e-05
6.69078e-06
2.29398e-06
2.13273e-07
1.6064e-07
2.52281e-06
6.74654e-06
1.61093e-05
2.70191e-05
3.09906e-05
3.04196e-05
2.81882e-05
2.58234e-05
2.39942e-05
2.28423e-05
2.23093e-05
2.2261e-05
2.25269e-05
2.29349e-05
2.33082e-05
2.34566e-05
2.3183e-05
2.23216e-05
2.08181e-05
1.87833e-05
1.64908e-05
1.42614e-05
1.22133e-05
1.04343e-05
9.01482e-06
8.04444e-06
7.64438e-06
8.07452e-06
9.93688e-06
1.39704e-05
1.59e-05
6.78062e-06
2.31774e-06
2.14778e-07
1.62178e-07
2.52495e-06
6.76678e-06
1.61919e-05
2.70367e-05
3.0822e-05
3.01082e-05
2.78053e-05
2.544e-05
2.36556e-05
2.25687e-05
2.21092e-05
2.21311e-05
2.24596e-05
2.29197e-05
2.33317e-05
2.35027e-05
2.32354e-05
2.23702e-05
2.08655e-05
1.88474e-05
1.65967e-05
1.44139e-05
1.24031e-05
1.06517e-05
9.25153e-06
8.29627e-06
7.91538e-06
8.38306e-06
1.0313e-05
1.4405e-05
1.61638e-05
6.87085e-06
2.34187e-06
2.16342e-07
1.63677e-07
2.52675e-06
6.7863e-06
1.62728e-05
2.70457e-05
3.06401e-05
2.97823e-05
2.74107e-05
2.50496e-05
2.33136e-05
2.22939e-05
2.19088e-05
2.2001e-05
2.23913e-05
2.29023e-05
2.33513e-05
2.35427e-05
2.32795e-05
2.24089e-05
2.09034e-05
1.89045e-05
1.66987e-05
1.45605e-05
1.25857e-05
1.08622e-05
9.48335e-06
8.54664e-06
8.18955e-06
8.70046e-06
1.07031e-05
1.48512e-05
1.64262e-05
6.96094e-06
2.36644e-06
2.17959e-07
1.65137e-07
2.52823e-06
6.80513e-06
1.6352e-05
2.70456e-05
3.04439e-05
2.94413e-05
2.70047e-05
2.46527e-05
2.29691e-05
2.20187e-05
2.1709e-05
2.18715e-05
2.23229e-05
2.28835e-05
2.33678e-05
2.35772e-05
2.33157e-05
2.24382e-05
2.0932e-05
1.89541e-05
1.67954e-05
1.47011e-05
1.27618e-05
1.10664e-05
9.71046e-06
8.7951e-06
8.46587e-06
9.02539e-06
1.1106e-05
1.53073e-05
1.66865e-05
7.05075e-06
2.39136e-06
2.19633e-07
1.66561e-07
2.52939e-06
6.82331e-06
1.64295e-05
2.70365e-05
3.02339e-05
2.9086e-05
2.65882e-05
2.42506e-05
2.26233e-05
2.17446e-05
2.1511e-05
2.17436e-05
2.22551e-05
2.2864e-05
2.33816e-05
2.3607e-05
2.33452e-05
2.24596e-05
2.09525e-05
1.89967e-05
1.68862e-05
1.48354e-05
1.29314e-05
1.1265e-05
9.93348e-06
9.04209e-06
8.74453e-06
9.35772e-06
1.15207e-05
1.57723e-05
1.69436e-05
7.13979e-06
2.41653e-06
2.21348e-07
1.67936e-07
2.53016e-06
6.84052e-06
1.65045e-05
2.7017e-05
3.00088e-05
2.87154e-05
2.61609e-05
2.38434e-05
2.22768e-05
2.14725e-05
2.13159e-05
2.1618e-05
2.21884e-05
2.28438e-05
2.33927e-05
2.36318e-05
2.33678e-05
2.24728e-05
2.09651e-05
1.90324e-05
1.69706e-05
1.49631e-05
1.30944e-05
1.14575e-05
1.0152e-05
9.28719e-06
9.02517e-06
9.69718e-06
1.1947e-05
1.62449e-05
1.71961e-05
7.22743e-06
2.44179e-06
2.23108e-07
1.69276e-07
2.53059e-06
6.85699e-06
1.65777e-05
2.6988e-05
2.9769e-05
2.83298e-05
2.57232e-05
2.34315e-05
2.19302e-05
2.12046e-05
2.11253e-05
2.14958e-05
2.21237e-05
2.28239e-05
2.3402e-05
2.36525e-05
2.33843e-05
2.24791e-05
2.09712e-05
1.90631e-05
1.705e-05
1.50853e-05
1.3252e-05
1.1645e-05
1.03668e-05
9.53066e-06
9.3075e-06
1.0043e-05
1.23832e-05
1.67223e-05
1.74428e-05
7.31324e-06
2.46699e-06
2.24904e-07
1.70568e-07
2.53062e-06
6.87242e-06
1.66478e-05
2.69476e-05
2.95129e-05
2.79281e-05
2.52746e-05
2.30145e-05
2.15831e-05
2.09408e-05
2.09393e-05
2.13773e-05
2.20616e-05
2.28049e-05
2.34101e-05
2.36697e-05
2.33954e-05
2.24794e-05
2.09725e-05
1.90907e-05
1.71253e-05
1.52026e-05
1.34045e-05
1.18282e-05
1.05785e-05
9.7731e-06
9.59206e-06
1.03954e-05
1.28289e-05
1.7203e-05
1.76836e-05
7.39738e-06
2.49213e-06
2.26736e-07
1.71826e-07
2.53031e-06
6.88705e-06
1.67162e-05
2.68971e-05
2.92404e-05
2.75097e-05
2.48143e-05
2.25917e-05
2.1234e-05
2.0677e-05
2.07551e-05
2.1262e-05
2.2003e-05
2.27888e-05
2.34191e-05
2.36854e-05
2.34032e-05
2.24762e-05
2.09721e-05
1.91195e-05
1.71993e-05
1.53166e-05
1.3553e-05
1.20074e-05
1.07868e-05
1.00137e-05
9.87752e-06
1.07531e-05
1.32825e-05
1.76847e-05
1.79172e-05
7.47941e-06
2.51711e-06
2.28602e-07
1.73042e-07
2.52957e-06
6.9004e-06
1.6781e-05
2.68345e-05
2.89503e-05
2.70739e-05
2.43424e-05
2.21636e-05
2.08842e-05
2.04157e-05
2.05753e-05
2.1152e-05
2.19498e-05
2.27767e-05
2.343e-05
2.37004e-05
2.34084e-05
2.24704e-05
2.09716e-05
1.91513e-05
1.72731e-05
1.54278e-05
1.36978e-05
1.21834e-05
1.09935e-05
1.02549e-05
1.01664e-05
1.11175e-05
1.37438e-05
1.81663e-05
1.81439e-05
7.55937e-06
2.54189e-06
2.30497e-07
1.74228e-07
2.52856e-06
6.91326e-06
1.68445e-05
2.67608e-05
2.86414e-05
2.66191e-05
2.38577e-05
2.17289e-05
2.05319e-05
2.01549e-05
2.03983e-05
2.10469e-05
2.19025e-05
2.27704e-05
2.34451e-05
2.37172e-05
2.34133e-05
2.24641e-05
2.09726e-05
1.91874e-05
1.7348e-05
1.55374e-05
1.38395e-05
1.2356e-05
1.11973e-05
1.04945e-05
1.04565e-05
1.14876e-05
1.42125e-05
1.86471e-05
1.83634e-05
7.63713e-06
2.56644e-06