/*--------------------------------*- C++ -*----------------------------------*\
| =========                 |                                                 |
| \\      /  F ield         | OpenFOAM: The Open Source CFD Toolbox           |
|  \\    /   O peration     | Version:  v2006                                 |
|   \\  /    A nd           | Website:  www.openfoam.com                      |
|    \\/     M anipulation  |                                                 |
\*---------------------------------------------------------------------------*/
FoamFile
{
    version     2.0;
    format      ascii;
    class       volScalarField;
    location    "56";
    object      T;
}
// * * * * * * * * * * * * * * * * * * * * * * * * * * * * * * * * * * * * * //

dimensions      [0 0 0 1 0 0 0];


internalField   nonuniform List<scalar> 
78750
(
300.068
300.171
300.231
300.274
300.309
300.339
300.365
300.389
300.41
300.428
300.444
300.459
300.472
300.483
300.493
300.501
300.508
300.513
300.516
300.518
300.517
300.513
300.506
300.496
300.481
300.463
300.444
300.428
300.423
300.444
300.525
300.726
301.148
301.896
302.979
300.052
300.15
300.239
300.318
300.386
300.446
300.498
300.543
300.581
300.614
300.64
300.662
300.679
300.692
300.701
300.706
300.707
300.705
300.7
300.692
300.68
300.664
300.645
300.622
300.596
300.568
300.541
300.522
300.522
300.564
300.686
300.952
301.443
302.215
303.279
300.063
300.183
300.293
300.39
300.472
300.541
300.602
300.654
300.7
300.74
300.773
300.801
300.824
300.841
300.854
300.863
300.866
300.865
300.86
300.85
300.835
300.816
300.792
300.764
300.732
300.699
300.669
300.649
300.656
300.716
300.872
301.187
301.72
302.507
303.567
300.071
300.206
300.326
300.432
300.522
300.596
300.66
300.716
300.766
300.811
300.85
300.883
300.912
300.937
300.958
300.973
300.984
300.99
300.991
300.986
300.974
300.957
300.934
300.906
300.874
300.84
300.808
300.787
300.793
300.855
301.024
301.361
301.912
302.709
303.773
300.078
300.224
300.355
300.47
300.568
300.648
300.716
300.775
300.828
300.874
300.916
300.952
300.984
301.012
301.036
301.055
301.071
301.082
301.088
301.089
301.083
301.072
301.053
301.028
300.998
300.965
300.935
300.914
300.922
300.989
301.167
301.518
302.076
302.872
303.941
300.084
300.242
300.384
300.508
300.613
300.699
300.77
300.83
300.885
300.933
300.976
301.013
301.047
301.076
301.102
301.123
301.14
301.153
301.162
301.165
301.164
301.156
301.142
301.121
301.094
301.065
301.037
301.02
301.031
301.104
301.29
301.649
302.207
302.999
304.071
300.09
300.261
300.414
300.547
300.658
300.748
300.821
300.884
300.94
300.99
301.034
301.073
301.108
301.138
301.165
301.187
301.205
301.219
301.228
301.231
301.23
301.224
301.211
301.193
301.17
301.143
301.12
301.108
301.128
301.212
301.41
301.779
302.334
303.119
304.193
300.096
300.277
300.44
300.581
300.698
300.791
300.867
300.931
300.989
301.039
301.084
301.125
301.161
301.193
301.221
301.244
301.262
301.275
301.283
301.286
301.284
301.277
301.265
301.247
301.226
301.204
301.185
301.181
301.211
301.308
301.521
301.897
302.45
303.231
304.306
300.101
300.293
300.466
300.614
300.736
300.832
300.91
300.977
301.035
301.088
301.134
301.177
301.215
301.249
301.277
301.301
301.319
301.331
301.338
301.34
301.336
301.327
301.314
301.296
301.276
301.256
301.242
301.246
301.287
301.398
301.626
302.01
302.564
303.344
304.42
300.106
300.307
300.487
300.642
300.768
300.868
300.948
301.016
301.076
301.13
301.179
301.223
301.263
301.298
301.328
301.352
301.37
301.381
301.388
301.388
301.383
301.373
301.358
301.34
301.32
301.302
301.293
301.304
301.356
301.481
301.722
302.114
302.67
303.451
304.528
300.111
300.321
300.509
300.67
300.8
300.902
300.984
301.055
301.116
301.172
301.223
301.27
301.311
301.348
301.378
301.403
301.421
301.432
301.437
301.436
301.43
301.418
301.402
301.383
301.363
301.347
301.342
301.359
301.421
301.559
301.812
302.212
302.771
303.555
304.634
300.115
300.333
300.528
300.694
300.828
300.933
301.017
301.089
301.153
301.211
301.264
301.312
301.355
301.393
301.424
301.449
301.468
301.479
301.484
301.482
301.475
301.462
301.444
301.425
301.405
301.391
301.388
301.412
301.482
301.631
301.896
302.303
302.865
303.654
304.734
300.119
300.345
300.546
300.718
300.855
300.963
301.049
301.123
301.189
301.249
301.303
301.353
301.398
301.437
301.47
301.496
301.514
301.526
301.53
301.528
301.519
301.505
301.487
301.467
301.447
301.434
301.435
301.463
301.542
301.7
301.976
302.389
302.956
303.75
304.832
300.123
300.355
300.563
300.74
300.881
300.99
301.079
301.155
301.222
301.284
301.341
301.392
301.439
301.479
301.513
301.539
301.558
301.57
301.574
301.571
301.562
301.547
301.529
301.508
301.489
301.477
301.48
301.513
301.599
301.767
302.052
302.471
303.042
303.841
304.924
300.127
300.366
300.58
300.761
300.905
301.017
301.108
301.185
301.255
301.319
301.377
301.431
301.478
301.52
301.555
301.582
301.601
301.613
301.617
301.614
301.605
301.589
301.57
301.549
301.53
301.519
301.525
301.563
301.656
301.832
302.125
302.551
303.126
303.93
305.015
300.13
300.376
300.595
300.781
300.929
301.043
301.135
301.215
301.286
301.352
301.412
301.467
301.516
301.559
301.595
301.623
301.643
301.655
301.659
301.656
301.646
301.631
301.611
301.59
301.571
301.562
301.57
301.613
301.711
301.896
302.197
302.627
303.207
304.015
305.101
300.134
300.386
300.611
300.801
300.951
301.068
301.162
301.243
301.317
301.384
301.446
301.503
301.553
301.597
301.634
301.663
301.683
301.696
301.7
301.697
301.687
301.671
301.652
301.631
301.612
301.604
301.615
301.662
301.767
301.959
302.268
302.703
303.286
304.099
305.186
300.137
300.396
300.626
300.821
300.974
301.092
301.188
301.271
301.346
301.415
301.479
301.537
301.589
301.634
301.672
301.701
301.723
301.736
301.74
301.738
301.728
301.712
301.692
301.671
301.654
301.646
301.66
301.711
301.822
302.021
302.337
302.776
303.362
304.179
305.268
300.14
300.405
300.641
300.84
300.995
301.116
301.213
301.298
301.375
301.446
301.511
301.571
301.624
301.67
301.708
301.739
301.761
301.774
301.78
301.777
301.768
301.752
301.732
301.712
301.695
301.689
301.705
301.76
301.876
302.083
302.405
302.848
303.437
304.258
305.349
300.144
300.415
300.656
300.858
301.017
301.139
301.238
301.325
301.403
301.476
301.542
301.603
301.658
301.705
301.744
301.775
301.798
301.812
301.818
301.816
301.807
301.792
301.772
301.752
301.736
301.732
301.751
301.809
301.931
302.144
302.472
302.918
303.51
304.335
305.427
300.147
300.424
300.67
300.877
301.037
301.161
301.263
301.351
301.431
301.505
301.573
301.635
301.691
301.739
301.779
301.811
301.835
301.85
301.856
301.855
301.846
301.831
301.812
301.793
301.778
301.775
301.796
301.859
301.986
302.205
302.539
302.988
303.582
304.41
305.503
300.15
300.433
300.685
300.895
301.058
301.184
301.286
301.376
301.458
301.533
301.603
301.666
301.723
301.772
301.813
301.846
301.87
301.886
301.893
301.893
301.885
301.87
301.852
301.833
301.819
301.818
301.842
301.908
302.041
302.265
302.605
303.056
303.652
304.484
305.578
300.153
300.443
300.699
300.913
301.078
301.205
301.31
301.401
301.484
301.561
301.632
301.697
301.754
301.805
301.847
301.88
301.905
301.922
301.93
301.93
301.923
301.909
301.892
301.874
301.861
301.862
301.888
301.958
302.096
302.326
302.67
303.124
303.722
304.557
305.652
300.157
300.452
300.713
300.93
301.098
301.227
301.332
301.425
301.51
301.588
301.661
301.727
301.785
301.837
301.879
301.914
301.94
301.957
301.966
301.967
301.961
301.948
301.932
301.915
301.903
301.905
301.934
302.008
302.15
302.386
302.735
303.191
303.79
304.628
305.724
300.16
300.461
300.727
300.948
301.117
301.247
301.355
301.449
301.536
301.615
301.689
301.756
301.816
301.868
301.912
301.947
301.973
301.991
302.001
302.003
301.998
301.986
301.971
301.955
301.945
301.949
301.981
302.059
302.205
302.447
302.8
303.257
303.858
304.698
305.795
300.163
300.47
300.741
300.965
301.137
301.268
301.377
301.473
301.561
301.642
301.717
301.785
301.846
301.899
301.943
301.979
302.006
302.025
302.036
302.039
302.035
302.025
302.01
301.996
301.987
301.993
302.028
302.109
302.261
302.507
302.864
303.323
303.925
304.767
305.865
300.166
300.479
300.754
300.982
301.155
301.289
301.399
301.496
301.585
301.668
301.744
301.813
301.875
301.929
301.974
302.011
302.039
302.059
302.07
302.074
302.071
302.062
302.049
302.036
302.029
302.037
302.075
302.16
302.316
302.567
302.928
303.388
303.991
304.835
305.934
300.169
300.487
300.768
300.999
301.174
301.309
301.42
301.519
301.61
301.694
301.771
301.842
301.904
301.959
302.005
302.043
302.071
302.092
302.104
302.109
302.107
302.1
302.088
302.077
302.071
302.082
302.122
302.211
302.371
302.627
302.992
303.453
304.057
304.903
306.001
300.172
300.496
300.781
301.015
301.193
301.329
301.442
301.542
301.634
301.719
301.798
301.87
301.933
301.989
302.036
302.074
302.103
302.125
302.138
302.144
302.143
302.137
302.127
302.117
302.113
302.126
302.169
302.262
302.427
302.687
303.055
303.517
304.121
304.969
306.068
300.175
300.505
300.795
301.032
301.211
301.348
301.463
301.565
301.658
301.745
301.825
301.897
301.962
302.018
302.066
302.105
302.135
302.157
302.171
302.178
302.179
302.174
302.165
302.157
302.156
302.171
302.217
302.313
302.483
302.747
303.118
303.581
304.185
305.034
306.133
300.178
300.513
300.808
301.048
301.229
301.368
301.484
301.587
301.682
301.77
301.851
301.925
301.991
302.048
302.096
302.135
302.166
302.189
302.204
302.212
302.214
302.21
302.203
302.197
302.198
302.215
302.265
302.365
302.539
302.808
303.181
303.645
304.249
305.098
306.198
300.181
300.522
300.821
301.064
301.247
301.387
301.505
301.61
301.706
301.795
301.878
301.952
302.019
302.077
302.126
302.166
302.197
302.221
302.237
302.246
302.248
302.246
302.241
302.237
302.24
302.26
302.312
302.416
302.594
302.867
303.243
303.707
304.311
305.162
306.261
300.184
300.53
300.834
301.08
301.265
301.407
301.526
301.632
301.73
301.82
301.904
301.98
302.047
302.106
302.155
302.196
302.228
302.252
302.269
302.279
302.283
302.282
302.279
302.276
302.282
302.305
302.36
302.468
302.65
302.927
303.306
303.769
304.373
305.224
306.323
300.187
300.539
300.847
301.096
301.282
301.426
301.546
301.654
301.753
301.845
301.93
302.007
302.075
302.135
302.185
302.226
302.259
302.284
302.301
302.312
302.317
302.318
302.316
302.316
302.323
302.349
302.408
302.52
302.706
302.987
303.367
303.831
304.434
305.285
306.384
300.19
300.547
300.859
301.112
301.3
301.445
301.567
301.676
301.777
301.87
301.956
302.034
302.103
302.164
302.214
302.256
302.29
302.315
302.333
302.345
302.351
302.353
302.353
302.355
302.365
302.394
302.456
302.571
302.761
303.046
303.428
303.891
304.494
305.345
306.444
300.193
300.555
300.872
301.127
301.317
301.464
301.587
301.698
301.8
301.895
301.982
302.061
302.131
302.192
302.244
302.286
302.32
302.346
302.365
302.378
302.385
302.389
302.39
302.394
302.406
302.438
302.504
302.622
302.817
303.104
303.488
303.951
304.554
305.405
306.502
300.196
300.563
300.885
301.143
301.335
301.482
301.607
301.72
301.824
301.92
302.008
302.088
302.159
302.221
302.273
302.316
302.35
302.377
302.397
302.41
302.419
302.424
302.427
302.433
302.448
302.482
302.551
302.674
302.872
303.163
303.548
304.011
304.612
305.463
306.56
300.199
300.572
300.897
301.158
301.352
301.501
301.628
301.742
301.847
301.945
302.034
302.115
302.187
302.249
302.302
302.346
302.381
302.408
302.428
302.443
302.452
302.458
302.463
302.471
302.489
302.526
302.599
302.725
302.927
303.221
303.608
304.069
304.67
305.521
306.617
300.202
300.58
300.91
301.174
301.369
301.52
301.648
301.764
301.87
301.969
302.06
302.142
302.215
302.278
302.331
302.375
302.411
302.439
302.459
302.475
302.485
302.493
302.5
302.51
302.53
302.57
302.646
302.776
302.981
303.278
303.666
304.127
304.727
305.577
306.673
300.205
300.588
300.923
301.189
301.386
301.539
301.668
301.786
301.894
301.994
302.086
302.169
302.243
302.306
302.36
302.405
302.441
302.469
302.491
302.507
302.518
302.527
302.536
302.548
302.571
302.614
302.693
302.827
303.036
303.335
303.724
304.185
304.783
305.633
306.728
300.207
300.596
300.935
301.205
301.404
301.557
301.689
301.807
301.917
302.019
302.112
302.196
302.271
302.335
302.389
302.434
302.471
302.5
302.522
302.539
302.551
302.562
302.572
302.586
302.611
302.658
302.74
302.877
303.09
303.392
303.782
304.241
304.838
305.688
306.782
300.21
300.605
300.948
301.22
301.421
301.576
301.709
301.829
301.941
302.044
302.138
302.223
302.298
302.363
302.418
302.464
302.501
302.53
302.553
302.57
302.584
302.596
302.607
302.624
302.651
302.701
302.787
302.928
303.143
303.448
303.838
304.297
304.893
305.741
306.836
300.213
300.613
300.96
301.236
301.438
301.595
301.729
301.851
301.964
302.068
302.164
302.25
302.326
302.392
302.447
302.493
302.531
302.56
302.584
302.602
302.617
302.629
302.643
302.661
302.692
302.744
302.833
302.977
303.196
303.503
303.894
304.352
304.946
305.794
306.888
300.216
300.621
300.973
301.251
301.455
301.614
301.75
301.873
301.987
302.093
302.19
302.277
302.354
302.42
302.476
302.523
302.56
302.591
302.615
302.634
302.649
302.663
302.678
302.699
302.731
302.787
302.879
303.027
303.249
303.558
303.949
304.406
304.999
305.846
306.939
300.219
300.629
300.986
301.266
301.472
301.632
301.77
301.895
302.011
302.118
302.216
302.305
302.382
302.449
302.505
302.552
302.59
302.621
302.645
302.665
302.682
302.697
302.713
302.736
302.771
302.829
302.925
303.076
303.301
303.612
304.004
304.459
305.051
305.897
306.989
300.222
300.638
300.998
301.282
301.49
301.651
301.79
301.917
302.035
302.143
302.243
302.332
302.41
302.477
302.534
302.581
302.62
302.651
302.676
302.696
302.714
302.73
302.748
302.773
302.81
302.871
302.97
303.124
303.352
303.666
304.057
304.511
305.102
305.947
307.039
300.225
300.646
301.011
301.297
301.507
301.67
301.811
301.939
302.058
302.169
302.269
302.359
302.438
302.506
302.563
302.611
302.649
302.681
302.706
302.728
302.746
302.763
302.783
302.809
302.849
302.913
303.015
303.172
303.403
303.718
304.11
304.562
305.152
305.996
307.087
300.228
300.654
301.023
301.312
301.524
301.689
301.831
301.961
302.082
302.194
302.296
302.387
302.466
302.535
302.592
302.64
302.679
302.711
302.737
302.759
302.778
302.796
302.817
302.846
302.888
302.954
303.059
303.22
303.453
303.77
304.162
304.613
305.201
306.044
307.134
300.23
300.662
301.036
301.328
301.541
301.707
301.852
301.984
302.106
302.219
302.322
302.414
302.494
302.563
302.621
302.669
302.709
302.741
302.767
302.79
302.81
302.829
302.852
302.882
302.926
302.996
303.103
303.267
303.503
303.821
304.213
304.662
305.249
306.091
307.181
300.233
300.67
301.048
301.343
301.558
301.726
301.872
302.006
302.13
302.245
302.349
302.442
302.523
302.592
302.65
302.699
302.738
302.771
302.798
302.821
302.842
302.862
302.886
302.918
302.965
303.036
303.147
303.313
303.552
303.872
304.263
304.711
305.296
306.137
307.226
300.236
300.678
301.06
301.358
301.575
301.745
301.893
302.028
302.154
302.27
302.376
302.469
302.551
302.621
302.679
302.728
302.768
302.801
302.828
302.852
302.873
302.895
302.92
302.954
303.003
303.077
303.19
303.359
303.6
303.921
304.312
304.758
305.342
306.183
307.271
300.239
300.687
301.073
301.373
301.592
301.764
301.914
302.051
302.178
302.296
302.403
302.497
302.58
302.65
302.708
302.757
302.797
302.831
302.859
302.883
302.905
302.928
302.955
302.99
303.04
303.117
303.233
303.405
303.648
303.97
304.36
304.805
305.387
306.227
307.315
300.242
300.695
301.085
301.389
301.61
301.783
301.934
302.073
302.203
302.322
302.43
302.525
302.608
302.679
302.738
302.787
302.827
302.861
302.889
302.914
302.937
302.961
302.989
303.025
303.078
303.157
303.276
303.45
303.695
304.018
304.407
304.851
305.431
306.27
307.358
300.245
300.703
301.098
301.404
301.627
301.802
301.955
302.096
302.227
302.348
302.457
302.553
302.637
302.707
302.767
302.816
302.857
302.89
302.919
302.945
302.968
302.993
303.023
303.061
303.116
303.197
303.318
303.495
303.742
304.066
304.454
304.896
305.475
306.313
307.4
300.248
300.711
301.11
301.419
301.644
301.821
301.976
302.119
302.252
302.374
302.484
302.582
302.665
302.737
302.796
302.845
302.886
302.92
302.949
302.975
303
303.026
303.056
303.097
303.153
303.237
303.36
303.539
303.788
304.113
304.5
304.94
305.517
306.355
307.442
300.251
300.719
301.123
301.435
301.662
301.84
301.997
302.142
302.277
302.401
302.512
302.61
302.694
302.766
302.825
302.875
302.916
302.95
302.98
303.006
303.032
303.058
303.09
303.132
303.191
303.276
303.402
303.583
303.834
304.159
304.546
304.984
305.56
306.397
307.484
300.253
300.728
301.136
301.45
301.679
301.86
302.019
302.166
302.302
302.427
302.54
302.639
302.723
302.795
302.855
302.904
302.945
302.98
303.01
303.037
303.063
303.091
303.124
303.167
303.228
303.316
303.444
303.628
303.88
304.206
304.59
305.027
305.601
306.438
307.525
300.256
300.736
301.149
301.466
301.697
301.879
302.04
302.189
302.328
302.454
302.568
302.667
302.752
302.824
302.884
302.934
302.975
303.01
303.04
303.067
303.094
303.123
303.158
303.203
303.265
303.356
303.486
303.672
303.925
304.251
304.635
305.07
305.643
306.479
307.566
300.259
300.744
301.161
301.482
301.715
301.899
302.062
302.213
302.353
302.482
302.596
302.696
302.782
302.854
302.914
302.963
303.004
303.04
303.07
303.098
303.126
303.156
303.192
303.238
303.303
303.395
303.528
303.715
303.971
304.297
304.679
305.112
305.684
306.519
307.607
300.262
300.753
301.174
301.498
301.733
301.919
302.085
302.237
302.38
302.509
302.625
302.726
302.811
302.883
302.943
302.993
303.034
303.069
303.1
303.129
303.157
303.188
303.226
303.274
303.34
303.435
303.57
303.759
304.016
304.342
304.723
305.154
305.724
306.56
307.648
300.265
300.761
301.188
301.514
301.751
301.94
302.107
302.262
302.406
302.537
302.654
302.755
302.841
302.913
302.973
303.022
303.064
303.099
303.13
303.16
303.189
303.221
303.259
303.309
303.378
303.474
303.612
303.803
304.061
304.387
304.767
305.196
305.765
306.6
307.688
300.268
300.77
301.201
301.531
301.77
301.961
302.13
302.287
302.433
302.566
302.683
302.785
302.871
302.943
303.003
303.052
303.094
303.129
303.161
303.19
303.22
303.253
303.293
303.345
303.415
303.514
303.654
303.847
304.107
304.433
304.81
305.237
305.806
306.64
307.729
300.271
300.779
301.215
301.548
301.789
301.982
302.153
302.313
302.461
302.595
302.713
302.815
302.902
302.973
303.033
303.082
303.123
303.159
303.191
303.221
303.252
303.286
303.327
303.38
303.453
303.554
303.696
303.891
304.152
304.478
304.853
305.279
305.846
306.681
307.769
300.275
300.788
301.229
301.565
301.808
302.003
302.177
302.339
302.488
302.624
302.743
302.846
302.932
303.004
303.063
303.112
303.153
303.189
303.221
303.252
303.283
303.318
303.361
303.416
303.49
303.594
303.738
303.936
304.197
304.523
304.897
305.32
305.886
306.721
307.81
300.278
300.797
301.243
301.582
301.828
302.025
302.201
302.365
302.517
302.654
302.774
302.877
302.963
303.034
303.093
303.142
303.183
303.219
303.251
303.282
303.315
303.351
303.395
303.451
303.528
303.634
303.78
303.98
304.243
304.568
304.94
305.362
305.927
306.761
307.851
300.281
300.807
301.257
301.599
301.848
302.047
302.226
302.392
302.546
302.684
302.805
302.908
302.994
303.065
303.123
303.172
303.213
303.249
303.281
303.313
303.346
303.383
303.429
303.487
303.566
303.674
303.822
304.024
304.288
304.613
304.983
305.403
305.968
306.802
307.892
300.284
300.816
301.272
301.617
301.868
302.07
302.251
302.42
302.575
302.715
302.836
302.939
303.025
303.096
303.154
303.202
303.243
303.279
303.312
303.344
303.377
303.416
303.462
303.523
303.603
303.714
303.865
304.069
304.334
304.658
305.026
305.445
306.008
306.843
307.933
300.288
300.826
301.286
301.635
301.889
302.093
302.277
302.448
302.605
302.746
302.868
302.971
303.057
303.127
303.185
303.233
303.273
303.309
303.342
303.374
303.409
303.448
303.496
303.558
303.641
303.754
303.907
304.113
304.38
304.704
305.07
305.486
306.049
306.883
307.974
300.291
300.836
301.302
301.654
301.91
302.116
302.303
302.476
302.636
302.778
302.9
303.003
303.088
303.158
303.215
303.263
303.303
303.339
303.372
303.405
303.44
303.481
303.53
303.594
303.679
303.794
303.95
304.158
304.425
304.748
305.113
305.528
306.09
306.924
308.015
300.295
300.846
301.317
301.673
301.931
302.14
302.329
302.505
302.667
302.81
302.933
303.036
303.121
303.19
303.246
303.293
303.334
303.369
303.403
303.436
303.472
303.514
303.564
303.63
303.717
303.834
303.992
304.202
304.471
304.793
305.156
305.569
306.131
306.965
308.056
300.298
300.856
301.333
301.692
301.953
302.165
302.357
302.535
302.699
302.843
302.966
303.069
303.153
303.222
303.278
303.324
303.364
303.4
303.433
303.467
303.504
303.546
303.598
303.666
303.755
303.874
304.035
304.247
304.516
304.838
305.198
305.61
306.171
307.005
308.096
300.302
300.867
301.349
301.712
301.975
302.19
302.385
302.566
302.731
302.877
303
303.103
303.186
303.254
303.309
303.355
303.394
303.43
303.464
303.498
303.535
303.579
303.633
303.702
303.793
303.915
304.078
304.291
304.562
304.883
305.241
305.652
306.212
307.046
308.137
300.306
300.877
301.365
301.732
301.998
302.215
302.413
302.597
302.764
302.911
303.035
303.136
303.219
303.286
303.341
303.386
303.425
303.46
303.494
303.529
303.567
303.612
303.667
303.737
303.831
303.955
304.12
304.336
304.607
304.927
305.284
305.693
306.252
307.087
308.178
300.31
300.888
301.382
301.752
302.021
302.241
302.442
302.629
302.798
302.946
303.069
303.171
303.253
303.319
303.372
303.417
303.456
303.491
303.525
303.56
303.599
303.644
303.701
303.773
303.869
303.995
304.163
304.381
304.652
304.972
305.326
305.734
306.293
307.127
308.219
300.313
300.9
301.399
301.773
302.045
302.268
302.472
302.662
302.833
302.981
303.105
303.205
303.286
303.352
303.404
303.448
303.487
303.521
303.555
303.591
303.63
303.677
303.735
303.809
303.907
304.036
304.206
304.425
304.697
305.016
305.368
305.775
306.334
307.168
308.259
300.317
300.911
301.416
301.794
302.069
302.295
302.502
302.695
302.868
303.017
303.14
303.24
303.32
303.385
303.437
303.48
303.518
303.552
303.586
303.622
303.662
303.71
303.769
303.845
303.945
304.076
304.248
304.469
304.742
305.06
305.411
305.816
306.374
307.208
308.3
300.321
300.922
301.434
301.816
302.093
302.323
302.533
302.729
302.903
303.053
303.176
303.276
303.355
303.418
303.469
303.511
303.549
303.583
303.617
303.653
303.694
303.743
303.804
303.881
303.983
304.117
304.291
304.513
304.787
305.103
305.452
305.856
306.414
307.248
308.34
300.326
300.934
301.452
301.838
302.118
302.351
302.565
302.763
302.94
303.09
303.213
303.311
303.389
303.451
303.501
303.543
303.58
303.614
303.648
303.684
303.726
303.776
303.838
303.918
304.021
304.157
304.334
304.558
304.831
305.147
305.494
305.897
306.455
307.288
308.38
300.33
300.946
301.47
301.86
302.144
302.38
302.598
302.799
302.977
303.127
303.25
303.347
303.424
303.485
303.534
303.575
303.611
303.645
303.679
303.716
303.758
303.809
303.872
303.954
304.059
304.198
304.376
304.602
304.876
305.19
305.535
305.937
306.494
307.328
308.42
300.334
300.958
301.489
301.883
302.17
302.41
302.632
302.835
303.015
303.166
303.288
303.384
303.459
303.519
303.567
303.607
303.642
303.676
303.71
303.747
303.79
303.842
303.907
303.99
304.098
304.238
304.419
304.646
304.92
305.233
305.577
305.977
306.535
307.368
308.46
300.338
300.971
301.508
301.906
302.198
302.441
302.666
302.873
303.054
303.205
303.326
303.421
303.495
303.553
303.6
303.639
303.674
303.707
303.741
303.779
303.822
303.875
303.941
304.026
304.136
304.278
304.461
304.689
304.963
305.275
305.617
306.016
306.574
307.407
308.498
300.343
300.983
301.528
301.931
302.226
302.473
302.702
302.912
303.095
303.245
303.365
303.459
303.531
303.588
303.633
303.672
303.706
303.739
303.772
303.81
303.854
303.908
303.975
304.062
304.174
304.319
304.503
304.733
305.007
305.318
305.658
306.056
306.614
307.447
308.538
300.347
300.997
301.548
301.956
302.255
302.506
302.739
302.952
303.136
303.287
303.406
303.497
303.568
303.623
303.667
303.704
303.738
303.77
303.804
303.842
303.886
303.941
304.01
304.098
304.212
304.359
304.545
304.776
305.05
305.36
305.698
306.095
306.652
307.485
308.576
300.352
301.01
301.569
301.982
302.285
302.541
302.778
302.994
303.179
303.329
303.447
303.536
303.605
303.658
303.701
303.737
303.77
303.802
303.835
303.873
303.918
303.974
304.044
304.134
304.25
304.399
304.588
304.819
305.094
305.402
305.738
306.135
306.691
307.524
308.614
300.357
301.024
301.591
302.009
302.316
302.576
302.818
303.037
303.223
303.373
303.488
303.576
303.643
303.694
303.736
303.77
303.802
303.833
303.867
303.905
303.951
304.007
304.078
304.17
304.288
304.439
304.629
304.862
305.136
305.443
305.778
306.173
306.729
307.561
308.651
300.362
301.039
301.613
302.036
302.348
302.613
302.859
303.081
303.268
303.417
303.531
303.617
303.681
303.731
303.77
303.804
303.835
303.866
303.899
303.937
303.983
304.04
304.113
304.206
304.326
304.479
304.671
304.905
305.178
305.484
305.817
306.212
306.768
307.599
308.689
300.367
301.054
301.636
302.065
302.381
302.651
302.902
303.127
303.314
303.463
303.575
303.658
303.72
303.768
303.806
303.838
303.868
303.898
303.931
303.969
304.015
304.073
304.147
304.242
304.364
304.518
304.712
304.946
305.22
305.524
305.855
306.249
306.805
307.636
308.724
300.373
301.07
301.66
302.094
302.415
302.69
302.946
303.173
303.362
303.509
303.619
303.7
303.76
303.805
303.841
303.872
303.901
303.931
303.963
304.001
304.048
304.107
304.182
304.278
304.402
304.558
304.753
304.988
305.261
305.564
305.894
306.287
306.842
307.673
308.761
300.378
301.086
301.685
302.125
302.45
302.73
302.991
303.221
303.41
303.556
303.664
303.743
303.8
303.843
303.878
303.907
303.935
303.963
303.996
304.034
304.081
304.14
304.216
304.314
304.439
304.597
304.793
305.029
305.301
305.602
305.931
306.323
306.878
307.708
308.795
300.384
301.102
301.71
302.156
302.486
302.771
303.036
303.269
303.459
303.603
303.709
303.785
303.841
303.882
303.914
303.942
303.969
303.997
304.028
304.066
304.114
304.174
304.251
304.35
304.477
304.637
304.834
305.07
305.342
305.642
305.969
306.359
306.914
307.743
308.83
300.39
301.119
301.736
302.187
302.523
302.814
303.084
303.319
303.509
303.652
303.755
303.829
303.881
303.92
303.951
303.977
304.003
304.03
304.061
304.099
304.147
304.207
304.285
304.386
304.514
304.675
304.873
305.11
305.381
305.679
306.004
306.394
306.949
307.777
308.862
300.396
301.136
301.762
302.22
302.56
302.857
303.132
303.37
303.559
303.701
303.802
303.873
303.923
303.959
303.988
304.013
304.038
304.064
304.095
304.132
304.18
304.241
304.32
304.422
304.551
304.714
304.913
305.15
305.42
305.717
306.041
306.43
306.984
307.811
308.896
300.402
301.154
301.789
302.253
302.6
302.902
303.182
303.422
303.611
303.751
303.849
303.917
303.964
303.999
304.026
304.049
304.072
304.098
304.128
304.166
304.213
304.275
304.354
304.457
304.588
304.751
304.952
305.188
305.458
305.753
306.075
306.463
307.017
307.843
308.927
300.408
301.172
301.817
302.288
302.64
302.949
303.233
303.476
303.665
303.802
303.897
303.962
304.007
304.039
304.064
304.086
304.108
304.132
304.162
304.199
304.247
304.309
304.39
304.493
304.625
304.79
304.991
305.228
305.496
305.79
306.111
306.497
307.051
307.876
308.959
300.415
301.191
301.846
302.324
302.682
302.997
303.286
303.531
303.719
303.854
303.946
304.008
304.05
304.079
304.102
304.123
304.143
304.167
304.196
304.233
304.281
304.343
304.424
304.529
304.661
304.827
305.028
305.265
305.532
305.824
306.143
306.529
307.082
307.907
308.988
300.422
301.211
301.876
302.361
302.725
303.047
303.341
303.588
303.775
303.908
303.996
304.055
304.093
304.12
304.141
304.16
304.18
304.203
304.231
304.268
304.316
304.378
304.46
304.565
304.699
304.865
305.067
305.304
305.57
305.86
306.178
306.563
307.115
307.939
309.02
300.429
301.231
301.907
302.399
302.77
303.098
303.398
303.646
303.833
303.962
304.047
304.102
304.137
304.162
304.18
304.198
304.216
304.238
304.266
304.302
304.35
304.413
304.495
304.601
304.735
304.902
305.104
305.34
305.604
305.893
306.209
306.593
307.145
307.968
309.048
300.436
301.252
301.939
302.438
302.816
303.151
303.456
303.706
303.891
304.018
304.099
304.15
304.182
304.204
304.221
304.236
304.253
304.274
304.301
304.337
304.385
304.448
304.531
304.638
304.773
304.94
305.143
305.378
305.641
305.928
306.243
306.626
307.177
308
309.079
300.444
301.273
301.971
302.478
302.863
303.205
303.515
303.767
303.951
304.074
304.152
304.199
304.228
304.247
304.261
304.275
304.291
304.311
304.337
304.373
304.42
304.483
304.566
304.673
304.809
304.977
305.179
305.413
305.675
305.96
306.273
306.655
307.206
308.028
309.107
300.451
301.295
302.005
302.52
302.912
303.261
303.576
303.829
304.012
304.132
304.206
304.249
304.274
304.29
304.302
304.314
304.329
304.348
304.374
304.409
304.457
304.52
304.603
304.711
304.847
305.015
305.217
305.451
305.711
305.994
306.306
306.688
307.238
308.059
309.137
300.459
301.318
302.039
302.562
302.962
303.318
303.638
303.893
304.074
304.191
304.26
304.299
304.321
304.334
304.344
304.354
304.367
304.385
304.41
304.445
304.492
304.556
304.639
304.747
304.883
305.052
305.253
305.485
305.744
306.025
306.336
306.716
307.266
308.086
309.164
300.467
301.341
302.074
302.606
303.013
303.377
303.702
303.958
304.137
304.25
304.315
304.35
304.368
304.378
304.386
304.394
304.406
304.423
304.448
304.482
304.53
304.593
304.677
304.785
304.922
305.091
305.292
305.523
305.78
306.06
306.369
306.749
307.298
308.118
309.195
300.476
301.365
302.11
302.65
303.065
303.437
303.767
304.024
304.202
304.311
304.372
304.402
304.416
304.423
304.428
304.435
304.445
304.461
304.485
304.519
304.566
304.63
304.714
304.822
304.959
305.127
305.327
305.557
305.813
306.09
306.398
306.777
307.326
308.145
309.221
300.484
301.389
302.147
302.696
303.119
303.499
303.834
304.092
304.268
304.373
304.429
304.455
304.465
304.469
304.472
304.477
304.486
304.501
304.524
304.558
304.605
304.668
304.752
304.861
304.998
305.167
305.366
305.595
305.849
306.125
306.431
306.809
307.358
308.177
309.253
300.493
301.414
302.185
302.743
303.174
303.562
303.902
304.162
304.335
304.437
304.488
304.509
304.515
304.516
304.516
304.518
304.526
304.54
304.562
304.595
304.642
304.706
304.79
304.898
305.035
305.203
305.402
305.629
305.881
306.155
306.459
306.837
307.386
308.203
309.28
300.502
301.44
302.224
302.791
303.231
303.627
303.972
304.233
304.405
304.502
304.548
304.564
304.566
304.563
304.56
304.561
304.567