/*--------------------------------*- C++ -*----------------------------------*\
| =========                 |                                                 |
| \\      /  F ield         | OpenFOAM: The Open Source CFD Toolbox           |
|  \\    /   O peration     | Version:  v2006                                 |
|   \\  /    A nd           | Website:  www.openfoam.com                      |
|    \\/     M anipulation  |                                                 |
\*---------------------------------------------------------------------------*/
FoamFile
{
    version     2.0;
    format      ascii;
    class       volVectorField;
    location    "56";
    object      U;
}
// * * * * * * * * * * * * * * * * * * * * * * * * * * * * * * * * * * * * * //

dimensions      [0 1 -1 0 0 0 0];


internalField   nonuniform List<vector> 
78750
(
(-0.00782327 -0.00211351 0.00180299)
(-0.00767065 -0.00699826 0.00219144)
(-0.00634999 -0.00878877 0.00229001)
(-0.00409828 -0.0095835 0.00231568)
(-0.00223366 -0.00982938 0.00230113)
(-0.000218998 -0.00967868 0.00226568)
(0.00186947 -0.00925538 0.00220611)
(0.00393294 -0.0086372 0.00212235)
(0.00590578 -0.00787671 0.00201567)
(0.00774569 -0.00701309 0.0018872)
(0.0094218 -0.00607681 0.0017378)
(0.0109113 -0.00509214 0.00156822)
(0.0121984 -0.0040792 0.00137926)
(0.0132716 -0.00305556 0.00117193)
(0.0141202 -0.00203597 0.000946862)
(0.0147375 -0.00103389 0.00070489)
(0.0151268 -6.42567e-05 0.000447647)
(0.0153036 0.000856016 0.000175972)
(0.0152675 0.00170684 -0.000110909)
(0.0150153 0.00247135 -0.00041053)
(0.0145761 0.00313079 -0.000721084)
(0.0139826 0.00366418 -0.00104168)
(0.0132682 0.00405077 -0.00137255)
(0.0124711 0.00427227 -0.00171527)
(0.0116338 0.00431787 -0.00207255)
(0.0108019 0.00419098 -0.00244706)
(0.0100189 0.00391696 -0.00283955)
(0.00931815 0.00355322 -0.0032473)
(0.00870975 0.00320566 -0.00366331)
(0.00816045 0.00305495 -0.0040722)
(0.00756422 0.0033855 -0.00443177)
(0.00670881 0.00456866 -0.00462099)
(0.00528951 0.00677666 -0.00436071)
(0.00319041 0.00894528 -0.00324501)
(0.000819915 0.00702176 -0.00110918)
(-0.00032054 0.000461263 0.00203988)
(-0.000114173 -0.00814642 0.00296356)
(-7.27455e-05 -0.0142273 0.00327848)
(0.000219404 -0.0184053 0.00324561)
(0.000691827 -0.0208136 0.00311368)
(0.00134364 -0.0218513 0.00298412)
(0.0021133 -0.021933 0.00286089)
(0.00296734 -0.0213327 0.00274155)
(0.00387936 -0.0202287 0.00262431)
(0.00482167 -0.0187461 0.00250571)
(0.00576792 -0.0169752 0.00238154)
(0.00669339 -0.0149835 0.00224728)
(0.0075747 -0.0128237 0.00209841)
(0.00838985 -0.0105398 0.00193044)
(0.00911792 -0.00817157 0.00173931)
(0.00973946 -0.00575814 0.00152142)
(0.0102368 -0.00334078 0.00127415)
(0.0105914 -0.000962347 0.000997066)
(0.0108145 0.0013301 0.000691597)
(0.0109147 0.00348672 0.00036004)
(0.0108807 0.00545551 7.41358e-06)
(0.0107164 0.00717898 -0.000359908)
(0.0104282 0.00859924 -0.000735031)
(0.0100253 0.00966168 -0.00111189)
(0.00952518 0.010324 -0.00148759)
(0.00895084 0.010573 -0.00186503)
(0.0083266 0.0104542 -0.00225464)
(0.00767247 0.0101183 -0.00267375)
(0.00699371 0.0098866 -0.00313996)
(0.00627437 0.0103095 -0.00364899)
(0.00545148 0.0121485 -0.00413239)
(0.00441349 0.0160834 -0.00439414)
(0.00307533 0.0215616 -0.00409257)
(0.00157001 0.0248686 -0.00293863)
(0.000165046 0.0173508 -0.00095318)
(2.19649e-05 -0.000967963 0.00154432)
(0.000280869 -0.00720469 0.00272704)
(0.000384181 -0.0124269 0.00338124)
(0.00056806 -0.0167574 0.00367714)
(0.00082593 -0.0200197 0.00377161)
(0.00118934 -0.0221955 0.00380698)
(0.00165897 -0.0234621 0.00383694)
(0.00220334 -0.0239827 0.00386175)
(0.00281095 -0.0238614 0.00388499)
(0.00346739 -0.023184 0.00390685)
(0.0041568 -0.0220209 0.0039257)
(0.00486308 -0.0204316 0.00393881)
(0.00556776 -0.0184656 0.00394322)
(0.00625125 -0.0161723 0.00393321)
(0.00689682 -0.0135971 0.00390303)
(0.0074887 -0.0107865 0.00384498)
(0.00800747 -0.00780672 0.00374585)
(0.0084364 -0.00473557 0.00359223)
(0.00876141 -0.00164822 0.0033752)
(0.00897719 0.00137735 0.00309153)
(0.00908339 0.00427969 0.00274647)
(0.009072 0.00699155 0.0023465)
(0.00893965 0.00942389 0.00190024)
(0.00869144 0.0114941 0.00142065)
(0.00833203 0.0131331 0.000920011)
(0.00786792 0.0143058 0.00040845)
(0.00730445 0.0150562 -0.000112322)
(0.00664816 0.0155721 -0.000655161)
(0.00590702 0.0162622 -0.00124499)
(0.00508264 0.0177991 -0.0018974)
(0.00415341 0.0210407 -0.00256919)
(0.00310118 0.0263878 -0.00306039)
(0.00197496 0.0323171 -0.00300912)
(0.00091183 0.0340096 -0.0021673)
(8.62988e-05 0.0217315 -0.000635293)
(-8.17694e-06 -0.0035969 0.00141921)
(0.00027904 -0.0120863 0.00277972)
(0.00065256 -0.0188266 0.00352695)
(0.00115151 -0.0241032 0.00386409)
(0.00173012 -0.0280196 0.00395047)
(0.00233949 -0.0306225 0.00392169)
(0.00299042 -0.0321138 0.00387825)
(0.00367342 -0.0327195 0.00384996)
(0.00435587 -0.0325967 0.00383559)
(0.0050332 -0.0318505 0.00383657)
(0.00570063 -0.0305665 0.00385238)
(0.00634914 -0.0288081 0.00388349)
(0.00697536 -0.026601 0.00393717)
(0.00757382 -0.0239617 0.00401729)
(0.00812839 -0.0209446 0.0041155)
(0.00862578 -0.0176167 0.00422028)
(0.0090566 -0.014039 0.00432039)
(0.00941077 -0.0102741 0.00440297)
(0.0096764 -0.00639098 0.00445259)
(0.00984111 -0.00246978 0.00445121)
(0.00989545 0.00139322 0.00437963)
(0.00982654 0.00508654 0.00421999)
(0.00962481 0.00848792 0.00396209)
(0.00929677 0.0114918 0.00361085)
(0.00884997 0.0140766 0.00318578)
(0.00828201 0.0162529 0.00270198)
(0.00759512 0.0180482 0.00216345)
(0.00680055 0.0196197 0.00156805)
(0.00591629 0.0213604 0.000905258)
(0.00494011 0.0239752 0.000150599)
(0.00387876 0.0283267 -0.000679896)
(0.00276696 0.0345431 -0.00139821)
(0.00169388 0.0404719 -0.00164891)
(0.000762089 0.0407259 -0.00122208)
(8.14155e-05 0.0248288 -0.000265377)
(1.47475e-05 -0.00514759 0.00121982)
(0.00032849 -0.0151987 0.00249481)
(0.000787579 -0.0230409 0.00319053)
(0.00137271 -0.0290324 0.00351341)
(0.00202567 -0.0333658 0.00361546)
(0.00269335 -0.0362192 0.003608)
(0.00336333 -0.0378721 0.00356666)
(0.00404559 -0.0385741 0.00353517)
(0.00472116 -0.0384936 0.00351668)
(0.0053773 -0.0377464 0.00350908)
(0.00601187 -0.0364207 0.00351137)
(0.00661739 -0.0345849 0.00352387)
(0.00718955 -0.0322717 0.00355202)
(0.00772855 -0.0294879 0.00360272)
(0.00822499 -0.0262652 0.00367758)
(0.00866894 -0.0226612 0.00377374)
(0.00905418 -0.018731 0.00388892)
(0.00937361 -0.0145299 0.00401987)
(0.00961864 -0.010116 0.00416072)
(0.00977888 -0.00555608 0.00430108)
(0.0098408 -0.000932662 0.00442423)
(0.00979295 0.00364779 0.00450651)
(0.009623 0.00805332 0.00451958)
(0.00931578 0.0121415 0.00443754)
(0.00886663 0.0157956 0.00424618)
(0.00827999 0.0189694 0.00394457)
(0.00756816 0.0217283 0.00354113)
(0.00674158 0.0242832 0.00304081)
(0.00580636 0.0270399 0.00243201)
(0.00477175 0.0306553 0.00168814)
(0.00366499 0.035847 0.000822658)
(0.00253431 0.0424679 3.02315e-06)
(0.00150669 0.0479074 -0.00044838)
(0.000656018 0.0466108 -0.000379507)
(6.28781e-05 0.0274327 4.46529e-05)
(7.89561e-06 -0.00703141 0.00106557)
(0.000324118 -0.0194446 0.00219777)
(0.000824543 -0.0288776 0.0027865)
(0.00146795 -0.0358097 0.00304495)
(0.00218054 -0.0405869 0.00311982)
(0.00290836 -0.0436036 0.00310538)
(0.00361681 -0.0452571 0.00305783)
(0.00431719 -0.0458787 0.00301549)
(0.00500688 -0.0456686 0.00298411)
(0.00566625 -0.0447556 0.00296013)
(0.00629297 -0.0432344 0.00294277)
(0.00687944 -0.0411716 0.00293456)
(0.00742519 -0.0385878 0.00294094)
(0.00792531 -0.0354979 0.00296579)
(0.00836739 -0.0319529 0.00300957)
(0.00874689 -0.0280033 0.00307442)
(0.00906022 -0.0237002 0.00316339)
(0.00930369 -0.0190939 0.0032798)
(0.00947362 -0.0142347 0.00342618)
(0.0095661 -0.00917551 0.00360248)
(0.00957606 -0.00397842 0.00380343)
(0.00949646 0.00127516 0.00401529)
(0.00931654 0.00647405 0.00421355)
(0.00902287 0.0114789 0.00436401)
(0.00860363 0.0161452 0.00442961)
(0.00805248 0.0203759 0.004381)
(0.00737152 0.0241915 0.00420322)
(0.00656772 0.0277881 0.00388923)
(0.00564779 0.0315767 0.00342407)
(0.00462206 0.0361887 0.00278158)
(0.00351988 0.0422131 0.00197117)
(0.00239276 0.0492083 0.00113443)
(0.00139934 0.0541798 0.000553433)
(0.000599563 0.0515494 0.000325742)
(5.6888e-05 0.02954 0.000284525)
(2.08612e-05 -0.00859905 0.000862765)
(0.000343615 -0.0230225 0.00178397)
(0.000845929 -0.0337424 0.00226004)
(0.00147346 -0.0413768 0.0024751)
(0.0021531 -0.0464233 0.00254531)
(0.00283543 -0.0494569 0.00254239)
(0.0034925 -0.051015 0.00250928)
(0.00413779 -0.0515007 0.00247135)
(0.00477467 -0.0511261 0.00243532)
(0.00538524 -0.0500223 0.00239854)
(0.0059637 -0.0482846 0.00236192)
(0.00650531 -0.0459673 0.00232854)
(0.00700895 -0.0430855 0.00230062)
(0.00746324 -0.0396668 0.00228193)
(0.00785855 -0.0357634 0.00227549)
(0.00818938 -0.0314335 0.00228585)
(0.00845156 -0.0267371 0.00231894)
(0.00864212 -0.0217329 0.00238177)
(0.00875947 -0.0164757 0.00248184)
(0.00880299 -0.0110162 0.00262599)
(0.0087719 -0.00540502 0.0028183)
(0.0086637 0.000297191 0.00305669)
(0.00847513 0.00600702 0.00332868)
(0.00819992 0.011612 0.00360794)
(0.00782692 0.0169831 0.00385547)
(0.00734479 0.0220172 0.00402704)
(0.00674607 0.0267104 0.00408403)
(0.00602799 0.0312337 0.0039973)
(0.00519056 0.0359788 0.00373862)
(0.00424094 0.0415178 0.00327559)
(0.00320685 0.0482583 0.00260768)
(0.0021464 0.0554243 0.00184614)
(0.00123009 0.0597785 0.0012234)
(0.000507201 0.055818 0.000797098)
(3.85877e-05 0.0312552 0.000418643)
(1.82393e-05 -0.0101373 0.000706067)
(0.000314667 -0.0265828 0.00148715)
(0.00078175 -0.0385791 0.00191557)
(0.00136492 -0.0469014 0.00213219)
(0.00199413 -0.0522124 0.00222166)
(0.0026241 -0.0552751 0.00223954)
(0.00323391 -0.0567651 0.00222163)
(0.00383463 -0.0571374 0.0021883)
(0.00443004 -0.0566147 0.00214925)
(0.00500287 -0.0553302 0.00210444)
(0.00554406 -0.0533711 0.00205706)
(0.00605355 -0.0507706 0.00200658)
(0.00652388 -0.047545 0.00195492)
(0.00694163 -0.0437435 0.00190442)
(0.00729956 -0.0394262 0.0018589)
(0.00759224 -0.0346625 0.00182348)
(0.00781551 -0.0295261 0.00180486)
(0.00796695 -0.0240896 0.00181126)
(0.00804605 -0.0184195 0.00185211)
(0.00805376 -0.0125735 0.00193729)
(0.00799203 -0.00660095 0.00207582)
(0.00786316 -0.000551133 0.00227331)
(0.00766758 0.0055155 0.00252786)
(0.00740297 0.0115197 0.00282549)
(0.00706358 0.0173701 0.00313714)
(0.00663933 0.0229938 0.00342091)
(0.00611812 0.0283987 0.00362997)
(0.00548882 0.0337492 0.0037198)
(0.00474343 0.0394103 0.00364682)
(0.00388344 0.0458711 0.00336691)
(0.00293251 0.0533265 0.00286409)
(0.0019545 0.0606567 0.00221648)
(0.00111414 0.0644842 0.00160382)
(0.000452292 0.059355 0.00106198)
(3.3595e-05 0.0326194 0.000472468)
(2.12777e-05 -0.0114561 0.000580343)
(0.000297796 -0.0296447 0.00125878)
(0.000731276 -0.0427276 0.00166092)
(0.00126871 -0.0516243 0.00188643)
(0.00184491 -0.057144 0.0019951)
(0.00241913 -0.0602178 0.00203184)
(0.00297773 -0.0616386 0.00202835)
(0.00352921 -0.0618978 0.00200183)
(0.00407572 -0.061228 0.00196472)
(0.00459889 -0.0597607 0.00191915)
(0.00509555 -0.0575624 0.00186453)
(0.00556446 -0.0546513 0.0018011)
(0.00599241 -0.0510681 0.00173095)
(0.00637139 -0.0468648 0.00165706)
(0.00669485 -0.0421103 0.00158323)
(0.00695727 -0.0368876 0.00151456)
(0.00715459 -0.0312873 0.00145753)
(0.00728447 -0.0253986 0.0014201)
(0.00734635 -0.0193032 0.00141165)
(0.00734122 -0.0130704 0.00144257)
(0.00727117 -0.00675653 0.00152361)
(0.00713878 -0.000410121 0.00166428)
(0.00694684 0.00591912 0.00186946)
(0.00669663 0.0121779 0.00213496)
(0.00638537 0.018317 0.00244331)
(0.0060053 0.0243142 0.00276248)
(0.00554399 0.0302205 0.00304909)
(0.00498668 0.0362194 0.00325372)
(0.0043205 0.042654 0.00332242)
(0.00354277 0.0499116 0.00319918)
(0.00267339 0.057955 0.0028514)
(0.00178116 0.065344 0.00232624)
(0.00101443 0.0686643 0.0017553)
(0.000407384 0.0624494 0.00116413)
(2.93223e-05 0.0338051 0.000471667)
(1.80048e-05 -0.012686 0.000504893)
(0.0002663 -0.0325425 0.00113813)
(0.000661047 -0.0466868 0.00154376)
(0.00115468 -0.0561656 0.00179003)
(0.00168558 -0.0619207 0.00192072)
(0.0022155 -0.0650396 0.0019761)
(0.00273631 -0.066422 0.00198741)
(0.00325107 -0.0665919 0.00197083)
(0.00375587 -0.0657979 0.00193787)
(0.00424331 -0.0641559 0.00189246)
(0.00470874 -0.0617183 0.00183298)
(0.00514337 -0.0585188 0.00176197)
(0.00553965 -0.0545953 0.00168182)
(0.00589017 -0.0500048 0.0015951)
(0.00618861 -0.0448274 0.00150522)
(0.00643013 -0.03916 0.00141679)
(0.00661143 -0.0331072 0.00133564)
(0.00673061 -0.0267727 0.00126886)
(0.00678723 -0.0202522 0.0012249)
(0.00678201 -0.0136262 0.00121334)
(0.00671678 -0.00695995 0.00124458)
(0.00659415 -0.000306807 0.00132883)
(0.00641655 0.00628709 0.00147373)
(0.0061854 0.0127851 0.00168099)
(0.00589965 0.0191724 0.00194274)
(0.00555343 0.0254759 0.00223866)
(0.00513537 0.0317981 0.00253547)
(0.00463013 0.0383567 0.00278811)
(0.00402311 0.0454829 0.00294017)
(0.00330925 0.0534653 0.00292763)
(0.00250464 0.0620449 0.00270276)
(0.00167993 0.069498 0.00228519)
(0.000965826 0.0724094 0.00176751)
(0.000390806 0.0652428 0.00116987)
(3.05883e-05 0.0349039 0.000446289)
(1.75801e-05 -0.0137723 0.00045475)
(0.000248573 -0.0351319 0.00106202)
(0.00061768 -0.0502472 0.0014719)
(0.00108018 -0.0602669 0.00173125)
(0.00157719 -0.0662469 0.00187453)
(0.00207284 -0.0694152 0.00194008)
(0.0025611 -0.0707644 0.00195946)
(0.00304399 -0.0708498 0.00194963)
(0.00351761 -0.0699271 0.00191883)
(0.00397567 -0.0681086 0.00187038)
(0.00441163 -0.0654427 0.0018074)
(0.00481858 -0.0619597 0.00173208)
(0.00518907 -0.0576996 0.00164629)
(0.00551618 -0.0527278 0.001552)
(0.00579438 -0.0471359 0.00145196)
(0.00601959 -0.041034 0.00134997)
(0.00618911 -0.0345402 0.00125121)
(0.00630147 -0.027771 0.00116236)
(0.0063563 -0.0208338 0.00109151)
(0.00635408 -0.0138195 0.00104809)
(0.0062961 -0.0068021 0.00104246)
(0.00618413 0.000159046 0.00108496)
(0.0060201 0.00701701 0.00118397)
(0.0058053 0.0137455 0.00134346)
(0.00553897 0.0203565 0.0015604)
(0.0052163 0.0269197 0.00182222)
(0.00482727 0.0335875 0.00210475)
(0.00435754 0.0406148 0.00237038)
(0.00379283 0.0483268 0.00256588)
(0.00312713 0.0569219 0.00262511)
(0.0023733 0.0659397 0.00249054)
(0.00160257 0.0734166 0.00216088)
(0.000929019 0.0759584 0.00169906)
(0.000377404 0.0679083 0.00112156)
(3.01037e-05 0.0359854 0.000410632)
(1.53659e-05 -0.0148144 0.000433596)
(0.000230318 -0.0376516 0.00104205)
(0.000576852 -0.0537353 0.00146464)
(0.00101269 -0.0643028 0.00173617)
(0.0014812 -0.0705204 0.00188806)
(0.00194822 -0.0737544 0.00195957)
(0.00240885 -0.0750864 0.00198334)
(0.00286515 -0.0751025 0.00197705)
(0.00331274 -0.0740638 0.00194899)
(0.00374504 -0.0720801 0.00190366)
(0.00415574 -0.0691972 0.00184395)
(0.00453823 -0.0654448 0.00177185)
(0.0048857 -0.0608664 0.00168885)
(0.00519216 -0.0555348 0.00159627)
(0.00545296 -0.049552 0.0014958)
(0.00566482 -0.0430398 0.00139002)
(0.0058257 -0.0361274 0.00128279)
(0.00593449 -0.0289417 0.00117956)
(0.0059909 -0.0215993 0.00108748)
(0.00599517 -0.0141993 0.00101543)
(0.005948 -0.00682262 0.000973733)
(0.00585028 0.000465792 0.000973251)
(0.00570292 0.00761657 0.00102363)
(0.00550636 0.0146091 0.00113119)
(0.00525943 0.0214744 0.00129688)
(0.00495761 0.0283155 0.00151398)
(0.00459186 0.0353268 0.00176558)
(0.00414922 0.0427972 0.00202106)
(0.0036166 0.0510492 0.00223194)
(0.00298793 0.0602018 0.00233293)
(0.00227362 0.0696173 0.00226085)
(0.00154485 0.0771257 0.00199937)
(0.000901937 0.0793494 0.00159008)
(0.000367232 0.0704822 0.00104667)
(2.95336e-05 0.0370523 0.000371953)
(1.50121e-05 -0.0157814 0.000419715)
(0.000221292 -0.0400039 0.00102579)
(0.000553957 -0.0569985 0.00144934)
(0.000971541 -0.0680806 0.0017206)
(0.00141876 -0.0745208 0.00187155)
(0.00186308 -0.0778164 0.00194263)
(0.00230086 -0.0791314 0.00196655)
(0.00273424 -0.0790794 0.00196088)
(0.00315859 -0.077926 0.00193406)
(0.00356741 -0.07578 0.00189079)
(0.00395473 -0.0726849 0.00183418)
(0.00431442 -0.0686713 0.00176638)
(0.0046404 -0.0637874 0.00168874)
(0.00492753 -0.058114 0.00160204)
(0.00517197 -0.0517633 0.00150707)
(0.00537115 -0.044867 0.00140519)
(0.00552349 -0.037564 0.0012989)
(0.00562816 -0.0299892 0.00119229)
(0.00568492 -0.0222657 0.00109132)
(0.00569382 -0.0144986 0.00100394)
(0.00565512 -0.00677352 0.000939876)
(0.00556901 0.000840732 0.000909821)
(0.00543556 0.00829254 0.000923832)
(0.00525439 0.015565 0.000989573)
(0.00502368 0.0227031 0.00111067)
(0.00473883 0.0298358 0.00128474)
(0.00439141 0.0371901 0.00150073)
(0.00396968 0.0450819 0.00173445)
(0.00346197 0.053828 0.0019431)
(0.00286273 0.0634748 0.0020645)
(0.00218081 0.0732271 0.0020335)
(0.00148775 0.0807398 0.00182394)
(0.00087179 0.0826549 0.00146208)
(0.000353784 0.0729938 0.000959463)
(2.78347e-05 0.0381009 0.000333127)
(1.39387e-05 -0.0167407 0.000416367)
(0.000212275 -0.0423503 0.0010276)
(0.000532217 -0.0602538 0.00145237)
(0.000932784 -0.071843 0.00172057)
(0.00135971 -0.0784984 0.00186741)
(0.00178213 -0.0818529 0.00193567)
(0.0021976 -0.083151 0.00195846)
(0.0026084 -0.0830322 0.00195322)
(0.00300979 -0.0817671 0.00192847)
(0.00339549 -0.0794639 0.00188919)
(0.00375991 -0.0761657 0.00183877)
(0.00409754 -0.0719052 0.00177944)
(0.00440308 -0.0667354 0.00171233)
(0.00467229 -0.0607448 0.00163749)
(0.00490214 -0.0540539 0.00155449)
(0.00509067 -0.0468027 0.00146308)
(0.00523666 -0.0391371 0.0013639)
(0.00533942 -0.0311979 0.00125921)
(0.00539859 -0.0231135 0.00115341)
(0.00541392 -0.0149928 0.00105339)
(0.00538513 -0.00692482 0.000968456)
(0.0053117 0.0010191 0.000909552)
(0.00519287 0.00878592 0.000887731)
(0.00502742 0.0163617 0.000912382)
(0.00481282 0.0238026 0.000989624)
(0.00454422 0.0312576 0.00112049)
(0.0042135 0.0389793 0.00129824)
(0.00380992 0.0473026 0.00150374)
(0.00332324 0.0565347 0.00169927)
(0.00274872 0.0666527 0.00182652)
(0.0020945 0.0767185 0.00182069)
(0.00143277 0.0842329 0.0016497)
(0.000841409 0.0858561 0.00132907)
(0.000339918 0.0754283 0.000868856)
(2.62355e-05 0.0391188 0.000295664)
(1.38444e-05 -0.0176572 0.000411489)
(0.000207992 -0.0445867 0.00101708)
(0.000519615 -0.0633453 0.00143061)
(0.000907435 -0.0754026 0.00168546)
(0.00131779 -0.0822507 0.00182125)
(0.00172146 -0.0856536 0.00188234)
(0.00211721 -0.0869306 0.00190107)
(0.00250748 -0.0867443 0.0018942)
(0.0028875 -0.0853691 0.00187014)
(0.00325128 -0.0829132 0.0018341)
(0.0035937 -0.0794202 0.00178985)
(0.00390989 -0.0749261 0.00173994)
(0.00419542 -0.06949 0.00168551)
(0.00444695 -0.0632078 0.00162625)
(0.00466228 -0.0562075 0.00156083)
(0.00484006 -0.0486351 0.00148756)
(0.00497942 -0.0406414 0.00140526)
(0.00507977 -0.0323708 0.00131407)
(0.00514061 -0.023954 0.00121621)
(0.00516134 -0.0155023 0.0011166)
(0.00514115 -0.00710601 0.00102308)
(0.00507881 0.00116197 0.00094589)
(0.00497278 0.00924749 0.000896457)
(0.00482103 0.0171387 0.000885698)
(0.0046204 0.0249005 0.000922314)
(0.00436569 0.0326977 0.00101078)
(0.00404904 0.0408019 0.00114852)
(0.00366057 0.0495602 0.00132105)
(0.0031914 0.0592639 0.00149556)
(0.00263788 0.0698206 0.00161806)
(0.00200816 0.0801595 0.0016256)
(0.00137541 0.0876489 0.00148294)
(0.00080804 0.088974 0.00119792)
(0.000324227 0.0777872 0.000779557)
(2.43224e-05 0.0401012 0.000260633)
(1.34376e-05 -0.018579 0.00040915)
(0.000203428 -0.0468333 0.00100954)
(0.000506606 -0.0664376 0.00141115)
(0.000881644 -0.0789437 0.00165184)
(0.00127548 -0.0859656 0.00177586)
(0.00166059 -0.089405 0.00182921)
(0.00203685 -0.0906543 0.00184361)
(0.00240681 -0.0903966 0.00183511)
(0.00276572 -0.0889103 0.00181201)
(0.00310793 -0.0863042 0.00177976)
(0.00342883 -0.0826237 0.00174248)
(0.00372426 -0.0779099 0.00170299)
(0.00399064 -0.0722279 0.00166246)
(0.00422558 -0.0656807 0.00162024)
(0.00442765 -0.0584018 0.00157415)
(0.00459606 -0.0505414 0.00152124)
(0.00473028 -0.0422527 0.00145858)
(0.00482974 -0.0336815 0.00138433)
(0.00489375 -0.0249592 0.00129858)
(0.00492126 -0.016197 0.00120422)
(0.00491084 -0.00748555 0.00110739)
(0.0048605 0.00110246 0.0010173)
(0.00476785 0.0095126 0.000945307)
(0.00462999 0.0177347 0.000903416)
(0.00444313 0.0258407 0.000902498)
(0.00420173 0.0340076 0.000950067)
(0.00389807 0.0425211 0.00104724)
(0.00352309 0.0517337 0.0011838)
(0.00306925 0.0619154 0.00133161)
(0.0025341 0.0729032 0.00144131)
(0.00192636 0.0835002 0.0014529)
(0.00132023 0.0909578 0.00132999)
(0.000775663 0.0919895 0.00107492)
(0.000309283 0.0800618 0.000695895)
(2.27525e-05 0.041045 0.000229054)
(1.3574e-05 -0.01947 0.000403911)
(0.000200974 -0.0489895 0.000990112)
(0.000497758 -0.0693852 0.0013717)
(0.000862121 -0.0822976 0.00159251)
(0.00124151 -0.0894673 0.00170134)
(0.00161006 -0.0929306 0.0017449)
(0.00196871 -0.0941466 0.00175349)
(0.00232006 -0.0938159 0.00174215)
(0.00265941 -0.0922199 0.001719)
(0.00298145 -0.0894685 0.00168971)
(0.00328208 -0.0856103 0.00165881)
(0.00355781 -0.0806919 0.00162955)
(0.00380591 -0.074786 0.00160335)
(0.00402481 -0.0680018 0.00157952)
(0.00421388 -0.0604775 0.00155543)
(0.0043729 -0.0523657 0.00152712)
(0.00450169 -0.0438195 0.00149015)
(0.00459982 -0.0349838 0.0014406)
(0.00466642 -0.0259877 0.00137613)
(0.00470008 -0.0169407 0.00129701)
(0.00469871 -0.00793157 0.0012069)
(0.00465954 0.000968029 0.00111316)
(0.00457923 0.00970358 0.00102633)
(0.00445404 0.0182657 0.000959036)
(0.00427949 0.0267312 0.000924155)
(0.00404971 0.0352862 0.000932272)
(0.00375717 0.0442258 0.000988289)
(0.00339362 0.0539022 0.0010863)
(0.00295288 0.0645581 0.00120292)
(0.00243385 0.0759573 0.00129362)
(0.00184619 0.0867824 0.00130214)
(0.00126512 0.0941851 0.0011923)
(0.000742744 0.0949157 0.000962337)
(0.00029406 0.0822547 0.000619626)
(2.11244e-05 0.0419499 0.000201445)
(1.34064e-05 -0.0203666 0.000399459)
(0.000197986 -0.051151 0.000971574)
(0.000488359 -0.0723225 0.00133406)
(0.000842221 -0.085617 0.00153631)
(0.00120757 -0.0929131 0.00163101)
(0.00156026 -0.096387 0.00166538)
(0.00190223 -0.0975619 0.00166842)
(0.00223609 -0.0971537 0.00165428)
(0.00255713 -0.0954462 0.0016309)
(0.00286038 -0.0925514 0.00160412)
(0.00314218 -0.0885221 0.00157883)
(0.00339965 -0.083412 0.00155859)
(0.00363084 -0.0773011 0.00154512)
(0.00383495 -0.0703049 0.0015378)
(0.00401204 -0.0625652 0.0015338)
(0.00416248 -0.0542351 0.0015286)
(0.00428647 -0.0454664 0.00151676)
(0.00438374 -0.0364003 0.0014928)
(0.00445335 -0.0271619 0.00145234)
(0.00449352 -0.0178562 0.00139316)
(0.00450158 -0.00856799 0.00131625)
(0.0044739 0.000634209 0.00122647)
(0.00440619 0.00969702 0.00113263)
(0.0042937 0.0186113 0.00104697)
(0.00413119 0.0274566 0.000983512)
(0.00391243 0.0364247 0.00095538)
(0.00363003 0.0458155 0.000971043)
(0.00327657 0.0559755 0.00102895)
(0.00284723 0.0671152 0.00111074)
(0.00234236 0.0789232 0.00117718)
(0.00177278 0.0899656 0.0011765)
(0.00121454 0.097308 0.00107382)
(0.000712706 0.0977413 0.000864147)
(0.000280501 0.0843653 0.000553719)
(1.99209e-05 0.0428177 0.000178747)
(1.3531e-05 -0.0212369 0.000393548)
(0.000195931 -0.053231 0.000946926)
(0.000480773 -0.0751262 0.00128668)
(0.00082524 -0.0887619 0.00146818)
(0.00117793 -0.0961601 0.00154762)
(0.00151638 -0.099633 0.00157211)
(0.00184339 -0.100762 0.00156897)
(0.00216153 -0.100275 0.00155136)
(0.00246607 -0.0984569 0.00152701)
(0.00275232 -0.0954232 0.00150192)
(0.00301703 -0.0912314 0.00148133)
(0.00325785 -0.085943 0.00146918)
(0.00347346 -0.0796461 0.00146755)
(0.00366373 -0.0724623 0.00147607)
(0.00382933 -0.0645364 0.00149197)
(0.00397118 -0.0560213 0.00151045)
(0.00408993 -0.0470655 0.0015253)
(0.00418558 -0.0378047 0.00152975)
(0.00425722 -0.0283576 0.00151748)
(0.00430285 -0.0188223 0.00148381)
(0.00431931 -0.00927733 0.00142686)
(0.00430218 0.00021391 0.00134854)
(0.00424615 0.00960019 0.0012553)
(0.00414547 0.0188722 0.00115819)
(0.00399403 0.0281101 0.00107172)
(0.00378517 0.0375082 0.00101104)
(0.00351166 0.0473666 0.000987974)
(0.00316689 0.0580206 0.00100534)
(0.00274742 0.0696434 0.00105)
(0.0022551 0.0818459 0.00108842)
(0.00170216 0.0930822 0.0010739)
(0.00116531 0.100347 0.000973707)
(0.000683107 0.100478 0.000780115)
(0.000267068 0.0863976 0.000497943)
(1.8665e-05 0.0436492 0.00016066)
(1.33659e-05 -0.0221094 0.000388598)
(0.000193212 -0.0553071 0.000924458)
(0.000472407 -0.0779079 0.00124343)
(0.000807867 -0.0918614 0.00140627)
(0.00114873 -0.0993429 0.00147198)
(0.0014741 -0.102804 0.00148747)
(0.00178757 -0.103881 0.00147853)
(0.00209159 -0.103311 0.00145744)
(0.00238139 -0.101382 0.00143172)
(0.00265254 -0.0982107 0.00140751)
(0.00290215 -0.0938622 0.00139026)
(0.00312826 -0.0884056 0.00138425)
(0.00333007 -0.0819377 0.00139186)
(0.00350798 -0.0745861 0.00141309)
(0.00366316 -0.0664983 0.00144547)
(0.00379703 -0.0578264 0.00148432)
(0.00391069 -0.0487147 0.00152322)
(0.0040045 -0.0392923 0.00155469)
(0.0040777 -0.0296689 0.00157106)
(0.00412824 -0.0199334 0.00156552)
(0.00415256 -0.0101552 0.00153339)
(0.00414556 -0.000389546 0.00147334)
(0.00410093 0.00931665 0.00138863)
(0.00401179 0.0189541 0.00128808)
(0.00387107 0.0286017 0.00118556)
(0.00367158 0.0384522 0.00109744)
(0.00340616 0.0488015 0.00103844)
(0.00306901 0.0599683 0.0010157)
(0.00265808 0.0720837 0.00102158)
(0.00217673 0.0846795 0.00102876)
(0.00163868 0.0961013 0.000996299)
(0.00112114 0.103285 0.000894312)
(0.000656787 0.10312 0.000712617)
(0.000255409 0.0883533 0.000454061)
(1.78111e-05 0.0444469 0.000147711)
(1.33688e-05 -0.0229575 0.00038338)
(0.000190979 -0.0573081 0.00090003)
(0.00046509 -0.0805677 0.00119696)
(0.000792358 -0.0948035 0.00134044)
(0.00112254 -0.102348 0.00139215)
(0.00143625 -0.105789 0.00139846)
(0.00173776 -0.106809 0.00138349)
(0.00202932 -0.106156 0.00135863)
(0.00230614 -0.104117 0.00133116)
(0.00256402 -0.100813 0.00130731)
(0.00280032 -0.096314 0.00129273)
(0.00301343 -0.0906994 0.00129193)
(0.0032029 -0.0840741 0.00130762)
(0.0033695 -0.0765722 0.00134016)
(0.00351485 -0.0683441 0.00138741)
(0.00364078 -0.0595409 0.00144499)
(0.00374887 -0.0503024 0.00150649)
(0.00383989 -0.0407497 0.00156407)
(0.0039134 -0.0309824 0.00160911)
(0.00396739 -0.0210777 0.00163315)
(0.00399813 -0.011093 0.00162902)
(0.00399995 -0.00107281 0.0015922)
(0.00396563 0.00894276 0.00152246)
(0.00388718 0.0189453 0.00142562)
(0.00375647 0.0290111 0.00131398)
(0.00356565 0.0393281 0.00120421)
(0.00330758 0.0501831 0.00111329)
(0.00297717 0.0618727 0.00105241)
(0.00257377 0.0744813 0.00101948)
(0.00210227 0.0874593 0.000993736)
(0.00157801 0.0990482 0.000940507)
(0.00107848 0.106139 0.000833388)
(0.00063104 0.105675 0.000659921)
(0.000243896 0.0902357 0.00042061)
(1.68823e-05 0.0452114 0.00013905)
(1.31673e-05 -0.0238044 0.00037903)
(0.00018826 -0.059298 0.000877665)
(0.000457294 -0.0831986 0.00115389)
(0.000776859 -0.0976965 0.00127928)
(0.00109729 -0.10529 0.00131792)
(0.0014006 -0.108701 0.0013156)
(0.00169164 -0.109662 0.00129485)
(0.00197242 -0.108922 0.0012662)
(0.0022381 -0.106773 0.00123671)
(0.00248466 -0.103337 0.00121262)
(0.00270966 -0.0986931 0.0011997)
(0.00291171 -0.0929278 0.00120262)
(0.00309061 -0.0861554 0.00122435)
(0.00324742 -0.0785166 0.00126561)
(0.00338401 -0.070165 0.00132477)
(0.00350263 -0.061251 0.0013979)
(0.00360524 -0.0519099 0.00147897)
(0.00369307 -0.0422546 0.00156021)
(0.00376604 -0.0323729 0.00163255)
(0.0038224 -0.0223282 0.00168635)
(0.00385836 -0.0121633 0.00171235)
(0.00386788 -0.00190871 0.00170298)
(0.00384295 0.00840588 0.00165424)
(0.0037745 0.0187746 0.00156824)
(0.00365326 0.0292698 0.00145464)
(0.00347062 0.0400716 0.00132945)
(0.00321931 0.0514525 0.00121115)
(0.00289491 0.0636818 0.00111462)
(0.00249807 0.0767922 0.0010434)
(0.00203522 0.0901512 0.000983559)
(0.00152335 0.1019 0.000907255)
(0.00104012 0.108896 0.000792031)
(0.000608056 0.10814 0.000623207)
(0.000233831 0.0920461 0.000398446)
(1.62883e-05 0.0459445 0.000134918)
(1.31518e-05 -0.024629 0.000374345)
(0.000186133 -0.0612198 0.000853731)
(0.000450737 -0.0857206 0.00110818)
(0.000763496 -0.100451 0.00121476)
(0.0010753 -0.108077 0.00124)
(0.00136947 -0.111453 0.00122887)
(0.00165133 -0.112351 0.00120221)
(0.00192267 -0.111525 0.00116966)
(0.00217864 -0.109266 0.00113804)
(0.00241534 -0.105703 0.00111352)
(0.00263051 -0.100918 0.00110194)
(0.0028229 -0.0950088 0.00110805)
(0.00299246 -0.0880981 0.00113501)
(0.00314041 -0.0803334 0.00118384)
(0.00326886 -0.071872 0.00125332)
(0.00338031 -0.0628645 0.00134002)
(0.00347713 -0.0534416 0.00143839)
(0.00356096 -0.0437082 0.00154099)
(0.00363216 -0.0337398 0.00163872)
(0.00368931 -0.0235846 0.0017213)
(0.00372876 -0.0132682 0.00177794)
(0.00374433 -0.00280395 0.00179845)
(0.00372737 0.00779217 0.00177517)
(0.00366782 0.0185194 0.00170608)
(0.0035553 0.0294461 0.00159743)
(0.00338033 0.040742 0.00146347)
(0.0031354 0.0526606 0.00132333)
(0.00281664 0.0654382 0.00119499)
(0.00242591 0.0790509 0.00108736)
(0.00197111 0.0927817 0.000993527)
(0.00147093 0.104675 0.00089285)
(0.00100301 0.111568 0.000767289)
(0.000585515 0.11052 0.000600026)
(0.000223822 0.0937862 0.000385593)
(1.5606e-05 0.0466462 0.000134301)
(1.29563e-05 -0.0254509 0.000369632)
(0.000183759 -0.0631272 0.000829576)
(0.000444201 -0.0882116 0.00106217)
(0.000750858 -0.103157 0.00115014)
(0.00105504 -0.110804 0.00116226)
(0.00134123 -0.114138 0.00114253)
(0.00161519 -0.114969 0.00111005)
(0.00187852 -0.114055 0.00107359)
(0.00212632 -0.111688 0.00103966)
(0.00235485 -0.107998 0.00101437)
(0.0025619 -0.103077 0.0010035)
(0.00274627 -0.0970281 0.00101188)
(0.002908 -0.0899854 0.0010428)
(0.0030484 -0.082103 0.00109755)
(0.00316971 -0.0735422 0.00117534)
(0.00327463 -0.0644541 0.00127328)
(0.00336583 -0.054966 0.00138645)
(0.00344535 -0.0451746 0.00150794)
(0.00351399 -0.0351432 0.00162898)
(0.00357075 -0.0249033 0.00173909)
(0.00361225 -0.0144616 0.00182647)
(0.00363233 -0.00381124 0.00187876)
(0.00362194 0.00704963 0.0018848)
(0.00357018 0.0181284 0.00183819)
(0.00346557 0.02949 0.00174097)
(0.0032977 0.0412914 0.00160473)
(0.00305869 0.0537627 0.00144833)
(0.00274509 0.0671018 0.00129225)
(0.00235986 0.0812237 0.00115052)
(0.00191232 0.0953248 0.0010233)
(0.00142288 0.107357 0.000897437)
(0.000969 0.114146 0.000759638)
(0.000564952 0.112813 0.000590992)
(0.000214845 0.095457 0.000382534)