/*--------------------------------*- C++ -*----------------------------------*\
| =========                 |                                                 |
| \\      /  F ield         | OpenFOAM: The Open Source CFD Toolbox           |
|  \\    /   O peration     | Version:  v2006                                 |
|   \\  /    A nd           | Website:  www.openfoam.com                      |
|    \\/     M anipulation  |                                                 |
\*---------------------------------------------------------------------------*/
FoamFile
{
    version     2.0;
    format      ascii;
    class       volScalarField;
    location    "53";
    object      alphat;
}
// * * * * * * * * * * * * * * * * * * * * * * * * * * * * * * * * * * * * * //

dimensions      [1 -1 -1 0 0 0 0];


internalField   nonuniform List<scalar> 
78750
(
1.03725e-05
7.33411e-06
2.98749e-06
1.85035e-05
3.70431e-05
0.000113026
7.96104e-05
7.76669e-05
6.48061e-05
6.93145e-05
5.46062e-05
6.44094e-05
5.17366e-05
6.11425e-05
5.18986e-05
5.82227e-05
5.56296e-05
6.03772e-05
6.40266e-05
7.06345e-05
7.83284e-05
8.63236e-05
9.3494e-05
9.8584e-05
0.00010189
0.000103276
0.000101823
9.8636e-05
9.25602e-05
8.65204e-05
8.07385e-05
7.56804e-05
6.64157e-05
7.64997e-05
1.04531e-05
1.3131e-06
9.3448e-06
6.52479e-06
1.92431e-06
3.84315e-06
2.47515e-06
6.00187e-06
1.67683e-05
1.50277e-05
1.20584e-05
2.18686e-05
2.98457e-05
3.41941e-05
3.75962e-05
4.01588e-05
4.1279e-05
4.25163e-05
4.32637e-05
4.40102e-05
4.38016e-05
4.265e-05
4.08787e-05
3.8698e-05
3.76596e-05
3.99011e-05
4.00035e-05
3.6832e-05
3.51994e-05
3.91455e-05
4.25671e-05
4.69154e-05
5.35567e-05
5.32984e-05
5.48611e-05
1.25087e-05
6.01141e-07
8.66639e-07
4.24141e-06
2.07803e-07
9.63496e-06
5.82631e-05
7.64885e-05
9.65874e-05
9.49903e-05
0.00010891
0.000128503
0.000137384
0.000139765
0.000134438
0.000124955
0.00011689
0.000112872
0.000111485
0.000109082
0.000103045
9.56148e-05
9.02697e-05
8.92374e-05
9.52768e-05
0.000103589
5.70555e-05
2.97867e-05
2.31387e-05
2.28657e-05
2.36733e-05
2.64124e-05
2.82183e-05
3.19582e-05
3.91461e-05
1.34371e-05
1.7283e-05
0.000121556
9.87922e-05
0.00020578
0.000175927
0.0001075
8.67331e-05
9.69381e-05
0.000101468
8.85601e-05
6.70535e-05
5.92773e-05
6.67216e-05
9.03488e-05
0.000130893
0.000181278
0.000219459
0.000218078
0.000183778
0.000164473
0.000181772
0.000180088
8.62662e-05
5.12982e-05
5.10407e-05
5.89439e-05
3.35186e-05
2.98342e-05
3.18664e-05
3.02089e-05
2.89638e-05
2.97173e-05
3.71116e-05
6.46526e-05
1.23499e-05
1.01523e-05
4.36593e-05
0.000100216
0.000109595
0.000127705
0.000143067
0.000147403
0.000143083
0.000132983
0.000113234
8.87947e-05
6.82073e-05
5.69826e-05
5.51232e-05
6.10732e-05
7.0742e-05
7.43653e-05
7.35703e-05
8.46306e-05
0.000103605
5.90788e-05
3.5873e-05
4.55777e-05
2.50769e-05
2.05835e-05
2.62168e-05
3.44759e-05
4.46146e-05
4.76298e-05
3.30297e-05
2.23784e-05
2.09451e-05
3.59541e-05
0.000101347
1.10146e-05
1.3824e-05
0.000135258
0.000207605
0.000283795
0.000330091
0.000284995
0.000190796
0.000125413
9.42167e-05
8.48281e-05
9.13083e-05
0.000108849
0.00012303
0.000117344
9.91107e-05
8.40409e-05
7.64977e-05
7.25831e-05
6.57598e-05
5.49316e-05
3.95298e-05
1.94236e-05
1.41199e-05
2.18447e-05
1.86168e-05
2.05729e-05
2.76196e-05
4.12991e-05
6.35657e-05
6.36314e-05
4.03977e-05
3.25617e-05
5.04992e-05
6.66831e-05
9.15864e-06
9.44848e-06
4.04297e-05
0.000115982
0.000128992
0.000133952
0.000135998
0.000133661
0.0001249
0.000108017
8.5734e-05
6.63198e-05
5.53523e-05
5.34318e-05
5.97705e-05
7.34163e-05
9.24454e-05
0.00011341
0.000130361
0.000132181
0.000113065
8.87972e-05
7.14864e-05
5.78775e-05
4.77738e-05
4.35001e-05
3.48567e-05
2.59676e-05
2.55e-05
3.12777e-05
4.32365e-05
5.61314e-05
5.83713e-05
7.23352e-05
5.91081e-05
7.32843e-06
1.18241e-05
0.000129437
0.000222831
0.000257771
0.000268161
0.00025879
0.00023571
0.000206778
0.000177349
0.000149097
0.000121261
9.48469e-05
7.37789e-05
6.05037e-05
5.40345e-05
5.17688e-05
5.17662e-05
5.40692e-05
5.93376e-05
6.63674e-05
7.12847e-05
7.12097e-05
6.79287e-05
6.62049e-05
7.1756e-05
7.89523e-05
5.31803e-05
3.34425e-05
2.76643e-05
2.89049e-05
3.76813e-05
6.00576e-05
8.64839e-05
5.69479e-05
6.71842e-06
1.02976e-05
5.31189e-05
0.000153515
0.000165987
0.000166228
0.000164648
0.000161276
0.000155055
0.000145146
0.00013134
0.000114179
9.51674e-05
7.71958e-05
6.36136e-05
5.59877e-05
5.30732e-05
5.13794e-05
4.85315e-05
4.63746e-05
4.73015e-05
5.07469e-05
5.46158e-05
5.77354e-05
6.0046e-05
6.24301e-05
6.62676e-05
6.91392e-05
5.88167e-05
3.85049e-05
2.50665e-05
2.01381e-05
2.53582e-05
5.14367e-05
7.34309e-05
6.37207e-06
9.03291e-06
5.98881e-05
0.000174801
0.000240345
0.00025805
0.000252975
0.000234352
0.000212198
0.000190983
0.000167368
0.000138309
0.000108998
8.4837e-05
6.614e-05
5.27731e-05
4.61848e-05
4.77405e-05
5.71905e-05
7.00966e-05
7.86481e-05
7.94905e-05
7.53545e-05
7.01905e-05
6.7197e-05
6.96826e-05
7.9322e-05
9.15374e-05
9.37855e-05
7.17091e-05
3.61733e-05
1.77377e-05
1.54461e-05
3.21713e-05
7.97826e-05
6.20624e-06
1.0924e-05
6.54732e-05
0.000196318
0.000227166
0.000224997
0.000210362
0.000187378
0.000162371
0.000143655
0.000136018
0.000139437
0.000148188
0.000147281
0.000126549
9.88522e-05
7.58169e-05
5.91921e-05
4.88736e-05
4.4795e-05
4.66766e-05
5.327e-05
6.13517e-05
6.72796e-05
6.93761e-05
6.89875e-05
6.96033e-05
7.30333e-05
7.64641e-05
7.27964e-05
5.15962e-05
2.21095e-05
1.08051e-05
1.55656e-05
6.90902e-05
5.88232e-06
9.63777e-06
5.53963e-05
0.000162392
0.000217709
0.000230658
0.000230288
0.000224289
0.000214742
0.00019911
0.000175151
0.000148684
0.000130251
0.000124714
0.000128723
0.000130144
0.000117801
9.77506e-05
7.92796e-05
6.51979e-05
5.70309e-05
5.73073e-05
6.87347e-05
9.07665e-05
0.000110866
0.000113315
0.000103116
9.47426e-05
9.20464e-05
8.4674e-05
5.41023e-05
1.7386e-05
9.9529e-06
1.4454e-05
6.68692e-05
6.28333e-06
1.10863e-05
6.88665e-05
0.000203163
0.000247283
0.000248182
0.00023294
0.000209467
0.000185582
0.000166878
0.000154852
0.000147534
0.000142848
0.000143027
0.000153647
0.00017529
0.000190393
0.000169168
0.000123525
8.69741e-05
6.53996e-05
5.47118e-05
5.33407e-05
6.31918e-05
8.82952e-05
0.000125228
0.000143559
0.000120814
8.76118e-05
6.89256e-05
5.05449e-05
1.09478e-05
7.0901e-06
1.43755e-05
7.69965e-05
6.51407e-06
1.14821e-05
8.24664e-05
0.000209083
0.000233357
0.000231205
0.000218804
0.000202516
0.000186697
0.000173292
0.000162367
0.000152612
0.00014226
0.000132192
0.000127961
0.000136548
0.000161508
0.000192962
0.000193713
0.000144472
9.38147e-05
6.62779e-05
5.62471e-05
5.98184e-05
8.00449e-05
0.000121958
0.000160024
0.000143848
9.89378e-05
6.87246e-05
5.0512e-05
1.08125e-05
5.61758e-06
1.47984e-05
6.9456e-05
6.49166e-06
1.13955e-05
8.34896e-05
0.000221488
0.000243498
0.000232523
0.000208882
0.000184464
0.000165999
0.000155031
0.000152109
0.000158301
0.000172796
0.00018918
0.000196649
0.000191535
0.000183433
0.000180313
0.000175145
0.000151312
0.000110001
7.44917e-05
5.53629e-05
4.99451e-05
5.59953e-05
7.46907e-05
0.000106726
0.000137351
0.000139114
0.000114059
8.39636e-05
3.29303e-05
5.80803e-06
8.74219e-06
4.7161e-05
6.22379e-06
1.14789e-05
8.67594e-05
0.000220563
0.000229836
0.000209233
0.000182852
0.000164485
0.000156418
0.000153633
0.000150245
0.000144925
0.000142033
0.000146933
0.000162174
0.000186648
0.000215407
0.000240353
0.000250253
0.000229436
0.00017323
0.000111015
7.14726e-05
5.44099e-05
5.32863e-05
6.6529e-05
9.4715e-05
0.000127089
0.000138005
0.000111238
6.84683e-05
3.33498e-05
4.16785e-06
4.83436e-06
2.54541e-05
6.68329e-06
1.11982e-05
8.16672e-05
0.000224292
0.00023018
0.000196136
0.000161791
0.000145655
0.000147513
0.000161824
0.000182074
0.000200978
0.000212027
0.000213037
0.000208231
0.000204594
0.000206762
0.000215683
0.000228154
0.000233619
0.000213385
0.000160979
0.000104614
7.0127e-05
5.73697e-05
6.28115e-05
9.08742e-05
0.000138457
0.000142692
8.98017e-05
5.09931e-05
1.34396e-05
2.93e-06
7.4512e-06
4.59054e-05
7.19626e-06
1.16941e-05
8.65249e-05
0.000217113
0.000211546
0.000171463
0.000138902
0.000127431
0.000132255
0.000145339
0.000159649
0.000171688
0.000182178
0.000194057
0.00021007
0.000231439
0.000257234
0.000283805
0.000304177
0.000307504
0.000280167
0.000217492
0.000143653
9.1253e-05
6.65158e-05
6.44272e-05
8.87606e-05
0.000140961
0.000129084
8.25505e-05
5.33565e-05
9.48092e-06
4.5806e-06
1.40918e-05
5.59169e-05
6.78832e-06
1.18572e-05
9.0973e-05
0.000206026
0.000187857
0.0001464
0.000121141
0.000119476
0.000136792
0.000166692
0.000199874
0.000226022
0.000238557
0.000237616
0.000229568
0.000222798
0.000223221
0.000232968
0.000250595
0.000270193
0.000279723
0.000262359
0.000209407
0.0001419
9.30799e-05
7.01815e-05
6.68552e-05
7.91017e-05
9.79748e-05
9.35901e-05
6.9546e-05
3.382e-05
7.13233e-06
8.80038e-06
4.70913e-05
5.75928e-06
1.16365e-05
8.66464e-05
0.000190994
0.000178397
0.000143355
0.000117866
0.000110631
0.000118638
0.000137896
0.000163956
0.000191237
0.000214592
0.000231295
0.000241444
0.000247281
0.000252109
0.000258867
0.000268497
0.000278338
0.000281012
0.000265976
0.0002266
0.000170742
0.000119487
8.73938e-05
7.42492e-05
7.44051e-05
8.16643e-05
9.04565e-05
9.91283e-05
0.000104537
3.10945e-05
4.53037e-06
1.3089e-05
5.77348e-06
1.14675e-05
8.26459e-05
0.000181737
0.000180948
0.00015806
0.000132184
0.000115719
0.000112878
0.000123988
0.000147833
0.000179868
0.00021143
0.000234234
0.000245827
0.000249957
0.0002528
0.000259404
0.000272054
0.000289634
0.000306689
0.000312807
0.00029572
0.000250151
0.000189346
0.000138774
0.000110605
0.000100397
9.73787e-05
9.4779e-05
9.56518e-05
4.99145e-05
1.12932e-05
5.67496e-06
1.90945e-05
7.53347e-06
1.04746e-05
6.61084e-05
0.000170922
0.000189671
0.000178454
0.000151901
0.000120672
9.88241e-05
9.24337e-05
0.000102037
0.000127752
0.000167531
0.000213545
0.000254604
0.000283915
0.000302689
0.000317377
0.000334857
0.000356863
0.000365272
0.000354806
0.000343064
0.000295677
0.00022943
0.000180243
0.000156342
0.000146705
0.000127885
8.30733e-05
2.63328e-05
1.01667e-05
1.08618e-05
2.30425e-05
6.65687e-05
7.62021e-06
1.09464e-05
7.07327e-05
0.000190336
0.000209599
0.000194143
0.000173745
0.000150693
0.000122051
9.81975e-05
8.97929e-05
9.91888e-05
0.000125927
0.000166813
0.000213552
0.00025583
0.000288038
0.000311288
0.000329412
0.000343782
0.000350855
0.000344466
0.000320505
0.000279995
0.000230498
0.000183098
0.000145603
0.000117107
8.96284e-05
5.77749e-05
2.70052e-05
1.31595e-05
1.32305e-05
2.99973e-05
3.47644e-05
5.41591e-06
1.1063e-05
7.35896e-05
0.000205011
0.000197717
0.000162839
0.000151172
0.000155901
0.000153437
0.000129761
0.000104305
9.67806e-05
0.00011051
0.000143725
0.000190822
0.000241137
0.000283502
0.000312083
0.000326916
0.00033043
0.000324466
0.000309345
0.000285071
0.000253244
0.000217045
0.00018057
0.000147492
0.000120175
9.98358e-05
8.5929e-05
7.45788e-05
5.55942e-05
3.43443e-05
2.74066e-05
4.95011e-05
3.78303e-06
1.19686e-05
7.8798e-05
0.000194384
0.000144804
0.000106346
0.000106168
0.000129463
0.000158824
0.000167722
0.000145605
0.000120887
0.000116593
0.000135179
0.000172398
0.000220949
0.000271144
0.000313178
0.00034017
0.000350482
0.000346659
0.000332042
0.000309092
0.000279948
0.000246826
0.000212008
0.000177623
0.000146377
0.000123988
0.000119097
0.000135033
0.000146822
8.95116e-05
2.62653e-05
2.11535e-05
4.99747e-06
1.19515e-05
6.39088e-05
0.000145649
7.86481e-05
6.05554e-05
7.4135e-05
0.000108975
0.000156991
0.000195567
0.000201208
0.000178729
0.000160337
0.000165785
0.000196543
0.000247074
0.000309243
0.000368405
0.000401729
0.000396028
0.000389213
0.000381399
0.000364407
0.000332939
0.000295173
0.000255195
0.000216158
0.000182384
0.000156576
0.000129971
8.49419e-05
4.99029e-05
3.27824e-05
2.51989e-05
4.41112e-05
7.67416e-06
1.22268e-05
5.77982e-05
0.000102261
4.18618e-05
4.19459e-05
6.88686e-05
0.000116965
0.000173724
0.000216203
0.000228001
0.000212983
0.000195386
0.000198722
0.000235511
0.000312773
0.000414042
0.000412103
0.000406563
0.000399906
0.000391998
0.000382758
0.000372156
0.000360246
0.00034721
0.000330275
0.000264055
0.000181626
8.6612e-05
3.76285e-05
2.8373e-05
3.60595e-05
4.96713e-05
6.31883e-05
6.4984e-05
7.53437e-06
1.25127e-05
6.55785e-05
5.17893e-05
2.29078e-05
3.70637e-05
8.74482e-05
0.000159384
0.000216717
0.000248694
0.00025585
0.000244166
0.000228915
0.000228528
0.000256487
0.000321195
0.000410846
0.000420457
0.000414583
0.000407687
0.000399584
0.000390098
0.000379071
0.000366383
0.000351942
0.000335754
0.000239807
0.000129054
5.35596e-05
2.48897e-05
2.08316e-05
3.31537e-05
6.51534e-05
8.09766e-05
3.22902e-05
5.71571e-06
1.23113e-05
8.60792e-05
3.5807e-05
1.97755e-05
4.17734e-05
0.000110136
0.000165308
0.000196879
0.000214475
0.000222755
0.000226049
0.000231361
0.000246617
0.000277772
0.000326072
0.000384402
0.00043157
0.000426238
0.000420049
0.000412937
0.000404801
0.000395518
0.000384962
0.000346016
0.000284707
0.000220432
0.000153881
9.02392e-05
4.63834e-05
2.77156e-05
2.62008e-05
3.90157e-05
6.3847e-05
3.14341e-05
5.01508e-06
1.16123e-05
7.64706e-05
5.99452e-05
2.52036e-05
3.03381e-05
6.50635e-05
0.000103417
0.000136488
0.000163529
0.000184215
0.000201334
0.000219751
0.000243356
0.000273333
0.000307439
0.000340642
0.00036721
0.000383555
0.000389502
0.000386752
0.000376987
0.000360566
0.000337252
0.000307842
0.00027407
0.00023736
0.000198189
0.000156123
0.000111724
7.18168e-05
4.53057e-05
3.39219e-05
4.16889e-05
5.21173e-05
5.60036e-06
1.13348e-05
6.25623e-05
0.000118391
5.94498e-05
2.45682e-05
2.68145e-05
4.15611e-05
6.38935e-05
9.57873e-05
0.000133361
0.000171168
0.000206706
0.000240619
0.000273896
0.000306265
0.00033564
0.000359174
0.000374686
0.000381572
0.000380743
0.000373389
0.000360075
0.000340841
0.000316005
0.00028655
0.000254023
0.000220331
0.000186562
0.000150066
0.000106868
6.43614e-05
3.78377e-05
3.82345e-05
8.01881e-05
6.86428e-06
1.14216e-05
6.51517e-05
0.000139109
0.000149303
9.94275e-05
4.58405e-05
2.9532e-05
2.68425e-05
3.4387e-05
5.36097e-05
8.69054e-05
0.000132707
0.000183149
0.000231712
0.000277629
0.000321089
0.000359972
0.000390961
0.000411055
0.000419142
0.000416691
0.000405665
0.000386419
0.000358578
0.000322172
0.000276743
0.000220382
0.000157446
0.000108298
8.02072e-05
6.09114e-05
4.75735e-05
5.62504e-05
8.80632e-05
7.59415e-06
1.10338e-05
6.25312e-05
0.000160527
0.000203198
0.000207496
0.000177675
0.000100654
5.10346e-05
2.81972e-05
1.91873e-05
2.17477e-05
3.89805e-05
7.8367e-05
0.000140997
0.00021079
0.000275542
0.000337232
0.000397154
0.000436904
0.000436044
0.00043295
0.000427961
0.000421383
0.000413556
0.000370896
0.000298718
0.000204608
0.000113313
6.64549e-05
5.75922e-05
6.43567e-05
7.20721e-05
9.4258e-05
6.72156e-05
7.32149e-06
1.1078e-05
6.12762e-05
0.000181246
0.000217138
0.000218995
0.000231185
0.000243471
0.000216861
0.000129163
5.8192e-05
2.34824e-05
1.0064e-05
1.35616e-05
3.94031e-05
9.92644e-05
0.000188107
0.000279287
0.00036101
0.000424357
0.000428801
0.000429878
0.00042799
0.000423508
0.000416785
0.000381631
0.000303723
0.000205067
0.000109774
5.68398e-05
4.36877e-05
5.63208e-05
8.65861e-05
0.000111493
5.03431e-05
6.90162e-06
1.18339e-05
7.03586e-05
0.000186345
0.000204203
0.000177051
0.000151368
0.000157034
0.000201425
0.000259396
0.000262549
0.000140979
4.35874e-05
1.08628e-05
7.20318e-06
2.81415e-05
8.57018e-05
0.000184105
0.000293108
0.000379539
0.000414375
0.000420785
0.000423578
0.0004231
0.000413118
0.00036436
0.000301902
0.000225085
0.000139278
7.33365e-05
4.41304e-05
4.29108e-05
6.74254e-05
0.000102377
4.49824e-05
7.00114e-06
1.24703e-05
8.52e-05
0.000205369
0.00023062
0.000221742
0.000185911
0.000142308
0.000124566
0.00014209
0.000196509
0.000258195
0.000209402
6.26934e-05
1.47134e-05
1.00354e-05
3.33981e-05
9.45283e-05
0.000192889
0.000293288
0.000362262
0.000396413
0.000404907
0.000395132
0.000371668
0.000337816
0.000295353
0.000243444
0.00018017
0.000113044
6.43484e-05
4.43426e-05
5.00091e-05
8.56193e-05
5.15556e-05
7.55775e-06
1.19183e-05
7.84304e-05
0.000206154
0.000232023
0.000227459
0.000215607
0.000196256
0.000166028
0.000142769
0.000143956
0.000172096
0.00021049
0.000185249
6.4269e-05
1.85502e-05
1.63585e-05
4.33724e-05
0.000106027
0.000193783
0.00027188
0.00031939
0.000338986
0.0003396
0.000327595
0.000306707
0.000279074
0.000245357
0.000204018
0.000152568
9.71296e-05
5.78039e-05
4.61182e-05
6.56037e-05
7.03407e-05
8.27202e-06
1.17884e-05
7.27678e-05
0.000193947
0.000208501
0.000188854
0.000168603
0.000163329
0.000170737
0.00017687
0.00017501
0.000177024
0.000192606
0.000209005
0.000172663
6.86227e-05
2.55196e-05
2.33528e-05
4.96481e-05
0.000107473
0.000182319
0.000243937
0.000279824
0.000293749
0.000291974
0.000279126
0.000258555
0.000232616
0.000201407
0.00016119
0.000109982
6.36571e-05
4.42904e-05
5.76033e-05
8.23821e-05
8.82039e-06
1.1891e-05
7.33838e-05
0.000193547
0.000211292
0.000190169
0.000160566
0.000143174
0.000144721
0.000161555
0.000183465
0.000200529
0.000214611
0.000233633
0.00024981
0.000214051
9.68409e-05
4.00906e-05
2.96595e-05
4.79536e-05
9.75065e-05
0.000165378
0.000219376
0.000248671
0.000258047
0.000251766
0.000232557
0.000203912
0.000170585
0.000134226
9.32862e-05
5.77003e-05
4.39837e-05
6.29116e-05
7.55104e-05
8.95231e-06
1.20498e-05
7.30235e-05
0.000193235
0.000206977
0.000183263
0.000155782
0.000140109
0.000138696
0.000149661
0.000169858
0.000193479
0.000214753
0.000234753
0.000260687
0.000292033
0.000288866
0.000167345
6.92868e-05
3.87842e-05
4.27874e-05
7.95283e-05
0.000143254
0.000195025
0.000219394
0.000222685
0.000206745
0.000172388
0.000130406
9.77671e-05
7.45083e-05
5.5591e-05
5.16639e-05
8.3375e-05
6.62541e-05
8.82334e-06
1.19534e-05
6.63098e-05
0.000173625
0.000181708
0.000155132
0.000130512
0.000122492
0.000130115
0.000147942
0.000170984
0.000195392
0.00021682
0.000231559
0.000242023
0.000258314
0.000289303
0.000320161
0.000273522
0.000128311
5.86162e-05
4.35901e-05
6.49846e-05
0.00012117
0.000168605
0.000184564
0.000177986
0.0001484
0.000103718
7.11336e-05
5.96082e-05
5.90288e-05
7.07134e-05
0.000117185
6.00353e-05
8.5865e-06
1.2169e-05
6.5998e-05
0.000168835
0.000172894
0.000144623
0.000118649
0.00010945
0.000117217
0.000137533
0.000164031
0.000190513
0.000213277
0.00023009
0.000238513
0.00023851
0.000236992
0.000244978
0.000265126
0.000265584
0.000178297
8.57059e-05
5.32992e-05
6.18278e-05
0.000110155
0.000159476
0.000167846
0.000146458
0.000102693
6.30075e-05
4.84042e-05
5.55141e-05
8.50513e-05
0.00013252
5.21608e-05
8.26899e-06
1.21773e-05
6.78203e-05
0.000171858
0.000171857
0.000141882
0.000116608
0.000108559
0.000116999
0.000137266
0.000162499
0.000185373
0.000201779
0.000212417
0.000220603
0.000228696
0.000236469
0.000242799
0.00024823
0.000251631
0.00023845
0.000182525
0.00011107
7.53167e-05
7.74204e-05
0.0001115
0.000149962
0.000153202
0.000118679
7.19959e-05
4.71818e-05
4.79191e-05
7.67947e-05
0.000121871
4.40428e-05
8.0188e-06
1.20882e-05
7.06308e-05
0.000170037
0.000165396
0.000134217
0.000109203
0.00010392
0.00011771
0.000144394
0.000173171
0.00019378
0.000202461
0.000202995
0.000202905
0.000208318
0.000221002
0.000235413
0.000235277
0.000200067
0.000141366
9.96842e-05
8.69615e-05
0.000103111
0.000149798
0.000203732
0.000218895
0.000190467
0.000136541
8.26727e-05
5.23208e-05
4.80024e-05
7.19137e-05
0.000112171
3.90193e-05
8.07532e-06
1.1704e-05
7.31037e-05
0.000165682
0.000159574
0.000129328
0.000103462
9.65386e-05
0.000108964
0.000132999
0.00015168
0.000151571
0.000137479
0.000124773
0.000120528
0.000123673
0.000135738
0.000161145
0.000193112
0.000208776
0.000200611
0.000184805
0.000178515
0.000187913
0.000204194
0.000212036
0.00020358
0.000177475
0.000136764
9.2917e-05
6.22304e-05
5.30249e-05
7.03044e-05
0.000110739
4.17243e-05
8.48407e-06
1.17461e-05
7.77918e-05
0.000174475
0.000168248
0.000136167
0.000105054
8.89462e-05
8.88476e-05
9.91692e-05
0.000107905
0.00010601
0.000101497
0.00011063
0.000141346
0.000179073
0.00019559
0.000191574
0.000182515
0.000176898
0.000174886
0.000175326
0.000179225
0.000187226
0.000196396
0.000201317
0.000197172
0.000180853
0.000151336
0.000113157
7.93621e-05
6.37257e-05
7.60901e-05
0.000125714
5.47749e-05
9.06236e-06
1.1938e-05
7.90714e-05
0.000182044
0.00017766
0.000148289
0.000119429
0.000100152
9.27873e-05
9.93527e-05
0.000121646
0.00015596
0.000181248
0.000166295
0.000121301
9.04641e-05
8.58005e-05
0.00010319
0.000134024
0.000162223
0.000178252
0.000186458
0.000192894
0.000199742
0.000206151
0.000209407
0.000206077
0.000193272
0.000168929
0.000134153
9.90875e-05
8.07797e-05
9.38319e-05
0.000148475
6.8838e-05
9.35452e-06
1.22006e-05
8.32958e-05
0.000183565
0.000174612
0.00014464
0.000121751
0.00011237
0.000111192
0.000112741
0.000117173
0.000127808
0.000147146
0.000174254
0.000197125
0.000186567
0.000136752
9.88536e-05
9.41733e-05
0.00012027
0.000162735
0.000190772
0.000196274
0.000193105
0.000191485
0.00019342
0.000194275
0.000186164
0.000165061
0.00013494
0.000107164
9.64228e-05
0.000116795
0.000167091
7.27164e-05
9.30608e-06
1.22553e-05
8.68576e-05
0.000186525
0.000174778
0.00014288
0.000118891
0.000110413
0.000114972
0.000126902
0.0001394
0.000148948
0.000157272
0.000168563
0.000185815
0.000205982
0.00021185
0.000179107
0.000124889
9.35912e-05
9.65871e-05
0.000131503
0.000172858
0.000183773
0.000171485
0.000157311
0.00015126
0.000151149
0.000146059
0.000129998
0.000113369
0.000112765
0.000140592
0.000177473
6.79647e-05
9.057e-06
1.24201e-05
8.91583e-05
0.000189826
0.000174044
0.000142051
0.000121
0.000113929
0.000116744
0.00012577
0.000137756
0.000149593
0.000159296
0.000166653
0.000172916
0.000180184
0.000189876
0.000198512
0.000192994
0.000161596
0.000121307
9.89845e-05
0.000102991
0.00012899
0.000150642
0.000146713
0.000131171
0.000121283
0.000120232
0.000121383
0.000122001
0.000132308
0.000161207
0.000179514
6.33042e-05
8.81426e-06
1.22175e-05
8.69246e-05
0.000183083
0.000161366
0.000129115
0.000112142
0.000110677
0.000118561
0.000129182
0.000137757
0.000143546
0.000149166
0.000157753
0.000170399
0.000185614
0.00020073
0.00021396
0.000224105
0.000226562
0.000212124
0.000179717
0.000145846
0.000126445
0.000123131
0.000125334
0.000120047
0.000109191
0.000103606
0.000107344
0.000119513
0.000141229
0.000170187
0.000176163
6.14428e-05
8.80171e-06
1.18565e-05
8.23479e-05
0.000178066
0.000155516
0.000123747
0.00010869
0.000108615
0.000116756
0.000126638
0.000132621
0.000133857
0.000136223
0.000146284
0.000166149
0.000193552
0.000222408
0.000243155
0.000245741
0.00022739
0.000196878
0.000167568
0.000148785
0.000143904
0.00014981
0.000153975
0.00014308
0.000121846
0.000106394
0.000105317
0.00011963
0.000147055
0.000175726
0.0001741
5.90842e-05
9.01965e-06
1.12429e-05
7.26617e-05
0.000167023
0.000136244
0.000101734
9.17466e-05
9.76728e-05
0.000107925
0.0001134
0.000109374
0.000101432
0.000102008
0.000117983
0.000149222
0.000189206
0.000225648
0.000246983
0.00024952
0.000237788
0.000220036
0.000203684
0.00019273
0.000186906
0.000181103
0.00016797
0.000145302
0.000120369
0.000104192
0.00010329
0.000119316
0.000149257
0.000177854
0.000170557
5.5355e-05
9.23905e-06
1.07486e-05
5.54562e-05
0.000139684
0.000107588
7.09194e-05
6.48596e-05
7.56643e-05
8.96259e-05
9.73881e-05
9.5791e-05
8.87491e-05
8.75829e-05
0.000102098
0.000134662
0.000175716
0.000206416
0.000219362
0.000220604
0.000217148
0.000212136
0.000206808
0.000201476
0.000194806
0.000183703
0.000165362
0.000140729
0.000116103
9.9949e-05
9.811e-05
0.000113437
0.000144659
0.000175768
0.000166454
5.22598e-05
9.23114e-06
1.02651e-05
3.88878e-05
9.65458e-05
7.97831e-05
4.25772e-05
3.82955e-05
5.32068e-05
7.73634e-05
0.000100383
0.000113713
0.000110264
8.76904e-05
6.85106e-05
7.22746e-05
0.000100243
0.000145456
0.000187258
0.000211651
0.000222256
0.000226119
0.00022626
0.000222601
0.000213753
0.000198104
0.00017507
0.000146881
0.000119569
0.000100815
9.64013e-05
0.000110129
0.00014231
0.000175119
0.00016209
4.94618e-05
9.01403e-06
9.98942e-06
3.12098e-05
7.57067e-05
7.04376e-05
2.58618e-05
1.92981e-05
3.19824e-05
5.77482e-05
8.91535e-05
0.000114576
0.000129489
0.000131047
0.000109539
7.8215e-05
7.11664e-05
9.45867e-05
0.000144616
0.00019655
0.000225073
0.000234062
0.000234973
0.000231823
0.000223022
0.000206305
0.000181589
0.000151866
0.000123184
0.000102832
9.67591e-05
0.000109603
0.000142594
0.000175721
0.000158099
4.69539e-05
8.74429e-06
1.03233e-05
3.22897e-05
8.61532e-05
8.01111e-05
2.23488e-05
1.24468e-05
2.31365e-05
5.03399e-05
9.24592e-05
0.000134726
0.000163522
0.000176538
0.000169955
0.000132499
8.34676e-05
6.38335e-05
7.83126e-05
0.000125367
0.000186435
0.000223025
0.000231215
0.000226858
0.000217739
0.000203098
0.000180884
0.000152703
0.000124588
0.000104245
9.81252e-05
0.000111477
0.000145583
0.000178003
0.000155846
4.52647e-05
8.55744e-06
1.16633e-05
4.32052e-05
0.000132794
6.80454e-05
2.22896e-05
1.49471e-05
2.83075e-05
6.1257e-05
0.00010789
0.000150348
0.000179727
0.000196961
0.000202962
0.000190188
0.00014626
9.05501e-05
6.27921e-05
6.94421e-05
0.0001094
0.000169069
0.000206221
0.000211969
0.000203278
0.000189643
0.000171433
0.000148197
0.000123843
0.00010571
0.000101068
0.000115945
0.000150991
0.000181517
0.000154491
4.40618e-05
8.43945e-06
1.32158e-05
7.05196e-05
0.000122126
4.32394e-05
2.22661e-05
2.65707e-05
5.09833e-05
8.78527e-05
0.000122469
0.000150445
0.000171901
0.000187516
0.000197142
0.000197425
0.00017902
0.000135186
8.53743e-05
5.87018e-05
6.16232e-05
9.42883e-05
0.000145208
0.000176463
0.00017994
0.000170367
0.000156213
0.000139152
0.000121153
0.000107611
0.000105834
0.000122534
0.000157665
0.000186077
0.000155894
4.3932e-05
8.42084e-06
1.36692e-05
9.83603e-05
9.38889e-05
4.43921e-05
3.31462e-05
4.06384e-05
5.49111e-05
7.31827e-05
9.60151e-05
0.000120784
0.000144034
0.000163877
0.000180017
0.000191488
0.000193207
0.000174263
0.000129755
8.11697e-05
5.49209e-05
5.60577e-05
8.40686e-05
0.000127194
0.000152242
0.000153147
0.000143002
0.00013008
0.000117598
0.000109218
0.000111037
0.000129537
0.000164079
0.000190867
0.000160156
4.50195e-05
8.49041e-06
1.30682e-05
8.20537e-05
0.000136799
0.00010534
6.79776e-05
4.44943e-05
3.5832e-05
3.81053e-05
4.97659e-05
7.14485e-05
0.000100965
0.000131459
0.000157687
0.000178905
0.000194634
0.000199365
0.000180132
0.000131149
7.88316e-05
5.18222e-05
5.25559e-05
7.81362e-05
0.00011493
0.000134691
0.000133812
0.000124475
0.000114993
0.000110122
0.000114948
0.000134926
0.000168645
0.000194023
0.000164323
4.64751e-05
8.57783e-06
1.25552e-05
6.50594e-05
0.000151869
0.000167936
0.000141906
8.57768e-05
4.63346e-05
2.75413e-05
2.07921e-05
2.49436e-05
4.32346e-05
7.73443e-05
0.000119885
0.000159273
0.000190948
0.000214035
0.000221929
0.000197277
0.000135048
7.53768e-05
4.91592e-05
5.18641e-05
7.70203e-05
0.000108329
0.000122644
0.000120527
0.000114149
0.000111729
0.000118634
0.000139367
0.000171699
0.000195515
0.000168405
4.83281e-05
8.71129e-06
1.25423e-05
6.72222e-05
0.000185831
0.00022666
0.000223661
0.000197947
0.000133167
6.34693e-05
2.49263e-05
9.24737e-06
1.01922e-05
2.77663e-05
6.5403e-05
0.000119944
0.000177204
0.000225927
0.000259021
0.000259916
0.000206472
0.000121126
6.36274e-05
4.63991e-05
5.54616e-05
8.18467e-05
0.000107209
0.000115848
0.000113518
0.000112401
0.000120411
0.000141788
0.000173375
0.000196358
0.000172163
5.046e-05
8.91877e-06
1.27211e-05
7.62152e-05
0.0002198
0.000256693
0.000261194
0.000262081
0.000248768
0.000183379
7.25685e-05
1.7399e-05
1.4665e-06
7.16999e-06
3.10753e-05
7.74329e-05
0.000142665
0.000212207
0.0002692
0.0002903
0.000247948
0.000155865
7.88094e-05
4.72896e-05
4.67453e-05
6.60277e-05
9.31237e-05
0.000110289
0.00011358
0.000113801
0.00012173
0.000142992
0.00017441
0.00019745
0.000174321
5.15514e-05
9.13124e-06
1.27961e-05
8.15634e-05
0.000210862
0.000236005
0.000237537
0.000238712
0.00024172
0.000232548
0.000164021
5.49196e-05
9.18528e-06
2.05268e-06
1.58112e-05
4.84656e-05
0.00010039
0.000162559
0.000219514
0.000250624
0.000229045
0.000154623
8.06479e-05
4.52723e-05
4.16219e-05
5.83092e-05
8.44782e-05
0.000105048
0.000113184
0.000116323
0.000125136
0.000146308
0.000177347
0.000200105
0.000175397
5.16477e-05
9.31616e-06
1.27952e-05
8.4544e-05
0.000204822
0.000224969
0.000222538
0.000218954
0.000220126
0.000222534
0.00020875
0.000138567
4.92044e-05
1.22182e-05
9.03992e-06
2.42252e-05
5.66141e-05
0.000104538
0.000156936
0.000194638
0.000192313
0.000140152
7.70252e-05
4.20353e-05
3.60622e-05
5.2406e-05
8.08562e-05
9.98595e-05
0.000108935
0.000115711
0.000127747
0.000150432
0.000181358
0.0002031
0.000174387
5.08553e-05
9.41323e-06
1.28516e-05
9.01676e-05
0.000220686
0.000242879
0.000237072
0.000228377
0.000227925
0.000237314
0.000248242
0.000239157
0.000164633
6.64317e-05
2.3369e-05
1.4078e-05
2.22985e-05
4.7784e-05
9.03222e-05
0.000135096
0.000154792
0.000129598
7.84558e-05
4.18781e-05
3.02378e-05
4.16088e-05
7.58717e-05
0.000101153
0.000106095
0.000111602
0.000127144
0.00015411
0.000186032
0.00020494
0.000168414
4.87688e-05
9.31272e-06
1.30035e-05
9.8093e-05
0.000245636
0.00027013
0.000257909
0.000240028
0.000232675
0.000242022
0.000265116
0.000290581
0.000297135
0.00023535
0.000110877
4.35841e-05
2.03067e-05
1.74568e-05
3.19372e-05
6.53438e-05
0.000102866
0.000114611
8.92582e-05
5.14658e-05
3.00539e-05
2.85221e-05
4.95131e-05
9.37497e-05
0.000113385
0.000114013
0.000124116
0.000150913
0.000185594
0.000204764
0.000163925
4.70479e-05
9.11369e-06
1.32459e-05
0.000106175
0.000261121
0.000278939
0.000258206
0.00023498
0.000224744
0.000230733
0.000252619
0.000287719
0.000327641
0.00035701
0.000338236
0.000207367
8.48302e-05
3.45251e-05
1.74377e-05
1.89195e-05
3.94244e-05
7.17888e-05
8.7547e-05
7.14675e-05
4.27608e-05
2.70708e-05
2.81313e-05
4.92758e-05
9.26906e-05
0.000120565
0.000130427
0.000148845
0.000180141
0.000202932
0.000166763
4.73489e-05
9.04254e-06
1.33932e-05
0.000108762
0.000255476
0.000259138
0.000230855
0.000210521
0.000210368
0.000226486
0.000251992
0.000283616
0.000321237
0.00036322
0.000403694
0.000424478
0.000361164
0.000174585
6.57562e-05
2.59023e-05
1.41374e-05
2.12636e-05
4.48684e-05
6.56678e-05
6.15091e-05
4.04485e-05
2.66497e-05
2.71186e-05
4.43724e-05
8.1556e-05
0.000122085
0.000152033
0.000179176
0.000197925
0.000169948
5.06815e-05
9.26223e-06