/*--------------------------------*- C++ -*----------------------------------*\
| =========                 |                                                 |
| \\      /  F ield         | OpenFOAM: The Open Source CFD Toolbox           |
|  \\    /   O peration     | Version:  v2006                                 |
|   \\  /    A nd           | Website:  www.openfoam.com                      |
|    \\/     M anipulation  |                                                 |
\*---------------------------------------------------------------------------*/
FoamFile
{
    version     2.0;
    format      ascii;
    class       volScalarField;
    location    "53";
    object      nut;
}
// * * * * * * * * * * * * * * * * * * * * * * * * * * * * * * * * * * * * * //

dimensions      [0 2 -1 0 0 0 0];


internalField   nonuniform List<scalar> 
78750
(
6.73706e-07
2.53105e-06
1.38392e-06
9.96122e-06
2.32788e-05
7.67892e-05
5.64983e-05
5.61274e-05
4.73499e-05
5.09195e-05
4.02968e-05
4.7745e-05
3.85234e-05
4.57434e-05
3.90184e-05
4.40026e-05
4.22752e-05
4.61402e-05
4.91986e-05
5.4554e-05
6.07795e-05
6.72538e-05
7.30979e-05
7.72986e-05
8.00994e-05
8.13677e-05
8.04482e-05
7.81681e-05
7.3673e-05
6.92042e-05
6.49878e-05
6.13374e-05
5.42107e-05
6.29252e-05
8.86091e-06
1.0269e-06
8.15553e-06
4.31956e-06
1.26031e-06
2.63687e-06
1.73914e-06
4.22157e-06
1.19251e-05
1.07077e-05
8.5787e-06
1.56034e-05
2.13278e-05
2.44207e-05
2.67966e-05
2.85363e-05
2.92289e-05
2.99983e-05
3.04293e-05
3.08744e-05
3.06661e-05
2.98184e-05
2.85587e-05
2.70324e-05
2.62896e-05
2.78255e-05
2.78945e-05
2.57939e-05
2.48589e-05
2.8022e-05
3.09412e-05
3.47793e-05
4.05451e-05
4.13297e-05
4.32128e-05
1.03345e-05
4.91743e-07
6.24302e-07
3.31563e-06
1.56285e-07
7.1688e-06
4.31205e-05
5.64789e-05
7.15711e-05
7.05949e-05
8.15333e-05
9.68055e-05
0.000104026
0.00010624
0.00010242
9.52437e-05
8.90101e-05
8.5786e-05
8.45227e-05
8.24572e-05
7.75866e-05
7.15898e-05
6.70786e-05
6.56291e-05
6.91104e-05
7.39008e-05
4.00695e-05
2.07846e-05
1.62132e-05
1.61906e-05
1.69589e-05
1.91729e-05
2.07428e-05
2.39601e-05
2.98147e-05
1.09664e-05
1.14361e-05
8.55082e-05
6.94217e-05
0.000145847
0.000125414
7.71001e-05
6.25727e-05
7.02455e-05
7.38551e-05
6.46852e-05
4.91353e-05
4.3556e-05
4.91307e-05
6.66728e-05
9.68816e-05
0.000134721
0.000163915
0.000163857
0.000139049
0.000125337
0.000139217
0.000138102
6.56683e-05
3.80947e-05
3.68099e-05
4.15707e-05
2.34901e-05
2.11261e-05
2.29376e-05
2.21075e-05
2.15569e-05
2.24721e-05
2.84568e-05
5.02665e-05
1.02385e-05
6.87265e-06
3.05106e-05
7.2041e-05
8.01435e-05
9.45229e-05
0.000106795
0.000110746
0.000108077
0.000100852
8.60613e-05
6.7419e-05
5.15179e-05
4.2661e-05
4.08641e-05
4.49364e-05
5.18955e-05
5.46426e-05
5.43318e-05
6.27932e-05
7.67655e-05
4.32451e-05
2.54882e-05
3.16374e-05
1.72524e-05
1.42705e-05
1.83683e-05
2.44121e-05
3.19144e-05
3.43395e-05
2.395e-05
1.63078e-05
1.53599e-05
2.67436e-05
7.74172e-05
9.03555e-06
9.57146e-06
9.63116e-05
0.000148732
0.000203931
0.000237884
0.000206121
0.000138665
9.17411e-05
6.94585e-05
6.30494e-05
6.83775e-05
8.19924e-05
9.30041e-05
8.87784e-05
7.48116e-05
6.31184e-05
5.71021e-05
5.3875e-05
4.85648e-05
4.03047e-05
2.86487e-05
1.37623e-05
9.74997e-06
1.49796e-05
1.28627e-05
1.43819e-05
1.95885e-05
2.9724e-05
4.62829e-05
4.67138e-05
2.98712e-05
2.43128e-05
3.84385e-05
5.26142e-05
7.81634e-06
6.35989e-06
2.84363e-05
8.31592e-05
9.35954e-05
9.81069e-05
0.00010032
9.91107e-05
9.29378e-05
8.05311e-05
6.39503e-05
4.94308e-05
4.11927e-05
3.97041e-05
4.43832e-05
5.45325e-05
6.87296e-05
8.43998e-05
9.70941e-05
9.85126e-05
8.43085e-05
6.62248e-05
5.32713e-05
4.30172e-05
3.52566e-05
3.16665e-05
2.49936e-05
1.84418e-05
1.80939e-05
2.23185e-05
3.10993e-05
4.07579e-05
4.29832e-05
5.45442e-05
4.64236e-05
6.28951e-06
8.01319e-06
8.99789e-05
0.000156676
0.000182786
0.000191663
0.000186454
0.000171262
0.000151585
0.000131206
0.000111276
9.11684e-05
7.1654e-05
5.58285e-05
4.5725e-05
4.07148e-05
3.88755e-05
3.87538e-05
4.03724e-05
4.42065e-05
4.93322e-05
5.2835e-05
5.25554e-05
4.98204e-05
4.81527e-05
5.17075e-05
5.64454e-05
3.7815e-05
2.37235e-05
1.96595e-05
2.06648e-05
2.72091e-05
4.40331e-05
6.49018e-05
4.45185e-05
5.75942e-06
6.97056e-06
3.74355e-05
0.000109702
0.000119519
0.00012038
0.000119765
0.000117716
0.000113489
0.0001065
9.66239e-05
8.42617e-05
7.04796e-05
5.73587e-05
4.73733e-05
4.17365e-05
3.95751e-05
3.83143e-05
3.61878e-05
3.45679e-05
3.52338e-05
3.77529e-05
4.05449e-05
4.27131e-05
4.41952e-05
4.56455e-05
4.8108e-05
4.98922e-05
4.22741e-05
2.76312e-05
1.80242e-05
1.46e-05
1.87168e-05
3.90457e-05
5.80159e-05
5.45391e-06
6.06143e-06
4.17812e-05
0.000124137
0.000172546
0.000186902
0.000184711
0.000172416
0.000157236
0.000142451
0.000125576
0.000104297
8.25121e-05
6.4363e-05
5.01787e-05
3.99415e-05
3.4809e-05
3.58194e-05
4.27523e-05
5.2262e-05
5.8519e-05
5.90318e-05
5.58308e-05
5.1843e-05
4.94258e-05
5.0998e-05
5.7764e-05
6.63947e-05
6.7852e-05
5.1831e-05
2.61904e-05
1.29528e-05
1.15637e-05
2.52073e-05
6.50102e-05
5.38783e-06
7.39406e-06
4.594e-05
0.000139563
0.000162726
0.000162166
0.000152424
0.000136404
0.000118694
0.000105413
0.000100166
0.00010305
0.00010993
0.000109717
9.4717e-05
7.43251e-05
5.71801e-05
4.46657e-05
3.6811e-05
3.3632e-05
3.49288e-05
3.97496e-05
4.5667e-05
4.99534e-05
5.13572e-05
5.08842e-05
5.11291e-05
5.34422e-05
5.57878e-05
5.30207e-05
3.75721e-05
1.61445e-05
7.99013e-06
1.20053e-05
5.61663e-05
5.16275e-06
6.47781e-06
3.87953e-05
0.000115897
0.000157149
0.000168003
0.000169062
0.000165814
0.00015973
0.000148874
0.000131516
0.000111999
9.8309e-05
9.42141e-05
9.72747e-05
9.83949e-05
8.91504e-05
7.40672e-05
6.01031e-05
4.93696e-05
4.30504e-05
4.3075e-05
5.14486e-05
6.77007e-05
8.24383e-05
8.39955e-05
7.61647e-05
6.97151e-05
6.75179e-05
6.20071e-05
3.96398e-05
1.28108e-05
7.48519e-06
1.1329e-05
5.51261e-05
5.56357e-06
7.49187e-06
4.83988e-05
0.000145036
0.000178144
0.000180083
0.000170093
0.000153836
0.000137033
0.000123852
0.000115472
0.000110484
0.000107363
0.000107796
0.000116011
0.000132499
0.000144035
0.000128097
9.3649e-05
6.60123e-05
4.96325e-05
4.14281e-05
4.02257e-05
4.74366e-05
6.60116e-05
9.33071e-05
0.00010664
8.94603e-05
6.4647e-05
5.06991e-05
3.71479e-05
8.09669e-06
5.40624e-06
1.15709e-05
6.4859e-05
5.82317e-06
7.84199e-06
5.8689e-05
0.000151191
0.000170397
0.000170199
0.000162226
0.000151104
0.000140069
0.000130608
0.000122816
0.000115745
0.000108091
0.000100553
9.73801e-05
0.000103906
0.000122848
0.000146705
0.000147216
0.000109758
7.12408e-05
5.02661e-05
4.2534e-05
4.50442e-05
6.00178e-05
9.11246e-05
0.000119233
0.000106901
7.33164e-05
5.07794e-05
3.72836e-05
8.03542e-06
4.32331e-06
1.22538e-05
5.99666e-05
5.87479e-06
7.78355e-06
5.92861e-05
0.000159591
0.000177011
0.000170299
0.000154024
0.00013687
0.000123871
0.000116269
0.000114568
0.000119644
0.000130937
0.000143616
0.000149478
0.000145718
0.000139626
0.000137279
0.000133343
0.000115178
8.36995e-05
5.66305e-05
4.20059e-05
3.77675e-05
4.21675e-05
5.60267e-05
7.98002e-05
0.000102429
0.000103499
8.46602e-05
6.21922e-05
2.43873e-05
4.35185e-06
6.96448e-06
4.00205e-05
5.63403e-06
7.87978e-06
6.20402e-05
0.000160105
0.000168385
0.000154514
0.000136002
0.000123105
0.000117659
0.000116012
0.000113793
0.000110024
0.000108027
0.000111901
0.000123604
0.00014231
0.00016425
0.000183256
0.000190766
0.000174844
0.00013195
8.44905e-05
5.43108e-05
4.12293e-05
4.02193e-05
5.00108e-05
7.09592e-05
9.49604e-05
0.000102877
8.27212e-05
5.0774e-05
2.46781e-05
3.1004e-06
3.72311e-06
2.10555e-05
6.02267e-06
7.66095e-06
5.82994e-05
0.000162661
0.000168541
0.000144817
0.000120372
0.000109069
0.000110998
0.000122181
0.000137798
0.000152376
0.000160989
0.000161963
0.000158484
0.000155854
0.000157604
0.000164464
0.000173997
0.000178157
0.000162693
0.000122682
7.96528e-05
5.32951e-05
4.34595e-05
4.73818e-05
6.82787e-05
0.000103718
0.000106627
6.69312e-05
3.79119e-05
1.00086e-05
2.23522e-06
5.9306e-06
3.85406e-05
6.48119e-06
8.05896e-06
6.22662e-05
0.000158772
0.000156256
0.000127776
0.000104337
9.63121e-05
0.000100353
0.000110524
0.000121552
0.000130813
0.000138878
0.000147997
0.000160267
0.00017662
0.000196342
0.00021664
0.000232185
0.000234692
0.000213772
0.000165872
0.000109464
6.94237e-05
5.04654e-05
4.86931e-05
6.6811e-05
0.00010576
9.65979e-05
6.16398e-05
3.98411e-05
7.15536e-06
3.61718e-06
1.19718e-05
4.91462e-05
6.22224e-06
8.19739e-06
6.55801e-05
0.000150899
0.000139031
0.000109395
9.13075e-05
9.06336e-05
0.000104161
0.000127151
0.000152558
0.000172534
0.000182088
0.000181352
0.000175204
0.000170047
0.000170389
0.000177847
0.000191311
0.000206263
0.000213507
0.000200199
0.000159717
0.000108133
7.08133e-05
5.32513e-05
5.05545e-05
5.96027e-05
7.35868e-05
7.00984e-05
5.19818e-05
2.53069e-05
5.42655e-06
7.15251e-06
4.10305e-05
5.28692e-06
8.06492e-06
6.26463e-05
0.0001403
0.000132406
0.000107397
8.90494e-05
8.41378e-05
9.06187e-05
0.000105576
0.000125655
0.000146595
0.000164465
0.000177194
0.00018488
0.000189258
0.000192868
0.000197962
0.000205258
0.000212713
0.000214683
0.000203112
0.000172947
0.000130205
9.09922e-05
6.64107e-05
5.62688e-05
5.62292e-05
6.15574e-05
6.80244e-05
7.43673e-05
7.82151e-05
2.31685e-05
3.39738e-06
1.06225e-05
5.19084e-06
7.93716e-06
5.95899e-05
0.000133076
0.000133834
0.000117949
9.94443e-05
8.76762e-05
8.59948e-05
9.48026e-05
0.00011326
0.000137921
0.000162153
0.000179609
0.000188429
0.000191506
0.00019359
0.000198552
0.00020814
0.000221494
0.000234436
0.000238999
0.000225818
0.000190879
0.000144323
0.000105602
8.39847e-05
7.60663e-05
7.36508e-05
7.16021e-05
7.22067e-05
3.76341e-05
8.52203e-06
4.29185e-06
1.52557e-05
6.67297e-06
7.17477e-06
4.73235e-05
0.000124483
0.000139604
0.000132511
0.000113694
9.09919e-05
7.50202e-05
7.05515e-05
7.81701e-05
9.80696e-05
0.000128715
0.000164088
0.000195587
0.000217999
0.000232275
0.000243386
0.000256618
0.000273303
0.00027956
0.000271364
0.000262176
0.000225737
0.000174917
0.000137156
0.000118715
0.000111219
9.69424e-05
6.31634e-05
2.02585e-05
8.09877e-06
9.04999e-06
1.95435e-05
5.78788e-05
6.98875e-06
7.48403e-06
5.06256e-05
0.000138828
0.000154679
0.000144675
0.000130539
0.00011396
9.27798e-05
7.49652e-05
6.87765e-05
7.61402e-05
9.67753e-05
0.000128244
0.000164162
0.000196594
0.000221234
0.000238952
0.000252704
0.000263555
0.000268799
0.000263722
0.00024519
0.000214003
0.000175963
0.000139552
0.000110744
8.88754e-05
6.79477e-05
4.39296e-05
2.08236e-05
1.05287e-05
1.12378e-05
2.67863e-05
3.19083e-05
5.086e-06
7.57769e-06
5.29043e-05
0.000150298
0.000146792
0.000122292
0.000114648
0.000119049
0.000117656
9.97399e-05
8.02842e-05
7.45522e-05
8.51573e-05
0.000110747
0.000146989
0.000185653
0.000218138
0.000239968
0.000251194
0.000253706
0.000248938
0.000237154
0.000218371
0.000193826
0.00016596
0.000137912
0.000112485
9.14809e-05
7.5827e-05
6.51337e-05
5.65471e-05
4.2422e-05
2.66793e-05
2.20332e-05
4.18321e-05
3.42141e-06
8.27879e-06
5.70038e-05
0.000143126
0.000107979
8.0352e-05
8.11238e-05
9.96385e-05
0.000122688
0.000129752
0.000112656
9.34687e-05
9.00658e-05
0.000104333
0.000132958
0.00017028
0.000208822
0.000241031
0.000261628
0.000269373
0.000266248
0.00025484
0.000237055
0.000214547
0.000189023
0.000162233
0.000135808
0.000111808
9.45761e-05
9.06418e-05
0.000102425
0.000110949
6.73708e-05
1.96544e-05
1.63407e-05
4.3383e-06
8.26006e-06
4.60835e-05
0.000107053
5.87055e-05
4.59385e-05
5.69049e-05
8.42137e-05
0.000121723
0.000151844
0.000156265
0.000138728
0.000124301
0.00012834
0.000151949
0.0001908
0.00023858
0.000283982
0.000309425
0.000304796
0.000299315
0.000293082
0.000279826
0.000255504
0.000226407
0.000195678
0.000165729
0.00013986
0.000120117
9.9724e-05
6.51574e-05
3.81893e-05
2.48586e-05
1.90263e-05
3.44675e-05
6.60685e-06
8.40404e-06
4.15307e-05
7.53066e-05
3.14912e-05
3.21299e-05
5.32112e-05
9.06925e-05
0.000134896
0.000167969
0.000177137
0.000165401
0.000151606
0.000154013
0.0001823
0.000241845
0.000319869
0.000318117
0.000313585
0.000308196
0.000301855
0.000294512
0.000286166
0.000276884
0.000266841
0.000253939
0.000203283
0.00014023
6.73313e-05
2.97479e-05
2.29522e-05
2.93458e-05
4.0143e-05
5.12545e-05
5.42873e-05
6.76406e-06
8.60051e-06
4.73507e-05
3.85642e-05
1.75268e-05
2.87929e-05
6.815e-05
0.000124234
0.000168868
0.000193696
0.00019916
0.00018993
0.000177903
0.000177401
0.000198868
0.000248769
0.000317918
0.000325092
0.000320292
0.000314707
0.0003082
0.000300645
0.00029194
0.000282021
0.00027086
0.000258524
0.000184964
0.000100012
4.20208e-05
2.00668e-05
1.74688e-05
2.86019e-05
5.67151e-05
7.10174e-05
2.88763e-05
5.33544e-06
8.57308e-06
6.32031e-05
2.70847e-05
1.53357e-05
3.27044e-05
8.61723e-05
0.000129191
0.000153693
0.000167255
0.000173542
0.000175944
0.000179912
0.000191598
0.00021561
0.000252892
0.000297912
0.000334243
0.000329896
0.000324885
0.000319163
0.000312656
0.000305277
0.000296941
0.000266757
0.000219424
0.000169937
0.000118838
7.00553e-05
3.64847e-05
2.23747e-05
2.1905e-05
3.3673e-05
5.63775e-05
2.83815e-05
4.68025e-06
8.14126e-06
5.64282e-05
4.52082e-05
1.93697e-05
2.36596e-05
5.09076e-05
8.09506e-05
0.000106773
0.000127797
0.000143798
0.000156982
0.00017116
0.000189366
0.000212517
0.000238862
0.000264489
0.00028495
0.00029747
0.000301921
0.000299632
0.000291915
0.000279056
0.000260879
0.000238007
0.000211792
0.000183345
0.000153056
0.00012062
8.64984e-05
5.59367e-05
3.57636e-05
2.74393e-05
3.49466e-05
4.52202e-05
5.0853e-06
7.9108e-06
4.57483e-05
8.7921e-05
4.47402e-05
1.88286e-05
2.07985e-05
3.24118e-05
4.994e-05
7.48988e-05
0.000104228
0.000133666
0.000161277
0.000187582
0.000213366
0.000238426
0.000261142
0.000279308
0.000291234
0.000296462
0.000295707
0.0002899
0.000279486
0.0002645
0.000245189
0.000222311
0.00019706
0.000170903
0.000144672
0.000116313
8.27952e-05
4.99354e-05
2.96585e-05
3.0957e-05
6.74246e-05
6.0863e-06
7.91427e-06
4.70926e-05
0.000102176
0.000110825
7.46208e-05
3.49187e-05
2.27748e-05
2.08743e-05
2.68657e-05
4.196e-05
6.80284e-05
0.000103815
0.000143153
0.000180961
0.00021666
0.000250414
0.000280583
0.000304596
0.00032013
0.000326333
0.000324361
0.000315756
0.000300798
0.000279196
0.000250968
0.000215738
0.000171986
0.000123053
8.47737e-05
6.27998e-05
4.76876e-05
3.75272e-05
4.55215e-05
7.37925e-05
6.72536e-06
7.56557e-06
4.47271e-05
0.000116959
0.000149768
0.000154375
0.000133382
7.64062e-05
3.92025e-05
2.18715e-05
1.49828e-05
1.70425e-05
3.05762e-05
6.14413e-05
0.000110444
0.000164965
0.000215468
0.000263528
0.000310177
0.000341069
0.000340281
0.000337793
0.000333885
0.000328809
0.000322846
0.000289777
0.000233705
0.000160457
8.92566e-05
5.27594e-05
4.6082e-05
5.16981e-05
5.83736e-05
7.77568e-05
5.71275e-05
6.5908e-06
7.55269e-06
4.38595e-05
0.000132627
0.00016112
0.00016439
0.000175211
0.000185874
0.000166599
9.99026e-05
4.53322e-05
1.84e-05
7.91286e-06
1.06701e-05
3.09715e-05
7.7926e-05
0.000147517
0.000218838
0.000282678
0.000332091
0.000335413
0.000336134
0.000334587
0.000331081
0.000325917
0.000298633
0.000237993
0.000161112
8.67147e-05
4.54102e-05
3.55161e-05
4.64747e-05
7.22765e-05
9.44423e-05
4.3707e-05
6.31583e-06
8.1218e-06
5.09301e-05
0.000137871
0.000153109
0.0001343
0.000116104
0.000121621
0.000157057
0.000203068
0.000206074
0.000110942
3.43997e-05
8.58444e-06
5.68581e-06
2.21673e-05
6.73982e-05
0.000144628
0.00023008
0.000297747
0.000324914
0.0003298
0.000331877
0.000331435
0.000323612
0.000285504
0.000236763
0.000176847
0.000109866
5.8361e-05
3.57423e-05
3.56199e-05
5.71891e-05
8.82935e-05
3.9655e-05
6.4574e-06
8.68722e-06
6.23544e-05
0.000153095
0.000173853
0.000168735
0.000142746
0.000110312
9.74766e-05
0.000112009
0.000155573
0.000204825
0.000166276
4.98061e-05
1.16766e-05
7.93914e-06
2.63476e-05
7.44491e-05
0.000151772
0.000230626
0.00028473
0.00031145
0.000318017
0.000310256
0.000291781
0.000265201
0.000231929
0.000191328
0.000141882
8.94314e-05
5.14457e-05
3.62009e-05
4.202e-05
7.37087e-05
4.55012e-05
6.95625e-06
8.26654e-06
5.69355e-05
0.000152396
0.00017357
0.000171975
0.000164638
0.000151256
0.000129118
0.000112011
0.000113774
0.000136673
0.000167603
0.000147689
5.12461e-05
1.47568e-05
1.29607e-05
3.42652e-05
8.364e-05
0.000152748
0.000214206
0.000251554
0.000266919
0.000267349
0.00025786
0.0002414
0.000219662
0.000193179
0.00016076
0.000120453
7.70542e-05
4.64119e-05
3.79818e-05
5.57935e-05
6.16663e-05
7.56423e-06
8.13289e-06
5.27308e-05
0.00014337
0.000156105
0.000143025
0.000129096
0.000126302
0.00013311
0.000138808
0.000138144
0.000140431
0.000153355
0.000166793
0.000137959
5.48344e-05
2.03375e-05
1.8534e-05
3.92917e-05
8.49361e-05
0.000143992
0.000192592
0.000220886
0.00023186
0.000230461
0.000220338
0.000204133
0.000183706
0.000159141
0.000127501
8.72281e-05
5.0876e-05
3.616e-05
4.87215e-05
7.20585e-05
8.05135e-06
8.22347e-06
5.34534e-05
0.000143903
0.00015911
0.000144802
0.00012356
0.000111266
0.000113398
0.000127365
0.000145276
0.000159332
0.000171006
0.000186579
0.000199806
0.000171364
7.75398e-05
3.20301e-05
2.36013e-05
3.80367e-05
7.72162e-05
0.000130878
0.000173575
0.000196761
0.000204223
0.000199328
0.000184221
0.000161651
0.000135366
0.000106672
7.43566e-05
4.63706e-05
3.61256e-05
5.34539e-05
6.6311e-05
8.19797e-06
8.35778e-06
5.32376e-05
0.000143687
0.00015587
0.000139614
0.000120026
0.000109093
0.000108954
0.000118356
0.000134952
0.000154198
0.000171528
0.000187817
0.000208837
0.000234163
0.000231757
0.000134287
5.5533e-05
3.09732e-05
3.40369e-05
6.31186e-05
0.000113598
0.000154632
0.000174006
0.000176733
0.000164255
0.000137174
0.000104008
7.82297e-05
5.9896e-05
4.51328e-05
4.28763e-05
7.12089e-05
5.82998e-05
8.0984e-06
8.26234e-06
4.81303e-05
0.000128613
0.000136404
0.000117912
0.000100444
9.53809e-05
0.0001023
0.000117159
0.000136096
0.000156062
0.000173575
0.000185662
0.000194262
0.000207498
0.000232511
0.000257387
0.000219908
0.00010311
4.69853e-05
3.479e-05
5.16982e-05
9.62743e-05
0.000133953
0.00014673
0.000141701
0.00011843
8.31088e-05
5.73849e-05
4.8515e-05
4.8594e-05
5.93179e-05
0.000100464
5.28217e-05
7.90131e-06
8.40897e-06
4.79872e-05
0.000125416
0.000130229
0.000110336
9.16643e-05
8.55337e-05
9.24477e-05
0.00010919
0.000130825
0.000152432
0.000171027
0.000184797
0.000191768
0.000191904
0.000190771
0.000197249
0.000213486
0.000213831
0.00014349
6.88599e-05
4.26575e-05
4.92988e-05
8.76879e-05
0.000126944
0.000133756
0.000117003
8.24351e-05
5.10505e-05
3.98136e-05
4.64257e-05
7.23392e-05
0.000114647
4.61654e-05
7.65531e-06
8.42449e-06
4.94161e-05
0.000127987
0.000129848
0.000108663
9.05078e-05
8.52682e-05
9.27215e-05
0.000109427
0.000130021
0.000148671
0.000162083
0.000170816
0.000177541
0.000184164
0.000190504
0.000195657
0.000200057
0.000202787
0.000192116
0.000146971
8.93007e-05
6.03716e-05
6.18632e-05
8.89594e-05
0.00011967
0.000122479
9.52766e-05
5.83171e-05
3.88917e-05
4.04556e-05
6.62363e-05
0.000106915
3.94574e-05
7.47774e-06
8.38223e-06
5.15476e-05
0.000126789
0.000125142
0.000103004
8.50272e-05
8.19767e-05
9.37446e-05
0.000115667
0.000139165
0.000155985
0.000163094
0.000163559
0.00016348
0.000167825
0.000178035
0.000189644
0.000189528
0.000161133
0.000113787
8.01259e-05
6.97522e-05
8.25389e-05
0.00011977
0.000162858
0.000175105
0.000152664
0.000109905
6.71403e-05
4.32441e-05
4.07407e-05
6.25914e-05
9.939e-05
3.52628e-05
7.54997e-06
8.12664e-06
5.34913e-05
0.000123881
0.000121086
9.95373e-05
8.07712e-05
7.63442e-05
8.69949e-05
0.000106799
0.000122174
0.000122253
0.00011091
0.000100602
9.70874e-05
9.95282e-05
0.000109154
0.000129511
0.000155133
0.000167644
0.000161004
0.000148223
0.000143077
0.000150527
0.000163539
0.000169872
0.000163255
0.000142607
0.000110325
7.55291e-05
5.13289e-05
4.47783e-05
6.0927e-05
9.78134e-05
3.75867e-05
7.89071e-06
8.1662e-06
5.70375e-05
0.000130704
0.000127859
0.00010486
8.19436e-05
7.02015e-05
7.07975e-05
7.95433e-05
8.6886e-05
8.552e-05
8.191e-05
8.92341e-05
0.000113931
0.000144269
0.000157521
0.000154248
0.000146921
0.000142363
0.000140696
0.000140988
0.000144055
0.000150423
0.00015775
0.000161708
0.000158452
0.000145508
0.000122057
9.17175e-05
6.49697e-05
5.3128e-05
6.49994e-05
0.000109578
4.87355e-05
8.34594e-06
8.30193e-06
5.79798e-05
0.000136433
0.000135081
0.000114222
9.31e-05
7.88929e-05
7.37255e-05
7.94792e-05
9.77913e-05
0.000125781
0.000146466
0.000134531
9.81607e-05
7.31633e-05
6.93147e-05
8.32892e-05
0.000108137
0.00013089
0.000143846
0.000150497
0.00015571
0.000161243
0.000166413
0.000169048
0.000166402
0.000156175
0.000136727
0.000108952
8.10553e-05
6.70246e-05
7.95056e-05
0.000128241
6.07028e-05
8.56662e-06
8.51751e-06
6.1342e-05
0.000138231
0.000133473
0.000112086
9.55316e-05
8.90622e-05
8.87573e-05
9.04258e-05
9.43001e-05
0.000103121
0.000118948
0.000141047
0.00015969
0.000151193
0.000110807
8.00349e-05
7.61649e-05
9.72184e-05
0.000131557
0.000154296
0.000158854
0.000156411
0.000155217
0.000156889
0.000157679
0.000151229
0.000134317
0.000110197
8.81471e-05
8.03606e-05
9.91105e-05
0.000144222
6.40382e-05
8.52777e-06
8.59643e-06
6.43129e-05
0.000141202
0.000134292
0.000111284
9.37513e-05
8.79481e-05
9.22345e-05
0.000102264
0.000112638
0.00012055
0.000127422
0.00013667
0.000150732
0.000167138
0.000171912
0.000145316
0.000101272
7.58225e-05
7.82005e-05
0.0001065
0.000140129
0.000149188
0.000139463
0.000128204
0.00012354
0.000123704
0.000119831
0.000107095
9.41204e-05
9.48185e-05
0.000120093
0.000153907
6.00947e-05
8.33673e-06
8.74867e-06
6.62732e-05
0.000144241
0.000134235
0.000111065
9.57583e-05
9.1023e-05
9.38921e-05
0.000101585
0.00011156
0.000121336
0.000129325
0.00013537
0.000140502
0.000146436
0.000154324
0.000161336
0.000156819
0.000131251
9.84609e-05
8.02869e-05
8.35373e-05
0.000104745
0.000122584
0.00011974
0.000107474
9.98419e-05
9.94843e-05
0.000101026
0.000102362
0.000112277
0.000138633
0.000156473
5.62116e-05
8.14324e-06
8.63194e-06
6.48276e-05
0.000139582
0.000124899
0.000101358
8.91462e-05
8.8827e-05
9.57572e-05
0.00010473
0.00011192
0.000116753
0.000121386
0.000128395
0.000138688
0.000151064
0.000163356
0.00017411
0.000182346
0.000184313
0.000172519
0.000146102
0.000118513
0.000102737
0.000100127
0.000102139
9.81975e-05
8.9819e-05
8.58548e-05
8.97223e-05
0.000100879
0.000120555
0.000147031
0.000154091
5.47006e-05
8.14435e-06
8.39154e-06
6.15707e-05
0.000136081
0.000120649
9.73819e-05
8.66194e-05
8.73839e-05
9.45161e-05
0.000102891
0.000107962
0.000109061
0.000111005
0.000119181
0.000135327
0.000157609
0.000181075
0.00019794
0.000200018
0.000185046
0.000160172
0.000136279
0.00012097
0.000117017
0.000121933
0.000125575
0.000117086
0.000100249
8.82382e-05
8.825e-05
0.000101407
0.000126137
0.000152494
0.000152889
5.27843e-05
8.36421e-06
7.96047e-06
5.43671e-05
0.000127619
0.000105668
8.01219e-05
7.32695e-05
7.87846e-05
8.75849e-05
9.23345e-05
8.91923e-05
8.27419e-05
8.31722e-05
9.6126e-05
0.000121511
0.000154028
0.000183678
0.000201048
0.000203125
0.000193592
0.000179163
0.000165888
0.00015704
0.000152427
0.000147915
0.000137517
0.000119406
9.94939e-05
8.68648e-05
8.70753e-05
0.00010182
0.000128891
0.000155322
0.000150671
4.97294e-05
8.59899e-06
7.57117e-06
4.12287e-05
0.000105917
8.27585e-05
5.54494e-05
5.15494e-05
6.08748e-05
7.26617e-05
7.93041e-05
7.81796e-05
7.24871e-05
7.15162e-05
8.33113e-05
0.000109823
0.000143267
0.000168293
0.000178864
0.000179909
0.000177138
0.000173114
0.000168856
0.000164634
0.000159372
0.000150552
0.000135873
0.000116089
9.63507e-05
8.36805e-05
8.30997e-05
9.73245e-05
0.000125646
0.000154393
0.000147868
4.71905e-05
8.62009e-06
7.16711e-06
2.85781e-05
7.23728e-05
6.06634e-05
3.29219e-05
3.01841e-05
4.25809e-05
6.25263e-05
8.16171e-05
9.27833e-05
9.01453e-05
7.1746e-05
5.60391e-05
5.90673e-05
8.18747e-05
0.00011879
0.00015296
0.000172953
0.000181711
0.000184988
0.000185251
0.000182441
0.000175428
0.000162891
0.000144336
0.000121572
9.9553e-05
8.46777e-05
8.19354e-05
9.48757e-05
0.000124191
0.000154584
0.000144697
4.48685e-05
8.4421e-06
6.90475e-06
2.2637e-05
5.61636e-05
5.31001e-05
1.9845e-05
1.51201e-05
2.55068e-05
4.65964e-05
7.24333e-05
9.34652e-05
0.000105882
0.000107293
8.97263e-05
6.40521e-05
5.82374e-05
7.73678e-05
0.000118306
0.000160872
0.000184348
0.000191881
0.000192836
0.000190499
0.000183563
0.000170159
0.000150198
0.000126124
0.000102918
8.66756e-05
8.25417e-05
9.48061e-05
0.000124986
0.000155804
0.000141745
4.27635e-05
8.20863e-06
7.06192e-06
2.32577e-05
6.391e-05
6.0677e-05
1.72736e-05
9.79749e-06
1.85023e-05
4.07022e-05
7.52349e-05
0.000110027
0.000133835
0.000144676
0.000139375
0.000108679
6.84418e-05
5.23063e-05
6.41485e-05
0.000102737
0.000152911
0.000183119
0.000190092
0.000186807
0.000179644
0.000167962
0.00015005
0.000127212
0.000104431
8.81683e-05
8.40127e-05
9.67967e-05
0.000128095
0.000158404
0.000140202
4.1347e-05
8.04478e-06
7.96627e-06
3.14506e-05
0.000100099
5.26384e-05
1.76713e-05
1.1998e-05
2.2913e-05
4.98892e-05
8.81853e-05
0.000123151
0.000147413
0.000161686
0.000166691
0.000156228
0.000120132
7.43444e-05
5.15218e-05
5.6968e-05
8.98203e-05
0.000138993
0.000169801
0.00017486
0.000168075
0.000157244
0.000142645
0.00012388
0.000104188
8.97464e-05
8.68563e-05
0.000101026
0.000133257
0.000161956
0.0001393
4.0321e-05
7.93924e-06
9.15999e-06
5.2344e-05
9.37864e-05
3.41596e-05
1.80573e-05
2.17081e-05
4.17468e-05
7.20684e-05
0.000100588
0.000123669
0.000141385
0.000154282
0.00016223
0.000162466
0.000147301
0.000111201
7.01909e-05
4.82323e-05
5.06321e-05
7.75631e-05
0.000119671
0.000145747
0.000149011
0.00014155
0.000130325
0.000116699
0.000102304
9.1712e-05
9.12716e-05
0.000107066
0.000139436
0.000166278
0.000140719
4.02258e-05
7.92094e-06
9.6891e-06
7.38506e-05
7.25527e-05
3.52091e-05
2.68671e-05
3.32403e-05
4.50922e-05
6.02304e-05
7.91174e-05
9.95875e-05
0.00011879
0.000135167
0.000148473
0.000157914
0.000159298
0.000143636
0.000106905
6.68355e-05
4.51933e-05
4.61353e-05
6.92977e-05
0.0001051
0.000126162
0.000127368
0.000119475
0.000109311
9.95546e-05
9.33348e-05
9.5983e-05
0.000113364
0.000145236
0.000170629
0.000144571
4.12035e-05
7.98125e-06
9.3001e-06
6.13215e-05
0.000104258
8.1589e-05
5.35578e-05
3.56363e-05
2.90724e-05
3.11944e-05
4.09631e-05
5.89778e-05
8.3442e-05
0.000108682
0.000130362
0.000147876
0.000160833
0.000164689
0.000148744
0.000108242
6.50173e-05
4.27114e-05
4.3329e-05
6.45488e-05
9.52366e-05
0.000112037
0.000111842
0.000104681
9.74666e-05
9.42424e-05
9.94864e-05
0.000118163
0.000149309
0.000173435
0.000148283
4.25085e-05
8.05841e-06
8.80309e-06
4.78856e-05
0.000113677
0.000127035
0.000108541
6.65685e-05
3.65803e-05
2.21005e-05
1.69106e-05
2.04835e-05
3.56996e-05
6.40169e-05
9.93033e-05
0.000131939
0.000158145
0.000177211
0.000183678
0.000163205
0.000111661
6.2275e-05
4.05843e-05
4.28405e-05
6.37796e-05
9.00471e-05
0.000102447
0.000101319
9.67445e-05
9.56439e-05
0.000102711
0.000122066
0.000151993
0.00017472
0.000151897
4.41697e-05
8.17715e-06
8.70152e-06
4.93593e-05
0.000139688
0.000172677
0.000172075
0.000153523
0.000104175
5.02074e-05
1.9979e-05
7.51255e-06
8.3716e-06
2.29523e-05
5.4212e-05
9.95107e-05
0.000147037
0.000187437
0.000214833
0.000215502
0.000171118
0.000100327
5.26567e-05
3.83747e-05
4.59203e-05
6.79768e-05
8.94469e-05
9.7243e-05
9.60559e-05
9.60799e-05
0.000104129
0.000124066
0.000153346
0.00017534
0.000155168
4.60759e-05
8.36478e-06
8.86388e-06
5.67199e-05
0.000168079
0.000199461
0.000205424
0.000207907
0.00019843
0.000146832
5.8384e-05
1.41108e-05
1.20156e-06
5.92203e-06
2.57723e-05
6.43204e-05
0.000118559
0.000176355
0.000223684
0.00024116
0.000205916
0.000129389
6.53808e-05
3.92005e-05
3.87546e-05
5.48628e-05
7.7691e-05
9.25324e-05
9.60198e-05
9.71592e-05
0.000105146
0.000125001
0.000154154
0.000176227
0.000157057
4.70601e-05
8.56236e-06
9.00157e-06
6.11355e-05
0.000162053
0.000184277
0.00018798
0.000191035
0.000195082
0.000188735
0.000133595
4.48785e-05
7.54884e-06
1.69819e-06
1.3133e-05
4.03221e-05
8.35638e-05
0.00013532
0.000182712
0.000208568
0.000190567
0.000128609
6.70516e-05
3.76211e-05
3.45897e-05
4.85414e-05
7.05862e-05
8.82471e-05
9.5775e-05
9.93653e-05
0.000108106
0.000127901
0.000156746
0.000178598
0.000158036
4.71554e-05
8.7369e-06
9.0191e-06
6.30761e-05
0.000156353
0.000174406
0.000174959
0.000174368
0.000177239
0.000180708
0.000170542
0.0001137
4.05307e-05
1.01147e-05
7.51518e-06
2.01818e-05
4.72e-05
8.71664e-05
0.000130844
0.000162252
0.000160282
0.000116783
6.41675e-05
3.50167e-05
3.00603e-05
4.37624e-05
6.77362e-05
8.4077e-05
9.23683e-05
9.902e-05
0.000110513
0.000131624
0.000160382
0.000181343
0.000157185
4.64563e-05
8.83341e-06
9.03079e-06
6.7074e-05
0.000168045
0.000187834
0.000185909
0.000181414
0.000183135
0.000192454
0.000202706
0.000196244
0.000135602
5.49153e-05
1.93987e-05
1.17255e-05
1.86064e-05
3.98993e-05
7.54252e-05
0.0001128
0.000129221
0.000108169
6.54766e-05
3.49604e-05
2.52805e-05
3.48959e-05
6.3853e-05
8.55003e-05
9.02615e-05
9.58024e-05
0.000110308
0.000135159
0.000164811
0.000183248
0.000152013
4.4623e-05
8.75195e-06
9.15753e-06
7.34423e-05
0.000188446
0.000210467
0.000203637
0.000191813
0.000187913
0.000197152
0.000217351
0.000239282
0.000245398
0.000194785
9.19553e-05
3.62438e-05
1.69311e-05
1.45815e-05
2.66998e-05
5.46383e-05
8.60037e-05
9.58056e-05
7.46022e-05
4.30227e-05
2.51575e-05
2.3971e-05
4.187e-05
7.96997e-05
9.69321e-05
9.82253e-05
0.000107997
0.000132701
0.000164793
0.000183439
0.000148214
4.31193e-05
8.5749e-06
9.40998e-06
8.01993e-05
0.000201996
0.000219108
0.000205573
0.000189395
0.000183074
0.000189529
0.000208761
0.000238719
0.000272507
0.000297335
0.000281885
0.000172878
7.07614e-05
2.88317e-05
1.45802e-05
1.58333e-05
3.30048e-05
6.00975e-05
7.32766e-05
5.98104e-05
3.57988e-05
2.27133e-05
2.37492e-05
4.19837e-05
7.96002e-05
0.000104286
0.00011377
0.000131092
0.000160173
0.000182032
0.000150938
4.34214e-05
8.50859e-06
9.57816e-06
8.23514e-05
0.000197813
0.000203727
0.000184138
0.000170287
0.000172257
0.000187205
0.000209656
0.000236978
0.000269111
0.000304711
0.000338869
0.000356332
0.000303068
0.000146389
5.50877e-05
2.16939e-05
1.18437e-05
1.78203e-05
3.7607e-05
5.50345e-05
5.15414e-05
3.39027e-05
2.23878e-05
2.29467e-05
3.79916e-05
7.0614e-05
0.000106717
0.0001341
0.000159455
0.000177654
0.000153882
4.64696e-05
8.70793e-06
9.49627e-06
7.73404e-05
0.000182403