/*--------------------------------*- C++ -*----------------------------------*\
| =========                 |                                                 |
| \\      /  F ield         | OpenFOAM: The Open Source CFD Toolbox           |
|  \\    /   O peration     | Version:  v2006                                 |
|   \\  /    A nd           | Website:  www.openfoam.com                      |
|    \\/     M anipulation  |                                                 |
\*---------------------------------------------------------------------------*/
FoamFile
{
    version     2.0;
    format      ascii;
    class       volScalarField;
    location    "53";
    object      T;
}
// * * * * * * * * * * * * * * * * * * * * * * * * * * * * * * * * * * * * * //

dimensions      [0 0 0 1 0 0 0];


internalField   nonuniform List<scalar> 
78750
(
30.247
160.714
215.726
250.702
292.652
316.39
330.494
336.541
340.252
342.104
343.658
345.205
346.756
348.404
350.116
351.953
353.898
355.881
357.841
359.673
361.357
362.815
364.099
365.143
366.097
366.901
367.933
369.057
370.666
372.488
374.843
377.434
380.114
383.057
394.757
364.191
406.425
308.298
304.999
319.521
327.214
327.556
331.186
331.818
331.306
332.273
332.784
332.586
331.92
330.913
329.747
328.578
327.541
326.695
326.036
325.583
325.341
325.307
325.091
324.755
324.727
326.129
328.885
333.361
338.502
345.225
352.551
361.115
366.813
384.747
380.942
335.47
364.043
350.238
346.492
344.657
343.864
345.075
346.092
348.629
350.82
352.618
353.987
354.781
354.959
354.618
353.937
353.064
352.023
350.636
348.677
346.05
342.489
337.795
332.226
327.049
324.95
326.308
329.744
333.607
338.047
342.321
349.143
354.682
380.062
308.145
327.587
327.242
330.058
331.978
333.996
335.967
337.458
338.959
340.144
341.246
342.181
342.912
343.654
344.683
346.087
347.826
349.904
352.347
354.878
356.666
357.118
354.496
345.827
335.85
328.431
326.359
329.762
335.205
340.801
346.599
352.153
357.086
362.066
386.07
315.251
325.439
334.762
340.544
344.688
347.623
349.878
351.755
353.17
353.937
353.583
351.74
348.646
345.225
342.644
341.624
342.181
343.911
345.526
345.048
340.879
330.877
323.254
320.385
322.861
326.275
329.749
333.124
335.746
337.672
339.361
341.508
346.39
355.732
382.015
322.433
331.597
333.628
334.636
335.604
336.806
338.45
340.657
343.315
346.128
348.737
350.787
352.036
352.325
351.515
349.752
347.615
345.658
343.919
341.686
337.501
329.956
321.563
319.337
321.753
325.547
330.277
335.167
339.072
341.876
344.342
347.715
354.467
367.437
397.436
313.46
327.542
333.898
337.899
341.07
343.517
345.312
346.517
347.189
347.363
347.095
346.56
346.043
345.801
345.905
346.221
346.566
346.848
347.069
347.246
347.309
347.028
346.12
343.672
339.003
333.916
330.723
330.436
332.296
334.961
338.143
342.921
351.151
365.751
399.669
315.595
323.725
327.431
330.218
332.84
335.52
338.36
341.386
344.525
347.556
350.12
351.812
352.385
351.937
350.893
349.705
348.627
347.719
346.936
346.154
345.159
343.693
341.545
338.707
335.574
332.933
331.136
330.35
330.937
332.931
336.265
341.433
349.474
364.046
399.213
315.228
328.192
332.778
335.318
337.242
338.739
339.907
340.849
341.694
342.595
343.666
344.881
346.018
346.798
347.15
347.248
347.268
347.242
347.126
346.879
346.445
345.709
344.518
342.755
340.484
338.072
336.048
334.709
334.178
334.854
337.62
343.722
353.503
367.927
398.584
312.492
324.888
330.711
334.321
337.29
340.021
342.611
345.066
347.347
349.403
351.168
352.525
353.3
353.303
352.456
350.983
349.401
348.119
347.202
346.499
345.83
345.03
343.957
342.528
340.817
339.122
337.775
336.914
336.595
337.169
340.062
348.635
364.88
379.46
404.276
315.205
326.753
331.055
333.586
335.641
337.424
339
340.417
341.715
342.94
344.159
345.456
346.913
348.547
350.14
351.213
351.4
350.747
349.635
348.479
347.49
346.631
345.759
344.733
343.483
342.082
340.765
339.761
339.178
339.109
340.046
344.363
359.169
378.574
408.719
312.999
326.129
332.352
336.146
339.187
341.874
344.275
346.387
348.191
349.67
350.785
351.482
351.796
351.913
352.079
352.425
352.856
353.042
352.628
351.526
350.031
348.569
347.344
346.276
345.192
343.968
342.667
341.589
341.023
341.198
343.138
350.223
365
383.904
412.34
314.698
327.278
332.447
335.481
337.905
340.042
342.006
343.859
345.616
347.256
348.738
350.003
350.973
351.614
352.004
352.296
352.624
353.053
353.448
353.412
352.618
351.184
349.578
348.156
346.98
345.924
344.828
343.618
342.539
342.253
344.406
355.086
374.83
392.274
416.291
318.049
331.413
336.741
340.041
342.808
345.266
347.462
349.378
350.98
352.247
353.186
353.833
354.227
354.391
354.358
354.214
354.049
353.906
353.786
353.629
353.18
352.149
350.666
349.17
347.949
346.976
346.073
345.087
344.085
343.727
346.077
358.391
385.61
402.059
421.431
318.077
330.682
335.543
338.529
341.064
343.381
345.531
347.498
349.249
350.749
351.961
352.873
353.523
353.978
354.286
354.469
354.543
354.539
354.476
354.335
354.023
353.331
352.14
350.684
349.316
348.194
347.282
346.462
345.651
344.933
344.873
348.927
370.987
395.175
421.554
319.67
333.001
338.035
341.173
343.895
346.366
348.529
350.289
351.648
352.699
353.534
354.187
354.651
354.929
355.057
355.087
355.056
354.985
354.876
354.71
354.418
353.863
352.872
351.486
350.059
348.883
347.957
347.145
346.299
345.335
344.594
346.413
358.637
385.211
419.65
318.583
332.434
337.721
340.977
343.835
346.464
348.708
350.406
351.599
352.438
353.067
353.585
354.036
354.428
354.743
354.965
355.094
355.142
355.127
355.053
354.895
354.568
353.908
352.769
351.286
349.891
348.842
347.981
347.082
346.22
346.796
355.255
370.647
390.97
419.408
320.922
335.119
340.547
343.97
347.029
349.798
351.961
353.35
354.129
354.555
354.812
354.997
355.15
355.279
355.379
355.445
355.473
355.463
355.415
355.321
355.155
354.851
354.282
353.31
351.954
350.522
349.389
348.485
347.72
347.722
351.454
367.735
395.621
409.294
426.847
321.944
335.696
341.077
344.644
347.972
350.996
353.262
354.594
355.217
355.441
355.478
355.448
355.413
355.403
355.423
355.462
355.498
355.512
355.496
355.444
355.347
355.177
354.863
354.28
353.342
352.137
350.887
349.762
348.791
348.07
348.46
354.307
378.481
405.745
427.486
322.747
336.691
342.077
345.625
348.874
351.826
354.161
355.696
356.534
356.894
356.972
356.9
356.755
356.582
356.409
356.253
356.117
355.998
355.883
355.762
355.616
355.418
355.117
354.626
353.87
352.909
351.922
351.022
350.196
349.358
348.422
346.978
349.218
377.925
418.684
322.317
335.767
340.992
344.43
347.504
350.339
352.827
354.771
356.062
356.772
357.078
357.144
357.08
356.948
356.783
356.608
356.438
356.277
356.123
355.968
355.801
355.602
355.337
354.948
354.365
353.599
352.823
352.208
351.803
351.536
351.108
351.409
352.182
372.058
412.487
318.976
333.354
339.154
342.755
345.789
348.548
351.141
353.51
355.436
356.752
357.48
357.782
357.828
357.734
357.562
357.348
357.113
356.873
356.638
356.406
356.161
355.88
355.525
355.031
354.358
353.602
353.037
353.003
354.07
358.259
370.956
388
394.965
404.888
427.089
318.384
333.3
339.656
343.658
347.022
349.875
352.165
353.996
355.504
356.684
357.467
357.874
358.007
357.976
357.853
357.675
357.465
357.238
357.004
356.766
356.52
356.249
355.923
355.499
354.926
354.187
353.414
353.032
354.081
359.082
372.58
395.54
415.83
427.419
437.311
318.97
334.779
341.397
345.733
349.721
353.164
355.6
357.084
357.939
358.436
358.721
358.844
358.826
358.707
358.527
358.31
358.071
357.815
357.549
357.278
357.002
356.718
356.415
356.073
355.664
355.148
354.487
353.689
352.98
353.085
355.342
361.746
374.375
393.531
421.163
322.111
336.878
342.88
347.25
351.852
355.825
358.398
359.723
360.252
360.297
360.057
359.725
359.416
359.141
358.886
358.641
358.398
358.155
357.909
357.658
357.403
357.145
356.885
356.62
356.346
356.05
355.7
355.211
354.415
353.225
351.897
350.49
348.468
359.726
404.252
321.842
335.79
342.276
347.595
353.27
357.445
359.863
361.062
361.564
361.659
361.451
361.014
360.496
360.019
359.612
359.266
358.961
358.679
358.399
358.116
357.843
357.59
357.368
357.188
357.069
357.034
357.101
357.241
357.303
357.211
356.369
353.117
351.605
363.869
400.909
320.078
334.609
342.929
350.312
356.699
359.803
361.076
361.594
361.784
361.789
361.64
361.332
360.906
360.461
360.072
359.758
359.471
359.178
358.882
358.588
358.312
358.076
357.917
357.885
358.044
358.5
359.539
362.011
368.147
376.705
378.973
376.346
377.727
389.022
418.065
320.078
336.238
346.758
356.288
361.758
362.908
362.976
362.857
362.693
362.492
362.236
361.902
361.493
361.062
360.67
360.344
360.053
359.763
359.469
359.175
358.891
358.637
358.449
358.39
358.56
359.176
360.879
365.349
375.439
390.5
401.74
405.363
408.401
416.441
434.693
324.277
341.918
352.238
361.126
364.576
364.352
363.933
363.527
363.148
362.794
362.455
362.12
361.785
361.461
361.163
360.897
360.655
360.418
360.173
359.923
359.672
359.426
359.198
359.005
358.895
359
359.626
361.516
366.294
375.936
389.324
401.905
411.194
420.452
434.582
326.48
343.624
351.191
357.883
363.162
364.356
364.509
364.293
363.922
363.504
363.09
362.706
362.362
362.062
361.8
361.568
361.356
361.157
360.964
360.775
360.588
360.402
360.217
360.034
359.857
359.702
359.626
359.777
360.532
362.704
367.595
376.68
390.36
404.047
422.846
325.002
340.52
345.824
350.451
356.883
361.196
363.159
363.976
364.122
363.944
363.647
363.328
363.029
362.761
362.523
362.313
362.125
361.956
361.804
361.667
361.549
361.45
361.372
361.316
361.278
361.249
361.206
361.112
360.932
360.777
361.297
365.01
377.037
391.551
412.894
322.673
336.594
342.038
345.659
349.489
354.723
359.121
362.134
363.817
364.478
364.522
364.288
363.979
363.677
363.406
363.172
362.971
362.803
362.665
362.559
362.489
362.463
362.49
362.581
362.751
363.019
363.41
363.948
364.521
364.607
364.575
367.333
376.852
390.209
412.397
319.299
333.083
339.283
343.224
346.453
349.582
353.491
357.707
361.204
363.631
364.92
365.271
365.095
364.764
364.436
364.145
363.895
363.689
363.526
363.402
363.323
363.305
363.367
363.53
363.824
364.322
365.187
366.809
369.702
372.604
374.076
377.162
384.149
395.78
419.197
317.482
333.312
340.756
345.535
349.558
352.923
355.508
357.741
360.178
362.762
364.883
366.134
366.383
366.025
365.568
365.187
364.88
364.628
364.422
364.253
364.121
364.044
364.042
364.145
364.396
364.892
365.857
367.852
372.031
378.569
384.261
388.711
394.454
404.287
426.145
319.598
337.082
344.535
349.153
353.228
357.184
360.656
363.095
364.549
365.504
366.453
367.512
368.002
367.575
366.811
366.215
365.817
365.536
365.317
365.134
364.979
364.856
364.781
364.778
364.888
365.195
365.872
367.332
370.579
377.158
386.548
394.973
401.609
410.519
429.504
324.4
340.804
347.138
351.045
354.353
357.551
360.969
364.399
367.085
368.662
369.412
369.764
369.946
369.556
368.398
367.365
366.754
366.405
366.177
366.005
365.862
365.74
365.641
365.577
365.571
365.672
365.979
366.71
368.399
372.297
380.168
391.278
400.889
410.984
428.608
322.987
338.046
344.238
348.354
352.078
355.586
358.894
362.145
365.346
368.036
369.819
370.788
371.252
371.31
370.441
368.945
367.888
367.344
367.06
366.887
366.764
366.67
366.596
366.542
366.514
366.532
366.639
366.931
367.647
369.421
373.895
383.512
396.034
408.242
425.824
321.269
337.443
344.232
348.646
352.665
356.551
360.099
363.043
365.456
367.576
369.41
370.772
371.618
372.072
372.101
371.107
369.579
368.532
368.017
367.775
367.651
367.586
367.559
367.562
367.592
367.652
367.757
367.945
368.342
369.328
372.171
380.185
393.867
407.313
425.067
322.041
339.196
346.227
350.663
354.577
358.343
361.888
364.88
367.118
368.736
369.998
371.051
371.882
372.457
372.802
372.857
372.041
370.551
369.366
368.766
368.523
368.446
368.458
368.537
368.677
368.881
369.158
369.527
370.072
371.174
374.231
382.471
395.662
408.935
426.43
322.988
339.493
346.264
350.683
354.757
358.784
362.582
365.81
368.263
369.971
371.124
371.94
372.563
373.046
373.39
373.605
373.677
373.229
371.884
370.432
369.582
369.266
369.22
369.331
369.575
369.964
370.544
371.402
372.61
374.342
378.062
386.461
397.717
409.76
427.407
321.875
337.999
344.942
349.565
353.94
358.385
362.6
366.119
368.771
370.651
371.932
372.789
373.366
373.771
374.059
374.253
374.363
374.389
374.209
373.267
371.656
370.458
369.991
369.962
370.21
370.732
371.621
373.137
375.662
379.005
383.348
390.624
399.221
409.713
428.507
321.781
338.586
345.91
350.754
355.268
359.757
363.91
367.265
369.702
371.399
372.584
373.417
374
374.402
374.672
374.845
374.939
374.966
374.924
374.758
374.136
372.691
371.301
370.689
370.674
371.088
372.012
373.805
377.296
383.021
389.43
396.065
402.858
412.142
431.107
322.155
339.299
346.793
351.836
356.638
361.436
365.757
369.039
371.22
372.593
373.469
374.054
374.465
374.766
374.989
375.149
375.252
375.295
375.275
375.18
374.957
374.397
373.263
372.092
371.527
371.603
372.28
373.839
377.191
383.844
393.137
401.641
408.516
417.183
434.244
322.903
339.85
347.224
352.329
357.369
362.573
367.335
370.855
373.021
374.221
374.84
375.118
375.2
375.185
375.149
375.131
375.13
375.117
375.044
374.817
374.3
373.511
372.758
372.319
372.241
372.507
373.241
374.825
378.176
384.88
395.219
405.299
412.605
420.834
435.37
323.333
340.735
348.18
353.35
358.398
363.536
368.254
371.778
373.931
375.078
375.59
375.672
375.456
375.101
374.751
374.465
374.251
374.083
373.921
373.727
373.486
373.223
373.019
372.952
373.066
373.425
374.176
375.641
378.522
384.089
393.242
403.552
411.311
419.486
433.096
323.742
341.428
348.841
353.877
358.6
363.223
367.528
371.06
373.507
374.957
375.656
375.801
375.604
375.346
375.159
375.029
374.934
374.85
374.754
374.626
374.463
374.285
374.127
374.033
374.045
374.218
374.656
375.572
377.434
381.215
388.223
397.79
405.893
414.32
428.85
323.83
341.451
348.993
354.058
358.686
363.003
366.817
369.999
372.516
374.345
375.554
376.3
376.715
376.828
376.607
376.19
375.857
375.719
375.719
375.781
375.852
375.898
375.909
375.902
375.915
376.01
376.283
376.894
378.186
380.92
386.37
394.565
402.201
410.631
426.441
325.089
342.93
350.659
355.95
360.855
365.38
369.075
371.706
373.491
374.761
375.715
376.426
376.922
377.23
377.371
377.317
377.014
376.615
376.411
376.448
376.626
376.883
377.178
377.465
377.712
377.945
378.277
378.927
380.276
383.026
388.092
395.153
401.928
410.089
426.717
326.637
344.794
352.513
357.795
362.687
367.196
370.916
373.571
375.254
376.264
376.88
377.281
377.556
377.741
377.846
377.874
377.808
377.602
377.254
377.017
377.124
377.493
378.026
378.706
379.502
380.323
381.111
382.044
383.621
386.598
391.552
397.764
403.827
411.74
428.629
328.01
346.135
353.835
359.152
364.086
368.519
372.036
374.511
376.118
377.11
377.702
378.048
378.25
378.371
378.442
378.472
378.455
378.378
378.218
377.961
377.7
377.703
378.135
378.928
380.049
381.537
383.339
385.306
387.568
390.703
395.16
400.454
405.893
413.488
430.211
328.999
347.285
355.018
360.427
365.556
370.171
373.73
376.096
377.518
378.322
378.744
378.937
379.001
379.003
378.983
378.959
378.931
378.89
378.824
378.717
378.562
378.392
378.351
378.661
379.481
380.908
383.045
385.878
389.218
393.056
397.496
402.3
407.316
414.562
430.882
329.574
348.169
355.864
361.259
366.447
371.102
374.636
376.961
378.34
379.077
379.399
379.458
379.383
379.275
379.185
379.121
379.07
379.018
378.946
378.841
378.709
378.605
378.657
379.011
379.77
381.061
383.124
386.197
390.197
394.726
399.423
404.097
408.927
416.008
431.821
329.706
348.416
355.8
361.155
366.734
371.879
375.609
377.898
379.155
379.736
379.855
379.674
379.395
379.184
379.08
379.048
379.053
379.075
379.109
379.16
379.252
379.428
379.758
380.324
381.235
382.668
384.903
388.22
392.559
397.374
402.12
406.664
411.365
418.335
433.399
328.003
346.192
353.092
358.192
364.082
370.098
374.64
377.519
379.19
380.046
380.333
380.236
379.975
379.763
379.668
379.655
379.689
379.758
379.859
380.001
380.206
380.508
380.958
381.624
382.618
384.125
386.437
389.864
394.415
399.516
404.456
409.029
413.665
420.489
434.834
325.122
342.205
349.067
354.065
360.06
367.027
372.661
376.352
378.608
379.951
380.693
380.989
380.89
380.565
380.33
380.289
380.369
380.516
380.711
380.954
381.257
381.648
382.168
382.886
383.909
385.419
387.706
391.122
395.782
401.162
406.371
411.053
415.69
422.414
436.113
321.865
337.748
345.452
351.041
357.322
364.843
371.374
375.733
378.326
379.86
380.764
381.25
381.431
381.338
381.06
380.887
380.941
381.131
381.4
381.739
382.152
382.651
383.269
384.07
385.161
386.725
389.049
392.494
397.235
402.791
408.156
412.877
417.488
424.1
437.132
318.543
335.403
345.432
352.693
359.911
366.542
372.386
376.506
378.909
380.289
381.118
381.612
381.87
381.943
381.83
381.567
381.435
381.6
381.926
382.337
382.837
383.447
384.185
385.097
386.281
387.922
390.318
393.845
398.686
404.335
409.721
414.387
418.913
425.354
437.76
318.052
338.967
351.008
360.221
369.174
373.783
376.916
379.241
380.609
381.421
381.934
382.258
382.44
382.507
382.471
382.318
382.078
382.009
382.317
382.821
383.418
384.135
385.017
386.102
387.46
389.248
391.751
395.338
400.176
405.737
410.965
415.474
419.867
426.122
438.057
322.751
345.639
357.599
367.874
377.635
380.437
381.295
381.992
382.46
382.778
382.993
383.127
383.193
383.2
383.15
383.037
382.841
382.606
382.602
383.056
383.764
384.601
385.618
386.89
388.487
390.52
393.21
396.859
401.583
406.875
411.816
416.109
420.33
426.372
438.012
330.068
349.622
359.835
369.329
377.442
380.885
382.389
383.241
383.705
383.938
384.042
384.074
384.06
384.011
383.931
383.817
383.655
383.422
383.178
383.232
383.839
384.767
385.886
387.274
389.046
391.309
394.209
397.935
402.524
407.519
412.179
416.281
420.342
426.184
437.73
331.388
347.999
354.886
360.662
366.877
372.951
377.809
381.202
383.287
384.378
384.838
384.974
384.965
384.892
384.787
384.663
384.514
384.32
384.054
383.789
383.903
384.68
385.865
387.335
389.199
391.608
394.683
398.508
403.021
407.803
412.265
416.243
420.199
425.911
437.458
326.495
342.735
348.552
352.242
356.17
361.378
367.625
373.663
378.724
382.391
384.498
385.416
385.711
385.739
385.661
385.538
385.395
385.229
385.014
384.716
384.429
384.637
385.602
387.07
388.968
391.445
394.654
398.616
403.155
407.846
412.21
416.126
420.008
425.586
437.102
323.058
341.916
350.03
354.75
358.253
361.148
364.275
368.355
373.232
378.296
382.473
384.921
385.976
386.325
386.382
386.322
386.214
386.082
385.92
385.693
385.365
385.122
385.545
386.743
388.506
390.869
394.022
398.039
402.687
407.452
411.859
415.809
419.686
425.196
436.729
324.459
346.542
356.08
361.831
366.226
369.399
371.428
372.851
374.634
377.649
381.526
384.605
386.189
386.799
386.974
386.981
386.921
386.83
386.715
386.555
386.308
386.001
386.054
386.913
388.483
390.684
393.659
397.558
402.213
407.066
411.571
415.603
419.536
425.084
436.643
327.568
349.028
357.866
363.59
368.503
372.649
375.807
377.921
379.273
380.516
382.692
385.236
386.777
387.411
387.605
387.626
387.583
387.514
387.427
387.312
387.149
386.955
386.979
387.647
389.078
391.179
394.031
397.769
402.282
407.066
411.56
415.603
419.561
425.151
436.699
328.228
347.41
355.461
360.995
366.093
370.831
374.93
378.131
380.423
382.086
383.567
385.483
387.111
387.93
388.22
388.271
388.235
388.17
388.093
388.008
387.921
387.901
388.152
388.849
390.093
392.056
394.837
398.484
402.832
407.433
411.795
415.768
419.72
425.372
436.969
327.212
346.389
354.577
360.118
365.158
369.896
374.144
377.627
380.234
382.098
383.541
384.927
386.538
387.837
388.55
388.815
388.85
388.801
388.729
388.656
388.617
388.732
389.31
390.526
391.888
393.596
396.157
399.728
403.991
408.39
412.531
416.363
420.302
426.067
437.611
327.929
348.633
357.237
362.802
367.663
372.114
376.068
379.321
381.756
383.444
384.571
385.39
386.186
387.227
388.246
388.954
389.288
389.361
389.32
389.247
389.192
389.26
389.787
391.349
393.77
395.865
398.08
401.171
405.176
409.454
413.46
417.156
421.02
426.767
438.122
330.8
351.73
360.214
365.769
370.732
375.316
379.314
382.495
384.807
386.348
387.292
387.815
388.072
388.203
388.424
388.862
389.345
389.692
389.827
389.816
389.748
389.697
389.836
390.696
393.114
396.741
399.888
402.776
406.181
410.11
414.033
417.693
421.463
427.025
438.154
333.008
352.576
360.549
366.08
371.419
376.656
381.291
384.889
387.418
389.077
390.089
390.641
390.876
390.894
390.746
390.444
390.101
389.993
390.101
390.245
390.29
390.248
390.19
390.294
391.181
394.015
398.688
403.175
407.031
410.724
414.396
417.958
421.631
426.951
437.783
332.676
351.29
358.987
364.508
370.125
375.908
381.166
385.292
388.222
390.205
391.508
392.325
392.791
393
393.026
392.909
392.619
392.008
391.181
390.725
390.688
390.759
390.77
390.718
390.723
391.395
394.396
399.688
405.274
410.064
414.145
417.863
421.552
426.673
437.197
330.912
349.992
357.861
363.428
369.116
375.032
380.456
384.765
387.897
390.098
391.635
392.702
393.426
393.891
394.155
394.26
394.236
394.082
393.656
392.611
391.603
391.277
391.299
391.352
391.33
391.18
391.765
394.913
400.095
405.979
411.397
415.99
420.085
425.391
436.385
329.581
349.535
357.654
363.226
368.846
374.716
380.129
384.451
387.624
389.893
391.52
392.694
393.539
394.146
394.575
394.851
394.981
394.979
394.846
394.447
393.286
392.186
391.893
392.01
392.197
392.007
392.094
394.848
399.867
405.648
411.066
415.703
419.915
425.53
436.962
328.281
348.733
357.206
362.893
368.508
374.409
379.923
384.341
387.577
389.881
391.53
392.72
393.604
394.298
394.842
395.232
395.466
395.549
395.487
395.24
394.467
393.008
392.479
393.063
394.087
394.271
394.457
398.479
405.362
411.008
415.247
418.939
422.778
428.393
439.082
327.207
348.233
357.349
363.442
369.308
375.316
380.79
385.069
388.149
390.324
391.879
393.011
393.869
394.567
395.144
395.588
395.892
396.047
396.048
395.872
395.333
393.948
393.002
394.474
397.478
399.947
400.324
401.95
406.944
412.703
417.297
421.065
425.036
430.998
441.377
327.681
349.47
359.019
365.523
371.818
378.012
383.248
387.033
389.616
391.406
392.701
393.673
394.422
395.036
395.56
395.994
396.325
396.539
396.621
396.556
396.256
395.428
393.949
394.033
397.698
403.554
408.778
411.544
412.876
414.622
417.352
420.789
425.203
432.262
442.727
329.52
351.292
360.66
367.292
373.992
380.548
385.806
389.3
391.47
392.875
393.864
394.615
395.219
395.717
396.137
396.499
396.802
397.035
397.185
397.237
397.151
396.826
396.044
394.821
394.901
398.647
405.834
414.076
421.192
425.44
427.477
429.336
432.088
436.819
443.592
330.106
351.371
360.544
367.149
373.974
380.848
386.573
390.444
392.767
394.155
395.044
395.668
396.146
396.535
396.865
397.151
397.398
397.605
397.767
397.874
397.909
397.845
397.624
397.125
396.284
395.75
397.076
401.32
408.172
416.953
425.013
429.75
432.354
435.34
441.087
329.109
350.821
360.365
366.96
373.368
379.798
385.66
390.127
393.029
394.789
395.871
396.573
397.062
397.427
397.714
397.95
398.148
398.313
398.444
398.54
398.596
398.605
398.553
398.41
398.114
397.594
396.958
396.836
397.966
400.378
404.686
411.884
420.347
427.796
436.174
329.256
352.27
362.526
369.403
375.469
380.836
385.705
389.919
393.037
395.078
396.37
397.204
397.768
398.17
398.473
398.712
398.903
399.054
399.169
399.248
399.293
399.302
399.272
399.193
399.039
398.805
398.602
398.244
396.944
394.549
396.419
406.723
417.263
425.418
435.337
332.416
356.125
367.085
374.888
381.401
385.866
388.99
391.729
394.113
395.888
397.095
397.903
398.456
398.854
399.166
399.419
399.619
399.769
399.874
399.94
399.972
399.98
399.969
399.948
400.013
400.303
400.279
400.001
399.232
399.514
404.896
413.973
421.124
428.57
440.528
337.68
360.703
372.593
382.261
389.499
392.909
394.3
395.243
396.295
397.319
398.154
398.78
399.238
399.597
399.894
400.134
400.318
400.45
400.534
400.58
400.602
400.62
400.688
401.167
403.04
403.557
403.085
404.859
408.421
412.354
417.591
423.056
428.588
436.055
444.963
342.751
364.78
377.869
389.708
396.285
398.139
398.417
398.422
398.569
398.91
399.336
399.748
400.101
400.395
400.647
400.858
401.023
401.142
401.22
401.266
401.303
401.378
401.708
403.153
406.869
409.316
408.381
409.477
413.733
418.877
423.439
427.625
432.436
438.933
445.399
344.017
366.041
379.496
391.92
397.866
399.596
400.041
400.119
400.133
400.215
400.397
400.643
400.907
401.153
401.366
401.545
401.693
401.805
401.881
401.928
401.968
402.049
402.344
403.476
406.871
412.309
415.134
415.902
417.548
420.453
423.748
427.184
431.517
437.953
444.956
339.311
360.943
372.841
384.23
393.217
397.771
399.709
400.538
400.911
401.107
401.264
401.438
401.635
401.839
402.032
402.203
402.342
402.445
402.51
402.539
402.539
402.535
402.61
403.062
404.794
409.219
415.499
420.606
423.62
425.277
426.931
429.195
432.594
438.232
444.816
331.481
352.798
362.648
371.663
383.782
393.165
397.899
400.008
401.002
401.519
401.826
402.053
402.259
402.462
402.657
402.835
402.991
403.116
403.206
403.255
403.259
403.224
403.177
403.218
403.676
405.421
409.646
416.142
423.156
428.735
431.989
434.267
436.867
440.751
444.925
328.448
351.118
362.032
370.278
379.832
389.971
396.519
399.62
401.075
401.842
402.297
402.603
402.844
403.06
403.263
403.455
403.629
403.782
403.908
403.998
404.043
404.035
403.973
403.879
403.836
404.098
405.288
408.324
413.673
420.784
427.717
432.284
435.473
438.801
442.736
334.508
358.918
372.888
384.059
390.469
394.9
398.557
400.561
401.654
402.339
402.822
403.19
403.489
403.746
403.975
404.186
404.382
404.565
404.733
404.88
404.996
405.07
405.092
405.056
404.973
404.893
404.966
405.551
407.295
411.061
417.433
424.701
429.801
434.176
439.899
344.752
367.566
383.324
398.602
402.16
401.794
401.949
402.296
402.65
402.986
403.306
403.615
403.916
404.207
404.484
404.744
404.99
405.224
405.448
405.659
405.85
406.011
406.132
406.197
406.199
406.135
406.031
405.976
406.221
407.475
411.481
419.135
425.353
430.73
438.229
347.255
370.085
385.948
402.419
405.211
404.811
404.388
404.151
404.069
404.09
404.183
404.332
404.531
404.772
405.04
405.32
405.601
405.882
406.163
406.445
406.724
406.995
407.25
407.481
407.678
407.831
407.936
408.008
408.131
408.699
411.313
417.917
423.819
429.452
438.174
339.146
361.579
374.919
389.478
399.687
403.568
404.648
404.886
404.909
404.903
404.925
404.992
405.11
405.282
405.504
405.764
406.048
406.344
406.649
406.961
407.277
407.587
407.883
408.156
408.399
408.615
408.816
409.042
409.407
410.322
413.158
419.089
424.096
429.359
438.884
330.495
353
363.163
372.185
387.164
398.511
403.272
404.792
405.265
405.423
405.49
405.552
405.646
405.793
406.003
406.272
406.585
406.923
407.283
407.664
408.07
408.5
408.947
409.403
409.853
410.288
410.712
411.169
411.812
413.154
416.382
421.569
425.818
430.738
440.474
329.198
354.43
366.768
375.415
384.847
395.698
402.341
404.794
405.592
405.894
406.034
406.119
406.199
406.305
406.464
406.689
406.977
407.311
407.675
408.065
408.48
408.92
409.381
409.86
410.359
410.891
411.489
412.235
413.355
415.423
419.199
423.766
427.482
432.103
441.694
335.564
363.62
378.883
391.6
400.117
402.53
404.89
405.886
406.264
406.452
406.573
406.67
406.769
406.893
407.066
407.306
407.619
407.994
408.416
408.879
409.384
409.928
410.505
411.104
411.724
412.395
413.204
414.334
416.12
418.999
422.916
426.665
430.033
434.755
443.639
342.625
369.622
385.324
401.043
411.345
409.113
407.583
407.286
407.209
407.198
407.221
407.27
407.345
407.457
407.62
407.852
408.164
408.555
409.02
409.559
410.181
410.887
411.673
412.515
413.4
414.357
415.505
417.094
419.467
422.743
426.317
429.44
432.557
437.253
445.032
341.654
368.809
383.647
398.209
410.645
411.11
409.136
408.426
408.119
407.974
407.921
407.933
407.998
408.117
408.298
408.552
408.885
409.294
409.777
410.339
411
411.781
412.69
413.712
414.83
416.082
417.617
419.685
422.458
425.69
428.764
431.487
434.482
439.172
446.025
339.184
366.567
380.139
392.31
406.194
412.798
411.102
409.724
409.058
408.713
408.535
408.469
408.489
408.589
408.774
409.06
409.465
409.995
410.653
411.447
412.401
413.542
414.871
416.331
417.84
419.407
421.2
423.425
426.095
428.893
431.489
433.95
436.88
441.483
447.071
338.405
365.67
378.513
389.136
401.654
412.612
414.319
411.937
410.483
409.761
409.371
409.159
409.067
409.071
409.164
409.351
409.648
410.074
410.653
411.419
412.427
413.75
415.441
417.444
419.549
421.574
423.601
425.846
428.306
430.757
433.073
435.368
438.145
442.45
447.311
338.277
365.982
379.411
390.66
402.779
412.016
416.665
414.678
412.188
410.919
410.289
409.951
409.784
409.744
409.816
410.001
410.307
410.746
411.338
412.118
413.149
414.534
416.399
418.799
421.562
424.284
426.696
428.888
431.002
433.063
435.101
437.234
439.874
443.901
447.946
337.997
366.271
380.083
391.645
403.951
412.466
417.38
418.335
415.129
412.629
411.381
410.754
410.422
410.265
410.24
410.334
410.546
410.887
411.378
412.054
412.981
414.263
416.054
418.513
421.641
425.104
428.352
431.093
433.397
435.446
437.406
439.423
441.841
445.324
448.26
337.678
366.898
381.839
394.369
406.236
413.334
417.125
419.331
418.788
415.546
413.193
412.03
411.447
411.147
411.023
411.041
411.194
411.486
411.931
412.553
413.403
414.569
416.197
418.477
421.541
425.242
429.031
432.313
434.933
437.099
439.053
440.967
443.134
446.074
448.287
339.162
368.516
386.132
402.719
414.697
417.87
418.899
419.91
420.698
419.357
415.941
413.703
412.679
412.194
411.972
411.919
411.993
412.182
412.489
412.943
413.599
414.546
415.922
417.916
420.716
424.338
428.394
432.199
435.31
437.787
439.885
441.813
443.861
446.476
448.251
341.819
370.4
389.62
410.541
422.918
422.518
420.452
419.686
419.817
420.156
419.301
416.321
413.88
412.829
412.44
412.353
412.453
412.701
413.081
413.586
414.235
415.085
416.257
417.94
420.375
423.703
427.711
431.744
435.17
437.876
440.082
442.005
443.931
446.279
447.916
339.612
366.542
384.483
405.139
419.449
419.824
418.558
418.126
418.303
418.777
419.17
418.828
417.397
415.879
414.848
414.229
413.93
413.891
414.073
414.456
415.044
415.86
416.961
418.463
420.551
423.409
427.007
430.879
434.361
437.164
439.418
441.344
443.256
445.616
447.554
335.016
361.284
377.09
395.084
415.69
418.6
416.592
416
416.433
417.244
418.113
418.674
418.177
416.586
415.552
415.1
414.896
414.855
414.971
415.251
415.73
416.457
417.497
418.936
420.887
423.462
426.648
430.127
433.366
436.068
438.293
440.214
442.128
444.585
447.163
335.262
363.733
379.847
396.959
418.976
422.892
417.973
416.177
416.197
416.415
416.506
416.454
416.238
415.942
415.749
415.678
415.705
415.835
416.084
416.475
417.036