/*--------------------------------*- C++ -*----------------------------------*\
| =========                 |                                                 |
| \\      /  F ield         | OpenFOAM: The Open Source CFD Toolbox           |
|  \\    /   O peration     | Version:  v2006                                 |
|   \\  /    A nd           | Website:  www.openfoam.com                      |
|    \\/     M anipulation  |                                                 |
\*---------------------------------------------------------------------------*/
FoamFile
{
    version     2.0;
    format      ascii;
    class       volVectorField;
    location    "53";
    object      U;
}
// * * * * * * * * * * * * * * * * * * * * * * * * * * * * * * * * * * * * * //

dimensions      [0 1 -1 0 0 0 0];


internalField   nonuniform List<vector> 
78750
(
(0.239658 0.0844738 0.932793)
(-0.73685 -0.199403 -0.263589)
(0.598971 -0.0632826 -0.853883)
(-0.143725 -0.040327 -1.1521)
(0.218854 -0.0972161 -1.24834)
(0.155474 -0.153548 -1.2132)
(0.237156 -0.175674 -1.18163)
(0.225842 -0.170836 -1.0737)
(0.309215 -0.163052 -1.01168)
(0.305552 -0.147509 -0.918874)
(0.357811 -0.13636 -0.821768)
(0.371654 -0.123816 -0.7352)
(0.409547 -0.116505 -0.645838)
(0.423143 -0.107387 -0.561233)
(0.441153 -0.100465 -0.474854)
(0.451556 -0.0921523 -0.393733)
(0.459627 -0.0837784 -0.315026)
(0.463833 -0.0747935 -0.242646)
(0.464567 -0.0656817 -0.177602)
(0.462474 -0.0566846 -0.122135)
(0.458092 -0.0480372 -0.0776537)
(0.451667 -0.0397124 -0.0441231)
(0.443676 -0.0313291 -0.0207166)
(0.434117 -0.0228416 -0.00580544)
(0.423053 -0.0133878 0.00184115)
(0.410047 -0.00376746 0.00450097)
(0.39405 0.00694936 0.000524772)
(0.373287 0.018411 -0.00453591)
(0.345889 0.029395 -0.0179676)
(0.311467 0.0422661 -0.0290159)
(0.268437 0.0521544 -0.0472668)
(0.21939 0.0592912 -0.0732369)
(0.15812 0.0650734 -0.0772414)
(0.0973302 0.0301717 -0.171375)
(0.0422846 0.0452484 -0.040545)
(-0.0669748 -0.788636 -0.535391)
(0.179961 0.195392 -0.439741)
(0.0297472 -0.0647873 -0.26361)
(0.218788 0.129938 0.287676)
(0.100675 0.131631 0.342655)
(0.176834 0.0505502 0.398336)
(0.13206 0.0949626 0.393762)
(0.131731 -0.0312571 0.356068)
(0.1491 0.0890516 0.290667)
(0.123641 -0.00262812 0.329004)
(0.140468 -0.00622319 0.305393)
(0.136747 0.00434213 0.28743)
(0.143013 0.0103163 0.281655)
(0.147157 0.0176931 0.281588)
(0.151724 0.0264241 0.284281)
(0.15519 0.0348393 0.288573)
(0.157935 0.0412142 0.292376)
(0.159349 0.0456145 0.294527)
(0.159897 0.0486958 0.294143)
(0.159955 0.0508774 0.291021)
(0.160247 0.0524499 0.284671)
(0.160849 0.0536215 0.27495)
(0.162686 0.054964 0.261891)
(0.165701 0.055614 0.247241)
(0.170245 0.0601284 0.230552)
(0.175875 0.0759264 0.21055)
(0.181096 0.107284 0.18467)
(0.182638 0.152881 0.155648)
(0.180287 0.210104 0.123361)
(0.173011 0.272842 0.0939824)
(0.160652 0.341631 0.0556743)
(0.140722 0.414347 0.0278851)
(0.113352 0.471462 -0.0255451)
(0.074236 0.519856 -0.0957359)
(0.0269754 0.524629 0.0936686)
(-0.0483111 -0.360386 -0.622652)
(-0.0449248 -0.900055 -0.22213)
(-0.0456352 -0.638618 -0.156861)
(-0.03209 -0.531606 -0.15603)
(0.00704563 -0.467636 -0.0719361)
(0.0209615 -0.437032 -0.0466428)
(0.0568539 -0.421611 -0.0299785)
(0.0853879 -0.418631 -0.0373029)
(0.109798 -0.398482 -0.0256691)
(0.134828 -0.383555 -0.0473779)
(0.148097 -0.366641 -0.057015)
(0.157624 -0.349771 -0.058763)
(0.166136 -0.331696 -0.055828)
(0.174337 -0.30981 -0.048728)
(0.181674 -0.282587 -0.037511)
(0.18812 -0.251024 -0.0229045)
(0.19353 -0.218301 -0.00568873)
(0.197364 -0.187888 0.0138247)
(0.198978 -0.162019 0.0362457)
(0.197586 -0.141861 0.0630115)
(0.192881 -0.127618 0.0939696)
(0.184485 -0.12057 0.126008)
(0.172818 -0.120996 0.153469)
(0.160674 -0.125262 0.1709)
(0.150213 -0.125617 0.176568)
(0.141227 -0.107653 0.166235)
(0.134855 -0.0619328 0.138608)
(0.129046 0.00325061 0.105984)
(0.122036 0.0792132 0.0778427)
(0.113194 0.161819 0.0576807)
(0.102758 0.255091 0.0392295)
(0.0879798 0.354619 0.0204598)
(0.0691844 0.4758 -0.012866)
(0.0404139 0.616328 0.030182)
(0.0144478 0.620877 0.210916)
(0.0134788 -0.253957 0.0854373)
(-0.00619211 -0.236907 0.11)
(-0.0279326 -0.332769 0.112503)
(-0.0285265 -0.363561 0.128244)
(-0.0259523 -0.366806 0.124983)
(-0.0131187 -0.359679 0.121928)
(0.00124944 -0.342743 0.118657)
(0.0154149 -0.322201 0.113763)
(0.0286617 -0.301246 0.101292)
(0.0393181 -0.274234 0.0909338)
(0.0500335 -0.236939 0.0751899)
(0.0586815 -0.1902 0.0532011)
(0.0645023 -0.1429 0.0280765)
(0.0683369 -0.102151 0.0041128)
(0.071385 -0.0688496 -0.0158166)
(0.0743267 -0.0403428 -0.0311764)
(0.0772803 -0.0135551 -0.0427198)
(0.0800543 0.0143723 -0.0511351)
(0.0823517 0.0464831 -0.0556272)
(0.0835184 0.0838928 -0.0532529)
(0.0836319 0.119139 -0.0436091)
(0.0839321 0.143698 -0.0294512)
(0.0841549 0.149162 -0.00553848)
(0.0838691 0.125192 0.0332022)
(0.0810879 0.100042 0.0663977)
(0.0720369 0.0922508 0.078433)
(0.0576175 0.113544 0.0591066)
(0.0449286 0.159562 0.026062)
(0.0366397 0.217671 0.00662279)
(0.0309602 0.287283 0.00677531)
(0.0268678 0.373638 0.0213095)
(0.0211072 0.475777 0.0442863)
(0.0109344 0.593283 0.0800077)
(-0.000868019 0.677516 0.155365)
(-0.000486906 0.610094 0.231857)
(-0.00746493 -0.499268 0.0459466)
(-0.000933042 -0.696887 -0.00778474)
(0.00233982 -0.679077 -0.0333241)
(0.00175935 -0.647335 -0.0458754)
(0.00172159 -0.618669 -0.0462829)
(0.000266985 -0.593323 -0.0419132)
(-0.00108654 -0.568471 -0.0367488)
(-0.00213855 -0.542368 -0.0332168)
(-0.00390646 -0.514314 -0.0313863)
(-0.00682241 -0.482692 -0.0314049)
(-0.0109754 -0.444798 -0.0301933)
(-0.0146624 -0.398278 -0.0267786)
(-0.0169641 -0.346217 -0.0222135)
(-0.0180604 -0.295861 -0.0172237)
(-0.0184033 -0.251976 -0.0127729)
(-0.0183842 -0.214695 -0.0104499)
(-0.0182124 -0.180088 -0.0106829)
(-0.0176173 -0.143037 -0.0117376)
(-0.0157409 -0.104454 -0.00904391)
(-0.0127327 -0.0761963 0.00156433)
(-0.00944705 -0.0668219 0.0236919)
(-0.00431486 -0.0847592 0.0602834)
(0.00323704 -0.0970731 0.0759935)
(0.0115929 -0.083097 0.0688111)
(0.019643 -0.00832963 0.0397264)
(0.020213 0.0722369 0.00891878)
(0.0145532 0.135816 -0.0223764)
(0.00597224 0.181775 -0.0468689)
(-0.00153755 0.219328 -0.0560612)
(-0.00666248 0.264479 -0.0486823)
(-0.00898049 0.334546 -0.0213603)
(-0.0090232 0.43787 0.0309596)
(-0.00845269 0.551149 0.101731)
(-0.00889255 0.592701 0.149481)
(-0.00313196 0.514762 0.155707)
(3.40066e-05 -0.344152 -0.0128249)
(-0.003346 -0.369077 0.0252216)
(-0.00330947 -0.377791 0.0467555)
(-0.00162472 -0.37719 0.060324)
(-6.18873e-05 -0.370266 0.0672307)
(0.00104824 -0.358257 0.0695336)
(0.00137526 -0.339299 0.0673653)
(0.000847008 -0.310698 0.0593381)
(-0.000102592 -0.272882 0.044545)
(-0.00131934 -0.230482 0.0246871)
(-0.00267473 -0.19037 0.00412498)
(-0.00408075 -0.157167 -0.0119304)
(-0.00532845 -0.129554 -0.0210435)
(-0.0063594 -0.103517 -0.0229022)
(-0.00720282 -0.0762598 -0.0173496)
(-0.00796981 -0.0478781 -0.00529245)
(-0.00865219 -0.020836 0.0103176)
(-0.00886944 0.00273194 0.0264772)
(-0.00833231 0.0231914 0.0428535)
(-0.00724316 0.0409965 0.0624094)
(-0.00650502 0.0505905 0.0890747)
(-0.00911596 0.0379827 0.12095)
(-0.0193233 -0.00252627 0.132763)
(-0.0326686 -0.0168328 0.105217)
(-0.0392895 0.0336534 0.0655834)
(-0.0402986 0.122933 0.0217056)
(-0.0375612 0.208683 -0.0254297)
(-0.0349252 0.273076 -0.0637728)
(-0.0344942 0.314152 -0.0828974)
(-0.0355798 0.343544 -0.081674)
(-0.0358918 0.37968 -0.0613327)
(-0.032405 0.435565 -0.0188077)
(-0.0246064 0.492213 0.0346045)
(-0.0166579 0.500517 0.0669361)
(-0.00574158 0.407598 0.0667245)
(-0.00451807 -0.411469 0.100987)
(-0.00944828 -0.59613 0.0773103)
(-0.0153842 -0.613253 0.0578238)
(-0.019143 -0.607394 0.0486426)
(-0.0214024 -0.5949 0.0450249)
(-0.0218499 -0.578885 0.0452874)
(-0.0208821 -0.559991 0.0479051)
(-0.0186994 -0.537534 0.0512485)
(-0.0152841 -0.510118 0.0530035)
(-0.0105704 -0.475995 0.050048)
(-0.00486818 -0.434709 0.0394856)
(0.00110294 -0.388697 0.0209759)
(0.00663306 -0.342216 -0.0021368)
(0.0114551 -0.298803 -0.0247676)
(0.0156196 -0.260146 -0.0428267)
(0.0191994 -0.226502 -0.0545399)
(0.0220494 -0.197522 -0.0600712)
(0.023889 -0.172513 -0.0604362)
(0.0245393 -0.14999 -0.0564925)
(0.0240013 -0.126848 -0.047973)
(0.0222427 -0.0991294 -0.03355)
(0.0186218 -0.0669572 -0.0135141)
(0.0111501 -0.0343635 0.00922289)
(-0.00155462 -0.00366055 0.0342412)
(-0.0157313 0.0245699 0.057576)
(-0.0247702 0.0604803 0.0684597)
(-0.0274119 0.115743 0.0599964)
(-0.0248623 0.187766 0.0344615)
(-0.0202177 0.259773 0.00412704)
(-0.0167794 0.317855 -0.0183584)
(-0.0155328 0.359217 -0.0258513)
(-0.0141268 0.393539 -0.0159406)
(-0.0101831 0.423906 0.00603551)
(-0.0055188 0.42812 0.026572)
(-0.000179448 0.346406 0.0368881)
(0.000992858 -0.309207 -0.0436992)
(-0.000886595 -0.363897 -0.0445781)
(-0.00219271 -0.380099 -0.0349899)
(-0.00335616 -0.386551 -0.0250743)
(-0.0044747 -0.38724 -0.0152218)
(-0.00571471 -0.382657 -0.0054767)
(-0.00713569 -0.37275 0.00432283)
(-0.00862206 -0.357268 0.0142256)
(-0.0099404 -0.335982 0.0239419)
(-0.0107972 -0.30889 0.0325448)
(-0.0109178 -0.276181 0.0381647)
(-0.0102267 -0.238389 0.0381427)
(-0.0089879 -0.197459 0.0305208)
(-0.00768924 -0.156724 0.0164414)
(-0.00666833 -0.11821 0.000102345)
(-0.00600544 -0.0811952 -0.0142436)
(-0.0058453 -0.0441798 -0.0240875)
(-0.00667169 -0.00725051 -0.0283084)
(-0.00922945 0.0273201 -0.02657)
(-0.0140018 0.0564358 -0.0191775)
(-0.0202531 0.0783841 -0.00702863)
(-0.0267764 0.0944583 0.00859877)
(-0.0331675 0.106743 0.0264464)
(-0.0395078 0.115831 0.0446181)
(-0.0459002 0.12244 0.0601873)
(-0.0509794 0.129641 0.0701128)
(-0.0534861 0.143535 0.0737156)
(-0.0521073 0.17243 0.0703733)
(-0.0454159 0.221071 0.0603681)
(-0.0346693 0.283574 0.0479458)
(-0.023196 0.346671 0.0384568)
(-0.0146994 0.389969 0.0359131)
(-0.00888219 0.406298 0.0406242)
(-0.00442578 0.405083 0.0478748)
(-0.000313132 0.331668 0.0472269)
(-0.00577221 -0.397051 0.0545937)
(-0.00671011 -0.55594 0.0562054)
(-0.00719051 -0.576242 0.0474453)
(-0.0068749 -0.576183 0.0410188)
(-0.0062541 -0.5687 0.0364734)
(-0.00550742 -0.556326 0.034525)
(-0.00476508 -0.540581 0.0357078)
(-0.00414193 -0.522177 0.0403805)
(-0.00371957 -0.501096 0.048669)
(-0.00352749 -0.476474 0.0601512)
(-0.00351023 -0.446477 0.0732529)
(-0.00352848 -0.408836 0.0844495)
(-0.00351625 -0.36299 0.0882043)
(-0.00373908 -0.312828 0.0799603)
(-0.00473206 -0.264797 0.0610161)
(-0.00666651 -0.221662 0.0381762)
(-0.00903056 -0.180822 0.0182626)
(-0.0109663 -0.138511 0.00478114)
(-0.0117508 -0.0942935 -0.00169145)
(-0.0112506 -0.0516778 -0.00226753)
(-0.0102769 -0.0144982 0.00150417)
(-0.00967563 0.0168602 0.00839228)
(-0.00972834 0.0429859 0.0177755)
(-0.010624 0.0642932 0.0291414)
(-0.0125123 0.0808905 0.0414503)
(-0.0152648 0.0933464 0.0528566)
(-0.0180882 0.103212 0.061608)
(-0.0198156 0.113545 0.0672778)
(-0.0192782 0.129972 0.0703685)
(-0.0152414 0.161455 0.0716804)
(-0.00750128 0.218985 0.0728609)
(0.00149609 0.302706 0.0755954)
(0.00419486 0.363635 0.0774551)
(0.00333705 0.378083 0.0771301)
(0.00284841 0.322034 0.0632592)
(0.00196216 -0.289526 -0.0204185)
(0.00235348 -0.40215 -0.0535043)
(0.0020837 -0.429804 -0.0618244)
(0.00153965 -0.436743 -0.0650112)
(0.000955914 -0.43581 -0.0668715)
(0.000589956 -0.429139 -0.0682576)
(0.000476728 -0.417184 -0.0691937)
(0.000424131 -0.400352 -0.0690142)
(0.000124514 -0.379522 -0.0662287)
(-0.000748598 -0.355818 -0.0586117)
(-0.00230913 -0.329471 -0.043733)
(-0.00426563 -0.298792 -0.0206232)
(-0.00602712 -0.260296 0.00740375)
(-0.00696054 -0.211165 0.0320758)
(-0.00693582 -0.154026 0.0445814)
(-0.00662008 -0.0978882 0.0424374)
(-0.00684177 -0.0521646 0.0313772)
(-0.00783378 -0.0196674 0.0195946)
(-0.00934357 0.00331628 0.0117189)
(-0.0111441 0.0218072 0.00858158)
(-0.0128343 0.0386442 0.00963976)
(-0.0140964 0.055029 0.0140711)
(-0.0149216 0.0710378 0.0210646)
(-0.0154979 0.0861984 0.0296679)
(-0.0160355 0.0993776 0.0384255)
(-0.0167419 0.109293 0.0456095)
(-0.0176485 0.115936 0.0504472)
(-0.0185136 0.120756 0.0534117)
(-0.0189024 0.126281 0.0553251)
(-0.018063 0.138354 0.0571264)
(-0.0145148 0.172475 0.0609712)
(-0.00669747 0.254314 0.0709091)
(2.58015e-05 0.354872 0.0812909)
(0.00136125 0.37379 0.0789296)
(0.00143561 0.327105 0.0623223)
(-0.0018442 -0.379212 0.00641864)
(-0.00161454 -0.517317 0.0165556)
(-0.00114837 -0.540129 0.0188084)
(-0.000443074 -0.543707 0.0193083)
(0.000322105 -0.539962 0.0188228)
(0.000925569 -0.530148 0.0171585)
(0.00142765 -0.514234 0.0139795)
(0.00202362 -0.491699 0.00898517)
(0.00290627 -0.462685 0.00233118)
(0.00410231 -0.429298 -0.00491415)
(0.00534312 -0.395212 -0.0108404)
(0.00626249 -0.363603 -0.0131583)
(0.00674986 -0.335026 -0.00961763)
(0.00711928 -0.306724 0.00146379)
(0.00809299 -0.273662 0.0190367)
(0.0103331 -0.231836 0.0369948)
(0.0137283 -0.181991 0.0476568)
(0.017347 -0.129492 0.0477332)
(0.0201133 -0.0808307 0.0398635)
(0.0214552 -0.0401028 0.0298247)
(0.0214319 -0.00814282 0.0225576)
(0.0201732 0.0167051 0.0197803)
(0.0181874 0.0365321 0.0210648)
(0.0160706 0.0529645 0.0253489)
(0.0140864 0.0670445 0.0315286)
(0.012282 0.079042 0.038187)
(0.0105924 0.088649 0.0437456)
(0.0089683 0.0959128 0.0474252)
(0.00748031 0.101785 0.0493718)
(0.0063698 0.108817 0.0500194)
(0.00625535 0.125269 0.050081)
(0.00737597 0.179085 0.0537071)
(0.007922 0.299131 0.0685396)
(0.00685705 0.359581 0.0711623)
(0.00336177 0.327935 0.0544644)
(0.00205298 -0.316117 -0.0189939)
(0.00736854 -0.447932 -0.0454699)
(0.0109652 -0.479066 -0.0543195)
(0.0136947 -0.486652 -0.0584251)
(0.0160447 -0.485477 -0.0608235)
(0.0179745 -0.478512 -0.0619749)
(0.0195203 -0.467028 -0.0619618)
(0.0207871 -0.451791 -0.0609503)
(0.0218795 -0.432764 -0.0593087)
(0.0228914 -0.408747 -0.0575793)
(0.0238568 -0.377911 -0.0562288)
(0.0246177 -0.339985 -0.0551351)
(0.0248374 -0.298484 -0.0530243)
(0.0243409 -0.258956 -0.0477335)
(0.0234198 -0.224199 -0.0371808)
(0.0226739 -0.192307 -0.0201532)
(0.0228116 -0.158731 0.00217712)
(0.0243018 -0.119622 0.024689)
(0.0268219 -0.0747309 0.0403412)
(0.0293306 -0.0286975 0.0447758)
(0.0306069 0.0111782 0.0399928)
(0.0301963 0.040193 0.0328045)
(0.0285301 0.0590108 0.0285107)
(0.0262036 0.0710814 0.0281428)
(0.0236128 0.0794081 0.0310806)
(0.0209705 0.085638 0.0366989)
(0.0185311 0.0903842 0.0437007)
(0.0165513 0.093928 0.0498031)
(0.0151476 0.0970181 0.0534922)
(0.0142421 0.101953 0.0546678)
(0.0136782 0.119013 0.0521935)
(0.0133324 0.190935 0.0432453)
(0.00842533 0.318513 0.04744)
(0.00482566 0.383048 0.0502448)
(0.00210342 0.35063 0.0379533)
(0.00371408 -0.388605 -0.0174054)
(0.0100909 -0.518087 -0.0199254)
(0.0144472 -0.54118 -0.020469)
(0.017658 -0.543828 -0.021379)
(0.0204331 -0.538572 -0.0231649)
(0.0224444 -0.527149 -0.0259985)
(0.0236381 -0.509867 -0.0299161)
(0.0240492 -0.486759 -0.0347878)
(0.0237033 -0.458302 -0.0402555)
(0.0227171 -0.425789 -0.0457817)
(0.0213896 -0.390777 -0.0508677)
(0.0201342 -0.354186 -0.0552462)
(0.0192317 -0.316819 -0.0586818)
(0.0185912 -0.281068 -0.0604993)
(0.0179383 -0.250113 -0.0597002)
(0.0172194 -0.22458 -0.0553875)
(0.0166218 -0.201623 -0.0461618)
(0.0165693 -0.176257 -0.0296884)
(0.0176839 -0.142773 -0.00596723)
(0.0200706 -0.0983319 0.0182733)
(0.02281 -0.0470288 0.033545)
(0.0245806 0.00112495 0.0365371)
(0.0246362 0.0378366 0.0328568)
(0.023225 0.0615626 0.0296845)
(0.0211383 0.0753462 0.0296219)
(0.0188511 0.0828022 0.0322664)
(0.0164365 0.0860685 0.037355)
(0.0139341 0.0861734 0.0451869)
(0.011674 0.0847515 0.0547909)
(0.0101244 0.0859019 0.0630935)
(0.00836399 0.102679 0.0669463)
(0.00865722 0.193895 0.0537595)
(0.00497816 0.346735 0.0361419)
(0.000570298 0.401134 0.0329794)
(0.000511535 0.359921 0.0238182)
(0.00253279 -0.398462 -0.0190909)
(0.00544788 -0.503271 -0.0313587)
(0.00772272 -0.518463 -0.0365452)
(0.00926522 -0.517369 -0.0401463)
(0.0103943 -0.50885 -0.0437302)
(0.010895 -0.494265 -0.0475082)
(0.0107416 -0.474241 -0.0514702)
(0.009966 -0.449387 -0.0554583)
(0.00866249 -0.420508 -0.0592036)
(0.00698561 -0.388541 -0.0623552)
(0.00514577 -0.354343 -0.0645216)
(0.00343548 -0.318265 -0.0654182)
(0.00222682 -0.280158 -0.0650252)
(0.00178666 -0.240815 -0.063502)
(0.00194822 -0.203605 -0.0608849)
(0.00221715 -0.172636 -0.0571034)
(0.00230552 -0.148857 -0.0520739)
(0.00226524 -0.129577 -0.045124)
(0.00235604 -0.110145 -0.0341822)
(0.003136 -0.0842785 -0.016531)
(0.00505784 -0.0471165 0.00487079)
(0.00736849 -0.00276623 0.0201892)
(0.00884431 0.0373542 0.0252658)
(0.00895169 0.0654511 0.0251885)
(0.00791318 0.0814278 0.0253378)
(0.00625204 0.0893057 0.0271319)
(0.00411188 0.0921895 0.0307421)
(0.00136139 0.0910954 0.0369445)
(-0.00199312 0.0867907 0.0465282)
(-0.00537568 0.0838878 0.058028)
(-0.00883392 0.0986942 0.0687274)
(-0.00878246 0.191294 0.0663551)
(-0.00282262 0.376814 0.0374263)
(-0.00243137 0.411343 0.0275792)
(-0.000609955 0.353918 0.019574)
(0.000719671 -0.401225 -0.0142446)
(0.00298045 -0.507477 -0.0201635)
(0.00545812 -0.522386 -0.0232418)
(0.007624 -0.52103 -0.0259813)
(0.00962719 -0.511791 -0.0293298)
(0.010996 -0.495488 -0.0334913)
(0.0115264 -0.472444 -0.0384299)
(0.0111828 -0.443577 -0.0439152)
(0.0101159 -0.41053 -0.0496935)
(0.0085656 -0.375475 -0.0554914)
(0.00672144 -0.341125 -0.0607845)
(0.00472828 -0.310018 -0.0648178)
(0.00278707 -0.282971 -0.0670182)
(0.00116128 -0.25864 -0.0672186)
(0.000123479 -0.234849 -0.0654787)
(-0.000214803 -0.210586 -0.0619421)
(-8.55614e-05 -0.186802 -0.0568721)
(0.000207199 -0.164537 -0.0504315)
(0.000563568 -0.142721 -0.0421267)
(0.00108694 -0.117819 -0.0304206)
(0.00216562 -0.0847319 -0.0136444)
(0.0041032 -0.0412668 0.00530137)
(0.00620036 0.00547748 0.0184056)
(0.0073019 0.0445929 0.0232152)
(0.0071061 0.0712731 0.0240862)
(0.00602258 0.0868838 0.0249108)
(0.00438988 0.0948666 0.0268599)
(0.00228532 0.0978925 0.0300772)
(-0.000369072 0.0973693 0.0349021)
(-0.00340424 0.0947973 0.0418122)
(-0.00614517 0.0956523 0.0514844)
(-0.00628751 0.129489 0.0634442)
(0.000225091 0.298904 0.0585264)
(0.0045975 0.387269 0.0440353)
(0.00139309 0.342274 0.0286051)
(-0.000174805 -0.400582 -0.0119566)
(0.00137747 -0.505145 -0.0201847)
(0.00328881 -0.518179 -0.0251692)
(0.00526132 -0.514623 -0.0296839)
(0.00729987 -0.501855 -0.0349912)
(0.0088593 -0.480356 -0.0410971)
(0.00957576 -0.451296 -0.0472846)
(0.0093727 -0.417689 -0.0524193)
(0.00855181 -0.382524 -0.0559557)
(0.00757698 -0.346854 -0.0582893)
(0.00681692 -0.31034 -0.0602111)
(0.00639709 -0.273268 -0.0622065)
(0.00618057 -0.237678 -0.0640938)
(0.00594119 -0.206193 -0.0652795)
(0.00556796 -0.180132 -0.0652863)
(0.00508998 -0.159115 -0.063963)
(0.00458792 -0.141896 -0.0613637)
(0.00413089 -0.127129 -0.0575383)
(0.00378788 -0.11334 -0.0522703)
(0.00368302 -0.0982878 -0.0446875)
(0.00409849 -0.0781481 -0.032996)
(0.0054943 -0.0480649 -0.0159716)
(0.00784227 -0.00814537 0.00223069)
(0.0101964 0.031725 0.014476)
(0.0117943 0.0612987 0.0200108)
(0.0126707 0.0787481 0.0224736)
(0.0131318 0.0875688 0.0243207)
(0.0133774 0.0909284 0.0264872)
(0.0135836 0.0900959 0.029839)
(0.013885 0.0849245 0.0359993)
(0.0145085 0.0777046 0.0465424)
(0.0151175 0.101438 0.059628)
(0.00878166 0.248879 0.0628143)
(0.00631671 0.387915 0.0523904)
(0.0018903 0.35764 0.0301334)
(0.000345845 -0.388597 -0.00810917)
(0.00247983 -0.499423 -0.0113853)
(0.00462279 -0.514179 -0.0152766)
(0.00690455 -0.510901 -0.0200267)
(0.00940193 -0.496869 -0.0268121)
(0.0115219 -0.471539 -0.0358584)
(0.0128203 -0.436755 -0.0458774)
(0.0132077 -0.398364 -0.0544663)
(0.0129307 -0.361993 -0.0601352)
(0.0123036 -0.330084 -0.0629491)
(0.011599 -0.302379 -0.0637633)
(0.0110347 -0.277328 -0.063504)
(0.0107447 -0.253249 -0.0628597)
(0.0107412 -0.229141 -0.0621719)
(0.0109213 -0.205061 -0.0614162)
(0.0111418 -0.18186 -0.0603134)
(0.0113008 -0.160518 -0.0585534)
(0.0113626 -0.14159 -0.0559524)
(0.0113538 -0.124893 -0.0524023)
(0.0113628 -0.10927 -0.0476013)
(0.0115471 -0.0923114 -0.0406575)
(0.0121947 -0.0700078 -0.029872)
(0.0136877 -0.0383398 -0.0143713)
(0.0158347 0.000119079 0.00177009)
(0.0176527 0.0345158 0.0130595)
(0.018696 0.0562452 0.0192371)
(0.0193517 0.0664098 0.0227376)
(0.01996 0.0696661 0.025567)
(0.0207116 0.0674608 0.0295384)
(0.021541 0.0593335 0.0369759)
(0.0212201 0.0530123 0.050159)
(0.0191861 0.127287 0.0611295)
(0.00662947 0.314759 0.0445626)
(-0.00186288 0.413118 0.0359571)
(-0.0002526 0.373658 0.0192649)
(0.00151787 -0.40662 0.00270038)
(0.00421103 -0.515295 0.00114409)
(0.00626359 -0.528987 -0.00318905)
(0.00825307 -0.523532 -0.00894115)
(0.0103615 -0.505089 -0.0175785)
(0.0120358 -0.472619 -0.0293887)
(0.0129838 -0.429717 -0.0423877)
(0.0133565 -0.384451 -0.0534238)
(0.0135092 -0.342304 -0.0609855)
(0.013649 -0.304423 -0.0653333)
(0.0138014 -0.270049 -0.0672993)
(0.0139147 -0.23844 -0.0676576)
(0.0139322 -0.209465 -0.06701)
(0.0138133 -0.183431 -0.0657873)
(0.0135257 -0.160657 -0.0642371)
(0.0130396 -0.14117 -0.0624289)
(0.0123352 -0.124654 -0.0603009)
(0.0114144 -0.110535 -0.0577171)
(0.0103115 -0.098061 -0.054477)
(0.00909364 -0.086233 -0.0502318)
(0.00784627 -0.0734704 -0.0442678)
(0.00672075 -0.0570687 -0.03527)
(0.00608214 -0.0333881 -0.0218809)
(0.00628366 -0.00161179 -0.00543376)
(0.00684125 0.0310763 0.00893857)
(0.00655742 0.0540298 0.0180826)
(0.00531731 0.0643597 0.0232831)
(0.00343953 0.0669246 0.0274745)
(0.000719165 0.0641269 0.0328704)
(-0.00262639 0.059384 0.0411538)
(-0.00812997 0.0725816 0.0541445)
(-0.0122193 0.181203 0.0654852)
(-0.00672975 0.399546 0.0438787)
(-0.00807627 0.428807 0.026774)
(-0.00228864 0.352269 0.0143972)
(0.000437936 -0.417644 0.00778339)
(0.000595334 -0.518235 0.00533618)
(0.000826847 -0.528794 0.000408368)
(0.00116066 -0.520222 -0.00625173)
(0.00168224 -0.496599 -0.0164862)
(0.002348 -0.457114 -0.0304626)
(0.00311926 -0.408601 -0.0453538)
(0.00389864 -0.361977 -0.0573031)
(0.00463267 -0.32288 -0.0648581)
(0.00536146 -0.291153 -0.0687149)
(0.00616263 -0.264449 -0.0700549)
(0.00710285 -0.24037 -0.0697884)
(0.00820142 -0.217091 -0.0685157)
(0.00940587 -0.193559 -0.066661)
(0.0105868 -0.169682 -0.0645516)
(0.0115708 -0.146269 -0.0623948)
(0.0122027 -0.124506 -0.0602346)
(0.0123917 -0.105281 -0.057985)
(0.0121234 -0.0888161 -0.0554992)
(0.0114529 -0.0746623 -0.0525735)
(0.0104869 -0.061789 -0.0488594)
(0.00935559 -0.048445 -0.0436505)
(0.00825233 -0.0317627 -0.0356311)
(0.00755584 -0.00828346 -0.0234411)
(0.00729578 0.0217608 -0.00848701)
(0.00655406 0.0514349 0.00491469)
(0.00446393 0.0733979 0.0144209)
(0.000961046 0.0855889 0.0209013)
(-0.0039272 0.0900356 0.026149)
(-0.0102467 0.089532 0.0317679)
(-0.0174709 0.0907163 0.039717)
(-0.0226822 0.123975 0.0531703)
(-0.00985947 0.27767 0.0668763)
(0.00206978 0.373885 0.0511783)
(0.000566348 0.316439 0.032514)
(-0.000701041 -0.412974 0.0167491)
(-0.00201103 -0.515347 0.0136147)
(-0.00283691 -0.526431 0.00884453)
(-0.00322945 -0.517744 0.00318632)
(-0.0030167 -0.494192 -0.00492489)
(-0.00169696 -0.455428 -0.0161163)
(0.000866069 -0.406485 -0.0295207)
(0.0040476 -0.356306 -0.0427318)
(0.00701583 -0.311222 -0.0535856)
(0.00938396 -0.27309 -0.0612496)
(0.0111462 -0.24104 -0.0659349)
(0.0124573 -0.213421 -0.068235)
(0.0134878 -0.188765 -0.0687407)
(0.0143749 -0.166032 -0.0679458)
(0.0152088 -0.144615 -0.0662671)
(0.0160212 -0.124316 -0.0640608)
(0.0167842 -0.105275 -0.0615989)
(0.0174307 -0.0877792 -0.0590365)
(0.0178921 -0.0720014 -0.0563988)
(0.0181301 -0.0577823 -0.0535864)
(0.0181488 -0.0445242 -0.0503562)
(0.0180013 -0.0311194 -0.0462533)
(0.0178132 -0.0158155 -0.0404995)
(0.0178501 0.00366704 -0.0320801)
(0.0183666 0.0284597 -0.0208542)
(0.0193445 0.0554368 -0.00918067)
(0.0203799 0.0790872 0.000107824)
(0.0209669 0.0968514 0.00642813)
(0.0207683 0.109113 0.0106487)
(0.0194151 0.116539 0.0136741)
(0.0173137 0.118531 0.0159914)
(0.0162525 0.113551 0.0198539)
(0.012137 0.158636 0.0445912)
(0.0111955 0.326543 0.0663747)
(0.00448955 0.328165 0.0448347)
(-0.00318703 -0.404195 0.0109593)
(-0.00644288 -0.50957 0.00241872)
(-0.00820069 -0.522432 -0.00177315)
(-0.00899356 -0.516114 -0.00467275)
(-0.00867543 -0.497239 -0.00745966)
(-0.00657064 -0.465865 -0.0108857)
(-0.0025886 -0.422994 -0.0161621)
(0.00258371 -0.373325 -0.0239468)
(0.00764538 -0.324229 -0.0333213)
(0.0115928 -0.281406 -0.0424209)
(0.0142784 -0.246276 -0.049831)
(0.0160684 -0.217231 -0.0551291)
(0.0173939 -0.191974 -0.0584899)
(0.0185566 -0.168721 -0.060232)
(0.0197159 -0.146486 -0.060664)
(0.0209236 -0.125042 -0.0600902)
(0.0221673 -0.104705 -0.0588107)
(0.0234088 -0.085998 -0.0570864)
(0.0246161 -0.0692968 -0.0550885)
(0.0257743 -0.0546231 -0.0528776)
(0.0268874 -0.0416066 -0.0503846)
(0.0280034 -0.0295287 -0.0473734)
(0.0291847 -0.0173284 -0.0433802)
(0.0305757 -0.00353228 -0.0376175)
(0.0324099 0.0132545 -0.0293248)
(0.034961 0.0324072 -0.0192226)
(0.0382244 0.0505956 -0.00985416)
(0.0419663 0.0655251 -0.00285208)
(0.0458857 0.0774435 0.001914)
(0.0488678 0.086887 0.00496181)
(0.0497055 0.0917174 0.00808944)
(0.0464355 0.124765 0.0132902)
(0.0227975 0.238187 0.0235362)
(0.00625949 0.380892 0.0398353)
(0.00150493 0.382867 0.0253237)
(-0.00241422 -0.366649 0.000127356)
(-0.00314695 -0.493886 -0.0124779)
(-0.00305878 -0.516423 -0.0164193)
(-0.0022186 -0.517923 -0.0174538)
(-0.000803864 -0.508794 -0.016846)
(0.00133418 -0.489144 -0.0149979)
(0.00458268 -0.45632 -0.012712)
(0.00919585 -0.408179 -0.0119043)
(0.0145739 -0.348992 -0.0148352)
(0.0193229 -0.289533 -0.0218434)
(0.0223679 -0.239258 -0.0306776)
(0.0237026 -0.200586 -0.038736)
(0.023915 -0.171026 -0.0448632)
(0.0235648 -0.147217 -0.049016)
(0.0230193 -0.126678 -0.051484)
(0.0224905 -0.107993 -0.0525677)
(0.0220745 -0.0906032 -0.0525452)
(0.0217777 -0.0745377 -0.0516919)
(0.021556 -0.0600585 -0.0502593)
(0.0213547 -0.0471937 -0.0483817)
(0.0211174 -0.035481 -0.0459796)
(0.0208084 -0.0244181 -0.0428517)
(0.0203888 -0.0132598 -0.0385729)
(0.019848 -0.000875146 -0.0323805)
(0.0193706 0.0130725 -0.0238526)
(0.0191314 0.0270365 -0.0138974)
(0.0191417 0.0386379 -0.00441713)
(0.01935 0.047748 0.00383802)
(0.0196448 0.0572878 0.011729)
(0.0198295 0.0778977 0.0212821)
(0.0164867 0.150488 0.0316012)
(0.00903299 0.297065 0.027749)
(-0.00469295 0.414372 0.0127201)
(-0.0112665 0.451476 0.00936996)
(-0.00574807 0.378501 0.00174054)
(0.000672377 -0.381126 -0.012918)
(0.00417294 -0.509717 -0.0264601)
(0.00669018 -0.532579 -0.0323661)
(0.00880667 -0.533171 -0.0364009)
(0.0103612 -0.522314 -0.0398969)
(0.0108812 -0.502252 -0.0418136)
(0.0107284 -0.474471 -0.0402097)
(0.0109219 -0.436834 -0.0342607)
(0.0125231 -0.38479 -0.0261443)
(0.0155038 -0.320473 -0.0210348)
(0.0184063 -0.256339 -0.0221923)
(0.0200313 -0.203371 -0.0276346)
(0.0203669 -0.163345 -0.0338623)
(0.0198778 -0.132955 -0.0390376)
(0.0189426 -0.108601 -0.0427277)
(0.0177838 -0.0878597 -0.0450046)
(0.016514 -0.0694384 -0.0460482)
(0.0151626 -0.0528085 -0.046064)
(0.0136925 -0.037817 -0.0452559)
(0.0120301 -0.024341 -0.0437733)
(0.0100945 -0.012093 -0.04165)
(0.00783183 -0.000603185 -0.038777)
(0.0052482 0.0107666 -0.034881)
(0.00225297 0.022762 -0.0295496)
(-0.00122397 0.035968 -0.0223422)
(-0.00523851 0.0502189 -0.0131608)
(-0.00998618 0.0641534 -0.0025975)
(-0.0157418 0.0765717 0.00858091)
(-0.0228607 0.089632 0.0203207)
(-0.0313436 0.11427 0.0332458)
(-0.0380925 0.176841 0.0464024)
(-0.0351508 0.295969 0.0524458)
(-0.0245752 0.400457 0.0439964)
(-0.0151212 0.405658 0.0314393)
(-0.00322793 0.297468 0.0187936)
(0.0026609 -0.390335 -0.0107865)
(0.00916011 -0.513939 -0.0150743)
(0.0141241 -0.532129 -0.02045)
(0.0181125 -0.526718 -0.0275606)
(0.0211246 -0.505592 -0.0384048)
(0.0214817 -0.473209 -0.0508471)
(0.0195076 -0.438358 -0.0596477)
(0.0166527 -0.404153 -0.0616197)
(0.0141731 -0.365654 -0.0560148)
(0.0132671 -0.314911 -0.0450285)
(0.014158 -0.253296 -0.0356252)
(0.0154457 -0.194447 -0.0326972)
(0.0160864 -0.147783 -0.0344919)
(0.0160588 -0.113108 -0.0377304)
(0.0156256 -0.0867197 -0.0407096)
(0.0149907 -0.0653782 -0.0429101)
(0.0142764 -0.0470265 -0.044252)
(0.0135362 -0.0305108 -0.0447797)
(0.0127598 -0.0152299 -0.0445744)
(0.0118883 -0.000855504 -0.0437227)
(0.0108459 0.0128691 -0.0422848)
(0.00954407 0.02627 -0.0402641)
(0.00791068 0.0397789 -0.0375869)
(0.00591065 0.0539127 -0.0341035)
(0.00351753 0.0691964 -0.0296102)
(0.000680946 0.0859759 -0.0239143)
(-0.00272714 0.104183 -0.0169358)
(-0.00703912 0.122997 -0.00879732)
(-0.0126624 0.140568 9.85421e-05)
(-0.0188868 0.155521 0.00913079)
(-0.023217 0.171517 0.0181367)
(-0.0219056 0.198632 0.0277528)
(-0.0105589 0.240105 0.0386737)
(0.00137164 0.280311 0.0505732)
(0.00388841 0.2484 0.044425)
(0.00206733 -0.43253 0.00729149)
(0.00991087 -0.557521 0.0153779)
(0.0167871 -0.571991 0.013022)
(0.0227913 -0.558005 0.00526921)
(0.0275825 -0.51661 -0.0116252)
(0.0277295 -0.460322 -0.0338023)
(0.0247068 -0.4087 -0.0522031)
(0.0207007 -0.367476 -0.0627673)
(0.016739 -0.332041 -0.0657139)
(0.0134449 -0.294207 -0.0615532)
(0.0117916 -0.246565 -0.0522015)
(0.012026 -0.192301 -0.0437575)
(0.0130104 -0.142922 -0.0401145)
(0.0139614 -0.103911 -0.0399635)
(0.0147908 -0.0741052 -0.0410998)
(0.0155963 -0.0507344 -0.0423507)
(0.0164683 -0.0315194 -0.0432913)
(0.0174612 -0.0149071 -0.0438138)
(0.0186005 9.55078e-05 -0.0439145)
(0.0198461 0.0140993 -0.0436086)
(0.0211296 0.0274921 -0.0429114)
(0.0224483 0.0405803 -0.0418398)
(0.0238039 0.0536769 -0.0404088)
(0.0252167 0.0671325 -0.038615)
(0.0267084 0.0813505 -0.0364382)
(0.0282953 0.0967983 -0.0338465)
(0.0299794 0.114003 -0.0308044)
(0.0317258 0.133223 -0.027323)
(0.0331897 0.152683 -0.0235752)
(0.0335594 0.16678 -0.0197258)
(0.0328841 0.172293 -0.0153786)
(0.0314133 0.173466 -0.00940705)
(0.025399 0.193362 0.00272919)
(0.0163907 0.274119 0.035838)
(0.00649829 0.295541 0.0445309)
(0.0012894 -0.45352 0.0259638)
(0.00997851 -0.606592 0.0371938)
(0.0172388 -0.622094 0.0347001)
(0.0230538 -0.59131 0.0242393)
(0.0263278 -0.510952 0.000363054)
(0.0238276 -0.424424 -0.0267582)
(0.019843 -0.358264 -0.0476003)
(0.016186 -0.31221 -0.059951)
(0.0130313 -0.277758 -0.0656063)
(0.0103174 -0.247 -0.066209)
(0.00824948 -0.213552 -0.0623066)
(0.00737003 -0.174163 -0.0554375)
(0.00767876 -0.133328 -0.0493924)