/*--------------------------------*- C++ -*----------------------------------*\
| =========                 |                                                 |
| \\      /  F ield         | OpenFOAM: The Open Source CFD Toolbox           |
|  \\    /   O peration     | Version:  v2006                                 |
|   \\  /    A nd           | Website:  www.openfoam.com                      |
|    \\/     M anipulation  |                                                 |
\*---------------------------------------------------------------------------*/
FoamFile
{
    version     2.0;
    format      ascii;
    class       volScalarField;
    location    "43";
    object      alphat;
}
// * * * * * * * * * * * * * * * * * * * * * * * * * * * * * * * * * * * * * //

dimensions      [1 -1 -1 0 0 0 0];


internalField   nonuniform List<scalar> 
78750
(
1.33884e-08
7.05859e-07
8.0048e-07
8.15886e-07
7.99833e-07
7.66024e-07
7.23108e-07
6.77534e-07
6.33563e-07
5.93656e-07
5.58942e-07
5.29689e-07
5.05649e-07
4.86301e-07
4.71006e-07
4.59095e-07
4.499e-07
4.42761e-07
4.37103e-07
4.32502e-07
4.2865e-07
4.25179e-07
4.21767e-07
4.18092e-07
4.13788e-07
4.08358e-07
4.01043e-07
3.90582e-07
3.74873e-07
3.50561e-07
3.13015e-07
2.59278e-07
1.93974e-07
1.35366e-07
4.4654e-09
1.54592e-09
1.34506e-06
3.06415e-06
4.38326e-06
5.02018e-06
5.38728e-06
5.57809e-06
5.66199e-06
5.68486e-06
5.67551e-06
5.65107e-06
5.62082e-06
5.5891e-06
5.55737e-06
5.52562e-06
5.49307e-06
5.45849e-06
5.42043e-06
5.37739e-06
5.32796e-06
5.27053e-06
5.20278e-06
5.12208e-06
5.02534e-06
4.90879e-06
4.76764e-06
4.59532e-06
4.38228e-06
4.11495e-06
3.75079e-06
2.16473e-06
1.29315e-06
1.05904e-06
1.29371e-06
1.99425e-08
1.76188e-09
1.38874e-06
2.3634e-06
3.11428e-06
3.64189e-06
3.98909e-06
4.21485e-06
4.37005e-06
4.48891e-06
4.59084e-06
4.68704e-06
4.78129e-06
4.87272e-06
4.95788e-06
5.03226e-06
5.09173e-06
5.13365e-06
5.1573e-06
5.16367e-06
5.15497e-06
5.13465e-06
5.10479e-06
5.06666e-06
5.02111e-06
4.96672e-06
4.90066e-06
4.81762e-06
4.70879e-06
4.01224e-06
2.74308e-06
1.88956e-06
1.5085e-06
1.88532e-06
1.55009e-06
3.25915e-08
7.98208e-10
7.63291e-07
1.35375e-06
1.85216e-06
2.25557e-06
2.58411e-06
2.87362e-06
3.16332e-06
3.48433e-06
3.85235e-06
4.26764e-06
4.71543e-06
5.1721e-06
5.61139e-06
6.00903e-06
6.34556e-06
6.60743e-06
6.78714e-06
6.88259e-06
6.89633e-06
6.8347e-06
6.70716e-06
6.52591e-06
6.30568e-06
6.06158e-06
5.80929e-06
5.42079e-06
4.19002e-06
3.06595e-06
2.21271e-06
1.68365e-06
1.54619e-06
2.39215e-06
1.60348e-06
4.26777e-08
6.28573e-10
6.30939e-07
1.19211e-06
1.77714e-06
2.39902e-06
3.07039e-06
3.79724e-06
4.57407e-06
5.38366e-06
6.201e-06
6.99716e-06
7.74288e-06
8.41191e-06
8.98305e-06
9.44108e-06
9.77684e-06
9.98676e-06
1.00721e-05
1.00381e-05
9.89296e-06
9.64717e-06
9.31307e-06
8.90496e-06
8.4402e-06
7.94099e-06
6.70355e-06
5.22073e-06
3.90151e-06
2.84828e-06
2.11237e-06
1.70672e-06
1.72698e-06
3.07205e-06
1.59757e-06
5.50216e-08
1.16802e-09
1.10336e-06
2.36298e-06
3.57711e-06
4.72221e-06
5.922e-06
7.30278e-06
8.93857e-06
1.02719e-05
1.13545e-05
1.22849e-05
1.30474e-05
1.36336e-05
1.40422e-05
1.42768e-05
1.4346e-05
1.42611e-05
1.4036e-05
1.36861e-05
1.32276e-05
1.26767e-05
1.20499e-05
1.13644e-05
1.06407e-05
9.13152e-06
7.26137e-06
5.50776e-06
4.0107e-06
2.86791e-06
2.11432e-06
1.74081e-06
1.8605e-06
3.67388e-06
1.65351e-06
6.68976e-08
2.13409e-09
1.34743e-06
2.89327e-06
4.64545e-06
6.62542e-06
8.98121e-06
1.17698e-05
1.32637e-05
1.45408e-05
1.55897e-05
1.6407e-05
1.69962e-05
1.73661e-05
1.75294e-05
1.75019e-05
1.73012e-05
1.69461e-05
1.64563e-05
1.58516e-05
1.51516e-05
1.43757e-05
1.35428e-05
1.26746e-05
1.09729e-05
8.93949e-06
6.99124e-06
5.25179e-06
3.82037e-06
2.76561e-06
2.09992e-06
1.81588e-06
2.09177e-06
4.5624e-06
1.68621e-06
7.74086e-08
3.56989e-09
1.49095e-06
3.2887e-06
5.53279e-06
8.2857e-06
1.16823e-05
1.54666e-05
1.70531e-05
1.83544e-05
1.93748e-05
2.01234e-05
2.06134e-05
2.08602e-05
2.08811e-05
2.06947e-05
2.03207e-05
1.97794e-05
1.90921e-05
1.82801e-05
1.73661e-05
1.63249e-05
1.45216e-05
1.26256e-05
1.06641e-05
8.66946e-06
6.74157e-06
5.02083e-06
3.63188e-06
2.64117e-06
2.04717e-06
1.84182e-06
2.2553e-06
5.25032e-06
1.72682e-06
8.62373e-08
5.05787e-09
1.6726e-06
3.72315e-06
6.36519e-06
9.68005e-06
1.37801e-05
1.84628e-05
2.06798e-05
2.20173e-05
2.30357e-05
2.37528e-05
2.41874e-05
2.43586e-05
2.42859e-05
2.39888e-05
2.3487e-05
2.28e-05
2.19287e-05
1.99093e-05
1.7963e-05
1.61247e-05
1.43236e-05
1.24819e-05
1.05548e-05
8.56886e-06
6.63723e-06
4.91996e-06
3.55228e-06
2.59885e-06
2.05198e-06
1.90962e-06
2.46019e-06
5.87607e-06
1.75569e-06
9.4606e-08
6.69803e-09
1.80185e-06
3.99848e-06
6.84461e-06
1.04426e-05
1.49004e-05
2.0029e-05
2.39202e-05
2.52547e-05
2.6252e-05
2.69359e-05
2.73289e-05
2.74526e-05
2.73273e-05
2.69725e-05
2.64078e-05
2.40222e-05
2.16712e-05
1.95498e-05
1.763e-05
1.5842e-05
1.40967e-05
1.23062e-05
1.04178e-05
8.45345e-06
6.53368e-06
4.83272e-06
3.49214e-06
2.57389e-06
2.06706e-06
1.97919e-06
2.65546e-06
6.3367e-06
1.78157e-06
1.02493e-07
8.33611e-09
1.87697e-06
4.13764e-06
7.0798e-06
1.08583e-05
1.56196e-05
2.11908e-05
2.65909e-05
2.79141e-05
2.88914e-05
2.95513e-05
2.99191e-05
3.00181e-05
2.98694e-05
2.92529e-05
2.65985e-05
2.39481e-05
2.15334e-05
1.93711e-05
1.74239e-05
1.56231e-05
1.38819e-05
1.21125e-05
1.02549e-05
8.32242e-06
6.43375e-06
4.76487e-06
3.45781e-06
2.57378e-06
2.10299e-06
2.06626e-06
2.86863e-06
6.67419e-06
1.8029e-06
1.10102e-07
1.01548e-08
1.90603e-06
4.18849e-06
7.20481e-06
1.11821e-05
1.63086e-05
2.231e-05
2.80911e-05
3.014e-05
3.10866e-05
3.17142e-05
3.20501e-05
3.21184e-05
3.19404e-05
2.94283e-05
2.65997e-05
2.39077e-05
2.14492e-05
1.92371e-05
1.7236e-05
1.53833e-05
1.36037e-05
1.18211e-05
9.9807e-06
8.093e-06
6.26778e-06
4.66554e-06
3.41545e-06
2.57625e-06
2.14424e-06
2.15878e-06
3.08778e-06
6.89887e-06
1.8219e-06
1.17305e-07
1.2043e-08
1.90995e-06
4.20295e-06
7.3069e-06
1.15295e-05
1.70939e-05
2.35744e-05
2.96154e-05
3.20979e-05
3.30234e-05
3.36275e-05
3.39385e-05
3.39809e-05
3.23563e-05
2.95599e-05
2.67058e-05
2.40094e-05
2.15396e-05
1.92938e-05
1.72302e-05
1.52927e-05
1.34236e-05
1.15674e-05
9.68964e-06
7.81367e-06
6.04762e-06
4.52799e-06
3.35525e-06
2.5754e-06
2.18955e-06
2.25921e-06
3.3199e-06
7.0315e-06
1.83921e-06
1.2403e-07
1.41714e-08
1.91537e-06
4.2374e-06
7.47198e-06
1.20031e-05
1.80445e-05
2.49198e-05
3.10133e-05
3.39573e-05
3.4855e-05
3.54306e-05
3.5713e-05
3.48508e-05
3.23123e-05
2.95014e-05
2.67142e-05
2.40875e-05
2.1665e-05
1.94282e-05
1.73313e-05
1.53257e-05
1.33663e-05
1.14176e-05
9.46981e-06
7.56915e-06
5.83361e-06
4.38206e-06
3.28447e-06
2.56789e-06
2.23311e-06
2.36227e-06
3.55979e-06
7.09287e-06
1.85567e-06
1.30324e-07
1.64563e-08
1.92922e-06
4.29492e-06
7.67778e-06
1.25261e-05
1.90046e-05
2.61445e-05
3.21424e-05
3.5661e-05
3.6535e-05
3.70877e-05
3.67614e-05
3.47049e-05
3.21399e-05
2.94073e-05
2.67184e-05
2.41816e-05
2.18203e-05
1.96053e-05
1.74892e-05
1.54272e-05
1.33837e-05
1.13404e-05
9.31185e-06
7.36996e-06
5.64708e-06
4.24891e-06
3.21746e-06
2.56053e-06
2.27679e-06
2.46758e-06
3.80622e-06
7.10583e-06
1.87204e-06
1.36228e-07
1.8909e-08
1.9486e-06
4.36482e-06
7.90208e-06
1.30666e-05
1.99466e-05
2.72616e-05
3.30745e-05
3.66178e-05
3.81036e-05
3.79525e-05
3.66044e-05
3.44816e-05
3.19533e-05
2.93059e-05
2.67231e-05
2.42867e-05
2.19991e-05
1.98198e-05
1.76991e-05
1.55929e-05
1.34721e-05
1.13336e-05
9.21636e-06
7.21918e-06
5.49215e-06
4.13217e-06
3.1566e-06
2.55459e-06
2.3211e-06
2.57533e-06
4.05918e-06
7.08657e-06
1.88823e-06
1.41815e-07
2.14491e-08
1.97271e-06
4.44332e-06
8.13528e-06
1.36077e-05
2.08544e-05
2.82895e-05
3.39016e-05
3.71301e-05
3.83249e-05
3.79589e-05
3.64836e-05
3.43167e-05
3.18151e-05
2.92446e-05
2.67614e-05
2.44205e-05
2.22062e-05
2.00686e-05
1.79528e-05
1.58129e-05
1.36241e-05
1.1396e-05
9.18957e-06
7.1295e-06
5.38402e-06
4.04504e-06
3.11042e-06
2.55369e-06
2.36604e-06
2.68298e-06
4.31334e-06
7.05331e-06
1.90493e-06
1.47164e-07
2.40929e-08
2.00079e-06
4.52749e-06
8.37141e-06
1.41383e-05
2.17055e-05
2.91882e-05
3.45661e-05
3.74899e-05
3.84152e-05
3.78532e-05
3.62693e-05
3.40792e-05
3.16244e-05
2.91446e-05
2.67686e-05
2.45276e-05
2.23909e-05
2.03013e-05
1.81989e-05
1.60353e-05
1.37887e-05
1.14803e-05
9.19174e-06
7.07201e-06
5.30595e-06
3.98084e-06
3.07859e-06
2.56031e-06
2.41476e-06
2.79389e-06
4.57306e-06
7.01063e-06
1.92164e-06
1.5229e-07
2.67589e-08
2.02778e-06
4.60519e-06
8.58669e-06
1.46204e-05
2.24643e-05
2.99641e-05
3.51234e-05
3.77792e-05
3.84713e-05
3.77423e-05
3.60711e-05
3.3871e-05
3.14674e-05
2.9076e-05
2.68003e-05
2.46528e-05
2.25918e-05
2.0552e-05
1.84674e-05
1.62861e-05
1.39876e-05
1.16034e-05
9.23509e-06
7.05443e-06
5.26193e-06
3.94128e-06
3.06148e-06
2.5738e-06
2.4656e-06
2.90506e-06
4.83258e-06
6.9696e-06
1.93887e-06
1.57263e-07
2.95087e-08
2.05506e-06
4.68197e-06
8.79795e-06
1.50913e-05
2.3189e-05
3.06787e-05
3.56201e-05
3.80253e-05
3.85045e-05
3.7626e-05
3.58791e-05
3.36734e-05
3.13187e-05
2.9009e-05
2.68248e-05
2.47626e-05
2.27724e-05
2.07817e-05
1.87185e-05
1.65264e-05
1.41852e-05
1.17351e-05
9.29557e-06
7.05975e-06
5.24224e-06
3.92265e-06
3.05945e-06
2.59666e-06
2.52179e-06
3.02004e-06
5.0965e-06
6.93003e-06
1.95626e-06
1.62091e-07
3.22796e-08
2.08098e-06
4.75345e-06
8.99397e-06
1.55271e-05
2.38488e-05
3.1315e-05
3.60572e-05
3.82413e-05
3.8535e-05
3.75293e-05
3.57218e-05
3.35178e-05
3.12123e-05
2.89791e-05
2.68789e-05
2.48949e-05
2.29693e-05
2.10231e-05
1.89785e-05
1.67748e-05
1.43923e-05
1.18798e-05
9.3735e-06
7.08564e-06
5.24305e-06
3.92101e-06
3.06929e-06
2.62652e-06
2.58149e-06
3.13688e-06
5.36147e-06
6.89612e-06
1.974e-06
1.66817e-07
3.5113e-08
2.10589e-06
4.82138e-06
9.18113e-06
1.59429e-05
2.44627e-05
3.18812e-05
3.64234e-05
3.83989e-05
3.8524e-05
3.74075e-05
3.55524e-05
3.33577e-05
3.11032e-05
2.89431e-05
2.6922e-05
2.50132e-05
2.31516e-05
2.12524e-05
1.92305e-05
1.70199e-05
1.46007e-05
1.20302e-05
9.46164e-06
7.12577e-06
5.2602e-06
3.93462e-06
3.09125e-06
2.66484e-06
2.64673e-06
3.25807e-06
5.63092e-06
6.86713e-06
1.99204e-06
1.7143e-07
3.79826e-08
2.12951e-06
4.88539e-06
9.3583e-06
1.63358e-05
2.50325e-05
3.23943e-05
3.67505e-05
3.85384e-05
3.85152e-05
3.73046e-05
3.54128e-05
3.32317e-05
3.10267e-05
2.89339e-05
2.69839e-05
2.51429e-05
2.33398e-05
2.14841e-05
1.94844e-05
1.72686e-05
1.48154e-05
1.21901e-05
9.5619e-06
7.17955e-06
5.29083e-06
3.95976e-06
3.12198e-06
2.7092e-06
2.71592e-06
3.38236e-06
5.90314e-06
6.84383e-06
2.01029e-06
1.75965e-07
4.09178e-08
2.1524e-06
4.94733e-06
9.53082e-06
1.67174e-05
2.55732e-05
3.28647e-05
3.70395e-05
3.86524e-05
3.84946e-05
3.72015e-05
3.52806e-05
3.31158e-05
3.09589e-05
2.89294e-05
2.70461e-05
2.52689e-05
2.35222e-05
2.17092e-05
1.97321e-05
1.7513e-05
1.50292e-05
1.23532e-05
9.66982e-06
7.24453e-06
5.33427e-06
3.99681e-06
3.16235e-06
2.76068e-06
2.79029e-06
3.51129e-06
6.18029e-06
6.82589e-06
2.0287e-06
1.80397e-07
4.38938e-08
2.17421e-06
5.00652e-06
9.69717e-06
1.7085e-05
2.60843e-05
3.32992e-05
3.73022e-05
3.8755e-05
3.84775e-05
3.71142e-05
3.5172e-05
3.30264e-05
3.09159e-05
2.89451e-05
2.71233e-05
2.54058e-05
2.37125e-05
2.19406e-05
1.99854e-05
1.77632e-05
1.52496e-05
1.25238e-05
9.78621e-06
7.3188e-06
5.38716e-06
4.04232e-06
3.20963e-06
2.81752e-06
2.86894e-06
3.64467e-06
6.46245e-06
6.81297e-06
2.04723e-06
1.84745e-07
4.69449e-08
2.19576e-06
5.06545e-06
9.86393e-06
1.74512e-05
2.65794e-05
3.37041e-05
3.75368e-05
3.88381e-05
3.84514e-05
3.70275e-05
3.50707e-05
3.29471e-05
3.0881e-05
2.89651e-05
2.72012e-05
2.55407e-05
2.38993e-05
2.21686e-05
2.02372e-05
1.80147e-05
1.54748e-05
1.27028e-05
9.91376e-06
7.40558e-06
5.45232e-06
4.09828e-06
3.26504e-06
2.8804e-06
2.95218e-06
3.78249e-06
6.74933e-06
6.80506e-06
2.0659e-06
1.88988e-07
5.00491e-08
2.2168e-06
5.12364e-06
1.00302e-05
1.78153e-05
2.7062e-05
3.4091e-05
3.776e-05
3.892e-05
3.84344e-05
3.69581e-05
3.49915e-05
3.28908e-05
3.08667e-05
2.90012e-05
2.72911e-05
2.56842e-05
2.40921e-05
2.2401e-05
2.04925e-05
1.82697e-05
1.57042e-05
1.28876e-05
1.00487e-05
7.50106e-06
5.52652e-06
4.16232e-06
3.32706e-06
2.94858e-06
3.04015e-06
3.92595e-06
7.04228e-06
6.80056e-06
2.08452e-06
1.93138e-07
5.32289e-08
2.23775e-06
5.18248e-06
1.02001e-05
1.81853e-05
2.7539e-05
3.44608e-05
3.79666e-05
3.89918e-05
3.8415e-05
3.68931e-05
3.49209e-05
3.28443e-05
3.0861e-05
2.90435e-05
2.73847e-05
2.58295e-05
2.42861e-05
2.26351e-05
2.07513e-05
1.85309e-05
1.59426e-05
1.30839e-05
1.01972e-05
7.61059e-06
5.6138e-06
4.23709e-06
3.39711e-06
3.02248e-06
3.13228e-06
4.07326e-06
7.33974e-06
6.80382e-06
2.10343e-06
1.97186e-07
5.6472e-08
2.25861e-06
5.24217e-06
1.03744e-05
1.85633e-05
2.80154e-05
3.48225e-05
3.81682e-05
3.90651e-05
3.84039e-05
3.68413e-05
3.4866e-05
3.28136e-05
3.08694e-05
2.90973e-05
2.74867e-05
2.59803e-05
2.44828e-05
2.287e-05
2.10099e-05
1.8792e-05
1.61822e-05
1.32836e-05
1.03517e-05
7.72865e-06
5.71074e-06
4.32089e-06
3.47471e-06
3.10247e-06
3.2299e-06
4.22817e-06
7.65085e-06
6.81567e-06
2.12301e-06
2.01151e-07
5.97845e-08
2.27934e-06
5.30274e-06
1.05538e-05
1.89509e-05
2.84916e-05
3.51753e-05
3.83622e-05
3.91354e-05
3.83945e-05
3.67946e-05
3.48179e-05
3.27901e-05
3.08845e-05
2.91567e-05
2.75934e-05
2.61345e-05
2.46823e-05
2.31075e-05
2.1272e-05
1.90582e-05
1.64289e-05
1.34927e-05
1.05178e-05
7.8594e-06
5.82024e-06
4.41562e-06
3.56092e-06
3.18887e-06
3.33271e-06
4.38943e-06
7.97065e-06
6.83483e-06
2.14322e-06
2.05024e-07
6.31574e-08
2.29988e-06
5.36429e-06
1.07392e-05
1.93507e-05
2.89734e-05
3.55284e-05
3.85589e-05
3.92111e-05
3.83916e-05
3.6755e-05
3.47772e-05
3.2774e-05
3.09065e-05
2.92223e-05
2.77047e-05
2.62917e-05
2.48826e-05
2.33439e-05
2.15315e-05
1.93214e-05
1.66737e-05
1.37018e-05
1.06867e-05
7.99641e-06
5.93837e-06
4.51961e-06
3.65584e-06
3.28307e-06
3.44316e-06
4.56066e-06
8.30338e-06
6.86069e-06
2.16418e-06
2.08807e-07
6.65925e-08
2.32019e-06
5.42654e-06
1.09294e-05
1.97597e-05
2.94577e-05
3.58829e-05
3.87591e-05
3.929e-05
3.83886e-05
3.67142e-05
3.47365e-05
3.27595e-05
3.09315e-05
2.92917e-05
2.78202e-05
2.64527e-05
2.50859e-05
2.35826e-05
2.1793e-05
1.9587e-05
1.6922e-05
1.39162e-05
1.08629e-05
8.1424e-06
6.06629e-06
4.63318e-06
3.75941e-06
3.38467e-06
3.56025e-06
4.73991e-06
8.64506e-06
6.89116e-06
2.18554e-06
2.12479e-07
7.00738e-08
2.34016e-06
5.48921e-06
1.11233e-05
2.01733e-05
2.99315e-05
3.62051e-05
3.89261e-05
3.93465e-05
3.83734e-05
3.66668e-05
3.46932e-05
3.27455e-05
3.09586e-05
2.93639e-05
2.79381e-05
2.66149e-05
2.52889e-05
2.38188e-05
2.20502e-05
1.98475e-05
1.71657e-05
1.41278e-05
1.10389e-05
8.29174e-06
6.20004e-06
4.75422e-06
3.87146e-06
3.49533e-06
3.68748e-06
4.93274e-06
9.00272e-06
6.92602e-06
2.20736e-06
2.16028e-07
7.36024e-08
2.35995e-06
5.55255e-06
1.13206e-05
2.05859e-05
3.03793e-05
3.64932e-05
3.90617e-05
3.93771e-05
3.83463e-05
3.6613e-05
3.46468e-05
3.27304e-05
3.09862e-05
2.9438e-05
2.80587e-05
2.67799e-05
2.5494e-05
2.40564e-05
2.2308e-05
2.01086e-05
1.7411e-05
1.43429e-05
1.12204e-05
8.44789e-06
6.34055e-06
4.88197e-06
3.99049e-06
3.61342e-06
3.82299e-06
5.13707e-06
9.37287e-06
6.96336e-06
2.22936e-06
2.19432e-07
7.71476e-08
2.37931e-06
5.61596e-06
1.15218e-05
2.1004e-05
3.0805e-05
3.67499e-05
3.91652e-05
3.93783e-05
3.82945e-05
3.65435e-05
3.45922e-05
3.27116e-05
3.10121e-05
2.95113e-05
2.81786e-05
2.69436e-05
2.56962e-05
2.4289e-05
2.25591e-05
2.03623e-05
1.76504e-05
1.45554e-05
1.14031e-05
8.6086e-06
6.48632e-06
5.01526e-06
4.11599e-06
3.73965e-06
3.96984e-06
5.36029e-06
9.76076e-06
7.0025e-06
2.25146e-06
2.22677e-07
8.0692e-08
2.39793e-06
5.67755e-06
1.17178e-05
2.14036e-05
3.11939e-05
3.69666e-05
3.92327e-05
3.93484e-05
3.82176e-05
3.64611e-05
3.45271e-05
3.26827e-05
3.10299e-05
2.95787e-05
2.82945e-05
2.71052e-05
2.58971e-05
2.45192e-05
2.28067e-05
2.06129e-05
1.78893e-05
1.4772e-05
1.15948e-05
8.78091e-06
6.64164e-06
5.15532e-06
4.24694e-06
3.87217e-06
4.12614e-06
5.59949e-06
1.01633e-05
7.04476e-06
2.27381e-06
2.25777e-07
8.42136e-08
2.41605e-06
5.73838e-06
1.19127e-05
2.17962e-05
3.15611e-05
3.71548e-05
3.92709e-05
3.92908e-05
3.81162e-05
3.63582e-05
3.44463e-05
3.26423e-05
3.10387e-05
2.96379e-05
2.84008e-05
2.72524e-05
2.608e-05
2.47318e-05
2.3038e-05
2.08484e-05
1.81166e-05
1.49844e-05
1.17915e-05
8.96551e-06
6.80982e-06
5.30562e-06
4.38552e-06
4.01175e-06
4.29186e-06
5.85409e-06
1.05782e-05
7.09056e-06
2.29658e-06
2.2877e-07
8.77247e-08
2.4337e-06
5.79889e-06
1.21085e-05
2.21794e-05
3.18966e-05
3.73058e-05
3.92741e-05
3.92018e-05
3.79874e-05
3.6232e-05
3.43467e-05
3.25868e-05
3.1035e-05
2.9687e-05
2.84999e-05
2.73962e-05
2.62604e-05
2.49374e-05
2.32569e-05
2.10713e-05
1.83357e-05
1.5196e-05
1.19968e-05
9.16655e-06
6.9955e-06
5.47016e-06
4.53387e-06
4.15825e-06
4.4647e-06
6.11916e-06
1.09972e-05
7.14278e-06
2.32016e-06
2.31742e-07
9.11942e-08
2.45041e-06
5.85826e-06
1.23039e-05
2.25451e-05
3.21988e-05
3.74225e-05
3.9245e-05
3.90827e-05
3.7831e-05
3.6081e-05
3.42259e-05
3.25126e-05
3.10141e-05
2.97193e-05
2.85815e-05
2.75213e-05
2.64218e-05
2.51253e-05
2.34586e-05
2.12743e-05
1.85352e-05
1.53962e-05
1.22028e-05
9.38063e-06
7.20019e-06
5.65344e-06
4.69686e-06
4.31498e-06
4.64575e-06
6.39345e-06
1.14169e-05
7.20239e-06
2.34469e-06
2.34771e-07
9.46452e-08
2.46627e-06
5.91586e-06
1.24962e-05
2.28953e-05
3.24678e-05
3.7503e-05
3.91821e-05
3.89333e-05
3.76478e-05
3.59065e-05
3.4085e-05
3.24205e-05
3.09766e-05
2.97363e-05
2.86495e-05
2.76341e-05
2.65708e-05
2.52995e-05
2.3645e-05
2.14607e-05
1.87162e-05
1.5578e-05
1.24003e-05
9.59966e-06
7.41968e-06
5.85557e-06
4.87707e-06
4.48464e-06
4.83622e-06
6.67591e-06
1.18358e-05
7.26958e-06
2.37017e-06
2.37902e-07
9.80523e-08
2.48059e-06
5.9697e-06
1.26792e-05
2.32215e-05
3.26991e-05
3.75469e-05
3.90864e-05
3.87542e-05
3.74369e-05
3.57059e-05
3.39217e-05
3.23064e-05
3.09169e-05
2.97316e-05
2.86962e-05
2.77258e-05
2.66989e-05
2.54522e-05
2.38084e-05
2.16215e-05
1.88694e-05
1.57324e-05
1.25743e-05
9.80941e-06
7.64457e-06
6.07336e-06
5.07651e-06
4.67207e-06
5.04191e-06
6.97298e-06
1.22608e-05
7.34221e-06
2.39626e-06
2.41116e-07
1.01464e-07
2.49454e-06
6.02288e-06
1.28592e-05
2.35312e-05
3.28988e-05
3.75589e-05
3.89619e-05
3.85492e-05
3.7202e-05
3.54823e-05
3.37369e-05
3.21714e-05
3.08371e-05
2.97081e-05
2.87254e-05
2.78009e-05
2.68103e-05
2.55875e-05
2.39523e-05
2.17588e-05
1.89932e-05
1.58524e-05
1.27153e-05
9.99363e-06
7.85961e-06
6.29692e-06
5.29175e-06
4.87894e-06
5.26778e-06
7.29294e-06
1.2701e-05
7.41708e-06
2.42253e-06
2.44331e-07
1.04839e-07
2.50708e-06
6.07247e-06
1.30295e-05
2.38152e-05
3.30613e-05
3.75367e-05
3.88078e-05
3.8318e-05
3.69429e-05
3.5235e-05
3.35283e-05
3.20129e-05
3.07344e-05
2.96621e-05
2.87325e-05
2.7854e-05
2.68997e-05
2.57006e-05
2.40734e-05
2.18709e-05
1.90863e-05
1.59345e-05
1.2814e-05
1.01401e-05
8.04918e-06
6.51319e-06
5.5165e-06
5.10627e-06
5.5215e-06
7.64976e-06
1.31688e-05
7.48917e-06
2.44827e-06
2.47396e-07
1.08192e-07
2.51921e-06
6.12103e-06
1.31949e-05
2.40801e-05
3.3194e-05
3.7487e-05
3.86299e-05
3.80652e-05
3.6663e-05
3.49666e-05
3.32978e-05
3.18322e-05
3.06094e-05
2.95942e-05
2.87181e-05
2.7886e-05
2.69683e-05
2.57936e-05
2.41754e-05
2.19642e-05
1.91574e-05
1.59864e-05
1.28729e-05
1.02421e-05
8.20028e-06
6.70707e-06
5.73829e-06
5.34837e-06
5.80453e-06
8.0549e-06
1.36728e-05
7.55449e-06
2.47303e-06
2.50142e-07
1.11469e-07
2.53034e-06
6.16661e-06
1.33506e-05
2.43198e-05
3.32932e-05
3.74074e-05
3.8426e-05
3.77888e-05
3.63603e-05
3.46751e-05
3.30432e-05
3.16268e-05
3.0459e-05
2.95002e-05
2.86773e-05
2.78913e-05
2.70104e-05
2.58619e-05
2.4257e-05
2.20431e-05
1.9218e-05
1.60248e-05
1.29078e-05
1.03073e-05
8.30984e-06
6.86795e-06
5.94586e-06
5.59769e-06
6.11945e-06
8.51609e-06
1.42086e-05
7.60876e-06
2.49608e-06
2.52423e-07
1.14652e-07
2.5409e-06
6.21029e-06
1.34992e-05
2.454e-05
3.33666e-05
3.73046e-05
3.82008e-05
3.74918e-05
3.60367e-05
3.43614e-05
3.27646e-05
3.13954e-05
3.02813e-05
2.93778e-05
2.86069e-05
2.78663e-05
2.70225e-05
2.59029e-05
2.43186e-05
2.21145e-05
1.92844e-05
1.6075e-05
1.29478e-05
1.03586e-05
8.38886e-06
6.9946e-06
6.1308e-06
5.84612e-06
6.46009e-06
9.03066e-06
1.47601e-05
7.65405e-06
2.51838e-06
2.54254e-07
1.17681e-07
2.55049e-06
6.25064e-06
1.36375e-05
2.4737e-05
3.34122e-05
3.71769e-05
3.79523e-05
3.71721e-05
3.56905e-05
3.40246e-05
3.24605e-05
3.11366e-05
3.00745e-05
2.92244e-05
2.85034e-05
2.78063e-05
2.69993e-05
2.59117e-05
2.43578e-05
2.21821e-05
1.93716e-05
1.61658e-05
1.30314e-05
1.04326e-05
8.46329e-06
7.09757e-06
6.28951e-06
6.08153e-06
6.81047e-06
9.57756e-06
1.52965e-05
7.69626e-06
2.54068e-06
2.55834e-07
1.20555e-07
2.55939e-06
6.28864e-06
1.37688e-05
2.49179e-05
3.34377e-05
3.70299e-05
3.76848e-05
3.68336e-05
3.53256e-05
3.36686e-05
3.21352e-05
3.08545e-05
2.98421e-05
2.90424e-05
2.8368e-05
2.77116e-05
2.69401e-05
2.5887e-05
2.43732e-05
2.22466e-05
1.94864e-05
1.63155e-05
1.31898e-05
1.05663e-05
8.56681e-06
7.19896e-06
6.42851e-06
6.29619e-06
7.15216e-06
1.01268e-05
1.57921e-05
7.74397e-06
2.564e-06
2.57463e-07
1.2326e-07
2.56753e-06
6.32405e-06
1.38925e-05
2.50819e-05
3.34429e-05
3.6864e-05
3.73991e-05
3.64776e-05
3.49439e-05
3.3296e-05
3.17925e-05
3.05532e-05
2.9587e-05
2.8833e-05
2.82005e-05
2.7581e-05
2.68429e-05
2.58255e-05
2.43593e-05
2.23001e-05
1.9622e-05
1.65241e-05
1.34351e-05
1.07851e-05
8.73019e-06
7.32443e-06
6.56037e-06
6.48633e-06
7.46467e-06
1.06418e-05
1.62322e-05
7.80254e-06
2.58894e-06
2.594e-07
1.25837e-07
2.57521e-06
6.35809e-06
1.40116e-05
2.52343e-05
3.34331e-05
3.66837e-05
3.70999e-05
3.61096e-05
3.4552e-05
3.29138e-05
3.14395e-05
3.02397e-05
2.93164e-05
2.86033e-05
2.80072e-05
2.74191e-05
2.67101e-05
2.5726e-05
2.43095e-05
2.23287e-05
1.97574e-05
1.67703e-05
1.3756e-05
1.1096e-05
8.97544e-06
7.5011e-06
6.70639e-06
6.65968e-06
7.73845e-06
1.10964e-05
1.66177e-05
7.87229e-06
2.61525e-06
2.61755e-07
1.28321e-07
2.58268e-06
6.39223e-06
1.41283e-05
2.53775e-05
3.34097e-05
3.64901e-05
3.6789e-05
3.57322e-05
3.41527e-05
3.25255e-05
3.10803e-05
2.99187e-05
2.90348e-05
2.83574e-05
2.77911e-05
2.72278e-05
2.65417e-05
2.55859e-05
2.42157e-05
2.23151e-05
1.98639e-05
1.7018e-05
1.41195e-05
1.14821e-05
9.30539e-06
7.74613e-06
6.88808e-06
6.83228e-06
7.97792e-06
1.14853e-05
1.69609e-05
7.95001e-06
2.64214e-06
2.64452e-07
1.30763e-07
2.58987e-06
6.42644e-06
1.42441e-05
2.55143e-05
3.3376e-05
3.62873e-05
3.64709e-05
3.53502e-05
3.37514e-05
3.21367e-05
3.07209e-05
2.95961e-05
2.87481e-05
2.81003e-05
2.75563e-05
2.70091e-05
2.63372e-05
2.54012e-05
2.40691e-05
2.22419e-05
1.99121e-05
1.72254e-05
1.44795e-05
1.19077e-05
9.70437e-06
8.06451e-06
7.12448e-06
7.0282e-06
8.20556e-06
1.18291e-05
1.72813e-05
8.02912e-06
2.66813e-06
2.67257e-07
1.33176e-07
2.59653e-06
6.46019e-06
1.43605e-05
2.56466e-05
3.33334e-05
3.60768e-05
3.61473e-05
3.49654e-05
3.33495e-05
3.17491e-05
3.03634e-05
2.92751e-05
2.84599e-05
2.78358e-05
2.73057e-05
2.67651e-05
2.60976e-05
2.51712e-05
2.38658e-05
2.20995e-05
1.98817e-05
1.7358e-05
1.47883e-05
1.23245e-05
1.0138e-05
8.44312e-06
7.42272e-06
7.26945e-06
8.45368e-06
1.21689e-05
1.76004e-05
8.104e-06
2.69216e-06
2.69861e-07
1.35588e-07
2.60348e-06
6.49551e-06
1.44799e-05
2.57769e-05
3.32853e-05
3.5862e-05
3.58213e-05
3.45802e-05
3.29494e-05
3.13649e-05
3.00104e-05
2.89581e-05
2.81726e-05
2.75663e-05
2.70413e-05
2.64973e-05
2.58238e-05
2.48967e-05
2.36069e-05
2.18879e-05
1.97677e-05
1.73999e-05
1.5013e-05
1.26891e-05
1.05665e-05
8.85801e-06
7.77941e-06
7.57212e-06
8.75588e-06
1.25536e-05
1.79377e-05
8.17119e-06
2.71373e-06
2.71996e-07
1.37952e-07
2.61021e-06
6.53084e-06
1.45989e-05
2.59016e-05
3.32303e-05
3.56429e-05
3.5493e-05
3.41944e-05
3.25505e-05
3.0984e-05
2.96623e-05
2.86466e-05
2.78887e-05
2.72945e-05
2.67665e-05
2.62092e-05
2.55202e-05
2.45839e-05
2.33009e-05
2.16178e-05
1.95802e-05
1.73534e-05
1.51374e-05
1.29676e-05
1.09487e-05
9.27527e-06
8.1776e-06
7.93976e-06
9.13701e-06
1.30257e-05
1.83036e-05
8.22819e-06
2.73275e-06
2.73426e-07
1.40247e-07
2.6171e-06
6.56702e-06
1.47194e-05
2.60244e-05
3.31725e-05
3.54223e-05
3.51637e-05
3.38082e-05
3.21527e-05
3.06059e-05
2.93189e-05
2.83408e-05
2.76085e-05
2.70214e-05
2.64828e-05
2.59038e-05
2.51915e-05
2.42407e-05
2.29607e-05
2.13082e-05
1.9342e-05
1.72388e-05
1.51697e-05
1.31491e-05
1.12579e-05
9.66402e-06
8.59514e-06
8.36701e-06
9.61301e-06
1.36184e-05
1.86968e-05
8.27561e-06
2.74981e-06
2.7406e-07
1.42378e-07
2.62351e-06
6.6015e-06
1.48346e-05
2.61379e-05
3.31083e-05
3.51978e-05
3.48307e-05
3.34188e-05
3.1753e-05
3.02284e-05
2.8979e-05
2.80395e-05
2.73315e-05
2.67471e-05
2.61913e-05
2.55834e-05
2.48424e-05
2.38755e-05
2.26009e-05
2.09809e-05
1.90817e-05
1.70861e-05
1.51355e-05
1.32446e-05
1.14856e-05
1.0002e-05
9.00754e-06
8.83795e-06
1.01805e-05
1.4336e-05
1.91021e-05
8.31923e-06
2.76657e-06
2.74089e-07
1.44322e-07
2.62958e-06
6.63476e-06
1.4947e-05
2.62473e-05
3.3042e-05
3.49717e-05
3.44951e-05
3.30266e-05
3.13518e-05
2.98519e-05
2.86443e-05
2.77445e-05
2.70591e-05
2.64739e-05
2.58957e-05
2.5253e-05
2.44801e-05
2.34989e-05
2.22378e-05
2.06615e-05
1.88348e-05
1.6938e-05
1.50802e-05
1.32907e-05
1.16498e-05
1.02872e-05
9.4005e-06
9.3357e-06
1.08191e-05
1.51478e-05
1.95014e-05
8.36931e-06
2.78521e-06
2.73914e-07
1.46031e-07
2.63491e-06
6.66498e-06
1.50517e-05
2.63469e-05
3.29704e-05
3.47424e-05
3.41564e-05
3.26317e-05
3.09494e-05
2.94764e-05
2.83145e-05
2.74559e-05
2.67929e-05
2.62049e-05
2.56004e-05
2.49185e-05
2.41109e-05
2.31186e-05
2.18819e-05
2.03659e-05
1.86265e-05
1.68291e-05
1.50467e-05
1.33304e-05
1.1782e-05
1.05321e-05
9.76744e-06
9.83813e-06
1.14967e-05
1.60049e-05
1.98839e-05
8.43517e-06
2.80756e-06
2.73975e-07
1.47522e-07
2.63952e-06
6.69249e-06
1.51504e-05
2.64406e-05
3.28966e-05
3.45116e-05
3.38158e-05
3.22359e-05
3.0548e-05
2.91043e-05
2.79903e-05
2.71755e-05
2.65367e-05
2.59458e-05
2.53124e-05
2.45872e-05
2.37422e-05
2.2741e-05
2.15394e-05
2.01031e-05
1.84721e-05
1.67833e-05
1.50688e-05
1.3402e-05
1.19157e-05
1.07553e-05
1.01071e-05
1.0325e-05
1.21759e-05
1.68554e-05
2.02506e-05
8.52097e-06
2.83438e-06
2.74596e-07
1.4881e-07
2.64323e-06
6.71665e-06
1.52418e-05
2.65264e-05
3.28188e-05
3.42786e-05
3.34739e-05
3.18406e-05
3.01499e-05
2.87384e-05
2.76758e-05
2.69076e-05
2.62947e-05
2.57011e-05
2.50364e-05
2.4263e-05
2.33755e-05
2.2364e-05
2.12045e-05
1.98655e-05
1.83678e-05
1.68033e-05
1.51607e-05
1.35306e-05
1.20793e-05
1.09789e-05
1.0427e-05
1.07854e-05
1.28265e-05
1.76585e-05
2.06063e-05
8.62436e-06
2.86496e-06
2.75867e-07
1.49951e-07
2.64619e-06
6.73815e-06
1.53277e-05
2.66061e-05
3.27372e-05
3.40429e-05
3.31306e-05
3.14463e-05
2.97559e-05
2.83796e-05
2.73714e-05
2.6653e-05
2.60691e-05
2.5474e-05
2.47764e-05
2.39499e-05
2.30128e-05
2.19854e-05
2.08686e-05
1.96387e-05
1.82973e-05
1.68748e-05
1.53176e-05
1.37232e-05
1.2289e-05
1.12204e-05
1.07378e-05
1.12171e-05
1.34332e-05
1.83986e-05
2.09589e-05
8.74057e-06
2.89831e-06
2.77746e-07
1.50985e-07
2.64834e-06
6.75713e-06
1.54089e-05
2.66796e-05
3.26504e-05
3.38032e-05
3.27852e-05
3.10532e-05
2.93664e-05
2.80284e-05
2.70777e-05
2.64124e-05
2.58604e-05
2.52655e-05
2.45335e-05
2.3648e-05
2.26519e-05
2.15985e-05
2.0518e-05
1.94003e-05
1.82315e-05
1.69701e-05
1.55204e-05
1.3974e-05
1.25517e-05
1.14946e-05
1.10541e-05
1.16287e-05
1.3996e-05
1.90755e-05
2.13064e-05
8.86107e-06
2.93251e-06
2.80026e-07
1.51976e-07
2.65e-06
6.77477e-06
1.5488e-05
2.67488e-05
3.25579e-05
3.35585e-05
3.24373e-05
3.06615e-05
2.89822e-05
2.76858e-05
2.67957e-05
2.61868e-05
2.56703e-05
2.50781e-05
2.43106e-05
2.33601e-05
2.22941e-05
2.12008e-05
2.01438e-05
1.9132e-05
1.81409e-05
1.70563e-05
1.57387e-05
1.42621e-05
1.28599e-05
1.18064e-05
1.13895e-05
1.20372e-05
1.45343e-05
1.97137e-05
2.16553e-05
8.98203e-06
2.96679e-06
2.82565e-07
1.52946e-07
2.65114e-06
6.79117e-06
1.55651e-05
2.68124e-05
3.24576e-05
3.33068e-05
3.20854e-05
3.027e-05
2.86024e-05
2.73508e-05
2.65243e-05
2.59752e-05
2.54982e-05
2.49117e-05
2.41089e-05
2.3088e-05
2.19404e-05
2.07913e-05
1.97407e-05
1.88215e-05
1.80045e-05
1.71068e-05
1.59452e-05
1.45656e-05
1.32021e-05
1.21563e-05
1.17543e-05
1.24592e-05
1.50675e-05
2.03311e-05
2.19976e-05
9.09648e-06
2.99963e-06
2.85138e-07
1.53931e-07
2.65205e-06
6.80733e-06
1.56428e-05
2.68727e-05
3.23498e-05
3.30475e-05
3.17287e-05
2.98783e-05
2.82267e-05
2.70234e-05
2.62635e-05
2.57778e-05
2.53449e-05
2.47689e-05
2.39328e-05
2.28374e-05
2.15971e-05
2.03748e-05
1.93101e-05
1.84636e-05
1.78068e-05
1.70967e-05
1.61091e-05
1.48546e-05
1.35565e-05
1.25354e-05
1.21538e-05
1.29139e-05
1.56273e-05
2.09641e-05
2.23413e-05
9.20655e-06
3.03177e-06
2.87708e-07
1.54916e-07
2.65245e-06
6.82229e-06
1.5718e-05
2.69248e-05
3.2231e-05
3.2778e-05
3.13656e-05
2.94853e-05
2.78543e-05
2.67028e-05
2.60124e-05
2.55936e-05
2.52098e-05
2.46506e-05
2.37855e-05
2.26145e-05
2.12724e-05
1.99607e-05
1.88609e-05
1.80647e-05
1.75478e-05
1.70181e-05
1.62151e-05
1.51105e-05
1.39065e-05
1.2933e-05
1.25854e-05
1.3407e-05
1.62241e-05
2.1617e-05
2.26714e-05
9.30647e-06
3.0618e-06
2.90107e-07
1.55915e-07
2.65261e-06
6.83702e-06
1.57931e-05
2.69715e-05
3.21016e-05
3.2498e-05
3.09954e-05
2.90905e-05
2.74852e-05
2.63894e-05
2.57714e-05
2.5423e-05
2.50942e-05
2.45596e-05
2.36728e-05
2.24281e-05
2.09775e-05
1.95608e-05
1.84039e-05
1.76326e-05
1.72281e-05
1.68624e-05
1.62457e-05
1.53103e-05
1.42298e-05
1.33345e-05
1.30474e-05
1.39493e-05
1.68827e-05
2.23191e-05
2.30003e-05
9.40378e-06
3.09179e-06
2.92438e-07
1.56915e-07
2.65233e-06
6.85064e-06
1.58653e-05
2.70084e-05
3.19593e-05
3.22059e-05
3.06169e-05
2.86928e-05
2.71184e-05
2.60828e-05
2.55396e-05
2.52649e-05
2.49973e-05
2.44973e-05
2.35997e-05
2.2288e-05
2.07264e-05
1.91925e-05
1.79584e-05
1.71867e-05
1.68634e-05
1.66398e-05
1.62038e-05
1.54494e-05
1.45166e-05
1.37287e-05
1.35298e-05
1.4529e-05
1.75884e-05
2.30462e-05
2.33053e-05
9.49192e-06
3.12001e-06
2.94598e-07
1.57906e-07
2.65172e-06
6.86333e-06
1.59346e-05
2.70353e-05
3.18033e-05
3.19009e-05
3.02296e-05
2.82913e-05
2.67529e-05
2.57841e-05
2.5317e-05
2.51179e-05
2.49179e-05
2.44637e-05
2.35691e-05
2.22007e-05
2.05293e-05
1.88675e-05
1.7536e-05
1.67373e-05
1.64608e-05
1.63524e-05
1.60853e-05
1.55184e-05
1.47558e-05
1.41067e-05
1.4029e-05
1.51544e-05
1.8358e-05
2.38171e-05
2.36054e-05
9.58122e-06
3.14926e-06
2.96786e-07