/*--------------------------------*- C++ -*----------------------------------*\
| =========                 |                                                 |
| \\      /  F ield         | OpenFOAM: The Open Source CFD Toolbox           |
|  \\    /   O peration     | Version:  v2006                                 |
|   \\  /    A nd           | Website:  www.openfoam.com                      |
|    \\/     M anipulation  |                                                 |
\*---------------------------------------------------------------------------*/
FoamFile
{
    version     2.0;
    format      ascii;
    class       surfaceScalarField;
    location    "43";
    object      phi;
}
// * * * * * * * * * * * * * * * * * * * * * * * * * * * * * * * * * * * * * //

dimensions      [1 0 -1 0 0 0 0];
oriented        oriented;


internalField   nonuniform List<scalar> 
228225
(
-3.7266e-06
-3.28969e-08
8.18764e-08
-3.36855e-06
-4.14891e-07
5.6419e-08
-2.80485e-06
-5.95413e-07
3.15097e-08
-2.16005e-06
-6.49128e-07
4.10848e-09
-1.5268e-06
-6.19623e-07
-1.38145e-08
-9.47056e-07
-5.47839e-07
-3.20587e-08
-4.30578e-07
-4.64922e-07
-5.17049e-08
2.81202e-08
-3.87072e-07
-7.17745e-08
4.3909e-07
-3.19917e-07
-9.11986e-08
8.12537e-07
-2.64263e-07
-1.09327e-07
1.15654e-06
-2.18304e-07
-1.25846e-07
1.47708e-06
-1.79915e-07
-1.40767e-07
1.77836e-06
-1.47164e-07
-1.54268e-07
2.06326e-06
-1.18488e-07
-1.6658e-07
2.33372e-06
-9.27099e-08
-1.77907e-07
2.59099e-06
-6.90364e-08
-1.88401e-07
2.83579e-06
-4.6818e-08
-1.98149e-07
3.06767e-06
-2.48602e-08
-2.07182e-07
3.28554e-06
-2.55994e-09
-2.15485e-07
3.49067e-06
1.77012e-08
-2.23003e-07
3.68336e-06
3.67984e-08
-2.29669e-07
3.86336e-06
5.52071e-08
-2.35378e-07
4.03043e-06
7.27675e-08
-2.40007e-07
4.18411e-06
8.95414e-08
-2.43395e-07
4.3233e-06
1.05978e-07
-2.45332e-07
4.44539e-06
1.23271e-07
-2.45514e-07
4.54465e-06
1.44065e-07
-2.43479e-07
4.6092e-06
1.73829e-07
-2.38504e-07
4.61523e-06
2.23327e-07
-2.29467e-07
4.51704e-06
3.12578e-07
-2.14468e-07
4.22911e-06
4.78727e-07
-1.90845e-07
3.61159e-06
7.73874e-07
-1.56407e-07
2.53732e-06
1.1864e-06
-1.12335e-07
1.1009e-06
1.49963e-06
-6.3873e-08
1.11426e-06
-1.48662e-08
-2.50488e-07
1.5525e-07
6.19928e-08
-7.12894e-07
1.42836e-08
3.32266e-08
-1.22079e-06
-5.82088e-08
-2.98208e-08
-1.68952e-06
-7.6034e-08
-1.04595e-07
-2.06084e-06
-6.10588e-08
-1.87538e-07
-2.30932e-06
-3.4783e-08
-2.64907e-07
-2.43403e-06
-1.18418e-08
-3.28667e-07
-2.44919e-06
4.48817e-09
-3.76678e-07
-2.37676e-06
1.82337e-08
-4.10865e-07
-2.23005e-06
2.31739e-08
-4.34441e-07
-2.02062e-06
2.25952e-08
-4.50626e-07
-1.7589e-06
2.01443e-08
-4.62075e-07
-1.45456e-06
1.89442e-08
-4.70756e-07
-1.11691e-06
2.15577e-08
-4.77989e-07
-7.54727e-07
2.94186e-08
-4.84621e-07
-3.75953e-07
4.30059e-08
-4.91131e-07
1.22857e-08
6.23696e-08
-4.97746e-07
4.04334e-07
8.72985e-08
-5.04529e-07
7.95536e-07
1.17355e-07
-5.11441e-07
1.17934e-06
1.51956e-07
-5.18382e-07
1.55065e-06
1.90371e-07
-5.25208e-07
1.90535e-06
2.31918e-07
-5.31735e-07
2.23944e-06
2.76097e-07
-5.37739e-07
2.54878e-06
3.22819e-07
-5.42936e-07
2.82816e-06
3.73216e-07
-5.46931e-07
3.07013e-06
4.30151e-07
-5.49157e-07
3.26308e-06
4.99623e-07
-5.48794e-07
3.38822e-06
5.92942e-07
-5.44518e-07
3.41466e-06
7.30432e-07
-5.33782e-07
3.29194e-06
9.46387e-07
-5.11301e-07
2.94941e-06
1.28845e-06
-4.67382e-07
2.32758e-06
1.78578e-06
-3.90307e-07
1.45229e-06
2.34007e-06
-2.7883e-07
5.3002e-07
2.57307e-06
-1.52097e-07
1.67835e-06
-3.58117e-08
-4.6557e-08
1.29118e-07
7.25573e-08
-3.4878e-07
1.99668e-07
1.16483e-07
-7.9814e-07
2.65255e-07
1.25613e-07
-1.28639e-06
2.98165e-07
1.13814e-07
-1.72994e-06
2.90454e-07
9.17564e-08
-2.08124e-06
2.48078e-07
6.81569e-08
-2.32425e-06
1.82103e-07
4.88085e-08
-2.45918e-06
1.03102e-07
3.60866e-08
-2.49204e-06
2.11118e-08
2.97567e-08
-2.42313e-06
-7.4307e-08
2.83411e-08
-2.26772e-06
-1.62879e-07
2.98277e-08
-2.04031e-06
-2.39951e-07
3.24469e-08
-1.75358e-06
-3.02773e-07
3.4744e-08
-1.41903e-06
-3.4873e-07
3.5493e-08
-1.04767e-06
-3.76091e-07
3.39112e-08
-6.50522e-07
-3.84078e-07
2.96733e-08
-2.38326e-07
-3.7276e-07
2.26628e-08
1.78853e-07
-3.42877e-07
1.27188e-08
5.92021e-07
-2.95642e-07
-4.57635e-10
9.87181e-07
-2.32538e-07
-1.09589e-08
1.35641e-06
-1.54943e-07
-2.42197e-08
1.69106e-06
-6.34256e-08
-3.96135e-08
1.98431e-06
3.93105e-08
-5.67859e-08
2.23623e-06
1.46088e-07
-7.55185e-08
2.43778e-06
2.67133e-07
-9.58073e-08
2.58132e-06
4.04104e-07
-1.17824e-07
2.6588e-06
5.63862e-07
-1.42048e-07
2.6586e-06
7.61936e-07
-1.69116e-07
2.56213e-06
1.02561e-06
-1.99013e-07
2.34299e-06
1.39463e-06
-2.29381e-07
1.97305e-06
1.90929e-06
-2.51178e-07
1.44932e-06
2.55515e-06
-2.46004e-07
8.37861e-07
3.14832e-06
-1.97404e-07
2.80026e-07
3.24191e-06
-1.12116e-07
1.97794e-06
-2.1475e-08
1.89318e-08
1.95613e-08
9.01532e-08
5.05953e-08
-1.70659e-08
1.85238e-07
1.01239e-07
-2.8352e-08
2.4272e-07
1.69575e-07
-4.70147e-08
2.76523e-07
2.53083e-07
-8.94225e-08
2.96176e-07
3.51904e-07
-1.59312e-07
3.08435e-07
4.69757e-07
-2.53251e-07
3.17351e-07
6.11944e-07
-3.63978e-07
3.24725e-07
7.84654e-07
-4.82657e-07
3.30899e-07
9.75299e-07
-6.00665e-07
3.35576e-07
1.18381e-06
-7.09786e-07
3.38274e-07
1.40835e-06
-8.03271e-07
3.38661e-07
1.645e-06
-8.76122e-07
3.36576e-07
1.88916e-06
-9.25026e-07
3.32008e-07
2.13598e-06
-9.48182e-07
3.25129e-07
2.38063e-06
-9.45097e-07
3.16225e-07
2.61837e-06
-9.16287e-07
3.05639e-07
2.84458e-06
-8.62971e-07
2.93728e-07
3.05473e-06
-7.86785e-07
2.80825e-07
3.24432e-06
-6.89516e-07
2.67211e-07
3.40896e-06
-5.72859e-07
2.53093e-07
3.54495e-06
-4.38189e-07
2.38572e-07
3.64681e-06
-2.86379e-07
2.23612e-07
3.70238e-06
-1.1773e-07
2.08026e-07
3.70816e-06
6.98181e-08
1.9131e-07
3.6529e-06
2.8649e-07
1.72622e-07
3.5276e-06
5.38661e-07
1.50254e-07
3.32038e-06
8.47801e-07
1.21098e-07
3.01927e-06
1.2451e-06
8.13518e-08
2.61629e-06
1.76869e-06
2.86622e-08
2.10794e-06
2.44433e-06
-2.69958e-08
1.50781e-06
3.22161e-06
-6.67319e-08
8.74135e-07
3.85294e-06
-7.16283e-08
3.03072e-07
3.85015e-06
-3.83711e-08
2.27589e-06
3.14894e-09
9.18175e-09
-7.79808e-08
8.81629e-08
5.76913e-08
-2.61348e-07
1.95645e-07
1.68224e-07
-4.06842e-07
2.67735e-07
3.50818e-07
-5.45147e-07
3.15354e-07
6.04388e-07
-6.89099e-07
3.45991e-07
9.20468e-07
-8.40626e-07
3.65151e-07
1.2854e-06
-9.94824e-07
3.76565e-07
1.68205e-06
-1.1433e-06
3.82596e-07
2.09253e-06
-1.27789e-06
3.84699e-07
2.5003e-06
-1.39216e-06
3.83699e-07
2.89179e-06
-1.48142e-06
3.80123e-07
3.25673e-06
-1.54258e-06
3.74352e-07
3.58796e-06
-1.57405e-06
3.66694e-07
3.88103e-06
-1.57554e-06
3.57417e-07
4.13378e-06
-1.54773e-06
3.46774e-07
4.34565e-06
-1.49203e-06
3.35026e-07
4.51718e-06
-1.41032e-06
3.22466e-07
4.64946e-06
-1.30474e-06
3.09441e-07
4.74375e-06
-1.1775e-06
2.96361e-07
4.8011e-06
-1.03064e-06
2.83684e-07
4.82209e-06
-8.65833e-07
2.71883e-07
4.80656e-06
-6.84174e-07
2.61388e-07
4.75339e-06
-4.85868e-07
2.5252e-07
4.65999e-06
-2.69909e-07
2.45415e-07
4.52201e-06
-3.23691e-08
2.39984e-07
4.33382e-06
2.38936e-07
2.35541e-07
4.08259e-06
5.59567e-07
2.30107e-07
3.75576e-06
9.54349e-07
2.20036e-07
3.34136e-06
1.45907e-06
2.00155e-07
2.82981e-06
2.11466e-06
1.65278e-07
2.22275e-06
2.936e-06
1.1504e-07
1.54712e-06
3.83555e-06
6.11967e-08
8.71941e-07
4.49983e-06
2.75145e-08
2.92099e-07
4.40436e-06
2.43655e-08
2.53952e-06
2.64172e-08
1.13019e-08
-1.68399e-07
7.8903e-08
8.04906e-08
-5.09879e-07
1.79107e-07
2.31253e-07
-8.03912e-07
2.46338e-07
4.68395e-07
-1.0726e-06
2.90297e-07
7.84368e-07
-1.32301e-06
3.17875e-07
1.1621e-06
-1.55252e-06
3.34127e-07
1.578e-06
-1.75327e-06
3.42573e-07
2.00885e-06
-1.91974e-06
3.45662e-07
2.43608e-06
-2.05002e-06
3.45008e-07
2.84542e-06
-2.14305e-06
3.4165e-07
3.22665e-06
-2.19878e-06
3.36243e-07
3.57302e-06
-2.21807e-06
3.29228e-07
3.88064e-06
-2.20247e-06
3.20919e-07
4.14773e-06
-2.15405e-06
3.11543e-07
4.37408e-06
-2.07522e-06
3.01279e-07
4.56047e-06
-1.96858e-06
2.9028e-07
4.70832e-06
-1.83678e-06
2.78714e-07
4.81929e-06
-1.68242e-06
2.66799e-07
4.89495e-06
-1.50795e-06
2.54851e-07
4.93652e-06
-1.31547e-06
2.43309e-07
4.94463e-06
-1.10664e-06
2.32728e-07
4.91907e-06
-8.82338e-07
2.23733e-07
4.85884e-06
-6.42604e-07
2.16949e-07
4.76065e-06
-3.8473e-07
2.12967e-07
4.61744e-06
-1.01355e-07
2.12121e-07
4.41956e-06
2.2249e-07
2.14213e-07
4.15591e-06
6.04882e-07
2.18198e-07
3.81424e-06
1.07409e-06
2.21737e-07
3.38036e-06
1.67224e-06
2.20494e-07
2.8433e-06
2.44327e-06
2.08157e-07
2.20697e-06
3.39243e-06
1.79536e-07
1.50792e-06
4.3965e-06
1.37586e-07
8.29326e-07
5.07937e-06
9.82247e-08
2.66961e-07
4.89418e-06
7.123e-08
2.76506e-06
3.93483e-08
4.6491e-08
-2.7821e-07
6.31016e-08
1.73326e-07
-7.8043e-07
1.43603e-07
3.73747e-07
-1.20179e-06
1.97413e-07
6.38225e-07
-1.56965e-06
2.32533e-07
9.50989e-07
-1.89033e-06
2.54538e-07
1.2919e-06
-2.16086e-06
2.67451e-07
1.64013e-06
-2.37552e-06
2.74094e-07
1.9815e-06
-2.53755e-06
2.76548e-07
2.30795e-06
-2.65238e-06
2.76039e-07
2.61419e-06
-2.72244e-06
2.73291e-07
2.89696e-06
-2.75022e-06
2.68805e-07
3.1545e-06
-2.73839e-06
2.62925e-07
3.38606e-06
-2.68979e-06
2.55911e-07
3.59152e-06
-2.60732e-06
2.47971e-07
3.77109e-06
-2.49394e-06
2.39291e-07
3.9252e-06
-2.3526e-06
2.30051e-07
4.0543e-06
-2.1862e-06
2.20443e-07
4.15882e-06
-1.99752e-06
2.10694e-07
4.23894e-06
-1.78908e-06
2.01095e-07
4.29465e-06
-1.56312e-06
1.92011e-07
4.32583e-06
-1.32166e-06
1.83901e-07
4.33109e-06
-1.06487e-06
1.77294e-07
4.3068e-06
-7.91093e-07
1.72789e-07
4.24695e-06
-4.95856e-07
1.70962e-07
4.14271e-06
-1.69408e-07
1.72241e-07
3.98668e-06
2.0166e-07
1.76781e-07
3.7681e-06
6.39067e-07
1.84281e-07
3.46993e-06
1.17853e-06
1.93576e-07
3.07412e-06
1.86602e-06
2.01824e-07
2.56865e-06
2.74476e-06
2.03721e-07
1.96245e-06
3.80566e-06
1.92606e-07
1.30412e-06
4.88891e-06
1.65376e-07
6.88795e-07
5.56445e-06
1.29415e-07
2.06791e-07
5.28279e-06
9.20719e-08
2.92671e-06
4.30604e-08
3.58568e-08
-3.68835e-07
5.47272e-08
1.45924e-07
-1.01567e-06
1.24983e-07
3.20894e-07
-1.54927e-06
1.72388e-07
5.46348e-07
-1.99904e-06
2.03978e-07
8.06273e-07
-2.37453e-06
2.24394e-07
1.08538e-06
-2.67674e-06
2.36914e-07
1.37165e-06
-2.90554e-06
2.43893e-07
1.65799e-06
-3.07092e-06
2.47167e-07
1.94032e-06
-3.1823e-06
2.47758e-07
2.21578e-06
-3.2439e-06
2.46191e-07
2.4819e-06
-3.25896e-06
2.42845e-07
2.73635e-06
-3.23062e-06
2.37991e-07
2.97693e-06
-3.16199e-06
2.31843e-07
3.20149e-06
-3.05626e-06
2.24594e-07
3.40794e-06
-2.91662e-06
2.1644e-07
3.59423e-06
-2.74628e-06
2.07596e-07
3.75825e-06
-2.54833e-06
1.98307e-07
3.89821e-06
-2.32617e-06
1.88859e-07
4.01184e-06
-2.08213e-06
1.79598e-07
4.09617e-06
-1.81819e-06
1.70895e-07
4.14869e-06
-1.53725e-06
1.63193e-07
4.167e-06
-1.24013e-06
1.57045e-07
4.14799e-06
-9.24987e-07
1.52965e-07
4.08822e-06
-5.87425e-07
1.51366e-07
3.98443e-06
-2.18259e-07
1.52638e-07
3.83024e-06
1.98744e-07
1.57066e-07
3.6145e-06
6.90033e-07
1.64687e-07
3.32319e-06
1.29474e-06
1.74962e-07
2.9393e-06
2.0636e-06
1.86119e-07
2.45116e-06
3.03845e-06
1.94181e-07
1.86802e-06
4.19561e-06
1.92811e-07
1.23962e-06
5.34074e-06
1.76008e-07
6.56548e-07
6.00197e-06
1.44683e-07
1.99472e-07
5.63541e-06
1.03121e-07
3.07901e-06
4.509e-08
3.65255e-08
-4.54621e-07
4.91288e-08
1.37084e-07
-1.23011e-06
1.13736e-07
2.9105e-07
-1.86183e-06
1.58543e-07
4.88248e-07
-2.38582e-06
1.89612e-07
7.1785e-07
-2.81482e-06
2.10777e-07
9.69717e-07
-3.15323e-06
2.24729e-07
1.23583e-06
-3.40491e-06
2.33382e-07
1.50882e-06
-3.58199e-06
2.38207e-07
1.78352e-06
-3.69702e-06
2.4017e-07
2.05663e-06
-3.75658e-06
2.39728e-07
2.32506e-06
-3.76445e-06
2.37247e-07
2.58582e-06
-3.7242e-06
2.33028e-07
2.83608e-06
-3.63938e-06
2.27332e-07
3.0732e-06
-3.51356e-06
2.20393e-07
3.29468e-06
-3.35033e-06
2.12434e-07
3.49809e-06
-3.15317e-06
2.0368e-07
3.67965e-06
-2.92406e-06
1.9438e-07
3.83395e-06
-2.66501e-06
1.8475e-07
3.95628e-06
-2.37939e-06
1.75126e-07
4.04286e-06
-2.07049e-06
1.65906e-07
4.09056e-06
-1.74231e-06
1.5752e-07
4.09755e-06
-1.39744e-06
1.5045e-07
4.06324e-06
-1.03569e-06
1.45118e-07
3.98665e-06
-6.52718e-07
1.41947e-07
3.86527e-06
-2.38298e-07
1.41453e-07
3.69399e-06
2.25864e-07
1.44145e-07
3.46433e-06
7.69298e-07
1.50344e-07
3.16329e-06
1.43578e-06
1.59896e-07
2.77643e-06
2.27867e-06
1.71613e-07
2.29545e-06
3.33684e-06
1.8232e-07
1.73276e-06
4.57174e-06
1.86175e-07
1.13851e-06
5.7584e-06
1.76022e-07
5.95597e-07
6.39517e-06
1.48841e-07
1.7762e-07
5.9458e-06
1.0627e-07
3.20991e-06
4.46549e-08
3.01443e-08
-5.31599e-07
4.66281e-08
1.21615e-07
-1.43138e-06
1.09784e-07
2.67848e-07
-2.16278e-06
1.54677e-07
4.60384e-07
-2.76504e-06
1.86637e-07
6.88951e-07
-3.25234e-06
2.08944e-07
9.42617e-07
-3.63078e-06
2.23931e-07
1.21206e-06
-3.90754e-06
2.33277e-07
1.48776e-06
-4.09587e-06
2.3829e-07
1.7639e-06
-4.21316e-06
2.40129e-07
2.03744e-06
-4.26941e-06
2.39419e-07
2.30571e-06
-4.26924e-06
2.36657e-07
2.56625e-06
-4.21688e-06
2.32284e-07
2.81686e-06
-4.11648e-06
2.26655e-07
3.05554e-06
-3.97211e-06
2.20052e-07
3.28016e-06
-3.78745e-06
2.12702e-07
3.48666e-06
-3.56425e-06
2.04796e-07
3.66881e-06
-3.30251e-06
1.96511e-07
3.82036e-06
-3.00437e-06
1.88034e-07
3.93651e-06
-2.67483e-06
1.79491e-07
4.0146e-06
-2.31948e-06
1.71098e-07
4.05283e-06
-1.94351e-06
1.63165e-07
4.0501e-06
-1.55048e-06
1.55933e-07
4.00577e-06
-1.14086e-06
1.49645e-07
3.91892e-06
-7.10504e-07
1.4474e-07
3.78751e-06
-2.48627e-07
1.41815e-07
3.60698e-06
2.64864e-07
1.41547e-07
3.36924e-06
8.62429e-07
1.44566e-07
3.06294e-06
1.59078e-06
1.51202e-07
2.67562e-06
2.50487e-06
1.60941e-07
2.20148e-06
3.6393e-06
1.71418e-07
1.65489e-06
4.94056e-06
1.77375e-07
1.08539e-06
6.15613e-06
1.71188e-07
5.67317e-07
6.76504e-06
1.47333e-07
1.69411e-07
6.23706e-06
1.05333e-07
3.33412e-06
4.31606e-08
3.90743e-08
-6.1482e-07
4.39816e-08
1.46486e-07
-1.64385e-06
1.04965e-07
3.12052e-07
-2.47692e-06
1.48483e-07
5.24976e-07
-3.15723e-06
1.79195e-07
7.71739e-07
-3.69929e-06
2.00162e-07
1.03823e-06
-4.11102e-06
2.13755e-07
1.31324e-06
-4.40426e-06
2.21754e-07
1.58868e-06
-4.59677e-06
2.25522e-07
1.8601e-06
-4.71075e-06
2.26237e-07
2.12502e-06
-4.75891e-06
2.24674e-07
2.38158e-06
-4.7471e-06
2.21394e-07
2.62826e-06
-4.68032e-06
2.16882e-07
2.86373e-06
-4.56332e-06
2.11504e-07
3.08684e-06
-4.40059e-06
2.05528e-07
3.29473e-06
-4.19435e-06
1.99187e-07
3.48173e-06
-3.94374e-06
1.92674e-07
3.64289e-06
-3.64962e-06
1.86153e-07
3.77516e-06
-3.31617e-06
1.79731e-07
3.87577e-06
-2.94872e-06
1.73499e-07
3.94202e-06
-2.55306e-06
1.67545e-07
3.97139e-06
-2.13456e-06
1.61881e-07
3.96168e-06
-1.69704e-06
1.56475e-07
3.91101e-06
-1.24143e-06
1.51414e-07
3.81756e-06
-7.63901e-07
1.4699e-07
3.67882e-06
-2.53482e-07
1.43691e-07
3.49067e-06
3.10914e-07
1.42156e-07
3.24633e-06
9.63679e-07
1.43091e-07
2.93614e-06
1.75382e-06
1.47079e-07
2.55009e-06
2.73664e-06
1.54125e-07
2.0851e-06
3.94136e-06
1.62683e-07
1.55759e-06
5.29932e-06
1.68382e-07
1.01604e-06
6.53323e-06
1.63892e-07
5.26782e-07
7.1111e-06
1.42348e-07
1.5516e-07
6.5058e-06
1.01601e-07
3.44654e-06
4.07205e-08
4.37403e-08
-6.99778e-07
4.1022e-08
1.64361e-07
-1.86312e-06
9.84778e-08
3.48232e-07
-2.79986e-06
1.39e-07
5.79562e-07
-3.55556e-06
1.66972e-07
8.40325e-07
-4.14563e-06
1.85556e-07
1.1135e-06
-4.58147e-06
1.97256e-07
1.38714e-06
-4.88181e-06
2.0391e-07
1.65531e-06
-5.07176e-06
2.06837e-07
1.91483e-06
-5.17725e-06
2.07025e-07
2.16393e-06
-5.2132e-06
2.05255e-07
2.40166e-06
-5.1868e-06
2.02059e-07
2.62732e-06
-5.10374e-06
1.9787e-07
2.84041e-06
-4.9693e-06
1.93012e-07
3.03952e-06
-4.78729e-06
1.87734e-07
3.221e-06
-4.55796e-06
1.8227e-07
3.38145e-06
-4.28086e-06
1.76828e-07
3.5193e-06
-3.9589e-06
1.71606e-07
3.63291e-06
-3.59636e-06
1.66761e-07
3.72032e-06
-3.19833e-06
1.62396e-07
3.77912e-06
-2.77016e-06
1.58504e-07
3.8064e-06
-2.31659e-06
1.54946e-07
3.79897e-06
-1.84096e-06
1.51538e-07
3.75342e-06
-1.34392e-06
1.48212e-07
3.66616e-06
-8.21564e-07
1.45069e-07
3.53314e-06
-2.62757e-07
1.4241e-07
3.34933e-06
3.54049e-07
1.40749e-07
3.10813e-06
1.06413e-06
1.40762e-07
2.80142e-06
1.91736e-06
1.43126e-07
2.42177e-06
2.96804e-06
1.4812e-07
1.96919e-06
4.23899e-06
1.54731e-07
1.46227e-06
5.64652e-06
1.59367e-07
9.48719e-07
6.89088e-06
1.55357e-07
4.8784e-07
7.43578e-06
1.35388e-07
1.41776e-07
6.75443e-06
9.61923e-08
3.54862e-06
3.77275e-08
5.2585e-08
-7.89827e-07
3.72705e-08
1.90495e-07
-2.09088e-06
8.97115e-08
3.93401e-07
-3.1292e-06
1.26351e-07
6.4034e-07
-3.95388e-06
1.51338e-07
9.09614e-07
-4.58269e-06
1.67772e-07
1.18307e-06
-5.03297e-06
1.78047e-07
1.44992e-06
-5.33251e-06
1.83871e-07
1.70623e-06
-5.51445e-06
1.86431e-07
1.95036e-06
-5.60792e-06
1.86599e-07
2.18156e-06
-5.6294e-06
1.85084e-07
2.39952e-06
-5.58702e-06
1.82359e-07
2.60417e-06
-5.48706e-06
1.78791e-07
2.79504e-06
-5.33471e-06
1.74662e-07
2.96982e-06
-5.13213e-06
1.70201e-07
3.12577e-06
-4.87934e-06
1.65579e-07
3.262e-06
-4.57798e-06
1.61053e-07
3.37791e-06
-4.23148e-06
1.56848e-07
3.4728e-06
-3.84422e-06
1.53163e-07
3.54563e-06
-3.42111e-06
1.50132e-07
3.59471e-06
-2.96678e-06
1.47747e-07
3.61751e-06
-2.48505e-06
1.4586e-07
3.61061e-06
-1.97816e-06
1.44287e-07
3.5698e-06
-1.44578e-06
1.42847e-07
3.49006e-06
-8.83096e-07
1.41426e-07
3.36567e-06
-2.78296e-07
1.4006e-07
3.19016e-06
3.90654e-07
1.39001e-07
2.95634e-06
1.15925e-06
1.38749e-07
2.65682e-06
2.07689e-06
1.39978e-07
2.28648e-06
3.19512e-06
1.43172e-07
1.84845e-06
4.52907e-06
1.47774e-07
1.36375e-06
5.98003e-06
1.50888e-07
8.79284e-07
7.22825e-06
1.46605e-07
4.47876e-07
7.73877e-06
1.27649e-07
1.28267e-07
6.98276e-06
9.00862e-08
3.64036e-06
3.46121e-08
5.70146e-08
-8.80613e-07
3.36379e-08
2.04658e-07
-2.31967e-06
8.10083e-08
4.17495e-07
-3.45608e-06
1.13928e-07
6.70145e-07
-4.34282e-06
1.36239e-07
9.38733e-07
-5.0021e-06
1.5082e-07
1.20558e-06
-5.45967e-06
1.59891e-07
1.46196e-06
-5.75389e-06
1.65044e-07
1.70573e-06
-5.92554e-06
1.67371e-07
1.9361e-06
-6.00585e-06
1.67631e-07
2.15276e-06
-6.01247e-06
1.66484e-07
2.35569e-06
-5.9542e-06
1.64345e-07
2.5448e-06
-5.83758e-06
1.61514e-07
2.71874e-06
-5.66674e-06
1.58213e-07
2.87517e-06
-5.44302e-06
1.5458e-07
3.01292e-06
-5.16775e-06
1.50813e-07
3.13176e-06
-4.84379e-06
1.47121e-07
3.23168e-06
-4.47495e-06
1.43709e-07
3.31261e-06
-4.06577e-06
1.40784e-07
3.37414e-06
-3.62093e-06
1.38467e-07
3.41515e-06
-3.14441e-06
1.36794e-07
3.43359e-06
-2.63905e-06
1.35748e-07
3.42629e-06
-2.10592e-06
1.35246e-07
3.3888e-06
-1.54326e-06
1.35141e-07
3.31544e-06
-9.44819e-07
1.35245e-07
3.19938e-06
-2.97491e-07
1.35399e-07
3.03295e-06
4.21631e-07
1.35554e-07
2.80825e-06
1.24814e-06
1.3588e-07
2.5182e-06
2.23015e-06
1.36811e-07
2.15927e-06
3.41518e-06
1.38824e-07
1.7371e-06
4.80942e-06
1.41681e-07
1.27464e-06
6.29909e-06
1.4315e-07
8.178e-07
7.54646e-06
1.38181e-07
4.13687e-07
8.02229e-06
1.19877e-07
1.17439e-07
7.19389e-06
8.39821e-08
3.72423e-06
3.17125e-08
6.08696e-08
-9.71962e-07
3.03303e-08
2.14567e-07
-2.5464e-06
7.29047e-08
4.31371e-07
-3.77524e-06
1.02277e-07
6.83568e-07
-4.71701e-06
1.21963e-07
9.46982e-07
-5.40014e-06
1.34636e-07
1.20541e-06
-5.86047e-06
1.42408e-07
1.45195e-06
-6.14721e-06
1.46819e-07
1.68532e-06
-6.30774e-06
1.48887e-07
1.90507e-06
-6.3748e-06
1.49263e-07
2.11091e-06
-6.36673e-06
1.48493e-07
2.30272e-06
-6.29291e-06
1.46987e-07
2.4796e-06
-6.15932e-06
1.44958e-07
2.63973e-06
-5.96931e-06
1.4255e-07
2.78173e-06
-5.7248e-06
1.39906e-07
2.90531e-06
-5.4284e-06
1.37199e-07
3.01056e-06
-5.08348e-06
1.34594e-07
3.09778e-06
-4.69427e-06
1.32248e-07
3.16736e-06
-4.26548e-06
1.30289e-07
3.21927e-06
-3.80149e-06
1.28814e-07
3.25289e-06
-3.30571e-06
1.27854e-07
3.26665e-06
-2.78008e-06
1.27444e-07
3.25771e-06
-2.22439e-06
1.27584e-07
3.2217e-06
-1.63529e-06
1.28219e-07
3.15259e-06
-1.00478e-06
1.29225e-07
3.04284e-06
-3.18019e-07
1.30418e-07
2.88392e-06
4.49071e-07
1.31598e-07
2.66733e-06
1.33215e-06
1.32657e-07
2.38627e-06
2.37754e-06
1.33711e-07
2.03861e-06
3.62778e-06
1.35043e-07
1.63213e-06
5.07929e-06
1.36527e-07
1.19128e-06
6.60328e-06
1.36451e-07
7.60687e-07
7.84604e-06
1.30617e-07
3.82308e-07
8.28732e-06
1.12691e-07
1.07722e-07
7.38903e-06
7.83667e-08
3.80095e-06
2.91871e-08
6.14079e-08
-1.06113e-06
2.75655e-08
2.15754e-07
-2.76667e-06
6.5831e-08
4.31435e-07
-4.08284e-06
9.18698e-08
6.7981e-07
-5.07443e-06
1.09029e-07
9.37091e-07
-5.77727e-06
1.19863e-07
1.18838e-06
-6.23812e-06
1.26393e-07
1.4279e-06
-6.51675e-06
1.30065e-07
1.65451e-06
-6.6661e-06
1.31805e-07
1.86778e-06
-6.72019e-06
1.32185e-07
2.06703e-06
-6.6975e-06
1.31611e-07
2.25161e-06
-6.60784e-06
1.30443e-07
2.42012e-06
-6.45661e-06
1.28882e-07
2.57108e-06
-6.24722e-06
1.27061e-07
2.70373e-06
-5.98247e-06
1.25148e-07
2.81771e-06
-5.66554e-06
1.23286e-07
2.91317e-06
-5.3004e-06
1.21605e-07
2.99063e-06
-4.89182e-06
1.20229e-07
3.05073e-06
-4.44467e-06
1.19253e-07
3.09386e-06
-3.96318e-06
1.18721e-07
3.11989e-06
-3.45023e-06
1.18654e-07
3.12779e-06
-2.9069e-06
1.19083e-07
3.11524e-06
-2.33168e-06
1.20014e-07
3.07823e-06
-1.71954e-06
1.21427e-07
3.01083e-06
-1.06047e-06
1.23246e-07
2.90521e-06
-3.37578e-07
1.25317e-07
2.75227e-06
4.74744e-07
1.27392e-07
2.54299e-06
1.41234e-06
1.29195e-07
2.27058e-06
2.51944e-06
1.30576e-07
1.93387e-06
3.83294e-06
1.31568e-07
1.5422e-06
5.33889e-06
1.32014e-07
1.12106e-06
6.89367e-06
1.30588e-07
7.13592e-07
8.1293e-06
1.2387e-07
3.57366e-07
8.53674e-06
1.0619e-07
1.00504e-07
7.5715e-06
7.33713e-08
3.87261e-06
2.70934e-08
6.11818e-08
-1.1478e-06
2.53205e-08
2.13976e-07
-2.97954e-06
5.99734e-08
4.25942e-07
-4.37817e-06
8.33141e-08
6.68326e-07
-5.41541e-06
9.859e-08
9.18037e-07
-6.13516e-06
1.08189e-07
1.16146e-06
-6.59546e-06
1.13953e-07
1.39376e-06
-6.86618e-06
1.17175e-07
1.61398e-06
-7.00494e-06
1.18681e-07
1.82157e-06
-7.04671e-06
1.19005e-07
2.01555e-06
-7.00992e-06
1.18525e-07
2.1946e-06
-6.90432e-06
1.17516e-07
2.35736e-06
-6.73546e-06
1.16187e-07
2.50255e-06
-6.50702e-06
1.14709e-07
2.62926e-06
-6.22228e-06
1.13221e-07
2.73708e-06
-5.88508e-06
1.11845e-07
2.82618e-06
-5.50008e-06
1.10697e-07
2.8972e-06
-5.07257e-06
1.09876e-07
2.95082e-06
-4.60762e-06
1.09479e-07
2.98761e-06
-4.10936e-06
1.09538e-07
3.00773e-06
-3.58027e-06
1.10081e-07
3.01049e-06
-3.02064e-06
1.11133e-07
2.99399e-06
-2.42773e-06
1.12704e-07
2.95465e-06
-1.79483e-06
1.14783e-07
2.88689e-06
-1.10987e-06
1.17317e-07
2.78302e-06
-3.53739e-07
1.20168e-07
2.63388e-06
5.00953e-07
1.23065e-07
2.43029e-06
1.49042e-06
1.25627e-07
2.16558e-06
2.65675e-06
1.27491e-07
1.83923e-06
4.0309e-06
1.28435e-07
1.46164e-06
5.58829e-06
1.28187e-07
1.0588e-06
7.17074e-06
1.25667e-07
6.72205e-07
8.39747e-06
1.18132e-07
3.35729e-07
8.77206e-06
1.00597e-07
9.43393e-08
7.74277e-06
6.91406e-08
3.93982e-06
2.54228e-08
5.93391e-08
-1.23108e-06
2.37859e-08
2.07687e-07
-3.18386e-06
5.58538e-08
4.13165e-07
-4.66097e-06
7.7262e-08
6.47577e-07
-5.74101e-06
9.11825e-08
8.88766e-07
-6.47617e-06
9.98506e-08
1.1242e-06
-6.93583e-06
1.0497e-07
1.34962e-06
-7.1993e-06
1.07736e-07
1.56403e-06
-7.32822e-06
1.08921e-07
1.7666e-06
-7.35827e-06
1.09044e-07
1.9561e-06
-7.30782e-06
1.0848e-07
2.13099e-06
-7.18662e-06
1.07499e-07
2.28968e-06
-7.00035e-06
1.06298e-07
2.4308e-06
-6.75305e-06
1.05024e-07
2.5534e-06
-6.44856e-06
1.038e-07
2.65711e-06
-6.0914e-06
1.02735e-07
2.74214e-06
-5.68691e-06
1.01931e-07
2.8091e-06
-5.24087e-06
1.01477e-07
2.85868e-06
-4.75851e-06
1.01438e-07
2.89154e-06
-4.24392e-06
1.01851e-07
2.90791e-06
-3.69925e-06
1.0275e-07
2.90731e-06
-3.12405e-06
1.04166e-07
2.8881e-06
-2.51448e-06
1.0612e-07
2.847e-06
-1.8622e-06
1.08616e-07
2.77876e-06
-1.1531e-06
1.11624e-07
2.67596e-06
-3.65817e-07
1.15024e-07
2.52961e-06
5.28892e-07
1.18551e-07
2.33067e-06
1.56772e-06
1.21762e-07
2.07271e-06
2.79068e-06
1.24135e-07
1.75577e-06
4.2227e-06
1.25216e-07
1.391e-06
5.82852e-06
1.24569e-07
1.0046e-06
7.43582e-06
1.21247e-07
6.36436e-07
8.65233e-06
1.13056e-07
3.17255e-07
8.99507e-06
9.56577e-08
8.91703e-08
7.90445e-06
6.54694e-08
4.00326e-06
2.40593e-08
5.82309e-08
-1.31217e-06
2.26907e-08
2.03326e-07
-3.38186e-06
5.27897e-08
4.03758e-07
-4.93409e-06
7.26377e-08
6.31932e-07
-6.05458e-06
8.53839e-08
8.6648e-07
-6.80388e-06
9.31832e-08
1.09572e-06
-7.2627e-06
9.76632e-08
1.31577e-06
-7.51927e-06
9.99595e-08
1.52553e-06
-7.63875e-06
1.00813e-07
1.72397e-06
-7.65738e-06
1.0073e-07
1.90963e-06
-7.59349e-06
1.0007e-07
2.08087e-06
-7.45686e-06
9.909e-08
2.236e-06
-7.25336e-06
9.79713e-08
2.37362e-06
-6.98742e-06
9.68532e-08
2.49277e-06
-6.66345e-06
9.58493e-08
2.59309e-06
-6.28666e-06
9.50581e-08
2.67478e-06
-5.86304e-06
9.4562e-08
2.73835e-06
-5.39875e-06
9.44474e-08
2.78448e-06
-4.89925e-06
9.47438e-08
2.81383e-06
-4.36861e-06
9.54792e-08
2.82672e-06
-3.80868e-06
9.66841e-08
2.82279e-06
-3.21837e-06
9.83896e-08
2.80061e-06
-2.59278e-06
1.00624e-07
2.75721e-06
-1.92205e-06
1.03408e-07
2.68762e-06
-1.1901e-06
1.06728e-07
2.58479e-06
-3.73336e-07
1.10492e-07
2.44004e-06
5.59334e-07
1.14445e-07
2.24464e-06
1.64512e-06
1.18127e-07
1.99252e-06
2.92199e-06
1.20919e-07
1.68415e-06
4.40898e-06
1.2219e-07
1.33109e-06
6.0603e-06
1.21329e-07
9.59378e-07
7.69005e-06
1.17439e-07
6.07191e-07
8.89557e-06
1.08738e-07
3.02666e-07
9.20765e-06
9.14664e-08
8.53424e-08
8.05846e-06
6.24176e-08
4.06396e-06
2.30042e-08
5.64302e-08
-1.39075e-06
2.19945e-08
1.97505e-07
-3.57371e-06
5.06693e-08
3.92384e-07
-5.19832e-06
6.92872e-08
6.14029e-07
-6.35729e-06
8.10473e-08
8.41816e-07
-7.11974e-06
8.80796e-08
1.06481e-06
-7.57763e-06
9.19618e-08
1.27947e-06
-7.82768e-06
9.37883e-08
1.48462e-06
-7.93813e-06
9.42842e-08
1.67904e-06
-7.94569e-06
9.39494e-08
1.86115e-06
-7.86866e-06
9.31342e-08
2.02916e-06
-7.71687e-06
9.20796e-08
2.18133e-06
-7.4964e-06
9.09567e-08
2.3162e-06
-7.21208e-06
8.98967e-08
2.43279e-06
-6.86894e-06
8.90071e-08
2.53071e-06
-6.47284e-06
8.83826e-08
2.61012e-06
-6.03042e-06
8.80957e-08
2.67146e-06
-5.54818e-06
8.82172e-08
2.71536e-06
-5.03179e-06
8.87685e-08
2.74243e-06
-4.4853e-06
8.97659e-08
2.75297e-06
-3.91031e-06
9.12282e-08
2.74669e-06
-3.30513e-06
9.31764e-08
2.72228e-06
-2.66386e-06
9.56371e-08
2.67695e-06
-1.97522e-06
9.86368e-08
2.60606e-06
-1.22124e-06
1.02179e-07
2.50289e-06
-3.76216e-07
1.06189e-07
2.35919e-06
5.9275e-07
1.10432e-07
2.16664e-06
1.72337e-06
1.14441e-07
1.9196e-06
3.05162e-06
1.17547e-07
1.619e-06
4.5907e-06
1.18998e-07
1.27667e-06
6.28467e-06
1.18046e-07
9.18356e-07
7.93455e-06
1.13803e-07
5.80585e-07
9.12838e-06
1.04773e-07
2.89249e-07
9.41086e-06
8.76826e-08
8.16835e-08
8.20545e-06
5.97027e-08
4.12193e-06
2.20905e-08
5.50091e-08
-1.4674e-06
2.14783e-08
1.9248e-07
-3.7603e-06
4.90118e-08
3.82246e-07
-5.45475e-06
6.66075e-08
5.97912e-07
-6.65052e-06
7.75471e-08
8.19587e-07
-7.42536e-06
8.39513e-08
1.03702e-06
-7.8824e-06
8.73551e-08
1.24689e-06
-8.12634e-06
8.88184e-08
1.44795e-06
-8.22819e-06
8.90497e-08
1.63881e-06
-8.22503e-06
8.85353e-08
1.81775e-06
-8.13514e-06
8.76078e-08
1.98291e-06
-7.96844e-06
8.64925e-08
2.13248e-06
-7.73123e-06
8.53499e-08
2.26498e-06
-7.42879e-06
8.43052e-08
2.37942e-06
-7.06674e-06
8.34631e-08
2.4754e-06
-6.65162e-06
8.29181e-08
2.55298e-06
-6.19063e-06
8.27535e-08
2.61254e-06
-5.69063e-06
8.30162e-08
2.65467e-06
-5.15752e-06
8.37289e-08
2.67995e-06
-4.59535e-06
8.49078e-08
2.68867e-06
-4.00547e-06
8.65645e-08
2.68057e-06
-3.3856e-06
8.871e-08
2.6544e-06
-2.72891e-06
9.13607e-08
2.6075e-06
-2.02272e-06
9.45373e-08
2.53544e-06
-1.24728e-06
9.82446e-08
2.43183e-06
-3.74885e-07
1.0242e-07
2.28883e-06
6.29051e-07
1.06843e-07
2.09862e-06
1.80266e-06
1.11057e-07
1.85606e-06
3.17995e-06
1.14369e-07
1.56245e-06
4.7685e-06
1.15948e-07
1.22979e-06
6.50248e-06
1.14942e-07
8.83387e-07
8.1705e-06
1.10456e-07
5.58199e-07
9.35219e-06
1.01207e-07
2.78206e-07
9.6061e-06
8.43203e-08
7.87876e-08
8.34669e-06
5.73226e-08
4.1778e-06
2.131e-08
5.37742e-08
-1.54243e-06
2.10897e-08
1.88302e-07
-3.94264e-06
4.77016e-08
3.7394e-07
-5.70487e-06
6.44212e-08
5.8474e-07
-6.93595e-06
7.461e-08
8.01369e-07
-7.72239e-06
8.0404e-08
1.01414e-06
-8.17848e-06
8.33321e-08
1.21992e-06
-8.41654e-06
8.44438e-08
1.41739e-06
-8.51005e-06
8.44343e-08
1.60503e-06
-8.49638e-06
8.37687e-08
1.78103e-06
-8.39383e-06
8.27555e-08
1.94346e-06
-8.21239e-06
8.16009e-08
2.09052e-06
-7.95865e-06
8.04526e-08
2.22071e-06
-7.63832e-06
7.9428e-08
2.33305e-06
-7.25761e-06
7.86288e-08
2.42714e-06
-6.82373e-06
7.81426e-08
2.50293e-06
-6.34435e-06
7.80584e-08
2.56074e-06
-5.82673e-06
7.84088e-08
2.60113e-06
-5.27699e-06
7.92179e-08
2.62462e-06
-4.69921e-06
8.05052e-08
2.63152e-06
-4.09452e-06
8.22841e-08
2.62159e-06
-3.4601e-06
8.45657e-08
2.59366e-06
-2.7882e-06
8.73638e-08
2.54518e-06
-2.0648e-06
9.06928e-08
2.47191e-06
-1.26841e-06
9.45491e-08
2.3677e-06
-3.69396e-07
9.88635e-08
2.22509e-06
6.68387e-07
1.03416e-07
2.03675e-06
1.88339e-06
1.07756e-07
1.79803e-06
3.30762e-06
1.1119e-07
1.51067e-06
4.94315e-06
1.12851e-07
1.1868e-06
6.71464e-06
1.11822e-07
8.51264e-07
8.39888e-06
1.07199e-07
5.37524e-07
9.56795e-06
9.7846e-08
2.67865e-07
9.79414e-06
8.12092e-08
7.59727e-08
8.48261e-06
5.51371e-08
4.23159e-06
2.05875e-08
5.28614e-08
-1.61617e-06
2.07149e-08
1.85011e-07
-4.12133e-06
4.64291e-08
3.67145e-07
-5.94931e-06
6.22492e-08
5.73678e-07
-7.21415e-06
7.16409e-08
7.8581e-07
-8.01132e-06
7.67959e-08
9.94362e-07
-8.46628e-06
7.92582e-08
1.19637e-06
-8.6986e-06
8.00609e-08
1.39043e-06
-8.78395e-06
7.98675e-08
1.57494e-06
-8.75994e-06
7.91082e-08
1.74801e-06
-8.6449e-06
7.80623e-08
1.90771e-06
-8.44893e-06
7.69158e-08
2.05222e-06
-8.17888e-06
7.58049e-08
2.18008e-06
-7.84092e-06
7.48399e-08
2.29031e-06
-7.44186e-06
7.41188e-08
2.38249e-06
-6.98953e-06
7.37222e-08
2.45655e-06
-6.49204e-06
7.37324e-08
2.51277e-06
-5.95701e-06
7.41806e-08
2.55163e-06
-5.39081e-06
7.50896e-08
2.57362e-06
-4.79755e-06
7.64786e-08
2.57903e-06
-4.17815e-06
7.83619e-08
2.5676e-06
-3.5293e-06
8.07538e-08
2.53822e-06
-2.84234e-06
8.3672e-08
2.48842e-06
-2.102e-06
8.71326e-08
2.41412e-06
-1.2851e-06
9.11294e-08
2.30943e-06
-3.60154e-07
9.55844e-08
2.16726e-06
7.10435e-07
1.00265e-07
1.98072e-06
1.96536e-06
1.04709e-07
1.74563e-06
3.43464e-06
1.08218e-07
1.46409e-06
5.11492e-06
1.0991e-07
1.14829e-06
6.92171e-06
1.08843e-07
8.22626e-07
8.62047e-06
1.0412e-07
5.19174e-07
9.77654e-06
9.47249e-08
2.58737e-07
9.97582e-06
7.83579e-08
7.34937e-08
8.61387e-06
5.3148e-08
4.28357e-06
1.99257e-08
5.21681e-08