/*--------------------------------*- C++ -*----------------------------------*\
| =========                 |                                                 |
| \\      /  F ield         | OpenFOAM: The Open Source CFD Toolbox           |
|  \\    /   O peration     | Version:  v2006                                 |
|   \\  /    A nd           | Website:  www.openfoam.com                      |
|    \\/     M anipulation  |                                                 |
\*---------------------------------------------------------------------------*/
FoamFile
{
    version     2.0;
    format      ascii;
    class       volScalarField;
    location    "43";
    object      T;
}
// * * * * * * * * * * * * * * * * * * * * * * * * * * * * * * * * * * * * * //

dimensions      [0 0 0 1 0 0 0];


internalField   nonuniform List<scalar> 
78750
(
300.058
300.139
300.176
300.192
300.199
300.201
300.2
300.198
300.194
300.19
300.185
300.181
300.176
300.172
300.167
300.162
300.157
300.152
300.147
300.142
300.136
300.13
300.124
300.118
300.112
300.106
300.102
300.102
300.112
300.146
300.234
300.436
300.846
301.542
302.47
300.04
300.11
300.165
300.203
300.226
300.238
300.243
300.244
300.244
300.243
300.242
300.24
300.239
300.237
300.234
300.231
300.227
300.222
300.216
300.209
300.202
300.194
300.185
300.177
300.168
300.161
300.157
300.16
300.179
300.232
300.351
300.602
301.063
301.769
302.681
300.048
300.136
300.212
300.273
300.319
300.35
300.37
300.382
300.391
300.398
300.403
300.408
300.413
300.417
300.421
300.424
300.427
300.428
300.428
300.426
300.423
300.419
300.413
300.406
300.399
300.393
300.391
300.4
300.431
300.506
300.663
300.96
301.448
302.153
303.056
300.033
300.094
300.148
300.194
300.232
300.262
300.287
300.307
300.324
300.339
300.354
300.368
300.383
300.397
300.412
300.426
300.439
300.452
300.464
300.475
300.484
300.492
300.499
300.504
300.509
300.515
300.524
300.544
300.587
300.679
300.861
301.186
301.698
302.417
303.33
300.027
300.076
300.12
300.159
300.194
300.225
300.255
300.282
300.308
300.333
300.357
300.38
300.401
300.422
300.441
300.458
300.474
300.488
300.5
300.511
300.521
300.529
300.537
300.545
300.553
300.564
300.581
300.613
300.674
300.79
301.005
301.367
301.908
302.645
303.57
300.031
300.088
300.141
300.19
300.235
300.278
300.318
300.355
300.389
300.421
300.45
300.477
300.5
300.521
300.54
300.555
300.568
300.579
300.587
300.594
300.598
300.602
300.604
300.606
300.609
300.616
300.63
300.661
300.726
300.855
301.09
301.483
302.05
302.804
303.74
300.037
300.107
300.172
300.232
300.288
300.339
300.385
300.426
300.463
300.497
300.527
300.553
300.577
300.597
300.614
300.628
300.639
300.648
300.655
300.66
300.663
300.665
300.666
300.667
300.67
300.676
300.692
300.727
300.801
300.944
301.201
301.619
302.202
302.962
303.903
300.043
300.125
300.201
300.272
300.336
300.394
300.443
300.487
300.526
300.561
300.591
300.618
300.641
300.66
300.676
300.689
300.699
300.706
300.711
300.714
300.716
300.716
300.716
300.716
300.718
300.725
300.743
300.783
300.866
301.023
301.299
301.737
302.331
303.094
304.041
300.05
300.144
300.231
300.311
300.383
300.445
300.499
300.544
300.585
300.621
300.652
300.679
300.702
300.722
300.738
300.751
300.76
300.767
300.771
300.773
300.773
300.772
300.77
300.769
300.77
300.777
300.797
300.842
300.934
301.105
301.399
301.855
302.455
303.219
304.168
300.055
300.159
300.254
300.341
300.418
300.484
300.541
300.588
300.63
300.666
300.698
300.727
300.751
300.771
300.788
300.802
300.812
300.819
300.824
300.825
300.824
300.822
300.819
300.816
300.817
300.825
300.847
300.897
300.997
301.181
301.491
301.962
302.568
303.333
304.284
300.059
300.17
300.272
300.365
300.446
300.517
300.576
300.626
300.669
300.707
300.741
300.771
300.796
300.818
300.837
300.852
300.863
300.872
300.877
300.879
300.878
300.875
300.87
300.867
300.866
300.873
300.897
300.951
301.06
301.256
301.58
302.063
302.674
303.439
304.392
300.062
300.18
300.288
300.385
300.471
300.544
300.606
300.658
300.702
300.742
300.777
300.808
300.835
300.859
300.878
300.895
300.908
300.918
300.924
300.927
300.926
300.923
300.919
300.914
300.913
300.921
300.946
301.005
301.12
301.327
301.664
302.158
302.773
303.539
304.492
300.065
300.188
300.301
300.403
300.493
300.57
300.635
300.689
300.735
300.776
300.813
300.845
300.873
300.898
300.92
300.938
300.952
300.963
300.97
300.974
300.973
300.97
300.966
300.961
300.96
300.968
300.995
301.058
301.18
301.397
301.746
302.248
302.867
303.634
304.586
300.068
300.198
300.316
300.423
300.518
300.598
300.665
300.72
300.768
300.81
300.848
300.881
300.91
300.936
300.959
300.979
300.994
301.006
301.014
301.018
301.018
301.015
301.011
301.006
301.005
301.014
301.044
301.11
301.24
301.466
301.824
302.334
302.956
303.724
304.676
300.071
300.207
300.331
300.444
300.542
300.625
300.693
300.75
300.799
300.842
300.88
300.915
300.945
300.973
300.997
301.017
301.034
301.046
301.055
301.059
301.06
301.058
301.054
301.05
301.05
301.06
301.092
301.162
301.298
301.532
301.9
302.415
303.039
303.809
304.76
300.075
300.216
300.347
300.464
300.566
300.651
300.721
300.779
300.829
300.873
300.912
300.948
300.98
301.008
301.033
301.054
301.072
301.085
301.094
301.099
301.1
301.099
301.096
301.092
301.093
301.105
301.139
301.214
301.356
301.598
301.974
302.493
303.119
303.89
304.84
300.078
300.226
300.362
300.484
300.589
300.676
300.747
300.807
300.858
300.903
300.944
300.981
301.014
301.043
301.069
301.09
301.108
301.122
301.132
301.137
301.139
301.139
301.136
301.133
301.135
301.149
301.186
301.264
301.412
301.662
302.044
302.567
303.195
303.967
304.916
300.081
300.236
300.378
300.504
300.612
300.701
300.774
300.834
300.886
300.933
300.974
301.012
301.046
301.076
301.103
301.125
301.143
301.158
301.168
301.174
301.177
301.177
301.175
301.173
301.177
301.192
301.231
301.314
301.468
301.724
302.113
302.638
303.267
304.041
304.99
300.085
300.245
300.392
300.523
300.634
300.725
300.798
300.86
300.914
300.961
301.004
301.043
301.078
301.109
301.136
301.159
301.178
301.193
301.203
301.21
301.213
301.214
301.213
301.212
301.217
301.234
301.276
301.363
301.522
301.784
302.179
302.707
303.336
304.111
305.06
300.088
300.255
300.407
300.542
300.656
300.748
300.823
300.886
300.94
300.989
301.033
301.073
301.108
301.14
301.168
301.192
301.211
301.227
301.238
301.245
301.249
301.25
301.25
301.25
301.256
301.275
301.321
301.411
301.575
301.843
302.243
302.772
303.403
304.179
305.127
300.091
300.263
300.421
300.56
300.676
300.77
300.846
300.91
300.966
301.016
301.061
301.102
301.138
301.171
301.2
301.224
301.244
301.26
301.271
301.279
301.283
301.285
301.286
301.288
301.295
301.316
301.364
301.459
301.627
301.901
302.305
302.836
303.467
304.245
305.193
300.094
300.272
300.434
300.577
300.696
300.792
300.869
300.934
300.991
301.042
301.088
301.13
301.168
301.201
301.231
301.256
301.276
301.292
301.304
301.313
301.318
301.32
301.321
301.324
301.333
301.356
301.407
301.505
301.679
301.957
302.366
302.898
303.529
304.309
305.257
300.097
300.28
300.447
300.594
300.715
300.813
300.891
300.957
301.016
301.068
301.115
301.158
301.197
301.231
301.261
301.287
301.308
301.324
301.337
301.346
301.351
301.354
301.356
301.36
301.371
301.396
301.449
301.552
301.729
302.013
302.426
302.958
303.59
304.371
305.319
300.1
300.288
300.46
300.61
300.734
300.833
300.913
300.98
301.04
301.093
301.141
301.185
301.225
301.26
301.291
301.317
301.339
301.356
301.369
301.378
301.384
301.388
301.391
301.396
301.408
301.435
301.491
301.597
301.779
302.068
302.484
303.017
303.649
304.432
305.38
300.102
300.296
300.472
300.626
300.752
300.853
300.934
301.003
301.063
301.118
301.167
301.212
301.253
301.289
301.32
301.347
301.369
301.387
301.4
301.41
301.417
301.421
301.425
301.431
301.445
301.474
301.533
301.642
301.829
302.121
302.542
303.075
303.707
304.491
305.44
300.105
300.304
300.484
300.641
300.77
300.872
300.955
301.025
301.086
301.142
301.193
301.239
301.28
301.317
301.349
301.377
301.4
301.418
301.432
301.442
301.449
301.454
301.459
301.466
301.481
301.512
301.574
301.687
301.878
302.175
302.598
303.132
303.764
304.55
305.498
300.108
300.312
300.496
300.657
300.788
300.891
300.975
301.046
301.109
301.166
301.218
301.265
301.308
301.345
301.378
301.406
301.43
301.448
301.463
301.473
301.481
301.487
301.493
301.501
301.517
301.551
301.615
301.732
301.926
302.228
302.654
303.189
303.82
304.607
305.556
300.11
300.319
300.508
300.672
300.805
300.91
300.995
301.068
301.132
301.19
301.243
301.291
301.335
301.373
301.407
301.435
301.459
301.478
301.493
301.504
301.513
301.519
301.526
301.535
301.553
301.589
301.656
301.776
301.975
302.28
302.71
303.244
303.875
304.663
305.613
300.113
300.327
300.52
300.687
300.822
300.929
301.015
301.089
301.155
301.214
301.268
301.317
301.362
301.401
301.435
301.464
301.489
301.508
301.524
301.535
301.544
301.551
301.559
301.569
301.589
301.626
301.696
301.82
302.022
302.332
302.765
303.299
303.929
304.719
305.669
300.115
300.334
300.531
300.702
300.839
300.948
301.035
301.11
301.177
301.238
301.293
301.343
301.388
301.429
301.463
301.493
301.518
301.538
301.554
301.566
301.576
301.584
301.592
301.604
301.624
301.664
301.736
301.863
302.07
302.383
302.819
303.353
303.983
304.774
305.723
300.118
300.342
300.543
300.717
300.857
300.966
301.055
301.131
301.199
301.261
301.318
301.369
301.415
301.456
301.492
301.522
301.547
301.568
301.584
301.597
301.607
301.615
301.625
301.637
301.66
301.701
301.777
301.907
302.117
302.434
302.872
303.406
304.035
304.827
305.777
300.121
300.349
300.555
300.732
300.874
300.985
301.075
301.153
301.222
301.285
301.342
301.395
301.442
301.483
301.52
301.551
301.576
301.597
301.614
301.627
301.638
301.647
301.657
301.671
301.695
301.739
301.817
301.95
302.164
302.485
302.925
303.459
304.087
304.88
305.83
300.123
300.356
300.567
300.747
300.891
301.003
301.095
301.174
301.244
301.309
301.367
301.42
301.468
301.511
301.548
301.579
301.605
301.627
301.644
301.658
301.669
301.679
301.69
301.705
301.731
301.777
301.857
301.994
302.211
302.535
302.979
303.511
304.138
304.932
305.883
300.126
300.364
300.579
300.762
300.908
301.022
301.115
301.195
301.267
301.332
301.392
301.446
301.495
301.538
301.576
301.608
301.634
301.656
301.674
301.688
301.7
301.71
301.722
301.739
301.767
301.815
301.898
302.038
302.259
302.586
303.031
303.563
304.189
304.984
305.935
300.128
300.372
300.59
300.777
300.925
301.041
301.135
301.216
301.29
301.356
301.417
301.472
301.522
301.565
301.604
301.636
301.663
301.685
301.703
301.718
301.73
301.742
301.755
301.773
301.803
301.853
301.939
302.082
302.307
302.638
303.085
303.615
304.24
305.036
305.987
300.131
300.379
300.602
300.792
300.943
301.059
301.155
301.238
301.312
301.38
301.442
301.498
301.548
301.593
301.632
301.664
301.692
301.715
301.733
301.748
301.761
301.774
301.788
301.807
301.838
301.891
301.981
302.127
302.356
302.69
303.139
303.667
304.291
305.087
306.04
300.134
300.387
300.614
300.808
300.96
301.078
301.175
301.259
301.335
301.404
301.467
301.524
301.575
301.62
301.659
301.693
301.721
301.744
301.763
301.778
301.792
301.805
301.82
301.841
301.874
301.93
302.022
302.173
302.405
302.742
303.193
303.72
304.341
305.139
306.092
300.136
300.395
300.627
300.823
300.977
301.097
301.195
301.281
301.358
301.428
301.492
301.55
301.602
301.647
301.687
301.721
301.749
301.773
301.792
301.808
301.823
301.836
301.853
301.875
301.91
301.968
302.063
302.218
302.454
302.795
303.247
303.772
304.392
305.19
306.143
300.139
300.402
300.639
300.838
300.994
301.115
301.215
301.302
301.38
301.452
301.517
301.576
301.628
301.675
301.715
301.749
301.778
301.802
301.822
301.838
301.853
301.868
301.885
301.909
301.945
302.006
302.104
302.262
302.502
302.847
303.3
303.824
304.442
305.24
306.193
300.142
300.41
300.651
300.853
301.011
301.134
301.235
301.323
301.403
301.475
301.542
301.601
301.655
301.702
301.742
301.777
301.806
301.831
301.851
301.868
301.884
301.9
301.918
301.943
301.981
302.043
302.145
302.306
302.55
302.898
303.352
303.874
304.49
305.289
306.243
300.144
300.418
300.663
300.868
301.028
301.152
301.254
301.344
301.425
301.499
301.566
301.627
301.681
301.729
301.77
301.805
301.835
301.86
301.88
301.898
301.915
301.931
301.951
301.977
302.017
302.082
302.186
302.35
302.597
302.948
303.404
303.924
304.538
305.338
306.291
300.147
300.426
300.675
300.883
301.045
301.17
301.274
301.365
301.448
301.523
301.591
301.652
301.707
301.756
301.798
301.833
301.863
301.888
301.91
301.928
301.946
301.963
301.984
302.012
302.054
302.121
302.227
302.394
302.644
302.997
303.454
303.972
304.585
305.386
306.34
300.15
300.433
300.687
300.898
301.062
301.188
301.294
301.386
301.47
301.546
301.615
301.678
301.734
301.783
301.825
301.861
301.891
301.917
301.939
301.958
301.976
301.995
302.018
302.048
302.092
302.161
302.27
302.44
302.692
303.048
303.506
304.022
304.633
305.434
306.389
300.153
300.441
300.698
300.913
301.078
301.206
301.313
301.407
301.492
301.569
301.64
301.703
301.76
301.809
301.852
301.889
301.92
301.946
301.968
301.988
302.007
302.027
302.051
302.084
302.131
302.204
302.316
302.488
302.743
303.101
303.559
304.072
304.681
305.484
306.44
300.155
300.449
300.71
300.927
301.094
301.224
301.332
301.427
301.514
301.592
301.664
301.728
301.786
301.836
301.879
301.916
301.948
301.974
301.997
302.018
302.038
302.059
302.085
302.121
302.171
302.248
302.364
302.54
302.799
303.158
303.615
304.125
304.732
305.536
306.494
300.158
300.456
300.721
300.942
301.11
301.241
301.351
301.448
301.535
301.615
301.688
301.753
301.811
301.862
301.906
301.944
301.975
302.002
302.026
302.047
302.068
302.091
302.119
302.157
302.212
302.293
302.415
302.596
302.858
303.219
303.675
304.181
304.786
305.591
306.551
300.16
300.463
300.733
300.956
301.126
301.259
301.37
301.468
301.557
301.638
301.712
301.778
301.837
301.888
301.933
301.971
302.003
302.03
302.054
302.076
302.098
302.122
302.152
302.193
302.252
302.338
302.466
302.653
302.921
303.284
303.738
304.24
304.842
305.648
306.608
300.163
300.471
300.744
300.969
301.142
301.276
301.388
301.488
301.578
301.661
301.736
301.803
301.862
301.914
301.959
301.998
302.03
302.058
302.083
302.106
302.128
302.153
302.185
302.228
302.29
302.382
302.516
302.71
302.983
303.35
303.802
304.299
304.899
305.705
306.664
300.165
300.478
300.755
300.983
301.157
301.293
301.407
301.508
301.6
301.683
301.759
301.827
301.888
301.94
301.986
302.025
302.058
302.086
302.111
302.134
302.158
302.184
302.217
302.262
302.327
302.423
302.563
302.764
303.044
303.414
303.865
304.358
304.955
305.76
306.718
300.168
300.485
300.766
300.997
301.173
301.31
301.425
301.528
301.621
301.706
301.783
301.852
301.913
301.966
302.012
302.051
302.085
302.114
302.14
302.163
302.187
302.214
302.248
302.295
302.362
302.461
302.607
302.814
303.099
303.473
303.924
304.414
305.008
305.812
306.768
300.17
300.492
300.777
301.011
301.188
301.327
301.444
301.548
301.642
301.728
301.806
301.876
301.938
301.992
302.038
302.078
302.112
302.142
302.168
302.192
302.217
302.245
302.28
302.328
302.396
302.498
302.646
302.858
303.149
303.527
303.978
304.466
305.057
305.86
306.814
300.173
300.499
300.788
301.024
301.204
301.344
301.462
301.568
301.664
301.751
301.83
301.901
301.963
302.017
302.064
302.104
302.139
302.169
302.196
302.222
302.248
302.277
302.312
302.361
302.431
302.533
302.684
302.899
303.194
303.576
304.028
304.515
305.104
305.904
306.856
300.175
300.506
300.799
301.038
301.219
301.361
301.481
301.588
301.685
301.773
301.854
301.925
301.988
302.043
302.09
302.131
302.166
302.197
302.225
302.251
302.278
302.308
302.346
302.396
302.466
302.57
302.722
302.939
303.237
303.621
304.075
304.56
305.147
305.946
306.896
300.178
300.513
300.81
301.052
301.235
301.378
301.499
301.608
301.706
301.796
301.877
301.949
302.013
302.068
302.116
302.157
302.193
302.224
302.253
302.28
302.309
302.341
302.38
302.432
302.504
302.609
302.761
302.98
303.279
303.666
304.119
304.603
305.188
305.986
306.935
300.18
300.521
300.821
301.066
301.251
301.395
301.518
301.628
301.728
301.819
301.901
301.974
302.038
302.094
302.142
302.183
302.22
302.252
302.281
302.31
302.34
302.373
302.415
302.469
302.544
302.651
302.805
303.024
303.324
303.711
304.164
304.646
305.229
306.026
306.975
300.183
300.528
300.833
301.08
301.266
301.412
301.536
301.648
301.749
301.841
301.924
301.998
302.063
302.119
302.168
302.209
302.246
302.279
302.309
302.339
302.37
302.406
302.451
302.508
302.586
302.696
302.853
303.073
303.374
303.76
304.21
304.689
305.271
306.068
307.017
300.186
300.535
300.844
301.094
301.282
301.429
301.555
301.667
301.77
301.863
301.948
302.022
302.087
302.144
302.193
302.235
302.272
302.305
302.336
302.367
302.4
302.439
302.486
302.547
302.63
302.744
302.905
303.128
303.429
303.814
304.26
304.735
305.315
306.111
307.06
300.188
300.543
300.855
301.107
301.297
301.446
301.573
301.687
301.791
301.886
301.971
302.046
302.112
302.169
302.218
302.261
302.298
302.332
302.363
302.395
302.43
302.471
302.521
302.586
302.674
302.793
302.958
303.185
303.488
303.871
304.312
304.782
305.359
306.155
307.102
300.191
300.55
300.866
301.121
301.313
301.463
301.591
301.707
301.812
301.908
301.994
302.07
302.136
302.193
302.243
302.286
302.323
302.358
302.39
302.423
302.459
302.501
302.554
302.623
302.716
302.841
303.012
303.243
303.548
303.93
304.365
304.829
305.404
306.198
307.144
300.193
300.557
300.877
301.135
301.328
301.479
301.61
301.726
301.833
301.93
302.017
302.093
302.16
302.218
302.267
302.311
302.349
302.383
302.416
302.45
302.487
302.531
302.586
302.658
302.755
302.885
303.062
303.299
303.606
303.986
304.415
304.874
305.446
306.238
307.182
300.196
300.564
300.888
301.148
301.343
301.496
301.628
301.746
301.854
301.952
302.04
302.117
302.184
302.242
302.292
302.335
302.374
302.409
302.443
302.477
302.515
302.561
302.617
302.692
302.792
302.927
303.108
303.349
303.66
304.039
304.463
304.917
305.485
306.275
307.217
300.198
300.572
300.899
301.162
301.358
301.513
301.646
301.766
301.875
301.974
302.062
302.14
302.208
302.266
302.316
302.36
302.399
302.434
302.469
302.504
302.543
302.589
302.648
302.724
302.826
302.964
303.15
303.395
303.708
304.086
304.506
304.956
305.521
306.308
307.249
300.201
300.579
300.91
301.176
301.374
301.53
301.664
301.786
301.896
301.996
302.086
302.164
302.232
302.29
302.34
302.384
302.423
302.46
302.495
302.531
302.571
302.618
302.677
302.755
302.859
303
303.188
303.436
303.751
304.129
304.546
304.992
305.554
306.339
307.278
300.203
300.586
300.921
301.189
301.389
301.547
301.683
301.806
301.918
302.019
302.109
302.188
302.256
302.314
302.365
302.409
302.448
302.485
302.521
302.558
302.599
302.647
302.707
302.786
302.891
303.033
303.224
303.474
303.791
304.168
304.581
305.024
305.584
306.367
307.305
300.206
300.593
300.933
301.203
301.405
301.564
301.702
301.826
301.939
302.042
302.132
302.212
302.28
302.339
302.389
302.433
302.473
302.51
302.547
302.585
302.627
302.676
302.738
302.818
302.924
303.067
303.259
303.51
303.828
304.204
304.615
305.055
305.612
306.394
307.331
300.208
300.601
300.944
301.218
301.421
301.582
301.721
301.847
301.962
302.065
302.156
302.236
302.305
302.363
302.414
302.458
302.498
302.535
302.573
302.612
302.655
302.706
302.769
302.85
302.958
303.102
303.294
303.546
303.863
304.238
304.646
305.083
305.639
306.42
307.357
300.211
300.608
300.956
301.232
301.438
301.6
301.741
301.868
301.984
302.088
302.181
302.261
302.329
302.388
302.438
302.483
302.523
302.561
302.599
302.639
302.684
302.736
302.801
302.884
302.993
303.138
303.331
303.583
303.9
304.273
304.678
305.112
305.667
306.447
307.385
300.214
300.616
300.968
301.247
301.454
301.618
301.761
301.89
302.007
302.112
302.205
302.286
302.354
302.413
302.463
302.507
302.547
302.586
302.624
302.666
302.712
302.767
302.834
302.918
303.029
303.175
303.369
303.622
303.937
304.308
304.709
305.141
305.694
306.475
307.413
300.216
300.624
300.98
301.262
301.471
301.637
301.781
301.912
302.03
302.137
302.23
302.311
302.379
302.438
302.488
302.532
302.572
302.611
302.65
302.693
302.741
302.797
302.866
302.953
303.066
303.214
303.41
303.662
303.977
304.345
304.742
305.171
305.723
306.504
307.443
300.219
300.631
300.992
301.277
301.489
301.656
301.802
301.934
302.054
302.161
302.255
302.336
302.405
302.463
302.513
302.557
302.597
302.636
302.676
302.719
302.769
302.827
302.899
302.989
303.104
303.255
303.451
303.704
304.018
304.382
304.775
305.201
305.752
306.533
307.473
300.222
300.64
301.005
301.293
301.506
301.676
301.824
301.957
302.078
302.187
302.281
302.362
302.43
302.488
302.538
302.581
302.621
302.66
302.701
302.745
302.797
302.857
302.932
303.025
303.143
303.296
303.495
303.748
304.061
304.422
304.81
305.233
305.784
306.565
307.506
300.225
300.648
301.017
301.309
301.524
301.696
301.845
301.981
302.103
302.212
302.307
302.388
302.456
302.514
302.563
302.606
302.646
302.685
302.726
302.771
302.824
302.887
302.964
303.06
303.182
303.338
303.538
303.793
304.104
304.461
304.845
305.265
305.815
306.597
307.538
300.228
300.656
301.03
301.325
301.543
301.716
301.867
302.004
302.128
302.238
302.334
302.415
302.483
302.54
302.588
302.631
302.671
302.709
302.75
302.796
302.85
302.916
302.995
303.095
303.22
303.379
303.583
303.838
304.148
304.502
304.882
305.299
305.849
306.63
307.572
300.231
300.665
301.043
301.341
301.562
301.737
301.89
302.029
302.154
302.265
302.361
302.442
302.509
302.566
302.614
302.656
302.695
302.734
302.775
302.821
302.876
302.943
303.026
303.128
303.257
303.42
303.626
303.882
304.191
304.542
304.917
305.332
305.881
306.662
307.604
300.233
300.673
301.057
301.358
301.58
301.758
301.913
302.053
302.18
302.292
302.388
302.469
302.536
302.593
302.64
302.682
302.72
302.758
302.799
302.846
302.902
302.97
303.055
303.161
303.293
303.46
303.668
303.927
304.235
304.582
304.954
305.367
305.915
306.695
307.637
300.237
300.682
301.07
301.375
301.6
301.779
301.936
302.078
302.207
302.319
302.416
302.497
302.564
302.619
302.666
302.707
302.745
302.782
302.823
302.869
302.926
302.996
303.083
303.192
303.328
303.497
303.709
303.969
304.276
304.621
304.989
305.399
305.946
306.726
307.667
300.24
300.691
301.084
301.392
301.619
301.801
301.96
302.104
302.234
302.347
302.444
302.525
302.592
302.647
302.693
302.733
302.77
302.807
302.847
302.893
302.949
303.02
303.109
303.221
303.36
303.534
303.748
304.009
304.316
304.659
305.024
305.432
305.978
306.757
307.697
300.243
300.7
301.098
301.409
301.639
301.822
301.984
302.13
302.261
302.376
302.473
302.554
302.62
302.674
302.72
302.759
302.796
302.832
302.871
302.916
302.972
303.044
303.134
303.248
303.39
303.567
303.784
304.047
304.354
304.694
305.056
305.462
306.007
306.785
307.722
300.246
300.709
301.111
301.426
301.659
301.845
302.008
302.156
302.289
302.404
302.502
302.583
302.648
302.702
302.747
302.786
302.822
302.857
302.895
302.939
302.995
303.066
303.157
303.273
303.418
303.598
303.818
304.083
304.389
304.728
305.087
305.492
306.036
306.812
307.748
300.249
300.718
301.126
301.444
301.679
301.867
302.033
302.183
302.317
302.434
302.532
302.612
302.677
302.731
302.775
302.813
302.848
302.882
302.919
302.963
303.017
303.087
303.178
303.295
303.442
303.625
303.848
304.114
304.421
304.758
305.115
305.518
306.061
306.835
307.769
300.252
300.727
301.14
301.462
301.7
301.89
302.058
302.21
302.346
302.464
302.562
302.642
302.707
302.76
302.803
302.841
302.875
302.908
302.944
302.987
303.04
303.109
303.199
303.316
303.464
303.649
303.875
304.143
304.45
304.786
305.142
305.543
306.085
306.857
307.79
300.255
300.736
301.154
301.48
301.721
301.913
302.084
302.238
302.376
302.494
302.593
302.673
302.737
302.789
302.832
302.869
302.902
302.935
302.97
303.011
303.063
303.13
303.219
303.335
303.484
303.67
303.898
304.168
304.476
304.811
305.165
305.565
306.105
306.875
307.807
300.259
300.746
301.169
301.498
301.742
301.937
302.11
302.267
302.406
302.525
302.624
302.704
302.768
302.819
302.861
302.897
302.93
302.962
302.997
303.037
303.087
303.152
303.239
303.353
303.502
303.689
303.918
304.19
304.499
304.834
305.187
305.586
306.125
306.893
307.824
300.262
300.755
301.184
301.517
301.764
301.962
302.137
302.296
302.437
302.557
302.656
302.736
302.799
302.849
302.891
302.926
302.958
302.99
303.024
303.063
303.112
303.176
303.26
303.372
303.519
303.706
303.936
304.209
304.519
304.854
305.207
305.604
306.142
306.909
307.838
300.265
300.765
301.199
301.537
301.786
301.987
302.165
302.326
302.469
302.59
302.689
302.768
302.83
302.88
302.921
302.956
302.987
303.019
303.052
303.091
303.139
303.201
303.283
303.393
303.537
303.723
303.953
304.227
304.537
304.873
305.225
305.622
306.158
306.925
307.854
300.269
300.775
301.214
301.556
301.808
302.012
302.193
302.357
302.502
302.624
302.723
302.801
302.863
302.911
302.951
302.985
303.017
303.048
303.081
303.119
303.167
303.227
303.308
303.415
303.558
303.741
303.97
304.244
304.556
304.892
305.243
305.639
306.175
306.941
307.871
300.272
300.785
301.23
301.576
301.832
302.039
302.223
302.389
302.535
302.658
302.757
302.835
302.896
302.943
302.982
303.015
303.046
303.077
303.11
303.149
303.196
303.256
303.335
303.44
303.58
303.762
303.989
304.262
304.574
304.909
305.26
305.656
306.191
306.958
307.89
300.276
300.796
301.247
301.597
301.856
302.066
302.253
302.422
302.57
302.693
302.792
302.869
302.929
302.976
303.013
303.046
303.076
303.107
303.14
303.179
303.226
303.286
303.365
303.469
303.607
303.786
304.012
304.284
304.595
304.93
305.28
305.675
306.211
306.978
307.911
300.28
300.807
301.264
301.619
301.881
302.094
302.284
302.456
302.606
302.73
302.828
302.905
302.963
303.008
303.045
303.077
303.106
303.137
303.171
303.21
303.258
303.318
303.396
303.5
303.636
303.813
304.037
304.307
304.617
304.951
305.3
305.695
306.231
307.001
307.936
300.284
300.818
301.282
301.641
301.907
302.123
302.317
302.491
302.642
302.767
302.865
302.94
302.998
303.042
303.077
303.108
303.137
303.167
303.201
303.241
303.29
303.351
303.43
303.534
303.669
303.845
304.067
304.336
304.644
304.977
305.325
305.719
306.256
307.027
307.965
300.288
300.83
301.3
301.664
301.933
302.153
302.35
302.527
302.68
302.805
302.903
302.977
303.033
303.075
303.109
303.139
303.168
303.198
303.232
303.273
303.322
303.385
303.465
303.569
303.705
303.88
304.1
304.368
304.674
305.005
305.351
305.744
306.282
307.055
307.996
300.292
300.842
301.32
301.689
301.961
302.184
302.384
302.564
302.719
302.844
302.941
303.014
303.068
303.109
303.142
303.171
303.199
303.229
303.263
303.305
303.356
303.42
303.502
303.607
303.744
303.919
304.139
304.404
304.709
305.037
305.381
305.774
306.313
307.089
308.031
300.296
300.855
301.34
301.714
301.99
302.216
302.42
302.602
302.758
302.883
302.979
303.051
303.104
303.144
303.175
303.203
303.23
303.259
303.294
303.336
303.389
303.455
303.539
303.646
303.784
303.96
304.179
304.443
304.745
305.07
305.413
305.805
306.345
307.123
308.067
300.301
300.869
301.361
301.74
302.02
302.25
302.456
302.641
302.798
302.923
303.018
303.089
303.14
303.178
303.208
303.235
303.261
303.29
303.325
303.369
303.423
303.491
303.577
303.687
303.827
304.004
304.223
304.486
304.785
305.108
305.449
305.841
306.381
307.161
308.107
300.306
300.883
301.382
301.766
302.051
302.284
302.494
302.681
302.839
302.964
303.058
303.127
303.176
303.213
303.241
303.267
303.292
303.321
303.357
303.401
303.456
303.526
303.614
303.726
303.869
304.047
304.267
304.529
304.826
305.146
305.485
305.876
306.417
307.198
308.146
300.311
300.897
301.405
301.795
302.083
302.32
302.533
302.722
302.881
303.005
303.098
303.165
303.213
303.247
303.275
303.299
303.324
303.352
303.388
303.433
303.49
303.562
303.653
303.768
303.912
304.093
304.314
304.575
304.87
305.187
305.524
305.915
306.457
307.239
308.188
300.316
300.912
301.428
301.824
302.116
302.357
302.574
302.765
302.924
303.048
303.139
303.204
303.25
303.283
303.308
303.331
303.355
303.383
303.419
303.464
303.523
303.597
303.69
303.808
303.955
304.137
304.359
304.62
304.913
305.228
305.562
305.953
306.496
307.279
308.228
300.322
300.928
301.453
301.854
302.151
302.396
302.616
302.81
302.969
303.092
303.182
303.244
303.287
303.318
303.342
303.363
303.386
303.414
303.45
303.496
303.556
303.633
303.729
303.849
303.999
304.184
304.407
304.667
304.958
305.27
305.603
305.993
306.537
307.321
308.272
300.327
300.945
301.478
301.886
302.188
302.437
302.661
302.857
303.016
303.138
303.225
303.285
303.326
303.354
303.376
303.396
303.417
303.444
303.48
303.527
303.589
303.667
303.766
303.889
304.042
304.228
304.452
304.712
305.001
305.311
305.642
306.032
306.577
307.362
308.313
300.333
300.961
301.504
301.919
302.226
302.479
302.707
302.905
303.066
303.186
303.271
303.328
303.366
303.391
303.41
303.428
303.448
303.475
303.51
303.558
303.621
303.702
303.804
303.93
304.086
304.274
304.499
304.758
305.046
305.353
305.684
306.074
306.62
307.405
308.356
300.339
300.979
301.531
301.952
302.265
302.523
302.755
302.956
303.117
303.236
303.318
303.372
303.406
303.429
303.445
303.461
303.48
303.505
303.539
303.587
303.652
303.734
303.839
303.969
304.127
304.318
304.544
304.802
305.088
305.394
305.723
306.114
306.66
307.445
308.395
300.345
300.997
301.559
301.987
302.305
302.568
302.805
303.009
303.17
303.288
303.368
303.418
303.449
303.468
303.482
303.495
303.511
303.535
303.568
303.616
303.681
303.766
303.873
304.006
304.168
304.361
304.588
304.847
305.131
305.435
305.763
306.154
306.701
307.485
308.433
300.352
301.015
301.587
302.022
302.345
302.614
302.855
303.063
303.225
303.342
303.419
303.466
303.493
303.508
303.519
303.529
303.543
303.564
303.596
303.643
303.708
303.794
303.904
304.04
304.205
304.401
304.629
304.888
305.171
305.474
305.801
306.191
306.738
307.522
308.467
300.358
301.034
301.616
302.059
302.387
302.661
302.908
303.119
303.283
303.398
303.472
303.515
303.538
303.55
303.557
303.564
303.576
303.595
303.625
303.67
303.734
303.82
303.932
304.071
304.239
304.438
304.668
304.927
305.209
305.511
305.837
306.227
306.774
307.555
308.497
300.365
301.053
301.646
302.096
302.43
302.71
302.962
303.176
303.341
303.456
303.527
303.566
303.585
303.593
303.596
303.601
303.61
303.626
303.654
303.697
303.759
303.845
303.957
304.098
304.269
304.471
304.702
304.962
305.244
305.545
305.871
306.261
306.807
307.585
308.523
300.372
301.073
301.677
302.135
302.475
302.76
303.017
303.235
303.402
303.515
303.583
303.619
303.633
303.637