/*--------------------------------*- C++ -*----------------------------------*\
| =========                 |                                                 |
| \\      /  F ield         | OpenFOAM: The Open Source CFD Toolbox           |
|  \\    /   O peration     | Version:  v2006                                 |
|   \\  /    A nd           | Website:  www.openfoam.com                      |
|    \\/     M anipulation  |                                                 |
\*---------------------------------------------------------------------------*/
FoamFile
{
    version     2.0;
    format      ascii;
    class       volScalarField;
    location    "98";
    object      alphat;
}
// * * * * * * * * * * * * * * * * * * * * * * * * * * * * * * * * * * * * * //

dimensions      [1 -1 -1 0 0 0 0];


internalField   nonuniform List<scalar> 
78750
(
2.30789e-09
4.28303e-07
8.06344e-07
1.18788e-06
1.56397e-06
1.92596e-06
2.26643e-06
2.57986e-06
2.86279e-06
3.11347e-06
3.33127e-06
3.51631e-06
3.66907e-06
3.79027e-06
3.8801e-06
3.93917e-06
3.96827e-06
3.96804e-06
3.93909e-06
3.88199e-06
3.79726e-06
3.68595e-06
3.54787e-06
3.38293e-06
3.19226e-06
2.97691e-06
2.73808e-06
2.47679e-06
2.19446e-06
1.8914e-06
1.5653e-06
1.21287e-06
8.42743e-07
4.90891e-07
7.78537e-09
4.03182e-09
3.13761e-06
6.18605e-06
8.61416e-06
1.06633e-05
1.2591e-05
1.4458e-05
1.62456e-05
1.79355e-05
1.95289e-05
2.10386e-05
2.24787e-05
2.38897e-05
2.52889e-05
2.56945e-05
2.57213e-05
2.56025e-05
2.53471e-05
2.4963e-05
2.4457e-05
2.38345e-05
2.30996e-05
2.2252e-05
2.12906e-05
2.02146e-05
1.90243e-05
1.73995e-05
1.51072e-05
1.27444e-05
1.02051e-05
7.39907e-06
4.88497e-06
3.59016e-06
2.22284e-06
2.62935e-08
6.28601e-09
2.41655e-06
4.97781e-06
7.72157e-06
1.06569e-05
1.37196e-05
1.6715e-05
1.94372e-05
2.17698e-05
2.36823e-05
2.51832e-05
2.62896e-05
2.70193e-05
2.73962e-05
2.74363e-05
2.71389e-05
2.6517e-05
2.56107e-05
2.44852e-05
2.32241e-05
2.19185e-05
2.06522e-05
1.94881e-05
1.84743e-05
1.76209e-05
1.68601e-05
1.60337e-05
1.4908e-05
1.32198e-05
1.08019e-05
7.97571e-06
5.88799e-06
5.65353e-06
2.35621e-06
4.3328e-08
1.05389e-08
2.22259e-06
4.86301e-06
8.3713e-06
1.28023e-05
1.76362e-05
2.19906e-05
2.53599e-05
2.77249e-05
2.92195e-05
2.99697e-05
3.00831e-05
2.96642e-05
2.88216e-05
2.76675e-05
2.63072e-05
2.48304e-05
2.33057e-05
2.17797e-05
2.02855e-05
1.88557e-05
1.75371e-05
1.63877e-05
1.5459e-05
1.47808e-05
1.43253e-05
1.39481e-05
1.334e-05
1.20965e-05
1.00561e-05
7.79108e-06
6.54773e-06
7.53963e-06
2.26061e-06
5.79715e-08
1.54258e-08
2.21202e-06
5.10382e-06
9.49382e-06
1.55625e-05
2.20583e-05
2.72286e-05
3.0602e-05
3.24275e-05
3.29784e-05
3.25012e-05
3.12566e-05
2.95188e-05
2.75468e-05
2.55484e-05
2.36572e-05
2.19321e-05
2.03769e-05
1.89649e-05
1.76606e-05
1.64403e-05
1.53098e-05
1.43075e-05
1.34843e-05
1.28793e-05
1.24853e-05
1.21834e-05
1.16895e-05
1.06513e-05
9.03374e-06
7.48172e-06
7.15788e-06
8.84571e-06
2.18149e-06
6.88253e-08
2.0964e-08
2.23509e-06
5.34377e-06
1.04763e-05
1.79371e-05
2.56027e-05
3.09368e-05
3.37351e-05
3.45757e-05
3.39373e-05
3.22458e-05
2.99279e-05
2.73848e-05
2.49337e-05
2.27464e-05
2.08736e-05
1.93001e-05
1.79698e-05
1.68128e-05
1.57656e-05
1.47877e-05
1.38691e-05
1.30266e-05
1.22901e-05
1.16885e-05
1.12198e-05
1.07967e-05
1.02141e-05
9.25877e-06
8.01732e-06
7.09204e-06
7.56957e-06
9.37296e-06
2.14956e-06
7.71802e-08
2.59297e-08
2.28613e-06
5.59107e-06
1.13147e-05
1.98043e-05
2.81268e-05
3.33412e-05
3.55758e-05
3.55751e-05
3.39378e-05
3.12651e-05
2.81677e-05
2.5141e-05
2.24758e-05
2.02723e-05
1.85089e-05
1.71107e-05
1.59896e-05
1.50612e-05
1.42558e-05
1.35286e-05
1.28605e-05
1.22331e-05
1.1631e-05
1.10552e-05
1.0499e-05
9.90613e-06
9.16774e-06
8.22615e-06
7.26455e-06
6.82535e-06
7.95406e-06
9.27685e-06
2.11611e-06
8.42624e-08
3.08097e-08
2.32805e-06
5.74798e-06
1.1848e-05
2.10496e-05
2.97989e-05
3.48148e-05
3.64886e-05
3.57449e-05
3.33399e-05
3.00384e-05
2.6544e-05
2.33469e-05
2.06663e-05
1.85242e-05
1.68514e-05
1.55529e-05
1.45375e-05
1.37288e-05
1.30704e-05
1.2529e-05
1.2075e-05
1.16483e-05
1.11838e-05
1.06416e-05
1.0004e-05
9.2544e-06
8.38136e-06
7.44664e-06
6.68112e-06
6.57703e-06
8.16725e-06
8.97949e-06
2.09485e-06
9.09341e-08
3.4857e-08
2.36103e-06
5.8568e-06
1.21992e-05
2.18359e-05
3.07684e-05
3.55606e-05
3.67992e-05
3.55164e-05
3.25891e-05
2.89057e-05
2.5218e-05
2.19753e-05
1.9324e-05
1.72363e-05
1.56208e-05
1.43784e-05
1.34247e-05
1.26943e-05
1.21484e-05
1.17711e-05
1.15192e-05
1.1291e-05
1.0972e-05
1.04754e-05
9.76771e-06
8.87458e-06
7.87955e-06
6.93655e-06
6.299e-06
6.42512e-06
8.34405e-06
8.58646e-06
2.07346e-06
9.77567e-08
3.91871e-08
2.39243e-06
5.9425e-06
1.2468e-05
2.24354e-05
3.14714e-05
3.60428e-05
3.69166e-05
3.52304e-05
3.19606e-05
2.80631e-05
2.42894e-05
2.10399e-05
1.84114e-05
1.63428e-05
1.47332e-05
1.34899e-05
1.25383e-05
1.1827e-05
1.13367e-05
1.10711e-05
1.09755e-05
1.09213e-05
1.07512e-05
1.03285e-05
9.59545e-06
8.60908e-06
7.53086e-06
6.58339e-06
6.03193e-06
6.31432e-06
8.45588e-06
8.20984e-06
2.05507e-06
1.04711e-07
4.29955e-08
2.41567e-06
6.00082e-06
1.26447e-05
2.28131e-05
3.18749e-05
3.62569e-05
3.68517e-05
3.48737e-05
3.13776e-05
2.73646e-05
2.35702e-05
2.03461e-05
1.77489e-05
1.56996e-05
1.40917e-05
1.2836e-05
1.18695e-05
1.11543e-05
1.069e-05
1.04981e-05
1.05147e-05
1.05951e-05
1.05507e-05
1.02027e-05
9.46899e-06
8.42824e-06
7.29886e-06
6.35238e-06
5.86336e-06
6.2611e-06
8.56791e-06
7.85433e-06
2.03785e-06
1.1169e-07
4.72443e-08
2.44131e-06
6.06627e-06
1.28439e-05
2.3218e-05
3.22642e-05
3.64327e-05
3.67685e-05
3.4556e-05
3.09051e-05
2.68319e-05
2.30424e-05
1.98451e-05
1.72681e-05
1.5222e-05
1.36007e-05
1.23193e-05
1.13205e-05
1.05809e-05
1.01178e-05
9.96582e-06
1.00564e-05
1.02381e-05
1.03011e-05
1.00324e-05
9.32681e-06
8.27412e-06
7.13062e-06
6.19832e-06
5.76034e-06
6.24938e-06
8.68402e-06
7.5348e-06
2.02279e-06
1.18528e-07
5.12499e-08
2.46361e-06
6.12245e-06
1.30068e-05
2.35264e-05
3.25324e-05
3.6518e-05
3.66431e-05
3.42502e-05
3.04956e-05
2.64018e-05
2.26409e-05
1.94821e-05
1.693e-05
1.48879e-05
1.32517e-05
1.19417e-05
1.09085e-05
1.0136e-05
9.65649e-06
9.51714e-06
9.64645e-06
9.89087e-06
1.00295e-05
9.82787e-06
9.16334e-06
8.12896e-06
7.00063e-06
6.09675e-06
5.7082e-06
6.27895e-06
8.82307e-06
7.25053e-06
2.0102e-06
1.25118e-07
5.55814e-08
2.48789e-06
6.18743e-06
1.32003e-05
2.38864e-05
3.28292e-05
3.66107e-05
3.65303e-05
3.39837e-05
3.01581e-05
2.60665e-05
2.23429e-05
1.92214e-05
1.66894e-05
1.46462e-05
1.29903e-05
1.16473e-05
1.05746e-05
9.76415e-06
9.25867e-06
9.11502e-06
9.26095e-06
9.5432e-06
9.73586e-06
9.59205e-06
8.97699e-06
7.98271e-06
6.89239e-06
6.03071e-06
5.69418e-06
6.34321e-06
8.98376e-06
7.00197e-06
2.00036e-06
1.31389e-07
5.98161e-08
2.51139e-06
6.25067e-06
1.33806e-05
2.42018e-05
3.30719e-05
3.66724e-05
3.64185e-05
3.37518e-05
2.98846e-05
2.5815e-05
2.21391e-05
1.90598e-05
1.65497e-05
1.45057e-05
1.28292e-05
1.14509e-05
1.03342e-05
9.47836e-06
8.93477e-06
8.7691e-06
8.90881e-06
9.20338e-06
9.42781e-06
9.33058e-06
8.76954e-06
7.83172e-06
6.79726e-06
5.98922e-06
5.70939e-06
6.43842e-06
9.16738e-06
6.78917e-06
1.99367e-06
1.37327e-07
6.42212e-08
2.53584e-06
6.31896e-06
1.35794e-05
2.45497e-05
3.33381e-05
3.6752e-05
3.63325e-05
3.35629e-05
2.96704e-05
2.56317e-05
2.20053e-05
1.89667e-05
1.6477e-05
1.44314e-05
1.27337e-05
1.13191e-05
1.01563e-05
9.25133e-06
8.66224e-06
8.46358e-06
8.58392e-06
8.87506e-06
9.11608e-06
9.05594e-06
8.54936e-06
7.67701e-06
6.70999e-06
5.96459e-06
5.74716e-06
6.56007e-06
9.36918e-06
6.60884e-06
1.98993e-06
1.42921e-07
6.85952e-08
2.56044e-06
6.38795e-06
1.37744e-05
2.48769e-05
3.35799e-05
3.68244e-05
3.62629e-05
3.34139e-05
2.95146e-05
2.55173e-05
2.19451e-05
1.89495e-05
1.64818e-05
1.44356e-05
1.27167e-05
1.12638e-05
1.00511e-05
9.09049e-06
8.44491e-06
8.19879e-06
8.2842e-06
8.55653e-06
8.80036e-06
8.76987e-06
8.31892e-06
7.51932e-06
6.62831e-06
5.95231e-06
5.80215e-06
6.70329e-06
9.5848e-06
6.45989e-06
1.98926e-06
1.48205e-07
7.30283e-08
2.58526e-06
6.45932e-06
1.39794e-05
2.52225e-05
3.38392e-05
3.69178e-05
3.62232e-05
3.33053e-05
2.94055e-05
2.54511e-05
2.19323e-05
1.89793e-05
1.6535e-05
1.4491e-05
1.27538e-05
1.12647e-05
1.00022e-05
8.98331e-06
8.27568e-06
7.97285e-06
8.0124e-06
8.25406e-06
8.48989e-06
8.48168e-06
8.08439e-06
7.3603e-06
6.55014e-06
5.94845e-06
5.87033e-06
6.86466e-06
9.81009e-06
6.33822e-06
1.99135e-06
1.53184e-07
7.746e-08
2.61043e-06
6.53206e-06
1.41855e-05
2.55613e-05
3.40906e-05
3.70164e-05
3.62063e-05
3.32355e-05
2.93458e-05
2.54389e-05
2.1975e-05
1.9066e-05
1.6647e-05
1.46073e-05
1.28533e-05
1.13284e-05
1.00144e-05
8.93242e-06
8.15469e-06
7.78339e-06
7.76484e-06
7.96404e-06
8.18228e-06
8.1911e-06
7.84708e-06
7.20077e-06
6.47443e-06
5.95024e-06
5.94772e-06
7.03916e-06
1.00399e-05
6.24153e-06
1.99603e-06
1.57904e-07
8.18892e-08
2.63533e-06
6.60583e-06
1.43985e-05
2.59134e-05
3.43578e-05
3.71367e-05
3.62174e-05
3.31976e-05
2.93182e-05
2.54568e-05
2.2047e-05
1.91835e-05
1.67937e-05
1.4764e-05
1.29992e-05
1.1443e-05
1.00797e-05
8.93388e-06
8.08166e-06
7.63374e-06
7.54773e-06
7.6946e-06
7.886e-06
7.90488e-06
7.61065e-06
7.04184e-06
6.40042e-06
5.95554e-06
6.03177e-06
7.22423e-06
1.02716e-05
6.16632e-06
2.00301e-06
1.62376e-07
8.63336e-08
2.66041e-06
6.6809e-06
1.46156e-05
2.62694e-05
3.46302e-05
3.72719e-05
3.62541e-05
3.31936e-05
2.93281e-05
2.55132e-05
2.21578e-05
1.93411e-05
1.69833e-05
1.49668e-05
1.31947e-05
1.16099e-05
1.01978e-05
8.9859e-06
8.05415e-06
7.52035e-06
7.35725e-06
7.44262e-06
7.5993e-06
7.62271e-06
7.37527e-06
6.88293e-06
6.327e-06
5.96281e-06
6.11979e-06
7.41593e-06
1.05015e-05
6.10983e-06
2.01201e-06
1.66638e-07
9.07465e-08
2.68476e-06
6.75572e-06
1.48375e-05
2.66392e-05
3.49243e-05
3.74334e-05
3.63159e-05
3.32103e-05
2.93548e-05
2.55844e-05
2.22842e-05
1.95181e-05
1.71982e-05
1.52024e-05
1.34307e-05
1.18238e-05
1.03667e-05
9.08928e-06
8.07502e-06
7.44787e-06
7.19957e-06
7.21504e-06
7.32881e-06
7.3496e-06
7.14364e-06
6.72441e-06
6.25256e-06
5.96991e-06
6.21011e-06
7.61284e-06
1.07297e-05
6.0697e-06
2.0228e-06
1.70699e-07
9.51821e-08
2.70896e-06
6.83074e-06
1.50622e-05
2.70136e-05
3.52186e-05
3.76026e-05
3.63955e-05
3.32477e-05
2.94035e-05
2.56787e-05
2.24349e-05
1.97211e-05
1.74422e-05
1.54717e-05
1.37058e-05
1.20817e-05
1.05829e-05
9.24021e-06
8.14039e-06
7.41273e-06
7.07172e-06
7.00994e-06
7.07394e-06
7.086e-06
6.91655e-06
6.56681e-06
6.17682e-06
5.97513e-06
6.29984e-06
7.81032e-06
1.09498e-05
6.04187e-06
2.03487e-06
1.74584e-07
9.95696e-08
2.73223e-06
6.90411e-06
1.52837e-05
2.73786e-05
3.54976e-05
3.77593e-05
3.64712e-05
3.32861e-05
2.94553e-05
2.57774e-05
2.25925e-05
1.99357e-05
1.77043e-05
1.57672e-05
1.40158e-05
1.23825e-05
1.08477e-05
9.44194e-06
8.25467e-06
7.42053e-06
6.9797e-06
6.83318e-06
6.8397e-06
6.83545e-06
6.69574e-06
6.41035e-06
6.09912e-06
5.9772e-06
6.38723e-06
8.00932e-06
1.11723e-05
6.02641e-06
2.04818e-06
1.78302e-07
1.03982e-07
2.75548e-06
6.97837e-06
1.5508e-05
2.77385e-05
3.57676e-05
3.79102e-05
3.6546e-05
3.33372e-05
2.95204e-05
2.58878e-05
2.27619e-05
2.01639e-05
1.79837e-05
1.60852e-05
1.43549e-05
1.27198e-05
1.11551e-05
9.68962e-06
8.41444e-06
7.46935e-06
6.92258e-06
6.68499e-06
6.62734e-06
6.59974e-06
6.48293e-06
6.25625e-06
6.02015e-06
5.97657e-06
6.47247e-06
8.20816e-06
1.13931e-05
6.02328e-06
2.06261e-06
1.81862e-07
1.08339e-07
2.77762e-06
7.05144e-06
1.57338e-05
2.80848e-05
3.60206e-05
3.80447e-05
3.66052e-05
3.33752e-05
2.95758e-05
2.59927e-05
2.29308e-05
2.03973e-05
1.82748e-05
1.64228e-05
1.47226e-05
1.30945e-05
1.15076e-05
9.98677e-06
8.62401e-06
7.56437e-06
6.90562e-06
6.57023e-06
6.441e-06
6.38195e-06
6.27991e-06
6.10511e-06
5.93951e-06
5.97196e-06
6.55364e-06
8.40552e-06
1.161e-05
6.03083e-06
2.07824e-06
1.85272e-07
1.12703e-07
2.79892e-06
7.12201e-06
1.59545e-05
2.8422e-05
3.62611e-05
3.81683e-05
3.66568e-05
3.34095e-05
2.96318e-05
2.60997e-05
2.31019e-05
2.0634e-05
1.85726e-05
1.67727e-05
1.511e-05
1.34978e-05
1.18973e-05
1.03278e-05
8.88045e-06
7.70535e-06
6.92984e-06
6.49076e-06
6.28305e-06
6.18456e-06
6.08884e-06
5.95845e-06
5.8582e-06
5.96428e-06
6.63261e-06
8.60508e-06
1.18248e-05
6.04684e-06
2.09488e-06
1.88549e-07
1.17015e-07
2.81946e-06
7.19104e-06
1.61712e-05
2.8747e-05
3.64852e-05
3.82753e-05
3.66912e-05
3.34275e-05
2.96784e-05
2.61988e-05
2.32672e-05
2.08694e-05
1.88754e-05
1.7135e-05
1.55184e-05
1.39314e-05
1.23265e-05
1.07156e-05
9.1876e-06
7.89741e-06
7.00005e-06
6.45077e-06
6.15706e-06
6.01038e-06
5.91163e-06
5.81736e-06
5.77669e-06
5.95372e-06
6.709e-06
8.80446e-06
1.20379e-05
6.07022e-06
2.11242e-06
1.91697e-07
1.21331e-07
2.83944e-06
7.25879e-06
1.63859e-05
2.90642e-05
3.66961e-05
3.83678e-05
3.6711e-05
3.34317e-05
2.97149e-05
2.62882e-05
2.34237e-05
2.10987e-05
1.91759e-05
1.75006e-05
1.59376e-05
1.43851e-05
1.27862e-05
1.11436e-05
9.54234e-06
8.14105e-06
7.11836e-06
6.4532e-06
6.06632e-06
5.86266e-06
5.75114e-06
5.68399e-06
5.69637e-06
5.94094e-06
6.78254e-06
9.00207e-06
1.22479e-05
6.09908e-06
2.13055e-06
1.94723e-07
1.25599e-07
2.85882e-06
7.32512e-06
1.65964e-05
2.93689e-05
3.68898e-05
3.84418e-05
3.67114e-05
3.34159e-05
2.97323e-05
2.63622e-05
2.35695e-05
2.1322e-05
1.94757e-05
1.78716e-05
1.63695e-05
1.48604e-05
1.32771e-05
1.16124e-05
9.94558e-06
8.43808e-06
7.28736e-06
6.50118e-06
6.01402e-06
5.74433e-06
5.60973e-06
5.55993e-06
5.618e-06
5.92576e-06
6.85201e-06
9.19577e-06
1.24539e-05
6.13243e-06
2.14912e-06
1.97635e-07
1.29867e-07
2.87795e-06
7.391e-06
1.68056e-05
2.96657e-05
3.70692e-05
3.84988e-05
3.66933e-05
3.33816e-05
2.9732e-05
2.64202e-05
2.37012e-05
2.15335e-05
1.97668e-05
1.82384e-05
1.68039e-05
1.53469e-05
1.37898e-05
1.2114e-05
1.03914e-05
8.7845e-06
7.50588e-06
6.59563e-06
6.00252e-06
5.65847e-06
5.49057e-06
5.44797e-06
5.54376e-06
5.90991e-06
6.91869e-06
9.38592e-06
1.26559e-05
6.16924e-06
2.16795e-06
2.00442e-07
1.34101e-07
2.89681e-06
7.45633e-06
1.7011e-05
2.99493e-05
3.72301e-05
3.85352e-05
3.66533e-05
3.33254e-05
2.97116e-05
2.64615e-05
2.38201e-05
2.17358e-05
2.00526e-05
1.86045e-05
1.72432e-05
1.58455e-05
1.43236e-05
1.26466e-05
1.08771e-05
9.17757e-06
7.77263e-06
6.73664e-06
6.033e-06
5.60706e-06
5.3959e-06
5.34992e-06
5.47442e-06
5.89253e-06
6.98001e-06
9.56958e-06
1.28527e-05
6.20885e-06
2.18694e-06
2.03154e-07
1.38334e-07
2.91567e-06
7.52266e-06
1.7214e-05
3.02226e-05
3.73742e-05
3.85514e-05
3.65909e-05
3.32464e-05
2.96695e-05
2.64835e-05
2.39216e-05
2.19227e-05
2.03254e-05
1.89611e-05
1.76781e-05
1.63469e-05
1.48694e-05
1.32016e-05
1.13956e-05
9.61145e-06
8.08428e-06
6.92304e-06
6.10603e-06
5.59206e-06
5.3286e-06
5.26898e-06
5.41314e-06
5.87739e-06
7.04156e-06
9.74869e-06
1.30451e-05
6.25061e-06
2.20597e-06
2.05776e-07
1.42524e-07
2.93387e-06
7.58826e-06
1.74117e-05
3.04815e-05
3.7498e-05
3.85453e-05
3.65056e-05
3.31455e-05
2.96079e-05
2.64898e-05
2.40102e-05
2.20989e-05
2.059e-05
1.93126e-05
1.81118e-05
1.68523e-05
1.54261e-05
1.37761e-05
1.19429e-05
1.00822e-05
8.43796e-06
7.15325e-06
6.22134e-06
5.61426e-06
5.29023e-06
5.20699e-06
5.36145e-06
5.86492e-06
7.10143e-06
9.92238e-06
1.32338e-05
6.29451e-06
2.22502e-06
2.08319e-07
1.4666e-07
2.95082e-06
7.65046e-06
1.76034e-05
3.07277e-05
3.76033e-05
3.85156e-05
3.63934e-05
3.30171e-05
2.95214e-05
2.64772e-05
2.40809e-05
2.22578e-05
2.08393e-05
1.96517e-05
1.8537e-05
1.73543e-05
1.59861e-05
1.43623e-05
1.2511e-05
1.05826e-05
8.82853e-06
7.42422e-06
6.37785e-06
5.67445e-06
5.28306e-06
5.16713e-06
5.32271e-06
5.85798e-06
7.16154e-06
1.00925e-05
1.34193e-05
6.33995e-06
2.24398e-06
2.10784e-07
1.50775e-07
2.96732e-06
7.7119e-06
1.77945e-05
3.09665e-05
3.76926e-05
3.84674e-05
3.62631e-05
3.28713e-05
2.94152e-05
2.64432e-05
2.41327e-05
2.24022e-05
2.10776e-05
1.99826e-05
1.89568e-05
1.78544e-05
1.65491e-05
1.49578e-05
1.30961e-05
1.1108e-05
9.25133e-06
7.73202e-06
6.57289e-06
5.77145e-06
5.30739e-06
5.1507e-06
5.29855e-06
5.8578e-06
7.2223e-06
1.0259e-05
1.36026e-05
6.38713e-06
2.26289e-06
2.13179e-07
1.54857e-07
2.98276e-06
7.77108e-06
1.79815e-05
3.11925e-05
3.77626e-05
3.83953e-05
3.61053e-05
3.26974e-05
2.92844e-05
2.6389e-05
2.41652e-05
2.25266e-05
2.12986e-05
2.02996e-05
1.93655e-05
1.83469e-05
1.71089e-05
1.55561e-05
1.36912e-05
1.16516e-05
9.70067e-06
8.07225e-06
6.80355e-06
5.90412e-06
5.36392e-06
5.15996e-06
5.29203e-06
5.86754e-06
7.28665e-06
1.04243e-05
1.37842e-05
6.43548e-06
2.28165e-06
2.15502e-07
1.58929e-07
2.99801e-06
7.8303e-06
1.81692e-05
3.14099e-05
3.78153e-05
3.83031e-05
3.59273e-05
3.25045e-05
2.91351e-05
2.63169e-05
2.41827e-05
2.26388e-05
2.15058e-05
2.06039e-05
1.97649e-05
1.88327e-05
1.76649e-05
1.61546e-05
1.42921e-05
1.22083e-05
1.01709e-05
8.43959e-06
7.06537e-06
6.06927e-06
5.45117e-06
5.19515e-06
5.30468e-06
5.88932e-06
7.35668e-06
1.05905e-05
1.39662e-05
6.48539e-06
2.30033e-06
2.17759e-07
1.62965e-07
3.01225e-06
7.88732e-06
1.83524e-05
3.16141e-05
3.78479e-05
3.81865e-05
3.57225e-05
3.22848e-05
2.89608e-05
2.62218e-05
2.41794e-05
2.27329e-05
2.16987e-05
2.0894e-05
2.01509e-05
1.93078e-05
1.82131e-05
1.67487e-05
1.48936e-05
1.27721e-05
1.06567e-05
8.82923e-06
7.35436e-06
6.26408e-06
5.56773e-06
5.25649e-06
5.33824e-06
5.92601e-06
7.43604e-06
1.07612e-05
1.41491e-05
6.53652e-06
2.31891e-06
2.19944e-07
1.66996e-07
3.02632e-06
7.94458e-06
1.85365e-05
3.181e-05
3.78639e-05
3.80498e-05
3.54974e-05
3.20465e-05
2.87695e-05
2.61108e-05
2.41616e-05
2.28133e-05
2.1879e-05
2.11734e-05
2.05258e-05
1.97722e-05
1.87521e-05
1.73359e-05
1.54917e-05
1.33382e-05
1.11523e-05
9.2359e-06
7.66595e-06
6.48489e-06
5.71103e-06
5.34262e-06
5.39262e-06
5.97866e-06
7.52669e-06
1.09388e-05
1.43345e-05
6.58903e-06
2.33741e-06
2.22057e-07
1.70992e-07
3.03965e-06
8.00036e-06
1.87174e-05
3.1993e-05
3.786e-05
3.78896e-05
3.52473e-05
3.1784e-05
2.85556e-05
2.5979e-05
2.41246e-05
2.2876e-05
2.20428e-05
2.14379e-05
2.08876e-05
2.02233e-05
1.92788e-05
1.79125e-05
1.6082e-05
1.39014e-05
1.16528e-05
9.65478e-06
7.99611e-06
6.72883e-06
5.87961e-06
5.4535e-06
5.46902e-06
6.04951e-06
7.63182e-06
1.11271e-05
1.45229e-05
6.64264e-06
2.35582e-06
2.24088e-07
1.74968e-07
3.05275e-06
8.05614e-06
1.88986e-05
3.21674e-05
3.78402e-05
3.77104e-05
3.49782e-05
3.15046e-05
2.8327e-05
2.58335e-05
2.40747e-05
2.2926e-05
2.21938e-05
2.16892e-05
2.12364e-05
2.06617e-05
1.97913e-05
1.84755e-05
1.66605e-05
1.44568e-05
1.21524e-05
1.00801e-05
8.33948e-06
6.99154e-06
6.07045e-06
5.58763e-06
5.56729e-06
6.13953e-06
7.75335e-06
1.13284e-05
1.47155e-05
6.69769e-06
2.37422e-06
2.26041e-07
1.78889e-07
3.06515e-06
8.11054e-06
1.90768e-05
3.23291e-05
3.7801e-05
3.75086e-05
3.46864e-05
3.12045e-05
2.80796e-05
2.56706e-05
2.40087e-05
2.29604e-05
2.23293e-05
2.19252e-05
2.15698e-05
2.10849e-05
2.02887e-05
1.90218e-05
1.72244e-05
1.50013e-05
1.26472e-05
1.05074e-05
8.69152e-06
7.2688e-06
6.28031e-06
5.74319e-06
5.68731e-06
6.25022e-06
7.89426e-06
1.15467e-05
1.49135e-05
6.75424e-06
2.39268e-06
2.27919e-07
1.82769e-07
3.07727e-06
8.16471e-06
1.92545e-05
3.24812e-05
3.77463e-05
3.72892e-05
3.4378e-05
3.08906e-05
2.78209e-05
2.54975e-05
2.39324e-05
2.29839e-05
2.24527e-05
2.21475e-05
2.18882e-05
2.14918e-05
2.07687e-05
1.95501e-05
1.77683e-05
1.55297e-05
1.31331e-05
1.09329e-05
9.0481e-06
7.5564e-06
6.50529e-06
5.91709e-06
5.82715e-06
6.38095e-06
8.05521e-06
1.17832e-05
1.51173e-05
6.81262e-06
2.41127e-06
2.29737e-07
1.86574e-07
3.08871e-06
8.21746e-06
1.94288e-05
3.26201e-05
3.76728e-05
3.7049e-05
3.40499e-05
3.05601e-05
2.75481e-05
2.53115e-05
2.38441e-05
2.29951e-05
2.25629e-05
2.23556e-05
2.2191e-05
2.18816e-05
2.12304e-05
2.00591e-05
1.82936e-05
1.60405e-05
1.36069e-05
1.1353e-05
9.40572e-06
7.85091e-06
6.74216e-06
6.10673e-06
5.98526e-06
6.53154e-06
8.23731e-06
1.20397e-05
1.5327e-05
6.87278e-06
2.43002e-06
2.315e-07
1.90314e-07
3.0998e-06
8.26968e-06
1.96016e-05
3.27486e-05
3.75842e-05
3.67927e-05
3.37078e-05
3.02191e-05
2.72674e-05
2.51187e-05
2.37487e-05
2.29979e-05
2.26627e-05
2.25506e-05
2.24779e-05
2.22527e-05
2.16707e-05
2.05453e-05
1.87964e-05
1.65322e-05
1.40674e-05
1.17657e-05
9.76195e-06
8.14953e-06
6.98795e-06
6.30916e-06
6.15903e-06
6.70008e-06
8.4397e-06
1.23161e-05
1.55425e-05
6.93481e-06
2.44901e-06
2.3322e-07
1.93954e-07
3.11016e-06
8.32016e-06
1.97699e-05
3.28632e-05
3.74775e-05
3.65171e-05
3.33486e-05
2.9865e-05
2.69767e-05
2.49174e-05
2.36453e-05
2.29923e-05
2.27525e-05
2.27335e-05
2.27502e-05
2.26063e-05
2.20907e-05
2.10087e-05
1.92759e-05
1.70032e-05
1.45129e-05
1.21697e-05
1.0115e-05
8.45013e-06
7.24042e-06
6.52229e-06
6.34688e-06
6.88564e-06
8.66202e-06
1.26122e-05
1.57627e-05
6.99833e-06
2.46817e-06
2.34899e-07
1.97505e-07
3.12005e-06
8.36963e-06
1.99355e-05
3.29666e-05
3.73558e-05
3.6226e-05
3.29766e-05
2.95024e-05
2.66807e-05
2.47121e-05
2.35381e-05
2.29815e-05
2.28348e-05
2.29058e-05
2.3008e-05
2.29415e-05
2.24884e-05
2.14472e-05
1.97301e-05
1.74515e-05
1.49418e-05
1.25626e-05
1.04628e-05
8.75088e-06
7.49766e-06
6.74412e-06
6.5467e-06
7.08631e-06
8.9031e-06
1.29272e-05
1.59875e-05
7.06345e-06
2.48755e-06
2.36552e-07
2.00939e-07
3.12918e-06
8.41713e-06
2.0096e-05
3.30559e-05
3.72161e-05
3.59159e-05
3.25887e-05
2.91286e-05
2.63773e-05
2.45014e-05
2.34266e-05
2.29663e-05
2.29114e-05
2.307e-05
2.32545e-05
2.32613e-05
2.28665e-05
2.18625e-05
2.01597e-05
1.78774e-05
1.53536e-05
1.29441e-05
1.08044e-05
9.05026e-06
7.75793e-06
6.9728e-06
6.75681e-06
7.30087e-06
9.16129e-06
1.32594e-05
1.62155e-05
7.12978e-06
2.50712e-06
2.3818e-07
2.04274e-07
3.13781e-06
8.4635e-06
2.02537e-05
3.31337e-05
3.70607e-05
3.55893e-05
3.21877e-05
2.87468e-05
2.60694e-05
2.42883e-05
2.33133e-05
2.29487e-05
2.29839e-05
2.32273e-05
2.34902e-05
2.35658e-05
2.32247e-05
2.22543e-05
2.05645e-05
1.82807e-05
1.57481e-05
1.33136e-05
1.11387e-05
9.3466e-06
8.01943e-06
7.20676e-06
6.97635e-06
7.52951e-06
9.43605e-06
1.36078e-05
1.64462e-05
7.1972e-06
2.52686e-06
2.39797e-07
2.07493e-07
3.14575e-06
8.50812e-06
2.04068e-05
3.31975e-05
3.68866e-05
3.52432e-05
3.1771e-05
2.83548e-05
2.57555e-05
2.40716e-05
2.3198e-05
2.29297e-05
2.30544e-05
2.33807e-05
2.37189e-05
2.38589e-05
2.35667e-05
2.26255e-05
2.09467e-05
1.86627e-05
1.6126e-05
1.36712e-05
1.14658e-05
9.6403e-06
8.28201e-06
7.44535e-06
7.20408e-06
7.77007e-06
9.72563e-06
1.39698e-05
1.66785e-05
7.26555e-06
2.54673e-06
2.41404e-07
2.10617e-07
3.15325e-06
8.55192e-06
2.05576e-05
3.32496e-05
3.66955e-05
3.48796e-05
3.13413e-05
2.79553e-05
2.5438e-05
2.38533e-05
2.30819e-05
2.29097e-05
2.31229e-05
2.35302e-05
2.39408e-05
2.41412e-05
2.38931e-05
2.29773e-05
2.13075e-05
1.90249e-05
1.64883e-05
1.40175e-05
1.17855e-05
9.93004e-06
8.54399e-06
7.68692e-06
7.43847e-06
8.02113e-06
1.00291e-05
1.43447e-05
1.69122e-05
7.33459e-06
2.56672e-06
2.43005e-07
2.13629e-07
3.16017e-06
8.5943e-06
2.07044e-05
3.32872e-05
3.64851e-05
3.44967e-05
3.08975e-05
2.75479e-05
2.51168e-05
2.36336e-05
2.29655e-05
2.28895e-05
2.31906e-05
2.36776e-05
2.4158e-05
2.44151e-05
2.42066e-05
2.33119e-05
2.16492e-05
1.93692e-05
1.68363e-05
1.43535e-05
1.20986e-05
1.02166e-05
8.80596e-06
7.93097e-06
7.67822e-06
8.28083e-06
1.03443e-05
1.47298e-05
1.71456e-05
7.40398e-06
2.58675e-06
2.44595e-07
2.16544e-07
3.16668e-06
8.63584e-06
2.08484e-05
3.33117e-05
3.62568e-05
3.40968e-05
3.04426e-05
2.71354e-05
2.47941e-05
2.3414e-05
2.28491e-05
2.28685e-05
2.32563e-05
2.38216e-05
2.43698e-05
2.46804e-05
2.45076e-05
2.36305e-05
2.19734e-05
1.96973e-05
1.71716e-05
1.46802e-05
1.24057e-05
1.05e-05
9.06753e-06
8.17745e-06
7.92319e-06
8.54876e-06
1.06704e-05
1.51239e-05
1.73787e-05
7.47359e-06
2.6068e-06
2.46171e-07
2.19341e-07
3.17256e-06
8.67572e-06
2.09873e-05
3.33206e-05
3.60093e-05
3.36796e-05
2.9977e-05
2.67183e-05
2.44706e-05
2.31967e-05
2.27342e-05
2.28471e-05
2.33204e-05
2.39624e-05
2.45765e-05
2.49378e-05
2.47972e-05
2.39345e-05
2.22819e-05
2.00113e-05
1.74957e-05
1.49988e-05
1.27075e-05
1.07808e-05
9.32861e-06
8.42541e-06
8.17145e-06
8.82323e-06
1.10058e-05
1.55253e-05
1.76099e-05
7.54294e-06
2.6268e-06
2.47724e-07
2.22022e-07
3.17785e-06
8.71396e-06
2.11212e-05
3.33146e-05
3.5744e-05
3.32471e-05
2.95031e-05
2.62991e-05
2.41476e-05
2.29814e-05
2.262e-05
2.28247e-05
2.33817e-05
2.4099e-05
2.47768e-05
2.51863e-05
2.50751e-05
2.42248e-05
2.25764e-05
2.03136e-05
1.78105e-05
1.53105e-05
1.3005e-05
1.10597e-05
9.59007e-06
8.67601e-06
8.42485e-06
9.10436e-06
1.13498e-05
1.59322e-05
1.78391e-05
7.61221e-06
2.64672e-06
2.49258e-07
2.24566e-07
3.18232e-06
8.7497e-06
2.12479e-05
3.32922e-05
3.54599e-05
3.27987e-05
2.9021e-05
2.58784e-05
2.38268e-05
2.27693e-05
2.25085e-05
2.28037e-05
2.34422e-05
2.42322e-05
2.4971e-05
2.54259e-05
2.53414e-05
2.45022e-05
2.28591e-05
2.06073e-05
1.81179e-05
1.56164e-05
1.32987e-05
1.13367e-05
9.85166e-06
8.92861e-06
8.68226e-06
9.39195e-06
1.17018e-05
1.6344e-05
1.80658e-05
7.68098e-06
2.6668e-06
2.50768e-07
2.26977e-07
3.18598e-06
8.78294e-06
2.13677e-05
3.32545e-05
3.51576e-05
3.23349e-05
2.85311e-05
2.54565e-05
2.35084e-05
2.25611e-05
2.24008e-05
2.27851e-05
2.35031e-05
2.43629e-05
2.51598e-05
2.56569e-05
2.55969e-05
2.47682e-05
2.31328e-05
2.08967e-05
1.84211e-05
1.59186e-05
1.35899e-05
1.16128e-05
1.01138e-05
9.18328e-06
8.94353e-06
9.68557e-06
1.20609e-05
1.67593e-05
1.82903e-05
7.74971e-06
2.68699e-06
2.52262e-07
2.29248e-07
3.18874e-06
8.81331e-06
2.14801e-05
3.32005e-05
3.48355e-05
3.18538e-05
2.80319e-05
2.50327e-05
2.31929e-05
2.23586e-05
2.22998e-05
2.27725e-05
2.35679e-05
2.44944e-05
2.53454e-05
2.58809e-05
2.58424e-05
2.50234e-05
2.33984e-05
2.1183e-05
1.87212e-05
1.6218e-05
1.38793e-05
1.18884e-05
1.03767e-05
9.44008e-06
9.20855e-06
9.98506e-06
1.24273e-05
1.71772e-05
1.85116e-05
7.81793e-06
2.7071e-06
2.53737e-07
2.31399e-07
3.1907e-06
8.8413e-06
2.15867e-05
3.31314e-05
3.44926e-05
3.13536e-05
2.75219e-05
2.46057e-05
2.28791e-05
2.21612e-05
2.2206e-05
2.2768e-05
2.36398e-05
2.46304e-05
2.55316e-05
2.6101e-05
2.60801e-05
2.52695e-05
2.36565e-05
2.14659e-05
1.90184e-05
1.65154e-05
1.41679e-05
1.21643e-05
1.06408e-05
9.69907e-06
9.47699e-06
1.02897e-05
1.28e-05
1.75976e-05
1.87306e-05
7.88636e-06
2.72724e-06
2.5521e-07
2.33441e-07
3.19192e-06
8.86707e-06
2.16877e-05
3.30462e-05
3.41265e-05
3.0832e-05
2.69991e-05
2.4174e-05
2.25664e-05
2.19691e-05
2.21208e-05
2.27739e-05
2.37223e-05
2.4775e-05
2.57224e-05
2.63207e-05
2.63128e-05
2.55077e-05
2.39072e-05
2.17438e-05
1.93114e-05
1.681e-05
1.44555e-05
1.2441e-05
1.09073e-05
9.96142e-06
9.74976e-06
1.05997e-05
1.31784e-05
1.80193e-05
1.8948e-05
7.95471e-06
2.74734e-06
2.5668e-07
2.35396e-07
3.19258e-06
8.89127e-06
2.17849e-05
3.29448e-05
3.37356e-05
3.02876e-05
2.64627e-05
2.37365e-05
2.22534e-05
2.17811e-05
2.20436e-05
2.2791e-05
2.38176e-05
2.49317e-05
2.59222e-05
2.65446e-05
2.65447e-05
2.57415e-05
2.41524e-05
2.20169e-05
1.96001e-05
1.71015e-05
1.47419e-05
1.27184e-05
1.11761e-05
1.02273e-05
1.00272e-05
1.09155e-05
1.35628e-05
1.84423e-05
1.9164e-05
8.02331e-06
2.76747e-06
2.58148e-07
2.37274e-07
3.1927e-06
8.91399e-06
2.1878e-05
3.28259e-05
3.33181e-05
2.97195e-05
2.59124e-05
2.32932e-05
2.19395e-05
2.15964e-05
2.19736e-05
2.28191e-05
2.39265e-05
2.51026e-05
2.61343e-05
2.67765e-05
2.67794e-05
2.59744e-05
2.43949e-05
2.22865e-05
1.9885e-05
1.73901e-05
1.50271e-05
1.29968e-05
1.14475e-05
1.04973e-05
1.03096e-05
1.12373e-05
1.39529e-05
1.88656e-05
1.93785e-05
8.09205e-06
2.78762e-06
2.59615e-07
2.39089e-07
3.19239e-06
8.93549e-06
2.19675e-05
3.26886e-05
3.2873e-05
2.91279e-05
2.53492e-05
2.28443e-05
2.16244e-05
2.14138e-05
2.19095e-05
2.28568e-05
2.40486e-05
2.52886e-05
2.6361e-05
2.702e-05
2.70215e-05
2.62106e-05
2.46385e-05
2.25547e-05
2.01667e-05
1.76754e-05
1.531e-05
1.32745e-05
1.17203e-05
1.07704e-05
1.05972e-05
1.15658e-05
1.43497e-05
1.92902e-05
1.95917e-05
8.1611e-06
2.80784e-06
2.61084e-07
2.40838e-07
3.19156e-06
8.95545e-06
2.20523e-05
3.25317e-05
3.23998e-05
2.8514e-05
2.47745e-05
2.23913e-05
2.13089e-05
2.12334e-05
2.18501e-05
2.29027e-05
2.41822e-05
2.54888e-05
2.66024e-05
2.72765e-05
2.72737e-05
2.64546e-05
2.48883e-05
2.28251e-05
2.04478e-05
1.79591e-05
1.55918e-05
1.35521e-05
1.19943e-05
1.10464e-05
1.08891e-05
1.19002e-05
1.47523e-05
1.9715e-05
1.98031e-05
8.23022e-06
2.82809e-06
2.62552e-07
2.4253e-07
3.19025e-06
8.97392e-06
2.21325e-05
3.23545e-05
3.18982e-05
2.78789e-05
2.419e-05
2.19352e-05
2.0994e-05
2.10552e-05
2.17947e-05
2.29552e-05
2.4326e-05
2.57021e-05
2.68585e-05
2.75473e-05
2.75386e-05
2.671e-05
2.51488e-05
2.31002e-05
2.0729e-05
1.82408e-05
1.58714e-05
1.38286e-05
1.22691e-05
1.13251e-05
1.11859e-05
1.22416e-05
1.51619e-05
2.01414e-05
2.00132e-05
8.29958e-06
2.84844e-06
2.6402e-07
2.44164e-07
3.18841e-06
8.99069e-06
2.22074e-05
3.21561e-05
3.13684e-05
2.72244e-05
2.35975e-05
2.14775e-05
2.06818e-05
2.088e-05
2.17426e-05
2.30131e-05
2.4478e-05
2.59267e-05
2.71276e-05
2.78317e-05
2.78169e-05
2.69795e-05
2.54242e-05
2.3384e-05
2.10138e-05
1.85231e-05
1.61505e-05
1.41048e-05
1.25441e-05
1.16052e-05
1.14858e-05
1.2588e-05
1.55771e-05
2.05681e-05
2.02214e-05
8.36888e-06
2.86882e-06
2.65487e-07
2.45756e-07
3.18612e-06
9.0061e-06
2.22778e-05
3.1936e-05
3.08105e-05
2.65523e-05
2.29986e-05
2.10185e-05
2.03728e-05
2.07075e-05
2.16935e-05
2.3076e-05
2.46382e-05
2.61621e-05
2.74093e-05
2.81288e-05
2.81075e-05
2.72613e-05
2.57119e-05
2.36745e-05
2.13008e-05
1.88054e-05
1.6429e-05
1.43806e-05
1.28202e-05
1.18887e-05
1.17925e-05
1.2941e-05
1.59986e-05
2.09957e-05
2.04281e-05
8.43835e-06
2.88931e-06
2.6696e-07
2.47314e-07
3.18345e-06
9.02031e-06
2.23434e-05
3.1693e-05
3.02253e-05
2.58657e-05
2.23962e-05
2.05591e-05
2.00627e-05
2.05342e-05
2.16457e-05
2.31432e-05
2.48056e-05
2.64077e-05
2.77031e-05
2.84389e-05
2.84112e-05
2.75561e-05
2.60118e-05
2.39723e-05
2.15911e-05
1.90886e-05
1.67073e-05
1.46564e-05
1.3097e-05
1.21748e-05
1.21039e-05
1.32997e-05
1.64252e-05
2.14231e-05
2.06327e-05
8.50763e-06
2.90983e-06
2.68432e-07
2.48853e-07
3.18057e-06
9.03368e-06
2.24045e-05
3.1427e-05
2.9615e-05
2.51686e-05
2.1794e-05
2.01024e-05
1.97549e-05
2.03626e-05
2.16001e-05
2.32142e-05
2.49794e-05
2.66618e-05
2.8007e-05
2.87595e-05
2.87253e-05
2.78612e-05
2.63203e-05
2.42749e-05
2.18833e-05
1.93721e-05
1.69854e-05
1.49324e-05
1.33752e-05
1.24639e-05
1.24203e-05
1.36649e-05
1.68579e-05
2.18508e-05
2.08352e-05
8.57678e-06
2.93041e-06
2.69903e-07