/*--------------------------------*- C++ -*----------------------------------*\
| =========                 |                                                 |
| \\      /  F ield         | OpenFOAM: The Open Source CFD Toolbox           |
|  \\    /   O peration     | Version:  v2006                                 |
|   \\  /    A nd           | Website:  www.openfoam.com                      |
|    \\/     M anipulation  |                                                 |
\*---------------------------------------------------------------------------*/
FoamFile
{
    version     2.0;
    format      ascii;
    class       volScalarField;
    location    "98";
    object      nut;
}
// * * * * * * * * * * * * * * * * * * * * * * * * * * * * * * * * * * * * * //

dimensions      [0 2 -1 0 0 0 0];


internalField   nonuniform List<scalar> 
78750
(
1.91276e-09
3.55075e-07
6.68662e-07
9.85288e-07
1.29752e-06
1.59816e-06
1.881e-06
2.14145e-06
2.37662e-06
2.58503e-06
2.76616e-06
2.92008e-06
3.04719e-06
3.14808e-06
3.22288e-06
3.27213e-06
3.29643e-06
3.29636e-06
3.27238e-06
3.22499e-06
3.15462e-06
3.06213e-06
2.94736e-06
2.81027e-06
2.65178e-06
2.47277e-06
2.27426e-06
2.0571e-06
1.82249e-06
1.57072e-06
1.29999e-06
1.00769e-06
7.00951e-07
4.09187e-07
6.50949e-09
3.34177e-09
2.60166e-06
5.13122e-06
7.14761e-06
8.85051e-06
1.04533e-05
1.20061e-05
1.34935e-05
1.49001e-05
1.62267e-05
1.74838e-05
1.86832e-05
1.98584e-05
2.10238e-05
2.1363e-05
2.13869e-05
2.12896e-05
2.10783e-05
2.07597e-05
2.03393e-05
1.98218e-05
1.92104e-05
1.85049e-05
1.77044e-05
1.68085e-05
1.58172e-05
1.44648e-05
1.25576e-05
1.05923e-05
8.48135e-06
6.14993e-06
4.06233e-06
2.98926e-06
1.85481e-06
2.20057e-08
5.21028e-09
2.00392e-06
4.12955e-06
6.40816e-06
8.84721e-06
1.13932e-05
1.38843e-05
1.61493e-05
1.80911e-05
1.96839e-05
2.09348e-05
2.18576e-05
2.24671e-05
2.27831e-05
2.28187e-05
2.25733e-05
2.20576e-05
2.1305e-05
2.03698e-05
1.93213e-05
1.82355e-05
1.71821e-05
1.62134e-05
1.53695e-05
1.46587e-05
1.40246e-05
1.33358e-05
1.23981e-05
1.09931e-05
8.98236e-06
6.63357e-06
4.90034e-06
4.71151e-06
1.9679e-06
3.62958e-08
8.73573e-09
1.84333e-06
4.03524e-06
6.94953e-06
1.06322e-05
1.46517e-05
1.82744e-05
2.10795e-05
2.30502e-05
2.42972e-05
2.49251e-05
2.5023e-05
2.46776e-05
2.39792e-05
2.30211e-05
2.1891e-05
2.06634e-05
1.93956e-05
1.81263e-05
1.68831e-05
1.56933e-05
1.45958e-05
1.36388e-05
1.28655e-05
1.23003e-05
1.19203e-05
1.16054e-05
1.10983e-05
1.00631e-05
8.36601e-06
6.4836e-06
5.45309e-06
6.28799e-06
1.88946e-06
4.86001e-08
1.27871e-08
1.8348e-06
4.23591e-06
7.8834e-06
1.29282e-05
1.83308e-05
2.2634e-05
2.54442e-05
2.69678e-05
2.74309e-05
2.70384e-05
2.60067e-05
2.45638e-05
2.29253e-05
2.12642e-05
1.96916e-05
1.82567e-05
1.69629e-05
1.57879e-05
1.47023e-05
1.36865e-05
1.27452e-05
1.19105e-05
1.12248e-05
1.07206e-05
1.03919e-05
1.01398e-05
9.72802e-06
8.86391e-06
7.5187e-06
6.22952e-06
5.96518e-06
7.38254e-06
1.82465e-06
5.7742e-08
1.73786e-08
1.85413e-06
4.43575e-06
8.70093e-06
1.49041e-05
2.1281e-05
2.57222e-05
2.80558e-05
2.8761e-05
2.82353e-05
2.68325e-05
2.49074e-05
2.27939e-05
2.0756e-05
1.8937e-05
1.7379e-05
1.60697e-05
1.49625e-05
1.39994e-05
1.31274e-05
1.2313e-05
1.15478e-05
1.0846e-05
1.02323e-05
9.73091e-06
9.34021e-06
8.98745e-06
8.50214e-06
7.70726e-06
6.67519e-06
5.90784e-06
6.31185e-06
7.82736e-06
1.79907e-06
6.47927e-08
2.14958e-08
1.89663e-06
4.64164e-06
9.39879e-06
1.64585e-05
2.33835e-05
2.77267e-05
2.95925e-05
2.95984e-05
2.82418e-05
2.60223e-05
2.34479e-05
2.09313e-05
1.87145e-05
1.68812e-05
1.54138e-05
1.425e-05
1.33165e-05
1.25434e-05
1.18724e-05
1.12664e-05
1.07097e-05
1.01867e-05
9.68484e-06
9.20493e-06
8.74134e-06
8.24743e-06
7.63272e-06
6.84947e-06
6.05054e-06
5.68825e-06
6.636e-06
7.75161e-06
1.77215e-06
7.07816e-08
2.55419e-08
1.93154e-06
4.77241e-06
9.84303e-06
1.74959e-05
2.47773e-05
2.89567e-05
3.03568e-05
2.97449e-05
2.77493e-05
2.50061e-05
2.21007e-05
1.94415e-05
1.72114e-05
1.54288e-05
1.40363e-05
1.29552e-05
1.21095e-05
1.14357e-05
1.08869e-05
1.04354e-05
1.00568e-05
9.70085e-06
9.3135e-06
8.8615e-06
8.33016e-06
7.70588e-06
6.97923e-06
6.20186e-06
5.56634e-06
5.48348e-06
6.81705e-06
7.507e-06
1.7553e-06
7.64285e-08
2.88978e-08
1.95901e-06
4.86318e-06
1.01359e-05
1.81517e-05
2.55869e-05
2.95813e-05
3.06199e-05
2.95595e-05
2.71291e-05
2.40674e-05
2.10007e-05
1.8303e-05
1.60968e-05
1.4359e-05
1.30139e-05
1.19792e-05
1.11847e-05
1.05759e-05
1.01205e-05
9.80568e-06
9.59515e-06
9.40441e-06
9.1381e-06
8.72399e-06
8.13432e-06
7.39058e-06
6.56244e-06
5.77828e-06
5.24949e-06
5.35879e-06
6.96761e-06
7.18183e-06
1.73828e-06
8.22057e-08
3.24883e-08
1.98517e-06
4.93475e-06
1.03604e-05
1.86523e-05
2.61748e-05
2.99864e-05
3.07219e-05
2.93258e-05
2.661e-05
2.33697e-05
2.02308e-05
1.75271e-05
1.53393e-05
1.36171e-05
1.22767e-05
1.1241e-05
1.0448e-05
9.85491e-06
9.44588e-06
9.22389e-06
9.14351e-06
9.0976e-06
8.95522e-06
8.60258e-06
7.99177e-06
7.17039e-06
6.27302e-06
5.48521e-06
5.02825e-06
5.26814e-06
7.06374e-06
6.86981e-06
1.72367e-06
8.8096e-08
3.56462e-08
2.00455e-06
4.98353e-06
1.05081e-05
1.89683e-05
2.65134e-05
3.01682e-05
3.06718e-05
2.9033e-05
2.61285e-05
2.27916e-05
1.96351e-05
1.6952e-05
1.479e-05
1.30836e-05
1.17444e-05
1.0698e-05
9.89242e-06
9.29598e-06
8.90843e-06
8.74777e-06
8.76079e-06
8.82694e-06
8.78926e-06
8.49877e-06
7.88738e-06
7.02069e-06
6.08072e-06
5.29379e-06
4.88896e-06
5.22537e-06
7.15993e-06
6.57499e-06
1.70999e-06
9.40102e-08
3.91695e-08
2.02593e-06
5.03826e-06
1.06747e-05
1.93069e-05
2.68402e-05
3.03182e-05
3.06065e-05
2.87724e-05
2.57387e-05
2.23514e-05
1.91984e-05
1.65373e-05
1.43918e-05
1.26877e-05
1.1337e-05
1.02691e-05
9.43648e-06
8.81956e-06
8.43293e-06
8.30549e-06
8.38016e-06
8.53067e-06
8.58236e-06
8.35794e-06
7.76992e-06
6.89325e-06
5.94151e-06
5.1664e-06
4.80424e-06
5.21714e-06
7.25943e-06
6.30992e-06
1.69807e-06
9.9809e-08
4.24911e-08
2.04451e-06
5.08525e-06
1.08109e-05
1.95652e-05
2.70661e-05
3.03925e-05
3.05058e-05
2.85214e-05
2.54011e-05
2.19962e-05
1.88667e-05
1.62373e-05
1.41122e-05
1.24113e-05
1.10479e-05
9.95601e-06
9.09448e-06
8.45006e-06
8.04965e-06
7.93271e-06
8.03962e-06
8.24243e-06
8.35714e-06
8.18859e-06
7.63474e-06
6.77328e-06
5.83415e-06
5.08275e-06
4.7619e-06
5.24334e-06
7.37809e-06
6.07405e-06
1.68816e-06
1.054e-07
4.60831e-08
2.06476e-06
5.13957e-06
1.09727e-05
1.98665e-05
2.73159e-05
3.0473e-05
3.04155e-05
2.8303e-05
2.51233e-05
2.17199e-05
1.8621e-05
1.60224e-05
1.39138e-05
1.22117e-05
1.08317e-05
9.71214e-06
8.8175e-06
8.14128e-06
7.71919e-06
7.59863e-06
7.7194e-06
7.95377e-06
8.11354e-06
7.99315e-06
7.48049e-06
6.6524e-06
5.74492e-06
5.0287e-06
4.75135e-06
5.29849e-06
7.51483e-06
5.86786e-06
1.68053e-06
1.10725e-07
4.9595e-08
2.08434e-06
5.19242e-06
1.11234e-05
2.01306e-05
2.75205e-05
3.05276e-05
3.03258e-05
2.81132e-05
2.48987e-05
2.15132e-05
1.84538e-05
1.589e-05
1.37994e-05
1.20964e-05
1.0699e-05
9.5498e-06
8.61838e-06
7.90418e-06
7.45024e-06
7.3113e-06
7.4269e-06
7.67158e-06
7.85786e-06
7.7763e-06
7.30864e-06
6.52756e-06
5.6666e-06
4.9951e-06
4.76516e-06
5.3795e-06
7.67075e-06
5.69141e-06
1.6755e-06
1.15771e-07
5.32482e-08
2.10472e-06
5.24948e-06
1.12896e-05
2.04217e-05
2.77447e-05
3.05969e-05
3.02574e-05
2.79591e-05
2.47232e-05
2.13631e-05
1.83447e-05
1.58146e-05
1.37407e-05
1.20362e-05
1.0621e-05
9.44126e-06
8.47121e-06
7.71599e-06
7.22403e-06
7.05757e-06
7.15704e-06
7.3989e-06
7.59906e-06
7.54843e-06
7.12616e-06
6.3996e-06
5.59482e-06
4.97557e-06
4.79782e-06
5.48261e-06
7.84191e-06
5.54199e-06
1.67292e-06
1.20528e-07
5.68756e-08
2.12523e-06
5.30711e-06
1.14525e-05
2.06957e-05
2.79485e-05
3.06602e-05
3.02026e-05
2.78381e-05
2.45963e-05
2.12704e-05
1.82969e-05
1.58023e-05
1.37466e-05
1.20414e-05
1.06083e-05
9.39652e-06
8.3847e-06
7.58294e-06
7.04379e-06
6.83773e-06
6.9081e-06
7.13432e-06
7.33688e-06
7.31099e-06
6.93508e-06
6.26913e-06
5.52768e-06
4.96632e-06
4.84486e-06
5.60379e-06
8.02465e-06
5.41871e-06
1.67289e-06
1.25023e-07
6.05523e-08
2.14591e-06
5.36672e-06
1.16239e-05
2.09849e-05
2.81668e-05
3.07409e-05
3.01726e-05
2.77506e-05
2.45082e-05
2.12178e-05
1.82885e-05
1.58292e-05
1.37928e-05
1.20892e-05
1.06407e-05
9.39858e-06
8.34514e-06
7.49461e-06
6.90363e-06
6.65023e-06
6.68238e-06
6.88307e-06
7.07901e-06
7.07173e-06
6.74054e-06
6.13752e-06
5.46345e-06
4.9641e-06
4.90291e-06
5.74015e-06
8.21551e-06
5.31818e-06
1.67516e-06
1.29263e-07
6.42278e-08
2.16688e-06
5.42747e-06
1.17961e-05
2.12684e-05
2.83784e-05
3.08259e-05
3.01615e-05
2.76953e-05
2.44611e-05
2.12101e-05
1.83263e-05
1.59036e-05
1.3888e-05
1.21878e-05
1.07252e-05
9.45303e-06
8.35643e-06
7.45321e-06
6.80366e-06
6.49312e-06
6.47682e-06
6.64214e-06
6.82346e-06
6.83042e-06
6.54364e-06
6.00544e-06
5.40126e-06
4.96659e-06
4.96867e-06
5.88753e-06
8.41014e-06
5.23849e-06
1.67958e-06
1.33284e-07
6.79013e-08
2.18763e-06
5.48907e-06
1.1974e-05
2.15631e-05
2.86032e-05
3.09288e-05
3.01736e-05
2.76666e-05
2.44407e-05
2.12275e-05
1.83885e-05
1.60035e-05
1.40123e-05
1.23202e-05
1.08484e-05
9.55002e-06
8.41213e-06
7.45548e-06
6.74368e-06
6.36918e-06
6.2966e-06
6.41832e-06
6.5773e-06
6.59268e-06
6.34743e-06
5.87383e-06
5.34045e-06
4.97199e-06
5.04e-06
6.04378e-06
8.60641e-06
5.17672e-06
1.68591e-06
1.37096e-07
7.15875e-08
2.20854e-06
5.55176e-06
1.21554e-05
2.1861e-05
2.88323e-05
3.10441e-05
3.02071e-05
2.7666e-05
2.44516e-05
2.12769e-05
1.84831e-05
1.6137e-05
1.41722e-05
1.24911e-05
1.1013e-05
9.69059e-06
8.51181e-06
7.49993e-06
6.72167e-06
6.27546e-06
6.13857e-06
6.20901e-06
6.33908e-06
6.35826e-06
6.15203e-06
5.74219e-06
5.28012e-06
4.97903e-06
5.11465e-06
6.20561e-06
8.80118e-06
5.13059e-06
1.69392e-06
1.4073e-07
7.52478e-08
2.22883e-06
5.61424e-06
1.23408e-05
2.21704e-05
2.90795e-05
3.11813e-05
3.02613e-05
2.76827e-05
2.44764e-05
2.13385e-05
1.85907e-05
1.62865e-05
1.43532e-05
1.26893e-05
1.12114e-05
9.87043e-06
8.654e-06
7.58727e-06
6.74003e-06
6.21586e-06
6.00786e-06
6.02001e-06
6.11432e-06
6.13135e-06
5.95972e-06
5.61084e-06
5.2189e-06
4.98591e-06
5.19123e-06
6.37183e-06
8.99456e-06
5.09812e-06
1.70343e-06
1.44196e-07
7.89268e-08
2.249e-06
5.67688e-06
1.25284e-05
2.24837e-05
2.9327e-05
3.13249e-05
3.03304e-05
2.77165e-05
2.45195e-05
2.14195e-05
1.87185e-05
1.64579e-05
1.45586e-05
1.29157e-05
1.14425e-05
1.0087e-05
8.83564e-06
7.71431e-06
6.79555e-06
6.18741e-06
5.90202e-06
5.84973e-06
5.90253e-06
5.91231e-06
5.77114e-06
5.48022e-06
5.15657e-06
4.99122e-06
5.26733e-06
6.53855e-06
9.18114e-06
5.07591e-06
1.71399e-06
1.47512e-07
8.25661e-08
2.2684e-06
5.73816e-06
1.27135e-05
2.27891e-05
2.95615e-05
3.14581e-05
3.03962e-05
2.77512e-05
2.45651e-05
2.15041e-05
1.88521e-05
1.66388e-05
1.47792e-05
1.31639e-05
1.17027e-05
1.03395e-05
9.05796e-06
7.8838e-06
6.89192e-06
6.19481e-06
5.82607e-06
5.70305e-06
5.70792e-06
5.7041e-06
5.58774e-06
5.3505e-06
5.09258e-06
4.99388e-06
5.34148e-06
6.70658e-06
9.3697e-06
5.06404e-06
1.7256e-06
1.50688e-07
8.62265e-08
2.28779e-06
5.80019e-06
1.29009e-05
2.30903e-05
2.97887e-05
3.15864e-05
3.04613e-05
2.77964e-05
2.46219e-05
2.15984e-05
1.89955e-05
1.68312e-05
1.50141e-05
1.3431e-05
1.19874e-05
1.06225e-05
9.31588e-06
8.09171e-06
7.02629e-06
6.23646e-06
5.77922e-06
5.58019e-06
5.53151e-06
5.50823e-06
5.41097e-06
5.22272e-06
5.02751e-06
4.99428e-06
5.41384e-06
6.87451e-06
9.55695e-06
5.0625e-06
1.73814e-06
1.5373e-07
8.98402e-08
2.30624e-06
5.86122e-06
1.30896e-05
2.33801e-05
3.00017e-05
3.17011e-05
3.05132e-05
2.78306e-05
2.46705e-05
2.16882e-05
1.91385e-05
1.70279e-05
1.52589e-05
1.37146e-05
1.22959e-05
1.09368e-05
9.61148e-06
8.34097e-06
7.20228e-06
6.31669e-06
5.7659e-06
5.4852e-06
5.37679e-06
5.32726e-06
5.24233e-06
5.09736e-06
4.96101e-06
4.99134e-06
5.4828e-06
7.04124e-06
9.74092e-06
5.0699e-06
1.75168e-06
1.56646e-07
9.34609e-08
2.324e-06
5.92018e-06
1.3274e-05
2.36625e-05
3.02042e-05
3.18067e-05
3.05589e-05
2.78619e-05
2.47196e-05
2.17797e-05
1.92834e-05
1.72274e-05
1.55093e-05
1.40084e-05
1.2621e-05
1.1275e-05
9.93825e-06
8.62696e-06
7.41747e-06
6.43533e-06
5.78696e-06
5.41966e-06
5.24572e-06
5.16327e-06
5.08362e-06
4.97572e-06
4.89392e-06
4.98583e-06
5.54995e-06
7.20986e-06
9.92309e-06
5.08439e-06
1.76608e-06
1.59449e-07
9.70375e-08
2.34114e-06
5.97787e-06
1.34552e-05
2.39347e-05
3.03932e-05
3.18984e-05
3.05902e-05
2.78794e-05
2.47609e-05
2.18647e-05
1.94234e-05
1.74259e-05
1.57639e-05
1.43126e-05
1.29637e-05
1.16386e-05
1.0298e-05
8.95204e-06
7.67506e-06
6.59667e-06
5.84645e-06
5.38706e-06
5.14131e-06
5.01862e-06
4.93644e-06
4.85868e-06
4.82665e-06
4.9779e-06
5.61494e-06
7.37836e-06
1.01039e-05
5.10507e-06
1.78122e-06
1.62144e-07
1.00618e-07
2.35781e-06
6.03449e-06
1.36346e-05
2.42005e-05
3.05712e-05
3.1978e-05
3.06094e-05
2.78855e-05
2.47938e-05
2.19415e-05
1.95562e-05
1.76192e-05
1.60167e-05
1.46196e-05
1.33154e-05
1.20191e-05
1.06834e-05
9.31085e-06
7.97248e-06
6.80113e-06
5.94612e-06
5.3899e-06
5.0663e-06
4.89603e-06
4.80318e-06
4.74806e-06
4.76035e-06
4.9681e-06
5.67756e-06
7.54544e-06
1.02822e-05
5.13033e-06
1.79686e-06
1.64736e-07
1.04158e-07
2.37398e-06
6.08993e-06
1.38106e-05
2.44559e-05
3.07348e-05
3.20422e-05
3.06123e-05
2.78749e-05
2.48107e-05
2.20054e-05
1.96799e-05
1.78077e-05
1.62689e-05
1.49313e-05
1.36779e-05
1.24177e-05
1.1095e-05
9.7038e-06
8.3105e-06
7.05026e-06
6.08817e-06
5.43078e-06
5.02339e-06
4.79795e-06
4.68581e-06
4.64518e-06
4.69565e-06
4.95629e-06
5.73678e-06
7.70926e-06
1.04571e-05
5.15937e-06
1.81287e-06
1.67232e-07
1.077e-07
2.38995e-06
6.14501e-06
1.39856e-05
2.47047e-05
3.08865e-05
3.20923e-05
3.05999e-05
2.78488e-05
2.48129e-05
2.20561e-05
1.9792e-05
1.79862e-05
1.65139e-05
1.52395e-05
1.40425e-05
1.28258e-05
1.15249e-05
1.01243e-05
8.68415e-06
7.34072e-06
6.27164e-06
5.5105e-06
5.01455e-06
4.72697e-06
4.58701e-06
4.55239e-06
4.63438e-06
4.94391e-06
5.79368e-06
7.87017e-06
1.06287e-05
5.19131e-06
1.8291e-06
1.6964e-07
1.11212e-07
2.40569e-06
6.19964e-06
1.41574e-05
2.49426e-05
3.10229e-05
3.21251e-05
3.05691e-05
2.78044e-05
2.47982e-05
2.20928e-05
1.98933e-05
1.81572e-05
1.67546e-05
1.55471e-05
1.44112e-05
1.32441e-05
1.19725e-05
1.05706e-05
9.09132e-06
7.67024e-06
6.49546e-06
5.62915e-06
5.04078e-06
4.68476e-06
4.50863e-06
4.47118e-06
4.57719e-06
4.93025e-06
5.84611e-06
8.02568e-06
1.0796e-05
5.22561e-06
1.84546e-06
1.71967e-07
1.14724e-07
2.42143e-06
6.2551e-06
1.43272e-05
2.51719e-05
3.11452e-05
3.21412e-05
3.05197e-05
2.7741e-05
2.47655e-05
2.21134e-05
1.99802e-05
1.83153e-05
1.69844e-05
1.5847e-05
1.47764e-05
1.36648e-05
1.24302e-05
1.10359e-05
9.52592e-06
8.03396e-06
6.75686e-06
5.78576e-06
5.10258e-06
4.67295e-06
4.45311e-06
4.40426e-06
4.52672e-06
4.91844e-06
5.89874e-06
8.17741e-06
1.09597e-05
5.26172e-06
1.86187e-06
1.74218e-07
1.18201e-07
2.43662e-06
6.30995e-06
1.44926e-05
2.53892e-05
3.12506e-05
3.21386e-05
3.04511e-05
2.76593e-05
2.47164e-05
2.21209e-05
2.00563e-05
1.84645e-05
1.72074e-05
1.61425e-05
1.51406e-05
1.40889e-05
1.28971e-05
1.15177e-05
9.98468e-06
8.42855e-06
7.05347e-06
5.97904e-06
5.19973e-06
4.69224e-06
4.42175e-06
4.35315e-06
4.48425e-06
4.90887e-06
5.94997e-06
8.32463e-06
1.11202e-05
5.29962e-06
1.87828e-06
1.76403e-07
1.21632e-07
2.45079e-06
6.36199e-06
1.4653e-05
2.55959e-05
3.13407e-05
3.21164e-05
3.03601e-05
2.75547e-05
2.46466e-05
2.21127e-05
2.01175e-05
1.85993e-05
1.74176e-05
1.64278e-05
1.54979e-05
1.45103e-05
1.33669e-05
1.20093e-05
1.0461e-05
8.8481e-06
7.38099e-06
6.20643e-06
5.33135e-06
4.74329e-06
4.41647e-06
4.32053e-06
4.45261e-06
4.90392e-06
6.00141e-06
8.46889e-06
1.12781e-05
5.33883e-06
1.89463e-06
1.78522e-07
1.25046e-07
2.46457e-06
6.4134e-06
1.48129e-05
2.57965e-05
3.14174e-05
3.20788e-05
3.0254e-05
2.74356e-05
2.45603e-05
2.20866e-05
2.01629e-05
1.8722e-05
1.76188e-05
1.67063e-05
1.58507e-05
1.49302e-05
1.38393e-05
1.25087e-05
1.09516e-05
9.28863e-06
7.73555e-06
6.46469e-06
5.49522e-06
4.82512e-06
4.43751e-06
4.30751e-06
4.43314e-06
4.90462e-06
6.05341e-06
8.61013e-06
1.14342e-05
5.37951e-06
1.91093e-06
1.80583e-07
1.28434e-07
2.47748e-06
6.46293e-06
1.49696e-05
2.59866e-05
3.1478e-05
3.20212e-05
3.01249e-05
2.72929e-05
2.44535e-05
2.20436e-05
2.01922e-05
1.8828e-05
1.78055e-05
1.69732e-05
1.61943e-05
1.53438e-05
1.43092e-05
1.30107e-05
1.14507e-05
9.74453e-06
8.11239e-06
6.75013e-06
5.68892e-06
4.93681e-06
4.4855e-06
4.31597e-06
4.42844e-06
4.91364e-06
6.10844e-06
8.75051e-06
1.15889e-05
5.42118e-06
1.92712e-06
1.82583e-07
1.31812e-07
2.49022e-06
6.5125e-06
1.51267e-05
2.61694e-05
3.15242e-05
3.19468e-05
2.9979e-05
2.71344e-05
2.43313e-05
2.19855e-05
2.02089e-05
1.89238e-05
1.79807e-05
1.72296e-05
1.65302e-05
1.57519e-05
1.47759e-05
1.35128e-05
1.19548e-05
1.02114e-05
8.50683e-06
7.05833e-06
5.90874e-06
5.0757e-06
4.5592e-06
4.34612e-06
4.43978e-06
4.93274e-06
6.16825e-06
8.8916e-06
1.1744e-05
5.46418e-06
1.94324e-06
1.84527e-07
1.35162e-07
2.50214e-06
6.56025e-06
1.52801e-05
2.63413e-05
3.15537e-05
3.18521e-05
2.98107e-05
2.69535e-05
2.41881e-05
2.19084e-05
2.02084e-05
1.90045e-05
1.8144e-05
1.74742e-05
1.68549e-05
1.61512e-05
1.52362e-05
1.40115e-05
1.24595e-05
1.06844e-05
8.9143e-06
7.38526e-06
6.15135e-06
5.23944e-06
4.65744e-06
4.39816e-06
4.46863e-06
4.96433e-06
6.23591e-06
9.03654e-06
1.18999e-05
5.50822e-06
1.95927e-06
1.86412e-07
1.38506e-07
2.5139e-06
6.6082e-06
1.54343e-05
2.65063e-05
3.15694e-05
3.17407e-05
2.96254e-05
2.6757e-05
2.40306e-05
2.18179e-05
2.01956e-05
1.90739e-05
1.82968e-05
1.77099e-05
1.71705e-05
1.65415e-05
1.5689e-05
1.45045e-05
1.29615e-05
1.11594e-05
9.33022e-06
7.72652e-06
6.41293e-06
5.42498e-06
4.77809e-06
4.47098e-06
4.51493e-06
5.00932e-06
6.31307e-06
9.18735e-06
1.2058e-05
5.55344e-06
1.97525e-06
1.88237e-07
1.41823e-07
2.52507e-06
6.65493e-06
1.55859e-05
2.66606e-05
3.15684e-05
3.16095e-05
2.94192e-05
2.65404e-05
2.38544e-05
2.171e-05
2.01669e-05
1.91284e-05
1.84359e-05
1.79331e-05
1.74752e-05
1.6921e-05
1.61316e-05
1.49888e-05
1.3457e-05
1.16321e-05
9.75023e-06
8.0781e-06
6.69012e-06
5.62993e-06
4.91993e-06
4.56455e-06
4.57969e-06
5.0696e-06
6.40241e-06
9.34713e-06
1.22186e-05
5.59961e-06
1.99116e-06
1.89992e-07
1.45122e-07
2.53603e-06
6.70166e-06
1.57377e-05
2.68077e-05
3.15543e-05
3.14626e-05
2.91972e-05
2.63096e-05
2.36658e-05
2.15907e-05
2.01274e-05
1.91724e-05
1.85643e-05
1.81454e-05
1.7769e-05
1.72898e-05
1.65624e-05
1.54617e-05
1.39428e-05
1.20984e-05
1.01696e-05
8.43514e-06
6.97845e-06
5.85065e-06
5.08045e-06
4.6776e-06
4.6628e-06
5.14597e-06
6.50556e-06
9.51803e-06
1.23829e-05
5.64702e-06
2.00707e-06
1.91682e-07
1.48377e-07
2.54642e-06
6.74725e-06
1.58871e-05
2.69443e-05
3.15239e-05
3.12967e-05
2.89562e-05
2.60614e-05
2.34615e-05
2.14569e-05
2.00744e-05
1.92033e-05
1.86797e-05
1.83449e-05
1.805e-05
1.76459e-05
1.69806e-05
1.59208e-05
1.44165e-05
1.25557e-05
1.05851e-05
8.79399e-06
7.27412e-06
6.08362e-06
5.25696e-06
4.80866e-06
4.76418e-06
5.2397e-06
6.62503e-06
9.70324e-06
1.25518e-05
5.69573e-06
2.02304e-06
1.93311e-07
1.51597e-07
2.55657e-06
6.79266e-06
1.60361e-05
2.70729e-05
3.14807e-05
3.11162e-05
2.87013e-05
2.58017e-05
2.32477e-05
2.13144e-05
2.00128e-05
1.92251e-05
1.87851e-05
1.85331e-05
1.83186e-05
1.79885e-05
1.73844e-05
1.63649e-05
1.48736e-05
1.29996e-05
1.09932e-05
9.15136e-06
7.57367e-06
6.32532e-06
5.44617e-06
4.95512e-06
4.88219e-06
5.3503e-06
6.76138e-06
9.90387e-06
1.27257e-05
5.74601e-06
2.03913e-06
1.94888e-07
1.54755e-07
2.56616e-06
6.83689e-06
1.61822e-05
2.71906e-05
3.14217e-05
3.09184e-05
2.84299e-05
2.55281e-05
2.30221e-05
2.11612e-05
1.99411e-05
1.92366e-05
1.88794e-05
1.87093e-05
1.85741e-05
1.83169e-05
1.77729e-05
1.67931e-05
1.53152e-05
1.34289e-05
1.13914e-05
9.50431e-06
7.87418e-06
6.57288e-06
5.64542e-06
5.11483e-06
5.01558e-06
5.47759e-06
6.91556e-06
1.01214e-05
1.29047e-05
5.79782e-06
2.05537e-06
1.96421e-07
1.57859e-07
2.57546e-06
6.88068e-06
1.63271e-05
2.72995e-05
3.13502e-05
3.0707e-05
2.81467e-05
2.52457e-05
2.27899e-05
2.10022e-05
1.98635e-05
1.92411e-05
1.8965e-05
1.88747e-05
1.88164e-05
1.86297e-05
1.81437e-05
1.72021e-05
1.57381e-05
1.38423e-05
1.17785e-05
9.85124e-06
8.17361e-06
6.82396e-06
5.8522e-06
5.2853e-06
5.16216e-06
5.62001e-06
7.08686e-06
1.03558e-05
1.30885e-05
5.85124e-06
2.07182e-06
1.97917e-07
1.6088e-07
2.58416e-06
6.92303e-06
1.64683e-05
2.73969e-05
3.12635e-05
3.04795e-05
2.78493e-05
2.49523e-05
2.25493e-05
2.08362e-05
1.97793e-05
1.92385e-05
1.90423e-05
1.903e-05
1.90465e-05
1.89279e-05
1.84974e-05
1.75922e-05
1.61416e-05
1.42385e-05
1.21531e-05
1.01909e-05
8.47043e-06
7.07677e-06
6.06465e-06
5.46482e-06
5.32059e-06
5.77677e-06
7.27497e-06
1.06068e-05
1.32765e-05
5.90595e-06
2.08842e-06
1.9938e-07
1.63828e-07
2.59247e-06
6.96455e-06
1.66073e-05
2.7485e-05
3.11643e-05
3.0239e-05
2.75412e-05
2.46518e-05
2.23042e-05
2.06667e-05
1.96918e-05
1.92317e-05
1.91134e-05
1.91763e-05
1.92646e-05
1.92108e-05
1.88327e-05
1.79615e-05
1.65239e-05
1.46157e-05
1.25138e-05
1.05214e-05
8.76301e-06
7.3298e-06
6.28117e-06
5.65168e-06
5.48913e-06
5.94629e-06
7.47894e-06
1.08739e-05
1.34684e-05
5.96203e-06
2.10522e-06
2.00821e-07
1.66678e-07
2.60014e-06
7.00443e-06
1.6742e-05
2.75613e-05
3.10501e-05
2.99827e-05
2.72197e-05
2.43419e-05
2.20528e-05
2.04928e-05
1.96007e-05
1.92211e-05
1.91797e-05
1.9316e-05
1.94732e-05
1.94808e-05
1.91516e-05
1.83115e-05
1.68857e-05
1.49743e-05
1.28604e-05
1.08424e-05
9.05043e-06
7.58174e-06
6.5003e-06
5.84436e-06
5.66637e-06
6.12754e-06
7.69737e-06
1.11555e-05
1.36632e-05
6.01916e-06
2.12219e-06
2.02242e-07
1.69447e-07
2.6074e-06
7.04338e-06
1.68744e-05
2.76281e-05
3.09228e-05
2.97125e-05
2.68873e-05
2.40252e-05
2.17976e-05
2.03167e-05
1.9508e-05
1.92086e-05
1.92426e-05
1.94499e-05
1.96728e-05
1.97381e-05
1.94538e-05
1.86419e-05
1.72269e-05
1.5314e-05
1.31926e-05
1.11534e-05
9.33178e-06
7.83121e-06
6.72052e-06
6.04154e-06
5.85158e-06
6.32069e-06
7.92983e-06
1.14508e-05
1.38602e-05
6.07725e-06
2.1393e-06
2.03653e-07
1.7212e-07
2.61409e-06
7.08088e-06
1.7003e-05
2.76832e-05
3.07799e-05
2.94261e-05
2.65417e-05
2.36999e-05
2.15375e-05
2.01378e-05
1.94138e-05
1.91949e-05
1.93038e-05
1.95806e-05
1.98666e-05
1.99859e-05
1.97425e-05
1.89551e-05
1.75491e-05
1.56359e-05
1.35109e-05
1.14545e-05
9.60727e-06
8.07855e-06
6.94173e-06
6.24266e-06
6.04374e-06
6.52391e-06
8.17482e-06
1.17578e-05
1.40588e-05
6.13613e-06
2.15654e-06
2.05057e-07
1.74713e-07
2.62042e-06
7.1177e-06
1.71297e-05
2.77286e-05
3.06228e-05
2.9125e-05
2.61851e-05
2.33684e-05
2.12743e-05
1.99574e-05
1.93188e-05
1.91803e-05
1.93634e-05
1.9708e-05
2.00547e-05
2.02247e-05
2.00183e-05
1.9252e-05
1.78536e-05
1.59414e-05
1.38162e-05
1.17463e-05
9.87659e-06
8.32264e-06
7.16251e-06
6.44636e-06
6.24156e-06
6.73604e-06
8.43163e-06
1.20758e-05
1.42585e-05
6.19562e-06
2.17387e-06
2.06455e-07
1.77214e-07
2.62626e-06
7.15334e-06
1.72532e-05
2.77619e-05
3.04496e-05
2.88078e-05
2.58169e-05
2.30303e-05
2.1008e-05
1.97757e-05
1.92235e-05
1.91656e-05
1.94223e-05
1.98338e-05
2.0239e-05
2.04565e-05
2.02833e-05
1.95346e-05
1.81421e-05
1.62318e-05
1.41097e-05
1.20295e-05
1.01404e-05
8.56413e-06
7.38333e-06
6.6522e-06
6.44395e-06
6.9555e-06
8.69832e-06
1.24024e-05
1.44581e-05
6.25542e-06
2.19124e-06
2.07844e-07
1.79635e-07
2.63176e-06
7.1883e-06
1.73743e-05
2.77843e-05
3.02615e-05
2.84763e-05
2.54392e-05
2.26877e-05
2.07403e-05
1.95942e-05
1.91283e-05
1.91502e-05
1.94796e-05
1.99567e-05
2.04187e-05
2.06812e-05
2.05379e-05
1.9804e-05
1.8416e-05
1.65089e-05
1.43925e-05
1.23049e-05
1.03993e-05
8.80306e-06
7.6039e-06
6.86015e-06
6.65078e-06
7.18196e-06
8.97433e-06
1.27368e-05
1.46575e-05
6.31542e-06
2.20864e-06
2.09222e-07
1.81958e-07
2.63674e-06
7.22187e-06
1.74911e-05
2.77937e-05
3.00573e-05
2.81303e-05
2.50525e-05
2.23414e-05
2.04719e-05
1.94146e-05
1.90343e-05
1.91345e-05
1.95354e-05
2.0077e-05
2.05943e-05
2.08992e-05
2.07829e-05
2.00611e-05
1.86767e-05
1.67741e-05
1.46661e-05
1.25736e-05
1.06538e-05
9.0398e-06
7.82411e-06
7.06941e-06
6.86046e-06
7.41399e-06
9.2583e-06
1.30773e-05
1.48553e-05
6.3752e-06
2.22599e-06
2.1058e-07
1.84184e-07
2.64123e-06
7.25409e-06
1.76038e-05
2.77907e-05
2.98382e-05
2.77715e-05
2.46588e-05
2.19931e-05
2.0204e-05
1.92366e-05
1.89409e-05
1.91179e-05
1.95891e-05
2.01937e-05
2.07645e-05
2.11099e-05
2.10183e-05
2.03068e-05
1.89258e-05
1.70296e-05
1.49318e-05
1.28367e-05
1.09048e-05
9.27507e-06
8.04471e-06
7.28094e-06
7.07452e-06
7.65171e-06
9.54952e-06
1.34227e-05
1.50514e-05
6.43492e-06
2.24327e-06
2.11921e-07
1.86297e-07
2.64504e-06
7.28423e-06
1.77105e-05
2.7774e-05
2.96035e-05
2.73995e-05
2.42583e-05
2.16436e-05
1.99378e-05
1.90612e-05
1.88497e-05
1.91025e-05
1.9642e-05
2.03076e-05
2.09297e-05
2.13131e-05
2.1244e-05
2.05417e-05
1.9165e-05
1.72779e-05
1.51914e-05
1.30949e-05
1.11526e-05
9.50888e-06
8.26549e-06
7.49423e-06
7.29201e-06
7.89492e-06
9.84758e-06
1.37722e-05
1.52456e-05
6.49424e-06
2.26069e-06
2.13243e-07
1.88299e-07
2.64818e-06
7.31229e-06
1.78115e-05
2.77445e-05
2.93535e-05
2.70145e-05
2.38512e-05
2.1293e-05
1.96736e-05
1.88891e-05
1.87617e-05
1.90891e-05
1.96953e-05
2.04195e-05
2.10903e-05
2.15092e-05
2.14606e-05
2.07671e-05
1.93968e-05
1.75227e-05
1.54476e-05
1.33501e-05
1.13984e-05
9.7419e-06
8.48676e-06
7.7093e-06
7.51281e-06
8.14329e-06
1.01518e-05
1.41248e-05
1.54378e-05
6.55351e-06
2.2782e-06
2.1455e-07
1.90186e-07
2.65056e-06
7.33797e-06
1.79064e-05
2.77016e-05
2.90869e-05
2.66149e-05
2.34363e-05
2.09409e-05
1.94117e-05
1.87217e-05
1.86792e-05
1.90808e-05
1.97519e-05
2.05321e-05
2.12483e-05
2.16995e-05
2.16689e-05
2.09835e-05
1.96218e-05
1.77649e-05
1.57013e-05
1.3603e-05
1.16428e-05
9.97455e-06
8.70875e-06
7.92623e-06
7.73683e-06
8.39666e-06
1.04622e-05
1.44797e-05
1.56274e-05
6.61236e-06
2.29565e-06
2.15841e-07
1.91974e-07
2.65229e-06
7.36166e-06
1.79964e-05
2.76459e-05
2.8803e-05
2.61995e-05
2.30122e-05
2.05859e-05
1.91513e-05
1.85586e-05
1.86029e-05
1.90793e-05
1.98144e-05
2.06484e-05
2.14068e-05
2.18865e-05
2.18707e-05
2.11923e-05
1.98406e-05
1.80044e-05
1.59525e-05
1.38542e-05
1.18865e-05
1.02075e-05
8.93186e-06
8.14506e-06
7.96378e-06
8.65441e-06
1.07779e-05
1.48368e-05
1.58151e-05
6.67138e-06
2.31312e-06
2.1713e-07
1.9367e-07
2.6534e-06
7.38353e-06
1.80819e-05
2.75769e-05
2.84997e-05
2.57661e-05
2.25775e-05
2.0227e-05
1.88918e-05
1.83999e-05
1.85337e-05
1.90865e-05
1.98859e-05
2.0772e-05
2.15692e-05
2.20732e-05
2.20684e-05
2.13945e-05
2.00532e-05
1.82396e-05
1.62003e-05
1.41032e-05
1.21294e-05
1.04413e-05
9.15696e-06
8.36678e-06
8.19445e-06
8.91681e-06
1.10986e-05
1.51951e-05
1.60014e-05
6.73034e-06
2.33055e-06
2.18416e-07
1.95295e-07
2.65404e-06
7.40409e-06
1.81641e-05
2.74943e-05
2.81757e-05
2.53135e-05
2.21313e-05
1.98633e-05
1.86319e-05
1.82446e-05
1.84712e-05
1.91031e-05
1.99681e-05
2.09057e-05
2.17393e-05
2.22635e-05
2.22653e-05
2.15931e-05
2.02613e-05
1.84709e-05
1.64446e-05
1.43496e-05
1.23714e-05
1.06757e-05
9.38404e-06
8.59154e-06
8.42907e-06
9.18412e-06
1.14244e-05
1.55545e-05
1.61866e-05
6.78952e-06
2.34801e-06
2.197e-07
1.96856e-07
2.65425e-06
7.42343e-06
1.8243e-05
2.73972e-05
2.78294e-05
2.48412e-05
2.16734e-05
1.94945e-05
1.83713e-05
1.80921e-05
1.84149e-05
1.91289e-05
2.00617e-05
2.10515e-05
2.19196e-05
2.24605e-05
2.24648e-05
2.17909e-05
2.0467e-05
1.86994e-05
1.66856e-05
1.45937e-05
1.26125e-05
1.09109e-05
9.61343e-06
8.81973e-06
8.66801e-06
9.45657e-06
1.17551e-05
1.59143e-05
1.63705e-05
6.8488e-06
2.36548e-06
2.20983e-07
1.98365e-07
2.65409e-06
7.44175e-06
1.83188e-05
2.72848e-05
2.746e-05
2.43492e-05
2.12047e-05
1.91211e-05
1.81097e-05
1.79414e-05
1.83633e-05
1.91628e-05
2.01665e-05
2.121e-05
2.21123e-05
2.26673e-05
2.26704e-05
2.19917e-05
2.06738e-05
1.89266e-05
1.69241e-05
1.4835e-05
1.28517e-05
1.11456e-05
9.84399e-06
9.05071e-06
8.91126e-06
9.7347e-06
1.20915e-05
1.62752e-05
1.65533e-05
6.90834e-06
2.38301e-06
2.22268e-07
1.99819e-07
2.6535e-06
7.45881e-06
1.83908e-05
2.7156e-05
2.70673e-05
2.38385e-05
2.07264e-05
1.87442e-05
1.78478e-05
1.77925e-05
1.83158e-05
1.92036e-05
2.02809e-05
2.13803e-05
2.23173e-05
2.28852e-05
2.28847e-05
2.21989e-05
2.08859e-05
1.91558e-05
1.71621e-05
1.5075e-05
1.309e-05
1.13803e-05
1.00757e-05
9.28409e-06
9.15825e-06
1.00179e-05
1.24328e-05
1.66364e-05
1.67346e-05
6.96794e-06
2.40057e-06
2.2355e-07
2.01225e-07
2.65252e-06
7.47464e-06
1.8459e-05
2.70103e-05
2.66507e-05
2.33099e-05
2.02397e-05
1.83646e-05
1.75862e-05
1.76454e-05
1.82717e-05
1.925e-05
2.0404e-05
2.15618e-05
2.25348e-05
2.3115e-05
2.31096e-05
2.24158e-05
2.1107e-05
1.9389e-05
1.74003e-05
1.53134e-05
1.33265e-05
1.16141e-05
1.03081e-05
9.51986e-06
9.40948e-06
1.0307e-05
1.27802e-05
1.6999e-05
1.69149e-05
7.02773e-06
2.4182e-06
2.24833e-07
2.02584e-07
2.65109e-06
7.48905e-06
1.85229e-05
2.68469e-05
2.62105e-05
2.27651e-05
1.97463e-05
1.79837e-05
1.73269e-05
1.75008e-05
1.82303e-05
1.93009e-05
2.05339e-05
2.17527e-05
2.27633e-05
2.33564e-05
2.33458e-05
2.26446e-05
2.13406e-05
1.96295e-05
1.76415e-05
1.55524e-05
1.35627e-05
1.18477e-05
1.05407e-05
9.75678e-06
9.66331e-06
1.06004e-05
1.31323e-05
1.73619e-05
1.70935e-05
7.08747e-06
2.43586e-06
2.26115e-07
2.03908e-07
2.64929e-06
7.50235e-06
1.85829e-05
2.66654e-05
2.57468e-05
2.22055e-05
1.92474e-05
1.76016e-05
1.70703e-05
1.73585e-05
1.81915e-05
1.93561e-05
2.06708e-05
2.19529e-05
2.30023e-05
2.36084e-05
2.35924e-05
2.28837e-05
2.15846e-05
1.98757e-05
1.78846e-05
1.57915e-05
1.37984e-05
1.20811e-05
1.07742e-05
9.99666e-06
9.92288e-06
1.08994e-05
1.34899e-05
1.77257e-05
1.72708e-05
7.14736e-06
2.45361e-06
2.27402e-07
2.05204e-07
2.64719e-06
7.51465e-06
1.8639e-05
2.64648e-05
2.52603e-05
2.16338e-05
1.87457e-05
1.72192e-05
1.68127e-05
1.72155e-05
1.81537e-05
1.94149e-05
2.08139e-05
2.21616e-05
2.32516e-05
2.38714e-05
2.385e-05
2.31339e-05
2.18389e-05
2.01282e-05
1.81306e-05
1.60313e-05
1.4034e-05
1.23145e-05
1.10085e-05
1.02388e-05
1.01865e-05
1.12034e-05
1.38518e-05
1.80892e-05
1.74463e-05
7.20708e-06
2.47138e-06
2.28687e-07
2.06484e-07
2.6449e-06
7.52626e-06
1.86915e-05
2.62449e-05
2.47527e-05
2.10532e-05
1.82439e-05
1.68389e-05
1.6557e-05
1.70739e-05
1.81178e-05
1.94769e-05
2.09623e-05
2.23776e-05
2.35094e-05
2.41433e-05
2.41165e-05
2.33927e-05
2.21005e-05
2.03847e-05
1.83782e-05
1.62714e-05
1.42694e-05
1.25481e-05
1.12439e-05
1.04835e-05
1.04545e-05
1.15128e-05
1.42189e-05
1.84532e-05
1.76202e-05
7.26669e-06
2.4892e-06