/*--------------------------------*- C++ -*----------------------------------*\
| =========                 |                                                 |
| \\      /  F ield         | OpenFOAM: The Open Source CFD Toolbox           |
|  \\    /   O peration     | Version:  v2006                                 |
|   \\  /    A nd           | Website:  www.openfoam.com                      |
|    \\/     M anipulation  |                                                 |
\*---------------------------------------------------------------------------*/
FoamFile
{
    version     2.0;
    format      ascii;
    class       volScalarField;
    location    "98";
    object      T;
}
// * * * * * * * * * * * * * * * * * * * * * * * * * * * * * * * * * * * * * //

dimensions      [0 0 0 1 0 0 0];


internalField   nonuniform List<scalar> 
78750
(
300.044
300.13
300.211
300.284
300.35
300.408
300.459
300.505
300.545
300.581
300.613
300.641
300.666
300.688
300.706
300.722
300.735
300.745
300.752
300.756
300.757
300.755
300.751
300.743
300.731
300.717
300.7
300.681
300.661
300.647
300.666
300.782
301.115
301.77
302.696
300.064
300.186
300.294
300.391
300.479
300.559
300.632
300.697
300.756
300.809
300.856
300.898
300.935
300.968
300.996
301.02
301.04
301.056
301.067
301.074
301.075
301.072
301.062
301.047
301.024
300.996
300.963
300.926
300.892
300.875
300.907
301.06
301.432
302.086
302.988
300.071
300.208
300.333
300.446
300.548
300.638
300.717
300.787
300.849
300.903
300.951
300.994
301.032
301.066
301.095
301.121
301.143
301.161
301.176
301.187
301.194
301.196
301.192
301.183
301.166
301.141
301.11
301.076
301.047
301.043
301.104
301.299
301.703
302.362
303.268
300.085
300.249
300.401
300.539
300.658
300.76
300.846
300.92
300.983
301.039
301.087
301.13
301.167
301.2
301.228
301.251
301.27
301.285
301.296
301.303
301.306
301.305
301.299
301.288
301.271
301.247
301.218
301.189
301.169
301.181
301.27
301.502
301.926
302.587
303.501
300.098
300.287
300.461
300.615
300.743
300.848
300.935
301.008
301.071
301.126
301.174
301.217
301.255
301.288
301.315
301.338
301.356
301.369
301.378
301.382
301.383
301.38
301.372
301.36
301.344
301.322
301.298
301.277
301.272
301.309
301.433
301.701
302.141
302.805
303.725
300.108
300.317
300.508
300.673
300.808
300.915
301.002
301.076
301.141
301.198
301.248
301.293
301.333
301.366
301.393
301.414
301.429
301.438
301.443
301.443
301.439
301.432
301.422
301.409
301.393
301.375
301.357
301.347
301.358
301.419
301.574
301.871
302.326
302.994
303.918
300.117
300.342
300.547
300.722
300.861
300.971
301.06
301.136
301.203
301.262
301.315
301.363
301.404
301.438
301.465
301.484
301.497
301.502
301.502
301.497
301.488
301.476
301.462
301.447
301.431
301.416
301.405
301.407
301.437
301.524
301.71
302.032
302.501
303.178
304.104
300.124
300.363
300.578
300.76
300.904
301.016
301.107
301.185
301.254
301.316
301.372
301.422
301.465
301.5
301.527
301.546
301.556
301.558
301.554
301.544
301.53
301.514
301.496
301.479
301.463
301.45
301.446
301.459
301.506
301.617
301.829
302.173
302.656
303.344
304.273
300.13
300.379
300.603
300.793
300.941
301.056
301.15
301.231
301.302
301.367
301.426
301.479
301.524
301.56
301.588
301.606
301.615
301.614
301.606
301.592
301.574
301.553
301.531
301.511
301.494
301.483
301.484
301.508
301.571
301.703
301.939
302.302
302.8
303.499
304.431
300.135
300.395
300.628
300.824
300.976
301.093
301.189
301.272
301.347
301.414
301.476
301.53
301.577
301.615
301.643
301.661
301.669
301.667
301.657
301.64
301.618
301.593
301.568
301.544
301.526
301.517
301.522
301.554
301.632
301.783
302.04
302.42
302.931
303.642
304.578
300.14
300.408
300.649
300.85
301.006
301.127
301.226
301.311
301.388
301.459
301.523
301.58
301.628
301.668
301.697
301.715
301.722
301.719
301.707
301.687
301.662
301.634
301.605
301.58
301.56
301.552
301.561
301.601
301.691
301.858
302.134
302.529
303.053
303.777
304.716
300.145
300.422
300.67
300.877
301.037
301.16
301.261
301.349
301.429
301.501
301.567
301.626
301.677
301.718
301.748
301.766
301.773
301.769
301.756
301.734
301.706
301.675
301.644
301.617
301.597
301.589
301.602
301.649
301.75
301.932
302.223
302.632
303.168
303.903
304.845
300.149
300.434
300.689
300.902
301.065
301.191
301.295
301.385
301.467
301.542
301.61
301.671
301.723
301.766
301.796
301.815
301.822
301.817
301.803
301.779
301.75
301.717
301.684
301.655
301.635
301.628
301.645
301.698
301.809
302.004
302.31
302.73
303.278
304.023
304.967
300.153
300.447
300.709
300.927
301.093
301.222
301.327
301.42
301.504
301.581
301.651
301.714
301.768
301.811
301.843
301.862
301.869
301.864
301.848
301.824
301.793
301.758
301.724
301.694
301.674
301.669
301.689
301.748
301.868
302.076
302.394
302.825
303.382
304.136
305.083
300.158
300.459
300.727
300.95
301.12
301.25
301.358
301.453
301.539
301.618
301.691
301.756
301.811
301.855
301.888
301.908
301.915
301.91
301.893
301.867
301.835
301.799
301.764
301.734
301.713
301.71
301.734
301.799
301.928
302.147
302.477
302.916
303.482
304.244
305.191
300.162
300.471
300.746
300.973
301.145
301.278
301.388
301.485
301.573
301.655
301.729
301.795
301.852
301.898
301.931
301.952
301.959
301.954
301.937
301.911
301.877
301.84
301.804
301.773
301.754
301.752
301.78
301.851
301.989
302.218
302.558
303.005
303.577
304.346
305.294
300.166
300.482
300.763
300.994
301.17
301.305
301.417
301.516
301.606
301.69
301.766
301.834
301.892
301.939
301.973
301.995
302.002
301.997
301.98
301.953
301.919
301.882
301.845
301.814
301.795
301.795
301.826
301.904
302.049
302.288
302.637
303.09
303.669
304.442
305.392
300.17
300.494
300.781
301.016
301.194
301.331
301.445
301.546
301.638
301.724
301.802
301.871
301.931
301.979
302.014
302.036
302.045
302.04
302.023
301.996
301.961
301.923
301.886
301.855
301.836
301.839
301.874
301.957
302.11
302.357
302.714
303.172
303.755
304.534
305.483
300.174
300.505
300.797
301.037
301.218
301.357
301.472
301.575
301.67
301.757
301.837
301.908
301.969
302.018
302.054
302.077
302.086
302.082
302.066
302.038
302.003
301.965
301.927
301.896
301.878
301.883
301.921
302.009
302.17
302.424
302.789
303.251
303.838
304.621
305.57
300.177
300.515
300.814
301.057
301.24
301.381
301.499
301.604
301.7
301.789
301.87
301.943
302.005
302.056
302.093
302.117
302.127
302.124
302.107
302.081
302.046
302.007
301.969
301.938
301.921
301.927
301.969
302.062
302.229
302.491
302.861
303.327
303.917
304.703
305.653
300.181
300.526
300.83
301.077
301.263
301.406
301.525
301.632
301.73
301.82
301.903
301.978
302.041
302.093
302.131
302.156
302.167
302.164
302.149
302.123
302.088
302.049
302.011
301.98
301.964
301.972
302.016
302.114
302.287
302.556
302.931
303.4
303.993
304.782
305.731
300.185
300.536
300.846
301.097
301.285
301.429
301.551
301.659
301.759
301.851
301.936
302.011
302.076
302.129
302.169
302.194
302.206
302.205
302.19
302.165
302.13
302.091
302.053
302.023
302.007
302.017
302.064
302.166
302.344
302.619
303
303.471
304.066
304.856
305.806
300.188
300.546
300.861
301.116
301.306
301.453
301.576
301.686
301.787
301.882
301.968
302.045
302.111
302.165
302.205
302.232
302.245
302.245
302.231
302.207
302.173
302.134
302.096
302.066
302.051
302.062
302.112
302.218
302.401
302.681
303.066
303.539
304.135
304.928
305.877
300.192
300.556
300.877
301.135
301.327
301.475
301.6
301.712
301.816
301.911
301.999
302.077
302.145
302.2
302.241
302.269
302.284
302.284
302.272
302.248
302.215
302.177
302.14
302.109
302.095
302.107
302.16
302.27
302.457
302.742
303.13
303.604
304.202
304.997
305.946
300.195
300.566
300.892
301.154
301.348
301.498
301.625
301.739
301.844
301.941
302.03
302.11
302.178
302.234
302.277
302.306
302.322
302.323
302.313
302.29
302.258
302.221
302.183
302.153
302.14
302.153
302.208
302.321
302.513
302.802
303.193
303.668
304.267
305.064
306.013
300.199
300.576
300.907
301.172
301.369
301.52
301.649
301.764
301.871
301.97
302.061
302.142
302.211
302.268
302.312
302.342
302.359
302.362
302.352
302.331
302.301
302.264
302.227
302.198
302.185
302.199
302.256
302.372
302.568
302.86
303.254
303.73
304.33
305.128
306.078
300.202
300.586
300.922
301.19
301.389
301.543
301.673
301.79
301.899
301.999
302.091
302.174
302.244
302.302
302.347
302.378
302.396
302.4
302.392
302.372
302.343
302.308
302.272
302.243
302.23
302.246
302.304
302.423
302.622
302.918
303.315
303.791
304.391
305.191
306.14
300.206
300.596
300.937
301.208
301.409
301.565
301.697
301.816
301.926
302.028
302.122
302.205
302.277
302.336
302.382
302.414
302.432
302.438
302.431
302.413
302.385
302.351
302.316
302.288
302.276
302.292
302.352
302.474
302.676
302.976
303.374
303.851
304.451
305.252
306.202
300.209
300.605
300.951
301.226
301.43
301.587
301.72
301.841
301.953
302.057
302.152
302.237
302.309
302.369
302.416
302.449
302.469
302.475
302.47
302.453
302.427
302.395
302.361
302.333
302.322
302.339
302.401
302.524
302.73
303.032
303.432
303.909
304.51
305.311
306.261
300.212
300.615
300.966
301.244
301.45
301.608
301.744
301.866
301.98
302.086
302.182
302.268
302.342
302.403
302.45
302.484
302.504
302.513
302.509
302.494
302.469
302.438
302.405
302.379
302.368
302.386
302.449
302.575
302.783
303.089
303.49
303.967
304.567
305.37
306.32
300.216
300.624
300.98
301.262
301.469
301.63
301.767
301.892
302.007
302.114
302.212
302.299
302.374
302.436
302.484
302.518
302.54
302.549
302.547
302.533
302.51
302.481
302.45
302.424
302.415
302.434
302.498
302.626
302.837
303.144
303.547
304.024
304.624
305.427
306.378
300.219
300.634
300.995
301.28
301.489
301.652
301.791
301.917
302.034
302.143
302.242
302.33
302.406
302.469
302.517
302.553
302.575
302.586
302.585
302.573
302.552
302.524
302.494
302.47
302.461
302.481
302.547
302.677
302.89
303.2
303.603
304.08
304.68
305.483
306.434
300.222
300.643
301.009
301.297
301.509
301.673
301.814
301.942
302.061
302.171
302.272
302.362
302.438
302.502
302.551
302.587
302.611
302.622
302.622
302.612
302.592
302.566
302.538
302.516
302.508
302.529
302.596
302.727
302.942
303.254
303.659
304.135
304.735
305.539
306.49
300.226
300.653
301.023
301.315
301.529
301.695
301.837
301.967
302.088
302.2
302.302
302.393
302.471
302.535
302.585
302.622
302.646
302.658
302.659
302.651
302.633
302.609
302.583
302.561
302.555
302.577
302.645
302.778
302.995
303.309
303.714
304.19
304.789
305.593
306.545
300.229
300.662
301.038
301.333
301.548
301.716
301.861
301.993
302.115
302.229
302.333
302.424
302.503
302.568
302.618
302.656
302.681
302.694
302.696
302.689
302.673
302.651
302.627
302.607
302.602
302.625
302.694
302.829
303.047
303.363
303.769
304.244
304.843
305.647
306.599
300.232
300.671
301.052
301.35
301.568
301.737
301.884
302.018
302.142
302.258
302.363
302.456
302.535
302.601
302.652
302.69
302.716
302.73
302.733
302.727
302.713
302.693
302.67
302.652
302.648
302.673
302.743
302.879
303.1
303.417
303.824
304.298
304.896
305.701
306.653
300.236
300.681
301.066
301.368
301.587
301.759
301.907
302.043
302.17
302.287
302.393
302.487
302.568
302.634
302.686
302.724
302.75
302.765
302.77
302.765
302.753
302.734
302.714
302.697
302.695
302.721
302.793
302.93
303.152
303.471
303.878
304.351
304.949
305.754
306.706
300.239
300.69
301.081
301.385
301.607
301.78
301.931
302.069
302.197
302.316
302.424
302.519
302.6
302.667
302.719
302.758
302.785
302.801
302.806
302.803
302.792
302.775
302.757
302.742
302.742
302.77
302.843
302.981
303.205
303.525
303.932
304.405
305.002
305.807
306.76
300.242
300.7
301.095
301.403
301.627
301.802
301.954
302.094
302.225
302.345
302.455
302.551
302.633
302.7
302.753
302.792
302.82
302.836
302.843
302.841
302.831
302.816
302.8
302.787
302.789
302.818
302.893
303.033
303.257
303.579
303.986
304.458
305.054
305.86
306.814
300.246
300.709
301.109
301.42
301.646
301.824
301.978
302.12
302.252
302.375
302.486
302.583
302.666
302.733
302.787
302.827
302.854
302.871
302.879
302.878
302.87
302.857
302.843
302.832
302.836
302.867
302.943
303.084
303.311
303.633
304.04
304.512
305.107
305.914
306.868
300.249
300.719
301.124
301.438
301.666
301.845
302.002
302.146
302.28
302.405
302.517
302.615
302.699
302.767
302.821
302.861
302.889
302.907
302.915
302.915
302.909
302.898
302.885
302.877
302.883
302.916
302.993
303.136
303.364
303.688
304.095
304.566
305.161
305.967
306.922
300.252
300.728
301.138
301.455
301.686
301.867
302.026
302.172
302.308
302.434
302.548
302.648
302.732
302.8
302.854
302.895
302.924
302.942
302.951
302.952
302.947
302.938
302.928
302.922
302.93
302.965
303.045
303.189
303.419
303.743
304.15
304.62
305.215
306.022
306.977
300.256
300.738
301.153
301.473
301.706
301.889
302.05
302.198
302.337
302.465
302.58
302.68
302.765
302.834
302.888
302.929
302.958
302.977
302.987
302.989
302.986
302.978
302.97
302.966
302.977
303.014
303.096
303.243
303.474
303.799
304.207
304.675
305.269
306.077
307.033
300.259
300.747
301.168
301.491
301.726
301.911
302.074
302.224
302.365
302.495
302.611
302.713
302.798
302.868
302.922
302.964
302.993
303.012
303.023
303.026
303.024
303.018
303.012
303.011
303.024
303.064
303.148
303.297
303.53
303.856
304.263
304.731
305.324
306.132
307.089
300.263
300.757
301.182
301.509
301.746
301.933
302.098
302.251
302.394
302.525
302.643
302.746
302.832
302.902
302.956
302.998
303.027
303.047
303.058
303.063
303.062
303.058
303.054
303.055
303.071
303.114
303.201
303.352
303.587
303.914
304.321
304.787
305.38
306.189
307.146
300.266
300.767
301.197
301.527
301.766
301.955
302.122
302.278
302.423
302.556
302.675
302.778
302.865
302.935
302.99
303.032
303.062
303.082
303.094
303.099
303.1
303.097
303.095
303.099
303.118
303.164
303.254
303.408
303.644
303.973
304.379
304.845
305.437
306.245
307.203
300.27
300.776
301.212
301.545
301.786
301.977
302.147
302.304
302.452
302.587
302.707
302.812
302.899
302.969
303.024
303.066
303.096
303.117
303.13
303.136
303.138
303.137
303.137
303.144
303.165
303.214
303.307
303.464
303.702
304.032
304.438
304.902
305.494
306.303
307.261
300.273
300.786
301.227
301.563
301.806
301.999
302.171
302.331
302.481
302.618
302.74
302.845
302.932
303.003
303.058
303.1
303.131
303.152
303.165
303.172
303.175
303.176
303.178
303.188
303.212
303.264
303.36
303.52
303.761
304.092
304.498
304.961
305.551
306.36
307.319
300.276
300.796
301.241
301.581
301.826
302.022
302.196
302.359
302.51
302.649
302.772
302.878
302.966
303.037
303.092
303.135
303.165
303.187
303.2
303.208
303.213
303.215
303.22
303.231
303.259
303.314
303.414
303.577
303.82
304.152
304.558
305.019
305.609
306.418
307.377
300.28
300.806
301.256
301.599
301.846
302.044
302.221
302.386
302.54
302.68
302.805
302.911
303
303.071
303.126
303.169
303.2
303.221
303.236
303.245
303.25
303.254
303.261
303.275
303.306
303.365
303.468
303.634
303.88
304.213
304.618
305.078
305.667
306.476
307.434
300.283
300.816
301.271
301.617
301.867
302.067
302.246
302.414
302.57
302.712
302.838
302.945
303.034
303.105
303.161
303.203
303.234
303.256
303.271
303.281
303.287
303.293
303.302
303.319
303.352
303.415
303.521
303.691
303.94
304.274
304.678
305.137
305.725
306.533
307.492
300.287
300.826
301.286
301.635
301.887
302.09
302.272
302.442
302.6
302.744
302.871
302.979
303.068
303.139
303.195
303.237
303.268
303.29
303.306
303.317
303.324
303.332
303.342
303.362
303.399
303.464
303.575
303.748
303.999
304.335
304.738
305.196
305.782
306.591
307.549
300.29
300.836
301.302
301.653
301.908
302.113
302.298
302.47
302.631
302.776
302.904
303.013
303.102
303.173
303.229
303.271
303.302
303.325
303.341
303.352
303.361
303.37
303.383
303.405
303.445
303.514
303.628
303.805
304.059
304.396
304.798
305.254
305.84
306.647
307.605
300.294
300.846
301.317
301.672
301.929
302.136
302.323
302.499
302.662
302.809
302.938
303.047
303.136
303.207
303.263
303.305
303.336
303.359
303.376
303.388
303.398
303.409
303.423
303.448
303.491
303.563
303.681
303.861
304.118
304.456
304.858
305.312
305.897
306.704
307.661
300.297
300.856
301.332
301.691
301.95
302.16
302.35
302.527
302.693
302.842
302.972
303.081
303.171
303.242
303.297
303.339
303.37
303.394
303.411
303.424
303.435
303.447
303.464
303.491
303.536
303.613
303.734
303.917
304.177
304.516
304.917
305.37
305.953
306.759
307.716
300.301
300.866
301.348
301.709
301.971
302.183
302.376
302.557
302.724
302.875
303.006
303.116
303.205
303.276
303.331
303.373
303.405
303.428
303.445
303.459
303.472
303.485
303.504
303.533
303.582
303.662
303.786
303.973
304.235
304.575
304.975
305.426
306.008
306.814
307.77
300.305
300.876
301.363
301.728
301.992
302.207
302.403
302.586
302.756
302.908
303.04
303.15
303.24
303.311
303.365
303.407
303.439
303.462
303.48
303.495
303.508
303.523
303.544
303.575
303.627
303.71
303.839
304.028
304.293
304.634
305.033
305.482
306.063
306.868
307.824
300.308
300.887
301.379
301.747
302.014
302.231
302.43
302.616
302.788
302.942
303.075
303.185
303.274
303.345
303.4
303.441
303.473
303.496
303.515
303.53
303.544
303.561
303.583
303.618
303.672
303.758
303.89
304.083
304.35
304.692
305.09
305.538
306.117
306.921
307.876
300.312
300.897
301.394
301.766
302.035
302.256
302.457
302.646
302.82
302.976
303.109
303.22
303.309
303.379
303.434
303.475
303.507
303.531
303.549
303.565
303.581
303.598
303.623
303.659
303.717
303.806
303.941
304.138
304.407
304.749
305.146
305.592
306.17
306.973
307.928
300.316
300.907
301.41
301.785
302.057
302.28
302.484
302.676
302.853
303.01
303.144
303.255
303.344
303.414
303.468
303.509
303.541
303.565
303.584
303.601
303.617
303.636
303.662
303.701
303.761
303.854
303.992
304.192
304.463
304.806
305.201
305.646
306.223
307.025
307.978
300.319
300.918
301.426
301.805
302.079
302.305
302.513
302.708
302.887
303.045
303.18
303.291
303.379
303.448
303.502
303.543
303.574
303.599
303.618
303.636
303.653
303.673
303.701
303.742
303.805
303.901
304.042
304.245
304.518
304.861
305.255
305.698
306.274
307.075
308.028
300.323
300.928
301.442
301.824
302.102
302.331
302.541
302.739
302.921
303.081
303.216
303.326
303.414
303.483
303.536
303.577
303.608
303.633
303.653
303.671
303.689
303.711
303.74
303.783
303.849
303.947
304.092
304.297
304.572
304.916
305.308
305.75
306.324
307.124
308.076
300.327
300.939
301.459
301.844
302.124
302.357
302.571
302.772
302.956
303.117
303.252
303.363
303.45
303.518
303.571
303.611
303.642
303.667
303.687
303.706
303.725
303.748
303.779
303.824
303.892
303.993
304.141
304.349
304.626
304.97
305.361
305.8
306.374
307.172
308.124
300.331
300.95
301.476
301.865
302.148
302.383
302.601
302.805
302.991
303.154
303.289
303.399
303.486
303.554
303.606
303.646
303.676
303.701
303.722
303.74
303.76
303.785
303.817
303.865
303.935
304.039
304.19
304.4
304.678
305.022
305.412
305.85
306.422
307.22
308.17
300.334
300.961
301.493
301.885
302.171
302.41
302.631
302.839
303.028
303.191
303.327
303.436
303.523
303.589
303.641
303.68
303.711
303.735
303.756
303.775
303.796
303.821
303.856
303.905
303.978
304.084
304.237
304.45
304.73
305.074
305.462
305.899
306.469
307.266
308.216
300.338
300.973
301.51
301.906
302.196
302.438
302.663
302.874
303.065
303.229
303.365
303.474
303.559
303.625
303.676
303.715
303.745
303.769
303.79
303.81
303.832
303.858
303.894
303.945
304.02
304.129
304.285
304.5
304.781
305.125
305.512
305.946
306.516
307.311
308.26
300.342
300.984
301.527
301.928
302.22
302.466
302.695
302.909
303.102
303.268
303.404
303.512
303.596
303.661
303.711
303.749
303.779
303.804
303.825
303.845
303.868
303.895
303.932
303.985
304.062
304.173
304.332
304.549
304.831
305.175
305.56
305.993
306.561
307.356
308.304
300.347
300.996
301.545
301.95
302.245
302.495
302.728
302.946
303.141
303.307
303.443
303.55
303.634
303.698
303.747
303.784
303.814
303.838
303.86
303.88
303.903
303.932
303.97
304.025
304.104
304.217
304.378
304.597
304.881
305.224
305.607
306.039
306.606
307.399
308.347
300.351
301.008
301.563
301.972
302.271
302.524
302.761
302.983
303.18
303.347
303.482
303.589
303.671
303.734
303.782
303.819
303.849
303.873
303.894
303.915
303.939
303.968
304.008
304.064
304.145
304.261
304.424
304.645
304.929
305.272
305.654
306.083
306.649
307.442
308.389
300.355
301.02
301.582
301.994
302.297
302.554
302.795
303.02
303.22
303.387
303.522
303.628
303.709
303.771
303.818
303.855
303.883
303.907
303.929
303.951
303.975
304.005
304.046
304.104
304.186
304.304
304.469
304.692
304.977
305.319
305.699
306.128
306.692
307.484
308.43
300.359
301.032
301.601
302.017
302.323
302.584
302.83
303.059
303.26
303.428
303.563
303.668
303.748
303.808
303.854
303.89
303.918
303.942
303.964
303.986
304.011
304.042
304.084
304.143
304.228
304.348
304.514
304.738
305.024
305.366
305.744
306.171
306.734
307.525
308.471
300.364
301.045
301.62
302.04
302.35
302.616
302.866
303.098
303.301
303.47
303.604
303.707
303.786
303.846
303.891
303.926
303.954
303.977
303.999
304.021
304.047
304.079
304.122
304.183
304.269
304.391
304.559
304.784
305.071
305.412
305.788
306.213
306.776
307.566
308.511
300.368
301.058
301.639
302.064
302.377
302.647
302.902
303.138
303.343
303.512
303.645
303.747
303.825
303.883
303.927
303.962
303.989
304.012
304.034
304.057
304.083
304.115
304.16
304.222
304.31
304.433
304.603
304.83
305.117
305.457
305.832
306.255
306.816
307.606
308.551
300.373
301.071
301.659
302.088
302.405
302.68
302.939
303.178
303.385
303.554
303.686
303.787
303.864
303.921
303.964
303.998
304.025
304.048
304.07
304.092
304.119
304.152
304.198
304.261
304.351
304.476
304.648
304.876
305.163
305.501
305.875
306.296
306.857
307.645
308.59
300.377
301.084
301.679
302.112
302.433
302.712
302.977
303.219
303.427
303.596
303.728
303.828
303.903
303.959
304.001
304.034
304.06
304.083
304.105
304.128
304.155
304.19
304.236
304.301
304.392
304.518
304.692
304.92
305.208
305.545
305.917
306.337
306.896
307.684
308.628
300.382
301.097
301.699
302.136
302.462
302.746
303.015
303.26
303.47
303.639
303.769
303.868
303.942
303.996
304.038
304.07
304.096
304.119
304.141
304.164
304.192
304.227
304.274
304.34
304.433
304.561
304.736
304.965
305.253
305.589
305.958
306.377
306.936
307.723
308.667
300.386
301.11
301.719
302.162
302.491
302.781
303.055
303.303
303.514
303.682
303.812
303.909
303.981
304.035
304.075
304.106
304.132
304.155
304.176
304.2
304.228
304.264
304.313
304.38
304.474
304.603
304.779
305.01
305.297
305.632
306
306.417
306.974
307.761
308.705
300.391
301.124
301.74
302.188
302.522
302.817
303.096
303.347
303.559
303.727
303.855
303.95
304.021
304.073
304.112
304.143
304.168
304.19
304.212
304.236
304.265
304.302
304.351
304.42
304.515
304.646
304.823
305.054
305.341
305.675
306.041
306.456
307.013
307.8
308.744
300.396
301.138
301.762
302.214
302.554
302.854
303.138
303.393
303.605
303.772
303.898
303.992
304.061
304.112
304.15
304.18
304.204
304.227
304.249
304.273
304.302
304.339
304.39
304.459
304.556
304.688
304.867
305.098
305.385
305.717
306.081
306.495
307.051
307.837
308.781
300.401
301.153
301.784
302.242
302.586
302.892
303.182
303.439
303.652
303.818
303.943
304.035
304.101
304.151
304.188
304.217
304.241
304.263
304.285
304.309
304.339
304.377
304.429
304.499
304.597
304.731
304.91
305.143
305.429
305.76
306.122
306.535
307.09
307.876
308.82
300.407
301.168
301.807
302.27
302.62
302.932
303.226
303.487
303.7
303.865
303.988
304.078
304.143
304.19
304.226
304.254
304.278
304.299
304.321
304.346
304.376
304.415
304.468
304.54
304.639
304.774
304.954
305.187
305.473
305.802
306.162
306.574
307.128
307.914
308.858
300.412
301.183
301.831
302.299
302.654
302.972
303.272
303.535
303.749
303.913
304.034
304.121
304.184
304.23
304.264
304.292
304.315
304.336
304.358
304.383
304.414
304.454
304.507
304.58
304.681
304.817
304.998
305.232
305.517
305.845
306.203
306.613
307.167
307.952
308.896
300.417
301.199
301.854
302.328
302.688
303.013
303.318
303.584
303.798
303.96
304.079
304.165
304.226
304.27
304.303
304.33
304.352
304.373
304.395
304.42
304.451
304.492
304.546
304.621
304.723
304.86
305.043
305.276
305.561
305.887
306.243
306.652
307.205
307.99
308.935
300.423
301.215
301.878
302.358
302.723
303.054
303.364
303.632
303.847
304.008
304.125
304.208
304.268
304.31
304.342
304.368
304.39
304.411
304.433
304.458
304.49
304.531
304.586
304.662
304.765
304.904
305.087
305.321
305.605
305.93
306.284
306.692
307.244
308.029
308.974
300.428
301.23
301.902
302.388
302.759
303.097
303.412
303.682
303.896
304.056
304.171
304.252
304.31
304.351
304.382
304.406
304.428
304.448
304.47
304.496
304.528
304.57
304.626
304.703
304.807
304.947
305.132
305.366
305.649
305.972
306.324
306.731
307.283
308.067
309.012
300.434
301.246
301.927
302.419
302.797
303.141
303.461
303.733
303.946
304.104
304.217
304.296
304.352
304.392
304.421
304.445
304.466
304.486
304.508
304.534
304.566
304.609
304.667
304.745
304.85
304.992
305.177
305.411
305.693
306.015
306.366
306.771
307.322
308.106
309.052
300.44
301.263
301.953
302.451
302.836
303.187
303.512
303.785
303.998
304.154
304.264
304.341
304.395
304.433
304.461
304.484
304.504
304.524
304.546
304.572
304.605
304.648
304.707
304.786
304.893
305.036
305.222
305.456
305.738
306.057
306.406
306.81
307.361
308.145
309.091
300.446
301.28
301.98
302.485
302.877
303.236
303.565
303.84
304.051
304.205
304.312
304.386
304.438
304.474
304.501
304.523
304.543
304.562
304.584
304.61
304.644
304.688
304.748
304.828
304.937
305.08
305.267
305.502
305.782
306.1
306.448
306.85
307.401
308.185
309.13
300.452
301.298
302.008
302.52
302.92
303.286
303.621
303.897
304.107
304.257
304.361
304.432
304.481
304.516
304.541
304.562
304.581
304.601
304.623
304.649
304.683
304.728
304.789
304.87
304.98
305.125
305.313
305.547
305.827
306.143
306.489
306.89
307.44
308.224
309.17
300.458
301.317
302.037
302.557
302.964
303.339
303.679
303.956
304.164
304.311
304.412
304.48
304.526
304.558
304.582
304.602
304.621
304.64
304.661
304.688
304.723
304.769
304.83
304.913
305.024
305.17
305.359
305.593
305.872
306.187
306.53
306.931
307.481
308.264
309.21
300.465
301.337
302.067
302.595
303.011
303.394
303.739
304.017
304.222
304.366
304.463
304.528
304.571
304.601
304.624
304.643
304.66
304.679
304.701
304.728
304.763
304.809
304.872
304.956
305.068
305.216
305.405
305.639
305.917
306.23
306.572
306.971
307.521
308.304
309.25
300.472
301.357
302.098
302.635
303.059
303.451
303.8
304.078
304.282
304.422
304.515
304.576
304.617
304.645
304.666
304.684
304.701
304.719
304.74
304.768
304.803
304.851
304.914
305
305.113
305.262
305.452
305.686
305.963
306.274
306.614
307.013
307.562
308.345
309.291
300.479
301.378
302.13
302.675
303.108
303.509
303.863
304.141
304.342
304.479
304.568
304.626
304.663
304.689
304.708
304.725
304.741
304.759
304.78
304.808
304.844
304.892
304.957
305.043
305.158
305.308
305.498
305.733
306.008
306.318
306.656
307.054
307.602
308.386
309.332
300.487
301.399
302.163
302.717
303.159
303.569
303.927
304.206
304.404
304.536
304.621
304.675
304.71
304.734
304.751
304.767
304.782
304.799
304.821
304.848
304.885
304.934
305
305.088
305.204
305.355
305.546
305.78
306.055
306.362
306.699
307.096
307.644
308.427
309.374
300.495
301.421
302.197
302.76
303.212
303.631
303.993
304.271
304.466
304.594
304.675
304.726
304.758
304.779
304.795
304.809
304.823
304.84
304.861
304.889
304.926
304.976
305.043
305.132
305.249
305.401
305.593
305.827
306.101
306.406
306.742
307.138
307.685
308.468
309.415
300.503
301.445
302.233
302.806
303.267
303.695
304.062
304.339
304.531
304.654
304.731
304.777
304.806
304.825
304.839
304.852
304.865
304.882
304.903
304.931
304.968
305.019
305.087
305.177
305.296
305.449
305.641
305.875
306.148
306.452
306.785
307.18
307.728
308.511
309.457
300.511
301.469
302.27
302.853
303.325
303.762
304.133
304.409
304.597
304.715
304.787
304.829
304.855
304.871
304.883
304.895
304.908
304.923
304.944
304.972
305.01
305.061
305.13
305.222
305.342
305.496
305.689
305.923
306.194
306.496
306.828
307.222
307.77
308.552
309.498
300.52
301.494
302.308
302.902
303.384
303.831
304.206
304.481
304.664
304.778
304.844
304.882
304.904
304.918
304.929
304.939
304.95
304.966
304.986
305.014
305.053
305.105
305.175
305.268
305.389
305.544
305.738
305.971
306.242
306.542
306.873
307.266
307.813
308.595
309.541
300.529
301.521
302.348
302.953
303.445
303.902
304.28
304.554
304.733
304.841
304.902
304.936
304.954
304.966
304.974
304.983
304.994
305.008
305.029
305.057
305.096
305.148
305.22
305.314
305.436
305.592
305.786
306.019
306.288
306.587
306.916
307.308
307.855
308.637
309.582
300.539
301.548
302.389
303.004
303.507
303.973
304.355
304.627
304.802
304.905
304.961
304.991
305.006
305.014
305.021
305.028
305.038
305.052
305.072
305.1
305.139
305.193
305.265
305.36
305.484
305.641
305.835
306.068
306.336
306.633
306.96
307.352
307.899
308.68
309.625
300.548
301.575
302.43
303.056
303.57
304.045
304.43
304.701
304.872
304.97
305.021
305.046
305.057
305.063
305.068
305.073
305.082
305.095
305.115
305.143
305.183
305.237
305.31
305.406
305.531
305.689
305.883
306.116
306.382
306.677
307.003
307.394
307.941
308.722
309.667
300.558
301.603
302.472
303.11
303.635
304.118
304.506
304.776
304.943
305.035
305.082
305.102
305.11
305.113
305.116
305.12
305.127
305.14
305.159
305.187
305.227
305.282
305.356
305.453
305.579
305.738
305.933
306.165
306.43
306.724
307.049
307.439
307.985
308.766
309.71
300.568
301.632
302.515
303.165
303.701
304.192
304.584
304.852
305.015
305.102
305.143
305.159
305.163
305.164
305.164
305.166
305.173
305.184
305.203
305.231
305.271
305.327
305.401
305.5
305.626
305.786
305.981
306.212
306.476
306.768
307.092
307.481
308.027
308.807
309.752
300.579
301.662
302.56
303.221
303.769
304.269
304.664
304.931
305.089
305.17
305.206
305.217
305.218
305.215
305.213
305.214
305.219
305.23
305.248
305.276
305.316
305.372
305.448
305.547
305.675
305.835
306.031
306.262
306.524
306.815
307.137
307.526
308.072
308.852
309.795
300.59
301.692
302.606
303.28
303.839
304.349
304.746
305.011
305.165
305.24
305.27
305.276
305.273
305.267
305.263
305.262
305.265
305.275
305.293
305.321
305.361
305.417
305.494
305.594
305.722
305.883
306.078
306.308
306.57
306.859
307.18
307.568
308.114
308.893
309.837
300.601
301.724
302.653
303.34
303.912
304.431
304.831
305.095
305.243
305.312
305.336
305.337
305.33
305.321
305.314
305.311
305.313
305.322
305.339
305.366