/*--------------------------------*- C++ -*----------------------------------*\
| =========                 |                                                 |
| \\      /  F ield         | OpenFOAM: The Open Source CFD Toolbox           |
|  \\    /   O peration     | Version:  v2006                                 |
|   \\  /    A nd           | Website:  www.openfoam.com                      |
|    \\/     M anipulation  |                                                 |
\*---------------------------------------------------------------------------*/
FoamFile
{
    version     2.0;
    format      ascii;
    class       volScalarField;
    location    "88";
    object      k;
}
// * * * * * * * * * * * * * * * * * * * * * * * * * * * * * * * * * * * * * //

dimensions      [0 2 -2 0 0 0 0];


internalField   nonuniform List<scalar> 
78750
(
7.17552e-07
5.08813e-06
9.55899e-06
1.40576e-05
1.84891e-05
2.2761e-05
2.67905e-05
3.0513e-05
3.38856e-05
3.68845e-05
3.94997e-05
4.17298e-05
4.35788e-05
4.50534e-05
4.61532e-05
4.68867e-05
4.72621e-05
4.72873e-05
4.69694e-05
4.63157e-05
4.53335e-05
4.40341e-05
4.24255e-05
4.04976e-05
3.82675e-05
3.57482e-05
3.29521e-05
2.98906e-05
2.65765e-05
2.30095e-05
1.91585e-05
1.4976e-05
1.05315e-05
6.19241e-06
2.47433e-06
1.70785e-06
1.53237e-05
2.78516e-05
3.96322e-05
5.06906e-05
6.08535e-05
6.99505e-05
7.78951e-05
8.46759e-05
9.03261e-05
9.49002e-05
9.84611e-05
0.000101073
0.000102797
0.000103717
0.000103896
0.000103381
0.000102218
0.000100451
9.81208e-05
9.52635e-05
9.19116e-05
8.80839e-05
8.3785e-05
7.90357e-05
7.38623e-05
6.8299e-05
6.23434e-05
5.59706e-05
4.91396e-05
4.16982e-05
3.34756e-05
2.4905e-05
1.72955e-05
1.18144e-05
2.63686e-06
2.00768e-05
3.64998e-05
5.17507e-05
6.5433e-05
7.72383e-05
8.70849e-05
9.50771e-05
0.000101402
0.000106259
0.000109826
0.000112258
0.000113688
0.00011423
0.000113986
0.000113045
0.000111493
0.000109408
0.00010687
0.000103955
0.000100734
9.72741e-05
9.36204e-05
8.97817e-05
8.57219e-05
8.13665e-05
7.66221e-05
7.13924e-05
6.55656e-05
5.89658e-05
5.13169e-05
4.25171e-05
3.34555e-05
2.53633e-05
1.93213e-05
4.49392e-06
2.85302e-05
5.09916e-05
7.10516e-05
8.78428e-05
0.000101141
0.000111318
0.000118938
0.000124484
0.000128308
0.000130666
0.000131743
0.000131685
0.000130609
0.000128622
0.000125831
0.000122353
0.000118316
0.000113867
0.000109162
0.00010437
9.96638e-05
9.51905e-05
9.10267e-05
8.7137e-05
8.33745e-05
7.9518e-05
7.53144e-05
7.04895e-05
6.4709e-05
5.75987e-05
4.91334e-05
4.04678e-05
3.24398e-05
2.57544e-05
6.58465e-06
3.58829e-05
6.26552e-05
8.54482e-05
0.000103217
0.000116255
0.000125622
0.000132275
0.000136835
0.000139674
0.000141018
0.000141015
0.000139765
0.000137353
0.000133879
0.000129472
0.000124299
0.00011856
0.000112481
0.000106308
0.000100311
9.47737e-05
8.99334e-05
8.58988e-05
8.26189e-05
7.98986e-05
7.74242e-05
7.48011e-05
7.1583e-05
6.72723e-05
6.13969e-05
5.39587e-05
4.61024e-05
3.82141e-05
3.04843e-05
8.96439e-06
4.30359e-05
7.36096e-05
9.87701e-05
0.000117494
0.000130671
0.000139895
0.00014632
0.000150575
0.000152992
0.000153749
0.000152941
0.000150632
0.000146903
0.000141887
0.000135774
0.000128809
0.000121276
0.000113477
0.000105731
9.83845e-05
9.18008e-05
8.62584e-05
8.18565e-05
7.85493e-05
7.61723e-05
7.44333e-05
7.29104e-05
7.10647e-05
6.82572e-05
6.3863e-05
5.77422e-05
5.07669e-05
4.29583e-05
3.41576e-05
1.10569e-05
4.88012e-05
8.22027e-05
0.000109019
0.000128336
0.00014156
0.000150641
0.000156832
0.000160753
0.000162708
0.00016283
0.000161176
0.000157789
0.00015277
0.000146302
0.000138654
0.000130155
0.000121166
0.000112066
0.000103248
9.51422e-05
8.81453e-05
8.24414e-05
7.8029e-05
7.48377e-05
7.27393e-05
7.15091e-05
7.07823e-05
7.00239e-05
6.85249e-05
6.55229e-05
6.06867e-05
5.45266e-05
4.68176e-05
3.73335e-05
1.31214e-05
5.43817e-05
9.05262e-05
0.000119067
0.000139182
0.00015269
0.000161841
0.000167976
0.000171717
0.000173336
0.000172931
0.000170527
0.000166165
0.000159977
0.000152205
0.000143184
0.000133312
0.000123012
0.000112724
0.000102918
9.41062e-05
8.66829e-05
8.07074e-05
7.60979e-05
7.2764e-05
7.06109e-05
6.9493e-05
6.91422e-05
6.90909e-05
6.86146e-05
6.68212e-05
6.31342e-05
5.77096e-05
5.01628e-05
4.03717e-05
1.48086e-05
5.87928e-05
9.71036e-05
0.000127058
0.000147895
0.000161731
0.000171019
0.000177161
0.000180773
0.000182105
0.000181227
0.000178144
0.000172908
0.000165686
0.000156775
0.000146578
0.000135554
0.000124192
0.000112999
0.000102536
9.34015e-05
8.58903e-05
7.99018e-05
7.52747e-05
7.18909e-05
6.96719e-05
6.85372e-05
6.83232e-05
6.8666e-05
6.88841e-05
6.80096e-05
6.52539e-05
6.04759e-05
5.31953e-05
4.34999e-05
1.66378e-05
6.35899e-05
0.000104229
0.000135673
0.000157248
0.0001714
0.0001808
0.000186916
0.00019037
0.000191394
0.000190031
0.000186275
0.000180187
0.000171969
0.000161969
0.000150643
0.000138515
0.000126135
0.00011408
0.000103007
9.35989e-05
8.60224e-05
8.00462e-05
7.54354e-05
7.20292e-05
6.97419e-05
6.85283e-05
6.83063e-05
6.88194e-05
6.94628e-05
6.92465e-05
6.72197e-05
6.30094e-05
5.60709e-05
4.66885e-05
1.8232e-05
6.75862e-05
0.00011014
0.000142861
0.000165138
0.00017965
0.000189226
0.000195384
0.000198745
0.000199522
0.000197741
0.000193385
0.000186531
0.000177414
0.000166427
0.000154084
0.000140964
0.000127686
0.000114901
0.000103373
9.38591e-05
8.63618e-05
8.05348e-05
7.60716e-05
7.27641e-05
7.05063e-05
6.92649e-05
6.90097e-05
6.95715e-05
7.04377e-05
7.06444e-05
6.91503e-05
6.54178e-05
5.88507e-05
4.98841e-05
2.00335e-05
7.2026e-05
0.000116634
0.000150645
0.000173557
0.000188351
0.000198038
0.000204182
0.000207403
0.000207897
0.00020567
0.000200703
0.000193085
0.000183079
0.000171123
0.000157778
0.00014368
0.000129507
0.000115986
0.000103989
9.43465e-05
8.69222e-05
8.12682e-05
7.70031e-05
7.38654e-05
7.17168e-05
7.05155e-05
7.02541e-05
7.0822e-05
7.1788e-05
7.22463e-05
7.11248e-05
6.77797e-05
6.15657e-05
5.30097e-05
2.17222e-05
7.59819e-05
0.00012236
0.000157511
0.000181027
0.000196133
0.000205974
0.000212153
0.000215283
0.000215543
0.000212925
0.000207406
0.000199089
0.000188269
0.00017542
0.000161148
0.000146142
0.00013114
0.000116943
0.000104526
9.47933e-05
8.74808e-05
8.20488e-05
7.80433e-05
7.51506e-05
7.31958e-05
7.21172e-05
7.1908e-05
7.24875e-05
7.34871e-05
7.40729e-05
7.31911e-05
7.01406e-05
6.4227e-05
5.60177e-05
2.35648e-05
8.01966e-05
0.000128398
0.000164665
0.000188723
0.000204082
0.000214039
0.000220224
0.000223242
0.000223258
0.000220246
0.000214185
0.000205193
0.000193589
0.000179877
0.000164704
0.000148802
0.000132968
0.000118071
0.000105189
9.5307e-05
8.80692e-05
8.28471e-05
7.91174e-05
7.65113e-05
7.48118e-05
7.39279e-05
7.38369e-05
7.44634e-05
7.54785e-05
7.61164e-05
7.53739e-05
7.25298e-05
6.68398e-05
5.8877e-05
2.536e-05
8.41397e-05
0.000133987
0.000171272
0.000195849
0.000211477
0.000221576
0.000227797
0.000230738
0.000230545
0.000227183
0.000220632
0.000211025
0.000198704
0.000184201
0.000168194
0.000151455
0.000134828
0.000119247
0.000105883
9.58242e-05
8.86335e-05
8.36115e-05
8.01694e-05
7.78819e-05
7.64878e-05
7.58614e-05
7.59529e-05
7.66732e-05
7.77108e-05
7.83583e-05
7.76801e-05
7.49621e-05
6.94106e-05
6.15831e-05
2.72389e-05
8.81736e-05
0.000139659
0.000177926
0.000202979
0.000218848
0.000229075
0.000235327
0.000238193
0.000237801
0.000234108
0.000227096
0.000216915
0.000203924
0.000188679
0.000171878
0.000154326
0.000136906
0.000120618
0.000106711
9.63936e-05
8.91922e-05
8.4336e-05
8.11716e-05
7.92166e-05
7.81625e-05
7.78446e-05
7.81774e-05
7.90439e-05
8.01295e-05
8.07701e-05
8.01042e-05
7.74416e-05
7.19403e-05
6.4133e-05
2.90998e-05
9.20584e-05
0.000145076
0.000184267
0.000209783
0.000225905
0.000236277
0.000242582
0.000245395
0.000244831
0.000240841
0.000233415
0.000222716
0.000209121
0.000193201
0.000175673
0.000157358
0.000139176
0.000122181
0.000107684
9.70337e-05
8.97567e-05
8.50235e-05
8.21177e-05
8.04985e-05
7.98083e-05
7.98396e-05
8.04648e-05
8.15276e-05
8.26948e-05
8.33292e-05
8.26413e-05
7.99742e-05
7.44396e-05
6.65431e-05
3.09951e-05
9.5935e-05
0.000150448
0.000190527
0.000216485
0.00023285
0.000243369
0.000249732
0.000252501
0.000251781
0.000247519
0.000239714
0.000228544
0.0002144
0.000197864
0.00017966
0.00016062
0.000141693
0.000123974
0.000108837
9.7765e-05
9.03335e-05
8.5666e-05
8.29878e-05
8.16993e-05
8.13896e-05
8.1803e-05
8.2766e-05
8.40745e-05
8.53624e-05
8.60034e-05
8.52725e-05
8.25519e-05
7.69063e-05
6.88168e-05
3.28855e-05
9.97264e-05
0.000155672
0.000196613
0.000223013
0.000239635
0.000250316
0.000256748
0.000259486
0.000258626
0.000254119
0.000245973
0.000234383
0.00021975
0.000202664
0.000183846
0.000164137
0.000144499
0.000126054
0.000110231
9.86393e-05
9.09609e-05
8.62868e-05
8.37912e-05
8.28164e-05
8.28955e-05
8.37195e-05
8.5058e-05
8.66565e-05
8.81047e-05
8.87723e-05
8.7989e-05
8.51753e-05
7.93499e-05
7.09745e-05
3.47823e-05
0.000103458
0.000160791
0.000202569
0.00022941
0.000246298
0.000257147
0.000263652
0.000266361
0.000265371
0.000260638
0.000252187
0.000240223
0.000225161
0.000207588
0.00018822
0.000167895
0.000147581
0.000128415
0.000111866
9.96649e-05
9.16472e-05
8.68891e-05
8.45231e-05
8.38366e-05
8.43041e-05
8.55594e-05
8.73132e-05
8.92418e-05
9.08902e-05
9.16108e-05
9.07755e-05
8.78378e-05
8.17695e-05
7.30211e-05
3.66806e-05
0.000107131
0.000165812
0.000208426
0.000235732
0.000252917
0.000263946
0.000270517
0.000273189
0.00027207
0.000267128
0.000258403
0.000246114
0.000230679
0.000212681
0.000192827
0.000171945
0.000150992
0.000131112
0.000113802
0.000100893
9.24324e-05
8.75004e-05
8.51988e-05
8.47646e-05
8.56122e-05
8.73122e-05
8.95102e-05
9.18145e-05
9.36976e-05
9.4493e-05
9.36076e-05
9.05242e-05
8.41644e-05
7.49728e-05
3.85713e-05
0.000110712
0.000170688
0.000214128
0.000241937
0.000259477
0.000270691
0.00027729
0.0002799
0.000278648
0.000273516
0.000264554
0.00025199
0.000236243
0.000217888
0.000197619
0.000176242
0.000154698
0.000134124
0.000116034
0.000102331
9.3332e-05
8.8135e-05
8.58264e-05
8.56001e-05
8.68112e-05
8.89628e-05
9.16287e-05
9.43434e-05
9.65107e-05
9.74153e-05
9.64909e-05
9.32435e-05
8.65418e-05
7.68335e-05
4.04658e-05
0.000114238
0.000175469
0.000219733
0.000248099
0.000266007
0.000277421
0.000284049
0.000286561
0.000285176
0.000279872
0.000270708
0.000257917
0.000241916
0.000223266
0.000202645
0.000180833
0.000158746
0.000137498
0.000118607
0.000104025
9.43865e-05
8.88258e-05
8.64294e-05
8.6358e-05
8.79086e-05
9.05128e-05
9.3666e-05
9.68198e-05
9.92996e-05
0.00010034
9.93927e-05
9.59701e-05
8.8892e-05
7.86129e-05
4.23444e-05
0.000117658
0.000180075
0.000225119
0.000254032
0.000272258
0.000283882
0.000290607
0.00029305
0.000291556
0.000286112
0.000276786
0.000263818
0.000247621
0.000228745
0.000207845
0.00018567
0.0001631
0.000141218
0.000121526
0.000106003
9.56328e-05
8.96074e-05
8.70336e-05
8.70523e-05
8.89073e-05
9.19563e-05
9.56088e-05
9.92265e-05
0.000102051
0.000103267
0.000102352
9.86894e-05
9.12044e-05
8.03138e-05
4.42279e-05
0.000121035
0.00018461
0.000230421
0.000259848
0.000278387
0.000290229
0.000297077
0.000299522
0.000297895
0.000292316
0.000282856
0.000269751
0.00025341
0.000234366
0.00021325
0.000190777
0.000167783
0.000145307
0.000124821
0.00010831
9.71163e-05
9.05244e-05
8.76772e-05
8.77117e-05
8.98269e-05
9.33053e-05
9.74654e-05
0.000101571
0.000104772
0.000106197
0.000105365
0.000101493
9.35148e-05
8.19451e-05
4.60917e-05
0.0001243
0.000188983
0.000235585
0.000265432
0.000284253
0.000296309
0.000303294
0.000305773
0.000304047
0.000298378
0.000288831
0.000275643
0.000259215
0.000240069
0.000218808
0.000196111
0.000172766
0.000149756
0.000128507
0.000110985
9.88881e-05
9.1627e-05
8.84013e-05
8.83647e-05
9.06821e-05
9.4563e-05
9.92292e-05
0.00010384
0.000107453
0.000109159
0.000108408
0.000104336
9.5816e-05
8.35092e-05
4.79542e-05
0.000127494
0.000193229
0.000240592
0.000270852
0.000289964
0.000302251
0.000309392
0.000311932
0.000310138
0.000304396
0.000294781
0.000281538
0.000265065
0.000245868
0.000224523
0.00020167
0.000178045
0.000154568
0.000132602
0.000114078
0.000101008
9.29771e-05
8.92622e-05
8.9056e-05
9.15053e-05
9.57507e-05
0.000100914
0.000106045
0.000110107
0.000112152
0.000111478
0.000107199
9.81034e-05
8.50116e-05
4.97963e-05
0.000130587
0.00019731
0.00024539
0.000276039
0.000295433
0.000307949
0.00031526
0.000317893
0.000316095
0.000310281
0.000300622
0.000287367
0.000270902
0.000251716
0.000230357
0.000207425
0.000183603
0.00015974
0.00013713
0.000117647
0.000103543
9.46435e-05
9.03216e-05
8.98327e-05
9.23262e-05
9.68833e-05
0.000102524
0.000108184
0.000112724
0.000115144
0.000114558
0.000110069
0.000100373
8.64548e-05
5.16355e-05
0.000133619
0.000201286
0.000250053
0.000281075
0.000300744
0.000313489
0.000320974
0.00032371
0.000321937
0.000316057
0.000306381
0.000293147
0.000276732
0.000257606
0.00023629
0.000213346
0.000189403
0.000165243
0.000142078
0.000121711
0.000106542
9.66926e-05
9.16499e-05
9.07578e-05
9.3194e-05
9.79962e-05
0.000104086
0.000110277
0.000115317
0.000118137
0.000117647
0.000112943
0.000102623
8.78435e-05
5.3456e-05
0.000136561
0.000205113
0.000254525
0.000285897
0.000305831
0.000318804
0.000326467
0.000329317
0.000327586
0.000321673
0.000312013
0.00029884
0.00028252
0.000263505
0.000242292
0.000219406
0.000195425
0.000171059
0.000147436
0.000126278
0.000110038
9.91811e-05
9.33137e-05
9.18919e-05
9.4153e-05
9.9113e-05
0.000105603
0.000112311
0.000117864
0.0001211
0.000120722
0.000115806
0.00010485
8.91821e-05
5.52722e-05
0.000139455
0.000208852
0.000258871
0.00029057
0.000310756
0.000323951
0.000331792
0.000334761
0.000333082
0.000327152
0.000317529
0.000304441
0.000288247
0.000269382
0.00024832
0.000225552
0.000201606
0.000177123
0.000153144
0.000131295
0.000114023
0.000102138
9.53684e-05
9.33014e-05
9.52655e-05
0.000100285
0.000107116
0.000114319
0.000120382
0.000124045
0.000123783
0.000118655
0.00010705
9.04752e-05
5.70761e-05
0.000142283
0.000212477
0.000263052
0.000295048
0.000315474
0.000328886
0.000336907
0.000340004
0.000338393
0.000332469
0.000322909
0.000309935
0.000293898
0.000275222
0.000254358
0.000231765
0.000207925
0.000183411
0.000159175
0.000136739
0.000118496
0.000105589
9.78612e-05
9.5043e-05
9.65829e-05
0.000101547
0.000108637
0.000116292
0.000122869
0.00012695
0.000126814
0.00012148
0.000109223
9.17279e-05
5.88771e-05
0.000145074
0.000216044
0.000267108
0.000299365
0.000320012
0.000333634
0.000341833
0.000345062
0.000343529
0.000337626
0.000328141
0.000315295
0.000299437
0.000280977
0.000260347
0.000237977
0.000214306
0.000189842
0.000165449
0.000142539
0.000123421
0.000109536
0.000100828
9.7176e-05
9.81716e-05
0.000102958
0.000110215
0.000118275
0.000125369
0.000129832
0.000129813
0.000124275
0.000111366
9.29434e-05
6.06662e-05
0.000147803
0.000219547
0.000271005
0.000303492
0.00032435
0.000338179
0.000346558
0.000349926
0.000348487
0.000342632
0.000333231
0.000320528
0.000304867
0.00028665
0.000266288
0.000244182
0.000220733
0.000196391
0.000171935
0.000148663
0.000128777
0.00011398
0.000104299
9.97492e-05
0.000100088
0.00010457
0.000111887
0.000120288
0.000127872
0.000132693
0.000132782
0.00012704
0.000113479
9.41271e-05
6.24286e-05
0.000150418
0.000222872
0.000274714
0.000307428
0.000328491
0.000342519
0.000351072
0.00035458
0.000353246
0.000347474
0.000338146
0.000325589
0.000310142
0.000292188
0.000272119
0.000250312
0.000227132
0.000202974
0.000178542
0.000155022
0.000134499
0.000118888
0.000108276
0.000102803
0.000102394
0.000106449
0.00011371
0.000122369
0.000130394
0.00013554
0.000135723
0.000129774
0.000115561
9.52793e-05
6.41842e-05
0.000152985
0.000226108
0.000278295
0.000311201
0.000332452
0.000346669
0.000355391
0.000359029
0.000357793
0.000352107
0.000342878
0.000330494
0.000315284
0.000297615
0.000277864
0.000256384
0.000233508
0.000209586
0.000185249
0.000161582
0.000140547
0.000124228
0.000112752
0.000106357
0.000105132
0.000108646
0.00011573
0.000124549
0.000132948
0.000138381
0.000138639
0.000132478
0.000117614
9.64049e-05
6.59242e-05
0.000155453
0.000229195
0.000281685
0.000314772
0.000336204
0.000350608
0.000359497
0.00036327
0.000362135
0.000356536
0.000347403
0.000335201
0.000320244
0.000302876
0.000283459
0.000262328
0.000239789
0.000216148
0.000191974
0.000168258
0.000146842
0.000129939
0.00011769
0.000110411
0.000108338
0.000111215
0.000118
0.000126866
0.000135557
0.000141226
0.000141534
0.000135152
0.000119636
9.75019e-05
6.76628e-05
0.000157874
0.000232185
0.000284941
0.000318184
0.000339783
0.000354363
0.000363411
0.000367311
0.000366278
0.000360774
0.000351754
0.000339739
0.000325037
0.000307996
0.000288931
0.000268168
0.000245988
0.000222662
0.000198704
0.00017502
0.000153342
0.000135968
0.000123048
0.000114944
0.000112018
0.000114192
0.000120567
0.000129366
0.000138254
0.000144093
0.000144418
0.000137801
0.00012163
9.85724e-05
6.9385e-05
0.0001602
0.000235019
0.000288007
0.000321389
0.000343144
0.000357894
0.000367094
0.000371118
0.000370184
0.000364777
0.000355881
0.000344068
0.000329632
0.000312907
0.000294217
0.000273839
0.000252041
0.000229062
0.000205369
0.000181795
0.000159971
0.000142247
0.000128767
0.000119917
0.000116165
0.000117595
0.000123471
0.000132088
0.000141067
0.000147002
0.0001473
0.000140425
0.000123592
9.96133e-05
7.11061e-05
0.000162474
0.000237758
0.000290942
0.00032444
0.000346338
0.000361245
0.000370589
0.000374728
0.000373889
0.000368581
0.000359819
0.000348216
0.000334059
0.000317664
0.00029934
0.000279367
0.000257966
0.000235356
0.000211965
0.000188564
0.000166695
0.00014873
0.000134797
0.000125289
0.000120751
0.00012142
0.000126724
0.00013506
0.00014403
0.000149977
0.000150195
0.000143034
0.000125526
0.000100624
7.28132e-05
0.000164655
0.000240345
0.000293686
0.000327281
0.000349308
0.000364362
0.000373841
0.000378089
0.00037734
0.000372132
0.000363512
0.000352129
0.000338258
0.000322203
0.000304258
0.000284685
0.000263704
0.000241486
0.000218434
0.000195265
0.00017345
0.000155357
0.000141086
0.00013102
0.000125759
0.000125669
0.000130344
0.000138302
0.000147155
0.00015303
0.000153111
0.000145629
0.000127429
0.000101598
7.45152e-05
0.00016678
0.000242832
0.000296298
0.000329967
0.000352109
0.000367299
0.000376902
0.00038125
0.000380587
0.000375477
0.000367006
0.000355848
0.000342269
0.000326558
0.000308996
0.000289829
0.00026926
0.00024746
0.000224769
0.000201879
0.000180199
0.000162077
0.000147577
0.000137059
0.000131155
0.000130333
0.000134345
0.000141839
0.000150471
0.000156182
0.000156063
0.000148219
0.000129305
0.000102535
7.6194e-05
0.000168804
0.000245161
0.000298714
0.000332437
0.000354681
0.000369996
0.000379714
0.000384155
0.000383572
0.000378563
0.000370249
0.000359323
0.00034604
0.00033068
0.000313507
0.000294753
0.000274606
0.000253215
0.000230925
0.000208359
0.000186892
0.000168835
0.000154209
0.000143344
0.000136884
0.000135379
0.000138713
0.000145676
0.000153989
0.000159444
0.000159058
0.000150808
0.000131155
0.000103438
7.7858e-05
0.000170764
0.000247384
0.000300991
0.000334749
0.00035708
0.000372509
0.000382333
0.000386858
0.00038635
0.000381442
0.000373291
0.000362599
0.000349614
0.000334602
0.000317817
0.000299476
0.000279753
0.000258781
0.000236887
0.000214685
0.000193496
0.000175589
0.00016093
0.000149815
0.000142892
0.000140763
0.000143431
0.000149815
0.000157725
0.000162833
0.00016211
0.000153404
0.000132984
0.000104311
7.94901e-05
0.000172618
0.000249445
0.000303071
0.000336842
0.000359248
0.000374782
0.000384703
0.000389306
0.00038887
0.000384064
0.000376086
0.000365636
0.000352952
0.000338291
0.000321894
0.000303968
0.000284674
0.000264132
0.000242654
0.000220837
0.000199987
0.000182302
0.00016769
0.000156415
0.000149113
0.000146427
0.000148452
0.000154231
0.00016167
0.000166351
0.000165226
0.000156015
0.000134798
0.000105158
8.10968e-05
0.000174398
0.000251391
0.000305005
0.000338772
0.000361241
0.000376869
0.000386879
0.000391553
0.000391185
0.000386483
0.000378683
0.000368477
0.000356093
0.000341779
0.000325766
0.000308249
0.00028938
0.00026927
0.000248219
0.000226815
0.000206355
0.000188954
0.000174459
0.000163099
0.000155498
0.000152319
0.000153735
0.000158897
0.000165813
0.000169998
0.00016841
0.000158646
0.000136602
0.000105984
8.26609e-05
0.000176066
0.000253171
0.00030674
0.000340486
0.000363005
0.000378719
0.000388811
0.000393552
0.000393253
0.00038866
0.00038105
0.000371094
0.000359013
0.000345046
0.000329415
0.000312305
0.00029386
0.000274182
0.000253568
0.000232604
0.000212585
0.000195526
0.000181208
0.000169832
0.000162001
0.000158392
0.000159236
0.000163782
0.000170137
0.000173766
0.00017166
0.000161298
0.000138398
0.00010679
8.419e-05
0.000177653
0.000254831
0.000308328
0.000342036
0.000364594
0.000380384
0.000390551
0.000395354
0.000395122
0.000390642
0.00038323
0.000373528
0.000361748
0.000348123
0.000332865
0.000316155
0.000298126
0.000278879
0.000258707
0.000238201
0.000218666
0.00020199
0.000187903
0.000176574
0.000168579
0.000164597
0.000164904
0.000168835
0.000174609
0.000177643
0.000174977
0.000163978
0.000140192
0.000107582
8.56689e-05
0.000179125
0.000256327
0.000309723
0.000343375
0.000365962
0.00038182
0.000392057
0.000396919
0.000396756
0.000392397
0.000385198
0.000375759
0.000364285
0.000351001
0.000336114
0.000319796
0.00030218
0.00028336
0.000263635
0.000243604
0.000224596
0.00020834
0.000194527
0.000183294
0.000175192
0.000170896
0.000170715
0.000174074
0.000179217
0.000181611
0.000178347
0.000166676
0.000141983
0.000108362
8.71076e-05
0.000180516
0.000257705
0.000310974
0.000344555
0.000367159
0.000383076
0.000393374
0.000398291
0.000398197
0.000393964
0.000386989
0.000377817
0.000366649
0.000353703
0.000339181
0.000323249
0.000306036
0.000287639
0.000268362
0.000248822
0.000230374
0.000214571
0.000201065
0.000189971
0.000181815
0.00017726
0.00017664
0.000179457
0.000183947
0.000185666
0.000181771
0.000169399
0.000143775
0.000109135
8.84956e-05
0.0001818
0.000258931
0.000312044
0.000345538
0.000368147
0.000384114
0.000394469
0.000399437
0.000399416
0.00039532
0.000388583
0.00037969
0.000368834
0.000356228
0.000342068
0.000326516
0.000309701
0.000291723
0.000272895
0.000253857
0.000236001
0.000220674
0.000207504
0.000196584
0.000188418
0.000183651
0.000182636
0.000184938
0.000188767
0.000189787
0.000185236
0.000172138
0.000145566
0.000109902
8.98429e-05
0.000183006
0.000260045
0.000312976
0.000346365
0.000368968
0.000384976
0.000395379
0.000400395
0.000400446
0.000396493
0.000390005
0.000381398
0.000370858
0.000358591
0.000344789
0.000329614
0.000313191
0.000295627
0.00027725
0.000258724
0.000241486
0.000226656
0.000213841
0.000203118
0.000194967
0.000190035
0.000188669
0.000190485
0.000193656
0.000193965
0.000188739
0.000174895
0.00014736
0.000110665
9.1142e-05
0.000184113
0.000261016
0.000313736
0.000347005
0.000369591
0.000385633
0.000396079
0.000401141
0.000401269
0.000397469
0.000391245
0.000382933
0.000372713
0.000360788
0.000347345
0.000332544
0.000316511
0.000299359
0.000281433
0.000263431
0.000246832
0.000232516
0.000220076
0.000209575
0.000201477
0.000196403
0.000194715
0.000196069
0.000198587
0.000198179
0.000192268
0.000177665
0.000149155
0.000111421
9.23997e-05
0.000185141
0.000261872
0.000314357
0.000347491
0.000370049
0.000386117
0.000396601
0.000401708
0.000401917
0.000398277
0.000392326
0.000384311
0.000374413
0.00036283
0.000349746
0.000335317
0.000319672
0.000302932
0.000285461
0.000267993
0.000252055
0.000238266
0.000226213
0.000215948
0.000207916
0.000202722
0.000200743
0.000201663
0.000203541
0.000202418
0.000195818
0.000180443
0.000150945
0.000112171
9.36078e-05
0.00018607
0.000262586
0.000314811
0.000347796
0.00037032
0.000386408
0.000396927
0.000402082
0.000402381
0.000398916
0.000393244
0.000385529
0.000375953
0.000364714
0.00035199
0.000337935
0.000322678
0.000306351
0.000289341
0.00027242
0.000257159
0.00024391
0.000232254
0.000222237
0.000214288
0.000208998
0.000206738
0.000207239
0.000208487
0.000206657
0.000199369
0.00018322
0.000152738
0.000112911
9.47689e-05
0.000186912
0.000263178
0.00031512
0.000347947
0.00037043
0.000386534
0.000397087
0.000402291
0.000402693
0.000399428
0.000394026
0.000386603
0.000377346
0.00036645
0.000354086
0.000340405
0.00032554
0.000309631
0.000293089
0.000276731
0.00026216
0.000249459
0.000238209
0.00022845
0.000220597
0.000215226
0.000212707
0.000212805
0.000213432
0.000210901
0.000202928
0.000186005
0.000154541
0.000113645
9.58741e-05
0.000187648
0.000263623
0.000315264
0.000347924
0.000370363
0.000386483
0.00039707
0.000402328
0.000402845
0.000399813
0.000394667
0.000387533
0.000378594
0.00036804
0.000356038
0.000342734
0.000328264
0.000312779
0.000296718
0.000280944
0.000267069
0.000254918
0.000244077
0.00023458
0.00022683
0.000221388
0.00021862
0.000218317
0.000218341
0.000215123
0.000206474
0.000188781
0.000156338
0.000114366
9.69248e-05
0.000188288
0.00026394
0.000315264
0.000347751
0.000370143
0.000386278
0.000396902
0.00040222
0.00040286
0.000400067
0.000395188
0.000388344
0.000379721
0.000369505
0.000357862
0.000344936
0.000330865
0.000315815
0.000300254
0.000285094
0.000271911
0.000260306
0.000249872
0.00024064
0.000232999
0.000227496
0.000224493
0.00022381
0.000223221
0.000219328
0.000210011
0.00019155
0.000158128
0.000115078
9.79153e-05
0.000188823
0.000264117
0.000315106
0.000347415
0.000369758
0.000385911
0.000396576
0.000401963
0.000402741
0.000400207
0.000395602
0.00038905
0.00038074
0.000370858
0.000359569
0.00034702
0.000333354
0.000318753
0.000303718
0.000289215
0.000276709
0.000265635
0.000255597
0.000246624
0.000239092
0.000233532
0.000230304
0.000229252
0.000228071
0.000223504
0.000213528
0.000194308
0.000159909
0.00011578
9.88524e-05
0.000189269
0.000264176
0.000314816
0.000346938
0.000369229
0.000385399
0.000396111
0.000401578
0.000402511
0.000400255
0.000395936
0.000389681
0.00038168
0.000372124
0.000361182
0.000349005
0.000335746
0.000321606
0.000307124
0.000293326
0.000281479
0.000270922
0.00026127
0.00025255
0.000245125
0.000239509
0.000236059
0.000234646
0.000232883
0.000227661
0.000217031
0.000197053
0.000161678
0.000116476
9.97377e-05
0.000189627
0.000264116
0.000314387
0.000346311
0.000368545
0.000384731
0.000395493
0.000401051
0.000402159
0.000400208
0.000396194
0.000390245
0.000382556
0.000373323
0.000362721
0.000350908
0.000338051
0.000324377
0.000310466
0.000297408
0.000286207
0.000276158
0.000266886
0.000258414
0.000251092
0.00024542
0.00024175
0.000239981
0.000237647
0.000231782
0.000220511
0.00019978
0.000163437
0.000117168
0.000100582
0.000189916
0.00026396
0.000313841
0.000345553
0.00036772
0.000383918
0.000394731
0.000400391
0.000401695
0.000400074
0.000396387
0.00039076
0.000383389
0.000374478
0.000364209
0.000352753
0.000340292
0.000327083
0.000313753
0.000301452
0.000290891
0.000281346
0.000272453
0.000264232
0.000257018
0.000251289
0.000247397
0.000245269
0.00024237
0.000235875
0.000223971
0.000202495
0.000165191
0.000117859
0.000101389
0.000190139
0.000263705
0.00031317
0.000344653
0.000366743
0.000382947
0.000393812
0.000399584
0.000401105
0.000399845
0.00039651
0.000391223
0.000384184
0.0003756
0.000365663
0.000354557
0.000342486
0.000329737
0.000316989
0.000305451
0.000295518
0.00028647
0.000277955
0.000269988
0.000262886
0.000257109
0.000253
0.000250516
0.000247059
0.000239943
0.000227415
0.0002052
0.000166941
0.000118548
0.000102166
0.000190307
0.000263364
0.000312386
0.000343622
0.000365622
0.000381825
0.00039274
0.000398631
0.000400388
0.000399516
0.000396559
0.000391636
0.000384946
0.000376701
0.000367102
0.000356347
0.000344662
0.000332371
0.000320207
0.000309424
0.000300106
0.000291546
0.000283402
0.000275689
0.000268705
0.000262886
0.000258566
0.000255732
0.000251724
0.000243996
0.000230852
0.000207904
0.000168693
0.000119238
0.000102913
0.000190417
0.000262934
0.000311486
0.000342455
0.000364352
0.000380544
0.000391508
0.000397526
0.00039954
0.000399082
0.000396525
0.000391988
0.000385667
0.000377777
0.000368528
0.00035813
0.000346835
0.000335004
0.000323427
0.000313382
0.000304657
0.000296566
0.000288784
0.000281322
0.000274459
0.000268606
0.000264084
0.000260911
0.000256363
0.000248036
0.000234284
0.000210606
0.000170448
0.000119928
0.000103634
0.000190477
0.000262422
0.000310477
0.000341159
0.000362938
0.000379109
0.000390118
0.000396273
0.000398562
0.00039854
0.000396406
0.000392274
0.000386345
0.000378831
0.000369949
0.000359924
0.000349032
0.000337673
0.0003267
0.000317365
0.000309202
0.000301556
0.000294119
0.000286899
0.000280157
0.000274277
0.000269564
0.000266065
0.000260988
0.000252072
0.000237719
0.000213316
0.00017221
0.000120618
0.000104329
0.000190486
0.000261827
0.000309357
0.000339733
0.000361378
0.000377517
0.000388568
0.000394873
0.000397462
0.00039789
0.00039619
0.000392482
0.000386964
0.000379848
0.000371355
0.000361725
0.000351257
0.000340396
0.000330057
0.000321393
0.000313755
0.000306522
0.000299405
0.000292413
0.000285786
0.000279882
0.000275001
0.000271178
0.00026559
0.000256101
0.000241155
0.000216031
0.000173977
0.000121307
0.000105005
0.000190451
0.000261158
0.000308135
0.000338183
0.000359679
0.000375771
0.000386858
0.000393331
0.000396265
0.000397135
0.000395873
0.000392605
0.000387519
0.000380825
0.000372747
0.000363536
0.00035352
0.000343192
0.000333527
0.000325492
0.00031834
0.000311486
0.000304663
0.000297879
0.00029136
0.000285445
0.000280437
0.000276272
0.000270177
0.000260128
0.0002446
0.000218758
0.000175755
0.000121997
0.00010566
0.000190371
0.000260411
0.000306809
0.00033651
0.000357838
0.000373867
0.00038498
0.000391628
0.000394958
0.000396247
0.000395431
0.00039262
0.00038799
0.000381742
0.000374103
0.000365338
0.000355803
0.000346037
0.000337081
0.000329646
0.000322951
0.000316448
0.000309894
0.000303301
0.000296885
0.000290968
0.000285851
0.000281346
0.000274751
0.000264153
0.000248051
0.000221495
0.00017754
0.000122688
0.000106302
0.000190253
0.000259593
0.000305383
0.000334718
0.000355864
0.000371813
0.000382937
0.000389751
0.000393477
0.000395206
0.000394859
0.000392528
0.000388377
0.000382601
0.000375425
0.000367131
0.000358102
0.000348928
0.000340702
0.000333848
0.000327588
0.000321414
0.000315106
0.000308687
0.000302363
0.000296445
0.000291233
0.000286397
0.000279315
0.000268182
0.000251515
0.000224249
0.000179339
0.000123379