/*--------------------------------*- C++ -*----------------------------------*\
| =========                 |                                                 |
| \\      /  F ield         | OpenFOAM: The Open Source CFD Toolbox           |
|  \\    /   O peration     | Version:  v2006                                 |
|   \\  /    A nd           | Website:  www.openfoam.com                      |
|    \\/     M anipulation  |                                                 |
\*---------------------------------------------------------------------------*/
FoamFile
{
    version     2.0;
    format      ascii;
    class       volScalarField;
    location    "88";
    object      nut;
}
// * * * * * * * * * * * * * * * * * * * * * * * * * * * * * * * * * * * * * //

dimensions      [0 2 -1 0 0 0 0];


internalField   nonuniform List<scalar> 
78750
(
2.03668e-09
3.75131e-07
7.02671e-07
1.03035e-06
1.35133e-06
1.6591e-06
1.94795e-06
2.21355e-06
2.45318e-06
2.66546e-06
2.84996e-06
3.00684e-06
3.13659e-06
3.23986e-06
3.31675e-06
3.36794e-06
3.39408e-06
3.39576e-06
3.37347e-06
3.32771e-06
3.25893e-06
3.16783e-06
3.05491e-06
2.91932e-06
2.76213e-06
2.58406e-06
2.38585e-06
2.16809e-06
1.93148e-06
1.67575e-06
1.39833e-06
1.09533e-06
7.7145e-07
4.53796e-07
6.94931e-09
3.30351e-09
2.65795e-06
5.17567e-06
7.13766e-06
8.80888e-06
1.04146e-05
1.19959e-05
1.35251e-05
1.4977e-05
1.63465e-05
1.76412e-05
1.88722e-05
2.00771e-05
2.12666e-05
2.14926e-05
2.15236e-05
2.14324e-05
2.12264e-05
2.09124e-05
2.04961e-05
1.99823e-05
1.93745e-05
1.86738e-05
1.78778e-05
1.69874e-05
1.60034e-05
1.45538e-05
1.26302e-05
1.06601e-05
8.54581e-06
6.22185e-06
4.1568e-06
3.10034e-06
1.89368e-06
2.25873e-08
5.1004e-09
1.98593e-06
4.0644e-06
6.27213e-06
8.6471e-06
1.11648e-05
1.3676e-05
1.59997e-05
1.80188e-05
1.96906e-05
2.10123e-05
2.19922e-05
2.26428e-05
2.29829e-05
2.30229e-05
2.27606e-05
2.22104e-05
2.14122e-05
2.04277e-05
1.93342e-05
1.82125e-05
1.71343e-05
1.61486e-05
1.52921e-05
1.45712e-05
1.39277e-05
1.32333e-05
1.22999e-05
1.09102e-05
8.92449e-06
6.62044e-06
4.94658e-06
4.83037e-06
1.9856e-06
3.69009e-08
8.69218e-09
1.83168e-06
4.0044e-06
6.89125e-06
1.05569e-05
1.46019e-05
1.82932e-05
2.11756e-05
2.32085e-05
2.44975e-05
2.51465e-05
2.52441e-05
2.48785e-05
2.41443e-05
2.31405e-05
2.19612e-05
2.06869e-05
1.93794e-05
1.80792e-05
1.68144e-05
1.56112e-05
1.45077e-05
1.35512e-05
1.27822e-05
1.22211e-05
1.18394e-05
1.15136e-05
1.09889e-05
9.94131e-06
8.25678e-06
6.42245e-06
5.46034e-06
6.39629e-06
1.89495e-06
4.91443e-08
1.27357e-08
1.8297e-06
4.22867e-06
7.88144e-06
1.29537e-05
1.84102e-05
2.27677e-05
2.56145e-05
2.71105e-05
2.75685e-05
2.71792e-05
2.60988e-05
2.4593e-05
2.28914e-05
2.11763e-05
1.95636e-05
1.81035e-05
1.67971e-05
1.56189e-05
1.45366e-05
1.3529e-05
1.25999e-05
1.17808e-05
1.11124e-05
1.06238e-05
1.03029e-05
1.00443e-05
9.61185e-06
8.72939e-06
7.39555e-06
6.15302e-06
5.95475e-06
7.45055e-06
1.82262e-06
5.81226e-08
1.73378e-08
1.85186e-06
4.43694e-06
8.71678e-06
1.4953e-05
2.13677e-05
2.58289e-05
2.81656e-05
2.88576e-05
2.82987e-05
2.68456e-05
2.4863e-05
2.26966e-05
2.06171e-05
1.87725e-05
1.72036e-05
1.58921e-05
1.47879e-05
1.38308e-05
1.29666e-05
1.21617e-05
1.14088e-05
1.0722e-05
1.0124e-05
9.63565e-06
9.25041e-06
8.89021e-06
8.38546e-06
7.57447e-06
6.55096e-06
5.8175e-06
6.26935e-06
7.83449e-06
1.79383e-06
6.50815e-08
2.1384e-08
1.89741e-06
4.65073e-06
9.42845e-06
1.65224e-05
2.34753e-05
2.78266e-05
2.96846e-05
2.96665e-05
2.8269e-05
2.59977e-05
2.33714e-05
2.08157e-05
1.85751e-05
1.67285e-05
1.52555e-05
1.40904e-05
1.3158e-05
1.23874e-05
1.17208e-05
1.11223e-05
1.05774e-05
1.00691e-05
9.58219e-06
9.11395e-06
8.65462e-06
8.15478e-06
7.527e-06
6.73543e-06
5.94457e-06
5.60379e-06
6.57944e-06
7.71259e-06
1.76428e-06
7.10855e-08
2.5376e-08
1.9327e-06
4.77899e-06
9.85889e-06
1.75257e-05
2.48234e-05
2.90141e-05
3.04176e-05
2.97979e-05
2.77815e-05
2.50081e-05
2.20716e-05
1.93862e-05
1.71371e-05
1.53412e-05
1.39386e-05
1.28491e-05
1.19963e-05
1.13166e-05
1.07642e-05
1.03126e-05
9.93807e-06
9.58951e-06
9.21105e-06
8.76641e-06
8.23752e-06
7.60936e-06
6.87623e-06
6.09735e-06
5.46931e-06
5.39772e-06
6.74041e-06
7.4523e-06
1.74664e-06
7.68244e-08
2.86381e-08
1.96065e-06
4.86879e-06
1.0143e-05
1.81607e-05
2.56152e-05
2.96356e-05
3.06929e-05
2.9639e-05
2.71998e-05
2.41165e-05
2.10225e-05
1.82992e-05
1.60732e-05
1.43193e-05
1.29594e-05
1.19113e-05
1.1104e-05
1.04832e-05
1.00177e-05
9.69634e-06
9.48405e-06
9.2961e-06
9.03583e-06
8.62808e-06
8.04199e-06
7.29801e-06
6.46877e-06
5.68709e-06
5.16461e-06
5.27846e-06
6.88502e-06
7.11986e-06
1.72901e-06
8.27303e-08
3.21745e-08
1.98653e-06
4.93652e-06
1.03521e-05
1.86306e-05
2.61776e-05
3.00348e-05
3.08122e-05
2.94458e-05
2.67391e-05
2.34866e-05
2.03219e-05
1.75888e-05
1.53746e-05
1.36308e-05
1.22709e-05
1.12163e-05
1.04051e-05
9.79365e-06
9.36605e-06
9.12697e-06
9.03367e-06
8.98096e-06
8.83862e-06
8.49118e-06
7.88734e-06
7.0723e-06
6.18077e-06
5.39945e-06
4.94842e-06
5.18859e-06
6.97528e-06
6.81042e-06
1.71457e-06
8.87477e-08
3.52566e-08
2.00565e-06
4.98268e-06
1.04891e-05
1.89278e-05
2.65095e-05
3.02306e-05
3.07941e-05
2.9198e-05
2.63089e-05
2.29596e-05
1.97734e-05
1.70564e-05
1.48637e-05
1.31317e-05
1.17707e-05
1.07035e-05
9.87652e-06
9.25779e-06
8.8462e-06
8.66109e-06
8.65305e-06
8.70495e-06
8.66243e-06
8.37632e-06
7.77517e-06
6.92053e-06
5.99206e-06
5.21465e-06
4.8155e-06
5.15004e-06
7.07386e-06
6.51849e-06
1.70124e-06
9.47752e-08
3.8739e-08
2.02659e-06
5.03435e-06
1.0645e-05
1.92492e-05
2.68311e-05
3.03937e-05
3.07594e-05
2.89821e-05
2.5971e-05
2.25711e-05
1.93839e-05
1.66831e-05
1.4502e-05
1.27684e-05
1.13931e-05
1.0303e-05
9.44848e-06
8.80639e-06
8.38947e-06
8.22901e-06
8.27297e-06
8.3998e-06
8.43997e-06
8.21838e-06
7.64428e-06
6.78607e-06
5.85165e-06
5.08945e-06
4.73376e-06
5.14411e-06
7.17645e-06
6.25925e-06
1.6901e-06
1.00666e-07
4.20034e-08
2.04478e-06
5.07903e-06
1.07733e-05
1.94969e-05
2.70599e-05
3.04875e-05
3.06906e-05
2.877e-05
2.56733e-05
2.22524e-05
1.90841e-05
1.6411e-05
1.42472e-05
1.25148e-05
1.11255e-05
1.00104e-05
9.12555e-06
8.45467e-06
8.02118e-06
7.86678e-06
7.93736e-06
8.11009e-06
8.20776e-06
8.03967e-06
7.50132e-06
6.66231e-06
5.74451e-06
5.00856e-06
4.69503e-06
5.17409e-06
7.30129e-06
6.02806e-06
1.68098e-06
1.06332e-07
4.5565e-08
2.06468e-06
5.13137e-06
1.09286e-05
1.97909e-05
2.73144e-05
3.05853e-05
3.06281e-05
2.85862e-05
2.54317e-05
2.201e-05
1.88684e-05
1.62222e-05
1.40719e-05
1.23362e-05
1.0929e-05
9.78554e-06
8.86679e-06
8.16257e-06
7.70448e-06
7.54191e-06
7.62088e-06
7.81914e-06
7.95682e-06
7.83467e-06
7.33876e-06
6.53653e-06
5.65384e-06
4.95533e-06
4.68651e-06
5.23233e-06
7.44462e-06
5.82758e-06
1.67435e-06
1.11713e-07
4.90347e-08
2.08399e-06
5.18282e-06
1.10749e-05
2.00517e-05
2.75267e-05
3.06575e-05
3.05627e-05
2.84234e-05
2.52329e-05
2.18264e-05
1.87212e-05
1.61075e-05
1.39734e-05
1.22356e-05
1.08104e-05
9.63693e-06
8.68127e-06
7.93864e-06
7.44754e-06
7.26502e-06
7.33631e-06
7.54123e-06
7.70147e-06
7.61537e-06
7.16384e-06
6.40972e-06
5.57521e-06
4.92281e-06
4.70238e-06
5.31665e-06
7.60745e-06
5.65537e-06
1.67018e-06
1.16801e-07
5.26661e-08
2.10421e-06
5.23897e-06
1.12384e-05
2.03423e-05
2.7759e-05
3.07414e-05
3.05135e-05
2.82907e-05
2.50789e-05
2.16963e-05
1.86303e-05
1.60485e-05
1.39296e-05
1.21892e-05
1.07454e-05
9.5413e-06
8.54701e-06
7.76309e-06
7.23294e-06
7.02115e-06
7.07433e-06
7.274e-06
7.44499e-06
7.38726e-06
6.97994e-06
6.2805e-06
5.50295e-06
4.90368e-06
4.73633e-06
5.42237e-06
7.78487e-06
5.51047e-06
1.66851e-06
1.21593e-07
5.62623e-08
2.12459e-06
5.29601e-06
1.13998e-05
2.06177e-05
2.79714e-05
3.08174e-05
3.04737e-05
2.81852e-05
2.49665e-05
2.1617e-05
1.8595e-05
1.60478e-05
1.39461e-05
1.22042e-05
1.07423e-05
9.50611e-06
8.47039e-06
7.64046e-06
7.06356e-06
6.81196e-06
6.83556e-06
7.01846e-06
7.19005e-06
7.15469e-06
6.79161e-06
6.15148e-06
5.43674e-06
4.8954e-06
4.7848e-06
5.54623e-06
7.97352e-06
5.39081e-06
1.66928e-06
1.26118e-07
5.99251e-08
2.14527e-06
5.35554e-06
1.15711e-05
2.09103e-05
2.81977e-05
3.09078e-05
3.04546e-05
2.81091e-05
2.489e-05
2.15761e-05
1.85981e-05
1.60858e-05
1.40025e-05
1.22614e-05
1.07835e-05
9.51681e-06
8.43977e-06
7.56168e-06
6.93367e-06
6.6347e-06
6.62007e-06
6.777e-06
6.94069e-06
6.92185e-06
6.60119e-06
6.02201e-06
5.37351e-06
4.89379e-06
4.84368e-06
5.68445e-06
8.16909e-06
5.29345e-06
1.67226e-06
1.30384e-07
6.35778e-08
2.1662e-06
5.41626e-06
1.17437e-05
2.11976e-05
2.84166e-05
3.10005e-05
3.04512e-05
2.80613e-05
2.48505e-05
2.15763e-05
1.86444e-05
1.61683e-05
1.41053e-05
1.23667e-05
1.0874e-05
9.57723e-06
8.45753e-06
7.52788e-06
6.84298e-06
6.48777e-06
6.42572e-06
6.54791e-06
6.69652e-06
6.69006e-06
6.41116e-06
5.89429e-06
5.31364e-06
4.89758e-06
4.9106e-06
5.83379e-06
8.36797e-06
5.21639e-06
1.67731e-06
1.34431e-07
6.7243e-08
2.18702e-06
5.47821e-06
1.1923e-05
2.14972e-05
2.86478e-05
3.11087e-05
3.04682e-05
2.80378e-05
2.48362e-05
2.16012e-05
1.87151e-05
1.6277e-05
1.42376e-05
1.25061e-05
1.10031e-05
9.6796e-06
8.51874e-06
7.53658e-06
6.79112e-06
6.37294e-06
6.25593e-06
6.3356e-06
6.4619e-06
6.46234e-06
6.22225e-06
5.76722e-06
5.25544e-06
4.90425e-06
4.98281e-06
5.9916e-06
8.56781e-06
5.15701e-06
1.68423e-06
1.38266e-07
7.09107e-08
2.20787e-06
5.54109e-06
1.21056e-05
2.17992e-05
2.88818e-05
3.12273e-05
3.05043e-05
2.80398e-05
2.48507e-05
2.16559e-05
1.88164e-05
1.64177e-05
1.44043e-05
1.26827e-05
1.11723e-05
9.8239e-06
8.62207e-06
7.58553e-06
6.77543e-06
6.2871e-06
6.10778e-06
6.13803e-06
6.23613e-06
6.23926e-06
6.03552e-06
5.64111e-06
5.19824e-06
4.91317e-06
5.05859e-06
6.15478e-06
8.76516e-06
5.11235e-06
1.69264e-06
1.41922e-07
7.45634e-08
2.22821e-06
5.60404e-06
1.22928e-05
2.21131e-05
2.91326e-05
3.13659e-05
3.05594e-05
2.80581e-05
2.48787e-05
2.1723e-05
1.89313e-05
1.65755e-05
1.45934e-05
1.28878e-05
1.13762e-05
1.00078e-05
8.76758e-06
7.67643e-06
6.79863e-06
6.23377e-06
5.98541e-06
5.95949e-06
6.02301e-06
6.02332e-06
5.85183e-06
5.51538e-06
5.14004e-06
4.92155e-06
5.13633e-06
6.32241e-06
8.96077e-06
5.08132e-06
1.70256e-06
1.45405e-07
7.82233e-08
2.2483e-06
5.66693e-06
1.24819e-05
2.24301e-05
2.93842e-05
3.15113e-05
3.06286e-05
2.80919e-05
2.49231e-05
2.18074e-05
1.90649e-05
1.67541e-05
1.48063e-05
1.31208e-05
1.16123e-05
1.02279e-05
8.95172e-06
7.80586e-06
6.85752e-06
6.21027e-06
5.88681e-06
5.79895e-06
5.82258e-06
5.81544e-06
5.67238e-06
5.39107e-06
5.08149e-06
4.92888e-06
5.21374e-06
6.49137e-06
9.15164e-06
5.06064e-06
1.7135e-06
1.48734e-07
8.18524e-08
2.2677e-06
5.72869e-06
1.26692e-05
2.27406e-05
2.9622e-05
3.16448e-05
3.06933e-05
2.81258e-05
2.49696e-05
2.18955e-05
1.92046e-05
1.69429e-05
1.50352e-05
1.33768e-05
1.18788e-05
1.04848e-05
9.17692e-06
7.9775e-06
6.95642e-06
6.22146e-06
5.81673e-06
5.66066e-06
5.63822e-06
5.61768e-06
5.49781e-06
5.26762e-06
5.02132e-06
4.93364e-06
5.28909e-06
6.66073e-06
9.34185e-06
5.04889e-06
1.72516e-06
1.51914e-07
8.54906e-08
2.28696e-06
5.79076e-06
1.28574e-05
2.30449e-05
2.98509e-05
3.17721e-05
3.07561e-05
2.81688e-05
2.50256e-05
2.19917e-05
1.93526e-05
1.7142e-05
1.52779e-05
1.36514e-05
1.21697e-05
1.07722e-05
9.4375e-06
8.18698e-06
7.09242e-06
6.26595e-06
5.77469e-06
5.54519e-06
5.47135e-06
5.43198e-06
5.33006e-06
5.14662e-06
4.96076e-06
4.93681e-06
5.36317e-06
6.83034e-06
9.53153e-06
5.04935e-06
1.73809e-06
1.54963e-07
8.90907e-08
2.30542e-06
5.85206e-06
1.3047e-05
2.33385e-05
3.00655e-05
3.18855e-05
3.08054e-05
2.82004e-05
2.50732e-05
2.20832e-05
1.95003e-05
1.73457e-05
1.5531e-05
1.39433e-05
1.24855e-05
1.1092e-05
9.73647e-06
8.43809e-06
7.26982e-06
6.3485e-06
5.76507e-06
5.45616e-06
5.32475e-06
5.26007e-06
5.16976e-06
5.02778e-06
4.8988e-06
4.93699e-06
5.43499e-06
7.00152e-06
9.71916e-06
5.0586e-06
1.75205e-06
1.57884e-07
9.26878e-08
2.32313e-06
5.91136e-06
1.32329e-05
2.36234e-05
3.02686e-05
3.19892e-05
3.08477e-05
2.8228e-05
2.51202e-05
2.21751e-05
1.96484e-05
1.7551e-05
1.57889e-05
1.42451e-05
1.28179e-05
1.14358e-05
1.00668e-05
8.72596e-06
7.4863e-06
6.46936e-06
5.78921e-06
5.39561e-06
5.20077e-06
5.10437e-06
5.01907e-06
4.91277e-06
4.8367e-06
4.93526e-06
5.50564e-06
7.17458e-06
9.90507e-06
5.07463e-06
1.7668e-06
1.60688e-07
9.62456e-08
2.34016e-06
5.96903e-06
1.34146e-05
2.38973e-05
3.04576e-05
3.20786e-05
3.08755e-05
2.82419e-05
2.51596e-05
2.22604e-05
1.97915e-05
1.77552e-05
1.60511e-05
1.45578e-05
1.31687e-05
1.18061e-05
1.04312e-05
9.05373e-06
7.74574e-06
6.63338e-06
5.85137e-06
5.36696e-06
5.10211e-06
4.96673e-06
4.87894e-06
4.80177e-06
4.77404e-06
4.93077e-06
5.57359e-06
7.34652e-06
1.00884e-05
5.09627e-06
1.78218e-06
1.6338e-07
9.97974e-08
2.35667e-06
6.02548e-06
1.35939e-05
2.41639e-05
3.06352e-05
3.21559e-05
3.08909e-05
2.82434e-05
2.51885e-05
2.23354e-05
1.99255e-05
1.79527e-05
1.63104e-05
1.48727e-05
1.35285e-05
1.21937e-05
1.08218e-05
9.41568e-06
8.04522e-06
6.84047e-06
5.9532e-06
5.37286e-06
5.03182e-06
4.85021e-06
4.75215e-06
4.6971e-06
4.71276e-06
4.92518e-06
5.64013e-06
7.51799e-06
1.02698e-05
5.12265e-06
1.79809e-06
1.65969e-07
1.03313e-07
2.3726e-06
6.08042e-06
1.37692e-05
2.44196e-05
3.07984e-05
3.22181e-05
3.08907e-05
2.8229e-05
2.52021e-05
2.23979e-05
2.00504e-05
1.81451e-05
1.65689e-05
1.51922e-05
1.38994e-05
1.26001e-05
1.12395e-05
9.81265e-06
8.38561e-06
7.09163e-06
6.09638e-06
5.41548e-06
4.99216e-06
4.75682e-06
4.64011e-06
4.59931e-06
4.65242e-06
4.91707e-06
5.70288e-06
7.6858e-06
1.04475e-05
5.15278e-06
1.81437e-06
1.68463e-07
1.0682e-07
2.38826e-06
6.13473e-06
1.39428e-05
2.4668e-05
3.09495e-05
3.22663e-05
3.08749e-05
2.81984e-05
2.51996e-05
2.24452e-05
2.01615e-05
1.83255e-05
1.68185e-05
1.55071e-05
1.42718e-05
1.3016e-05
1.1676e-05
1.02377e-05
8.76176e-06
7.38333e-06
6.2799e-06
5.49564e-06
4.98523e-06
4.68936e-06
4.54583e-06
4.51125e-06
4.59558e-06
4.90867e-06
5.76355e-06
7.85121e-06
1.06222e-05
5.18599e-06
1.83089e-06
1.7087e-07
1.10303e-07
2.40365e-06
6.18836e-06
1.41131e-05
2.49057e-05
3.10858e-05
3.2298e-05
3.08418e-05
2.81505e-05
2.51811e-05
2.2479e-05
2.02617e-05
1.84977e-05
1.70628e-05
1.58206e-05
1.46479e-05
1.34421e-05
1.21308e-05
1.06895e-05
9.1721e-06
7.71407e-06
6.50326e-06
5.61373e-06
5.01203e-06
4.64924e-06
4.47074e-06
4.43385e-06
4.54223e-06
4.89893e-06
5.82072e-06
8.01125e-06
1.07929e-05
5.22177e-06
1.84758e-06
1.73201e-07
1.1378e-07
2.41904e-06
6.24239e-06
1.42811e-05
2.51344e-05
3.12081e-05
3.23132e-05
3.079e-05
2.80831e-05
2.51434e-05
2.24951e-05
2.03456e-05
1.86549e-05
1.72941e-05
1.61243e-05
1.50189e-05
1.38697e-05
1.25952e-05
1.11603e-05
9.61018e-06
8.07912e-06
6.76415e-06
5.76932e-06
5.07359e-06
4.63855e-06
4.41758e-06
4.37006e-06
4.49521e-06
4.89079e-06
5.87752e-06
8.16759e-06
1.09601e-05
5.25936e-06
1.86432e-06
1.75462e-07
1.17234e-07
2.43419e-06
6.2969e-06
1.44448e-05
2.53512e-05
3.1314e-05
3.23106e-05
3.07202e-05
2.79984e-05
2.50904e-05
2.2499e-05
2.04187e-05
1.88023e-05
1.75172e-05
1.64221e-05
1.53874e-05
1.42995e-05
1.30683e-05
1.16474e-05
1.00726e-05
8.47533e-06
7.06043e-06
5.96143e-06
5.16994e-06
4.65809e-06
4.38763e-06
4.32126e-06
4.4556e-06
4.88448e-06
5.93254e-06
8.31927e-06
1.11244e-05
5.29895e-06
1.88111e-06
1.77662e-07
1.20637e-07
2.44804e-06
6.34791e-06
1.46029e-05
2.55565e-05
3.1404e-05
3.22885e-05
3.06285e-05
2.78914e-05
2.50168e-05
2.24867e-05
2.04755e-05
1.89334e-05
1.77254e-05
1.67074e-05
1.57466e-05
1.47245e-05
1.35426e-05
1.21434e-05
1.05521e-05
8.89631e-06
7.38768e-06
6.18764e-06
5.30051e-06
4.70891e-06
4.38316e-06
4.29038e-06
4.42641e-06
4.88254e-06
5.98765e-06
8.46805e-06
1.12862e-05
5.33987e-06
1.89785e-06
1.79802e-07
1.24026e-07
2.46168e-06
6.39845e-06
1.47601e-05
2.57557e-05
3.14814e-05
3.22522e-05
3.05233e-05
2.77714e-05
2.49273e-05
2.24562e-05
2.05168e-05
1.90525e-05
1.79238e-05
1.69846e-05
1.60997e-05
1.51462e-05
1.40177e-05
1.26457e-05
1.10449e-05
9.33776e-06
7.74178e-06
6.44456e-06
5.46307e-06
4.79006e-06
4.4044e-06
4.27845e-06
4.40885e-06
4.88586e-06
6.04307e-06
8.61375e-06
1.14467e-05
5.38249e-06
1.91459e-06
1.81891e-07
1.27385e-07
2.47428e-06
6.44678e-06
1.49135e-05
2.5944e-05
3.15427e-05
3.21965e-05
3.03958e-05
2.76287e-05
2.48185e-05
2.24096e-05
2.05412e-05
1.91537e-05
1.81063e-05
1.72482e-05
1.64414e-05
1.55592e-05
1.4488e-05
1.31485e-05
1.15446e-05
9.79334e-06
8.11741e-06
6.72816e-06
5.65509e-06
4.90068e-06
4.45213e-06
4.28748e-06
4.40553e-06
4.89708e-06
6.10127e-06
8.75854e-06
1.16056e-05
5.42603e-06
1.93122e-06
1.83926e-07
1.3074e-07
2.48671e-06
6.49509e-06
1.50671e-05
2.61253e-05
3.15907e-05
3.21255e-05
3.02535e-05
2.74722e-05
2.46959e-05
2.23493e-05
2.05543e-05
1.92451e-05
1.8277e-05
1.75008e-05
1.67742e-05
1.5965e-05
1.49534e-05
1.36498e-05
1.20477e-05
1.02587e-05
8.50969e-06
7.03371e-06
5.87253e-06
5.03795e-06
4.52506e-06
4.31769e-06
4.41773e-06
4.91788e-06
6.16386e-06
8.90383e-06
1.1765e-05
5.47094e-06
1.9478e-06
1.85911e-07
1.34064e-07
2.49834e-06
6.54157e-06
1.52171e-05
2.62955e-05
3.1622e-05
3.20348e-05
3.00896e-05
2.72941e-05
2.4553e-05
2.22702e-05
2.05501e-05
1.93211e-05
1.84351e-05
1.77398e-05
1.7094e-05
1.63602e-05
1.54104e-05
1.41457e-05
1.25497e-05
1.07286e-05
8.91377e-06
7.35688e-06
6.11184e-06
5.19934e-06
4.62199e-06
4.36938e-06
4.44707e-06
4.95083e-06
6.23401e-06
9.05281e-06
1.19248e-05
5.51667e-06
1.96428e-06
1.87838e-07
1.37386e-07
2.50977e-06
6.5881e-06
1.53675e-05
2.64591e-05
3.16405e-05
3.19288e-05
2.99104e-05
2.71021e-05
2.43975e-05
2.21793e-05
2.0535e-05
1.93867e-05
1.85832e-05
1.79702e-05
1.74038e-05
1.67454e-05
1.58585e-05
1.46344e-05
1.30475e-05
1.11993e-05
9.32517e-06
7.69325e-06
6.36897e-06
5.38143e-06
4.74041e-06
4.44115e-06
4.49339e-06
4.99689e-06
6.31354e-06
9.20769e-06
1.20868e-05
5.56353e-06
1.98069e-06
1.89708e-07
1.40681e-07
2.5206e-06
6.63347e-06
1.55154e-05
2.66122e-05
3.16426e-05
3.18037e-05
2.97109e-05
2.68904e-05
2.42235e-05
2.20711e-05
2.0504e-05
1.94374e-05
1.87174e-05
1.81877e-05
1.77022e-05
1.71182e-05
1.62951e-05
1.51133e-05
1.35379e-05
1.16668e-05
9.73979e-06
8.03912e-06
6.64085e-06
5.58205e-06
4.87913e-06
4.53281e-06
4.55742e-06
5.05761e-06
6.4048e-06
9.37122e-06
1.22507e-05
5.61102e-06
1.99699e-06
1.91507e-07
1.43965e-07
2.53127e-06
6.67893e-06
1.56637e-05
2.67588e-05
3.16325e-05
3.16639e-05
2.94968e-05
2.66656e-05
2.40381e-05
2.19525e-05
2.04631e-05
1.94785e-05
1.88415e-05
1.83947e-05
1.79897e-05
1.74799e-05
1.67184e-05
1.55795e-05
1.40175e-05
1.2127e-05
1.01529e-05
8.38978e-06
6.92322e-06
5.7977e-06
5.03578e-06
4.64328e-06
4.63924e-06
5.13404e-06
6.50966e-06
9.54585e-06
1.2418e-05
5.65958e-06
2.01326e-06
1.93238e-07
1.47205e-07
2.54135e-06
6.72323e-06
1.58096e-05
2.6895e-05
3.16065e-05
3.15055e-05
2.92636e-05
2.64231e-05
2.38366e-05
2.1819e-05
2.04086e-05
1.95065e-05
1.8953e-05
1.85891e-05
1.82646e-05
1.78291e-05
1.71291e-05
1.60305e-05
1.44832e-05
1.2577e-05
1.05615e-05
8.74191e-06
7.21267e-06
6.02527e-06
5.2079e-06
4.77107e-06
4.73852e-06
5.22701e-06
6.63013e-06
9.73426e-06
1.25891e-05
5.70907e-06
2.02953e-06
1.94901e-07
1.50416e-07
2.55124e-06
6.7675e-06
1.59556e-05
2.70242e-05
3.15685e-05
3.13332e-05
2.90171e-05
2.61694e-05
2.36258e-05
2.16773e-05
2.0346e-05
1.95261e-05
1.9055e-05
1.87727e-05
1.85274e-05
1.81646e-05
1.75248e-05
1.6466e-05
1.49318e-05
1.30124e-05
1.09613e-05
9.09175e-06
7.50561e-06
6.26133e-06
5.3925e-06
4.91405e-06
4.85426e-06
5.33668e-06
6.76731e-06
9.93792e-06
1.27649e-05
5.75999e-06
2.04588e-06
1.96508e-07
1.53565e-07
2.56058e-06
6.81063e-06
1.60988e-05
2.71428e-05
3.15149e-05
3.11433e-05
2.87533e-05
2.59007e-05
2.34021e-05
2.15239e-05
2.02728e-05
1.95352e-05
1.91462e-05
1.89449e-05
1.87777e-05
1.84865e-05
1.79056e-05
1.68857e-05
1.53648e-05
1.34333e-05
1.13511e-05
9.43719e-06
7.79957e-06
6.50323e-06
5.58698e-06
5.0699e-06
4.98481e-06
5.46239e-06
6.9217e-06
1.0158e-05
1.29453e-05
5.81221e-06
2.06234e-06
1.98064e-07
1.56665e-07
2.56967e-06
6.85348e-06
1.62413e-05
2.72535e-05
3.14495e-05
3.09403e-05
2.84776e-05
2.56226e-05
2.31712e-05
2.13643e-05
2.01935e-05
1.95375e-05
1.92292e-05
1.91069e-05
1.90155e-05
1.87934e-05
1.82691e-05
1.72864e-05
1.57788e-05
1.38376e-05
1.17293e-05
9.77636e-06
8.09234e-06
6.7486e-06
5.78893e-06
5.23645e-06
5.12846e-06
5.60306e-06
7.09291e-06
1.03945e-05
1.31301e-05
5.86588e-06
2.07895e-06
1.99579e-07
1.59682e-07
2.57818e-06
6.89491e-06
1.63802e-05
2.73529e-05
3.13688e-05
3.07204e-05
2.81862e-05
2.53318e-05
2.29302e-05
2.11962e-05
2.01067e-05
1.95325e-05
1.93041e-05
1.92595e-05
1.92421e-05
1.90869e-05
1.86167e-05
1.7669e-05
1.61739e-05
1.42249e-05
1.2095e-05
1.01085e-05
8.38294e-06
6.9961e-06
5.99677e-06
5.41204e-06
5.28378e-06
5.75779e-06
7.2806e-06
1.06471e-05
1.33187e-05
5.92071e-06
2.09569e-06
2.01058e-07
1.62632e-07
2.58637e-06
6.93572e-06
1.65174e-05
2.74438e-05
3.12762e-05
3.04875e-05
2.78835e-05
2.50329e-05
2.26836e-05
2.10237e-05
2.00158e-05
1.95225e-05
1.93725e-05
1.94034e-05
1.94574e-05
1.9366e-05
1.89469e-05
1.8032e-05
1.65488e-05
1.4594e-05
1.24473e-05
1.04315e-05
8.66928e-06
7.24389e-06
6.20875e-06
5.59489e-06
5.44882e-06
5.92457e-06
7.48337e-06
1.09152e-05
1.35109e-05
5.97685e-06
2.1126e-06
2.0251e-07
1.65485e-07
2.59393e-06
6.97488e-06
1.66504e-05
2.75231e-05
3.11684e-05
3.02382e-05
2.75662e-05
2.47228e-05
2.24289e-05
2.08452e-05
1.99201e-05
1.95081e-05
1.94358e-05
1.95406e-05
1.96635e-05
1.9633e-05
1.92617e-05
1.83766e-05
1.69042e-05
1.49453e-05
1.27861e-05
1.07456e-05
8.95076e-06
7.49077e-06
6.4235e-06
5.78379e-06
5.62315e-06
6.10436e-06
7.70064e-06
1.11972e-05
1.37053e-05
6.03377e-06
2.1296e-06
2.03937e-07
1.68261e-07
2.60113e-06
7.01329e-06
1.67815e-05
2.75935e-05
3.1048e-05
2.99751e-05
2.72374e-05
2.4405e-05
2.21693e-05
2.06632e-05
1.98216e-05
1.94906e-05
1.94949e-05
1.96717e-05
1.98608e-05
1.98878e-05
1.95608e-05
1.87028e-05
1.724e-05
1.52788e-05
1.31116e-05
1.10505e-05
9.22687e-06
7.7359e-06
6.63998e-06
5.97772e-06
5.80571e-06
6.2956e-06
7.93185e-06
1.14926e-05
1.39021e-05
6.0917e-06
2.14674e-06
2.05351e-07
1.70938e-07
2.60776e-06
7.05021e-06
1.69087e-05
2.76524e-05
3.0912e-05
2.96954e-05
2.68945e-05
2.40773e-05
2.19033e-05
2.04769e-05
1.97202e-05
1.94706e-05
1.95511e-05
1.97986e-05
2.00517e-05
2.01329e-05
1.98465e-05
1.90123e-05
1.75578e-05
1.55955e-05
1.34242e-05
1.13462e-05
9.49736e-06
7.97879e-06
6.85741e-06
6.17563e-06
5.99516e-06
6.49674e-06
8.17556e-06
1.17996e-05
1.41002e-05
6.15025e-06
2.16396e-06
2.06753e-07
1.73537e-07
2.61405e-06
7.08644e-06
1.7034e-05
2.77018e-05
3.07624e-05
2.94013e-05
2.65403e-05
2.37427e-05
2.16333e-05
2.02881e-05
1.96169e-05
1.94488e-05
1.96049e-05
1.99216e-05
2.02364e-05
2.03688e-05
2.01193e-05
1.93059e-05
1.78584e-05
1.58965e-05
1.37247e-05
1.16334e-05
9.76244e-06
8.2189e-06
7.07442e-06
6.3761e-06
6.19024e-06
6.70664e-06
8.43088e-06
1.21173e-05
1.42992e-05
6.20941e-06
2.18124e-06
2.08147e-07
1.76042e-07
2.61985e-06
7.12145e-06
1.71559e-05
2.77395e-05
3.05969e-05
2.90908e-05
2.61737e-05
2.34005e-05
2.1359e-05
2.00968e-05
1.95119e-05
1.94255e-05
1.96568e-05
2.00419e-05
2.04164e-05
2.05971e-05
2.03811e-05
1.95852e-05
1.81432e-05
1.61829e-05
1.4014e-05
1.19126e-05
1.00226e-05
8.45698e-06
7.2923e-06
6.57933e-06
6.39027e-06
6.92404e-06
8.69609e-06
1.24434e-05
1.44982e-05
6.26894e-06
2.19859e-06
2.0953e-07
1.78468e-07
2.62531e-06
7.15576e-06
1.72755e-05
2.77668e-05
3.04171e-05
2.87664e-05
2.57975e-05
2.30535e-05
2.10828e-05
1.99047e-05
1.94062e-05
1.94008e-05
1.97063e-05
2.01585e-05
2.05911e-05
2.08177e-05
2.06321e-05
1.9851e-05
1.84134e-05
1.64559e-05
1.42932e-05
1.21847e-05
1.02782e-05
8.69273e-06
7.50958e-06
6.78392e-06
6.59414e-06
7.14814e-06
8.97059e-06
1.27773e-05
1.46966e-05
6.32855e-06
2.21585e-06
2.10899e-07
1.80798e-07
2.63028e-06
7.18881e-06
1.73914e-05
2.77817e-05
3.02216e-05
2.84273e-05
2.54117e-05
2.27021e-05
2.08054e-05
1.97128e-05
1.93006e-05
1.93752e-05
1.97539e-05
2.02719e-05
2.07611e-05
2.10311e-05
2.08732e-05
2.01044e-05
1.86702e-05
1.67171e-05
1.45633e-05
1.24506e-05
1.05302e-05
8.92693e-06
7.72725e-06
6.99075e-06
6.80154e-06
7.37776e-06
9.25246e-06
1.31165e-05
1.48931e-05
6.38795e-06
2.23319e-06
2.12251e-07
1.83037e-07
2.63485e-06
7.22077e-06
1.75037e-05
2.77851e-05
3.0012e-05
2.80759e-05
2.50191e-05
2.23488e-05
2.05288e-05
1.95233e-05
1.91961e-05
1.93488e-05
1.97987e-05
2.0381e-05
2.09248e-05
2.12364e-05
2.11038e-05
2.03455e-05
1.89145e-05
1.69674e-05
1.48251e-05
1.27108e-05
1.07789e-05
9.1599e-06
7.94543e-06
7.19974e-06
7.01304e-06
7.61351e-06
9.54212e-06
1.34609e-05
1.50884e-05
6.44752e-06
2.25073e-06
2.13591e-07
1.85169e-07
2.63881e-06
7.25098e-06
1.76108e-05
2.77755e-05
2.97873e-05
2.77117e-05
2.46197e-05
2.19939e-05
2.02532e-05
1.93369e-05
1.90934e-05
1.93222e-05
1.98416e-05
2.04864e-05
2.10831e-05
2.1434e-05
2.13246e-05
2.05756e-05
1.91482e-05
1.72094e-05
1.50805e-05
1.29666e-05
1.1025e-05
9.39204e-06
8.16418e-06
7.41051e-06
7.22751e-06
7.85344e-06
9.83771e-06
1.38086e-05
1.52811e-05
6.50668e-06
2.26823e-06
2.14907e-07
1.87195e-07
2.6422e-06
7.27944e-06
1.77129e-05
2.77538e-05
2.95486e-05
2.73359e-05
2.4215e-05
2.16391e-05
1.99802e-05
1.91535e-05
1.8993e-05
1.92965e-05
1.98834e-05
2.05881e-05
2.12351e-05
2.16231e-05
2.15352e-05
2.07949e-05
1.93726e-05
1.74452e-05
1.53308e-05
1.32184e-05
1.12688e-05
9.62359e-06
8.3839e-06
7.62373e-06
7.44615e-06
8.09945e-06
1.01394e-05
1.41595e-05
1.5472e-05
6.56573e-06
2.28571e-06
2.16206e-07
1.89104e-07
2.64488e-06
7.30564e-06
1.78089e-05
2.7719e-05
2.92945e-05
2.69471e-05
2.38038e-05
2.12835e-05
1.97098e-05
1.89742e-05
1.88969e-05
1.9274e-05
1.99263e-05
2.06886e-05
2.13829e-05
2.18051e-05
2.17367e-05
2.1005e-05
1.95903e-05
1.76785e-05
1.55787e-05
1.34681e-05
1.15114e-05
9.85492e-06
8.60446e-06
7.83888e-06
7.668e-06
8.35033e-06
1.04471e-05
1.45118e-05
1.56605e-05
6.62459e-06
2.30314e-06
2.17487e-07
1.90911e-07
2.64692e-06
7.32992e-06
1.79e-05
2.76723e-05
2.90251e-05
2.65448e-05
2.33856e-05
2.09269e-05
1.94423e-05
1.87999e-05
1.88065e-05
1.92568e-05
1.9973e-05
2.07899e-05
2.15283e-05
2.19813e-05
2.19299e-05
2.12065e-05
1.98019e-05
1.79103e-05
1.58249e-05
1.37164e-05
1.17533e-05
1.00867e-05
8.82654e-06
8.0565e-06
7.89338e-06
8.60613e-06
1.07607e-05
1.48666e-05
1.58469e-05
6.6832e-06
2.32048e-06
2.18755e-07
1.92618e-07
2.64832e-06
7.35223e-06
1.79862e-05
2.76128e-05
2.87381e-05
2.61266e-05
2.29585e-05
2.0568e-05
1.91766e-05
1.86304e-05
1.87229e-05
1.92471e-05
2.00264e-05
2.08958e-05
2.16748e-05
2.21546e-05
2.2117e-05
2.14006e-05
2.00078e-05
1.81398e-05
1.60692e-05
1.39633e-05
1.19949e-05
1.03191e-05
9.05009e-06
8.27642e-06
8.122e-06
8.86626e-06
1.1079e-05
1.52227e-05
1.60315e-05
6.74179e-06
2.33778e-06
2.20019e-07
1.94246e-07
2.64923e-06
7.37322e-06
1.80692e-05
2.7541e-05
2.84327e-05
2.56914e-05
2.25217e-05
2.02058e-05
1.89122e-05
1.84655e-05
1.86464e-05
1.92461e-05
2.00888e-05
2.10092e-05
2.18255e-05
2.23281e-05
2.23003e-05
2.15887e-05
2.02081e-05
1.83657e-05
1.63106e-05
1.42084e-05
1.22362e-05
1.05529e-05
9.2763e-06
8.49992e-06
8.35493e-06
9.13149e-06
1.14026e-05
1.55798e-05
1.6215e-05
6.80045e-06
2.35506e-06
2.21279e-07
1.95803e-07
2.64969e-06
7.39296e-06
1.81489e-05
2.74557e-05
2.81067e-05
2.52377e-05
2.20743e-05
1.98396e-05
1.86481e-05
1.83045e-05
1.85769e-05
1.92546e-05
2.0162e-05
2.11329e-05
2.19841e-05
2.25054e-05
2.24833e-05
2.17736e-05
2.04044e-05
1.85883e-05
1.65489e-05
1.44514e-05
1.24767e-05
1.07873e-05
9.50456e-06
8.72662e-06
8.59205e-06
9.40185e-06
1.17311e-05
1.59375e-05
1.63974e-05
6.85935e-06
2.37237e-06
2.22537e-07
1.973e-07
2.6498e-06
7.41177e-06
1.8226e-05
2.73565e-05
2.77595e-05
2.47656e-05
2.16165e-05
1.94693e-05
1.83839e-05
1.81463e-05
1.85132e-05
1.92719e-05
2.02462e-05
2.12683e-05
2.2153e-05
2.26897e-05
2.26693e-05
2.19583e-05
2.0599e-05
1.88085e-05
1.67846e-05
1.46924e-05
1.27166e-05
1.10226e-05
9.7351e-06
8.95681e-06
8.83381e-06
9.67792e-06
1.20651e-05
1.62961e-05
1.6579e-05
6.91854e-06
2.38974e-06
2.23795e-07
1.9874e-07
2.64952e-06
7.42951e-06
1.82998e-05
2.72422e-05
2.73901e-05
2.42752e-05
2.11493e-05
1.90959e-05
1.81199e-05
1.79907e-05
1.84547e-05
1.92972e-05
2.03409e-05
2.14156e-05
2.23334e-05
2.28833e-05
2.28612e-05
2.21463e-05
2.07953e-05
1.9028e-05
1.70181e-05
1.49311e-05
1.2955e-05
1.12578e-05
9.96699e-06
9.18973e-06
9.07965e-06
9.95932e-06
1.24043e-05
1.66553e-05
1.67595e-05
6.97795e-06
2.40715e-06
2.25055e-07
2.0013e-07
2.64889e-06
7.44634e-06
1.83708e-05
2.71124e-05
2.69983e-05
2.37673e-05
2.06738e-05
1.87198e-05
1.78562e-05
1.78376e-05
1.84006e-05
1.93294e-05
2.04453e-05
2.15746e-05
2.2526e-05
2.30878e-05
2.3062e-05
2.23412e-05
2.09975e-05
1.92499e-05
1.72513e-05
1.51685e-05
1.31924e-05
1.14931e-05
1.02003e-05
9.42558e-06
9.3299e-06
1.02466e-05
1.27494e-05
1.70156e-05
1.69392e-05
7.0376e-06
2.42464e-06
2.26315e-07
2.01471e-07
2.64789e-06
7.46215e-06
1.84383e-05
2.6966e-05
2.65839e-05
2.32436e-05
2.01918e-05
1.83429e-05
1.75944e-05
1.76872e-05
1.83505e-05
1.93675e-05
2.05579e-05
2.1744e-05
2.27299e-05
2.33033e-05
2.32728e-05
2.25457e-05
2.12091e-05
1.94762e-05
1.7485e-05
1.54046e-05
1.34284e-05
1.17277e-05
1.04342e-05
9.66346e-06
9.58419e-06
1.05391e-05
1.30998e-05
1.73767e-05
1.71176e-05
7.09732e-06
2.44218e-06
2.27574e-07
2.02772e-07
2.64661e-06
7.47727e-06
1.8503e-05
2.68027e-05
2.61472e-05
2.27054e-05
1.97048e-05
1.79657e-05
1.73358e-05
1.75401e-05
1.83037e-05
1.94106e-05
2.06781e-05
2.19233e-05
2.29451e-05
2.35302e-05
2.34946e-05
2.27616e-05
2.14328e-05
1.97093e-05
1.77211e-05
1.56408e-05
1.36638e-05
1.1962e-05
1.06689e-05
9.90423e-06
9.84398e-06
1.08373e-05
1.34559e-05
1.7739e-05
1.72951e-05
7.15723e-06
2.45982e-06
2.28835e-07
2.04036e-07
2.64504e-06
7.49165e-06
1.85644e-05
2.66217e-05
2.56892e-05
2.21558e-05
1.92154e-05
1.75896e-05
1.70808e-05
1.73952e-05
1.8259e-05
1.94573e-05
2.08042e-05
2.21107e-05
2.31699e-05
2.3767e-05
2.37262e-05
2.29877e-05
2.16668e-05
1.9948e-05
1.79592e-05
1.58769e-05
1.38983e-05
1.21958e-05
1.09044e-05
1.01476e-05
1.01085e-05
1.11413e-05
1.38172e-05
1.81019e-05
1.74713e-05
7.21712e-06
2.4775e-06
2.30097e-07
2.05272e-07
2.64326e-06
7.5056e-06
1.86228e-05
2.64227e-05
2.5211e-05
2.15973e-05
1.87262e-05
1.72157e-05
1.68267e-05
1.72509e-05
1.82157e-05
1.95071e-05
2.09358e-05
2.23058e-05
2.34037e-05
2.40135e-05
2.39675e-05
2.32235e-05
2.19099e-05
2.01923e-05
1.81998e-05
1.61136e-05
1.41326e-05
1.24295e-05
1.11406e-05
1.03932e-05
1.0377e-05
1.14507e-05
1.41839e-05
1.84653e-05
1.76461e-05
7.27715e-06