/*--------------------------------*- C++ -*----------------------------------*\
| =========                 |                                                 |
| \\      /  F ield         | OpenFOAM: The Open Source CFD Toolbox           |
|  \\    /   O peration     | Version:  v2006                                 |
|   \\  /    A nd           | Website:  www.openfoam.com                      |
|    \\/     M anipulation  |                                                 |
\*---------------------------------------------------------------------------*/
FoamFile
{
    version     2.0;
    format      ascii;
    class       surfaceScalarField;
    location    "79";
    object      phi;
}
// * * * * * * * * * * * * * * * * * * * * * * * * * * * * * * * * * * * * * //

dimensions      [1 0 -1 0 0 0 0];
oriented        oriented;


internalField   nonuniform List<scalar> 
228225
(
0.00260139
-3.05838e-05
0.000347993
0.0017306
-4.60121e-05
0.000104767
0.0013359
-1.6947e-05
9.44501e-05
0.00111423
-2.43404e-05
8.95337e-05
0.000983941
-2.23275e-05
9.05078e-05
0.000880703
-2.8904e-05
9.01621e-05
0.000789283
-3.32915e-05
8.6622e-05
0.00071391
-3.63849e-05
8.08942e-05
0.000659313
-3.7159e-05
7.55137e-05
0.000612509
-3.5772e-05
7.10458e-05
0.000560693
-3.39022e-05
6.62097e-05
0.000504583
-3.30696e-05
5.99515e-05
0.00045304
-3.32426e-05
5.28291e-05
0.000410391
-3.32094e-05
4.59542e-05
0.000373929
-3.16878e-05
3.99491e-05
0.000339344
-2.84407e-05
3.48648e-05
0.000305816
-2.45554e-05
3.05439e-05
0.000275633
-2.11859e-05
2.6901e-05
0.000250959
-1.86987e-05
2.39335e-05
0.00023219
-1.68035e-05
2.15921e-05
0.000218356
-1.51058e-05
1.97643e-05
0.000207946
-1.33095e-05
1.83607e-05
0.000199399
-1.11953e-05
1.73459e-05
0.00019141
-8.69819e-06
1.6695e-05
0.00018327
-6.01417e-06
1.62058e-05
0.000174201
-3.01661e-06
1.59208e-05
0.000163194
7.33633e-07
1.56882e-05
0.000149798
4.60342e-06
1.55897e-05
0.000134485
7.99737e-06
1.5331e-05
0.000116899
1.10567e-05
1.54156e-05
9.78798e-05
1.38823e-05
1.48318e-05
7.64339e-05
1.6673e-05
1.55129e-05
5.03321e-05
1.77695e-05
1.70258e-05
2.45913e-05
1.66328e-05
1.49682e-05
1.92074e-05
5.87126e-06
-2.74202e-05
-5.3128e-06
-2.24897e-05
-5.45429e-05
1.83719e-06
-1.70159e-05
-4.85447e-05
1.31156e-05
-1.14594e-05
-6.36374e-05
-2.77356e-06
-1.09042e-05
-6.87375e-05
-7.01659e-06
-9.11165e-06
-7.62025e-05
-1.24511e-05
-7.14402e-06
-7.91422e-05
-2.06023e-05
-5.00655e-06
-7.95966e-05
-2.8311e-05
-3.05237e-06
-7.62384e-05
-3.47366e-05
-1.44114e-06
-6.8938e-05
-3.92892e-05
-3.07347e-07
-5.84459e-05
-4.20447e-05
4.81088e-07
-4.64057e-05
-4.35444e-05
1.1335e-06
-3.41499e-05
-4.43698e-05
1.82796e-06
-2.21221e-05
-4.47156e-05
2.59741e-06
-1.08947e-05
-4.3419e-05
3.32703e-06
-2.18715e-06
-3.92024e-05
4.01179e-06
4.38166e-06
-3.49434e-05
4.5989e-06
1.06319e-05
-3.27704e-05
5.01703e-06
1.78648e-05
-3.23281e-05
5.28846e-06
2.59643e-05
-3.18846e-05
5.4607e-06
3.41655e-05
-3.05158e-05
5.57394e-06
4.19431e-05
-2.82851e-05
5.64164e-06
4.86534e-05
-2.48634e-05
5.68417e-06
5.34248e-05
-1.99879e-05
5.76965e-06
5.5834e-05
-1.44217e-05
6.00306e-06
5.60593e-05
-8.81387e-06
6.48094e-06
5.42824e-05
-2.81584e-06
7.2106e-06
5.23958e-05
1.1464e-06
8.13422e-06
5.0052e-05
4.67152e-06
9.15151e-06
4.69738e-05
7.88859e-06
1.0183e-05
4.27552e-05
1.10594e-05
1.11899e-05
3.66717e-05
1.45205e-05
1.21052e-05
2.6781e-05
1.8465e-05
1.21491e-05
1.22063e-05
2.28537e-05
1.04565e-05
2.5114e-05
6.67986e-06
-1.20903e-06
5.80342e-06
4.40845e-06
3.05893e-05
-2.62687e-07
-4.57058e-07
5.89232e-05
-3.07779e-06
-2.21925e-06
7.30034e-05
-6.18008e-06
-2.66185e-06
8.69439e-05
-1.22248e-05
-2.50361e-06
0.000101644
-2.02231e-05
-2.01983e-06
0.000114575
-2.91446e-05
-9.63772e-07
0.000125318
-3.68051e-05
1.69612e-07
0.000132232
-4.15349e-05
1.46011e-06
0.000134851
-4.36591e-05
2.69596e-06
0.000133484
-4.39565e-05
3.70055e-06
0.000128325
-4.29118e-05
4.33576e-06
0.000119558
-4.11666e-05
4.80477e-06
0.000107921
-3.91989e-05
5.07248e-06
9.42772e-05
-3.58818e-05
5.28922e-06
7.87337e-05
-2.97198e-05
5.85126e-06
6.08944e-05
-2.39531e-05
6.4897e-06
4.21775e-05
-2.18228e-05
6.82285e-06
2.46025e-05
-2.28364e-05
6.84999e-06
1.03107e-05
-2.53057e-05
6.77081e-06
1.68366e-07
-2.77614e-05
6.73326e-06
-6.81788e-06
-2.85952e-05
6.6774e-06
-1.14845e-05
-2.74149e-05
6.51214e-06
-1.46462e-05
-2.3776e-05
6.29951e-06
-1.73944e-05
-1.83164e-05
6.19474e-06
-1.98379e-05
-1.28735e-05
6.25548e-06
-2.07527e-05
-8.42613e-06
6.48767e-06
-2.11673e-05
-5.10267e-06
6.87922e-06
-2.05956e-05
-2.78667e-06
7.39624e-06
-1.96444e-05
-2.2967e-07
7.97998e-06
-1.78766e-05
1.80184e-06
8.54051e-06
-1.51482e-05
4.0008e-06
8.95684e-06
-1.15279e-05
6.79217e-06
9.12077e-06
-6.79576e-06
1.03357e-05
8.74979e-06
1.39229e-05
5.58882e-06
2.15191e-05
-1.41471e-05
-2.63428e-06
4.07909e-05
-1.76855e-05
-1.81572e-06
5.74517e-05
-1.9575e-05
1.8747e-08
7.3404e-05
-2.28376e-05
7.39964e-07
8.91145e-05
-2.8434e-05
6.08155e-07
0.000104628
-3.51788e-05
-1.54821e-07
0.000116856
-3.91302e-05
-1.47417e-06
0.000123105
-3.97265e-05
-2.25792e-06
0.000122914
-3.7373e-05
-2.62745e-06
0.000117276
-3.35936e-05
-2.80331e-06
0.000107636
-2.9562e-05
-2.77224e-06
9.5689e-05
-2.60561e-05
-2.56167e-06
8.28783e-05
-2.36095e-05
-2.2664e-06
7.06604e-05
-2.26759e-05
-2.05368e-06
6.14385e-05
-2.31112e-05
-2.0137e-06
5.79333e-05
-2.34519e-05
-1.96902e-06
5.97192e-05
-2.34699e-05
-1.71821e-06
6.50351e-05
-2.54384e-05
-1.17655e-06
7.18739e-05
-2.84792e-05
-4.62693e-07
7.69035e-05
-2.8914e-05
3.54932e-07
7.89803e-05
-2.83674e-05
1.31053e-06
7.72237e-05
-2.62568e-05
2.02276e-06
7.28639e-05
-2.34964e-05
2.30961e-06
6.73885e-05
-1.98803e-05
2.32348e-06
6.17981e-05
-1.51261e-05
2.26995e-06
5.6651e-05
-1.03461e-05
2.28717e-06
5.16975e-05
-6.34404e-06
2.57565e-06
4.63757e-05
-3.25297e-06
3.22093e-06
3.97071e-05
-3.23963e-07
4.0396e-06
3.23257e-05
2.31966e-06
4.78396e-06
2.37774e-05
5.01073e-06
5.32123e-06
1.45053e-05
7.58562e-06
5.57864e-06
5.78011e-06
9.70044e-06
5.46219e-06
-1.71565e-07
1.10472e-05
4.79988e-06
1.16588e-05
3.15247e-06
7.76945e-06
-2.40388e-05
2.613e-06
1.82839e-05
-3.15808e-05
4.19278e-06
3.15175e-05
-3.49293e-05
3.16356e-06
4.61597e-05
-3.82993e-05
2.36552e-06
6.04743e-05
-4.20996e-05
1.81051e-06
7.08708e-05
-4.28753e-05
9.87574e-07
7.35808e-05
-3.73032e-05
-6.33225e-07
6.73776e-05
-2.81655e-05
-2.10363e-06
5.52751e-05
-1.93411e-05
-3.44892e-06
4.08284e-05
-1.27608e-05
-4.50164e-06
2.57711e-05
-7.8019e-06
-5.37384e-06
1.03974e-05
-3.77967e-06
-6.13141e-06
-4.44511e-06
-1.73354e-06
-6.69167e-06
-1.89974e-05
-1.08772e-06
-6.91531e-06
-3.24139e-05
-2.88279e-06
-6.68618e-06
-4.28573e-05
-6.93241e-06
-6.07626e-06
-4.92357e-05
-1.23168e-05
-5.16672e-06
-4.97234e-05
-2.1763e-05
-3.72686e-06
-4.53755e-05
-2.99807e-05
-1.89456e-06
-4.04921e-05
-3.0318e-05
-9.56129e-07
-3.73451e-05
-2.85723e-05
-2.13669e-07
-3.56654e-05
-2.57417e-05
3.96744e-07
-3.51135e-05
-2.26913e-05
9.38793e-07
-3.46568e-05
-1.97146e-05
1.3714e-06
-3.28891e-05
-1.69152e-05
1.71179e-06
-2.93956e-05
-1.4428e-05
1.9735e-06
-2.45293e-05
-1.23064e-05
2.19896e-06
-1.89928e-05
-1.03692e-05
2.41958e-06
-1.32809e-05
-8.11327e-06
2.64836e-06
-8.68982e-06
-4.86316e-06
2.89055e-06
-5.94499e-06
-8.44429e-07
3.15879e-06
-5.0384e-06
3.07098e-06
3.44418e-06
-5.15568e-06
5.8301e-06
3.62358e-06
-4.62987e-06
7.02507e-06
3.1905e-06
6.7115e-06
7.61759e-07
8.69268e-06
-3.01897e-05
-1.45925e-06
1.55609e-05
-3.33334e-05
-2.99404e-06
1.97716e-05
-3.22605e-05
-3.99351e-06
1.81051e-05
-2.86677e-05
-4.40434e-06
8.75415e-06
-2.42373e-05
-4.22493e-06
-4.86604e-06
-2.0989e-05
-3.58008e-06
-1.84809e-05
-1.63407e-05
-3.18744e-06
-2.97822e-05
-1.11952e-05
-3.34049e-06
-3.76081e-05
-7.53301e-06
-4.12421e-06
-4.03331e-05
-5.96501e-06
-5.4113e-06
-3.74363e-05
-5.16642e-06
-6.92584e-06
-2.97929e-05
-4.30595e-06
-8.47149e-06
-2.02514e-05
-2.98689e-06
-9.62007e-06
-1.08748e-05
-1.95525e-06
-9.71135e-06
-4.68802e-06
-9.84076e-07
-8.95041e-06
-2.9512e-06
-8.56749e-07
-8.14857e-06
-5.05727e-06
-2.11954e-06
-7.52371e-06
-1.12305e-05
-7.38981e-06
-6.04733e-06
-2.11774e-05
-1.21474e-05
-4.30014e-06
-3.18869e-05
-1.34211e-05
-3.49296e-06
-4.11819e-05
-1.41461e-05
-2.79044e-06
-4.8587e-05
-1.41978e-05
-2.09404e-06
-5.46735e-05
-1.34584e-05
-1.46497e-06
-5.98801e-05
-1.22792e-05
-9.46498e-07
-6.40052e-05
-1.12501e-05
-5.95391e-07
-6.66269e-05
-1.08486e-05
-2.09568e-07
-6.70526e-05
-1.13001e-05
1.03835e-07
-6.38553e-05
-1.31937e-05
3.5555e-07
-5.60233e-05
-1.577e-05
5.82301e-07
-4.51845e-05
-1.58462e-05
6.86478e-07
-3.34674e-05
-1.29299e-05
7.02518e-07
-2.29676e-05
-7.93896e-06
7.54997e-07
-1.47592e-05
-2.96566e-06
8.4195e-07
-7.32912e-06
-7.05319e-07
6.07748e-07
3.52663e-07
-5.86025e-07
-3.73704e-06
-2.74477e-05
2.62867e-06
-8.76262e-06
-2.78824e-05
1.58072e-06
-1.28275e-05
-2.5815e-05
-4.77338e-07
-1.73577e-05
-2.15216e-05
-1.60638e-06
-2.29047e-05
-1.69837e-05
-2.18021e-06
-2.67407e-05
-1.54895e-05
-2.07478e-06
-2.65826e-05
-1.48169e-05
-1.62464e-06
-2.17931e-05
-1.46087e-05
-8.57331e-07
-1.3949e-05
-1.45181e-05
-9.99757e-08
-5.24406e-06
-1.41907e-05
3.37219e-07
3.5273e-06
-1.34091e-05
2.40224e-07
1.25312e-05
-1.2251e-05
-3.91599e-07
2.20566e-05
-1.0836e-05
-1.13179e-06
3.19709e-05
-9.3304e-06
-2.14655e-06
4.23994e-05
-7.90794e-06
-3.25184e-06
5.27352e-05
-6.68546e-06
-4.38892e-06
6.18852e-05
-5.72223e-06
-5.53885e-06
6.609e-05
-5.06279e-06
-6.6871e-06
6.59093e-05
-4.50637e-06
-7.86876e-06
6.49337e-05
-4.01803e-06
-9.04112e-06
6.314e-05
-3.5208e-06
-9.71059e-06
6.03024e-05
-2.99685e-06
-9.52e-06
5.68423e-05
-2.50369e-06
-8.83315e-06
5.28617e-05
-1.80902e-06
-7.86652e-06
4.87097e-05
-1.46122e-06
-6.95878e-06
4.43945e-05
-1.50659e-06
-6.26203e-06
3.98904e-05
-2.09762e-06
-5.66261e-06
3.4942e-05
-3.15211e-06
-4.62565e-06
2.84533e-05
-4.4382e-06
-2.80637e-06
2.07446e-05
-4.9084e-06
-1.22173e-06
1.38671e-05
-4.35007e-06
-4.2982e-07
8.69053e-06
-2.27396e-06
-9.63845e-08
4.85957e-06
1.04266e-06
-1.71424e-07
1.92813e-06
2.76191e-06
-3.65347e-07
3.52524e-06
-5.20542e-07
1.36974e-06
-2.99026e-05
-1.59219e-08
6.1414e-06
-3.2224e-05
-1.74354e-06
1.22532e-05
-3.15e-05
-1.8111e-06
2.06368e-05
-2.94233e-05
-1.75197e-06
3.11786e-05
-2.64855e-05
-1.96785e-06
4.08283e-05
-2.33361e-05
-2.41667e-06
4.93799e-05
-2.05337e-05
-3.20652e-06
5.6472e-05
-1.81513e-05
-3.76115e-06
6.13875e-05
-1.6041e-05
-3.48763e-06
6.38275e-05
-1.40039e-05
-2.59331e-06
6.42161e-05
-1.19705e-05
-1.64278e-06
6.32853e-05
-9.93068e-06
-1.04428e-06
6.17328e-05
-7.91555e-06
-8.76349e-07
6.00415e-05
-6.01739e-06
-1.01223e-06
5.85414e-05
-4.32677e-06
-1.36591e-06
5.74889e-05
-2.85284e-06
-1.94466e-06
5.70266e-05
-1.54544e-06
-2.749e-06
5.70613e-05
-3.13522e-07
-3.70747e-06
5.75399e-05
9.66469e-07
-4.81309e-06
5.84299e-05
2.3525e-06
-6.11952e-06
5.99689e-05
3.57472e-06
-7.53902e-06
6.21568e-05
4.61396e-06
-8.78698e-06
6.45936e-05
5.42959e-06
-9.47717e-06
6.57631e-05
6.13504e-06
-8.36406e-06
6.41407e-05
6.86229e-06
-6.1143e-06
6.00129e-05
7.66419e-06
-4.64345e-06
5.32237e-05
8.58233e-06
-3.75843e-06
4.31703e-05
9.79177e-06
-3.34308e-06
2.96239e-05
1.12352e-05
-3.18513e-06
1.55576e-05
1.13412e-05
-3.0242e-06
4.73712e-06
9.06705e-06
-2.71232e-06
-9.87785e-07
6.20172e-06
-2.36139e-06
-2.09136e-06
4.77087e-06
-2.01994e-06
-1.28723e-06
4.21898e-06
-1.57222e-06
3.61331e-06
-7.46878e-07
-1.4839e-06
-3.05389e-05
2.46555e-06
-3.58582e-06
-3.34576e-05
3.86567e-06
-5.69872e-06
-3.26617e-05
3.87841e-06
-6.62777e-06
-3.08926e-05
2.99636e-06
-6.12192e-06
-2.86486e-05
2.12657e-06
-4.81747e-06
-2.58912e-05
1.56356e-06
-4.10011e-06
-2.2212e-05
1.14855e-06
-4.37543e-06
-1.84751e-05
6.9867e-07
-5.29245e-06
-1.52836e-05
1.90376e-07
-6.4384e-06
-1.26176e-05
-2.62e-07
-7.67633e-06
-1.03248e-05
-4.52515e-07
-8.83267e-06
-8.30264e-06
-5.08687e-07
-9.81175e-06
-6.4809e-06
-4.60507e-07
-1.05725e-05
-4.80537e-06
-4.08175e-07
-1.11723e-05
-3.20595e-06
-4.2183e-07
-1.1806e-05
-1.51356e-06
-5.47996e-07
-1.21577e-05
-1.69285e-07
-8.11752e-07
-1.21593e-05
1.13643e-06
-1.18119e-06
-1.18235e-05
2.55828e-06
-1.63002e-06
-1.1041e-05
4.06479e-06
-2.20964e-06
-9.94146e-06
5.63775e-06
-2.91928e-06
-8.67676e-06
7.15547e-06
-3.62379e-06
-7.55109e-06
8.58754e-06
-4.17669e-06
-6.8442e-06
9.93499e-06
-4.49448e-06
-6.75556e-06
1.1221e-05
-4.55383e-06
-7.36389e-06
1.24656e-05
-4.44025e-06
-8.49254e-06
1.36256e-05
-4.30408e-06
-9.48542e-06
1.45886e-05
-4.29748e-06
-9.5443e-06
1.51955e-05
-4.45635e-06
-8.92964e-06
1.48179e-05
-4.63663e-06
-8.5042e-06
1.28048e-05
-4.52829e-06
-7.85207e-06
9.69415e-06
-3.97684e-06
-5.59018e-06
6.56177e-06
-3.23729e-06
-2.07902e-06
4.07329e-06
-2.28547e-06
2.93241e-06
-5.22801e-07
-8.82766e-06
-2.09607e-05
-1.46796e-07
-1.02223e-05
-2.90394e-05
-2.04649e-06
-7.64063e-06
-3.17825e-05
-2.49113e-06
-2.52911e-06
-3.28926e-05
-2.15295e-06
4.57851e-06
-3.30378e-05
-1.75245e-06
1.30412e-05
-3.17353e-05
-1.58306e-06
2.16023e-05
-2.81255e-05
-1.60262e-06
2.82185e-05
-2.27156e-05
-1.4601e-06
3.21732e-05
-1.73755e-05
-1.16762e-06
3.40681e-05
-1.32256e-05
-7.95503e-07
3.4541e-05
-1.00523e-05
-4.03249e-07
3.40106e-05
-7.5351e-06
6.12865e-09
3.27645e-05
-5.48908e-06
4.34122e-07
3.11134e-05
-3.75443e-06
7.4777e-07
2.93557e-05
-2.22913e-06
9.19001e-07
2.77901e-05
-7.52434e-07
9.48523e-07
2.62003e-05
7.0974e-07
8.68676e-07
2.48522e-05
1.9743e-06
6.85351e-07
2.38793e-05
3.32438e-06
4.01373e-07
2.35745e-05
4.56688e-06
1.86467e-08
2.40006e-05
5.81439e-06
-3.68283e-07
2.50652e-05
7.08926e-06
-7.48897e-07
2.66674e-05
8.39511e-06
-1.14976e-06
2.86779e-05
9.7405e-06
-1.5469e-06
3.09849e-05
1.11243e-05
-1.93368e-06
3.34886e-05
1.25333e-05
-2.29354e-06
3.59518e-05
1.3999e-05
-2.57034e-06
3.77713e-05
1.56197e-05
-2.61529e-06
3.79417e-05
1.73537e-05
-2.13945e-06
3.57217e-05
1.86161e-05
-1.40555e-06
3.0696e-05
1.90478e-05
-1.0159e-06
2.31223e-05
1.85625e-05
-9.7426e-07
1.49587e-05
1.64852e-05
-8.83967e-07
7.42353e-06
1.363e-05
-4.41973e-07
1.07778e-05
7.69618e-07
-3.34031e-06
-2.01646e-05
1.94338e-06
-1.3383e-06
-3.66202e-05
4.95479e-06
3.04862e-06
-4.2316e-05
5.70324e-06
8.10374e-06
-4.38117e-05
5.58713e-06
1.30894e-05
-4.32797e-05
5.14437e-06
1.79897e-05
-4.09391e-05
4.41848e-06
2.37771e-05
-3.64977e-05
3.13587e-06
2.94356e-05
-2.88549e-05
1.49744e-06
3.27463e-05
-1.92846e-05
-3.46987e-07
3.42657e-05
-1.22124e-05
-1.7487e-06
3.48217e-05
-7.80945e-06
-2.26613e-06
3.45151e-05
-4.74972e-06
-2.09235e-06
3.34043e-05
-2.41642e-06
-1.63886e-06
3.1789e-05
-6.56572e-07
-1.18022e-06
3.00962e-05
5.94718e-07
-8.30518e-07
2.85942e-05
1.6787e-06
-6.19437e-07
2.75326e-05
2.63028e-06
-5.34002e-07
2.68634e-05
3.54142e-06
-5.52227e-07
2.67722e-05
4.45753e-06
-6.70379e-07
2.72084e-05
5.41098e-06
-8.79822e-07
2.81878e-05
6.42944e-06
-1.16348e-06
2.97066e-05
7.52465e-06
-1.49238e-06
3.17133e-05
8.70597e-06
-1.82515e-06
3.40752e-05
1.00027e-05
-2.10362e-06
3.65611e-05
1.14297e-05
-2.24619e-06
3.87448e-05
1.30251e-05
-2.1028e-06
3.99102e-05
1.49199e-05
-1.47933e-06
3.96286e-05
1.72062e-05
-6.58222e-07
3.79926e-05
1.97531e-05
-6.24478e-08
3.50267e-05
2.2094e-05
2.74303e-07
3.08507e-05
2.38655e-05
2.66102e-07
2.54903e-05
2.49134e-05
1.11449e-07
1.82541e-05
2.4961e-05
1.42498e-07
8.72414e-06
2.39471e-05
5.52782e-07
1.97136e-05
8.67942e-07
3.65474e-06
-2.74356e-05
3.48616e-06
1.27846e-05
-4.65817e-05
5.27336e-07
2.35525e-05
-5.21964e-05
-1.19711e-06
3.25659e-05
-5.18945e-05
-1.30483e-06
3.76954e-05
-4.82817e-05
-6.50398e-07
3.8538e-05
-4.25431e-05
5.67632e-08
3.79524e-05
-3.70607e-05
3.93765e-07
3.8055e-05
-3.05342e-05
1.36003e-06
3.68712e-05
-1.86609e-05
1.26236e-06
3.52147e-05
-8.28098e-06
-1.31833e-06
3.51008e-05
-3.05211e-06
-3.84726e-06
3.65177e-05
-5.08654e-07
-5.06934e-06
3.82318e-05
1.42745e-06
-5.11214e-06
3.96309e-05
2.76633e-06
-4.44165e-06
4.04415e-05
3.68531e-06
-3.53218e-06
4.07911e-05
4.34899e-06
-2.64031e-06
4.08042e-05
4.91606e-06
-1.8939e-06
4.0679e-05
5.4574e-06
-1.35383e-06
4.05578e-05
6.0366e-06
-9.85833e-07
4.04954e-05
6.71605e-06
-7.37739e-07
4.04882e-05
7.55299e-06
-5.8611e-07
4.04833e-05
8.58777e-06
-5.13911e-07
4.03932e-05
9.83875e-06
-4.97633e-07
4.01371e-05
1.13012e-05
-5.07775e-07
3.96283e-05
1.29731e-05
-5.10248e-07
3.86465e-05
1.49782e-05
-4.60341e-07
3.68877e-05
1.74863e-05
-3.23662e-07
3.42934e-05
2.04105e-05
-1.41365e-07
3.09447e-05
2.34904e-05
1.0625e-07
2.68922e-05
2.63868e-05
3.08436e-07
2.2152e-05
2.87674e-05
4.24518e-07
1.68133e-05
3.03878e-05
4.30502e-07
1.08475e-05
3.10717e-05
3.26958e-07
4.61146e-06
3.04609e-05
1.09994e-07
2.52457e-05
-2.68504e-07
2.18205e-05
-4.33597e-05
-5.66455e-06
3.99599e-05
-5.88358e-05
-5.43891e-06
5.16171e-05
-5.98317e-05
-3.52235e-06
5.59948e-05
-5.35332e-05
-2.29013e-06
5.20594e-05
-4.229e-05
-1.77685e-06
4.21366e-05
-2.98703e-05
-2.76023e-06
3.10443e-05
-2.23862e-05
-3.95136e-06
1.92554e-05
-1.74084e-05
-2.48067e-06
7.91241e-06
-9.58771e-06
1.6535e-06
4.58179e-07
-2.28916e-06
1.40913e-06
-3.10428e-06
1.69195e-06
-1.08343e-06
-3.96796e-06
3.24266e-06
-2.7849e-06
-3.2192e-06
4.2215e-06
-3.42598e-06
-1.71912e-06
4.98744e-06
-3.59207e-06
5.62901e-08
5.58677e-06
-3.53699e-06
1.78189e-06
6.06485e-06
-3.28407e-06
3.22223e-06
6.50736e-06
-2.84369e-06
4.25337e-06
6.97498e-06
-2.32122e-06
4.87687e-06
7.52374e-06
-1.84079e-06
5.15789e-06
8.20548e-06
-1.46352e-06
5.1366e-06
9.06903e-06
-1.16578e-06
4.82866e-06
1.01516e-05
-9.27645e-07
4.24201e-06
1.14729e-05
-7.45994e-07
3.39566e-06
1.3011e-05
-6.11859e-07
2.27205e-06
1.47939e-05
-5.11596e-07
7.78714e-07
1.69885e-05
-4.20672e-07
-1.04932e-06
1.96258e-05
-3.12728e-07
-2.98611e-06
2.24522e-05
-1.81433e-07
-4.77552e-06
2.51832e-05
-3.0936e-08
-6.23593e-06
2.75588e-05
1.23278e-07
-7.21288e-06
2.93169e-05
2.3116e-07
-7.53462e-06
3.02746e-05
2.33909e-07
-6.92718e-06
3.03075e-05
6.45424e-09
-4.73534e-06
2.88305e-05
-6.16944e-07
2.18289e-05
-1.40401e-06
1.63715e-05
-5.91986e-05
3.22335e-07
2.01809e-05
-6.56392e-05
3.70858e-06
1.25337e-05
-5.64623e-05
4.89653e-06
-8.70389e-06
-3.74026e-05
5.60203e-06
-3.47453e-05
-2.1242e-05
4.85558e-06
-5.1047e-05
-1.31094e-05
-8.67278e-07
-6.03213e-05
-8.50016e-06
-5.05714e-06
-6.83128e-05
-5.42713e-06
-5.03822e-06
-7.0318e-05
-2.99206e-06
-5.61502e-06
-6.47923e-05
-1.01643e-06
-7.2337e-06
-5.59254e-05
6.98574e-07
-7.92822e-06
-4.69684e-05
2.22052e-06
-7.88658e-06
-3.85655e-05
3.53227e-06
-7.64342e-06
-3.09039e-05
4.66691e-06
-7.27583e-06
-2.41582e-05
5.66066e-06
-6.76446e-06
-1.84671e-05
6.54204e-06
-6.1063e-06
-1.39003e-05
7.35195e-06
-5.32468e-06
-1.05008e-05
8.15448e-06
-4.46518e-06
-8.25755e-06
9.00792e-06
-3.58562e-06
-7.07336e-06
9.9489e-06
-2.75989e-06
-6.76081e-06
1.1008e-05
-2.06537e-06
-7.08885e-06
1.22079e-05
-1.53741e-06
-7.8585e-06
1.35571e-05
-1.13816e-06
-8.92862e-06
1.50436e-05
-8.22694e-07
-1.02225e-05
1.67309e-05
-5.70744e-07
-1.16251e-05
1.87242e-05
-3.61471e-07
-1.28756e-05
2.09199e-05
-1.77322e-07
-1.36983e-05
2.30705e-05
-1.21779e-08
-1.38927e-05
2.49624e-05
1.40884e-07
-1.33408e-05
2.64327e-05
2.66338e-07
-1.20391e-05
2.73663e-05
3.47502e-07
-1.01159e-05
2.76864e-05
3.57425e-07
-7.63671e-06
2.72765e-05
2.29862e-07
-4.37118e-06
2.5548e-05
-2.44249e-07
1.85956e-05
-1.33249e-06
-5.48995e-06
-5.71969e-05
3.57539e-06
-2.31275e-05
-5.2356e-05
4.39142e-06
-5.11209e-05
-3.26957e-05
3.92778e-06
-7.83923e-05
-1.49496e-05
2.94195e-06
-9.44926e-05
-8.53778e-06
3.50912e-07
-9.79515e-05
-8.8179e-06
-1.49803e-06
-9.66821e-05
-8.38415e-06
-1.67563e-06
-9.27628e-05
-6.9361e-06
-2.51227e-06
-8.72688e-05
-4.97287e-06
-3.52038e-06
-8.10418e-05
-2.84864e-06
-4.36135e-06
-7.46113e-05
-7.05628e-07
-4.98644e-06
-6.77664e-05
8.39005e-07
-5.42839e-06
-6.08067e-05
2.30991e-06
-5.70981e-06
-5.40217e-05
3.73812e-06
-5.83556e-06
-4.76364e-05
5.10627e-06
-5.81499e-06
-4.18167e-05
6.40256e-06
-5.66377e-06
-3.66689e-05
7.62785e-06
-5.39824e-06
-3.22601e-05
8.80379e-06
-5.01502e-06
-2.86723e-05
9.97131e-06
-4.48565e-06
-2.59802e-05
1.11682e-05
-3.82264e-06
-2.4163e-05
1.24183e-05
-3.11752e-06
-2.30831e-05
1.37279e-05
-2.47433e-06
-2.25319e-05
1.50904e-05
-1.95292e-06
-2.23229e-05
1.64915e-05
-1.53542e-06
-2.22563e-05
1.79509e-05
-1.1884e-06
-2.20535e-05
1.94882e-05
-8.99111e-07
-2.14733e-05
2.10364e-05
-6.60728e-07
-2.03961e-05
2.24712e-05
-4.67633e-07
-1.87937e-05
2.36707e-05
-3.18034e-07
-1.66972e-05
2.45393e-05
-2.13891e-07
-1.42087e-05
2.50042e-05
-1.57162e-07
-1.14072e-05
2.49725e-05
-1.526e-07
-8.23605e-06
2.42876e-05
-2.34719e-07
-4.44163e-06
2.23091e-05
-5.49303e-07
1.55618e-05
-1.3128e-06
-2.06713e-05
-4.1441e-05
4.73858e-06
-3.92629e-05
-4.06701e-05
6.39445e-06
-4.89273e-05
-2.68216e-05
3.16993e-06
-4.9564e-05
-1.33148e-05
-7.31188e-07
-4.75623e-05
-8.9451e-06
-1.46639e-06
-4.67246e-05
-7.62843e-06
-1.97192e-06
-4.63014e-05
-6.32669e-06
-2.41131e-06
-4.57023e-05
-4.58919e-06
-2.86274e-06
-4.4531e-05
-2.76486e-06
-3.28496e-06
-4.24231e-05
-1.19406e-06
-3.66422e-06
-3.97594e-05
7.24315e-07
-3.99851e-06
-3.70013e-05
2.44709e-06
-4.27896e-06
-3.41413e-05
4.02144e-06
-4.49483e-06
-3.11798e-05
5.47953e-06
-4.63784e-06
-2.81784e-05
6.86e-06
-4.70067e-06
-2.52308e-05
8.17935e-06
-4.67812e-06
-2.24385e-05
9.44673e-06
-4.5683e-06
-1.98885e-05
1.06712e-05
-4.37229e-06
-1.7643e-05
1.18697e-05
-4.09434e-06
-1.57533e-05
1.30669e-05
-3.73181e-06
-1.42598e-05
1.42784e-05
-3.28616e-06
-1.31528e-05
1.55064e-05
-2.80564e-06
-1.23567e-05
1.6746e-05
-2.35963e-06
-1.17867e-05
1.79877e-05
-1.96663e-06
-1.13364e-05
1.9225e-05
-1.62159e-06
-1.08584e-05
2.04427e-05
-1.32561e-06
-1.0227e-05
2.15965e-05
-1.0782e-06
-9.37106e-06
2.26221e-05
-8.7681e-07
-8.30009e-06
2.34544e-05
-7.18242e-07
-7.07286e-06
2.40335e-05
-5.98828e-07
-5.72385e-06
2.42906e-05
-5.16457e-07
-4.29264e-06
2.41407e-05
-4.78863e-07
-2.81212e-06
2.34596e-05
-5.18759e-07
-1.31774e-06
2.17183e-05
-7.42988e-07
1.57174e-05
-1.29535e-06
-1.01151e-05
-3.92872e-05
7.98112e-06
-1.82486e-05
-4.38499e-05
1.10196e-05
-1.83846e-05
-3.88924e-05
1.20575e-05
-1.68372e-05
-2.42934e-05
9.35157e-06
-1.93112e-05
-1.21757e-05
5.54308e-06
-2.29023e-05
-7.63702e-06
3.52833e-06
-2.61032e-05
-5.05343e-06
1.96641e-06
-2.83848e-05
-2.97056e-06
7.30863e-07
-2.98067e-05
-1.01803e-06
-2.48367e-07
-3.06261e-05
6.60294e-07
-9.5688e-07
-3.04595e-05
2.23054e-06
-1.59575e-06
-2.95559e-05
3.75431e-06
-2.13647e-06
-2.81174e-05
5.22704e-06
-2.57312e-06
-2.63222e-05
6.65703e-06
-2.90651e-06
-2.43142e-05
8.05855e-06
-3.14791e-06
-2.22101e-05
9.4321e-06
-3.30639e-06
-2.01005e-05
1.07646e-05
-3.38469e-06
-1.80614e-05
1.20553e-05
-3.38642e-06
-1.61555e-05
1.33139e-05
-3.3174e-06
-1.4418e-05
1.45462e-05
-3.18562e-06
-1.28627e-05
1.5757e-05
-3.00172e-06
-1.14905e-05
1.6949e-05
-2.77887e-06
-1.02912e-05
1.81213e-05
-2.53248e-06
-9.24348e-06
1.92683e-05
-2.27804e-06
-8.30912e-06
2.03791e-05
-2.02855e-06
-7.43702e-06
2.1435e-05
-1.79433e-06
-6.58525e-06
2.24086e-05
-1.58336e-06
-5.73636e-06
2.32637e-05
-1.40016e-06
-4.89353e-06
2.39564e-05
-1.24609e-06
-4.06563e-06
2.44337e-05
-1.12181e-06
-3.26224e-06
2.46315e-05
-1.02994e-06
-2.48758e-06
2.44684e-05
-9.80126e-07
-1.71585e-06
2.38154e-05
-9.96533e-07
-8.71318e-07
2.2147e-05
-1.13885e-06
1.63309e-05
-1.37393e-06
-9.63715e-06
-3.23219e-05
2.81911e-06
-1.95684e-05
-3.68528e-05
3.04864e-06
-2.72455e-05
-3.57981e-05
4.60049e-06
-2.58128e-05
-3.11172e-05
5.62202e-06
-2.02589e-05
-2.14305e-05
4.00507e-06
-1.78299e-05
-1.24396e-05
2.50821e-06
-1.76465e-05
-6.9683e-06
1.81665e-06
-1.82432e-05
-3.60152e-06
1.30769e-06
-1.8817e-05
-1.18652e-06
8.23793e-07
-1.91959e-05
7.97754e-07
3.26234e-07
-1.93168e-05
2.59657e-06
-1.56927e-07
-1.91965e-05
4.2769e-06
-5.54847e-07
-1.87732e-05
5.84811e-06
-9.58678e-07
-1.80224e-05
7.31411e-06
-1.32627e-06
-1.69706e-05
8.72089e-06
-1.63762e-06
-1.56849e-05
1.01064e-05
-1.88946e-06
-1.42415e-05
1.1467e-05
-2.08134e-06
-1.27239e-05
1.28089e-05
-2.21305e-06
-1.12132e-05
1.4142e-05
-2.28768e-06
-9.77683e-06
1.54652e-05
-2.31026e-06
-8.46299e-06
1.67713e-05
-2.28782e-06
-7.29769e-06
1.80497e-05
-2.22886e-06
-6.2864e-06
1.92885e-05
-2.14272e-06
-5.41838e-06
2.04756e-05
-2.0388e-06
-4.67218e-06
2.15979e-05
-1.92586e-06
-4.02197e-06
2.264e-05
-1.81151e-06
-3.44375e-06
2.35819e-05
-1.70196e-06
-2.91908e-06
2.43977e-05
-1.60211e-06
-2.43562e-06
2.50531e-05
-1.51585e-06
-1.98556e-06
2.55031e-05
-1.4468e-06
-1.56257e-06
2.56901e-05
-1.39969e-06
-1.15815e-06
2.55376e-05
-1.38298e-06
-7.52668e-07
2.4917e-05
-1.40722e-06
-3.15612e-07
2.32944e-05
-1.4832e-06
1.74965e-05
-1.40813e-06
-9.5341e-06
-2.99899e-05
7.12147e-06
-1.42216e-05
-3.98653e-05
8.00234e-06
-1.64553e-05
-4.08544e-05
7.79321e-06
-1.56475e-05
-3.87145e-05
7.51098e-06
-1.11387e-05
-3.24328e-05
7.31159e-06
-6.10292e-06
-2.26728e-05
5.87029e-06
-3.00454e-06
-1.3965e-05
4.2635e-06
-2.27595e-06
-7.37742e-06
3.22024e-06
-2.81503e-06
-3.1194e-06
2.57888e-06
-3.81441e-06
-2.17482e-07
2.10762e-06
-4.8047e-06
1.99523e-06
1.68693e-06
-5.49867e-06
3.79842e-06
1.27453e-06
-5.82887e-06
5.42284e-06
8.63256e-07
-5.91049e-06
7.04976e-06
4.5684e-07
-5.90746e-06
8.79026e-06
3.91598e-08
-5.99084e-06
1.0557e-05
-2.59318e-07
-6.06479e-06
1.21782e-05
-5.36287e-07
-5.98951e-06
1.36099e-05
-7.84397e-07
-5.69771e-06
1.49271e-05
-9.95225e-07
-5.19967e-06
1.62035e-05
-1.16534e-06
-4.54553e-06
1.74734e-05
-1.29545e-06
-3.80762e-06
1.87527e-05
-1.38941e-06
-3.06894e-06
2.00465e-05
-1.45291e-06
-2.40004e-06
2.13373e-05
-1.4927e-06
-1.84375e-06
2.25913e-05
-1.51555e-06
-1.41394e-06
2.37708e-05
-1.52768e-06
-1.10035e-06
2.48375e-05
-1.53469e-06
-8.79893e-07
2.57571e-05
-1.54161e-06
-7.25492e-07
2.64956e-05
-1.55304e-06
-6.07849e-07
2.70108e-05
-1.5741e-06
-4.95518e-07
2.72498e-05
-1.61146e-06
-3.60881e-07
2.71463e-05
-1.67344e-06
-1.86963e-07
2.65797e-05
-1.75824e-06
-1.20419e-09
2.49987e-05
-1.8202e-06
1.89831e-05
-1.46923e-06
-1.05145e-06
-3.08659e-05
1.79305e-06
-5.22579e-06
-3.85776e-05
2.41269e-06
-1.1189e-05
-3.9417e-05
4.08638e-06
-1.683e-05
-3.89585e-05
5.56947e-06
-1.85818e-05
-3.74169e-05
6.77191e-06
-1.45267e-05
-3.37154e-05
7.5805e-06
-7.66958e-06
-2.70417e-05
7.11485e-06
-1.83204e-06
-1.792e-05
5.44447e-06
2.1993e-06
-1.04485e-05
3.69426e-06
4.27577e-06
-4.75477e-06
2.62008e-06
4.48003e-06
-2.44917e-07
2.09552e-06
3.83536e-06
2.64397e-06
1.83701e-06
2.82662e-06
4.81998e-06
1.66004e-06
1.78099e-06
6.69128e-06
1.48514e-06
9.37745e-07
8.48214e-06
1.28251e-06
3.79501e-07
1.0252e-05
1.04593e-06
1.64697e-08
1.19748e-05
7.86172e-07
-3.36562e-07
1.36859e-05
5.17578e-07
-8.78642e-07
1.54753e-05
2.41473e-07
-1.57443e-06
1.71888e-05
-4.63537e-08
-2.30412e-06
1.8672e-05
-2.40034e-07
-2.8711e-06
1.99621e-05
-4.32981e-07
-3.19709e-06
2.11677e-05
-6.08194e-07
-3.29951e-06
2.23623e-05
-7.61008e-07
-3.24528e-06
2.35649e-05
-8.91821e-07
-3.11246e-06
2.47537e-05
-1.00484e-06
-2.9553e-06
2.58754e-05
-1.10703e-06
-2.7948e-06
2.68721e-05
-1.2073e-06
-2.62138e-06
2.76883e-05
-1.31279e-06
-2.40207e-06
2.82686e-05
-1.43245e-06
-2.10059e-06
2.85577e-05
-1.57742e-06
-1.66624e-06
2.84938e-05
-1.75608e-06
-1.0644e-06
2.79485e-05
-1.95174e-06
-3.94975e-07
2.63338e-05
-2.03468e-06
1.99012e-05
-1.40235e-06
-5.42409e-07
-3.342e-05
3.18598e-06
-1.50111e-06
-4.04325e-05
2.93024e-06
-2.24461e-06
-4.10313e-05
2.4052e-06
-2.79356e-06
-4.07062e-05
2.18397e-06
-3.71403e-06
-3.92709e-05
2.42241e-06
-5.17196e-06
-3.60585e-05
3.38105e-06
-5.95755e-06
-3.17041e-05
5.55156e-06
-4.54526e-06
-2.5902e-05
7.3002e-06
-6.6722e-07
-2.06762e-05
7.35335e-06
4.97144e-06
-1.58606e-05
6.55661e-06
1.06322e-05
-1.01182e-05
5.17757e-06
1.4251e-05
-3.82137e-06
3.43149e-06
1.52657e-05
1.95143e-06
2.06885e-06
1.42394e-05
6.29726e-06
1.47027e-06
1.25619e-05
8.85527e-06
1.30546e-06
1.10426e-05
1.0495e-05
1.2672e-06
9.72906e-06
1.20429e-05
1.26273e-06
8.58493e-06
1.3661e-05
1.25612e-06
7.56055e-06
1.54818e-05
1.21369e-06
6.54938e-06
1.73999e-05
1.10045e-06
5.36463e-06
1.93101e-05
9.21043e-07
3.82557e-06
2.12223e-05
7.01368e-07
2.01054e-06
2.29751e-05
4.59999e-07
1.96959e-07
2.44373e-05
2.05281e-07
-1.37401e-06
2.56602e-05
-5.69115e-08
-2.66437e-06
2.67314e-05
-2.31627e-07
-3.63573e-06
2.76899e-05
-4.08487e-07
-4.29816e-06
2.85217e-05
-5.79639e-07
-4.65958e-06
2.91803e-05
-7.53297e-07
-4.70629e-06
2.96102e-05
-9.48117e-07
-4.40734e-06
2.97591e-05
-1.1816e-06
-3.70719e-06
2.95553e-05
-1.4673e-06
-2.55588e-06
2.88444e-05
-1.78617e-06
-1.06927e-06
2.69918e-05
-1.94512e-06
2.00986e-05
-1.15505e-06
7.75503e-07
-3.62014e-05
1.95742e-06
2.93879e-06
-4.49232e-05
2.33081e-06
4.95498e-06
-4.57255e-05
2.71179e-06
6.20917e-06
-4.50045e-05
3.09085e-06
6.60637e-06
-4.28931e-05
3.2634e-06
6.67957e-06
-3.89812e-05
2.7906e-06
7.20627e-06
-3.44559e-05
2.03062e-06
8.62992e-06
-2.94788e-05
1.94057e-06
1.01833e-05
-2.48234e-05
2.42054e-06
1.19148e-05
-2.12484e-05
3.70459e-06
1.37201e-05
-1.72414e-05
5.89413e-06
1.53882e-05
-1.20847e-05
7.43734e-06
1.68583e-05
-6.13158e-06
7.43716e-06
1.75571e-05
3.70407e-07
5.94166e-06
1.75807e-05
5.78195e-06
3.61618e-06
1.68063e-05
9.81431e-06
1.77125e-06
1.51789e-05
1.26722e-05
1.11111e-06
1.35884e-05
1.42642e-05
1.00382e-06
1.25906e-05
1.54088e-05
1.04734e-06
1.21022e-05
1.67278e-05
1.14006e-06
1.18694e-05
1.83212e-05
1.24988e-06
1.16279e-05
2.02576e-05
1.33819e-06
1.1103e-05
2.24138e-05
1.34206e-06
1.00292e-05
2.4622e-05
1.24998e-06
8.36843e-06
2.66727e-05
1.09535e-06
6.34952e-06
2.83647e-05
9.08843e-07
4.28029e-06
2.96394e-05
7.08321e-07
2.37915e-06
3.0563e-05
4.99483e-07
7.63907e-07
3.11955e-05
2.74139e-07
-4.61775e-07
3.15392e-05
-8.68928e-09
-1.29985e-06
3.15581e-05
-2.54875e-07
-1.62286e-06
3.119e-05
-5.97781e-07
-1.30731e-06
3.02818e-05
-1.04609e-06
-4.02402e-07
2.81708e-05
-1.41962e-06
2.1017e-05
-8.19199e-07
-2.83714e-06
-3.5801e-05
2.1789e-06
-4.54727e-06
-4.57748e-05
2.19823e-06
-5.42396e-06
-4.71273e-05
1.8486e-06
-5.57278e-06
-4.70485e-05
1.71572e-06
-4.58716e-06
-4.62396e-05
1.87396e-06
-1.88304e-06
-4.45189e-05
2.37329e-06
1.38785e-06
-4.11737e-05
3.03241e-06
4.05667e-06
-3.58449e-05
3.33134e-06
5.61698e-06
-2.99198e-05
3.20774e-06
5.58604e-06
-2.45471e-05
3.03633e-06
4.75763e-06
-1.9739e-05
3.08837e-06
4.45644e-06
-1.54798e-05
3.54288e-06
5.15611e-06
-1.15224e-05
4.71088e-06
6.57247e-06
-6.87159e-06
5.98051e-06
8.18996e-06
-1.81947e-06
6.18441e-06
9.88838e-06
3.09395e-06
5.25694e-06
1.15597e-05
7.78889e-06
3.56112e-06
1.26747e-05
1.19015e-05
1.71075e-06