/*--------------------------------*- C++ -*----------------------------------*\
| =========                 |                                                 |
| \\      /  F ield         | OpenFOAM: The Open Source CFD Toolbox           |
|  \\    /   O peration     | Version:  v2006                                 |
|   \\  /    A nd           | Website:  www.openfoam.com                      |
|    \\/     M anipulation  |                                                 |
\*---------------------------------------------------------------------------*/
FoamFile
{
    version     2.0;
    format      ascii;
    class       volScalarField;
    location    "79";
    object      T;
}
// * * * * * * * * * * * * * * * * * * * * * * * * * * * * * * * * * * * * * //

dimensions      [0 0 0 1 0 0 0];


internalField   nonuniform List<scalar> 
78750
(
19.0483
57.2226
63.0392
69.8564
71.0207
72.5268
76.037
81.2827
86.3582
90.8614
96.2359
104.145
114.66
126.873
140.183
154.935
171.784
190.466
209.526
227.14
242.02
253.729
262.403
268.363
271.701
272.645
271.085
267.347
260.903
252.19
240.83
223.736
199.469
187.388
244.589
1002.66
994.682
514.854
507.204
450.181
424.365
395.032
373.442
355.72
342.753
332.675
324.076
315.888
308.166
301.653
297.178
294.913
294.223
294.213
294.156
293.679
292.754
291.308
289.005
285.4
280.142
273.111
264.509
254.796
244.097
231.926
218.84
209.353
209.047
244.421
250.745
300.201
315.613
305.131
295.316
284.901
275.25
266.047
258.03
251.57
246.716
243.559
241.979
241.4
241.182
240.025
239.535
241.096
244.137
246.71
248.057
248.899
249.659
249.796
248.289
244.909
240.011
233.963
227.272
220.486
214.415
210.471
211.935
226.111
281.657
299.416
298.158
295.445
292.859
289.663
285.256
281.59
280.496
281.801
284.068
286.401
288.198
289.425
290.992
294.511
299.184
301.492
300.715
298.166
293.378
285.715
279.16
275.392
274.853
277.188
279.717
280.465
279.256
276.655
273.149
269.294
266.057
265.678
271.904
300.705
291.685
285.871
281.369
276.194
269.773
266.367
270.868
278.982
286.319
290.367
291.625
291.279
290.306
288.945
287.21
284.975
280.66
272.431
263.799
262.614
264.476
267.64
270.165
271.773
272.947
274.072
275.269
276.496
277.772
279.336
281.642
285.487
291.474
299.342
318.142
297.846
296.183
295.262
295.419
299.528
317.046
353.47
395.967
413.659
405.362
393.382
383.346
374.921
368.249
362.716
355.924
342.076
317.439
311.228
319.037
323.413
325.296
326.036
325.765
324.356
322.218
319.855
317.327
314.546
313.158
314.623
318.486
324.413
333.638
357.002
314.456
322.736
328.664
334.693
333.12
326.798
321.059
316.342
313.472
312.399
312.592
313.466
314.817
316.467
318.163
319.551
320.479
321.437
322.983
324.815
327.448
331.652
337.674
344.942
352.134
358.289
363.234
360.392
340.864
321.538
312.768
314.946
324.749
336.652
360.778
329.458
336.525
338.829
339.623
339.538
339.094
338.514
338.044
337.694
337.051
335.693
333.339
329.972
325.964
321.882
318.099
314.712
311.73
309.199
307.182
305.681
304.65
303.951
303.282
302.617
302.139
302.079
303.801
309.093
314.696
317.78
321.474
327.116
335.018
354.791
301.004
304.125
305.926
308.315
311.186
313.522
315.005
315.944
316.625
317.186
317.608
317.8
317.707
317.338
316.774
316.147
315.617
315.324
315.467
316.24
317.566
319.281
321.343
323.789
326.628
329.729
332.653
334.877
336.348
336.712
334.163
329.121
328.038
334.132
356.405
327.877
339.644
342.016
342.225
341.406
339.273
335.706
331.687
328.138
325.416
323.372
321.749
320.344
319.056
317.865
316.812
315.965
315.386
315.107
315.154
315.565
316.392
317.669
319.38
321.48
323.922
326.694
329.795
332.922
335.14
336.095
335.328
329.615
323.443
348.584
315.706
326.52
331.704
335.181
337.891
339.948
340.296
337.643
332.279
327.145
323.492
321.002
319.195
317.675
316.213
314.765
313.388
312.14
311.081
310.264
309.729
309.5
309.579
309.973
310.705
311.758
313.114
314.847
316.87
318.53
319.237
318.4
314.83
313.999
343.347
307.712
317.602
325.023
330.648
335.583
340.369
345.681
351.797
350.769
343.488
336.351
330.935
326.85
323.752
321.311
319.046
316.711
314.364
312.072
309.916
307.977
306.326
305.012
304.049
303.426
303.081
303.022
303.275
303.729
304.12
304.274
304.427
305.667
311.501
338.6
310.426
321.677
328.721
333.622
336.815
337.536
338.341
345.279
350.172
341.046
330.677
324.803
321.934
320.186
318.59
316.799
314.825
312.733
310.624
308.618
306.831
305.364
304.276
303.577
303.215
303.138
303.341
303.791
304.498
305.585
307.238
309.644
313.372
321.372
349.51
316.848
331.36
339.855
347.056
349.256
343.669
340.94
338.862
334.3
329.639
326.921
325.308
323.92
322.497
320.982
319.364
317.583
315.631
313.617
311.665
309.913
308.483
307.464
306.905
306.803
307.231
308.203
309.591
311.321
313.413
315.916
319.003
323.244
331.669
361.033
325.775
336.567
341.597
344.772
334.823
327.005
327.023
326.449
325.786
325.234
324.702
324.09
323.346
322.457
321.423
320.254
318.975
317.586
316.115
314.666
313.359
312.317
311.643
311.403
311.641
312.421
313.751
315.558
317.749
320.276
323.226
326.784
331.505
340.42
368.416
320.565
328.693
324.245
322.98
325.014
325.775
326.18
326.39
326.362
326.17
325.865
325.452
324.921
324.264
323.48
322.574
321.566
320.487
319.368
318.24
317.171
316.254
315.587
315.249
315.308
315.828
316.846
318.348
320.307
322.743
325.7
329.225
333.61
341.427
367.5
326.558
336.733
336.499
329.467
326.435
325.239
324.836
324.924
325.146
325.349
325.476
325.498
325.398
325.171
324.813
324.329
323.728
323.033
322.27
321.478
320.705
320.011
319.463
319.131
319.083
319.381
320.078
321.217
322.831
324.956
327.625
330.886
335.073
342.687
367.853
319.048
329.951
331.827
328.228
322.956
321.615
321.768
322.27
322.859
323.422
323.903
324.285
324.557
324.714
324.749
324.659
324.456
324.159
323.789
323.377
322.96
322.585
322.302
322.169
322.245
322.588
323.256
324.304
325.785
327.748
330.246
333.338
337.412
344.926
369.163
329.517
341.308
344.785
343.88
336.169
326.162
321.167
319.671
319.621
320.038
320.626
321.277
321.921
322.513
323.046
323.512
323.888
324.158
324.323
324.393
324.392
324.36
324.342
324.397
324.588
324.982
325.644
326.639
328.028
329.871
332.226
335.157
339.1
346.491
369.952
315.129
335.305
346.681
353.233
354.198
346.788
335.278
325.409
321.079
319.874
319.746
319.868
319.997
320.09
320.178
320.354
320.672
321.117
321.671
322.321
323.029
323.769
324.53
325.311
326.122
327.003
328.008
329.213
330.708
332.584
334.925
337.847
341.903
349.635
373.098
323.204
330.656
334.474
339.517
347.021
356.889
361.084
350.653
338.02
327.865
319.931
316.027
316.076
317.333
318.225
318.705
318.871
318.768
318.503
318.358
318.544
319.09
319.989
321.236
322.8
324.622
326.648
328.843
331.212
333.805
336.733
340.236
344.984
353.559
377.152
320.202
336.895
342.517
344.989
346.154
347.962
353.775
360.977
367.491
372.349
366.96
350.696
332.558
318.633
312.629
313.593
315.781
316.962
317.486
317.588
317.326
316.807
316.414
316.485
317.089
318.233
319.918
322.108
324.725
327.707
331.074
335.019
340.188
349.12
373.15
322.812
333.988
339.106
343.098
346.726
349.605
350.971
351.516
352.616
354.558
356.93
358.546
355.329
342.963
328.027
316.165
309.434
308.876
312.441
315.579
317.398
318.373
318.715
318.476
317.943
317.631
317.833
318.59
319.94
321.948
324.604
327.942
332.471
340.689
365.037
317.755
330.681
335.06
337.632
340.091
342.992
346.486
350.175
353.559
356.338
358.358
359.804
360.92
361.113
358.671
351.459
339.252
325.527
314.179
307.433
306.487
310.415
315.138
318.549
320.919
322.6
323.786
324.752
325.797
327.11
328.926
331.518
335.168
342.191
367.334
314.727
327.605
333.837
337.684
340.724
343.417
346.039
348.639
350.927
352.821
354.457
355.926
357.275
358.534
359.589
359.987
358.973
355.644
349.223
339.398
327.443
316.889
310.631
309.651
313.08
318.233
322.893
326.795
330.304
333.678
337.077
340.668
345.084
353.154
377.95
315.028
328.16
334.183
337.839
340.903
343.988
347.445
351.148
354.289
356.442
357.753
358.503
358.921
359.179
359.397
359.624
359.806
359.766
359.229
357.747
354.34
347.003
335.194
323.866
316.395
313.442
314.612
318.426
323.26
328.321
333.41
338.54
344.251
353.349
377.652
315.329
329.778
336.587
340.761
344.208
347.548
351.268
355.241
358.323
359.989
360.657
360.846
360.816
360.669
360.463
360.258
360.094
359.982
359.898
359.783
359.479
358.319
352.975
340.838
328.019
319.003
314.26
313.409
315.51
319.282
323.756
328.544
333.93
342.192
364.928
316.926
332.739
339.328
343.31
346.635
349.72
352.851
356.056
358.778
360.469
361.26
361.521
361.503
361.316
361.012
360.639
360.255
359.905
359.6
359.319
358.981
358.276
355.695
348.046
336.225
325.241
317.605
313.275
311.568
311.77
313.298
315.858
319.652
326.44
347.511
320.508
337.168
343.343
346.999
349.989
352.599
355.03
357.423
359.657
361.288
362.163
362.488
362.492
362.299
361.952
361.465
360.879
360.261
359.662
359.083
358.463
357.625
356.045
352.394
345.207
334.763
323.03
312.921
306.16
302.377
300.862
301.445
304.443
311.428
333.955
321.674
336.669
342.043
345.349
348.193
350.803
353.306
355.803
358.235
360.314
361.779
362.63
363.024
363.128
363.05
362.824
362.438
361.882
361.201
360.468
359.72
358.928
357.972
356.552
354.032
349.45
341.917
331.463
319.867
310.609
305.695
304.288
305.794
311.409
332.49
320.212
334.462
340.036
343.557
346.633
349.513
352.228
354.763
357.108
359.218
360.966
362.238
363.018
363.384
363.454
363.333
363.077
362.695
362.178
361.548
360.86
360.16
359.451
358.687
357.761
356.456
354.341
350.647
344.617
336.7
328.739
323.336
322.314
325.666
340.489
316.535
330.914
337.514
341.599
345.002
348.128
350.965
353.428
355.535
357.407
359.137
360.706
362.016
362.968
363.522
363.707
363.607
363.308
362.864
362.309
361.682
361.038
360.416
359.833
359.278
358.71
358.002
356.808
354.46
350.919
346.04
339.208
336.869
340.507
354.008
316.064
332.209
340.301
345.197
349.134
352.673
355.663
357.848
359.178
359.875
360.292
360.725
361.333
362.102
362.879
363.466
363.727
363.656
363.341
362.883
362.353
361.799
361.259
360.764
360.33
359.946
359.562
359.004
357.676
355.196
351.427
346.63
346.996
352.933
369.292
316.41
334.002
343.177
348.937
353.747
357.957
361.191
363.326
364.448
364.698
364.357
363.808
363.327
363.051
363.076
363.413
363.876
364.172
364.135
363.815
363.344
362.826
362.325
361.877
361.495
361.178
360.901
360.598
359.993
358.249
355.357
353.49
355.839
363.133
383.669
324.849
343.218
351.423
357.369
362.905
366.902
369.077
369.946
370.029
369.562
368.639
367.48
366.39
365.505
364.798
364.264
364.05
364.201
364.388
364.313
363.979
363.512
363.019
362.556
362.15
361.817
361.575
361.458
361.483
361.139
360.324
361.143
364.487
371.853
392.947
331.456
346.948
354.779
361.447
366.159
368.146
368.788
368.996
369.054
368.993
368.754
368.29
367.68
367.061
366.485
365.922
365.355
364.949
364.8
364.612
364.211
363.635
363.001
362.433
362.001
361.738
361.692
361.995
362.899
364.365
366.028
368.554
372.23
379.21
397.715
329.066
345.533
353.493
359.436
362.816
364.566
365.622
366.23
366.554
366.726
366.817
366.839
366.771
366.612
366.38
366.08
365.708
365.311
364.948
364.479
363.809
363.003
362.233
361.638
361.25
361.077
361.179
361.735
363.112
365.609
368.914
372.541
376.438
382.965
399.237
323.937
339.359
345.14
349.385
354.128
358.973
362.769
365.048
366.147
366.564
366.666
366.646
366.57
366.444
366.245
365.951
365.563
365.107
364.579
363.944
363.2
362.429
361.767
361.277
360.964
360.845
360.992
361.589
363.039
365.895
370.145
374.673
378.983
385.486
400.352
320.817
334.016
339.359
343.386
348.084
353.891
359.585
363.718
366.024
366.899
366.967
366.749
366.487
366.236
365.986
365.702
365.337
364.844
364.194
363.422
362.628
361.919
361.357
360.958
360.727
360.693
360.936
361.637
363.173
366.073
370.376
374.915
379.332
385.986
400.807
317.89
332.464
339.037
343.321
347.216
351.327
356.053
360.936
365.06
367.712
368.637
368.434
367.983
367.587
367.257
366.968
366.684
366.337
365.834
365.101
364.164
363.183
362.329
361.661
361.182
360.918
360.964
361.54
363.065
366.024
370.268
374.641
379.204
386.451
401.974
318.074
334.945
342.226
346.663
350.34
353.497
356.254
359.052
362.36
366.089
369.252
370.454
370.147
369.406
368.702
368.139
367.73
367.445
367.234
367.031
366.763
366.371
365.86
365.309
364.824
364.493
364.418
364.791
365.945
368.244
371.6
375.36
379.832
387.455
402.886
322.85
339.018
345.424
349.756
354.07
358.667
363.007
366.184
368.151
369.656
371.287
372.013
371.398
370.463
369.696
369.121
368.684
368.346
368.089
367.909
367.811
367.803
367.884
368.042
368.26
368.542
368.934
369.557
370.621
372.37
374.874
378.003
382.118
389.21
403.092
322.004
336.573
342.286
346.195
350.039
354.333
359.405
364.687
368.946
371.523
372.574
372.591
371.891
371.1
370.471
369.981
369.577
369.233
368.94
368.702
368.537
368.476
368.568
368.872
369.44
370.306
371.481
372.949
374.663
376.577
378.712
381.197
384.466
390.118
402.171
319.61
335.229
341.632
345.661
349.132
352.286
355.367
358.868
362.956
366.952
370.208
372.428
373.238
372.811
372.018
371.348
370.837
370.427
370.073
369.754
369.463
369.212
369.027
368.963
369.095
369.522
370.346
371.656
373.475
375.708
378.174
380.784
383.785
388.632
400.395
320.578
336.748
343.369
347.642
351.57
355.426
359.03
362.074
364.643
367.106
369.507
371.678
373.448
374.242
373.824
372.95
372.207
371.68
371.286
370.96
370.664
370.38
370.1
369.839
369.634
369.56
369.728
370.289
371.422
373.268
375.807
378.866
382.34
387.636
400.141
322.853
338.862
345.139
349.205
352.884
356.505
360.221
363.898
367.096
369.553
371.367
372.714
373.773
374.655
374.963
374.332
373.42
372.726
372.257
371.916
371.634
371.372
371.101
370.799
370.459
370.108
369.832
369.771
370.178
371.52
374.279
378.097
382.121
387.946
401.345
321.375
336.978
343.273
347.386
351.176
354.9
358.542
362.019
365.283
368.236
370.726
372.643
373.979
374.87
375.447
375.463
374.706
373.816
373.193
372.793
372.512
372.288
372.087
371.882
371.652
371.39
371.159
371.134
371.637
373.161
376.047
379.76
383.805
389.989
403.2
321.96
338.327
344.952
349.236
353.156
357.039
360.844
364.269
367.08
369.329
371.203
372.813
374.134
375.103
375.747
376.098
375.938
375.134
374.253
373.654
373.283
373.036
372.858
372.729
372.642
372.6
372.619
372.799
373.433
375.021
377.834
381.268
385.038
390.939
403.508
323.103
339.4
345.906
350.213
354.266
358.329
362.292
365.843
368.733
370.918
372.527
373.75
374.732
375.526
376.121
376.514
376.693
376.487
375.74
374.842
374.183
373.789
373.553
373.42
373.402
373.558
373.98
374.78
376.094
378.036
380.525
383.295
386.628
392.258
403.839
323.074
339.278
345.76
350.073
354.216
358.47
362.632
366.276
369.177
371.379
373.023
374.251
375.18
375.904
376.472
376.897
377.187
377.347
377.308
376.857
375.973
375.096
374.557
374.309
374.225
374.286
374.578
375.249
376.43
378.203
380.525
383.14
386.113
390.995
402.561
323.213
339.542
346.121
350.54
354.855
359.35
363.76
367.567
370.495
372.602
374.092
375.163
375.949
376.543
377.004
377.367
377.646
377.839
377.943
377.942
377.743
377.15
376.124
375.101
374.517
374.389
374.662
375.439
376.904
379.057
381.58
384.156
387.07
391.984
403.331
323.354
339.647
346.238
350.722
355.189
359.914
364.541
368.47
371.441
373.556
375.032
376.063
376.791
377.309
377.68
377.948
378.147
378.296
378.402
378.464
378.468
378.38
378.127
377.646
377.022
376.442
376.105
376.222
377.084
378.92
381.481
384.189
387.038
391.61
402.881
322.976
339.144
345.663
350.115
354.642
359.591
364.578
368.85
372.045
374.272
375.797
376.849
377.582
378.091
378.437
378.664
378.803
378.871
378.877
378.828
378.745
378.628
378.425
378.034
377.43
376.778
376.309
376.199
376.71
378.257
380.918
384.007
387.083
391.74
403.085
322.44
338.431
344.864
349.284
353.831
358.908
364.175
368.802
372.296
374.713
376.339
377.438
378.187
378.694
379.023
379.22
379.32
379.326
379.178
378.79
378.29
377.914
377.665
377.438
377.182
376.963
376.924
377.262
378.288
380.326
383.233
386.24
389.357
394.325
405.085
321.25
336.978
343.441
347.828
352.264
357.249
362.637
367.648
371.61
374.417
376.313
377.592
378.472
379.082
379.5
379.772
379.927
379.981
379.925
379.68
379.067
378.333
377.928
377.78
377.757
377.843
378.119
378.781
380.142
382.414
385.275
388.059
391.142
396.295
406.303
320.453
336.119
342.611
346.982
351.338
356.203
361.556
366.745
371.044
374.184
376.317
377.739
378.701
379.371
379.849
380.194
380.435
380.582
380.621
380.508
380.139
379.42
378.679
378.404
378.549
378.98
379.726
380.889
382.62
384.976
387.596
390.108
393.059
398.034
406.806
319.5
335.296
342.052
346.534
350.862
355.563
360.696
365.799
370.242
373.664
376.084
377.727
378.838
379.605
380.147
380.539
380.823
381.022
381.147
381.197
381.154
380.934
380.393
379.655
379.289
379.592
380.491
382.008
384.141
386.69
389.214
391.49
394.089
398.422
406.49
319.54
335.973
343.074
347.763
352.237
356.943
361.822
366.501
370.594
373.843
376.222
377.88
379.02
379.813
380.379
380.794
381.11
381.353
381.541
381.677
381.755
381.758
381.633
381.26
380.634
380.265
380.679
381.91
383.92
386.391
388.804
390.975
393.399
397.473
405.956
320.457
337.681
345.105
350.05
354.794
359.627
364.272
368.416
371.941
374.782
376.929
378.472
379.55
380.299
380.824
381.208
381.513
381.771
381.989
382.164
382.295
382.38
382.412
382.348
382.069
381.522
381.304
382.042
383.753
386.179
388.666
390.944
393.466
397.619
406.023
322.527
340.325
347.946
353.209
358.433
363.567
367.971
371.431
374.146
376.297
377.966
379.218
380.128
380.781
381.253
381.613
381.917
382.188
382.427
382.632
382.804
382.939
383.039
383.1
383.08
382.82
382.345
382.631
384.164
386.66
389.356
391.7
394.14
398.055
406.212
325.224
343.082
350.757
356.41
362.294
367.765
371.883
374.707
376.715
378.235
379.412
380.311
380.984
381.48
381.855
382.165
382.445
382.703
382.938
383.151
383.344
383.516
383.666
383.808
383.96
384.076
383.922
383.763
384.657
386.559
388.855
391.067
393.566
397.85
406.763
327.517
345.079
352.816
358.956
365.586
371.301
375.053
377.297
378.742
379.79
380.604
381.247
381.752
382.145
382.457
382.725
382.976
383.211
383.431
383.639
383.838
384.032
384.223
384.43
384.711
385.174
385.817
386.341
386.97
388.027
389.48
391.33
394.023
399.013
407.767
328.615
345.888
353.73
360.333
367.641
373.631
377.26
379.242
380.401
381.173
381.745
382.196
382.561
382.859
383.107
383.326
383.532
383.727
383.914
384.094
384.271
384.451
384.641
384.86
385.167
385.709
386.716
388.258
390.067
391.796
393.212
394.748
397.11
401.453
408.287
328.378
345.524
353.401
360.191
367.902
374.321
378.208
380.279
381.425
382.132
382.623
382.993
383.289
383.533
383.741
383.922
384.088
384.245
384.393
384.535
384.672
384.809
384.951
385.116
385.338
385.687
386.319
387.522
389.52
392.126
394.757
396.848
398.882
401.942
407.496
327.377
344.432
352.186
358.815
366.637
373.702
378.287
380.789
382.133
382.91
383.405
383.751
384.011
384.219
384.393
384.544
384.68
384.805
384.923
385.033
385.136
385.233
385.33
385.434
385.559
385.73
385.999
386.484
387.416
389.098
391.654
394.585
396.941
399.696
405.709
326.245
343.24
350.83
357.158
364.808
372.348
377.715
380.814
382.499
383.45
384.029
384.409
384.678
384.88
385.041
385.175
385.294
385.404
385.504
385.596
385.679
385.756
385.828
385.898
385.972
386.058
386.177
386.365
386.704
387.387
388.816
391.395
394.312
397.588
403.998
325.394
342.387
349.9
356.028
363.471
371.183
377.084
380.705
382.732
383.876
384.558
384.993
385.287
385.497
385.659
385.793
385.912
386.016
386.11
386.193
386.269
386.337
386.399
386.456
386.511
386.57
386.642
386.743
386.913
387.26
388.109
390.159
393.254
396.936
403.57
324.909
341.915
349.406
355.508
362.993
370.803
376.922
380.815
383.053
384.326
385.082
385.555
385.868
386.087
386.258
386.402
386.525
386.633
386.727
386.81
386.885
386.952
387.014
387.071
387.126
387.184
387.253
387.349
387.509
387.85
388.738
390.832
393.699
397.403
404.696
324.312
341.299
348.763
354.88
362.55
370.585
376.896
380.979
383.372
384.75
385.567
386.075
386.408
386.642
386.825
386.981
387.115
387.23
387.332
387.423
387.505
387.581
387.651
387.718
387.785
387.861
387.958
388.105
388.376
388.971
390.303
392.598
395.06
398.418
406.133
323.529
340.422
347.858
354.02
361.991
370.394
376.979
381.25
383.766
385.215
386.07
386.599
386.942
387.184
387.375
387.539
387.681
387.807
387.92
388.024
388.121
388.215
388.305
388.397
388.496
388.617
388.786
389.056
389.558
390.532
392.198
394.305
396.387
399.453
407.069
322.392
339.211
346.707
352.934
361.142
369.822
376.694
381.246
383.976
385.559
386.492
387.063
387.429
387.682
387.881
388.052
388.202
388.337
388.462
388.582
388.7
388.818
388.94
389.071
389.228
389.434
389.733
390.195
390.934
392.096
393.682
395.401
397.248
400.283
407.625
321.374
338.295
346.055
352.55
361.172
369.991
376.839
381.437
384.263
385.93
386.918
387.52
387.902
388.163
388.367
388.54
388.692
388.83
388.961
389.09
389.222
389.361
389.513
389.688
389.909
390.22
390.692
391.412
392.415
393.656
395.039
396.482
398.226
401.317
408.084
320.8
338.195
346.391
353.311
362.466
371.286
377.709
381.963
384.656
386.309
387.319
387.946
388.344
388.614
388.822
388.997
389.148
389.284
389.411
389.538
389.671
389.816
389.98
390.175
390.43
390.798
391.367
392.257
393.507
394.941
396.333
397.692
399.343
402.244
408.228
321.238
339.364
347.917
355.208
364.856
373.809
379.709
383.293
385.529
386.949
387.858
388.445
388.83
389.093
389.294
389.462
389.605
389.732
389.848
389.962
390.081
390.211
390.361
390.544
390.787
391.134
391.664
392.495
393.729
395.268
396.808
398.222
399.775
402.328
407.853
322.363
341.147
349.656
356.727
365.995
375.212
381.217
384.514
386.426
387.634
388.432
388.969
389.336
389.594
389.785
389.941
390.074
390.19
390.295
390.393
390.491
390.597
390.718
390.867
391.065
391.346
391.762
392.403
393.383
394.74
396.284
397.763
399.261
401.57
407.151
323.662
342.909
351.019
357.197
364.977
374.157
381.26
385.159
387.173
388.322
389.05
389.54
389.882
390.128
390.312
390.457
390.579
390.684
390.777
390.861
390.941
391.024
391.118
391.233
391.386
391.6
391.914
392.39
393.13
394.226
395.631
397.102
398.579
400.807
406.625
324.719
344.493
352.48
357.869
363.727
371.212
379.078
384.413
387.221
388.683
389.52
390.048
390.403
390.654
390.84
390.984
391.103
391.205
391.293
391.371
391.441
391.511
391.588
391.68
391.801
391.971
392.224
392.613
393.23
394.176
395.453
396.866
398.333
400.587
406.612
326.71
347.104
355.64
361.376
366.646
371.543
377.597
383.378
386.961
388.852
389.882
390.495
390.892
391.162
391.357
391.509
391.636
391.744
391.837
391.918
391.991
392.061
392.135
392.221
392.333
392.493
392.734
393.114
393.718
394.631
395.83
397.159
398.606
400.934
407.061
330.958
351.228
360.54
367.584
373.444
376.799
379.862
384.02
387.307
389.211
390.285
390.933
391.35
391.632
391.843
392.015
392.159
392.283
392.39
392.484
392.57
392.654
392.742
392.843
392.972
393.154
393.428
393.855
394.507
395.423
396.549
397.782
399.208
401.616
407.68
337.692
356.707
367.033
376.075
381.651
383.651
384.911
386.963
388.914
390.183
390.978
391.502
391.866
392.131
392.344
392.525
392.683
392.822
392.945
393.058
393.166
393.278
393.399
393.538
393.712
393.948
394.289
394.786
395.482
396.377
397.417
398.559
399.96
402.424
408.245
344.181
362.734
374.255
385.036
388.092
388.49
388.988
389.83
390.664
391.311
391.797
392.169
392.459
392.692
392.887
393.058
393.213
393.356
393.492
393.625
393.762
393.91
394.076
394.271
394.511
394.821
395.235
395.787
396.494
397.342
398.298
399.366
400.74
403.215
408.689
346.071
366.996
379.889
390.276
391.257
391.196
391.346
391.638
391.981
392.312
392.607
392.864
393.086
393.277
393.447
393.602
393.748
393.889
394.031
394.18
394.34
394.523
394.737
394.996
395.311
395.701
396.182
396.77
397.469
398.269
399.16
400.171
401.508
403.932
409.021
344.2
365.897
379.476
390.773
392.53
392.716
392.77
392.869
393.017
393.189
393.365
393.537
393.7
393.852
393.994
394.131
394.264
394.399
394.54
394.693
394.867
395.071
395.32
395.629
396.011
396.474
397.018
397.642
398.34
399.11
399.959
400.925
402.216
404.545
409.27
341.446
361.989
375.438
389.135
393.039
393.792
393.936
393.968
393.999
394.053
394.128
394.219
394.32
394.426
394.536
394.647
394.763
394.885
395.017
395.166
395.338
395.547
395.808
396.14
396.563
397.082
397.686
398.354
399.072
399.836
400.662
401.595
402.834
405.049
409.463
338.297
359.974
373.326
386.32
392.014
393.919
394.612
394.863
394.938
394.949
394.948
394.958
394.986
395.031
395.094
395.17
395.259
395.36
395.475
395.61
395.771
395.968
396.219
396.545
396.972
397.513
398.159
398.875
399.629
400.408
401.229
402.141
403.334
405.447
409.631
334.255
355.143
366.039
375.99
383.762
388.854
392.086
394.008
395.043
395.53
395.712
395.749
395.731
395.708
395.704
395.725
395.772
395.841
395.933
396.048
396.191
396.372
396.604
396.91
397.318
397.854
398.519
399.276
400.074
400.885
401.716
402.617
403.774
405.801
409.789
326.282
343.027
349.793
355.635
363.221
371.359
378.697
384.76
389.402
392.646
394.67
395.768
396.255
396.398
396.388
396.344
396.321
396.336
396.387
396.472
396.592
396.751
396.961
397.241
397.621
398.132
398.792
399.575
400.418
401.267
402.116
403.01
404.132
406.074
409.903
319.011
334.792
342.114
346.814
351.059
356.015
361.98
368.286
374.443
380.247
385.492
389.923
393.29
395.47
396.573
396.934
396.953
396.896
396.873
396.905
396.988
397.119
397.305
397.559
397.907
398.386
399.024
399.814
400.689
401.573
402.443
403.337
404.431
406.298
409.996
319.778
341.257
351.899
358.34
363.005
366.281
368.458
370.031
371.439
373.046
375.205
378.143
381.896
386.358
391.08
394.844
396.794
397.389
397.427
397.357
397.345
397.422
397.582
397.823
398.158
398.618
399.239
400.03
400.931
401.85
402.744
403.644
404.714
406.508
410.072
328.592
352.846
364.639
372.493
379.105
384.734
389.046
391.487
391.629
389.696
386.711
383.767
381.476
380.237
380.853
384.593
390.5
395.07
397.177
397.875
398.02
398.019
398.05
398.181
398.44
398.85
399.443
400.233
401.167
402.136
403.072
403.993
405.054
406.783
410.172
338.901
361.629
372.164
379.848
386.702
392.392
397.09
401.145
404.155
404.843
402.665
398.999
395.477
392.414
389.103
385.144
384.93
389.261
393.703
396.171
397.3
397.848
398.172
398.437
398.737
399.143
399.714
400.483
401.416
402.406
403.371
404.311
405.374
407.059
410.266
342.299
364.394
375.833
385.708
393.724
398.076
399.966
400.889
401.489
401.674
400.962
399.208
396.611
393.217
390.386
391.243
393.651
395.489
396.722
397.501
398.006
398.359
398.641
398.916
399.242
399.672
400.253
401.004
401.888
402.822
403.744
404.656
405.708
407.375
410.417
339.354
362.703
375.707
387.314
394.316
396.22
396.276
395.95
395.663
395.821
396.479
397.069
397.263
397.224
397.163
397.39
397.863
398.262
398.567
398.805
399.005
399.195
399.405
399.661
399.994
400.433
401.002
401.701
402.497
403.335
404.177
405.034
406.07
407.75
410.645
334.229
352.169
360.337
367.758
376.172
384.156
390.76
395.787
399.22
400.908
401.074
400.586
400.112
399.766
399.529
399.431
399.449
399.509
399.583
399.669
399.776
399.917
400.106
400.362
400.702
401.142
401.69
402.338
403.06
403.817
404.586
405.386
406.391
408.06
410.829
324.801
341.06
348.855
354.707
361.361
369.45
377.517
384.195
389.497
394.04
398.033
400.865
402.074
402.082
401.578
401.051
400.677
400.464
400.366
400.345
400.387
400.489
400.657
400.899
401.226
401.649
402.172
402.784
403.457
404.161
404.879
405.64
406.612
408.239
410.913
324.765
344.685
354.677
362.581
371.628
381.178
388.71
393.209
395.566
396.949
398.102
399.466
401.087
402.345
402.753
402.508
402.026
401.566
401.251
401.085
401.031
401.066
401.186
401.391
401.687
402.077
402.561
403.124
403.745
404.399
405.078
405.812
406.755
408.335
410.957
329.622
349.947
359.562
367.658
377.104
387.106
395.469
400.602
402.967
403.847
404.1
404.078
403.872
403.574
403.426
403.347
403.102
402.672
402.209
401.877
401.713
401.677
401.741
401.9
402.153
402.5
402.933
403.442
404.008
404.616
405.263
405.977
406.907
408.469
411.047
331.895
352.484
362.097
369.404
376.05
381.863
387.977
394.239
399.348
402.683
404.536
405.47
405.9
406.005
405.708
404.892
404.077
403.619
403.222
402.799
402.488
402.35
402.35
402.458
402.667
402.973
403.368
403.838
404.368
404.947
405.575
406.278
407.197
408.728
411.185
337.901
358.794
370.161
380.533
389.337
394.171
396.711
398.886
401.131
403.151
404.694
405.743
406.407
406.804
406.98
406.814
405.991
404.797
404.075
403.667
403.305
403.054
402.975
403.037
403.21
403.486
403.856
404.308
404.826
405.398
406.024
406.725
407.629
409.091
411.327
342.044
361.539
373.959
387.633
398.173
403.259
405.195
405.961
406.418
406.837
407.245
407.604
407.884
408.075
408.165
408.098
407.692
406.659
405.278
404.459
404.11
403.854
403.689
403.666
403.778
404.003
404.332
404.755
405.256
405.82
406.438
407.125
407.993
409.359
411.405
340.685
360.729
373.195
386.635
396.851
402.536
405.532
407.192
408.167
408.767
409.151
409.399
409.551
409.627
409.63
409.536
409.267
408.624
407.353
405.769
404.798
404.477
404.364
404.331
404.392
404.554
404.817
405.177
405.627
406.15
406.735
407.389
408.213
409.507
411.463
341.833
362.223
374.705
387.872
397.59
402.906
405.824
407.584
408.735
409.52
410.06
410.424
410.656
410.784
410.825
410.78
410.626
410.282
409.554
408.204
406.508
405.337
404.913
404.866
404.961
405.128
405.356
405.654
406.032
406.49
407.021
407.632
408.414
409.66
411.56
340.152
359.807
372.664
387.626
399.025
404.729
407.45
408.921
409.839
410.47
410.924
411.252
411.482
411.63
411.705
411.707
411.629
411.442
411.067
410.332
409.024
407.357
406.072
405.501
405.429
405.605
405.879
406.194
406.552
406.97
407.461
408.036
408.781
409.968
411.724
333.279
352.731
364.897
379.031
393.312
402.423
407.153
409.485
410.698
411.393
411.825
412.107
412.292
412.405
412.459
412.458
412.399
412.269
412.036
411.624
410.884
409.656
408.129
406.886
406.247
406.134
406.351
406.718
407.134
407.585
408.082
408.644
409.35
410.428
411.908
326.995
346.366
356.177
365.467
378.603
391.855
401.703
407.356
410.185
411.598
412.344
412.754
412.978
413.089
413.123
413.096
413.016
412.878
412.665
412.333
411.797
410.924
409.668
408.317
407.304
406.818
406.816
407.147
407.625
408.14
408.668
409.225
409.88
410.823
412.032
324.048
344.844
354.04
359.904
366.51
376.83
389.956
400.953
407.403
410.586
412.13
412.911
413.334
413.554
413.633
413.606
413.497
413.318
413.056
412.67
412.106
411.299