/*--------------------------------*- C++ -*----------------------------------*\
| =========                 |                                                 |
| \\      /  F ield         | OpenFOAM: The Open Source CFD Toolbox           |
|  \\    /   O peration     | Version:  v2006                                 |
|   \\  /    A nd           | Website:  www.openfoam.com                      |
|    \\/     M anipulation  |                                                 |
\*---------------------------------------------------------------------------*/
FoamFile
{
    version     2.0;
    format      ascii;
    class       volScalarField;
    location    "8";
    object      alphat;
}
// * * * * * * * * * * * * * * * * * * * * * * * * * * * * * * * * * * * * * //

dimensions      [1 -1 -1 0 0 0 0];


internalField   nonuniform List<scalar> 
78750
(
3.78205e-06
1.26785e-06
1.98684e-05
1.45061e-05
1.41088e-05
1.47639e-05
1.44756e-05
1.45809e-05
1.47013e-05
1.48195e-05
1.49009e-05
1.45364e-05
1.42067e-05
1.39086e-05
1.36378e-05
1.33898e-05
1.31605e-05
1.29456e-05
1.27408e-05
1.25399e-05
1.23359e-05
1.21245e-05
1.18869e-05
1.16141e-05
1.12934e-05
1.09061e-05
1.04269e-05
9.82143e-06
9.0445e-06
8.03569e-06
6.73081e-06
4.52309e-06
2.41921e-06
9.37432e-07
2.35734e-08
1.84235e-07
8.68013e-06
2.23884e-05
3.21507e-05
3.15558e-05
3.3506e-05
3.70713e-05
3.99381e-05
4.21285e-05
4.35248e-05
4.4068e-05
4.4165e-05
4.4221e-05
4.4315e-05
4.44194e-05
4.45298e-05
4.46608e-05
4.4909e-05
4.53923e-05
4.59814e-05
4.65624e-05
4.70207e-05
4.72793e-05
4.73382e-05
4.70304e-05
4.61058e-05
4.42539e-05
4.11228e-05
3.64625e-05
3.0379e-05
2.35871e-05
1.7393e-05
1.29517e-05
7.44233e-06
9.54215e-08
2.78119e-07
9.40474e-06
1.30829e-05
1.35176e-05
1.44484e-05
1.62379e-05
1.84869e-05
2.10683e-05
2.44841e-05
3.00308e-05
3.93705e-05
4.46331e-05
4.44176e-05
4.4367e-05
4.44984e-05
4.48087e-05
4.52859e-05
4.59142e-05
4.66802e-05
4.75403e-05
4.8462e-05
4.94153e-05
5.03654e-05
4.83513e-05
4.5665e-05
4.302e-05
3.98175e-05
3.60103e-05
3.16923e-05
2.70614e-05
2.25399e-05
1.86988e-05
1.52447e-05
5.91349e-06
1.20474e-07
2.8509e-07
1.48437e-05
1.65269e-05
1.60983e-05
1.76989e-05
2.07892e-05
2.50356e-05
3.07045e-05
3.90972e-05
5.02757e-05
5.4119e-05
5.25848e-05
5.11563e-05
5.00034e-05
4.91906e-05
4.87315e-05
4.86167e-05
4.88176e-05
4.92946e-05
4.99981e-05
5.04045e-05
4.98998e-05
4.8987e-05
4.74335e-05
4.5073e-05
4.19886e-05
3.83248e-05
3.42068e-05
2.98331e-05
2.5572e-05
2.20257e-05
1.98872e-05
1.88158e-05
6.84662e-06
1.45084e-07
3.0286e-07
9.83184e-06
2.07195e-05
1.92754e-05
2.02533e-05
2.25514e-05
2.52749e-05
2.75048e-05
2.86733e-05
2.90333e-05
2.94928e-05
3.26123e-05
4.06359e-05
3.96692e-05
3.92301e-05
3.92728e-05
3.97263e-05
4.05195e-05
4.15905e-05
4.28873e-05
4.43605e-05
4.59543e-05
4.75951e-05
4.40372e-05
3.99877e-05
3.75315e-05
3.49281e-05
3.19066e-05
2.87952e-05
2.59409e-05
2.37934e-05
2.26191e-05
1.92387e-05
5.40642e-06
1.48264e-07
2.78188e-07
8.983e-06
2.27901e-05
1.804e-05
1.72232e-05
1.83372e-05
2.02762e-05
2.2332e-05
2.40669e-05
2.53852e-05
2.74092e-05
3.28497e-05
3.77052e-05
3.64354e-05
3.55965e-05
3.52156e-05
3.52827e-05
3.5766e-05
3.66204e-05
3.7794e-05
3.92259e-05
3.47917e-05
3.24787e-05
3.16756e-05
3.09251e-05
2.98471e-05
2.83745e-05
2.65797e-05
2.4734e-05
2.32968e-05
2.28763e-05
2.3802e-05
2.2124e-05
5.66992e-06
1.46712e-07
2.60964e-07
6.92811e-06
2.52027e-05
2.09291e-05
1.87629e-05
1.88903e-05
2.01338e-05
2.16765e-05
2.3011e-05
2.3816e-05
2.38572e-05
2.37224e-05
2.54507e-05
2.99869e-05
2.89113e-05
2.8582e-05
2.8985e-05
3.00108e-05
3.151e-05
3.33267e-05
3.533e-05
3.47874e-05
3.19656e-05
3.13663e-05
3.09627e-05
2.98356e-05
2.83342e-05
2.68054e-05
2.55186e-05
2.47951e-05
2.49904e-05
2.57633e-05
1.9939e-05
4.91298e-06
1.38367e-07
2.31871e-07
6.18139e-06
2.65957e-05
2.14724e-05
1.71089e-05
1.55705e-05
1.52427e-05
1.51178e-05
1.48598e-05
1.46872e-05
1.48263e-05
1.4882e-05
1.40058e-05
1.25997e-05
1.24725e-05
1.33189e-05
1.33345e-05
1.50425e-05
1.48655e-05
1.50306e-05
1.63433e-05
1.72257e-05
1.72599e-05
1.74001e-05
1.81709e-05
1.93986e-05
2.05453e-05
2.11832e-05
2.15252e-05
2.23467e-05
2.42654e-05
2.65803e-05
1.99077e-05
4.69867e-06
1.20319e-07
2.02552e-07
5.32174e-06
2.31874e-05
2.31773e-05
1.79846e-05
1.51913e-05
1.40735e-05
1.39929e-05
1.3979e-05
1.17942e-05
7.3196e-06
3.4228e-06
9.6206e-07
4.98821e-08
3.26783e-07
1.05235e-06
6.87741e-07
1.26238e-06
7.28829e-07
4.87127e-07
8.78597e-07
2.87206e-06
5.90407e-06
1.03461e-05
1.51943e-05
1.70524e-05
1.68982e-05
1.74166e-05
1.91756e-05
2.17778e-05
2.4626e-05
2.64914e-05
1.8758e-05
4.56781e-06
1.05689e-07
1.90704e-07
5.06275e-06
2.27932e-05
2.15517e-05
1.55426e-05
1.26322e-05
1.06746e-05
7.55461e-06
3.76536e-06
1.07667e-06
8.24185e-07
6.90562e-08
4.86073e-07
3.58803e-07
9.37783e-08
9.73819e-07
1.81016e-06
1.95849e-06
1.3836e-06
5.46236e-07
4.6167e-07
3.86308e-07
2.58768e-07
2.81126e-07
1.26714e-06
3.84283e-06
8.03671e-06
1.23588e-05
1.46938e-05
1.67147e-05
2.04236e-05
2.50341e-05
1.97955e-05
4.60681e-06
1.0683e-07
1.98573e-07
4.82355e-06
2.01218e-05
2.06217e-05
1.44801e-05
9.35098e-06
4.91491e-06
1.67139e-06
5.80909e-07
1.19955e-07
1.24631e-07
1.14919e-07
2.15364e-06
5.28217e-06
8.8392e-06
1.18532e-05
1.35466e-05
1.34648e-05
1.16802e-05
8.78968e-06
5.59088e-06
2.80596e-06
8.27216e-07
3.56294e-07
8.25605e-09
2.36536e-07
1.29878e-06
4.54771e-06
9.81301e-06
1.52904e-05
1.90826e-05
2.18568e-05
1.78965e-05
4.43725e-06
1.15743e-07
2.10669e-07
4.44769e-06
1.79119e-05
1.53907e-05
8.21574e-06
3.61379e-06
9.26565e-07
5.71414e-08
2.8345e-07
8.51937e-09
1.27893e-06
4.12514e-06
7.67249e-06
1.1202e-05
1.43337e-05
1.67996e-05
1.82333e-05
1.83303e-05
1.70517e-05
1.46367e-05
1.14626e-05
7.95054e-06
4.58209e-06
1.84926e-06
1.41138e-07
2.40727e-07
4.2189e-07
4.99982e-08
2.03236e-06
6.40473e-06
1.25992e-05
1.79042e-05
1.53121e-05
4.01184e-06
1.23982e-07
2.2415e-07
4.06002e-06
1.51505e-05
1.08169e-05
4.32075e-06
1.13511e-06
5.92954e-07
2.9804e-07
4.4298e-07
1.33051e-06
4.20433e-06
7.85865e-06
1.16605e-05
1.53645e-05
1.87635e-05
2.14666e-05
2.30139e-05
2.31154e-05
2.17965e-05
1.9364e-05
1.62293e-05
1.27208e-05
9.03827e-06
5.4215e-06
2.34675e-06
3.65899e-07
2.87558e-07
4.54366e-08
2.06949e-07
1.67676e-06
5.70617e-06
1.18624e-05
1.17075e-05
3.45838e-06
1.35551e-07
2.35241e-07
3.6699e-06
1.31847e-05
6.00273e-06
1.70285e-06
4.56503e-07
3.53063e-07
2.62554e-07
1.45729e-06
4.37629e-06
8.04591e-06
1.18007e-05
1.54121e-05
1.8786e-05
2.17357e-05
2.39848e-05
2.52553e-05
2.53703e-05
2.43156e-05
2.22482e-05
1.94449e-05
1.62046e-05
1.2739e-05
9.15242e-06
5.59841e-06
2.51309e-06
5.04954e-07
1.44265e-07
2.35033e-07
4.151e-07
1.8116e-06
6.36161e-06
9.43083e-06
2.88499e-06
1.45668e-07
2.4749e-07
3.36101e-06
1.12402e-05
3.7074e-06
7.18861e-07
2.7086e-09
1.88352e-07
8.41966e-07
3.25784e-06
6.53528e-06
1.00099e-05
1.34643e-05
1.6864e-05
2.01348e-05
2.31076e-05
2.5514e-05
2.70464e-05
2.74552e-05
2.66361e-05
2.468e-05
2.18561e-05
1.851e-05
1.49165e-05
1.12129e-05
7.50352e-06
4.08738e-06
1.47239e-06
7.81266e-08
1.95828e-07
2.88424e-07
7.2389e-07
3.79377e-06
7.8677e-06
2.45679e-06
1.49541e-07
2.64533e-07
3.13724e-06
9.45959e-06
2.08434e-06
1.78654e-07
4.17347e-07
6.17e-07
2.60927e-06
5.49062e-06
8.62694e-06
1.18076e-05
1.50036e-05
1.81768e-05
2.1204e-05
2.39432e-05
2.61885e-05
2.77064e-05
2.82858e-05
2.77873e-05
2.62084e-05
2.37231e-05
2.06288e-05
1.72016e-05
1.35674e-05
9.76781e-06
6.00885e-06
2.82587e-06
7.8151e-07
6.74e-08
1.43277e-08
7.04737e-08
2.04531e-06
6.6503e-06
2.088e-06
1.41658e-07
2.87716e-07
2.969e-06
8.19836e-06
1.45998e-06
4.39838e-08
2.10723e-07
1.44501e-06
3.52584e-06
5.99699e-06
8.66666e-06
1.15349e-05
1.45908e-05
1.7764e-05
2.09153e-05
2.38703e-05
2.63953e-05
2.82123e-05
2.90405e-05
2.86632e-05
2.70417e-05
2.44109e-05
2.12141e-05
1.78341e-05
1.43939e-05
1.08276e-05
7.153e-06
3.77608e-06
1.3103e-06
8.56003e-08
2.20226e-08
2.98488e-07
1.47172e-06
5.58101e-06
1.82182e-06
1.26876e-07
3.09823e-07
2.8124e-06
7.99827e-06
1.32983e-06
2.64186e-07
7.18901e-07
2.09584e-06
3.95276e-06
6.04971e-06
8.4291e-06
1.12041e-05
1.43629e-05
1.77516e-05
2.11445e-05
2.42943e-05
2.69161e-05
2.87253e-05
2.94784e-05
2.90144e-05
2.73435e-05
2.47354e-05
2.1663e-05
1.85418e-05
1.55105e-05
1.24392e-05
9.13237e-06
5.68438e-06
2.68258e-06
7.70657e-07
1.64065e-07
2.03527e-07
9.86363e-07
5.14297e-06
1.68746e-06
1.12017e-07
3.1063e-07
2.63034e-06
9.70895e-06
2.09688e-06
7.56598e-07
1.02687e-06
1.98118e-06
3.19633e-06
4.63893e-06
6.59308e-06
9.25272e-06
1.2607e-05
1.64489e-05
2.04619e-05
2.42632e-05
2.73871e-05
2.93993e-05
3.00237e-05
2.91887e-05
2.70706e-05
2.41162e-05
2.09086e-05
1.78879e-05
1.51919e-05
1.27011e-05
1.01345e-05
7.26947e-06
4.28733e-06
1.82811e-06
4.23223e-07
5.68488e-08
4.52005e-07
4.02027e-06
1.57448e-06
1.01784e-07
2.79487e-07
2.43966e-06
8.7626e-06
4.21603e-06
1.65126e-06
1.40414e-06
1.80768e-06
2.43123e-06
3.32075e-06
4.87134e-06
7.36765e-06
1.08778e-05
1.51889e-05
1.98868e-05
2.44165e-05
2.80688e-05
3.02223e-05
3.06383e-05
2.94509e-05
2.7037e-05
2.39304e-05
2.06994e-05
1.77544e-05
1.52389e-05
1.30747e-05
1.10323e-05
8.7961e-06
6.18913e-06
3.52841e-06
1.4984e-06
4.60257e-07
3.82954e-07
2.74004e-06
1.58319e-06
9.67801e-08
2.34783e-07
2.27215e-06
6.85696e-06
8.63536e-06
3.26768e-06
2.12293e-06
1.89786e-06
1.90221e-06
2.22586e-06
3.31934e-06
5.51619e-06
8.91361e-06
1.33264e-05
1.83653e-05
2.3507e-05
2.79125e-05
3.06006e-05
3.11037e-05
2.96561e-05
2.68591e-05
2.34165e-05
1.99759e-05
1.69637e-05
1.45124e-05
1.25394e-05
1.08379e-05
9.12563e-06
7.11443e-06
4.79192e-06
2.65268e-06
1.27241e-06
8.76487e-07
2.66565e-06
1.77219e-06
9.76654e-08
2.00671e-07
2.18762e-06
6.20844e-06
1.27322e-05
5.24386e-06
2.97046e-06
2.03984e-06
1.53261e-06
1.65859e-06
2.77567e-06
5.10224e-06
8.65254e-06
1.31255e-05
1.80872e-05
2.31573e-05
2.76851e-05
3.06275e-05
3.12855e-05
2.9814e-05
2.68762e-05
2.32513e-05
1.96529e-05
1.65565e-05
1.41113e-05
1.2233e-05
1.0717e-05
9.291e-06
7.6645e-06
5.68385e-06
3.64627e-06
2.14082e-06
1.58774e-06
3.34879e-06
2.09408e-06
1.0351e-07
1.84687e-07
2.20536e-06
6.252e-06
1.45576e-05
6.68617e-06
3.1716e-06
1.60811e-06
1.04915e-06
1.48882e-06
3.07442e-06
5.8673e-06
9.62537e-06
1.38568e-05
1.82591e-05
2.27927e-05
2.71015e-05
3.01581e-05
3.09825e-05
2.94952e-05
2.63405e-05
2.24183e-05
1.85989e-05
1.54302e-05
1.30343e-05
1.12793e-05
9.94271e-06
8.7637e-06
7.46934e-06
5.88635e-06
4.17801e-06
2.80247e-06
2.33421e-06
4.7332e-06
2.30575e-06
1.12601e-07
1.82792e-07
2.26113e-06
6.49266e-06
1.39426e-05
5.43388e-06
1.99351e-06
8.5854e-07
9.65488e-07
2.17832e-06
4.57414e-06
7.91967e-06
1.16389e-05
1.53396e-05
1.91217e-05
2.317e-05
2.71401e-05
2.99695e-05
3.06389e-05
2.89838e-05
2.55869e-05
2.14176e-05
1.74801e-05
1.43472e-05
1.20725e-05
1.04652e-05
9.28461e-06
8.2781e-06
7.19761e-06
5.8961e-06
4.47763e-06
3.31997e-06
3.11644e-06
6.78263e-06
2.38707e-06
1.22365e-07
1.87403e-07
2.21449e-06
6.3651e-06
9.45227e-06
2.65342e-06
8.5326e-07
7.52676e-07
1.76847e-06
3.9061e-06
6.95103e-06
1.02456e-05
1.33223e-05
1.63111e-05
1.96067e-05
2.33537e-05
2.70865e-05
2.96793e-05
3.00857e-05
2.8077e-05
2.4245e-05
1.97618e-05
1.57858e-05
1.28041e-05
1.07298e-05
9.31133e-06
8.31268e-06
7.51264e-06
6.70342e-06
5.753e-06
4.67271e-06
3.8287e-06
4.11179e-06
9.47199e-06
2.36352e-06
1.30562e-07
1.93389e-07
2.06349e-06
6.17693e-06
4.25678e-06
1.1246e-06
7.86739e-07
1.66375e-06
3.58649e-06
6.38443e-06
9.35367e-06
1.19694e-05
1.43577e-05
1.69596e-05
2.00994e-05
2.37461e-05
2.72872e-05
2.9567e-05
2.95917e-05
2.71315e-05
2.28587e-05
1.81849e-05
1.43093e-05
1.15382e-05
9.65665e-06
8.38611e-06
7.51499e-06
6.86633e-06
6.28754e-06
5.6288e-06
4.87459e-06
4.41516e-06
5.37782e-06
1.08803e-05
2.30693e-06
1.35868e-07
1.99419e-07
1.96976e-06
6.64247e-06
2.27192e-06
1.1095e-06
1.7133e-06
3.37448e-06
5.84493e-06
8.51019e-06
1.07644e-05
1.26721e-05
1.46573e-05
1.70837e-05
2.01569e-05
2.37576e-05
2.71956e-05
2.92802e-05
2.89775e-05
2.60312e-05
2.13198e-05
1.65475e-05
1.28407e-05
1.02882e-05
8.58414e-06
7.45362e-06
6.72131e-06
6.25568e-06
5.94142e-06
5.5783e-06
5.16934e-06
5.17172e-06
7.03123e-06
1.02935e-05
2.24469e-06
1.38396e-07
2.06532e-07
2.11821e-06
8.39652e-06
2.35005e-06
2.02641e-06
3.24396e-06
5.33258e-06
7.6953e-06
9.71805e-06
1.13091e-05
1.28229e-05
1.46214e-05
1.69837e-05
2.00611e-05
2.36814e-05
2.70849e-05
2.90456e-05
2.85021e-05
2.52031e-05
2.02293e-05
1.54515e-05
1.18739e-05
9.44393e-06
7.82135e-06
6.74855e-06
6.08636e-06
5.74934e-06
5.63563e-06
5.53779e-06
5.48113e-06
5.99667e-06
8.84448e-06
9.37681e-06
2.21147e-06
1.39667e-07
2.14879e-07
2.51662e-06
1.07132e-05
3.42149e-06
3.35523e-06
4.84497e-06
6.86961e-06
8.69112e-06
1.00855e-05
1.12394e-05
1.24971e-05
1.41523e-05
1.64402e-05
1.95027e-05
2.31704e-05
2.66583e-05
2.8675e-05
2.80746e-05
2.45944e-05
1.94723e-05
1.46926e-05
1.11845e-05
8.81774e-06
7.23489e-06
6.1892e-06
5.56562e-06
5.31701e-06
5.35041e-06
5.48299e-06
5.76275e-06
6.79383e-06
1.05372e-05
8.78876e-06
2.2054e-06
1.40872e-07
2.24208e-07
3.00752e-06
1.37783e-05
4.97131e-06
4.72122e-06
6.12751e-06
7.79339e-06
9.07614e-06
1.00166e-05
1.08755e-05
1.1948e-05
1.34756e-05
1.56722e-05
1.86942e-05
2.24142e-05
2.60645e-05
2.83018e-05
2.78936e-05
2.451e-05
1.93701e-05
1.4518e-05
1.09422e-05
8.52287e-06
6.89652e-06
5.81411e-06
5.16542e-06
4.92381e-06
5.02727e-06
5.32269e-06
5.87873e-06
7.35232e-06
1.17736e-05
8.57671e-06
2.22293e-06
1.42443e-07
2.33724e-07
3.38587e-06
1.71911e-05
6.84869e-06
5.99568e-06
7.05304e-06
8.2883e-06
9.10478e-06
9.66e-06
1.02658e-05
1.11572e-05
1.25262e-05
1.45681e-05
1.74678e-05
2.11941e-05
2.50795e-05
2.77409e-05
2.77888e-05
2.47459e-05
1.96965e-05
1.47302e-05
1.10024e-05
8.46493e-06
6.7512e-06
5.59733e-06
4.88485e-06
4.59157e-06
4.69676e-06
5.07266e-06
5.80852e-06
7.59829e-06
1.25282e-05
8.59551e-06
2.25312e-06
1.44296e-07
2.42231e-07
3.55901e-06
1.90762e-05
9.01175e-06
7.20242e-06
7.73047e-06
8.52822e-06
8.97513e-06
9.22201e-06
9.61575e-06
1.03372e-05
1.15342e-05
1.33803e-05
1.6081e-05
1.97142e-05
2.37924e-05
2.69796e-05
2.77094e-05
2.52827e-05
2.04836e-05
1.53747e-05
1.13908e-05
8.64828e-06
6.7909e-06
5.5277e-06
4.71827e-06
4.32776e-06
4.37353e-06
4.74726e-06
5.54809e-06
7.48486e-06
1.27891e-05
8.8184e-06
2.29383e-06
1.4618e-07
2.48331e-07
3.55469e-06
1.84471e-05
1.15728e-05
8.47826e-06
8.33143e-06
8.69394e-06
8.8255e-06
8.79675e-06
8.95922e-06
9.49284e-06
1.0499e-05
1.2118e-05
1.45558e-05
1.79843e-05
2.21474e-05
2.58773e-05
2.74389e-05
2.58299e-05
2.14836e-05
1.62956e-05
1.20156e-05
9.01401e-06
6.97557e-06
5.58002e-06
4.65842e-06
4.15533e-06
4.10161e-06
4.41879e-06
5.19727e-06
7.13358e-06
1.26519e-05
9.20658e-06
2.34294e-06
1.47876e-07
2.51932e-07
3.459e-06
1.64157e-05
1.45819e-05
9.90122e-06
8.93982e-06
8.85172e-06
8.70614e-06
8.45761e-06
8.39889e-06
8.75142e-06
9.5723e-06
1.09653e-05
1.31202e-05
1.62621e-05
2.03517e-05
2.45047e-05
2.69317e-05
2.62792e-05
2.25872e-05
1.74438e-05
1.28555e-05
9.5438e-06
7.28614e-06
5.73567e-06
4.68877e-06
4.06621e-06
3.88706e-06
4.11697e-06
4.81649e-06
6.63637e-06
1.21376e-05
9.80377e-06
2.40468e-06
1.49371e-07
2.53453e-07
3.33333e-06
1.42943e-05
1.78699e-05
1.15693e-05
9.6658e-06
9.09312e-06
8.67867e-06
8.23162e-06
7.95423e-06
8.1002e-06
8.72626e-06
9.89796e-06
1.1775e-05
1.45967e-05
1.84846e-05
2.28854e-05
2.61159e-05
2.64667e-05
2.35736e-05
1.8655e-05
1.38133e-05
1.01786e-05
7.68332e-06
5.96796e-06
4.79207e-06
4.04996e-06
3.74139e-06
3.87494e-06
4.47442e-06
6.12488e-06
1.13974e-05
1.06146e-05
2.48022e-06
1.50831e-07
2.53255e-07
3.20678e-06
1.25718e-05
2.0812e-05
1.34918e-05
1.05448e-05
9.4277e-06
8.72828e-06
8.09479e-06
7.63074e-06
7.56658e-06
8.01125e-06
8.98813e-06
1.06221e-05
1.31406e-05
1.67574e-05
2.12169e-05
2.50898e-05
2.64058e-05
2.43822e-05
1.98432e-05
1.48366e-05
1.08845e-05
8.14017e-06
6.25495e-06
4.95091e-06
4.09273e-06
3.65743e-06
3.68995e-06
4.18193e-06
5.64222e-06
1.053e-05
1.16832e-05
2.57257e-06
1.52619e-07
2.51509e-07
3.08825e-06
1.12373e-05
2.27357e-05
1.56074e-05
1.16174e-05
9.88912e-06
8.87102e-06
8.04361e-06
7.40422e-06
7.1309e-06
7.39265e-06
8.18943e-06
9.61357e-06
1.18663e-05
1.52011e-05
1.95881e-05
2.39199e-05
2.6097e-05
2.49224e-05
2.08605e-05
1.58052e-05
1.158e-05
8.60153e-06
6.55838e-06
5.13973e-06
4.18052e-06
3.6361e-06
3.56718e-06
3.9569e-06
5.23991e-06
9.70303e-06
1.2959e-05
2.6784e-06
1.55116e-07
2.48668e-07
2.9834e-06
1.02183e-05
2.34356e-05
1.77422e-05
1.28453e-05
1.04444e-05
9.06453e-06
8.02724e-06
7.22357e-06
6.77308e-06
6.86435e-06
7.51419e-06
8.77954e-06
1.08276e-05
1.3918e-05
1.81682e-05
2.27767e-05
2.56609e-05
2.52542e-05
2.16917e-05
1.66733e-05
1.22214e-05
9.03096e-06
6.84739e-06
5.33203e-06
4.28972e-06
3.65814e-06
3.49071e-06
3.78719e-06
4.91362e-06
8.96928e-06
1.43668e-05
2.79344e-06
1.58789e-07
2.4522e-07
2.89404e-06
9.43864e-06
2.32371e-05
1.97156e-05
1.41563e-05
1.10625e-05
9.28446e-06
8.01838e-06
7.05588e-06
6.46119e-06
6.40166e-06
6.93621e-06
8.08512e-06
9.98337e-06
1.28809e-05
1.69858e-05
2.17444e-05
2.51664e-05
2.53855e-05
2.22594e-05
1.73215e-05
1.27157e-05
9.36499e-06
7.07746e-06
5.49606e-06
4.39736e-06
3.7025e-06
3.45648e-06
3.67527e-06
4.67339e-06
8.38703e-06
1.56885e-05
2.90666e-06
1.64081e-07
2.41747e-07
2.8206e-06
8.84783e-06
2.25911e-05
2.1352e-05
1.54231e-05
1.16687e-05
9.46302e-06
7.95449e-06
6.84552e-06
6.14402e-06
5.98293e-06
6.45031e-06
7.53633e-06
9.34945e-06
1.21264e-05
1.61252e-05
2.09602e-05
2.47468e-05
2.5417e-05
2.2613e-05
1.77458e-05
1.30351e-05
9.57414e-06
7.22153e-06
5.60652e-06
4.48104e-06
3.74964e-06
3.45038e-06
3.60899e-06
4.50669e-06
7.9516e-06
1.67229e-05
3.00829e-06
1.71382e-07
2.38648e-07
2.76103e-06
8.39962e-06
2.18171e-05
2.25633e-05
1.65038e-05
1.21548e-05
9.53057e-06
7.79378e-06
6.56858e-06
5.80719e-06
5.604e-06
6.05433e-06
7.12591e-06
8.90935e-06
1.16312e-05
1.55765e-05
2.04572e-05
2.44535e-05
2.53706e-05
2.27211e-05
1.78753e-05
1.31146e-05
9.61399e-06
7.24892e-06
5.63982e-06
4.52204e-06
3.78667e-06
3.46686e-06
3.58857e-06
4.41966e-06
7.68613e-06
1.73068e-05
3.08739e-06
1.8087e-07
2.36176e-07
2.7129e-06
8.06107e-06
2.10903e-05
2.33334e-05
1.72418e-05
1.23835e-05
9.40065e-06
7.48898e-06
6.20319e-06
5.44295e-06
5.26548e-06
5.75219e-06
6.85792e-06
8.66596e-06
1.1401e-05
1.53624e-05
2.02872e-05
2.43479e-05
2.52965e-05
2.26216e-05
1.77316e-05
1.29635e-05
9.48701e-06
7.15711e-06
5.58843e-06
4.50872e-06
3.80072e-06
3.49421e-06
3.60491e-06
4.40401e-06
7.58157e-06
1.74469e-05
3.13808e-06
1.9252e-07
2.344e-07
2.67343e-06
7.80422e-06
2.04792e-05
2.36959e-05
1.75181e-05
1.22538e-05
9.02686e-06
7.03455e-06
5.76664e-06
5.07539e-06
4.98845e-06
5.55877e-06
6.73872e-06
8.61487e-06
1.14206e-05
1.54607e-05
2.04281e-05
2.44105e-05
2.51715e-05
2.22845e-05
1.72878e-05
1.2567e-05
9.18721e-06
6.94517e-06
5.4519e-06
4.43936e-06
3.78952e-06
3.52979e-06
3.658e-06
4.46494e-06
7.65613e-06
1.72058e-05
3.15811e-06
2.05992e-07
2.33303e-07
2.6404e-06
7.60995e-06
2.00099e-05
2.36814e-05
1.72462e-05
1.17129e-05
8.41055e-06
6.46139e-06
5.29805e-06
4.73807e-06
4.79403e-06
5.4837e-06
6.76816e-06
8.74971e-06
1.16805e-05
1.58557e-05
2.08489e-05
2.46013e-05
2.49691e-05
2.17151e-05
1.65849e-05
1.19745e-05
8.75242e-06
6.6384e-06
5.24542e-06
4.32108e-06
3.75555e-06
3.56906e-06
3.74207e-06
4.60021e-06
7.91726e-06
1.66535e-05
3.15111e-06
2.20663e-07
2.3273e-07
2.61224e-06
7.46488e-06
1.96856e-05
2.33059e-05
1.64194e-05
1.08107e-05
7.62887e-06
5.84589e-06
4.86017e-06
4.47513e-06
4.70534e-06
5.53385e-06
6.94146e-06
9.05664e-06
1.21586e-05
1.65086e-05
2.14747e-05
2.48362e-05
2.46299e-05
2.0895e-05
1.56509e-05
1.12261e-05
8.21589e-06
6.2611e-06
4.98749e-06
4.16777e-06
3.71132e-06
3.61548e-06
3.85816e-06
4.81585e-06
8.39171e-06
1.58306e-05
3.12337e-06
2.35639e-07
2.32527e-07
2.58861e-06
7.36457e-06
1.95171e-05
2.2562e-05
1.51163e-05
9.68221e-06
6.79914e-06
5.27303e-06
4.50774e-06
4.31712e-06
4.72969e-06
5.70021e-06
7.24011e-06
9.51273e-06
1.28232e-05
1.73616e-05
2.22148e-05
2.50271e-05
2.41086e-05
1.98475e-05
1.4564e-05
1.03959e-05
7.63022e-06
5.84896e-06
4.70283e-06
3.99575e-06
3.66457e-06
3.66853e-06
4.00306e-06
5.11267e-06
9.10194e-06
1.47956e-05
3.08045e-06
2.4996e-07
2.32413e-07
2.57007e-06
7.31019e-06
1.95177e-05
2.1454e-05
1.35334e-05
8.52003e-06
6.04564e-06
4.81322e-06
4.27426e-06
4.27591e-06
4.85769e-06
5.9617e-06
7.63826e-06
1.00896e-05
1.36367e-05
1.83463e-05
2.29712e-05
2.50952e-05
2.33745e-05
1.86126e-05
1.34003e-05
9.54381e-06
7.03575e-06
5.43074e-06
4.41414e-06
3.82386e-06
3.62254e-06
3.73205e-06
4.17849e-06
5.49467e-06
1.00632e-05
1.36374e-05
3.0279e-06
2.62792e-07
2.32124e-07
2.55819e-06
7.30833e-06
1.97034e-05
2.00319e-05
1.19171e-05
7.48745e-06
5.44664e-06
4.49536e-06
4.16007e-06
4.33927e-06
5.06372e-06
6.28936e-06
8.10705e-06
1.07567e-05
1.45568e-05
1.93894e-05
2.36567e-05
2.49879e-05
2.24338e-05
1.7271e-05
1.22484e-05
8.7286e-06
6.47092e-06
5.03338e-06
4.14141e-06
3.66875e-06
3.59086e-06
3.80606e-06
4.38243e-06
5.96236e-06
1.12553e-05
1.24933e-05
2.97314e-06
2.73697e-07
2.31425e-07
2.55523e-06
7.36888e-06
2.00774e-05
1.84281e-05
1.04806e-05
6.67863e-06
5.02918e-06
4.31533e-06
4.1456e-06
4.47655e-06
5.31809e-06
6.65647e-06
8.62088e-06
1.14846e-05
1.55397e-05
2.04184e-05
2.4207e-05
2.46833e-05
2.13243e-05
1.59099e-05
1.11685e-05
7.98365e-06
5.95736e-06
4.67343e-06
3.8982e-06
3.54396e-06
3.57443e-06
3.89122e-06
4.61258e-06
6.51423e-06
1.26147e-05
1.14638e-05
2.9211e-06
2.82606e-07
2.30204e-07
2.56355e-06
7.50161e-06
2.06153e-05
1.68389e-05
9.33616e-06
6.11037e-06
4.77519e-06
4.24351e-06
4.19929e-06
4.65284e-06
5.59344e-06
7.04049e-06
9.15795e-06
1.22447e-05
1.65376e-05
2.13739e-05
2.45867e-05
2.4188e-05
2.01135e-05
1.46126e-05
1.02027e-05
7.32846e-06
5.50767e-06
4.36069e-06
3.69141e-06
3.44951e-06
3.57133e-06
3.98409e-06
4.85998e-06
7.12296e-06
1.40112e-05
1.05957e-05
2.87228e-06
2.8977e-07
2.28469e-07
2.58484e-06
7.7134e-06
2.12627e-05
1.54427e-05
8.50155e-06
5.74598e-06
4.64548e-06
4.24414e-06
4.29391e-06
4.84692e-06
5.87561e-06
7.43023e-06
9.70486e-06
1.30154e-05
1.7513e-05
2.22172e-05
2.47887e-05
2.35354e-05
1.88778e-05
1.34319e-05
9.36289e-06
6.76371e-06
5.12219e-06
4.09698e-06
3.52408e-06
3.38216e-06
3.58206e-06
4.08528e-06
5.12201e-06
7.76625e-06
1.52928e-05
9.8899e-06
2.82759e-06
2.95583e-07
2.26383e-07
2.61975e-06
8.0054e-06
2.19459e-05
1.43304e-05
7.93301e-06
5.5323e-06
4.59587e-06
4.28375e-06
4.40967e-06
5.04538e-06
6.1553e-06
7.81529e-06
1.02456e-05
1.37702e-05
1.8427e-05
2.29175e-05
2.48188e-05
2.27715e-05
1.76851e-05
1.23929e-05
8.64469e-06
6.28164e-06
4.79436e-06
3.87793e-06
3.39479e-06
3.33942e-06
3.60563e-06
4.19359e-06
5.39732e-06
8.41741e-06
1.63337e-05
9.32271e-06
2.78708e-06
3.00364e-07
2.24284e-07
2.66793e-06
8.37395e-06
2.25903e-05
1.3491e-05
7.56028e-06
5.41655e-06
4.59082e-06
4.34178e-06
4.53867e-06
5.24585e-06
6.43215e-06
8.19246e-06
1.07714e-05
1.44928e-05
1.92562e-05
2.34689e-05
2.47055e-05
2.19534e-05
1.65812e-05
1.1494e-05
8.03099e-06
5.86749e-06
4.513e-06
3.69555e-06
3.30047e-06
3.31942e-06
3.64294e-06
4.30942e-06
5.67905e-06
9.05885e-06
1.7091e-05
8.8607e-06
2.74963e-06
3.04196e-07
2.2255e-07
2.72792e-06
8.80825e-06
2.3135e-05
1.28736e-05
7.32227e-06
5.35917e-06
4.60852e-06
4.40916e-06
4.67433e-06
5.44619e-06
6.70108e-06
8.55005e-06
1.12621e-05
1.51538e-05
1.99677e-05
2.38658e-05
2.44804e-05
2.11332e-05
1.55929e-05
1.07236e-05
7.50509e-06
5.50756e-06
4.26643e-06
3.53882e-06
3.23163e-06
3.31546e-06
3.69174e-06
4.43243e-06
5.96312e-06
9.68096e-06
1.75819e-05
8.47464e-06
2.7138e-06
3.06928e-07
2.21589e-07
2.79718e-06
9.29365e-06
2.35413e-05
1.24084e-05
7.16566e-06
5.334e-06
4.64102e-06
4.48793e-06
4.81826e-06
5.64672e-06
6.95699e-06
8.87807e-06
1.17026e-05
1.57321e-05
2.05528e-05
2.41293e-05
2.41896e-05
2.03583e-05
1.47327e-05
1.00694e-05
7.05356e-06
5.19144e-06
4.04555e-06
3.39825e-06
3.17511e-06
3.32049e-06
3.74952e-06
4.56335e-06
6.25093e-06
1.02839e-05
1.78526e-05
8.14173e-06
2.67824e-06
3.08298e-07
2.21681e-07
2.87255e-06
9.81028e-06
2.38071e-05
1.20595e-05
7.06487e-06
5.33524e-06
4.69228e-06
4.58292e-06
4.96842e-06
5.83719e-06
7.18254e-06
9.15509e-06
1.20667e-05
1.61992e-05
2.0996e-05
2.42768e-05
2.3875e-05
1.96687e-05
1.40111e-05
9.52605e-06
6.67073e-06
4.91442e-06
3.84473e-06
3.26581e-06
3.11894e-06
3.32425e-06
3.80831e-06
4.69682e-06
6.5389e-06
1.08626e-05
1.79441e-05
7.84728e-06
2.64222e-06
3.08092e-07
2.22948e-07
2.95014e-06
1.03338e-05
2.39667e-05
1.18165e-05
7.01639e-06
5.36783e-06
4.76895e-06
4.69583e-06
5.11775e-06
6.00406e-06
7.36355e-06
9.36598e-06
1.2339e-05
1.65435e-05
2.13046e-05
2.43418e-05
2.35806e-05
1.90985e-05
1.3438e-05
9.09418e-06
6.35781e-06
4.67816e-06
3.66403e-06
3.13807e-06
3.05498e-06
3.31609e-06
3.85718e-06
4.82355e-06
6.81502e-06
1.13999e-05
1.78894e-05
7.58419e-06
2.6058e-06
3.06318e-07
2.25249e-07
3.02524e-06
1.08284e-05
2.41077e-05
1.17044e-05
7.03497e-06
5.44354e-06
4.8761e-06
4.82108e-06
5.25016e-06
6.12876e-06
7.47975e-06
9.48939e-06
1.24958e-05
1.67443e-05
2.14782e-05
2.43488e-05
2.33431e-05
1.86794e-05
1.3027e-05
8.78063e-06
6.12142e-06
4.48874e-06
3.50746e-06
3.01478e-06
2.97674e-06
3.2842e-06
3.88068e-06
4.92629e-06
7.05569e-06
1.18606e-05
1.77212e-05
7.35389e-06
2.57014e-06
3.03332e-07
2.28305e-07
3.09378e-06
1.12567e-05
2.43424e-05
1.17546e-05
7.1336e-06
5.56623e-06
5.00791e-06
4.94637e-06
5.35336e-06
6.20034e-06
7.52434e-06
9.52222e-06
1.25364e-05
1.68059e-05
2.15333e-05
2.43247e-05
2.31904e-05
1.84325e-05
1.27895e-05
8.59189e-06
5.96773e-06
4.35342e-06
3.382e-06
2.90027e-06
2.88316e-06
3.22084e-06
3.86343e-06
4.97988e-06
7.22729e-06
1.21985e-05
1.74797e-05
7.15934e-06
2.5366e-06
2.99713e-07
2.31751e-07
3.15303e-06
1.15887e-05
2.47692e-05
1.20009e-05
7.3241e-06
5.73554e-06
5.15856e-06
5.06314e-06
5.41725e-06
6.21277e-06
7.49503e-06
9.46249e-06
1.24574e-05
1.67249e-05
2.14723e-05
2.42789e-05
2.31349e-05
1.83662e-05
1.27253e-05
8.52733e-06
5.89908e-06
4.27697e-06
3.29407e-06
2.80106e-06
2.77825e-06
3.1243e-06
3.79507e-06
4.96284e-06
7.29419e-06
1.23678e-05
1.72051e-05
7.00101e-06
2.50619e-06
2.96075e-07
2.35258e-07
3.202e-06
1.18091e-05
2.54271e-05
1.24562e-05
7.60785e-06
5.94817e-06
5.3197e-06
5.16195e-06
5.43889e-06
6.17058e-06
7.40175e-06
9.32358e-06
1.22732e-05
1.65146e-05
2.13051e-05
2.4215e-05
2.31724e-05
1.84693e-05
1.28218e-05
8.57965e-06
5.91302e-06
4.26073e-06
3.24879e-06
2.72539e-06
2.67161e-06
3.0013e-06
3.67493e-06
4.8642e-06
7.23319e-06
1.23409e-05
1.69285e-05
6.87724e-06
2.4793e-06
2.92908e-07
2.38634e-07
3.24162e-06
1.19244e-05
2.62782e-05
1.31231e-05
7.9833e-06
6.19453e-06
5.48074e-06
5.2383e-06
5.42336e-06
6.08573e-06
7.26015e-06
9.12332e-06
1.20032e-05
1.61912e-05
2.10355e-05
2.41246e-05
2.3283e-05
1.87146e-05
1.30577e-05
8.73267e-06
5.99748e-06
4.29784e-06
3.24541e-06
2.67942e-06
2.57645e-06
2.86791e-06
3.51643e-06
4.6906e-06
7.04305e-06
1.21169e-05
1.6664e-05
6.78159e-06
2.45533e-06
2.904e-07
2.41904e-07
3.27416e-06
1.1958e-05
2.72247e-05
1.39767e-05
8.43346e-06
6.46013e-06
5.63327e-06
5.29324e-06
5.38178e-06
5.97522e-06
7.09092e-06
8.88656e-06
1.16775e-05
1.57841e-05
2.06759e-05
2.39973e-05
2.34386e-05
1.90656e-05
1.34023e-05
8.96476e-06
6.1364e-06
4.37626e-06
3.2769e-06
2.66335e-06
2.50264e-06
2.74263e-06
3.34346e-06
4.46748e-06
6.74911e-06
1.17226e-05
1.64133e-05
6.7063e-06
2.43326e-06
2.88484e-07
2.45225e-07
3.30176e-06
1.19365e-05
2.81385e-05
1.4969e-05
8.93731e-06
6.73275e-06
5.7733e-06
5.33181e-06
5.327e-06
5.85493e-06
6.9116e-06
8.63378e-06
1.13214e-05
1.53207e-05
2.02384e-05
2.382e-05
2.3607e-05
1.94808e-05
1.38212e-05
9.25121e-06
6.31104e-06
4.48105e-06
3.33209e-06
2.67142e-06
2.4526e-06
2.63735e-06
3.17838e-06
4.22822e-06
6.39657e-06
1.12121e-05
1.6175e-05
6.6447e-06
2.41211e-06
2.86892e-07
2.48837e-07
3.32657e-06
1.18866e-05
2.8918e-05
1.6037e-05
9.47167e-06
7.00028e-06
5.89783e-06
5.35916e-06
5.27031e-06
5.73761e-06
6.73609e-06
8.38208e-06
1.09585e-05
1.483e-05
1.97418e-05
2.35853e-05
2.37611e-05
1.99249e-05
1.42851e-05
9.5708e-06
6.50461e-06
4.59764e-06
3.39817e-06
2.69404e-06
2.42293e-06
2.55628e-06
3.03559e-06
4.00102e-06
6.03107e-06
1.06473e-05
1.5944e-05
6.59057e-06
2.39088e-06
2.85215e-07
2.52987e-07
3.35011e-06
1.18277e-05
2.95171e-05
1.71126e-05
1.00072e-05
7.25275e-06
6.00833e-06
5.38341e-06
5.22331e-06
5.63322e-06
6.57355e-06
8.14189e-06
1.06038e-05
1.43349e-05
1.92076e-05
2.32944e-05
2.3883e-05
2.03722e-05
1.47731e-05
9.91013e-06
6.70695e-06
4.7167e-06
3.46552e-06
2.72141e-06
2.40561e-06
2.49676e-06
2.92102e-06
3.80401e-06
5.68905e-06
1.00859e-05
1.57158e-05
6.53894e-06
2.36904e-06
2.8305e-07
2.57745e-07
3.3726e-06
1.17661e-05
2.99485e-05
1.81584e-05
1.05297e-05
7.49073e-06
6.11148e-06
5.41199e-06
5.19239e-06
5.54319e-06
6.42317e-06
7.91225e-06
1.02591e-05
1.38437e-05
1.86489e-05
2.29496e-05
2.39611e-05
2.08075e-05
1.52766e-05
1.02672e-05
6.91714e-06
4.83675e-06
3.531e-06
2.74784e-06
2.39247e-06
2.44924e-06
2.82952e-06
3.64062e-06
5.38969e-06
9.56586e-06
1.54904e-05
6.49098e-06
2.34708e-06
2.80219e-07
2.63044e-07
3.39381e-06
1.1702e-05
3.02466e-05
1.91593e-05
1.1037e-05
7.7201e-06
6.21552e-06
5.45085e-06
5.17919e-06
5.46613e-06
6.28254e-06
7.69149e-06
9.92542e-06
1.33632e-05
1.80795e-05
2.25606e-05
2.39922e-05
2.12216e-05
1.57907e-05
1.06434e-05
7.13833e-06
4.96094e-06
3.59655e-06
2.77283e-06
2.37985e-06
2.40609e-06
2.75159e-06
3.50405e-06
5.13359e-06
9.09974e-06
1.5269e-05
6.45038e-06
2.3259e-06
2.76772e-07
2.68643e-07
3.41223e-06
1.16293e-05
3.045e-05
2.01393e-05
1.15474e-05
7.95639e-06
6.33192e-06
5.50496e-06
5.18017e-06
5.39668e-06
6.14489e-06
7.47222e-06
9.59508e-06
1.28864e-05
1.74979e-05
2.21285e-05
2.39746e-05
2.16136e-05
1.63213e-05
1.10471e-05
7.37958e-06
5.09621e-06
3.66705e-06
2.79838e-06
2.36637e-06
2.36091e-06
2.67724e-06
3.38235e-06
4.90882e-06
8.6786e-06
1.5049e-05
6.42151e-06
2.30646e-06
2.72917e-07
2.74212e-07
3.42641e-06
1.15422e-05
3.05804e-05
2.11349e-05
1.20865e-05
8.2155e-06
6.46904e-06
5.5762e-06
5.19201e-06
5.33036e-06
6.00563e-06
7.25066e-06
9.26568e-06
1.24138e-05
1.69105e-05
2.16621e-05
2.39107e-05
2.19798e-05
1.68689e-05
1.14856e-05
7.64972e-06
5.25157e-06
3.7508e-06
2.83119e-06
2.35615e-06
2.31232e-06
2.59983e-06
3.26408e-06
4.69952e-06
8.28267e-06
1.48218e-05
6.4077e-06
2.28946e-06
2.68928e-07
2.79406e-07
3.43563e-06
1.14361e-05