/*--------------------------------*- C++ -*----------------------------------*\
| =========                 |                                                 |
| \\      /  F ield         | OpenFOAM: The Open Source CFD Toolbox           |
|  \\    /   O peration     | Version:  v2006                                 |
|   \\  /    A nd           | Website:  www.openfoam.com                      |
|    \\/     M anipulation  |                                                 |
\*---------------------------------------------------------------------------*/
FoamFile
{
    version     2.0;
    format      ascii;
    class       volScalarField;
    location    "8";
    object      k;
}
// * * * * * * * * * * * * * * * * * * * * * * * * * * * * * * * * * * * * * //

dimensions      [0 2 -2 0 0 0 0];


internalField   nonuniform List<scalar> 
78750
(
0.0011731
3.5329e-05
0.000306577
0.000244456
0.000235991
0.000223573
0.000213672
0.000205337
0.00019821
0.000191969
0.000186425
0.000181444
0.000176957
0.000172916
0.000169257
0.000165917
0.000162835
0.000159957
0.000157219
0.000154539
0.000151826
0.000149022
0.000145878
0.000142281
0.000138066
0.000132999
0.000126762
0.000118936
0.000108978
9.61898e-05
7.98868e-05
5.94205e-05
3.51571e-05
1.38629e-05
7.0539e-06
8.27641e-05
0.000428887
0.000512635
0.00050629
0.000470727
0.000433639
0.000404402
0.000382452
0.000365952
0.000353146
0.000343005
0.000335117
0.00032914
0.000324701
0.000321479
0.000319354
0.000318297
0.000318188
0.000319071
0.000320568
0.000322571
0.000324783
0.000326945
0.000328986
0.000330263
0.000330029
0.000327627
0.000322215
0.000312416
0.00029585
0.000268792
0.000226894
0.00016999
0.000107454
4.18853e-05
0.000125154
0.00023308
0.000263951
0.000256901
0.0002409
0.000228874
0.000220914
0.000215533
0.000211708
0.000208568
0.000206051
0.000204078
0.000202809
0.000202511
0.000203284
0.000205113
0.000207939
0.000211682
0.000216282
0.000221493
0.000227132
0.000233024
0.00023896
0.000244779
0.000250273
0.00025498
0.000258288
0.000259346
0.00025682
0.000248615
0.000231673
0.00020279
0.000161894
0.00011158
5.30854e-05
0.000128276
0.000210351
0.000254776
0.000278916
0.000289114
0.000292684
0.000292329
0.000288464
0.000281528
0.000272723
0.000263037
0.000253088
0.00024397
0.000236713
0.000231649
0.000228809
0.000228099
0.000229336
0.000232287
0.000236667
0.000242274
0.000248843
0.000256024
0.000263404
0.000270437
0.000276441
0.000280573
0.00028173
0.000278408
0.000268505
0.000249408
0.000219289
0.000180349
0.000131444
6.3925e-05
0.00013645
0.000193469
0.00023048
0.000256873
0.000272952
0.00027754
0.000271994
0.000258809
0.000241057
0.000221908
0.000204195
0.000190187
0.000181013
0.000175587
0.000173142
0.000173378
0.000175902
0.000180349
0.000186419
0.000193868
0.000202464
0.000211925
0.000221843
0.000232064
0.000242295
0.000251499
0.000258404
0.000261615
0.000259424
0.000249911
0.000231465
0.000203989
0.000169561
0.000125633
6.55093e-05
0.000125337
0.000188383
0.000225623
0.000251659
0.000266201
0.000266855
0.000256977
0.000240979
0.000222461
0.000203991
0.000187451
0.000174321
0.000164766
0.000157889
0.000153401
0.000151377
0.000151732
0.000154302
0.000158881
0.000165245
0.000173127
0.000182652
0.000193924
0.000206279
0.000218948
0.000231002
0.000241158
0.000247761
0.000248784
0.000242079
0.000226182
0.000201752
0.000171344
0.000129893
6.48557e-05
0.000117624
0.000178678
0.000213036
0.000236078
0.000250591
0.000253002
0.000244318
0.00022786
0.000207326
0.000185808
0.000165358
0.000147661
0.000133838
0.00012452
0.000119192
0.000117576
0.000119556
0.00012464
0.000132184
0.000141507
0.000152023
0.000163521
0.000176098
0.000189301
0.000202291
0.000214351
0.000224518
0.000231211
0.000232443
0.000226362
0.000212129
0.00019076
0.000163187
0.000123415
6.12824e-05
0.00010451
0.000169364
0.000202188
0.000222218
0.000233564
0.000232403
0.000219846
0.000200232
0.000177802
0.000155396
0.00013362
0.00011207
9.08059e-05
7.13488e-05
5.68346e-05
4.94522e-05
4.9508e-05
5.64957e-05
6.9369e-05
8.70571e-05
0.00010731
0.000127601
0.000146418
0.000163204
0.000177946
0.000190778
0.000201404
0.000208812
0.000211284
0.000207045
0.000195492
0.00017761
0.000153335
0.000115547
5.33558e-05
9.13074e-05
0.00015664
0.000190889
0.000210461
0.000221658
0.000222809
0.000214281
0.000197766
0.00017286
0.000137458
9.26374e-05
4.68555e-05
1.26679e-05
5.59881e-07
2.9179e-06
7.42745e-06
4.17209e-06
8.04742e-06
5.66449e-06
4.72406e-06
1.03048e-05
3.77725e-05
7.6681e-05
0.000116927
0.000149847
0.000172279
0.000185901
0.000193132
0.000195158
0.000191716
0.000182222
0.000166727
0.000144023
0.000107003
4.69558e-05
8.59661e-05
0.000146543
0.000178347
0.000195101
0.000202248
0.000196594
0.000174027
0.000131413
7.30918e-05
2.14895e-05
1.51069e-05
1.12608e-06
7.16941e-06
4.75675e-06
1.08737e-06
9.84694e-06
1.69653e-05
1.88211e-05
1.48254e-05
6.72392e-06
6.36004e-06
5.68505e-06
3.94844e-06
4.44122e-06
2.07697e-05
6.02402e-05
0.000106343
0.000140018
0.00015791
0.00016382
0.000160918
0.000151143
0.000133913
0.000102198
4.75026e-05
8.95263e-05
0.000145407
0.000175724
0.00018807
0.000184517
0.000157745
0.000104243
4.04447e-05
1.39384e-05
2.62443e-06
2.43773e-06
1.93604e-06
2.94869e-05
5.7576e-05
7.89221e-05
9.1694e-05
9.75399e-05
9.77271e-05
9.25522e-05
8.1433e-05
6.33289e-05
3.93608e-05
1.39475e-05
6.69779e-06
1.59204e-07
4.45732e-06
2.29951e-05
6.82403e-05
0.000112418
0.000138963
0.000148443
0.000145276
0.000131183
0.000101706
5.15255e-05
9.49875e-05
0.00014048
0.000161013
0.000159911
0.00013548
8.43476e-05
2.5831e-05
1.61422e-06
7.32313e-06
1.8895e-07
2.28144e-05
5.72614e-05
8.49393e-05
0.000103569
0.000115211
0.000122094
0.000125378
0.00012555
0.00012264
0.000116269
0.000105506
8.87552e-05
6.43499e-05
3.28509e-05
3.00745e-06
5.58375e-06
9.73769e-06
1.05806e-06
3.51297e-05
7.97964e-05
0.000110484
0.000122845
0.000119452
9.77493e-05
5.52363e-05
0.000101077
0.000138542
0.00015058
0.000136604
9.40834e-05
3.39718e-05
1.92779e-05
8.94542e-06
1.11449e-05
2.62924e-05
6.40208e-05
9.56142e-05
0.000118398
0.000133832
0.000143759
0.0001495
0.000151913
0.000151491
0.000148394
0.000142487
0.000133311
0.000120041
0.000101317
7.52817e-05
4.17735e-05
8.1704e-06
7.38369e-06
1.20416e-06
5.00978e-06
3.1694e-05
7.21424e-05
9.98085e-05
0.000107778
9.40904e-05
6.04305e-05
0.000106081
0.000131251
0.000130522
0.000102019
4.94067e-05
1.62824e-05
1.22464e-05
7.68951e-06
3.32681e-05
7.64359e-05
0.000112037
0.000137365
0.000154295
0.000165097
0.000171533
0.000174804
0.00017566
0.000174508
0.000171466
0.000166402
0.000158893
0.000148205
0.000133267
0.000112552
8.42878e-05
4.83754e-05
1.23242e-05
4.10455e-06
6.89243e-06
1.07454e-05
3.36463e-05
6.81788e-05
8.7804e-05
8.57541e-05
6.49559e-05
0.000111611
0.000125929
0.00011548
7.80271e-05
2.45304e-05
1.03797e-07
6.47964e-06
2.31094e-05
6.86116e-05
0.000108982
0.000138691
0.000159272
0.000172935
0.000181432
0.000186206
0.000188262
0.000188246
0.000186528
0.000183223
0.000178219
0.00017112
0.000161229
0.000147546
0.000128727
0.00010326
7.05069e-05
3.28983e-05
2.18893e-06
6.19214e-06
8.82958e-06
1.7173e-05
5.05465e-05
7.44516e-05
7.89464e-05
6.67022e-05
0.0001193
0.000119895
9.88487e-05
5.44399e-05
6.92203e-06
1.64952e-05
2.04067e-05
6.70581e-05
0.000111736
0.000145581
0.000169572
0.000185822
0.000196304
0.000202318
0.000205247
0.000205967
0.000205053
0.000202857
0.000199506
0.000194924
0.000188748
0.000180271
0.000168484
0.000151974
0.000128977
9.79526e-05
5.95801e-05
2.13259e-05
2.20061e-06
4.85362e-07
1.98087e-06
3.25028e-05
5.95868e-05
6.93525e-05
6.31979e-05
0.000129768
0.000117459
8.86938e-05
4.16569e-05
1.75075e-06
8.12069e-06
4.60202e-05
9.06182e-05
0.000128269
0.000157367
0.000178738
0.000193683
0.000203509
0.000209214
0.000211868
0.000212288
0.000211082
0.000208649
0.000205178
0.000200661
0.000194824
0.000187085
0.00017647
0.000161591
0.000140773
0.000112215
7.54283e-05
3.42656e-05
2.78228e-06
7.73994e-07
9.01805e-06
2.54436e-05
4.98094e-05
6.04985e-05
5.66168e-05
0.000139761
0.000117841
8.42927e-05
3.93587e-05
1.06898e-05
2.77428e-05
6.78712e-05
0.000106982
0.000139969
0.00016692
0.000188126
0.000203819
0.000214402
0.000220598
0.000223478
0.000223937
0.000222688
0.00022024
0.000216897
0.000212781
0.000207767
0.000201434
0.00019299
0.000181153
0.000164161
0.000139896
0.000106491
6.47689e-05
2.38285e-05
5.82266e-06
6.63403e-06
1.96246e-05
4.11606e-05
5.21291e-05
4.99814e-05
0.000140152
0.000122155
9.19911e-05
5.33891e-05
2.86437e-05
3.9431e-05
6.79669e-05
9.67073e-05
0.00012365
0.000150814
0.000175945
0.000196386
0.000210959
0.000219981
0.000224635
0.000226083
0.000225293
0.000222976
0.000219603
0.00021546
0.000210614
0.000204876
0.000197734
0.000188235
0.000175018
0.000156124
0.000129274
9.31401e-05
5.04512e-05
1.40955e-05
1.89428e-06
1.0231e-05
3.07367e-05
4.38196e-05
4.54091e-05
0.000126112
0.000124342
0.00010579
7.72153e-05
5.38568e-05
5.2782e-05
6.6275e-05
8.32733e-05
0.000103548
0.000131307
0.000162184
0.000189655
0.000210059
0.000223085
0.00023016
0.00023291
0.000232716
0.000230591
0.000227221
0.000223077
0.000218402
0.000213211
0.000207223
0.000199751
0.000189726
0.000175594
0.00015507
0.000125761
8.73078e-05
4.54386e-05
1.51011e-05
9.72907e-06
2.43972e-05
3.82013e-05
4.31619e-05
0.000105939
0.000120013
0.000115528
9.93035e-05
8.1103e-05
7.10335e-05
6.93658e-05
7.08805e-05
7.98712e-05
0.000104894
0.000140838
0.000175779
0.000202546
0.000219866
0.000229395
0.000233311
0.000233495
0.000231303
0.000227627
0.000223065
0.000217987
0.000212555
0.000206698
0.000199992
0.000191686
0.000180553
0.000164754
0.000141876
0.000110467
7.29998e-05
3.89695e-05
2.25818e-05
2.76501e-05
3.82528e-05
4.35488e-05
9.05418e-05
0.000113113
0.000118832
0.00011269
0.000101073
8.80859e-05
7.4412e-05
6.19501e-05
6.61738e-05
9.5911e-05
0.00013888
0.000179051
0.000208575
0.000226847
0.000236286
0.000239595
0.000238991
0.00023602
0.000231654
0.000226524
0.000221016
0.000215334
0.000209497
0.000203231
0.000195999
0.0001868
0.00017396
0.000155339
0.000128957
9.58931e-05
6.25051e-05
4.03545e-05
3.7252e-05
4.29395e-05
4.61572e-05
8.33265e-05
0.000109538
0.000121044
0.000120378
0.00011109
9.11461e-05
6.29046e-05
4.6251e-05
6.17852e-05
0.00010459
0.000153103
0.000192467
0.000218747
0.000233611
0.000240184
0.000241285
0.000239043
0.000234869
0.000229596
0.000223737
0.000217592
0.000211337
0.000205037
0.000198545
0.000191519
0.000183219
0.000172231
0.000156638
0.000134804
0.000107356
7.77399e-05
5.526e-05
4.81631e-05
4.97352e-05
5.02382e-05
8.24715e-05
0.000108905
0.00012102
0.000118267
0.000101334
6.75527e-05
3.82479e-05
4.4009e-05
8.48295e-05
0.000138654
0.00018504
0.000217084
0.000235927
0.000244981
0.000247413
0.000245709
0.0002416
0.000236166
0.000230008
0.000223476
0.000216762
0.00020999
0.000203244
0.000196452
0.000189391
0.000181491
0.000171526
0.000157813
0.000139135
0.000115493
8.88913e-05
6.72714e-05
5.83143e-05
5.67779e-05
5.46447e-05
8.45548e-05
0.000105315
0.000111018
9.81713e-05
6.84152e-05
3.53594e-05
3.51781e-05
7.39716e-05
0.00012964
0.000179773
0.000215032
0.000236069
0.000246501
0.000249872
0.000248639
0.000244638
0.000239084
0.000232707
0.000225867
0.000218742
0.00021141
0.000203951
0.000196477
0.000189021
0.00018152
0.000173702
0.000164733
0.000153433
0.000138853
0.000119197
9.59806e-05
7.63064e-05
6.67926e-05
6.29487e-05
5.83808e-05
8.72559e-05
9.60482e-05
9.05336e-05
6.76462e-05
3.89143e-05
3.56091e-05
7.2239e-05
0.000127326
0.000179281
0.000216624
0.000239195
0.000250619
0.000254738
0.000254168
0.000250516
0.000245039
0.000238554
0.000231557
0.000224234
0.00021663
0.000208738
0.000200616
0.000192402
0.000184197
0.000176044
0.000167949
0.000159554
0.00015043
0.000138806
0.000122083
0.000101722
8.37688e-05
7.37299e-05
6.78127e-05
6.08418e-05
8.99694e-05
8.68156e-05
7.26461e-05
5.08626e-05
4.3751e-05
7.40629e-05
0.000126388
0.000177076
0.000215545
0.000239512
0.000251997
0.000256911
0.00025693
0.000253854
0.000248766
0.000242421
0.000235402
0.000228042
0.000220375
0.000212335
0.000203853
0.000194992
0.00018594
0.00017693
0.000168212
0.000160205
0.000153115
0.000146903
0.000138057
0.000124062
0.000106358
9.00771e-05
7.93085e-05
7.13224e-05
6.20652e-05
9.31656e-05
8.56299e-05
7.15473e-05
6.19299e-05
8.00185e-05
0.000126088
0.0001752
0.000213655
0.00023935
0.000253656
0.000259992
0.000261018
0.000258695
0.000254315
0.000248582
0.000241885
0.000234673
0.000227173
0.000219322
0.000210977
0.000202021
0.000192488
0.000182568
0.000172577
0.000162965
0.000154636
0.000148508
0.000144289
0.000137548
0.000125887
0.000110438
9.54657e-05
8.39462e-05
7.40002e-05
6.27159e-05
9.69192e-05
9.38692e-05
8.72046e-05
9.15751e-05
0.000123846
0.00017013
0.000209096
0.00023524
0.000251608
0.000259788
0.00026224
0.00026102
0.000257537
0.000252661
0.0002468
0.000240103
0.000232945
0.000225483
0.000217586
0.000209071
0.000199796
0.000189779
0.000179218
0.000168492
0.00015821
0.00014966
0.000144414
0.000141701
0.00013682
0.000127295
0.000113812
9.99143e-05
8.78553e-05
7.62924e-05
6.33245e-05
0.000101121
0.00010755
0.000110395
0.00012455
0.000161204
0.000202145
0.000231536
0.000248741
0.000258654
0.000262791
0.000263019
0.000260796
0.000257028
0.000252249
0.000246657
0.000240241
0.000233341
0.000226065
0.000218233
0.000209674
0.000200204
0.000189789
0.000178592
0.000167012
0.000155785
0.000146443
0.00014105
0.000139129
0.00013577
0.000128175
0.000116445
0.000103504
9.11942e-05
7.84408e-05
6.4084e-05
0.000105415
0.000122166
0.000133215
0.000152776
0.000188949
0.00022394
0.00024613
0.000256326
0.000260598
0.000261693
0.000260621
0.000258145
0.000254669
0.000250407
0.0002454
0.000239541
0.000233147
0.000226241
0.000218614
0.000210189
0.000200785
0.000190299
0.000178825
0.000166717
0.000154715
0.000144424
0.000138185
0.000136497
0.000134286
0.000128377
0.000118241
0.000106231
9.396e-05
8.04378e-05
6.49601e-05
0.000109264
0.00013489
0.000152291
0.000174881
0.000208927
0.000239174
0.000256245
0.000261425
0.000260984
0.000259706
0.000257882
0.000255573
0.000252713
0.000249217
0.000244977
0.000239815
0.000234024
0.000227599
0.000220346
0.000212111
0.000202851
0.00019239
0.000180746
0.000168202
0.000155442
0.000144013
0.00013627
0.000134096
0.000132534
0.000128003
0.000119304
0.000108209
9.61957e-05
8.22585e-05
6.58415e-05
0.000112033
0.000144483
0.000167217
0.00019178
0.000223188
0.000249785
0.000263317
0.000264838
0.000260242
0.000256081
0.00025336
0.000251273
0.000249188
0.000246665
0.000243403
0.000239105
0.000234039
0.000228245
0.000221548
0.000213767
0.000204803
0.000194601
0.000183066
0.000170383
0.000157136
0.000144758
0.000135495
0.000132171
0.000130813
0.000127341
0.000119898
0.000109655
9.80135e-05
8.38994e-05
6.6632e-05
0.000113676
0.000151121
0.000178711
0.000204692
0.000233328
0.000257191
0.000268491
0.000267774
0.000260314
0.000252999
0.000249142
0.000247131
0.000245762
0.000244246
0.000242039
0.000238701
0.000234418
0.000229301
0.000223193
0.000215921
0.000207315
0.000197429
0.000186103
0.000173417
0.00015983
0.000146635
0.000135962
0.000130883
0.000129379
0.00012669
0.000120326
0.000110843
9.96077e-05
8.54589e-05
6.7326e-05
0.00011438
0.000155472
0.000187367
0.000214406
0.000240625
0.000262413
0.000272408
0.000270477
0.000261013
0.000250447
0.000244441
0.000241924
0.000241016
0.000240479
0.000239434
0.000237205
0.000233825
0.000229504
0.000224093
0.000217458
0.000209402
0.000199894
0.000188938
0.000176473
0.000162814
0.000149079
0.000137233
0.000130293
0.000128445
0.000126333
0.000120888
0.000112063
0.000101212
8.70794e-05
6.80014e-05
0.000114305
0.000158162
0.000193715
0.00022159
0.00024619
0.000266134
0.000275414
0.000272999
0.000262371
0.000249339
0.000240387
0.000236917
0.000236225
0.00023658
0.000236721
0.000235681
0.000233274
0.000229776
0.000225056
0.000219029
0.000211517
0.000202411
0.000191852
0.000179689
0.000166109
0.000152054
0.000139268
0.000130526
0.000128098
0.000126376
0.000121746
0.000113518
0.000103039
8.89508e-05
6.88229e-05
0.00011353
0.000159529
0.000198055
0.000226742
0.00025039
0.000268969
0.000277806
0.000275281
0.000263967
0.000248932
0.000236593
0.000231423
0.000230495
0.000231576
0.000232915
0.000233157
0.000231824
0.000229221
0.000225239
0.000219854
0.000212921
0.00020429
0.000194144
0.000182373
0.000169058
0.000154983
0.000141682
0.000131643
0.000128379
0.0001269
0.000123023
0.00011537
0.000105254
9.12165e-05
6.99643e-05
0.000112258
0.000159924
0.000200762
0.000230313
0.000253497
0.000271229
0.000279488
0.000276933
0.000265181
0.000248606
0.000233384
0.000225961
0.000224625
0.000226438
0.000229032
0.000230613
0.000230421
0.000228696
0.000225416
0.000220607
0.000214182
0.000205997
0.000196161
0.000184746
0.000171734
0.00015779
0.000144256
0.00013346
0.00012916
0.000127842
0.00012471
0.000117673
0.000107947
9.39933e-05
7.16384e-05
0.000110709
0.000159643
0.000202222
0.000232659
0.000255652
0.000272734
0.0002804
0.000277705
0.000265457
0.000247543
0.000230042
0.000220089
0.000218271
0.000220799
0.000224643
0.000227532
0.000228466
0.000227591
0.000224969
0.000220672
0.000214676
0.000206863
0.000197327
0.000186259
0.000173606
0.000159969
0.000146508
0.000135376
0.000130352
0.000129219
0.000126824
0.000120454
0.000111151
9.73355e-05
7.40478e-05
0.000109148
0.000158994
0.000202834
0.000234074
0.000256966
0.000273468
0.000280576
0.000277176
0.000264072
0.000244842
0.000225597
0.000213763
0.000211885
0.00021539
0.00022059
0.000224772
0.00022677
0.000226673
0.000224605
0.000220703
0.000215001
0.000207417
0.000198049
0.000187197
0.000174825
0.000161536
0.000148343
0.000137214
0.000131899
0.000131024
0.000129349
0.000123698
0.000114866
0.000101275
7.73709e-05
0.000107755
0.000158174
0.000202856
0.000234684
0.000257373
0.000273159
0.000279449
0.000274824
0.000260495
0.000239999
0.00021963
0.000206954
0.000205638
0.000210384
0.000216931
0.000222238
0.000225091
0.000225593
0.000223913
0.000220252
0.000214697
0.000207202
0.000197899
0.000187164
0.000175014
0.000162131
0.000149437
0.000138739
0.00013375
0.000133317
0.000132337
0.000127405
0.000119065
0.000105789
8.16908e-05
0.000106644
0.000157316
0.000202441
0.000234499
0.000256703
0.000271451
0.000276444
0.000270102
0.00025423
0.000232661
0.000212026
0.000199935
0.000200043
0.000206379
0.000214256
0.000220485
0.000223952
0.000224847
0.000223364
0.000219769
0.000214191
0.000206607
0.000197213
0.000186436
0.000174379
0.00016186
0.000149792
0.000139885
0.000135836
0.000136097
0.000135807
0.000131548
0.000123692
0.000110818
8.69993e-05
0.000105845
0.000156446
0.000201592
0.000233401
0.000254698
0.000267988
0.000271155
0.000262691
0.000245185
0.000223055
0.000203278
0.000193315
0.000195641
0.000203722
0.000212705
0.000219495
0.000223218
0.000224216
0.000222686
0.000218955
0.000213167
0.000205321
0.000195703
0.000184754
0.000172715
0.000160562
0.000149289
0.000140601
0.000138132
0.000139404
0.000139826
0.000136146
0.00012871
0.000116278
9.31468e-05
0.000105353
0.000155547
0.000200246
0.000231219
0.000251104
0.000262481
0.000263338
0.000252564
0.000233715
0.000211946
0.000194339
0.000187901
0.000192962
0.000202692
0.000212411
0.000219361
0.000223013
0.000223845
0.000222054
0.000218004
0.000211836
0.000203563
0.000193594
0.000182334
0.000170233
0.000158424
0.000148077
0.000141051
0.000140639
0.000143195
0.00014438
0.000141195
0.000134088
0.000122076
9.98537e-05
0.000105096
0.000154546
0.00019828
0.000227791
0.00024578
0.00025487
0.000253133
0.000240267
0.000220884
0.000200741
0.000186545
0.00018449
0.000192285
0.000203236
0.000213159
0.000219847
0.00022314
0.00022352
0.000221257
0.000216717
0.000210008
0.000201166
0.000190745
0.000179093
0.000166898
0.000155472
0.000146247
0.000141489
0.000143396
0.000147423
0.000149437
0.000146711
0.000139897
0.000128086
0.000106717
0.000105005
0.000153394
0.000195646
0.000223115
0.000238847
0.000245449
0.000241151
0.000226922
0.00020824
0.000191008
0.000181065
0.000183479
0.000193484
0.000205039
0.000214663
0.000220735
0.000223435
0.000223185
0.000220319
0.000215167
0.000207797
0.000198292
0.000187344
0.000175249
0.000162953
0.000151966
0.000144046
0.000142073
0.000146344
0.000151938
0.000154846
0.000152693
0.000146083
0.000134057
0.0001133
0.000104953
0.000152048
0.000192391
0.000217421
0.00023077
0.000234963
0.000228567
0.000214144
0.000197454
0.000183967
0.000178537
0.000184692
0.00019606
0.00020759
0.000216518
0.000221738
0.000223685
0.000222694
0.000219132
0.000213277
0.000205156
0.000194949
0.00018343
0.000170887
0.000158538
0.000148116
0.000141755
0.000142818
0.000149451
0.000156627
0.000160434
0.000158955
0.000152322
0.000139714
0.00011922
0.000104821
0.000150537
0.000188728
0.000211192
0.000222311
0.000224482
0.000216846
0.000203483
0.000189643
0.000179989
0.000178829
0.00018749
0.000199388
0.000210423
0.000218424
0.000222697
0.000223819
0.000222042
0.000217745
0.000211138
0.00020222
0.000191333
0.000179223
0.000166273
0.000153956
0.000144248
0.000139757
0.000143786
0.00015261
0.000161315
0.000166077
0.000165192
0.000158387
0.000144919
0.000124271
0.000104502
0.000148946
0.000184987
0.000205062
0.000214357
0.000215168
0.000207398
0.000195972
0.000185132
0.000178722
0.000181044
0.000191093
0.00020292
0.000213184
0.000220162
0.00022352
0.000223769
0.000221197
0.000216155
0.000208778
0.000199052
0.000187518
0.000174859
0.000161597
0.000149442
0.000140625
0.000138419
0.000145029
0.000155728
0.000165818
0.000171687
0.000171132
0.000164044
0.000149587
0.000128417
0.000103947
0.000147424
0.00018156
0.000199665
0.000207682
0.000207886
0.000201013
0.000191718
0.000183407
0.000179366
0.00018418
0.000194876
0.000206304
0.000215689
0.000221643
0.000224121
0.000223528
0.0002202
0.000214436
0.000206297
0.000195795
0.000183666
0.000170529
0.000157081
0.000145227
0.000137439
0.000137707
0.000146413
0.000158651
0.000169906
0.000176826
0.000176501
0.000169096
0.000153578
0.000131765
0.00010316
0.000146134
0.000178802
0.000195502
0.000202821
0.000203065
0.000197582
0.000190174
0.00018364
0.000181216
0.000187692
0.000198566
0.000209427
0.000217904
0.00022287
0.00022451
0.000223128
0.000219089
0.000212629
0.000203753
0.000192534
0.000179875
0.000166343
0.000152857
0.000141468
0.000134852
0.000137493
0.000147913
0.000161391
0.000173613
0.000181404
0.000181209
0.000173472
0.000156903
0.00013449
0.000102214
0.000145228
0.000176964
0.000192837
0.000199948
0.000200649
0.000196554
0.000190459
0.000184965
0.000183756
0.000191245
0.000202016
0.000212223
0.000219799
0.000223839
0.000224695
0.000222584
0.000217883
0.000210764
0.000201191
0.000189332
0.000176191
0.000162349
0.000148946
0.000138185
0.000132928
0.000137712
0.000149489
0.000163936
0.000177092
0.000185397
0.00018522
0.00017715
0.000159615
0.000136737
0.000101263
0.000144842
0.000176159
0.000191691
0.000198938
0.000200257
0.000197225
0.000191811
0.000186841
0.000186767
0.000194782
0.000205275
0.000214758
0.000221439
0.000224616
0.000224726
0.000221933
0.000216611
0.000208869
0.000198637
0.000186209
0.000172612
0.000158522
0.000145298
0.000135327
0.000131708
0.000138341
0.00015117
0.000166313
0.000180227
0.000188777
0.000188531
0.000180128
0.000161745
0.000138542
0.000100476
0.000145062
0.000176383
0.000191915
0.000199481
0.000201426
0.000198961
0.000193728
0.00018901
0.000189978
0.000198249
0.000208316
0.000216986
0.000222769
0.000225173
0.00022456
0.000221146
0.000215261
0.000206941
0.000196096
0.000183135
0.000169106
0.000154793
0.00014179
0.000132707
0.000130985
0.000139189
0.000152887
0.000168524
0.000182961
0.000191552
0.000191157
0.000182408
0.000163281
0.000139836
0.00010004
0.000145944
0.000177562
0.000193283
0.000201204
0.00020366
0.000201347
0.000196057
0.000191534
0.0001934
0.000201701
0.000211152
0.000218921
0.000223816
0.000225497
0.000224243
0.000220279
0.000213885
0.000205032
0.000193615
0.000180146
0.000165683
0.000151133
0.000138335
0.000130157
0.000130385
0.00014005
0.000154559
0.000170571
0.000185313
0.000193752
0.000193111
0.000183976
0.00016418
0.000140502
0.000100079
0.000147493
0.000179594
0.000195599
0.000203843
0.000206631
0.000204288
0.000198895
0.000194534
0.000196995
0.000205
0.000213619
0.000220458
0.000224526
0.000225574
0.000223776
0.000219346
0.000212513
0.000203189
0.000191257
0.000177306
0.000162397
0.000147557
0.000134877
0.000127512
0.000129566
0.000140634
0.000155966
0.000172315
0.000187224
0.000195365
0.000194387
0.00018482
0.000164399
0.000140441
0.00010065
0.000149676
0.000182389
0.000198738
0.00020728
0.000210293
0.000207893
0.000202419
0.000198086
0.000200662
0.000207984
0.000215651
0.000221586
0.000224933
0.000225468
0.000223238
0.000218436
0.000211244
0.000201529
0.000189157
0.000174763
0.0001594
0.0001442
0.000131481
0.000124709
0.000128295
0.000140641
0.000156828
0.000173585
0.00018856
0.000196321
0.000194952
0.000184925
0.000163927
0.000139658
0.000101689
0.000152405
0.000185871
0.000202648
0.000211524
0.000214761
0.000212345
0.000206725
0.000202065
0.000204093
0.000210434
0.00021709
0.000222223
0.000225017
0.000225189
0.000222665
0.000217608
0.000210164
0.000200164
0.000187456
0.000172682
0.000156883
0.000141254
0.000128287
0.000121754
0.000126377
0.000139754
0.000156799
0.000174115
0.000189111
0.000196504
0.000194763
0.000184306
0.000162832
0.000138315
0.00010307
0.000155564
0.000189968
0.000207295
0.000216586
0.000220089
0.000217666
0.000211676
0.000206238
0.000207139
0.000212251
0.000217933
0.000222437
0.000224868
0.000224836
0.000222156
0.000216964
0.000209383
0.000199219
0.0001863
0.000171237
0.000155053
0.000138952
0.000125517
0.000118776
0.000123761
0.000137759
0.000155545
0.000173478
0.000188611
0.00019578
0.000193784
0.000183016
0.000161253
0.000136677
0.000104627
0.000159026
0.000194614
0.00021264
0.000222451
0.000226255
0.000223744
0.000217137
0.000210452
0.000209611
0.000213346
0.000218165
0.000222238
0.000224499
0.000224419
0.000221727
0.000216525
0.000208931
0.000198737
0.000185747
0.000170512
0.000154035
0.000137468
0.000123386
0.000115977
0.00012055
0.000134623
0.000152898
0.000171427
0.000186869
0.000194057
0.000192013
0.000181143
0.000159357
0.000135023
0.000106213
0.000162683
0.000199732
0.000218605
0.000229007
0.000233115
0.000230435
0.000222878
0.000214472
0.000211446
0.000213783
0.0002179
0.000221733
0.00022399
0.000223993
0.000221411
0.000216305
0.000208803
0.000198699
0.000185771
0.00017049
0.000153844
0.000136888
0.000122079
0.00011363
0.000117039
0.000130547
0.000148907
0.000167906
0.000183824
0.000191324
0.000189496
0.0001788
0.000157314
0.000133578
0.00010774
0.000166456
0.00020524
0.000225085
0.00023613
0.000240493
0.000237448
0.000228622
0.00021817
0.000212702
0.000213689
0.000217247
0.000220984
0.000223361
0.000223549
0.000221174
0.000216251
0.000208928
0.000199009
0.00018625
0.000171032
0.000154338
0.000137116
0.000121628
0.000111973
0.000113685
0.000126026
0.000143943
0.000163114
0.000179574
0.000187649
0.000186306
0.000176074
0.000155219
0.000132429
0.00010922
0.000170309
0.000211041
0.000231934
0.000243589
0.000248061
0.000244445
0.000234134
0.000221502
0.000213528
0.000213261
0.000216374
0.000220106
0.000222673
0.000223106
0.000221
0.000216316
0.000209226
0.000199555
0.000187038
0.000171959
0.000155309
0.000137937
0.000121892
0.000111065
0.00011086
0.000121651
0.000138626
0.000157551
0.000174433
0.000183219
0.000182562
0.000173046
0.000153113
0.000131546
0.000110723
0.000174232
0.000217026
0.000238984
0.000251171
0.000255591
0.000251215
0.000239312
0.000224536
0.000214143
0.000212708
0.000215426
0.000219173
0.000221947
0.000222644
0.000220838
0.00021642
0.000209592
0.0002002
0.000187964
0.000173069
0.000156519
0.000139087
0.000122623
0.000110782
0.000108705
0.000117821
0.000133524
0.000151805
0.000168848
0.000178327
0.000178443
0.000169801
0.000150992
0.000130808
0.000112358
0.000178246
0.0002231
0.000246077
0.000258694
0.000262963
0.000257595
0.000244084
0.000227339
0.000214743
0.000212202
0.000214519
0.000218254
0.000221209
0.000222166
0.000220661
0.000216518
0.000209957
0.000200849
0.000188901
0.000174202
0.000157761
0.000140308
0.00012353
0.000110873
0.000107162
0.000114704
0.000129004
0.000146357
0.000163219
0.000173249
0.000174121
0.000166408
0.000148815
0.000130031
0.000114237
0.000182389
0.000229206
0.0002531
0.000266009
0.000270011
0.000263516
0.000248501
0.000230075
0.000215588
0.000211913
0.000213757
0.000217402
0.000220483
0.000221675
0.000220462
0.000216591
0.000210291
0.000201463
0.000189803
0.000175298
0.000158948
0.000141466
0.000124416
0.000111093
0.000106023
0.000112266
0.000125253
0.000141543
0.000157883
0.000168234
0.000169748
0.000162921
0.000146526
0.000129031
0.00011639
0.000186669
0.000235303
0.000259997
0.000273068
0.000276694
0.000269066
0.000252721
0.000232909
0.000216853
0.00021187
0.000213116
0.000216575
0.000219727
0.00022114
0.000220213
0.00021662
0.000210582
0.000202031
0.000190661
0.000176366
0.000160076
0.000142541
0.000125217
0.000111293
0.000105053
0.000110222
0.000122137
0.000137411
0.000153044
0.000163476
0.000165464
0.000159402
0.000144102
0.000127726
0.000118789
0.000191076
0.000241367
0.000266761
0.000279908
0.000283111
0.000274425
0.000256953
0.000235995
0.000218596
0.00021207
0.000212575
0.000215755
0.000218936
0.000220568
0.000219924
0.000216621
0.000210849
0.000202574
0.000191497
0.000177442
0.000161192
0.000143591
0.000125978
0.000111462
0.000104145
0.000108339
0.000119394
0.000133818
0.000148712
0.000159057
0.000161354
0.000155908
0.000141568
0.000126142
0.000121323
0.00019552
0.000247362
0.000273417
0.000286619
0.000289445
0.00027984
0.000261441
0.000239463
0.000220722
0.000212422
0.00021203
0.000214852
0.000218045
0.000219907
0.000219576
0.000216594
0.000211108
0.000203126
0.000192358
0.000178564
0.000162386
0.000144712
0.000126793
0.000111639
0.000103249
0.000106409
0.000116742
0.000130512
0.000144755
0.000154949
0.000157446
0.000152492
0.000138983
0.000124372
0.000123845
0.000199877
0.000253248
0.000279992
0.000293303
0.00029587
0.000285525
0.000266353
0.000243373
0.000223166
0.000212852
0.000211412
0.000213821
0.000217034
0.000219161
0.000219177
0.000216553
0.000211381
0.000203714
0.000193279
0.000179785
0.00016373
0.000146028
0.000127824
0.000111994
0.00010249
0.000104381
0.000113994
0.000127256
0.000140986
0.000151059
0.000153718
0.000149181
0.000136414
0.000122542