/*--------------------------------*- C++ -*----------------------------------*\
| =========                 |                                                 |
| \\      /  F ield         | OpenFOAM: The Open Source CFD Toolbox           |
|  \\    /   O peration     | Version:  v2006                                 |
|   \\  /    A nd           | Website:  www.openfoam.com                      |
|    \\/     M anipulation  |                                                 |
\*---------------------------------------------------------------------------*/
FoamFile
{
    version     2.0;
    format      ascii;
    class       volScalarField;
    location    "8";
    object      omega;
}
// * * * * * * * * * * * * * * * * * * * * * * * * * * * * * * * * * * * * * //

dimensions      [0 0 -1 0 0 0 0];


internalField   nonuniform List<scalar> 
78750
(
369.24
14.1498
15.7698
15.3878
15.3304
15.2466
15.1796
15.1228
15.074
15.0311
14.9929
14.9584
14.9273
14.8992
14.8736
14.8502
14.8286
14.8083
14.789
14.77
14.7508
14.7309
14.7085
14.6829
14.6527
14.6164
14.5715
14.5149
14.4423
14.3482
14.2268
14.0727
13.8908
13.7429
356.961
531.189
6.70936
7.10507
7.07196
6.90209
6.72141
6.57571
6.4642
6.37932
6.31291
6.25992
6.21842
6.18679
6.16325
6.14617
6.13484
6.12914
6.1287
6.13339
6.14152
6.1522
6.16408
6.17575
6.18674
6.19359
6.19237
6.17958
6.15064
6.09785
6.00754
5.85705
5.61629
5.27256
4.86928
523.849
531.505
5.67314
5.83748
5.79123
5.69702
5.62633
5.57933
5.54743
5.52467
5.50593
5.49086
5.47905
5.47146
5.46972
5.47444
5.4855
5.50252
5.52495
5.55238
5.58328
5.61653
5.65106
5.68564
5.71936
5.75105
5.77809
5.7971
5.80335
5.78932
5.7429
5.64557
5.47558
5.22586
4.90285
524.898
531.528
5.54
5.78694
5.91665
5.9705
5.98931
5.98717
5.96583
5.92735
5.87811
5.82345
5.7668
5.71441
5.67238
5.6429
5.62632
5.62221
5.62952
5.64682
5.67239
5.70495
5.74286
5.784
5.82599
5.86571
5.89945
5.9226
5.92919
5.91092
5.85583
5.748
5.57385
5.34085
5.03443
524.92
531.591
5.44547
5.65442
5.79961
5.88606
5.90908
5.87633
5.80067
5.69801
5.58551
5.47958
5.39443
5.33804
5.30446
5.28929
5.29083
5.3066
5.33424
5.37172
5.41735
5.46953
5.5264
5.58542
5.64564
5.70535
5.7586
5.79838
5.81709
5.8053
5.7519
5.64643
5.48549
5.27739
5.00063
525.661
531.512
5.41572
5.62742
5.77104
5.84857
5.84903
5.79106
5.698
5.58908
5.47862
5.37795
5.29674
5.23689
5.1934
5.16483
5.15192
5.15423
5.17071
5.1999
5.24019
5.28966
5.34881
5.418
5.49285
5.56861
5.63984
5.69931
5.73795
5.74461
5.70708
5.61599
5.47275
5.28936
5.02956
525.789
531.457
5.35946
5.55682
5.68508
5.76322
5.77301
5.7204
5.62284
5.49987
5.36856
5.241
5.12815
5.03833
4.97687
4.9414
4.93067
4.94405
4.97806
5.02803
5.08906
5.157
5.23026
5.30923
5.39088
5.47004
5.54258
5.60318
5.64305
5.65114
5.6168
5.53435
5.40789
5.24045
4.98971
526.27
531.362
5.30288
5.4937
5.60603
5.66677
5.65571
5.5791
5.46019
5.32197
5.18064
5.03959
4.89596
4.74987
4.61194
4.50621
4.45116
4.45109
4.50249
4.59595
4.72163
4.86158
4.99785
5.12101
5.22857
5.32139
5.40103
5.46628
5.51162
5.52743
5.50351
5.43575
5.32866
5.17979
4.93941
526.57
531.266
5.22512
5.42786
5.53924
5.60033
5.60301
5.54963
5.44846
5.29376
5.06662
4.76395
4.43415
4.17141
4.07954
4.10702
4.07364
4.11616
4.07181
4.1262
4.11257
4.14951
4.364
4.64994
4.928
5.14423
5.28657
5.37173
5.41726
5.43125
5.4123
5.35649
5.2631
5.12279
4.88516
527.038
531.227
5.16186
5.35251
5.44873
5.4866
5.44797
5.30565
5.03038
4.63014
4.24508
4.07071
4.0963
4.14737
4.11905
4.07672
4.14734
4.20339
4.21704
4.18546
4.12007
4.12674
4.12599
4.1121
4.11146
4.23846
4.53813
4.86309
5.0865
5.20181
5.24057
5.22451
5.16536
5.0581
4.85348
527.259
531.254
5.15528
5.33683
5.40621
5.37864
5.20608
4.84953
4.38517
4.20046
4.11456
4.11265
4.08472
4.30096
4.50981
4.66184
4.75038
4.79014
4.79094
4.75475
4.67661
4.54714
4.37
4.17439
4.13433
4.08325
4.11824
4.25672
4.59731
4.90588
5.08271
5.14594
5.12852
5.04121
4.85141
527.58
531.296
5.12392
5.24491
5.23062
5.06679
4.71456
4.28091
4.10212
4.1633
4.08149
4.251
4.50849
4.70584
4.83432
4.91301
4.95897
4.98069
4.98169
4.96215
4.91925
4.84599
4.72994
4.55611
4.3227
4.0901
4.13747
4.08094
4.08452
4.35312
4.68249
4.8968
4.98278
4.96476
4.82555
527.799
531.343
5.11173
5.17865
5.08054
4.78857
4.35192
4.07442
4.17502
4.17748
4.27523
4.55738
4.77991
4.93415
5.03596
5.10036
5.13722
5.1526
5.14985
5.12994
5.09175
5.03185
4.9439
4.81701
4.63495
4.3902
4.13092
4.15159
4.09934
4.1252
4.32823
4.6289
4.82635
4.88602
4.80076
527.993
531.381
5.06427
5.04825
4.84849
4.46192
4.22005
4.2041
4.14469
4.33049
4.64631
4.89178
5.0593
5.16837
5.23685
5.27729
5.29778
5.30318
5.29608
5.27713
5.24539
5.19791
5.12952
5.03235
4.89438
4.69975
4.44072
4.16588
4.11976
4.15045
4.17131
4.34153
4.60438
4.74925
4.7432
528.072
531.424
5.02978
4.94861
4.68196
4.28007
4.09153
4.14372
4.25206
4.58957
4.87022
5.06718
5.19948
5.28559
5.33854
5.36814
5.38092
5.38097
5.37057
5.35036
5.31954
5.27545
5.21333
5.12608
5.00355
4.83277
4.604
4.32727
4.08889
4.14264
4.16042
4.2123
4.47471
4.65468
4.6953
528.155
531.482
4.99028
4.83636
4.51279
4.14344
4.07954
4.23201
4.57636
4.88643
5.10979
5.26291
5.36442
5.42909
5.46599
5.48404
5.48868
5.48345
5.47043
5.4504
5.4228
5.38533
5.33342
5.26034
5.15616
5.00738
4.79925
4.52849
4.2422
4.09949
4.0941
4.09713
4.33969
4.54797
4.62738
528.191
531.559
4.97485
4.76813
4.42068
4.10092
4.1392
4.42105
4.73852
4.9932
5.18282
5.31853
5.41178
5.4724
5.50747
5.52391
5.52682
5.51992
5.50561
5.485
5.45802
5.42295
5.37612
5.3112
5.21883
5.08672
4.89954
4.64692
4.34604
4.10063
4.09594
4.16365
4.28442
4.47714
4.56471
528.228
531.629
4.97839
4.74044
4.40607
4.16894
4.28416
4.57376
4.84534
5.06566
5.24039
5.37466
5.4722
5.5372
5.57511
5.59289
5.5961
5.58907
5.57483
5.55521
5.53091
5.50119
5.4635
5.41291
5.34124
5.23664
5.08347
4.86428
4.57459
4.2691
4.13383
4.14127
4.24045
4.4128
4.50422
528.18
531.627
5.00753
4.79758
4.51541
4.31358
4.37613
4.57528
4.77436
4.95661
5.1362
5.29811
5.42661
5.51654
5.57162
5.59999
5.60905
5.60471
5.59125
5.57144
5.547
5.51829
5.48419
5.44155
5.38442
5.304
5.18688
5.01562
4.77497
4.4727
4.19647
4.10244
4.1678
4.33435
4.44356
528.123
531.524
5.0216
4.89304
4.68998
4.5099
4.48456
4.56998
4.68465
4.82324
5.01095
5.21323
5.387
5.51242
5.59097
5.63317
5.64954
5.6485
5.63609
5.61632
5.59193
5.56435
5.53365
5.49815
5.45363
5.39343
5.30745
5.18006
4.99231
4.73434
4.4357
4.20582
4.16593
4.28726
4.40255
528.026
531.38
4.99367
4.95791
4.84289
4.70844
4.62451
4.6008
4.60372
4.66592
4.84205
5.08366
5.30688
5.4711
5.57443
5.63024
5.65279
5.65354
5.64048
5.61876
5.59183
5.5618
5.5296
5.49478
5.45471
5.40476
5.33709
5.23956
5.09502
4.88959
4.63288
4.38728
4.26681
4.31302
4.40366
527.98
531.271
4.95004
4.98051
4.93317
4.84719
4.74681
4.63798
4.5416
4.57583
4.79142
5.08067
5.33409
5.51176
5.61822
5.6719
5.69002
5.68574
5.66795
5.64215
5.6119
5.5794
5.54579
5.51116
5.4738
5.43042
5.37471
5.29591
5.17946
5.01007
4.78999
4.55791
4.40043
4.3854
4.43882
528.004
531.221
4.92827
4.99599
4.98343
4.91162
4.76117
4.54923
4.4304
4.55604
4.86213
5.17986
5.42099
5.5747
5.65894
5.69495
5.69986
5.68592
5.66106
5.62991
5.59533
5.55899
5.52189
5.48437
5.44548
5.40309
5.35253
5.28478
5.18713
5.04751
4.86706
4.66561
4.51009
4.46675
4.48955
528.162
531.217
4.92343
4.99281
4.96302
4.83485
4.58478
4.37196
4.43058
4.73416
5.09469
5.38127
5.56853
5.67461
5.72392
5.73588
5.72476
5.70023
5.66822
5.63203
5.59358
5.55392
5.51374
5.47352
5.43276
5.39005
5.34177
5.28017
5.19433
5.07563
4.92167
4.74378
4.59763
4.54194
4.54189
528.422
531.234
4.8963
4.92032
4.81894
4.59746
4.35518
4.36999
4.66379
5.0415
5.35298
5.55912
5.67727
5.73385
5.7508
5.74217
5.71817
5.68545
5.64801
5.60779
5.56575
5.52227
5.4778
5.43297
5.38792
5.3422
5.29409
5.23836
5.16756
5.07505
4.94771
4.7944
4.66399
4.60493
4.58799
528.777
531.255
4.83108
4.77789
4.60475
4.39151
4.37924
4.65612
5.02972
5.35244
5.57031
5.69666
5.75839
5.77929
5.77432
5.75234
5.72017
5.68226
5.64132
5.59832
5.55344
5.5066
5.45809
5.40865
5.35883
5.30886
5.25882
5.20661
5.1498
5.07634
4.96885
4.83615
4.71909
4.65667
4.62473
529.169
531.276
4.76883
4.65678
4.49361
4.44587
4.67174
5.02517
5.34025
5.56516
5.69953
5.76724
5.79257
5.79085
5.77209
5.74221
5.70519
5.66423
5.62114
5.57604
5.52848
5.47799
5.42484
5.37008
5.31506
5.2613
5.21157
5.16751
5.12918
5.07367
4.98458
4.87064
4.76589
4.69861
4.65201
529.563
531.301
4.76377
4.6559
4.58432
4.71441
5.02387
5.32951
5.55498
5.69949
5.77773
5.81102
5.81492
5.80043
5.77461
5.74125
5.70233
5.66032
5.61647
5.57032
5.52098
5.46766
5.41043
5.35029
5.28907
5.22956
5.17767
5.13976
5.11419
5.07257
4.9993
4.90112
4.80576
4.73353
4.67328
529.905
531.33
4.82252
4.76911
4.79552
5.00923
5.29914
5.52938
5.67715
5.76725
5.81091
5.82279
5.8145
5.79377
5.76533
5.73132
5.69243
5.65074
5.6071
5.56068
5.51034
5.45512
5.39495
5.33084
5.26494
5.20102
5.14748
5.11498
5.09913
5.06984
5.01099
4.92637
4.83858
4.76288
4.69151
530.189
531.363
4.91537
4.92677
5.01517
5.24477
5.48983
5.65796
5.75274
5.80579
5.82692
5.82667
5.81303
5.7909
5.76314
5.73075
5.69354
5.65339
5.6109
5.56496
5.51447
5.45821
5.39577
5.32789
5.25679
5.18693
5.12821
5.09447
5.08379
5.0646
5.01867
4.946
4.86488
4.7877
4.70828
530.413
531.395
5.01165
5.07572
5.19487
5.41296
5.6164
5.74066
5.79513
5.81611
5.82024
5.81286
5.79794
5.77757
5.7528
5.72377
5.68979
5.65259
5.6123
5.56762
5.518
5.46225
5.39953
5.33013
5.25591
5.18127
5.11646
5.07701
5.06778
5.05617
5.02144
4.95951
4.88481
4.8081
4.72357
530.59
531.424
5.09365
5.19683
5.33163
5.53141
5.70371
5.79774
5.82389
5.81825
5.80885
5.79721
5.78328
5.76644
5.74607
5.72147
5.69152
5.65784
5.62041
5.57802
5.52964
5.4749
5.41256
5.3424
5.26579
5.18668
5.11481
5.06563
5.05306
5.04568
5.02005
4.96774
4.89928
4.82449
4.73729
530.727
531.444
5.15463
5.2901
5.43443
5.61501
5.76424
5.83781
5.84365
5.81483
5.78859
5.77158
5.75879
5.74632
5.73149
5.71248
5.6875
5.65801
5.62427
5.58517
5.53955
5.48668
5.42605
5.3568
5.27965
5.19785
5.12027
5.06158
5.04123
5.0352
5.01657
4.97264
4.90998
4.83783
4.74955
530.835
531.456
5.19656
5.36107
5.51217
5.67426
5.80659
5.86731
5.86084
5.81617
5.77166
5.74774
5.73516
5.72669
5.71758
5.70461
5.68516
5.66019
5.63039
5.59476
5.5522
5.50156
5.44299
5.37525
5.29842
5.21492
5.13258
5.06514
5.03334
5.02642
5.013
4.97629
4.91883
4.84953
4.76114
530.919
531.461
5.22407
5.41411
5.57023
5.71727
5.83678
5.88988
5.87678
5.82116
5.75827
5.72134
5.70549
5.69947
5.69589
5.68955
5.67646
5.65667
5.63146
5.59989
5.56108
5.51375
5.4575
5.39216
5.31697
5.2334
5.1481
5.07355
5.02984
5.02077
5.01123
4.98072
4.92784
4.86128
4.7731
530.989
531.46
5.24118
5.4528
5.61302
5.75025
5.85865
5.90744
5.89161
5.82965
5.75296
5.69861
5.67688
5.6719
5.67338
5.67384
5.66758
5.65339
5.63293
5.60535
5.57009
5.52598
5.47219
5.40936
5.33622
5.25348
5.16661
5.08655
5.03157
5.01875
5.0119
4.98697
4.93834
4.87448
4.78677
531.05
531.455
5.25009
5.47927
5.64376
5.77531
5.87584
5.92163
5.90499
5.83927
5.7514
5.67749
5.64548
5.6389
5.64449
5.65184
5.65294
5.64493
5.62957
5.60623
5.57466
5.53391
5.48296
5.42263
5.352
5.27111
5.18447
5.10161
5.0389
5.0206
5.01552
4.99582
4.9514
4.89025
4.80313
531.114
531.446
5.25305
5.49601
5.66524
5.79397
5.88954
5.93175
5.91468
5.84643
5.74991
5.65957
5.61401
5.6049
5.61474
5.62938
5.63822
5.63677
5.62643
5.60709
5.57882
5.541
5.49264
5.43418
5.36575
5.28687
5.2013
5.11732
5.05021
5.02544
5.02166
5.00718
4.9673
4.90913
4.82296
531.185
531.436
5.25192
5.50541
5.67961
5.80712
5.89893
5.93761
5.91933
5.84798
5.74373
5.64027
5.57988
5.56797
5.58209
5.60407
5.62047
5.62548
5.61997
5.60435
5.57897
5.54357
5.49731
5.44058
5.37422
5.29757
5.21406
5.13079
5.06188
5.03284
5.03052
5.02118
4.98622
4.9313
4.8466
531.273
531.426
5.24853
5.50981
5.68853
5.81532
5.90378
5.93917
5.91644
5.83983
5.72775
5.61404
5.54274
5.53066
5.55072
5.58074
5.60465
5.61573
5.61463
5.60213
5.57893
5.54515
5.50013
5.44432
5.37919
5.30423
5.22294
5.14156
5.07297
5.04251
5.04211
5.03774
5.00802
4.95673
4.8742
531.382
531.416
5.24403
5.51064
5.69264
5.81813
5.90244
5.933
5.90299
5.81891
5.69908
5.57853
5.50251
5.49409
5.52178
5.55982
5.59024
5.60617
5.60841
5.59802
5.5761
5.54304
5.4984
5.44285
5.37831
5.30461
5.22581
5.14767
5.08211
5.05423
5.05692
5.05728
5.03269
4.98518
4.90555
531.518
531.409
5.23915
5.50868
5.6919
5.81448
5.89286
5.91591
5.87584
5.78238
5.65568
5.53315
5.46089
5.46139
5.49878
5.5447
5.5804
5.59973
5.6041
5.59471
5.57305
5.5397
5.49439
5.43816
5.37322
5.29996
5.22336
5.14922
5.08898
5.06761
5.07499
5.07997
5.0601
5.01629
4.94018
531.681
531.405
5.234
5.50387
5.68554
5.80287
5.87299
5.88557
5.83312
5.72962
5.59887
5.48091
5.4217
5.43591
5.48385
5.53621
5.575
5.59563
5.60044
5.59063
5.56803
5.53331
5.48628
5.42856
5.36237
5.28907
5.21464
5.14556
5.09341
5.08261
5.09665
5.10628
5.09039
5.04981
4.97749
531.873
531.402
5.22848
5.49577
5.67254
5.78182
5.84118
5.84057
5.77459
5.66263
5.53316
5.42767
5.38999
5.42087
5.47855
5.535
5.57447
5.5945
5.59819
5.58673
5.56214
5.52504
5.47533
5.41534
5.34707
5.27321
5.20079
5.13764
5.09659
5.09924
5.12156
5.1361
5.12357
5.08558
5.01681
532.092
531.401
5.22214
5.4837
5.65199
5.75058
5.79711
5.78167
5.70334
5.58758
5.46696
5.38162
5.37061
5.41785
5.48246
5.53973
5.57739
5.59517
5.59611
5.58181
5.55424
5.51381
5.46056
5.39767
5.3268
5.25214
5.18201
5.12607
5.10016
5.11771
5.14939
5.16917
5.15972
5.12414
5.05723
532.332
531.401
5.21473
5.46745
5.62401
5.70996
5.74254
5.71239
5.62587
5.51359
5.40971
5.34993
5.36582
5.42588
5.49353
5.54864
5.58246
5.59668
5.59388
5.57599
5.54474
5.50028
5.44294
5.37667
5.30285
5.22735
5.1599
5.11244
5.10484
5.13756
5.17908
5.2044
5.19877
5.16472
5.09697
532.584
531.402
5.20606
5.44744
5.59008
5.66277
5.68181
5.63957
5.5517
5.45065
5.36873
5.33636
5.37426
5.44176
5.50868
5.55935
5.58805
5.59782
5.59068
5.56869
5.53323
5.4842
5.42256
5.35256
5.27574
5.1997
5.13579
5.09861
5.11077
5.15854
5.20987
5.24065
5.2392
5.20524
5.13429
532.836
531.402
5.19638
5.42507
5.55318
5.61351
5.62122
5.57191
5.49008
5.40546
5.34613
5.33965
5.39176
5.46168
5.52518
5.57016
5.59328
5.59824
5.58653
5.5602
5.52025
5.46636
5.4005
5.32668
5.2471
5.17107
5.11172
5.08704
5.1183
5.17983
5.24055
5.27723
5.27915
5.24425
5.16841
533.078
531.4
5.1863
5.40241
5.51709
5.56738
5.56757
5.51784
5.44711
5.3799
5.33965
5.35386
5.41356
5.48244
5.54102
5.57988
5.59768
5.59757
5.58125
5.55057
5.50599
5.44719
5.37726
5.29986
5.21809
5.14292
5.08931
5.07992
5.12756
5.20074
5.2698
5.31315
5.31678
5.28025
5.1987
533.301
531.397
5.17676
5.38187
5.4856
5.52897
5.52596
5.48175
5.42333
5.37076
5.34441
5.37313
5.43604
5.50206
5.55523
5.58804
5.60075
5.59581
5.57513
5.5402
5.49106
5.42753
5.35384
5.27325
5.1901
5.11668
5.06975
5.0766
5.13758
5.22026
5.29623
5.34573
5.35049
5.3121
5.22435
533.499
531.392
5.16881
5.3656
5.46168
5.50143
5.49893
5.46294
5.41537
5.37299
5.35619
5.3943
5.45769
5.51998
5.56767
5.59472
5.60263
5.59318
5.56839
5.52937
5.47582
5.40791
5.33081
5.24755
5.16392
5.09333
5.05408
5.07635
5.14819
5.23846
5.3202
5.37457
5.37983
5.33945
5.24557
533.671
531.386
5.16342
5.35508
5.44682
5.48573
5.48607
5.45814
5.41794
5.3814
5.37193
5.41544
5.47772
5.53588
5.57821
5.59992
5.60336
5.58975
5.56114
5.51823
5.46049
5.38869
5.30842
5.22299
5.13965
5.07299
5.04271
5.07875
5.15908
5.25519
5.3425
5.39949
5.4046
5.36223
5.26275
533.817
531.38
5.16141
5.35094
5.44107
5.48104
5.48508
5.46312
5.42653
5.39283
5.39015
5.43623
5.49649
5.55019
5.58727
5.60406
5.60324
5.58575
5.55356
5.50698
5.44527
5.36992
5.28666
5.19944
5.11698
5.05529
5.03587
5.0836
5.1704
5.2706
5.36225
5.42035
5.42486
5.38051
5.27611
533.939
531.375
5.16331
5.35311
5.44346
5.48541
5.49316
5.4741
5.43826
5.40588
5.40924
5.45644
5.51388
5.56267
5.59454
5.60693
5.60202
5.58101
5.54557
5.49558
5.43016
5.35147
5.26535
5.17646
5.09512
5.039
5.03194
5.08959
5.18172
5.28473
5.37925
5.43729
5.44075
5.39435
5.28563
534.039
531.374
5.16943
5.36106
5.45259
5.49658
5.50714
5.48871
5.45236
5.42102
5.42945
5.47644
5.52996
5.57343
5.6002
5.6085
5.59999
5.57586
5.53749
5.48436
5.41548
5.33357
5.24456
5.15388
5.07354
5.02305
5.02852
5.09544
5.19251
5.29761
5.39367
5.45054
5.45241
5.40373
5.2911
534.12
531.375
5.17975
5.37416
5.46728
5.51302
5.52528
5.50649
5.46946
5.43897
5.45056
5.4954
5.54384
5.58189
5.60393
5.60869
5.59714
5.57039
5.52949
5.4736
5.4016
5.31664
5.22463
5.13181
5.05188
5.00638
5.0235
5.09931
5.20142
5.3084
5.4052
5.46008
5.45987
5.40862
5.29229
534.182
531.381
5.19404
5.39183
5.48677
5.53405
5.54739
5.52817
5.4906
5.46015
5.47194
5.51243
5.5552
5.588
5.60598
5.60788
5.59394
5.56511
5.52217
5.46399
5.38934
5.30156
5.20653
5.11112
5.03056
4.98858
5.01538
5.09928
5.20668
5.31607
5.41305
5.46553
5.46295
5.40898
5.28919
534.228
531.39
5.21168
5.41356
5.51073
5.55972
5.57415
5.55477
5.51632
5.48374
5.49188
5.52635
5.56313
5.59132
5.60621
5.60614
5.5906
5.56036
5.51601
5.45618
5.37952
5.28935
5.19145
5.09304
5.01049
4.96968
5.00291
5.09336
5.20614
5.31891
5.41597
5.46622
5.46144
5.40493
5.28225
534.259
531.401
5.23193
5.43889
5.53892
5.59006
5.60584
5.58637
5.54574
5.50855
5.50958
5.53659
5.56764
5.59226
5.60515
5.60401
5.58767
5.55672
5.51163
5.45089
5.373
5.28104
5.18065
5.07904
4.99312
4.95054
4.98577
5.08019
5.19774
5.3144
5.41238
5.46138
5.45513
5.3968
5.2723
534.275
531.414
5.25398
5.46738
5.57108
5.62492
5.64223
5.62229
5.57819
5.53357
5.52394
5.54268
5.56868
5.59087
5.60287
5.60154
5.58522
5.55429
5.50919
5.44834
5.3701
5.27712
5.17488
5.07022
4.97986
4.93251
4.96466
5.0596
5.18048
5.30106
5.40117
5.45047
5.44401
5.38509
5.26037
534.279
531.426
5.27713
5.49854
5.60668
5.66361
5.68252
5.66165
5.61216
5.55744
5.53466
5.54504
5.56692
5.58776
5.59982
5.59905
5.58344
5.55312
5.50863
5.4484
5.37062
5.27744
5.17421
5.06709
4.97189
4.9174
4.94157
5.03293
5.15469
5.27857
5.38199
5.43343
5.42836
5.37047
5.24747
534.273
531.439
5.3009
5.53183
5.64506
5.70534
5.72552
5.70264
5.64603
5.57947
5.5421
5.54441
5.56297
5.58328
5.5961
5.59645
5.5821
5.5529
5.50952
5.45046
5.37379
5.2811
5.17771
5.06899
4.96941
4.90681
4.91952
5.0034
5.12274
5.24821
5.35543
5.41065
5.40859
5.35346
5.23418
534.258
531.451
5.32504
5.56663
5.68531
5.74868
5.76931
5.7433
5.67844
5.59939
5.54717
5.54193
5.55781
5.5781
5.59205
5.59386
5.58111
5.55335
5.51138
5.45386
5.37874
5.28702
5.18405
5.07454
4.97144
4.90107
4.90093
4.97482
5.08857
5.21306
5.3234
5.38327
5.38542
5.33454
5.22072
534.237
531.463
5.34951
5.60226
5.72638
5.79239
5.81262
5.78241
5.70879
5.61759
5.55112
5.53883
5.55228
5.57263
5.5878
5.59117
5.58018
5.554
5.51361
5.4578
5.38445
5.29398
5.19178
5.08207
4.97639
4.89936
4.88669
4.94971
5.0557
5.17676
5.2886
5.35304
5.35993
5.31423
5.20711
534.21
531.476
5.37441
5.63814
5.76736
5.83539
5.85475
5.81904
5.73667
5.63446
5.55512
5.53606
5.54703
5.56726
5.58348
5.58837
5.57915
5.55459
5.51579
5.46172
5.39018
5.30101
5.19963
5.08995
4.98238
4.90003
4.87644
4.92919
5.02647
5.14228
5.25344
5.3216
5.33315
5.29296
5.1931
534.181
531.491
5.39997
5.67394
5.80759
5.87683
5.89463
5.85283
5.76239
5.65091
5.56067
5.53462
5.54265
5.56229
5.57923
5.58549
5.57797
5.55503
5.51779
5.46541
5.39566
5.30778
5.2071
5.09739
4.9882
4.9015
4.86882
4.91303
5.00209
5.11161
5.21999
5.29046
5.30601
5.27108
5.17834
534.149
531.507
5.42625
5.70944
5.84681
5.91653
5.93218
5.88436
5.78689
5.66789
5.56877
5.53464
5.53899
5.55747
5.57481
5.58237
5.5765
5.55519
5.51951
5.46881
5.40087
5.31439
5.21419
5.10429
4.99346
4.90285
4.86232
4.89936
4.98167
5.08515
5.18956
5.26087
5.27939
5.24899
5.16274
534.116
531.526
5.45314
5.74449
5.885
5.95474
5.96805
5.91467
5.81136
5.68624
5.57954
5.53607
5.5359
5.55268
5.57015
5.57899
5.57478
5.5552
5.52109
5.47206
5.40592
5.321
5.22121
5.11104
4.99849
4.90403
4.85627
4.88667
4.96354
5.06197
5.16219
5.23328
5.25378
5.22704
5.14646
534.083
531.545
5.48001
5.7789
5.92232
5.992
6.00326
5.94518
5.83721
5.70674
5.59247
5.5384
5.5328
5.54739
5.56491
5.57509
5.57271
5.55502
5.52262
5.47534
5.41112
5.32788
5.22868
5.11824
5.00388
4.90529
4.85039
4.87362
4.94588
5.04049
5.13703
5.20753
5.22937
5.20554
5.12986
534.049
531.564
5.50618
5.81244
5.95894
6.02888
6.0388
5.97708
5.86535
5.72971
5.60722
5.54121
5.52927
5.54134
5.55895
5.57069
5.57034
5.55475
5.52421
5.47883
5.41665
5.33533
5.23705
5.12664
5.01064
4.90773
4.84545
4.85989
4.92752
5.01918
5.11291
5.18301
5.20599
5.18466
5.11336
534.015
531.582
5.53101
5.84487
5.99493
6.06571
6.07533
6.01139
5.89615
5.75499
5.62326
5.5439
5.52483
5.53423
5.55212
5.56567
5.5676
5.55435
5.52586
5.48251
5.42252
5.34335
5.24635
5.13646
5.01929
4.91218
4.84216
4.8461
4.90823
4.99717
5.08884
5.1591
5.18343
5.16453
5.0974
533.981
531.598
5.55397
5.87587
6.03014
6.10241
6.11274
6.0481
5.92892
5.78162
5.63976
5.54611
5.51942
5.52614
5.54452
5.56012
5.56454
5.5538
5.52752
5.4863
5.4286
5.35176
5.25636
5.14745
5.02972
4.91896
4.84121
4.83348
4.88887
4.97453
5.06444
5.13538
5.16148
5.14519
5.08231
533.947
531.611
5.57497
5.90529
6.06434
6.13857
6.15017
6.0855
5.96223
5.80835
5.65596
5.54779
5.51322
5.51732
5.53638
5.55419
5.56121
5.55309
5.52908
5.49003
5.43465
5.36022
5.26663
5.15907
5.0414
4.92784
4.84297
4.82324
4.87078
4.9522
5.04012
5.11188
5.14013
5.12674
5.06829
533.913
531.622
5.59417
5.93305
6.09726
6.17368
6.18677
6.12223
5.99461
5.83381
5.67107
5.54909
5.50665
5.50829
5.52814
5.54815
5.55773
5.5522
5.53043
5.49348
5.44034
5.36827
5.27658
5.17052
5.0534
4.93798
4.84718
4.81612
4.85534
4.93156
5.01695
5.08909
5.11956
5.10923
5.05534
533.879
531.632
5.61201
5.95925
6.12861
6.20711
6.22144
6.15676
6.02446
5.85668
5.68443
5.55052
5.50023
5.49958
5.52017
5.54224
5.55421
5.55113
5.53149
5.49651
5.44547
5.37564
5.28581
5.18118
5.0648
4.94824
4.85286
4.81195
4.84325
4.91376
4.99609
5.06767
5.10013
5.09282
5.0434
533.847
531.642
5.62906
5.98414
6.15833
6.23859
6.25369
6.18838
6.05102
5.87637
5.69575
5.55247
5.49443
5.49166
5.51286
5.53669
5.5508
5.54992
5.53224
5.49904
5.44987
5.38212
5.29414
5.19066
5.07502
4.9578
4.85901
4.81
4.83441
4.89936
4.97815
5.04835
5.08229
5.07763
5.03235
533.815
531.652
5.64566
6.00781
6.18624
6.26775
6.28298
6.2164
6.07377
5.89265
5.70497
5.55454
5.48948
5.48474
5.50625
5.53149
5.54747
5.54857
5.53267
5.50106
5.45355
5.38759
5.30131
5.19877
5.0838
4.96613
4.86477
4.80927
4.82799
4.88805
4.96323
5.03148
5.06629
5.06376
5.02205
533.786
531.663
5.66197
6.03043
6.21246
6.29476
6.30962
6.24141
6.09369
5.90662
5.71308
5.55699
5.48567
5.47886
5.5003
5.52663
5.54425
5.54713
5.53288
5.50272
5.4567
5.39236
5.30757
5.20583
5.09139
4.97328
4.86982
4.80906
4.82308
4.87916
4.95111
5.01716
5.05226
5.05124
5.01242
533.759
531.674
5.67763
6.05168
6.23671
6.31938
6.3335
6.26353
6.11156
5.91893
5.72065
5.5599
5.48268
5.47352
5.49458
5.52177
5.54095
5.54548
5.53279
5.50399
5.45933
5.39646
5.31303
5.21204
5.09805
4.9795
4.8742
4.809
4.81876
4.87162
4.94097
5.00496
5.04001
5.04003
5.00349
533.735
531.684
5.69246
6.07167
6.2593
6.34211
6.35535
6.28374
6.12835
5.93088
5.72867
5.56357
5.48034
5.46848
5.48896
5.51694
5.53764
5.54372
5.53254
5.50502
5.46163
5.4001
5.31793
5.21762
5.10402
4.98507
4.87813
4.80925
4.81474
4.86487
4.9322
4.99444
5.0293
5.03003
4.99534
533.714
531.692
5.70573
6.0897
6.27965
6.36252
6.37492
6.30196
6.14384
5.94236
5.73667
5.56721
5.4779
5.46328
5.48321
5.51198
5.53417
5.54176
5.53202
5.50574
5.46353
5.40323
5.32221
5.22256
5.10931
4.98998
4.88158
4.80965
4.81077
4.85845
4.92421
4.98509
5.0198
5.02109
4.988
533.696
531.699
5.71796
6.10655
6.29867
6.38156
6.3932
6.31913
6.15874
5.95364
5.74447
5.57051
5.47531
5.45815
5.47769
5.50725
5.53081
5.53981
5.53139
5.50621
5.46505
5.40584
5.32584
5.22674
5.1138
4.99413
4.88444
4.80996
4.80699
4.85242
4.91687
4.97668
5.01131
5.01309
4.98142
533.68
531.706
5.72855
6.12124
6.31529
6.39818
6.40914
6.33412
6.17178
5.96333
5.75077
5.57267
5.47247
5.45333
5.47263
5.50287
5.52762
5.53785
5.53059
5.50638
5.46613
5.40784
5.32871
5.23004
5.11727
4.99721
4.88635
4.80969
4.8032
4.84674
4.91013
4.96908
5.00364
5.00583
4.97539
533.667
531.713
5.73925
6.13579
6.33149
6.41422
6.42433
6.34813
6.18359
5.97162
5.75574
5.57418
5.47003
5.44937
5.46839
5.49905
5.52473
5.536
5.52975
5.50637
5.46688
5.40937
5.33093
5.23255
5.11982
4.99925
4.88723
4.80865
4.79919
4.84125
4.90387
4.96214
4.99662
4.99913
4.96963
533.656
531.72
5.74875
6.14814
6.34505
6.42748
6.43668
6.35922
6.1926
5.97762
5.75935
5.57559
5.46851
5.44643
5.46481
5.49558
5.52195
5.53415
5.52882
5.5062
5.46741
5.41059
5.33276
5.23458
5.12175
5.00051
4.88714
4.80661
4.7945
4.83549
4.8977
4.95555
4.98998
4.99269
4.9638
533.646
531.73
5.75953
6.16171
6.35966
6.44167
6.44981
6.37084
6.20198
5.98424
5.76418
5.57864
5.4683
5.44403
5.46122
5.49191
5.51901
5.53224
5.52788
5.50608
5.46801
5.41191
5.33473
5.2368
5.12393
5.00195
4.88695
4.80401
4.78889
4.82884
4.89101
4.94883
4.98338
4.98628
4.95775
533.635
531.738
5.76777
6.17183
6.37072
6.45255
6.46006
6.38034
6.21049
5.99156
5.77087
5.58355
5.46878
5.4412
5.45681
5.48756
5.51565
5.53011
5.52691
5.50606
5.46885
5.41359
5.3372
5.23969
5.12699
5.00439
4.88762
4.80167
4.78262
4.82103
4.88318
4.94137
4.97637
4.97966
4.95148
533.623
531.746
5.77702
6.18409
6.38459
6.4667
6.47411
6.39433
6.22414
6.00416
5.78206
5.59084
5.46888
5.43665
5.45067
5.48202
5.51162
5.52769
5.52592
5.50624
5.47007
5.41584
5.34047
5.24369
5.13151
5.00866
4.8902
4.80074
4.77652
4.81235
4.87413
4.93296
4.96881
4.97287
4.94535
533.609
531.749
5.78056
6.19016
6.39285
6.47613
6.48462
6.40658
6.23816
6.01845
5.79458
5.59775
5.46699
5.42988
5.44298
5.47565
5.5072
5.52512
5.52494
5.50655
5.4715
5.41841
5.34423
5.24843
5.13714
5.01456
4.89496
4.80204
4.77179
4.80379
4.86429
4.92371
4.9607
4.96601
4.9397
533.593
531.749
5.78573
6.20003
6.40607
6.49113
6.50127
6.42554
6.25867
6.03742
5.80888
5.6036
5.46257
5.42101
5.43423
5.46892
5.50272
5.52258
5.52401
5.5069
5.47298
5.42104
5.34809
5.2534
5.14322
5.02136
4.90133
4.80566
4.76948
4.79688
4.85506
4.91448
4.95261
4.95949
4.93495
533.576
531.744
5.78369
6.20129
6.41074
6.49807
6.51054
6.43807
6.27372
6.0512
5.81744
5.60396
5.45481
5.41123
5.42609
5.46322
5.49909
5.52057
5.52327
5.50716
5.47415
5.42317
5.35128
5.2576
5.14852
5.02767
4.90797
4.81079
4.76986
4.79273
4.84778
4.90633
4.94524
4.95371
4.93125
533.559
531.742
5.78759
6.21037
6.42345
6.51268
6.5267
6.45596
6.29126
6.06364
5.82181
5.59999
5.4454
5.40251
5.4201
5.45942
5.49666
5.51914
5.52267
5.50724
5.47483
5.4245
5.35335
5.2604
5.15209
5.03215
4.91329
4.816
4.77243
4.79194
4.84374
4.90054
4.93946
4.9491
4.9286
533.546
531.738
5.78487
6.20925
6.42425
6.51457
6.52936
6.45935
6.29379
6.06188
5.81423
5.58883
5.43531
5.39643
5.41731
5.45811
5.49583
5.51858
5.52234
5.5071
5.47489
5.4248
5.35395
5.26132
5.15333
5.03396
4.91603
4.81965
4.77574
4.79378
4.84309
4.89769
4.93575
4.94581
4.92672
533.537
531.742
5.79356
6.2212
6.43728
6.52726
6.54093
6.46863
6.29798
6.05791
5.80344
5.57698
5.4281
5.39453
5.41793
5.45896
5.49616
5.51854
5.52208
5.50669
5.47436
5.42418
5.35323
5.26045
5.1523
5.033
4.91574
4.82081
4.77843
4.79704
4.84522
4.89776
4.93424
4.94381
4.92524
533.533
531.746
5.79371
6.21965
6.43445
6.52296
6.53448
6.45876
6.28323
6.03869
5.78398
5.56378
5.42475
5.39705
5.42155
5.46141
5.49727
5.51883
5.52182
5.50604
5.47338
5.42287
5.35154
5.25825
5.14952
5.02971
4.91249
4.81883
4.77899
4.79975
4.84831
4.89951
4.93421
4.94263
4.92367
533.535
531.76
5.8081
6.23521
6.44849
6.53447
6.54235
6.46082
6.27761
6.02695
5.77252
5.55899
5.42753
5.40244
5.42569
5.46343
5.49784
5.5187
5.52128
5.50521
5.47228
5.42146
5.34972
5.25583
5.14627
5.02552
4.90769
4.81459
4.77709
4.80073
4.85094
4.90172
4.93478
4.94169
4.92161
533.539
531.767
5.80843
6.23183
6.44196
6.52507
6.52938
6.44313
6.25635
6.0075
5.7611
5.55796
5.43338
5.40846
5.42899
5.46437
5.4976
5.5181
5.52054
5.50437
5.47134
5.42036
5.34834
5.25397
5.14357
5.02166
4.90259
4.80892
4.77252
4.79879
4.85142
4.90288
4.93494
4.94043
4.91891
533.544
531.781
5.82299
6.24799
6.45684
6.5378
6.53932
6.44926
6.25908
6.01026
5.76788
5.56799
5.4416
5.41202
5.42865
5.46237
5.49551
5.51648
5.51943
5.50367
5.47094
5.42019
5.3483
5.25386
5.1429
5.01991
4.89911
4.80359
4.76622
4.79372
4.8487
4.90171
4.93371
4.93837
4.91564
533.546
531.781
5.81734
6.23945
6.44681
6.52664
6.52698
6.43626
6.24858
6.00713
5.7732
5.57688
5.44731
5.41248
5.42575
5.45865
5.49239
5.5144
5.51828
5.50325
5.47111
5.42087
5.34949
5.2554
5.14431
5.02059
4.89796
4.79951
4.75904
4.78611
4.84272
4.89777
4.93071
4.93542
4.91213
533.546
531.786
5.82708
6.25353
6.46275
6.54334
6.54461
6.45566
6.27059
6.03119
5.79649
5.59322
5.45162
5.40843
5.41869
5.45216
5.48774
5.51157
5.51697
5.5031
5.47193
5.42261
5.35216
5.25896
5.14831
5.02447
4.90037
4.79846
4.75282
4.77718
4.83408
4.89111
4.92583
4.93159
4.90874
533.54
531.775
5.81305
6.23875
6.44964
6.53205
6.53566
6.45086
6.27235
6.03964
5.80721
5.59939
5.44911
5.40071
5.41036
5.44567
5.4835
5.5092
5.51601
5.50323
5.47297
5.42455
5.35511
5.26298
5.15317
5.02987
4.90515
4.80039
4.74911
4.76926
4.8248
4.8831
4.91988
4.92743
4.90595
533.532
531.772
5.81875
6.25115
6.46672
6.55231
6.55953
6.47979
6.30532
6.07096
5.83047
5.60959
5.44599
5.39117
5.40106
5.43907
5.47947
5.50703
5.51525
5.50353
5.47416
5.42663
5.35823
5.26725
5.1585
5.03615
4.91162
4.80503
4.74868
4.76396
4.81668
4.87504
4.91364
4.92331
4.90394
533.522
531.757
5.80074
6.23259
6.4507
6.53891
6.54907
6.47356
6.30372
6.07119
5.82786
5.60144
5.43445
5.381
5.39468
5.43576
5.47796
5.50651
5.51532
5.504
5.47496
5.42783
5.36
5.26976
5.16188
5.04056
4.91691
4.81011
4.75094
4.7624
4.81182
4.86905
4.90858
4.92005
4.90287
533.514
531.757
5.80947
6.24736
6.46924
6.55977
6.57225
6.49934
6.32922
6.08966
5.83449
5.59746
5.42603
5.37373
5.39096
5.43453
5.47782
5.50676
5.51571
5.50443
5.47543
5.42843
5.36087
5.27105
5.16373
5.04318
4.92055
4.81454
4.75466
4.76391
4.8104
4.86567
4.90512
4.91768
4.90234
533.508
531.749
5.79483
6.22938
6.45092
6.54163
6.55405
6.48065
6.30909
6.06671
5.80919
5.57444
5.41174
5.37004
5.39313
5.43827
5.48109
5.50906
5.51704
5.50495
5.4753
5.42779
5.35988
5.26986
5.16255
5.04229
4.92054
4.81619
4.75813
4.76767
4.81263
4.8658
4.90409
4.91663
4.90211
533.509
531.761
5.81165
6.24967
6.47164
6.56171
6.57292
6.49682
6.31889
6.06648
5.80088
5.56546
5.40879
5.37325
5.39845
5.44301
5.48446
5.51117
5.51809
5.50516