/*--------------------------------*- C++ -*----------------------------------*\
| =========                 |                                                 |
| \\      /  F ield         | OpenFOAM: The Open Source CFD Toolbox           |
|  \\    /   O peration     | Version:  v2006                                 |
|   \\  /    A nd           | Website:  www.openfoam.com                      |
|    \\/     M anipulation  |                                                 |
\*---------------------------------------------------------------------------*/
FoamFile
{
    version     2.0;
    format      ascii;
    class       volVectorField;
    location    "8";
    object      U;
}
// * * * * * * * * * * * * * * * * * * * * * * * * * * * * * * * * * * * * * //

dimensions      [0 1 -1 0 0 0 0];


internalField   nonuniform List<vector> 
78750
(
(-0.0610791 -0.0294593 -0.0267337)
(-0.0374966 -0.0349315 -0.0343499)
(-0.0342451 -0.0348158 -0.0339189)
(-0.0312283 -0.0331041 -0.0339154)
(-0.024324 -0.0299078 -0.0326266)
(-0.0200779 -0.0276455 -0.0321167)
(-0.0153174 -0.0254874 -0.0317058)
(-0.010837 -0.0234707 -0.0314272)
(-0.00667353 -0.0215657 -0.0312652)
(-0.00273897 -0.0197276 -0.0311557)
(0.000959099 -0.0179326 -0.0310515)
(0.00446074 -0.0161573 -0.0309191)
(0.00773134 -0.0144218 -0.0307732)
(0.0107404 -0.0127485 -0.0306268)
(0.0135141 -0.0111418 -0.0304721)
(0.016064 -0.00960102 -0.0302975)
(0.0183959 -0.00812157 -0.0300904)
(0.0205118 -0.00669356 -0.0298384)
(0.022411 -0.00529815 -0.0295291)
(0.0240897 -0.00391787 -0.0291483)
(0.0255411 -0.0025355 -0.0286815)
(0.0267515 -0.001134 -0.0281196)
(0.0277064 0.000302035 -0.0274319)
(0.0283613 0.00179324 -0.0266041)
(0.0286858 0.00336306 -0.0256184)
(0.0286495 0.00503464 -0.0244513)
(0.0282098 0.00683001 -0.0230726)
(0.0273092 0.00876767 -0.021443)
(0.0258775 0.0108576 -0.0195131)
(0.0238221 0.0130973 -0.01722)
(0.021073 0.0154469 -0.0145059)
(0.0175308 0.0179278 -0.0112496)
(0.0129053 0.0206342 -0.00719109)
(0.0071113 0.0217109 -0.00244916)
(0.00160318 0.0140485 0.0011999)
(-0.00379092 0.0201777 -0.017164)
(-0.00848696 -0.0223921 -0.0524073)
(-0.0145649 -0.0398869 -0.0658313)
(-0.0184003 -0.0420963 -0.0687618)
(-0.0210098 -0.037564 -0.0677239)
(-0.0226151 -0.032427 -0.0655648)
(-0.0234289 -0.029059 -0.0635412)
(-0.0234771 -0.0266098 -0.0617895)
(-0.0229548 -0.024507 -0.0602885)
(-0.0219834 -0.022467 -0.0589932)
(-0.0206352 -0.0204271 -0.0579167)
(-0.0190184 -0.0184094 -0.0570598)
(-0.0172656 -0.0164498 -0.0563855)
(-0.015453 -0.0145577 -0.055836)
(-0.0136036 -0.0127198 -0.0553625)
(-0.0117249 -0.0109176 -0.0549309)
(-0.00981842 -0.00913696 -0.0545181)
(-0.00788818 -0.00736756 -0.0541074)
(-0.00597238 -0.00559429 -0.053684)
(-0.00410486 -0.00376811 -0.0532079)
(-0.00229086 -0.00184681 -0.0526419)
(-0.00053993 0.00019935 -0.0519501)
(0.00114959 0.00239062 -0.0510865)
(0.00275659 0.00474351 -0.0500126)
(0.00424409 0.00729123 -0.0486759)
(0.00557417 0.0100895 -0.0470133)
(0.00670578 0.0132115 -0.0449507)
(0.00759067 0.0167432 -0.0423874)
(0.00816972 0.0207842 -0.0391723)
(0.00836732 0.0254495 -0.0350815)
(0.00808035 0.0308538 -0.0298115)
(0.00715811 0.0369618 -0.0230794)
(0.00546217 0.0428806 -0.0150651)
(0.00315987 0.0449209 -0.00681842)
(0.000472373 0.0306384 -4.28552e-05)
(-0.000171651 0.0555941 -0.00805717)
(-0.00386086 0.071172 -0.0261098)
(-0.00930996 0.0681358 -0.0328602)
(-0.0141371 0.0598281 -0.0334165)
(-0.017515 0.0499096 -0.0324434)
(-0.0194793 0.0400113 -0.0319225)
(-0.0204547 0.0308418 -0.0320003)
(-0.0207184 0.0224727 -0.0325759)
(-0.020385 0.0150693 -0.0335152)
(-0.0195976 0.00896945 -0.0345969)
(-0.0185489 0.00463352 -0.0355897)
(-0.0172815 0.00233739 -0.0363441)
(-0.0158301 0.00166398 -0.036948)
(-0.0143562 0.00186194 -0.0375415)
(-0.0129272 0.00246927 -0.0381582)
(-0.0115238 0.00334819 -0.0387859)
(-0.0101624 0.0044484 -0.0394097)
(-0.00886524 0.00575761 -0.0400121)
(-0.0075943 0.00727024 -0.0405736)
(-0.00631767 0.00901618 -0.0410703)
(-0.00506394 0.0110214 -0.0414753)
(-0.00386674 0.0133119 -0.0417592)
(-0.00273909 0.0159514 -0.0418754)
(-0.00165889 0.0190338 -0.0417743)
(-0.000644383 0.0225338 -0.0414249)
(0.000266235 0.0263618 -0.0407902)
(0.001068 0.0305191 -0.0397937)
(0.0017429 0.0350502 -0.0383196)
(0.00225648 0.0399998 -0.0362035)
(0.0025631 0.0453793 -0.0332152)
(0.0026079 0.0510707 -0.0290786)
(0.00233807 0.0565732 -0.0235988)
(0.00177791 0.0604545 -0.0169086)
(0.000976005 0.0584346 -0.00920175)
(1.10533e-05 0.0359993 -0.00148547)
(-0.00056269 0.0571395 -0.00475474)
(-0.00236122 0.0706422 -0.0169728)
(-0.00390373 0.0622945 -0.0227851)
(-0.0049087 0.0484604 -0.0249601)
(-0.00547813 0.033848 -0.0257145)
(-0.00585145 0.0206674 -0.0263748)
(-0.00614099 0.00952115 -0.0272211)
(-0.00641013 0.000475923 -0.0281382)
(-0.00672162 -0.00637447 -0.0289404)
(-0.00705393 -0.0107999 -0.0294453)
(-0.00732777 -0.0129307 -0.0296282)
(-0.00748467 -0.0133203 -0.0296368)
(-0.00745366 -0.0127095 -0.0296405)
(-0.00720779 -0.0116395 -0.029719)
(-0.00679622 -0.0103233 -0.029885)
(-0.00625741 -0.00885417 -0.0301305)
(-0.00560991 -0.00725721 -0.030442)
(-0.00486206 -0.00551016 -0.0308024)
(-0.00404555 -0.00356727 -0.0311891)
(-0.00320379 -0.0013606 -0.0315871)
(-0.00234006 0.00115353 -0.0319717)
(-0.00146235 0.00401339 -0.0323201)
(-0.000589832 0.0072436 -0.0326046)
(0.000251409 0.0108778 -0.0327868)
(0.00103614 0.0149716 -0.0328262)
(0.00174767 0.0195843 -0.0326714)
(0.00236995 0.0247758 -0.032251)
(0.00288194 0.0306155 -0.0314607)
(0.0032532 0.0371785 -0.0301433)
(0.00344369 0.0444879 -0.028072)
(0.00340066 0.0523315 -0.0249693)
(0.00304924 0.0598445 -0.0206559)
(0.00241348 0.0650956 -0.0153068)
(0.00150064 0.0638252 -0.00869915)
(0.000284569 0.0392965 -0.00126022)
(0.000551422 0.0606867 -0.00279806)
(0.000890626 0.0868059 -0.0120898)
(0.000727846 0.0852178 -0.0176456)
(0.000457094 0.0772386 -0.02075)
(8.49746e-07 0.0675187 -0.0224103)
(-0.000631239 0.0581666 -0.0231709)
(-0.00142863 0.0500485 -0.0233351)
(-0.00237511 0.0432392 -0.0230796)
(-0.00342715 0.0374394 -0.022573)
(-0.00450002 0.0322245 -0.0220207)
(-0.00548409 0.0272859 -0.0216456)
(-0.00628944 0.0226047 -0.0215998)
(-0.00682292 0.0188994 -0.0218054)
(-0.00711357 0.0165538 -0.0221403)
(-0.00724513 0.0151531 -0.0226337)
(-0.00723737 0.0143296 -0.0232926)
(-0.00710292 0.0139561 -0.024081)
(-0.00685934 0.0139855 -0.0249581)
(-0.00652124 0.014428 -0.0258838)
(-0.00610378 0.0153312 -0.0268194)
(-0.00562628 0.0167631 -0.0277239)
(-0.00513214 0.018798 -0.028549)
(-0.00464921 0.021541 -0.0292296)
(-0.00417543 0.025162 -0.0297259)
(-0.00371704 0.0296017 -0.0300101)
(-0.00328939 0.0345857 -0.0300233)
(-0.0028767 0.0400299 -0.0296867)
(-0.00246833 0.0459753 -0.0289053)
(-0.00206945 0.0523992 -0.0275605)
(-0.00168747 0.0591414 -0.0255067)
(-0.00132593 0.0657629 -0.0226076)
(-0.000996724 0.0713158 -0.0188318)
(-0.000725758 0.0741564 -0.0142295)
(-0.000465544 0.0695649 -0.00834544)
(-0.000246406 0.0403538 -0.00151006)
(-3.77567e-05 0.0572943 -0.00179198)
(-0.000404614 0.0871315 -0.00920999)
(-0.000965372 0.0864293 -0.0137027)
(-0.00146681 0.078053 -0.0161245)
(-0.00195267 0.0663166 -0.0170902)
(-0.00237859 0.054285 -0.0169359)
(-0.00271786 0.0434727 -0.0161312)
(-0.00296928 0.0341455 -0.0150342)
(-0.00314584 0.0260968 -0.0138764)
(-0.00326581 0.0190149 -0.0128097)
(-0.00335111 0.0127077 -0.0119472)
(-0.00340963 0.00743929 -0.011343)
(-0.00340875 0.00362822 -0.010937)
(-0.00331031 0.00118627 -0.0106708)
(-0.00309675 -0.00024602 -0.0105907)
(-0.002804 -0.000936392 -0.0107454)
(-0.00244344 -0.00101164 -0.0111418)
(-0.00203135 -0.000530889 -0.0117629)
(-0.00159015 0.000511327 -0.0125731)
(-0.00115031 0.00216575 -0.0135225)
(-0.000747539 0.00457006 -0.0145387)
(-0.000389642 0.00790977 -0.015613)
(-0.00012283 0.0121006 -0.0167816)
(4.70125e-05 0.0168381 -0.0179753)
(0.000165351 0.0220901 -0.0190939)
(0.000264233 0.0279058 -0.0200409)
(0.000356502 0.0343303 -0.0207145)
(0.000442679 0.0413906 -0.0209937)
(0.000520007 0.0490314 -0.020726)
(0.000586801 0.0569842 -0.0197334)
(0.000641288 0.0645739 -0.0178707)
(0.000661445 0.0706055 -0.0151417)
(0.00060657 0.0735917 -0.01164)
(0.000434737 0.0693056 -0.00681067)
(0.000119163 0.0396 -0.000850083)
(0.000364678 0.0556008 -0.000758691)
(0.000928583 0.0908152 -0.00624179)
(0.00114801 0.0938046 -0.00989551)
(0.00121075 0.0885464 -0.0120452)
(0.00116691 0.0793598 -0.0131386)
(0.000988059 0.0688431 -0.013258)
(0.000726634 0.0587969 -0.0127059)
(0.000421473 0.0498889 -0.0117838)
(9.77981e-05 0.0421749 -0.0107041)
(-0.000228307 0.0354715 -0.00960519)
(-0.000578529 0.0295571 -0.00858142)
(-0.000993375 0.024196 -0.00769244)
(-0.00149562 0.0194339 -0.00702879)
(-0.00202411 0.0156923 -0.00664976)
(-0.00253917 0.0130661 -0.00655075)
(-0.00303414 0.0112945 -0.00678126)
(-0.00345407 0.0102287 -0.00738877)
(-0.00376235 0.00986574 -0.00834835)
(-0.00393675 0.0102687 -0.00958269)
(-0.00397641 0.0115098 -0.0109796)
(-0.0038977 0.0136683 -0.0124185)
(-0.00372338 0.0168309 -0.0138309)
(-0.00350629 0.0209426 -0.0151887)
(-0.00331651 0.0257017 -0.0164198)
(-0.0031963 0.0309012 -0.0174236)
(-0.0031434 0.0366229 -0.0181387)
(-0.00312259 0.042915 -0.0184985)
(-0.00307543 0.0497361 -0.0184371)
(-0.00294935 0.0569028 -0.0178802)
(-0.00270905 0.064022 -0.0167457)
(-0.00234046 0.0703923 -0.01498)
(-0.00188103 0.0750198 -0.0126122)
(-0.00139578 0.0765901 -0.00959466)
(-0.000833542 0.0701383 -0.00542501)
(-0.000232724 0.0385362 -0.000593843)
(0.000146354 0.0518694 -0.000423886)
(0.000644394 0.0891005 -0.00475883)
(0.000877958 0.0935191 -0.00764446)
(0.000987936 0.0893091 -0.00926326)
(0.000990877 0.0803413 -0.00997839)
(0.000803218 0.0688503 -0.00969425)
(0.000529461 0.0570803 -0.00864601)
(0.000271691 0.0460609 -0.00718796)
(4.89195e-05 0.0360446 -0.00553686)
(-0.000179045 0.0271123 -0.00367031)
(-0.000464872 0.0195387 -0.00141799)
(-0.000827558 0.0135928 0.00140476)
(-0.00123105 0.0092572 0.00483488)
(-0.00161054 0.00618365 0.00857985)
(-0.00189776 0.0039211 0.0119101)
(-0.00205869 0.00217511 0.0140423)
(-0.00214989 0.000803024 0.0145677)
(-0.00223675 -0.000150923 0.0133769)
(-0.00238223 -0.000467187 0.0106459)
(-0.00264139 8.19615e-05 0.00671203)
(-0.00300321 0.00179438 0.00229665)
(-0.00336419 0.00504455 -0.00185842)
(-0.00360922 0.0100163 -0.00538924)
(-0.00366996 0.0164306 -0.00818637)
(-0.00355662 0.0236936 -0.0102878)
(-0.003363 0.0312746 -0.0117946)
(-0.00318505 0.0389307 -0.0127854)
(-0.00305061 0.0466458 -0.0132794)
(-0.00291094 0.0543873 -0.0132402)
(-0.00267691 0.0617817 -0.0126106)
(-0.00227784 0.0680154 -0.0113747)
(-0.00174958 0.0721758 -0.00960216)
(-0.00117961 0.0732457 -0.00723151)
(-0.000559564 0.0663272 -0.00383272)
(-2.48771e-05 0.035397 -3.29118e-05)
(0.000102932 0.0483147 0.000320072)
(0.00068532 0.0867609 -0.0026142)
(0.00108715 0.0937222 -0.00489885)
(0.00132936 0.0913679 -0.00624177)
(0.00147005 0.0844026 -0.00700937)
(0.00139453 0.0741538 -0.00727621)
(0.00111227 0.0624085 -0.00713442)
(0.000681153 0.0508848 -0.00641723)
(0.0001549 0.0409584 -0.00451943)
(-0.000372432 0.0331026 -0.000593232)
(-0.000815188 0.0268077 0.00598193)
(-0.00110684 0.0211632 0.0147658)
(-0.00120662 0.0154022 0.0238808)
(-0.00106515 0.00940683 0.0311984)
(-0.000643314 0.00403351 0.0358514)
(-2.89809e-05 0.000184696 0.0383771)
(0.000668801 -0.00157405 0.0395225)
(0.00132039 -0.00100352 0.0396711)
(0.00180616 0.00179694 0.0386454)
(0.00202669 0.00625813 0.0356803)
(0.00191349 0.0112038 0.029809)
(0.001519 0.0152506 0.0210535)
(0.000964762 0.0182165 0.0110269)
(0.000340326 0.0210415 0.00198872)
(-0.000313998 0.0248666 -0.00448681)
(-0.000900854 0.0304767 -0.00834468)
(-0.0013141 0.0378975 -0.0102233)
(-0.00153566 0.0461785 -0.0107588)
(-0.0016077 0.0540587 -0.0104329)
(-0.00156037 0.0607493 -0.00954706)
(-0.0013762 0.0658614 -0.00826502)
(-0.0010637 0.0690188 -0.00666611)
(-0.000672215 0.0693484 -0.00465533)
(-0.000221665 0.0620695 -0.0019533)
(5.54218e-05 0.03295 0.000605824)
(-0.000207716 0.0471567 0.00086396)
(-0.000541775 0.0850489 -0.00136405)
(-0.000845842 0.0919958 -0.00327748)
(-0.00120205 0.0896618 -0.00445253)
(-0.00174164 0.0823271 -0.00507605)
(-0.00252177 0.0713911 -0.00471507)
(-0.00346839 0.0594645 -0.00248485)
(-0.00446394 0.048104 0.00280108)
(-0.0053523 0.0370301 0.011738)
(-0.00587101 0.025159 0.0223913)
(-0.00580025 0.0124024 0.0307837)
(-0.00515239 -5.71158e-05 0.0348705)
(-0.00407671 -0.0111658 0.0354405)
(-0.0027425 -0.0203656 0.0340737)
(-0.00130182 -0.0273188 0.0320748)
(0.000163355 -0.0317753 0.030402)
(0.00161823 -0.0337492 0.0295338)
(0.00310583 -0.0333728 0.0295905)
(0.00465445 -0.0306696 0.0305559)
(0.00627048 -0.0255704 0.0322812)
(0.00786821 -0.0181426 0.0343036)
(0.00925507 -0.00880658 0.0358017)
(0.0101896 0.00189538 0.0356178)
(0.0104492 0.0130779 0.0322393)
(0.00987839 0.023107 0.0245499)
(0.00861467 0.0306987 0.0140398)
(0.00710015 0.036672 0.00455603)
(0.00570482 0.0428863 -0.0015951)
(0.00452435 0.0500983 -0.00469941)
(0.0035429 0.0575458 -0.00570128)
(0.00273667 0.0636465 -0.00537669)
(0.00209252 0.0673192 -0.00432891)
(0.00155016 0.0680618 -0.00279578)
(0.000970174 0.0617947 -0.000655354)
(0.000268755 0.033615 0.00117665)
(-0.000170035 0.0486181 0.00192743)
(-0.000914868 0.087497 0.000929862)
(-0.00174043 0.0952346 -0.000480688)
(-0.00263102 0.0934296 -0.0011429)
(-0.00371749 0.0870027 -0.000626301)
(-0.00491147 0.0769055 0.0022747)
(-0.00599583 0.0641071 0.00887076)
(-0.00669674 0.0486355 0.0185931)
(-0.00673186 0.0308651 0.0273421)
(-0.00616492 0.0128759 0.0311327)
(-0.00527205 -0.00328083 0.0300734)
(-0.0042298 -0.0167432 0.0265373)
(-0.00316996 -0.0270788 0.0227992)
(-0.00218546 -0.0344557 0.0199864)
(-0.00128529 -0.0394618 0.0181928)
(-0.000449896 -0.042562 0.0172014)
(0.000361032 -0.044031 0.0167976)
(0.00119774 -0.0439734 0.016875)
(0.00211273 -0.0423579 0.0174413)
(0.00315438 -0.0390228 0.0186043)
(0.00435528 -0.0336676 0.0205325)
(0.00571693 -0.025884 0.0233252)
(0.00718472 -0.01525 0.0267867)
(0.00861452 -0.00185132 0.0299735)
(0.00974611 0.0132463 0.0310516)
(0.0103178 0.0283197 0.0280779)
(0.0100412 0.0412299 0.02048)
(0.00888161 0.0504441 0.010952)
(0.0073132 0.0568737 0.00362446)
(0.00574855 0.0623018 -0.000187232)
(0.00429787 0.0671022 -0.00138306)
(0.00302571 0.0704805 -0.00105318)
(0.00196901 0.0712153 7.50318e-05)
(0.000995408 0.064808 0.00160805)
(0.000159164 0.0357093 0.00208591)
(-0.000181541 0.0506385 0.00236721)
(-0.00129893 0.0913568 0.00229958)
(-0.00261073 0.0994722 0.00168)
(-0.00396543 0.0971909 0.00213635)
(-0.00547781 0.0889998 0.00481084)
(-0.00677764 0.0750738 0.011002)
(-0.00742403 0.0559699 0.0196873)
(-0.00727878 0.0335954 0.0263357)
(-0.00659274 0.0116309 0.0275379)
(-0.00572994 -0.00730711 0.0245767)
(-0.0048915 -0.0222664 0.0205421)
(-0.00415031 -0.0334052 0.0173788)
(-0.0034839 -0.0416145 0.0153495)
(-0.00285608 -0.0477218 0.0140843)
(-0.00222798 -0.0521556 0.0132853)
(-0.00157932 -0.0551182 0.012795)
(-0.000901741 -0.0567069 0.0125434)
(-0.000193374 -0.0569682 0.012505)
(0.000548097 -0.0559006 0.0126845)
(0.00133021 -0.0534425 0.0131216)
(0.00217193 -0.0494491 0.0139092)
(0.00311088 -0.0436433 0.0152203)
(0.00420612 -0.035547 0.0173028)
(0.00549801 -0.0244718 0.0203371)
(0.0070022 -0.00985774 0.0239803)
(0.00850949 0.00773778 0.0267588)
(0.00967803 0.026496 0.0264996)
(0.0101284 0.0441354 0.021743)
(0.00953778 0.0577988 0.0137499)
(0.00806666 0.0665427 0.00652327)
(0.00624572 0.0719093 0.00243095)
(0.0044652 0.0750301 0.00102124)
(0.00286987 0.0754607 0.0011602)
(0.00136443 0.0684555 0.00205915)
(0.00019095 0.0376829 0.00206773)
(-0.0001361 0.0525764 0.00317178)
(-0.00129736 0.0960071 0.00449555)
(-0.00277421 0.10534 0.00504686)
(-0.00426098 0.102677 0.00694328)
(-0.00576758 0.0917733 0.0116788)
(-0.00667715 0.0720706 0.0191139)
(-0.00667897 0.0464269 0.0251035)
(-0.00611183 0.0205637 0.025736)
(-0.00545047 -0.00141432 0.0221927)
(-0.00486469 -0.0185181 0.017809)
(-0.00434359 -0.0312767 0.0144621)
(-0.00384618 -0.0409309 0.0122213)
(-0.0033345 -0.0484361 0.0106902)
(-0.00278584 -0.0542233 0.00962653)
(-0.00219991 -0.0584941 0.00891035)
(-0.00158347 -0.0613732 0.00847311)
(-0.000942808 -0.0629492 0.00827033)
(-0.000283525 -0.0632768 0.00827574)
(0.000389326 -0.0623727 0.00848056)
(0.00107145 -0.0602179 0.00889242)
(0.00176137 -0.0567603 0.00953574)
(0.00246554 -0.0519033 0.0104609)
(0.00320746 -0.0454486 0.0117725)
(0.00402995 -0.0369718 0.0136709)
(0.00500498 -0.0256944 0.0164257)
(0.00617497 -0.0105577 0.0200542)
(0.0074503 0.00852367 0.0234777)
(0.0085695 0.0299389 0.0245034)
(0.00909857 0.0508535 0.0213295)
(0.00858461 0.0673982 0.0148575)
(0.00704235 0.0774613 0.00874453)
(0.00512694 0.0820607 0.00531173)
(0.00326215 0.082294 0.00407602)
(0.0014666 0.0737995 0.00387924)
(0.000168256 0.0401725 0.00270251)
(-0.000171077 0.0542637 0.00369894)
(-0.00144378 0.100046 0.00624977)
(-0.00302578 0.10952 0.00789214)
(-0.00458374 0.104432 0.0109316)
(-0.00602628 0.0873727 0.0164954)
(-0.00658338 0.0604609 0.0219767)
(-0.00641141 0.0308659 0.0229152)
(-0.00606117 0.00502947 0.01932)
(-0.00578267 -0.0150579 0.0146428)
(-0.00551471 -0.030003 0.0111016)
(-0.00519761 -0.041387 0.00879436)
(-0.00480063 -0.0503921 0.00726313)
(-0.00431122 -0.0575671 0.00621591)
(-0.00373549 -0.0631727 0.00549832)
(-0.00308854 -0.067365 0.00502075)
(-0.00238274 -0.0702506 0.00472759)
(-0.00162982 -0.0719007 0.00458561)
(-0.000841729 -0.0723544 0.00457877)
(-3.07905e-05 -0.0716186 0.00470589)
(0.000789662 -0.0696687 0.00497916)
(0.00160548 -0.0664531 0.00542345)
(0.00240244 -0.0618965 0.00607692)
(0.00316924 -0.0558899 0.00699663)
(0.00390244 -0.0482347 0.00827782)
(0.0046183 -0.0385114 0.010094)
(0.00536634 -0.0258732 0.0127142)
(0.00619308 -0.00903735 0.0162472)
(0.00706491 0.0123408 0.0197414)
(0.00775693 0.0364445 0.021006)
(0.00783219 0.059667 0.0183809)
(0.0068365 0.0772951 0.0131257)
(0.00505583 0.0867361 0.00863449)
(0.00318768 0.0885191 0.00621193)
(0.00138976 0.0791946 0.00492825)
(0.000133129 0.0424976 0.00280906)
(-0.000192362 0.0559835 0.00434991)
(-0.0015095 0.103994 0.00822071)
(-0.00312875 0.113752 0.0108762)
(-0.00467498 0.10637 0.0146237)
(-0.00599811 0.0841609 0.019604)
(-0.00644438 0.0531093 0.0217595)
(-0.00650348 0.0230486 0.0189425)
(-0.00661784 -0.00122952 0.0139811)
(-0.0067151 -0.0195542 0.0098928)
(-0.00668674 -0.0335783 0.0072428)
(-0.00651404 -0.0448278 0.00552556)
(-0.00619242 -0.0540078 0.00436636)
(-0.00573877 -0.0614472 0.00356817)
(-0.00517556 -0.0673337 0.00302551)
(-0.00452574 -0.0717968 0.00267579)
(-0.00380714 -0.0749304 0.00247946)
(-0.00303567 -0.0768014 0.00241147)
(-0.00222641 -0.0774495 0.00245783)
(-0.00139396 -0.0768852 0.00261482)
(-0.000552708 -0.0750904 0.00288914)
(0.000282568 -0.0720225 0.0032985)
(0.00109588 -0.067621 0.0038733)
(0.00187176 -0.0618049 0.0046604)
(0.00259527 -0.0544349 0.0057312)
(0.00325714 -0.0452196 0.00719953)
(0.00385986 -0.0335447 0.00924871)
(0.00442285 -0.0182965 0.0120969)
(0.00495441 0.00184979 0.0156273)
(0.00542574 0.0266098 0.0185551)
(0.00561644 0.0530596 0.0188)
(0.00506558 0.0760777 0.0156794)
(0.00370177 0.0900457 0.0114803)
(0.00218982 0.0933059 0.00847515)
(0.000808249 0.0828931 0.00626624)
(1.61168e-05 0.0435199 0.00306953)
(-0.000268584 0.0583841 0.0046306)
(-0.00180381 0.108242 0.00952375)
(-0.00361571 0.117107 0.0128069)
(-0.00532405 0.105833 0.0163352)
(-0.00679574 0.0779424 0.0190477)
(-0.00756478 0.0444978 0.0173983)
(-0.00820109 0.0153226 0.0123929)
(-0.00878439 -0.00712835 0.00765916)
(-0.00916024 -0.0244182 0.00458558)
(-0.00930441 -0.038407 0.00272219)
(-0.00920718 -0.0499739 0.00154798)
(-0.00889827 -0.0595201 0.000780949)
(-0.00841688 -0.0672913 0.00027729)
(-0.00780434 -0.0734752 -4.15854e-05)
(-0.00709336 -0.0782118 -0.000221967)
(-0.00630562 -0.0816005 -0.000293041)
(-0.00545892 -0.0837084 -0.00027354)
(-0.00457028 -0.0845711 -0.000173756)
(-0.00365667 -0.0841945 4.08382e-06)
(-0.00273535 -0.0825573 0.000266202)
(-0.00182491 -0.0796174 0.000628414)
(-0.000947848 -0.0753219 0.00111873)
(-0.000126902 -0.0696115 0.00178157)
(0.000617907 -0.0623908 0.00268525)
(0.00127219 -0.0534367 0.0039351)
(0.00183534 -0.0422313 0.00569227)
(0.00231486 -0.0277571 0.00816338)
(0.00273487 -0.00853632 0.0114153)
(0.00308344 0.0161656 0.0147895)
(0.00329229 0.0443507 0.016603)
(0.00305462 0.0711483 0.0154797)
(0.00216139 0.0892786 0.0123099)
(0.0011331 0.0941216 0.0093511)
(0.000273761 0.0830358 0.00669763)
(-4.57354e-05 0.0425552 0.00296433)
(-0.000226118 0.0615122 0.00442745)
(-0.00180517 0.11368 0.00997361)
(-0.00375895 0.122174 0.0134746)
(-0.00572124 0.10852 0.016116)
(-0.00759608 0.0784622 0.0163572)
(-0.008988 0.0454928 0.012487)
(-0.0102636 0.0177844 0.00730129)
(-0.0112659 -0.00422793 0.00352064)
(-0.0119067 -0.0223118 0.00132532)
(-0.0121937 -0.0375102 6.98313e-05)
(-0.0121625 -0.0502425 -0.000682373)
(-0.0118788 -0.060774 -0.00114563)
(-0.0114027 -0.0693461 -0.00142066)
(-0.0107809 -0.0761735 -0.00155942)
(-0.01005 -0.0814243 -0.00159329)
(-0.00923848 -0.0852214 -0.00154264)
(-0.008369 -0.0876478 -0.00142138)
(-0.00746078 -0.0887481 -0.0012382)
(-0.00653148 -0.0885296 -0.000996216)
(-0.00559864 -0.0869663 -0.000691515)
(-0.00468099 -0.0840102 -0.000311173)
(-0.00379962 -0.0796136 0.000169499)
(-0.00297857 -0.0737483 0.000791042)
(-0.00224366 -0.0663869 0.00161652)
(-0.00161188 -0.0574138 0.00274299)
(-0.00108103 -0.0464529 0.0043202)
(-0.000627166 -0.0326355 0.00655162)
(-0.000190084 -0.0144835 0.00957214)
(0.000254109 0.0094269 0.0130231)
(0.00068051 0.037976 0.0155369)
(0.000914076 0.0662187 0.0155739)
(0.000667091 0.0862729 0.0132492)
(0.000247346 0.091732 0.0104236)
(-7.73607e-05 0.0800961 0.00745368)
(-4.61806e-05 0.0401895 0.00319057)
(-3.51345e-05 0.0644532 0.00321769)
(-0.00127335 0.119899 0.00868131)
(-0.00313092 0.1289 0.0119657)
(-0.00532265 0.114182 0.0133984)
(-0.00772202 0.0830161 0.011638)
(-0.00979979 0.0500506 0.00679375)
(-0.0116646 0.0220855 0.00203959)
(-0.0130989 -0.00107787 -0.000887446)
(-0.0140167 -0.0208556 -0.00231667)
(-0.0144497 -0.0378113 -0.00297434)
(-0.014476 -0.0520673 -0.00329718)
(-0.0141841 -0.0637868 -0.00346129)
(-0.0136574 -0.0732473 -0.00352403)
(-0.0129637 -0.0807381 -0.00350697)
(-0.0121518 -0.0864919 -0.00342402)
(-0.0112586 -0.0906803 -0.00328639)
(-0.0103111 -0.0934183 -0.00310329)
(-0.00933053 -0.0947668 -0.00288176)
(-0.00833509 -0.094737 -0.00262559)
(-0.00734215 -0.093298 -0.00233327)
(-0.00637027 -0.0903934 -0.00199513)
(-0.00544133 -0.0859694 -0.00158991)
(-0.00458057 -0.0800078 -0.00108061)
(-0.00381542 -0.0725294 -0.000408725)
(-0.00316938 -0.0635324 0.000515697)
(-0.00264832 -0.052843 0.00183415)
(-0.00222773 -0.0398718 0.00376165)
(-0.00183189 -0.0233592 0.00654183)
(-0.00133213 -0.00155554 0.0101436)
(-0.00068077 0.02595 0.013616)
(-2.22484e-05 0.0552374 0.0151922)
(0.000266501 0.0778687 0.0140921)
(0.000226817 0.0853475 0.0116436)
(6.46748e-05 0.075114 0.0084909)
(4.31837e-05 0.0376185 0.00362727)
(0.000275259 0.0646788 0.00106421)
(0.00013466 0.124259 0.00547402)
(-0.000867252 0.13678 0.00840154)
(-0.00262759 0.125676 0.009291)
(-0.00505314 0.0975307 0.00710149)
(-0.00759549 0.0655532 0.00269989)
(-0.00996898 0.0363792 -0.00112832)
(-0.0118607 0.010524 -0.00312901)
(-0.0131461 -0.0126053 -0.0037472)
(-0.0138248 -0.0328709 -0.00379901)
(-0.0139906 -0.0498682 -0.00376444)
(-0.0137662 -0.0636237 -0.00375282)
(-0.013264 -0.0745238 -0.00373461)
(-0.0125719 -0.0830174 -0.00367884)
(-0.0117528 -0.0894631 -0.00357695)
(-0.0108522 -0.0941247 -0.00343202)
(-0.00990184 -0.0971837 -0.00325069)
(-0.00892436 -0.0987429 -0.00303992)
(-0.00793724 -0.0988323 -0.00280522)
(-0.00695573 -0.0974226 -0.00254851)
(-0.00599578 -0.0944484 -0.00226575)
(-0.00507683 -0.0898466 -0.00194385)
(-0.00422279 -0.0836 -0.00155643)
(-0.00346272 -0.0757592 -0.00105763)
(-0.00282427 -0.0664142 -0.000374299)
(-0.00232717 -0.0556003 0.00061034)
(-0.00196598 -0.0430905 0.00208402)
(-0.00168461 -0.0281056 0.00432015)
(-0.00136409 -0.00913023 0.00755478)
(-0.000861999 0.0153055 0.0114631)
(-0.000166976 0.0435483 0.014528)
(0.000370743 0.0680704 0.0150369)
(0.000483017 0.0783979 0.0132111)
(0.00029779 0.0704658 0.00987038)
(0.000112358 0.0358442 0.00424441)
(0.000439325 0.0608568 -0.00129508)
(0.0014117 0.122659 0.000965158)
(0.00156917 0.140626 0.00333287)
(0.000950332 0.135328 0.00419696)
(-0.000555251 0.113334 0.0026501)
(-0.0027828 0.0834441 -0.000608108)
(-0.00512108 0.0529545 -0.0034046)
(-0.00714878 0.0239712 -0.00456016)
(-0.00863557 -0.00314546 -0.00437551)
(-0.00950348 -0.0274902 -0.00381945)
(-0.00983175 -0.0479064 -0.00351433)
(-0.00974968 -0.0641265 -0.00348369)
(-0.00937416 -0.0766838 -0.00355509)
(-0.00879697 -0.0862796 -0.00361505)
(-0.0080839 -0.09346 -0.0036277)
(-0.00728274 -0.0986104 -0.00359328)
(-0.00642793 -0.101996 -0.00352139)
(-0.00554425 -0.103775 -0.00342169)
(-0.00465023 -0.104009 -0.00330209)
(-0.00376155 -0.102681 -0.0031676)
(-0.00289385 -0.0997245 -0.0030188)
(-0.00206607 -0.0950617 -0.00284948)
(-0.00130053 -0.0886562 -0.0026426)
(-0.000624647 -0.0805488 -0.00236377)
(-7.09729e-05 -0.0708548 -0.00195317)
(0.000333117 -0.0597163 -0.00131275)
(0.000574404 -0.0471649 -0.000285887)
(0.000667393 -0.0328557 0.00137615)
(0.000674292 -0.0157708 0.00401091)
(0.000712949 0.00566193 0.00777474)
(0.00089381 0.031715 0.0118674)
(0.00109941 0.05731 0.0142844)
(0.00101156 0.0713556 0.0137488)
(0.000601889 0.0667351 0.0106323)
(0.00017319 0.0349666 0.00458899)
(0.000386111 0.0549726 -0.0027112)
(0.00185409 0.115505 -0.00283043)
(0.00298075 0.137976 -0.00140071)
(0.00347615 0.138217 -0.000613645)
(0.00320107 0.124089 -0.00124172)
(0.00206839 0.0993592 -0.00301028)
(0.000492303 0.0704257 -0.00440096)
(-0.00109941 0.0400929 -0.00422507)
(-0.00230545 0.00948761 -0.00281699)
(-0.0029389 -0.0190728 -0.00154527)
(-0.00316253 -0.0430775 -0.00112062)
(-0.00310227 -0.0618408 -0.00130756)
(-0.00284021 -0.0761034 -0.00168974)
(-0.00243285 -0.0868609 -0.00204046)
(-0.00191724 -0.0948383 -0.00229745)
(-0.00132319 -0.10051 -0.00246811)
(-0.000680289 -0.10421 -0.00257561)
(-1.19934e-05 -0.106157 -0.00263932)
(0.000664433 -0.106451 -0.00267306)
(0.00133247 -0.105094 -0.0026865)
(0.00197681 -0.102016 -0.00268619)
(0.00257838 -0.0971218 -0.00267454)
(0.00311314 -0.0903581 -0.00264558)
(0.00355293 -0.0817623 -0.00257729)
(0.00386819 -0.0714727 -0.0024234)
(0.00403145 -0.0596961 -0.00210089)
(0.00402286 -0.0466094 -0.00147459)
(0.00383496 -0.0321653 -0.000332543)
(0.00348042 -0.015803 0.00164517)
(0.00301013 0.0036694 0.00479202)
(0.00252217 0.027113 0.00889186)
(0.00205288 0.0516154 0.0123582)
(0.00150285 0.0673269 0.0130719)
(0.00079936 0.0651178 0.010532)
(0.000186336 0.0350494 0.00456257)
(0.000195266 0.050165 -0.00286419)
(0.00133021 0.107533 -0.00459392)
(0.00264256 0.131554 -0.00424529)
(0.00358915 0.134776 -0.00377924)
(0.00403045 0.12592 -0.00388592)
(0.00385493 0.105985 -0.0044102)
(0.00317876 0.0790987 -0.00411585)
(0.00263461 0.0474843 -0.00215237)
(0.00258533 0.0136659 0.000264453)
(0.00284003 -0.0176927 0.0014707)
(0.00311875 -0.0432719 0.00131263)
(0.00336867 -0.0627915 0.000520522)
(0.00363704 -0.0774829 -0.000330078)
(0.00395808 -0.0885853 -0.00101928)
(0.00433791 -0.0968684 -0.00152687)
(0.0047675 -0.10277 -0.00189683)
(0.00523026 -0.106596 -0.00217742)
(0.00570887 -0.108572 -0.00240272)
(0.00618664 -0.108818 -0.0025936)
(0.00664729 -0.107344 -0.00276349)
(0.00707306 -0.104071 -0.00292246)
(0.00744212 -0.0988808 -0.00307773)
(0.00772785 -0.0916963 -0.00322943)
(0.00790198 -0.0825497 -0.00336265)
(0.00793716 -0.0716013 -0.00343838)
(0.0078098 -0.0591061 -0.00338042)
(0.00750053 -0.0453204 -0.00306028)
(0.00699687 -0.0303332 -0.00227728)
(0.00629189 -0.0138286 -0.000732107)
(0.00538728 0.00507225 0.0019398)
(0.00432263 0.0272109 0.00578649)
(0.00316251 0.0506297 0.00966795)
(0.00204392 0.066697 0.0112875)
(0.000984325 0.0657019 0.00950593)
(0.000191826 0.0359777 0.00411714)
(3.57732e-05 0.047776 -0.00208589)
(0.000548142 0.102317 -0.00436786)
(0.00140679 0.125946 -0.00489001)
(0.00213094 0.130262 -0.00478784)
(0.00264647 0.124052 -0.00454027)
(0.0029403 0.106818 -0.00363805)
(0.0032769 0.0795655 -0.00109581)
(0.00418351 0.0449225 0.00232412)
(0.00543803 0.00895476 0.00438213)
(0.00651926 -0.0221657 0.00436687)
(0.00724952 -0.0463338 0.00319888)
(0.00772856 -0.0645694 0.00184276)
(0.00810057 -0.0785363 0.000716081)
(0.00845713 -0.0893685 -0.000120526)
(0.00882811 -0.097603 -0.000729638)
(0.00921352 -0.103493 -0.00118868)
(0.00960207 -0.107249 -0.00155738)
(0.00998148 -0.109073 -0.00187344)
(0.0103392 -0.109085 -0.00215867)
(0.0106599 -0.107287 -0.00242732)
(0.010924 -0.10357 -0.00269203)
(0.0111055 -0.097782 -0.00296469)
(0.011174 -0.0898272 -0.00325123)
(0.0111014 -0.079761 -0.00354292)
(0.0108655 -0.0677961 -0.00380684)
(0.0104506 -0.0542527 -0.0039714)
(0.00984516 -0.0394607 -0.00391004)
(0.00903777 -0.0236031 -0.00342327)
(0.00801732 -0.00651704 -0.00221915)
(0.00677131 0.0124082 5.41873e-05)
(0.00531046 0.0337341 0.00350708)
(0.00368645 0.055635 0.00724875)
(0.00221205 0.0702009 0.00913335)
(0.000977836 0.0685283 0.00791727)
(0.000147949 0.0375153 0.00336327)
(-6.45704e-05 0.0475038 -0.000823281)
(-0.000130605 0.10067 -0.00281812)
(2.68731e-05 0.123209 -0.00374573)
(0.00020094 0.127311 -0.00363726)
(0.000524802 0.120785 -0.00250646)
(0.0012779 0.100875 0.000445081)
(0.00280674 0.0684726 0.00442356)
(0.00487622 0.0305354 0.00687939)
(0.00674309 -0.00428229 0.00671114)
(0.00803612 -0.0318717 0.00501617)
(0.0088491 -0.0527768 0.00311732)
(0.00941199 -0.0689605 0.00158882)
(0.00988222 -0.0818726 0.000485858)
(0.0103313 -0.092166 -0.000297458)
(0.0107742 -0.10004 -0.000873719)
(0.0112027 -0.105596 -0.00132643)
(0.0116065 -0.109 -0.0017095)
(0.0119775 -0.110437 -0.00205517)
(0.0123062 -0.110009 -0.00238248)
(0.0125774 -0.107683 -0.00270547)
(0.0127681 -0.103305 -0.00303866)
(0.0128476 -0.0966782 -0.00339643)
(0.0127826 -0.0877087 -0.00378634)
(0.012547 -0.0765024 -0.00420077)
(0.0121248 -0.0633438 -0.00460654)
(0.0115088 -0.0486209 -0.00492774)
(0.0106969 -0.0327129 -0.00502762)
(0.00968609 -0.0158363 -0.00469585)
(0.00846736 0.00211169 -0.00364536)