/*--------------------------------*- C++ -*----------------------------------*\
| =========                 |                                                 |
| \\      /  F ield         | OpenFOAM: The Open Source CFD Toolbox           |
|  \\    /   O peration     | Version:  v2012                                 |
|   \\  /    A nd           | Website:  www.openfoam.com                      |
|    \\/     M anipulation  |                                                 |
\*---------------------------------------------------------------------------*/
FoamFile
{
    version     2.0;
    format      ascii;
    class       surfaceScalarField;
    location    "63";
    object      phi;
}
// * * * * * * * * * * * * * * * * * * * * * * * * * * * * * * * * * * * * * //

dimensions      [1 0 -1 0 0 0 0];
oriented        oriented;


internalField   nonuniform List<scalar> 
228225
(
-2.22203e-09
1.60854e-09
3.60569e-10
-6.95729e-09
7.61907e-09
-2.88519e-09
-1.47946e-08
1.15186e-08
-3.68065e-09
-2.57205e-08
1.48848e-08
-3.95809e-09
-3.93108e-08
1.77738e-08
-4.18419e-09
-5.49695e-08
2.01422e-08
-4.48069e-09
-7.21169e-08
2.20053e-08
-4.86034e-09
-9.01466e-08
2.33575e-08
-5.32862e-09
-1.08524e-07
2.42454e-08
-5.8635e-09
-1.26749e-07
2.46827e-08
-6.46163e-09
-1.44373e-07
2.47287e-08
-7.10284e-09
-1.6099e-07
2.43988e-08
-7.78625e-09
-1.76245e-07
2.37561e-08
-8.49507e-09
-1.89841e-07
2.28229e-08
-9.22952e-09
-2.01522e-07
2.16552e-08
-9.97415e-09
-2.11067e-07
2.02757e-08
-1.07299e-08
-2.18325e-07
1.87324e-08
-1.14741e-08
-2.2315e-07
1.70352e-08
-1.22126e-08
-2.2545e-07
1.52324e-08
-1.29306e-08
-2.25176e-07
1.33416e-08
-1.3614e-08
-2.22323e-07
1.1401e-08
-1.42542e-08
-2.16905e-07
9.42582e-09
-1.48459e-08
-2.08978e-07
7.44722e-09
-1.53723e-08
-1.9863e-07
5.47868e-09
-1.58268e-08
-1.85982e-07
3.54777e-09
-1.61963e-08
-1.71177e-07
1.66985e-09
-1.64754e-08
-1.54407e-07
-1.15561e-10
-1.66537e-08
-1.35857e-07
-1.82325e-09
-1.6728e-08
-1.15785e-07
-3.38176e-09
-1.66896e-08
-9.44866e-08
-4.76705e-09
-1.65318e-08
-7.23347e-08
-5.92414e-09
-1.62267e-08
-4.98635e-08
-6.77807e-09
-1.56949e-08
-2.80104e-08
-7.17988e-09
-1.46707e-08
-8.82306e-09
-6.88827e-09
-1.23004e-08
-4.49861e-09
-4.32473e-09
-6.17644e-09
2.21807e-08
-1.43975e-08
-2.25897e-08
4.00005e-08
-1.59668e-08
-4.26073e-08
4.83026e-08
-1.67652e-08
-6.44597e-08
5.43867e-08
-1.7651e-08
-8.68506e-08
5.86097e-08
-1.84452e-08
-1.08891e-07
6.13156e-08
-1.91328e-08
-1.29895e-07
6.27697e-08
-1.97607e-08
-1.49393e-07
6.3199e-08
-2.03435e-08
-1.67029e-07
6.27775e-08
-2.0896e-08
-1.82585e-07
6.16544e-08
-2.1416e-08
-1.95897e-07
5.99515e-08
-2.19116e-08
-2.06887e-07
5.77685e-08
-2.23782e-08
-2.15507e-07
5.5196e-08
-2.28211e-08
-2.21763e-07
5.2314e-08
-2.32336e-08
-2.2568e-07
4.91905e-08
-2.36199e-08
-2.2732e-07
4.58903e-08
-2.39733e-08
-2.26762e-07
4.24684e-08
-2.42966e-08
-2.24104e-07
3.89655e-08
-2.45853e-08
-2.19455e-07
3.54241e-08
-2.48419e-08
-2.12945e-07
3.18923e-08
-2.50602e-08
-2.04709e-07
2.84048e-08
-2.52411e-08
-1.94897e-07
2.49935e-08
-2.53787e-08
-1.8366e-07
2.16845e-08
-2.54744e-08
-1.7116e-07
1.85019e-08
-2.55241e-08
-1.57553e-07
1.54655e-08
-2.55251e-08
-1.43006e-07
1.25937e-08
-2.54695e-08
-1.27673e-07
9.90191e-09
-2.53526e-08
-1.11739e-07
7.40508e-09
-2.51617e-08
-9.53549e-08
5.11737e-09
-2.48822e-08
-7.869e-08
3.05463e-09
-2.44878e-08
-6.19018e-08
1.23654e-09
-2.39498e-08
-4.51574e-08
-3.03195e-10
-2.32195e-08
-2.86931e-08
-1.49838e-09
-2.21451e-08
-1.31212e-08
-2.16381e-09
-2.02947e-08
-1.50308e-09
-1.6118e-08
-3.95335e-09
3.53976e-08
-9.26454e-09
-1.20742e-08
5.92046e-08
-1.10815e-08
-2.15136e-08
6.96283e-08
-1.18862e-08
-3.14922e-08
7.69048e-08
-1.25403e-08
-4.14875e-08
8.17066e-08
-1.31014e-08
-5.11331e-08
8.45856e-08
-1.36241e-08
-6.01765e-08
8.59363e-08
-1.41235e-08
-6.84327e-08
8.60776e-08
-1.46227e-08
-7.57841e-08
8.52473e-08
-1.5119e-08
-8.21472e-08
8.364e-08
-1.56227e-08
-8.74774e-08
8.14062e-08
-1.61237e-08
-9.17558e-08
7.86736e-08
-1.6627e-08
-9.49839e-08
7.55455e-08
-1.71204e-08
-9.71761e-08
7.21119e-08
-1.76066e-08
-9.836e-08
6.84482e-08
-1.80736e-08
-9.85695e-08
6.46216e-08
-1.85229e-08
-9.78453e-08
6.06885e-08
-1.89443e-08
-9.62508e-08
5.67123e-08
-1.93402e-08
-9.38637e-08
5.27373e-08
-1.9702e-08
-9.07502e-08
4.8808e-08
-2.00289e-08
-8.69886e-08
4.4957e-08
-2.03134e-08
-8.265e-08
4.12128e-08
-2.05571e-08
-7.78126e-08
3.76001e-08
-2.07537e-08
-7.25471e-08
3.41392e-08
-2.09044e-08
-6.69151e-08
3.0839e-08
-2.10033e-08
-6.09841e-08
2.77103e-08
-2.10498e-08
-5.48044e-08
2.47601e-08
-2.10366e-08
-4.84302e-08
2.19893e-08
-2.09586e-08
-4.19046e-08
1.93942e-08
-2.08021e-08
-3.52643e-08
1.69643e-08
-2.05518e-08
-2.853e-08
1.46827e-08
-2.01796e-08
-2.1719e-08
1.25245e-08
-1.96385e-08
-1.4845e-08
1.04467e-08
-1.88205e-08
-7.90913e-09
8.38395e-09
-1.74828e-08
4.93398e-09
-1.43455e-08
-3.63499e-09
3.99298e-08
-8.97407e-10
-6.89074e-09
6.4887e-08
-2.42638e-09
-9.84194e-09
7.59453e-08
-3.36644e-09
-1.26711e-08
8.37486e-08
-4.01309e-09
-1.545e-08
8.90303e-08
-4.54693e-09
-1.81365e-08
9.23403e-08
-5.0668e-09
-2.068e-08
9.40955e-08
-5.6173e-09
-2.30241e-08
9.46172e-08
-6.19508e-09
-2.51286e-08
9.41616e-08
-6.809e-09
-2.69669e-08
9.29246e-08
-7.44726e-09
-2.85114e-08
9.10672e-08
-8.11625e-09
-2.97513e-08
8.87149e-08
-8.80087e-09
-3.06809e-08
8.59768e-08
-9.50205e-09
-3.13035e-08
8.29382e-08
-1.02045e-08
-3.16257e-08
7.96784e-08
-1.09075e-08
-3.16654e-08
7.6258e-08
-1.15969e-08
-3.14379e-08
7.27341e-08
-1.2272e-08
-3.09772e-08
6.91666e-08
-1.29157e-08
-3.03145e-08
6.56023e-08
-1.35277e-08
-2.94828e-08
6.20733e-08
-1.40975e-08
-2.85121e-08
5.86104e-08
-1.4625e-08
-2.74338e-08
5.5236e-08
-1.51012e-08
-2.62761e-08
5.19694e-08
-1.55261e-08
-2.50685e-08
4.8823e-08
-1.58923e-08
-2.3825e-08
4.57965e-08
-1.62014e-08
-2.2556e-08
4.28895e-08
-1.64468e-08
-2.1262e-08
4.00925e-08
-1.66277e-08
-1.99215e-08
3.73866e-08
-1.67372e-08
-1.84938e-08
3.47376e-08
-1.67713e-08
-1.691e-08
3.20984e-08
-1.67178e-08
-1.5061e-08
2.93968e-08
-1.65622e-08
-1.27835e-08
2.65336e-08
-1.62887e-08
-9.79611e-09
2.33628e-08
-1.5902e-08
-5.81246e-09
1.9718e-08
-1.53191e-08
1.25384e-08
-1.34157e-08
-4.58978e-09
4.03296e-08
4.19002e-09
-5.96649e-09
6.32431e-08
3.02079e-09
-5.74096e-09
7.35931e-08
2.12683e-09
-4.634e-09
8.1103e-08
1.53716e-09
-3.05587e-09
8.63827e-08
1.07157e-09
-1.22759e-09
8.99164e-08
5.93679e-10
7.16942e-10
9.20722e-08
8.00095e-11
2.66985e-09
9.31399e-08
-4.75703e-10
4.56189e-09
9.33383e-08
-1.06989e-09
6.35226e-09
9.28463e-08
-1.71077e-09
8.00116e-09
9.18003e-08
-2.38302e-09
9.48636e-09
9.03171e-08
-3.08809e-09
1.07893e-08
8.84862e-08
-3.81083e-09
1.18875e-08
8.63884e-08
-4.54969e-09
1.27695e-08
8.40858e-08
-5.28784e-09
1.34133e-08
8.16362e-08
-6.02319e-09
1.38052e-08
7.90843e-08
-6.74187e-09
1.394e-08
7.6474e-08
-7.44166e-09
1.38124e-08
7.38383e-08
-8.1102e-09
1.34263e-08
7.12066e-08
-8.74604e-09
1.27752e-08
6.86e-08
-9.33914e-09
1.18646e-08
6.60366e-08
-9.88877e-09
1.06946e-08
6.35249e-08
-1.0387e-08
9.28434e-09
6.10681e-08
-1.08338e-08
7.64281e-09
5.86604e-08
-1.12231e-08
5.8006e-09
5.62867e-08
-1.15554e-08
3.79987e-09
5.392e-08
-1.18261e-08
1.70296e-09
5.15182e-08
-1.20358e-08
-3.97005e-10
4.90183e-08
-1.21802e-08
-2.37514e-09
4.63333e-08
-1.22561e-08
-4.0635e-09
4.33381e-08
-1.22538e-08
-5.20654e-09
3.98615e-08
-1.21845e-08
-5.40028e-09
3.56667e-08
-1.21112e-08
-4.08948e-09
3.04486e-08
-1.20392e-08
1.94833e-08
-1.10358e-08
-3.4844e-09
3.81953e-08
5.61916e-09
-3.79994e-09
5.88655e-08
4.69302e-09
-2.44994e-09
6.83423e-08
3.89998e-09
-1.29582e-10
7.5379e-08
3.40384e-09
2.71565e-09
8.05247e-08
3.01262e-09
5.83283e-09
8.41863e-08
2.61321e-09
9.04395e-09
8.66907e-08
2.16971e-09
1.22201e-08
8.82753e-08
1.68895e-09
1.52577e-08
8.91314e-08
1.16789e-09
1.80868e-08
8.94025e-08
6.15054e-10
2.06528e-08
8.92102e-08
2.48189e-11
2.29044e-08
8.86444e-08
-5.80292e-10
2.48143e-08
8.7785e-08
-1.20862e-09
2.63564e-08
8.66921e-08
-1.8456e-09
2.75127e-08
8.54198e-08
-2.49091e-09
2.82732e-08
8.40085e-08
-3.13167e-09
2.86263e-08
8.24959e-08
-3.7653e-09
2.85704e-08
8.09098e-08
-4.38077e-09
2.81104e-08
7.92755e-08
-4.97613e-09
2.72479e-08
7.76101e-08
-5.54205e-09
2.59984e-08
7.59285e-08
-6.07716e-09
2.43702e-08
7.42377e-08
-6.57385e-09
2.23875e-08
7.25386e-08
-7.03173e-09
2.00773e-08
7.08235e-08
-7.44506e-09
1.74755e-08
6.90759e-08
-7.81414e-09
1.46296e-08
6.72675e-08
-8.13486e-09
1.16036e-08
6.5355e-08
-8.40834e-09
8.47612e-09
6.32766e-08
-8.63219e-09
5.35938e-09
6.09438e-08
-8.80793e-09
2.38612e-09
5.82366e-08
-8.93168e-09
-2.60474e-10
5.49866e-08
-9.00116e-09
-2.33847e-09
5.09705e-08
-9.03085e-09
-3.44527e-09
4.58761e-08
-9.10341e-09
-3.04964e-09
3.93085e-08
-9.25381e-09
2.51687e-08
-8.73628e-09
-1.89164e-09
3.53593e-08
4.72741e-09
-1.51719e-09
5.45625e-08
3.92934e-09
9.89629e-11
6.34615e-08
3.26412e-09
2.42801e-09
7.01949e-08
2.85527e-09
5.1421e-09
7.52625e-08
2.54758e-09
8.05346e-09
7.90405e-08
2.23591e-09
1.10263e-08
8.18163e-08
1.90096e-09
1.39553e-08
8.38088e-08
1.53741e-09
1.6752e-08
8.51825e-08
1.15123e-09
1.93494e-08
8.60677e-08
7.38876e-10
2.16904e-08
8.65617e-08
3.06414e-10
2.37377e-08
8.6745e-08
-1.46661e-10
2.54497e-08
8.66773e-08
-6.04724e-10
2.68078e-08
8.64101e-08
-1.07544e-09
2.77939e-08
8.59812e-08
-1.54683e-09
2.8395e-08
8.54249e-08
-2.01818e-09
2.86077e-08
8.47654e-08
-2.48074e-09
2.84245e-08
8.40241e-08
-2.93321e-09
2.78546e-08
8.3215e-08
-3.36813e-09
2.69004e-08
8.23487e-08
-3.78466e-09
2.55763e-08
8.14295e-08
-4.17655e-09
2.39003e-08
8.04565e-08
-4.54355e-09
2.18993e-08
7.94218e-08
-4.88064e-09
1.96009e-08
7.83093e-08
-5.18823e-09
1.7047e-08
7.70928e-08
-5.46257e-09
1.4286e-08
7.57327e-08
-5.70476e-09
1.13821e-08
7.41729e-08
-5.91233e-09
8.41037e-09
7.23349e-08
-6.08732e-09
5.47115e-09
7.01109e-08
-6.22822e-09
2.68961e-09
6.73541e-08
-6.33561e-09
2.18639e-10
6.38642e-08
-6.40566e-09
-1.72871e-09
5.93734e-08
-6.45516e-09
-2.81516e-09
5.35151e-08
-6.55422e-09
-2.57672e-09
4.58097e-08
-6.73913e-09
2.90234e-08
-6.43087e-09
-7.71009e-10
3.28821e-08
3.24953e-09
-3.77729e-10
5.15543e-08
2.61379e-09
7.23474e-10
6.0247e-08
2.11321e-09
2.22037e-09
6.68845e-08
1.81313e-09
3.93088e-09
7.19645e-08
1.58674e-09
5.75482e-09
7.5851e-08
1.36636e-09
7.61842e-09
7.88233e-08
1.1309e-09
9.45676e-09
8.10864e-08
8.83038e-10
1.12209e-08
8.27992e-08
6.19787e-10
1.28638e-08
8.40789e-08
3.44617e-10
1.43531e-08
8.50177e-08
5.44797e-11
1.56542e-08
8.56836e-08
-2.39734e-10
1.67416e-08
8.61316e-08
-5.41216e-10
1.75955e-08
8.64019e-08
-8.4621e-10
1.82017e-08
8.65285e-08
-1.15302e-09
1.85464e-08
8.6535e-08
-1.45567e-09
1.86253e-08
8.64407e-08
-1.75376e-09
1.84336e-08
8.62577e-08
-2.04169e-09
1.79724e-08
8.59953e-08
-2.31953e-09
1.72472e-08
8.56562e-08
-2.58245e-09
1.62678e-08
8.52392e-08
-2.8309e-09
1.50488e-08
8.47366e-08
-3.06089e-09
1.36098e-08
8.41341e-08
-3.27336e-09
1.19765e-08
8.34088e-08
-3.46515e-09
1.01782e-08
8.25271e-08
-3.63766e-09
8.25776e-09
8.14419e-08
-3.78852e-09
6.26296e-09
8.00869e-08
-3.91965e-09
4.25489e-09
7.83731e-08
-4.02957e-09
2.3083e-09
7.61781e-08
-4.12056e-09
5.14353e-10
7.3339e-08
-4.19023e-09
-1.01686e-09
6.96329e-08
-4.23887e-09
-2.13284e-09
6.47657e-08
-4.2755e-09
-2.59934e-09
5.83337e-08
-4.35251e-09
-2.1114e-09
4.98089e-08
-4.48681e-09
3.11756e-08
-4.26383e-09
-4.8959e-10
3.10571e-08
2.31472e-09
-4.79701e-10
4.96278e-08
1.91625e-09
-1.21342e-10
5.82781e-08
1.61234e-09
4.25086e-10
6.49062e-08
1.43006e-09
1.08824e-09
7.00109e-08
1.29134e-09
1.82502e-09
7.39627e-08
1.15236e-09
2.60578e-09
7.70359e-08
1.00652e-09
3.40247e-09
7.94375e-08
8.51209e-10
4.19136e-09
8.13209e-08
6.89971e-10
4.94681e-09
8.28029e-08
5.2065e-10
5.64763e-09
8.39698e-08
3.46899e-10
6.27656e-09
8.48882e-08
1.66735e-10
6.81596e-09
8.56068e-08
-1.33547e-11
7.24685e-09
8.61635e-08
-1.93502e-10
7.55962e-09
8.65853e-08
-3.6994e-10
7.74772e-09
8.68933e-08
-5.4565e-10
7.80271e-09
8.71011e-08
-7.15434e-10
7.72073e-09
8.722e-08
-8.79618e-10
7.49614e-09
8.72528e-08
-1.03429e-09
7.13416e-09
8.7199e-08
-1.18077e-09
6.63808e-09
8.70523e-08
-1.31586e-09
6.01308e-09
8.68013e-08
-1.44119e-09
5.2762e-09
8.6427e-08
-1.55414e-09
4.43763e-09
8.59026e-08
-1.65669e-09
3.523e-09
8.51897e-08
-1.74675e-09
2.55545e-09
8.42364e-08
-1.82665e-09
1.56489e-09
8.29714e-08
-1.89481e-09
5.92123e-10
8.12998e-08
-1.95396e-09
-3.18702e-10
7.90925e-08
-2.00292e-09
-1.11457e-09
7.61782e-08
-2.0438e-09
-1.73221e-09
7.2325e-08
-2.07434e-09
-2.08796e-09
6.72257e-08
-2.10394e-09
-2.05197e-09
6.04619e-08
-2.16294e-09
-1.46503e-09
5.14794e-08
-2.25951e-09
3.18491e-08
-2.13771e-09
-7.60253e-10
2.97432e-08
2.07387e-09
-1.27416e-09
4.81838e-08
1.95833e-09
-1.6075e-09
5.6768e-08
1.84328e-09
-1.82662e-09
6.33472e-08
1.7783e-09
-1.95663e-09
6.84218e-08
1.71891e-09
-2.00793e-09
7.23617e-08
1.6525e-09
-1.99075e-09
7.54421e-08
1.57514e-09
-1.91067e-09
7.78683e-08
1.49111e-09
-1.78478e-09
7.97941e-08
1.39992e-09
-1.62131e-09
8.13337e-08
1.30526e-09
-1.43035e-09
8.25736e-08
1.2062e-09
-1.22499e-09
8.3577e-08
1.10648e-09
-1.01766e-09
8.43928e-08
1.0052e-09
-8.15702e-10
8.50556e-08
9.05931e-10
-6.29221e-10
8.55914e-08
8.08477e-10
-4.70923e-10
8.60176e-08
7.16338e-10
-3.4423e-10
8.63472e-08
6.28446e-10
-2.57733e-10
8.6586e-08
5.46607e-10
-2.11711e-10
8.6737e-08
4.69367e-10
-2.08491e-10
8.67963e-08
3.99598e-10
-2.46029e-10
8.67567e-08
3.35276e-10
-3.29375e-10
8.66035e-08
2.78699e-10
-4.43691e-10
8.63168e-08
2.27434e-10
-5.93311e-10
8.58669e-08
1.83278e-10
-7.60273e-10
8.52146e-08
1.43443e-10
-9.38969e-10
8.43054e-08
1.09269e-10
-1.11237e-09
8.30677e-08
7.80725e-11
-1.26903e-09
8.14045e-08
5.07662e-11
-1.38646e-09
7.91872e-08
2.35403e-11
-1.44846e-09
7.62435e-08
-2.79942e-12
-1.43611e-09
7.23431e-08
-3.17747e-11
-1.31977e-09
6.71793e-08
-6.76785e-11
-1.06331e-09
6.03378e-08
-1.33667e-10
-6.21865e-10
5.12669e-08
-2.29515e-10
3.14878e-08
-2.59634e-10
-1.13792e-09
2.86912e-08
2.19004e-09
-2.05757e-09
4.67803e-08
2.32363e-09
-2.84293e-09
5.51928e-08
2.3599e-09
-3.51755e-09
6.16375e-08
2.38495e-09
-4.09037e-09
6.66045e-08
2.38925e-09
-4.56087e-09
7.0459e-08
2.37424e-09
-4.93639e-09
7.34708e-08
2.3464e-09
-5.22013e-09
7.58438e-08
2.30746e-09
-5.4151e-09
7.77279e-08
2.26246e-09
-5.53062e-09
7.92371e-08
2.21157e-09
-5.57062e-09
8.04549e-08
2.15879e-09
-5.54267e-09
8.14454e-08
2.10363e-09
-5.45346e-09
8.22543e-08
2.04966e-09
-5.31246e-09
8.29173e-08
1.996e-09
-5.1244e-09
8.34583e-08
1.94585e-09
-4.90147e-09
8.38957e-08
1.89791e-09
-4.64913e-09
8.42399e-08
1.85482e-09
-4.37481e-09
8.44962e-08
1.81572e-09
-4.08488e-09
8.46647e-08
1.78281e-09
-3.78513e-09
8.47425e-08
1.75396e-09
-3.4799e-09
8.47199e-08
1.73108e-09
-3.17222e-09
8.45835e-08
1.71163e-09
-2.86311e-09
8.43111e-08
1.69714e-09
-2.55539e-09
8.38742e-08
1.68469e-09
-2.2484e-09
8.32322e-08
1.6754e-09
-1.94157e-09
8.23329e-08
1.66599e-09
-1.63644e-09
8.11044e-08
1.65715e-09
-1.32829e-09
7.94536e-08
1.64505e-09
-1.0276e-09
7.72541e-08
1.62969e-09
-7.30617e-10
7.43405e-08
1.60654e-09
-4.50439e-10
7.04891e-08
1.57455e-09
-2.0242e-10
6.54049e-08
1.52472e-09
4.75634e-12
5.86891e-08
1.44202e-09
1.43439e-10
4.98105e-08
1.31808e-09
3.04989e-08
1.13194e-09
-1.31845e-09
2.78222e-08
2.1889e-09
-2.41173e-09
4.53983e-08
2.474e-09
-3.382e-09
5.35676e-08
2.59506e-09
-4.23739e-09
5.9821e-08
2.67178e-09
-4.97662e-09
6.46348e-08
2.70962e-09
-5.60422e-09
6.83615e-08
2.72398e-09
-6.11986e-09
7.12662e-08
2.72065e-09
-6.52645e-09
7.35452e-08
2.7063e-09
-6.83003e-09
7.53473e-08
2.68278e-09
-7.02813e-09
7.67822e-08
2.65475e-09
-7.13069e-09
7.79336e-08
2.62267e-09
-7.13752e-09
7.88625e-08
2.59025e-09
-7.05675e-09
7.96162e-08
2.55723e-09
-6.89309e-09
8.02277e-08
2.52682e-09
-6.65661e-09
8.07227e-08
2.49822e-09
-6.3519e-09
8.11172e-08
2.47423e-09
-5.98907e-09
8.14234e-08
2.45357e-09
-5.57632e-09
8.16456e-08
2.43856e-09
-5.12466e-09
8.17856e-08
2.42741e-09
-4.64347e-09
8.18382e-08
2.42195e-09
-4.13815e-09
8.17956e-08
2.41988e-09
-3.6193e-09
8.1642e-08
2.42252e-09
-3.09272e-09
8.13575e-08
2.4271e-09
-2.56473e-09
8.09122e-08
2.43451e-09
-2.04286e-09
8.02684e-08
2.44154e-09
-1.53199e-09
7.93733e-08
2.44863e-09
-1.03904e-09
7.81598e-08
2.4521e-09
-5.74284e-10
7.65362e-08
2.45174e-09
-1.46724e-10
7.43838e-08
2.44305e-09
2.27493e-10
7.15426e-08
2.4247e-09
5.23945e-10
6.78019e-08
2.39057e-09
7.1589e-10
6.28786e-08
2.33514e-09
7.66719e-10
5.63975e-08
2.24097e-09
6.24076e-10
4.7853e-08
2.09904e-09
2.93129e-08
1.811e-09
-1.16822e-09
2.71836e-08
1.80732e-09
-2.18032e-09
4.42963e-08
2.11292e-09
-3.10743e-09
5.22446e-08
2.2515e-09
-3.94403e-09
5.83229e-08
2.33384e-09
-4.67848e-09
6.29922e-08
2.37641e-09
-5.30534e-09
6.65967e-08
2.39374e-09
-5.82832e-09
6.9393e-08
2.39531e-09
-6.24133e-09
7.15751e-08
2.38435e-09
-6.54795e-09
7.32868e-08
2.36604e-09
-6.74487e-09
7.4638e-08
2.34179e-09
-6.83665e-09
7.57093e-08
2.31553e-09
-6.82606e-09
7.65635e-08
2.28773e-09
-6.7151e-09
7.72455e-08
2.26164e-09
-6.51665e-09
7.77908e-08
2.23714e-09
-6.2319e-09
7.82229e-08
2.21699e-09
-5.87664e-09
7.85607e-08
2.20054e-09
-5.4577e-09
7.88142e-08
2.19008e-09
-4.98776e-09
7.89905e-08
2.18436e-09
-4.47617e-09
7.90893e-08
2.18512e-09
-3.93506e-09
7.91079e-08
2.19054e-09
-3.37852e-09
7.90362e-08
2.20179e-09
-2.81346e-09
7.88612e-08
2.21649e-09
-2.25252e-09
7.85609e-08
2.23528e-09
-1.70379e-09
7.81084e-08
2.25529e-09
-1.17698e-09
7.74642e-08
2.2767e-09
-6.78033e-10
7.65795e-08
2.29619e-09
-2.17929e-10
7.53868e-08
2.31345e-09
1.922e-10
7.38001e-08
2.3246e-09
5.45259e-10
7.1703e-08
2.32854e-09
8.23377e-10
6.89443e-08
2.32035e-09
1.00684e-09
6.53203e-08
2.29735e-09
1.07202e-09
6.05629e-08
2.25113e-09
9.86865e-10
5.43126e-08
2.16997e-09
7.10979e-10
4.60896e-08
2.03964e-09
2.82729e-08
1.75087e-09
-7.60464e-10
2.69145e-08
1.02807e-09
-1.51831e-09
4.38122e-08
1.24309e-09
-2.26998e-09
5.16547e-08
1.34184e-09
-2.98381e-09
5.76416e-08
1.39543e-09
-3.63809e-09
6.22294e-08
1.41619e-09
-4.2146e-09
6.57561e-08
1.41838e-09
-4.70815e-09
6.8478e-08
1.40685e-09
-5.10272e-09
7.05856e-08
1.3865e-09
-5.40083e-09
7.22242e-08
1.35904e-09
-5.59219e-09
7.35016e-08
1.32833e-09
-5.67935e-09
7.4501e-08
1.29537e-09
-5.66291e-09
7.52839e-08
1.26341e-09
-5.54707e-09
7.5898e-08
1.23294e-09
-5.34308e-09
7.63775e-08
1.20676e-09
-5.0546e-09
7.67494e-08
1.1849e-09
-4.69316e-09
7.70307e-08
1.16965e-09
-4.27407e-09
7.72347e-08
1.16047e-09
-3.8097e-09
7.73665e-08
1.15907e-09
-3.31274e-09
7.74287e-08
1.16429e-09
-2.79982e-09
7.74165e-08
1.17719e-09
-2.28155e-09
7.73223e-08
1.19596e-09
-1.77277e-09
7.71308e-08
1.22104e-09
-1.28167e-09
7.68223e-08
1.25004e-09
-8.26425e-10
7.63673e-08
1.28289e-09
-4.06124e-10
7.57293e-08
1.31673e-09
-3.68566e-11
7.48571e-08
1.35106e-09
2.8201e-10
7.36866e-08
1.38266e-09
5.40368e-10
7.21307e-08
1.41061e-09
7.34383e-10
7.00775e-08
1.43124e-09
8.58838e-10
6.73766e-08
1.44307e-09
9.05907e-10
6.38319e-08
1.4415e-09
8.66638e-10
5.91795e-08
1.42293e-09
7.29923e-10
5.30721e-08
1.37696e-09
4.8203e-10
4.50416e-08
1.29529e-09
2.76543e-08
1.10063e-09
-2.54579e-10
2.71156e-08
5.31078e-11
-6.99728e-10
4.41474e-08
1.11341e-10
-1.2301e-09
5.20428e-08
1.40871e-10
-1.78934e-09
5.80574e-08
1.44881e-10
-2.34267e-09
6.26504e-08
1.31242e-10
-2.85771e-09
6.61657e-08
1.06222e-10
-3.3137e-09
6.88612e-08
7.38102e-11
-3.6958e-09
7.09321e-08
3.50629e-11
-3.99036e-09
7.25246e-08
-7.12182e-12
-4.18726e-09
7.3751e-08
-5.16407e-11
-4.285e-09
7.46947e-08
-9.56746e-11
-4.2835e-09
7.54211e-08
-1.38236e-10
-4.1865e-09
7.5978e-08
-1.76615e-10
-4.00239e-09
7.64033e-08
-2.10175e-10
-3.74016e-09
7.67232e-08
-2.36593e-10
-3.4107e-09
7.69583e-08
-2.55715e-10
-3.0303e-09
7.71204e-08
-2.65775e-10
-2.61559e-09
7.72176e-08
-2.67265e-10
-2.1785e-09
7.7251e-08
-2.59083e-10
-1.73619e-09
7.72178e-08
-2.42437e-10
-1.30545e-09
7.71085e-08
-2.16935e-10
-9.0017e-10
7.69093e-08
-1.84445e-10
-5.30769e-10
7.6598e-08
-1.45189e-10
-2.09271e-10
7.61468e-08
-1.01572e-10
6.00324e-11
7.55159e-08
-5.42816e-11
2.67332e-10
7.46555e-08
-6.06057e-12
4.12896e-10
7.34983e-08
4.22194e-11
4.98463e-10
7.19584e-08
8.76923e-11
5.24662e-10
6.9921e-08
1.29376e-10
5.00009e-10
6.72369e-08
1.64575e-10
4.33176e-10
6.37071e-08
1.9241e-10
3.32454e-10
5.90697e-08
2.09894e-10
2.15395e-10
5.29751e-08
2.14296e-10
9.7969e-11
4.49572e-08
2.01567e-10
2.75922e-08
1.59951e-10
1.9159e-10
2.77891e-08
-8.6472e-10
2.31872e-11
4.5278e-08
-9.63309e-10
-3.03552e-10
5.33757e-08
-1.00542e-09
-7.24441e-10
5.95287e-08
-1.05022e-09
-1.18755e-09
6.42112e-08
-1.09917e-09
-1.64755e-09
6.77777e-08
-1.15056e-09
-2.07827e-09
7.04957e-08
-1.205e-09
-2.44941e-09
7.25662e-08
-1.26143e-09
-2.74828e-09
7.41425e-08
-1.31963e-09
-2.95944e-09
7.53398e-08
-1.37749e-09
-3.07854e-09
7.62473e-08
-1.43403e-09
-3.10186e-09
7.6932e-08
-1.48683e-09
-3.03545e-09
7.7446e-08
-1.53485e-09
-2.88284e-09
7.7828e-08
-1.57576e-09
-2.65947e-09
7.81076e-08
-1.60878e-09
-2.37383e-09
7.83054e-08
-1.63202e-09
-2.04526e-09
7.84361e-08
-1.64531e-09
-1.68583e-09
7.85069e-08
-1.6474e-09
-1.31708e-09
7.85209e-08
-1.63884e-09
-9.53995e-10
7.84738e-08
-1.61916e-09
-6.13486e-10
7.83574e-08
-1.58965e-09
-3.09842e-10
7.81557e-08
-1.55058e-09
-5.40372e-11
7.78474e-08
-1.50388e-09
1.41405e-10
7.74011e-08
-1.45038e-09
2.72722e-10
7.67775e-08
-1.39244e-09
3.35965e-10
7.59228e-08
-1.33116e-09
3.3521e-10
7.4769e-08
-1.26898e-09
2.75609e-10
7.32254e-08
-1.20686e-09
1.66551e-10
7.11751e-08
-1.1468e-09
3.09843e-11
6.84632e-08
-1.089e-09
-1.1474e-10
6.48865e-08
-1.03438e-09
-2.39599e-10
6.01751e-08
-9.81593e-10
-3.05136e-10
5.39716e-08
-9.296e-10
-2.71441e-10
4.57977e-08
-8.7391e-10
2.80827e-08
-7.62135e-10
4.68323e-10
2.88299e-08
-1.50775e-09
4.83247e-10
4.69867e-08
-1.72487e-09
2.94483e-10
5.53843e-08
-1.82083e-09
-2.42786e-11
6.17512e-08
-1.90339e-09
-4.14191e-10
6.65803e-08
-1.97894e-09
-8.30011e-10
7.02435e-08
-2.05147e-09
-1.22932e-09
7.30185e-08
-2.12269e-09
-1.5863e-09
7.51173e-08
-2.19386e-09
-1.87895e-09
7.66991e-08
-2.26437e-09
-2.09334e-09
7.78868e-08
-2.33367e-09
-2.21908e-09
7.87731e-08
-2.39987e-09
-2.25584e-09
7.94303e-08
-2.46176e-09
-2.20464e-09
7.99127e-08
-2.51715e-09
-2.07634e-09
8.02627e-08
-2.56483e-09
-1.87664e-09
8.05113e-08
-2.60283e-09
-1.62303e-09
8.06817e-08
-2.63038e-09
-1.32892e-09
8.07888e-08
-2.64608e-09
-1.01414e-09
8.08418e-08
-2.64983e-09
-6.95243e-10
8.08427e-08
-2.64099e-09
-3.91252e-10
8.07889e-08
-2.62025e-09
-1.1446e-10
8.06703e-08
-2.58775e-09
1.13991e-10
8.04712e-08
-2.54496e-09
2.86112e-10
8.01676e-08
-2.49268e-09
3.90954e-10
7.97281e-08
-2.43293e-09
4.28064e-10
7.91093e-08
-2.36695e-09
3.91365e-10
7.82561e-08
-2.29693e-09
2.87945e-10
7.70955e-08
-2.22412e-09
1.29875e-10
7.55338e-08
-2.15034e-09
-6.60415e-11
7.34474e-08
-2.07613e-09
-2.77335e-10
7.06761e-08
-2.00205e-09
-4.71567e-10
6.70066e-08
-1.92681e-09
-6.07702e-10
6.21599e-08
-1.84817e-09
-6.3749e-10
5.57625e-08
-1.76023e-09
-5.05039e-10
4.73194e-08
-1.65438e-09
2.90047e-08
-1.42784e-09
5.38634e-10
3.00757e-08
-1.78476e-09
6.21553e-10
4.89586e-08
-2.05328e-09
4.93329e-10
5.76851e-08
-2.17395e-09
2.27591e-10
6.42895e-08
-2.27365e-09
-1.13386e-10
6.92855e-08
-2.36194e-09
-4.87419e-10
7.30613e-08
-2.44428e-09
-8.53202e-10
7.59082e-08
-2.52409e-09
-1.1816e-09
7.80472e-08
-2.60237e-09
-1.44891e-09
7.96465e-08
-2.67955e-09
-1.6416e-09
8.08344e-08
-2.7545e-09
-1.75127e-09
8.17096e-08
-2.82619e-09
-1.7762e-09
8.23476e-08
-2.89267e-09
-1.71961e-09
8.28074e-08
-2.9525e-09
-1.58565e-09
8.3133e-08
-3.00369e-09
-1.38917e-09
8.33585e-08
-3.04501e-09
-1.13907e-09
8.3508e-08
-3.07487e-09
-8.55368e-10
8.35984e-08
-3.0926e-09
-5.55091e-10
8.36389e-08
-3.09734e-09
-2.56582e-10
8.36328e-08
-3.08917e-09
2.38361e-11
8.35764e-08
-3.06802e-09
2.6974e-10
8.34599e-08
-3.03481e-09
4.6424e-10
8.3266e-08
-2.99023e-09
5.99512e-10
8.297e-08
-2.93588e-09
6.62054e-10
8.25375e-08
-2.87303e-09
6.52039e-10
8.19238e-08
-2.80367e-09
5.67742e-10
8.10696e-08
-2.72929e-09
4.14844e-10
7.9899e-08
-2.65179e-09
2.09377e-10
7.83125e-08
-2.57223e-09
-3.29496e-11
7.61815e-08
-2.49167e-09
-2.84632e-10
7.33372e-08
-2.40972e-09
-5.11005e-10
6.9558e-08
-2.32531e-09
-6.67084e-10
6.45518e-08
-2.23471e-09
-7.03462e-10
5.79297e-08
-2.13113e-09
-5.56646e-10
4.91765e-08
-2.00354e-09
3.01762e-08
-1.72824e-09
4.5009e-10
3.13326e-08
-1.70727e-09
4.96811e-10
5.08719e-08
-1.96027e-09
3.62584e-10
5.98964e-08
-2.07564e-09
1.05998e-10
6.67169e-08
-2.17263e-09
-2.14566e-10
7.18653e-08
-2.2591e-09
-5.57687e-10
7.57451e-08
-2.34065e-09
-8.87202e-10
7.86582e-08
-2.42e-09
-1.17669e-09
8.08355e-08
-2.49845e-09
-1.40522e-09
8.24517e-08
-2.57581e-09
-1.56257e-09
8.36414e-08
-2.65136e-09
-1.63509e-09
8.45075e-08
-2.72353e-09
-1.62705e-09
8.51301e-08
-2.79081e-09
-1.53959e-09
8.55704e-08
-2.85127e-09
-1.37838e-09
8.5876e-08
-2.90334e-09
-1.15664e-09
8.60821e-08
-2.94533e-09
-8.88885e-10
8.62151e-08
-2.97609e-09
-5.86869e-10
8.62925e-08
-2.99448e-09
-2.73912e-10
8.63247e-08
-3.00007e-09
3.66096e-11
8.63149e-08
-2.99249e-09
3.25899e-10
8.62595e-08
-2.97211e-09
5.78433e-10
8.61479e-08
-2.93941e-09
7.75996e-10
8.59622e-08
-2.8955e-09
9.13081e-10
8.56759e-08
-2.84156e-09
9.74878e-10
8.52532e-08
-2.77929e-09
9.6499e-10
8.46465e-08
-2.71027e-09
8.76248e-10
8.37941e-08
-2.63642e-09
7.17512e-10
8.26157e-08
-2.55926e-09
5.04048e-10
8.10082e-08
-2.48034e-09
2.48166e-10
7.88364e-08
-2.40038e-09
-2.1144e-11
7.59256e-08
-2.31952e-09
-2.67467e-10
7.20445e-08
-2.23649e-09
-4.6127e-10
6.68907e-08
-2.14833e-09
-5.42023e-10
6.00603e-08
-2.04854e-09
-4.58356e-10
5.10208e-08
-1.92827e-09
3.13884e-08
-1.67017e-09
2.53747e-10
3.2446e-08
-1.36756e-09
1.99965e-10
5.2479e-08
-1.55316e-09
8.25833e-12
6.17284e-08
-1.64052e-09
-2.66557e-10
6.87116e-08
-1.71918e-09
-5.82772e-10
7.39739e-08
-1.79292e-09
-9.01631e-10
7.79296e-08
-1.86497e-09
-1.19631e-09
8.08895e-08
-1.93712e-09
-1.44156e-09
8.30914e-08
-2.00976e-09
-1.62463e-09
8.47155e-08
-2.0825e-09
-1.73012e-09
8.59011e-08
-2.1541e-09
-1.7539e-09
8.67551e-08
-2.22308e-09
-1.69665e-09
8.73605e-08
-2.28761e-09
-1.56226e-09
8.77815e-08
-2.34595e-09
-1.35773e-09
8.80675e-08
-2.39628e-09
-1.09553e-09
8.82559e-08
-2.43713e-09
-7.86175e-10
8.8374e-08
-2.46712e-09
-4.50513e-10
8.84407e-08
-2.48536e-09
-9.90463e-11
8.84667e-08
-2.49117e-09
2.42142e-10
8.84556e-08
-2.48443e-09
5.64256e-10
8.84036e-08
-2.46527e-09
8.48727e-10
8.82997e-08
-2.43435e-09
1.07521e-09
8.81249e-08
-2.3926e-09
1.24214e-09
8.78518e-08
-2.34135e-09
1.33457e-09
8.74426e-08
-2.28212e-09
1.35039e-09
8.68478e-08
-2.21669e-09
1.28787e-09
8.60031e-08
-2.14681e-09
1.15361e-09
8.48253e-08
-2.07431e-09
9.54034e-10
8.32071e-08
-2.00067e-09
7.07249e-10
8.10095e-08
-1.92709e-09
4.3713e-10
7.80517e-08
-1.85396e-09
1.64249e-10
7.4096e-08
-1.78088e-09
-6.91547e-11
6.88314e-08
-1.70588e-09
-2.2809e-10
6.18431e-08
-1.62513e-09
-2.59052e-10
5.2586e-08
-1.53413e-09
3.24739e-08
-1.34445e-09
2.0598e-11
3.33123e-08
-8.88028e-10
-1.59339e-10
5.36387e-08
-9.77769e-10
-4.2941e-10
6.30214e-08
-1.02435e-09
-7.39866e-10
7.00995e-08
-1.07605e-09
-1.06141e-09
7.54254e-08
-1.13063e-09
-1.36566e-09
7.94202e-08
-1.18824e-09
-1.62364e-09
8.24001e-08
-1.24894e-09
-1.82941e-09
8.46069e-08
-1.31227e-09
-1.95983e-09
8.62249e-08
-1.37716e-09
-2.01453e-09
8.73966e-08
-1.4421e-09
-1.98556e-09
8.82317e-08
-1.50531e-09
-1.87633e-09
8.88155e-08
-1.56493e-09
-1.68838e-09
8.92143e-08
-1.6191e-09
-1.43435e-09
8.94792e-08
-1.6661e-09
-1.12525e-09
8.96491e-08
-1.70436e-09
-7.68356e-10
8.97526e-08
-1.73261e-09
-3.87704e-10
8.98091e-08
-1.74991e-09
5.48877e-12
8.98301e-08
-1.75566e-09
3.90279e-10
8.98192e-08
-1.74967e-09
7.54265e-10
8.97726e-08
-1.73211e-09
1.07899e-09
8.96788e-08
-1.7036e-09
1.35061e-09
8.95181e-08
-1.66506e-09
1.55795e-09
8.92619e-08
-1.61777e-09
1.69332e-09
8.88712e-08
-1.56328e-09
1.74999e-09
8.82947e-08
-1.50332e-09
1.72694e-09
8.74661e-08
-1.43974e-09
1.62559e-09
8.62999e-08
-1.37439e-09
1.45589e-09
8.46863e-08
-1.30902e-09
1.22731e-09
8.24828e-08
-1.24516e-09
9.58533e-10
7.95052e-08
-1.18382e-09
6.68553e-10
7.55112e-08
-1.1255e-09
3.8579e-10
7.01848e-08
-1.06996e-09
1.40537e-10
6.31049e-08
-1.01663e-09
-2.5194e-11
5.37189e-08
-9.67199e-10
3.33228e-08
-8.74076e-10
-1.93323e-10
3.38946e-08
-3.87525e-10
-4.98551e-10
5.43191e-08
-3.76496e-10
-8.42708e-10
6.37456e-08
-3.79849e-10
-1.19331e-09
7.08518e-08
-4.0268e-10
-1.52223e-09
7.61916e-08
-4.36523e-10
-1.8123e-09
8.01884e-08
-4.78202e-10
-2.04669e-09
8.31603e-08
-5.26095e-10
-2.21304e-09
8.53515e-08
-5.78771e-10
-2.30141e-09
8.69482e-08
-6.34554e-10
-2.30784e-09
8.80947e-08
-6.91582e-10
-2.23009e-09
8.89024e-08
-7.47874e-10
-2.07284e-09
8.94586e-08
-8.01502e-10
-1.83882e-09
8.9831e-08
-8.50554e-10
-1.53706e-09
9.0072e-08
-8.9334e-10
-1.18287e-09
9.02217e-08
-9.28312e-10
-7.84508e-10
9.03096e-08
-9.54257e-10
-3.60597e-10
9.03558e-08
-9.70216e-10
7.25834e-11
9.03722e-08
-9.75653e-10
4.99329e-10
9.03626e-08
-9.70337e-10
9.04116e-10
9.03231e-08
-9.54496e-10
1.27052e-09
9.02417e-08
-9.2865e-10
1.58205e-09
9.00983e-08
-8.93766e-10
1.83207e-09
8.98632e-08
-8.51028e-10
2.01025e-09
8.94965e-08
-8.01992e-10
2.10771e-09
8.89453e-08
-7.48341e-10
2.12315e-09
8.81421e-08
-6.9198e-10
2.0579e-09
8.69996e-08
-6.34818e-10
1.91761e-09
8.54063e-08
-5.78827e-10
1.70828e-09
8.32178e-08
-5.25862e-10
1.44366e-09
8.02479e-08
-4.77571e-10
1.13739e-09
7.62526e-08
-4.35376e-10
8.08736e-10
7.09136e-08
-4.00796e-10
4.81772e-10
6.38078e-08
-3.76646e-10
1.92497e-10
5.43811e-08
-3.70994e-10
3.38935e-08
-3.79262e-10
-3.55594e-10
3.42026e-08
4.70939e-11
-7.47641e-10
5.45695e-08
1.43083e-10
-1.14875e-09
6.3968e-08
1.77607e-10
-1.52668e-09
7.10477e-08
1.80564e-10
-1.85838e-09
7.63606e-08
1.65539e-10
-2.13973e-09
8.03284e-08
1.38604e-10
-2.35087e-09
8.32693e-08
1.02829e-10
-2.48577e-09
8.54274e-08
6.06058e-11
-2.54367e-09
8.69897e-08
1.40762e-11
-2.51384e-09
8.81011e-08
-3.53578e-11
-2.4004e-09
8.88744e-08
-8.49382e-11
-2.20813e-09
8.93976e-08
-1.32477e-10
-1.93906e-09
8.97398e-08
-1.7629e-10
-1.60665e-09
8.99541e-08
-2.14676e-10
-1.22244e-09
9.00819e-08
-2.46203e-10
-7.94329e-10
9.01531e-08
-2.69637e-10
-3.43388e-10
9.01887e-08
-2.84139e-10
1.16136e-10
9.02006e-08
-2.8912e-10
5.70874e-10
9.01931e-08
-2.84431e-10
1.00177e-09
9.0162e-08
-2.70214e-10
1.39623e-09
9.00951e-08
-2.47046e-10
1.73882e-09
8.99714e-08
-2.15764e-10
2.01811e-09
8.9761e-08
-1.77603e-10
2.22456e-09
8.94226e-08