/*--------------------------------*- C++ -*----------------------------------*\
| =========                 |                                                 |
| \\      /  F ield         | OpenFOAM: The Open Source CFD Toolbox           |
|  \\    /   O peration     | Version:  v2006                                 |
|   \\  /    A nd           | Website:  www.openfoam.com                      |
|    \\/     M anipulation  |                                                 |
\*---------------------------------------------------------------------------*/
FoamFile
{
    version     2.0;
    format      ascii;
    class       volScalarField;
    location    "3";
    object      k;
}
// * * * * * * * * * * * * * * * * * * * * * * * * * * * * * * * * * * * * * //

dimensions      [0 2 -2 0 0 0 0];


internalField   nonuniform List<scalar> 
78750
(
0.00207886
0.000538049
0.000420981
0.000319862
0.000307366
0.000289414
0.000275851
0.000264513
0.000254689
0.00024607
0.000238473
0.000231764
0.000225902
0.000220832
0.000216512
0.000212797
0.000209577
0.000206759
0.000204244
0.000201914
0.000199628
0.000197226
0.00019453
0.000191371
0.000187469
0.000182322
0.000175544
0.000166627
0.000154937
0.000139852
0.000121112
9.89784e-05
7.46025e-05
4.72397e-05
1.66983e-05
0.000139727
0.000652365
0.000748449
0.000723971
0.00065898
0.000596444
0.000551308
0.000518753
0.000493923
0.000474823
0.000460657
0.000449997
0.000441843
0.000435728
0.000431619
0.000428245
0.000425419
0.000423368
0.000422174
0.000421559
0.000421151
0.00042053
0.000419369
0.000417508
0.000414548
0.000410095
0.000403614
0.000394012
0.000379298
0.000356145
0.000319744
0.000265907
0.000200105
0.000132666
5.21776e-05
0.00018297
0.000346877
0.000372445
0.000332765
0.000283981
0.000251653
0.000232293
0.000220127
0.000212288
0.000207394
0.000204812
0.000202933
0.000201141
0.000199432
0.000197904
0.000196667
0.000195804
0.000195329
0.000195239
0.000195534
0.000196245
0.000197449
0.000199355
0.000202169
0.000205918
0.000210662
0.00021637
0.00022267
0.000228364
0.000230642
0.000224522
0.000204761
0.000173039
0.000128496
5.73921e-05
0.000164936
0.00027437
0.000311326
0.000313116
0.000299833
0.000288313
0.000282744
0.000280608
0.00027902
0.000276391
0.000272508
0.000267921
0.00026331
0.000258609
0.000254071
0.000249798
0.000246006
0.000242914
0.000240457
0.000238411
0.000236529
0.000234605
0.000232477
0.000230029
0.000227257
0.000224164
0.000220664
0.000216635
0.000211772
0.00020515
0.000194804
0.00017796
0.000154866
0.000121664
6.48067e-05
0.000171009
0.000241856
0.000272875
0.000282461
0.000276946
0.000262214
0.000243244
0.000223001
0.000203633
0.000186867
0.000173873
0.000165191
0.000160568
0.000158712
0.000158551
0.000159176
0.000160002
0.000160677
0.000161052
0.000161094
0.000160791
0.000160152
0.000159217
0.000158135
0.000157178
0.000156561
0.000156282
0.000156345
0.000156575
0.000156308
0.000153893
0.000146908
0.000134974
0.000113694
7.23878e-05
0.000150278
0.000215063
0.000239421
0.00024387
0.000233633
0.000215201
0.000196482
0.000182065
0.000173194
0.00016915
0.000168812
0.000171106
0.000174767
0.000178411
0.000181243
0.000183056
0.000183993
0.000184241
0.000183879
0.000182823
0.000181043
0.000178408
0.000174743
0.000169896
0.000163809
0.000156564
0.000148626
0.000140438
0.00013263
0.000126029
0.000121332
0.000118341
0.00011546
0.000105529
7.86139e-05
0.000141614
0.000194299
0.000212198
0.000211473
0.000196993
0.000176288
0.000158698
0.00014817
0.000143793
0.000143218
0.000144608
0.000146913
0.000149513
0.000151718
0.000153249
0.000154172
0.000154653
0.000154796
0.000154605
0.000154027
0.000152884
0.000150988
0.000148134
0.000144112
0.00013875
0.000132086
0.000124423
0.00011594
0.000107116
9.92917e-05
9.49246e-05
9.60091e-05
0.000100052
9.89509e-05
8.46911e-05
0.000135445
0.000175981
0.000185549
0.000176722
0.000155771
0.000135373
0.000124658
0.000123379
0.000127516
0.000133932
0.000141051
0.000147741
0.000153161
0.000157225
0.00016002
0.000161726
0.00016259
0.000162777
0.000162345
0.000161244
0.000159283
0.000156287
0.000151992
0.000146083
0.000138271
0.000128454
0.00011693
0.000104325
9.13802e-05
7.98731e-05
7.36739e-05
7.69758e-05
8.65215e-05
9.19111e-05
8.49268e-05
0.000132568
0.000161099
0.000163164
0.000148335
0.000125527
0.000110926
0.000109108
0.000114907
0.000123079
0.00013123
0.000138548
0.000144246
0.000148219
0.000150794
0.000152279
0.000152957
0.000153081
0.000152772
0.000152038
0.000150795
0.000148846
0.000145928
0.000141723
0.00013585
0.000127961
0.000117899
0.000106035
9.30701e-05
7.98135e-05
6.84538e-05
6.35429e-05
6.93095e-05
8.09195e-05
8.74413e-05
8.13813e-05
0.000132073
0.000149531
0.000144686
0.000125897
0.00010552
9.88515e-05
0.00010398
0.000113472
0.000123241
0.000132217
0.000139589
0.000145012
0.000148772
0.000151253
0.000152735
0.000153445
0.000153579
0.000153215
0.00015233
0.000150821
0.000148488
0.000145078
0.000140286
0.000133716
0.000125039
0.000114121
0.000101469
8.83478e-05
7.58559e-05
6.61948e-05
6.34423e-05
7.04254e-05
8.09809e-05
8.4674e-05
7.49277e-05
0.000133765
0.000142771
0.000133534
0.000113968
9.8258e-05
9.75506e-05
0.000105708
0.000115689
0.000124987
0.000133174
0.00013948
0.000143885
0.000146812
0.000148631
0.000149616
0.000149983
0.000149899
0.00014941
0.000148469
0.000146955
0.000144667
0.000141325
0.000136634
0.000130211
0.000121734
0.000111133
9.90764e-05
8.72555e-05
7.69585e-05
7.01443e-05
6.9689e-05
7.63144e-05
8.33527e-05
8.22575e-05
6.82384e-05
0.000136265
0.000140398
0.000129035
0.000110343
9.8209e-05
9.98053e-05
0.000107846
0.000116789
0.000125288
0.000132844
0.000138625
0.00014273
0.000145503
0.000147272
0.000148266
0.000148673
0.000148632
0.000148169
0.000147234
0.000145711
0.000143414
0.00014009
0.000135486
0.000129268
0.000121126
0.000111008
9.95409e-05
8.86689e-05
8.00352e-05
7.51115e-05
7.54988e-05
8.03446e-05
8.33675e-05
7.81523e-05
6.16566e-05
0.000138172
0.000141187
0.000130215
0.000113282
0.000102498
0.000103424
0.00010969
0.000117027
0.00012455
0.00013156
0.000137024
0.000140925
0.000143556
0.000145229
0.000146167
0.000146553
0.000146522
0.000146096
0.000145222
0.000143791
0.000141625
0.000138484
0.000134145
0.000128331
0.000120711
0.000111245
0.000100476
9.02563e-05
8.25681e-05
7.83361e-05
7.81579e-05
8.04009e-05
7.9907e-05
7.2147e-05
5.54756e-05
0.000138719
0.000143458
0.000134627
0.000119535
0.000108428
0.000107034
0.000110734
0.000116209
0.000122738
0.000129398
0.000134815
0.00013878
0.000141519
0.000143311
0.000144363
0.000144852
0.000144913
0.000144567
0.000143774
0.000142436
0.000140397
0.00013744
0.000133369
0.000127934
0.00012086
0.000112011
0.000101792
9.16944e-05
8.4112e-05
7.95576e-05
7.79744e-05
7.75465e-05
7.44352e-05
6.54392e-05
4.9756e-05
0.000137842
0.000145967
0.000140244
0.000127153
0.000115219
0.000110963
0.000111812
0.000115227
0.000120546
0.000126859
0.000132311
0.000136424
0.000139324
0.000141262
0.000142439
0.000143031
0.000143182
0.000142922
0.000142217
0.000140982
0.000139077
0.0001363
0.000132473
0.000127361
0.000120725
0.000112399
0.00010264
9.25908e-05
8.471e-05
7.94616e-05
7.63589e-05
7.3668e-05
6.87311e-05
5.92177e-05
4.47803e-05
0.000135975
0.000147768
0.00014541
0.000134307
0.000121815
0.000114923
0.000113035
0.000114368
0.000118347
0.000124232
0.000129719
0.000134025
0.000137148
0.000139289
0.000140639
0.000141373
0.000141638
0.000141477
0.000140866
0.000139736
0.000137962
0.000135363
0.000131773
0.000126967
0.000120703
0.000112828
0.000103437
9.34173e-05
8.49319e-05
7.8886e-05
7.44557e-05
7.00422e-05
6.38489e-05
5.40857e-05
4.0605e-05
0.000133517
0.000148454
0.000149322
0.000140322
0.00012775
0.000118816
0.00011455
0.000113902
0.000116422
0.000121706
0.000127158
0.000131638
0.000134979
0.000137322
0.000138843
0.000139713
0.000140084
0.000140012
0.000139486
0.000138446
0.000136784
0.000134334
0.000130941
0.000126391
0.000120437
0.000112903
0.000103852
9.3906e-05
8.48758e-05
7.81555e-05
7.27044e-05
6.70592e-05
5.99977e-05
5.00755e-05
3.7216e-05
0.00013085
0.000147941
0.000151565
0.000144606
0.000132489
0.00012226
0.00011615
0.000113801
0.000114942
0.000119492
0.000124818
0.000129422
0.000132956
0.000135491
0.00013718
0.000138188
0.000138663
0.000138677
0.000138228
0.000137268
0.000135702
0.000133383
0.000130164
0.000125838
0.00012016
0.000112929
0.000104155
9.42978e-05
8.48135e-05
7.75199e-05
7.12895e-05
6.47691e-05
5.70855e-05
4.70142e-05
3.44801e-05
0.000128208
0.000146419
0.0001522
0.00014714
0.000135922
0.00012511
0.000117704
0.000113962
0.000113843
0.000117541
0.000122655
0.000127327
0.000131021
0.000133726
0.000135571
0.000136705
0.000137277
0.000137371
0.000136991
0.000136098
0.000134609
0.000132394
0.000129311
0.000125164
0.000119712
0.000112739
0.000104206
9.44812e-05
8.47133e-05
7.69545e-05
7.01479e-05
6.30135e-05
5.48812e-05
4.46721e-05
3.22839e-05
0.000125765
0.000144243
0.000151559
0.000148173
0.000138109
0.000127272
0.000119057
0.000114244
0.000113055
0.000115899
0.000120755
0.000125447
0.000129267
0.00013212
0.000134104
0.000135355
0.000136019
0.000136187
0.00013587
0.000135038
0.000133616
0.000131488
0.000128518
0.000124521
0.00011926
0.000112506
0.000104183
9.45858e-05
8.46767e-05
7.64915e-05
6.92491e-05
6.1677e-05
5.32105e-05
4.28686e-05
3.05057e-05
0.000123594
0.000141777
0.000150103
0.000148138
0.000139316
0.000128821
0.000120165
0.000114547
0.000112452
0.000114473
0.000119044
0.000123721
0.000127636
0.000130614
0.000132721
0.000134076
0.000134824
0.000135059
0.000134799
0.000134019
0.000132655
0.000130599
0.000127721
0.000123847
0.000118744
0.000112177
0.000104041
9.45701e-05
8.46221e-05
7.60796e-05
6.85187e-05
6.06352e-05
5.19197e-05
4.14597e-05
2.90619e-05
0.000121726
0.00013932
0.000148258
0.000147452
0.000139822
0.000129857
0.000121015
0.00011481
0.000111973
0.000113257
0.000117548
0.000122189
0.000126173
0.000129254
0.000131466
0.000132913
0.000133734
0.00013403
0.00013382
0.000133085
0.000131769
0.000129773
0.000126971
0.0001232
0.000118231
0.000111825
0.000103854
9.45038e-05
8.45465e-05
7.57264e-05
6.79297e-05
5.98189e-05
5.09126e-05
4.0348e-05
2.78818e-05
0.000120156
0.000137063
0.00014634
0.000146451
0.000139885
0.00013051
0.000121634
0.000115002
0.000111556
0.000112186
0.000116209
0.0001208
0.000124835
0.000128002
0.000130304
0.00013183
0.000132717
0.000133065
0.000132899
0.000132203
0.000130926
0.00012898
0.00012624
0.000122552
0.000117694
0.000111425
0.000103601
9.43669e-05
8.4425e-05
7.54072e-05
6.74428e-05
5.91674e-05
5.01159e-05
3.94627e-05
2.69175e-05
0.000118862
0.000135095
0.000144538
0.000145355
0.000139685
0.000130878
0.00012205
0.000115112
0.000111176
0.000111247
0.000115029
0.000119566
0.000123637
0.000126873
0.00012925
0.000130844
0.000131787
0.00013218
0.00013205
0.000131386
0.000130142
0.000128234
0.000125543
0.000121923
0.000117158
0.000111004
0.000103305
9.4176e-05
8.4262e-05
7.5107e-05
6.70273e-05
5.86359e-05
4.94759e-05
3.87504e-05
2.61256e-05
0.000117811
0.000133433
0.000142938
0.000144288
0.000139347
0.000131045
0.000122302
0.000115142
0.000110812
0.000110409
0.000113977
0.000118459
0.000122555
0.000125846
0.000128286
0.000129936
0.000130928
0.000131359
0.000131261
0.000130623
0.000129406
0.000127531
0.000124881
0.000121317
0.000116628
0.000110571
0.00010298
9.39462e-05
8.40693e-05
7.48198e-05
6.66617e-05
5.81897e-05
4.89507e-05
3.81689e-05
2.54725e-05
0.000116962
0.000132053
0.00014156
0.000143306
0.000138941
0.000131067
0.00012242
0.000115102
0.000110458
0.00010966
0.000113042
0.000117471
0.000121583
0.000124918
0.000127408
0.000129106
0.000130139
0.000130603
0.00013053
0.000129915
0.000128719
0.000126871
0.000124254
0.000120736
0.000116111
0.000110137
0.00010264
9.36911e-05
8.38557e-05
7.45431e-05
6.63322e-05
5.7805e-05
4.85092e-05
3.76858e-05
2.49297e-05
0.000116267
0.000130908
0.000140386
0.000142426
0.000138514
0.000130993
0.000122439
0.000115003
0.000110111
0.000108984
0.000112204
0.000116584
0.000120705
0.000124074
0.000126606
0.000128344
0.000129411
0.000129903
0.000129853
0.000129256
0.000128078
0.00012625
0.000123662
0.000120184
0.000115613
0.00010971
0.000102295
9.34241e-05
8.36325e-05
7.42795e-05
6.60336e-05
5.74681e-05
4.81318e-05
3.72786e-05
2.4476e-05
0.000115692
0.000129956
0.000139391
0.000141648
0.000138086
0.00013085
0.000122382
0.000114858
0.000109776
0.000108376
0.000111455
0.000115787
0.000119912
0.000123308
0.000125873
0.000127643
0.00012874
0.000129256
0.000129225
0.000128644
0.00012748
0.000125669
0.000123105
0.00011966
0.000115136
0.000109293
0.00010195
9.31498e-05
8.34027e-05
7.4027e-05
6.57595e-05
5.71683e-05
4.78039e-05
3.69308e-05
2.40942e-05
0.000115197
0.00012915
0.000138539
0.000140959
0.000137673
0.000130673
0.000122285
0.000114697
0.000109459
0.000107829
0.000110777
0.000115064
0.00011919
0.000122606
0.000125198
0.000126996
0.000128118
0.000128655
0.000128641
0.000128073
0.000126921
0.000125125
0.000122583
0.000119166
0.000114682
0.000108893
0.000101614
9.28775e-05
8.31738e-05
7.37867e-05
6.55066e-05
5.68989e-05
4.75154e-05
3.663e-05
2.37702e-05
0.000114767
0.000128459
0.000137803
0.000140346
0.000137278
0.000130472
0.000122155
0.00011452
0.000109154
0.000107336
0.000110162
0.000114407
0.000118531
0.000121963
0.000124577
0.000126399
0.000127542
0.000128096
0.000128096
0.000127539
0.000126398
0.000124615
0.000122091
0.000118699
0.000114251
0.000108509
0.000101288
9.26098e-05
8.29484e-05
7.35582e-05
6.52717e-05
5.66536e-05
4.72579e-05
3.63664e-05
2.34927e-05
0.000114379
0.000127853
0.000137154
0.000139794
0.000136903
0.000130261
0.000122009
0.000114339
0.000108866
0.000106897
0.000109605
0.000113808
0.000117928
0.000121373
0.000124004
0.000125845
0.000127006
0.000127575
0.000127587
0.00012704
0.000125908
0.000124135
0.000121627
0.000118258
0.000113841
0.000108144
0.000100975
9.23516e-05
8.27316e-05
7.3344e-05
6.50547e-05
5.64297e-05
4.70258e-05
3.61324e-05
2.32523e-05
0.000114022
0.000127312
0.000136575
0.000139292
0.000136546
0.000130041
0.000121846
0.000114147
0.000108589
0.000106498
0.000109096
0.000113259
0.000117374
0.000120828
0.000123474
0.00012533
0.000126506
0.000127088
0.00012711
0.000126572
0.000125448
0.000123684
0.00012119
0.00011784
0.000113452
0.000107793
0.000100673
9.20998e-05
8.25204e-05
7.31413e-05
6.48532e-05
5.62245e-05
4.68158e-05
3.59235e-05
2.30428e-05
0.000113693
0.000126822
0.00013605
0.000138829
0.000136206
0.000129817
0.000121673
0.000113954
0.000108329
0.00010614
0.000108635
0.00011276
0.000116867
0.000120327
0.000122983
0.000124853
0.000126041
0.000126635
0.000126666
0.000126135
0.000125018
0.000123263
0.000120782
0.00011745
0.000113087
0.000107464
0.000100387
9.18604e-05
8.23191e-05
7.29509e-05
6.4666e-05
5.60358e-05
4.66247e-05
3.57358e-05
2.28587e-05
0.000113395
0.000126376
0.000135568
0.000138397
0.000135875
0.000129586
0.000121488
0.000113756
0.000108076
0.000105805
0.000108207
0.000112295
0.000116394
0.000119859
0.000122524
0.000124405
0.000125605
0.000126208
0.000126248
0.000125724
0.000124613
0.000122866
0.000120396
0.000117081
0.000112743
0.000107153
0.000100116
9.16333e-05
8.21282e-05
7.27725e-05
6.44922e-05
5.58623e-05
4.64505e-05
3.5566e-05
2.26947e-05
0.000113123
0.000125969
0.000135125
0.000137994
0.000135558
0.000129357
0.000121301
0.000113559
0.000107835
0.000105495
0.000107816
0.000111872
0.000115963
0.000119429
0.000122101
0.00012399
0.000125199
0.000125811
0.000125857
0.000125339
0.000124233
0.000122493
0.000120034
0.000116735
0.000112419
0.00010686
9.98626e-05
9.14206e-05
8.19498e-05
7.2607e-05
6.43307e-05
5.57009e-05
4.62891e-05
3.54101e-05
2.25471e-05
0.000112874
0.000125594
0.000134712
0.000137613
0.000135251
0.000129123
0.000121103
0.000113356
0.000107598
0.000105203
0.000107452
0.000111479
0.00011556
0.000119027
0.000121704
0.0001236
0.000124816
0.000125435
0.000125487
0.000124973
0.000123873
0.000122139
0.00011969
0.000116406
0.000112111
0.000106582
9.96219e-05
9.12202e-05
8.17837e-05
7.24552e-05
6.41836e-05
5.55539e-05
4.61418e-05
3.52678e-05
2.24133e-05
0.000112645
0.000125251
0.000134332
0.000137257
0.000134955
0.000128892
0.000120906
0.00011316
0.000107378
0.000104936
0.000107122
0.000111119
0.000115191
0.000118656
0.000121335
0.000123236
0.000124458
0.000125083
0.00012514
0.000124631
0.000123534
0.000121806
0.000119366
0.000116094
0.00011182
0.000106318
9.93926e-05
9.10287e-05
8.16257e-05
7.23133e-05
6.40477e-05
5.54189e-05
4.60069e-05
3.51378e-05
2.22916e-05
0.000112422
0.000124924
0.000133972
0.000136918
0.000134672
0.000128667
0.000120713
0.000112967
0.000107162
0.00010468
0.000106808
0.00011078
0.000114843
0.000118307
0.000120987
0.000122892
0.00012412
0.00012475
0.000124812
0.000124307
0.000123214
0.000121491
0.00011906
0.000115801
0.000111545
0.000106069
9.91753e-05
9.0847e-05
8.14757e-05
7.21796e-05
6.39211e-05
5.52943e-05
4.58827e-05
3.50179e-05
2.21798e-05
0.00011222
0.000124624
0.000133637
0.000136597
0.000134396
0.000128441
0.000120516
0.000112777
0.00010696
0.000104449
0.000106529
0.000110476
0.000114527
0.000117986
0.000120666
0.000122573
0.000123805
0.000124439
0.000124505
0.000124003
0.000122914
0.000121195
0.000118772
0.000115525
0.000111287
0.000105835
9.89723e-05
9.06773e-05
8.13356e-05
7.20548e-05
6.38034e-05
5.51793e-05
4.57687e-05
3.49081e-05
2.20779e-05
0.000112017
0.000124335
0.000133317
0.000136291
0.000134134
0.000128226
0.000120332
0.000112599
0.000106769
0.000104227
0.000106258
0.00011018
0.000114221
0.000117677
0.000120357
0.000122267
0.000123502
0.000124141
0.000124211
0.000123712
0.000122626
0.000120913
0.000118497
0.000115262
0.000111041
0.000105613
9.87793e-05
9.05165e-05
8.12033e-05
7.19373e-05
6.36927e-05
5.50712e-05
4.56615e-05
3.48048e-05
2.19827e-05
0.000111821
0.000124061
0.000133013
0.000135998
0.00013388
0.000128015
0.000120147
0.000112423
0.000106587
0.000104023
0.000106015
0.000109916
0.000113945
0.000117396
0.000120073
0.000121983
0.000123221
0.000123862
0.000123935
0.000123438
0.000122355
0.000120646
0.000118237
0.000115012
0.000110807
0.000105401
9.85947e-05
9.03621e-05
8.10759e-05
7.18247e-05
6.35871e-05
5.49686e-05
4.55602e-05
3.47076e-05
2.18943e-05
0.000111624
0.000123795
0.00013272
0.000135716
0.000133634
0.000127811
0.000119973
0.000112259
0.000106417
0.00010383
0.000105781
0.000109659
0.000113677
0.000117122
0.000119798
0.000121709
0.000122949
0.000123594
0.00012367
0.000123176
0.000122096
0.00012039
0.000117989
0.000114774
0.000110584
0.000105199
9.84196e-05
9.0216e-05
8.09556e-05
7.17179e-05
6.34866e-05
5.4871e-05
4.54638e-05
3.46151e-05
2.18108e-05
0.000111431
0.000123539
0.000132439
0.000135446
0.000133399
0.000127614
0.000119803
0.000112097
0.00010625
0.000103644
0.000105562
0.000109421
0.000113429
0.000116868
0.000119541
0.000121452
0.000122694
0.000123341
0.000123418
0.000122927
0.000121849
0.000120147
0.000117751
0.000114545
0.000110369
0.000105004
9.82495e-05
9.0073e-05
8.08369e-05
7.16126e-05
6.33873e-05
5.47745e-05
4.53689e-05
3.4525e-05
2.17311e-05
0.000111248
0.000123293
0.000132167
0.000135182
0.000133167
0.000127419
0.000119633
0.000111938
0.000106088
0.000103469
0.000105356
0.000109198
0.000113195
0.000116628
0.000119297
0.000121207
0.000122451
0.0001231
0.000123179
0.00012269
0.000121614
0.000119915
0.000117526
0.00011433
0.000110168
0.000104823
9.80925e-05
8.99425e-05
8.07295e-05
7.15167e-05
6.32958e-05
5.46844e-05
4.52794e-05
3.44395e-05
2.16556e-05
0.000111072
0.000123057
0.000131907
0.00013493
0.000132945
0.000127231
0.000119469
0.000111782
0.00010593
0.000103298
0.000105159
0.000108984
0.000112972
0.000116399
0.000119065
0.000120973
0.000122218
0.000122869
0.00012295
0.000122462
0.000121388
0.000119692
0.000117308
0.000114121
0.000109972
0.000104645
9.79381e-05
8.98136e-05
8.06236e-05
7.14233e-05
6.32075e-05
5.45976e-05
4.51933e-05
3.43573e-05
2.15826e-05
0.000110902
0.000122831
0.000131656
0.000134685
0.000132728
0.000127044
0.000119302
0.000111626
0.000105776
0.000103138
0.000104979
0.000108789
0.000112766
0.000116186
0.000118846
0.000120753
0.000121998
0.00012265
0.000122732
0.000122246
0.000121174
0.000119481
0.000117102
0.000113924
0.000109788
0.000104479
9.77935e-05
8.96929e-05
8.05239e-05
7.13345e-05
6.3123e-05
5.45146e-05
4.51108e-05
3.42784e-05
2.1512e-05
0.000110741
0.000122614
0.000131414
0.000134449
0.000132518
0.000126862
0.000119141
0.000111476
0.000105629
0.000102984
0.000104804
0.0001086
0.000112567
0.000115979
0.000118635
0.00012054
0.000121785
0.000122438
0.000122522
0.000122037
0.000120967
0.000119277
0.000116903
0.000113733
0.00010961
0.000104318
9.76547e-05
8.95777e-05
8.04294e-05
7.12503e-05
6.30425e-05
5.44349e-05
4.50313e-05
3.42018e-05
2.14421e-05
0.000110586
0.000122407
0.000131185
0.000134224
0.000132315
0.000126683
0.000118981
0.000111327
0.000105485
0.000102838
0.000104643
0.000108426
0.000112382
0.000115787
0.000118437
0.000120339
0.000121584
0.000122238
0.000122322
0.000121839
0.000120769
0.000119082
0.000116712
0.000113551
0.00010944
0.000104165
9.75226e-05
8.94686e-05
8.03404e-05
7.1171e-05
6.29662e-05
5.43588e-05
4.49546e-05
3.41274e-05
2.13734e-05
0.000110437
0.000122208
0.000130962
0.000134005
0.000132116
0.000126507
0.000118824
0.000111183
0.000105347
0.000102699
0.000104489
0.000108259
0.000112205
0.000115602
0.000118246
0.000120146
0.00012139
0.000122044
0.00012213
0.000121647
0.000120579
0.000118893
0.000116529
0.000113375
0.000109277
0.000104019
9.73975e-05
8.93666e-05
8.02586e-05
7.10989e-05
6.28972e-05
5.42895e-05
4.48836e-05
3.40569e-05
2.13067e-05
0.000110287
0.000122018
0.000130752
0.000133796
0.000131926
0.000126338
0.000118674
0.000111045
0.000105217
0.000102568
0.000104346
0.000108103
0.000112038
0.000115426
0.000118064
0.000119961
0.000121204
0.000121858
0.000121944
0.000121462
0.000120395
0.000118712
0.000116351
0.000113205
0.000109118
0.000103876
9.72745e-05
8.92657e-05
8.01774e-05
7.10279e-05
6.28305e-05
5.42235e-05
4.48165e-05
3.39902e-05
2.12428e-05
0.00011013
0.000121825
0.000130543
0.000133592
0.000131743
0.000126176
0.000118529
0.000110912
0.000105089
0.000102441
0.000104206
0.000107952
0.000111877
0.000115257
0.000117889
0.000119782
0.000121024
0.000121678
0.000121765
0.000121284
0.000120218
0.000118537
0.00011618
0.000113042
0.000108966
0.000103738
9.71563e-05
8.91683e-05
8.00982e-05
7.09577e-05
6.2764e-05
5.41579e-05
4.475e-05
3.39243e-05
2.11805e-05
0.000109977
0.000121641
0.000130342
0.000133393
0.00013156
0.000126012
0.000118382
0.000110779
0.000104968
0.000102324
0.00010408
0.000107814
0.000111727
0.000115097
0.000117722
0.000119611
0.000120852
0.000121506
0.000121594
0.000121113
0.000120049
0.000118369
0.000116017
0.000112886
0.000108821
0.000103609
9.70454e-05
8.90773e-05
8.00242e-05
7.08912e-05
6.27002e-05
5.40946e-05
4.46857e-05
3.38606e-05
2.1121e-05
0.000109814
0.000121454
0.00013014
0.000133197
0.000131384
0.000125857
0.000118247
0.000110658
0.000104854
0.000102209
0.000103954
0.000107675
0.000111578
0.000114939
0.000117558
0.000119444
0.000120684
0.000121339
0.000121427
0.000120948
0.000119885
0.000118208
0.00011586
0.000112737
0.000108683
0.000103486
9.69412e-05
8.8993e-05
7.99565e-05
7.083e-05
6.26405e-05
5.4034e-05
4.46232e-05
3.37985e-05
2.10637e-05
0.000109661
0.000121274
0.000129947
0.000133007
0.000131211
0.000125702
0.000118108
0.000110533
0.00010474
0.0001021
0.000103839
0.00010755
0.000111441
0.000114793
0.000117404
0.000119286
0.000120524
0.000121179
0.000121268
0.000120789
0.000119727
0.000118052
0.000115709
0.000112592
0.000108549
0.000103367
9.68401e-05
8.89116e-05
7.98919e-05
7.07722e-05
6.25845e-05
5.39772e-05
4.45638e-05
3.37387e-05
2.10074e-05
0.000109511
0.000121095
0.00012975
0.000132814
0.000131035
0.000125546
0.000117972
0.000110415
0.000104633
0.000101997
0.000103727
0.000107426
0.000111306
0.000114649
0.000117253
0.000119131
0.000120369
0.000121023
0.000121113
0.000120636
0.000119575
0.000117902
0.000115563
0.000112454
0.000108421
0.000103253
9.67444e-05
8.88351e-05
7.98313e-05
7.07177e-05
6.25316e-05
5.39234e-05
4.45072e-05
3.36808e-05
2.09514e-05
0.000109364
0.000120925
0.000129567
0.000132634
0.000130873
0.000125403
0.000117846
0.000110301
0.000104528
0.000101896
0.00010362
0.000107308
0.000111178
0.000114511
0.000117109
0.000118983
0.00012022
0.000120874
0.000120965
0.000120488
0.000119429
0.000117759
0.000115423
0.000112322
0.000108299
0.000103145
9.66542e-05
8.8763e-05
7.9774e-05
7.06652e-05
6.24798e-05
5.38703e-05
4.4451e-05
3.3623e-05
2.08951e-05
0.00010922
0.000120754
0.00012938
0.00013245
0.000130706
0.000125255
0.000117716
0.000110187
0.000104426
0.0001018
0.000103518
0.000107196
0.000111054
0.000114378
0.000116969
0.000118839
0.000120075
0.00012073
0.000120821
0.000120346
0.000119288
0.000117621
0.00011529
0.000112196
0.000108185
0.000103046
9.65727e-05
8.87e-05
7.97253e-05
7.06196e-05
6.24332e-05
5.38205e-05
4.43968e-05
3.35664e-05
2.08397e-05
0.00010908
0.000120592
0.000129204
0.000132277
0.00013055
0.000125117
0.000117595
0.000110081
0.000104329
0.000101706
0.000103416
0.000107083
0.000110931
0.000114247
0.000116831
0.000118699
0.000119933
0.000120589
0.000120682
0.000120208
0.000119152
0.000117487
0.000115161
0.000112074
0.000108074
0.00010295
9.6495e-05
8.86414e-05
7.96816e-05
7.05795e-05
6.23923e-05
5.37765e-05
4.43474e-05
3.35132e-05
2.07849e-05
0.000108938
0.000120427
0.000129026
0.000132104
0.000130395
0.000124981
0.000117478
0.000109978
0.000104235
0.000101616
0.000103321
0.000106978
0.000110816
0.000114123
0.0001167
0.000118564
0.000119798
0.000120453
0.000120547
0.000120075
0.00011902
0.000117357
0.000115036
0.000111957
0.000107967
0.000102858
9.64198e-05
8.85841e-05
7.96384e-05
7.05395e-05
6.23512e-05
5.37319e-05
4.42977e-05
3.34599e-05
2.07302e-05
0.0001088
0.000120269
0.000128856
0.000131938
0.000130246
0.00012485
0.000117363
0.000109875
0.00010414
0.000101524
0.000103222
0.00010687
0.000110699
0.000113998
0.00011657
0.000118431
0.000119663
0.00012032
0.000120415
0.000119944
0.000118891
0.000117231
0.000114914
0.000111843
0.000107864
0.000102769
9.6349e-05
8.85319e-05
7.96008e-05
7.05051e-05
6.23158e-05
5.36928e-05
4.42527e-05
3.34099e-05
2.06757e-05
0.000108663
0.000120111
0.000128686
0.000131772
0.000130099
0.000124721
0.00011725
0.000109774
0.000104047
0.000101436
0.00010313
0.00010677
0.000110589
0.00011388
0.000116446
0.000118303
0.000119535
0.000120191
0.000120287
0.000119817
0.000118765
0.000117108
0.000114795
0.00011173
0.000107761
0.00010268
9.62766e-05
8.84773e-05
7.95604e-05
7.04684e-05
6.22783e-05
5.36518e-05
4.42061e-05
3.33588e-05
2.0621e-05
0.000108531
0.000119956
0.000128519
0.000131611
0.000129955
0.000124594
0.000117136
0.00010967
0.000103951
0.000101343
0.000103035
0.000106668
0.000110479
0.000113762
0.000116323
0.000118177
0.000119408
0.000120066
0.000120163
0.000119694
0.000118644
0.000116988
0.00011468
0.000111622
0.000107663
0.000102596
9.62095e-05
8.84279e-05
7.95252e-05
7.04368e-05
6.22462e-05
5.36164e-05
4.41646e-05
3.33115e-05
2.05677e-05
0.000108394
0.000119805
0.000128359
0.000131454
0.000129814
0.000124468
0.000117024
0.000109568
0.000103857
0.000101255
0.000102946
0.000106572
0.000110375
0.000113651
0.000116205
0.000118057
0.000119287
0.000119944
0.000120042
0.000119574
0.000118525
0.000116871
0.000114567
0.000111516
0.000107567
0.000102513
9.61429e-05
8.83786e-05
7.94893e-05
7.04041e-05
6.22127e-05
5.35795e-05
4.41223e-05
3.32643e-05
2.05167e-05
0.000108256
0.000119649
0.000128195
0.000131297
0.000129675
0.000124344
0.00011691
0.000109462
0.000103758
0.000101162
0.000102853
0.000106475
0.000110271
0.00011354
0.000116088
0.000117937
0.000119166
0.000119823
0.000119922
0.000119455
0.000118407
0.000116755
0.000114454
0.000111409
0.000107469
0.000102428
9.60748e-05
8.83278e-05
7.9453e-05
7.03725e-05
6.21812e-05
5.35453e-05
4.40827e-05
3.32195e-05
2.04669e-05
0.00010813
0.000119508
0.000128041
0.000131144
0.000129533
0.000124211
0.000116788
0.000109351
0.000103658
0.000101075
0.000102774
0.000106392
0.00011018
0.000113441
0.000115983
0.000117827
0.000119054
0.000119711
0.00011981
0.000119343
0.000118295
0.000116644
0.000114345
0.000111306
0.000107375
0.000102346
9.60068e-05
8.82757e-05
7.94139e-05
7.03376e-05
6.21464e-05
5.3508e-05
4.40411e-05
3.31745e-05
2.04197e-05
0.000107995
0.000119359
0.000127884
0.000130993
0.000129397
0.000124088
0.000116672
0.000109241
0.000103557
0.000100983
0.000102686
0.000106301
0.000110083
0.000113336
0.000115873
0.000117714
0.000118939
0.000119596
0.000119695
0.000119228
0.00011818
0.000116531
0.000114235
0.000111201
0.000107278
0.000102261
9.59375e-05
8.82228e-05
7.9375e-05
7.03039e-05
6.21136e-05
5.34731e-05
4.40016e-05
3.31305e-05
2.03723e-05
0.000107878
0.000119226
0.000127737
0.000130844
0.000129254
0.000123948
0.000116538
0.00010912
0.000103455
0.000100902
0.00010262
0.000106233
0.000110006
0.00011325
0.000115777
0.000117612
0.000118835
0.000119489
0.000119587
0.00011912
0.000118071
0.000116422
0.000114128
0.000111098
0.000107183
0.000102176
9.58661e-05
8.81659e-05
7.93304e-05
7.02639e-05
6.20748e-05
5.34336e-05
4.39595e-05
3.30861e-05
2.03266e-05
0.000107752
0.00011909
0.000127591
0.0001307
0.000129119
0.00012382
0.000116417
0.000109009
0.000103358
0.000100817
0.000102542
0.000106151
0.000109916
0.000113151
0.000115672
0.000117503
0.000118724
0.000119378
0.000119476
0.000119008
0.00011796
0.000116311
0.00011402
0.000110996
0.000107089
0.000102093
9.57971e-05
8.81123e-05
7.92893e-05
7.02264e-05
6.20372e-05
5.33937e-05
4.39155e-05
3.30391e-05
2.02782e-05
0.000107626
0.000118959
0.00012745
0.000130557
0.000128981
0.000123684
0.000116287
0.000108894
0.000103264
0.000100745
0.000102485
0.00010609
0.000109845
0.000113068
0.000115579
0.000117404
0.000118621
0.000119272
0.000119369
0.000118901
0.000117852
0.000116203
0.000113913
0.000110893
0.000106993
0.000102008
9.57253e-05
8.80549e-05
7.92441e-05
7.01858e-05
6.19975e-05
5.33529e-05
4.38719e-05
3.29933e-05
2.02318e-05
0.000107489
0.000118826
0.000127313
0.000130421
0.000128852
0.000123559
0.000116171
0.000108792
0.000103179
0.000100674
0.000102418
0.000106017
0.000109761
0.000112974
0.000115478
0.000117299
0.000118513
0.000119164
0.000119261
0.000118793
0.000117743
0.000116095
0.000113808
0.000110793
0.0001069
0.000101926
9.56568e-05
8.80008e-05
7.92018e-05
7.01464e-05
6.19578e-05
5.33112e-05
4.38267e-05
3.29457e-05
2.01834e-05