/*--------------------------------*- C++ -*----------------------------------*\
| =========                 |                                                 |
| \\      /  F ield         | OpenFOAM: The Open Source CFD Toolbox           |
|  \\    /   O peration     | Version:  v2006                                 |
|   \\  /    A nd           | Website:  www.openfoam.com                      |
|    \\/     M anipulation  |                                                 |
\*---------------------------------------------------------------------------*/
FoamFile
{
    version     2.0;
    format      ascii;
    class       volScalarField;
    location    "3";
    object      nut;
}
// * * * * * * * * * * * * * * * * * * * * * * * * * * * * * * * * * * * * * //

dimensions      [0 2 -1 0 0 0 0];


internalField   nonuniform List<scalar> 
78750
(
5.52188e-06
1.36895e-05
2.05121e-05
1.43809e-05
1.42332e-05
1.51363e-05
1.4943e-05
1.52751e-05
1.5617e-05
1.58938e-05
1.54957e-05
1.51036e-05
1.47593e-05
1.44601e-05
1.42043e-05
1.39835e-05
1.37916e-05
1.36232e-05
1.34726e-05
1.33328e-05
1.31954e-05
1.30508e-05
1.28882e-05
1.26971e-05
1.24603e-05
1.21469e-05
1.17319e-05
1.11823e-05
1.04551e-05
9.5054e-06
7.85275e-06
5.5625e-06
3.905e-06
2.58498e-06
4.6628e-08
2.61206e-07
9.66794e-06
2.65036e-05
3.21165e-05
2.87964e-05
3.08934e-05
3.4779e-05
3.78964e-05
4.049e-05
4.24534e-05
4.3608e-05
4.39787e-05
4.39806e-05
4.38852e-05
4.37515e-05
4.36912e-05
4.38578e-05
4.42701e-05
4.49528e-05
4.58971e-05
4.70714e-05
4.85836e-05
5.05726e-05
5.25653e-05
5.35558e-05
5.27754e-05
4.96095e-05
4.38279e-05
3.61916e-05
2.80917e-05
2.091e-05
1.59617e-05
1.43666e-05
9.81723e-06
9.92203e-08
3.4185e-07
1.08813e-05
1.43053e-05
1.27303e-05
1.22049e-05
1.28276e-05
1.39154e-05
1.52657e-05
1.69616e-05
1.91698e-05
2.25222e-05
2.70578e-05
3.01923e-05
3.07681e-05
3.10413e-05
3.18216e-05
3.26896e-05
3.34848e-05
3.41813e-05
3.47187e-05
3.50298e-05
3.4897e-05
3.41131e-05
3.26831e-05
3.0801e-05
2.86317e-05
2.6172e-05
2.35049e-05
2.08781e-05
1.86657e-05
1.7425e-05
1.79239e-05
2.14885e-05
7.71055e-06
1.08993e-07
3.0823e-07
1.75084e-05
2.16067e-05
1.76725e-05
1.57175e-05
1.56786e-05
1.70292e-05
1.94919e-05
2.2966e-05
2.7337e-05
3.37953e-05
4.41146e-05
4.51136e-05
4.4507e-05
4.28042e-05
3.71955e-05
3.46096e-05
3.35807e-05
3.33018e-05
3.35412e-05
3.37075e-05
3.32174e-05
3.18796e-05
2.99775e-05
2.77576e-05
2.51916e-05
2.23978e-05
1.9558e-05
1.67072e-05
1.39197e-05
1.1677e-05
1.11002e-05
1.44332e-05
7.05971e-06
1.2304e-07
3.19551e-07
1.10092e-05
2.41077e-05
1.99019e-05
1.78163e-05
1.70963e-05
1.69871e-05
1.68181e-05
1.62965e-05
1.53955e-05
1.43347e-05
1.36972e-05
1.40733e-05
1.55276e-05
1.79284e-05
2.15474e-05
2.65805e-05
3.02583e-05
2.88033e-05
2.56241e-05
2.31821e-05
2.11895e-05
1.92769e-05
1.73846e-05
1.55744e-05
1.39314e-05
1.24963e-05
1.12743e-05
1.02678e-05
9.59006e-06
9.65033e-06
1.14478e-05
1.6613e-05
4.6411e-06
1.37285e-07
2.8089e-07
8.46385e-06
2.23723e-05
1.50252e-05
1.18828e-05
1.0695e-05
1.03192e-05
1.02889e-05
1.05257e-05
1.10538e-05
1.19195e-05
1.32088e-05
1.50729e-05
1.77128e-05
2.12632e-05
2.55882e-05
2.97712e-05
3.16584e-05
3.02841e-05
2.7288e-05
2.4213e-05
2.14108e-05
1.88278e-05
1.63982e-05
1.4139e-05
1.20978e-05
1.02386e-05
8.55288e-06
7.09754e-06
5.94794e-06
5.36002e-06
6.09222e-06
1.08132e-05
3.92013e-06
1.49022e-07
2.64725e-07
6.30769e-06
2.12246e-05
1.36291e-05
9.72306e-06
8.07994e-06
7.53043e-06
7.62985e-06
8.21115e-06
9.18227e-06
1.04945e-05
1.21311e-05
1.40583e-05
1.62485e-05
1.87554e-05
2.16656e-05
2.52235e-05
2.90709e-05
2.97959e-05
2.89786e-05
2.4531e-05
2.03191e-05
1.69643e-05
1.41869e-05
1.17828e-05
9.69081e-06
7.89742e-06
6.37566e-06
5.13361e-06
4.25059e-06
3.98265e-06
5.13436e-06
1.04772e-05
3.01176e-06
1.60382e-07
2.53212e-07
5.1455e-06
1.79959e-05
9.61256e-06
6.11536e-06
4.94486e-06
4.86231e-06
5.45406e-06
6.52118e-06
7.94814e-06
9.67439e-06
1.16595e-05
1.38421e-05
1.61926e-05
1.87658e-05
2.15356e-05
2.42857e-05
2.65014e-05
2.73915e-05
2.64165e-05
2.3886e-05
2.06382e-05
1.72883e-05
1.41537e-05
1.13402e-05
8.87093e-06
6.7662e-06
5.04055e-06
3.70693e-06
2.82209e-06
2.56008e-06
3.59421e-06
8.94356e-06
2.51446e-06
1.60689e-07
2.47843e-07
4.35624e-06
1.54057e-05
7.03666e-06
4.23607e-06
3.61472e-06
4.0057e-06
5.02974e-06
6.4808e-06
8.24456e-06
1.02637e-05
1.24475e-05
1.47259e-05
1.7085e-05
1.95326e-05
2.20027e-05
2.43217e-05
2.61426e-05
2.68713e-05
2.59456e-05
2.34361e-05
2.00817e-05
1.65916e-05
1.33319e-05
1.04301e-05
7.91974e-06
5.83897e-06
4.20742e-06
3.01685e-06
2.29828e-06
2.21851e-06
3.58382e-06
8.45096e-06
2.19907e-06
1.53827e-07
2.46919e-07
3.91381e-06
1.30032e-05
4.98839e-06
3.08281e-06
2.96063e-06
3.68242e-06
4.93437e-06
6.53803e-06
8.41552e-06
1.04942e-05
1.26901e-05
1.49425e-05
1.72261e-05
1.95097e-05
2.16711e-05
2.35211e-05
2.48267e-05
2.52756e-05
2.45508e-05
2.25671e-05
1.96355e-05
1.626e-05
1.29117e-05
9.89101e-06
7.32001e-06
5.25437e-06
3.71728e-06
2.6745e-06
2.12026e-06
2.21753e-06
3.90339e-06
8.18708e-06
2.12155e-06
1.41513e-07
2.50074e-07
3.64666e-06
1.13645e-05
4.02409e-06
2.66204e-06
2.82837e-06
3.72251e-06
5.06816e-06
6.73268e-06
8.67441e-06
1.08139e-05
1.30696e-05
1.53727e-05
1.76605e-05
1.98532e-05
2.18102e-05
2.33736e-05
2.43762e-05
2.45971e-05
2.37986e-05
2.1889e-05
1.90912e-05
1.58351e-05
1.25582e-05
9.58467e-06
7.06899e-06
5.08293e-06
3.65566e-06
2.73764e-06
2.32032e-06
2.6046e-06
4.67026e-06
8.42565e-06
2.15976e-06
1.28794e-07
2.54738e-07
3.49158e-06
1.04997e-05
3.60313e-06
2.51491e-06
2.78652e-06
3.68663e-06
4.98943e-06
6.62616e-06
8.57276e-06
1.07444e-05
1.30545e-05
1.5405e-05
1.76884e-05
1.9785e-05
2.15468e-05
2.28526e-05
2.36043e-05
2.36732e-05
2.28997e-05
2.11883e-05
1.86498e-05
1.55954e-05
1.24281e-05
9.51384e-06
7.05105e-06
5.11829e-06
3.75281e-06
2.91108e-06
2.57575e-06
2.95438e-06
5.10822e-06
9.07943e-06
2.24225e-06
1.1632e-07
2.58297e-07
3.35931e-06
1.08054e-05
3.64631e-06
2.54794e-06
2.77452e-06
3.57817e-06
4.77591e-06
6.34824e-06
8.28917e-06
1.05142e-05
1.29193e-05
1.53686e-05
1.77093e-05
1.97798e-05
2.14266e-05
2.25632e-05
2.31423e-05
2.30955e-05
2.23191e-05
2.0732e-05
1.83952e-05
1.55383e-05
1.25057e-05
9.6611e-06
7.23551e-06
5.3227e-06
3.96777e-06
3.14809e-06
2.83293e-06
3.20729e-06
5.21974e-06
9.54561e-06
2.29063e-06
1.0463e-07
2.59317e-07
3.2411e-06
1.17608e-05
3.93592e-06
2.64443e-06
2.7373e-06
3.39054e-06
4.4427e-06
5.90744e-06
7.80147e-06
1.0047e-05
1.25279e-05
1.50745e-05
1.74855e-05
1.95576e-05
2.11327e-05
2.2158e-05
2.26321e-05
2.25365e-05
2.18084e-05
2.03748e-05
1.82509e-05
1.55867e-05
1.26757e-05
9.88666e-06
7.47591e-06
5.55848e-06
4.17832e-06
3.34218e-06
2.99987e-06
3.28993e-06
5.00408e-06
9.68065e-06
2.31104e-06
9.38282e-08
2.57681e-07
3.12562e-06
1.27632e-05
4.43963e-06
2.819e-06
2.73317e-06
3.22211e-06
4.11341e-06
5.43469e-06
7.23642e-06
9.4568e-06
1.19819e-05
1.46233e-05
1.71365e-05
1.92713e-05
2.08525e-05
2.18447e-05
2.22795e-05
2.21747e-05
2.14987e-05
2.01896e-05
1.82386e-05
1.57376e-05
1.29242e-05
1.01678e-05
7.75078e-06
5.80749e-06
4.38473e-06
3.50615e-06
3.11491e-06
3.3009e-06
4.71695e-06
9.43796e-06
2.31143e-06
8.44389e-08
2.54198e-07
3.01621e-06
1.30964e-05
5.03402e-06
3.02999e-06
2.75486e-06
3.08854e-06
3.82563e-06
4.99239e-06
6.66968e-06
8.81919e-06
1.13433e-05
1.40503e-05
1.66625e-05
1.88842e-05
2.0515e-05
2.15242e-05
2.19666e-05
2.18876e-05
2.12791e-05
2.00879e-05
1.82906e-05
1.59356e-05
1.32052e-05
1.04628e-05
8.02335e-06
6.0408e-06
4.56801e-06
3.6282e-06
3.17956e-06
3.26375e-06
4.41696e-06
8.97452e-06
2.31861e-06
7.65642e-08
2.4961e-07
2.9112e-06
1.2741e-05
5.68308e-06
3.2753e-06
2.81453e-06
3.01042e-06
3.60981e-06
4.6257e-06
6.16151e-06
8.20701e-06
1.06876e-05
1.34246e-05
1.61251e-05
1.84551e-05
2.01775e-05
2.1249e-05
2.17367e-05
2.17049e-05
2.11645e-05
2.00715e-05
1.83965e-05
1.61607e-05
1.34994e-05
1.07603e-05
8.28603e-06
6.25896e-06
4.73396e-06
3.73041e-06
3.22637e-06
3.22561e-06
4.17677e-06
8.44421e-06
2.3343e-06
7.01741e-08
2.44634e-07
2.81364e-06
1.20522e-05
6.29862e-06
3.51947e-06
2.89135e-06
2.97064e-06
3.45435e-06
4.33783e-06
5.73515e-06
7.66491e-06
1.00757e-05
1.281e-05
1.55735e-05
1.80045e-05
1.9828e-05
2.09791e-05
2.15292e-05
2.15561e-05
2.10857e-05
2.00845e-05
1.85176e-05
1.63838e-05
1.37846e-05
1.10468e-05
8.5331e-06
6.45606e-06
4.87944e-06
3.81466e-06
3.25823e-06
3.18649e-06
3.98051e-06
7.9296e-06
2.36422e-06
6.50166e-08
2.39702e-07
2.72282e-06
1.1299e-05
6.85002e-06
3.75317e-06
2.98063e-06
2.96306e-06
3.35113e-06
4.12188e-06
5.38988e-06
7.2029e-06
9.52919e-06
1.22357e-05
1.50389e-05
1.75611e-05
1.94908e-05
2.07341e-05
2.13589e-05
2.14512e-05
2.10484e-05
2.01263e-05
1.86477e-05
1.65977e-05
1.40524e-05
1.1315e-05
8.76211e-06
6.63463e-06
5.00961e-06
3.89098e-06
3.28655e-06
3.15741e-06
3.83355e-06
7.4875e-06
2.40132e-06
6.08769e-08
2.35141e-07
2.6403e-06
1.06136e-05
7.30033e-06
3.95848e-06
3.06822e-06
2.97191e-06
3.28223e-06
3.96035e-06
5.11579e-06
6.82218e-06
9.06334e-06
1.17293e-05
1.45521e-05
1.71476e-05
1.91737e-05
2.05067e-05
2.1207e-05
2.13649e-05
2.10267e-05
2.01758e-05
1.87731e-05
1.67951e-05
1.42986e-05
1.15618e-05
8.9715e-06
6.79464e-06
5.12346e-06
3.95943e-06
3.30977e-06
3.13343e-06
3.71873e-06
7.11738e-06
2.44438e-06
5.75252e-08
2.31089e-07
2.56628e-06
1.0021e-05
7.65524e-06
4.1352e-06
3.15108e-06
2.99101e-06
3.23804e-06
3.83999e-06
4.89903e-06
6.51094e-06
8.6714e-06
1.12911e-05
1.41204e-05
1.67755e-05
1.88897e-05
2.03096e-05
2.10845e-05
2.13064e-05
2.10281e-05
2.02393e-05
1.88992e-05
1.69793e-05
1.45234e-05
1.17865e-05
9.16148e-06
6.93851e-06
5.22442e-06
4.0219e-06
3.33136e-06
3.11672e-06
3.63267e-06
6.82245e-06
2.4883e-06
5.4804e-08
2.27601e-07
2.50174e-06
9.52635e-06
7.92054e-06
4.28053e-06
3.22368e-06
3.01255e-06
3.20851e-06
3.74869e-06
4.72776e-06
6.25945e-06
8.34838e-06
1.09227e-05
1.37505e-05
1.6452e-05
1.86418e-05
2.01396e-05
2.09831e-05
2.12637e-05
2.10393e-05
2.03045e-05
1.90167e-05
1.71446e-05
1.47233e-05
1.19866e-05
9.33049e-06
7.06576e-06
5.31289e-06
4.07635e-06
3.35045e-06
3.10444e-06
3.56624e-06
6.58686e-06
2.53166e-06
5.25798e-08
2.24671e-07
2.44666e-06
9.11814e-06
8.11657e-06
4.39898e-06
3.28599e-06
3.03406e-06
3.18883e-06
3.67878e-06
4.59151e-06
6.05547e-06
8.08211e-06
1.06141e-05
1.34362e-05
1.61748e-05
1.84302e-05
1.99985e-05
2.09048e-05
2.12393e-05
2.10631e-05
2.03747e-05
1.91298e-05
1.72951e-05
1.49011e-05
1.2163e-05
9.47866e-06
7.17647e-06
5.38933e-06
4.12341e-06
3.36802e-06
3.09667e-06
3.51641e-06
6.40282e-06
2.57165e-06
5.07622e-08
2.22255e-07
2.40066e-06
8.78673e-06
8.25801e-06
4.49303e-06
3.33718e-06
3.05293e-06
3.17466e-06
3.6241e-06
4.48261e-06
5.89055e-06
7.86458e-06
1.03593e-05
1.31739e-05
1.59419e-05
1.82527e-05
1.98824e-05
2.08443e-05
2.12265e-05
2.10924e-05
2.04438e-05
1.92341e-05
1.74289e-05
1.50564e-05
1.23157e-05
9.60582e-06
7.27032e-06
5.4532e-06
4.16224e-06
3.38275e-06
3.09123e-06
3.47833e-06
6.25888e-06
2.60715e-06
4.92696e-08
2.20292e-07
2.36264e-06
8.51887e-06
8.36034e-06
4.56732e-06
3.37861e-06
3.06875e-06
3.16404e-06
3.58077e-06
4.39493e-06
5.75662e-06
7.68665e-06
1.01494e-05
1.29569e-05
1.57492e-05
1.81079e-05
1.97918e-05
2.08032e-05
2.12279e-05
2.11307e-05
2.05158e-05
1.93349e-05
1.75522e-05
1.51949e-05
1.24496e-05
9.71589e-06
7.35044e-06
5.50695e-06
4.19461e-06
3.39517e-06
3.08743e-06
3.44904e-06
6.14654e-06
2.6374e-06
4.80385e-08
2.18706e-07
2.33136e-06
8.3031e-06
8.43352e-06
4.62484e-06
3.41105e-06
3.08107e-06
3.15536e-06
3.54581e-06
4.32393e-06
5.64786e-06
7.54171e-06
9.97802e-06
1.27796e-05
1.55928e-05
1.79926e-05
1.97234e-05
2.07778e-05
2.12391e-05
2.11731e-05
2.05862e-05
1.94288e-05
1.76634e-05
1.53164e-05
1.25652e-05
9.81e-06
7.41815e-06
5.55179e-06
4.22135e-06
3.40545e-06
3.08456e-06
3.42609e-06
6.05848e-06
2.66243e-06
4.70155e-08
2.17409e-07
2.30545e-06
8.12764e-06
8.48754e-06
4.66992e-06
3.43652e-06
3.09043e-06
3.14769e-06
3.51692e-06
4.26566e-06
5.55855e-06
7.42262e-06
9.83733e-06
1.26348e-05
1.54667e-05
1.79028e-05
1.96749e-05
2.07672e-05
2.12603e-05
2.12208e-05
2.06567e-05
1.95189e-05
1.77674e-05
1.54253e-05
1.26669e-05
9.89179e-06
7.47628e-06
5.5898e-06
4.2438e-06
3.41415e-06
3.0824e-06
3.40776e-06
5.98832e-06
2.68287e-06
4.616e-08
2.16334e-07
2.28388e-06
7.98452e-06
8.5272e-06
4.70461e-06
3.4559e-06
3.09707e-06
3.14065e-06
3.49302e-06
4.21798e-06
5.48549e-06
7.32535e-06
9.72296e-06
1.25185e-05
1.53677e-05
1.78358e-05
1.96442e-05
2.07693e-05
2.12898e-05
2.12723e-05
2.07264e-05
1.9604e-05
1.78624e-05
1.55219e-05
1.27557e-05
9.96248e-06
7.52593e-06
5.62185e-06
4.26256e-06
3.42147e-06
3.08077e-06
3.39308e-06
5.93243e-06
2.69911e-06
4.54403e-08
2.15411e-07
2.26574e-06
7.8665e-06
8.55792e-06
4.73211e-06
3.47119e-06
3.10222e-06
3.13479e-06
3.47328e-06
4.17844e-06
5.42453e-06
7.24431e-06
9.62835e-06
1.24238e-05
1.52896e-05
1.77869e-05
1.9628e-05
2.07825e-05
2.1327e-05
2.13282e-05
2.07971e-05
1.96866e-05
1.79515e-05
1.56102e-05
1.28354e-05
1.00252e-05
7.56946e-06
5.64956e-06
4.27856e-06
3.42769e-06
3.07942e-06
3.38092e-06
5.88656e-06
2.71197e-06
4.48294e-08
2.14607e-07
2.25035e-06
7.76877e-06
8.58184e-06
4.75374e-06
3.48302e-06
3.10592e-06
3.12954e-06
3.45663e-06
4.1457e-06
5.37386e-06
7.17747e-06
9.55143e-06
1.23488e-05
1.52308e-05
1.77545e-05
1.96247e-05
2.0805e-05
2.137e-05
2.13869e-05
2.08676e-05
1.97659e-05
1.80345e-05
1.56905e-05
1.29069e-05
1.0081e-05
7.60791e-06
5.67387e-06
4.29253e-06
3.4332e-06
3.0784e-06
3.37084e-06
5.8489e-06
2.72202e-06
4.43061e-08
2.13882e-07
2.23714e-06
7.68699e-06
8.60098e-06
4.77118e-06
3.4926e-06
3.10893e-06
3.12517e-06
3.44274e-06
4.11865e-06
5.33134e-06
7.12162e-06
9.48807e-06
1.22888e-05
1.51868e-05
1.77353e-05
1.9632e-05
2.08353e-05
2.14185e-05
2.14486e-05
2.09387e-05
1.98433e-05
1.81134e-05
1.57652e-05
1.29724e-05
1.01316e-05
7.64252e-06
5.69563e-06
4.30501e-06
3.43822e-06
3.07768e-06
3.3623e-06
5.81706e-06
2.72992e-06
4.38529e-08
2.13216e-07
2.22561e-06
7.61745e-06
8.61701e-06
4.7855e-06
3.50027e-06
3.11102e-06
3.12096e-06
3.43059e-06
4.09584e-06
5.29557e-06
7.07529e-06
9.43672e-06
1.22422e-05
1.51558e-05
1.77271e-05
1.96477e-05
2.08715e-05
2.14705e-05
2.15119e-05
2.10094e-05
1.99185e-05
1.81885e-05
1.58351e-05
1.30329e-05
1.01779e-05
7.67387e-06
5.71517e-06
4.31618e-06
3.44284e-06
3.07727e-06
3.35514e-06
5.79027e-06
2.73598e-06
4.34579e-08
2.12602e-07
2.21552e-06
7.55835e-06
8.62931e-06
4.79673e-06
3.50613e-06
3.11236e-06
3.11722e-06
3.42051e-06
4.07732e-06
5.26636e-06
7.03771e-06
9.39591e-06
1.22069e-05
1.51357e-05
1.77285e-05
1.96709e-05
2.09135e-05
2.15268e-05
2.15781e-05
2.10816e-05
1.99937e-05
1.82623e-05
1.59025e-05
1.30904e-05
1.02214e-05
7.70307e-06
5.73313e-06
4.32631e-06
3.44706e-06
3.07697e-06
3.34894e-06
5.76724e-06
2.74061e-06
4.31107e-08
2.12044e-07
2.20658e-06
7.50759e-06
8.63824e-06
4.80518e-06
3.51041e-06
3.11306e-06
3.11382e-06
3.41192e-06
4.06173e-06
5.24169e-06
7.00627e-06
9.36263e-06
1.21799e-05
1.51236e-05
1.77364e-05
1.96992e-05
2.09591e-05
2.15855e-05
2.16456e-05
2.11542e-05
2.00683e-05
1.83344e-05
1.59678e-05
1.31457e-05
1.0263e-05
7.73094e-06
5.75023e-06
4.33594e-06
3.45115e-06
3.0769e-06
3.34361e-06
5.74744e-06
2.7443e-06
4.28015e-08
2.11535e-07
2.1987e-06
7.46447e-06
8.6437e-06
4.81104e-06
3.51339e-06
3.11336e-06
3.11083e-06
3.40472e-06
4.04891e-06
5.22159e-06
6.98124e-06
9.33738e-06
1.21618e-05
1.51201e-05
1.77516e-05
1.97329e-05
2.10085e-05
2.16467e-05
2.17144e-05
2.12269e-05
2.01418e-05
1.84047e-05
1.60307e-05
1.31985e-05
1.03028e-05
7.75757e-06
5.76662e-06
4.34524e-06
3.45522e-06
3.07703e-06
3.33891e-06
5.72998e-06
2.74717e-06
4.25232e-08
2.1107e-07
2.19161e-06
7.42678e-06
8.64683e-06
4.81513e-06
3.51532e-06
3.11308e-06
3.10786e-06
3.39834e-06
4.03799e-06
5.20469e-06
6.96059e-06
9.31738e-06
1.21492e-05
1.51217e-05
1.77709e-05
1.97695e-05
2.10596e-05
2.17084e-05
2.17829e-05
2.12986e-05
2.02138e-05
1.8473e-05
1.60915e-05
1.32494e-05
1.0341e-05
7.78317e-06
5.78245e-06
4.35433e-06
3.45939e-06
3.07747e-06
3.33486e-06
5.71441e-06
2.74963e-06
4.22707e-08
2.10642e-07
2.18532e-06
7.39491e-06
8.64687e-06
4.81689e-06
3.51608e-06
3.11249e-06
3.10537e-06
3.39331e-06
4.02945e-06
5.19146e-06
6.94488e-06
9.30345e-06
1.21433e-05
1.51296e-05
1.77952e-05
1.98092e-05
2.11119e-05
2.17699e-05
2.18499e-05
2.13679e-05
2.02828e-05
1.85381e-05
1.61492e-05
1.32975e-05
1.03769e-05
7.80718e-06
5.79722e-06
4.3628e-06
3.46336e-06
3.07804e-06
3.33138e-06
5.70079e-06
2.75152e-06
4.20414e-08
2.10226e-07
2.17948e-06
7.36567e-06
8.64734e-06
4.81863e-06
3.51678e-06
3.11184e-06
3.10289e-06
3.38846e-06
4.02148e-06
5.17942e-06
6.93097e-06
9.29175e-06
1.21396e-05
1.51393e-05
1.78205e-05
1.98491e-05
2.11638e-05
2.18307e-05
2.1916e-05
2.1436e-05
2.03504e-05
1.86017e-05
1.62056e-05
1.33445e-05
1.04121e-05
7.83051e-06
5.81144e-06
4.37086e-06
3.4671e-06
3.07858e-06
3.32816e-06
5.68814e-06
2.7532e-06
4.18306e-08
2.09849e-07
2.17433e-06
7.34161e-06
8.64392e-06
4.81772e-06
3.51604e-06
3.1106e-06
3.10068e-06
3.3849e-06
4.01604e-06
5.17139e-06
6.92243e-06
9.28651e-06
1.21429e-05
1.51555e-05
1.78509e-05
1.98925e-05
2.12177e-05
2.1892e-05
2.19816e-05
2.15031e-05
2.04164e-05
1.86636e-05
1.62602e-05
1.33901e-05
1.04461e-05
7.8532e-06
5.82525e-06
4.37863e-06
3.47068e-06
3.0791e-06
3.32521e-06
5.67677e-06
2.75472e-06
4.16385e-08
2.09469e-07
2.16949e-06
7.31899e-06
8.64212e-06
4.81762e-06
3.51594e-06
3.10999e-06
3.09903e-06
3.3817e-06
4.01063e-06
5.16304e-06
6.91321e-06
9.28029e-06
1.21451e-05
1.51707e-05
1.78804e-05
1.99349e-05
2.12706e-05
2.19522e-05
2.20459e-05
2.15686e-05
2.04809e-05
1.87241e-05
1.63137e-05
1.34347e-05
1.04797e-05
7.87566e-06
5.839e-06
4.38641e-06
3.47427e-06
3.07965e-06
3.32234e-06
5.66555e-06
2.75638e-06
4.14589e-08
2.09103e-07
2.16508e-06
7.29952e-06
8.63833e-06
4.81608e-06
3.51489e-06
3.10874e-06
3.09713e-06
3.37888e-06
4.00667e-06
5.1577e-06
6.90869e-06
9.28031e-06
1.21543e-05
1.51923e-05
1.79148e-05
1.99802e-05
2.13245e-05
2.20122e-05
2.21091e-05
2.16324e-05
2.05432e-05
1.87821e-05
1.63648e-05
1.34772e-05
1.05115e-05
7.89701e-06
5.85212e-06
4.39388e-06
3.47782e-06
3.08034e-06
3.31986e-06
5.65547e-06
2.75783e-06
4.12922e-08
2.08734e-07
2.161e-06
7.28206e-06
8.63471e-06
4.81456e-06
3.51411e-06
3.10801e-06
3.09597e-06
3.37693e-06
4.00352e-06
5.15296e-06
6.90432e-06
9.27987e-06
1.21624e-05
1.52125e-05
1.79475e-05
2.0024e-05
2.13772e-05
2.20712e-05
2.21715e-05
2.16956e-05
2.06051e-05
1.884e-05
1.6416e-05
1.35198e-05
1.05435e-05
7.9184e-06
5.86522e-06
4.40129e-06
3.48129e-06
3.08095e-06
3.31733e-06
5.64529e-06
2.75942e-06
4.11348e-08
2.08374e-07
2.15717e-06
7.26626e-06
8.63097e-06
4.81278e-06
3.51307e-06
3.10701e-06
3.09456e-06
3.37486e-06
4.00067e-06
5.14938e-06
6.90224e-06
9.28289e-06
1.21748e-05
1.52367e-05
1.79833e-05
2.00697e-05
2.14306e-05
2.213e-05
2.22331e-05
2.17574e-05
2.06651e-05
1.88957e-05
1.64648e-05
1.35602e-05
1.05738e-05
7.93875e-06
5.87777e-06
4.40847e-06
3.48475e-06
3.08173e-06
3.31517e-06
5.63606e-06
2.76077e-06
4.09844e-08
2.08031e-07
2.1537e-06
7.25309e-06
8.6252e-06
4.80988e-06
3.5116e-06
3.10601e-06
3.0935e-06
3.37354e-06
3.99904e-06
5.14754e-06
6.90225e-06
9.28805e-06
1.2189e-05
1.52622e-05
1.80198e-05
2.01156e-05
2.1484e-05
2.21888e-05
2.22949e-05
2.18196e-05
2.07257e-05
1.89523e-05
1.65148e-05
1.36018e-05
1.0605e-05
7.95973e-06
5.8907e-06
4.41585e-06
3.48828e-06
3.08248e-06
3.31292e-06
5.6266e-06
2.76232e-06
4.08422e-08
2.07703e-07
2.15042e-06
7.24075e-06
8.61989e-06
4.8072e-06
3.51024e-06
3.10501e-06
3.09235e-06
3.37206e-06
3.99729e-06
5.14579e-06
6.9027e-06
9.29408e-06
1.22044e-05
1.5289e-05
1.80573e-05
2.0162e-05
2.15374e-05
2.2247e-05
2.23555e-05
2.188e-05
2.07842e-05
1.90065e-05
1.65624e-05
1.36412e-05
1.06346e-05
7.97979e-06
5.90318e-06
4.42308e-06
3.49188e-06
3.08344e-06
3.31106e-06
5.61808e-06
2.7637e-06
4.07045e-08
2.07386e-07
2.14741e-06
7.2302e-06
8.61284e-06
4.8035e-06
3.50826e-06
3.10363e-06
3.0911e-06
3.37093e-06
3.99656e-06
5.14597e-06
6.90591e-06
9.30347e-06
1.22233e-05
1.53186e-05
1.80964e-05
2.02089e-05
2.15906e-05
2.23048e-05
2.24155e-05
2.19401e-05
2.08426e-05
1.90611e-05
1.66108e-05
1.36812e-05
1.06646e-05
7.99995e-06
5.91561e-06
4.43018e-06
3.49533e-06
3.08429e-06
3.30914e-06
5.60971e-06
2.76501e-06
4.05713e-08
2.07084e-07
2.14453e-06
7.22023e-06
8.60601e-06
4.79984e-06
3.50625e-06
3.10223e-06
3.08994e-06
3.37001e-06
3.9961e-06
5.14642e-06
6.90927e-06
9.31279e-06
1.22419e-05
1.53478e-05
1.81351e-05
2.02554e-05
2.16433e-05
2.23618e-05
2.24746e-05
2.1999e-05
2.08997e-05
1.91145e-05
1.66581e-05
1.37206e-05
1.06943e-05
8.02009e-06
5.92813e-06
4.43741e-06
3.4989e-06
3.08527e-06
3.30741e-06
5.60181e-06
2.76638e-06
4.04394e-08
2.06793e-07
2.14195e-06
7.21211e-06
8.59795e-06
4.79532e-06
3.50376e-06
3.10063e-06
3.08886e-06
3.36947e-06
3.99642e-06
5.1482e-06
6.91457e-06
9.32458e-06
1.22631e-05
1.53792e-05
1.81751e-05
2.03023e-05
2.16955e-05
2.24177e-05
2.25322e-05
2.20562e-05
2.09549e-05
1.91663e-05
1.67044e-05
1.37592e-05
1.07236e-05
8.04003e-06
5.94059e-06
4.44465e-06
3.50252e-06
3.08629e-06
3.30573e-06
5.59399e-06
2.76784e-06
4.031e-08
2.06516e-07
2.13949e-06
7.20469e-06
8.58984e-06
4.79076e-06
3.50131e-06
3.09915e-06
3.08794e-06
3.3691e-06
3.9969e-06
5.15015e-06
6.91998e-06
9.3364e-06
1.22843e-05
1.54105e-05
1.82148e-05
2.03485e-05
2.17468e-05
2.24726e-05
2.25887e-05
2.21121e-05
2.10089e-05
1.92173e-05
1.67505e-05
1.37978e-05
1.0753e-05
8.06018e-06
5.95325e-06
4.45206e-06
3.50629e-06
3.08748e-06
3.30424e-06
5.58634e-06
2.7696e-06
4.01842e-08
2.06234e-07
2.13728e-06
7.19882e-06
8.58146e-06
4.78591e-06
3.49879e-06
3.09775e-06
3.08721e-06
3.36907e-06
3.99796e-06
5.15309e-06
6.92688e-06
9.35018e-06
1.23076e-05
1.54438e-05
1.82558e-05
2.03952e-05
2.17977e-05
2.25265e-05
2.26436e-05
2.21662e-05
2.10609e-05
1.92666e-05
1.67952e-05
1.38352e-05
1.07815e-05
8.07965e-06
5.96542e-06
4.45915e-06
3.50987e-06
3.0886e-06
3.30282e-06
5.5791e-06
2.77139e-06
4.00638e-08
2.05941e-07
2.13505e-06
7.19247e-06
8.57458e-06
4.78194e-06
3.49665e-06
3.09642e-06
3.08637e-06
3.36883e-06
3.99879e-06
5.15584e-06
6.93356e-06
9.36358e-06
1.23303e-05
1.54758e-05
1.82951e-05
2.04401e-05
2.1847e-05
2.2579e-05
2.26976e-05
2.22197e-05
2.11127e-05
1.93158e-05
1.68398e-05
1.38725e-05
1.08098e-05
8.0989e-06
5.97734e-06
4.46599e-06
3.51327e-06
3.0896e-06
3.30135e-06
5.57175e-06
2.7732e-06
3.99462e-08
2.05655e-07
2.13308e-06
7.1882e-06
8.56571e-06
4.77668e-06
3.4938e-06
3.09482e-06
3.08572e-06
3.36929e-06
4.00091e-06
5.16052e-06
6.94273e-06
9.37979e-06
1.23557e-05
1.551e-05
1.83358e-05
2.04853e-05
2.18958e-05
2.26304e-05
2.27502e-05
2.22718e-05
2.11631e-05
1.93639e-05
1.68837e-05
1.39095e-05
1.08382e-05
8.11832e-06
5.98939e-06
4.47288e-06
3.51662e-06
3.09053e-06
3.29979e-06
5.56417e-06
2.77516e-06
3.98341e-08
2.05352e-07
2.13114e-06
7.18373e-06
8.55864e-06
4.77254e-06
3.49174e-06
3.09381e-06
3.08545e-06
3.36986e-06
4.00274e-06
5.16442e-06
6.95054e-06
9.39407e-06
1.23786e-05
1.55416e-05
1.8374e-05
2.05284e-05
2.19431e-05
2.26809e-05
2.28023e-05
2.23236e-05
2.12135e-05
1.94121e-05
1.69279e-05
1.3947e-05
1.0867e-05
8.13814e-06
6.00179e-06
4.48002e-06
3.5201e-06
3.09149e-06
3.29815e-06
5.55615e-06
2.77735e-06
3.9726e-08
2.05066e-07
2.12938e-06
7.18085e-06
8.55027e-06
4.76739e-06
3.48892e-06
3.09226e-06
3.08494e-06
3.37063e-06
4.0054e-06
5.16997e-06
6.96082e-06
9.41136e-06
1.24046e-05
1.55753e-05
1.84131e-05
2.05715e-05
2.19896e-05
2.27303e-05
2.28532e-05
2.23743e-05
2.12627e-05
1.94593e-05
1.69713e-05
1.39838e-05
1.08955e-05
8.15787e-06
6.01423e-06
4.48728e-06
3.52376e-06
3.09265e-06
3.29675e-06
5.54834e-06
2.77978e-06
3.96198e-08
2.04784e-07
2.1278e-06
7.17926e-06
8.54052e-06
4.76179e-06
3.48631e-06
3.09131e-06
3.08524e-06
3.37219e-06
4.0086e-06
5.17563e-06
6.97067e-06
9.42779e-06
1.24296e-05
1.56085e-05
1.84522e-05
2.0615e-05
2.20366e-05
2.27802e-05
2.29044e-05
2.24252e-05
2.13122e-05
1.9507e-05
1.70153e-05
1.40214e-05
1.09247e-05
8.17802e-06
6.02688e-06
4.49461e-06
3.5274e-06
3.0938e-06
3.29534e-06
5.54052e-06
2.78247e-06
3.95142e-08
2.0451e-07
2.12625e-06
7.17765e-06
8.53294e-06
4.75719e-06
3.4841e-06
3.09037e-06
3.08521e-06
3.37321e-06
4.01126e-06
5.18099e-06
6.9807e-06
9.44497e-06
1.24557e-05
1.56428e-05
1.84922e-05
2.0659e-05
2.20841e-05
2.28305e-05
2.29563e-05
2.24767e-05
2.13624e-05
1.95553e-05
1.70599e-05
1.40596e-05
1.09545e-05
8.19875e-06
6.03998e-06
4.50222e-06
3.5312e-06
3.09501e-06
3.29393e-06
5.53246e-06
2.7854e-06
3.94082e-08
2.04241e-07
2.12479e-06
7.17692e-06
8.523e-06
4.75149e-06
3.4814e-06
3.08927e-06
3.08539e-06
3.37483e-06
4.01488e-06
5.18759e-06
6.992e-06
9.4632e-06
1.24825e-05
1.56774e-05
1.85321e-05
2.07026e-05
2.21309e-05
2.28801e-05
2.30074e-05
2.25276e-05
2.1412e-05
1.96032e-05
1.71046e-05
1.40983e-05
1.0985e-05
8.22023e-06
6.05369e-06
4.51026e-06
3.53524e-06
3.09633e-06
3.29252e-06
5.52409e-06
2.78862e-06
3.93036e-08
2.03978e-07
2.12339e-06
7.17613e-06
8.51522e-06
4.74685e-06
3.4793e-06
3.08861e-06
3.08578e-06
3.37629e-06
4.0178e-06
5.19287e-06
7.00152e-06
9.47954e-06
1.25078e-05
1.57112e-05
1.8572e-05
2.07468e-05
2.21785e-05
2.29305e-05
2.30591e-05
2.25789e-05
2.14619e-05
1.96514e-05
1.71495e-05
1.41373e-05
1.1016e-05
8.24222e-06
6.06786e-06
4.51868e-06
3.53956e-06
3.09786e-06
3.29124e-06
5.51572e-06
2.79224e-06
3.92004e-08
2.03713e-07
2.12199e-06
7.17557e-06
8.50688e-06
4.742e-06
3.47712e-06
3.08784e-06
3.08603e-06
3.37768e-06
4.02094e-06
5.19892e-06
7.01249e-06
9.49791e-06
1.25352e-05
1.57467e-05
1.86127e-05
2.07909e-05
2.22255e-05
2.29798e-05
2.31095e-05
2.26287e-05
2.15103e-05
1.96984e-05
1.71934e-05
1.41755e-05
1.10463e-05
8.26376e-06
6.08178e-06
4.52699e-06
3.54386e-06
3.09942e-06
3.29006e-06
5.50765e-06
2.79562e-06
3.90973e-08
2.03455e-07
2.12067e-06
7.17507e-06
8.49999e-06
4.73784e-06
3.47522e-06
3.08715e-06
3.08625e-06
3.37892e-06
4.02373e-06
5.20424e-06
7.02218e-06
9.51447e-06
1.25607e-05
1.57805e-05
1.86524e-05
2.08348e-05
2.22726e-05
2.30295e-05
2.31603e-05
2.26789e-05
2.15591e-05
1.97456e-05
1.72377e-05
1.42143e-05
1.10772e-05
8.28575e-06
6.09599e-06
4.53549e-06
3.5483e-06
3.10111e-06
3.28904e-06
5.49993e-06
2.79931e-06
3.89946e-08
2.032e-07
2.11937e-06
7.17477e-06
8.49258e-06
4.73342e-06
3.47318e-06
3.08638e-06
3.0864e-06
3.3801e-06
4.02653e-06
5.20986e-06
7.03273e-06
9.53263e-06
1.25884e-05
1.58168e-05
1.8694e-05
2.08796e-05
2.23198e-05
2.30785e-05
2.32099e-05
2.27274e-05
2.16058e-05
1.97907e-05
1.728e-05
1.42514e-05
1.1107e-05
8.30703e-06
6.10982e-06
4.5438e-06
3.55268e-06
3.10281e-06
3.28808e-06
5.4924e-06
2.8028e-06
3.88914e-08
2.02953e-07
2.11806e-06
7.17413e-06
8.48603e-06
4.72942e-06
3.47124e-06
3.08549e-06
3.08624e-06
3.38084e-06
4.02885e-06
5.21505e-06
7.04289e-06
9.55042e-06
1.26156e-05
1.58524e-05
1.8735e-05
2.09237e-05
2.23664e-05
2.3127e-05
2.3259e-05
2.27754e-05
2.16521e-05
1.98354e-05
1.73221e-05
1.42885e-05
1.11368e-05
8.32843e-06
6.12376e-06
4.55222e-06
3.55716e-06
3.10464e-06
3.28734e-06
5.48534e-06
2.8066e-06
3.87911e-08
2.02696e-07
2.11687e-06
7.17417e-06
8.47876e-06
4.72495e-06
3.46904e-06
3.08442e-06
3.08601e-06
3.38171e-06
4.03158e-06
5.22109e-06
7.05443e-06
9.57009e-06
1.2645e-05
1.58899e-05
1.87771e-05
2.09683e-05
2.24128e-05
2.31749e-05
2.33072e-05
2.28224e-05
2.16973e-05
1.98791e-05
1.73631e-05
1.43246e-05
1.11658e-05
8.34926e-06
6.13733e-06
4.56039e-06
3.56147e-06
3.10632e-06
3.28647e-06
5.4783e-06
2.81014e-06
3.86948e-08
2.02437e-07
2.11553e-06
7.17285e-06
8.47337e-06
4.72139e-06
3.46698e-06
3.08308e-06
3.08528e-06
3.38194e-06
4.03361e-06
5.22636e-06
7.06505e-06
9.58849e-06
1.26724e-05
1.59248e-05
1.88164e-05
2.10102e-05
2.24568e-05
2.32208e-05
2.33538e-05
2.2868e-05
2.17412e-05
1.99215e-05
1.74029e-05
1.43594e-05
1.11939e-05
8.36943e-06
6.15056e-06
4.56846e-06
3.56586e-06
3.1082e-06
3.28595e-06
5.47199e-06
2.81371e-06
3.8601e-08
2.02203e-07
2.11466e-06
7.17551e-06
8.46293e-06
4.71496e-06
3.46361e-06
3.08134e-06
3.08485e-06
3.38315e-06
4.03743e-06
5.23458e-06
7.0799e-06
9.61231e-06
1.27059e-05
1.59654e-05
1.886e-05
2.10547e-05
2.25021e-05
2.3267e-05
2.34e-05
2.29127e-05
2.17839e-05
1.99623e-05
1.74409e-05
1.43926e-05
1.12203e-05
8.38829e-06
6.16277e-06
4.57579e-06
3.56973e-06
3.10973e-06
3.28521e-06
5.46588e-06
2.81663e-06
3.85121e-08
2.0195e-07
2.11351e-06
7.17516e-06
8.45723e-06
4.7112e-06
3.46143e-06
3.07987e-06
3.08395e-06
3.38328e-06
4.03955e-06
5.24029e-06
7.09126e-06
9.63149e-06
1.27337e-05
1.59998e-05
1.88978e-05
2.10945e-05
2.25438e-05
2.33107e-05
2.34447e-05
2.29566e-05
2.18262e-05
2.00031e-05
1.74791e-05
1.44259e-05
1.12469e-05
8.4072e-06
6.17504e-06
4.58321e-06
3.57373e-06
3.11143e-06
3.28468e-06
5.45989e-06
2.81988e-06
3.84227e-08
2.01732e-07
2.11286e-06
7.17941e-06
8.44414e-06
4.70313e-06
3.45687e-06
3.0772e-06
3.08303e-06
3.38472e-06
4.04462e-06
5.25109e-06
7.10985e-06
9.6597e-06
1.27713e-05
1.6043e-05
1.89421e-05
2.11381e-05
2.25873e-05
2.33549e-05
2.34889e-05
2.29993e-05
2.1867e-05
2.00422e-05
1.75154e-05
1.44574e-05
1.12718e-05
8.42481e-06
6.18632e-06
4.5899e-06
3.57722e-06
3.11278e-06
3.28398e-06
5.45441e-06
2.82254e-06
3.83365e-08
2.01495e-07
2.11202e-06
7.18137e-06
8.43527e-06
4.69763e-06
3.45391e-06
3.0756e-06
3.08258e-06
3.38581e-06
4.04813e-06
5.25854e-06
7.12316e-06
9.68087e-06
1.2801e-05
1.60789e-05
1.89807e-05
2.11779e-05
2.26285e-05
2.33976e-05
2.35322e-05
2.30414e-05
2.19073e-05
2.0081e-05
1.75517e-05
1.44892e-05
1.12972e-05
8.44283e-06
6.19795e-06
4.59685e-06
3.58086e-06
3.11417e-06
3.28316e-06
5.4481e-06
2.82552e-06
3.82453e-08
2.0126e-07
2.11138e-06
7.18562e-06
8.42203e-06
4.68947e-06
3.4493e-06
3.07295e-06
3.08178e-06
3.38752e-06
4.05367e-06
5.27005e-06
7.14268e-06
9.71005e-06
1.28392e-05
1.6122e-05
1.90242e-05
2.12203e-05
2.26706e-05
2.34403e-05
2.3575e-05
2.30829e-05
2.19469e-05
2.01189e-05
1.75871e-05
1.45201e-05
1.13216e-05
8.46005e-06
6.20899e-06
4.6034e-06
3.58427e-06
3.11545e-06
3.28236e-06
5.44223e-06
2.82816e-06
3.81579e-08
2.01003e-07
2.11075e-06
7.1892e-06
8.41166e-06
4.68309e-06
3.44596e-06
3.07141e-06
3.08193e-06
3.38977e-06
4.05885e-06
5.27953e-06
7.15798e-06
9.73264e-06
1.28692e-05
1.61571e-05
1.9061e-05
2.12578e-05
2.27094e-05
2.34811e-05
2.36167e-05
2.31239e-05
2.19865e-05
2.01575e-05
1.76235e-05
1.45519e-05
1.13468e-05
8.47777e-06
6.22024e-06
4.61e-06
3.58761e-06
3.11659e-06
3.28129e-06
5.4355e-06
2.831e-06
3.80666e-08
2.00759e-07