/*--------------------------------*- C++ -*----------------------------------*\
| =========                 |                                                 |
| \\      /  F ield         | OpenFOAM: The Open Source CFD Toolbox           |
|  \\    /   O peration     | Version:  v2006                                 |
|   \\  /    A nd           | Website:  www.openfoam.com                      |
|    \\/     M anipulation  |                                                 |
\*---------------------------------------------------------------------------*/
FoamFile
{
    version     2.0;
    format      ascii;
    class       volScalarField;
    location    "3";
    object      omega;
}
// * * * * * * * * * * * * * * * * * * * * * * * * * * * * * * * * * * * * * //

dimensions      [0 0 -1 0 0 0 0];


internalField   nonuniform List<scalar> 
78750
(
376.478
13.9751
16.4711
15.9212
15.8389
15.7232
15.6352
15.5613
15.4968
15.44
15.3896
15.3449
15.3058
15.2718
15.2427
15.2177
15.196
15.1769
15.1599
15.1441
15.1286
15.1122
15.0937
15.072
15.0452
15.0098
14.9629
14.901
14.8193
14.7129
14.5792
14.4192
14.2432
14.0514
358.118
534.928
7.73718
8.1388
8.0348
7.76079
7.48871
7.28637
7.13701
7.0211
6.9306
6.86259
6.81118
6.77174
6.74158
6.72089
6.70397
6.69003
6.67969
6.67365
6.67037
6.66803
6.66457
6.6583
6.64863
6.63355
6.61098
6.5782
6.52957
6.4546
6.33511
6.14286
5.8474
5.46583
5.0476
525.876
535.236
6.31437
6.43531
6.22162
5.95305
5.76877
5.65587
5.58403
5.53748
5.50846
5.49326
5.48211
5.47145
5.46121
5.45201
5.4445
5.43918
5.43616
5.43542
5.43696
5.44096
5.44785
5.45875
5.47512
5.497
5.52469
5.55797
5.59464
5.62783
5.6415
5.60688
5.49164
5.30085
5.02202
526.564
535.107
5.92029
6.11099
6.11325
6.03697
5.97197
5.9409
5.92952
5.92151
5.90781
5.88705
5.86205
5.8366
5.81052
5.78506
5.76088
5.73928
5.72153
5.70728
5.69528
5.68413
5.67263
5.6598
5.64495
5.62796
5.6089
5.58723
5.56224
5.53219
5.49164
5.42904
5.32717
5.18578
4.97729
526.714
535.153
5.74137
5.90481
5.94993
5.91343
5.8272
5.71734
5.59937
5.48508
5.38476
5.30605
5.25314
5.22493
5.21376
5.21307
5.21718
5.22245
5.22672
5.22907
5.2293
5.22732
5.22316
5.21702
5.20973
5.20294
5.19814
5.19528
5.19439
5.19443
5.19151
5.17587
5.13292
5.05991
4.92748
527.28
535.008
5.58608
5.71493
5.73104
5.66465
5.55259
5.43958
5.35266
5.29965
5.27635
5.27578
5.29128
5.31466
5.33745
5.35497
5.36608
5.37176
5.3732
5.37087
5.36428
5.35322
5.33684
5.31398
5.28359
5.24513
5.19887
5.1475
5.09374
5.0416
4.99672
4.96456
4.94566
4.931
4.87347
527.532
534.948
5.46384
5.55689
5.54218
5.44719
5.31679
5.20705
5.14225
5.11641
5.11439
5.12444
5.13995
5.15691
5.17099
5.18064
5.18638
5.18931
5.1901
5.1888
5.18503
5.17764
5.16542
5.14699
5.12089
5.08586
5.0419
4.99075
4.9334
4.87282
4.81817
4.78731
4.79625
4.82926
4.83146
528.059
534.906
5.35311
5.39692
5.33158
5.19264
5.05974
4.99133
4.98513
5.01386
5.05657
5.103
5.1458
5.18004
5.20544
5.22277
5.23324
5.23846
5.23945
5.23659
5.22952
5.21702
5.19793
5.17049
5.13251
5.08186
5.01746
4.94076
4.85549
4.76634
4.68573
4.64227
4.66812
4.74044
4.78649
528.515
534.887
5.26211
5.25961
5.1546
5.00021
4.90278
4.89223
4.93216
4.98666
5.04007
5.08729
5.12349
5.1485
5.16459
5.17378
5.17791
5.17857
5.17651
5.17178
5.16379
5.15128
5.13251
5.10537
5.06724
5.01556
4.94889
4.8692
4.78088
4.68929
4.61003
4.57683
4.62142
4.70814
4.76041
529.046
534.886
5.19093
5.14444
5.01181
4.87089
4.82518
4.86024
4.92374
4.98798
5.04622
5.09339
5.1277
5.15131
5.1668
5.17599
5.18032
5.18105
5.17866
5.173
5.16338
5.1485
5.1267
5.09596
5.0535
4.99692
4.92484
4.8401
4.75106
4.6655
4.59948
4.58302
4.63643
4.71442
4.74531
529.476
534.9
5.15012
5.07538
4.93639
4.82527
4.81858
4.87265
4.93836
4.99897
5.05181
5.09206
5.12
5.13844
5.14984
5.15597
5.15821
5.15762
5.15448
5.14848
5.13885
5.12426
5.1029
5.07279
5.03132
4.9761
4.90622
4.82565
4.74583
4.6762
4.63112
4.63139
4.6815
4.73377
4.73083
529.828
534.919
5.13718
5.04934
4.91584
4.82763
4.83497
4.88698
4.94514
5.00026
5.04897
5.08596
5.11206
5.12961
5.14075
5.14698
5.1495
5.1492
5.14625
5.14032
5.13066
5.11607
5.0949
5.06544
5.02544
4.97259
4.90616
4.82985
4.75668
4.6988
4.66709
4.67296
4.70994
4.73409
4.70283
530.058
534.934
5.14429
5.06046
4.93926
4.85934
4.86063
4.8996
4.94652
4.99501
5.04018
5.07525
5.10016
5.11689
5.12748
5.13339
5.13581
5.13559
5.13288
5.12735
5.11828
5.10453
5.08453
5.05679
5.01943
4.97006
4.90807
4.83662
4.76793
4.71653
4.68941
4.69095
4.70961
4.70966
4.66095
530.209
534.938
5.16048
5.09218
4.9843
4.90204
4.88662
4.90743
4.9414
4.98306
5.02593
5.06075
5.08613
5.10359
5.11498
5.12164
5.12471
5.12508
5.12289
5.11787
5.1094
5.09646
5.07765
5.05165
5.01675
4.97101
4.91321
4.84561
4.77786
4.72706
4.6975
4.6891
4.68928
4.67141
4.61392
530.288
534.931
5.17772
5.13087
5.03742
4.95022
4.91508
4.91604
4.93568
4.96895
5.00942
5.04445
5.07081
5.08934
5.10168
5.10915
5.11289
5.11383
5.11218
5.10771
5.09988
5.08778
5.07011
5.04566
5.01284
4.96993
4.91564
4.85123
4.78402
4.73103
4.6966
4.67764
4.66223
4.6317
4.5702
530.328
534.918
5.19003
5.16568
5.08627
4.99633
4.94361
4.92579
4.93103
4.95503
4.99249
5.02768
5.05528
5.07524
5.08889
5.09747
5.10211
5.10378
5.10274
5.09886
5.09169
5.08041
5.06386
5.04091
5.01006
4.96959
4.91827
4.85641
4.78958
4.73242
4.69248
4.66435
4.63701
4.59764
4.53393
530.339
534.901
5.1949
5.1916
5.12657
5.03715
4.97129
4.93744
4.9291
4.94306
4.9763
5.01117
5.03987
5.06122
5.07616
5.08583
5.09134
5.09367
5.0932
5.08985
5.08323
5.07265
5.05702
5.03532
5.0061
4.96762
4.91855
4.85899
4.79275
4.73195
4.68735
4.65215
4.61623
4.57065
4.50544
530.338
534.882
5.19191
5.20627
5.1548
5.06926
4.99543
4.94938
4.9295
4.93403
4.9622
4.99614
5.02559
5.04817
5.06433
5.07507
5.08145
5.08444
5.0845
5.08163
5.0755
5.06551
5.0507
5.03009
5.00228
4.96558
4.91849
4.8608
4.79526
4.73146
4.68288
4.64225
4.60019
4.55011
4.48354
530.327
534.864
5.1824
5.21043
5.17131
5.09227
5.01517
4.96072
4.93149
4.92746
4.94981
4.98226
5.0121
5.03568
5.05293
5.06465
5.07183
5.07544
5.076
5.07355
5.06783
5.05831
5.04414
5.02437
4.9977
4.96244
4.91702
4.86094
4.79634
4.73074
4.67889
4.63422
4.58781
4.53447
4.46668
530.315
534.847
5.16869
5.20642
5.17801
5.10683
5.03002
4.97044
4.93408
4.92283
4.9394
4.97007
5
5.02437
5.04255
5.05516
5.06308
5.06725
5.06828
5.06622
5.06088
5.05177
5.03813
5.01906
4.99332
4.95927
4.91527
4.86058
4.79687
4.73045
4.67558
4.62785
4.57833
4.52254
4.45363
530.301
534.833
5.15316
5.19727
5.17789
5.11492
5.04063
4.97834
4.93666
4.91932
4.93035
4.95908
4.98887
5.01385
5.03282
5.04621
5.05479
5.05949
5.06094
5.05923
5.0542
5.04544
5.03224
5.01374
4.98876
4.9557
4.9129
4.85944
4.79658
4.72994
4.67261
4.62264
4.5709
4.51328
4.44339
530.288
534.82
5.13771
5.18572
5.17366
5.11842
5.04775
4.98437
4.93885
4.91653
4.92262
4.94946
4.97899
5.00439
5.02402
5.03808
5.04724
5.0524
5.05423
5.05283
5.04808
5.03961
5.02678
5.00874
4.98439
4.95218
4.9104
4.85801
4.79597
4.72928
4.67004
4.61842
4.56504
4.50602
4.43528
530.276
534.81
5.12353
5.17377
5.16749
5.11906
5.05229
4.98877
4.94047
4.91408
4.91579
4.94083
4.97001
4.99574
5.01591
5.03054
5.04021
5.04579
5.04794
5.04681
5.0423
5.03407
5.02153
5.00387
4.98003
4.94852
4.90762
4.85617
4.79489
4.72832
4.66772
4.61492
4.56035
4.50026
4.42881
530.266
534.801
5.11119
5.16257
5.16073
5.11801
5.05493
4.99177
4.94145
4.9118
4.90978
4.9332
4.96202
4.98798
5.00859
5.0237
5.0338
5.03974
5.04217
5.04126
5.03695
5.02891
5.01661
4.99924
4.97581
4.94487
4.9047
4.85406
4.79347
4.72708
4.66555
4.61193
4.55651
4.49561
4.42358
530.258
534.795
5.10076
5.15263
5.15415
5.11604
5.05621
4.99363
4.94186
4.90958
4.9044
4.92639
4.95484
4.98096
5.00193
5.01744
5.02789
5.03414
5.03682
5.03611
5.03195
5.02408
5.01197
4.99484
4.97176
4.94129
4.90172
4.85177
4.79181
4.72566
4.66348
4.60929
4.55329
4.4918
4.41931
530.251
534.79
5.0921
5.14407
5.14809
5.11363
5.05652
4.99457
4.94177
4.90739
4.89956
4.92032
4.94842
4.97464
4.99589
5.01173
5.02249
5.029
5.03188
5.03133
5.02731
5.01956
5.00761
4.99067
4.96787
4.9378
4.89874
4.8494
4.78999
4.72412
4.66149
4.60692
4.5505
4.48859
4.41576
530.246
534.786
5.08491
5.13677
5.14265
5.11105
5.05619
4.99484
4.94125
4.90522
4.89519
4.91487
4.94264
4.96893
4.99041
5.00651
5.01753
5.02426
5.02731
5.02691
5.023
5.01535
5.00351
4.98675
4.96419
4.93444
4.89583
4.84701
4.7881
4.72251
4.65961
4.60478
4.54807
4.48584
4.41277
530.242
534.782
5.07891
5.13058
5.13784
5.10845
5.0554
4.99459
4.94041
4.9031
4.89125
4.90998
4.93745
4.96376
4.98541
5.00173
5.01296
5.01988
5.02309
5.0228
5.01898
5.01142
4.99968
4.98306
4.96069
4.93123
4.893
4.84463
4.78617
4.72088
4.65781
4.60281
4.5459
4.48345
4.41021
530.239
534.78
5.07381
5.12526
5.13357
5.10592
5.05437
4.99407
4.93946
4.90109
4.88768
4.90555
4.93272
4.95904
4.98083
4.99733
5.00874
5.01582
5.01916
5.01898
5.01524
5.00775
4.99609
4.9796
4.9574
4.92819
4.89029
4.84232
4.78427
4.71926
4.6561
4.601
4.54395
4.48135
4.408
530.237
534.778
5.06944
5.12065
5.12976
5.1035
5.05317
4.99332
4.93838
4.89914
4.88444
4.90153
4.92842
4.95474
4.97664
4.99328
5.00484
5.01206
5.01551
5.01541
5.01174
5.00431
4.99273
4.97634
4.95429
4.92529
4.88769
4.84008
4.78241
4.71767
4.65448
4.59932
4.54218
4.47948
4.40605
530.235
534.776
5.06558
5.11658
5.12632
5.10119
5.0519
4.99246
4.93726
4.8973
4.88156
4.89787
4.9245
4.95079
4.97277
4.98954
5.00122
5.00855
5.0121
5.01208
5.00847
5.00109
4.98957
4.97327
4.95136
4.92255
4.88521
4.83794
4.78062
4.71615
4.65297
4.59778
4.54057
4.47779
4.40433
530.234
534.774
5.06214
5.11295
5.12319
5.09898
5.05056
4.99147
4.93607
4.89551
4.87893
4.89452
4.9209
4.94716
4.96921
4.98607
4.99786
5.00529
5.00892
5.00896
5.0054
4.99806
4.9866
4.97038
4.94858
4.91994
4.88285
4.83587
4.77888
4.71467
4.65153
4.59634
4.53909
4.47626
4.40279
530.233
534.773
5.05901
5.10963
5.1203
5.09687
5.04919
4.99041
4.93486
4.89384
4.87657
4.89149
4.91762
4.94384
4.96593
4.98286
4.99474
5.00225
5.00595
5.00605
5.00254
4.99524
4.98382
4.96768
4.94598
4.9175
4.88062
4.83393
4.77722
4.71326
4.65019
4.595
4.53773
4.47486
4.4014
530.232
534.771
5.05615
5.10659
5.11759
5.09481
5.04776
4.98926
4.9336
4.8922
4.87436
4.88866
4.91456
4.94073
4.96286
4.97986
4.99181
4.99939
5.00316
5.00331
4.99984
4.99258
4.9812
4.96513
4.94353
4.91519
4.87852
4.83208
4.77566
4.71192
4.64893
4.59377
4.53648
4.47359
4.40015
530.232
534.77
5.05355
5.10379
5.11505
5.09283
5.04633
4.98809
4.93235
4.89063
4.87232
4.88608
4.91177
4.9379
4.96004
4.97708
4.98909
4.99674
5.00056
5.00075
4.99731
4.99008
4.97875
4.96274
4.94123
4.91303
4.87655
4.83035
4.77419
4.71068
4.64777
4.59262
4.53532
4.47242
4.39899
530.231
534.769
5.05114
5.10118
5.11266
5.0909
5.04487
4.98685
4.93106
4.88909
4.87039
4.88368
4.90918
4.93525
4.95741
4.97448
4.98653
4.99423
4.9981
4.99833
4.99492
4.98772
4.97641
4.96046
4.93904
4.91097
4.87468
4.82872
4.77281
4.70952
4.6467
4.59157
4.53426
4.47134
4.39794
530.231
534.769
5.04893
5.09876
5.1104
5.08904
5.04341
4.9856
4.9298
4.88765
4.86863
4.88149
4.90681
4.93282
4.95497
4.97206
4.98415
4.99189
4.9958
4.99606
4.99267
4.98549
4.97422
4.95832
4.93698
4.90902
4.8729
4.82716
4.77149
4.70842
4.6457
4.5906
4.53328
4.47036
4.39697
530.23
534.768
5.04683
5.09647
5.10826
5.08726
5.042
4.98438
4.92856
4.88624
4.86694
4.87942
4.90457
4.93052
4.95267
4.96978
4.9819
4.98967
4.99362
4.99391
4.99054
4.98339
4.97214
4.95629
4.93502
4.90718
4.87122
4.82568
4.77024
4.70738
4.64476
4.5897
4.53238
4.46945
4.39608
530.23
534.767
5.04489
5.09434
5.10623
5.08551
5.04056
4.98312
4.92733
4.88493
4.86542
4.87757
4.90256
4.92844
4.95056
4.96767
4.9798
4.98761
4.99158
4.99189
4.98855
4.98141
4.9702
4.95439
4.93319
4.90546
4.86965
4.8243
4.76908
4.7064
4.64388
4.58886
4.53155
4.46861
4.39527
530.229
534.767
5.04302
5.09229
5.10429
5.08385
5.03921
4.98195
4.92619
4.88368
4.86395
4.87577
4.9006
4.92642
4.94853
4.96564
4.97779
4.98563
4.98963
4.98997
4.98664
4.97952
4.96833
4.95257
4.93144
4.90381
4.86815
4.82299
4.76797
4.70548
4.64305
4.58807
4.53077
4.46783
4.3945
530.229
534.766
5.04125
5.09036
5.10244
5.08225
5.03786
4.98078
4.92506
4.88249
4.8626
4.87416
4.89885
4.92461
4.94667
4.96377
4.97593
4.98378
4.9878
4.98816
4.98485
4.97774
4.96657
4.95085
4.92978
4.90225
4.86672
4.82173
4.76691
4.7046
4.64226
4.58732
4.53003
4.46709
4.39378
530.228
534.766
5.03953
5.08849
5.10064
5.08069
5.03657
4.97966
4.924
4.88137
4.86133
4.87261
4.89715
4.92283
4.94487
4.96196
4.97413
4.982
4.98604
4.98642
4.98313
4.97604
4.96489
4.94921
4.9282
4.90076
4.86536
4.82054
4.76591
4.70376
4.64151
4.58661
4.52933
4.46638
4.39309
530.228
534.765
5.03787
5.08669
5.09893
5.0792
5.03532
4.97857
4.92295
4.88028
4.8601
4.87116
4.89558
4.92119
4.9432
4.96027
4.97244
4.98033
4.98438
4.98477
4.98149
4.97441
4.96328
4.94763
4.92668
4.89933
4.86405
4.81939
4.76493
4.70294
4.64077
4.5859
4.52863
4.46569
4.39242
530.228
534.765
5.03628
5.08495
5.09725
5.07773
5.03407
4.97748
4.92192
4.87922
4.85893
4.8698
4.8941
4.91965
4.94162
4.95867
4.97084
4.97873
4.9828
4.98321
4.97994
4.97287
4.96176
4.94615
4.92525
4.89798
4.86283
4.81832
4.76403
4.70219
4.6401
4.58525
4.52798
4.46503
4.39178
530.227
534.764
5.03475
5.08328
5.09564
5.07632
5.03288
4.97643
4.92091
4.87817
4.8578
4.86849
4.89268
4.91818
4.94011
4.95714
4.9693
4.9772
4.98129
4.9817
4.97844
4.97138
4.96029
4.9447
4.92386
4.89668
4.86164
4.81727
4.76315
4.70146
4.63944
4.58462
4.52736
4.4644
4.39117
530.227
534.764
5.03328
5.08167
5.09408
5.07493
5.03167
4.97535
4.91989
4.87716
4.85674
4.86729
4.89139
4.91681
4.9387
4.9557
4.96786
4.97576
4.97985
4.98028
4.97702
4.96998
4.9589
4.94334
4.92255
4.89544
4.86052
4.81629
4.76232
4.70076
4.63882
4.58402
4.52676
4.4638
4.39058
530.227
534.764
5.03187
5.08013
5.09258
5.07359
5.03051
4.97431
4.91891
4.87619
4.85572
4.86613
4.89013
4.91549
4.93734
4.95431
4.96646
4.97437
4.97847
4.9789
4.97565
4.96862
4.95755
4.94203
4.92129
4.89426
4.85944
4.81535
4.76153
4.70011
4.63823
4.58345
4.52618
4.46322
4.39001
530.226
534.763
5.03053
5.07866
5.09114
5.0723
5.02936
4.97328
4.91794
4.87524
4.85475
4.86505
4.88898
4.91427
4.93607
4.95301
4.96514
4.97304
4.97715
4.97759
4.97435
4.96732
4.95626
4.94077
4.92008
4.89312
4.8584
4.81445
4.76078
4.69949
4.63767
4.58291
4.52563
4.46266
4.38945
530.226
534.763
5.02924
5.07723
5.08974
5.07103
5.02824
4.97226
4.917
4.87433
4.85382
4.86403
4.88787
4.9131
4.93485
4.95175
4.96386
4.97177
4.97588
4.97632
4.97309
4.96606
4.95502
4.93955
4.91891
4.89203
4.85742
4.8136
4.76008
4.69892
4.63717
4.58242
4.52513
4.46213
4.38893
530.226
534.763
5.028
5.07588
5.08841
5.06981
5.02715
4.97129
4.9161
4.87347
4.85295
4.86307
4.88683
4.912
4.93369
4.95055
4.96265
4.97055
4.97466
4.97511
4.97188
4.96486
4.95382
4.93838
4.91778
4.89097
4.85646
4.81277
4.75939
4.69836
4.63667
4.58194
4.52466
4.46164
4.38843
530.225
534.763
5.02675
5.07454
5.08711
5.06864
5.02611
4.97035
4.91523
4.87263
4.85211
4.86215
4.88583
4.91093
4.93257
4.9494
4.96147
4.96937
4.97348
4.97393
4.97071
4.96369
4.95267
4.93725
4.9167
4.88995
4.85553
4.81197
4.75872
4.69781
4.63618
4.58147
4.52418
4.46116
4.38794
530.225
534.763
5.02554
5.07324
5.08584
5.06747
5.02505
4.9694
4.91436
4.87183
4.85133
4.86131
4.88491
4.90994
4.93151
4.9483
4.96035
4.96824
4.97235
4.97281
4.96959
4.96258
4.95157
4.93617
4.91566
4.88898
4.85466
4.81121
4.7581
4.6973
4.63571
4.58102
4.52373
4.46068
4.38746
530.224
534.762
5.02432
5.07195
5.08458
5.06634
5.02406
4.96852
4.91356
4.87108
4.85057
4.86047
4.88399
4.90894
4.93047
4.94721
4.95925
4.96714
4.97125
4.97172
4.9685
4.9615
4.9505
4.93513
4.91467
4.88806
4.85383
4.8105
4.75752
4.69683
4.63528
4.58059
4.52329
4.46023
4.387
530.224
534.762
5.02315
5.0707
5.08337
5.06524
5.02306
4.96762
4.91274
4.87032
4.84984
4.8597
4.88315
4.90804
4.9295
4.9462
4.95821
4.96609
4.97021
4.97067
4.96746
4.96046
4.94948
4.93412
4.91371
4.88716
4.85303
4.80982
4.75696
4.69638
4.63487
4.5802
4.52288
4.45979
4.38655
530.224
534.762
5.02199
5.06944
5.08212
5.0641
5.02205
4.96673
4.91196
4.86961
4.84916
4.85895
4.88233
4.90714
4.92855
4.9452
4.95719
4.96507
4.96918
4.96966
4.96645
4.95946
4.94849
4.93316
4.91279
4.88631
4.85227
4.80917
4.75643
4.69596
4.63449
4.57982
4.52249
4.45937
4.38612
530.223
534.762
5.02088
5.06826
5.08097
5.06307
5.02113
4.96591
4.91122
4.86892
4.84848
4.85824
4.88154
4.90629
4.92764
4.94425
4.95622
4.96409
4.96821
4.96868
4.96549
4.9585
4.94754
4.93224
4.91191
4.88549
4.85154
4.80855
4.75594
4.69556
4.63412
4.57945
4.52211
4.45896
4.38569
530.223
534.762
5.01977
5.06705
5.07979
5.06199
5.02016
4.96506
4.91047
4.86824
4.84784
4.85756
4.8808
4.90547
4.92676
4.94333
4.95527
4.96313
4.96726
4.96774
4.96455
4.95758
4.94663
4.93135
4.91107
4.88473
4.85087
4.808
4.75551
4.69522
4.6338
4.57912
4.52175
4.45856
4.38526
530.222
534.761
5.01871
5.06592
5.07869
5.06099
5.01927
4.96428
4.90977
4.86759
4.84721
4.85688
4.88004
4.90465
4.92589
4.94242
4.95435
4.9622
4.96633
4.96683
4.96364
4.95668
4.94575
4.9305
4.91026
4.88399
4.85023
4.80747
4.7551
4.69492
4.63352
4.57883
4.52143
4.4582
4.38486
530.221
534.761
5.01764
5.06478
5.07757
5.05999
5.01839
4.96351
4.90909
4.86697
4.84661
4.85624
4.87935
4.90389
4.92507
4.94156
4.95346
4.96131
4.96544
4.96594
4.96277
4.95581
4.94489
4.92967
4.90948
4.88327
4.8496
4.80696
4.75471
4.69462
4.63324
4.57853
4.5211
4.45783
4.38446
530.22
534.761
5.0166
5.06368
5.07651
5.05904
5.01755
4.96276
4.90841
4.86634
4.846
4.85558
4.87863
4.90311
4.92424
4.9407
4.95258
4.96043
4.96457
4.96508
4.96191
4.95496
4.94406
4.92887
4.90872
4.88258
4.849
4.80648
4.75435
4.69436
4.633
4.57828
4.52082
4.4575
4.38409
530.22
534.761
5.01557
5.06258
5.07545
5.05809
5.01671
4.96202
4.90775
4.86572
4.84541
4.85497
4.87796
4.90238
4.92346
4.93988
4.95175
4.95959
4.96373
4.96424
4.96108
4.95414
4.94325
4.92808
4.90797
4.8819
4.8484
4.80599
4.75398
4.69408
4.63274
4.57801
4.52052
4.45716
4.3837
530.219
534.761
5.01456
5.06151
5.07441
5.05716
5.01589
4.96128
4.90706
4.86508
4.84479
4.85433
4.87728
4.90165
4.92268
4.93907
4.95092
4.95876
4.9629
4.96342
4.96027
4.95334
4.94246
4.92731
4.90726
4.88124
4.84784
4.80553
4.75364
4.69383
4.63252
4.57778
4.52026
4.45685
4.38335
530.218
534.761
5.01358
5.06048
5.07341
5.05626
5.01508
4.96054
4.90639
4.86446
4.84421
4.85374
4.87664
4.90096
4.92195
4.93829
4.95012
4.95796
4.9621
4.96263
4.95949
4.95256
4.94169
4.92657
4.90655
4.8806
4.84728
4.80508
4.7533
4.69358
4.63229
4.57754
4.52
4.45654
4.38299
530.217
534.761
5.01256
5.05942
5.0724
5.05537
5.01428
4.9598
4.90569
4.8638
4.84358
4.85312
4.87599
4.90027
4.92121
4.93752
4.94934
4.95717
4.96131
4.96185
4.95871
4.95178
4.94092
4.92582
4.90584
4.87995
4.84671
4.80462
4.75295
4.69333
4.63206
4.57732
4.51975
4.45624
4.38265
530.216
534.761
5.01164
5.05843
5.07142
5.05445
5.01341
4.95899
4.90495
4.86314
4.843
4.85259
4.87544
4.89967
4.92056
4.93683
4.94862
4.95643
4.96057
4.96111
4.95797
4.95104
4.94019
4.9251
4.90516
4.87932
4.84616
4.80415
4.75259
4.69306
4.63182
4.57707
4.51948
4.45594
4.38232
530.216
534.761
5.01067
5.05742
5.07045
5.05358
5.01261
4.95824
4.90422
4.86246
4.84238
4.852
4.87483
4.89902
4.91986
4.9361
4.94787
4.95568
4.95982
4.96035
4.95722
4.95029
4.93944
4.92437
4.90446
4.87867
4.84559
4.80368
4.75223
4.69279
4.63158
4.57684
4.51922
4.45565
4.38199
530.215
534.761
5.0098
5.05647
5.06949
5.05265
5.0117
4.95735
4.90341
4.86178
4.84184
4.85156
4.87438
4.89851
4.91929
4.93547
4.9472
4.95499
4.95912
4.95965
4.95651
4.94958
4.93873
4.92367
4.90378
4.87804
4.84502
4.8032
4.75184
4.69248
4.6313
4.57656
4.51894
4.45534
4.38165
530.215
534.761
5.00891
5.05553
5.06856
5.05178
5.01086
4.95656
4.90268
4.86113
4.84127
4.85103
4.87383
4.89791
4.91864
4.93478
4.94648
4.95426
4.95839
4.95892
4.95578
4.94884
4.938
4.92296
4.9031
4.87741
4.84446
4.80273
4.75147
4.6922
4.63104
4.5763
4.51865
4.45502
4.3813
530.214
534.761
5.00806
5.05462
5.06764
5.05088
5.00997
4.95569
4.90191
4.8605
4.84078
4.85065
4.87342
4.89743
4.91808
4.93416
4.94583
4.95359
4.9577
4.95822
4.95507
4.94813
4.93729
4.92225
4.90242
4.87677
4.84389
4.80225
4.75108
4.69189
4.63076
4.57601
4.51836
4.4547
4.38096
530.214
534.761
5.00718
5.05373
5.06676
5.05004
5.00915
4.95493
4.90124
4.85993
4.8403
4.8502
4.87293
4.89687
4.91746
4.9335
4.94514
4.95288
4.95699
4.95751
4.95436
4.94742
4.93658
4.92156
4.90175
4.87615
4.84334
4.80179
4.75071
4.6916
4.63049
4.57574
4.51806
4.45437
4.3806
530.213
534.761
5.0063
5.05281
5.06585
5.04916
5.00828
4.95412
4.90053
4.85936
4.83986
4.84983
4.87252
4.89639
4.9169
4.93288
4.94448
4.9522
4.9563
4.95682
4.95366
4.94671
4.93587
4.92085
4.90107
4.87551
4.84276
4.80129
4.75031
4.69127
4.63018
4.57543
4.51773
4.45402
4.38024
530.213
534.761
5.00548
5.05196
5.06499
5.04833
5.00748
4.95339
4.89993
4.85888
4.83945
4.84943
4.87206
4.89585
4.9163
4.93222
4.9438
4.95151
4.95561
4.95613
4.95297
4.94603
4.93518
4.92018
4.90043
4.87492
4.84224
4.80086
4.74997
4.691
4.62992
4.57515
4.51743
4.45368
4.37987
530.213
534.76
5.00453
5.051
5.06406
5.04748
5.00671
4.95271
4.89935
4.8584
4.83904
4.84902
4.87159
4.89531
4.9157
4.93158
4.94312
4.95082
4.95491
4.95543
4.95228
4.94532
4.93448
4.91949
4.89977
4.8743
4.84168
4.80038
4.74959
4.6907
4.62963
4.57486
4.51712
4.45333
4.37949
530.213
534.76
5.0037
5.05014
5.06321
5.04667
5.00594
4.95204
4.89881
4.85796
4.83866
4.84863
4.87114
4.89478
4.9151
4.93093
4.94246
4.95014
4.95423
4.95476
4.9516
4.94465
4.93381
4.91883
4.89913
4.87371
4.84116
4.79995
4.74925
4.69043
4.62937
4.57458
4.51681
4.45299
4.37912
530.212
534.76
5.00272
5.04916
5.06228
5.04586
5.00526
4.95149
4.89836
4.85756
4.83824
4.84816
4.8706
4.89417
4.91444
4.93024
4.94175
4.94943
4.95352
4.95405
4.9509
4.94394
4.9331
4.91814
4.89846
4.87308
4.8406
4.79947
4.74887
4.69014
4.6291
4.5743
4.51651
4.45265
4.37875
530.212
534.76
5.00181
5.04825
5.06141
5.04508
5.00458
4.95091
4.89788
4.85715
4.83786
4.84776
4.87012
4.89363
4.91384
4.9296
4.94108
4.94875
4.95284
4.95338
4.95022
4.94326
4.93242
4.91746
4.89781
4.87246
4.84003
4.79898
4.74846
4.68981
4.62879
4.574
4.5162
4.45232
4.37839
530.211
534.76
5.00081
5.04725
5.06048
5.0443
5.00396
4.95044
4.89749
4.85676
4.83743
4.84724
4.86953
4.89298
4.91315
4.92889
4.94036
4.94803
4.95213
4.95267
4.94953
4.94256
4.93172
4.91677
4.89713
4.87182
4.83945
4.79847
4.74803
4.68943
4.62842
4.57363
4.51582
4.45192
4.37799
530.211
534.76
4.99986
5.04629
5.05959
5.04354
5.00332
4.9499
4.89701
4.85631
4.83697
4.84675
4.86899
4.89238
4.91251
4.92821
4.93968
4.94734
4.95144
4.95199
4.94884
4.94188
4.93103
4.91608
4.89646
4.87118
4.83886
4.79794
4.74758
4.68906
4.62807
4.57327
4.51546
4.45154
4.3776
530.211
534.759
4.99889
5.04532
5.05868
5.04278
5.00271
4.94941
4.89658
4.85589
4.83652
4.84623
4.8684
4.89174
4.91184
4.92752
4.93898
4.94665
4.95075
4.95131
4.94816
4.9412
4.93034
4.9154
4.8958
4.87055
4.83827
4.79742
4.74713
4.68867
4.6277
4.57289
4.51507
4.45115
4.37721
530.211
534.759
4.9979
5.04434
5.05781
5.04206
5.00213
4.94891
4.8961
4.8554
4.836
4.84567
4.8678
4.8911
4.91117
4.92683
4.93828
4.94595
4.95006
4.95062
4.94748
4.9405
4.92964
4.9147
4.89511
4.86989
4.83765
4.79686
4.74664
4.68824
4.6273
4.5725
4.51468
4.45075
4.37683
530.212
534.759
4.99697
5.0434
5.05691
5.04129
5.00146
4.94832
4.89557
4.85491
4.83554
4.8452
4.86728
4.89053
4.91055
4.92619
4.93762
4.94529
4.9494
4.94997
4.94683
4.93985
4.92899
4.91405
4.89447
4.86927
4.83707
4.79634
4.74618
4.68783
4.6269
4.5721
4.51427
4.45035
4.37644
530.212
534.759
4.99596
5.04244
5.05606
5.04058
5.00088
4.94781
4.89508
4.85441
4.83501
4.84462
4.86666
4.88987
4.90987
4.92548
4.93691
4.94458
4.9487
4.94928
4.94614
4.93916
4.92829
4.91335
4.89378
4.86861
4.83646
4.79577
4.74568
4.6874
4.6265
4.57171
4.51388
4.44996
4.37606
530.213
534.759
4.99508
5.04152
5.05517
5.03977
5.00013
4.94711
4.89445
4.85387
4.83456
4.84422
4.86623
4.88939
4.90932
4.92489
4.9363
4.94396
4.94808
4.94865
4.94551
4.93852
4.92765
4.91271
4.89315
4.868
4.83587
4.79523
4.74519
4.68694
4.62606
4.57126
4.51343
4.44952
4.37566
530.214
534.759
4.99415
5.04061
5.05434
5.03905
4.9995
4.94655
4.89393
4.85338
4.83405
4.84365
4.86561
4.88872
4.90863
4.92419
4.93559
4.94326
4.94739
4.94798
4.94485
4.93786
4.92698
4.91206
4.89252
4.8674
4.83533
4.79475
4.74478
4.68659
4.62572
4.57091
4.51306
4.44914
4.37528
530.215
534.759
4.9933
5.03971
5.05346
5.03823
4.99871
4.94581
4.89329
4.85284
4.83362
4.84328
4.8652
4.88826
4.90811
4.92362
4.935
4.94265
4.94678
4.94736
4.94423
4.93723
4.92635
4.91142
4.89189
4.86679
4.83476
4.79423
4.74431
4.68618
4.62531
4.57049
4.51264
4.44872
4.37488
530.216
534.759
4.99246
5.03888
5.05265
5.0375
4.99805
4.94522
4.89277
4.85238
4.83317
4.84277
4.86463
4.88763
4.90744
4.92294
4.93432
4.94197
4.94612
4.94672
4.9436
4.93661
4.92573
4.91081
4.89131
4.86626
4.83428
4.79382
4.74398
4.6859
4.62503
4.57019
4.5123
4.44835
4.3745
530.216
534.759
4.99158
5.03799
5.0518
5.03671
4.99733
4.94459
4.89223
4.85192
4.83276
4.84237
4.86418
4.88713
4.90689
4.92236
4.93371
4.94136
4.9455
4.94611
4.94299
4.93599
4.92511
4.91019
4.8907
4.86568
4.83375
4.79335
4.74358
4.68556
4.62469
4.56984
4.51193
4.44796
4.37411
530.216
534.759
4.99075
5.03715
5.05098
5.03596
4.99665
4.944
4.89173
4.85148
4.83233
4.84189
4.86365
4.88655
4.90628
4.92172
4.93308
4.94073
4.94488
4.9455
4.94239
4.93541
4.92453
4.90962
4.89016
4.86518
4.8333
4.79299
4.7433
4.68533
4.62446
4.56957
4.51162
4.4476
4.37373
530.216
534.759
4.98987
5.03626
5.05013
5.0352
4.99599
4.94345
4.89127
4.85106
4.83191
4.84144
4.86315
4.88601
4.9057
4.92112
4.93246
4.94011
4.94427
4.9449
4.94179
4.9348
4.92392
4.90902
4.88957
4.86463
4.8328
4.79256
4.74295
4.68505
4.62418
4.56927
4.5113
4.44725
4.37335
530.216
534.759
4.98899
5.03536
5.04928
5.03445
4.99535
4.9429
4.89079
4.85062
4.83148
4.84098
4.86265
4.88546
4.90512
4.92052
4.93186
4.93952
4.94368
4.94432
4.94122
4.93423
4.92335
4.90845
4.88903
4.86412
4.83235
4.79218
4.74264
4.6848
4.62393
4.569
4.511
4.4469
4.37297
530.215
534.759
4.98812
5.03447
5.04843
5.03371
4.99472
4.94239
4.89035
4.85021
4.83106
4.84052
4.86214
4.88492
4.90455
4.91992
4.93125
4.93891
4.94308
4.94373
4.94063
4.93364
4.92276
4.90787
4.88846
4.86358
4.83186
4.79175
4.74229
4.68451
4.62364
4.5687
4.51067
4.44654
4.37259
530.215
534.759
4.98722
5.03355
5.04758
5.03299
4.99414
4.94189
4.88989
4.84975
4.8306
4.84003
4.86163
4.88437
4.90398
4.91934
4.93066
4.93832
4.9425
4.94315
4.94006
4.93308
4.92219
4.9073
4.88791
4.86306
4.83139
4.79134
4.74195
4.68423
4.62335
4.56838
4.51033
4.44618
4.3722
530.215
534.759
4.98639
5.0327
5.04676
5.03228
4.99352
4.94135
4.88941
4.84931
4.83018
4.8396
4.86116
4.88386
4.90343
4.91876
4.93008
4.93773
4.94192
4.94259
4.9395
4.93252
4.92164
4.90675
4.88738
4.86256
4.83093
4.79094
4.74161
4.68393
4.62303
4.56804
4.50996
4.44578
4.3718
530.215
534.759
4.98545
5.03178
5.04594
5.03161
4.99298
4.94089
4.88898
4.84888
4.82973
4.83911
4.86063
4.8833
4.90284
4.91816
4.92947
4.93713
4.94134
4.94201
4.93894
4.93197
4.92109
4.90622
4.88687
4.86209
4.83052
4.79059
4.74133
4.68369
4.62277
4.56773
4.50961
4.4454
4.3714
530.215
534.759
4.98462
5.03094
5.04515
5.0309
4.99234
4.9403
4.88843
4.84839
4.8293
4.83872
4.86022
4.88284
4.90233
4.91761
4.92891
4.93657
4.94078
4.94147
4.93841
4.93144
4.92057
4.90571
4.88638
4.86164
4.83012
4.79026
4.74106
4.68347
4.62252
4.56743
4.50926
4.44501
4.37099
530.216
534.758
4.98371
5.03006
5.04435
5.03023
4.99178
4.93981
4.88798
4.84796
4.82886
4.83824
4.85969
4.88226
4.90172
4.91699
4.92828
4.93595
4.94018
4.94089
4.93785
4.93091
4.92005
4.90521
4.88592
4.86123
4.82979
4.79002
4.74091
4.68336
4.62237
4.56722
4.50899
4.44466
4.37061
530.216
534.758
4.98284
5.02921
5.04356
5.02951
4.99111
4.93918
4.8874
4.84746
4.82845
4.83787
4.85929
4.8818
4.90121
4.91644
4.92771
4.93538
4.93961
4.94033
4.93731
4.93037
4.91952
4.9047
4.88544
4.86081
4.82943
4.78975
4.74073
4.68324
4.62223
4.56702
4.50872
4.44433
4.37022
530.215
534.758
4.98196
5.02835
5.04276
5.0288
4.99047
4.93861
4.88691
4.84702
4.82803
4.83743
4.85879
4.88125
4.90061
4.91582
4.92709
4.93476
4.93901
4.93975
4.93675
4.92984
4.919
4.9042
4.88499
4.86042
4.82913
4.78955
4.74064
4.68323
4.62218
4.56691
4.50853
4.44404
4.36985
530.214
534.758
4.98105
5.02746
5.04193
5.02806
4.98978
4.93797
4.88634
4.84653
4.82759
4.83701
4.85833
4.88074
4.90005
4.91523
4.92648
4.93415
4.93841
4.93917
4.93617
4.92927
4.91845
4.90366
4.88449
4.85997
4.82877
4.78929
4.74049
4.68316
4.6221
4.56678
4.50833
4.44376
4.36949
530.213
534.758
4.98017
5.02659
5.0411
5.02728
4.98905
4.93732
4.88578
4.84606
4.82718
4.83661
4.85788
4.88022
4.89949
4.91463
4.92587
4.93354
4.93782
4.93858
4.9356
4.92871
4.9179
4.90314
4.884
4.85955
4.82842
4.78906
4.74038
4.68314
4.62206
4.56669
4.50816
4.44349
4.36912
530.211
534.758
4.97917
5.02563
5.0402
5.02649
4.98835
4.93669
4.88523
4.84558
4.82674
4.83617
4.85739
4.87968
4.8989
4.91401
4.92524
4.93291
4.93719
4.93796
4.93499
4.92811
4.9173
4.90255
4.88344
4.85904
4.828
4.78874
4.74018
4.68304
4.62198
4.56657
4.50798
4.44323
4.36877
530.21
534.758
4.97824
5.0247
5.0393
5.02564
4.98754
4.93596
4.8846
4.84505
4.82631
4.83579
4.85698
4.87921
4.89838
4.91345
4.92466
4.93231
4.93659
4.93737
4.9344
4.92752
4.91671
4.90196
4.88288
4.85852
4.82755
4.78839
4.73994
4.68289
4.62184
4.5664
4.50777
4.44295
4.36842
530.208
534.757
4.97722
5.02367
5.03832
5.02478
4.98678
4.9353
4.88402
4.84455
4.82585
4.83535
4.8565
4.87868
4.8978
4.91284
4.92403
4.93168
4.93596
4.93674
4.93377
4.92689
4.91608
4.90133
4.88227
4.85796
4.82705
4.78798
4.73963
4.68269
4.62166
4.56621
4.50754
4.44266
4.36807
530.207
534.757
4.97625
5.02266
5.03735
5.02388
4.98594
4.93452
4.88335
4.84399
4.82542
4.83499
4.85612
4.87824
4.89729
4.91229
4.92345
4.93108
4.93536
4.93614
4.93316
4.92628
4.91546
4.90071
4.88166
4.85737
4.82652
4.78752
4.73925
4.68238
4.62138
4.56592
4.50724
4.44232
4.36771
530.206
534.757
4.97524
5.02164
5.03636
5.02299
4.98515
4.93383
4.88275
4.84349
4.82499
4.83459
4.85567
4.87773
4.89672
4.91168
4.92282
4.93045
4.93473
4.93551
4.93254
4.92566
4.91484
4.90009
4.88106
4.85681
4.82601
4.78708
4.7389
4.6821
4.62111
4.56562
4.50691
4.44197
4.36733
530.205
534.757
4.97424
5.02062
5.03538
5.02209
4.9843
4.93306
4.88208
4.84295
4.82456
4.83422
4.85527
4.87726
4.89619
4.9111
4.92221
4.92983
4.93411
4.93489
4.93192
4.92504
4.91421