/*--------------------------------*- C++ -*----------------------------------*\
| =========                 |                                                 |
| \\      /  F ield         | OpenFOAM: The Open Source CFD Toolbox           |
|  \\    /   O peration     | Version:  v2006                                 |
|   \\  /    A nd           | Website:  www.openfoam.com                      |
|    \\/     M anipulation  |                                                 |
\*---------------------------------------------------------------------------*/
FoamFile
{
    version     2.0;
    format      ascii;
    class       volVectorField;
    location    "3";
    object      U;
}
// * * * * * * * * * * * * * * * * * * * * * * * * * * * * * * * * * * * * * //

dimensions      [0 1 -1 0 0 0 0];


internalField   nonuniform List<vector> 
78750
(
(-0.0715639 -0.0311458 -0.0278381)
(-0.041536 -0.0328132 -0.0332329)
(-0.0383751 -0.0334272 -0.0333434)
(-0.0347192 -0.0312863 -0.0326316)
(-0.0268769 -0.0277918 -0.0306479)
(-0.0222286 -0.0255127 -0.0296803)
(-0.0169866 -0.0234126 -0.0288307)
(-0.0121694 -0.0215336 -0.0280916)
(-0.00779388 -0.0198178 -0.0274129)
(-0.00366651 -0.0181491 -0.026687)
(0.000271853 -0.0164799 -0.0258742)
(0.00396089 -0.0148567 -0.0250201)
(0.00735901 -0.0133295 -0.0241777)
(0.010523 -0.0119132 -0.023359)
(0.0134869 -0.0106136 -0.0225623)
(0.0162715 -0.0094188 -0.0217721)
(0.0188837 -0.00831055 -0.0209741)
(0.021325 -0.00726601 -0.0201537)
(0.0235918 -0.00625834 -0.0192955)
(0.0256731 -0.00525784 -0.0183836)
(0.0275509 -0.00423304 -0.0174018)
(0.0292011 -0.00315062 -0.0163332)
(0.0305934 -0.00197222 -0.0151615)
(0.0316943 -0.000659238 -0.0138701)
(0.0324427 0.000818756 -0.0124334)
(0.0327662 0.00248817 -0.0107964)
(0.0325697 0.00436829 -0.00891527)
(0.0317641 0.00646574 -0.00673306)
(0.0302515 0.00877117 -0.0041782)
(0.0279309 0.0112387 -0.00117319)
(0.0247451 0.0137917 0.00238901)
(0.020546 0.0164324 0.00676604)
(0.0150267 0.0193264 0.0118045)
(0.00836985 0.0212392 0.0142516)
(0.00203107 0.0149832 0.00845247)
(-0.00461481 0.0239368 -0.0253704)
(-0.00969914 -0.0267646 -0.0681595)
(-0.0159752 -0.0463614 -0.080176)
(-0.0203274 -0.0468815 -0.0808572)
(-0.0237501 -0.0388601 -0.0772254)
(-0.0263508 -0.0313764 -0.0727543)
(-0.0281015 -0.02706 -0.068875)
(-0.0288865 -0.0241218 -0.0654277)
(-0.0288053 -0.0218467 -0.0623265)
(-0.0279781 -0.020028 -0.0595696)
(-0.0265485 -0.0185266 -0.0571979)
(-0.024692 -0.0171606 -0.055125)
(-0.0225421 -0.0158813 -0.0532853)
(-0.0202032 -0.0146949 -0.0516276)
(-0.0177313 -0.013611 -0.050095)
(-0.0151684 -0.0125702 -0.0486078)
(-0.0125421 -0.0115448 -0.0471274)
(-0.00988996 -0.0105013 -0.0456383)
(-0.00724168 -0.00939968 -0.0441242)
(-0.00462733 -0.00819495 -0.0425665)
(-0.00207304 -0.00683955 -0.0409459)
(0.000393203 -0.00528705 -0.0392477)
(0.00270182 -0.00348406 -0.0374665)
(0.00476987 -0.0013484 -0.0355861)
(0.00658341 0.00122525 -0.0335415)
(0.00815078 0.00433509 -0.0312566)
(0.00943644 0.00806767 -0.0286389)
(0.0103833 0.0125096 -0.0255396)
(0.0109102 0.0177477 -0.0217346)
(0.0109087 0.0238572 -0.0169167)
(0.0102454 0.0308631 -0.0107323)
(0.00872286 0.0384869 -0.00311681)
(0.00632771 0.0452045 0.0045159)
(0.00353794 0.047251 0.00921143)
(0.000608147 0.0329977 0.00721911)
(0.00016149 0.0656265 -0.0134478)
(-0.00340154 0.0832395 -0.0336986)
(-0.00960867 0.0820745 -0.0372683)
(-0.0159396 0.0758385 -0.0327813)
(-0.0208249 0.0667947 -0.0267683)
(-0.0238455 0.0566453 -0.0224287)
(-0.0255277 0.0465351 -0.0197108)
(-0.0262247 0.0367996 -0.01812)
(-0.0261689 0.0277328 -0.0173057)
(-0.0255414 0.0195837 -0.0170202)
(-0.0243457 0.0126116 -0.0170774)
(-0.0226095 0.00735732 -0.0171451)
(-0.0204354 0.00396189 -0.0170278)
(-0.0179737 0.0020174 -0.0167375)
(-0.0154235 0.000917684 -0.0163699)
(-0.0129408 0.000253544 -0.015985)
(-0.0105501 -0.0001119 -0.0155994)
(-0.00825073 -0.000177443 -0.0152081)
(-0.00605377 8.50557e-05 -0.0148095)
(-0.00397506 0.000712516 -0.0144019)
(-0.00203935 0.00174679 -0.0139813)
(-0.000281923 0.00323258 -0.0135413)
(0.00128257 0.00521122 -0.0130786)
(0.00264794 0.00771862 -0.0125916)
(0.0038107 0.010784 -0.0120468)
(0.00474935 0.0144547 -0.011427)
(0.00543695 0.0188102 -0.010692)
(0.00586439 0.0239805 -0.00976482)
(0.00603052 0.0301128 -0.00851319)
(0.00591901 0.0372529 -0.00672866)
(0.00546359 0.0450367 -0.00417216)
(0.0045138 0.0522039 -0.000884572)
(0.00332417 0.0568379 0.00238995)
(0.00192333 0.0564443 0.00495772)
(0.000279191 0.0362314 0.00438008)
(-0.000822014 0.0638016 -0.00724367)
(-0.00289398 0.077179 -0.0191494)
(-0.00464537 0.0705723 -0.0217181)
(-0.00601178 0.0596946 -0.0195633)
(-0.00706 0.0464246 -0.015889)
(-0.00793831 0.0324191 -0.0132636)
(-0.00873158 0.0191266 -0.0123242)
(-0.00942539 0.00735786 -0.012579)
(-0.00997251 -0.00257148 -0.0133573)
(-0.0103048 -0.0106943 -0.0141977)
(-0.0103998 -0.0171717 -0.0148609)
(-0.0102355 -0.0216769 -0.0151686)
(-0.00970295 -0.024173 -0.0150834)
(-0.00876037 -0.0249906 -0.0146551)
(-0.00740796 -0.0245977 -0.0139663)
(-0.00563461 -0.0234035 -0.0130978)
(-0.00356457 -0.0219442 -0.0121902)
(-0.00136917 -0.020492 -0.0113262)
(0.000871291 -0.0189454 -0.0104981)
(0.00304712 -0.0171785 -0.00968802)
(0.00507912 -0.0150648 -0.00887263)
(0.00692532 -0.0124798 -0.00802439)
(0.00856264 -0.00932649 -0.00711932)
(0.00996883 -0.00555541 -0.00614395)
(0.0110788 -0.00116299 -0.00509152)
(0.0118083 0.00386612 -0.00396381)
(0.0121269 0.00956702 -0.00274425)
(0.0120232 0.0159879 -0.00141317)
(0.0114948 0.0232376 6.99229e-05)
(0.0105458 0.0315608 0.00179103)
(0.00915519 0.0412448 0.00386221)
(0.00719526 0.0517363 0.00620954)
(0.00499248 0.059886 0.00815075)
(0.00277623 0.0610544 0.00889742)
(0.000541359 0.0394684 0.0059798)
(0.000643936 0.0679474 -0.00383179)
(0.000750663 0.0935663 -0.0122042)
(0.000233325 0.0917575 -0.0148323)
(-0.000480955 0.0849299 -0.0142978)
(-0.00141772 0.0761903 -0.0119383)
(-0.00250152 0.0669794 -0.00911778)
(-0.00372857 0.0582455 -0.00655944)
(-0.00504158 0.050192 -0.00443572)
(-0.00634233 0.0425949 -0.00272506)
(-0.00753965 0.0350801 -0.001421)
(-0.00858364 0.0273003 -0.000565547)
(-0.00944459 0.0191096 -0.000214357)
(-0.00995797 0.0108201 -0.000344877)
(-0.00985753 0.00307865 -0.000764652)
(-0.00915187 -0.00369747 -0.00131283)
(-0.00795945 -0.00921694 -0.00183715)
(-0.00642097 -0.013161 -0.00220264)
(-0.00466943 -0.0152798 -0.00231718)
(-0.00275897 -0.0156087 -0.00215941)
(-0.000764422 -0.0144207 -0.00176854)
(0.00117138 -0.0120646 -0.0012141)
(0.00296219 -0.00876381 -0.000553454)
(0.00456662 -0.00458668 0.000187078)
(0.00593221 0.000467643 0.000996113)
(0.00701421 0.00641922 0.00186243)
(0.00781883 0.0132682 0.00276905)
(0.0083488 0.0210154 0.00371064)
(0.00856399 0.0296608 0.00467808)
(0.00841431 0.039186 0.00568101)
(0.00785116 0.0494804 0.00674716)
(0.00678844 0.0600209 0.00787865)
(0.00508922 0.0691188 0.00890041)
(0.00331856 0.0741009 0.00943918)
(0.00155917 0.0715898 0.00897902)
(3.52774e-05 0.0430969 0.00519106)
(-2.83502e-05 0.0632653 -0.00109905)
(-0.000864085 0.0946044 -0.00609454)
(-0.00211139 0.0944838 -0.00735404)
(-0.00343396 0.0873083 -0.00607048)
(-0.00485505 0.0761354 -0.00291455)
(-0.00599952 0.0634311 0.000635907)
(-0.00674195 0.0507724 0.00349442)
(-0.00701752 0.0386241 0.00526676)
(-0.00681113 0.0271058 0.00601283)
(-0.00616444 0.0163109 0.00596748)
(-0.00515374 0.00632389 0.00538013)
(-0.00385913 -0.00277063 0.0044625)
(-0.00240569 -0.0108869 0.00339163)
(-0.000990437 -0.0179051 0.00231831)
(0.000308261 -0.0236599 0.00137344)
(0.00155035 -0.0280503 0.000649131)
(0.00276267 -0.0310187 0.000178863)
(0.00397751 -0.0325636 -3.27871e-05)
(0.00522817 -0.032741 1.39759e-05)
(0.00650431 -0.0316305 0.000316131)
(0.00775888 -0.0293423 0.000843694)
(0.00894135 -0.0259676 0.00155921)
(0.010014 -0.0215563 0.00243621)
(0.0109514 -0.0161171 0.00345614)
(0.0117456 -0.00962742 0.00460029)
(0.0123725 -0.0020579 0.00584639)
(0.0127188 0.00663272 0.00716542)
(0.012667 0.016586 0.00852763)
(0.0121908 0.0279536 0.00988897)
(0.0112578 0.0409256 0.011192)
(0.00979003 0.0554847 0.0123338)
(0.00753848 0.0699773 0.0130256)
(0.00504746 0.0792269 0.012829)
(0.00254334 0.0775236 0.0111845)
(0.000397164 0.0456635 0.00586525)
(0.000210909 0.0621048 0.00107467)
(-0.000365271 0.0987872 -0.000829972)
(-0.00139139 0.101398 -0.00092691)
(-0.00248702 0.0956131 0.000778956)
(-0.00363081 0.0845525 0.00403329)
(-0.00433633 0.0706675 0.0072711)
(-0.00453872 0.056243 0.00925685)
(-0.0043178 0.042493 0.00978881)
(-0.00377968 0.0299438 0.00928045)
(-0.00303498 0.018757 0.00822063)
(-0.00218776 0.00892883 0.00696008)
(-0.00128925 0.000393295 0.00570681)
(-0.000329246 -0.00691885 0.00456441)
(0.000673584 -0.0131228 0.00357729)
(0.00166971 -0.0182955 0.00277034)
(0.00264123 -0.0224861 0.00215009)
(0.00358479 -0.025679 0.00170652)
(0.00449858 -0.0277348 0.00143781)
(0.00540535 -0.02853 0.00135245)
(0.00631381 -0.0279954 0.00146654)
(0.00722113 -0.0260781 0.00180582)
(0.00811434 -0.0228076 0.00237114)
(0.00894648 -0.0182956 0.00313209)
(0.00968213 -0.0125859 0.00406672)
(0.0102729 -0.00564422 0.00516661)
(0.0106311 0.00262676 0.00643155)
(0.0107462 0.0123237 0.00785691)
(0.010617 0.0235862 0.00942047)
(0.0101412 0.0365639 0.0110713)
(0.00921475 0.0513228 0.0126908)
(0.00773822 0.0674085 0.014001)
(0.00555201 0.0822909 0.0144744)
(0.00336224 0.0902161 0.013709)
(0.00140721 0.0855973 0.0112727)
(3.5004e-05 0.0484179 0.00534569)
(-2.29888e-05 0.0610908 0.00265409)
(-0.000901147 0.10131 0.00348233)
(-0.00212834 0.105235 0.0045252)
(-0.00337698 0.0984713 0.00668797)
(-0.00456393 0.0839785 0.00977)
(-0.00507396 0.065791 0.0119291)
(-0.00500767 0.0477351 0.0123536)
(-0.00455583 0.0315519 0.011493)
(-0.00383829 0.0176125 0.0100602)
(-0.00292492 0.00575373 0.00851645)
(-0.00186648 -0.00429203 0.00707063)
(-0.000732857 -0.0127853 0.00579128)
(0.000418697 -0.0198894 0.00469332)
(0.00157534 -0.0257537 0.00377688)
(0.00272684 -0.030456 0.0030532)
(0.00385135 -0.0340311 0.00253727)
(0.00492408 -0.036511 0.00222199)
(0.00593234 -0.0379087 0.00209395)
(0.006873 -0.0382218 0.00213906)
(0.00775108 -0.0374306 0.00235792)
(0.00856672 -0.0354972 0.00275592)
(0.00931381 -0.0323891 0.00332932)
(0.0099767 -0.0280543 0.0040757)
(0.0105337 -0.0224154 0.00499567)
(0.0109585 -0.0153597 0.00609121)
(0.011225 -0.00672128 0.0073634)
(0.0112757 0.00373724 0.00881049)
(0.0110185 0.0163374 0.0104205)
(0.0103649 0.0314635 0.0121494)
(0.00924187 0.0493328 0.0138597)
(0.00759257 0.0691938 0.0151849)
(0.0053221 0.0872679 0.0154369)
(0.00315558 0.0960008 0.0142187)
(0.00132523 0.0897266 0.0112585)
(0.000124712 0.0490832 0.00506585)
(-5.44947e-05 0.0607877 0.00386182)
(-0.000947368 0.103657 0.00689816)
(-0.00213243 0.108556 0.00878155)
(-0.00326006 0.100607 0.0109408)
(-0.00418688 0.0829096 0.0130247)
(-0.00436294 0.0616932 0.0134211)
(-0.00407624 0.0419966 0.0122165)
(-0.00354134 0.0253925 0.0103379)
(-0.00285386 0.0117218 0.00844171)
(-0.00206834 0.000446464 0.00678162)
(-0.00121452 -0.0088844 0.00540697)
(-0.00031524 -0.0166017 0.00429443)
(0.000599321 -0.0229482 0.00340672)
(0.00150659 -0.028096 0.0027158)
(0.00239445 -0.0321497 0.00221032)
(0.00325102 -0.0351738 0.00188419)
(0.00406614 -0.0372151 0.00172084)
(0.0048355 -0.0382846 0.00170503)
(0.00555751 -0.0383623 0.00182776)
(0.006233 -0.0374042 0.00209028)
(0.0068605 -0.0353462 0.00250455)
(0.00743191 -0.0321182 0.00308139)
(0.00793318 -0.027644 0.00382693)
(0.00834163 -0.0218189 0.00474965)
(0.00862652 -0.0144909 0.00586173)
(0.00874416 -0.00542935 0.00717926)
(0.00863807 0.00569705 0.00871629)
(0.00825652 0.0192927 0.0104616)
(0.00754556 0.0357503 0.0123395)
(0.00645361 0.0550697 0.0141334)
(0.00498649 0.0757798 0.0153687)
(0.0032174 0.093078 0.0153468)
(0.00169741 0.0997987 0.0138538)
(0.000565944 0.0908973 0.0107315)
(4.17318e-07 0.0483256 0.00470575)
(-0.00013809 0.060957 0.00457385)
(-0.00115948 0.105413 0.00913599)
(-0.00242607 0.110206 0.0114881)
(-0.00358041 0.0997945 0.0132097)
(-0.00447757 0.0782323 0.0138419)
(-0.00469238 0.05451 0.0126549)
(-0.00456817 0.0338695 0.0105582)
(-0.00424404 0.0171314 0.00847096)
(-0.00376516 0.003615 0.00673229)
(-0.00316753 -0.00741561 0.00535967)
(-0.00248598 -0.0164725 0.00428624)
(-0.00174638 -0.0238978 0.00344689)
(-0.00097001 -0.0299386 0.00279365)
(-0.000176017 -0.0347645 0.00229983)
(0.000619733 -0.0384858 0.00195729)
(0.0014018 -0.0411795 0.00176457)
(0.00215654 -0.0429123 0.00170951)
(0.00287553 -0.04372 0.00178088)
(0.00355256 -0.0436056 0.00197146)
(0.00418327 -0.0425376 0.00228068)
(0.00476208 -0.040449 0.00271566)
(0.00528096 -0.0372459 0.00328364)
(0.00572858 -0.0328029 0.00399294)
(0.00608503 -0.026946 0.00485935)
(0.00632481 -0.0194534 0.00590128)
(0.00641995 -0.0100249 0.00713995)
(0.00633632 0.00173887 0.00859264)
(0.00602027 0.0163135 0.0102538)
(0.00542435 0.0340712 0.012048)
(0.00454278 0.0547096 0.0137373)
(0.00342241 0.076065 0.0148232)
(0.0021833 0.0926618 0.0146669)
(0.00117747 0.0981467 0.0131772)
(0.000437098 0.0882486 0.0102139)
(6.70292e-05 0.0462896 0.00451771)
(-0.000138294 0.0615838 0.00478297)
(-0.00117536 0.107407 0.0101332)
(-0.00247573 0.111998 0.0125815)
(-0.00369554 0.0995582 0.0136086)
(-0.00470629 0.0755398 0.0129057)
(-0.00513646 0.0506826 0.0107488)
(-0.00526011 0.0298016 0.00835714)
(-0.00515756 0.0131182 0.00636391)
(-0.00487055 -0.000263515 0.00484013)
(-0.00444003 -0.0111029 0.0036891)
(-0.00390471 -0.0199153 0.00281341)
(-0.00330303 -0.0270605 0.00214532)
(-0.00266365 -0.0327983 0.00164253)
(-0.00200425 -0.037311 0.00128208)
(-0.00134031 -0.0407278 0.00105438)
(-0.0006853 -0.0431447 0.000953263)
(-4.94608e-05 -0.0446371 0.000967279)
(0.000560252 -0.0452445 0.00108763)
(0.00113792 -0.0449707 0.00130973)
(0.00167852 -0.0437835 0.00163425)
(0.00217654 -0.0416144 0.00206765)
(0.00262413 -0.0383602 0.00261909)
(0.00301438 -0.0338861 0.00329763)
(0.00333087 -0.0280032 0.00412057)
(0.00355306 -0.0204671 0.00510996)
(0.00366045 -0.0109579 0.00628912)
(0.00362578 0.000931821 0.00767561)
(0.0034273 0.0156378 0.00925886)
(0.00305675 0.0333993 0.0109526)
(0.00253002 0.0536755 0.0125179)
(0.00189371 0.0740126 0.0134979)
(0.00122301 0.0890272 0.0133692)
(0.000693755 0.0935277 0.0121131)
(0.000283121 0.0838086 0.00953492)
(6.99167e-05 0.0440184 0.0043154)
(-0.000120257 0.0623518 0.00451264)
(-0.00113277 0.109656 0.00998479)
(-0.00247254 0.114219 0.0122852)
(-0.00383996 0.100337 0.0126867)
(-0.0051254 0.0745721 0.0111841)
(-0.00589468 0.0486307 0.00873065)
(-0.00632131 0.027039 0.00648137)
(-0.00645768 0.00982279 0.00477986)
(-0.00635635 -0.00392795 0.00354513)
(-0.00607596 -0.014975 0.00263916)
(-0.00566984 -0.0238621 0.00196341)
(-0.00517893 -0.0309879 0.00145657)
(-0.00463253 -0.0366395 0.00108322)
(-0.00405212 -0.0410275 0.000824496)
(-0.00345463 -0.0443056 0.000672851)
(-0.00285412 -0.0465895 0.000623072)
(-0.00226114 -0.0479671 0.000666076)
(-0.00168319 -0.0484867 0.000795448)
(-0.00112664 -0.0481587 0.00100812)
(-0.000596975 -0.046956 0.00130481)
(-9.93621e-05 -0.0448116 0.0016902)
(0.000358734 -0.0416185 0.00217071)
(0.000772611 -0.0372301 0.00275303)
(0.00113164 -0.0314398 0.00345285)
(0.00142019 -0.0239819 0.00429239)
(0.00162448 -0.0145318 0.00529564)
(0.00173279 -0.00270493 0.00648279)
(0.0017315 0.0118701 0.00785034)
(0.00161797 0.0293133 0.0093281)
(0.00141278 0.0489555 0.0107127)
(0.00114272 0.0683643 0.0116196)
(0.000819056 0.0825717 0.0116151)
(0.000533503 0.0870219 0.01068)
(0.000257937 0.0785548 0.00857996)
(8.46782e-05 0.0417569 0.00397103)
(-6.24809e-05 0.062923 0.00393692)
(-0.000947426 0.112064 0.00906301)
(-0.00221975 0.117374 0.0111223)
(-0.0036577 0.103585 0.011189)
(-0.00518196 0.0772177 0.00944791)
(-0.00624187 0.050308 0.0070651)
(-0.00692264 0.0276262 0.005026)
(-0.00726218 0.0094467 0.00352723)
(-0.00732266 -0.005017 0.00245213)
(-0.00717381 -0.016526 0.00166905)
(-0.00687849 -0.0256775 0.00108976)
(-0.00648388 -0.0329254 0.000660669)
(-0.00602232 -0.0386047 0.000350358)
(-0.00551807 -0.0429639 0.000141296)
(-0.00498904 -0.0461853 2.52381e-05)
(-0.00444913 -0.0484067 -4.78823e-06)
(-0.0039082 -0.0497274 4.28768e-05)
(-0.00337348 -0.0502038 0.000163038)
(-0.00285102 -0.0498533 0.000353422)
(-0.00234591 -0.0486552 0.000614628)
(-0.00186302 -0.0465486 0.000950096)
(-0.00140837 -0.0434311 0.00136468)
(-0.000984311 -0.039159 0.0018626)
(-0.000594094 -0.03353 0.00245609)
(-0.000247856 -0.0262777 0.00316461)
(4.28908e-05 -0.0170906 0.00400877)
(0.000270792 -0.00561856 0.00500708)
(0.000428735 0.00844619 0.00616085)
(0.000518446 0.0251405 0.00741879)
(0.000552984 0.0437687 0.00862432)
(0.000538666 0.0621126 0.00947552)
(0.000443932 0.075773 0.00961412)
(0.000315513 0.0804918 0.00898252)
(0.000151196 0.0734253 0.00734451)
(6.13988e-05 0.0396375 0.00345769)
(-1.69524e-05 0.0631203 0.00324699)
(-0.000760147 0.114197 0.00776354)
(-0.00190659 0.120751 0.00956523)
(-0.00331555 0.108046 0.00955949)
(-0.00495061 0.081708 0.00795096)
(-0.0061935 0.0537238 0.00582969)
(-0.00706122 0.0295551 0.00403859)
(-0.00757066 0.010009 0.00273218)
(-0.00777975 -0.00549941 0.00180515)
(-0.00776073 -0.0177288 0.0011386)
(-0.0075779 -0.0273432 0.000650895)
(-0.00728032 -0.0348684 0.000292175)
(-0.00690356 -0.0407014 3.34344e-05)
(-0.00647372 -0.0451379 -0.000141212)
(-0.00600951 -0.0483954 -0.000239309)
(-0.00552509 -0.0506362 -0.000267653)
(-0.00503032 -0.0519748 -0.000233462)
(-0.00453242 -0.0524779 -0.000140892)
(-0.00403723 -0.0521711 8.41069e-06)
(-0.00354949 -0.0510411 0.000215043)
(-0.0030735 -0.0490338 0.000481488)
(-0.00261463 -0.0460516 0.000810775)
(-0.00217464 -0.0419531 0.00120456)
(-0.00175487 -0.0365348 0.00167156)
(-0.00135967 -0.0295349 0.00222627)
(-0.000997487 -0.0206459 0.00288637)
(-0.000674804 -0.0095448 0.00366857)
(-0.000396901 0.00403116 0.00457984)
(-0.000167242 0.02007 0.00559089)
(1.22187e-05 0.037891 0.00659421)
(0.000143198 0.0555119 0.00736584)
(0.000184234 0.0690446 0.00760871)
(0.000148302 0.0742906 0.00721598)
(6.26893e-05 0.0685684 0.00597794)
(4.30456e-05 0.0376042 0.00284948)
(2.08701e-05 0.0629459 0.00259864)
(-0.000566717 0.115865 0.00641849)
(-0.00154814 0.124012 0.00798071)
(-0.00282876 0.113039 0.0080462)
(-0.00441203 0.0875729 0.0067472)
(-0.00571082 0.0589164 0.00494592)
(-0.0066809 0.0333392 0.00337173)
(-0.00731062 0.0123447 0.00219489)
(-0.00764168 -0.00435264 0.00134885)
(-0.00773762 -0.0174556 0.00073675)
(-0.00765945 -0.0276707 0.000286362)
(-0.00745656 -0.0355916 -4.77388e-05)
(-0.00716594 -0.0416775 -0.000292062)
(-0.00681486 -0.0462739 -0.000461332)
(-0.0064227 -0.0496356 -0.000563044)
(-0.00600375 -0.0519515 -0.000604282)
(-0.00556784 -0.0533529 -0.000591888)
(-0.0051221 -0.0539182 -0.000529623)
(-0.0046722 -0.0536823 -0.000418956)
(-0.00422257 -0.0526406 -0.000259437)
(-0.00377707 -0.0507474 -4.91589e-05)
(-0.00334061 -0.0479126 0.000214025)
(-0.00291477 -0.044002 0.000529939)
(-0.00250014 -0.0388171 0.000904392)
(-0.00209487 -0.0321009 0.00134755)
(-0.00170447 -0.0235544 0.00187155)
(-0.00133757 -0.0128701 0.00248858)
(-0.000999163 0.000189171 0.00320473)
(-0.000693443 0.015591 0.00400362)
(-0.000425102 0.032686 0.00481555)
(-0.000206992 0.0496923 0.00548311)
(-7.45079e-05 0.0631421 0.00577205)
(-2.76323e-05 0.0688833 0.00554903)
(-2.82179e-05 0.0642452 0.0046404)
(2.27893e-05 0.035729 0.00223514)
(3.33362e-05 0.0625163 0.00207285)
(-0.000424888 0.116979 0.00523246)
(-0.00125529 0.126782 0.00658141)
(-0.00236995 0.117522 0.00674362)
(-0.00379514 0.0933307 0.00577483)
(-0.00504734 0.0643603 0.00428978)
(-0.00603516 0.037567 0.00292055)
(-0.00672367 0.0151746 0.00186647)
(-0.00713558 -0.00274653 0.00110049)
(-0.00732011 -0.0167949 0.000544757)
(-0.00733032 -0.0276888 0.000134079)
(-0.00721242 -0.0360754 -0.000173675)
(-0.00700235 -0.042473 -0.000402916)
(-0.00672718 -0.0472786 -0.00056712)
(-0.00640621 -0.0507869 -0.000673281)
(-0.00605363 -0.0532149 -0.000728109)
(-0.00567912 -0.0547124 -0.000738092)
(-0.00528956 -0.0553704 -0.000706762)
(-0.00489031 -0.0552334 -0.000635475)
(-0.00448549 -0.0543048 -0.000523856)
(-0.00407851 -0.0525469 -0.000370247)
(-0.0036739 -0.0498764 -0.000172726)
(-0.00327318 -0.0461663 6.73467e-05)
(-0.00287703 -0.0412225 0.000353791)
(-0.0024839 -0.0347885 0.000694306)
(-0.00209352 -0.026569 0.00109781)
(-0.0017122 -0.016262 0.00157334)
(-0.00134844 -0.00364103 0.00212546)
(-0.00100777 0.0112619 0.00274438)
(-0.000698331 0.0278347 0.00338468)
(-0.000434798 0.0444425 0.0039374)
(-0.000244623 0.0579271 0.00422471)
(-0.000139426 0.0641747 0.00411302)
(-7.63045e-05 0.06045 0.00346584)
(1.45603e-05 0.0340391 0.00168708)
(3.54943e-05 0.0619381 0.00168559)
(-0.000309893 0.117572 0.00429117)
(-0.00100046 0.12898 0.00545682)
(-0.00193675 0.121267 0.00568715)
(-0.00315385 0.0986346 0.00499293)
(-0.00429277 0.0698265 0.00378151)
(-0.00523496 0.0422168 0.00259114)
(-0.00593065 0.0186676 0.00164024)
(-0.00638331 -0.000370445 0.00093478)
(-0.00662703 -0.0153408 0.000415785)
(-0.00670514 -0.0269311 2.71872e-05)
(-0.00665772 -0.0358164 -0.000268461)
(-0.00651797 -0.042562 -0.000493095)
(-0.0063118 -0.0476104 -0.000658992)
(-0.00605801 -0.0512941 -0.000772767)
(-0.00577034 -0.0538574 -0.000840751)
(-0.00545823 -0.0554694 -0.000869371)
(-0.00512826 -0.0562337 -0.000862209)
(-0.00478547 -0.0562045 -0.000820745)
(-0.00443372 -0.0553931 -0.000744891)
(-0.00407606 -0.0537698 -0.000633428)
(-0.00371653 -0.0512588 -0.000484726)
(-0.00335655 -0.0477408 -0.000300915)
(-0.00299663 -0.0430289 -7.96337e-05)
(-0.00263536 -0.0368695 0.000184713)
(-0.00227136 -0.0289672 0.000498682)
(-0.0019069 -0.019024 0.000868452)
(-0.00154878 -0.00681447 0.00129738)
(-0.00120479 0.00764138 0.00177901)
(-0.000883932 0.0237712 0.00228274)
(-0.000599829 0.0400521 0.00273223)
(-0.000372946 0.0535532 0.0029951)
(-0.000224578 0.0602226 0.00295459)
(-0.000115435 0.0572323 0.0025089)
(3.15722e-06 0.0325723 0.00123527)
(2.77069e-05 0.0613121 0.00141002)
(-0.000236992 0.11774 0.00358034)
(-0.00081073 0.130543 0.00458763)
(-0.00158509 0.12411 0.00484244)
(-0.00259645 0.103005 0.00434002)
(-0.00359124 0.0746381 0.00334494)
(-0.00444615 0.0465399 0.00231048)
(-0.00510707 0.0220798 0.00145866)
(-0.00556383 0.00207059 0.000817126)
(-0.00583637 -0.0137504 0.000341539)
(-0.00595752 -0.026009 -1.68034e-05)
(-0.00596074 -0.0353858 -0.000291826)
(-0.00587548 -0.0424808 -0.000503686)
(-0.00572546 -0.0477767 -0.000663668)
(-0.00552834 -0.0516413 -0.00077786)
(-0.00529706 -0.0543451 -0.000851891)
(-0.0050406 -0.0560761 -0.000891939)
(-0.00476506 -0.0569508 -0.000901525)
(-0.00447507 -0.0570319 -0.000882151)
(-0.00417417 -0.0563385 -0.000833914)
(-0.00386511 -0.0548476 -0.000755935)
(-0.00355128 -0.0524909 -0.000647051)
(-0.00323413 -0.0491557 -0.000509265)
(-0.00291408 -0.044661 -0.000341235)
(-0.00258994 -0.0387569 -0.000139189)
(-0.00226034 -0.0311457 0.000101416)
(-0.00192471 -0.021526 0.000384858)
(-0.00158843 -0.00966929 0.000713432)
(-0.00126037 0.00442017 0.00108342)
(-0.000949019 0.0202107 0.00147463)
(-0.000666653 0.0362666 0.00183371)
(-0.000428414 0.049819 0.00206302)
(-0.000259898 0.0568734 0.00206701)
(-0.000129808 0.054506 0.00177222)
(-3.5164e-06 0.0313129 0.000884819)
(2.05194e-05 0.0606971 0.00120523)
(-0.000182804 0.11761 0.00303559)
(-0.000655791 0.131575 0.00390515)
(-0.00128837 0.126202 0.0041508)
(-0.00211359 0.106525 0.0037711)
(-0.00295692 0.0788143 0.00294283)
(-0.00370542 0.050544 0.0020449)
(-0.00430693 0.0254462 0.00128803)
(-0.00474254 0.00465514 0.000710275)
(-0.00502087 -0.0119029 0.000277979)
(-0.00516528 -0.0247683 -5.0627e-05)
(-0.00520264 -0.0346061 -0.000305544)
(-0.00515813 -0.0420371 -0.000504714)
(-0.00505284 -0.0475754 -0.000658081)
(-0.00490285 -0.051619 -0.000770938)
(-0.00472002 -0.054462 -0.000848006)
(-0.00451275 -0.0563107 -0.000895059)
(-0.00428655 -0.0572933 -0.000915496)
(-0.00404561 -0.057481 -0.000910849)
(-0.00379312 -0.0568994 -0.000881389)
(-0.00353151 -0.055532 -0.000826476)
(-0.00326364 -0.0533171 -0.000745129)
(-0.002991 -0.050148 -0.000639019)
(-0.00271393 -0.0458509 -0.000507603)
(-0.00243134 -0.04018 -0.000348563)
(-0.00214189 -0.0328368 -0.000159134)
(-0.00184523 -0.023515 6.30725e-05)
(-0.00154354 -0.0119796 0.000318906)
(-0.00124341 0.00178168 0.000605308)
(-0.000954303 0.0172761 0.000908702)
(-0.000686634 0.0331388 0.00119234)
(-0.000451836 0.0467219 0.00138585)
(-0.000276277 0.0540885 0.0014153)
(-0.00013652 0.0522317 0.00122917)
(-9.03015e-06 0.0302477 0.000624684)
(1.31322e-05 0.0601345 0.00103734)
(-0.000148121 0.117311 0.0025874)
(-0.000539707 0.132193 0.00333282)
(-0.00105678 0.127671 0.0035493)
(-0.00172725 0.109227 0.00324604)
(-0.00243065 0.0822339 0.0025494)
(-0.00307093 0.0539856 0.00177512)
(-0.00360139 0.0284536 0.00111291)
(-0.00399892 0.00704313 0.000602862)
(-0.00426484 -0.0101381 0.000218608)
(-0.00441524 -0.0235362 -7.5569e-05)
(-0.00447101 -0.0337877 -0.000305863)
(-0.00445316 -0.0415242 -0.000487971)
(-0.00437991 -0.0472843 -0.000630443)
(-0.00426557 -0.0514924 -0.000737699)
(-0.00412076 -0.0544637 -0.000813485)
(-0.00395313 -0.0564208 -0.000863024)
(-0.00376761 -0.0575031 -0.000889485)
(-0.00356791 -0.0577892 -0.000894368)
(-0.00335684 -0.0573105 -0.000878058)
(-0.00313653 -0.056056 -0.000840088)
(-0.00290935 -0.0539699 -0.000779569)
(-0.00267682 -0.0509504 -0.000697657)
(-0.00243931 -0.0468302 -0.00059422)
(-0.00219597 -0.0413677 -0.000467779)
(-0.00194557 -0.0342635 -0.000316607)
(-0.00168768 -0.025205 -0.000139511)
(-0.00142288 -0.0139481 6.32759e-05)
(-0.00115628 -0.000464419 0.000288674)
(-0.00089712 0.0147875 0.000526608)
(-0.000654134 0.030501 0.000751215)
(-0.000435921 0.0441188 0.000912237)
(-0.000267026 0.0517525 0.000954764)
(-0.000130625 0.0503246 0.000843877)
(-1.10155e-05 0.0293444 0.000439097)
(8.6848e-06 0.0596382 0.000888387)
(-0.000119145 0.116937 0.00219394)
(-0.000441858 0.132544 0.00282523)
(-0.000863807 0.128713 0.00300529)
(-0.00140693 0.111319 0.00275412)
(-0.00198703 0.0850533 0.00216834)
(-0.00252566 0.0569621 0.00150892)
(-0.00298283 0.031163 0.000939349)
(-0.00333461 0.0092819 0.000496834)
(-0.00357799 -0.00840875 0.000160506)
(-0.00372356 -0.0222599 -9.94528e-05)
(-0.00378727 -0.032872 -0.000305141)
(-0.00378634 -0.0408788 -0.000469768)
(-0.00373624 -0.0468375 -0.000600383)
(-0.00364942 -0.0511935 -0.000700498)
(-0.00353517 -0.0542803 -0.000772918)
(-0.00340036 -0.0563351 -0.000822256)
(-0.00324928 -0.0575073 -0.000851407)
(-0.00308517 -0.0578819 -0.000861817)
(-0.00291047 -0.0574956 -0.00085397)
(-0.00272702 -0.0563421 -0.000827566)
(-0.00253676 -0.0543704 -0.000781808)
(-0.00234118 -0.0514834 -0.000717356)
(-0.00214067 -0.0475196 -0.000634348)
(-0.00193457 -0.0422419 -0.00053184)
(-0.00172173 -0.0353506 -0.000408726)
(-0.00150165 -0.0265282 -0.000264507)
(-0.00127494 -0.015521 -9.99674e-05)
(-0.00104477 -0.00228489 8.19349e-05)
(-0.000818145 0.0127515 0.000273075)
(-0.000603104 0.0283306 0.000454379)
(-0.000406539 0.0419659 0.000589424)
(-0.000250195 0.0498117 0.000638084)
(-0.000122256 0.0487351 0.000577588)
(-1.2385e-05 0.028582 0.000309716)
(5.15221e-06 0.0592123 0.000751548)
(-9.76635e-05 0.116555 0.00183612)
(-0.000363923 0.132731 0.00236115)
(-0.000709318 0.129454 0.00250459)
(-0.00115033 0.112926 0.00229348)
(-0.00162662 0.0873295 0.00180453)
(-0.00207505 0.0594512 0.00125063)
(-0.00246247 0.0334913 0.000768343)
(-0.00276642 0.0112515 0.000390461)
(-0.00298183 -0.00685204 0.00010076)
(-0.00311543 -0.0210817 -0.000125165)
(-0.0031793 -0.0319998 -0.000305666)
(-0.00318738 -0.0402382 -0.000451687)
(-0.00315262 -0.0463673 -0.000568913)
(-0.00308571 -0.0508503 -0.000660021)
(-0.00299465 -0.0540364 -0.000726984)
(-0.00288549 -0.0561753 -0.000773788)
(-0.00276196 -0.0574251 -0.000803017)
(-0.00262681 -0.0578767 -0.000816035)
(-0.00248217 -0.057571 -0.000813384)
(-0.0023296 -0.0565057 -0.000794905)
(-0.00217068 -0.0546341 -0.000759899)
(-0.00200682 -0.0518625 -0.000708591)
(-0.00183845 -0.048035 -0.000641311)
(-0.00166516 -0.0429184 -0.000557475)
(-0.00148595 -0.036213 -0.000456363)
(-0.00130033 -0.0275969 -0.000337834)
(-0.00110869 -0.0168075 -0.000202791)
(-0.000913039 -0.00378649 -5.37674e-05)
(-0.000719029 0.0110644 0.000102798)
(-0.000533792 0.0265283 0.000252523)
(-0.000362594 0.0401747 0.000368252)
(-0.000223836 0.0481935 0.000420085)
(-0.000109337 0.0474068 0.000393602)
(-1.22096e-05 0.0279374 0.000219547)
(2.99359e-06 0.0588538 0.000627904)
(-7.96498e-05 0.116201 0.00151504)
(-0.000298383 0.13283 0.00194327)
(-0.000580756 0.130003 0.00205395)
(-0.000938704 0.114186 0.00187694)
(-0.00132783 0.0891859 0.00147342)
(-0.0016976 0.0615432 0.00101452)
(-0.00202125 0.0354995 0.000612121)
(-0.00227901 0.0129938 0.000294293)
(-0.00246514 -0.00543721 4.83843e-05)
(-0.00258361 -0.0199765 -0.000145465)
(-0.00264345 -0.0311495 -0.000302193)
(-0.0026559 -0.0395825 -0.000430504)
(-0.00263166 -0.0458555 -0.000534692)
(-0.00257979 -0.0504458 -0.000616606)
(-0.00250707 -0.0537159 -0.000677469)
(-0.00241878 -0.0559263 -0.000720659)
(-0.00231806 -0.0572426 -0.00074845)
(-0.00220728 -0.0577605 -0.000762105)
(-0.00208821 -0.0575246 -0.000762206)
(-0.00196219 -0.0565358 -0.00074872)
(-0.00183047 -0.0547512 -0.000721069)
(-0.00169438 -0.0520799 -0.000679135)
(-0.00155435 -0.0483705 -0.000623418)
(-0.00141015 -0.0433939 -0.000553632)
(-0.00126093 -0.0368505 -0.000469406)
(-0.00110623 -0.0284146 -0.000370947)
(-0.000946277 -0.0178164 -0.000259311)
(-0.000782481 -0.0049846 -0.000136673)
(-0.000619308 0.00970159 -7.91807e-06)
(-0.000462716 0.0250594 0.000116397)
(-0.000316756 0.0387045 0.000216093)
(-0.000196575 0.046857 0.000268681)
(-9.64714e-05 0.0463046 0.000265191)
(-1.18097e-05 0.0273955 0.000156277)
(1.35197e-06 0.0585574 0.00051808)
(-6.61531e-05 0.115894 0.00123238)
(-0.000246082 0.132885 0.00157462)
(-0.000477475 0.130421 0.00165716)
(-0.00076871 0.115178 0.00150913)
(-0.00108618 0.090687 0.00117898)
(-0.00138941 0.0632719 0.000802901)
(-0.00165717 0.0371905 0.000471149)
(-0.00187277 0.0144875 0.000206842)
(-0.00203061 -0.00420158 -9.37759e-08)
(-0.00213281 -0.0189911 -0.000165483)
(-0.00218613 -0.0303723 -0.000300972)
(-0.00219958 -0.0389649 -0.00041311)
(-0.00218199 -0.0453557 -0.000504959)