/*--------------------------------*- C++ -*----------------------------------*\
| =========                 |                                                 |
| \\      /  F ield         | OpenFOAM: The Open Source CFD Toolbox           |
|  \\    /   O peration     | Version:  v2006                                 |
|   \\  /    A nd           | Website:  www.openfoam.com                      |
|    \\/     M anipulation  |                                                 |
\*---------------------------------------------------------------------------*/
FoamFile
{
    version     2.0;
    format      ascii;
    class       volScalarField;
    location    "22";
    object      k;
}
// * * * * * * * * * * * * * * * * * * * * * * * * * * * * * * * * * * * * * //

dimensions      [0 2 -2 0 0 0 0];


internalField   nonuniform List<scalar> 
78750
(
0.623204
0.205993
0.0967138
0.0308622
0.00202127
0.000726695
0.00164113
0.000894552
0.00135149
0.000972979
0.00120676
0.000955155
0.00109446
0.000975127
0.000995949
0.000956718
0.000944556
0.00092382
0.000907257
0.000891746
0.000876589
0.00086145
0.000846105
0.0008303
0.000813772
0.000796194
0.000777132
0.000756312
0.000733212
0.000707659
0.000678879
0.000647616
0.000611217
0.000553367
0.000182112
0.00265824
0.00188169
0.0021958
0.000180791
0.00296872
0.00229592
0.00233825
0.00219926
0.00204535
0.00193757
0.00182541
0.00176224
0.00169961
0.00165541
0.00161429
0.00157857
0.00154542
0.00151449
0.00148527
0.00145747
0.00142998
0.00140258
0.00137513
0.00134746
0.00131927
0.00128998
0.00125862
0.00122364
0.00118248
0.00113145
0.00106596
0.00098066
0.000859254
0.000686038
0.00127204
0.000236519
0.000978389
0.00132332
0.00143386
0.00140894
0.00157738
0.00171812
0.00183276
0.00190224
0.00191917
0.00189417
0.00184487
0.00178313
0.00171688
0.00165245
0.00159564
0.00154854
0.00151039
0.00147966
0.00145531
0.00143641
0.00142228
0.00141228
0.00140574
0.00140185
0.00139948
0.00139727
0.00139369
0.00138701
0.00137461
0.00135247
0.00131244
0.00122074
0.00102325
0.00225162
0.000512313
0.00117302
0.00141226
0.00152582
0.0015578
0.00150622
0.00139578
0.00126818
0.0011954
0.00123304
0.0013661
0.0015409
0.00169525
0.00179309
0.00182518
0.00180981
0.00176761
0.00171417
0.00165984
0.00161113
0.00157136
0.00154145
0.00152081
0.00150846
0.00150292
0.00150216
0.00150389
0.00150558
0.00150451
0.00149781
0.00148138
0.00144714
0.0013814
0.00144363
0.00344878
0.000177177
0.000930156
0.00127424
0.00145561
0.00154793
0.00157595
0.00154677
0.00147843
0.00141336
0.00133024
0.00120198
0.00116593
0.0013477
0.00157182
0.00172238
0.00179816
0.00181913
0.00180967
0.00178581
0.00175664
0.00172724
0.00170083
0.00167958
0.00166495
0.00165731
0.00165587
0.00165899
0.00166431
0.00166873
0.00166815
0.00165672
0.0016243
0.00155749
0.00172841
0.00430728
0.000936084
0.00155638
0.00178386
0.0018565
0.00181396
0.00163376
0.00128753
0.000874961
0.000805196
0.0010976
0.00126964
0.00137451
0.0014789
0.0015828
0.00167267
0.00173966
0.00178697
0.00181993
0.00184009
0.00184943
0.00185085
0.00184743
0.001842
0.00183705
0.00183446
0.00183528
0.00183953
0.00184599
0.00185185
0.0018519
0.00183633
0.00178897
0.00173284
0.00214083
0.00515728
0.000712751
0.00150258
0.00177122
0.00181649
0.00169684
0.00153977
0.00137796
0.00118477
0.00102439
0.00107124
0.0012602
0.00147655
0.00168789
0.00186161
0.00197812
0.00203379
0.00203056
0.00198452
0.00193533
0.00190505
0.00189219
0.00189094
0.00189711
0.00190801
0.00192205
0.00193862
0.00195764
0.001979
0.00200173
0.00202273
0.00203375
0.00201577
0.00201295
0.00259524
0.00582119
0.000582492
0.00157669
0.00195836
0.00215795
0.00228958
0.00238844
0.00245155
0.00244203
0.00231925
0.00207887
0.00177274
0.00144298
0.00110891
0.000794951
0.00063795
0.000746304
0.00101447
0.0013531
0.00165676
0.00184701
0.00194474
0.00199171
0.00201321
0.00202449
0.00203514
0.00204977
0.00206946
0.00209347
0.00212009
0.00214598
0.00216339
0.0021526
0.00218495
0.00294266
0.006347
0.00100793
0.00181009
0.00211453
0.00227109
0.0023398
0.00241239
0.00255214
0.00269245
0.0027773
0.00279782
0.00274775
0.00261382
0.00238101
0.00205097
0.00168615
0.00140214
0.00126384
0.00124928
0.00129499
0.00138226
0.00150527
0.00165447
0.00180627
0.00193051
0.00202106
0.00208824
0.00214387
0.00219597
0.00224902
0.00230474
0.00236165
0.00241396
0.00259235
0.00352901
0.00686837
0.0018436
0.00250385
0.00273606
0.0028307
0.00284792
0.00284709
0.00288845
0.00297153
0.00306223
0.00313041
0.00315659
0.0031298
0.00304367
0.00289494
0.00269087
0.00245949
0.00223641
0.00203496
0.00184725
0.00168579
0.00160048
0.00159712
0.00165479
0.0017537
0.00186633
0.00197169
0.00206427
0.00214778
0.00222765
0.00230819
0.00239196
0.00247729
0.00271302
0.00376443
0.00718723
0.00158344
0.00210866
0.00226188
0.00234309
0.00260325
0.00284302
0.00298405
0.00308711
0.00316898
0.00322542
0.00325037
0.00323392
0.00316771
0.00305057
0.00288503
0.0026762
0.00243217
0.00216738
0.00191722
0.00174093
0.00166123
0.00164959
0.00168458
0.00175672
0.00185304
0.00195754
0.00206055
0.00216116
0.00226381
0.00237636
0.00251418
0.00271498
0.00319836
0.00440913
0.00769662
0.00190542
0.00236302
0.00242938
0.00230757
0.00226638
0.00245216
0.00266585
0.00283455
0.00297296
0.00309047
0.00318565
0.00324928
0.00327092
0.00324299
0.00316009
0.00301489
0.00279655
0.0025042
0.00218511
0.00194402
0.00182403
0.00178312
0.00178837
0.00182815
0.00189507
0.00198019
0.00207509
0.00217486
0.00227912
0.00239403
0.00253455
0.00275285
0.00336749
0.00468534
0.0078813
0.00212313
0.00227192
0.00215445
0.00197299
0.00201693
0.00219184
0.00234122
0.0024658
0.00258664
0.00270344
0.00280736
0.00288824
0.00293628
0.00293934
0.00288809
0.00277774
0.00261076
0.00240635
0.00220897
0.00206568
0.0019851
0.0019512
0.00195171
0.00198023
0.00203202
0.00210197
0.00218498
0.0022783
0.0023838
0.00251242
0.00269532
0.00303213
0.00387216
0.00525613
0.00828927
0.00195078
0.00233522
0.00214474
0.00185911
0.00177151
0.00172328
0.00173184
0.00180471
0.00192521
0.00207025
0.00221565
0.00233963
0.00242796
0.00247416
0.00247638
0.00243821
0.00236861
0.00228265
0.00220006
0.00213795
0.00210167
0.00208942
0.00209856
0.00212709
0.00217311
0.00223453
0.00230924
0.00239588
0.00249512
0.00261314
0.00277681
0.0031363
0.00417536
0.00559331
0.00846477
0.00174593
0.00307962
0.00338098
0.00326258
0.00287144
0.00236391
0.00183643
0.00141778
0.00121657
0.00124927
0.00143701
0.00166521
0.00185486
0.00198345
0.00206158
0.00210528
0.00212723
0.00213666
0.00214091
0.00214621
0.00215625
0.00217288
0.00219732
0.00223039
0.00227458
0.00233138
0.00240211
0.00248932
0.00260036
0.00275542
0.00300832
0.0035129
0.00465657
0.00606011
0.0088866
0.00205108
0.00452779
0.00527752
0.00540404
0.00520616
0.00472319
0.0039464
0.00298578
0.00198356
0.00108251
0.000467216
0.000300037
0.000558234
0.00098281
0.00134803
0.00159226
0.00174103
0.00184162
0.00192444
0.00200212
0.00207781
0.00215155
0.00222298
0.00229193
0.00235921
0.00242713
0.00249835
0.00257931
0.00267699
0.00280304
0.0030104
0.00356079
0.00488836
0.00634108
0.00917755
0.00338744
0.00537356
0.00586573
0.00584499
0.00559082
0.00516292
0.00462826
0.00411565
0.00358618
0.0029456
0.00217728
0.00132201
0.000524245
0.000190234
0.000437552
0.000848236
0.00118743
0.00143139
0.00160062
0.0017281
0.00183937
0.00194788
0.00205935
0.00217443
0.00229038
0.00240393
0.00251485
0.00262862
0.00276063
0.00295592
0.00331413
0.00401545
0.00532754
0.00677337
0.00975173
0.00521372
0.00585758
0.00574838
0.00545255
0.00498461
0.00429501
0.00354048
0.00307503
0.0028858
0.0027694
0.00256066
0.00215126
0.00149939
0.000677744
0.000136843
0.000255593
0.000658734
0.000997518
0.00125486
0.00145485
0.00161361
0.00175065
0.00187978
0.00201061
0.00214903
0.00229646
0.00245223
0.00261075
0.00276401
0.00291521
0.0031596
0.00390082
0.00542735
0.00698695
0.0100814
0.00430547
0.005274
0.00576624
0.00600397
0.00608279
0.00599247
0.00562915
0.0049341
0.00412083
0.00344404
0.0030252
0.00282067
0.0026266
0.0022021
0.00145796
0.000573764
0.000172212
0.000427284
0.000821433
0.00111589
0.00133153
0.00150627
0.00166425
0.00181728
0.00196998
0.00212656
0.00229413
0.00248515
0.00272385
0.00305457
0.00355281
0.00442281
0.0058732
0.00745141
0.0108032
0.00256254
0.00474399
0.00572936
0.00615728
0.00636758
0.00646815
0.0064824
0.0063292
0.00578941
0.0048149
0.00367954
0.00280283
0.00249431
0.00255345
0.0025414
0.00219337
0.00140215
0.00045259
0.000129452
0.000473696
0.000908215
0.00122529
0.00144622
0.00162353
0.00179536
0.00198064
0.00218458
0.00240182
0.00262366
0.00286011
0.00322424
0.00413243
0.00588072
0.00766874
0.0111554
0.00320741
0.00490653
0.00557856
0.00575601
0.00574712
0.00566244
0.00561637
0.00574485
0.00589872
0.00566836
0.00478348
0.00339596
0.0022602
0.00203579
0.00230537
0.00249711
0.00240334
0.00189018
0.00103531
0.000273389
0.000122692
0.00043512
0.000823915
0.00115254
0.00142501
0.00167211
0.00192405
0.00221796
0.00260536
0.00316763
0.00401235
0.00519423
0.00665458
0.00826909
0.0117635
0.00475405
0.00579287
0.00611984
0.00613651
0.00599578
0.0057264
0.00538303
0.00517363
0.00520723
0.00516515
0.00478773
0.0038162
0.00234506
0.00149779
0.00169883
0.00212059
0.00236079
0.0023244
0.00194081
0.00131694
0.000805357
0.000623317
0.000697757
0.000896075
0.00113923
0.00139604
0.00165661
0.00191045
0.00215291
0.00242309
0.00294758
0.00428142
0.0062887
0.00821499
0.0119284
0.00589057
0.00654911
0.00672859
0.0067318
0.00661472
0.00637917
0.00604573
0.00569611
0.00543961
0.00517519
0.00475521
0.00403659
0.00281141
0.00139714
0.000960816
0.00130971
0.00171109
0.00182032
0.00155037
0.00105618
0.000626806
0.0004296
0.000436381
0.000577716
0.000808353
0.00111411
0.00149656
0.00196989
0.00256358
0.00331125
0.0042379
0.00551889
0.00716709
0.00896153
0.0126099
0.00543565
0.00560521
0.00583162
0.00606068
0.00624826
0.00635571
0.00635255
0.00621268
0.00594581
0.0056334
0.00529836
0.00487101
0.00419073
0.00301277
0.0014616
0.000397094
0.00034765
8.39791e-06
0.00012296
0.000153911
0.000127268
0.000170638
0.000315505
0.000509509
0.000706114
0.000878291
0.00105869
0.00130529
0.00165648
0.00224633
0.00332907
0.00499843
0.00699812
0.00891217
0.0123633
0.00418617
0.00504115
0.00579147
0.00629904
0.00667282
0.00695316
0.0071396
0.00720871
0.00711802
0.00684916
0.00648939
0.00617574
0.00598949
0.0058712
0.00556623
0.00475753
0.00340478
0.00184212
0.000444789
0.000310624
9.41311e-05
0.000187608
0.000214504
0.000189828
0.000180496
0.000318444
0.000845009
0.00139959
0.00196613
0.00255722
0.0035466
0.00544675
0.00735476
0.00917803
0.0127899
0.00308044
0.00492687
0.00599067
0.00653825
0.00686583
0.00709992
0.00729849
0.00749112
0.00765962
0.00771757
0.00754389
0.00707268
0.00637109
0.00565145
0.00515893
0.00495706
0.00486365
0.00463916
0.00406278
0.00289772
0.00102503
6.88616e-05
0.00011687
7.46662e-06
0.000115651
0.000224889
0.000178971
0.000404909
0.00110699
0.00207238
0.00287864
0.00444752
0.00694228
0.00928939
0.013483
0.00368431
0.00545896
0.00626535
0.0066799
0.00693759
0.00712515
0.0072791
0.00743235
0.00762235
0.00787386
0.00814301
0.00831834
0.00828154
0.0079288
0.00721
0.00625821
0.00535048
0.00468872
0.00428216
0.00395118
0.00334477
0.00170683
0.000139269
0.000187569
3.67086e-06
1.39409e-06
0.000181346
0.000184456
0.000757963
0.00199437
0.00401157
0.0059061
0.00786503
0.00990416
0.0138555
0.00572691
0.006829
0.00708265
0.00717562
0.0072331
0.00728582
0.00735913
0.00746538
0.00757375
0.0076559
0.00773763
0.0078574
0.00799647
0.00808653
0.0080585
0.00784168
0.007338
0.00652218
0.00563076
0.00494136
0.00447358
0.00399352
0.00316081
0.00124238
0.000269823
0.00010387
0.000254152
0.000169613
4.42965e-05
0.00136029
0.00315056
0.00568794
0.00790966
0.00995672
0.0139281
0.00626618
0.00685567
0.00703024
0.00711801
0.00717629
0.00723787
0.0073722
0.00763159
0.00793532
0.00817043
0.00829654
0.00833395
0.00832278
0.00828409
0.00820654
0.00807072
0.00785518
0.0074901
0.00681594
0.0058361
0.00495437
0.00437032
0.00389902
0.00317645
0.0019962
0.000385772
0.000244506
8.12705e-06
5.64169e-05
0.00100577
0.00302263
0.00565737
0.00801639
0.010164
0.0142822
0.00634807
0.00682216
0.00689679
0.0068816
0.00682884
0.00677647
0.00687612
0.00725796
0.00775368
0.00815816
0.00841924
0.00855833
0.00860509
0.00858419
0.00850975
0.00838342
0.00820051
0.00794553
0.00756062
0.00691403
0.00600121
0.00515757
0.0045399
0.00397078
0.00304939
0.0011993
0.000124972
0.000192247
6.62951e-05
0.000118202
0.00253515
0.00541875
0.00793507
0.0102439
0.0147436
0.00744276
0.00757861
0.00739996
0.00718963
0.00694138
0.00667527
0.00660239
0.006917
0.00741835
0.00786838
0.00819926
0.00841647
0.00852985
0.0085457
0.00847318
0.00832666
0.00812059
0.00785724
0.00751273
0.0070336
0.00637938
0.00564658
0.0049731
0.00431801
0.00344389
0.00151518
0.00042357
0.000199214
0.000334626
0.00055915
0.00231786
0.00582379
0.00840492
0.010688
0.0150758
0.00728027
0.00718805
0.00706804
0.00692648
0.00672253
0.00643312
0.00619778
0.0062854
0.00662336
0.00703508
0.00743963
0.00780766
0.00812169
0.00836368
0.00851476
0.00856003
0.00849631
0.00833529
0.0080918
0.00776879
0.00734866
0.00682705
0.00625461
0.00566872
0.00498137
0.00390859
0.00252401
0.00134929
0.000355801
0.000519709
0.00122499
0.0045061
0.00774233
0.0104544
0.0154493
0.00753464
0.00722804
0.00712523
0.00700475
0.00679052
0.00641414
0.0059476
0.00584632
0.00610737
0.00642227
0.00671304
0.00699481
0.00728194
0.00756862
0.00782914
0.00802958
0.00814079
0.00814007
0.00800664
0.00774666
0.00741515
0.0070634
0.00669209
0.00626169
0.0056851
0.00480548
0.00346293
0.00154193
1.52253e-05
0.000435854
0.00168882
0.004821
0.00818286
0.0111579
0.0164705
0.00740093
0.00723863
0.00722621
0.00713696
0.00691385
0.00645775
0.00570709
0.00523164
0.00544018
0.00581689
0.00614211
0.00643317
0.0067331
0.00706819
0.00743404
0.00779077
0.00808183
0.00826443
0.00831607
0.00821777
0.00797142
0.00764768
0.0073073
0.00693925
0.00647661
0.00579147
0.00475027
0.00329813
0.00177516
0.000876267
0.00251431
0.00570528
0.00877515
0.0115232
0.0164861
0.00745706
0.00726394
0.00720213
0.00709655
0.00687733
0.006452
0.0057433
0.00497919
0.00480797
0.00495451
0.00514532
0.00536607
0.00563553
0.00595607
0.00633147
0.00675032
0.00713091
0.00736969
0.00744887
0.0073927
0.00720666
0.00689238
0.00645864
0.00591011
0.00523078
0.00440172
0.0034119
0.00223535
0.00102625
0.000479787
0.0021172
0.00566232
0.00886461
0.0117366
0.0170046
0.00762849
0.00720075
0.00702745
0.00684144
0.00653658
0.00608236
0.00561076
0.00522182
0.0050633
0.00507665
0.00512559
0.00523529
0.00539619
0.00555929
0.00572011
0.0059011
0.00612014
0.00635632
0.00655592
0.00669024
0.0067432
0.00669915
0.00654123
0.00625787
0.00584101
0.00528134
0.00455935
0.00364286
0.00255624
0.00217855
0.00387495
0.00694338
0.00965533
0.0122578
0.0168392
0.00805783
0.00751159
0.00733117
0.00711838
0.00674769
0.0061731
0.00559135
0.0052399
0.00506896
0.00506472
0.00508657
0.00510298
0.00517121
0.00533598
0.00553248
0.0056701
0.00572317
0.00573789
0.00577652
0.00582209
0.0058324
0.00579191
0.00569414
0.00553046
0.00529262
0.00497611
0.00457572
0.00405766
0.00328108
0.00251767
0.00379415
0.00718595
0.00989663
0.0123418
0.0169342
0.00739935
0.00692381
0.00688554
0.00677352
0.00648805
0.00599481
0.00544409
0.00509375
0.00484899
0.00455744
0.00420335
0.00381768
0.00362944
0.00407604
0.0049047
0.00544679
0.00581112
0.00609523
0.00632675
0.0065006
0.00659555
0.00660638
0.00653571
0.00637919
0.00612423
0.00574966
0.00522619
0.00457027
0.00400382
0.00390625
0.00504861
0.00806489
0.0103874
0.0127167
0.0172407
0.00567749
0.00684815
0.0071865
0.00729207
0.00730911
0.00723881
0.00696275
0.00643951
0.00597742
0.00567128
0.00542094
0.00512898
0.00472517
0.00426114
0.00403546
0.0041628
0.00441812
0.00471149
0.00500979
0.00529359
0.00554103
0.00572982
0.00584581
0.00587873
0.00581389
0.00562469
0.00527594
0.00482829
0.00478417
0.00597016
0.00773218
0.00942304
0.0109857
0.0127385
0.0152803
0.00592903
0.00732252
0.00750789
0.00743409
0.00729205
0.00724357
0.00733052
0.00733215
0.00702631
0.00651529
0.00604555
0.00573591
0.0055374
0.00532978
0.00502604
0.0046103
0.00422421
0.00421985
0.00456629
0.0049684
0.00530033
0.00554857
0.00571622
0.00579868
0.0057816
0.00564561
0.00537677
0.00503562
0.00504749
0.00646861
0.00944285
0.0112997
0.0122716
0.0130966
0.0129064
0.00622248
0.00747075
0.00746563
0.00716449
0.00683693
0.00684539
0.00725625
0.00776397
0.00808048
0.00804875
0.00766679
0.00711726
0.00665005
0.00634789
0.00612555
0.00587747
0.00554752
0.00512897
0.00469985
0.00444921
0.00454651
0.00490141
0.00530993
0.0056603
0.00591366
0.00603668
0.00598821
0.00577007
0.00552468
0.00576617
0.00738284
0.00994107
0.0113413
0.0120571
0.0122768
0.00880035
0.00880539
0.00819291
0.00738694
0.0067187
0.00666324
0.00716978
0.00783206
0.00836803
0.00868836
0.00871618
0.00839332
0.00785354
0.00737361
0.0070571
0.00683536
0.00662724
0.00638603
0.00608515
0.00570995
0.00527723
0.00490449
0.0048031
0.00501788
0.00540415
0.0058281
0.0061945
0.00639764
0.00640205
0.00630172
0.00627721
0.00702758
0.00866263
0.0102821
0.0139675
0.0107285
0.00859291
0.00735346
0.00630187
0.00618468
0.00668312
0.00740821
0.0081336
0.00873756
0.0091813
0.00943601
0.00946366
0.00926537
0.00895833
0.00866689
0.00841066
0.00816004
0.00788887
0.00757837
0.00721244
0.0067687
0.00623041
0.00563986
0.00516077
0.00495277
0.00504783
0.00552246
0.00627762
0.00693161
0.00718054
0.00678047
0.00651765
0.00834715
0.0112102
0.0179349
0.00805558
0.00693727
0.00663863
0.00649211
0.00656858
0.00649655
0.00675576
0.0073674
0.00802035
0.00860104
0.00906791
0.00940091
0.00960068
0.00968281
0.00967049
0.00958075
0.00941952
0.00918684
0.00887934
0.00848942
0.00799342
0.00733827
0.00646314
0.00547076
0.00474831
0.00476476
0.00577758
0.00708955
0.00788922
0.00802701
0.00783145
0.00841798
0.0106465
0.013807
0.0207329
0.00556843
0.00797858
0.0085276
0.00838493
0.00772337
0.00652859
0.00567889
0.0062478
0.00727672
0.00816248
0.00884428
0.00936261
0.00974651
0.0100139
0.0101746
0.0102325
0.0101895
0.0100472
0.00980419
0.00945024
0.00894736
0.00820739
0.00712176
0.00583697
0.00499458
0.00533868
0.00696363
0.00860552
0.00912431
0.00900053
0.00925805
0.0106006
0.0124764
0.0148528
0.0196506
0.00639637
0.00885239
0.00882826
0.00829994
0.00763979
0.00657386
0.00485533
0.0048624
0.00621012
0.00751821
0.00845988
0.00916702
0.00973176
0.0101828
0.0105237
0.0107482
0.0108497
0.0108253
0.0106705
0.0103731
0.00989112
0.00913364
0.00799034
0.00655539
0.00543213
0.00556699
0.00738041
0.00965139
0.0105212
0.0103952
0.0105982
0.0116284
0.012819
0.0142773
0.016913
0.00895315
0.00871528
0.00781978
0.00686554
0.00601695
0.00576809
0.0053008
0.00575283
0.00693516
0.00794883
0.00869769
0.00929818
0.00980755
0.0102506
0.0106342
0.0109443
0.0111643
0.0112792
0.0112749
0.0111321
0.0108061
0.0102174
0.00927415
0.00798229
0.00667949
0.00610336
0.00704905
0.00936865
0.011277
0.0119137
0.0121655
0.0126685
0.0132544
0.0139641
0.0149144
0.0125739
0.00992568
0.00802112
0.00621449
0.00474073
0.00476689
0.00589736
0.00739709
0.00829751
0.00891729
0.00943799
0.00989996
0.0103109
0.0106743
0.0109928
0.0112635
0.011476
0.0116191
0.01168
0.0116345
0.0114378
0.01102
0.0102915
0.00921118
0.0079586
0.00701795
0.00700978
0.00837146
0.0105079
0.0121593
0.0130235
0.0135154
0.0138525
0.0140814
0.0139716
0.0135034
0.00892625
0.00669873
0.00544894
0.00548264
0.00622365
0.00742086
0.00814242
0.00862506
0.00911013
0.00957831
0.0100113
0.0104023
0.0107486
0.0110482
0.0112995
0.0115018
0.0116542
0.0117525
0.0117855
0.0117283
0.0115341
0.0111335
0.0104722
0.00960294
0.00873003
0.00816574
0.00830639
0.00934318
0.010838
0.0121103
0.0128415
0.0131528
0.0132761
0.0140732
0.011787
0.00585711
0.00445798
0.00522056
0.00633242
0.00676501
0.00756006
0.00822575
0.00871711
0.00920757
0.00967699
0.0101016
0.010477
0.0108024
0.0110767
0.0112992
0.0114709
0.0115943
0.0116725
0.0117096
0.0117105
0.0116778
0.011598
0.0114223
0.0111027
0.0106538
0.0101627
0.00979071
0.00974603
0.0101095
0.0107115
0.0112904
0.0117675
0.0124973
0.0160326
0.00725622
0.00559504
0.00584029
0.00654622
0.00686543
0.00694063
0.00710335
0.00753359
0.00819052
0.00884517
0.00943376
0.00995025
0.0103914
0.0107538
0.0110426
0.0112594
0.0114087
0.011497
0.0115321
0.01153
0.0115394
0.0116772
0.0120363
0.0123928
0.0124664
0.0122986
0.0119713
0.011551
0.0111136
0.0107384
0.010604
0.0110201
0.0119126
0.0135342
0.0187734
0.00627374
0.00991858
0.0094636
0.00837228
0.00727558
0.00634085
0.00554357
0.00485992
0.00527445
0.00633599
0.00743293
0.00840464
0.00923041
0.0099057
0.010434
0.0108229
0.0110836
0.0112297
0.0112759
0.0112332
0.0111444
0.0111804
0.0116902
0.0126737
0.0133521
0.0134477
0.0131744
0.0126658
0.0120809
0.0116328
0.0115558
0.0121238
0.0131335
0.0148185
0.0191307
0.00670186
0.00884711
0.00918259
0.00923361
0.00885858
0.00807581
0.00702474
0.00437229
0.00298791
0.00373224
0.00520954
0.00662259
0.0078331
0.00885849
0.00969455
0.0103425
0.0108134
0.0111196
0.011272
0.0112796
0.0111549
0.0109719
0.0110254
0.0117733
0.013021
0.0138503
0.013951
0.0135271
0.0128603
0.0124231
0.0125593
0.0131704
0.0139639
0.0150963
0.0171835
0.00731545
0.00807649
0.00819135
0.00820652
0.00823173
0.00803562
0.00765085
0.00482054
0.00219666
0.00272772
0.0045289
0.00622724
0.00749092
0.00847824
0.00932318
0.0100484
0.0106381
0.0110802
0.0113684
0.0115104
0.0114991
0.0113253
0.0110763
0.0110665
0.0116935
0.0128265
0.0137469
0.0139673
0.0136325
0.0132474
0.0132786
0.0136653
0.0141415
0.0147265
0.0155474
0.0103108
0.00991829
0.00934313
0.00865209
0.0077365
0.00646864
0.00529482
0.0034542
0.00203609
0.00349654
0.00567097
0.00701245
0.00791139
0.00870985
0.00948167
0.010187
0.0107988
0.0112964
0.0116634
0.0118891
0.0119792
0.0119175
0.0116791
0.0113354
0.011147
0.011475
0.0123886
0.0133694
0.013797
0.0137781
0.0137676
0.013906
0.0141134
0.0144064
0.0152111
0.0110838
0.00963678
0.00914361
0.00869223
0.00790518
0.00618906
0.00318588
0.0014967
0.0027661
0.00532943
0.00681386
0.00761195
0.00830666
0.00903801
0.00976053
0.0104422
0.0110593
0.0115908
0.0120171
0.0123213
0.0124997
0.0125457
0.0124258
0.0121089
0.0116395
0.0112262
0.0112549
0.0119963
0.0130423
0.0136589
0.0138959
0.0140246
0.0141439
0.0143619
0.0153372
0.0102286
0.00886021
0.008287
0.00774106
0.00695176
0.00554623
0.00293363
0.00106342
0.00348218
0.00598725
0.00705408
0.00779429
0.00847443
0.00916581
0.0098683
0.0105528
0.0111927
0.0117663
0.0122533
0.0126359
0.0129108
0.0130702
0.013082
0.0129026
0.012498
0.0118935
0.0112922
0.0111649
0.0118995
0.0129791
0.013639
0.0139657
0.0141691
0.0144254
0.0153349
0.010709
0.00963597
0.00910297
0.0085431
0.00770732
0.0064182
0.00455698
0.00166566
0.00274251
0.00550235
0.00672395
0.00753887
0.00825786
0.00896434
0.00966856
0.0103631
0.0110341
0.0116681
0.012251
0.0127606
0.0131747
0.0134715
0.0136261
0.013608
0.0133798
0.0129063
0.0122128
0.0115333
0.0113978
0.0121007
0.0129891
0.0135405
0.0138816
0.0142662
0.0155105
0.0107389
0.00944075
0.00890762
0.00842061
0.00769148
0.00633273
0.00411078
0.00164919
0.000681264
0.00448165
0.00618128
0.00712154
0.00784374
0.0085373
0.00925149
0.00997587
0.0107063
0.0114269
0.0121057
0.012717
0.013242
0.013664
0.0139636
0.0141173
0.0140961
0.013865
0.0133928
0.0127123
0.0120619
0.0119015
0.0123356
0.012862
0.0132974
0.013944
0.0163058
0.0102794
0.00890541
0.00837291
0.00787994
0.00715544
0.00593109
0.00383791
0.00142047
0.000338933
0.00318157
0.00543811
0.00657613
0.00734133
0.00803963
0.00876338
0.00951525
0.010305
0.011104
0.0118626
0.0125498
0.0131515
0.0136589
0.0140607
0.0143405
0.0144772
0.0144442
0.0142099
0.0137473
0.0130943
0.0124891
0.0123408
0.0126966
0.0132543
0.0142506
0.0175771
0.0106311
0.00949635
0.00906956
0.00862488
0.00794228
0.00678115
0.00487795
0.00197995
0.000330304
0.00167158
0.00474617
0.00613547
0.00693276
0.0076035
0.00831251
0.00909602
0.00994798
0.0108056
0.0116166
0.0123583
0.0130232
0.0136052
0.014093
0.0144693
0.0147132
0.0148016
0.0147083
0.0144007
0.0138568
0.0131666
0.0127278
0.0129506
0.0135534
0.0146609
0.018109
0.00989208
0.00877876
0.00843322
0.00810054
0.00758802
0.00664779
0.00493646
0.00249382
0.000122621
0.000495873
0.00426771
0.00571847
0.00653982
0.00721228
0.00791908
0.00872576
0.00960665
0.0104818
0.0112863
0.0120036
0.0126467
0.013231
0.0137606
0.0142251
0.0146017
0.0148583
0.0149562
0.0148448
0.0144605
0.0138112
0.0132675
0.013401
0.0139791
0.0150818
0.0185987
0.00965428
0.00904669
0.00882087
0.00850385
0.00798601
0.00711922
0.00569311
0.00349448
0.000712646
0.000305633
0.00165707
0.00439043
0.00571218
0.00660701
0.00746218
0.00842446
0.00946898
0.0104912
0.0114118
0.012203
0.0128672
0.0134196
0.0138779
0.0142571
0.0145662
0.0148035
0.0149485
0.0149531
0.0147438
0.0143226
0.0140145
0.0142259
0.0147548
0.0157576
0.0188431
0.0089471
0.00880127
0.00871451
0.00854185
0.00826937
0.00784447
0.00710552
0.00575006
0.00354768
0.000818003
0.00103689
0.00235434
0.00457811
0.0057193
0.00662529
0.00762314
0.00881008
0.010045
0.0111415
0.012061
0.0128531
0.0135549
0.014164
0.0146524
0.0149912
0.0151706
0.0152015
0.0150992
0.0148745
0.0145931
0.0144792
0.014676
0.0150368
0.0157203
0.0179223
0.00881139
0.0090559
0.00897922
0.00875829
0.00839318
0.00781008
0.00693763
0.0058267
0.00441483
0.00228585
0.000129019
0.000669142
0.0020696
0.00454549
0.00583106
0.00674161
0.00760753
0.00852139
0.0094551
0.0103549
0.0112047
0.0120258
0.0128443
0.0136553
0.0144019
0.0149892
0.0153291
0.0153875
0.0152189
0.0149883
0.0149132
0.0150443
0.0153067
0.0158847
0.0181094
0.00861305
0.00903768
0.00891193
0.00866172
0.00831682
0.00784342
0.00721724
0.00650374
0.00572275
0.00455806
0.00201997
0.00037733
0.000517591
0.00180288
0.005067
0.00699979
0.00868219
0.0104072
0.011786
0.0125854
0.0129706
0.0131807
0.0133719
0.0136516
0.0140867
0.0146435
0.0151679
0.0154918
0.0155696
0.0155217
0.0155108
0.0155869
0.0157535
0.0161676
0.017639
0.00908856
0.00952841
0.00924315
0.00885904
0.0083663
0.0076452
0.00661751
0.00555198
0.00487185
0.0045513
0.00427165
0.00249866
0.000766272
0.000763662
0.00135307
0.00497453
0.00687247
0.00851222
0.0104688
0.0123929
0.0137873
0.014549
0.0148601
0.0149252
0.0149181
0.0149872
0.0151823
0.0154224
0.0156052
0.0157092
0.015767
0.0157945
0.0157886
0.0157184
0.0154774
0.01045
0.00987947
0.00914024
0.00848254
0.00772622
0.00667813
0.0054457
0.00455334
0.00418161
0.00416274
0.00403394
0.00379518
0.00254538
0.00059959
0.000316955
0.00135383
0.00505781
0.00715753
0.00893009
0.01083
0.0127059
0.0142671
0.0153363
0.0159168
0.0161186
0.0160908
0.0159781
0.015874
0.0158032
0.0157486
0.0156816
0.0155699
0.0153631
0.014894
0.0137791
0.0117856
0.0100127
0.00892152
0.00801918
0.00688402
0.00524276
0.00365458
0.00291203
0.00291595
0.0034098
0.00393126
0.004105
0.00393318
0.00310809
0.00196834
0.00068311
0.00318916
0.00611164
0.0079027
0.00937258
0.0108172
0.0122795
0.0136584
0.0148278
0.0156914
0.0162181
0.0164462
0.0164541
0.0163264
0.016127
0.0158851
0.0155964
0.0152136
0.0145543
0.013551
0.0129471
0.00985483
0.0084728
0.00723801
0.00542748
0.00294793
0.0014911
0.00157239
0.00235399
0.00323412
0.00389158
0.00433817
0.00442233
0.00395169
0.00275706
0.00125913
0.00129664
0.00431263
0.00679065
0.00841497
0.00967581
0.0107981
0.0118854
0.0129537
0.0139719
0.0148634
0.0155455
0.0159796
0.016176
0.0161738
0.0160149
0.0157304
0.0153244
0.0147202
0.0146491
0.0123788
0.00903985
0.00771235
0.00620641
0.00365336
0.00072806
0.000648841
0.00213095
0.00393185
0.00537982
0.00596846
0.00584712
0.00497997
0.00353625
0.00233296
0.00281161
0.00499021
0.00759984
0.00935774
0.0104947
0.011309
0.0119581
0.0125197
0.013055
0.0136264
0.0142509
0.014857
0.0153484
0.0156681
0.0157987
0.0157488
0.0155532
0.0152748
0.0150461
0.0162139
0.0116483
0.00901159
0.00788699
0.00647579
0.00413165
0.00143263
0.000952008
0.00358658
0.00628853
0.00829563
0.00855035
0.0078992
0.00669625
0.00494502
0.00344932
0.00411334
0.00703352
0.00935449
0.0109495
0.0121838
0.0130975
0.013738
0.0141559
0.0144057
0.0145715
0.0147563
0.0150005
0.0152587
0.0154641
0.015571
0.0155666
0.015483
0.015401
0.015512
0.016757
0.010833
0.00871821
0.00789086
0.0068922
0.00510971
0.00230692
0.00056777
0.000550346
0.000860225
0.00489941
0.00845746
0.00939837
0.00903723
0.00807288
0.00651944
0.00537388
0.0063335
0.00856829
0.010245
0.0115999
0.0128541
0.0139584
0.0148385
0.0154553
0.01581
0.0159618
0.0160055
0.0160104
0.0159995
0.0159667
0.0159054
0.0158268
0.0157579
0.015737
0.0156941
0.00995079
0.0086825
0.00817407
0.00754763
0.00640668
0.00426955
0.00114872
0.000344575
0.000569221
0.000905071
0.00413875
0.00864483
0.0100959
0.0100562
0.00944753
0.00827539
0.00711649
0.00719611
0.0085185
0.00977102
0.010819
0.0118974
0.0130392
0.0141656
0.0151482
0.0158732
0.0163071
0.0164938
0.0165077
0.0164178
0.0162668
0.0160761
0.0158538
0.0155658
0.0153299
0.00947141
0.008605
0.0082274
0.00787791
0.00735481
0.00630162
0.0040538
0.000585047
0.000267039
0.000340343
0.000113473
0.00247528
0.00742846
0.0102856
0.0107548
0.0103894
0.00941495
0.00809855
0.00761523
0.00844822
0.00946835
0.0102939
0.0110751
0.011943
0.0129392
0.0139842
0.0149082
0.0155775
0.0159579
0.0160861
0.0160241
0.0158446
0.0156338
0.0155533
0.0169688
0.00937459
0.00853975
0.00814004
0.00776332
0.0072808
0.00660977
0.00550915
0.00323944
6.21702e-05
0.000515264
0.000944789
0.000449869
0.00129898
0.00530063
0.0093633
0.010974
0.0109716
0.0101947
0.00901944
0.00836095
0.00861986
0.00938063
0.0101878
0.0109176
0.0116451
0.0124734
0.0134147
0.0143396
0.0150806
0.0155582
0.0158003
0.0159105
0.0160469
0.0165729
0.0193521
0.00945666
0.00856052
0.0081812
0.00783535
0.00736689
0.00670355
0.00587363
0.00468838
0.00215985
0.000744911
0.000699375
0.00147197
0.00128694
0.00146976
0.00389497
0.00782499
0.0107126
0.0115216
0.0111945
0.0104583
0.00980361
0.00962372
0.0100295
0.0108077
0.0116606
0.0124805
0.0133019
0.0141322
0.0148875
0.015478
0.0159041
0.0162396
0.0166069
0.0172759
0.018961
0.00938895
0.00851308
0.00818344
0.00789024
0.00747527
0.00681015
0.00588056
0.00487487
0.00360875
0.00059464
0.000310219
0.000160739
0.00140899
0.00164158
0.00178635
0.00324362
0.00643057
0.00983214
0.0118206
0.0122271
0.0118705
0.0112797
0.0108624
0.0109991
0.0117503
0.0128094