/*--------------------------------*- C++ -*----------------------------------*\
| =========                 |                                                 |
| \\      /  F ield         | OpenFOAM: The Open Source CFD Toolbox           |
|  \\    /   O peration     | Version:  v2006                                 |
|   \\  /    A nd           | Website:  www.openfoam.com                      |
|    \\/     M anipulation  |                                                 |
\*---------------------------------------------------------------------------*/
FoamFile
{
    version     2.0;
    format      ascii;
    class       surfaceScalarField;
    location    "22";
    object      phi;
}
// * * * * * * * * * * * * * * * * * * * * * * * * * * * * * * * * * * * * * //

dimensions      [1 0 -1 0 0 0 0];
oriented        oriented;


internalField   nonuniform List<scalar> 
228225
(
-0.000239863
-2.10773e-05
-4.40497e-06
-0.000218689
-1.79571e-05
-3.34219e-06
-0.000198371
-1.73354e-05
-3.11187e-06
-0.00017935
-1.58918e-05
-3.25281e-06
-0.000162737
-1.31534e-05
-3.57875e-06
-0.000147702
-1.11366e-05
-4.01664e-06
-0.000134424
-8.91693e-06
-4.47459e-06
-0.000122158
-7.46811e-06
-4.91005e-06
-0.000110831
-6.11277e-06
-5.3257e-06
-0.000100103
-5.13629e-06
-5.70006e-06
-8.99052e-05
-4.26381e-06
-6.04377e-06
-8.01278e-05
-3.55063e-06
-6.33591e-06
-7.0753e-05
-2.9034e-06
-6.58077e-06
-6.17964e-05
-2.30251e-06
-6.764e-06
-5.32557e-05
-1.75222e-06
-6.89927e-06
-4.51425e-05
-1.23147e-06
-6.99318e-06
-3.74651e-05
-7.38113e-07
-7.05163e-06
-3.0251e-05
-2.48826e-07
-7.07805e-06
-2.34636e-05
1.74602e-07
-7.07577e-06
-1.70501e-05
5.20726e-07
-7.04825e-06
-1.10502e-05
8.83263e-07
-6.99698e-06
-5.49335e-06
1.25402e-06
-6.92383e-06
-4.07119e-07
1.63309e-06
-6.83079e-06
4.1798e-06
2.02275e-06
-6.71888e-06
8.23499e-06
2.42817e-06
-6.58941e-06
1.17238e-05
2.85313e-06
-6.44395e-06
1.46048e-05
3.30156e-06
-6.2793e-06
1.68356e-05
3.7771e-06
-6.09805e-06
1.83664e-05
4.28566e-06
-5.89856e-06
1.91526e-05
4.82085e-06
-5.67965e-06
1.91436e-05
5.38153e-06
-5.43385e-06
1.82665e-05
5.97359e-06
-5.1482e-06
1.62189e-05
6.75512e-06
-4.75152e-06
1.17195e-05
8.77656e-06
-4.35686e-06
1.3646e-05
-1.98708e-06
-1.4694e-05
-9.71698e-06
3.19919e-06
-2.90803e-05
-6.54066e-06
2.89018e-06
-4.15347e-05
-6.65253e-06
1.54874e-06
-5.21095e-05
-5.84802e-06
2.9894e-07
-6.02636e-05
-4.48041e-06
-7.79004e-07
-6.63627e-05
-3.29979e-06
-2e-06
-6.99075e-05
-2.17812e-06
-3.46423e-06
-7.13135e-05
-1.31846e-06
-5.02301e-06
-7.06596e-05
-5.39299e-07
-6.51622e-06
-6.84913e-05
1.21151e-07
-7.72545e-06
-6.54825e-05
9.79816e-07
-8.55983e-06
-6.18972e-05
1.61095e-06
-9.05595e-06
-5.79062e-05
2.10568e-06
-9.30617e-06
-5.3614e-05
2.50866e-06
-9.40363e-06
-4.91035e-05
2.85608e-06
-9.41186e-06
-4.44293e-05
3.17332e-06
-9.36429e-06
-3.96381e-05
3.47932e-06
-9.28628e-06
-3.47508e-05
3.78853e-06
-9.19523e-06
-2.98513e-05
4.10919e-06
-9.09832e-06
-2.5038e-05
4.44705e-06
-8.9979e-06
-2.03167e-05
4.80282e-06
-8.89322e-06
-1.57054e-05
5.17899e-06
-8.78289e-06
-1.12278e-05
5.57902e-06
-8.66426e-06
-6.91482e-06
6.00786e-06
-8.53279e-06
-2.8036e-06
6.47126e-06
-8.38229e-06
1.05875e-06
6.97547e-06
-8.20512e-06
4.61285e-06
7.52764e-06
-7.99162e-06
7.78644e-06
8.13662e-06
-7.73378e-06
1.04857e-05
8.81422e-06
-7.41573e-06
1.25682e-05
9.57573e-06
-7.00981e-06
1.3839e-05
1.04434e-05
-6.48656e-06
1.40276e-05
1.1482e-05
-5.83145e-06
1.25849e-05
1.30638e-05
-4.98913e-06
7.26545e-06
1.7631e-05
-3.68608e-06
2.20024e-05
-1.20878e-06
-9.44201e-06
-2.35972e-07
-5.55446e-08
-1.40338e-05
-1.89905e-06
-1.01727e-07
-1.88845e-05
-2.24356e-06
3.86582e-07
-2.36128e-05
-1.93465e-06
7.51255e-07
-2.78118e-05
-1.12131e-06
7.51414e-07
-3.19836e-05
2.65524e-07
4.89188e-07
-3.5951e-05
1.58498e-06
6.46948e-08
-4.00511e-05
3.06772e-06
-4.4338e-07
-4.40571e-05
4.4074e-06
-1.1125e-06
-4.74428e-05
5.21867e-06
-1.89228e-06
-4.93276e-05
5.40832e-06
-2.72708e-06
-4.9485e-05
5.15392e-06
-3.56748e-06
-4.8042e-05
4.84166e-06
-4.35959e-06
-4.55517e-05
4.8703e-06
-5.03363e-06
-4.25459e-05
5.21219e-06
-5.54676e-06
-3.93221e-05
5.64526e-06
-5.88382e-06
-3.60181e-05
6.04943e-06
-6.0641e-06
-3.27041e-05
6.41063e-06
-6.12649e-06
-2.94154e-05
6.74683e-06
-6.11581e-06
-2.61587e-05
7.07637e-06
-6.07403e-06
-2.29213e-05
7.41298e-06
-6.03426e-06
-1.96873e-05
7.76829e-06
-6.00913e-06
-1.64473e-05
8.15236e-06
-5.99871e-06
-1.31967e-05
8.57458e-06
-6.00262e-06
-9.937e-06
9.04549e-06
-6.01954e-06
-6.68104e-06
9.57653e-06
-6.04315e-06
-3.46085e-06
1.01811e-05
-6.0603e-06
-3.31948e-07
1.08767e-05
-6.05577e-06
2.6225e-06
1.16878e-05
-6.01425e-06
5.27478e-06
1.26497e-05
-5.91068e-06
7.4116e-06
1.3833e-05
-5.70728e-06
8.61388e-06
1.54523e-05
-5.34702e-06
7.91971e-06
1.82987e-05
-4.70181e-06
4.28529e-06
2.45039e-05
-3.37866e-06
2.71573e-05
-9.75522e-07
1.01446e-06
-4.40181e-06
3.0274e-06
2.38114e-06
-7.11224e-06
3.71887e-06
4.60434e-06
-8.0004e-06
3.40132e-06
7.26138e-06
-7.75103e-06
3.00929e-06
9.69189e-06
-6.49633e-06
2.78015e-06
1.16834e-05
-4.57948e-06
2.69583e-06
1.2682e-05
-2.28337e-06
2.73058e-06
1.28159e-05
3.04444e-08
2.78339e-06
1.19117e-05
2.53664e-06
2.6748e-06
1.07196e-05
3.97069e-06
2.35267e-06
8.87728e-06
5.29091e-06
1.87953e-06
4.80435e-06
7.8345e-06
1.31694e-06
-1.06299e-06
9.92e-06
7.10204e-07
-6.83357e-06
1.05655e-05
-1.59776e-08
-1.15822e-05
1.05288e-05
-6.75736e-07
-1.49391e-05
1.02802e-05
-1.39828e-06
-1.69775e-05
1.00188e-05
-2.05828e-06
-1.79222e-05
9.83225e-06
-2.6081e-06
-1.80024e-05
9.73542e-06
-3.04251e-06
-1.74131e-05
9.72019e-06
-3.36963e-06
-1.63123e-05
9.78042e-06
-3.60677e-06
-1.4825e-05
9.91596e-06
-3.77544e-06
-1.30483e-05
1.01299e-05
-3.89623e-06
-1.10592e-05
1.04267e-05
-3.98495e-06
-8.91927e-06
1.08129e-05
-4.0528e-06
-6.67979e-06
1.1298e-05
-4.10834e-06
-4.38709e-06
1.18965e-05
-4.15759e-06
-2.09105e-06
1.26297e-05
-4.20077e-06
1.52685e-07
1.35296e-05
-4.23901e-06
2.26884e-06
1.46463e-05
-4.26683e-06
4.10924e-06
1.60895e-05
-4.24851e-06
5.31489e-06
1.8214e-05
-4.10982e-06
4.93005e-06
2.22461e-05
-3.68421e-06
2.22123e-06
2.96725e-05
-2.56181e-06
2.99138e-05
-6.29403e-07
4.26424e-06
-9.29566e-06
5.98599e-07
1.05437e-05
-1.37708e-05
3.45288e-07
1.68777e-05
-1.47836e-05
4.26684e-07
2.30593e-05
-1.44388e-05
4.96509e-07
2.90798e-05
-1.30898e-05
5.72646e-07
3.46219e-05
-1.08424e-05
7.20808e-07
3.87949e-05
-7.45593e-06
9.89389e-07
3.98452e-05
-2.44612e-06
1.39945e-06
3.72605e-05
3.1804e-06
1.91167e-06
3.26108e-05
6.08913e-06
2.5029e-06
2.67314e-05
8.05589e-06
3.03451e-06
1.97571e-05
1.16867e-05
2.97142e-06
1.25405e-05
1.47375e-05
2.26209e-06
5.8902e-06
1.56628e-05
1.44879e-06
3.46183e-07
1.52793e-05
7.03248e-07
-3.84943e-06
1.44118e-05
-2.40214e-08
-6.82892e-06
1.35085e-05
-6.00629e-07
-8.68533e-06
1.27518e-05
-1.15672e-06
-9.58621e-06
1.21881e-05
-1.64785e-06
-9.71128e-06
1.18074e-05
-2.06023e-06
-9.22586e-06
1.15869e-05
-2.39183e-06
-8.26981e-06
1.15074e-05
-2.64932e-06
-6.95874e-06
1.15572e-05
-2.8423e-06
-5.38913e-06
1.17314e-05
-2.98051e-06
-3.6434e-06
1.20315e-05
-3.07315e-06
-1.79548e-06
1.24662e-05
-3.12777e-06
8.31118e-08
1.30528e-05
-3.14973e-06
1.91673e-06
1.38206e-05
-3.14268e-06
3.62259e-06
1.48166e-05
-3.11444e-06
5.10419e-06
1.61221e-05
-3.08195e-06
6.2018e-06
1.79179e-05
-3.05162e-06
6.55375e-06
2.0732e-05
-2.99058e-06
5.38177e-06
2.60837e-05
-2.76727e-06
2.56046e-06
3.4377e-05
-1.97017e-06
3.27977e-05
-4.15828e-07
5.33876e-06
-1.53626e-05
7.69299e-07
7.82044e-06
-1.74741e-05
1.27347e-06
7.91774e-06
-1.60823e-05
1.25015e-06
5.8401e-06
-1.33119e-05
1.0063e-06
2.08642e-06
-1.00799e-05
8.07357e-07
-2.52238e-06
-6.91558e-06
7.35637e-07
-7.65486e-06
-3.19841e-06
8.77197e-07
-1.35749e-05
2.15895e-06
1.21961e-06
-2.00633e-05
8.16411e-06
1.36513e-06
-2.67684e-05
1.15009e-05
1.18953e-06
-3.22811e-05
1.23687e-05
1.09933e-06
-3.44948e-05
1.2789e-05
1.0116e-06
-3.35675e-05
1.28679e-05
8.46363e-07
-3.11906e-05
1.25842e-05
6.10919e-07
-2.84175e-05
1.20997e-05
3.18355e-07
-2.57153e-05
1.16517e-05
-2.95653e-08
-2.3368e-05
1.14317e-05
-3.58281e-07
-2.14268e-05
1.1441e-05
-7.17928e-07
-1.97668e-05
1.15197e-05
-1.07889e-06
-1.82078e-05
1.15851e-05
-1.42323e-06
-1.66208e-05
1.16522e-05
-1.73845e-06
-1.49331e-05
1.17497e-05
-2.01597e-06
-1.311e-05
1.18987e-05
-2.25082e-06
-1.11448e-05
1.21204e-05
-2.44131e-06
-9.05419e-06
1.24403e-05
-2.58788e-06
-6.87334e-06
1.28869e-05
-2.69182e-06
-4.65136e-06
1.34928e-05
-2.75448e-06
-2.45093e-06
1.43008e-05
-2.77589e-06
-3.54429e-07
1.53763e-05
-2.75434e-06
1.51776e-06
1.68368e-05
-2.68773e-06
2.96607e-06
1.89494e-05
-2.58149e-06
3.58587e-06
2.2452e-05
-2.43461e-06
2.6594e-06
2.91102e-05
-2.17033e-06
1.0286e-06
3.74571e-05
-1.50623e-06
3.40309e-05
-2.85549e-07
-5.28485e-06
-1.08171e-05
6.73828e-07
-1.0425e-05
-1.32308e-05
8.65353e-07
-1.50293e-05
-1.25421e-05
1.05838e-06
-1.88551e-05
-1.05026e-05
1.01809e-06
-2.1778e-05
-8.09614e-06
9.17075e-07
-2.36518e-05
-5.92544e-06
8.40574e-07
-2.39254e-05
-3.81793e-06
8.4505e-07
-2.14911e-05
-1.29083e-06
9.55922e-07
-1.65696e-05
2.05542e-06
1.10287e-06
-1.1735e-05
5.44905e-06
1.12952e-06
-8.18096e-06
7.64821e-06
1.08286e-06
-5.66102e-06
9.19117e-06
9.97579e-07
-4.12849e-06
1.03977e-05
8.59398e-07
-3.91257e-06
1.16072e-05
6.836e-07
-5.09792e-06
1.27278e-05
4.80892e-07
-6.9703e-06
1.31969e-05
2.53001e-07
-8.72963e-06
1.31304e-05
-1.19181e-08
-9.89531e-06
1.27662e-05
-2.32855e-07
-1.02576e-05
1.23004e-05
-4.92975e-07
-9.93973e-06
1.19658e-05
-7.73708e-07
-9.13836e-06
1.18344e-05
-1.05872e-06
-8.01377e-06
1.18848e-05
-1.33476e-06
-6.69606e-06
1.20973e-05
-1.59161e-06
-5.27874e-06
1.24484e-05
-1.8211e-06
-3.80611e-06
1.29089e-05
-2.01763e-06
-2.29025e-06
1.34716e-05
-2.17783e-06
-7.3966e-07
1.41634e-05
-2.29965e-06
8.22269e-07
1.50395e-05
-2.38046e-06
2.34289e-06
1.61892e-05
-2.41489e-06
3.7144e-06
1.77768e-05
-2.39371e-06
4.71232e-06
2.01721e-05
-2.30085e-06
4.87253e-06
2.43381e-05
-2.11565e-06
3.50702e-06
3.22134e-05
-1.78068e-06
1.52368e-06
4.05591e-05
-1.16431e-06
3.56649e-05
-1.96055e-07
6.76127e-07
-1.22545e-05
8.15885e-07
1.97137e-06
-1.59949e-05
1.47947e-06
3.74254e-06
-1.60774e-05
1.75257e-06
6.2128e-06
-1.46181e-05
1.63201e-06
8.64489e-06
-1.18176e-05
1.27726e-06
1.0355e-05
-8.49841e-06
8.45494e-07
1.16578e-05
-5.5965e-06
4.51076e-07
1.3442e-05
-3.3027e-06
1.96833e-07
1.65041e-05
-1.1983e-06
1.53766e-07
2.05347e-05
1.05422e-06
3.15102e-07
2.40621e-05
3.45249e-06
6.08717e-07
2.63459e-05
5.85732e-06
9.81318e-07
2.68726e-05
8.41921e-06
1.37506e-06
2.53389e-05
1.13517e-05
1.70669e-06
2.18819e-05
1.42557e-05
1.84413e-06
1.72119e-05
1.60491e-05
1.73373e-06
1.23173e-05
1.65086e-05
1.43475e-06
7.99045e-06
1.60061e-05
1.00782e-06
4.50954e-06
1.51644e-05
5.40072e-07
1.89234e-06
1.44119e-05
9.66161e-08
2.34993e-08
1.38877e-05
-2.56417e-07
-1.16954e-06
1.35896e-05
-5.80912e-07
-1.75446e-06
1.35053e-05
-8.89684e-07
-1.83636e-06
1.36407e-05
-1.17557e-06
-1.53137e-06
1.39661e-05
-1.42772e-06
-9.309e-07
1.44508e-05
-1.64693e-06
-1.06052e-07
1.51032e-05
-1.83451e-06
8.74585e-07
1.5973e-05
-1.98719e-06
1.93044e-06
1.71544e-05
-2.09781e-06
2.94191e-06
1.88406e-05
-2.15628e-06
3.66927e-06
2.14979e-05
-2.13812e-06
3.5911e-06
2.63182e-05
-1.98743e-06
2.20486e-06
3.51425e-05
-1.61525e-06
8.8882e-07
4.27947e-05
-9.79555e-07
3.6639e-05
-1.62235e-07
5.57701e-06
-1.80361e-05
3.201e-07
9.43173e-06
-2.05137e-05
7.26641e-07
1.19177e-05
-1.94449e-05
9.35597e-07
1.27116e-05
-1.62315e-05
8.87766e-07
1.20479e-05
-1.16711e-05
5.79225e-07
1.07418e-05
-7.2702e-06
1.15573e-07
9.37935e-06
-3.92276e-06
-2.99283e-07
8.43535e-06
-1.7022e-06
-6.61579e-07
8.23817e-06
-7.21882e-08
-9.43495e-07
9.00309e-06
1.36317e-06
-1.0947e-06
1.0712e-05
2.80681e-06
-1.08886e-06
1.30939e-05
4.36771e-06
-9.23039e-07
1.59415e-05
6.13936e-06
-6.04481e-07
1.92277e-05
8.19379e-06
-1.72562e-07
2.2646e-05
1.04498e-05
3.34019e-07
2.53462e-05
1.2528e-05
7.57628e-07
2.67181e-05
1.40578e-05
1.01067e-06
2.65076e-05
1.50459e-05
1.10207e-06
2.47297e-05
1.58008e-05
1.07281e-06
2.17179e-05
1.64199e-05
9.35672e-07
1.80672e-05
1.67763e-05
6.96893e-07
1.43674e-05
1.68593e-05
3.69248e-07
1.10786e-05
1.67653e-05
-2.82457e-08
8.40502e-06
1.66164e-05
-3.57576e-07
6.44909e-06
1.6544e-05
-6.77378e-07
5.15338e-06
1.66535e-05
-9.63422e-07
4.40559e-06
1.70087e-05
-1.21558e-06
4.0898e-06
1.76644e-05
-1.4353e-06
4.08851e-06
1.87137e-05
-1.61965e-06
4.26438e-06
2.03654e-05
-1.76275e-06
4.39161e-06
2.31561e-05
-1.84278e-06
3.97196e-06
2.8481e-05
-1.7814e-06
2.45175e-06
3.80949e-05
-1.44133e-06
1.10047e-06
4.49496e-05
-8.33738e-07
3.77953e-05
-1.3823e-07
2.13838e-06
-2.13368e-05
1.21696e-06
2.14108e-06
-2.28295e-05
2.34058e-06
7.2667e-07
-2.04538e-05
2.47519e-06
-2.83887e-06
-1.43911e-05
1.81829e-06
-6.51504e-06
-8.86749e-06
9.44551e-07
-7.98013e-06
-6.02418e-06
2.51279e-07
-7.55071e-06
-4.13951e-06
-2.11588e-07
-6.07045e-06
-2.63965e-06
-5.61058e-07
-4.00661e-06
-1.27974e-06
-8.8559e-07
-1.59262e-06
8.92633e-08
-1.17585e-06
1.09317e-06
1.47673e-06
-1.39522e-06
3.93921e-06
2.99354e-06
-1.514e-06
6.93961e-06
4.61289e-06
-1.51853e-06
1.01594e-05
6.3335e-06
-1.40709e-06
1.35981e-05
8.15124e-06
-1.19169e-06
1.69613e-05
1.00174e-05
-9.08311e-07
1.97077e-05
1.18629e-05
-6.08101e-07
2.13585e-05
1.36646e-05
-3.21467e-07
2.17716e-05
1.54054e-05
-5.93878e-08
2.10598e-05
1.69002e-05
1.99814e-07
1.95731e-05
1.79012e-05
3.32112e-07
1.76155e-05
1.84675e-05
3.16158e-07
1.54224e-05
1.87425e-05
1.77885e-07
1.32348e-05
1.88139e-05
-5.26662e-08
1.12209e-05
1.88035e-05
-2.92525e-07
9.50756e-06
1.88671e-05
-5.50184e-07
8.13188e-06
1.91287e-05
-7.96706e-07
7.08166e-06
1.96839e-05
-1.02393e-06
6.30918e-06
2.06572e-05
-1.22838e-06
5.71675e-06
2.23044e-05
-1.40766e-06
5.09537e-06
2.52634e-05
-1.55047e-06
4.01431e-06
3.10881e-05
-1.5865e-06
2.30832e-06
4.11015e-05
-1.33553e-06
1.13719e-06
4.6869e-05
-7.8109e-07
3.90132e-05
-1.46779e-07
-7.54407e-07
-2.20797e-05
1.3952e-06
-2.86303e-06
-2.33588e-05
2.61957e-06
-5.58151e-06
-2.0417e-05
2.70211e-06
-8.57283e-06
-1.30908e-05
1.69146e-06
-1.17082e-05
-6.25746e-06
4.70191e-07
-1.42457e-05
-3.41705e-06
-1.30739e-07
-1.5625e-05
-2.32671e-06
-4.86194e-07
-1.59143e-05
-1.61018e-06
-7.87237e-07
-1.53147e-05
-8.7411e-07
-1.04903e-06
-1.39968e-05
7.45845e-09
-1.2776e-06
-1.21273e-05
1.03499e-06
-1.46814e-06
-9.84133e-06
2.27387e-06
-1.60676e-06
-7.26135e-06
3.67261e-06
-1.68129e-06
-4.48713e-06
5.19908e-06
-1.68339e-06
-1.62691e-06
6.85317e-06
-1.6081e-06
1.13416e-06
8.66215e-06
-1.45317e-06
3.50548e-06
1.06662e-05
-1.2205e-06
5.18575e-06
1.28667e-05
-9.21932e-07
6.09272e-06
1.50673e-05
-5.99396e-07
6.49525e-06
1.68104e-05
-3.38576e-07
6.67243e-06
1.78885e-05
-1.92038e-07
6.71065e-06
1.8539e-05
-1.41202e-07
6.60921e-06
1.8973e-05
-1.646e-07
6.35339e-06
1.92843e-05
-2.54005e-07
5.96455e-06
1.95453e-05
-3.95851e-07
5.5048e-06
1.98486e-05
-5.67311e-07
5.04102e-06
2.02935e-05
-7.48408e-07
4.61953e-06
2.09846e-05
-9.28097e-07
4.25635e-06
2.20701e-05
-1.09994e-06
3.92501e-06
2.3847e-05
-1.26197e-06
3.48659e-06
2.70571e-05
-1.40277e-06
2.53728e-06
3.34493e-05
-1.449e-06
1.06887e-06
4.37711e-05
-1.227e-06
5.58385e-07
4.80731e-05
-7.33838e-07
3.96684e-05
-1.71204e-07
1.46761e-07
-2.42307e-05
2.12144e-06
-1.70943e-06
-2.5288e-05
3.91351e-06
-4.61257e-06
-2.16095e-05
4.21737e-06
-7.39977e-06
-1.40285e-05
3.81444e-06
-9.39314e-06
-7.07343e-06
2.84355e-06
-1.08659e-05
-3.74433e-06
1.79611e-06
-1.17059e-05
-2.56448e-06
1.05834e-06
-1.19726e-05
-1.84988e-06
4.82706e-07
-1.17071e-05
-1.14321e-06
-2.07665e-08
-1.09764e-05
-3.37421e-07
-4.09615e-07
-9.90355e-06
7.01263e-07
-7.62313e-07
-8.52098e-06
1.92576e-06
-1.05751e-06
-6.90427e-06
3.32152e-06
-1.28937e-06
-5.15173e-06
4.87383e-06
-1.4527e-06
-3.35904e-06
6.57415e-06
-1.54138e-06
-1.62779e-06
8.44673e-06
-1.54561e-06
-6.36947e-08
1.05213e-05
-1.44919e-06
1.26871e-06
1.27467e-05
-1.23894e-06
2.40017e-06
1.48653e-05
-9.49871e-07
3.40635e-06
1.64826e-05
-6.95766e-07
4.29725e-06
1.75264e-05
-5.47738e-07
5.05118e-06
1.82429e-05
-4.79674e-07
5.64819e-06
1.88151e-05
-4.63976e-07
6.07019e-06
1.93265e-05
-4.92228e-07
6.31253e-06
1.98313e-05
-5.59828e-07
6.39369e-06
2.03901e-05
-6.57685e-07
6.3439e-06
2.10789e-05
-7.74192e-07
6.18615e-06
2.19997e-05
-8.99215e-07
5.91911e-06
2.33188e-05
-1.02679e-06
5.48965e-06
2.5385e-05
-1.15652e-06
4.72234e-06
2.90573e-05
-1.2801e-06
3.31169e-06
3.61622e-05
-1.33361e-06
1.6978e-06
4.65215e-05
-1.14146e-06
1.00923e-06
4.94523e-05
-7.1468e-07
4.08067e-05
-1.93235e-07
-1.04609e-06
-2.56966e-05
2.59965e-06
-5.29056e-06
-2.48574e-05
4.08511e-06
-1.1155e-05
-1.96262e-05
4.14853e-06
-1.61268e-05
-1.26535e-05
3.73967e-06
-1.82483e-05
-8.14521e-06
3.22458e-06
-1.87692e-05
-5.86606e-06
2.62816e-06
-1.88921e-05
-4.62418e-06
2.15938e-06
-1.88318e-05
-3.63493e-06
1.69613e-06
-1.85458e-05
-2.67628e-06
1.216e-06
-1.80541e-05
-1.59806e-06
7.38218e-07
-1.73974e-05
-2.67619e-07
2.81945e-07
-1.64869e-05
1.09496e-06
-1.08634e-07
-1.54806e-05
2.70981e-06
-4.19995e-07
-1.44519e-05
4.49485e-06
-6.70453e-07
-1.34311e-05
6.38138e-06
-8.44677e-07
-1.23879e-05
8.32528e-06
-9.3549e-07
-1.12228e-05
1.02855e-05
-9.40764e-07
-9.79185e-06
1.21796e-05
-8.73549e-07
-8.02693e-06
1.3865e-05
-7.73654e-07
-6.08601e-06
1.52225e-05
-6.91184e-07
-4.203e-06
1.6276e-05
-6.45289e-07
-2.48398e-06
1.71377e-05
-6.28892e-07
-9.54447e-07
1.79039e-05
-6.36087e-07
3.77195e-07
1.86394e-05
-6.65386e-07
1.50425e-06
1.93953e-05
-7.15547e-07
2.42409e-06
2.02246e-05
-7.83338e-07
3.13808e-06
2.11942e-05
-8.63221e-07
3.64729e-06
2.24009e-05
-9.49725e-07
3.94346e-06
2.40175e-05
-1.03989e-06
3.97605e-06
2.64339e-05
-1.132e-06
3.55497e-06
3.06403e-05
-1.21644e-06
2.31167e-06
3.85864e-05
-1.23741e-06
1.01333e-06
4.8818e-05
-1.0489e-06
6.61744e-07
5.04298e-05
-6.76716e-07
4.16117e-05
-2.04971e-07
-8.69108e-06
-2.14824e-05
4.4508e-06
-1.60788e-05
-2.33368e-05
5.77049e-06
-1.97858e-05
-2.14984e-05
5.38761e-06
-1.82724e-05
-1.90944e-05
4.77629e-06
-1.37971e-05
-1.71705e-05
4.49439e-06
-9.28708e-06
-1.46332e-05
4.24229e-06
-6.34487e-06
-1.15084e-05
3.94453e-06
-5.26877e-06
-8.29753e-06
3.5901e-06
-5.59499e-06
-5.53458e-06
3.18005e-06
-6.55446e-06
-3.37886e-06
2.72535e-06
-7.49109e-06
-1.60034e-06
2.24606e-06
-8.37618e-06
1.83181e-07
1.7696e-06
-8.81333e-06
1.79764e-06
1.32359e-06
-8.95647e-06
3.68917e-06
9.28686e-07
-8.85329e-06
5.66699e-06
5.98101e-07
-8.48497e-06
7.6147e-06
3.35181e-07
-7.79349e-06
9.45899e-06
1.31685e-07
-6.7459e-06
1.11447e-05
-1.4893e-08
-5.42086e-06
1.26285e-05
-9.19672e-08
-3.93725e-06
1.39016e-05
-1.68346e-07
-2.4264e-06
1.50016e-05
-2.44638e-07
-9.68474e-07
1.59903e-05
-3.21378e-07
3.94138e-07
1.6927e-05
-3.99355e-07
1.63464e-06
1.78624e-05
-4.80288e-07
2.73322e-06
1.88417e-05
-5.65604e-07
3.6727e-06
1.99156e-05
-6.55676e-07
4.43444e-06
2.11513e-05
-7.49829e-07
4.98832e-06
2.26545e-05
-8.46604e-07
5.26918e-06
2.463e-05
-9.44382e-07
5.12698e-06
2.75474e-05
-1.04081e-06
4.27991e-06
3.25153e-05
-1.1232e-06
2.62709e-06
4.12567e-05
-1.12871e-06
1.35518e-06
5.09414e-05
-9.41595e-07
7.5272e-07
5.15844e-05
-6.23959e-07
4.24866e-05
-1.87775e-07
-8.22595e-06
-1.86389e-05
4.92567e-06
-9.42742e-06
-2.8935e-05
6.30099e-06
-5.20597e-06
-3.27408e-05
6.48532e-06
2.64011e-06
-3.38956e-05
6.4136e-06
1.18535e-05
-3.30274e-05
6.194e-06
2.12436e-05
-3.0262e-05
5.91058e-06
2.93707e-05
-2.53926e-05
5.55443e-06
3.47981e-05
-1.89335e-05
5.13082e-06
3.67909e-05
-1.21803e-05
4.67426e-06
3.53877e-05
-6.11306e-06
4.2095e-06
3.13078e-05
-1.19202e-06
3.74902e-06
2.59896e-05
2.25192e-06
3.30675e-06
2.05307e-05
4.40136e-06
2.88676e-06
1.59712e-05
5.7754e-06
2.48517e-06
1.25039e-05
7.03268e-06
2.10269e-06
9.94636e-06
8.42224e-06
1.74678e-06
8.11027e-06
9.86549e-06
1.4247e-06
6.87416e-06
1.1236e-05
1.13867e-06
6.13121e-06
1.24784e-05
8.85552e-07
5.76372e-06
1.35999e-05
6.59733e-07
5.66064e-06
1.46373e-05
4.55835e-07
5.73533e-06
1.56333e-05
2.68505e-07
5.93173e-06
1.66275e-05
8.69226e-08
6.1767e-06
1.76573e-05
-5.88539e-08
6.41629e-06
1.87624e-05
-1.82513e-07
6.62039e-06
1.99938e-05
-3.08178e-07
6.75133e-06
2.14226e-05
-4.32718e-07
6.76656e-06
2.3159e-05
-5.56059e-07
6.6111e-06
2.54191e-05
-6.78866e-07
6.17942e-06
2.872e-05
-8.01302e-07
5.20626e-06
3.43135e-05
-9.12358e-07
3.43359e-06
4.38615e-05
-9.49911e-07
2.03227e-06
5.30451e-05
-8.05474e-07
1.02485e-06
5.30547e-05
-5.44412e-07
4.35893e-05
-1.47499e-07
1.02715e-06
-2.45276e-05
4.59843e-06
6.8361e-06
-4.11156e-05
6.21881e-06
1.42865e-05
-4.66518e-05
6.43172e-06
2.21997e-05
-4.82004e-05
6.39968e-06
3.02963e-05
-4.74727e-05
6.33094e-06
3.82593e-05
-4.4532e-05
6.23534e-06
4.56233e-05
-3.89446e-05
6.06944e-06
5.19955e-05
-3.12737e-05
5.82295e-06
5.69758e-05
-2.28618e-05
5.55121e-06
6.00504e-05
-1.45682e-05
5.27312e-06
6.08755e-05
-6.96336e-06
4.94085e-06
5.94264e-05
-6.96461e-07
4.50572e-06
5.47742e-05
5.21801e-06
3.98533e-06
4.81217e-05
9.06382e-06
3.48801e-06
4.12001e-05
1.09553e-05
3.08034e-06
3.50888e-05
1.18304e-05
2.74422e-06
3.00182e-05
1.25088e-05
2.43784e-06
2.59004e-05
1.32077e-05
2.13812e-06
2.25822e-05
1.39379e-05
1.84188e-06
1.99147e-05
1.46929e-05
1.55421e-06
1.77695e-05
1.54804e-05
1.28024e-06
1.60386e-05
1.63193e-05
1.02158e-06
1.46307e-05
1.72316e-05
7.78397e-07
1.34694e-05
1.82398e-05
5.50745e-07
1.24953e-05
1.93699e-05
3.35116e-07
1.16712e-05
2.06611e-05
1.20962e-07
1.09368e-05
2.21833e-05
-6.77759e-08
1.0206e-05
2.40654e-05
-2.26099e-07
9.36726e-06
2.65789e-05
-3.87847e-07
8.19561e-06
3.0339e-05
-5.47702e-07
6.38841e-06
3.66511e-05
-6.93505e-07
4.10068e-06
4.66919e-05
-7.60979e-07
2.45093e-06
5.51914e-05
-6.58228e-07
1.09274e-06
5.47412e-05
-4.48385e-07
4.46777e-05
-9.43762e-08
9.0236e-06
-3.68869e-05
3.58061e-06
1.62726e-05
-5.25375e-05
4.45649e-06
2.17646e-05
-5.62368e-05
4.37064e-06
2.60832e-05
-5.63932e-05
4.16319e-06
2.94641e-05
-5.44781e-05
3.94405e-06
3.17214e-05
-5.01328e-05
3.71102e-06
3.27685e-05
-4.30071e-05
3.44016e-06
3.35136e-05
-3.47706e-05
3.18655e-06
3.51218e-05
-2.71884e-05
3.07377e-06
3.81096e-05
-2.04773e-05
3.14815e-06
4.2039e-05
-1.41579e-05
3.37208e-06
4.54506e-05
-7.74358e-06
3.66454e-06
4.7689e-05
-8.92716e-07
3.88913e-06
4.69514e-05
6.03002e-06
3.83023e-06
4.34394e-05
1.10509e-05
3.49303e-06
3.86701e-05
1.3542e-05
3.11903e-06
3.40325e-05
1.43775e-05
2.81031e-06
2.99464e-05
1.47636e-05
2.55351e-06
2.64272e-05
1.51437e-05
2.32056e-06
2.34203e-05
1.56008e-05
2.09257e-06
2.08667e-05
1.6157e-05
1.86064e-06
1.8706e-05
1.68348e-05
1.6226e-06
1.68713e-05
1.76601e-05
1.37984e-06
1.52884e-05
1.86576e-05
1.13568e-06
1.38812e-05
1.98499e-05
8.94317e-07
1.2585e-05
2.12631e-05
6.56921e-07
1.13601e-05
2.29443e-05
4.21491e-07
1.01942e-05
2.50012e-05
1.82269e-07
9.07236e-06
2.77001e-05
-5.27717e-08
7.88168e-06
3.17078e-05
-2.40398e-07
6.36359e-06
3.85138e-05
-4.29589e-07
4.31528e-06
4.91651e-05
-5.51114e-07
2.67813e-06
5.72233e-05
-5.11938e-07
1.23863e-06
5.64375e-05
-3.58068e-07
4.58706e-05
-4.86478e-08
7.51354e-08
-4.06351e-05
3.74487e-06
-2.01903e-06
-5.46017e-05
3.94979e-06
-4.43099e-06
-5.79492e-05
3.76245e-06
-6.28117e-06
-5.86006e-05
3.62839e-06
-7.03191e-06
-5.76912e-05
3.49114e-06
-6.0523e-06
-5.48903e-05
3.27892e-06
-2.8405e-06
-4.95537e-05
2.90556e-06
1.88289e-06
-4.21737e-05
2.44495e-06
6.6688e-06
-3.40913e-05
2.08537e-06
1.07814e-05
-2.64053e-05
1.91128e-06
1.43856e-05
-1.9558e-05
1.94089e-06
1.81128e-05
-1.35175e-05
2.18354e-06
2.24986e-05
-7.78698e-06
2.60873e-06
2.69727e-05
-1.46906e-06
3.09188e-06
3.03015e-05
4.4343e-06
3.34471e-06
3.09984e-05
9.6693e-06
3.21158e-06
2.92724e-05
1.318e-05
2.92985e-06
2.65958e-05
1.47499e-05
2.68193e-06
2.39037e-05
1.53476e-05
2.47279e-06
2.14293e-05
1.57738e-05
2.28071e-06
1.92133e-05
1.62558e-05
2.09278e-06
1.72722e-05
1.68477e-05
1.90161e-06
1.56093e-05
1.75925e-05
1.70228e-06
1.42043e-05
1.85414e-05
1.49154e-06
1.30074e-05
1.97464e-05
1.26874e-06
1.19481e-05
2.12549e-05
1.03225e-06
1.09514e-05
2.31186e-05
7.80541e-07
9.94299e-06
2.54411e-05
5.17047e-07
8.83939e-06
2.84972e-05
2.44367e-07
7.53457e-06
3.29822e-05
-3.5524e-08
5.88543e-06
4.03397e-05
-2.30961e-07
4.03793e-06
5.13303e-05
-3.66935e-07
2.48472e-06
5.90885e-05
-3.59989e-07
1.05536e-06
5.80654e-05
-2.50281e-07
4.68627e-05
1.07828e-09
-1.19338e-05
-3.1852e-05
2.57758e-06
-1.79041e-05
-5.12665e-05
2.04534e-06
-1.99772e-05
-5.8368e-05
2.08848e-06
-2.01671e-05
-6.10312e-05
2.31518e-06
-1.89479e-05
-6.17687e-05
2.5606e-06
-1.58525e-05
-6.11587e-05
2.80663e-06
-9.90707e-06
-5.89891e-05
3.01662e-06
-1.12711e-06
-5.45428e-05
3.08223e-06
8.94229e-06
-4.75528e-05
2.95308e-06
1.82377e-05
-3.87181e-05
2.69737e-06
2.51891e-05
-2.90886e-05
2.39898e-06
2.9236e-05
-1.97648e-05
2.15308e-06
3.13539e-05
-1.19207e-05
2.06823e-06
3.36809e-05
-5.92117e-06
2.23425e-06
3.64778e-05
-8.77463e-07
2.64629e-06
3.86159e-05
4.55591e-06
3.11124e-06
3.87903e-05
9.84728e-06
3.26249e-06
3.64853e-05
1.40487e-05
3.04785e-06
3.26944e-05
1.6381e-05
2.76272e-06
2.88292e-05
1.70929e-05
2.53716e-06
2.54144e-05
1.73014e-05
2.35026e-06
2.24614e-05
1.76005e-05
2.17282e-06
1.9904e-05
1.81255e-05
1.99168e-06
1.76969e-05
1.89102e-05
1.80229e-06
1.58056e-05
1.99984e-05
1.60097e-06
1.41853e-05
2.14518e-05
1.38231e-06
1.27673e-05
2.33479e-05
1.14219e-06
1.14643e-05
2.58072e-05
8.78285e-07
1.01764e-05
2.9115e-05
5.87205e-07
8.75248e-06
3.40213e-05
2.64257e-07
6.94793e-06
4.20664e-05
-5.77073e-08
4.8312e-06
5.35963e-05
-2.2915e-07
3.01382e-06
6.11073e-05
-2.55424e-07
1.38847e-06
5.98112e-05
-1.75299e-07
4.8135e-05
5.18187e-08
-2.20133e-06
-3.12437e-05
1.05853e-06
7.58422e-07
-5.56202e-05
1.06201e-06
5.07066e-06
-6.39833e-05
1.28926e-06
8.88223e-06
-6.61321e-05
1.45882e-06
1.16656e-05
-6.58448e-05
1.59634e-06
1.31559e-05
-6.39235e-05
1.70309e-06
1.34313e-05
-6.05518e-05
1.79637e-06
1.36947e-05
-5.62557e-05
1.91526e-06
1.58749e-05
-5.15173e-05
2.08489e-06
2.07961e-05
-4.58012e-05
2.2704e-06
2.74644e-05
-3.81972e-05
2.38091e-06
3.3507e-05
-2.82828e-05
2.31921e-06
3.68141e-05
-1.74562e-05
2.08598e-06
3.75681e-05
-8.5882e-06
1.84671e-06
3.77206e-05
-2.78623e-06
1.76542e-06
3.8968e-05
1.45197e-06
1.93548e-06
4.05493e-05
6.01348e-06
2.39781e-06
4.0734e-05
1.1117e-05
2.92403e-06
3.86055e-05
1.55551e-05
3.06757e-06
3.47358e-05
1.81649e-05
2.8328e-06
3.03958e-05
1.91047e-05
2.54026e-06
2.64515e-05
1.92291e-05
2.31047e-06
2.31044e-05
1.93363e-05
2.12708e-06
2.03001e-05
1.97445e-05
1.95552e-06
1.79595e-05
2.05452e-05
1.77202e-06
1.60076e-05
2.18098e-05
1.56295e-06
1.43469e-05
2.36427e-05
1.32298e-06
1.28299e-05
2.62081e-05
1.05375e-06
1.12141e-05
2.98661e-05
7.59708e-07
9.11049e-06
3.54743e-05
4.4093e-07
6.20202e-06
4.44692e-05
1.00624e-07
3.3482e-06
5.61099e-05
-1.23989e-07
1.70983e-06
6.26942e-05
-1.81098e-07
5.06158e-07
6.10019e-05
-1.4397e-07
4.8453e-05
3.39381e-08
9.25237e-06
-4.11075e-05
5.18338e-07
1.60452e-05
-6.29815e-05
7.21268e-07
1.94975e-05
-6.80829e-05
7.73971e-07
2.10019e-05
-6.83154e-05
7.43952e-07
2.12105e-05
-6.67074e-05
6.91608e-07
2.0281e-05
-6.35241e-05
5.98073e-07
1.79691e-05
-5.84729e-05
4.2577e-07
1.39848e-05
-5.21185e-05
2.19768e-07
9.53657e-06
-4.67573e-05
1.70499e-07
6.95771e-06
-4.30892e-05
3.67907e-07
7.75457e-06
-3.93508e-05
7.81385e-07
1.18074e-05
-3.33743e-05
1.27655e-06
1.67335e-05
-2.39005e-05
1.56072e-06
1.98998e-05
-1.33084e-05
1.50842e-06
2.11191e-05
-5.40414e-06
1.35043e-06
2.17424e-05
-4.83469e-07
1.28258e-06
2.3031e-05
3.34275e-06
1.37744e-06
2.526e-05
7.20751e-06
1.71522e-06
2.693e-05
1.16998e-05
2.25962e-06
2.64848e-05
1.5969e-05
2.72229e-06
2.41978e-05
1.85983e-05
2.82631e-06
2.11729e-05
1.95807e-05
2.66142e-06
1.81428e-05
1.99037e-05
2.43157e-06
1.54045e-05
2.02286e-05
2.21709e-06
1.30431e-05
2.08486e-05
2.02089e-06
1.10669e-05
2.19281e-05
1.82297e-06
9.46189e-06
2.36139e-05
1.60458e-06
8.20354e-06
2.61e-05
1.35106e-06
7.25109e-06
2.97841e-05
1.04893e-06
6.48292e-06
3.56142e-05
6.89975e-07
5.41863e-06
4.52945e-05
3.0125e-07
3.65805e-06
5.78266e-05
-1.66887e-08
2.18886e-06
6.41869e-05
-1.16637e-07
9.57157e-07
6.22753e-05
-1.36738e-07
4.92933e-05
1.56078e-08
6.69537e-06
-4.80818e-05
8.15528e-07
7.26183e-06
-6.43362e-05
1.43175e-06
4.93096e-06
-6.70037e-05
1.59526e-06
2.1458e-06
-6.69342e-05
1.55689e-06
-3.98965e-07
-6.55988e-05
1.46338e-06
-2.353e-06
-6.30009e-05
1.3326e-06
-3.47668e-06
-5.86564e-05
1.0955e-06
-4.1554e-06
-5.23493e-05
6.69954e-07
-5.34969e-06
-4.59805e-05
2.5507e-07
-7.21513e-06
-4.13804e-05
1.05682e-07
-8.77214e-06
-3.79197e-05
2.00403e-07
-8.36531e-06
-3.41292e-05
5.26435e-07
-5.21792e-06
-2.79198e-05
1.01461e-06
-7.8447e-07
-1.89462e-05
1.24711e-06
3.16889e-06
-1.05287e-05
1.16332e-06
6.20832e-06
-4.58522e-06
1.041e-06
8.60814e-06
-8.56001e-08
1.00678e-06
1.07381e-05
3.95876e-06
1.1035e-06
1.27083e-05
8.34847e-06
1.38334e-06
1.42483e-05
1.26487e-05
1.80081e-06
1.49243e-05
1.57966e-05
2.14581e-06
1.4729e-05
1.74949e-05
2.28935e-06
1.40012e-05
1.83542e-05
2.27658e-06
1.30534e-05
1.89906e-05
2.17865e-06
1.20502e-05
1.97997e-05
2.03675e-06
1.10455e-05
2.10389e-05
1.86753e-06
1.00206e-05
2.29222e-05
1.67385e-06
8.90255e-06
2.56939e-05
1.45673e-06
7.57392e-06
2.97955e-05
1.21597e-06
5.91984e-06
3.62006e-05
9.40035e-07
4.1047e-06
4.64217e-05
6.08191e-07
2.50274e-06
5.91312e-05
2.85444e-07
1.30493e-06
6.52223e-05
1.27569e-07
4.0667e-07
6.30401e-05
7.80619e-08
4.94665e-05
1.66238e-07
-1.00213e-06
-4.80631e-05
1.50202e-06
-6.44065e-06
-6.047e-05
1.68888e-06
-1.25026e-05
-6.27835e-05
1.75931e-06
-1.82895e-05
-6.31033e-05
1.81427e-06
-2.34531e-05
-6.24483e-05
1.85108e-06
-2.7559e-05
-6.09446e-05
1.86668e-06
-2.97999e-05
-5.84687e-05
1.81628e-06
-2.93609e-05
-5.4745e-05
1.64141e-06
-2.7079e-05
-4.99689e-05
1.38381e-06
-2.48825e-05
-4.50328e-05
1.21032e-06
-2.36414e-05
-4.04736e-05
1.16351e-06
-2.28859e-05
-3.61781e-05
1.2425e-06
-2.08819e-05
-3.1385e-05
1.50565e-06
-1.6749e-05
-2.48657e-05
1.84603e-06
-1.20535e-05
-1.71099e-05
1.90351e-06
-8.49044e-06
-9.91583e-06
1.75162e-06
-6.44195e-06
-3.78079e-06
1.61508e-06
-5.46463e-06
1.33422e-06
1.61753e-06
-4.35219e-06
5.40904e-06
1.81279e-06
-2.79639e-06
8.9611e-06
2.13532e-06
-1.08013e-06
1.16818e-05
2.40204e-06
2.99473e-07
1.35917e-05
2.51228e-06
1.21756e-06
1.49158e-05
2.49633e-06
1.80803e-06
1.59685e-05
2.40275e-06
2.24678e-06
1.70732e-05
2.26038e-06
2.65443e-06
1.85305e-05
2.07913e-06
3.06034e-06
2.0647e-05
1.85622e-06