/*--------------------------------*- C++ -*----------------------------------*\
| =========                 |                                                 |
| \\      /  F ield         | OpenFOAM: The Open Source CFD Toolbox           |
|  \\    /   O peration     | Version:  v2006                                 |
|   \\  /    A nd           | Website:  www.openfoam.com                      |
|    \\/     M anipulation  |                                                 |
\*---------------------------------------------------------------------------*/
FoamFile
{
    version     2.0;
    format      ascii;
    class       volScalarField;
    location    "22";
    object      T;
}
// * * * * * * * * * * * * * * * * * * * * * * * * * * * * * * * * * * * * * //

dimensions      [0 0 0 1 0 0 0];


internalField   nonuniform List<scalar> 
78750
(
323.787
324.724
324.837
324.547
323.961
323.628
323.452
323.263
323.133
323.01
322.928
322.85
322.797
322.759
322.739
322.738
322.755
322.792
322.847
322.916
323.006
323.116
323.245
323.393
323.558
323.74
323.938
324.149
324.369
324.588
324.816
325.061
325.898
331.572
432.243
319.4
330.991
332.233
329.527
327.314
325.613
323.991
322.639
321.387
320.338
319.515
318.924
318.534
318.291
318.153
318.089
318.08
318.115
318.186
318.288
318.425
318.599
318.811
319.068
319.375
319.739
320.166
320.663
321.25
321.962
322.872
324.212
327.392
345.012
448.655
313.118
322.912
326.806
329.102
329.671
328.976
327.805
326.561
325.409
324.438
323.654
323.02
322.485
322.032
321.676
321.424
321.263
321.17
321.119
321.092
321.076
321.069
321.07
321.086
321.123
321.194
321.312
321.498
321.776
322.188
322.831
324.04
327.867
350.312
454.685
309.485
315.964
319.206
322.036
324.878
327.42
329.451
330.967
331.962
332.366
332.192
331.446
330.23
328.923
327.833
327.024
326.417
325.934
325.53
325.187
324.895
324.649
324.443
324.277
324.153
324.078
324.072
324.166
324.422
324.964
326.092
328.772
337.215
368.776
465.891
306.029
313.588
317.834
320.651
322.706
324.253
325.316
325.794
325.902
325.934
326.332
328.022
329.774
330.321
330.052
329.494
328.923
328.435
328.032
327.695
327.405
327.153
326.934
326.748
326.6
326.497
326.453
326.495
326.674
327.102
328.071
330.626
339.707
374.043
468.911
310.265
320.054
325.012
328.666
331.994
334.73
336.041
334.776
331.947
330.87
331.017
331.224
331.345
331.277
331.036
330.714
330.383
330.067
329.773
329.5
329.249
329.02
328.817
328.646
328.514
328.431
328.417
328.504
328.761
329.341
330.678
334.336
346.781
385.033
474.562
313.952
322.655
327.189
330.999
333.443
334.699
335.304
335.454
334.963
334.253
333.799
333.432
333.098
332.783
332.483
332.179
331.864
331.579
331.352
331.164
330.993
330.828
330.673
330.537
330.431
330.369
330.376
330.497
330.817
331.537
333.216
337.834
352.831
392.599
476.836
307.735
316.821
321.144
324.046
326.521
328.609
330.306
331.683
332.771
333.537
334
334.254
334.373
334.391
334.309
334.161
333.948
333.65
333.312
333.011
332.769
332.564
332.379
332.217
332.094
332.027
332.036
332.158
332.47
333.174
334.889
339.942
356.894
398.492
479.26
313.935
323.472
328.317
332.282
335.677
337.891
338.814
338.924
338.729
338.428
338.062
337.636
337.152
336.621
336.082
335.587
335.189
334.914
334.703
334.507
334.299
334.074
333.863
333.71
333.634
333.641
333.751
334.015
334.555
335.667
338.226
345.21
365.679
406.707
480.261
318.212
327.83
332.976
337.618
340.806
342.219
342.63
342.584
342.326
341.955
341.513
341.017
340.472
339.876
339.24
338.597
337.985
337.407
336.827
336.235
335.722
335.329
335.024
334.802
334.681
334.669
334.768
335.01
335.489
336.467
338.805
345.762
367.658
409.551
480.715
319.346
329.367
335.538
342.152
345.089
345.302
345.058
344.734
344.357
343.941
343.472
342.931
342.338
341.702
341.019
340.278
339.463
338.579
337.694
336.962
336.467
336.142
335.919
335.78
335.738
335.807
336.009
336.401
337.132
338.608
342.071
351.525
376.828
416.518
480.236
319.086
329.985
335.295
339.172
341.976
343.484
343.941
344.01
343.94
343.793
343.58
343.307
342.977
342.59
342.132
341.571
340.846
339.911
338.841
337.909
337.298
336.927
336.691
336.553
336.513
336.584
336.791
337.19
337.921
339.384
342.911
353.194
381.353
420.284
479.632
324.03
337.555
343.66
346.313
346.068
345.533
345.104
344.753
344.409
344.052
343.672
343.256
342.795
342.286
341.728
341.101
340.386
339.602
338.838
338.219
337.782
337.488
337.304
337.219
337.237
337.378
337.677
338.212
339.174
341.098
345.677
358.186
388.738
424.69
477.659
325.506
341.873
346.772
347.127
346.472
346.058
345.623
345.119
344.563
343.967
343.34
342.693
342.042
341.404
340.794
340.214
339.665
339.152
338.702
338.34
338.072
337.893
337.796
337.784
337.871
338.079
338.454
339.084
340.172
342.295
347.402
361.803
395.171
428.851
477.02
321.971
332.988
337.268
340.507
342.98
344.747
346.007
346.652
346.617
346.009
345.042
343.929
342.822
341.808
340.932
340.207
339.626
339.169
338.819
338.559
338.38
338.274
338.241
338.288
338.433
338.711
339.185
339.981
341.396
344.236
350.846
367.386
400.641
431.894
476.872
313.199
324.791
330.175
333.541
336.367
339.12
341.795
344.061
345.785
346.96
347.42
346.957
345.657
344.037
342.51
341.245
340.298
339.644
339.215
338.945
338.787
338.715
338.722
338.807
338.985
339.29
339.783
340.588
341.979
344.731
351.464
369.56
404.368
434.727
477.878
314.613
329.527
336.807
341.03
344.13
346.759
348.722
349.438
349.251
348.917
348.787
348.841
348.764
347.997
346.424
344.603
342.935
341.57
340.555
339.866
339.445
339.232
339.184
339.275
339.498
339.872
340.458
341.424
343.198
346.929
355.621
375.349
408.124
437.179
479.694
321.039
334.276
339.033
342.163
345.39
349.187
352.834
354.768
354.927
354.145
353.021
351.864
350.825
349.832
348.529
346.719
344.941
343.449
342.206
341.216
340.482
339.986
339.709
339.645
339.796
340.173
340.806
341.763
343.279
346.251
354.05
374.956
409.852
439.064
480.758
319.209
328.87
332.901
335.828
338.397
340.984
343.994
347.418
350.45
352.572
353.759
354.097
353.709
352.764
351.454
349.736
347.586
345.622
344.168
343.017
342.061
341.311
340.777
340.468
340.403
340.627
341.23
342.398
344.582
348.943
358.536
379.717
411.984
440.354
482.224
312.745
324.259
331.76
336.564
340.017
342.79
345.03
346.787
348.22
349.441
350.608
351.877
353.055
353.684
353.606
352.857
351.331
348.916
346.279
344.44
343.313
342.494
341.852
341.386
341.147
341.209
341.667
342.658
344.486
348.151
356.994
378.67
412.929
441.706
482.786
309.931
323.366
332.675
338.56
343.108
347.455
351.605
354.561
355.49
354.884
353.548
352.32
352.022
352.601
353.199
353.356
353.006
351.913
349.825
347.037
344.53
342.935
342.051
341.577
341.372
341.448
341.963
343.267
346.153
352.512
366.079
390.01
418.585
445.157
486.898
312.835
328.744
336.402
340.777
344.217
347.526
351.177
354.905
357.241
357.792
357.184
355.602
353.62
352.6
352.581
352.751
352.722
352.339
351.337
349.514
347.239
345.227
343.77
342.805
342.253
342.055
342.203
342.772
344.038
347.17
356.801
381.868
416.351
444.744
485.526
318.144
332.687
338.159
341.5
344.357
347.021
349.677
352.384
354.689
356.087
356.661
356.477
355.318
353.56
352.386
351.924
351.691
351.265
350.288
348.614
346.609
344.821
343.463
342.548
342.086
342.132
342.851
344.637
348.386
355.975
370.404
394.6
422.35
448.334
489.732
319.928
330.861
335.319
338.523
341.385
344.022
346.47
348.845
351.288
353.608
355.414
356.527
356.835
356.062
354.264
352.124
350.162
348.55
347.35
346.476
345.735
344.965
344.185
343.5
342.972
342.658
342.678
343.267
345.082
350.362
364.506
391.679
422.659
449.439
489.798
317.992
327.189
331.537
334.563
337.113
339.518
341.905
344.329
346.837
349.489
352.181
354.671
356.775
358.37
359.3
359.329
358.27
356.223
353.331
349.782
346.172
343.495
342.095
341.649
341.775
342.231
342.996
344.354
346.797
351.719
365.09
393.564
422.95
449.08
490.418
310.804
321.448
329.61
335.017
339.035
342.417
345.383
347.919
349.905
351.338
352.449
353.525
354.717
356.015
357.31
358.42
359.166
359.456
359.163
357.874
355.01
350.848
346.832
343.934
342.269
341.751
342.174
343.438
346.243
351.23
359.829
383.921
418.286
446.963
487.477
308.451
324.464
334.555
340.354
344.348
347.657
350.655
353.441
355.898
357.772
358.889
359.339
359.37
359.23
359.118
359.156
359.321
359.484
359.528
359.384
358.839
356.868
352.502
347.233
343.316
341.464
341.553
343.272
346.932
356.085
373.67
398.434
425.172
450.898
492.721
315.351
332.024
338.648
342.139
344.807
347.329
349.921
352.529
355.023
357.37
359.493
361.173
362.214
362.635
362.608
362.296
361.787
361.185
360.615
360.129
359.695
359.137
357.955
354.998
349.768
344.085
340.219
340.244
344.48
352.926
370.757
399.367
426.573
451.717
492.738
317.293
330.553
336.915
340.992
344.464
347.957
351.483
354.48
356.602
358.077
359.299
360.516
361.743
362.798
363.49
363.788
363.77
363.464
362.771
361.703
360.63
359.793
359.052
357.934
355.454
351.201
346.437
342.833
343.003
350.642
368.49
399
427.27
452.717
493.834
315.384
331.376
339.411
344.307
348.501
353.002
357.657
361.198
363.074
363.756
363.873
363.809
363.769
363.838
363.996
364.147
364.202
364.114
363.825
363.186
362.127
360.994
360.059
359.175
357.79
354.517
349.876
345.941
344.461
349.651
368.07
397.876
426.686
452.657
493.717
319.611
335.928
342.158
345.971
349.752
354.318
359.156
362.667
364.506
365.294
365.575
365.611
365.52
365.361
365.178
364.993
364.792
364.531
364.14
363.523
362.614
361.536
360.499
359.487
358.141
355.19
349.531
344.256
342.156
346.372
365.718
400.632
429.14
454.156
494.41
318.866
332.731
339.044
343.236
347.247
351.799
356.612
360.262
362.294
363.297
363.793
364.051
364.201
364.305
364.394
364.469
364.507
364.47
364.308
363.98
363.453
362.746
361.964
361.181
360.29
358.836
356.02
352.468
349.405
349.316
358.323
389.38
423.189
450.922
491.56
318.638
333.883
340.699
345.008
348.911
353.218
358.205
362.545
364.898
365.714
365.781
365.52
365.137
364.758
364.458
364.253
364.114
363.98
363.755
363.326
362.687
361.967
361.248
360.493
359.555
358.117
355.581
351.306
346.246
348.939
361.738
390.691
423.915
451.513
491.539
318.297
333.385
340.256
344.643
348.537
352.616
357.198
361.647
364.385
365.361
365.408
365.028
364.469
363.92
363.527
363.338
363.308
363.354
363.397
363.354
363.13
362.743
362.315
361.89
361.398
360.65
359.273
356.763
353.09
353.445
369.419
397.944
427.264
453.274
493.569
318.017
333.974
341.463
346.507
351.355
356.369
360.807
363.958
365.53
365.625
364.872
363.708
362.477
361.436
360.657
360.136
359.852
359.711
359.596
359.439
359.187
358.802
358.274
357.61
356.798
355.788
354.48
352.709
350.357
350.108
364.58
396.25
426.401
452.471
492.842
318.574
335.225
342.62
347.689
352.909
358.477
363.072
365.604
366.471
366.23
365.345
364.213
363.235
362.471
361.739
360.923
360.089
359.448
359.09
358.927
358.843
358.751
358.589
358.32
357.931
357.44
356.918
356.607
357.624
363.686
379.932
407.417
433.002
457.579
498.021
320.74
337.127
344.356
349.358
354.361
359.547
363.814
366.228
367.416
368.076
368.387
368.458
368.373
368.195
367.839
367.075
365.676
363.695
361.7
360.197
359.223
358.588
358.123
357.727
357.34
356.91
356.374
355.632
354.892
358.495
377.038
408.732
433.314
456.13
496.485
323.635
339.176
345.498
350.409
355.857
361.666
366.439
368.677
368.873
368.238
367.1
365.503
363.603
361.991
361.308
361.13
361.031
360.894
360.674
360.387
360.103
359.873
359.713
359.638
359.686
359.947
360.637
362.14
364.447
368.075
383.323
414.188
435.738
457.591
500.096
319.226
334.776
341.44
345.644
349.205
352.7
356.816
361.558
365.463
367.703
368.507
368.243
367.118
365.29
363.336
361.962
361.151
360.703
360.473
360.345
360.258
360.203
360.212
360.35
360.757
361.764
364.231
370.085
381.271
394.964
407.563
425.545
443.218
466.014
509.649
318.888
335.998
344.153
349.495
354.027
357.268
358.836
359.839
361.591
364.305
367.184
369.374
370.458
370.496
369.674
367.953
365.241
362.408
360.647
359.918
359.73
359.783
359.939
360.142
360.453
361.188
363.262
369.081
383.121
407.938
435.394
450.231
461.181
477.654
513.98
318.092
337.097
346.923
353.606
359.187
362.574
363.546
363.273
362.881
363.056
364.181
366.103
368.09
369.479
370.102
370.063
369.435
368.191
366.307
364.051
362.121
360.989
360.54
360.492
360.656
360.948
361.525
363.311
368.872
383.066
409.517
438.784
454.467
469.625
504.674
325.054
344.836
354.788
362.326
368.145
370.561
370.335
368.942
367.474
366.343
365.811
366.212
367.537
369.088
370.197
370.732
370.825
370.589
370.05
369.153
367.816
366.12
364.539
363.549
363.179
363.218
363.412
363.604
364.195
366.565
373.753
394.251
423.368
448.855
488.107
336.326
352.23
361.021
368.796
372.001
372.289
371.8
371.028
370.207
369.458
368.879
368.63
368.894
369.571
370.276
370.771
371.023
371.066
370.929
370.616
370.092
369.291
368.2
367.041
366.18
365.909
366.649
367.467
367.078
365.454
364.785
378.208
411.75
440.971
480.252
335.139
348.509
354.44
359.47
362.9
366.832
370.233
371.779
372.153
372.087
371.917
371.775
371.706
371.711
371.752
371.781
371.756
371.654
371.461
371.158
370.712
370.043
369.04
367.802
367.148
368.654
372.205
373.586
372.39
371.291
376.077
394.959
422.832
448.486
486.779
321.089
332.077
337.087
341.134
346.277
353.525
362.771
369.404
372.177
373.032
373.25
373.274
373.236
373.174
373.094
372.988
372.843
372.646
372.385
372.04
371.565
370.866
369.836
368.778
369.293
373.69
380.212
381.918
380.564
382.62
394.592
415.844
436.008
457.856
498.911
313.6
328.148
338.204
344.716
349.44
352.894
358.899
367.63
372.868
374.527
374.875
374.863
374.746
374.594
374.426
374.24
374.026
373.767
373.444
373.028
372.465
371.667
370.583
369.619
370.576
376.518
386.833
392.813
392.842
395.361
407.052
424.982
441.403
462.442
507.743
316.666
338.9
351.343
359.943
366.966
368.493
366.703
369.059
372.106
373.574
374.241
374.592
374.793
374.907
374.96
374.958
374.903
374.787
374.601
374.321
373.895
373.246
372.343
371.462
371.899
376.574
387.813
400.834
408.146
413.068
422.087
434.919
448.837
469.529
514.049
328.176
348.84
358.962
366.193
373.241
377.126
376.339
375.228
375.033
375.077
375.175
375.282
375.381
375.467
375.537
375.585
375.602
375.576
375.487
375.302
374.969
374.426
373.643
372.825
372.913
376.171
385.619
401.412
417.879
430.764
441.059
450.758
461.471
478.543
516.349
335.476
355.149
365.794
370.43
370.934
373.814
375.682
375.917
375.995
376.042
376.084
376.131
376.188
376.257
376.336
376.425
376.518
376.609
376.684
376.71
376.615
376.283
375.603
374.69
374.201
375.589
381.102
392.817
409.974
428.374
443.516
454.355
463.887
477.991
511.987
340.841
367.23
377.763
377.719
374.462
375.173
375.86
376.149
376.244
376.335
376.432
376.536
376.649
376.777
376.923
377.088
377.274
377.482
377.713
377.955
378.159
378.169
377.73
376.776
375.757
375.522
377.21
382.29
391.963
405.908
422.092
438.014
451.641
467.444
501.41
340.357
363.245
370.218
372.612
373.492
374.717
375.761
376.585
376.977
377.09
377.125
377.167
377.245
377.367
377.537
377.76
378.047
378.415
378.899
379.553
380.395
381.203
381.298
380.249
378.74
377.498
377.023
378.083
381.899
390.207
404.895
424.278
441.019
458.754
494.105
323.685
332.4
338.745
345.706
352.502
358.636
364.225
370.013
374.486
376.677
377.422
377.614
377.662
377.713
377.818
377.996
378.263
378.648
379.208
380.065
381.408
383.327
385.214
385.632
384.443
382.94
381.815
381.727
384.119
391.249
405.19
423.372
439.301
458.055
497.459
315.846
328.25
335.642
340.124
344.396
348.973
353.883
360.064
367.21
373.165
376.344
377.566
377.975
378.114
378.192
378.299
378.475
378.758
379.199
379.9
381.07
383.049
386.012
389.125
390.747
390.668
390.169
390.534
393.587
401.683
415.113
430.167
444.175
463.072
504.427
315.642
334.128
345.076
351.678
355.993
359.362
362.772
365.886
368.84
373.315
376.585
377.93
378.386
378.575
378.687
378.79
378.923
379.12
379.413
379.868
380.636
381.983
384.306
387.837
391.949
395.312
397.373
399.221
402.983
410.977
423.113
435.839
448.139
465.744
506.256
319.898
337.781
346.342
351.93
357.39
363.836
371.147
375.681
375.689
377.091
378.473
378.92
379.101
379.213
379.305
379.4
379.52
379.683
379.911
380.228
380.704
381.519
382.96
385.426
389.239
394.162
399.226
403.617
408.202
415.134
425.057
436.051
447.362
464.079
504.884
321.913
339.703
347.803
352.857
357.504
363.696
372.544
378.811
379.16
379.462
379.726
379.825
379.893
379.959
380.03
380.116
380.227
380.376
380.575
380.838
381.199
381.751
382.679
384.279
387.002
391.37
397.538
404.736
411.676
418.606
426.864
436.371
447.128
463.995
505.753
321.601
340.925
350.319
356.78
362.898
369.183
375.581
380.638
380.778
380.669
380.68
380.696
380.721
380.759
380.813
380.889
380.991
381.126
381.302
381.532
381.843
382.3
383.012
384.177
386.168
389.639
395.477
404.216
414.797
424.606
432.987
441.426
451.246
467.478
507.915
323.157
341.92
349.467
354.523
360.011
366.678
373.682
379.82
381.86
381.629
381.55
381.528
381.531
381.553
381.597
381.665
381.76
381.888
382.056
382.275
382.565
382.96
383.53
384.401
385.831
388.332
392.845
400.683
412.515
426.193
437.552
446.469
455.554
470.245
508.035
322.814
341.491
350.258
355.841
360.865
366.75
374.043
379.92
382.77
382.571
382.443
382.396
382.381
382.387
382.415
382.471
382.56
382.69
382.864
383.087
383.366
383.721
384.187
384.84
385.824
387.435
390.283
395.501
404.635
418.133
432.876
444.971
455.223
469.443
505.378
323.405
342.725
351.227
357.028
362.783
369.064
375.776
381.521
383.789
383.416
383.254
383.214
383.208
383.217
383.245
383.297
383.388
383.53
383.729
383.985
384.299
384.677
385.135
385.708
386.472
387.585
389.382
392.577
398.537
409.085
424.273
439.623
451.829
466.75
502.237
324.065
342.991
350.989
356.155
361.095
366.742
373.383
380.229
384.309
384.311
384.14
384.116
384.12
384.131
384.149
384.179
384.241
384.356
384.547
384.828
385.209
385.697
386.301
387.036
387.935
389.083
390.677
393.176
397.627
406.048
420.305
437.059
450.288
465.79
501.451
324
342.9
351.258
356.784
361.926
367.559
374.092
380.452
384.782
385.34
385.077
385.11
385.16
385.208
385.251
385.28
385.289
385.286
385.3
385.366
385.516
385.783
386.205
386.822
387.681
388.851
390.473
392.896
397.013
404.832
418.726
435.686
448.949
464.285
499.667
324.252
342.949
350.789
355.968
360.886
366.211
372.178
378.445
383.715
386.168
385.836
386.055
386.251
386.436
386.638
386.863
387.101
387.349
387.598
387.834
388.053
388.262
388.485
388.775
389.231
390.023
391.442
394.029
398.856
407.728
421.772
437.118
449.406
464.678
501.196
322.692
340.737
348.941
354.223
358.837
363.5
368.689
374.541
380.392
384.86
386.158
386.453
387.032
387.371
387.662
387.952
388.183
388.343
388.586
389.023
389.666
390.515
391.549
392.728
394.017
395.473
397.366
400.358
405.717
415.034
428.152
441.149
452.277
467.303
504.055
322.223
340.502
348.859
354.155
358.807
363.689
369.03
374.265
378.874
382.952
385.99
386.297
386.885
388.133
388.888
389.366
389.624
389.508
389.008
388.461
388.237
388.517
389.38
390.873
392.982
395.669
399.02
403.487
410.032
419.571
431.143
441.972
451.783
465.747
502.222
321.201
339.163
348.142
353.88
358.702
363.458
368.487
373.532
377.834
381.32
384.463
386.569
386.506
387.304
389.691
391.946
394.241
396.305
397.089
396.482
395.272
394.05
393.169
393.041
394.182
396.959
401.437
407.63
415.675
425.352
435.473
444.974
454.755
470.048
508.335
320.146
338.729
348.378
354.443
359.53
364.808
370.629
376.187
380.274
382.734
384.346
385.938
387.023
386.796
387.676
390.34
392.672
395.32
398.514
401.085
402.139
402.014
401.448
401.104
401.721
404.105
408.672
415.25
423.33
432.175
441.029
449.81
459.924
476.749
515.644
321.837
341.459
351.485
357.963
363.774
370.077
376.507
381.571
384.722
386.238
386.803
387.111
387.491
387.535
386.84
387.689
391.113
394.491
398.186
402.285
406.07
408.793
410.405
411.441
412.658
414.84
418.574
423.958
430.591
437.874
445.42
453.37
463
479.338
516.862
322.963
343.211
353.493
360.37
367.117
374.857
381.981
386.425
388.564
389.487
389.565
389.224
388.853
388.521
387.96
387.088
388.909
392.524
395.901
399.44
403.472
407.84
412.1
415.919
419.334
422.753
426.687
431.444
436.985
443.076
449.583
456.678
465.371
480.104
515.375
326.483
348.161
358.327
365.777
374.457
384.367
391.28
393.54
393.717
393.676
393.309
392.443
391.37
390.282
389.212
387.997
387.464
389.492
392.325
395.028
397.918
401.386
405.596
410.448
415.68
421.076
426.61
432.352
438.308
444.431
450.755
457.494
465.435
478.514
511.953
329.377
351.263
361.091
369.452
380.344
391.059
395.694
395.651
396.126
396.805
396.246
394.722
392.851
390.862
388.894
387.538
387.936
390.079
392.171
394.071
396.099
398.566
401.769
405.932
411.06
416.862
422.969
429.198
435.528
441.987
448.655
455.725
463.873
476.955
510.203
329.978
351.294
360.873
369.119
379.264
389.103
394.213
394.954
396.061
396.321
395.391
394.368
393.129
391.598
390.062
389.259
390.076
391.876
393.808
395.877
398.114
400.623
403.604
407.272
411.699
416.712
422.053
427.652
433.607
440.022
446.955
454.509
463.363
477.646
512.035
329.958
350.674
359.616
366.816
375.55
385.797
393.536
394.428
394.223
396.516
396.835
395.545
394.452
393.228
391.779
390.71
391.071
392.779
394.671
396.905
399.747
403.167
407.117
411.631
416.703
422.134
427.584
432.915
438.319
444.102
450.491
457.667
466.395
480.916
515.324
328.852
349.024
357.507
363.926
371.056
379.409
388.566
394.445
394.63
395.204
397.408
397.622
396.198
395.038
393.822
392.355
391.23
391.516
393.047
394.792
396.947
399.992
404.17
409.446
415.563
422.16
428.858
435.325
441.436
447.352
453.41
459.985
467.829
480.837
513.58
327.113
347.072
355.697
361.799
367.863
374.218
381.27
389.173
393.68
394.005
394.926
397.528
398.641
397.13
395.558
394.145
392.515
391.068
391.009
392.311
393.829
395.515
397.887
401.506
406.682
413.198
420.434
427.86
435.218
442.419
449.52
456.731
464.639
476.782
507.718
326.248
346.226
355.071
361.451
367.99
374.314
379.446
384.302
390.441
393.555
393.856
394.498
396.954
399.238
398.653
396.52
394.523
392.579
390.845
390.275
391.015
392.419
394.081
396.217
399.438
404.37
411.103
419.044
427.478
435.943
444.195
452.243
460.618
473.038
504.828
326.041
346.067
354.949
361.267
367.874
374.98
380.945
384.661
387.705
392.014
393.654
393.598
394.084
396.098
398.867
399.961
398.523
396.215
394.099
392.334
391.302
391.42
392.73
394.946
397.971
402.268
408.462
416.564
425.74
434.977
443.757
452.209
461.35
475.776
511.354
326.106
346.147
355.025
361.283
367.713
374.754
381.434
386.084
388.61
390.722
393.649
394.194
393.727
393.945
395.434
398.102
400.443
400.9
399.503
397.58
395.847
394.591
394.389
395.892
399.236
404.203
410.808
419.082
428.425
437.837
446.798
455.63
466.023
483.329
520.611
326.08
346.285
355.172
361.409
367.736
374.437
380.75
385.759
388.891
390.558
392.169
394.421
394.62
393.972
393.952
394.973
397.304
400.353
402.867
403.882
403.355
402.147
401.064
400.959
402.882
407.358
414.053
422.261
431.213
440.233
449.062
458.097
469.27
488.064
524.161
325.581
345.995
355.114
361.426
367.769
374.479
380.556
385.178
388.539
390.749
391.913
393.032
394.725
395.003
394.358
394.095
394.579
396.172
398.988
402.564
406.093
408.699
409.861
410.284
411.359
414.327
419.737
427.009
435.048
443.165
451.3
459.865
470.558
488.478
522.638
326.14
346.847
356
362.277
368.572
375.313
381.606
386.253
389.142
391.015
392.341
393.108
393.764
394.982
395.52
395.051
394.63
394.657
395.396
397.206
400.263
404.452
409.425
413.962
417.263
420.487
424.821
430.701
437.676
445.036
452.493
460.272
469.569
484.789
517.713
326.263
347.109
356.387
362.789
369.173
375.711
381.503
386.032
389.262
391.331
392.607
393.443
393.929
394.18
394.989
395.958
395.861
395.381
395.096
395.18
395.956
397.819
401.019
406.282
412.466
418.132
423.469
429.247
435.8
442.916
450.309
457.968
466.545
479.874
512.584
326.016
347.158
356.814
363.508
370.301
377.337
383.231
387.269
389.897
391.71
393.006
393.913
394.529
394.87
394.737
394.887
396.188
396.615
396.269
395.857
395.523
395.499
396.148
398.009
402.597
408.837
415.799
423.061
430.582
438.36
446.354
454.582
463.429
476.634
509.982
327.252
348.859
358.613
365.593
372.944
380.333
386.114
389.872
392.109
393.426
394.257
394.841
395.284
395.617
395.784
395.381
395.324
396.741
397.544
397.47
397.142
396.691
396.269
396.285
400.391
407.06
414.449
421.935
429.553
437.383
445.466
453.867
463.042
477.025
511.375
327.443
349.221
359.184
366.494
374.389
382.093
387.606
390.913
392.906
394.183
395.027
395.588
395.966
396.203
396.295
396.215
395.818
396.102
397.543
398.251
398.333
398.14
397.844
398.363
403.702
411.253
417.706
423.987
430.761
438.183
446.148
454.576
464.068
479.08
514.599
328.642
351.011
361.063
368.679
377.195
385.263
390.585
393.405
394.857
395.667
396.165
396.486
396.674
396.725
396.668
396.543
396.425
396.653
397.838
398.827
399.255
399.562
400.268
402.842
410.118
418.98
424.452
429.219
434.816
441.562
449.204
457.474
467.12
482.75
517.673
329.27
351.747
361.732
369.401
378.021
386.018
391.147
393.866
395.33
396.176
396.679
396.965
397.084
397.058
396.998
397.03
397.199
397.739
398.856
399.775
400.184
400.74
402.059
405.657
413.842
425.135
433.424
438.802
443.556
449.018
455.393
462.577
471.298
485.639
517.538
329.326
352.025
362.059
369.615
378.074
386.189
391.602
394.454
395.906
396.691
397.132
397.367
397.462
397.441
397.365
397.457
397.76
398.41
399.699
401.059
401.389
401.614
402.342
404.539
410.023
419.686
430.769
440.565
447.739
453.296
458.604
464.408
471.524
483.378
512.907
329.739
352.749
362.875
370.457
378.853
386.808
392.178
395.087
396.587
397.387
397.82
398.03
398.079
397.994
397.789
397.649
397.971
398.594
399.772
401.759
403.32
403.66
403.745
404.201
405.862
409.939
416.916
426.306
436.283
444.789
452.061
459.086
466.694
478.268
508.642
329.485
352.584
362.882
370.517
378.896
386.841
392.289
395.333
396.946
397.828
398.32
398.58
398.683
398.657
398.483
398.119
397.909
398.387
399.278
400.938
403.557
405.628
406.41
406.58
406.691
407.301
409.272
413.853
422.272
433.318
444.371
454.302
463.777
477.356
511.485
329.685
353.006
363.548
371.457
380.173
388.188
393.425
396.256
397.736
398.542
398.997
399.244
399.353
399.358
399.266
399.039
398.559
398.296
398.875
399.993
402.224
405.626
408.488
410.029
410.611
410.5
410
410.952
417.888
431.192
444.742
456.03
466.906
483.307
520.449
329.772
352.978
363.564
371.586
380.545
388.909
394.327
397.156
398.579
399.33
399.741
399.958
400.052
400.056
399.986
399.83
399.519
398.982
398.998
399.692
401.218
404.347
408.706
412.405
414.964
416.394
416.036
415.726
422.021
435.59
448.778
459.682
471.365
490.312
527.211
329.797
352.946
363.509
371.435
380.25
388.866
394.764
397.876
399.387
400.141
400.531
400.725
400.8
400.794
400.727
400.602
400.392
400.024
399.662
399.835
400.656
402.803
407.189
412.786
417.638
421.341
423.265
424.519
430.948
442.457
453.353
463.14
474.902
494.785
529.309
329.564
352.854
363.428
371.15
379.504
388.063
394.547
398.228
400.031
400.892
401.303
401.486
401.541
401.518
401.445
401.334
401.198
401.151
401.126
401.167
401.589
402.805
405.895
411.924
419.43
425.819
429.877
433.221
440.087
449.358
458.123
466.832
477.992
496.941
528.866
329.207
353.16
364.069
371.826
379.81
387.848
394.372
398.442
400.534
401.53
401.993
402.188
402.236
402.205
402.139
402.092
402.265
402.914
403.424
403.412
403.864
405.495
408.306
412.765
420.192
429.664
437.653
443.192
449.322
456.241
463.381
471.31
481.877
499.541
528.91
329.328
354.373
365.924
374.208
382.419
389.739
395.343
399.098
401.173
402.186
402.657
402.851
402.892
402.861
402.847
403.069
404.085
406.004
407.211
406.597
406.643
409.729
416.45
423.659
429.881
436.907
445.207
452.941
459.529
465.588
471.804
478.921
488.494
504.007
529.579
330.215
356.184
368.374
377.52
386.52
393.236
397.322
400.084
401.847
402.8
403.271
403.471
403.508
403.465
403.474
403.869
405.379
408.557
412.285
413.77
413.162
413.594
417.552
426.156
437.245
448.061
456.32
462.08
467.027
472.08
477.506
483.651
491.779
505.034
529.252
331.821
357.901
370.318
380.205
390.218
396.941
399.939
401.497
402.634
403.4
403.851
404.085
404.162
404.12
404.008
403.976
404.484
406.54
410.915
416.465
421.165
424.637
427.324
430.196
434.465
441.46
451.296
460.842
467.772
472.96
477.795
483.212
490.634
503.549
529.103
333.277
358.574
370.572
380.381
390.748
398.36
401.918
403.239
403.847
404.26
404.559
404.756
404.869
404.903
404.858
404.725
404.536
404.501
405.308
408.056
412.996
419.426
426.756
434.746
443.053
450.278
455.077
459.181
464.219
470.06
475.948
481.975
489.671
502.879
528.411
333.138
357.395
368.611
377.346
386.665
395.045
400.648
403.578
404.875
405.403
405.624
405.726
405.776
405.794
405.787
405.755
405.69
405.577
405.414
405.307
405.641
407.053
410.192
415.488
423.105
432.735
445.383
457.35
465.057
470.244
474.806
479.566
485.493
495.797
521.388
331.005
354.864
365.928
373.774
381.545
389.256
395.933
400.81
403.844
405.48
406.274
406.632
406.778
406.824
406.822
406.797
406.762
406.722
406.677
406.625
406.556
406.477
406.454
406.721
407.97
410.843
416.073
427.35
441.278
452.931
461.519
468.549
475.427
485.176
513.353
328.837
353.685
365.94
374.364
381.954
388.532
394.075
398.759
402.411
404.841
406.242
406.986
407.366
407.551
407.634
407.664
407.673
407.682
407.706
407.776
407.833
407.862
407.954
408.037
407.996
408.169
407.846
410.073
419.592
432.938
445.601
456.354
465.868
478.053
509.875
329.024
356.039
369.994
380.145
389.341
395.604
399.137
401.673
404.044
405.942
407.126
407.77
408.101
408.263
408.339
408.377
408.416
408.502
408.684
409.101
409.776
410.149
410.043
409.678
409.198
408.613
407.396
407.48
415.65
429.515
443.263
454.909
465.264
479.302
512.966
331.945
360.426
375.365
387.327
398.57
404.505
406.164
406.547
407.201
408.026
408.586
408.876
409.004
409.044
409.051
409.07
409.169
409.586
410.979
412.025
411.967
411.517
411.004
410.473
409.936
409.454
409.176
411.047
419.911
433.434
446.114
456.859
466.996
481.669
515.233
335.432
363.429
378.474
391.642
403.95
409.445
410.242
409.784
409.551
409.67
409.798
409.842
409.82
409.766
409.726
409.774
410.159
411.559
413.554
414.14
413.478
412.807
412.152
411.397
410.427
409.728
411.867
419.545
430.647
442.016
452.002
460.955
470.283
484.714
517.553
336.666
363.256
377.298
389.945
402.295
409.253
411.401
411.544
411.238
411.035
410.913
410.796
410.662
410.525
410.433
410.512
411.179
413.158
416.106
417.448
416.355