/*--------------------------------*- C++ -*----------------------------------*\
| =========                 |                                                 |
| \\      /  F ield         | OpenFOAM: The Open Source CFD Toolbox           |
|  \\    /   O peration     | Version:  v2006                                 |
|   \\  /    A nd           | Website:  www.openfoam.com                      |
|    \\/     M anipulation  |                                                 |
\*---------------------------------------------------------------------------*/
FoamFile
{
    version     2.0;
    format      ascii;
    class       volVectorField;
    location    "22";
    object      U;
}
// * * * * * * * * * * * * * * * * * * * * * * * * * * * * * * * * * * * * * //

dimensions      [0 1 -1 0 0 0 0];


internalField   nonuniform List<vector> 
78750
(
(-0.351497 -0.191771 -0.154768)
(-0.306867 -0.176248 -0.15607)
(-0.299631 -0.149386 -0.151377)
(-0.259444 -0.121518 -0.145476)
(-0.217938 -0.0961362 -0.13862)
(-0.201843 -0.087571 -0.136315)
(-0.191491 -0.075925 -0.135921)
(-0.174195 -0.0695916 -0.134918)
(-0.159628 -0.0612791 -0.134341)
(-0.14348 -0.0556361 -0.133327)
(-0.130234 -0.0491107 -0.132493)
(-0.115897 -0.0437954 -0.131146)
(-0.102861 -0.0387053 -0.12997)
(-0.090512 -0.0338584 -0.128433)
(-0.0783472 -0.0295293 -0.126788)
(-0.0671086 -0.0254865 -0.124956)
(-0.0562575 -0.0218109 -0.122968)
(-0.0461542 -0.0184018 -0.120821)
(-0.0365868 -0.0152291 -0.118524)
(-0.0275796 -0.0122226 -0.116122)
(-0.0191108 -0.00941024 -0.11359)
(-0.0112113 -0.00676073 -0.110947)
(-0.00389431 -0.00424017 -0.108219)
(0.00271847 -0.00181826 -0.105436)
(0.00858743 0.000551726 -0.102632)
(0.0137587 0.00289195 -0.0998518)
(0.0181482 0.00521852 -0.0971556)
(0.0216851 0.00753667 -0.0946462)
(0.0242995 0.00985861 -0.0924348)
(0.025942 0.01214 -0.0906678)
(0.0264917 0.014402 -0.0895381)
(0.0259161 0.0164057 -0.0893076)
(0.0237964 0.018522 -0.0902494)
(0.0228951 0.0221085 -0.0937731)
(0.0111524 0.0704913 -0.0628343)
(0.0473945 -0.20913 0.0363268)
(-0.0705315 -0.161112 -0.0111208)
(-0.0323699 -0.168588 -0.0524505)
(-0.0713678 -0.153062 -0.0851571)
(-0.0776042 -0.118285 -0.10402)
(-0.0890515 -0.0896426 -0.117155)
(-0.0944755 -0.0647004 -0.128822)
(-0.0969738 -0.0478089 -0.137611)
(-0.0966619 -0.0342083 -0.144713)
(-0.0942197 -0.0242015 -0.149541)
(-0.090441 -0.0167009 -0.152293)
(-0.0858041 -0.0106504 -0.153333)
(-0.0806126 -0.00548281 -0.153107)
(-0.0749613 -0.000831421 -0.152142)
(-0.0690201 0.003506 -0.150719)
(-0.0628349 0.00764143 -0.149011)
(-0.0564676 0.0116476 -0.147122)
(-0.0499478 0.015598 -0.145099)
(-0.0433697 0.01955 -0.14296)
(-0.0368568 0.0235561 -0.140697)
(-0.030458 0.0276203 -0.138248)
(-0.024191 0.0317826 -0.135577)
(-0.0180814 0.0360889 -0.132646)
(-0.012165 0.0405896 -0.129409)
(-0.00648577 0.0453443 -0.125819)
(-0.00109786 0.0504034 -0.121823)
(0.0039302 0.0558144 -0.117372)
(0.00851497 0.0616228 -0.112401)
(0.0125471 0.0678939 -0.106801)
(0.0158569 0.0747371 -0.100471)
(0.0181945 0.0823001 -0.0934374)
(0.0193163 0.0909488 -0.0859004)
(0.0190506 0.103493 -0.0775916)
(0.0174532 0.142281 -0.0675805)
(0.00574992 0.239097 -0.0373225)
(-0.0131371 0.0555848 -0.0139994)
(-0.0144573 0.0425753 -0.0115858)
(-0.0230774 0.0343889 -0.0154216)
(-0.0287337 0.0286776 -0.0269095)
(-0.0358888 0.0211264 -0.0445924)
(-0.0416042 0.0173324 -0.0625723)
(-0.0471787 0.015953 -0.0769143)
(-0.0527471 0.0171459 -0.0879133)
(-0.058403 0.0202379 -0.095892)
(-0.0634181 0.0247219 -0.101552)
(-0.0667468 0.0294998 -0.10591)
(-0.0677094 0.0337031 -0.109511)
(-0.0664822 0.0369627 -0.112552)
(-0.0636217 0.0394063 -0.114938)
(-0.0597759 0.0413669 -0.11648)
(-0.0554855 0.0431238 -0.117155)
(-0.0510379 0.044889 -0.11714)
(-0.0465524 0.0468056 -0.116668)
(-0.0420874 0.0489463 -0.115934)
(-0.0376605 0.0513493 -0.115071)
(-0.0332632 0.0540208 -0.114147)
(-0.0288786 0.0569674 -0.113181)
(-0.0244928 0.0602099 -0.112156)
(-0.0200946 0.0637922 -0.111037)
(-0.0156795 0.0677705 -0.109764)
(-0.0112555 0.0722171 -0.108257)
(-0.00685316 0.0772244 -0.106407)
(-0.00252885 0.0829157 -0.104094)
(0.00164102 0.0894561 -0.101192)
(0.00551392 0.0970395 -0.0975668)
(0.00880593 0.105984 -0.093104)
(0.0111512 0.117372 -0.0875538)
(0.0120799 0.137374 -0.0794607)
(0.0113417 0.201684 -0.0642963)
(0.00266887 0.316047 -0.0285696)
(0.000163518 -0.0585695 0.0638416)
(0.00239333 -0.0705064 0.0848524)
(0.00445377 -0.0690771 0.0892123)
(0.00784821 -0.058294 0.0888592)
(0.011874 -0.0372398 0.0837795)
(0.0151824 -0.0103789 0.0733495)
(0.0174031 0.0185589 0.0584078)
(0.0182565 0.0473779 0.0386634)
(0.0176435 0.0710807 0.0152161)
(0.0162303 0.082459 -0.00789507)
(0.0141026 0.0807729 -0.0275333)
(0.00986832 0.0706377 -0.0421013)
(0.00285271 0.060193 -0.050193)
(-0.00566779 0.0571161 -0.0545242)
(-0.0132931 0.0603806 -0.0583717)
(-0.0188108 0.0654506 -0.0623756)
(-0.0223475 0.069975 -0.0661704)
(-0.0242628 0.0736596 -0.0694656)
(-0.0248751 0.0767824 -0.0721843)
(-0.0244552 0.0796216 -0.0743535)
(-0.0232378 0.0824035 -0.0760393)
(-0.0214179 0.0853239 -0.0773145)
(-0.0191474 0.0885461 -0.0782483)
(-0.016543 0.0922021 -0.0788945)
(-0.0136979 0.0964094 -0.0792841)
(-0.0106872 0.101292 -0.0794234)
(-0.00757429 0.107002 -0.0792968)
(-0.00442051 0.113744 -0.0788648)
(-0.0012903 0.121826 -0.0780675)
(0.00172461 0.131756 -0.0768101)
(0.00447391 0.144631 -0.0748857)
(0.00676193 0.163821 -0.0717424)
(0.00793242 0.201544 -0.0655443)
(0.00698198 0.289004 -0.051261)
(0.000441805 0.379595 -0.0190368)
(0.00170651 -0.0247088 0.0176756)
(0.0102464 -0.0629953 0.0202073)
(0.0186113 -0.0815445 0.0190316)
(0.027191 -0.089193 0.0194038)
(0.0355082 -0.0886978 0.0222273)
(0.0433805 -0.0810886 0.0274732)
(0.0502303 -0.0668373 0.0351103)
(0.0541236 -0.0474839 0.0443914)
(0.0538013 -0.0302523 0.0525568)
(0.0500557 -0.01625 0.0605845)
(0.0426555 0.00947111 0.0686428)
(0.0329015 0.0667902 0.0582874)
(0.0221198 0.117787 0.0271494)
(0.0121819 0.134907 -0.00152323)
(0.0038436 0.132475 -0.0209055)
(-0.00296971 0.123809 -0.0338609)
(-0.00795606 0.115053 -0.0427598)
(-0.0111556 0.108222 -0.0490647)
(-0.0129256 0.103443 -0.0537312)
(-0.0135484 0.100377 -0.0573087)
(-0.0132469 0.0987275 -0.0601018)
(-0.0122104 0.0983097 -0.0622779)
(-0.0106075 0.0990234 -0.0639296)
(-0.00858527 0.100828 -0.0651147)
(-0.00626972 0.103735 -0.0658744)
(-0.00376854 0.107812 -0.0662387)
(-0.00117875 0.113193 -0.0662279)
(0.00140262 0.120106 -0.0658525)
(0.00386943 0.128905 -0.0651136)
(0.00609401 0.140172 -0.0639951)
(0.00791254 0.155272 -0.0624008)
(0.00914541 0.178816 -0.0599143)
(0.0092678 0.228156 -0.0550058)
(0.00752014 0.337625 -0.0427417)
(0.000981747 0.416842 -0.014151)
(0.00415234 -0.148838 0.00940569)
(0.00995983 -0.197187 0.00733462)
(0.0110546 -0.199794 0.00486482)
(0.00983231 -0.188294 0.00272257)
(0.00612559 -0.165955 0.00124476)
(9.6647e-05 -0.132544 0.0024224)
(-0.00730766 -0.0822766 0.0101646)
(-0.0146273 -0.00361609 0.0241818)
(-0.0228613 0.0848699 0.0271706)
(-0.0342146 0.122187 0.0149005)
(-0.0429516 0.130921 0.00637479)
(-0.0469274 0.139572 -0.000960018)
(-0.0475945 0.145938 -0.00958099)
(-0.045557 0.147229 -0.018469)
(-0.0417733 0.143595 -0.0264698)
(-0.0377289 0.137199 -0.0330246)
(-0.0341357 0.130203 -0.0384069)
(-0.0311326 0.123871 -0.0429084)
(-0.0286288 0.118826 -0.046708)
(-0.0263989 0.115225 -0.0499366)
(-0.0242205 0.113002 -0.0526949)
(-0.0219472 0.112055 -0.0550314)
(-0.0195038 0.112313 -0.056964)
(-0.0168632 0.113756 -0.0585018)
(-0.0140345 0.116415 -0.0596494)
(-0.0110558 0.120387 -0.0604051)
(-0.0079865 0.125865 -0.0607608)
(-0.00489988 0.133175 -0.0606992)
(-0.00189227 0.142872 -0.0601823)
(0.000882656 0.155974 -0.0591267)
(0.00324633 0.174839 -0.0573366)
(0.00494088 0.206525 -0.0542455)
(0.00499459 0.272907 -0.0480985)
(0.00376358 0.392919 -0.0353449)
(-0.000447833 0.448892 -0.0107123)
(-0.00481375 -0.102419 0.0132713)
(-0.0111012 -0.10149 0.0131859)
(-0.0172984 -0.0797459 0.0122015)
(-0.0242929 -0.0434421 0.0124768)
(-0.0292552 -0.00826285 0.0143884)
(-0.0326006 0.0151328 0.0166103)
(-0.0339943 0.031848 0.018796)
(-0.0323697 0.0527598 0.0211712)
(-0.0267046 0.0849962 0.0213967)
(-0.0196728 0.112467 0.0143601)
(-0.013711 0.119019 0.00411193)
(-0.00943132 0.115995 -0.00594632)
(-0.00653648 0.108392 -0.0152259)
(-0.00547591 0.0991578 -0.0228538)
(-0.00619931 0.0914666 -0.0284177)
(-0.00825027 0.0878324 -0.0321076)
(-0.0110119 0.0894792 -0.0342413)
(-0.0132759 0.0948563 -0.0354267)
(-0.0143047 0.10039 -0.0366504)
(-0.0142614 0.104481 -0.0384147)
(-0.013437 0.107439 -0.0406811)
(-0.0120482 0.109807 -0.0432943)
(-0.0103028 0.111991 -0.0460449)
(-0.00837045 0.114403 -0.0487004)
(-0.00634403 0.117494 -0.051071)
(-0.00425616 0.121703 -0.0530361)
(-0.00211419 0.127474 -0.0545245)
(6.64073e-05 0.135329 -0.0554854)
(0.00223548 0.14605 -0.0558595)
(0.00428238 0.161095 -0.0555294)
(0.00604092 0.183867 -0.054207)
(0.00721175 0.223988 -0.0511372)
(0.00670286 0.307254 -0.0442615)
(0.00471202 0.434622 -0.0312288)
(0.000333666 0.471539 -0.00946704)
(0.000216209 -0.0940933 0.0132903)
(0.00170527 -0.141513 0.0115365)
(0.00396796 -0.151878 0.00760093)
(0.00684536 -0.151258 0.00356058)
(0.0102095 -0.141835 -0.000831769)
(0.0131229 -0.125256 -0.00426141)
(0.0153433 -0.103961 -0.00541212)
(0.0175877 -0.0787002 -0.00385474)
(0.0209112 -0.0490454 0.000471822)
(0.0256834 -0.0153968 0.00669753)
(0.0311644 0.0182658 0.0132207)
(0.0356747 0.0504347 0.0190778)
(0.0382993 0.0819787 0.0240014)
(0.0383028 0.115922 0.0273912)
(0.0341534 0.146551 0.0253674)
(0.02754 0.159971 0.0162731)
(0.0206445 0.15723 0.00309255)
(0.0139572 0.144709 -0.0115091)
(0.00825979 0.129876 -0.0242254)
(0.00407118 0.118949 -0.0327395)
(0.00110546 0.113132 -0.0378235)
(-0.000955117 0.111482 -0.0409385)
(-0.0021977 0.113164 -0.0430288)
(-0.00266281 0.117271 -0.0446915)
(-0.00247301 0.122778 -0.0463059)
(-0.00180057 0.129097 -0.0479924)
(-0.000782754 0.136302 -0.0496713)
(0.000503879 0.144935 -0.0511744)
(0.00195734 0.155965 -0.0523019)
(0.0034375 0.171248 -0.0527977)
(0.00477463 0.195201 -0.0521915)
(0.00557931 0.240318 -0.0493669)
(0.0046145 0.337128 -0.0418444)
(0.00291983 0.469578 -0.0284101)
(-0.000189766 0.488957 -0.00873806)
(0.00483758 -0.128802 0.0122943)
(0.011251 -0.154874 0.0148792)
(0.0149037 -0.149474 0.0123626)
(0.0174899 -0.126499 0.00417092)
(0.0179737 -0.0862264 -0.0108459)
(0.0163721 -0.0411757 -0.0272339)
(0.0141316 -0.00717287 -0.0386314)
(0.0124399 0.0118709 -0.0434218)
(0.0117393 0.0233969 -0.0440194)
(0.0121442 0.0331231 -0.0420641)
(0.0137931 0.0437904 -0.0379135)
(0.0166437 0.0569646 -0.0314413)
(0.0204601 0.0737717 -0.0224554)
(0.0250284 0.0950413 -0.0112703)
(0.029898 0.119292 8.68571e-05)
(0.0344348 0.140429 0.00850463)
(0.0373212 0.152808 0.0121106)
(0.0378188 0.156561 0.0114751)
(0.036598 0.156128 0.0087082)
(0.0334489 0.153552 0.0043997)
(0.0284291 0.149961 -0.00149433)
(0.022736 0.146078 -0.00895613)
(0.0175438 0.142591 -0.0171464)
(0.0133495 0.140701 -0.0245647)
(0.0101962 0.141054 -0.0305046)
(0.00798824 0.143732 -0.0352025)
(0.0065908 0.148834 -0.0390973)
(0.00587126 0.156781 -0.042473)
(0.00568357 0.168525 -0.0454033)
(0.0058706 0.186241 -0.0477394)
(0.00624289 0.215543 -0.048914)
(0.00644264 0.271637 -0.0472017)
(0.00508581 0.382954 -0.0390803)
(0.00323634 0.505805 -0.0258624)
(0.000350855 0.506586 -0.00847766)
(0.0021877 -0.197816 0.0341214)
(0.00349498 -0.225946 0.0378507)
(0.002403 -0.216807 0.0309283)
(-0.00100493 -0.183912 0.010597)
(-0.00701754 -0.139875 -0.0181288)
(-0.0111434 -0.10058 -0.0398417)
(-0.011684 -0.0693083 -0.0520747)
(-0.0100794 -0.0449433 -0.0580063)
(-0.00739738 -0.0248825 -0.0604704)
(-0.00411532 -0.00708661 -0.0608802)
(-0.000438138 0.00962469 -0.0597493)
(0.00352849 0.0259639 -0.0572287)
(0.00771344 0.0425209 -0.0532319)
(0.0121894 0.0598066 -0.0476098)
(0.0170253 0.0778387 -0.0404828)
(0.0219783 0.0956682 -0.0325727)
(0.0263613 0.112045 -0.0248258)
(0.0295572 0.126858 -0.0174366)
(0.0312225 0.141249 -0.00964113)
(0.0309093 0.155057 -0.00202016)
(0.0289929 0.165066 0.00241735)
(0.0264139 0.170425 0.00272185)
(0.023438 0.172248 -0.000315698)
(0.0201954 0.17159 -0.00582247)
(0.0171074 0.170127 -0.0124364)
(0.0144652 0.169703 -0.0188615)
(0.0123285 0.17148 -0.0245897)
(0.0106604 0.176174 -0.0296635)
(0.00940793 0.184745 -0.0342456)
(0.00849284 0.199349 -0.0384107)
(0.00775024 0.225987 -0.0419234)
(0.00685036 0.282775 -0.043201)
(0.00491957 0.404936 -0.0371872)
(0.0031059 0.529474 -0.0245468)
(0.000670437 0.518498 -0.00840429)
(-0.000699757 -0.181458 0.0328453)
(-0.00200618 -0.193927 0.0342943)
(-0.0053365 -0.165268 0.023244)
(-0.010191 -0.0876208 -0.0150428)
(-0.015321 -0.0281105 -0.057542)
(-0.0196407 -0.0142778 -0.0714766)
(-0.021983 -0.0098956 -0.0750231)
(-0.0230918 -0.00541814 -0.0758029)
(-0.022892 0.000818159 -0.0752692)
(-0.0214969 0.00905419 -0.073855)
(-0.0191768 0.0195882 -0.0716885)
(-0.0160603 0.0324903 -0.068644)
(-0.0124417 0.0470307 -0.0646408)
(-0.00851326 0.0626733 -0.0595685)
(-0.00440143 0.079263 -0.0532328)
(-0.000302217 0.0967768 -0.0453875)
(0.00344436 0.115149 -0.0357764)
(0.00643394 0.134044 -0.024356)
(0.00834654 0.151982 -0.0123346)
(0.00919347 0.165865 -0.00299605)
(0.00947045 0.174394 0.00168521)
(0.00955482 0.179431 0.00279695)
(0.00948972 0.182491 0.00139794)
(0.00922049 0.18422 -0.00207152)
(0.00874182 0.185358 -0.00701395)
(0.00812177 0.187022 -0.0125648)
(0.00745925 0.19036 -0.0180685)
(0.00683413 0.196478 -0.0232838)
(0.00629038 0.206917 -0.0282232)
(0.00584213 0.224856 -0.032944)
(0.00541364 0.25827 -0.0372083)
(0.00465893 0.327365 -0.0392887)
(0.00261593 0.45721 -0.0340873)
(0.00142698 0.56111 -0.0231979)
(0.000254114 0.535905 -0.00941801)
(0.000473535 -0.21379 0.0357702)
(-0.000357163 -0.23868 0.0403562)
(-0.00405306 -0.218791 0.038019)
(-0.00890743 -0.161113 0.028397)
(-0.0124469 -0.0912769 -0.00107154)
(-0.0149784 -0.0510047 -0.0318682)
(-0.0166427 -0.0345963 -0.0467664)
(-0.0173311 -0.0253701 -0.0536173)
(-0.017292 -0.0174083 -0.0574293)
(-0.0165854 -0.00884115 -0.0598646)
(-0.0152618 0.000987013 -0.0613874)
(-0.0134435 0.0122709 -0.0620315)
(-0.0112315 0.0249278 -0.0616869)
(-0.00875978 0.0388541 -0.0601776)
(-0.00617719 0.0542094 -0.0572168)
(-0.00361356 0.0715508 -0.0522701)
(-0.00118833 0.0916952 -0.0444404)
(0.000955553 0.114847 -0.0329186)
(0.00275239 0.138406 -0.0190565)
(0.00428839 0.156665 -0.0077296)
(0.00558386 0.16762 -0.00177742)
(0.00668385 0.174298 0.000387717)
(0.00762733 0.179123 0.000280679)
(0.00836792 0.183118 -0.00154874)
(0.00884868 0.186869 -0.00477915)
(0.0090738 0.191027 -0.00897902)
(0.00908766 0.196392 -0.0136717)
(0.0089396 0.203967 -0.018507)
(0.00865765 0.215306 -0.0233285)
(0.00822769 0.233656 -0.0281308)
(0.0075446 0.267805 -0.032786)
(0.00624791 0.341937 -0.0356441)
(0.0037612 0.483305 -0.0309754)
(0.00229364 0.577628 -0.0213262)
(0.00104219 0.543078 -0.00937291)
(-0.000402172 -0.239187 0.0390048)
(-0.00341736 -0.248729 0.0351051)
(-0.0110246 -0.206441 0.0196958)
(-0.020876 -0.12142 0.00137821)
(-0.0258012 -0.0546262 -0.01474)
(-0.027357 -0.0276391 -0.0305855)
(-0.0275647 -0.0194482 -0.0370149)
(-0.0274834 -0.0137509 -0.0401404)
(-0.0272051 -0.00727778 -0.0422552)
(-0.0266379 0.000737605 -0.0438938)
(-0.0257836 0.0105286 -0.0451409)
(-0.024613 0.0223802 -0.045911)
(-0.0231693 0.0363522 -0.0459593)
(-0.0216386 0.0520889 -0.0448905)
(-0.0201323 0.0691812 -0.0422814)
(-0.0186475 0.0874524 -0.0377324)
(-0.0170622 0.106629 -0.0310146)
(-0.015143 0.125651 -0.0225843)
(-0.0127261 0.142438 -0.0141214)
(-0.00999604 0.155239 -0.00774458)
(-0.00727899 0.164427 -0.00408906)
(-0.00472467 0.171506 -0.00254028)
(-0.00239777 0.177597 -0.00254693)
(-0.000346347 0.183359 -0.00383326)
(0.00140973 0.189299 -0.00619467)
(0.00286772 0.195959 -0.00939203)
(0.00403007 0.204039 -0.0131526)
(0.00490216 0.214567 -0.0172343)
(0.00549173 0.229412 -0.0214891)
(0.00579113 0.252809 -0.025871)
(0.00568245 0.295687 -0.0301904)
(0.00469062 0.383203 -0.0328662)
(0.00244895 0.527387 -0.028662)
(0.00132919 0.601381 -0.020561)
(0.000830209 0.558519 -0.0104082)
(-0.00859914 -0.215368 0.0729295)
(-0.0189428 -0.213983 0.0686345)
(-0.0272718 -0.162951 0.0384365)
(-0.0292347 -0.113899 0.0100576)
(-0.0230425 -0.093946 0.000635019)
(-0.0164504 -0.0781997 -0.00534344)
(-0.0110238 -0.063764 -0.0104639)
(-0.00820893 -0.0514435 -0.0142639)
(-0.00776122 -0.0402107 -0.0167402)
(-0.00876134 -0.028174 -0.0181993)
(-0.0102265 -0.0141438 -0.0189838)
(-0.0115896 0.00205742 -0.0192703)
(-0.0125105 0.0200182 -0.0190833)
(-0.012913 0.0390168 -0.0183411)
(-0.0129189 0.0583371 -0.0168455)
(-0.012565 0.0773622 -0.0144726)
(-0.011785 0.0955305 -0.0113033)
(-0.0104989 0.112203 -0.00772836)
(-0.00874288 0.126716 -0.00442223)
(-0.00668939 0.138809 -0.00201763)
(-0.00452662 0.148878 -0.000739522)
(-0.0023929 0.15765 -0.00050395)
(-0.000369772 0.165794 -0.00118913)
(0.00149506 0.173837 -0.00270581)
(0.00317084 0.182246 -0.00496906)
(0.00463386 0.19152 -0.00787467)
(0.00586092 0.202307 -0.0112966)
(0.00681904 0.21559 -0.0151027)
(0.00745368 0.233205 -0.0191802)
(0.00767045 0.259544 -0.0234388)
(0.00721594 0.306845 -0.0275181)
(0.00551566 0.404524 -0.029331)
(0.00295478 0.555013 -0.0244128)
(0.00161267 0.615489 -0.0176056)
(0.00104155 0.565775 -0.00902486)
(-0.0106263 -0.165279 0.095929)
(-0.0139336 -0.220107 0.119253)
(-0.0107765 -0.240388 0.120372)
(-0.00270576 -0.243649 0.114066)
(0.0103028 -0.227477 0.102471)
(0.0245082 -0.194945 0.0883843)
(0.0376594 -0.149333 0.0715809)
(0.0478301 -0.099872 0.0534569)
(0.0532793 -0.0582621 0.0367852)
(0.0533711 -0.0297511 0.023425)
(0.0488622 -0.0113415 0.0140102)
(0.0415739 0.00363253 0.0086322)
(0.0333882 0.0198507 0.00650761)
(0.0259339 0.0378729 0.00623425)
(0.020105 0.0562474 0.00666709)
(0.0158036 0.0738127 0.00725553)
(0.0126919 0.0900101 0.00780837)
(0.0105329 0.104603 0.00822099)
(0.009159 0.117563 0.00836277)
(0.00840347 0.129066 0.00810977)
(0.00809884 0.139461 0.00740485)
(0.00810389 0.149191 0.00624794)
(0.00831678 0.158703 0.00465041)
(0.00864878 0.168429 0.00261737)
(0.00901357 0.178783 0.000150242)
(0.00934986 0.190279 -0.00274249)
(0.00961275 0.203648 -0.00604223)
(0.00975211 0.220144 -0.00972892)
(0.00971984 0.242359 -0.0138147)
(0.00945214 0.276376 -0.0183465)
(0.00873812 0.336588 -0.0230507)
(0.00693872 0.447562 -0.0256834)
(0.00421329 0.59155 -0.0215437)
(0.00253667 0.640212 -0.0156913)
(0.00150061 0.581857 -0.00786863)
(-0.00293009 -0.176245 0.0889453)
(0.00571738 -0.321115 0.120773)
(0.0150604 -0.37899 0.126931)
(0.0259322 -0.403433 0.128526)
(0.0371348 -0.407486 0.128291)
(0.0486742 -0.390385 0.125678)
(0.060192 -0.344981 0.119141)
(0.0707087 -0.271342 0.108592)
(0.079645 -0.182517 0.0968764)
(0.0864822 -0.0925825 0.0856266)
(0.089815 -0.014427 0.0736323)
(0.0891231 0.0402491 0.059378)
(0.0839386 0.0671457 0.0439094)
(0.0749578 0.0760053 0.0318977)
(0.0644577 0.081743 0.0257414)
(0.0544957 0.0905689 0.0238874)
(0.0462506 0.101521 0.0237307)
(0.0396774 0.11254 0.0235608)
(0.0344096 0.122756 0.022734)
(0.0301771 0.132225 0.0211853)
(0.0267755 0.141306 0.0190331)
(0.0240387 0.150365 0.016419)
(0.0218257 0.159707 0.013471)
(0.0200186 0.169631 0.0102916)
(0.0185242 0.180509 0.00694233)
(0.0172734 0.192854 0.00343329)
(0.0162037 0.207399 -0.000268703)
(0.015218 0.225229 -0.00421576)
(0.014198 0.248496 -0.00847084)
(0.0129822 0.282859 -0.0131199)
(0.0111922 0.344629 -0.0179272)
(0.00831177 0.465569 -0.0205461)
(0.0050213 0.613914 -0.0168967)
(0.00301408 0.657922 -0.0120157)
(0.00159341 0.593615 -0.00516996)
(0.00534876 -0.276197 0.0736323)
(0.0194343 -0.457579 0.0851508)
(0.0280161 -0.516713 0.080229)
(0.0345225 -0.531487 0.0735747)
(0.0399328 -0.523595 0.0666786)
(0.044054 -0.49461 0.0590898)
(0.0470245 -0.440292 0.0497463)
(0.048944 -0.367977 0.0404443)
(0.0506172 -0.291314 0.0362554)
(0.0537056 -0.214943 0.0393777)
(0.0589935 -0.13779 0.0487429)
(0.0650101 -0.0587182 0.0616502)
(0.0701519 0.0213065 0.0727098)
(0.0713463 0.0862986 0.072284)
(0.0668023 0.118165 0.0605648)
(0.0596743 0.127341 0.0487295)
(0.0523733 0.130567 0.0412988)
(0.0458092 0.134048 0.0372348)
(0.0402359 0.13875 0.0348553)
(0.0355224 0.144495 0.0329492)
(0.0315391 0.151116 0.0308219)
(0.0281795 0.158652 0.0281571)
(0.0253427 0.167272 0.0248663)
(0.0229256 0.177149 0.0210044)
(0.0208204 0.18846 0.016729)
(0.0189271 0.201528 0.0122427)
(0.0171713 0.217101 0.00770492)
(0.0155251 0.236871 0.00314604)
(0.0139921 0.264622 -0.00158531)
(0.0125347 0.308773 -0.00678019)
(0.0109781 0.386414 -0.0124251)
(0.00856387 0.515966 -0.016163)
(0.00546558 0.651976 -0.0137298)
(0.00345546 0.689853 -0.00939184)
(0.00185938 0.614839 -0.00297427)
(0.00117452 -0.38254 0.0660641)
(-0.00146709 -0.524571 0.0551922)
(-0.00490247 -0.554086 0.0448048)
(-0.00809352 -0.554746 0.0380032)
(-0.0104354 -0.536672 0.0319353)
(-0.0108783 -0.492177 0.0238857)
(-0.00750343 -0.414556 0.0108689)
(-0.000585379 -0.325811 -0.00425938)
(0.0069869 -0.250686 -0.013952)
(0.0134778 -0.192431 -0.0154297)
(0.0188344 -0.143357 -0.00865117)
(0.024036 -0.0941892 0.0065807)
(0.0301626 -0.0375137 0.0291528)
(0.0374333 0.0295287 0.0539041)
(0.0437403 0.0947035 0.068053)
(0.0457603 0.133793 0.0648305)
(0.0439273 0.146256 0.0555798)
(0.040475 0.149519 0.0487067)
(0.036424 0.151524 0.0442519)
(0.0325444 0.154051 0.0410608)
(0.0290998 0.157686 0.0383938)
(0.0260792 0.162842 0.0357692)
(0.023476 0.169867 0.032836)
(0.0212777 0.17908 0.0293405)
(0.0194315 0.190769 0.025143)
(0.0178562 0.205169 0.0202536)
(0.0164333 0.222528 0.0148347)
(0.0150582 0.243454 0.00914793)
(0.0136531 0.269975 0.00342788)
(0.0121336 0.309066 -0.00224529)
(0.0103262 0.382182 -0.00762988)
(0.00793734 0.522224 -0.0109184)
(0.00503699 0.66724 -0.00887538)
(0.0031334 0.704497 -0.00533902)
(0.00157046 0.626091 -0.00017899)
(-0.0121847 -0.334285 0.0385448)
(-0.0233637 -0.483392 0.0243717)
(-0.0276499 -0.533868 0.0211319)
(-0.0289971 -0.555652 0.0207037)
(-0.0285062 -0.563222 0.0218037)
(-0.0256237 -0.558723 0.0241909)
(-0.0191896 -0.536299 0.0269704)
(-0.00840082 -0.483487 0.0268122)
(0.00570593 -0.402157 0.0219813)
(0.0205214 -0.310621 0.0144768)
(0.0329798 -0.225599 0.00652562)
(0.041169 -0.156708 0.00121031)
(0.0454434 -0.102873 0.0027743)
(0.0482592 -0.0529035 0.015114)
(0.0520112 0.00447661 0.0381522)
(0.056263 0.0706989 0.0632285)
(0.0579017 0.12495 0.073617)
(0.0552114 0.148435 0.067359)
(0.0502245 0.154312 0.0582254)
(0.0445249 0.157242 0.052095)
(0.0390462 0.16094 0.0480092)
(0.0343499 0.165746 0.0446122)
(0.0303554 0.172017 0.0412379)
(0.0269174 0.180363 0.0375947)
(0.0239732 0.191476 0.0335172)
(0.0214727 0.206079 0.0288964)
(0.0193404 0.225064 0.0236783)
(0.0174741 0.25014 0.0178171)
(0.0157562 0.285398 0.01117)
(0.0140417 0.339989 0.00359615)
(0.0120686 0.430985 -0.00408321)
(0.00953781 0.573143 -0.0084178)
(0.00635 0.705438 -0.00675908)
(0.00398809 0.738905 -0.00336335)
(0.00203214 0.6498 0.00133529)
(-0.00652879 -0.251808 0.0109598)
(-0.00123086 -0.477242 0.0141473)
(0.00424154 -0.572714 0.0155733)
(0.0103519 -0.611405 0.0137444)
(0.0152548 -0.626724 0.0103535)
(0.0185343 -0.627771 0.00540389)
(0.0198082 -0.616138 -0.000419553)
(0.0196979 -0.58995 -0.00425241)
(0.0206178 -0.540949 -0.00257851)
(0.0254305 -0.463304 0.0043088)
(0.0346092 -0.360692 0.0117172)
(0.0454506 -0.245593 0.0135771)
(0.0533723 -0.143046 0.00826761)
(0.0562871 -0.0724235 0.00242871)
(0.0563929 -0.02608 0.00326148)
(0.0567554 0.0154164 0.0150677)
(0.0589482 0.0674364 0.03994)
(0.0609685 0.126471 0.0672602)
(0.0588988 0.164695 0.0765205)
(0.0533811 0.173707 0.0685708)
(0.0470845 0.172537 0.0583259)
(0.040923 0.172564 0.0512581)
(0.0355647 0.17585 0.046576)
(0.0310998 0.182271 0.0426759)
(0.0273982 0.191944 0.0385534)
(0.0243313 0.205422 0.0337335)
(0.0217773 0.223507 0.0280892)
(0.01958 0.247229 0.0217416)
(0.0175131 0.279034 0.0148763)
(0.0152086 0.327445 0.00746752)
(0.0119199 0.416653 -0.000216696)
(0.00743286 0.572356 -0.004923)
(0.0037457 0.715692 -0.00358056)
(0.00177951 0.748282 -0.00113409)
(0.000621827 0.658296 0.00222364)
(0.00441277 -0.310187 0.0206149)
(0.019618 -0.553196 0.0312384)
(0.0264216 -0.637626 0.0279404)
(0.0294392 -0.657365 0.0216316)
(0.0307388 -0.65172 0.0136938)
(0.0308043 -0.627891 0.00234943)
(0.0288619 -0.586408 -0.0146243)
(0.0241759 -0.537234 -0.0350819)
(0.0175402 -0.497795 -0.048466)
(0.0114287 -0.464886 -0.0479489)
(0.00891906 -0.417636 -0.0333953)
(0.0127478 -0.335028 -0.0113061)
(0.0214204 -0.219801 0.00330877)
(0.0285907 -0.110125 0.00327329)
(0.0313925 -0.0362973 -0.00146665)
(0.0321926 0.0083597 -0.00215349)
(0.0331877 0.0431864 0.00439936)
(0.0356631 0.0834329 0.0219151)
(0.0392101 0.131994 0.048612)
(0.0404667 0.17413 0.0709711)
(0.0375372 0.193763 0.0766539)
(0.0327683 0.196314 0.0704334)
(0.0280975 0.195265 0.0618062)
(0.0239583 0.196938 0.0543711)
(0.0203617 0.203103 0.04821)
(0.0172457 0.214751 0.0425302)
(0.0146657 0.233343 0.0366385)
(0.0126493 0.261552 0.0299757)
(0.0111539 0.305281 0.0219705)
(0.0101804 0.376894 0.0122051)
(0.00953203 0.49415 0.00169625)
(0.00746414 0.648133 -0.00487386)
(0.00474344 0.758509 -0.0045713)
(0.00287882 0.781705 -0.00217022)
(0.00141399 0.671943 0.00160371)
(0.00653966 -0.402037 0.0217061)
(0.0112126 -0.597092 0.0259556)
(0.00878286 -0.641578 0.0242493)
(0.00497359 -0.648126 0.0230335)
(0.000963806 -0.639107 0.0213607)
(-0.00250504 -0.615865 0.0175365)
(-0.00482818 -0.572553 0.00736791)
(-0.0056857 -0.506901 -0.013743)
(-0.00693387 -0.444111 -0.0365776)
(-0.00936331 -0.403883 -0.0481864)
(-0.0121657 -0.374962 -0.0481229)
(-0.0142571 -0.336656 -0.0348255)
(-0.0115336 -0.261577 -0.0115766)
(-0.00427028 -0.158952 0.000912068)
(0.00243827 -0.07366 -0.000870185)
(0.00743131 -0.0180597 -0.00418812)
(0.0110533 0.0206501 -0.0035032)
(0.014249 0.0548937 0.00293184)
(0.0176553 0.0922357 0.0174568)
(0.0207685 0.131084 0.0378403)
(0.0221329 0.160917 0.0543075)
(0.0218983 0.176884 0.0612805)
(0.0208913 0.184188 0.0612649)
(0.0195213 0.188824 0.0577193)
(0.0180525 0.19456 0.0526389)
(0.0166071 0.203657 0.0469203)
(0.0151546 0.217776 0.0408523)
(0.0136432 0.238564 0.0346022)
(0.0119842 0.269252 0.0281941)
(0.00993341 0.320675 0.0210678)
(0.00757705 0.424743 0.0121317)
(0.005472 0.606888 0.00362625)
(0.00296455 0.751096 0.00178717)
(0.00141765 0.780076 0.00296023)
(0.000575995 0.676617 0.0051257)
(0.00168786 -0.446453 0.037578)
(-0.00512973 -0.599935 0.0358063)
(-0.0138644 -0.633292 0.0298231)
(-0.0222919 -0.640597 0.026502)
(-0.0307116 -0.63527 0.0252686)
(-0.0381007 -0.617985 0.0245941)
(-0.0434177 -0.585848 0.0215199)
(-0.0447846 -0.535867 0.0126121)
(-0.042144 -0.477407 -0.000700446)
(-0.0387307 -0.427357 -0.0108382)
(-0.0363426 -0.386268 -0.015502)
(-0.0351615 -0.345743 -0.0138464)
(-0.0338249 -0.292564 -0.00206882)
(-0.0283939 -0.213849 0.0152421)
(-0.0205539 -0.131836 0.0208355)
(-0.0145659 -0.0703048 0.0175515)
(-0.0108525 -0.0219886 0.0152025)
(-0.00891588 0.0240168 0.0190529)
(-0.00741127 0.0722863 0.0313185)
(-0.00524705 0.116812 0.0487844)
(-0.00264853 0.147467 0.0629373)
(-0.000349766 0.163538 0.0693989)
(0.00126217 0.171941 0.0698755)
(0.0022508 0.178872 0.0667931)
(0.00292894 0.188324 0.0616374)
(0.00351205 0.20308 0.0550612)
(0.00410022 0.225822 0.0471963)
(0.00467683 0.260227 0.0380179)
(0.00514237 0.313299 0.0275802)
(0.0052251 0.39835 0.0165804)
(0.00360135 0.529482 0.00738007)
(0.000559761 0.690323 0.00247077)
(-0.000873121 0.793173 0.00192067)
(-0.00122835 0.80882 0.00297369)
(-0.000843363 0.68418 0.00520744)
(-0.00648827 -0.407276 0.0237063)
(-0.016521 -0.5239 -0.00839179)
(-0.0232977 -0.553219 -0.0228627)
(-0.0290893 -0.564067 -0.0281378)
(-0.0342336 -0.566467 -0.0274562)
(-0.0382566 -0.562604 -0.0221452)
(-0.0406612 -0.552881 -0.0135837)
(-0.0410612 -0.535161 -0.00380935)
(-0.0391954 -0.504209 0.00354744)
(-0.0356125 -0.460201 0.00603246)
(-0.0319839 -0.412087 0.00558661)
(-0.0292664 -0.365283 0.0051266)
(-0.027334 -0.318003 0.00816763)
(-0.0248468 -0.261721 0.0200594)
(-0.0193157 -0.188058 0.040052)
(-0.0113501 -0.109324 0.0574595)
(-0.00343944 -0.0418584 0.0676972)
(0.00325268 0.010648 0.0719533)
(0.00768304 0.0488138 0.0719875)
(0.00924275 0.0758709 0.0705558)
(0.00880107 0.097726 0.0700594)
(0.00798146 0.116895 0.0708801)
(0.00773859 0.132013 0.0713011)
(0.00787403 0.143601 0.0704028)
(0.00798349 0.154233 0.0682385)
(0.00785085 0.167128 0.0648117)
(0.0073953 0.185723 0.0600514)
(0.00665555 0.213471 0.0540486)
(0.00585812 0.25602 0.0465427)
(0.00568893 0.328756 0.0361259)
(0.00684115 0.46304 0.0221203)
(0.00609198 0.652458 0.0119601)
(0.00426151 0.77605 0.010061)
(0.00273557 0.795431 0.010769)
(0.00149392 0.673603 0.011825)
(-0.0105573 -0.340671 0.000174905)
(-0.0129206 -0.502502 -0.0207756)
(-0.0100234 -0.557743 -0.0253388)
(-0.00557931 -0.583492 -0.0273582)
(-0.000761235 -0.596809 -0.0288363)
(0.00379362 -0.601459 -0.030026)
(0.00751882 -0.598097 -0.0304582)
(0.0101214 -0.586478 -0.0291063)
(0.0117358 -0.565464 -0.0246967)
(0.0131009 -0.53193 -0.0174615)
(0.0151194 -0.485344 -0.0100719)
(0.0177284 -0.432379 -0.00530119)
(0.0202353 -0.38177 -0.00453148)
(0.0221364 -0.338627 -0.00678758)
(0.023702 -0.300165 -0.00804415)
(0.0261586 -0.256595 -0.0027641)
(0.0306195 -0.199753 0.0125865)
(0.0369828 -0.130045 0.0363325)
(0.0443204 -0.0489833 0.0661597)
(0.050572 0.0326534 0.0969784)
(0.0528306 0.0896739 0.118414)
(0.0505286 0.109585 0.123231)
(0.0455145 0.110737 0.11612)
(0.0404565 0.114907 0.104033)
(0.0365423 0.129365 0.0907165)
(0.0332633 0.152245 0.0785707)
(0.0301218 0.182206 0.0677101)
(0.0271184 0.222323 0.0566854)
(0.0241206 0.277644 0.0457443)
(0.0201057 0.359708 0.0368783)
(0.0163818 0.50093 0.0290834)
(0.0148739 0.693838 0.0188315)
(0.0118582 0.805643 0.0144495)
(0.00805656 0.823446 0.0146528)
(0.00369274 0.692078 0.0156479)
(-0.00315028 -0.298283 -0.0109968)
(0.00657635 -0.525732 -0.0271654)
(0.0143497 -0.607173 -0.0355666)
(0.0217337 -0.635502 -0.0409903)
(0.0277605 -0.642667 -0.0456623)
(0.0325415 -0.636706 -0.0508355)
(0.0357772 -0.619457 -0.0571161)
(0.0372901 -0.59267 -0.0642392)
(0.037136 -0.560751 -0.0703723)
(0.0357996 -0.528616 -0.0723457)
(0.0341505 -0.495902 -0.0675105)
(0.0333001 -0.456726 -0.0552828)