/*--------------------------------*- C++ -*----------------------------------*\
| =========                 |                                                 |
| \\      /  F ield         | OpenFOAM: The Open Source CFD Toolbox           |
|  \\    /   O peration     | Version:  v2006                                 |
|   \\  /    A nd           | Website:  www.openfoam.com                      |
|    \\/     M anipulation  |                                                 |
\*---------------------------------------------------------------------------*/
FoamFile
{
    version     2.0;
    format      ascii;
    class       volScalarField;
    location    "45";
    object      alphat;
}
// * * * * * * * * * * * * * * * * * * * * * * * * * * * * * * * * * * * * * //

dimensions      [1 -1 -1 0 0 0 0];


internalField   nonuniform List<scalar> 
78750
(
1.03445e-08
3.07573e-07
3.39899e-07
3.54151e-07
3.55808e-07
3.48163e-07
3.35057e-07
3.19681e-07
3.0426e-07
2.90159e-07
2.78113e-07
2.68425e-07
2.61142e-07
2.56125e-07
2.53105e-07
2.52016e-07
2.52734e-07
2.55041e-07
2.5874e-07
2.63666e-07
2.69651e-07
2.76497e-07
2.83952e-07
2.91658e-07
2.99095e-07
3.0548e-07
3.09637e-07
3.09822e-07
3.03549e-07
2.87568e-07
2.58631e-07
2.16004e-07
1.64919e-07
1.19433e-07
4.07104e-09
6.9047e-10
7.80659e-07
1.55444e-06
2.12037e-06
2.55144e-06
2.86405e-06
3.08738e-06
3.24963e-06
3.37185e-06
3.46712e-06
3.54386e-06
3.60783e-06
3.66322e-06
3.71314e-06
3.75975e-06
3.80513e-06
3.85035e-06
3.89536e-06
3.93938e-06
3.98094e-06
4.01784e-06
4.04711e-06
4.06497e-06
4.06668e-06
4.04627e-06
3.99597e-06
3.90545e-06
3.76113e-06
3.54645e-06
2.96174e-06
1.76413e-06
1.10705e-06
9.42236e-07
1.10419e-06
1.73831e-08
6.56728e-10
6.61714e-07
1.19719e-06
1.66607e-06
2.05185e-06
2.35181e-06
2.57655e-06
2.74432e-06
2.87397e-06
2.97977e-06
3.07077e-06
3.15122e-06
3.22211e-06
3.28288e-06
3.33267e-06
3.37119e-06
3.39925e-06
3.41935e-06
3.43667e-06
3.45383e-06
3.47438e-06
3.50023e-06
3.53619e-06
3.58466e-06
3.64514e-06
3.7127e-06
3.77575e-06
3.81348e-06
3.11924e-06
2.31128e-06
1.70478e-06
1.42338e-06
1.78551e-06
1.30258e-06
2.73929e-08
8.14045e-10
6.77401e-07
1.25261e-06
1.82042e-06
2.37258e-06
2.90688e-06
3.42465e-06
3.92689e-06
4.41147e-06
4.8722e-06
5.29948e-06
5.68168e-06
6.00682e-06
6.2639e-06
6.44404e-06
6.54122e-06
6.55275e-06
6.4799e-06
6.32902e-06
6.10702e-06
5.82486e-06
5.4968e-06
5.13853e-06
4.77028e-06
4.41502e-06
4.0987e-06
3.84961e-06
2.93077e-06
2.17053e-06
1.67896e-06
1.41514e-06
1.4346e-06
2.36351e-06
1.32878e-06
3.4964e-08
1.39755e-09
1.22805e-06
2.73387e-06
4.06882e-06
5.40794e-06
6.71266e-06
7.95276e-06
9.10374e-06
1.01447e-05
1.10582e-05
1.18306e-05
1.24518e-05
1.29155e-05
1.32185e-05
1.33613e-05
1.3347e-05
1.31817e-05
1.28738e-05
1.24344e-05
1.18771e-05
1.12181e-05
1.04761e-05
9.67126e-06
8.82624e-06
7.96674e-06
6.70751e-06
5.18844e-06
3.76365e-06
2.61181e-06
1.86022e-06
1.5037e-06
1.58225e-06
2.90257e-06
1.31636e-06
4.49797e-08
2.84474e-09
1.65806e-06
3.86287e-06
6.57814e-06
9.56777e-06
1.18907e-05
1.36451e-05
1.51656e-05
1.64443e-05
1.74803e-05
1.82771e-05
1.88415e-05
1.91823e-05
1.93097e-05
1.92352e-05
1.89707e-05
1.85293e-05
1.7925e-05
1.71733e-05
1.62922e-05
1.53024e-05
1.42292e-05
1.31048e-05
1.16001e-05
9.75442e-06
7.87309e-06
6.03128e-06
4.36596e-06
3.0446e-06
2.16528e-06
1.73583e-06
1.85658e-06
3.59417e-06
1.35935e-06
5.46643e-08
4.4979e-09
1.94141e-06
4.45962e-06
7.68314e-06
1.1563e-05
1.58548e-05
1.77508e-05
1.93248e-05
2.05944e-05
2.15778e-05
2.22932e-05
2.27575e-05
2.29867e-05
2.29954e-05
2.27969e-05
2.24037e-05
2.18272e-05
2.1078e-05
2.01687e-05
1.89066e-05
1.69621e-05
1.50552e-05
1.3213e-05
1.13917e-05
9.55793e-06
7.70971e-06
5.91337e-06
4.31714e-06
3.08229e-06
2.2835e-06
1.92849e-06
2.19821e-06
4.4098e-06
1.41052e-06
6.30106e-08
6.1496e-09
2.04511e-06
4.62228e-06
7.94546e-06
1.20517e-05
1.68616e-05
2.08726e-05
2.2468e-05
2.37414e-05
2.47178e-05
2.54194e-05
2.58664e-05
2.60764e-05
2.60658e-05
2.5849e-05
2.54394e-05
2.48499e-05
2.30954e-05
2.09046e-05
1.88437e-05
1.69363e-05
1.51329e-05
1.33743e-05
1.15989e-05
9.76145e-06
7.864e-06
5.99953e-06
4.35483e-06
3.11249e-06
2.34199e-06
2.04534e-06
2.45288e-06
5.02313e-06
1.47463e-06
7.06125e-08
7.63076e-09
2.02804e-06
4.53872e-06
7.84885e-06
1.2146e-05
1.75335e-05
2.3263e-05
2.4886e-05
2.61655e-05
2.71306e-05
2.78071e-05
2.82186e-05
2.83864e-05
2.83303e-05
2.80684e-05
2.7618e-05
2.57496e-05
2.32463e-05
2.09008e-05
1.87699e-05
1.68192e-05
1.49992e-05
1.32529e-05
1.15188e-05
9.74253e-06
7.90459e-06
6.07528e-06
4.4406e-06
3.20125e-06
2.44548e-06
2.19451e-06
2.74244e-06
5.53203e-06
1.5303e-06
7.81528e-08
9.51246e-09
2.00376e-06
4.49752e-06
7.92291e-06
1.25953e-05
1.86423e-05
2.52412e-05
2.73631e-05
2.86195e-05
2.95442e-05
3.01676e-05
3.05166e-05
3.06154e-05
3.0486e-05
3.01486e-05
2.84916e-05
2.57761e-05
2.31742e-05
2.08055e-05
1.86489e-05
1.66635e-05
1.48031e-05
1.30191e-05
1.12648e-05
9.50439e-06
7.72523e-06
5.97871e-06
4.42119e-06
3.23731e-06
2.52246e-06
2.32439e-06
3.00811e-06
5.92076e-06
1.58311e-06
8.52975e-08
1.15186e-08
2.01405e-06
4.54552e-06
8.14017e-06
1.32105e-05
1.98445e-05
2.69274e-05
2.96026e-05
3.08226e-05
3.17009e-05
3.22715e-05
3.25636e-05
3.26028e-05
3.24119e-05
3.10126e-05
2.81738e-05
2.53915e-05
2.28466e-05
2.05344e-05
1.84157e-05
1.64431e-05
1.45698e-05
1.27532e-05
1.0963e-05
9.19132e-06
7.45033e-06
5.78835e-06
4.3327e-06
3.23633e-06
2.58737e-06
2.45844e-06
3.2934e-06
6.19989e-06
1.62784e-06
9.20592e-08
1.38455e-08
2.03442e-06
4.61501e-06
8.38289e-06
1.38248e-05
2.09271e-05
2.82622e-05
3.17528e-05
3.29268e-05
3.37538e-05
3.427e-05
3.45063e-05
3.44895e-05
3.32417e-05
3.04181e-05
2.75715e-05
2.49214e-05
2.24951e-05
2.0271e-05
1.8206e-05
1.62528e-05
1.43663e-05
1.25109e-05
1.06716e-05
8.86742e-06
7.14161e-06
5.54897e-06
4.19407e-06
3.19521e-06
2.62494e-06
2.57504e-06
3.5657e-06
6.38777e-06
1.6683e-06
9.84797e-08
1.61952e-08
2.06038e-06
4.69428e-06
8.62536e-06
1.44031e-05
2.19071e-05
2.94258e-05
3.37119e-05
3.48509e-05
3.56382e-05
3.61115e-05
3.63027e-05
3.54057e-05
3.26894e-05
2.98233e-05
2.70844e-05
2.45481e-05
2.22232e-05
2.00785e-05
1.80649e-05
1.61312e-05
1.42316e-05
1.23348e-05
1.04396e-05
8.59157e-06
6.8641e-06
5.32127e-06
4.0515e-06
3.14342e-06
2.65311e-06
2.68797e-06
3.84282e-06
6.49138e-06
1.70326e-06
1.04683e-07
1.87473e-08
2.08897e-06
4.77378e-06
8.85468e-06
1.49356e-05
2.27714e-05
3.03772e-05
3.56382e-05
3.67441e-05
3.74944e-05
3.79284e-05
3.72729e-05
3.48361e-05
3.2071e-05
2.93001e-05
2.66702e-05
2.42394e-05
2.20058e-05
1.99314e-05
1.79627e-05
1.6045e-05
1.41312e-05
1.21941e-05
1.02449e-05
8.35282e-06
6.61916e-06
5.11596e-06
3.91789e-06
3.08941e-06
2.67317e-06
2.79124e-06
4.10887e-06
6.54412e-06
1.73513e-06
1.10772e-07
2.12822e-08
2.11507e-06
4.8429e-06
9.05069e-06
1.53922e-05
2.3512e-05
3.11551e-05
3.63918e-05
3.8478e-05
3.92004e-05
3.87871e-05
3.68474e-05
3.43211e-05
3.15863e-05
2.88831e-05
2.63393e-05
2.3997e-05
2.18426e-05
1.98307e-05
1.79025e-05
1.59991e-05
1.40709e-05
1.20931e-05
1.00896e-05
8.15255e-06
6.40902e-06
4.93742e-06
3.80029e-06
3.04178e-06
2.69401e-06
2.89408e-06
4.3766e-06
6.55434e-06
1.76354e-06
1.16785e-07
2.39689e-08
2.13927e-06
4.90551e-06
9.23145e-06
1.58184e-05
2.41921e-05
3.18388e-05
3.68594e-05
3.92696e-05
3.96395e-05
3.85359e-05
3.648e-05
3.39214e-05
3.12069e-05
2.85594e-05
2.6086e-05
2.38145e-05
2.17223e-05
1.97586e-05
1.78605e-05
1.59656e-05
1.40222e-05
1.20078e-05
9.95686e-06
7.98128e-06
6.23003e-06
4.78571e-06
3.70028e-06
3.0019e-06
2.7155e-06
2.99387e-06
4.63889e-06
6.54427e-06
1.78984e-06
1.2275e-07
2.666e-08
2.16036e-06
4.9603e-06
9.39294e-06
1.62014e-05
2.47935e-05
3.2428e-05
3.72515e-05
3.94196e-05
3.95755e-05
3.83166e-05
3.61736e-05
3.35935e-05
3.09086e-05
2.8318e-05
2.59105e-05
2.37019e-05
2.16624e-05
1.97363e-05
1.78578e-05
1.59614e-05
1.39944e-05
1.19382e-05
9.83897e-06
7.82784e-06
6.07202e-06
4.65443e-06
3.61598e-06
2.97153e-06
2.74163e-06
3.09638e-06
4.9051e-06
6.51635e-06
1.8139e-06
1.28635e-07
2.94966e-08
2.17987e-06
5.01196e-06
9.55027e-06
1.65766e-05
2.53645e-05
3.29535e-05
3.75702e-05
3.95107e-05
3.94769e-05
3.80921e-05
3.58935e-05
3.33196e-05
3.06802e-05
2.81507e-05
2.58048e-05
2.36498e-05
2.16514e-05
1.97512e-05
1.78818e-05
1.59762e-05
1.39811e-05
1.1882e-05
9.73615e-06
7.69248e-06
5.93388e-06
4.54156e-06
3.54556e-06
2.9495e-06
2.7717e-06
3.20066e-06
5.1727e-06
6.48221e-06
1.83656e-06
1.34421e-07
3.23678e-08
2.19704e-06
5.05964e-06
9.70085e-06
1.69374e-05
2.59031e-05
3.3436e-05
3.78577e-05
3.9594e-05
3.9397e-05
3.79111e-05
3.56774e-05
3.31223e-05
3.05333e-05
2.80647e-05
2.57768e-05
2.36691e-05
2.17034e-05
1.98186e-05
1.79465e-05
1.60195e-05
1.3986e-05
1.18374e-05
9.64361e-06
7.56981e-06
5.81121e-06
4.44418e-06
3.48774e-06
2.93606e-06
2.80714e-06
3.30939e-06
5.44653e-06
6.44127e-06
1.85761e-06
1.40062e-07
3.53801e-08
2.21401e-06
5.10875e-06
9.85809e-06
1.73094e-05
2.64347e-05
3.38794e-05
3.80937e-05
3.96335e-05
3.92933e-05
3.77316e-05
3.54865e-05
3.29681e-05
3.04404e-05
2.80375e-05
2.58082e-05
2.3746e-05
2.18092e-05
1.99347e-05
1.80532e-05
1.6097e-05
1.4017e-05
1.18122e-05
9.5666e-06
7.46178e-06
5.70334e-06
4.36063e-06
3.44112e-06
2.93058e-06
2.84802e-06
3.42307e-06
5.72667e-06
6.39995e-06
1.87769e-06
1.45531e-07
3.84565e-08
2.23051e-06
5.15854e-06
1.00186e-05
1.76836e-05
2.69506e-05
3.42909e-05
3.83014e-05
3.96586e-05
3.91929e-05
3.75735e-05
3.53325e-05
3.28612e-05
3.04004e-05
2.80662e-05
2.58964e-05
2.3878e-05
2.19665e-05
2.00977e-05
1.82012e-05
1.62093e-05
1.40762e-05
1.18098e-05
9.50883e-06
7.37138e-06
5.61181e-06
4.29103e-06
3.40516e-06
2.93257e-06
2.89427e-06
3.54217e-06
6.014e-06
6.3572e-06
1.89656e-06
1.50793e-07
4.16573e-08
2.24753e-06
5.21149e-06
1.01891e-05
1.80743e-05
2.74676e-05
3.46807e-05
3.84823e-05
3.96643e-05
3.9087e-05
3.74252e-05
3.52018e-05
3.27872e-05
3.03994e-05
2.81377e-05
2.60294e-05
2.40557e-05
2.21689e-05
2.03035e-05
1.83881e-05
1.63548e-05
1.4162e-05
1.18285e-05
9.46916e-06
7.29796e-06
5.5363e-06
4.23532e-06
3.38006e-06
2.94251e-06
2.94667e-06
3.66791e-06
6.30952e-06
6.31702e-06
1.91476e-06
1.55822e-07
4.49278e-08
2.26508e-06
5.26725e-06
1.0367e-05
1.84729e-05
2.79736e-05
3.5044e-05
3.86392e-05
3.96566e-05
3.89807e-05
3.72889e-05
3.50925e-05
3.27411e-05
3.04304e-05
2.82441e-05
2.61998e-05
2.4273e-05
2.24128e-05
2.05516e-05
1.86162e-05
1.6539e-05
1.42822e-05
1.18764e-05
9.45414e-06
7.24571e-06
5.47871e-06
4.19382e-06
3.36537e-06
2.95977e-06
3.00465e-06
3.79974e-06
6.61177e-06
6.27903e-06
1.93215e-06
1.60606e-07
4.83077e-08
2.2837e-06
5.32691e-06
1.0555e-05
1.88852e-05
2.8475e-05
3.53845e-05
3.87722e-05
3.96324e-05
3.88682e-05
3.71562e-05
3.49943e-05
3.27107e-05
3.04802e-05
2.83718e-05
2.63939e-05
2.45164e-05
2.26851e-05
2.0829e-05
1.88734e-05
1.67507e-05
1.44278e-05
1.19477e-05
9.46105e-06
7.21419e-06
5.43972e-06
4.16753e-06
3.36208e-06
2.9852e-06
3.06899e-06
3.93844e-06
6.92056e-06
6.24484e-06
1.94899e-06
1.65128e-07
5.17427e-08
2.30286e-06
5.38882e-06
1.07485e-05
1.93019e-05
2.89639e-05
3.57046e-05
3.88915e-05
3.96041e-05
3.87607e-05
3.70353e-05
3.49116e-05
3.26973e-05
3.05479e-05
2.8519e-05
2.66101e-05
2.47856e-05
2.29868e-05
2.11388e-05
1.9164e-05
1.69948e-05
1.46038e-05
1.20463e-05
9.49247e-06
7.20455e-06
5.41943e-06
4.15601e-06
3.36965e-06
3.01841e-06
3.13952e-06
4.08415e-06
7.23546e-06
6.21566e-06
1.96548e-06
1.69391e-07
5.52621e-08
2.32296e-06
5.45384e-06
1.09499e-05
1.9727e-05
2.94426e-05
3.6003e-05
3.89916e-05
3.95642e-05
3.86492e-05
3.69157e-05
3.48327e-05
3.26883e-05
3.06202e-05
2.86718e-05
2.68343e-05
2.50663e-05
2.3304e-05
2.14678e-05
1.94767e-05
1.72626e-05
1.48036e-05
1.21689e-05
9.54757e-06
7.21747e-06
5.41904e-06
4.16045e-06
3.38901e-06
3.05996e-06
3.21631e-06
4.23597e-06
7.5526e-06
6.18986e-06
1.98125e-06
1.73385e-07
5.88179e-08
2.34335e-06
5.52007e-06
1.11541e-05
2.01513e-05
2.99048e-05
3.62821e-05
3.9081e-05
3.95226e-05
3.85424e-05
3.68038e-05
3.47615e-05
3.26855e-05
3.06975e-05
2.88298e-05
2.70657e-05
2.53576e-05
2.3636e-05
2.18157e-05
1.98113e-05
1.75538e-05
1.50271e-05
1.23151e-05
9.62555e-06
7.25201e-06
5.43762e-06
4.18014e-06
3.41979e-06
3.10992e-06
3.30006e-06
4.39597e-06
7.87606e-06
6.17188e-06
1.99728e-06
1.77132e-07
6.24219e-08
2.36404e-06
5.58749e-06
1.13619e-05
2.05772e-05
3.03539e-05
3.65446e-05
3.91602e-05
3.94774e-05
3.84366e-05
3.6694e-05
3.4691e-05
3.2681e-05
3.07713e-05
2.8984e-05
2.7295e-05
2.56502e-05
2.39736e-05
2.21737e-05
2.01603e-05
1.78625e-05
1.52703e-05
1.24822e-05
9.72567e-06
7.30862e-06
5.47613e-06
4.21613e-06
3.46293e-06
3.16887e-06
3.39056e-06
4.5616e-06
8.19664e-06
6.15637e-06
2.01258e-06
1.80628e-07
6.60415e-08
2.38459e-06
5.65488e-06
1.15702e-05
2.09998e-05
3.0788e-05
3.67943e-05
3.92352e-05
3.94348e-05
3.8336e-05
3.65888e-05
3.46224e-05
3.26753e-05
3.08418e-05
2.91343e-05
2.75215e-05
2.59424e-05
2.43147e-05
2.25395e-05
2.05208e-05
1.8186e-05
1.55303e-05
1.26676e-05
9.84513e-06
7.3847e-06
5.53249e-06
4.2671e-06
3.5178e-06
3.23673e-06
3.48841e-06
4.73594e-06
8.52602e-06
6.15037e-06
2.02805e-06
1.83902e-07
6.96768e-08
2.40472e-06
5.72145e-06
1.17778e-05
2.14189e-05
3.12106e-05
3.70373e-05
3.93106e-05
3.93957e-05
3.82386e-05
3.64844e-05
3.45515e-05
3.26643e-05
3.09047e-05
2.92761e-05
2.77399e-05
2.62286e-05
2.46528e-05
2.29065e-05
2.08872e-05
1.85195e-05
1.5804e-05
1.28698e-05
9.98341e-06
7.48034e-06
5.60693e-06
4.33336e-06
3.58489e-06
3.31426e-06
3.59478e-06
4.92061e-06
8.86376e-06
6.15569e-06
2.0444e-06
1.86973e-07
7.33079e-08
2.42418e-06
5.78657e-06
1.19831e-05
2.18321e-05
3.16231e-05
3.72754e-05
3.93905e-05
3.93628e-05
3.81446e-05
3.63807e-05
3.44789e-05
3.26496e-05
3.0962e-05
2.94111e-05
2.79512e-05
2.65086e-05
2.49872e-05
2.3273e-05
2.12567e-05
1.88598e-05
1.60879e-05
1.30848e-05
1.01366e-05
7.59224e-06
5.69691e-06
4.41324e-06
3.66336e-06
3.40129e-06
3.70992e-06
5.1158e-06
9.20761e-06
6.16923e-06
2.06147e-06
1.89854e-07
7.69332e-08
2.44293e-06
5.84993e-06
1.21843e-05
2.22306e-05
3.2003e-05
3.74768e-05
3.94415e-05
3.93165e-05
3.80437e-05
3.62722e-05
3.44018e-05
3.2629e-05
3.10117e-05
2.95367e-05
2.81523e-05
2.67788e-05
2.53133e-05
2.36342e-05
2.16251e-05
1.92037e-05
1.63802e-05
1.33126e-05
1.03056e-05
7.72134e-06
5.80287e-06
4.50681e-06
3.75322e-06
3.49805e-06
3.83452e-06
5.32259e-06
9.55724e-06
6.19058e-06
2.07926e-06
1.92557e-07
8.05371e-08
2.46086e-06
5.91156e-06
1.23833e-05
2.2623e-05
3.2358e-05
3.76571e-05
3.94779e-05
3.92605e-05
3.79419e-05
3.61638e-05
3.43227e-05
3.26042e-05
3.1055e-05
2.96542e-05
2.83442e-05
2.70395e-05
2.56307e-05
2.39885e-05
2.19893e-05
1.95472e-05
1.66765e-05
1.35489e-05
1.04869e-05
7.86507e-06
5.92306e-06
4.61297e-06
3.85387e-06
3.6043e-06
3.9684e-06
5.54027e-06
9.91101e-06
6.21792e-06
2.09759e-06
1.95094e-07
8.41067e-08
2.47782e-06
5.97025e-06
1.25743e-05
2.29944e-05
3.26783e-05
3.78047e-05
3.94881e-05
3.91851e-05
3.78292e-05
3.60471e-05
3.42361e-05
3.25726e-05
3.10916e-05
2.9764e-05
2.85269e-05
2.72904e-05
2.59387e-05
2.43352e-05
2.23488e-05
1.98901e-05
1.69773e-05
1.37949e-05
1.06821e-05
8.02496e-06
6.05853e-06
4.73218e-06
3.96533e-06
3.7199e-06
4.1118e-06
5.77065e-06
1.02682e-05
6.25176e-06
2.11654e-06
1.9749e-07
8.76263e-08
2.49401e-06
6.02696e-06
1.27596e-05
2.33479e-05
3.29713e-05
3.79304e-05
3.94808e-05
3.90952e-05
3.77051e-05
3.59234e-05
3.41446e-05
3.25336e-05
3.11164e-05
2.98597e-05
2.86962e-05
2.75289e-05
2.62347e-05
2.46704e-05
2.26986e-05
2.02264e-05
1.72761e-05
1.40447e-05
1.08865e-05
8.19788e-06
6.20774e-06
4.86396e-06
4.08767e-06
3.84526e-06
4.26563e-06
6.01521e-06
1.06294e-05
6.29135e-06
2.13599e-06
1.99762e-07
9.11104e-08
2.50947e-06
6.08191e-06
1.29407e-05
2.36872e-05
3.32404e-05
3.80315e-05
3.94536e-05
3.89908e-05
3.75711e-05
3.57942e-05
3.40483e-05
3.24899e-05
3.11368e-05
2.99491e-05
2.88538e-05
2.77512e-05
2.65154e-05
2.49929e-05
2.30385e-05
2.05569e-05
1.75744e-05
1.42996e-05
1.11013e-05
8.38459e-06
6.37103e-06
5.0085e-06
4.22109e-06
3.98062e-06
4.42999e-06
6.27294e-06
1.09948e-05
6.33795e-06
2.15623e-06
2.01937e-07
9.45392e-08
2.52402e-06
6.1352e-06
1.31197e-05
2.40099e-05
3.34824e-05
3.81085e-05
3.94061e-05
3.88689e-05
3.7422e-05
3.56561e-05
3.39422e-05
3.24337e-05
3.11427e-05
3.00237e-05
2.89985e-05
2.79615e-05
2.67799e-05
2.52973e-05
2.33629e-05
2.08758e-05
1.78663e-05
1.45545e-05
1.13224e-05
8.58266e-06
6.54728e-06
5.16549e-06
4.36568e-06
4.12616e-06
4.60487e-06
6.54342e-06
1.1364e-05
6.3902e-06
2.17706e-06
2.04035e-07
9.79162e-08
2.53752e-06
6.18615e-06
1.32945e-05
2.43169e-05
3.36994e-05
3.81616e-05
3.93383e-05
3.87302e-05
3.72587e-05
3.5505e-05
3.38249e-05
3.2368e-05
3.11395e-05
3.00882e-05
2.91311e-05
2.81584e-05
2.70321e-05
2.55885e-05
2.36724e-05
2.11826e-05
1.8151e-05
1.48081e-05
1.15482e-05
8.79056e-06
6.73551e-06
5.33461e-06
4.52156e-06
4.28229e-06
4.79086e-06
6.82725e-06
1.17374e-05
6.44874e-06
2.19868e-06
2.06078e-07
1.0123e-07
2.54995e-06
6.23403e-06
1.34613e-05
2.46051e-05
3.389e-05
3.81911e-05
3.92504e-05
3.85742e-05
3.70802e-05
3.53398e-05
3.36944e-05
3.22885e-05
3.11217e-05
3.01371e-05
2.92475e-05
2.83385e-05
2.72671e-05
2.58635e-05
2.39665e-05
2.14733e-05
1.84235e-05
1.50556e-05
1.17743e-05
9.00466e-06
6.93343e-06
5.51478e-06
4.68848e-06
4.44911e-06
4.98825e-06
7.12488e-06
1.21152e-05
6.51203e-06
2.22089e-06
2.08073e-07
1.04492e-07
2.56191e-06
6.28061e-06
1.3624e-05
2.48794e-05
3.40583e-05
3.81991e-05
3.91436e-05
3.84018e-05
3.68874e-05
3.5162e-05
3.35524e-05
3.21981e-05
3.10927e-05
3.0174e-05
2.93502e-05
2.8503e-05
2.74848e-05
2.61206e-05
2.4244e-05
2.175e-05
1.86829e-05
1.52944e-05
1.19976e-05
9.22155e-06
7.13808e-06
5.70432e-06
4.86617e-06
4.62737e-06
5.19829e-06
7.43819e-06
1.24987e-05
6.57988e-06
2.24372e-06
2.10019e-07
1.07678e-07
2.57268e-06
6.32386e-06
1.37783e-05
2.51344e-05
3.42013e-05
3.81844e-05
3.9017e-05
3.82119e-05
3.66786e-05
3.49691e-05
3.33959e-05
3.20931e-05
3.10486e-05
3.01949e-05
2.94359e-05
2.86495e-05
2.76836e-05
2.63583e-05
2.45027e-05
2.20102e-05
1.89295e-05
1.55225e-05
1.22145e-05
9.43728e-06
7.34582e-06
5.90039e-06
5.05287e-06
4.81641e-06
5.42142e-06
7.76865e-06
1.28877e-05
6.6507e-06
2.26695e-06
2.11898e-07
1.10803e-07
2.58312e-06
6.36604e-06
1.39286e-05
2.53762e-05
3.43244e-05
3.81511e-05
3.88736e-05
3.80066e-05
3.64556e-05
3.47629e-05
3.32267e-05
3.19755e-05
3.09912e-05
3.02009e-05
2.95046e-05
2.87768e-05
2.78616e-05
2.65746e-05
2.47411e-05
2.22534e-05
1.9164e-05
1.57433e-05
1.2427e-05
9.65108e-06
7.55406e-06
6.10011e-06
5.24667e-06
5.01589e-06
5.65906e-06
8.11927e-06
1.32836e-05
6.72416e-06
2.2906e-06
2.13699e-07
1.13835e-07
2.59252e-06
6.40498e-06
1.407e-05
2.55984e-05
3.44235e-05
3.80958e-05
3.871e-05
3.77824e-05
3.62146e-05
3.45393e-05
3.3041e-05
3.18413e-05
3.09165e-05
3.01884e-05
2.95533e-05
2.88823e-05
2.8016e-05
2.67664e-05
2.49562e-05
2.24773e-05
1.93854e-05
1.59579e-05
1.2638e-05
9.86613e-06
7.76392e-06
6.30228e-06
5.44523e-06
5.22361e-06
5.90984e-06
8.48936e-06
1.36836e-05
6.79978e-06
2.31463e-06
2.15424e-07
1.16773e-07
2.6014e-06
6.44216e-06
1.42057e-05
2.58066e-05
3.45044e-05
3.80235e-05
3.85299e-05
3.7542e-05
3.59577e-05
3.43001e-05
3.28399e-05
3.16917e-05
3.08254e-05
3.0158e-05
2.95821e-05
2.89657e-05
2.81466e-05
2.69338e-05
2.51485e-05
2.26833e-05
1.95968e-05
1.61706e-05
1.28526e-05
1.00852e-05
7.97693e-06
6.50704e-06
5.64745e-06
5.43809e-06
6.17265e-06
8.8778e-06
1.40862e-05
6.87857e-06
2.33928e-06
2.17113e-07
1.196e-07
2.6094e-06
6.47636e-06
1.43329e-05
2.59964e-05
3.45635e-05
3.79305e-05
3.83297e-05
3.72818e-05
3.56814e-05
3.4042e-05
3.26205e-05
3.15235e-05
3.07149e-05
3.01067e-05
2.9588e-05
2.9024e-05
2.82498e-05
2.70727e-05
2.53138e-05
2.28681e-05
1.97969e-05
1.63837e-05
1.30769e-05
1.03167e-05
8.20017e-06
6.71827e-06
5.854e-06
5.65744e-06
6.44354e-06
9.27867e-06
1.44863e-05
6.96135e-06
2.36467e-06
2.1882e-07
1.22324e-07
2.61684e-06
6.50856e-06
1.44539e-05
2.61719e-05
3.46051e-05
3.78206e-05
3.81125e-05
3.70044e-05
3.5388e-05
3.37669e-05
3.23842e-05
3.1338e-05
3.05861e-05
3.00357e-05
2.95722e-05
2.90582e-05
2.83265e-05
2.71834e-05
2.54517e-05
2.30303e-05
1.99847e-05
1.6598e-05
1.33149e-05
1.05653e-05
8.43804e-06
6.93961e-06
6.06668e-06
5.88157e-06
6.72144e-06
9.68764e-06
1.48831e-05
7.0497e-06
2.39115e-06
2.20619e-07
1.24948e-07
2.62368e-06
6.53857e-06
1.45677e-05
2.63315e-05
3.4627e-05
3.76913e-05
3.7876e-05
3.6708e-05
3.50759e-05
3.34733e-05
3.21296e-05
3.11339e-05
3.04376e-05
2.99432e-05
2.95327e-05
2.9066e-05
2.83741e-05
2.72628e-05
2.55578e-05
2.31646e-05
2.01544e-05
1.68101e-05
1.35676e-05
1.08347e-05
8.69676e-06
7.17723e-06
6.2898e-06
6.11229e-06
7.00535e-06
1.00992e-05
1.52736e-05
7.14332e-06
2.41853e-06
2.22548e-07
1.27491e-07
2.63011e-06
6.56725e-06
1.46764e-05
2.64781e-05
3.46319e-05
3.75446e-05
3.76219e-05
3.63941e-05
3.47468e-05
3.31631e-05
3.18584e-05
3.09126e-05
3.02708e-05
2.98306e-05
2.94707e-05
2.90483e-05
2.83929e-05
2.73102e-05
2.56299e-05
2.32657e-05
2.02978e-05
1.70099e-05
1.38269e-05
1.11218e-05
8.97793e-06
7.43561e-06
6.52849e-06
6.35357e-06
7.29702e-06
1.05152e-05
1.56633e-05
7.24352e-06
2.44712e-06
2.24646e-07
1.29968e-07
2.63622e-06
6.59533e-06
1.47796e-05
2.66109e-05
3.46193e-05
3.73803e-05
3.73502e-05
3.60632e-05
3.44012e-05
3.28366e-05
3.15712e-05
3.06747e-05
3.0086e-05
2.9698e-05
2.93859e-05
2.90047e-05
2.83819e-05
2.7324e-05
2.56648e-05
2.33278e-05
2.04046e-05
1.71832e-05
1.40767e-05
1.14151e-05
9.27695e-06
7.7161e-06
6.78729e-06
6.61008e-06
7.59948e-06
1.0937e-05
1.60527e-05
7.34756e-06
2.47629e-06
2.26874e-07
1.32396e-07
2.64176e-06
6.62227e-06
1.48785e-05
2.67321e-05
3.45904e-05
3.71992e-05
3.7062e-05
3.57165e-05
3.40408e-05
3.2496e-05
3.127e-05
3.04223e-05
2.98853e-05
2.95473e-05
2.92801e-05
2.89362e-05
2.83421e-05
2.73046e-05
2.56619e-05
2.33476e-05
2.0467e-05
1.7316e-05
1.42986e-05
1.16976e-05
9.58258e-06
8.01514e-06
7.06893e-06
6.88889e-06
7.92301e-06
1.13788e-05
1.64511e-05
7.45507e-06
2.50609e-06
2.29183e-07
1.34779e-07
2.64669e-06
6.64759e-06
1.49734e-05
2.68419e-05
3.4546e-05
3.70025e-05
3.67585e-05
3.5355e-05
3.36661e-05
3.21415e-05
3.09551e-05
3.01557e-05
2.96689e-05
2.93784e-05
2.91527e-05
2.88424e-05
2.82729e-05
2.72518e-05
2.56214e-05
2.33249e-05
2.0482e-05
1.73999e-05
1.44776e-05
1.19514e-05
9.879e-06
8.32295e-06
7.37091e-06
7.19342e-06
8.27559e-06
1.18516e-05
1.68583e-05
7.56097e-06
2.53554e-06
2.31451e-07
1.37124e-07
2.65135e-06
6.67209e-06
1.50647e-05
2.69405e-05
3.44866e-05
3.67908e-05
3.64402e-05
3.49792e-05
3.32779e-05
3.1774e-05
3.06277e-05
2.98761e-05
2.94383e-05
2.91929e-05
2.90054e-05
2.87245e-05
2.81755e-05
2.71672e-05
2.55462e-05
2.32638e-05
2.0453e-05
1.74343e-05
1.46061e-05
1.21625e-05
1.01502e-05
8.62706e-06
7.68777e-06
7.52632e-06
8.66913e-06
1.23763e-05
1.72818e-05
7.6659e-06
2.56509e-06
2.33608e-07
1.3941e-07
2.65555e-06
6.69526e-06
1.51519e-05
2.70278e-05
3.44127e-05
3.65644e-05
3.61072e-05
3.4589e-05
3.28758e-05
3.13931e-05
3.02868e-05
2.95826e-05
2.91923e-05
2.89899e-05
2.88373e-05
2.85821e-05
2.80502e-05
2.70529e-05
2.5441e-05
2.31728e-05
2.03915e-05
1.74298e-05
1.46883e-05
1.23265e-05
1.03847e-05
8.91349e-06
8.00829e-06
7.88227e-06
9.10459e-06
1.29571e-05
1.7711e-05
7.76561e-06
2.594e-06
2.35573e-07
1.41618e-07
2.65945e-06
6.71718e-06
1.52343e-05
2.71037e-05
3.43251e-05
3.6324e-05
3.57596e-05
3.41842e-05
3.24594e-05
3.09983e-05
2.99324e-05
2.92749e-05
2.89308e-05
2.87689e-05
2.8648e-05
2.84148e-05
2.78971e-05
2.69106e-05
2.53114e-05
2.30627e-05
2.03138e-05
1.74055e-05
1.4739e-05
1.24494e-05
1.05789e-05
9.17317e-06
8.32367e-06
8.25765e-06
9.58594e-06
1.36022e-05
1.81451e-05
7.86337e-06
2.62329e-06
2.37378e-07
1.4372e-07
2.66279e-06
6.73707e-06
1.53108e-05
2.71674e-05
3.42234e-05
3.60686e-05
3.53961e-05
3.37635e-05
3.20278e-05
3.05888e-05
2.95634e-05
2.89523e-05
2.8653e-05
2.85291e-05
2.84365e-05
2.82218e-05
2.77162e-05
2.67419e-05
2.51624e-05
2.29452e-05
2.02403e-05
1.7389e-05
1.47845e-05
1.25502e-05
1.07401e-05
9.40154e-06
8.62209e-06
8.63854e-06
1.00996e-05
1.42949e-05
1.85677e-05
7.9593e-06
2.65292e-06
2.39118e-07
1.45709e-07
2.66573e-06
6.75519e-06
1.53819e-05
2.72209e-05
3.411e-05
3.58002e-05
3.50182e-05
3.33281e-05
3.1582e-05
3.01652e-05
2.91803e-05
2.86151e-05
2.8359e-05
2.82706e-05
2.82029e-05
2.80031e-05
2.75076e-05
2.65475e-05
2.49966e-05
2.28273e-05
2.01858e-05
1.74045e-05
1.4853e-05
1.26551e-05
1.08865e-05
9.60574e-06
8.9004e-06
9.01508e-06
1.06311e-05
1.50149e-05
1.89765e-05
8.06056e-06
2.68444e-06
2.41029e-07
1.47581e-07
2.66804e-06
6.77094e-06
1.54469e-05
2.72637e-05
3.39843e-05
3.55179e-05
3.46253e-05
3.28783e-05
3.11229e-05
2.97283e-05
2.87841e-05
2.82646e-05
2.80504e-05
2.79945e-05
2.79482e-05
2.77601e-05
2.72726e-05
2.63286e-05
2.48148e-05
2.27106e-05
2.01558e-05
1.74643e-05
1.49653e-05
1.27893e-05
1.10406e-05
9.7984e-06
9.15868e-06
9.37504e-06
1.11553e-05
1.57238e-05
1.93634e-05
8.16764e-06
2.71751e-06
2.43258e-07
1.49367e-07
2.66991e-06
6.78502e-06
1.55076e-05
2.72987e-05
3.38495e-05
3.5225e-05
3.42209e-05
3.24173e-05
3.06538e-05
2.92824e-05
2.83791e-05
2.79043e-05
2.77296e-05
2.77033e-05
2.76745e-05
2.7494e-05
2.70116e-05
2.60832e-05
2.46119e-05
2.25865e-05
2.01404e-05
1.75621e-05
1.5126e-05
1.29677e-05
1.12216e-05
9.99589e-06
9.40408e-06
9.71391e-06
1.16578e-05
1.64023e-05
1.97347e-05
8.28268e-06
2.75251e-06
2.45913e-07
1.511e-07
2.67141e-06
6.79783e-06
1.55652e-05
2.73267e-05
3.37052e-05
3.49215e-05
3.38061e-05
3.19473e-05
3.0177e-05
2.88296e-05
2.79675e-05
2.75367e-05
2.73998e-05
2.74001e-05
2.7385e-05
2.72075e-05
2.67254e-05
2.58096e-05
2.43816e-05
2.24432e-05
2.01234e-05
1.76816e-05
1.53272e-05
1.31934e-05
1.1441e-05
1.02123e-05
9.64765e-06
1.00357e-05
1.21271e-05
1.70306e-05
2.00861e-05
8.3994e-06
2.78762e-06
2.48928e-07
1.52827e-07
2.67281e-06
6.81055e-06
1.5623e-05
2.73517e-05
3.35547e-05
3.46105e-05
3.3384e-05
3.14713e-05
2.96955e-05
2.83727e-05
2.75516e-05
2.71638e-05
2.70625e-05
2.7086e-05
2.708e-05
2.69e-05
2.64122e-05
2.55031e-05
2.41145e-05
2.22649e-05
2.00827e-05
1.77977e-05
1.5549e-05
1.34576e-05
1.17028e-05
1.04609e-05
9.90588e-06
1.03545e-05
1.25743e-05
1.76202e-05
2.0427e-05
8.51621e-06
2.82282e-06
2.52229e-07
1.54575e-07
2.67413e-06
6.82333e-06
1.5681e-05
2.73735e-05
3.33985e-05
3.42939e-05
3.29573e-05
3.09925e-05
2.92124e-05
2.79147e-05
2.71344e-05
2.67884e-05
2.67204e-05
2.67636e-05
2.67616e-05
2.65727e-05
2.60718e-05
2.51615e-05
2.38049e-05
2.20402e-05
1.99996e-05
1.78847e-05
1.57654e-05
1.37414e-05
1.19992e-05
1.07441e-05
1.01874e-05
1.06801e-05
1.30098e-05
1.81811e-05
2.07544e-05
8.62628e-06
2.85702e-06
2.55629e-07
1.56375e-07
2.67573e-06
6.83756e-06
1.57428e-05
2.73959e-05
3.32395e-05
3.39739e-05
3.25286e-05
3.05134e-05
2.87305e-05
2.74584e-05
2.67187e-05
2.64131e-05
2.63761e-05
2.64351e-05
2.64321e-05
2.62276e-05
2.57057e-05
2.47851e-05
2.34509e-05
2.17627e-05
1.98609e-05
1.7919e-05
1.59473e-05
1.40191e-05
1.23155e-05
1.10615e-05
1.05041e-05
1.10337e-05
1.34628e-05
1.87466e-05
2.10748e-05
8.72823e-06
2.88962e-06
2.5897e-07
1.58218e-07
2.67752e-06
6.85285e-06
1.5807e-05
2.74181e-05
3.30785e-05
3.36529e-05
3.21003e-05
3.00367e-05
2.8252e-05
2.70058e-05
2.63061e-05
2.60396e-05
2.60311e-05
2.61024e-05
2.60934e-05
2.58675e-05
2.53177e-05
2.43788e-05
2.30578e-05
2.14363e-05
1.96657e-05
1.78885e-05
1.60723e-05
1.42634e-05
1.2628e-05
1.13991e-05
1.08542e-05
1.14252e-05
1.39529e-05
1.93377e-05
2.138e-05
8.81605e-06
2.9192e-06
2.62041e-07
1.60102e-07
2.67972e-06
6.8699e-06
1.58751e-05
2.74414e-05
3.29173e-05
3.33327e-05
3.16751e-05
2.95651e-05
2.778e-05
2.656e-05
2.58997e-05
2.56709e-05
2.56884e-05
2.57687e-05
2.57494e-05
2.54967e-05
2.49133e-05
2.39495e-05
2.26335e-05
2.10684e-05
1.9417e-05
1.77887e-05
1.61258e-05
1.44531e-05
1.29157e-05
1.17439e-05
1.12372e-05
1.18685e-05
1.45077e-05
1.99844e-05
2.16715e-05
8.89089e-06
2.94618e-06
2.64751e-07
1.61992e-07
2.68222e-06
6.88826e-06
1.5946e-05
2.74653e-05
3.27566e-05
3.3015e-05
3.12549e-05
2.9101e-05
2.73167e-05
2.6123e-05
2.55016e-05
2.5309e-05
2.53507e-05
2.54373e-05
2.54043e-05
2.51214e-05
2.4501e-05
2.35092e-05
2.21933e-05
2.06757e-05
1.9129e-05
1.76293e-05
1.61079e-05
1.45761e-05
1.31587e-05
1.2075e-05
1.16384e-05
1.23589e-05
1.51321e-05
2.0689e-05
2.19373e-05
8.95155e-06
2.97036e-06
2.67035e-07
1.63861e-07
2.68508e-06
6.90796e-06
1.60199e-05
2.74912e-05
3.25982e-05
3.27015e-05
3.08415e-05
2.86461e-05
2.68639e-05
2.56967e-05
2.51132e-05
2.49554e-05
2.50195e-05
2.51105e-05
2.50619e-05
2.47469e-05
2.40884e-05
2.30684e-05
2.17512e-05
2.02751e-05
1.88196e-05
1.74275e-05
1.60302e-05
1.46351e-05
1.33509e-05
1.23828e-05
1.20503e-05
1.28951e-05
1.58302e-05
2.14514e-05
2.21784e-05
9.00402e-06
2.99321e-06
2.69005e-07
1.65668e-07
2.68809e-06
6.92814e-06
1.60946e-05
2.75171e-05
3.2442e-05
3.23928e-05
3.04361e-05
2.82023e-05
2.6424e-05
2.52835e-05
2.47372e-05
2.46129e-05
2.46979e-05
2.4792e-05
2.47267e-05
2.43795e-05
2.36845e-05
2.26395e-05
2.13246e-05
1.98892e-05
1.85144e-05
1.72106e-05
1.59157e-05
1.46427e-05
1.34921e-05
1.26559e-05
1.24556e-05
1.34576e-05
1.65793e-05
2.22408e-05
2.23888e-05
9.05124e-06
3.01524e-06
2.70779e-07
1.67393e-07
2.69122e-06
6.94866e-06
1.61703e-05
2.75441e-05
3.22888e-05
3.20897e-05
3.00395e-05
2.77707e-05
2.59985e-05
2.48852e-05
2.43756e-05
2.42835e-05
2.43884e-05
2.44849e-05
2.44026e-05
2.40238e-05
2.32947e-05
2.22297e-05
2.0923e-05
1.9532e-05
1.82324e-05
1.7002e-05
1.57895e-05
1.46198e-05
1.35935e-05
1.28948e-05
1.28456e-05
1.40324e-05
1.73595e-05
2.30342e-05
2.25776e-05
9.10017e-06
3.03807e-06
2.72573e-07
1.69023e-07
2.69426e-06
6.96885e-06
1.62454e-05
2.7571e-05
3.21382e-05
3.17922e-05
2.96526e-05
2.73529e-05
2.55896e-05
2.45047e-05
2.40315e-05
2.39709e-05
2.4095e-05
2.41936e-05
2.40947e-05
2.36852e-05
2.29248e-05
2.18457e-05
2.0556e-05
1.92171e-05
1.7991e-05
1.68245e-05
1.56768e-05
1.45893e-05
1.36708e-05
1.31055e-05
1.32171e-05
1.45966e-05
1.81329e-05
2.37931e-05
2.27462e-05
9.15155e-06
3.0615e-06
2.7449e-07
1.70568e-07
2.69727e-06
6.98892e-06
1.6321e-05
2.75984e-05
3.19894e-05
3.14987e-05
2.92737e-05
2.69479e-05
2.51971e-05
2.41428e-05
2.37066e-05
2.36771e-05
2.38202e-05
2.39212e-05
2.38057e-05
2.33656e-05
2.25753e-05
2.14862e-05
2.02216e-05
1.89448e-05
1.77935e-05
1.66875e-05
1.55943e-05
1.4572e-05
1.37431e-05
1.32992e-05
1.3569e-05
1.51425e-05
1.88833e-05
2.45075e-05
2.29084e-05
9.20857e-06
3.08622e-06
2.76633e-07
1.72033e-07