/*--------------------------------*- C++ -*----------------------------------*\
| =========                 |                                                 |
| \\      /  F ield         | OpenFOAM: The Open Source CFD Toolbox           |
|  \\    /   O peration     | Version:  v2006                                 |
|   \\  /    A nd           | Website:  www.openfoam.com                      |
|    \\/     M anipulation  |                                                 |
\*---------------------------------------------------------------------------*/
FoamFile
{
    version     2.0;
    format      ascii;
    class       volScalarField;
    location    "45";
    object      k;
}
// * * * * * * * * * * * * * * * * * * * * * * * * * * * * * * * * * * * * * //

dimensions      [0 2 -2 0 0 0 0];


internalField   nonuniform List<scalar> 
78750
(
3.04452e-06
3.48182e-06
3.8495e-06
4.01183e-06
4.03094e-06
3.94429e-06
3.79552e-06
3.62096e-06
3.44588e-06
3.28579e-06
3.14903e-06
3.03903e-06
2.95632e-06
2.89932e-06
2.86497e-06
2.8525e-06
2.86052e-06
2.88657e-06
2.92839e-06
2.98413e-06
3.05186e-06
3.12938e-06
3.21379e-06
3.30108e-06
3.38533e-06
3.45769e-06
3.50485e-06
3.50711e-06
3.43641e-06
3.25614e-06
2.92988e-06
2.44966e-06
1.87463e-06
1.36318e-06
1.21986e-06
2.98153e-07
2.93453e-06
5.30595e-06
7.26719e-06
8.77163e-06
9.86829e-06
1.06545e-05
1.1227e-05
1.1659e-05
1.1996e-05
1.22676e-05
1.24942e-05
1.26904e-05
1.28673e-05
1.30326e-05
1.31934e-05
1.33538e-05
1.35135e-05
1.36697e-05
1.38172e-05
1.3948e-05
1.40518e-05
1.41149e-05
1.41204e-05
1.40472e-05
1.38677e-05
1.35457e-05
1.30336e-05
1.22744e-05
1.12111e-05
9.81131e-06
8.20008e-06
6.82723e-06
6.40102e-06
7.65306e-06
2.83593e-07
2.24481e-06
4.07786e-06
5.69508e-06
7.03421e-06
8.08074e-06
8.86788e-06
9.45713e-06
9.91341e-06
1.02863e-05
1.06074e-05
1.08915e-05
1.11421e-05
1.13571e-05
1.15333e-05
1.16697e-05
1.1769e-05
1.184e-05
1.19011e-05
1.19615e-05
1.20338e-05
1.21248e-05
1.22517e-05
1.2423e-05
1.26372e-05
1.28771e-05
1.31018e-05
1.32378e-05
1.31768e-05
1.27879e-05
1.20038e-05
1.09877e-05
1.02245e-05
1.03625e-05
1.20859e-05
3.5152e-07
2.2979e-06
4.26708e-06
6.22701e-06
8.14818e-06
1.00215e-05
1.18502e-05
1.36366e-05
1.53719e-05
1.70327e-05
1.85824e-05
1.99766e-05
2.11687e-05
2.21155e-05
2.27815e-05
2.31424e-05
2.31868e-05
2.29192e-05
2.23639e-05
2.15479e-05
2.05138e-05
1.93158e-05
1.80132e-05
1.66806e-05
1.54012e-05
1.42673e-05
1.33784e-05
1.28038e-05
1.25541e-05
1.25157e-05
1.24742e-05
1.23388e-05
1.23713e-05
1.31329e-05
1.54513e-05
6.03497e-07
4.89676e-06
9.40671e-06
1.4131e-05
1.89578e-05
2.37461e-05
2.83766e-05
3.27447e-05
3.67544e-05
4.03206e-05
4.33711e-05
4.58486e-05
4.77127e-05
4.89396e-05
4.95226e-05
4.94707e-05
4.8808e-05
4.75727e-05
4.58156e-05
4.35995e-05
4.09983e-05
3.80955e-05
3.49777e-05
3.17393e-05
2.8482e-05
2.52992e-05
2.22805e-05
1.95664e-05
1.73542e-05
1.58147e-05
1.49621e-05
1.4695e-05
1.50743e-05
1.6505e-05
1.99035e-05
1.22849e-06
9.90234e-06
1.87042e-05
2.74659e-05
3.58345e-05
4.35875e-05
5.06304e-05
5.68689e-05
6.22147e-05
6.66138e-05
7.00407e-05
7.24928e-05
7.39864e-05
7.45533e-05
7.42379e-05
7.30949e-05
7.11884e-05
6.85913e-05
6.53858e-05
6.16651e-05
5.75333e-05
5.31116e-05
4.8543e-05
4.39672e-05
3.94826e-05
3.51568e-05
3.10501e-05
2.72393e-05
2.38663e-05
2.11453e-05
1.92822e-05
1.84094e-05
1.86742e-05
2.03658e-05
2.4213e-05
1.94249e-06
1.4813e-05
2.74185e-05
3.94306e-05
5.0323e-05
5.97225e-05
6.7747e-05
7.45623e-05
8.01639e-05
8.45695e-05
8.7813e-05
8.99391e-05
9.10003e-05
9.10536e-05
9.01592e-05
8.83797e-05
8.57797e-05
8.24247e-05
7.83911e-05
7.37786e-05
6.8674e-05
6.31764e-05
5.74545e-05
5.17085e-05
4.61388e-05
4.09069e-05
3.6126e-05
3.18894e-05
2.83009e-05
2.54784e-05
2.35325e-05
2.25784e-05
2.27853e-05
2.43812e-05
2.79365e-05
2.65589e-06
1.90059e-05
3.46105e-05
4.90772e-05
6.18613e-05
7.26083e-05
8.13791e-05
8.85692e-05
9.44175e-05
9.89704e-05
0.000102282
0.000104413
0.000105429
0.000105395
0.000104382
0.000102459
9.96997e-05
9.6152e-05
9.18172e-05
8.67203e-05
8.09403e-05
7.4601e-05
6.78761e-05
6.09911e-05
5.42053e-05
4.77598e-05
4.1853e-05
3.66799e-05
3.24517e-05
2.93398e-05
2.73925e-05
2.65569e-05
2.68031e-05
2.82242e-05
3.13314e-05
3.29564e-06
2.2091e-05
3.99325e-05
5.63808e-05
7.07978e-05
8.27418e-05
9.21819e-05
9.97226e-05
0.000105781
0.000110421
0.000113715
0.00011574
0.000116582
0.000116329
0.00011507
0.000112899
0.000109875
0.000105996
0.000101272
9.57569e-05
8.9532e-05
8.27126e-05
7.54617e-05
6.80064e-05
6.06284e-05
5.35862e-05
4.7076e-05
4.13169e-05
3.66016e-05
3.32101e-05
3.12339e-05
3.05144e-05
3.08026e-05
3.20412e-05
3.47032e-05
4.10845e-06
2.55533e-05
4.58939e-05
6.45258e-05
8.06133e-05
9.36457e-05
0.000103685
0.000111502
0.000117638
0.000122223
0.000125353
0.000127127
0.000127649
0.000127024
0.000125357
0.000122732
0.000119167
0.000114669
0.000109294
0.000103124
9.62611e-05
8.88349e-05
8.10157e-05
7.30401e-05
6.52226e-05
5.78538e-05
5.11034e-05
4.51518e-05
4.02886e-05
3.68391e-05
3.49383e-05
3.43714e-05
3.47092e-05
3.57538e-05
3.79018e-05
4.97504e-06
2.91042e-05
5.19181e-05
7.2606e-05
9.01461e-05
0.000104029
0.000114496
0.000122467
0.000128593
0.000133069
0.000136014
0.000137544
0.000137775
0.000136821
0.00013478
0.000131684
0.000127533
0.000122377
0.000116296
0.000109392
0.000101792
9.36507e-05
8.51613e-05
7.65942e-05
6.83261e-05
6.071e-05
5.38996e-05
4.80269e-05
4.33336e-05
4.01132e-05
3.84772e-05
3.81415e-05
3.85363e-05
3.93613e-05
4.0934e-05
5.98028e-06
3.29791e-05
5.83254e-05
8.0993e-05
9.98293e-05
0.000114414
0.000125223
0.00013328
0.000139332
0.000143658
0.000146393
0.000147668
0.000147612
0.000146337
0.000143892
0.000140283
0.000135548
0.000129757
0.000123001
0.000115398
0.000107083
9.82212e-05
8.90197e-05
7.97763e-05
7.0936e-05
6.29566e-05
5.60204e-05
5.02445e-05
4.58286e-05
4.29984e-05
4.17781e-05
4.17639e-05
4.22443e-05
4.28429e-05
4.38171e-05
6.99539e-06
3.6697e-05
6.43922e-05
8.88645e-05
0.000108865
0.000124085
0.00013522
0.000143378
0.000149391
0.000153608
0.000156177
0.000157241
0.000156932
0.000155332
0.000152455
0.000148334
0.000143028
0.00013662
0.000129221
0.000120958
0.000111976
0.000102443
9.25725e-05
8.26792e-05
7.32676e-05
6.48994e-05
5.77972e-05
5.20927e-05
4.79724e-05
4.55994e-05
4.48802e-05
4.52461e-05
4.58345e-05
4.62107e-05
4.66066e-05
8.09802e-06
4.05742e-05
7.06411e-05
9.68952e-05
0.000118014
0.000133832
0.000145283
0.00015354
0.000159516
0.000163628
0.000166041
0.000166912
0.000166355
0.000164406
0.000161094
0.000156466
0.000150593
0.000143576
0.000135537
0.000126615
0.000116964
0.000106755
9.62054e-05
8.56431e-05
7.5624e-05
6.68186e-05
5.94957e-05
5.3811e-05
4.99517e-05
4.80297e-05
4.78295e-05
4.85974e-05
4.93116e-05
4.94867e-05
4.93484e-05
9.1933e-06
4.4245e-05
7.64899e-05
0.000104361
0.000126482
0.000142832
0.000154566
0.000162986
0.000168989
0.000173033
0.000175347
0.000176078
0.000175294
0.00017303
0.000169324
0.000164232
0.000157842
0.000150268
0.000141641
0.000132112
0.000121837
0.00011099
9.97909e-05
8.85793e-05
7.79618e-05
6.8715e-05
6.1154e-05
5.54657e-05
5.18474e-05
5.03664e-05
5.06832e-05
5.18516e-05
5.2697e-05
5.2687e-05
5.20591e-05
1.03542e-05
4.79668e-05
8.2361e-05
0.00011181
0.000134895
0.000151749
0.000163747
0.000172322
0.000178383
0.000182414
0.000184664
0.000185255
0.000184243
0.000181668
0.000177572
0.000172025
0.000165125
0.000157
0.000147793
0.000137662
0.000126771
0.000115295
0.000103456
9.16027e-05
8.03884e-05
7.0695e-05
6.28799e-05
5.71609e-05
5.37498e-05
5.2677e-05
5.34847e-05
5.50355e-05
5.60106e-05
5.583e-05
5.47509e-05
1.15171e-05
5.15107e-05
8.7894e-05
0.000118796
0.00014277
0.000160101
0.000172368
0.000181114
0.000187282
0.000191356
0.000193578
0.000194061
0.000192862
0.000190017
0.000185576
0.000179616
0.000172247
0.000163607
0.000153849
0.000143139
0.000131647
0.000119553
0.000107079
9.45918e-05
8.27929e-05
7.26713e-05
6.4619e-05
5.88793e-05
5.56742e-05
5.49952e-05
5.62688e-05
5.81743e-05
5.92668e-05
5.89193e-05
5.74096e-05
1.27429e-05
5.50728e-05
9.33894e-05
0.000125682
0.000150488
0.000168266
0.000180795
0.000189717
0.000196002
0.000200133
0.000202343
0.000202741
0.000201377
0.000198289
0.000193529
0.000187183
0.000179372
0.000170242
0.000159952
0.000148678
0.000136596
0.000123889
0.000110785
9.76618e-05
8.52749e-05
7.47233e-05
6.64318e-05
6.06664e-05
5.76561e-05
5.7351e-05
5.90622e-05
6.12914e-05
6.24835e-05
6.19632e-05
6.00267e-05
1.39838e-05
5.8488e-05
9.85998e-05
0.00013218
0.000157762
0.00017597
0.000188771
0.000197896
0.00020433
0.000208552
0.000210787
0.000211136
0.000209645
0.000206349
0.000201307
0.000194612
0.000186394
0.000176806
0.00016601
0.000154189
0.000141527
0.000128211
0.000114475
0.000100719
8.77534e-05
7.6792e-05
6.82835e-05
6.25093e-05
5.96985e-05
5.9755e-05
6.18749e-05
6.4392e-05
6.56599e-05
6.49536e-05
6.25816e-05
1.52857e-05
6.19166e-05
0.000103775
0.00013859
0.000164897
0.000183507
0.000196573
0.000205905
0.000212499
0.000216827
0.000219104
0.000219423
0.000217825
0.000214347
0.000209051
0.000202038
0.000193444
0.000183427
0.000172151
0.000159803
0.000146571
0.000132648
0.000118274
0.00010387
9.03105e-05
7.89323e-05
7.02081e-05
6.44301e-05
6.18198e-05
6.22267e-05
6.47284e-05
6.74975e-05
6.88116e-05
6.78939e-05
6.50612e-05
1.66154e-05
6.52575e-05
0.000108756
0.000144717
0.000171693
0.000190682
0.000204017
0.000213571
0.000220345
0.000224802
0.000227147
0.000227464
0.000225789
0.00022216
0.000216645
0.000209349
0.000200414
0.00019
0.000178277
0.000165431
0.000151652
0.000137137
0.000122132
0.000107083
9.29317e-05
8.11418e-05
7.22072e-05
6.64295e-05
6.40177e-05
6.47606e-05
6.76139e-05
7.05964e-05
7.19256e-05
7.077e-05
6.74504e-05
1.79989e-05
6.86036e-05
0.000113693
0.000150753
0.000178356
0.000197702
0.0002113
0.000221081
0.000228044
0.000232641
0.000235066
0.000235395
0.000233663
0.000229906
0.000224197
0.000216648
0.000207403
0.000196623
0.000184479
0.000171162
0.000156854
0.000141754
0.000126118
0.000110417
9.56632e-05
8.34573e-05
7.43104e-05
6.85318e-05
6.63128e-05
6.73755e-05
7.05498e-05
7.37062e-05
7.50146e-05
7.35843e-05
6.97373e-05
1.94127e-05
7.1899e-05
0.000118504
0.000156594
0.000184778
0.000204463
0.000218323
0.000228338
0.000235502
0.000240252
0.000242772
0.000243132
0.000241363
0.000237503
0.000231631
0.000223862
0.000214341
0.000203233
0.000190708
0.000176953
0.000162151
0.000146491
0.000130237
0.000113887
9.8529e-05
8.59018e-05
7.65342e-05
7.07433e-05
6.87019e-05
7.00609e-05
7.35214e-05
7.68118e-05
7.80645e-05
7.6325e-05
7.19158e-05
2.08738e-05
7.52027e-05
0.000123277
0.000162348
0.000191072
0.000211075
0.000225194
0.000235445
0.000242813
0.000247723
0.000250347
0.000250749
0.000248958
0.000245014
0.000239002
0.00023104
0.000221275
0.000209873
0.000196997
0.000182835
0.000167564
0.000151367
0.000134509
0.000117517
0.000101557
8.85074e-05
7.89108e-05
7.30927e-05
7.12065e-05
7.28303e-05
7.65361e-05
7.99167e-05
8.10757e-05
7.89893e-05
7.39779e-05
2.23589e-05
7.84568e-05
0.000127935
0.000167934
0.000197167
0.000217481
0.000231861
0.000242354
0.000249933
0.00025501
0.000257747
0.000258202
0.000256404
0.000252398
0.000246272
0.000238149
0.000228176
0.000216519
0.000203334
0.000188802
0.000173094
0.00015639
0.000138949
0.000121326
0.000104768
9.12932e-05
8.14547e-05
7.55881e-05
7.3829e-05
7.56832e-05
7.95943e-05
8.30258e-05
8.40549e-05
8.15808e-05
7.59245e-05
2.38806e-05
8.17094e-05
0.00013255
0.000173438
0.000203153
0.000223766
0.000238404
0.000249139
0.000256929
0.000262171
0.000265021
0.000265534
0.000263738
0.000259683
0.000253464
0.000245205
0.000235057
0.000223179
0.00020972
0.000194855
0.000178745
0.000161562
0.000143566
0.000125332
0.000108187
9.429e-05
8.41964e-05
7.82542e-05
7.65832e-05
7.86188e-05
8.26793e-05
8.61098e-05
8.69703e-05
8.40781e-05
7.77515e-05
2.54181e-05
8.49081e-05
0.000137051
0.000178787
0.000208965
0.000229878
0.000244782
0.000255763
0.000263765
0.000269173
0.000272136
0.00027271
0.000270926
0.00026684
0.000260551
0.000252186
0.000241896
0.000229835
0.000216142
0.000200983
0.00018451
0.000166883
0.000148362
0.00012954
0.000111827
9.75106e-05
8.71487e-05
8.11024e-05
7.94797e-05
8.1652e-05
8.58204e-05
8.9218e-05
8.98749e-05
8.65162e-05
7.94681e-05
2.69765e-05
8.80777e-05
0.000141481
0.000184038
0.000214671
0.000235889
0.000251064
0.00026229
0.000270496
0.000276059
0.000279128
0.00027976
0.000277992
0.000273886
0.000267544
0.0002591
0.000248698
0.000236489
0.0002226
0.000207186
0.000190386
0.00017235
0.000153336
0.000133958
0.000115703
0.000100979
9.0339e-05
8.41568e-05
8.25328e-05
8.47785e-05
8.89802e-05
9.22711e-05
9.26906e-05
8.88532e-05
8.10726e-05
2.85418e-05
9.1183e-05
0.00014579
0.000189137
0.000220226
0.000241768
0.00025723
0.000268703
0.0002771
0.000282801
0.000285962
0.000286649
0.000284902
0.000280789
0.000274418
0.00026592
0.000255439
0.000243117
0.000229068
0.000213438
0.000196352
0.000177946
0.000158473
0.000138574
0.000119808
0.000104692
9.37671e-05
8.74202e-05
8.5746e-05
8.80058e-05
9.21945e-05
9.53913e-05
9.55109e-05
9.11239e-05
8.25775e-05
3.01141e-05
9.42258e-05
0.000149986
0.000194101
0.000225658
0.000247562
0.000263348
0.000275057
0.000283611
0.000289419
0.000292654
0.000293389
0.000291668
0.000287562
0.000281181
0.000272655
0.000262124
0.000249721
0.000235548
0.000219739
0.000202403
0.000183665
0.000163773
0.000143391
0.000124151
0.000108664
9.7452e-05
9.09141e-05
8.91434e-05
9.13622e-05
9.5493e-05
9.85791e-05
9.83718e-05
9.33589e-05
8.39914e-05
3.16846e-05
9.71836e-05
0.000154033
0.000198886
0.000230925
0.000253253
0.000269391
0.000281338
0.000289999
0.00029587
0.000299162
0.000299946
0.000298261
0.000294179
0.000287811
0.000279283
0.000268731
0.000256278
0.000242015
0.000226061
0.000208514
0.00018948
0.000169206
0.000148377
0.000128709
0.000112875
0.000101379
9.46312e-05
9.2723e-05
9.48463e-05
9.88684e-05
0.000101812
0.000101247
9.55584e-05
8.53199e-05
3.32527e-05
0.000100058
0.000157936
0.00020349
0.000235993
0.000258724
0.00027516
0.000287353
0.000296192
0.000302127
0.000305482
0.000306324
0.000304689
0.00030065
0.000294314
0.000285808
0.000275261
0.000262787
0.000248465
0.000232402
0.000214679
0.000195389
0.000174775
0.000153543
0.000133492
0.000117337
0.000105559
9.8581e-05
9.64976e-05
9.84768e-05
0.000102342
0.000105098
0.000104137
9.77261e-05
8.65684e-05
3.48117e-05
0.000102837
0.000161683
0.000207923
0.000240928
0.000263996
0.000280714
0.000293148
0.000302169
0.000308206
0.000311611
0.00031251
0.000310934
0.000306952
0.000300671
0.000292211
0.000281695
0.000269229
0.000254877
0.000238736
0.000220872
0.000201365
0.000180451
0.000158863
0.000138483
0.000122033
0.000109979
0.000102755
0.00010046
0.000102241
0.000105886
0.000108419
0.000107029
9.98592e-05
8.77426e-05
3.63559e-05
0.000105513
0.000165255
0.000212124
0.000245603
0.000268987
0.000285984
0.000298665
0.000307886
0.000314058
0.000317513
0.000318482
0.000316984
0.000313081
0.000306875
0.000298486
0.000288028
0.000275598
0.000261248
0.000245062
0.000227092
0.000207407
0.000186239
0.000164345
0.000143692
0.000126978
0.000114649
0.000107157
0.000104611
0.000106148
0.000109545
0.000111787
0.000109928
0.000101965
8.88532e-05
3.78787e-05
0.00010809
0.000168672
0.000216132
0.000250057
0.000273744
0.000291008
0.000303929
0.000313347
0.000319661
0.000323182
0.000324233
0.000322821
0.000319011
0.000312904
0.000304612
0.000294237
0.00028187
0.000267548
0.000251346
0.000233304
0.000213478
0.0001921
0.000169954
0.000149092
0.000132152
0.000119561
0.000111786
0.000108954
0.000110206
0.000113332
0.000115207
0.000112833
0.000104043
8.99078e-05
3.93861e-05
0.000110578
0.000171945
0.000219963
0.000254288
0.000278245
0.000295763
0.000308921
0.000318546
0.000325021
0.000328636
0.000329779
0.000328466
0.000324761
0.000318763
0.00031058
0.000300313
0.00028804
0.000273777
0.000257591
0.000239511
0.000219584
0.000198042
0.0001757
0.000154691
0.000137565
0.000124723
0.000116651
0.000113499
0.000114427
0.000117238
0.000118694
0.000115763
0.000106109
9.09192e-05
4.08698e-05
0.000112961
0.000175068
0.000223645
0.000258289
0.000282486
0.000300244
0.000313634
0.000323466
0.000330113
0.000333861
0.00033508
0.00033387
0.000330288
0.000324424
0.000316374
0.000306232
0.000294064
0.000279888
0.000263751
0.000245667
0.000225677
0.00020402
0.000181541
0.000160461
0.000143196
0.000130124
0.000121745
0.000118241
0.000118798
0.000121245
0.000122236
0.000118712
0.000108165
9.18957e-05
4.23311e-05
0.000115242
0.00017803
0.000227131
0.000262047
0.000286467
0.000304456
0.000318072
0.000328108
0.000334925
0.000338806
0.000340121
0.000339034
0.000335595
0.000329885
0.000321993
0.000311999
0.000299963
0.000285887
0.000269819
0.000251764
0.000231748
0.00021002
0.000187463
0.000166387
0.000149037
0.000135762
0.000127076
0.000123192
0.000123332
0.000125365
0.000125849
0.000121696
0.000110225
9.2847e-05
4.37652e-05
0.000117408
0.000180803
0.000230378
0.000265548
0.000290179
0.000308392
0.000322228
0.000332464
0.000339452
0.000343473
0.000344893
0.000343941
0.000340658
0.000335118
0.0003274
0.000317575
0.000305691
0.000291739
0.000275757
0.000257747
0.000237745
0.000215989
0.000193413
0.00017242
0.000155048
0.000141612
0.000132627
0.00012834
0.00012802
0.000129587
0.000129524
0.000124713
0.000112288
9.37769e-05
4.51768e-05
0.000119492
0.000183437
0.000233438
0.000268827
0.000293649
0.00031207
0.000326114
0.000336542
0.000343698
0.00034786
0.000349395
0.000348589
0.000345477
0.000340123
0.000332597
0.000322959
0.000311245
0.000297437
0.000281561
0.000263616
0.000243638
0.000221898
0.000199357
0.000178521
0.000161194
0.00014765
0.000138395
0.000133696
0.000132874
0.000133929
0.000133278
0.000127773
0.000114362
9.46846e-05
4.65561e-05
0.000121452
0.000185879
0.00023626
0.000271846
0.000296847
0.000315465
0.00032971
0.000340324
0.000347646
0.000351951
0.000353609
0.00035296
0.000350031
0.000344877
0.000337558
0.000328124
0.000316599
0.000302953
0.000287203
0.000269344
0.000249412
0.000227702
0.000205241
0.000184628
0.000167409
0.000153817
0.000144332
0.000139226
0.000137874
0.000138376
0.000137102
0.000130872
0.00011644
9.55627e-05
4.79085e-05
0.00012333
0.000188191
0.000238908
0.000274659
0.000299814
0.000318612
0.000333041
0.00034383
0.00035131
0.000355756
0.000357542
0.000357058
0.000354322
0.00034938
0.000342283
0.00033307
0.000321752
0.000308287
0.000292685
0.000274933
0.000255072
0.00023342
0.000211068
0.000190723
0.000173653
0.000160063
0.000150399
0.000144917
0.000143026
0.000142944
0.000141009
0.000134017
0.000118524
9.64053e-05
4.9221e-05
0.00012509
0.000190321
0.000241329
0.000277219
0.000302513
0.000321477
0.000336079
0.000347034
0.000354666
0.000359255
0.000361174
0.000360862
0.000358329
0.000353613
0.000346753
0.000337778
0.000326688
0.000313427
0.000297996
0.000280378
0.000260618
0.000239058
0.000216852
0.000196819
0.000179918
0.000166349
0.000156536
0.000150708
0.000148288
0.000147604
0.000144984
0.000137199
0.000120609
9.72141e-05
5.0493e-05
0.000126761
0.000192319
0.000243578
0.000279579
0.000304988
0.000324098
0.000338856
0.000349962
0.000357737
0.000362462
0.000364518
0.000364383
0.00036206
0.00035758
0.000350973
0.000342254
0.000331414
0.000318381
0.000303151
0.000285701
0.000266078
0.00024465
0.000222634
0.000202931
0.00018621
0.000172666
0.000162717
0.000156568
0.00015364
0.000152353
0.00014903
0.000140427
0.000122707
9.80064e-05
5.17171e-05
0.000128325
0.000194157
0.000245622
0.000281705
0.000307209
0.000326446
0.000341344
0.000352588
0.000360497
0.000365355
0.000367548
0.000367595
0.000365489
0.000361256
0.000354914
0.000346471
0.000335904
0.00032313
0.000308137
0.000290898
0.000271467
0.000250235
0.000228481
0.000209148
0.000192606
0.000179053
0.000168938
0.000162457
0.000159022
0.000157146
0.000153123
0.000143692
0.000124825
9.8807e-05
5.28963e-05
0.000129803
0.000195869
0.000247501
0.000283637
0.000309212
0.000328556
0.000343574
0.000354939
0.000362967
0.000367948
0.000370277
0.000370505
0.000368621
0.000364641
0.000358576
0.000350424
0.00034015
0.000327664
0.000312947
0.00029597
0.000276797
0.000255847
0.000234461
0.000215533
0.00019916
0.000185563
0.00017523
0.000168385
0.000164457
0.000161984
0.000157271
0.000147014
0.000126992
9.96489e-05
5.40326e-05
0.000131197
0.000197451
0.000249204
0.00028536
0.000310981
0.000330409
0.000345527
0.000356995
0.000365128
0.000370221
0.000372681
0.000373087
0.000371424
0.000367701
0.00036192
0.00035407
0.000344108
0.000331935
0.00031753
0.000300871
0.000282035
0.00026148
0.000240617
0.00022215
0.000205963
0.000192287
0.000181663
0.000174389
0.000169956
0.00016685
0.000161449
0.000150375
0.000129207
0.00010055
5.51337e-05
0.000132522
0.000198931
0.000250757
0.0002869
0.000312541
0.000332031
0.000347228
0.000358779
0.000366999
0.00037219
0.000374772
0.000375349
0.000373902
0.000370434
0.000364937
0.000357392
0.000347747
0.000335902
0.000321836
0.000305538
0.000287115
0.000267073
0.000246909
0.000228996
0.00021306
0.000199309
0.000188336
0.000180556
0.000175564
0.000171792
0.000165701
0.000153816
0.000131502
0.000101526
5.62066e-05
0.000133784
0.000200329
0.00025216
0.000288252
0.000313888
0.000333417
0.00034867
0.000360283
0.000368569
0.000373842
0.000376535
0.000377273
0.000376034
0.000372813
0.000367595
0.00036035
0.000351021
0.000339504
0.000325787
0.000309876
0.000291918
0.000272487
0.000253182
0.00023596
0.000220402
0.000206646
0.000195315
0.000186944
0.000181302
0.000176805
0.000170004
0.000157309
0.000133853
0.000102562
5.72582e-05
0.000134975
0.000201624
0.000253413
0.000289428
0.000315038
0.000334584
0.000349871
0.000361523
0.000369857
0.000375194
0.000377984
0.000378869
0.000377825
0.000374839
0.000369888
0.000362932
0.000353907
0.000342705
0.000329327
0.000313803
0.000296331
0.000277573
0.000259254
0.000242871
0.000227866
0.000214261
0.000202644
0.000193661
0.000187288
0.00018199
0.000174436
0.000160905
0.000136278
0.000103634
5.82902e-05
0.000136092
0.0002028
0.000254519
0.000290435
0.000315996
0.000335535
0.000350832
0.0003625
0.000370858
0.00037624
0.000379113
0.000380132
0.000379271
0.000376509
0.000371813
0.000365131
0.000356392
0.000345486
0.000332423
0.000317265
0.000300268
0.000282205
0.000264946
0.000249519
0.000235245
0.000221991
0.000210241
0.00020069
0.000193536
0.000187348
0.000178974
0.000164558
0.000138721
0.000104688
5.9306e-05
0.000137148
0.000203878
0.000255494
0.000291283
0.000316771
0.000336281
0.000351564
0.000363224
0.000371585
0.000376994
0.000379934
0.000381074
0.000380384
0.000377835
0.000373383
0.000366964
0.000358496
0.000347865
0.000335089
0.000320262
0.000303709
0.000286324
0.000270145
0.000255745
0.000242348
0.000229664
0.000218001
0.000208016
0.000200114
0.000192986
0.000183717
0.000168336
0.000141203
0.000105693
6.02962e-05
0.000138129
0.000204846
0.000256332
0.000291973
0.000317368
0.000336825
0.00035207
0.000363699
0.00037204
0.000377456
0.000380451
0.000381699
0.000381169
0.000378827
0.000374615
0.000368455
0.000360253
0.000349886
0.000337378
0.000322851
0.000306699
0.000289953
0.000274813
0.000261427
0.000248977
0.000237026
0.000225672
0.000215446
0.000206894
0.000198812
0.000188592
0.00017217
0.000143663
0.000106612
6.12529e-05
0.000139044
0.00020572
0.00025705
0.000292519
0.000317799
0.000337181
0.000352367
0.000363942
0.00037224
0.000377645
0.000380681
0.000382027
0.00038165
0.000379511
0.00037554
0.000369647
0.000361721
0.000351627
0.000339392
0.000325159
0.000309387
0.000293243
0.000279052
0.000266597
0.000255073
0.000243952
0.000233113
0.000222887
0.00021386
0.00020487
0.000193664
0.000176123
0.000146143
0.00010746
6.21635e-05
0.00013988
0.000206488
0.00025764
0.000292921
0.000318066
0.000337354
0.000352457
0.000363956
0.000372192
0.000377568
0.000380632
0.000382064
0.000381835
0.000379897
0.000376174
0.000370563
0.00036294
0.000353155
0.000341232
0.000327329
0.000311963
0.000296429
0.000283063
0.000271375
0.000260641
0.000250314
0.000240096
0.000230077
0.000220781
0.000211004
0.000198828
0.000180125
0.000148619
0.000108279
6.30253e-05
0.000140654
0.000207174
0.000258129
0.000293203
0.000318196
0.000337367
0.000352367
0.000363766
0.000371916
0.000377242
0.000380321
0.000381829
0.000381738
0.000379999
0.000376531
0.000371223
0.00036394
0.00035452
0.000342981
0.000329497
0.000314631
0.000299798
0.000287148
0.000276048
0.000265901
0.000256225
0.00024662
0.000236942
0.000227576
0.000217171
0.000204102
0.000184239
0.000151185
0.000109177
6.38365e-05
0.000141362
0.000207773
0.000258513
0.000293366
0.00031819
0.000337228
0.000352102
0.00036338
0.00037142
0.000376671
0.000379751
0.00038132
0.000381352
0.000379803
0.000376592
0.000371604
0.000364698
0.000355704
0.000344639
0.00033169
0.000317465
0.000303478
0.000291503
0.000280856
0.000271079
0.00026183
0.000252713
0.000243403
0.000234101
0.000223225
0.000209375
0.000188417
0.000153855
0.00011022
6.46104e-05
0.000142027
0.000208314
0.000258825
0.000293441
0.000318081
0.000336967
0.000351697
0.000362829
0.000370736
0.000375888
0.000378948
0.000380553
0.000380685
0.000379307
0.000376342
0.000371679
0.000365175
0.000356661
0.000346157
0.000333866
0.000320443
0.000307477
0.000296238
0.000286009
0.00027645
0.000267394
0.000258546
0.000249508
0.000240356
0.000229167
0.000214673
0.000192718
0.000156702
0.000111455
6.53614e-05
0.000142659
0.000208806
0.000259072
0.000293439
0.000317879
0.000336596
0.000351159
0.000362124
0.000369872
0.000374899
0.000377913
0.000379525
0.000379728
0.000378491
0.000375747
0.000371394
0.000365297
0.000357293
0.000347417
0.000335898
0.000323436
0.000311676
0.000301311
0.000291565
0.000282166
0.000273118
0.000264318
0.000255437
0.000246349
0.000234915
0.000219891
0.000197047
0.000159654
0.000112854
6.61101e-05
0.000143282
0.000209279
0.000259286
0.000293392
0.000317619
0.000336149
0.000350527
0.0003613
0.000368862
0.000373736
0.000376674
0.00037826
0.000378495
0.000377359
0.000374797
0.00037072
0.000365009
0.000357519
0.00034831
0.00033765
0.000326297
0.000315927
0.000306624
0.000297524
0.000288352
0.000279244
0.000270318
0.000261434
0.000252271
0.000240585
0.000225095
0.000201446
0.000162732
0.000114383
6.68679e-05
0.000143897
0.000209729
0.000259468
0.000293303
0.000317308
0.000335638
0.000349811
0.00036037
0.000367722
0.000372416
0.000375247
0.000376769
0.000376993
0.00037591
0.000373478
0.000369626
0.000364256
0.000357251
0.000348714
0.000338965
0.000328842
0.000320007
0.000311957
0.000303712
0.000294927
0.000285792
0.000276633
0.000267567
0.000258169
0.000246171
0.000230232
0.000205835
0.000165871
0.000115958
6.76479e-05
0.000144521
0.000210181
0.000259645
0.000293202
0.000316974
0.000335093
0.000349047
0.000359372
0.00036649
0.000370977
0.000373672
0.000375094
0.000375263
0.000374181
0.00037182
0.000368129
0.000363037
0.000356464
0.000348566
0.000339745
0.000330943
0.000323727
0.000317092
0.000309927
0.00030177
0.000292771
0.000283395
0.000274036
0.000264244
0.000251827
0.000235395
0.000210241
0.00016902
0.000117507
6.8447e-05
0.000145143
0.000210624
0.000259808
0.000293084
0.00031662
0.00033452
0.000348243
0.00035832
0.000365184
0.000369442
0.000371974
0.000373263
0.000373336
0.000372205
0.000369858
0.000366264
0.00036138
0.000355169
0.000347856
0.000339946
0.000332517
0.000326914
0.000321775
0.000315867
0.000308574
0.000299938
0.000290468
0.000280798
0.000270493
0.000257538
0.000240534
0.000214569
0.000172059
0.000118935
6.92637e-05
0.000145765
0.000211065
0.00025997
0.000292966
0.000316265
0.000333943
0.000347428
0.000357245
0.000363842
0.000367854
0.000370203
0.00037133
0.00037127
0.000370047
0.000367662
0.000364102
0.000359356
0.000353432
0.000346633
0.000339585
0.000333534
0.000329482
0.000325857
0.000321327
0.000315118
0.000307114
0.000297774
0.000287889
0.000277019
0.00026342
0.000245737
0.000218855
0.000174973
0.000120201
7.00829e-05
0.000146375
0.000211494
0.000260123
0.000292843
0.000315909
0.000333365
0.000346612
0.000356164
0.000362485
0.00036624
0.000368393
0.000369338
0.000369119
0.000367771
0.000365308
0.000361736
0.000357068
0.000351361
0.000344998
0.000338735
0.000333997
0.000331377
0.000329201
0.000326072
0.000321083
0.000313938
0.000304978
0.000295059
0.000283666
0.000269377
0.000250927
0.00022302
0.000177695
0.000121276
7.08932e-05
0.000146972
0.000211916
0.000260276
0.000292726
0.000315566
0.000332807
0.000345818
0.000355106
0.000361149
0.000364642
0.000366589
0.000367338
0.000366941
0.000365446
0.00036288
0.000359266
0.000354641
0.000349105
0.000343116
0.000337562
0.000334046
0.000332712
0.000331865
0.000330089
0.000326381
0.000320273
0.000311939
0.000302208
0.000290399
0.00027543
0.000256156
0.000227127
0.000180284
0.000122209
7.16765e-05
0.000147539
0.000212309
0.000260407
0.0002926
0.000315225
0.000332262
0.000345047
0.000354079
0.000359849
0.000363083
0.000364823
0.000365366
0.000364778
0.000363122
0.000360441
0.000356772
0.000352176
0.00034679
0.000341142
0.000336241
0.000333841
0.000333627
0.000333935
0.000333378
0.000330905
0.000325908
0.000318382
0.000309062
0.000296998
0.000281423
0.000261323
0.000231126
0.000182748
0.000123054
7.24246e-05
0.000148077
0.000212679
0.000260523
0.00029247
0.000314894
0.00033174
0.000344313
0.000353102
0.000358611
0.000361592
0.000363128
0.000363461
0.000362676
0.000360852
0.00035805
0.000354327
0.000349767
0.000344541
0.000339238
0.000334976
0.000333605
0.000334359
0.000335637
0.00033612
0.00033476
0.000330852
0.000324227
0.000315513
0.000303388
0.000287339
0.00026647
0.00023511
0.000185204
0.000123907
7.31313e-05
0.000148577
0.000213009
0.000260606
0.00029232
0.000314557
0.00033123
0.00034361
0.000352175
0.00035744
0.000360183
0.000361521
0.000361643
0.000360652
0.000358653
0.000355728
0.000351958
0.000347452
0.000342418
0.000337502
0.000333915
0.000333508
0.000335107
0.000337182
0.000338509
0.000338095
0.00033521
0.000329598
0.000321482
0.000309414
0.000293025
0.000271484
0.00023903
0.000187663
0.000124817
7.38014e-05
0.000149047
0.000213307
0.000260659
0.000292149
0.000314214
0.000330731
0.000342939
0.000351303
0.00035635
0.000358876
0.000360027
0.000359936
0.000358735
0.000356552
0.000353497
0.00034968
0.000345246
0.000340445
0.000335983
0.00033316
0.000333681
0.000336052
0.000338806
0.000340817
0.000341182
0.000339202
0.000334574
0.000327068
0.000315148
0.000298539
0.000276435
0.00024298
0.000190213
0.000125828
7.44373e-05