/*--------------------------------*- C++ -*----------------------------------*\
| =========                 |                                                 |
| \\      /  F ield         | OpenFOAM: The Open Source CFD Toolbox           |
|  \\    /   O peration     | Version:  v2006                                 |
|   \\  /    A nd           | Website:  www.openfoam.com                      |
|    \\/     M anipulation  |                                                 |
\*---------------------------------------------------------------------------*/
FoamFile
{
    version     2.0;
    format      ascii;
    class       surfaceScalarField;
    location    "45";
    object      phi;
}
// * * * * * * * * * * * * * * * * * * * * * * * * * * * * * * * * * * * * * //

dimensions      [1 0 -1 0 0 0 0];
oriented        oriented;


internalField   nonuniform List<scalar> 
228225
(
-4.5718e-06
-3.70922e-08
3.82984e-08
-4.17271e-06
-3.66637e-07
-3.23504e-08
-3.62692e-06
-4.85537e-07
-6.05691e-08
-3.04499e-06
-5.01541e-07
-8.05843e-08
-2.48545e-06
-4.62456e-07
-9.73293e-08
-1.97417e-06
-3.98343e-07
-1.13205e-07
-1.51725e-06
-3.27984e-07
-1.29203e-07
-1.1109e-06
-2.61199e-07
-1.45416e-07
-7.47677e-07
-2.0197e-07
-1.6153e-07
-4.19872e-07
-1.50932e-07
-1.77155e-07
-1.20645e-07
-1.0752e-07
-1.91987e-07
1.55616e-07
-7.06792e-08
-2.0586e-07
4.13612e-07
-3.949e-08
-2.18785e-07
6.57458e-07
-1.33047e-08
-2.30821e-07
8.8845e-07
1.08004e-08
-2.42073e-07
1.10926e-06
3.1573e-08
-2.5267e-07
1.32415e-06
4.75555e-08
-2.6272e-07
1.53618e-06
5.99919e-08
-2.72308e-07
1.74765e-06
6.97297e-08
-2.81488e-07
1.96092e-06
7.67414e-08
-2.90285e-07
2.17816e-06
8.11692e-08
-2.98692e-07
2.40122e-06
8.33225e-08
-3.06669e-07
2.63133e-06
8.37476e-08
-3.14135e-07
2.86863e-06
8.33831e-08
-3.20957e-07
3.11145e-06
8.38218e-08
-3.26915e-07
3.3551e-06
8.77342e-08
-3.31651e-07
3.58983e-06
9.95926e-08
-3.34576e-07
3.79741e-06
1.2691e-07
-3.34739e-07
3.94545e-06
1.82183e-07
-3.3045e-07
3.97828e-06
2.85937e-07
-3.18989e-07
3.80353e-06
4.71025e-07
-2.96458e-07
3.2896e-06
7.72351e-07
-2.58551e-07
2.331e-06
1.16093e-06
-2.02289e-07
1.02286e-06
1.43581e-06
-1.27209e-07
1.06053e-06
-3.64918e-08
-1.3566e-07
4.51869e-08
5.30318e-08
-2.89162e-07
-2.37608e-07
2.44352e-08
-4.61625e-07
-3.0156e-07
-1.197e-08
-6.42877e-07
-2.75025e-07
-4.5444e-08
-8.0915e-07
-2.09363e-07
-8.70778e-08
-9.40506e-07
-1.34963e-07
-1.3232e-07
-1.02318e-06
-6.80712e-08
-1.775e-07
-1.04865e-06
-1.62244e-08
-2.19746e-07
-1.03027e-06
3.66861e-08
-2.57279e-07
-9.70662e-07
7.84044e-08
-2.89202e-07
-8.73093e-07
1.10344e-07
-3.15705e-07
-7.43153e-07
1.36749e-07
-3.37643e-07
-5.87004e-07
1.60258e-07
-3.5617e-07
-4.1077e-07
1.82638e-07
-3.72454e-07
-2.17667e-07
2.04933e-07
-3.87519e-07
-1.18239e-08
2.2763e-07
-4.02191e-07
2.01749e-07
2.5074e-07
-4.17052e-07
4.19996e-07
2.73881e-07
-4.32431e-07
6.41633e-07
2.96246e-07
-4.48446e-07
8.65796e-07
3.17369e-07
-4.6508e-07
1.09215e-06
3.36752e-07
-4.82224e-07
1.32066e-06
3.54241e-07
-4.99707e-07
1.55138e-06
3.70085e-07
-5.17328e-07
1.78368e-06
3.85671e-07
-5.34853e-07
2.01502e-06
4.042e-07
-5.51974e-07
2.23912e-06
4.31614e-07
-5.68211e-07
2.44353e-06
4.77747e-07
-5.82789e-07
2.60661e-06
5.57692e-07
-5.94057e-07
2.6932e-06
6.93935e-07
-5.98518e-07
2.65039e-06
9.17609e-07
-5.89016e-07
2.41188e-06
1.26272e-06
-5.5328e-07
1.92567e-06
1.73584e-06
-4.77271e-07
1.21387e-06
2.23034e-06
-3.57387e-07
4.48001e-07
2.41136e-06
-2.09038e-07
1.56632e-06
-5.64516e-08
1.0623e-08
-3.26064e-08
6.67412e-08
-1.26214e-07
-2.14677e-07
1.13874e-07
-3.12413e-07
-2.59095e-07
1.43433e-07
-5.03955e-07
-2.42291e-07
1.58451e-07
-6.68276e-07
-2.07011e-07
1.61679e-07
-7.84428e-07
-1.75799e-07
1.56711e-07
-8.42437e-07
-1.57434e-07
1.47081e-07
-8.42277e-07
-1.52327e-07
1.35647e-07
-7.73551e-07
-1.56661e-07
1.24338e-07
-6.44722e-07
-1.65069e-07
1.1437e-07
-4.67977e-07
-1.72728e-07
1.06056e-07
-2.54929e-07
-1.75735e-07
9.91619e-08
-1.68786e-08
-1.71215e-07
9.31412e-08
2.35426e-07
-1.57255e-07
8.73009e-08
4.91889e-07
-1.32745e-07
8.09195e-08
7.43082e-07
-9.7196e-08
7.33293e-08
9.79814e-07
-5.02481e-08
6.3943e-08
1.19276e-06
8.44913e-09
5.21646e-08
1.38846e-06
6.28346e-08
3.73762e-08
1.56005e-06
1.26731e-07
1.87072e-08
1.70476e-06
1.96152e-07
-4.4572e-09
1.81476e-06
2.69061e-07
-2.51655e-08
1.89155e-06
3.44261e-07
-5.13197e-08
1.93744e-06
4.21759e-07
-8.23266e-08
1.95585e-06
5.0387e-07
-1.18423e-07
1.95039e-06
5.96705e-07
-1.59953e-07
1.92306e-06
7.11885e-07
-2.07101e-07
1.86979e-06
8.69892e-07
-2.59194e-07
1.7763e-06
1.10131e-06
-3.14109e-07
1.61789e-06
1.44098e-06
-3.65128e-07
1.36595e-06
1.91038e-06
-3.95813e-07
1.00949e-06
2.4745e-06
-3.82145e-07
5.89123e-07
2.96006e-06
-3.09063e-07
1.99097e-07
2.9892e-06
-1.87104e-07
1.81503e-06
-4.82414e-08
-8.38188e-09
-1.12936e-07
8.8236e-08
-3.42045e-08
-3.7526e-07
1.86537e-07
-2.26875e-08
-5.27953e-07
2.57085e-07
4.94358e-08
-6.21797e-07
3.07071e-07
1.8923e-07
-6.88219e-07
3.41241e-07
3.92964e-07
-7.43467e-07
3.63814e-07
6.51152e-07
-7.94011e-07
3.78253e-07
9.51999e-07
-8.40529e-07
3.87205e-07
1.28337e-06
-8.80733e-07
3.92567e-07
1.63386e-06
-9.11264e-07
3.95605e-07
1.99281e-06
-9.28851e-07
3.97096e-07
2.35039e-06
-9.3084e-07
3.97458e-07
2.69763e-06
-9.15393e-07
3.96868e-07
3.02646e-06
-8.81509e-07
3.95346e-07
3.32976e-06
-8.28938e-07
3.92812e-07
3.60141e-06
-7.58073e-07
3.89134e-07
3.83674e-06
-6.69837e-07
3.84153e-07
4.03301e-06
-5.65632e-07
3.77698e-07
4.17344e-06
-4.47351e-07
3.69614e-07
4.25697e-06
-3.16678e-07
3.59713e-07
4.28097e-06
-1.758e-07
3.47765e-07
4.24503e-06
-2.86475e-08
3.33434e-07
4.14156e-06
1.31268e-07
3.16222e-07
3.97166e-06
2.9613e-07
2.95266e-07
3.73909e-06
4.67291e-07
2.68864e-07
3.45134e-06
6.5018e-07
2.33981e-07
3.11934e-06
8.56851e-07
1.86735e-07
2.75604e-06
1.11008e-06
1.22828e-07
2.37495e-06
1.4438e-06
3.83452e-08
1.97771e-06
1.89359e-06
-5.55409e-08
1.55897e-06
2.47208e-06
-1.43044e-07
1.1141e-06
3.11643e-06
-1.97001e-07
6.57131e-07
3.60574e-06
-1.88384e-07
2.34801e-07
3.53149e-06
-1.19229e-07
2.07669e-06
-2.54835e-08
7.91991e-11
-1.9321e-07
7.99826e-08
2.77631e-08
-5.78855e-07
1.75703e-07
1.22428e-07
-8.66153e-07
2.43544e-07
3.02627e-07
-1.09337e-06
2.91373e-07
5.6841e-07
-1.27837e-06
3.24356e-07
9.07708e-07
-1.42929e-06
3.46557e-07
1.30295e-06
-1.55021e-06
3.61034e-07
1.73531e-06
-1.64276e-06
3.6999e-07
2.1868e-06
-1.70708e-06
3.74989e-07
2.64153e-06
-1.74299e-06
3.77142e-07
3.0861e-06
-1.75051e-06
3.77231e-07
3.50956e-06
-1.72996e-06
3.75813e-07
3.90314e-06
-1.6821e-06
3.73285e-07
4.25986e-06
-1.60803e-06
3.69942e-07
4.57426e-06
-1.50919e-06
3.66004e-07
4.84198e-06
-1.3873e-06
3.61641e-07
5.05951e-06
-1.24424e-06
3.56983e-07
5.2239e-06
-1.08204e-06
3.52129e-07
5.33232e-06
-9.02839e-07
3.47146e-07
5.38241e-06
-7.08785e-07
3.42076e-07
5.37166e-06
-5.01959e-07
3.36942e-07
5.29576e-06
-2.84475e-07
3.31727e-07
5.15989e-06
-5.92459e-08
3.26352e-07
4.95823e-06
1.77222e-07
3.20498e-07
4.68816e-06
4.23789e-07
3.13456e-07
4.34809e-06
6.86541e-07
3.03551e-07
3.9388e-06
9.78889e-07
2.87059e-07
3.46682e-06
1.32417e-06
2.57658e-07
2.94544e-06
1.7573e-06
2.07661e-07
2.3911e-06
2.3151e-06
1.32616e-07
1.82164e-06
3.00241e-06
3.90035e-08
1.25042e-06
3.72839e-06
-4.07292e-08
7.04595e-07
4.22382e-06
-7.20009e-08
2.36911e-07
4.05e-06
-5.01628e-08
2.32015e-06
-5.24027e-09
3.28519e-08
-2.93602e-07
6.72929e-08
1.34454e-07
-8.29623e-07
1.48972e-07
3.10005e-07
-1.24737e-06
2.05752e-07
5.54587e-07
-1.58304e-06
2.45141e-07
8.55959e-07
-1.85188e-06
2.7214e-07
1.19697e-06
-2.06083e-06
2.90555e-07
1.56189e-06
-2.21808e-06
3.03026e-07
1.93827e-06
-2.3302e-06
3.1119e-07
2.31569e-06
-2.40054e-06
3.16177e-07
2.68554e-06
-2.43151e-06
3.18795e-07
3.04079e-06
-2.42528e-06
3.1963e-07
3.37575e-06
-2.38393e-06
3.1912e-07
3.68579e-06
-2.30962e-06
3.17599e-07
3.96711e-06
-2.20455e-06
3.1533e-07
4.21654e-06
-2.071e-06
3.12522e-07
4.43134e-06
-1.9113e-06
3.09347e-07
4.60904e-06
-1.72775e-06
3.05948e-07
4.74725e-06
-1.52257e-06
3.02443e-07
4.84369e-06
-1.29808e-06
2.98929e-07
4.89638e-06
-1.05686e-06
2.95492e-07
4.90283e-06
-8.00521e-07
2.92216e-07
4.85992e-06
-5.3066e-07
2.89181e-07
4.76373e-06
-2.49489e-07
2.86497e-07
4.61403e-06
4.2619e-08
2.8434e-07
4.40635e-06
3.48691e-07
2.82762e-07
4.13533e-06
6.76414e-07
2.81099e-07
3.79609e-06
1.04076e-06
2.77282e-07
3.38484e-06
1.46811e-06
2.67187e-07
2.90155e-06
1.99634e-06
2.44102e-07
2.35459e-06
2.66136e-06
2.00575e-07
1.76551e-06
3.45635e-06
1.35045e-07
1.17268e-06
4.2591e-06
6.2171e-08
6.31345e-07
4.75335e-06
1.20753e-08
1.9892e-07
4.48242e-06
6.6178e-10
2.50786e-06
1.24915e-08
3.51659e-08
-3.8748e-07
5.85932e-08
1.37536e-07
-1.06309e-06
1.30916e-07
3.01891e-07
-1.59269e-06
1.80846e-07
5.20218e-07
-2.0166e-06
2.15207e-07
7.81639e-07
-2.35166e-06
2.38366e-07
1.07284e-06
-2.60572e-06
2.53693e-07
1.38092e-06
-2.78995e-06
2.63789e-07
1.69668e-06
-2.91619e-06
2.70217e-07
2.01383e-06
-2.99156e-06
2.73862e-07
2.327e-06
-3.02012e-06
2.75432e-07
2.63145e-06
-3.00519e-06
2.75465e-07
2.923e-06
-2.94985e-06
2.74393e-07
3.19791e-06
-2.85707e-06
2.72564e-07
3.4529e-06
-2.72977e-06
2.70263e-07
3.68507e-06
-2.57086e-06
2.67723e-07
3.89189e-06
-2.3832e-06
2.65135e-07
4.07103e-06
-2.16948e-06
2.62657e-07
4.21936e-06
-1.93124e-06
2.60416e-07
4.33231e-06
-1.66942e-06
2.58482e-07
4.40517e-06
-1.38652e-06
2.56901e-07
4.4341e-06
-1.08513e-06
2.55774e-07
4.41604e-06
-7.67668e-07
2.55159e-07
4.34834e-06
-4.36817e-07
2.55109e-07
4.22839e-06
-9.30531e-08
2.55687e-07
4.05467e-06
2.65689e-07
2.56757e-07
3.82433e-06
6.48899e-07
2.57858e-07
3.53225e-06
1.07489e-06
2.57919e-07
3.17124e-06
1.57449e-06
2.54558e-07
2.73479e-06
2.18943e-06
2.43257e-07
2.22431e-06
2.95407e-06
2.17656e-07
1.65967e-06
3.8476e-06
1.73308e-07
1.08715e-06
4.71535e-06
1.16288e-07
5.71879e-07
5.20091e-06
6.79515e-08
1.72296e-07
4.841e-06
4.16094e-08
2.65727e-06
2.41219e-08
3.24666e-08
-4.72423e-07
5.23745e-08
1.33916e-07
-1.28325e-06
1.1843e-07
3.01532e-07
-1.92423e-06
1.63683e-07
5.26436e-07
-2.43618e-06
1.94568e-07
7.95584e-07
-2.83619e-06
2.15318e-07
1.0947e-06
-3.13395e-06
2.29038e-07
1.40834e-06
-3.34163e-06
2.37925e-07
1.72618e-06
-3.47771e-06
2.43549e-07
2.04238e-06
-3.55452e-06
2.46653e-07
2.35212e-06
-3.57772e-06
2.47783e-07
2.6513e-06
-3.55183e-06
2.47411e-07
2.93645e-06
-3.48098e-06
2.45929e-07
3.20473e-06
-3.36906e-06
2.43669e-07
3.45381e-06
-3.2198e-06
2.40917e-07
3.6818e-06
-3.0368e-06
2.37925e-07
3.88709e-06
-2.82341e-06
2.34916e-07
4.06691e-06
-2.58141e-06
2.32106e-07
4.21634e-06
-2.31038e-06
2.29749e-07
4.32953e-06
-2.0107e-06
2.28126e-07
4.40094e-06
-1.68528e-06
2.27408e-07
4.42643e-06
-1.33824e-06
2.27693e-07
4.40339e-06
-9.73591e-07
2.29042e-07
4.32972e-06
-5.94445e-07
2.31369e-07
4.2042e-06
-2.01929e-07
2.34473e-07
4.02475e-06
2.07105e-07
2.3809e-07
3.78928e-06
6.42588e-07
2.4182e-07
3.49461e-06
1.12471e-06
2.44853e-07
3.1354e-06
1.68817e-06
2.45499e-07
2.70582e-06
2.37842e-06
2.40535e-07
2.2055e-06
3.22931e-06
2.24996e-07
1.65087e-06
4.20807e-06
1.94096e-07
1.08654e-06
5.13051e-06
1.49177e-07
5.75676e-07
5.60807e-06
1.03908e-07
1.76091e-07
5.17283e-06
6.83268e-08
2.80206e-06
3.24914e-08
4.89309e-08
-5.6645e-07
4.48502e-08
1.8473e-07
-1.52154e-06
1.02374e-07
3.94249e-07
-2.27586e-06
1.41973e-07
6.60964e-07
-2.87233e-06
1.69283e-07
9.64704e-07
-3.32801e-06
1.87965e-07
1.28631e-06
-3.65623e-06
2.00585e-07
1.61047e-06
-3.87481e-06
2.08951e-07
1.92886e-06
-4.01058e-06
2.14437e-07
2.23695e-06
-4.08035e-06
2.17695e-07
2.53158e-06
-4.09152e-06
2.19128e-07
2.81041e-06
-4.04981e-06
2.19112e-07
3.07179e-06
-3.96034e-06
2.17958e-07
3.31455e-06
-3.82777e-06
2.15933e-07
3.53792e-06
-3.65645e-06
2.13277e-07
3.74131e-06
-3.45041e-06
2.10212e-07
3.92309e-06
-3.21216e-06
2.06968e-07
4.079e-06
-2.94115e-06
2.03842e-07
4.20401e-06
-2.63657e-06
2.01185e-07
4.29476e-06
-2.30075e-06
1.99329e-07
4.34853e-06
-1.93761e-06
1.98599e-07
4.36237e-06
-1.55126e-06
1.99222e-07
4.33312e-06
-1.14554e-06
2.01245e-07
4.25747e-06
-7.23341e-07
2.04596e-07
4.13199e-06
-2.85487e-07
2.09094e-07
3.95346e-06
1.71226e-07
2.14465e-07
3.71863e-06
6.57152e-07
2.203e-07
3.42339e-06
1.19407e-06
2.25895e-07
3.06298e-06
1.81866e-06
2.29903e-07
2.63333e-06
2.57822e-06
2.29799e-07
2.13626e-06
3.5048e-06
2.21509e-07
1.58963e-06
4.55428e-06
2.00355e-07
1.0383e-06
5.5168e-06
1.65034e-07
5.42867e-07
5.98e-06
1.23671e-07
1.6201e-07
5.47094e-06
8.32702e-08
2.92884e-06
3.63736e-08
5.44099e-08
-6.60146e-07
3.90333e-08
2.06094e-07
-1.76325e-06
8.99536e-08
4.35009e-07
-2.63018e-06
1.25283e-07
7.17064e-07
-3.30433e-06
1.49808e-07
1.02733e-06
-3.80501e-06
1.66635e-07
1.34563e-06
-4.15256e-06
1.77988e-07
1.65994e-06
-4.37461e-06
1.85487e-07
1.96419e-06
-4.5052e-06
1.90368e-07
2.25512e-06
-4.56459e-06
1.93303e-07
2.5309e-06
-4.56194e-06
1.94637e-07
2.79031e-06
-4.50391e-06
1.94677e-07
3.0326e-06
-4.3963e-06
1.9367e-07
3.25731e-06
-4.2443e-06
1.91829e-07
3.46412e-06
-4.05259e-06
1.89341e-07
3.65188e-06
-3.82452e-06
1.86389e-07
3.81677e-06
-3.56022e-06
1.83195e-07
3.95418e-06
-3.25854e-06
1.80022e-07
4.06169e-06
-2.92125e-06
1.77203e-07
4.13804e-06
-2.55217e-06
1.75098e-07
4.18184e-06
-2.15543e-06
1.74049e-07
4.19128e-06
-1.73499e-06
1.74335e-07
4.16387e-06
-1.29426e-06
1.76181e-07
4.0963e-06
-8.35427e-07
1.79704e-07
3.98436e-06
-3.58354e-07
1.84865e-07
3.823e-06
1.41193e-07
1.91442e-07
3.60634e-06
6.7485e-07
1.99004e-07
3.32811e-06
1.26551e-06
2.06817e-07
2.982e-06
1.95116e-06
2.13604e-07
2.56384e-06
2.77919e-06
2.17156e-07
2.07689e-06
3.77772e-06
2.13969e-07
1.54117e-06
4.89029e-06
1.99642e-07
1.00307e-06
5.88346e-06
1.7142e-07
5.20919e-07
6.32872e-06
1.33591e-07
1.53537e-07
5.74805e-06
9.07567e-08
3.04588e-06
3.75823e-08
6.17422e-08
-7.56207e-07
3.40971e-08
2.25021e-07
-2.00589e-06
7.91967e-08
4.62872e-07
-2.97895e-06
1.10841e-07
7.47481e-07
-3.72203e-06
1.33047e-07
1.05295e-06
-4.25891e-06
1.48391e-07
1.36083e-06
-4.61926e-06
1.58789e-07
1.66204e-06
-4.84155e-06
1.65693e-07
1.95203e-06
-4.96541e-06
1.70209e-07
2.2283e-06
-5.01389e-06
1.73015e-07
2.48949e-06
-4.99756e-06
1.74424e-07
2.73473e-06
-4.92384e-06
1.74692e-07
2.96346e-06
-4.79907e-06
1.74028e-07
3.17538e-06
-4.62882e-06
1.72598e-07
3.3695e-06
-4.41726e-06
1.70549e-07
3.54238e-06
-4.16541e-06
1.68018e-07
3.68949e-06
-3.87247e-06
1.65157e-07
3.80862e-06
-3.53984e-06
1.62179e-07
3.89932e-06
-3.1713e-06
1.59364e-07
3.96136e-06
-2.77117e-06
1.56992e-07
3.99433e-06
-2.34369e-06
1.55327e-07
3.99736e-06
-1.89266e-06
1.54676e-07
3.9687e-06
-1.42095e-06
1.5539e-07
3.90536e-06
-9.2983e-07
1.57783e-07
3.80284e-06
-4.17869e-07
1.62072e-07
3.655e-06
1.20761e-07
1.68305e-07
3.4545e-06
6.99104e-07
1.76278e-07
3.19294e-06
1.34168e-06
1.85396e-07
2.86235e-06
2.08728e-06
1.94446e-07
2.45813e-06
2.98212e-06
2.01255e-07
1.98485e-06
4.04853e-06
2.024e-07
1.46507e-06
5.21653e-06
1.93463e-07
9.46818e-07
6.23088e-06
1.70802e-07
4.85772e-07
6.65371e-06
1.3617e-07
1.40256e-07
6.00141e-06
9.26046e-08
3.15035e-06
3.6837e-08
6.13066e-08
-8.49071e-07
3.13186e-08
2.23808e-07
-2.24178e-06
7.32116e-08
4.58588e-07
-3.31647e-06
1.02672e-07
7.36424e-07
-4.12315e-06
1.23264e-07
1.03185e-06
-4.69168e-06
1.37323e-07
1.32807e-06
-5.06221e-06
1.46683e-07
1.61758e-06
-5.28384e-06
1.52751e-07
1.89629e-06
-5.4007e-06
1.56548e-07
2.16197e-06
-5.43838e-06
1.58793e-07
2.41334e-06
-5.40877e-06
1.5983e-07
2.6495e-06
-5.31993e-06
1.59923e-07
2.86981e-06
-5.17865e-06
1.59276e-07
3.07328e-06
-4.99033e-06
1.58041e-07
3.25681e-06
-4.75713e-06
1.56337e-07
3.41594e-06
-4.47879e-06
1.54249e-07
3.54836e-06
-4.15679e-06
1.51912e-07
3.6539e-06
-3.79487e-06
1.49507e-07
3.73284e-06
-3.39743e-06
1.47221e-07
3.78552e-06
-2.96905e-06
1.45226e-07
3.81214e-06
-2.51398e-06
1.43695e-07
3.81238e-06
-2.03573e-06
1.42868e-07
3.78496e-06
-1.53653e-06
1.43036e-07
3.72719e-06
-1.01654e-06
1.44516e-07
3.63452e-06
-4.72789e-07
1.4762e-07
3.50032e-06
1.02394e-07
1.52599e-07
3.31592e-06
7.24001e-07
1.59535e-07
3.07139e-06
1.41805e-06
1.68168e-07
2.75725e-06
2.22379e-06
1.77612e-07
2.36822e-06
3.18516e-06
1.8595e-07
1.90966e-06
4.31713e-06
1.89882e-07
1.40591e-06
5.53532e-06
1.84866e-07
9.05974e-07
6.56423e-06
1.66531e-07
4.62604e-07
6.96239e-06
1.34771e-07
1.32891e-07
6.23995e-06
9.1567e-08
3.24883e-06
3.54116e-08
6.21788e-08
-9.40454e-07
2.90243e-08
2.23576e-07
-2.47125e-06
6.79261e-08
4.53681e-07
-3.64184e-06
9.51587e-08
7.23575e-07
-4.50721e-06
1.14097e-07
1.00889e-06
-5.10398e-06
1.26949e-07
1.29427e-06
-5.48305e-06
1.35439e-07
1.57319e-06
-5.70363e-06
1.40853e-07
1.84197e-06
-5.81358e-06
1.44075e-07
2.09871e-06
-5.84096e-06
1.45836e-07
2.34214e-06
-5.79873e-06
1.46518e-07
2.57129e-06
-5.69549e-06
1.46398e-07
2.78495e-06
-5.53801e-06
1.45685e-07
2.98025e-06
-5.33013e-06
1.44511e-07
3.15296e-06
-5.07278e-06
1.42945e-07
3.30062e-06
-4.76753e-06
1.4109e-07
3.42274e-06
-4.41799e-06
1.39097e-07
3.51929e-06
-4.02851e-06
1.37107e-07
3.59057e-06
-3.60394e-06
1.35254e-07
3.63705e-06
-3.14917e-06
1.33666e-07
3.65912e-06
-2.66851e-06
1.32486e-07
3.65674e-06
-2.16522e-06
1.31902e-07
3.62896e-06
-1.64085e-06
1.32138e-07
3.57339e-06
-1.0944e-06
1.33452e-07
3.48573e-06
-5.21227e-07
1.36132e-07
3.35925e-06
8.84391e-08
1.40458e-07
3.18498e-06
7.51657e-07
1.46628e-07
2.95228e-06
1.49616e-06
1.54586e-07
2.65095e-06
2.36136e-06
1.6374e-07
2.27538e-06
3.38815e-06
1.72509e-07
1.83149e-06
4.58305e-06
1.77877e-07
1.34472e-06
5.8466e-06
1.75373e-07
8.63944e-07
6.8847e-06
1.60214e-07
4.38831e-07
7.25658e-06
1.30966e-07
1.253e-07
6.465e-06
8.88431e-08
3.3414e-06
3.36912e-08
5.93174e-08
-1.02774e-06
2.78065e-08
2.14578e-07
-2.6919e-06
6.52279e-08
4.36266e-07
-3.9551e-06
9.14306e-08
6.9612e-07
-4.87682e-06
1.09666e-07
9.70693e-07
-5.5006e-06
1.22007e-07
1.24552e-06
-5.88797e-06
1.30072e-07
1.51443e-06
-6.10761e-06
1.35063e-07
1.77436e-06
-6.21132e-06
1.37795e-07
2.02344e-06
-6.22903e-06
1.38976e-07
2.26046e-06
-6.17489e-06
1.3914e-07
2.48405e-06
-6.0577e-06
1.38607e-07
2.69169e-06
-5.88325e-06
1.3759e-07
2.87959e-06
-5.65423e-06
1.36202e-07
3.04497e-06
-5.37269e-06
1.34543e-07
3.18676e-06
-5.04205e-06
1.32748e-07
3.30432e-06
-4.66647e-06
1.30945e-07
3.39745e-06
-4.25083e-06
1.29213e-07
3.46635e-06
-3.80044e-06
1.27631e-07
3.51141e-06
-3.3205e-06
1.26293e-07
3.53305e-06
-2.81542e-06
1.25301e-07
3.53127e-06
-2.28821e-06
1.24796e-07
3.50525e-06
-1.73975e-06
1.24959e-07
3.45276e-06
-1.16789e-06
1.26014e-07
3.36961e-06
-5.66277e-07
1.28224e-07
3.2492e-06
7.70074e-08
1.31875e-07
3.08235e-06
7.81307e-07
1.37212e-07
2.85826e-06
1.57594e-06
1.44296e-07
2.56656e-06
2.50029e-06
1.52735e-07
2.20179e-06
3.59161e-06
1.61238e-07
1.77039e-06
4.84724e-06
1.67103e-07
1.29829e-06
6.1525e-06
1.66058e-07
8.3358e-07
7.19611e-06
1.53174e-07
4.22961e-07
7.54112e-06
1.26096e-07
1.20976e-07
6.68185e-06
8.54437e-08
3.43129e-06
3.19937e-08
5.8728e-08
-1.11351e-06
2.68211e-08
2.10798e-07
-2.90705e-06
6.29438e-08
4.26574e-07
-4.25906e-06
8.80944e-08
6.7845e-07
-5.23423e-06
1.05464e-07
9.43839e-07
-5.88312e-06
1.1708e-07
1.20918e-06
-6.27787e-06
1.24518e-07
1.46875e-06
-6.49616e-06
1.28949e-07
1.72016e-06
-6.59394e-06
1.31185e-07
1.96146e-06
-6.6022e-06
1.31845e-07
2.1913e-06
-6.53628e-06
1.31531e-07
2.40772e-06
-6.40472e-06
1.30597e-07
2.60768e-06
-6.21246e-06
1.29249e-07
2.78842e-06
-5.9626e-06
1.27629e-07
2.94824e-06
-5.65841e-06
1.25909e-07
3.08581e-06
-5.30382e-06
1.24216e-07
3.20026e-06
-4.90353e-06
1.22641e-07
3.29119e-06
-4.46298e-06
1.21234e-07
3.35864e-06
-3.98793e-06
1.20052e-07
3.40292e-06
-3.4839e-06
1.19153e-07
3.42432e-06
-2.95538e-06
1.18594e-07
3.42282e-06
-2.40515e-06
1.18465e-07
3.39764e-06
-1.83344e-06
1.18889e-07
3.34669e-06
-1.23696e-06
1.20039e-07
3.26596e-06
-6.07657e-07
1.22137e-07
3.14896e-06
6.85752e-08
1.25444e-07
2.98674e-06
8.13325e-07
1.30205e-07
2.76856e-06
1.65757e-06
1.36528e-07
2.48422e-06
2.64044e-06
1.44145e-07
2.12864e-06
3.7951e-06
1.51994e-07
1.70884e-06
5.10921e-06
1.57692e-07
1.25103e-06
6.45284e-06
1.57279e-07
8.02111e-07
7.49896e-06
1.45909e-07
4.05986e-07
7.81655e-06
1.20651e-07
1.15903e-07
6.89054e-06
8.16593e-08
3.51774e-06
3.03128e-08
5.67641e-08
-1.19669e-06
2.61888e-08
2.04524e-07
-3.11644e-06
6.15019e-08
4.14233e-07
-4.55478e-06
8.59187e-08
6.58567e-07
-5.58126e-06
1.02617e-07
9.15549e-07
-6.2538e-06
1.13623e-07
1.1724e-06
-6.65529e-06
1.20507e-07
1.42389e-06
-6.87211e-06
1.24431e-07
1.66778e-06
-6.96409e-06
1.26232e-07
1.9022e-06
-6.96319e-06
1.26548e-07
2.1254e-06
-6.88539e-06
1.25912e-07
2.3351e-06
-6.73912e-06
1.24686e-07
2.52886e-06
-6.52932e-06
1.23098e-07
2.70458e-06
-6.25966e-06
1.21352e-07
2.86045e-06
-5.93387e-06
1.19602e-07
2.99508e-06
-5.55639e-06
1.17961e-07
3.10756e-06
-5.13248e-06
1.16489e-07
3.19747e-06
-4.66809e-06
1.15236e-07
3.26477e-06
-4.16945e-06
1.14255e-07
3.30962e-06
-3.6423e-06
1.1359e-07
3.33215e-06
-3.09117e-06
1.13284e-07
3.33219e-06
-2.51855e-06
1.13394e-07
3.30882e-06
-1.92404e-06
1.14004e-07
3.25988e-06
-1.30323e-06
1.15243e-07
3.18136e-06
-6.46399e-07
1.17287e-07
3.06692e-06
6.26655e-08
1.20361e-07
2.90777e-06
8.47794e-07
1.24685e-07
2.69353e-06
1.74142e-06
1.30376e-07
2.41445e-06
2.78223e-06
1.37224e-07
2.0661e-06
3.99903e-06
1.44315e-07
1.6561e-06
5.36951e-06
1.49531e-07
1.21079e-06
6.74869e-06
1.49249e-07
7.75721e-07
7.79498e-06
1.38859e-07
3.92232e-07
8.08485e-06
1.15116e-07
1.12052e-07
7.09312e-06
7.78267e-08
3.6019e-06
2.87184e-08
5.70921e-08
-1.2794e-06
2.5405e-08
2.03586e-07
-3.32269e-06
5.9595e-08
4.09854e-07
-4.84411e-06
8.29455e-08
6.48675e-07
-5.91882e-06
9.86542e-08
8.98606e-07
-6.6126e-06
1.08809e-07
1.14771e-06
-7.01945e-06
1.15009e-07
1.39133e-06
-7.23418e-06
1.18411e-07
1.62748e-06
-7.32012e-06
1.19844e-07
1.85442e-06
-7.3101e-06
1.19947e-07
2.07019e-06
-7.22037e-06
1.19196e-07
2.27263e-06
-7.0595e-06
1.17933e-07
2.45959e-06
-6.83268e-06
1.16403e-07
2.62906e-06
-6.54391e-06
1.14787e-07
2.77942e-06
-6.19744e-06
1.13217e-07
2.90946e-06
-5.79821e-06
1.11796e-07
3.01842e-06
-5.35198e-06
1.10573e-07
3.10594e-06
-4.86519e-06
1.09594e-07
3.17197e-06
-4.34435e-06
1.08903e-07
3.21654e-06
-3.79538e-06
1.08536e-07
3.23965e-06
-3.22276e-06
1.08524e-07
3.2409e-06
-2.62868e-06
1.0891e-07
3.21919e-06
-2.01206e-06
1.09755e-07
3.17219e-06
-1.36736e-06
1.11157e-07
3.09578e-06
-6.83227e-07
1.13251e-07
2.98361e-06
5.86379e-08
1.16214e-07
2.82706e-06
8.84107e-07
1.20225e-07
2.6161e-06
1.82697e-06
1.25378e-07
2.3416e-06
2.92516e-06
1.31495e-07
1.99993e-06
4.20279e-06
1.37773e-07
1.59949e-06
5.62744e-06
1.4232e-07
1.16679e-06
7.0393e-06
1.41845e-07
7.4601e-07
8.08346e-06
1.32052e-07
3.76052e-07
8.34512e-06
1.09563e-07
1.07039e-07
7.28837e-06
7.39389e-08
3.68259e-06
2.71312e-08
5.67529e-08
-1.36094e-06
2.45829e-08
2.01874e-07
-3.52552e-06
5.75287e-08
4.05324e-07
-5.12737e-06
7.96886e-08
6.39604e-07
-6.24749e-06
9.43168e-08
8.83576e-07
-6.96022e-06
1.03588e-07
1.12595e-06
-7.371e-06
1.09125e-07
1.36257e-06
-7.5829e-06
1.1206e-07
1.59159e-06
-7.66237e-06
1.13195e-07
1.81133e-06
-7.64302e-06
1.13143e-07
2.01989e-06
-7.5413e-06
1.12356e-07
2.21518e-06
-7.36596e-06
1.11152e-07
2.39521e-06
-7.12245e-06
1.09752e-07
2.55821e-06
-6.81522e-06
1.08327e-07
2.70283e-06
-6.44903e-06
1.06995e-07
2.8281e-06
-6.0293e-06
1.05845e-07
2.93344e-06
-5.56222e-06
1.04924e-07
3.0186e-06
-5.05458e-06
1.0427e-07
3.08347e-06
-4.51311e-06
1.03914e-07
3.12802e-06
-3.94378e-06
1.03879e-07
3.15204e-06
-3.35092e-06
1.04181e-07
3.15489e-06
-2.73635e-06
1.04848e-07
3.13523e-06
-2.09829e-06
1.05928e-07
3.09046e-06
-1.43007e-06
1.07502e-07
3.01632e-06
-7.18739e-07
1.09683e-07
2.90639e-06
5.59647e-08
1.12611e-07
2.75214e-06
9.21923e-07
1.16419e-07
2.54394e-06
1.91396e-06
1.21158e-07
2.27333e-06
3.06904e-06
1.26638e-07
1.93759e-06
4.40625e-06
1.32129e-07
1.54592e-06
5.88295e-06
1.35929e-07
1.12507e-06
7.32481e-06
1.35074e-07
7.17862e-07
8.36478e-06
1.2562e-07
3.60882e-07
8.59778e-06
1.04174e-07
1.02433e-07
7.47684e-06
7.01362e-08
3.76018e-06
2.55972e-08
5.79127e-08
-1.44256e-06
2.34945e-08
2.03679e-07
-3.72619e-06
5.47531e-08
4.05952e-07
-5.40516e-06
7.53985e-08
6.36861e-07
-6.56723e-06
8.87426e-08
8.75606e-07
-7.29607e-06
9.70422e-08
1.11166e-06
-7.70903e-06
1.01929e-07
1.34137e-06
-7.91713e-06
1.04486e-07
1.56311e-06
-7.98959e-06
1.05452e-07
1.77527e-06
-7.96059e-06
1.05387e-07
1.97603e-06
-7.84676e-06
1.04696e-07
2.16345e-06
-7.65705e-06
1.03662e-07
2.33574e-06
-7.39723e-06
1.02489e-07
2.49138e-06
-7.07219e-06
1.01339e-07
2.62928e-06
-6.68723e-06
1.00318e-07
2.74872e-06
-6.24822e-06
9.95078e-08
2.84932e-06
-5.76174e-06
9.89524e-08
2.93093e-06
-5.23485e-06
9.86882e-08
2.99354e-06
-4.67441e-06
9.87385e-08
3.03705e-06
-4.08636e-06
9.91136e-08
3.06114e-06
-3.47479e-06
9.9815e-08
3.06501e-06
-2.84103e-06
1.00852e-07
3.04702e-06
-2.18252e-06
1.02255e-07
3.00433e-06
-1.49143e-06
1.0408e-07
2.9324e-06
-7.53204e-07
1.06418e-07
2.82464e-06
5.43486e-08
1.09377e-07
2.67267e-06
9.60828e-07
1.13053e-07
2.46717e-06
2.00195e-06
1.17454e-07
2.20044e-06
3.21329e-06
1.22373e-07
1.87069e-06
4.60869e-06
1.27123e-07
1.48808e-06
6.13515e-06
1.30159e-07
1.07954e-06
7.60422e-06
1.28818e-07
6.8663e-07
8.63786e-06
1.19521e-07
3.43637e-07
8.84165e-06
9.89434e-08
9.69385e-08
7.65727e-06
6.63987e-08
3.83377e-06
2.40856e-08
5.86013e-08
-1.52366e-06
2.22994e-08
2.04903e-07
-3.92432e-06
5.16673e-08
4.06385e-07
-5.67744e-06
7.06736e-08
6.34567e-07
-6.87819e-06
8.26763e-08
8.68867e-07
-7.62043e-06
8.99976e-08
1.09944e-06
-8.03391e-06
9.42602e-08
1.32307e-06
-8.23728e-06
9.64792e-08
1.53827e-06
-8.30214e-06
9.73242e-08
1.74349e-06
-8.26311e-06
9.72921e-08
1.93696e-06
-8.13698e-06
9.6741e-08
2.11691e-06
-7.93291e-06
9.59215e-08
2.28171e-06
-7.65704e-06
9.50161e-08
2.43011e-06
-7.31475e-06
9.41738e-08
2.56127e-06
-6.91187e-06
9.35002e-08
2.67471e-06
-6.45468e-06
9.30536e-08
2.77029e-06
-5.95015e-06
9.2875e-08
2.84801e-06
-5.40552e-06
9.29979e-08
2.90791e-06
-4.82771e-06
9.3442e-08
2.9499e-06
-4.22252e-06
9.42128e-08
2.97358e-06
-3.59373e-06
9.53072e-08
2.97799e-06
-2.94213e-06
9.67273e-08
2.9613e-06
-2.26429e-06
9.84898e-08
2.9204e-06
-1.55114e-06
1.00633e-07
2.85051e-06
-7.86509e-07
1.0322e-07
2.7449e-06
5.36447e-08
1.0632e-07
2.5951e-06
1.00063e-06
1.09975e-07
2.39218e-06
2.09067e-06
1.14145e-07
2.12912e-06
3.35765e-06
1.18592e-07
1.80515e-06
4.80982e-06
1.22661e-07
1.43133e-06
6.38375e-06
1.2495e-07
1.0349e-06
7.87724e-06
1.23076e-07
6.5609e-07
8.90252e-06
1.13823e-07
3.26935e-07
9.07661e-06
9.39791e-08
9.17153e-08
7.82976e-06
6.28303e-08
3.90355e-06
2.2652e-08
5.98821e-08
-1.6047e-06
2.09459e-08
2.07378e-07
-4.12011e-06
4.81447e-08
4.0847e-07
-5.94398e-06
6.53302e-08
6.34125e-07
-7.17982e-06
7.58971e-08
8.64075e-07
-7.93266e-06
8.22133e-08
1.0892e-06
-8.34494e-06
8.58664e-08
1.30676e-06
-8.54264e-06
8.77809e-08
1.51539e-06
-8.59933e-06
8.85396e-08
1.71359e-06
-8.5499e-06
8.85724e-08
1.89967e-06
-8.41125e-06
8.81902e-08
2.07198e-06
-8.19283e-06
8.76129e-08
2.22911e-06
-7.90115e-06
8.70055e-08
2.37001e-06
-7.54213e-06
8.65025e-08
2.49408e-06
-7.12211e-06
8.62078e-08
2.60109e-06
-6.64783e-06
8.61661e-08
2.69111e-06
-6.12654e-06
8.64112e-08
2.7643e-06
-5.56564e-06
8.69692e-08
2.82082e-06
-4.97203e-06
8.78516e-08
2.86059e-06
-4.3513e-06
8.90554e-08
2.88318e-06
-3.70684e-06
9.05713e-08
2.8875e-06
-3.03881e-06
9.2396e-08
2.87155e-06
-2.34284e-06
9.45404e-08
2.832e-06
-1.60859e-06
9.70337e-08
2.76383e-06
-8.18237e-07
9.99203e-08
2.66011e-06
5.41256e-08
1.03238e-07
2.51252e-06
1.04123e-06
1.06979e-07
2.31238e-06
2.1797e-06
1.11038e-07
2.05337e-06
3.5014e-06
1.15133e-07
1.73568e-06
5.00868e-06
1.18617e-07
1.37127e-06
6.62766e-06
1.20211e-07
9.87605e-07
8.14275e-06
1.17797e-07
6.23588e-07
9.15768e-06
1.08513e-07
3.0903e-07
9.30165e-06
8.92941e-08
8.60225e-08
7.99342e-06
5.9441e-08
3.969e-06
2.12914e-08
6.06313e-08
-1.68511e-06
1.95646e-08
2.08822e-07
-4.31297e-06
4.45234e-08
4.09292e-07
-6.20444e-06
5.98806e-08
6.32437e-07
-7.47209e-06
6.90507e-08
8.58299e-07
-8.23299e-06
7.44154e-08
1.07844e-06
-8.64263e-06
7.75023e-08
1.29047e-06
-8.83384e-06
7.91364e-08
1.49313e-06
-8.88182e-06
7.98142e-08
1.68495e-06
-8.82161e-06
7.99032e-08
1.86427e-06
-8.67024e-06
7.96708e-08
2.02956e-06
-8.43741e-06
7.93095e-08
2.17955e-06
-8.13008e-06
7.89676e-08
2.31341e-06
-7.75473e-06
7.87669e-08
2.43074e-06
-7.31821e-06
7.88024e-08
2.53153e-06
-6.8277e-06
7.91177e-08
2.61603e-06
-6.29074e-06
7.97435e-08
2.68457e-06
-5.71484e-06
8.07012e-08
2.7374e-06
-5.10682e-06
8.19969e-08
2.77453e-06
-4.47201e-06
8.36226e-08
2.79552e-06
-3.81335e-06
8.55636e-08
2.79924e-06
-3.13028e-06
8.78102e-08
2.78353e-06
-2.41745e-06
9.03656e-08
2.74487e-06
-1.66314e-06
9.3249e-08
2.67804e-06
-8.47868e-07
9.64878e-08
2.576e-06
5.60772e-08
1.00091e-07
2.43039e-06
1.08282e-06
1.04002e-07
2.2329e-06
2.26906e-06
1.08054e-07
1.97791e-06
3.64436e-06
1.11908e-07
1.66655e-06
5.20491e-06
1.14914e-07
1.31166e-06
6.86635e-06
1.15891e-07
9.40878e-07
8.4002e-06
1.12968e-07
5.91682e-07
9.4029e-06
1.03618e-07
2.91662e-07
9.5165e-06
8.49442e-08
8.06185e-08
8.14827e-06
5.62917e-08
4.03029e-06
2.00401e-08
6.16321e-08
-1.76511e-06
1.81611e-08
2.10621e-07
-4.50295e-06
4.08355e-08
4.10338e-07
-6.45863e-06
5.43649e-08
6.30767e-07
-7.75475e-06
6.21647e-08
8.52392e-07
-8.52127e-06
6.66097e-08
1.06749e-06
-8.92692e-06
6.91559e-08
1.27403e-06
-9.11092e-06
7.05242e-08
1.4708e-06
-9.14973e-06
7.11257e-08
1.65636e-06
-9.07844e-06
7.12679e-08
1.8291e-06
-8.91415e-06
7.11783e-08
1.98756e-06
-8.66688e-06
7.10237e-08
2.13063e-06
-8.34406e-06
7.09365e-08
2.25765e-06
-7.95274e-06
7.10259e-08
2.36839e-06
-7.50029e-06
7.13779e-08
2.46303e-06
-6.99432e-06
7.20323e-08
2.54195e-06
-6.44263e-06
7.30144e-08
2.60564e-06
-5.85282e-06
7.43404e-08
2.65446e-06
-5.2316e-06
7.60127e-08
2.6885e-06
-4.58402e-06
7.80216e-08
2.70733e-06
-3.91248e-06
8.03525e-08
2.7098e-06
-3.2157e-06
8.29956e-08
2.69368e-06
-2.48724e-06
8.59523e-08
2.65535e-06
-1.71401e-06
8.92366e-08
2.58944e-06
-8.74796e-07
9.28624e-08
2.48882e-06
5.98907e-08
9.68113e-08
2.34522e-06
1.12542e-06
1.00978e-07
2.15067e-06
2.35841e-06
1.0513e-07
1.90017e-06
3.78585e-06
1.08863e-07
1.59575e-06
5.3976e-06
1.11505e-07
1.25099e-06
7.09884e-06
1.11958e-07
8.93587e-07
8.64865e-06
1.08575e-07
5.59514e-07
9.63746e-06
9.91458e-08
2.74205e-07
9.72063e-06
8.09517e-08
7.51843e-08
8.29398e-06
5.34037e-08
4.0873e-06
1.89026e-08
6.20358e-08
-1.8442e-06