/*--------------------------------*- C++ -*----------------------------------*\
| =========                 |                                                 |
| \\      /  F ield         | OpenFOAM: The Open Source CFD Toolbox           |
|  \\    /   O peration     | Version:  v2006                                 |
|   \\  /    A nd           | Website:  www.openfoam.com                      |
|    \\/     M anipulation  |                                                 |
\*---------------------------------------------------------------------------*/
FoamFile
{
    version     2.0;
    format      ascii;
    class       volVectorField;
    location    "45";
    object      U;
}
// * * * * * * * * * * * * * * * * * * * * * * * * * * * * * * * * * * * * * //

dimensions      [0 1 -1 0 0 0 0];


internalField   nonuniform List<vector> 
78750
(
(-0.00762797 -0.00219769 -0.000286899)
(-0.00819234 -0.00581528 -0.00181581)
(-0.00694021 -0.00643394 -0.0024493)
(-0.00543467 -0.00624277 -0.0028671)
(-0.00449449 -0.00575006 -0.00319745)
(-0.0036343 -0.00513932 -0.00346126)
(-0.00284458 -0.00451565 -0.00367303)
(-0.00213495 -0.00392556 -0.00384252)
(-0.00150323 -0.0033856 -0.00397859)
(-0.000937903 -0.00290004 -0.00408946)
(-0.000427303 -0.00246731 -0.00418237)
(4.50708e-05 -0.00208341 -0.0042631)
(0.000487295 -0.00174496 -0.0043366)
(0.000900234 -0.00144755 -0.00440576)
(0.00129017 -0.00118739 -0.00447227)
(0.00166134 -0.000960687 -0.00453785)
(0.00201916 -0.0007643 -0.00460336)
(0.00236985 -0.000596373 -0.00466894)
(0.00271801 -0.000455677 -0.00473443)
(0.00306736 -0.000341019 -0.00479943)
(0.00342162 -0.000251178 -0.00486321)
(0.00378419 -0.000184703 -0.00492472)
(0.0041577 -0.000139457 -0.00498238)
(0.00454347 -0.000111781 -0.00503387)
(0.00494054 -9.50872e-05 -0.00507552)
(0.00534415 -7.74484e-05 -0.00510144)
(0.00574324 -3.73555e-05 -0.00510188)
(0.00611636 6.38596e-05 -0.00506069)
(0.0064252 0.0002953 -0.00495118)
(0.00660293 0.000777609 -0.00473265)
(0.00653049 0.00170998 -0.00435262)
(0.00601374 0.00335613 -0.00376338)
(0.00480317 0.00577485 -0.00294091)
(0.00287468 0.00790404 -0.00187111)
(0.000728338 0.00616898 -0.000540067)
(-0.000254053 0.000640116 0.000803748)
(-0.000278858 -0.00439276 0.000190687)
(-0.000628192 -0.00633705 -0.000675821)
(-0.000949666 -0.00658969 -0.00170934)
(-0.00124577 -0.00590501 -0.00279385)
(-0.00149281 -0.00481307 -0.00381788)
(-0.00166538 -0.00363705 -0.0047079)
(-0.00174795 -0.00254845 -0.00543573)
(-0.00174739 -0.00161554 -0.00600917)
(-0.00167649 -0.000841697 -0.00644405)
(-0.00154167 -0.00020903 -0.00677157)
(-0.00134945 0.000307536 -0.00702519)
(-0.00110959 0.000730894 -0.00723425)
(-0.000832006 0.00107985 -0.00742208)
(-0.000524387 0.00136755 -0.00760564)
(-0.000192972 0.00160299 -0.00779698)
(0.000155022 0.00179166 -0.00800297)
(0.000512883 0.00193625 -0.00822594)
(0.000876902 0.00203825 -0.00846504)
(0.00124545 0.00210034 -0.00871759)
(0.0016177 0.00212656 -0.0089796)
(0.00199345 0.00212333 -0.00924638)
(0.00237293 0.00210093 -0.00951292)
(0.00275596 0.00207696 -0.00977408)
(0.00314038 0.00208088 -0.0100239)
(0.00351958 0.0021611 -0.0102532)
(0.00387909 0.00239671 -0.0104444)
(0.0041917 0.00291551 -0.0105618)
(0.00441038 0.00391934 -0.0105347)
(0.00446973 0.00572182 -0.0102323)
(0.00427467 0.00878613 -0.00944889)
(0.00370262 0.0134872 -0.00797584)
(0.00269014 0.0191089 -0.00583044)
(0.00139944 0.0222599 -0.00335132)
(0.000153939 0.0153644 -0.00088524)
(1.24815e-05 0.000601598 0.00134324)
(-9.87437e-06 -0.00058744 0.00256448)
(-0.000350674 -0.000531269 0.00336772)
(-0.000684922 6.45947e-05 0.00381419)
(-0.000991157 0.000762541 0.00399814)
(-0.00123032 0.00134842 0.00403051)
(-0.00137824 0.00175474 0.0040029)
(-0.00142555 0.00199395 0.00397111)
(-0.00136592 0.00211157 0.00395555)
(-0.00119826 0.0021659 0.00396394)
(-0.000939974 0.00220345 0.00398506)
(-0.000612312 0.00225869 0.00400338)
(-0.000234452 0.00235544 0.00400454)
(0.000175313 0.00250832 0.00397682)
(0.000599902 0.00272415 0.00391113)
(0.00102321 0.00300282 0.00380031)
(0.00142882 0.0033382 0.00363854)
(0.00180203 0.00371873 0.00342137)
(0.00214191 0.00412575 0.00314671)
(0.00244646 0.00454442 0.00280713)
(0.00270915 0.00495876 0.00239545)
(0.00292054 0.00535838 0.0019047)
(0.00307539 0.00573932 0.00132349)
(0.00317606 0.00611444 0.000638915)
(0.00322811 0.00652466 -0.000164058)
(0.00323804 0.00705243 -0.00109962)
(0.00321085 0.0078353 -0.00217175)
(0.00314641 0.00907771 -0.00335262)
(0.00303462 0.0110748 -0.00456713)
(0.00284051 0.0142024 -0.00564855)
(0.00251475 0.0187505 -0.00627331)
(0.00200874 0.0245033 -0.00605194)
(0.00134579 0.0298511 -0.00482574)
(0.000637125 0.0307966 -0.00286974)
(4.67945e-05 0.0191726 -0.00068942)
(-2.58953e-05 -0.00101925 0.00168739)
(-2.10677e-05 -0.00348119 0.00367093)
(-6.82189e-05 -0.00450157 0.00500631)
(-3.57971e-06 -0.0047748 0.00586074)
(0.000171756 -0.00475969 0.00637971)
(0.000457703 -0.00471724 0.00668194)
(0.000842745 -0.00476234 0.0068522)
(0.00130903 -0.00491495 0.00694504)
(0.00183627 -0.00514269 0.00699307)
(0.00240454 -0.00539255 0.00701518)
(0.00299537 -0.00560876 0.00702278)
(0.00359171 -0.00574213 0.00702365)
(0.00417801 -0.00575428 0.00702388)
(0.00474013 -0.00561865 0.00702875)
(0.00526552 -0.00531964 0.00704287)
(0.00574339 -0.0048513 0.00707004)
(0.00616533 -0.00421583 0.00711282)
(0.00652365 -0.00342271 0.00717247)
(0.0068052 -0.00248957 0.00725027)
(0.00699348 -0.0014324 0.0073419)
(0.007084 -0.000272182 0.00743954)
(0.00707519 0.000968419 0.00752895)
(0.00696086 0.00227041 0.00758674)
(0.00673541 0.00362445 0.00757445)
(0.00640155 0.00504235 0.00743365)
(0.00596601 0.00657691 0.00708104)
(0.0054499 0.00834921 0.00641447)
(0.00487425 0.0106122 0.00532002)
(0.00425628 0.013748 0.00370618)
(0.00361415 0.0181496 0.00166065)
(0.0029431 0.0240097 -0.00041142)
(0.0022155 0.030792 -0.00184989)
(0.00145707 0.0363049 -0.00213109)
(0.000720728 0.0361766 -0.00135965)
(0.000102675 0.0216743 -0.000162576)
(-2.09445e-05 -0.00152344 0.00144329)
(1.23989e-05 -0.00485415 0.00315103)
(9.40965e-05 -0.00718954 0.00420025)
(0.000319081 -0.00898091 0.00479327)
(0.000690803 -0.010465 0.00509042)
(0.00119696 -0.011737 0.00520685)
(0.00181096 -0.0128232 0.00521926)
(0.00250163 -0.0137174 0.00517493)
(0.00323834 -0.0143993 0.00510223)
(0.003993 -0.0148472 0.00501784)
(0.00474133 -0.0150434 0.00493146)
(0.00546319 -0.0149772 0.00484873)
(0.0061423 -0.0146455 0.00477298)
(0.00676573 -0.0140516 0.00470642)
(0.00732326 -0.0132052 0.00465098)
(0.00780684 -0.0121201 0.00460895)
(0.00821002 -0.0108142 0.00458356)
(0.00852751 -0.00930791 0.00457944)
(0.00875467 -0.00762341 0.00460301)
(0.00888725 -0.00578279 0.0046627)
(0.00892092 -0.00380802 0.0047686)
(0.00885076 -0.00171989 0.00493148)
(0.00867654 0.000464006 0.00516093)
(0.00839712 0.00273355 0.00545884)
(0.00800726 0.00509487 0.00581232)
(0.00750505 0.00760489 0.00618753)
(0.00688642 0.0104063 0.00651068)
(0.00615581 0.0137477 0.00662674)
(0.00532906 0.0180011 0.00628628)
(0.00443373 0.0235717 0.00525262)
(0.00349846 0.0305657 0.00357114)
(0.0025286 0.038157 0.00177552)
(0.00159552 0.0436547 0.000631565)
(0.000752131 0.0423268 0.000331028)
(9.65115e-05 0.0246154 0.000384115)
(-1.55791e-05 -0.00271146 0.0012531)
(0.000112042 -0.00788027 0.00277817)
(0.000342446 -0.0118973 0.00372479)
(0.000695551 -0.0151404 0.0042855)
(0.00115159 -0.0177669 0.00460725)
(0.0016847 -0.0198601 0.00479358)
(0.00227425 -0.0214792 0.00490948)
(0.00289259 -0.0226625 0.00498609)
(0.00351971 -0.0234317 0.00504052)
(0.00414079 -0.0238039 0.00508259)
(0.00474324 -0.023796 0.00511753)
(0.00531659 -0.0234261 0.0051477)
(0.00585231 -0.0227139 0.00517351)
(0.00634345 -0.0216806 0.00519403)
(0.00678428 -0.0203491 0.0052074)
(0.00716993 -0.0187434 0.00521118)
(0.00749615 -0.0168878 0.00520284)
(0.00775893 -0.0148073 0.00518033)
(0.00795451 -0.0125268 0.00514277)
(0.00807951 -0.0100716 0.00509157)
(0.00812935 -0.00746558 0.00503169)
(0.0080999 -0.00473296 0.00497228)
(0.0079855 -0.00189601 0.00492806)
(0.00778365 0.00104174 0.00492072)
(0.00749022 0.00411821 0.00497814)
(0.00709715 0.00741341 0.00512658)
(0.00659576 0.0110743 0.00537323)
(0.00597721 0.0153702 0.00567122)
(0.00523695 0.0207074 0.00586401)
(0.00438143 0.0275056 0.00567463)
(0.00343175 0.0357842 0.00487109)
(0.00241451 0.0443884 0.00358291)
(0.0014638 0.0500444 0.00237131)
(0.000650651 0.0476932 0.00151274)
(7.22142e-05 0.0270673 0.000740867)
(-1.19815e-05 -0.00376162 0.00120612)
(0.000118733 -0.0104592 0.00275251)
(0.000341962 -0.0157018 0.00373346)
(0.00066403 -0.0199046 0.0043201)
(0.00106954 -0.0232428 0.00464333)
(0.00152639 -0.0257873 0.00480239)
(0.00202097 -0.0276623 0.00487542)
(0.00254309 -0.028973 0.00490785)
(0.00307027 -0.0297699 0.00491879)
(0.00359392 -0.0300892 0.00492205)
(0.00410687 -0.0299623 0.0049271)
(0.00460194 -0.0294177 0.0049403)
(0.0050725 -0.0284833 0.0049656)
(0.00551268 -0.027187 0.00500487)
(0.00591736 -0.0255568 0.0050581)
(0.00628223 -0.0236204 0.00512345)
(0.00660365 -0.0214045 0.00519737)
(0.0068763 -0.0189335 0.00527503)
(0.0070939 -0.0162354 0.00534845)
(0.00724886 -0.0133425 0.00540804)
(0.00733491 -0.0102667 0.00544773)
(0.00734582 -0.00701826 0.00546223)
(0.00727583 -0.00362373 0.00544669)
(0.00712138 -8.96157e-05 0.00540441)
(0.00687987 0.00361365 0.00534999)
(0.00654779 0.00757629 0.00531033)
(0.00611896 0.0119838 0.00531995)
(0.00558256 0.0171529 0.00540049)
(0.0049258 0.0235214 0.00551166)
(0.00414221 0.0314751 0.00549371)
(0.00324115 0.0408637 0.00510619)
(0.00225151 0.0501632 0.00425586)
(0.00133972 0.0556439 0.00321629)
(0.000576929 0.0521731 0.00216236)
(6.08598e-05 0.0289563 0.000935958)
(-1.29031e-05 -0.00476865 0.00107647)
(0.000111554 -0.0130148 0.00244641)
(0.000336016 -0.0195104 0.00325303)
(0.000665871 -0.024707 0.00367179)
(0.00108401 -0.0287998 0.00384552)
(0.00156144 -0.03189 0.0038783)
(0.0020651 -0.0341018 0.00384112)
(0.0025893 -0.0355932 0.00378516)
(0.00311952 -0.0364715 0.00372919)
(0.00364032 -0.0367895 0.00368316)
(0.00414594 -0.0365898 0.00365375)
(0.00463106 -0.0359116 0.0036452)
(0.00509052 -0.0347928 0.00366033)
(0.00551999 -0.0332702 0.0037011)
(0.00591634 -0.0313802 0.00376866)
(0.0062774 -0.029158 0.00386327)
(0.006597 -0.0266371 0.00398415)
(0.00687005 -0.0238272 0.00413146)
(0.00709003 -0.0207214 0.00430634)
(0.00724552 -0.0173419 0.00450305)
(0.00732809 -0.013734 0.0047091)
(0.00733146 -0.00994175 0.00490916)
(0.00725218 -0.00599898 0.00508655)
(0.00708787 -0.0019155 0.00522656)
(0.00683636 0.00234262 0.005321)
(0.00649478 0.00688255 0.00537298)
(0.00605885 0.0119245 0.0053996)
(0.00552107 0.0178381 0.00542631)
(0.00487149 0.0251147 0.00545951)
(0.00410315 0.0341418 0.00543223)
(0.0032193 0.0446322 0.00517964)
(0.0022415 0.0547105 0.00455605)
(0.0013434 0.0602104 0.00365625)
(0.000586814 0.0559225 0.00253641)
(6.90931e-05 0.0305744 0.00105162)
(-1.94629e-06 -0.00570409 0.000878337)
(0.000163034 -0.0154093 0.00198415)
(0.000452674 -0.023101 0.00262205)
(0.00085457 -0.0292421 0.00295343)
(0.00133799 -0.0340133 0.00310013)
(0.00186736 -0.0375268 0.00314213)
(0.00239744 -0.0399255 0.00312981)
(0.0029262 -0.0414605 0.00310088)
(0.00345105 -0.0422968 0.00306996)
(0.00395285 -0.0425055 0.00304073)
(0.00442864 -0.0421435 0.00301615)
(0.00487657 -0.0412626 0.00299857)
(0.00529466 -0.0399111 0.0029905)
(0.00568166 -0.0381345 0.00299484)
(0.0060372 -0.0359758 0.00301493)
(0.00635669 -0.0334745 0.00305456)
(0.00663565 -0.030637 0.00312021)
(0.00687056 -0.0274446 0.00322071)
(0.00705223 -0.023911 0.00336213)
(0.00717372 -0.0200789 0.00354583)
(0.007231 -0.0159952 0.00376856)
(0.00721951 -0.0117049 0.00402103)
(0.00713396 -0.00724351 0.00428762)
(0.0069688 -0.00262435 0.00454803)
(0.00671874 0.00218394 0.00478128)
(0.00637884 0.00729172 0.00497116)
(0.00594311 0.0129348 0.00511177)
(0.00540354 0.0195126 0.00520929)
(0.00475206 0.027548 0.00527038)
(0.00398535 0.0374193 0.00526447)
(0.00310924 0.0487156 0.00508323)
(0.00214766 0.0592626 0.00458852)
(0.00127711 0.0645975 0.00379014)
(0.000549652 0.0594582 0.00266622)
(5.83919e-05 0.0321041 0.00107233)
(9.8739e-07 -0.00679275 0.000742812)
(0.000184344 -0.0182068 0.00169414)
(0.000504482 -0.0272193 0.00226761)
(0.000937169 -0.0342995 0.00259595)
(0.00143965 -0.0396397 0.00277107)
(0.00197153 -0.0434177 0.00285074)
(0.00249126 -0.0458805 0.00287247)
(0.00299805 -0.0473704 0.00286651)
(0.0034958 -0.0480956 0.00284917)
(0.00396805 -0.0481488 0.00282365)
(0.00441209 -0.0475996 0.00279243)
(0.00482795 -0.0465089 0.00275789)
(0.00521551 -0.0449318 0.00272255)
(0.00557494 -0.0429188 0.00268932)
(0.00590272 -0.0405161 0.0026618)
(0.0061936 -0.0377406 0.00264525)
(0.00644548 -0.0345736 0.00264688)
(0.00665115 -0.0310155 0.00267608)
(0.0068049 -0.0271048 0.00274152)
(0.00690521 -0.0228862 0.00285169)
(0.00695014 -0.018404 0.00301301)
(0.00693638 -0.0136985 0.00322728)
(0.00685917 -0.00879853 0.00348947)
(0.00671231 -0.0037094 0.00378621)
(0.0064883 0.00160829 0.00409637)
(0.00617844 0.00727374 0.00439421)
(0.00577265 0.0135352 0.00465484)
(0.00525968 0.0208091 0.00485957)
(0.0046298 0.0296283 0.00499526)
(0.00388047 0.0403423 0.00503496)
(0.0030199 0.052414 0.00490215)
(0.00207731 0.0633974 0.00448179)
(0.0012306 0.0685935 0.00375183)
(0.000525201 0.0626765 0.00265093)
(5.37091e-05 0.0334796 0.00103962)
(7.15875e-06 -0.00781523 0.000649406)
(0.00020669 -0.0208109 0.00150876)
(0.000544759 -0.0309945 0.00206226)
(0.00098792 -0.038856 0.00241148)
(0.00148859 -0.0446232 0.00262103)
(0.00200656 -0.0485634 0.00273328)
(0.00250723 -0.0510381 0.00278015)
(0.0029908 -0.0524588 0.00278992)
(0.00346349 -0.0530659 0.00278229)
(0.00391177 -0.0529685 0.00276163)
(0.00433212 -0.0522446 0.00273065)
(0.00472538 -0.0509614 0.00269184)
(0.00509229 -0.0491784 0.00264759)
(0.00543 -0.0469488 0.00260046)
(0.00573273 -0.0443017 0.00255294)
(0.00599857 -0.0412224 0.00250805)
(0.00622194 -0.0377044 0.00247145)
(0.0063971 -0.033786 0.00244941)
(0.00652406 -0.0295141 0.00244975)
(0.00660309 -0.0249357 0.00248171)
(0.00663346 -0.0200947 0.00255523)
(0.00661313 -0.0150266 0.00267968)
(0.00653831 -0.00975146 0.00286156)
(0.00640291 -0.00426129 0.00310171)
(0.00619827 0.00149892 0.00339256)
(0.00591347 0.00766451 0.00371645)
(0.0055354 0.0144996 0.00404636)
(0.00504965 0.0224326 0.00434843)
(0.00444448 0.0319901 0.00458417)
(0.0037175 0.0434656 0.00470507)
(0.00287939 0.0561771 0.00463463)
(0.00196728 0.0674272 0.0042737)
(0.00115582 0.0723828 0.00359742)
(0.000485383 0.0656577 0.00253712)
(4.54395e-05 0.0347271 0.000972004)
(7.02992e-06 -0.00888991 0.000617857)
(0.000206167 -0.0235404 0.00146474)
(0.000541325 -0.0349108 0.00203266)
(0.000976568 -0.0435264 0.00240262)
(0.00146302 -0.0496769 0.00262753)
(0.00196154 -0.0537457 0.00274802)
(0.00244423 -0.056219 0.00279797)
(0.00290885 -0.0575632 0.00280508)
(0.00336193 -0.0580486 0.00279188)
(0.00379371 -0.0578006 0.00276456)
(0.004199 -0.0569049 0.00272633)
(0.00457901 -0.0554344 0.00268015)
(0.00493156 -0.0534532 0.00262872)
(0.00525093 -0.0510007 0.00257432)
(0.00553525 -0.0480706 0.00251801)
(0.00577959 -0.0446589 0.00246279)
(0.00597807 -0.0408034 0.00241307)
(0.0061312 -0.0365503 0.0023739)
(0.00624032 -0.0319487 0.00235076)
(0.00630617 -0.0270456 0.00234998)
(0.00632879 -0.0218817 0.00237892)
(0.006307 -0.0164856 0.0024459)
(0.00623772 -0.0108659 0.00255949)
(0.00611516 -0.00499931 0.00272696)
(0.00593022 0.00118811 0.00295159)
(0.00567044 0.00785082 0.00322907)
(0.00532027 0.0152692 0.0035439)
(0.00486271 0.0238787 0.00386649)
(0.00428405 0.0341872 0.00415077)
(0.00358143 0.0464172 0.00433127)
(0.00276686 0.0597335 0.00431777)
(0.00188479 0.0712034 0.00401075)
(0.0011042 0.0759156 0.00338515)
(0.000460985 0.068415 0.00237908)
(4.24166e-05 0.0358714 0.000895224)
(8.87746e-06 -0.00988901 0.000597855)
(0.000207767 -0.0260586 0.00143221)
(0.000538193 -0.0384928 0.00199795)
(0.000963034 -0.0477643 0.00236774)
(0.00143413 -0.054234 0.00259184)
(0.00191392 -0.0584008 0.00271176)
(0.00238005 -0.0608626 0.00276188)
(0.00282792 -0.0621297 0.0027673)
(0.00326408 -0.062499 0.00275134)
(0.00368247 -0.0621085 0.00272128)
(0.00407664 -0.0610502 0.00268027)
(0.00444522 -0.0594016 0.00263128)
(0.00478288 -0.0572185 0.00257589)
(0.00508792 -0.0545097 0.00251387)
(0.00535615 -0.0512746 0.00244735)
(0.00558117 -0.0475506 0.00238058)
(0.00576286 -0.0433831 0.00231812)
(0.00590208 -0.0388234 0.00226456)
(0.00599973 -0.033924 0.00222476)
(0.00605661 -0.0287326 0.00220423)
(0.00607315 -0.0232868 0.00220923)
(0.00604873 -0.0176077 0.00224684)
(0.00598085 -0.0116908 0.00232483)
(0.00586418 -0.00549416 0.00245112)
(0.00568981 0.00107868 0.00263217)
(0.00544492 0.00820536 0.00286977)
(0.00511307 0.0161845 0.0031565)
(0.00467607 0.0254551 0.00346988)
(0.00411925 0.0364944 0.00376592)
(0.00343947 0.0494354 0.00397379)
(0.00264944 0.0632775 0.00399518)
(0.00180011 0.074872 0.0037287)
(0.00105153 0.0792964 0.00314915)
(0.000435957 0.0710166 0.0022042)
(3.87405e-05 0.0369475 0.000818684)
(7.45487e-06 -0.0108943 0.000597409)
(0.00019878 -0.0285966 0.00144133)
(0.000517006 -0.0420972 0.00201504)
(0.000926598 -0.0520207 0.00238809)
(0.00138014 -0.0588049 0.00261175)
(0.0018409 -0.0630698 0.00273078)
(0.00229132 -0.0655244 0.00278181)
(0.00272422 -0.0667185 0.0027883)
(0.00314541 -0.0669779 0.00276979)
(0.00355332 -0.0664517 0.00273857)
(0.00393759 -0.065238 0.00269794)
(0.00429411 -0.0634097 0.00264946)
(0.00462177 -0.0609958 0.00259279)
(0.00491704 -0.0580074 0.00252879)
(0.00517322 -0.0544801 0.00246122)
(0.00538898 -0.0504573 0.0023936)
(0.00556405 -0.0459896 0.00232894)
(0.00569858 -0.0411335 0.00227017)
(0.00579313 -0.0359448 0.0022206)
(0.00584848 -0.0304723 0.0021844)
(0.00586512 -0.024751 0.00216688)
(0.00584259 -0.0187944 0.00217465)
(0.00577863 -0.0125855 0.00221565)
(0.00566821 -0.00606362 0.00229882)
(0.00550259 0.000891004 0.00243291)
(0.00526887 0.00848034 0.00262373)
(0.00495029 0.0170216 0.00286951)
(0.00452834 0.0269552 0.00315404)
(0.00398833 0.0387226 0.00343775)
(0.00332736 0.05236 0.00364981)
(0.0025584 0.0666995 0.00368859)
(0.00173766 0.0783911 0.00345211)
(0.00101536 0.0825334 0.00291479)
(0.000420294 0.0735004 0.00203288)
(3.74292e-05 0.0379795 0.000748783)
(7.91939e-06 -0.011835 0.000594595)
(0.000195935 -0.0309633 0.00143406)
(0.000506585 -0.0454495 0.00199474)
(0.00090488 -0.0559715 0.00234872)
(0.00134409 -0.0630419 0.00255289)
(0.00178832 -0.0673945 0.00265679)
(0.00222213 -0.0698378 0.00269893)
(0.00264273 -0.0709686 0.00270243)
(0.00305115 -0.0711247 0.00267993)
(0.00344462 -0.0704712 0.00264476)
(0.0038154 -0.0691049 0.002601)
(0.00416078 -0.067081 0.00254938)
(0.00447816 -0.0644292 0.00249083)
(0.00476195 -0.0611841 0.00242935)
(0.00500959 -0.0573863 0.00236827)
(0.00521932 -0.0530846 0.00231007)
(0.0053901 -0.0483362 0.00225653)
(0.0055217 -0.0432028 0.00220912)
(0.00561446 -0.037744 0.00216948)
(0.00566899 -0.0320096 0.00213985)
(0.00568567 -0.0260318 0.00212354)
(0.00566405 -0.0198169 0.00212542)
(0.00560202 -0.0133349 0.0021522)
(0.00549481 -0.00650576 0.0022124)
(0.00533395 0.000814919 0.00231551)
(0.0051068 0.00885445 0.00246939)
(0.00479679 0.0179484 0.00267584)
(0.00438564 0.0285353 0.00292367)
(0.00385912 0.0410135 0.00317881)
(0.00321484 0.055314 0.00337472)
(0.0024661 0.0700994 0.00341243)
(0.0016738 0.081836 0.00319341)
(0.000977386 0.0856777 0.00269228)
(0.000402799 0.0758953 0.00187122)
(3.51908e-05 0.0389768 0.000685603)
(6.89565e-06 -0.0127803 0.000590271)
(0.000189689 -0.0333438 0.00141993)
(0.000491707 -0.0488171 0.00196347)
(0.000878897 -0.0599316 0.00229718)
(0.00130486 -0.0672791 0.00248286)
(0.00173445 -0.0717131 0.00257289)
(0.00215393 -0.0741419 0.0026063)
(0.00256279 -0.0752082 0.0026059)
(0.00295959 -0.075261 0.00258315)
(0.00334017 -0.0744756 0.00254657)
(0.00370022 -0.0729445 0.00250055)
(0.00403611 -0.0707217 0.00244739)
(0.00434375 -0.0678461 0.00239109)
(0.00461992 -0.0643559 0.00233492)
(0.00486185 -0.0602975 0.00228136)
(0.00506754 -0.0557258 0.00223214)
(0.00523588 -0.0507043 0.0021884)
(0.00536655 -0.0453 0.00215099)
(0.00545972 -0.0395756 0.00212073)
(0.00551573 -0.0335815 0.00209882)
(0.0055347 -0.0273476 0.00208723)
(0.00551591 -0.0208733 0.00208929)
(0.00545707 -0.0141161 0.00211013)
(0.00535337 -0.00697782 0.0021571)
(0.00519642 0.000710042 0.00223917)
(0.00497381 0.00919995 0.00236487)
(0.00466937 0.0188456 0.00253801)
(0.00426555 0.0300827 0.00275076)
(0.00374908 0.0432635 0.00297351)
(0.00311839 0.058211 0.00314484)
(0.00238705 0.0734192 0.00317132)
(0.00162004 0.0851838 0.00296124)
(0.000946215 0.0887299 0.00249067)
(0.000388826 0.0782153 0.00172571)
(3.38964e-05 0.0399453 0.000630378)
(7.71959e-06 -0.0136863 0.000579287)
(0.00018976 -0.0356136 0.00138702)
(0.000488005 -0.0520139 0.00190345)
(0.000867997 -0.0636759 0.00220901)
(0.00128346 -0.0712733 0.00237037)
(0.00170031 -0.0757776 0.00244226)
(0.00210655 -0.0781905 0.00246315)
(0.00250249 -0.0791945 0.00245458)
(0.00288678 -0.0791495 0.00242762)
(0.00325504 -0.0782341 0.00238852)
(0.00360309 -0.0765427 0.00234195)
(0.00392725 -0.0741311 0.00229197)
(0.00422406 -0.0710415 0.00224197)
(0.00449044 -0.0673177 0.00219477)
(0.00472393 -0.0630119 0.00215243)
(0.00492285 -0.0581855 0.00211614)
(0.00508629 -0.0529077 0.00208644)
(0.00521395 -0.0472497 0.00206356)
(0.0053059 -0.0412767 0.00204761)
(0.00536223 -0.035039 0.00203905)
(0.00538275 -0.028563 0.00203894)
(0.00536641 -0.0218408 0.00204947)
(0.00531063 -0.0148172 0.00207438)
(0.00521034 -0.00737553 0.00211934)
(0.00505703 0.00067594 0.00219173)
(0.00483834 0.00961332 0.00229901)
(0.00453853 0.0198061 0.00244534)
(0.00414086 0.0316839 0.0026252)
(0.00363334 0.0455493 0.00281338)
(0.00301555 0.0611142 0.00295446)
(0.0023016 0.0767066 0.00296253)
(0.00156039 0.0884651 0.0027547)
(0.000910091 0.091704 0.00230915)
(0.000371594 0.0804609 0.00159449)
(3.16801e-05 0.0408807 0.000580935)
(7.69186e-06 -0.0146024 0.000564194)
(0.000188486 -0.0378998 0.00134172)
(0.000483426 -0.0552183 0.00182406)
(0.000857599 -0.0674079 0.00209667)
(0.00126431 -0.0752327 0.00223119)
(0.00167017 -0.0797906 0.00228397)
(0.00206474 -0.0821772 0.0022921)
(0.00244905 -0.0831124 0.00227512)
(0.00282161 -0.0829654 0.00224304)
(0.00317799 -0.0819173 0.0022019)
(0.00351414 -0.0800643 0.00215626)
(0.00382661 -0.0774649 0.00210994)
(0.00411226 -0.0741658 0.00206634)
(0.00436844 -0.0702169 0.00202825)
(0.00459313 -0.0656755 0.00199753)
(0.00478505 -0.0606083 0.001975)
(0.00494352 -0.0550886 0.00196064)
(0.00506829 -0.0491905 0.00195392)
(0.00515932 -0.0429805 0.00195416)
(0.00521647 -0.036508 0.00196095)
(0.00523918 -0.029796 0.00197459)
(0.00522597 -0.0228291 0.00199651)
(0.00517383 -0.0155398 0.00202966)
(0.00507734 -0.00779336 0.00207869)
(0.00492777 0.000624653 0.00214957)
(0.00471276 0.0100131 0.00224804)
(0.00441691 0.0207552 0.00237689)
(0.00402441 0.0332714 0.00253082)
(0.00352462 0.047811 0.00268751)
(0.00291841 0.0639739 0.00279756)
(0.00222065 0.0799251 0.00278392)
(0.00150386 0.0916594 0.00257411)
(0.000875932 0.0945903 0.00214895)
(0.000355425 0.0826307 0.00147861)
(2.99362e-05 0.0417811 0.000537527)
(8.92709e-06 -0.0154975 0.000542097)
(0.000191411 -0.0401137 0.00127846)
(0.00048616 -0.0582986 0.00172047)
(0.000856889 -0.070971 0.0019579)
(0.00125634 -0.0789918 0.00206578)
(0.00165213 -0.0835864 0.00210048)
(0.00203547 -0.0859388 0.00209681)
(0.00240811 -0.0868017 0.00207216)
(0.00276847 -0.0865517 0.00203539)
(0.00311215 -0.0853721 0.00199211)
(0.00343531 -0.083361 0.00194677)
(0.00373481 -0.0805804 0.00190331)
(0.00400789 -0.0770816 0.00186521)
(0.00425231 -0.0729205 0.00183526)
(0.00446651 -0.0681595 0.00181528)
(0.00464958 -0.0628699 0.00180592)
(0.00480113 -0.0571286 0.00180692)
(0.00492108 -0.0510116 0.00181735)
(0.0050094 -0.0445853 0.00183591)
(0.00506581 -0.0378969 0.00186137)
(0.00508951 -0.0309647 0.00189304)
(0.00507863 -0.023765 0.00193127)
(0.00502972 -0.0162177 0.00197791)
(0.00493689 -0.00817055 0.00203641)
(0.00479101 0.000612373 0.0021114)
(0.00457959 0.0104506 0.00220701)
(0.00428762 0.0217388 0.00232454)
(0.0039002 0.0348849 0.00245814)
(0.00340818 0.050082 0.00258721)
(0.00281385 0.0668162 0.00266749)
(0.00213299 0.0830928 0.00263093)
(0.00144153 0.0947754 0.00241624)
(0.000837298 0.097389 0.00200734)
(0.000336664 0.0847178 0.00137559)
(2.76135e-05 0.0426411 0.000498762)
(9.61278e-06 -0.0164023 0.000517235)
(0.000193372 -0.0423353 0.00120849)
(0.000488157 -0.0613673 0.00160912)
(0.00085632 -0.074493 0.00181201)
(0.00124971 -0.082681 0.00189432)
(0.00163678 -0.0872921 0.00191186)
(0.0020103 -0.0895982 0.00189702)
(0.00237261 -0.0903808 0.00186509)
(0.00272193 -0.0900221 0.00182387)
(0.00305386 -0.0887073 0.0017786)
(0.00336479 -0.0865369 0.00173361)
(0.00365184 -0.0835764 0.00169279)
(0.00391263 -0.0798827 0.0016596)
(0.00414538 -0.0755175 0.00163667)
(0.00434893 -0.0705479 0.00162563)
(0.00452279 -0.0650494 0.001627)
(0.00466691 -0.0591015 0.00164039)
(0.00478137 -0.0527812 0.00166477)
(0.0048662 -0.0461542 0.00169869)
(0.00492106 -0.0392647 0.00174071)
(0.00494492 -0.032125 0.00178974)
(0.00493566 -0.0247023 0.00184553)
(0.00488941 -0.0169032 0.00190897)
(0.00479986 -0.00855735 0.00198218)
(0.0046575 0.000592115 0.00206787)
(0.00444961 0.0108836 0.00216787)
(0.00416137 0.0227194 0.00228111)
(0.00377878 0.036491 0.0024005)
(0.00329415 0.0523319 0.00250654)
(0.00271129 0.0696136 0.00255974)
(0.00204702 0.0861864 0.00250092)
(0.00138039 0.097796 0.00228009)
(0.000799544 0.100088 0.00188435)
(0.000318587 0.0867165 0.00128595)
(2.56687e-05 0.043458 0.000465127)
(1.08938e-05 -0.017295 0.000489345)
(0.000196941 -0.0445048 0.00113068)
(0.000492666 -0.0643365 0.00148731)
(0.000858715 -0.077871 0.00165467)
(0.00124621 -0.0861937 0.00171144)
(0.00162466 -0.0908032 0.00171215)
(0.00198844 -0.0930535 0.00168636)
(0.0023404 -0.0937505 0.00164722)
(0.00267858 -0.0932801 0.00160154)
(0.00299861 -0.0918293 0.00155418)
(0.00329708 -0.089501 0.00150939)
(0.0035714 -0.086365 0.00147106)
(0.00381955 -0.082484 0.00144261)
(0.00404011 -0.0779252 0.00142659)
(0.00423236 -0.0727607 0.00142446)
(0.00439621 -0.0670698 0.00143661)
(0.0045319 -0.0609338 0.00146243)
(0.00463977 -0.0544299 0.00150062)
(0.00471996 -0.0476218 0.00154949)
(0.0047721 -0.0405499 0.00160734)
(0.00479504 -0.0332199 0.0016729)
(0.0047864 -0.0255893 0.00174565)
(0.00474197 -0.0175505 0.00182613)
(0.00465504 -0.00891527 0.00191567)
(0.00451572 0.000594371 0.00201554)
(0.00431116 0.0113344 0.00212516)
(0.00402683 0.0237128 0.00224052)
(0.00364958 0.0381006 0.00235217)
(0.00317311 0.0545682 0.0024406)
(0.00260267 0.0723712 0.00247032)
(0.00195616 0.0892087 0.00239079)
(0.00131535 0.100722 0.00216332)
(0.000759025 0.102685 0.00177812)
(0.000299126 0.0886224 0.00120822)
(2.34448e-05 0.0442291 0.000435883)
(1.17327e-05 -0.0181912 0.000460499)
(0.000199164 -0.0466656 0.00105071)
(0.000495213 -0.06727 0.00136439)
(0.000858956 -0.08118 0.00149873)
(0.00124076 -0.0896086 0.00153262)
(0.0016112 -0.0941981 0.00151853)
(0.00196611 -0.0963818 0.00148308)
(0.00230872 -0.0969858 0.00143738)
(0.00263679 -0.0963984 0.00138736)
(0.00294597 -0.0948079 0.00133755)
(0.00323301 -0.0923201 0.00129206)
(0.00349556 -0.0890097 0.00125475)
(0.00373189 -0.0849451 0.00122901)
(0.00394095 -0.0801994 0.00121734)
(0.00412237 -0.0748496 0.00122125)
(0.00427642 -0.0689782 0.00124113)
(0.00440362 -0.0626682 0.00127643)
(0.00450454 -0.0559959 0.00132586)
(0.00457946 -0.0490224 0.00138768)
(0.0046281 -0.0417833 0.00146005)
(0.00464925 -0.0342769 0.00154151)
(0.00464035 -0.0264499 0.0016313)
(0.00459693 -0.0181801 0.00172956)
(0.00451195 -0.00926084 0.00183698)
(0.00437515 0.000605843 0.00195356)
(0.00417356 0.0117919 0.00207654)
(0.00389287 0.0247078 0.00219894)
(0.00352081 0.0397011 0.00230849)
(0.00305252 0.056776 0.00238481)
(0.00249464 0.0750724 0.00239544)
(0.0018662 0.0921427 0.00229787)
(0.00125116 0.103537 0.00206426)
(0.000719342 0.105168 0.00168778)
(0.000280435 0.0904288 0.00114214)
(2.15579e-05 0.0449523 0.000411185)
(1.28767e-05 -0.0190757 0.000431715)
(0.000201969 -0.0487782 0.000971609)
(0.000498301 -0.0701121 0.00124438)
(0.0008594 -0.0843574 0.00134804)
(0.00123515 -0.0928638 0.00136103)
(0.00159741 -0.0974182 0.00133351)
(0.00194347 -0.0995277 0.00128924)
(0.00227683 -0.100034 0.0012375)
(0.00259496 -0.0993267 0.00118346)
(0.00289353 -0.097595 0.00113135)
(0.00316946 -0.0949482 0.00108517)
(0.00342059 -0.0914658 0.00104867)
(0.00364546 -0.0872227 0.00102512)
(0.0038433 -0.0822976 0.00101692)
(0.00401409 -0.0767725 0.00102547)
(0.00415835 -0.0707329 0.00105114)
(0.00427686 -0.0642628 0.00109341)
(0.0043704 -0.0574378 0.00115109)
(0.0044394 -0.0503157 0.00122259)
(0.00448367 -0.0429269 0.00130628)
(0.00450201 -0.0352615 0.00140083)
(0.00449178 -0.0272545 0.00150559)
(0.00444834 -0.0187684 0.00162064)
(0.00436443 -0.00957753 0.00174624)
(0.00422958 0.000636296 0.00188127)
(0.00403074 0.0122599 0.00202079)
(0.00375395 0.0257039 0.00215469)
(0.00338775 0.041289 0.00226742)
(0.00292857 0.0589504 0.00233694)
(0.00238431 0.077712 0.00233299)
(0.00177501 0.0949841 0.00222028)
(0.00118624 0.10624 0.00198132)
(0.000679293 0.107537 0.00161208)
(0.000261726 0.0921356 0.00108682)
(1.96521e-05 0.0456283 0.000390643)
(1.36007e-05 -0.0199584 0.000404386)
(0.000203058 -0.0508694 0.000895768)
(0.000498192 -0.0729022 0.00112925)
(0.000855498 -0.08745 0.00120382)
(0.00122459 -0.0960089 0.00119728)
(0.00157863 -0.100514 0.0011573)
(0.0019162 -0.102541 0.00110473)
(0.00224089 -0.102944 0.00104714)
(0.00254987 -0.102113 0.000989004)
(0.00283879 -0.100237 0.00093431)
(0.00310469 -0.0974304 0.000886937)
(0.00334557 -0.0937767 0.000850569)
(0.00356015 -0.0893578 0.000828378)
(0.00374789 -0.0842583 0.000822689)
(0.003909 -0.0785647 0.000834844)
(0.00404423 -0.0723655 0.000865169)
(0.00415457 -0.0657454 0.000913143)
(0.00424099 -0.0587787 0.000977605)
(0.00430409 -0.05152 0.00105705)
(0.00434378 -0.0439935 0.00115001)
(0.00435887 -0.0361808 0.00125541)
(0.0043467 -0.028005 0.00137289)
(0.00430251 -0.0193128 0.00150278)
(0.0042189 -0.00985967 0.00164535)
(0.00408527 0.000692283 0.00179879)
(0.00388864 0.0127435 0.00195638)
(0.00361542 0.0267026 0.00210495)