/*--------------------------------*- C++ -*----------------------------------*\
| =========                 |                                                 |
| \\      /  F ield         | OpenFOAM: The Open Source CFD Toolbox           |
|  \\    /   O peration     | Version:  v2012                                 |
|   \\  /    A nd           | Website:  www.openfoam.com                      |
|    \\/     M anipulation  |                                                 |
\*---------------------------------------------------------------------------*/
FoamFile
{
    version     2.0;
    format      ascii;
    class       surfaceScalarField;
    location    "13";
    object      phi;
}
// * * * * * * * * * * * * * * * * * * * * * * * * * * * * * * * * * * * * * //

dimensions      [1 0 -1 0 0 0 0];
oriented        oriented;


internalField   nonuniform List<scalar> 
228225
(
-7.60784e-09
1.29525e-08
-5.22842e-09
-2.91482e-08
3.25404e-08
-1.10019e-08
-5.98711e-08
4.41406e-08
-1.34149e-08
-9.82472e-08
5.30401e-08
-1.46631e-08
-1.4217e-07
5.93654e-08
-1.54428e-08
-1.89223e-07
6.31381e-08
-1.60885e-08
-2.37422e-07
6.50326e-08
-1.68306e-08
-2.85455e-07
6.57388e-08
-1.77097e-08
-3.32536e-07
6.58776e-08
-1.87919e-08
-3.78139e-07
6.57226e-08
-2.01233e-08
-4.2172e-07
6.52789e-08
-2.1696e-08
-4.62554e-07
6.41782e-08
-2.33447e-08
-4.99605e-07
6.1883e-08
-2.48311e-08
-5.31946e-07
5.86682e-08
-2.63291e-08
-5.58791e-07
5.47508e-08
-2.79021e-08
-5.79543e-07
5.02957e-08
-2.95465e-08
-5.93742e-07
4.54499e-08
-3.12526e-08
-6.01101e-07
4.03429e-08
-3.29808e-08
-6.01515e-07
3.51182e-08
-3.47039e-08
-5.95006e-07
2.98987e-08
-3.64084e-08
-5.8172e-07
2.47864e-08
-3.8073e-08
-5.6192e-07
1.98693e-08
-3.96689e-08
-5.3597e-07
1.52138e-08
-4.11637e-08
-5.04331e-07
1.08735e-08
-4.25141e-08
-4.67523e-07
6.88027e-09
-4.36864e-08
-4.26135e-07
3.24877e-09
-4.46383e-08
-3.80823e-07
1.95942e-11
-4.53298e-08
-3.32138e-07
-2.97357e-09
-4.57131e-08
-2.80805e-07
-5.58701e-09
-4.57456e-08
-2.27612e-07
-7.83431e-09
-4.53587e-08
-1.73474e-07
-9.68431e-09
-4.44566e-08
-1.1964e-07
-1.10257e-08
-4.28062e-08
-6.81658e-08
-1.16361e-08
-3.98359e-08
-2.30833e-08
-1.1155e-08
-3.39321e-08
-7.08147e-09
-1.59994e-08
-2.85174e-08
6.29746e-08
-2.15059e-08
-8.40525e-08
1.09215e-07
-2.11389e-08
-1.49563e-07
1.3077e-07
-2.11195e-08
-2.19695e-07
1.45204e-07
-2.20307e-08
-2.90072e-07
1.53081e-07
-2.33395e-08
-3.57249e-07
1.55277e-07
-2.496e-08
-4.18544e-07
1.53359e-07
-2.70345e-08
-4.71931e-07
1.48811e-07
-2.96821e-08
-5.16091e-07
1.42834e-07
-3.27971e-08
-5.50318e-07
1.36058e-07
-3.61114e-08
-5.74455e-07
1.28669e-07
-3.92513e-08
-5.88907e-07
1.20515e-07
-4.18854e-08
-5.9465e-07
1.11367e-07
-4.37397e-08
-5.92743e-07
1.01738e-07
-4.49788e-08
-5.8419e-07
9.19248e-08
-4.57256e-08
-5.69966e-07
8.21801e-08
-4.61092e-08
-5.51015e-07
7.27048e-08
-4.6205e-08
-5.2828e-07
6.36943e-08
-4.60864e-08
-5.02602e-07
5.52624e-08
-4.58223e-08
-4.74684e-07
4.74586e-08
-4.54781e-08
-4.45097e-07
4.03097e-08
-4.51106e-08
-4.14269e-07
3.38018e-08
-4.47609e-08
-3.82514e-07
2.79121e-08
-4.4453e-08
-3.50047e-07
2.26033e-08
-4.4196e-08
-3.1704e-07
1.78415e-08
-4.39685e-08
-2.83625e-07
1.35833e-08
-4.37499e-08
-2.49892e-07
9.78932e-09
-4.35027e-08
-2.1609e-07
6.41969e-09
-4.31961e-08
-1.82333e-07
3.44269e-09
-4.27849e-08
-1.48781e-07
8.37505e-10
-4.22248e-08
-1.15641e-07
-1.36803e-09
-4.14557e-08
-8.31513e-08
-3.10128e-09
-4.04143e-08
-5.17147e-08
-4.25104e-09
-3.88212e-08
-2.26871e-08
-4.33151e-09
-3.58514e-08
-8.55648e-10
-2.89133e-08
-4.62452e-08
9.38395e-08
1.53812e-08
-1.1651e-07
1.59352e-07
2.01269e-08
-1.93131e-07
1.85576e-07
2.18164e-08
-2.69074e-07
1.99362e-07
2.17837e-08
-3.40176e-07
2.03922e-07
2.02617e-08
-4.03825e-07
2.01644e-07
1.72794e-08
-4.5845e-07
1.94983e-07
1.30029e-08
-5.02516e-07
1.85457e-07
7.41914e-09
-5.34884e-07
1.74337e-07
8.65479e-10
-5.54899e-07
1.62317e-07
-6.24677e-09
-5.62779e-07
1.49884e-07
-1.33329e-08
-5.59633e-07
1.37275e-07
-1.99061e-08
-5.47348e-07
1.24653e-07
-2.55708e-08
-5.27716e-07
1.12125e-07
-3.00199e-08
-5.02571e-07
9.99208e-08
-3.3141e-08
-4.73611e-07
8.8388e-08
-3.51685e-08
-4.42184e-07
7.77555e-08
-3.64785e-08
-4.09391e-07
6.81809e-08
-3.72783e-08
-3.76096e-07
5.96818e-08
-3.7714e-08
-3.42992e-07
5.22379e-08
-3.78857e-08
-3.10604e-07
4.579e-08
-3.78664e-08
-2.79328e-07
4.02397e-08
-3.77143e-08
-2.49431e-07
3.5483e-08
-3.74693e-08
-2.21076e-07
3.141e-08
-3.71602e-08
-1.94343e-07
2.7912e-08
-3.68052e-08
-1.69235e-07
2.4889e-08
-3.64127e-08
-1.45713e-07
2.22509e-08
-3.59863e-08
-1.23688e-07
1.99181e-08
-3.55197e-08
-1.03065e-07
1.78214e-08
-3.50033e-08
-8.37228e-08
1.59083e-08
-3.44114e-08
-6.55263e-08
1.41452e-08
-3.37119e-08
-4.83068e-08
1.25114e-08
-3.28312e-08
-3.19508e-08
1.10154e-08
-3.16239e-08
-1.62495e-08
9.66079e-09
-2.96916e-08
8.03485e-09
-2.5141e-08
-5.78241e-08
9.33969e-08
5.82681e-08
-1.15059e-07
1.51449e-07
6.51357e-08
-1.71121e-07
1.74569e-07
6.70697e-08
-2.26248e-07
1.86584e-07
6.79052e-08
-2.79414e-07
1.90316e-07
6.6772e-08
-3.29394e-07
1.87948e-07
6.36756e-08
-3.73827e-07
1.81701e-07
5.77163e-08
-4.10467e-07
1.72753e-07
4.93437e-08
-4.37082e-07
1.62091e-07
3.88617e-08
-4.5263e-07
1.50243e-07
2.76224e-08
-4.57134e-07
1.37734e-07
1.66557e-08
-4.51729e-07
1.249e-07
6.96838e-09
-4.38034e-07
1.12094e-07
-1.13707e-09
-4.17893e-07
9.96029e-08
-7.61739e-09
-3.93182e-07
8.78201e-08
-1.26107e-08
-3.65605e-07
7.71376e-08
-1.63254e-08
-3.36446e-07
6.77895e-08
-1.91937e-08
-3.06658e-07
5.98203e-08
-2.14276e-08
-2.77004e-07
5.31939e-08
-2.31659e-08
-2.48113e-07
4.78433e-08
-2.44988e-08
-2.20462e-07
4.36378e-08
-2.54958e-08
-1.94427e-07
4.04215e-08
-2.62182e-08
-1.70258e-07
3.80242e-08
-2.67102e-08
-1.48119e-07
3.62848e-08
-2.70136e-08
-1.28087e-07
3.50382e-08
-2.71584e-08
-1.10161e-07
3.41381e-08
-2.71754e-08
-9.42601e-08
3.34359e-08
-2.70851e-08
-8.02355e-08
3.28034e-08
-2.69108e-08
-6.78512e-08
3.21092e-08
-2.66713e-08
-5.67987e-08
3.12338e-08
-2.63789e-08
-4.6664e-08
3.00427e-08
-2.60318e-08
-3.68831e-08
2.83964e-08
-2.56667e-08
-2.65446e-08
2.61112e-08
-2.54324e-08
-1.46894e-08
2.31704e-08
-2.53671e-08
1.72096e-08
-2.38629e-08
-3.60803e-08
6.76641e-08
6.18123e-08
-5.41361e-08
1.0185e-07
6.76562e-08
-6.60732e-08
1.17352e-07
6.91548e-08
-7.70877e-08
1.27792e-07
6.98057e-08
-8.93539e-08
1.33477e-07
6.91057e-08
-1.0352e-07
1.35063e-07
6.70494e-08
-1.18618e-07
1.33357e-07
6.3445e-08
-1.33151e-07
1.29032e-07
5.82527e-08
-1.45188e-07
1.22749e-07
5.13782e-08
-1.5323e-07
1.15066e-07
4.32191e-08
-1.56492e-07
1.06499e-07
3.44979e-08
-1.55198e-07
9.74748e-08
2.61308e-08
-1.50227e-07
8.84016e-08
1.87212e-08
-1.42751e-07
7.963e-08
1.24955e-08
-1.33809e-07
7.14939e-08
7.38637e-09
-1.24151e-07
6.42587e-08
3.21969e-09
-1.14237e-07
5.80908e-08
-2.15092e-10
-1.04439e-07
5.30341e-08
-3.01174e-09
-9.49932e-08
4.90649e-08
-5.31736e-09
-8.60593e-08
4.60954e-08
-7.18493e-09
-7.77579e-08
4.40105e-08
-8.67434e-09
-7.01717e-08
4.26688e-08
-9.83347e-09
-6.33639e-08
4.19269e-08
-1.07111e-08
-5.736e-08
4.16305e-08
-1.13491e-08
-5.21632e-08
4.16331e-08
-1.17915e-08
-4.773e-08
4.17826e-08
-1.20784e-08
-4.39758e-08
4.19355e-08
-1.22533e-08
-4.07564e-08
4.19408e-08
-1.23573e-08
-3.78747e-08
4.16542e-08
-1.24276e-08
-3.50464e-08
4.09143e-08
-1.25069e-08
-3.19284e-08
3.95472e-08
-1.26239e-08
-2.8033e-08
3.73426e-08
-1.28418e-08
-2.25422e-08
3.40557e-08
-1.34356e-08
-1.40969e-08
2.93342e-08
-1.46072e-08
1.86427e-08
-1.55313e-08
-9.52797e-09
4.02039e-08
3.69892e-08
-6.36699e-09
5.84827e-08
4.02061e-08
2.70787e-09
6.75123e-08
4.07618e-08
1.53291e-08
7.43006e-08
4.08725e-08
2.9745e-08
7.88248e-08
4.02345e-08
4.47077e-08
8.13589e-08
3.87418e-08
5.93183e-08
8.22928e-08
3.64543e-08
7.29476e-08
8.19241e-08
3.34783e-08
8.51384e-08
8.05692e-08
2.99876e-08
9.55264e-08
7.84833e-08
2.61954e-08
1.03798e-07
7.59033e-08
2.23218e-08
1.09707e-07
7.3027e-08
1.85417e-08
1.13088e-07
7.00368e-08
1.49835e-08
1.13882e-07
6.71021e-08
1.17328e-08
1.12161e-07
6.43733e-08
8.84128e-09
1.08128e-07
6.19654e-08
6.32737e-09
1.02102e-07
5.99399e-08
4.17586e-09
9.44633e-08
5.83095e-08
2.36212e-09
8.56386e-08
5.70454e-08
8.469e-10
7.60059e-08
5.61075e-08
-3.81504e-10
6.59194e-08
5.54328e-08
-1.33456e-09
5.57003e-08
5.49604e-08
-2.07331e-09
4.5628e-08
5.46175e-08
-2.61816e-09
3.59227e-08
5.43385e-08
-3.00165e-09
2.67659e-08
5.40466e-08
-3.25786e-09
1.83017e-08
5.36701e-08
-3.42299e-09
1.06516e-08
5.31201e-08
-3.53461e-09
3.91588e-09
5.23067e-08
-3.63109e-09
-1.78105e-09
5.11109e-08
-3.75841e-09
-6.30661e-09
4.93993e-08
-3.96008e-09
-9.4903e-09
4.69999e-08
-4.26931e-09
-1.11153e-08
4.37212e-08
-4.75207e-09
-1.07118e-08
3.93265e-08
-5.67691e-09
-7.57832e-09
3.34459e-08
-7.24287e-09
2.01661e-08
-9.1027e-09
3.26268e-09
2.1337e-08
1.56049e-08
1.21649e-08
3.37793e-08
1.58002e-08
2.44775e-08
4.00382e-08
1.51613e-08
3.88922e-08
4.51389e-08
1.47478e-08
5.42451e-08
4.92298e-08
1.42415e-08
6.96102e-08
5.25008e-08
1.34934e-08
8.42196e-08
5.51479e-08
1.25347e-08
9.74694e-08
5.72872e-08
1.13869e-08
1.08929e-07
5.903e-08
1.00809e-08
1.18342e-07
6.04386e-08
8.6313e-09
1.25554e-07
6.16109e-08
7.08058e-09
1.30456e-07
6.26448e-08
5.47985e-09
1.32982e-07
6.35897e-08
3.92107e-09
1.33179e-07
6.44246e-08
2.48124e-09
1.31163e-07
6.51807e-08
1.20699e-09
1.27157e-07
6.58679e-08
1.03842e-10
1.21411e-07
6.64847e-08
-7.98453e-10
1.14229e-07
6.70227e-08
-1.53103e-09
1.05909e-07
6.74675e-08
-2.1029e-09
9.67513e-08
6.77908e-08
-2.52575e-09
8.70181e-08
6.79782e-08
-2.81158e-09
7.69524e-08
6.80027e-08
-2.97808e-09
6.67627e-08
6.78515e-08
-3.04261e-09
5.66304e-08
6.74959e-08
-3.02651e-09
4.67083e-08
6.69194e-08
-2.95115e-09
3.7139e-08
6.60807e-08
-2.84109e-09
2.80375e-08
6.4943e-08
-2.72112e-09
1.9533e-08
6.34317e-08
-2.62002e-09
1.175e-08
6.14628e-08
-2.56958e-09
4.85996e-09
5.88917e-08
-2.60225e-09
-9.40162e-10
5.55406e-08
-2.74054e-09
-5.32798e-09
5.11521e-08
-3.04249e-09
-7.65258e-09
4.54089e-08
-3.75886e-09
-6.77791e-09
3.76685e-08
-5.09755e-09
2.00634e-08
-6.67492e-09
-4.51644e-10
1.36522e-08
8.13633e-09
-2.26168e-09
2.85396e-08
7.05041e-09
-3.54504e-09
3.54032e-08
5.91941e-09
-4.31227e-09
4.07135e-08
5.19008e-09
-4.60445e-09
4.49467e-08
4.5763e-09
-4.38686e-09
4.83784e-08
3.9058e-09
-3.57538e-09
5.12053e-08
3.12945e-09
-2.1223e-09
5.35795e-08
2.25633e-09
-2.23454e-11
5.56128e-08
1.31618e-09
2.65655e-09
5.73958e-08
3.64653e-10
5.79764e-09
5.9037e-08
-5.69361e-10
9.28777e-09
6.06487e-08
-1.49096e-09
1.29903e-08
6.22475e-08
-2.36166e-09
1.67518e-08
6.37862e-08
-3.12401e-09
2.04652e-08
6.52541e-08
-3.78744e-09
2.40303e-08
6.66521e-08
-4.34708e-09
2.73452e-08
6.79633e-08
-4.79623e-09
3.03146e-08
6.91869e-08
-5.13199e-09
3.28282e-08
7.0298e-08
-5.34568e-09
3.4771e-08
7.12855e-08
-5.43632e-09
3.60391e-08
7.21244e-08
-5.41373e-09
3.65319e-08
7.27959e-08
-5.28634e-09
3.61851e-08
7.32692e-08
-5.07089e-09
3.49461e-08
7.35184e-08
-4.78395e-09
3.28142e-08
7.3499e-08
-4.44727e-09
2.98105e-08
7.31661e-08
-4.08142e-09
2.60152e-08
7.24513e-08
-3.71255e-09
2.154e-08
7.12712e-08
-3.36517e-09
1.65705e-08
6.95016e-08
-3.06876e-09
1.13314e-08
6.69769e-08
-2.84744e-09
6.14467e-09
6.3458e-08
-2.72909e-09
1.45703e-09
5.862e-08
-2.78105e-09
-1.92006e-09
5.20008e-08
-3.21445e-09
-2.99295e-09
4.29523e-08
-4.21036e-09
2.24121e-08
-5.34268e-09
-4.0827e-09
1.25937e-08
5.14051e-09
-9.27293e-09
2.87934e-08
4.93655e-09
-1.45584e-08
3.61472e-08
4.54144e-09
-1.98132e-08
4.17611e-08
4.2085e-09
-2.47888e-08
4.60981e-08
3.82291e-09
-2.923e-08
4.94941e-08
3.32607e-09
-3.29346e-08
5.21924e-08
2.71586e-09
-3.57272e-08
5.43772e-08
1.99592e-09
-3.74976e-08
5.61872e-08
1.19618e-09
-3.8196e-08
5.77321e-08
3.62615e-10
-3.78336e-08
5.91014e-08
-4.2848e-10
-3.63983e-08
6.0362e-08
-1.1465e-09
-3.39419e-08
6.15623e-08
-1.77431e-09
-3.05755e-08
6.27326e-08
-2.31039e-09
-2.64746e-08
6.38974e-08
-2.74428e-09
-2.18144e-08
6.50654e-08
-3.07475e-09
-1.67968e-08
6.62394e-08
-3.29337e-09
-1.16169e-08
6.74106e-08
-3.40349e-09
-6.48204e-09
6.85657e-08
-3.40243e-09
-1.5793e-09
6.96824e-08
-3.29917e-09
2.90173e-09
7.07371e-08
-3.09536e-09
6.80784e-09
7.16959e-08
-2.80611e-09
9.99475e-09
7.25224e-08
-2.43953e-09
1.23627e-08
7.31684e-08
-2.01835e-09
1.3839e-08
7.35803e-08
-1.55777e-09
1.44045e-08
7.3687e-08
-1.08704e-09
1.40787e-08
7.34045e-08
-6.25926e-10
1.29369e-08
7.26204e-08
-2.08363e-10
1.10923e-08
7.11921e-08
1.53886e-10
8.7153e-09
6.89252e-08
4.2925e-10
6.01501e-09
6.55605e-08
5.96402e-10
3.29142e-09
6.0742e-08
6.03448e-10
9.79416e-10
5.39876e-08
3.24881e-10
-3.47626e-10
4.46421e-08
-3.62827e-10
2.33327e-08
-1.26883e-09
-5.39201e-09
1.24731e-08
5.51326e-09
-1.1531e-08
2.87523e-08
6.17906e-09
-1.77991e-08
3.60639e-08
6.35165e-09
-2.39502e-08
4.15624e-08
6.34992e-09
-2.97572e-08
4.57353e-08
6.16873e-09
-3.50251e-08
4.89217e-08
5.84249e-09
-3.95958e-08
5.13763e-08
5.38445e-09
-4.33173e-08
5.32855e-08
4.81453e-09
-4.60688e-08
5.47937e-08
4.14394e-09
-4.77687e-08
5.6009e-08
3.42256e-09
-4.83907e-08
5.70226e-08
2.70241e-09
-4.79734e-08
5.79038e-08
2.04028e-09
-4.65845e-08
5.87136e-08
1.45818e-09
-4.43207e-08
5.94948e-08
9.76158e-10
-4.12999e-08
6.02841e-08
5.91111e-10
-3.76472e-08
6.11002e-08
3.13123e-10
-3.35026e-08
6.19577e-08
1.37263e-10
-2.90237e-08
6.28551e-08
7.62655e-11
-2.4366e-08
6.37889e-08
1.19019e-10
-1.96971e-08
6.47398e-08
2.73028e-10
-1.5168e-08
6.56872e-08
5.22263e-10
-1.09336e-08
6.65944e-08
8.66977e-10
-7.12401e-09
6.74227e-08
1.28933e-09
-3.85107e-09
6.81136e-08
1.78319e-09
-1.19235e-09
6.86064e-08
2.31456e-09
8.1736e-10
6.88192e-08
2.85759e-09
2.19418e-09
6.86628e-08
3.36546e-09
2.98138e-09
6.80172e-08
3.81559e-09
3.25436e-09
6.67412e-08
4.17746e-09
3.09856e-09
6.46396e-08
4.44298e-09
2.60817e-09
6.14669e-08
4.58313e-09
1.89563e-09
5.68808e-08
4.57287e-09
1.12664e-09
5.04378e-08
4.31879e-09
5.22879e-10
4.14974e-08
3.74721e-09
2.11395e-08
2.71769e-09
-5.99081e-09
1.24594e-08
6.0059e-09
-1.22829e-08
2.781e-08
7.2325e-09
-1.86321e-08
3.46729e-08
7.74053e-09
-2.47989e-08
3.97944e-08
7.93502e-09
-3.0567e-08
4.36137e-08
7.89003e-09
-3.57639e-08
4.64544e-08
7.66486e-09
-4.02429e-08
4.85579e-08
7.2969e-09
-4.38637e-08
5.01093e-08
6.79621e-09
-4.65022e-08
5.1246e-08
6.1865e-09
-4.80759e-08
5.2082e-08
5.50035e-09
-4.85556e-08
5.27042e-08
4.80016e-09
-4.79792e-08
5.31921e-08
4.13159e-09
-4.64077e-08
5.36065e-08
3.53825e-09
-4.39524e-08
5.40048e-08
3.03339e-09
-4.07275e-08
5.44259e-08
2.63456e-09
-3.68724e-08
5.49042e-08
2.33901e-09
-3.2526e-08
5.54551e-08
2.15717e-09
-2.78464e-08
5.60905e-08
2.08359e-09
-2.29863e-08
5.6804e-08
2.12639e-09
-1.81102e-08
5.75869e-08
2.27603e-09
-1.33712e-08
5.84109e-08
2.53754e-09
-8.92238e-09
5.92462e-08
2.89833e-09
-4.89706e-09
6.00413e-08
3.357e-09
-1.41482e-09
6.07441e-08
3.88751e-09
1.4396e-09
6.128e-08
4.47087e-09
3.62576e-09
6.15743e-08
5.05994e-09
5.14645e-09
6.15248e-08
5.61843e-09
6.04213e-09
6.10236e-08
6.09665e-09
6.38329e-09
5.99236e-08
6.47638e-09
6.23465e-09
5.80535e-08
6.73398e-09
5.66127e-09
5.51784e-08
6.86186e-09
4.72257e-09
5.10007e-08
6.81993e-09
3.4988e-09
4.51179e-08
6.54354e-09
2.07239e-09
3.69901e-08
5.93323e-09
1.85503e-08
4.66157e-09
-5.27055e-09
1.23302e-08
5.39902e-09
-1.12465e-08
2.6913e-08
6.8737e-09
-1.74845e-08
3.33747e-08
7.53537e-09
-2.36162e-08
3.8108e-08
7.81985e-09
-2.93672e-08
4.15382e-08
7.82596e-09
-3.45245e-08
4.39687e-08
7.64203e-09
-3.89026e-08
4.56387e-08
7.29776e-09
-4.23365e-08
4.67287e-08
6.81428e-09
-4.46805e-08
4.73849e-08
6.20625e-09
-4.58452e-08
4.77255e-08
5.51932e-09
-4.57953e-08
4.78519e-08
4.80443e-09
-4.45749e-08
4.78507e-08
4.12011e-09
-4.22663e-08
4.7798e-08
3.50023e-09
-3.89924e-08
4.77566e-08
2.97444e-09
-3.48991e-08
4.7781e-08
2.55092e-09
-3.01477e-08
4.79107e-08
2.24259e-09
-2.49163e-08
4.8175e-08
2.04877e-09
-1.93916e-08
4.85871e-08
1.97764e-09
-1.37615e-08
4.91503e-08
2.02438e-09
-8.21898e-09
4.98502e-08
2.19397e-09
-2.9486e-09
5.06634e-08
2.47762e-09
1.87252e-09
5.15485e-08
2.876e-09
6.08437e-09
5.24565e-08
3.37375e-09
9.54573e-09
5.33203e-08
3.96049e-09
1.21576e-08
5.40664e-08
4.60233e-09
1.38658e-08
5.46022e-08
5.26474e-09
1.46707e-08
5.48284e-08
5.89128e-09
1.46334e-08
5.46216e-08
6.43915e-09
1.38461e-08
5.38444e-08
6.86651e-09
1.24166e-08
5.232e-08
7.16162e-09
1.04558e-08
4.98375e-08
7.30278e-09
8.07995e-09
4.61128e-08
7.26445e-09
5.44501e-09
4.07926e-08
6.95906e-09
2.77603e-09
3.3377e-08
6.28406e-09
1.64961e-08
4.82863e-09
-4.53981e-09
1.33227e-08
3.54625e-09
-1.05535e-08
2.79174e-08
5.00999e-09
-1.71918e-08
3.43019e-08
5.71123e-09
-2.39176e-08
3.88454e-08
5.98625e-09
-3.03079e-08
4.19685e-08
5.96249e-09
-3.60565e-08
4.3985e-08
5.73133e-09
-4.08931e-08
4.51457e-08
5.32957e-09
-4.4586e-08
4.56505e-08
4.77048e-09
-4.69479e-08
4.56641e-08
4.0829e-09
-4.78596e-08
4.53294e-08
3.30824e-09
-4.72877e-08
4.47698e-08
2.50983e-09
-4.52762e-08
4.40972e-08
1.74147e-09
-4.19375e-08
4.34078e-08
1.0505e-09
-3.74288e-08
4.27878e-08
4.61116e-10
-3.19486e-08
4.23068e-08
-5.69136e-12
-2.57108e-08
4.20222e-08
-3.48769e-10
-1.89538e-08
4.19715e-08
-5.55706e-10
-1.19145e-08
4.2179e-08
-6.29057e-10
-4.84916e-09
4.26483e-08
-5.63605e-10
1.9952e-09
4.33691e-08
-3.63681e-10
8.374e-09
4.43102e-08
-2.60417e-11
1.40581e-08
4.54268e-08
4.37439e-10
1.88362e-08
4.66538e-08
1.02418e-09
2.25312e-08
4.79141e-08
1.71185e-09
2.50103e-08
4.9112e-08
2.47408e-09
2.62114e-08
5.01416e-08
3.26209e-09
2.61358e-08
5.08782e-08
4.02373e-09
2.48746e-08
5.1185e-08
4.69836e-09
2.25733e-08
5.0901e-08
5.24475e-09
1.94165e-08
4.98423e-08
5.6341e-09
1.56164e-08
4.77833e-08
5.85437e-09
1.14115e-08
4.44458e-08
5.87126e-09
7.1248e-09
3.9479e-08
5.59973e-09
3.17046e-09
3.24176e-08
4.91422e-09
1.61905e-08
3.47581e-09
-3.82504e-09
1.59929e-08
1.15494e-09
-1.01182e-08
3.18018e-08
2.40832e-09
-1.74703e-08
3.86076e-08
3.04785e-09
-2.5134e-08
4.32697e-08
3.23932e-09
-3.25308e-08
4.62539e-08
3.11014e-09
-3.92203e-08
4.79138e-08
2.76119e-09
-4.48371e-08
4.85418e-08
2.21991e-09
-4.90684e-08
4.83764e-08
1.50628e-09
-5.16782e-08
4.76257e-08
6.49097e-10
-5.25269e-08
4.64682e-08
-2.92067e-10
-5.15702e-08
4.5069e-08
-1.25493e-09
-4.88725e-08
4.35713e-08
-2.17211e-09
-4.4574e-08
4.21069e-08
-2.99784e-09
-3.88758e-08
4.07862e-08
-3.69648e-09
-3.20225e-08
3.97062e-08
-4.25266e-09
-2.42872e-08
3.89403e-08
-4.65303e-09
-1.59659e-08
3.85451e-08
-4.89619e-09
-7.36183e-09
3.85505e-08
-4.97596e-09
1.21454e-09
3.89691e-08
-4.89453e-09
9.44521e-09
3.97855e-08
-4.64879e-09
1.70331e-08
4.09665e-08
-4.24374e-09
2.36892e-08
4.24517e-08
-3.6806e-09
2.91514e-08
4.41637e-08
-2.97237e-09
3.32004e-08
4.60004e-08
-2.1353e-09
3.56735e-08
4.78445e-08
-1.20631e-09
3.64922e-08
4.95571e-08
-2.32585e-10
3.56658e-08
5.09855e-08
7.17532e-10
3.33137e-08
5.19548e-08
1.58232e-09
2.96371e-08
5.2273e-08
2.30443e-09
2.49078e-08
5.1719e-08
2.85355e-09
1.94424e-08
5.0038e-08
3.21015e-09
1.3622e-08
4.69188e-08
3.3485e-09
7.93583e-09
4.19847e-08
3.17787e-09
3.03381e-09
3.47431e-08
2.57834e-09
1.78637e-08
1.36029e-09
-3.30044e-09
2.02366e-08
-9.42408e-10
-9.6962e-09
3.82008e-08
-4.73286e-12
-1.74067e-08
4.58414e-08
4.78031e-10
-2.55808e-08
5.09131e-08
5.28991e-10
-3.35351e-08
5.39498e-08
2.5944e-10
-4.07527e-08
5.5375e-08
-2.44361e-10
-4.67945e-08
5.55363e-08
-9.53088e-10
-5.12978e-08
5.47329e-08
-1.85096e-09
-5.3999e-08
5.32222e-08
-2.89832e-09
-5.47326e-08
5.12383e-08
-4.03453e-09
-5.34695e-08
4.89864e-08
-5.18091e-09
-5.02872e-08
4.6656e-08
-6.26741e-09
-4.53547e-08
4.44096e-08
-7.23594e-09
-3.89062e-08
4.23925e-08
-8.05345e-09
-3.12235e-08
4.07211e-08
-8.69828e-09
-2.2611e-08
3.94918e-08
-9.16375e-09
-1.33939e-08
3.87709e-08
-9.44327e-09
-3.9073e-09
3.86013e-08
-9.53736e-09
5.51144e-09
3.89949e-08
-9.44256e-09
1.45149e-08
3.99403e-08
-9.16129e-09
2.27806e-08
4.13947e-08
-8.69224e-09
2.99817e-08
4.32913e-08
-8.04117e-09
3.58274e-08
4.55328e-08
-7.21429e-09
4.00599e-08
4.79989e-08
-6.23301e-09
4.24962e-08
5.05408e-08
-5.13122e-09
4.30317e-08
5.29894e-08
-3.96753e-09
4.16808e-08
5.51485e-08
-2.8134e-09
3.85798e-08
5.6804e-08
-1.74773e-09
3.39724e-08
5.77132e-08
-8.32566e-10
2.81889e-08
5.76096e-08
-1.07486e-10
2.16337e-08
5.61849e-08
4.07714e-10
1.47843e-08
5.30785e-08
6.9023e-10
8.25393e-09
4.7854e-08
6.61766e-10
2.81572e-09
3.9961e-08
2.20379e-10
2.13447e-08
-6.65725e-10
-2.96164e-09
2.53982e-08
-2.20112e-09
-9.13634e-09
4.59435e-08
-1.56655e-09
-1.66734e-08
5.46309e-08
-1.2527e-09
-2.47053e-08
6.02846e-08
-1.34028e-09
-3.25435e-08
6.35248e-08
-1.73642e-09
-3.96445e-08
6.48446e-08
-2.36827e-09
-4.55536e-08
6.46625e-08
-3.21715e-09
-4.98899e-08
6.33348e-08
-4.26418e-09
-5.23805e-08
6.11791e-08
-5.46849e-09
-5.28653e-08
5.84799e-08
-6.75616e-09
-5.1331e-08
5.54951e-08
-8.04294e-09
-4.788e-08
5.24523e-08
-9.24731e-09
-4.27093e-08
4.95521e-08
-1.03128e-08
-3.60756e-08
4.69611e-08
-1.12033e-08
-2.82666e-08
4.4817e-08
-1.1904e-08
-1.95922e-08
4.32231e-08
-1.24069e-08
-1.03645e-08
4.22557e-08
-1.27113e-08
-9.08419e-10
4.19577e-08
-1.28144e-08
8.4583e-09
4.23465e-08
-1.27174e-08
1.74091e-08
4.34075e-08
-1.2418e-08
2.56216e-08
4.51e-08
-1.19181e-08
3.27818e-08
4.73498e-08
-1.12173e-08
3.85817e-08
5.00543e-08
-1.03229e-08
4.27544e-08
5.30751e-08
-9.24946e-09
4.50867e-08
5.62426e-08
-8.03304e-09
4.54542e-08
5.93521e-08
-6.73097e-09
4.38594e-08
6.21692e-08
-5.42569e-09
4.04385e-08
6.44293e-08
-4.20326e-09
3.54484e-08
6.58403e-08
-3.13886e-09
2.92564e-08
6.60768e-08
-2.27459e-09
2.22965e-08
6.4775e-08
-1.62953e-09
1.50851e-08
6.15093e-08
-1.22065e-09
8.27447e-09
5.57786e-08
-1.11347e-09
2.67541e-09
4.69547e-08
-1.39413e-09
2.6017e-08
-1.99733e-09
-2.90458e-09
3.08997e-08
-2.59725e-09
-8.86145e-09
5.40703e-08
-2.16901e-09
-1.60942e-08
6.38451e-08
-1.98286e-09
-2.37864e-08
7.01395e-08
-2.16094e-09
-3.12847e-08
7.3652e-08
-2.62897e-09
-3.80557e-08
7.4947e-08
-3.33251e-09
-4.36381e-08
7.45037e-08
-4.25766e-09
-4.76563e-08
7.27392e-08
-5.38768e-09
-4.98277e-08
7.00271e-08
-6.67662e-09
-5.00085e-08
6.67081e-08
-8.04579e-09
-4.82056e-08
6.30921e-08
-9.40118e-09
-4.4553e-08
5.94599e-08
-1.06593e-08
-3.92838e-08
5.6044e-08
-1.17614e-08
-3.26757e-08
5.30302e-08
-1.26766e-08
-2.5022e-08
5.05549e-08
-1.33919e-08
-1.66178e-08
4.87218e-08
-1.39047e-08
-7.74703e-09
4.76003e-08
-1.42144e-08
1.30166e-09
4.72309e-08
-1.43219e-08
1.02477e-08
4.76265e-08
-1.42265e-08
1.88064e-08
4.87763e-08
-1.39276e-08
2.66873e-08
5.06426e-08
-1.34233e-08
3.35935e-08
5.31582e-08
-1.27133e-08
3.9223e-08
5.62224e-08
-1.17991e-08
4.32905e-08
5.97007e-08
-1.06937e-08
4.55555e-08
6.34068e-08
-9.42796e-09
4.58626e-08
6.71054e-08
-8.0615e-09
4.42019e-08
7.05089e-08
-6.67921e-09
4.07089e-08
7.33002e-08
-5.37666e-09
3.56499e-08
7.51318e-08
-4.23411e-09
2.94015e-08
7.56239e-08
-3.29805e-09
2.24085e-08
7.43544e-08
-2.58517e-09
1.5185e-08
7.08395e-08
-2.10784e-09
8.36952e-09
6.45107e-08
-1.91624e-09
2.73849e-09
5.46651e-08
-2.08022e-09
3.12433e-08
-2.48683e-09
-3.0787e-09
3.63578e-08
-2.37871e-09
-8.99784e-09
6.20074e-08
-2.01831e-09
-1.60895e-08
7.28201e-08
-1.88415e-09
-2.36063e-08
7.9744e-08
-2.08733e-09
-3.09323e-08
8.35474e-08
-2.56931e-09
-3.75494e-08
8.48502e-08
-3.2852e-09
-4.29993e-08
8.41799e-08
-4.22796e-09
-4.6876e-08
8.20014e-08
-5.38449e-09
-4.88767e-08
7.87376e-08
-6.71134e-09
-4.88196e-08
7.47807e-08
-8.12814e-09
-4.67301e-08
7.05387e-08
-9.5369e-09
-4.28118e-08
6.63813e-08
-1.08397e-08
-3.73583e-08
6.25573e-08
-1.19658e-08
-3.06775e-08
5.92313e-08
-1.28839e-08
-2.30624e-08
5.65329e-08
-1.35913e-08
-1.4797e-08
5.45479e-08
-1.40924e-08
-6.142e-09
5.33377e-08
-1.43932e-08
2.65417e-09
5.29329e-08
-1.44973e-08
1.13431e-08
5.33453e-08
-1.4407e-08
1.96739e-08
5.45633e-08
-1.41193e-08
2.73891e-08
5.65577e-08
-1.36298e-08
3.42117e-08
5.92683e-08
-1.29315e-08
3.98392e-08
6.26113e-08
-1.20186e-08
4.39715e-08
6.64607e-08
-1.08917e-08
4.63037e-08
7.06574e-08
-9.58222e-09
4.6615e-08
7.49568e-08
-8.16342e-09
4.48814e-08
7.89815e-08
-6.73746e-09
4.12775e-08
8.23074e-08
-5.40383e-09
3.61136e-08
8.45368e-08
-4.24238e-09
2.97885e-08
8.52459e-08
-3.29585e-09
2.27528e-08
8.39657e-08
-2.57656e-09
1.55165e-08
8.01669e-08
-2.0901e-09
8.67843e-09
7.32272e-08
-1.8784e-09
2.96186e-09
6.23767e-08
-1.997e-09
3.6545e-08
-2.33851e-09
-3.25202e-09
4.13454e-08
-1.73503e-09
-9.12097e-09
6.92116e-08
-1.33622e-09
-1.60699e-08
8.0959e-08
-1.19062e-09
-2.3426e-08
8.8466e-08
-1.36547e-09
-3.06254e-08
9.25574e-08
-1.81039e-09
-3.71831e-08
9.38929e-08
-2.48568e-09
-4.26453e-08
9.30335e-08
-3.39125e-09
-4.65924e-08
9.04737e-08
-4.52502e-09
-4.86451e-08
8.66475e-08
-5.85715e-09
-4.85716e-08
8.20358e-08
-7.3283e-09
-4.63805e-08
7.71753e-08
-8.8287e-09
-4.23096e-08
7.25142e-08
-1.02032e-08
-3.67152e-08
6.8307e-08
-1.13447e-08
-2.99321e-08
6.46873e-08
-1.22383e-08
-2.22681e-08
6.17733e-08
-1.2905e-08
-1.39927e-08
5.96409e-08
-1.33673e-08
-5.36013e-09
5.83438e-08
-1.36401e-08
3.39582e-09
5.79106e-08
-1.37331e-08
1.20395e-08
5.83508e-08
-1.36492e-08
2.03331e-08
5.96547e-08
-1.33858e-08
2.80311e-08
6.17936e-08
-1.2933e-08
3.48605e-08
6.47141e-08
-1.22756e-08
4.05216e-08
6.83404e-08
-1.13901e-08
4.46796e-08
7.25558e-08
-1.02533e-08
4.69809e-08
7.72334e-08
-8.87739e-09
4.71835e-08
8.21253e-08
-7.37091e-09
4.52755e-08
8.67837e-08
-5.89487e-09
4.14878e-08
9.06569e-08
-4.56221e-09
3.62005e-08
9.32534e-08
-3.42921e-09
2.9831e-08
9.41403e-08
-2.52409e-09
2.28235e-08
9.28218e-08
-1.8486e-09
1.56549e-08
8.87358e-08
-1.4014e-09
8.8815e-09
8.12216e-08
-1.22035e-09
3.15974e-09
6.94526e-08
-1.35372e-09
4.14386e-08
-1.73493e-09
-3.40121e-09
4.55834e-08
-8.37223e-10
-9.15238e-09
7.52933e-08
-3.30497e-10
-1.5883e-08
8.78248e-08
-1.35516e-10
-2.29913e-08
9.58294e-08
-2.54075e-10
-2.99744e-08
1.00177e-07
-6.37174e-10
-3.63911e-08
1.01555e-07
-1.24675e-09
-4.18254e-08
1.00557e-07
-2.08779e-09
-4.586e-08
9.76736e-08
-3.16519e-09
-4.80872e-08
9.33574e-08
-4.48255e-09
-4.82586e-08
8.81989e-08
-5.99276e-09
-4.6324e-08
8.279e-08
-7.54783e-09
-4.24349e-08
7.75721e-08
-8.94905e-09
-3.6896e-08
7.28452e-08
-1.00758e-08
-3.00725e-08
6.87942e-08
-1.0931e-08
-2.23003e-08
6.55523e-08
-1.1551e-08
-1.38771e-08
6.31902e-08
-1.19719e-08
-5.07322e-09
6.17564e-08
-1.22173e-08
3.85999e-09
6.12775e-08
-1.22993e-08
1.26691e-08
6.17618e-08
-1.22215e-08
2.11044e-08
6.32012e-08
-1.19804e-08
2.88922e-08
6.55691e-08
-1.15642e-08
3.57397e-08
6.88172e-08
-1.09493e-08
4.13038e-08
7.28755e-08
-1.00997e-08
4.52277e-08
7.76113e-08
-8.9797e-09
4.72059e-08
8.28413e-08
-7.58588e-09
4.70993e-08
8.82674e-08
-6.03572e-09
4.49589e-08
9.34508e-08
-4.52669e-09
4.10289e-08
9.77968e-08
-3.20977e-09
3.57113e-08
1.00705e-07
-2.1339e-09
2.94243e-08
1.01722e-07
-1.29387e-09
2.25723e-08
1.00357e-07
-6.84077e-10
1.55953e-08
9.60135e-08
-2.99048e-10
8.98415e-09
8.80059e-08
-1.7496e-10
3.33736e-09
7.54627e-08
-3.60137e-10
4.56257e-08
-8.52075e-10
-3.58532e-09
4.9037e-08
1.30897e-10
-9.23027e-09
8.01696e-08
7.69226e-10
-1.57504e-08
9.33151e-08
1.03012e-09
-2.26139e-08
1.01719e-07
9.74925e-10
-2.93742e-08
1.06279e-07
6.56524e-10
-3.56344e-08
1.07705e-07
1.11158e-10
-4.10185e-08
1.06605e-07
-6.6429e-10
-4.51251e-08
1.0347e-07
-1.69002e-09
-4.75856e-08
9.88038e-08
-2.98625e-09
-4.81044e-08
9.32066e-08
-4.48839e-09
-4.6538e-08
8.72404e-08
-6.01732e-09
-4.29285e-08
8.13475e-08
-7.38537e-09
-3.7504e-08
7.59152e-08
-8.49293e-09
-3.06319e-08
7.12463e-08
-9.32554e-09
-2.27074e-08
6.75449e-08
-9.91664e-09
-1.40727e-08
6.48669e-08
-1.03106e-08
-5.02642e-09
6.32484e-08
-1.05386e-08
4.15553e-09
6.27082e-08
-1.06141e-08
1.32071e-08
6.32522e-08
-1.05409e-08
2.18483e-08
6.48747e-08
-1.03154e-08
2.97852e-08
6.7557e-08
-9.92418e-09
3.66757e-08
7.12638e-08
-9.33624e-09
4.21176e-08
7.59391e-08
-8.50751e-09
4.57566e-08
8.13795e-08
-7.40488e-09
4.73568e-08
8.72822e-08
-6.04274e-09
4.68833e-08
9.32607e-08
-4.51951e-09
4.44826e-08
9.88736e-08
-3.02151e-09
4.04475e-08
1.03558e-07
-1.72794e-09
3.51491e-08
1.0671e-07
-7.04103e-10
2.89785e-08
1.07822e-07
6.96888e-11
2.2314e-08
1.06405e-07
6.15355e-10
1.55452e-08
1.01849e-07
9.35061e-10
9.11097e-09
9.34445e-08
9.94272e-10
3.53768e-09
8.02942e-08
7.41354e-10
4.90493e-08
1.1465e-10
-3.67658e-09
5.17769e-08
9.36789e-10
-9.21138e-09
8.39847e-08
1.71912e-09
-1.55393e-08
9.76015e-08
2.04136e-09
-2.21831e-08
1.06318e-07
2.04524e-09
-2.87401e-08
1.1105e-07
1.7863e-09
-3.4865e-08
1.12527e-07
1.30192e-09
-4.01953e-08
1.11356e-07
5.80814e-10
-4.43602e-08
1.08042e-07
-4.08302e-10
-4.69985e-08
1.03118e-07
-1.6756e-09
-4.77729e-08
9.7119e-08
-3.139e-09
-4.64786e-08
9.0566e-08
-4.61901e-09
-4.31157e-08
8.39306e-08
-5.94534e-09
-3.78566e-08
7.76814e-08
-7.02624e-09
-3.10211e-08
7.22477e-08
-7.83595e-09
-2.30208e-08
6.7955e-08
-8.41135e-09
-1.42408e-08
6.48776e-08
-8.78955e-09
-5.01276e-09
6.3026e-08
-9.00573e-09
4.36121e-09
6.24099e-08
-9.07679e-09
1.35925e-08
6.30286e-08
-9.00706e-09
2.23754e-08
6.48829e-08
-8.79231e-09
3.03859e-08
6.79635e-08
-8.41575e-09
3.72315e-08
7.22603e-08
-7.8423e-09
4.25057e-08
7.76991e-08
-7.0352e-09
4.58893e-08
8.39548e-08
-5.95781e-09
4.72096e-08
9.05976e-08
-4.63587e-09
4.64705e-08
9.71596e-08
-3.16077e-09
4.38778e-08
1.03168e-07
-1.70179e-09
3.97692e-08
1.08104e-07
-4.37517e-10
3.44998e-08
1.11429e-07
5.49603e-10
2.84458e-08
1.12607e-07
1.2694e-09
2.19608e-08
1.11137e-07
1.75335e-09
1.5386e-08
1.0641e-07
2.01319e-09
9.12266e-09
9.76951e-08
2.01233e-09
3.6414e-09
8.40788e-08
1.69608e-09
5.17694e-08
9.22089e-10
-3.69444e-09
5.39857e-08
1.48638e-09
-9.1337e-09
8.70616e-08
2.36175e-09
-1.53222e-08
1.01061e-07
2.72895e-09
-2.18091e-08
1.1003e-07
2.77569e-09
-2.82198e-08
1.14899e-07
2.56073e-09
-3.42344e-08
1.16417e-07
2.12319e-09
-3.95185e-08
1.15193e-07
1.44722e-09
-4.37176e-08
1.11749e-07
4.91787e-10
-4.64406e-08
1.06586e-07
-7.43738e-10
-4.73365e-08
1.00177e-07
-2.16323e-09
-4.61915e-08
9.30126e-08
-3.59237e-09
-4.29897e-08
8.56036e-08
-4.87325e-09
-3.78783e-08
7.84907e-08
-5.92194e-09
-3.11324e-08
7.22182e-08
-6.71497e-09
-2.31326e-08
6.72318e-08
-7.27844e-09
-1.42969e-08
6.36876e-08
-7.64591e-09
-4.98144e-09
6.15659e-08
-7.8532e-09
4.48754e-09
6.08613e-08
-7.92079e-09
1.38019e-08
6.15675e-08
-7.85396e-09
2.26419e-08
6.3691e-08
-7.64749e-09
3.06488e-08
6.72374e-08
-7.28099e-09
3.74009e-08
7.22267e-08
-6.71876e-09
4.2525e-08
7.85027e-08
-5.92749e-09
4.57419e-08
8.56199e-08
-4.88132e-09
4.69088e-08
9.30339e-08
-3.60367e-09
4.60425e-08