/*--------------------------------*- C++ -*----------------------------------*\
| =========                 |                                                 |
| \\      /  F ield         | OpenFOAM: The Open Source CFD Toolbox           |
|  \\    /   O peration     | Version:  v2012                                 |
|   \\  /    A nd           | Website:  www.openfoam.com                      |
|    \\/     M anipulation  |                                                 |
\*---------------------------------------------------------------------------*/
FoamFile
{
    version     2.0;
    format      ascii;
    class       surfaceScalarField;
    location    "54";
    object      phi;
}
// * * * * * * * * * * * * * * * * * * * * * * * * * * * * * * * * * * * * * //

dimensions      [1 0 -1 0 0 0 0];
oriented        oriented;


internalField   nonuniform List<scalar> 
228225
(
-2.87808e-09
2.84284e-09
-2.01129e-10
-9.73468e-09
1.07966e-08
-3.93811e-09
-2.05174e-08
1.57347e-08
-4.9532e-09
-3.50487e-08
1.99083e-08
-5.37686e-09
-5.27516e-08
2.34077e-08
-5.70475e-09
-7.28766e-08
2.62009e-08
-6.07384e-09
-9.46955e-08
2.83246e-08
-6.50599e-09
-1.17465e-07
2.97825e-08
-7.01459e-09
-1.40526e-07
3.06448e-08
-7.58249e-09
-1.63251e-07
3.09377e-08
-8.214e-09
-1.85095e-07
3.07372e-08
-8.89315e-09
-2.05549e-07
3.00805e-08
-9.62495e-09
-2.24204e-07
2.90492e-08
-1.03957e-08
-2.40669e-07
2.76767e-08
-1.12083e-08
-2.54661e-07
2.60381e-08
-1.20493e-08
-2.65907e-07
2.4166e-08
-1.29193e-08
-2.74224e-07
2.21122e-08
-1.37932e-08
-2.79451e-07
1.99062e-08
-1.4681e-08
-2.81508e-07
1.76085e-08
-1.55506e-08
-2.80352e-07
1.52434e-08
-1.64013e-08
-2.75989e-07
1.28551e-08
-1.7216e-08
-2.68472e-07
1.04628e-08
-1.79799e-08
-2.57899e-07
8.10067e-09
-1.86741e-08
-2.44398e-07
5.78478e-09
-1.92863e-08
-2.28143e-07
3.54353e-09
-1.97985e-08
-2.09336e-07
1.39383e-09
-2.01989e-08
-1.88228e-07
-6.36005e-10
-2.04723e-08
-1.6509e-07
-2.52884e-09
-2.06086e-08
-1.40258e-07
-4.24259e-09
-2.05931e-08
-1.14102e-07
-5.74121e-09
-2.04107e-08
-8.71136e-08
-6.96805e-09
-2.00235e-08
-5.99371e-08
-7.84156e-09
-1.93324e-08
-3.37071e-08
-8.2012e-09
-1.80305e-08
-1.07683e-08
-7.77844e-09
-1.516e-08
-4.96972e-09
-5.79773e-09
-8.38358e-09
2.70278e-08
-1.58033e-08
-2.91791e-08
4.89272e-08
-1.73327e-08
-5.43176e-08
5.90064e-08
-1.81334e-08
-8.15916e-08
6.62758e-08
-1.90934e-08
-1.09405e-07
7.11922e-08
-1.99711e-08
-1.36661e-07
7.41933e-08
-2.07363e-08
-1.62511e-07
7.56129e-08
-2.14398e-08
-1.86373e-07
7.57427e-08
-2.20966e-08
-2.07814e-07
7.48078e-08
-2.27224e-08
-2.26572e-07
7.30082e-08
-2.33132e-08
-2.42453e-07
7.04982e-08
-2.38793e-08
-2.55381e-07
6.74223e-08
-2.44138e-08
-2.65312e-07
6.39018e-08
-2.49227e-08
-2.72279e-07
6.00435e-08
-2.5399e-08
-2.76338e-07
5.59431e-08
-2.58464e-08
-2.77595e-07
5.16811e-08
-2.62578e-08
-2.76166e-07
4.73215e-08
-2.66387e-08
-2.72204e-07
4.29267e-08
-2.69824e-08
-2.65855e-07
3.8551e-08
-2.72906e-08
-2.57307e-07
3.42509e-08
-2.75561e-08
-2.46738e-07
3.00653e-08
-2.77799e-08
-2.34345e-07
2.60273e-08
-2.79579e-08
-2.20316e-07
2.21631e-08
-2.809e-08
-2.04858e-07
1.84947e-08
-2.81693e-08
-1.8816e-07
1.50396e-08
-2.81939e-08
-1.70425e-07
1.18129e-08
-2.8156e-08
-1.51838e-07
8.82738e-09
-2.80497e-08
-1.326e-07
6.09544e-09
-2.78612e-08
-1.129e-07
3.62967e-09
-2.75738e-08
-9.29284e-08
1.44604e-09
-2.71585e-08
-7.28795e-08
-4.33503e-10
-2.65833e-08
-5.29628e-08
-1.96157e-09
-2.57962e-08
-3.34707e-08
-3.06923e-09
-2.46263e-08
-1.51439e-08
-3.52506e-09
-2.2579e-08
-2.18174e-09
-1.79322e-08
-6.09977e-09
4.18062e-08
-8.68e-09
-1.68919e-08
7.01454e-08
-1.04231e-08
-2.91269e-08
8.24638e-08
-1.12226e-08
-4.18787e-08
9.09429e-08
-1.19157e-08
-5.45297e-08
9.63868e-08
-1.25445e-08
-6.66403e-08
9.94672e-08
-1.31627e-08
-7.79116e-08
1.00662e-07
-1.37776e-08
-8.81245e-08
1.00369e-07
-1.44121e-08
-9.71438e-08
9.88823e-08
-1.50562e-08
-1.04868e-07
9.64521e-08
-1.57191e-08
-1.11256e-07
9.32713e-08
-1.6384e-08
-1.1629e-07
8.95088e-08
-1.70546e-08
-1.19976e-07
8.5301e-08
-1.77126e-08
-1.22342e-07
8.07693e-08
-1.83599e-08
-1.23432e-07
7.60117e-08
-1.89791e-08
-1.23295e-07
7.1118e-08
-1.95735e-08
-1.22021e-07
6.61755e-08
-2.01292e-08
-1.19695e-07
6.12485e-08
-2.06478e-08
-1.16412e-07
5.63874e-08
-2.11182e-08
-1.12267e-07
5.16461e-08
-2.154e-08
-1.07358e-07
4.70597e-08
-2.19053e-08
-1.01772e-07
4.26586e-08
-2.22167e-08
-9.56069e-08
3.84664e-08
-2.24683e-08
-8.89429e-08
3.44921e-08
-2.26621e-08
-8.18579e-08
3.0748e-08
-2.27933e-08
-7.44234e-08
2.72408e-08
-2.2862e-08
-6.67071e-08
2.39727e-08
-2.28619e-08
-5.87695e-08
2.09446e-08
-2.2788e-08
-5.06668e-08
1.81553e-08
-2.26274e-08
-4.24529e-08
1.55945e-08
-2.23636e-08
-3.41644e-08
1.32467e-08
-2.1968e-08
-2.58297e-08
1.10929e-08
-2.13897e-08
-1.74884e-08
9.10231e-09
-2.05122e-08
-9.17772e-09
7.22714e-09
-1.90651e-08
4.31119e-09
-1.56689e-08
-6.28549e-09
4.61419e-08
1.94749e-09
-1.14946e-08
7.48132e-08
5.43635e-10
-1.60312e-08
8.74347e-08
-4.34693e-10
-2.01755e-08
9.62245e-08
-1.13739e-09
-2.40589e-08
1.02032e-07
-1.76131e-09
-2.76756e-08
1.05495e-07
-2.41175e-09
-3.09856e-08
1.07104e-07
-3.13282e-09
-3.3948e-08
1.07242e-07
-3.91083e-09
-3.65281e-08
1.06216e-07
-4.75393e-09
-3.86986e-08
1.04264e-07
-5.64149e-09
-4.0437e-08
1.01587e-07
-6.57704e-09
-4.17339e-08
9.83425e-08
-7.5363e-09
-4.25941e-08
9.46738e-08
-8.51388e-09
-4.30321e-08
9.0693e-08
-9.48524e-09
-4.3066e-08
8.64968e-08
-1.04506e-08
-4.27306e-08
8.21686e-08
-1.13868e-08
-4.20587e-08
7.77928e-08
-1.22888e-08
-4.10992e-08
7.34289e-08
-1.314e-08
-3.98977e-08
6.91265e-08
-1.39407e-08
-3.84966e-08
6.49237e-08
-1.46783e-08
-3.69388e-08
6.08538e-08
-1.53534e-08
-3.52621e-08
5.694e-08
-1.59567e-08
-3.35086e-08
5.32004e-08
-1.64893e-08
-3.17041e-08
4.96361e-08
-1.69469e-08
-2.9876e-08
4.62505e-08
-1.7331e-08
-2.8038e-08
4.30392e-08
-1.76367e-08
-2.61883e-08
3.99879e-08
-1.78653e-08
-2.431e-08
3.70779e-08
-1.80113e-08
-2.23614e-08
3.4277e-08
-1.80709e-08
-2.02632e-08
3.15303e-08
-1.80339e-08
-1.7893e-08
2.8764e-08
-1.78872e-08
-1.50666e-08
2.58852e-08
-1.76198e-08
-1.14641e-08
2.27515e-08
-1.72508e-08
-6.74125e-09
1.92102e-08
-1.67048e-08
1.23408e-08
-1.47716e-08
-7.12151e-09
4.5431e-08
7.83377e-09
-9.65553e-09
7.05722e-08
6.7748e-09
-9.90604e-09
8.18848e-08
5.79989e-09
-8.84023e-09
9.00219e-08
5.13665e-09
-7.03315e-09
9.56441e-08
4.57989e-09
-4.78487e-09
9.92809e-08
3.96742e-09
-2.30518e-09
1.01344e-07
3.27955e-09
2.67006e-10
1.0216e-07
2.50993e-09
2.82399e-09
1.0198e-07
1.67894e-09
5.28797e-09
1.01015e-07
7.8444e-10
7.60173e-09
9.94266e-08
-1.539e-10
9.70566e-09
9.73579e-08
-1.12e-09
1.15719e-08
9.49178e-08
-2.10928e-09
1.31728e-08
9.22045e-08
-3.11385e-09
1.44865e-08
8.92936e-08
-4.10991e-09
1.54903e-08
8.62562e-08
-5.09202e-09
1.61765e-08
8.31479e-08
-6.04108e-09
1.65407e-08
8.00201e-08
-6.95389e-09
1.65719e-08
7.69093e-08
-7.81597e-09
1.62727e-08
7.38485e-08
-8.62576e-09
1.56386e-08
7.08604e-08
-9.37262e-09
1.46745e-08
6.79615e-08
-1.00566e-08
1.33871e-08
6.51589e-08
-1.06706e-08
1.17853e-08
6.2453e-08
-1.12158e-08
9.88719e-09
5.98353e-08
-1.16878e-08
7.72892e-09
5.72872e-08
-1.20887e-08
5.35293e-09
5.47782e-08
-1.24158e-08
2.84105e-09
5.22626e-08
-1.26718e-08
2.978e-10
4.96747e-08
-1.28546e-08
-2.12293e-09
4.69163e-08
-1.29651e-08
-4.22156e-09
4.38601e-08
-1.29961e-08
-5.70734e-09
4.03348e-08
-1.29663e-08
-6.08678e-09
3.60989e-08
-1.29672e-08
-4.68757e-09
3.08416e-08
-1.30297e-08
1.98057e-08
-1.21534e-08
-4.73407e-09
4.15738e-08
8.59092e-09
-5.25052e-09
6.34079e-08
7.68169e-09
-3.54673e-09
7.34093e-08
6.76807e-09
-5.17573e-10
8.08065e-08
6.19116e-09
3.22856e-09
8.61739e-08
5.72149e-09
7.35841e-09
8.99307e-08
5.22107e-09
1.16247e-08
9.24279e-08
4.64974e-09
1.58455e-08
9.39176e-08
4.0208e-09
1.98804e-08
9.46133e-08
3.33282e-09
2.36219e-08
9.46715e-08
2.60057e-09
2.69964e-08
9.42293e-08
1.82395e-09
2.99456e-08
9.3388e-08
1.01979e-09
3.24381e-08
9.22356e-08
1.90569e-10
3.44363e-08
9.08418e-08
-6.36954e-10
3.59245e-08
8.92723e-08
-1.46562e-09
3.68876e-08
8.75748e-08
-2.2816e-09
3.7322e-08
8.5793e-08
-3.0804e-09
3.72329e-08
8.39588e-08
-3.84838e-09
3.66239e-08
8.21003e-08
-4.58309e-09
3.55107e-08
8.0237e-08
-5.27422e-09
3.3907e-08
7.83843e-08
-5.92055e-09
3.18353e-08
7.65478e-08
-6.51481e-09
2.93246e-08
7.47267e-08
-7.05728e-09
2.64102e-08
7.29116e-08
-7.54321e-09
2.31357e-08
7.10825e-08
-7.97396e-09
1.95621e-08
6.92082e-08
-8.347e-09
1.57656e-08
6.72412e-08
-8.66489e-09
1.1839e-08
6.51154e-08
-8.9275e-09
7.91587e-09
6.27361e-08
-9.13841e-09
4.15103e-09
5.99769e-08
-9.29635e-09
7.53128e-10
5.66604e-08
-9.4015e-09
-1.98971e-09
5.25538e-08
-9.47778e-09
-3.58416e-09
4.73306e-08
-9.63655e-09
-3.38135e-09
4.05823e-08
-9.94143e-09
2.60169e-08
-9.59395e-09
-2.14805e-09
3.72239e-08
6.49776e-09
-1.52078e-09
5.71402e-08
5.64099e-09
6.50929e-10
6.63771e-08
4.86017e-09
3.71329e-09
7.33648e-08
4.38096e-09
7.24993e-09
7.86177e-08
4.01725e-09
1.10224e-08
8.25194e-08
3.64036e-09
1.48547e-08
8.5367e-08
3.22823e-09
1.86087e-08
8.73871e-08
2.77678e-09
2.21748e-08
8.87521e-08
2.29516e-09
2.54643e-08
8.96e-08
1.78101e-09
2.84163e-08
9.00345e-08
1.24417e-09
3.09749e-08
9.01432e-08
6.85346e-10
3.31077e-08
8.99909e-08
1.12648e-10
3.47742e-08
8.9635e-08
-4.60871e-10
3.5963e-08
8.91179e-08
-1.0328e-09
3.66589e-08
8.84773e-08
-1.59903e-09
3.68609e-08
8.77414e-08
-2.15028e-09
3.65704e-08
8.69337e-08
-2.68408e-09
3.57929e-08
8.60694e-08
-3.19225e-09
3.45447e-08
8.51599e-08
-3.67381e-09
3.28411e-08
8.42094e-08
-4.12249e-09
3.07115e-08
8.32162e-08
-4.53835e-09
2.81851e-08
8.21707e-08
-4.91692e-09
2.53016e-08
8.10546e-08
-5.25928e-09
2.21071e-08
7.98388e-08
-5.56267e-09
1.86652e-08
7.84799e-08
-5.82916e-09
1.50465e-08
7.69177e-08
-6.05761e-09
1.13459e-08
7.50678e-08
-6.25146e-09
7.67651e-09
7.28154e-08
-6.41109e-09
4.18808e-09
7.00043e-08
-6.53875e-09
1.06044e-09
6.64226e-08
-6.63277e-09
-1.45842e-09
6.17874e-08
-6.71668e-09
-2.95657e-09
5.57116e-08
-6.88249e-09
-2.87579e-09
4.76896e-08
-7.18713e-09
3.01533e-08
-7.01302e-09
-7.16782e-10
3.38358e-08
4.10501e-09
-1.18766e-10
5.31381e-08
3.40357e-09
1.30156e-09
6.21339e-08
2.8235e-09
3.17893e-09
6.90096e-08
2.47647e-09
5.30615e-09
7.42786e-08
2.21407e-09
7.55679e-09
7.83126e-08
1.95554e-09
9.84685e-09
8.13988e-08
1.67679e-09
1.21054e-08
8.37481e-08
1.38192e-09
1.42623e-08
8.55247e-08
1.06857e-09
1.62698e-08
8.68504e-08
7.41832e-10
1.80842e-08
8.7822e-08
3.99947e-10
1.96658e-08
8.85111e-08
4.86945e-11
2.09854e-08
8.89763e-08
-3.04824e-10
2.20176e-08
8.92611e-08
-6.57883e-10
2.27442e-08
8.94015e-08
-1.01088e-09
2.31537e-08
8.94239e-08
-1.35563e-09
2.32383e-08
8.93489e-08
-1.6916e-09
2.29925e-08
8.91901e-08
-2.01239e-09
2.2425e-08
8.89565e-08
-2.31799e-09
2.15363e-08
8.86515e-08
-2.60347e-09
2.03424e-08
8.8273e-08
-2.86957e-09
1.8859e-08
8.78122e-08
-3.11258e-09
1.71118e-08
8.72529e-08
-3.33405e-09
1.51271e-08
8.657e-08
-3.53143e-09
1.2945e-08
8.57262e-08
-3.70697e-09
1.06151e-08
8.46709e-08
-3.85914e-09
8.19188e-09
8.33322e-08
-3.99098e-09
5.74502e-09
8.16153e-08
-4.10212e-09
3.3675e-09
7.9389e-08
-4.19621e-09
1.16361e-09
7.64808e-08
-4.27206e-09
-7.36029e-10
7.26534e-08
-4.33139e-09
-2.15738e-09
6.7596e-08
-4.3874e-09
-2.82035e-09
6.08803e-08
-4.50575e-09
-2.36317e-09
5.19479e-08
-4.71489e-09
3.23656e-08
-4.57594e-09
-4.87625e-10
3.15849e-08
2.73855e-09
-4.67081e-10
5.08067e-08
2.31003e-09
-6.79095e-11
5.97647e-08
1.97103e-09
5.41131e-10
6.66339e-08
1.76721e-09
1.27677e-09
7.19304e-08
1.61062e-09
2.10082e-09
7.60359e-08
1.45156e-09
2.98719e-09
7.92328e-08
1.28298e-09
3.89623e-09
8.17348e-08
1.10263e-09
4.80558e-09
8.37007e-08
9.15137e-10
5.68627e-09
8.52516e-08
7.18808e-10
6.51074e-09
8.64776e-08
5.18403e-10
7.26054e-09
8.74484e-08
3.13019e-10
7.91552e-09
8.82156e-08
1.07147e-10
8.45299e-09
8.88193e-08
-9.57586e-11
8.85624e-09
8.92882e-08
-2.90746e-10
9.11697e-09
8.96447e-08
-4.8141e-10
9.22588e-09
8.99035e-08
-6.62789e-10
9.17539e-09
9.00749e-08
-8.35209e-10
8.96211e-09
9.01642e-08
-9.94235e-10
8.58671e-09
9.01698e-08
-1.14122e-09
8.04673e-09
9.00844e-08
-1.27328e-09
7.35711e-09
8.98951e-08
-1.39256e-09
6.52665e-09
8.95807e-08
-1.4969e-09
5.57307e-09
8.91117e-08
-1.58915e-09
4.5205e-09
8.84464e-08
-1.66781e-09
3.39953e-09
8.75285e-08
-1.7363e-09
2.24465e-09
8.62816e-08
-1.79374e-09
1.09928e-09
8.4604e-08
-1.84415e-09
1.89273e-11
8.23587e-08
-1.88716e-09
-9.39554e-10
7.93638e-08
-1.92617e-09
-1.69849e-09
7.53737e-08
-1.95975e-09
-2.16772e-09
7.0064e-08
-2.00013e-09
-2.19524e-09
6.29925e-08
-2.08476e-09
-1.59248e-09
5.35735e-08
-2.22814e-09
3.29409e-08
-2.16692e-09
-9.11325e-10
3.01114e-08
2.38432e-09
-1.5876e-09
4.91958e-08
2.28725e-09
-2.07482e-09
5.80782e-08
2.17427e-09
-2.43819e-09
6.48875e-08
2.10951e-09
-2.69562e-09
7.01409e-08
2.04608e-09
-2.84962e-09
7.42208e-08
1.97167e-09
-2.91471e-09
7.74116e-08
1.88275e-09
-2.88765e-09
7.99256e-08
1.78482e-09
-2.78731e-09
8.19224e-08
1.67796e-09
-2.62354e-09
8.35207e-08
1.56697e-09
-2.40881e-09
8.48108e-08
1.45145e-09
-2.15588e-09
8.58593e-08
1.33619e-09
-1.87779e-09
8.67173e-08
1.22078e-09
-1.59199e-09
8.74219e-08
1.10979e-09
-1.30525e-09
8.80014e-08
1.00237e-09
-1.03885e-09
8.84737e-08
9.03583e-10
-7.99499e-10
8.88527e-08
8.12236e-10
-6.00648e-10
8.91445e-08
7.31943e-10
-4.49173e-10
8.93518e-08
6.59468e-10
-3.4654e-10
8.94704e-08
5.97748e-10
-2.97943e-10
8.94917e-08
5.44381e-10
-3.03786e-10
8.93998e-08
5.01387e-10
-3.60507e-10
8.91723e-08
4.65522e-10
-4.64023e-10
8.87768e-08
4.38179e-10
-6.04562e-10
8.81706e-08
4.15491e-10
-7.68475e-10
8.72951e-08
3.98311e-10
-9.43835e-10
8.60736e-08
3.82246e-10
-1.10853e-09
8.44029e-08
3.67571e-10
-1.24759e-09
8.21466e-08
3.49368e-10
-1.33406e-09
7.91232e-08
3.27789e-10
-1.34772e-09
7.50898e-08
2.97829e-10
-1.26154e-09
6.97243e-08
2.53588e-10
-1.02785e-09
6.25917e-08
1.663e-10
-5.96049e-10
5.31127e-08
3.12921e-11
3.24057e-08
-6.14211e-11
-1.39402e-09
2.90055e-08
2.50029e-09
-2.57189e-09
4.76825e-08
2.68987e-09
-3.60647e-09
5.63624e-08
2.75207e-09
-4.52065e-09
6.30089e-08
2.79056e-09
-5.30534e-09
6.81278e-08
2.79913e-09
-5.96159e-09
7.2096e-08
2.78195e-09
-6.49232e-09
7.51924e-08
2.74743e-09
-6.89229e-09
7.76279e-08
2.69815e-09
-7.16773e-09
7.95581e-08
2.64055e-09
-7.32531e-09
8.11019e-08
2.57549e-09
-7.36863e-09
8.23467e-08
2.50826e-09
-7.30913e-09
8.33599e-08
2.43895e-09
-7.15375e-09
8.41901e-08
2.3723e-09
-6.9165e-09
8.48754e-08
2.30784e-09
-6.60521e-09
8.54416e-08
2.24973e-09
-6.23678e-09
8.59085e-08
2.19686e-09
-5.82463e-09
8.62872e-08
2.15266e-09
-5.38033e-09
8.6585e-08
2.11528e-09
-4.91562e-09
8.68e-08
2.08815e-09
-4.44427e-09
8.6929e-08
2.06846e-09
-3.97073e-09
8.69609e-08
2.05813e-09
-3.5059e-09
8.68808e-08
2.05374e-09
-3.05416e-09
8.6664e-08
2.05652e-09
-2.62002e-09
8.62796e-08
2.0624e-09
-2.20443e-09
8.56833e-08
2.07205e-09
-1.80903e-09
8.48189e-08
2.08081e-09
-1.43456e-09
8.36096e-08
2.0888e-09
-1.07868e-09
8.19569e-08
2.09072e-09
-7.45458e-10
7.97271e-08
2.0859e-09
-4.37848e-10
7.6747e-08
2.06829e-09
-1.65116e-10
7.2782e-08
2.03605e-09
5.57748e-11
6.75244e-08
1.978e-09
2.14904e-10
6.05583e-08
1.87586e-09
2.79122e-10
5.13302e-08
1.71642e-09
3.12274e-08
1.45855e-09
-1.59723e-09
2.8136e-08
2.46619e-09
-2.96809e-09
4.62312e-08
2.82253e-09
-4.21518e-09
5.46321e-08
2.97835e-09
-5.33536e-09
6.10552e-08
3.07282e-09
-6.31577e-09
6.59911e-08
3.11659e-09
-7.14964e-09
6.98024e-08
3.1295e-09
-7.84018e-09
7.27627e-08
3.119e-09
-8.38154e-09
7.50754e-08
3.09335e-09
-8.77236e-09
7.68951e-08
3.0553e-09
-9.01851e-09
7.83361e-08
3.01099e-09
-9.12012e-09
7.94867e-08
2.9617e-09
-9.08494e-09
8.04116e-08
2.9125e-09
-8.91978e-09
8.11613e-08
2.8638e-09
-8.63403e-09
8.17714e-08
2.82e-09
-8.2446e-09
8.227e-08
2.78076e-09
-7.75973e-09
8.26748e-08
2.74976e-09
-7.19744e-09
8.29991e-08
2.72587e-09
-6.57462e-09
8.32477e-08
2.71194e-09
-5.90073e-09
8.34228e-08
2.70594e-09
-5.19976e-09
8.35181e-08
2.70983e-09
-4.48478e-09
8.35246e-08
2.72066e-09
-3.7677e-09
8.34249e-08
2.73954e-09
-3.06349e-09
8.31966e-08
2.76268e-09
-2.38048e-09
8.28067e-08
2.79045e-09
-1.72944e-09
8.22141e-08
2.81835e-09
-1.11926e-09
8.13617e-08
2.84612e-09
-5.54356e-10
8.01778e-08
2.86863e-09
-4.9053e-11
7.85651e-08
2.88488e-09
3.91546e-10
7.63989e-08
2.88882e-09
7.48918e-10
7.35114e-08
2.8783e-09
1.00157e-09
6.96834e-08
2.84554e-09
1.12177e-09
6.46206e-08
2.78367e-09
1.07453e-09
5.79344e-08
2.67135e-09
8.08532e-10
4.91012e-08
2.49482e-09
2.99046e-08
2.13198e-09
-1.38982e-09
2.75527e-08
1.97336e-09
-2.65499e-09
4.51547e-08
2.34263e-09
-3.85575e-09
5.33166e-08
2.51328e-09
-4.95449e-09
5.95453e-08
2.60978e-09
-5.93249e-09
6.43152e-08
2.6548e-09
-6.7784e-09
6.79807e-08
2.66676e-09
-7.48031e-09
7.08072e-08
2.65721e-09
-8.0302e-09
7.29961e-08
2.63042e-09
-8.42526e-09
7.46971e-08
2.59303e-09
-8.6634e-09
7.60258e-08
2.54745e-09
-8.74335e-09
7.70676e-08
2.49915e-09
-8.66963e-09
7.78899e-08
2.44954e-09
-8.45357e-09
7.85412e-08
2.40327e-09
-8.10371e-09
7.90606e-08
2.361e-09
-7.6344e-09
7.94744e-08
2.32666e-09
-7.06359e-09
7.98036e-08
2.30005e-09
-6.40853e-09
8.00597e-08
2.28425e-09
-5.69045e-09
8.02508e-08
2.27807e-09
-4.92552e-09
8.03765e-08
2.2836e-09
-4.14267e-09
8.04336e-08
2.2986e-09
-3.35029e-09
8.04108e-08
2.32413e-09
-2.57578e-09
8.02929e-08
2.35694e-09
-1.83076e-09
8.00552e-08
2.39716e-09
-1.1323e-09
7.96675e-08
2.44071e-09
-4.90765e-10
7.90862e-08
2.48695e-09
8.07506e-11
7.82584e-08
2.53113e-09
5.73992e-10
7.71111e-08
2.57197e-09
9.8295e-10
7.5553e-08
2.60404e-09
1.29649e-09
7.3461e-08
2.62526e-09
1.50165e-09
7.06766e-08
2.62923e-09
1.58453e-09
6.69881e-08
2.6123e-09
1.5238e-09
6.21168e-08
2.56415e-09
1.29736e-09
5.56914e-08
2.47005e-09
8.73323e-10
4.72162e-08
2.3102e-09
2.88184e-08
1.95816e-09
-8.95012e-10
2.74189e-08
1.02778e-09
-1.86471e-09
4.4843e-08
1.28391e-09
-2.86564e-09
5.29114e-08
1.40455e-09
-3.83612e-09
5.90518e-08
1.46412e-09
-4.73688e-09
6.37353e-08
1.48015e-09
-5.53882e-09
6.73114e-08
1.47079e-09
-6.21817e-09
7.00463e-08
1.44237e-09
-6.76266e-09
7.21386e-08
1.40031e-09
-7.15355e-09
7.37414e-08
1.34739e-09
-7.38845e-09
7.49692e-08
1.28916e-09
-7.45934e-09
7.59113e-08
1.22781e-09
-7.37249e-09
7.66344e-08
1.16818e-09
-7.13337e-09
7.71915e-08
1.11188e-09
-6.75651e-09
7.76207e-08
1.06312e-09
-6.25945e-09
7.79528e-08
1.0228e-09
-5.65631e-09
7.82076e-08
9.94242e-10
-4.97425e-09
7.84003e-08
9.77355e-10
-4.23686e-09
7.85373e-08
9.74412e-10
-3.46446e-09
7.86215e-08
9.84169e-10
-2.6861e-09
7.86473e-08
1.00773e-09
-1.92492e-09
7.86058e-08
1.04265e-09
-1.19864e-09
7.84792e-08
1.08893e-09
-5.31299e-10
7.82447e-08
1.14308e-09
6.14575e-11
7.78688e-08
1.20414e-09
5.71104e-10
7.73104e-08
1.26785e-09
9.82858e-10
7.65131e-08
1.33258e-09
1.29421e-09
7.54068e-08
1.39354e-09
1.50084e-09
7.38977e-08
1.44865e-09
1.60174e-09
7.18671e-08
1.4927e-09
1.5981e-09
6.91562e-08
1.52319e-09
1.4935e-09
6.55598e-08
1.53423e-09
1.28405e-09
6.08028e-08
1.52104e-09
9.80902e-10
5.45257e-08
1.47023e-09
5.84468e-10
4.62436e-08
1.36905e-09
2.82689e-08
1.13397e-09
-3.14388e-10
2.78439e-08
-1.09735e-10
-9.45702e-10
4.55092e-08
-3.54577e-11
-1.71363e-09
5.3674e-08
5.10792e-12
-2.53437e-09
5.9867e-08
6.31044e-12
-3.34538e-09
6.45658e-08
-1.98893e-11
-4.09795e-09
6.81294e-08
-6.46869e-11
-4.75699e-09
7.08276e-08
-1.22772e-10
-5.29487e-09
7.28666e-08
-1.91418e-10
-5.68676e-09
7.44018e-08
-2.66504e-10
-5.92623e-09
7.55539e-08
-3.4586e-10
-6.00475e-09
7.6414e-08
-4.24935e-10
-5.92298e-09
7.70545e-08
-5.01487e-10
-5.68827e-09
7.75291e-08
-5.71228e-10
-5.31709e-09
7.7881e-08
-6.32376e-10
-4.82404e-09
7.81409e-08
-6.81299e-10
-4.23267e-09
7.83331e-08
-7.17001e-10
-3.56695e-09
7.84719e-08
-7.36846e-10
-2.85466e-09
7.85671e-08
-7.41015e-10
-2.12579e-09
7.86197e-08
-7.28128e-10
-1.40652e-09
7.86269e-08
-6.99693e-10
-7.22081e-10
7.8577e-08
-6.55624e-10
-9.63299e-11
7.84536e-08
-5.98689e-10
4.46531e-10
7.82307e-08
-5.2997e-10
8.93611e-10
7.78758e-08
-4.53218e-10
1.23086e-09
7.73433e-08
-3.70352e-10
1.45233e-09
7.65773e-08
-2.85716e-10
1.55795e-09
7.55032e-08
-2.01621e-10
1.55134e-09
7.40273e-08
-1.22545e-10
1.44311e-09
7.20259e-08
-5.07288e-11
1.24949e-09
6.93402e-08
9.97019e-12
9.91722e-10
6.57602e-08
5.74549e-11
6.95044e-10
6.10109e-08
8.80073e-11
3.96851e-10
5.47273e-08
9.66657e-11
1.42037e-10
4.64241e-08
7.57777e-11
2.83876e-08
2.24334e-11
1.7906e-10
2.88166e-08
-1.14969e-09
-1.5185e-10
4.70907e-08
-1.2536e-09
-7.03983e-10
5.5522e-08
-1.29468e-09
-1.38307e-09
6.1894e-08
-1.34975e-09
-2.1013e-09
6.67044e-08
-1.41727e-09
-2.80735e-09
7.03264e-08
-1.4934e-09
-3.44397e-09
7.30435e-08
-1.57807e-09
-3.97866e-09
7.50701e-08
-1.66928e-09
-4.38256e-09
7.65712e-08
-1.76572e-09
-4.63593e-09
7.76726e-08
-1.86371e-09
-4.73534e-09
7.84727e-08
-1.96077e-09
-4.67423e-09
7.90469e-08
-2.05271e-09
-4.46384e-09
7.9455e-08
-2.13696e-09
-4.11469e-09
7.9742e-08
-2.20961e-09
-3.64689e-09
7.99432e-08
-2.26867e-09
-3.08644e-09
8.00832e-08
-2.3111e-09
-2.45947e-09
8.01802e-08
-2.33599e-09
-1.79359e-09
8.02431e-08
-2.34154e-09
-1.12115e-09
8.02756e-08
-2.32824e-09
-4.7198e-10
8.02726e-08
-2.29569e-09
1.27126e-10
8.02241e-08
-2.24578e-09
6.5048e-10
8.01105e-08
-2.17949e-09
1.07503e-09
7.99061e-08
-2.09994e-09
1.38583e-09
7.95739e-08
-2.00919e-09
1.57199e-09
7.9068e-08
-1.91115e-09
1.63214e-09
7.83269e-08
-1.80844e-09
1.56588e-09
7.72739e-08
-1.70521e-09
1.38866e-09
7.58089e-08
-1.60392e-09
1.11862e-09
7.38043e-08
-1.50814e-09
7.83987e-10
7.10932e-08
-1.41917e-09
4.24839e-10
6.74591e-08
-1.33889e-09
8.76562e-11
6.26157e-08
-1.26666e-09
-1.69649e-10
5.61867e-08
-1.20325e-09
-2.69053e-10
4.76701e-08
-1.14676e-09
2.91476e-08
-1.0286e-09
4.66824e-10
3.01945e-08
-1.84387e-09
3.32493e-10
4.93012e-08
-2.07698e-09
-7.14657e-11
5.81034e-08
-2.17731e-09
-6.40507e-10
6.47365e-08
-2.27466e-09
-1.28271e-09
6.97216e-08
-2.37295e-09
-1.9363e-09
7.34534e-08
-2.47442e-09
-2.54204e-09
7.62289e-08
-2.57997e-09
-3.05862e-09
7.82763e-08
-2.69003e-09
-3.45398e-09
7.9769e-08
-2.80271e-09
-3.70775e-09
8.08424e-08
-2.916e-09
-3.8084e-09
8.16004e-08
-3.02629e-09
-3.75746e-09
8.21253e-08
-3.13072e-09
-3.5565e-09
8.24804e-08
-3.22536e-09
-3.22295e-09
8.2716e-08
-3.30751e-09
-2.77544e-09
8.28692e-08
-3.37378e-09
-2.23879e-09
8.29687e-08
-3.42229e-09
-1.64044e-09
8.30328e-08
-3.45076e-09
-1.01176e-09
8.30734e-08
-3.45861e-09
-3.86218e-10
8.3093e-08
-3.44498e-09
2.10694e-10
8.30882e-08
-3.41078e-09
7.44629e-10
8.30463e-08
-3.35665e-09
1.19068e-09
8.29483e-08
-3.28493e-09
1.53002e-09
8.27646e-08
-3.19753e-09
1.74654e-09
8.24571e-08
-3.09789e-09
1.82673e-09
8.19748e-08
-2.98878e-09
1.77481e-09
8.12537e-08
-2.8741e-09
1.59508e-09
8.02103e-08
-2.75677e-09
1.30399e-09
7.87398e-08
-2.64034e-09
9.29683e-10
7.6706e-08
-2.52682e-09
5.05941e-10
7.39342e-08
-2.41801e-09
8.44786e-11
7.01951e-08
-2.31347e-09
-2.78953e-10
6.51901e-08
-2.21169e-09
-5.06569e-10
5.85228e-08
-2.10827e-09
-5.10144e-10
4.96697e-08
-1.99677e-09
3.03905e-08
-1.7532e-09
5.208e-10
3.17866e-08
-2.11371e-09
4.47459e-10
5.1775e-08
-2.39909e-09
1.01896e-10
6.09738e-08
-2.52514e-09
-4.10837e-10
6.78893e-08
-2.64061e-09
-1.00445e-09
7.30682e-08
-2.75284e-09
-1.61032e-09
7.69256e-08
-2.86549e-09
-2.17667e-09
7.97748e-08
-2.98118e-09
-2.65451e-09
8.1856e-08
-3.09997e-09
-3.01889e-09
8.33535e-08
-3.22105e-09
-3.24346e-09
8.44102e-08
-3.34169e-09
-3.32406e-09
8.51379e-08
-3.45916e-09
-3.25082e-09
8.56237e-08
-3.56975e-09
-3.03679e-09
8.59366e-08
-3.67032e-09
-2.69349e-09
8.61298e-08
-3.75727e-09
-2.24073e-09
8.62447e-08
-3.82796e-09
-1.70446e-09
8.63114e-08
-3.87965e-09
-1.11123e-09
8.63512e-08
-3.91081e-09
-4.93652e-10
8.63757e-08
-3.92001e-09
1.17003e-10
8.63894e-08
-3.90719e-09
6.89919e-10
8.63873e-08
-3.87244e-09
1.19709e-09
8.63572e-08
-3.81722e-09
1.60989e-09
8.62773e-08
-3.74307e-09
1.91139e-09
8.6117e-08
-3.65278e-09
2.08361e-09
8.58342e-08
-3.54899e-09
2.11899e-09
8.53754e-08
-3.43533e-09
2.01644e-09
8.46709e-08
-3.31495e-09
1.784e-09
8.36332e-08
-3.19157e-09
1.44276e-09
8.21498e-08
-3.0679e-09
1.01798e-09
8.00774e-08
-2.94663e-09
5.48243e-10
7.72309e-08
-2.82858e-09
8.88336e-11
7.33696e-08
-2.71364e-09
-3.01024e-10
6.81791e-08
-2.59882e-09
-5.42607e-10
6.12438e-08
-2.47898e-09
-5.43993e-10
5.20152e-08
-2.34511e-09
3.18993e-08
-2.05206e-09
4.07392e-10
3.33699e-08
-1.99148e-09
2.89485e-10
5.41498e-08
-2.25527e-09
-6.78251e-11
6.37051e-08
-2.37387e-09
-5.70633e-10
7.08755e-08
-2.48522e-09
-1.13658e-09
7.62297e-08
-2.59476e-09
-1.70566e-09
8.02013e-08
-2.7061e-09
-2.22831e-09
8.31171e-08
-2.82102e-09
-2.6605e-09
8.52294e-08
-2.93978e-09
-2.97689e-09
8.6731e-08
-3.0609e-09
-3.158e-09
8.77731e-08
-3.18203e-09
-3.19392e-09
8.84731e-08
-3.2999e-09
-3.0831e-09
8.89242e-08
-3.41121e-09
-2.83327e-09
8.91992e-08
-3.51234e-09
-2.458e-09
8.93553e-08
-3.60014e-09
-1.97937e-09
8.94366e-08
-3.67148e-09
-1.41859e-09
8.94759e-08
-3.7241e-09
-8.08307e-10
8.94955e-08
-3.75598e-09
-1.74567e-10
8.95091e-08
-3.76616e-09
4.48989e-10
8.95204e-08
-3.75409e-09
1.03099e-09
8.95252e-08
-3.72034e-09
1.54525e-09
8.95097e-08
-3.66587e-09
1.9638e-09
8.94512e-08
-3.59268e-09
2.26796e-09
8.93163e-08
-3.50308e-09
2.44068e-09
8.9061e-08
-3.40019e-09
2.47488e-09
8.86275e-08
-3.28715e-09
2.37352e-09
8.79427e-08
-3.16761e-09
2.13555e-09
8.69131e-08
-3.04485e-09
1.78738e-09
8.5421e-08
-2.92213e-09
1.35283e-09
8.33149e-08
-2.80178e-09
8.67635e-10
8.04015e-08
-2.68525e-09
3.80207e-10
7.64282e-08
-2.57229e-09
-4.6181e-11
7.10679e-08
-2.46086e-09
-3.43679e-10
6.38863e-08
-2.34636e-09
-4.18148e-10
5.43141e-08
-2.22222e-09
3.34327e-08
-1.95254e-09
1.84382e-10
3.47745e-08
-1.58979e-09
-4.58402e-11
5.61591e-08
-1.7765e-09
-4.65926e-10
6.59868e-08
-1.86318e-09
-9.87897e-10
7.33509e-08
-1.9534e-09
-1.54573e-09
7.88361e-08
-2.04813e-09
-2.08725e-09
8.28899e-08
-2.14828e-09
-2.56509e-09
8.58502e-08
-2.25449e-09
-2.9485e-09
8.79778e-08
-2.36604e-09
-3.20868e-09
8.94734e-08
-2.48116e-09
-3.33384e-09
9.04942e-08
-2.59702e-09
-3.31283e-09
9.11631e-08
-2.71041e-09
-3.14758e-09
9.15776e-08
-2.81776e-09
-2.8483e-09
9.18145e-08
-2.91566e-09
-2.4273e-09
9.19342e-08
-3.00076e-09
-1.90341e-09
9.19836e-08
-3.0702e-09
-1.30378e-09
9.19972e-08
-3.1215e-09
-6.53442e-10
9.19994e-08
-3.15291e-09
1.39265e-11
9.2004e-08
-3.16326e-09
6.71947e-10
9.20159e-08
-3.15223e-09
1.28607e-09
9.20301e-08
-3.12014e-09
1.83098e-09
9.20323e-08
-3.06815e-09
2.28253e-09
9.19982e-08
-2.99801e-09
2.61755e-09
9.18928e-08
-2.91219e-09
2.82464e-09
9.16691e-08
-2.81356e-09
2.89022e-09
9.12665e-08
-2.70546e-09
2.81643e-09
9.06079e-08
-2.5913e-09
2.60764e-09
8.95958e-08
-2.47463e-09
2.28067e-09
8.81069e-08
-2.35864e-09
1.85736e-09
8.59839e-08
-2.24618e-09
1.37295e-09
8.3026e-08
-2.13895e-09
8.65571e-10
7.8972e-08
-2.03768e-09
3.91817e-10
7.34839e-08
-1.94155e-09
1.16197e-11
6.61141e-08
-1.84894e-09
-1.91721e-10
5.62772e-08
-1.75809e-09
3.48064e-08
-1.56652e-09
-7.18564e-11
3.58931e-08
-1.04793e-09
-4.42343e-10
5.76592e-08
-1.12866e-09
-9.43083e-10
6.76577e-08
-1.1703e-09
-1.50185e-09
7.51398e-08
-1.2304e-09
-2.06157e-09
8.07002e-08
-1.30346e-09
-2.58018e-09
8.47951e-08
-1.38695e-09
-3.02018e-09
8.77695e-08
-1.47962e-09
-3.35299e-09
8.98906e-08
-1.57977e-09
-3.55939e-09
9.13642e-08
-1.68499e-09
-3.62491e-09
9.23524e-08
-1.79211e-09
-3.54653e-09
9.29822e-08
-1.89773e-09
-3.32375e-09
9.33546e-08
-1.99828e-09
-2.96834e-09
9.35499e-08
-2.09029e-09
-2.49649e-09
9.36311e-08
-2.17054e-09
-1.92342e-09
9.36475e-08
-2.23616e-09
-1.27591e-09
9.36355e-08
-2.28481e-09
-5.82813e-10
9.36205e-08
-2.31473e-09
1.27905e-10
9.36176e-08
-2.32483e-09
8.26663e-10
9.36318e-08
-2.31476e-09
1.48454e-09
9.36578e-08
-2.28486e-09
2.07188e-09
9.36806e-08
-2.23621e-09
2.56677e-09
9.36746e-08
-2.17057e-09
2.94613e-09
9.36031e-08
-2.09026e-09
3.19616e-09
9.34169e-08
-1.99815e-09
3.30858e-09
9.30527e-08
-1.89745e-09
3.27766e-09
9.24301e-08
-1.79161e-09
3.11019e-09
9.14482e-08
-1.68419e-09
2.81531e-09
8.99794e-08
-1.5786e-09
2.41572e-09
8.78621e-08
-1.47795e-09
1.93621e-09
8.48899e-08
-1.38466e-09
1.41279e-09
8.07959e-08
-1.3004e-09
8.87889e-10
7.52347e-08
-1.22626e-09
4.14558e-10
6.77504e-08
-1.16427e-09
6.49629e-11
5.77478e-08
-1.11929e-09
3.59057e-08
-1.03445e-09
-3.01936e-10
3.66934e-08
-4.97614e-10
-8.03482e-10
5.86293e-08
-4.69581e-10
-1.38275e-09
6.87014e-08
-4.64533e-10
-1.97904e-09
7.62288e-08
-4.93069e-10
-2.54486e-09
8.18101e-08
-5.43075e-10
-3.04727e-09
8.59053e-08
-6.08446e-10
-3.45355e-09
8.88632e-08
-6.86074e-10
-3.74641e-09
9.09547e-08
-7.73299e-10
-3.90239e-09
9.23891e-08
-8.67035e-10
-3.91877e-09
9.33315e-08
-9.63878e-10
-3.7889e-09
9.39122e-08
-1.06021e-09
-3.51702e-09
9.42353e-08
-1.15252e-09
-3.11139e-09
9.43834e-08
-1.23734e-09
-2.59204e-09
9.44223e-08
-1.31157e-09
-1.97388e-09
9.44029e-08
-1.37241e-09
-1.28673e-09
9.43637e-08
-1.41764e-09
-5.50848e-10
9.43312e-08
-1.44553e-09
2.01227e-10
9.43213e-08
-1.45509e-09
9.40365e-10
9.43388e-08
-1.44592e-09
1.63689e-09
9.43788e-08
-1.4184e-09
2.26726e-09
9.44253e-08
-1.37352e-09
2.80206e-09
9.44517e-08
-1.313e-09
3.22512e-09
9.44195e-08
-1.23904e-09
3.51965e-09
9.42776e-08
-1.15445e-09
3.67396e-09
9.39602e-08
-1.0623e-09
3.68579e-09
9.33847e-08
-9.66051e-10
3.55594e-09
9.24466e-08
-8.69204e-10
3.29519e-09
9.1016e-08
-7.75364e-10
2.91877e-09
8.89274e-08
-6.8791e-10
2.44476e-09
8.59717e-08
-6.09907e-10
1.90821e-09
8.1878e-08
-5.43987e-10
1.33753e-09
7.62975e-08
-4.93142e-10
7.82034e-10
6.87702e-08
-4.63064e-10
2.98906e-10
5.86976e-08
-4.654e-10
3.66929e-08
-4.90015e-10
-4.71764e-10
3.71957e-08
-3.16569e-11
-1.06295e-09
5.91373e-08
8.53081e-11
-1.69887e-09
6.92072e-08
1.29621e-10
-2.31954e-09
7.67221e-08
1.28416e-10
-2.88966e-09
8.22804e-08
9.88533e-11
-3.37821e-09
8.63421e-08
5.03222e-11
-3.75735e-09
8.92579e-08
-1.29496e-11
-4.01636e-09
9.12998e-08
-8.81394e-11
-4.13609e-09
9.26799e-08
-1.70406e-10
-4.11228e-09
9.3565e-08
-2.56722e-10
-3.94468e-09
9.40878e-08
-3.43571e-10
-3.63741e-09
9.43545e-08
-4.2728e-10
-3.19996e-09
9.44505e-08
-5.04614e-10
-2.64762e-09
9.44432e-08
-5.72471e-10
-2.00155e-09
9.43856e-08
-6.28269e-10
-1.28743e-09
9.43175e-08
-6.69795e-10
-5.26186e-10
9.42668e-08
-6.95491e-10
2.49251e-10
9.42496e-08
-7.04323e-10
1.01121e-09
9.42717e-08
-6.96006e-10
1.73488e-09
9.43274e-08
-6.70812e-10
2.38935e-09
9.44002e-08
-6.29773e-10
2.95258e-09
9.44623e-08
-5.74425e-10
3.40445e-09
9.44741e-08
-5.06974e-10
3.72806e-09
9.43823e-08