/*--------------------------------*- C++ -*----------------------------------*\
| =========                 |                                                 |
| \\      /  F ield         | OpenFOAM: The Open Source CFD Toolbox           |
|  \\    /   O peration     | Version:  v2006                                 |
|   \\  /    A nd           | Website:  www.openfoam.com                      |
|    \\/     M anipulation  |                                                 |
\*---------------------------------------------------------------------------*/
FoamFile
{
    version     2.0;
    format      ascii;
    class       surfaceScalarField;
    location    "12";
    object      phi;
}
// * * * * * * * * * * * * * * * * * * * * * * * * * * * * * * * * * * * * * //

dimensions      [1 0 -1 0 0 0 0];
oriented        oriented;


internalField   nonuniform List<scalar> 
228225
(
-3.06137e-05
-9.509e-07
-9.27771e-08
-2.77358e-05
-2.77616e-06
-1.05922e-07
-2.42178e-05
-3.34231e-06
-1.75759e-07
-2.0581e-05
-3.35914e-06
-2.78406e-07
-1.71224e-05
-3.13668e-06
-3.22607e-07
-1.38585e-05
-2.93002e-06
-3.34529e-07
-1.07594e-05
-2.7676e-06
-3.3227e-07
-7.83378e-06
-2.59964e-06
-3.26608e-07
-5.1149e-06
-2.39927e-06
-3.20257e-07
-2.63015e-06
-2.17179e-06
-3.13581e-07
-3.73477e-07
-1.94943e-06
-3.07861e-07
1.68584e-06
-1.75549e-06
-3.04425e-07
3.57648e-06
-1.58714e-06
-3.04096e-07
5.32e-06
-1.43707e-06
-3.07017e-07
6.93031e-06
-1.29788e-06
-3.12984e-07
8.4146e-06
-1.16324e-06
-3.21598e-07
9.77481e-06
-1.0283e-06
-3.32443e-07
1.1009e-05
-8.8951e-07
-3.45199e-07
1.21123e-05
-7.44377e-07
-3.59448e-07
1.30777e-05
-5.91209e-07
-3.74646e-07
1.38965e-05
-4.29125e-07
-3.902e-07
1.45601e-05
-2.58561e-07
-4.05535e-07
1.50644e-05
-8.44978e-08
-4.20191e-07
1.53662e-05
1.3114e-07
-4.33418e-07
1.54402e-05
3.7e-07
-4.44483e-07
1.52768e-05
6.1542e-07
-4.52434e-07
1.48562e-05
8.76182e-07
-4.55947e-07
1.41495e-05
1.15918e-06
-4.52936e-07
1.31225e-05
1.4673e-06
-4.40697e-07
1.17368e-05
1.79846e-06
-4.1309e-07
9.94873e-06
2.14999e-06
-3.62314e-07
7.7105e-06
2.51431e-06
-2.76385e-07
5.00016e-06
2.85237e-06
-1.42267e-07
2.04369e-06
2.94511e-06
1.10236e-08
1.95678e-06
8.62444e-08
-3.69136e-06
2.86512e-06
-1.25611e-07
-7.52838e-06
1.97731e-06
-9.17317e-07
-1.05963e-05
1.17093e-06
-1.44633e-06
-1.30065e-05
6.83931e-07
-1.63394e-06
-1.47819e-05
2.8098e-07
-1.64329e-06
-1.60052e-05
-1.43807e-07
-1.56387e-06
-1.68349e-05
-5.06533e-07
-1.43237e-06
-1.72827e-05
-8.77964e-07
-1.27472e-06
-1.73769e-05
-1.18606e-06
-1.11991e-06
-1.71721e-05
-1.39743e-06
-9.79914e-07
-1.67212e-05
-1.54145e-06
-8.59543e-07
-1.60692e-05
-1.64731e-06
-7.6091e-07
-1.52517e-05
-1.72193e-06
-6.83243e-07
-1.42999e-05
-1.76447e-06
-6.24989e-07
-1.32439e-05
-1.77018e-06
-5.84219e-07
-1.21146e-05
-1.73441e-06
-5.58701e-07
-1.09414e-05
-1.65569e-06
-5.46308e-07
-9.75005e-06
-1.53553e-06
-5.45843e-07
-8.56157e-06
-1.37715e-06
-5.56214e-07
-7.39284e-06
-1.18442e-06
-5.76015e-07
-6.25734e-06
-9.60926e-07
-6.04194e-07
-5.1674e-06
-7.0894e-07
-6.40046e-07
-4.14032e-06
-4.28827e-07
-6.83219e-07
-3.15627e-06
-1.19744e-07
-7.33625e-07
-2.21726e-06
2.21616e-07
-7.91057e-07
-1.33939e-06
5.90546e-07
-8.53414e-07
-5.37196e-07
9.87924e-07
-9.14323e-07
1.6661e-07
1.41699e-06
-9.61965e-07
7.37821e-07
1.87921e-06
-9.83409e-07
1.13407e-06
2.37177e-06
-9.69756e-07
1.31019e-06
2.88419e-06
-9.10372e-07
1.22637e-06
3.38158e-06
-7.83332e-07
8.7227e-07
3.76101e-06
-5.54269e-07
3.35282e-07
3.72142e-06
-2.39027e-07
2.29421e-06
-2.08934e-09
-6.00635e-07
3.60594e-06
-1.40774e-07
-2.922e-06
4.93634e-06
-6.3839e-07
-5.55041e-06
4.6543e-06
-8.55535e-07
-7.94424e-06
3.87325e-06
-7.96443e-07
-9.93301e-06
2.88718e-06
-6.18691e-07
-1.15199e-05
1.84322e-06
-4.01377e-07
-1.27137e-05
8.59862e-07
-1.73795e-07
-1.37005e-05
6.71516e-08
4.05617e-08
-1.43077e-05
-8.33696e-07
2.5389e-07
-1.45876e-05
-1.54326e-06
4.2506e-07
-1.44962e-05
-2.18939e-06
5.562e-07
-1.40094e-05
-2.78173e-06
6.47724e-07
-1.31732e-05
-3.26209e-06
7.04334e-07
-1.20807e-05
-3.58708e-06
7.30612e-07
-1.08295e-05
-3.75213e-06
7.31351e-07
-9.50645e-06
-3.76942e-06
7.12548e-07
-8.18609e-06
-3.65541e-06
6.79811e-07
-6.93134e-06
-3.42758e-06
6.37575e-07
-5.79385e-06
-3.10377e-06
5.89205e-07
-4.81284e-06
-2.7027e-06
5.37154e-07
-4.01198e-06
-2.24501e-06
4.82929e-07
-3.39462e-06
-1.7537e-06
4.26984e-07
-2.93945e-06
-1.25325e-06
3.68791e-07
-2.60163e-06
-7.64859e-07
3.06841e-07
-2.32545e-06
-2.91305e-07
2.36336e-07
-2.04901e-06
1.65287e-07
1.48485e-07
-1.72796e-06
6.33512e-07
3.31061e-08
-1.40191e-06
1.17496e-06
-8.41969e-08
-1.08741e-06
1.77338e-06
-2.08771e-07
-7.98926e-07
2.40274e-06
-3.19477e-07
-5.47649e-07
3.02608e-06
-3.93106e-07
-3.24677e-07
3.5753e-06
-4.16553e-07
-1.22723e-07
3.92465e-06
-3.65428e-07
-1.06555e-08
3.8081e-06
-1.9867e-07
2.28532e-06
-1.96139e-09
-1.26275e-07
3.76007e-06
-2.87436e-08
-2.17986e-07
5.31195e-06
-2.84784e-07
-2.59112e-07
5.0732e-06
-3.78618e-07
-4.39212e-07
4.369e-06
-3.16605e-07
-8.19415e-07
3.44071e-06
-1.74429e-07
-1.43557e-06
2.46123e-06
-3.01567e-09
-2.32781e-06
1.52956e-06
2.21401e-07
-3.29674e-06
5.89497e-07
4.45551e-07
-4.335e-06
-4.83641e-07
6.87542e-07
-5.10441e-06
-1.71163e-06
9.37995e-07
-5.41681e-06
-3.026e-06
1.1506e-06
-5.26389e-06
-4.21173e-06
1.28006e-06
-4.71814e-06
-5.13239e-06
1.32852e-06
-3.87053e-06
-5.759e-06
1.32881e-06
-2.80522e-06
-6.12225e-06
1.30959e-06
-1.5932e-06
-6.2626e-06
1.286e-06
-2.95978e-07
-6.21152e-06
1.26367e-06
1.02883e-06
-5.99001e-06
1.24222e-06
2.32326e-06
-5.61094e-06
1.21699e-06
3.52573e-06
-5.08184e-06
1.18041e-06
4.56822e-06
-4.40818e-06
1.12369e-06
5.37432e-06
-3.59732e-06
1.03959e-06
5.86046e-06
-2.66449e-06
9.26089e-07
5.94886e-06
-1.64399e-06
7.90733e-07
5.61122e-06
-6.05881e-07
6.51511e-07
4.92164e-06
3.27369e-07
5.26531e-07
4.05746e-06
1.07972e-06
4.17028e-07
3.23537e-06
1.68419e-06
3.12062e-07
2.55884e-06
2.24516e-06
2.04113e-07
2.03109e-06
2.83321e-06
9.68289e-08
1.61359e-06
3.44199e-06
1.31402e-09
1.24366e-06
3.98457e-06
-3.94676e-08
8.85386e-07
4.32462e-06
-4.16893e-08
4.47999e-07
4.219e-06
2.65225e-08
2.61116e-06
1.22028e-07
3.54717e-07
3.37214e-06
3.22132e-08
5.28966e-07
5.25729e-06
-1.20807e-07
4.58095e-07
5.29262e-06
-1.50063e-07
6.09316e-08
4.80258e-06
-3.79906e-08
-6.89962e-07
4.02307e-06
1.66912e-07
-1.72104e-06
3.08605e-06
4.04582e-07
-2.81677e-06
1.95654e-06
6.67197e-07
-3.70554e-06
5.11483e-07
9.65997e-07
-4.13724e-06
-1.31941e-06
1.26848e-06
-4.03962e-06
-3.27587e-06
1.46977e-06
-3.59194e-06
-4.97474e-06
1.50561e-06
-2.98714e-06
-6.22994e-06
1.41831e-06
-2.34352e-06
-7.06344e-06
1.29209e-06
-1.69539e-06
-7.58426e-06
1.18142e-06
-1.0299e-06
-7.88789e-06
1.10415e-06
-3.17906e-07
-8.03422e-06
1.06353e-06
4.69878e-07
-8.05475e-06
1.05941e-06
1.35554e-06
-7.96186e-06
1.09038e-06
2.34966e-06
-7.75387e-06
1.15337e-06
3.44721e-06
-7.41698e-06
1.24259e-06
4.62142e-06
-6.92523e-06
1.34831e-06
5.81354e-06
-6.23942e-06
1.45575e-06
6.92169e-06
-5.30817e-06
1.54122e-06
7.80003e-06
-4.0813e-06
1.56386e-06
8.27347e-06
-2.55364e-06
1.47752e-06
8.20363e-06
-8.74484e-07
1.27259e-06
7.55334e-06
7.22898e-07
1.00617e-06
6.50367e-06
1.96701e-06
7.65234e-07
5.31899e-06
2.85096e-06
5.77383e-07
4.16777e-06
3.55822e-06
4.24926e-07
3.11417e-06
4.1963e-06
2.98176e-07
2.17394e-06
4.72964e-06
1.94284e-07
1.33e-06
5.0393e-06
1.2866e-07
5.39022e-07
4.86377e-06
1.45812e-07
2.9881e-06
1.61483e-07
-5.99616e-09
3.22855e-06
1.48907e-07
-1.75858e-07
5.27802e-06
1.487e-07
-5.40538e-07
5.42324e-06
2.33677e-07
-1.12006e-06
4.98208e-06
3.99817e-07
-1.72865e-06
4.03741e-06
5.9426e-07
-1.95496e-06
2.49613e-06
8.16524e-07
-1.4231e-06
3.7381e-07
1.0518e-06
-1.4854e-07
-1.98668e-06
1.22535e-06
1.38655e-06
-4.10748e-06
1.25528e-06
2.6916e-06
-5.71371e-06
1.13501e-06
3.5727e-06
-6.78389e-06
9.29546e-07
4.08081e-06
-7.45226e-06
7.14744e-07
4.3465e-06
-7.86546e-06
5.35967e-07
4.48029e-06
-8.12566e-06
4.06577e-07
4.56109e-06
-8.28736e-06
3.17158e-07
4.64316e-06
-8.37549e-06
2.57381e-07
4.76373e-06
-8.40066e-06
2.23352e-07
4.95097e-06
-8.36591e-06
2.14819e-07
5.22931e-06
-8.26827e-06
2.34219e-07
5.62192e-06
-8.09758e-06
2.86515e-07
6.14893e-06
-7.83274e-06
3.79653e-07
6.81745e-06
-7.43382e-06
5.2602e-07
7.60298e-06
-6.82978e-06
7.37565e-07
8.42165e-06
-5.90552e-06
1.00859e-06
9.0824e-06
-4.50958e-06
1.29952e-06
9.27329e-06
-2.5793e-06
1.5185e-06
8.84309e-06
-4.00485e-07
1.55695e-06
7.75584e-06
1.65382e-06
1.40167e-06
6.32846e-06
3.13106e-06
1.1464e-06
4.86176e-06
4.12075e-06
9.02034e-07
3.50323e-06
4.84085e-06
7.11546e-07
2.30111e-06
5.3644e-06
5.65178e-07
1.26812e-06
5.62692e-06
4.43529e-07
4.22978e-07
5.35331e-06
3.54076e-07
3.18476e-06
2.24854e-07
-2.21022e-07
3.17318e-06
2.75728e-07
-6.53233e-07
5.28713e-06
4.23111e-07
-1.25804e-06
5.46888e-06
5.59375e-07
-1.85187e-06
4.81798e-06
7.58218e-07
-1.9747e-06
3.16085e-06
9.99916e-07
-1.35792e-06
6.31945e-07
1.24851e-06
-2.83963e-07
-2.08244e-06
1.38402e-06
6.90443e-07
-4.28863e-06
1.3294e-06
1.2133e-06
-5.77507e-06
1.14623e-06
1.26648e-06
-6.71272e-06
9.46815e-07
1.02155e-06
-7.33618e-06
7.979e-07
6.6648e-07
-7.80106e-06
7.04536e-07
3.22148e-07
-8.16975e-06
6.49409e-07
4.2152e-08
-8.46024e-06
6.15528e-07
-1.60249e-07
-8.67654e-06
5.92662e-07
-2.91259e-07
-8.81914e-06
5.75803e-07
-3.65387e-07
-8.88835e-06
5.62928e-07
-3.99109e-07
-8.88475e-06
5.53537e-07
-4.06344e-07
-8.80841e-06
5.48144e-07
-3.94595e-07
-8.65733e-06
5.48493e-07
-3.60981e-07
-8.42451e-06
5.58339e-07
-2.87452e-07
-8.09203e-06
5.84618e-07
-1.39835e-07
-7.61741e-06
6.39876e-07
1.16942e-07
-6.90933e-06
7.47156e-07
4.98448e-07
-5.80974e-06
9.19367e-07
9.4804e-07
-4.14348e-06
1.11586e-06
1.24739e-06
-1.93453e-06
1.23596e-06
1.27865e-06
4.18434e-07
1.20471e-06
1.05201e-06
2.29976e-06
1.05765e-06
6.05347e-07
3.67359e-06
8.93154e-07
1.4059e-07
4.54976e-06
7.55262e-07
-1.92315e-07
5.06435e-06
6.32592e-07
-3.31331e-07
5.25256e-06
5.13233e-07
-2.37488e-07
4.85574e-06
4.03852e-07
2.71901e-06
2.28406e-07
-4.96827e-07
3.31301e-06
3.56381e-07
-1.4383e-06
5.59923e-06
6.29417e-07
-2.3733e-06
5.56146e-06
8.42822e-07
-2.66868e-06
4.02931e-06
1.08492e-06
-2.12344e-06
1.32245e-06
1.29477e-06
-1.27659e-06
-1.55026e-06
1.33743e-06
-7.79538e-07
-3.77224e-06
1.19474e-06
-8.28565e-07
-5.22714e-06
9.89249e-07
-1.20682e-06
-6.21281e-06
8.1758e-07
-1.6456e-06
-6.96116e-06
6.88912e-07
-1.99561e-06
-7.571e-06
5.86684e-07
-2.2222e-06
-8.07485e-06
5.02375e-07
-2.34205e-06
-8.4811e-06
4.33307e-07
-2.3849e-06
-8.79359e-06
3.78354e-07
-2.38003e-06
-9.01789e-06
3.38647e-07
-2.35302e-06
-9.16008e-06
3.16106e-07
-2.32505e-06
-9.22559e-06
3.1145e-07
-2.31347e-06
-9.21833e-06
3.24194e-07
-2.33194e-06
-9.14073e-06
3.52976e-07
-2.38903e-06
-8.994e-06
3.95938e-07
-2.48528e-06
-8.77738e-06
4.51264e-07
-2.60631e-06
-8.48675e-06
5.17789e-07
-2.71003e-06
-8.10823e-06
5.96448e-07
-2.70869e-06
-7.60407e-06
6.95187e-07
-2.45523e-06
-6.88889e-06
8.27416e-07
-1.77644e-06
-5.81723e-06
9.96707e-07
-6.46028e-07
-4.2348e-06
1.17157e-06
6.45778e-07
-2.14894e-06
1.27694e-06
1.51423e-06
1.72856e-07
1.2593e-06
1.75084e-06
2.29887e-06
1.1385e-06
1.43806e-06
3.878e-06
9.84821e-07
9.07462e-07
4.75379e-06
8.41567e-07
4.44456e-07
5.01603e-06
7.00114e-07
1.45477e-07
4.61126e-06
5.44164e-07
2.57644e-06
2.88591e-07
-1.07542e-06
3.90385e-06
4.84936e-07
-2.41125e-06
6.00661e-06
9.30494e-07
-3.2631e-06
5.18488e-06
1.23114e-06
-3.37023e-06
2.7207e-06
1.41861e-06
-3.39584e-06
-3.39924e-08
1.38474e-06
-3.72959e-06
-2.39521e-06
1.18072e-06
-4.44324e-06
-4.00751e-06
9.50345e-07
-5.14893e-06
-5.26486e-06
7.44448e-07
-5.61938e-06
-6.29833e-06
5.5673e-07
-5.82972e-06
-7.13839e-06
3.88018e-07
-5.8367e-06
-7.8106e-06
2.46724e-07
-5.70469e-06
-8.34446e-06
1.37478e-07
-5.47932e-06
-8.76359e-06
5.67899e-08
-5.18477e-06
-9.08444e-06
-4.18917e-09
-4.85432e-06
-9.31762e-06
-3.13003e-08
-4.50047e-06
-9.46847e-06
-4.6063e-08
-4.13889e-06
-9.53997e-06
-4.77888e-08
-3.78778e-06
-9.53349e-06
-3.64689e-08
-3.46612e-06
-9.44934e-06
-1.3469e-08
-3.20877e-06
-9.28752e-06
3.58838e-08
-3.04066e-06
-9.04754e-06
1.01938e-07
-2.98061e-06
-8.73032e-06
1.83595e-07
-3.03326e-06
-8.33844e-06
2.83138e-07
-3.1693e-06
-7.87329e-06
4.05729e-07
-3.28918e-06
-7.32572e-06
5.57367e-07
-3.19284e-06
-6.6521e-06
7.39422e-07
-2.63759e-06
-5.74017e-06
9.5124e-07
-1.53053e-06
-4.42527e-06
1.17051e-06
-9.73089e-08
-2.59566e-06
1.33642e-06
1.14286e-06
-3.23631e-07
1.38313e-06
1.73487e-06
1.99161e-06
1.29473e-06
1.59495e-06
3.77524e-06
1.11852e-06
1.04101e-06
4.65106e-06
9.18896e-07
4.19404e-07
4.52646e-06
7.06385e-07
2.63229e-06
3.63347e-07
-1.99865e-06
5.37048e-06
5.31386e-07
-4.76425e-06
7.7235e-06
1.0496e-06
-6.97586e-06
6.16991e-06
1.22835e-06
-8.25346e-06
2.87182e-06
1.12812e-06
-9.03895e-06
-1.29416e-07
8.8215e-07
-1.01282e-05
-1.95252e-06
6.47366e-07
-1.0973e-05
-3.61308e-06
4.50906e-07
-1.13901e-05
-5.13186e-06
2.84695e-07
-1.14393e-05
-6.40269e-06
1.54173e-07
-1.12282e-05
-7.40948e-06
6.06124e-08
-1.0824e-05
-8.20863e-06
-5.48576e-09
-1.02811e-05
-8.85026e-06
-3.63688e-08
-9.6215e-06
-9.36185e-06
-6.04666e-08
-8.86812e-06
-9.7586e-06
-7.83664e-08
-8.04376e-06
-1.005e-05
-9.10873e-08
-7.16913e-06
-1.02431e-05
-9.91337e-08
-6.26273e-06
-1.0343e-05
-1.02513e-07
-5.34147e-06
-1.03532e-05
-1.00766e-07
-4.42198e-06
-1.02751e-05
-9.29878e-08
-3.52275e-06
-1.01082e-05
-7.78535e-08
-2.66575e-06
-9.85011e-06
-5.38058e-08
-1.87873e-06
-9.4967e-06
-2.00644e-08
-1.2068e-06
-9.04368e-06
3.38632e-08
-6.99913e-07
-8.48824e-06
1.08613e-07
-3.99184e-07
-7.83179e-06
2.05895e-07
-3.07066e-07
-7.07777e-06
3.34113e-07
-3.22223e-07
-6.2177e-06
4.93332e-07
-2.22992e-07
-5.20869e-06
6.85015e-07
2.10435e-07
-3.93517e-06
9.07217e-07
9.85319e-07
-2.22485e-06
1.12785e-06
1.6969e-06
8.0312e-09
1.2738e-06
1.8582e-06
2.34004e-06
1.27571e-06
1.32034e-06
4.064e-06
1.1264e-06
5.23919e-07
4.4606e-06
8.63401e-07
2.74195e-06
4.15117e-07
-3.10706e-07
5.3683e-06
3.09288e-07
-2.22808e-06
8.86345e-06
7.72586e-07
-5.12391e-06
8.18231e-06
8.80201e-07
-8.43268e-06
5.53096e-06
6.49712e-07
-1.1576e-05
2.64449e-06
3.71749e-07
-1.36324e-05
-7.27832e-08
1.79132e-07
-1.4833e-05
-2.44941e-06
3.88818e-08
-1.51496e-05
-4.7401e-06
-7.34474e-08
-1.48043e-05
-6.59059e-06
-1.56042e-07
-1.40698e-05
-7.93439e-06
-2.08485e-07
-1.31339e-05
-8.90343e-06
-2.40072e-07
-1.20957e-05
-9.62867e-06
-2.5896e-07
-1.1003e-05
-1.0184e-05
-2.69847e-07
-9.88085e-06
-1.06047e-05
-2.75387e-07
-8.74518e-06
-1.09083e-05
-2.76808e-07
-7.60743e-06
-1.11058e-05
-2.74553e-07
-6.47673e-06
-1.12046e-05
-2.68617e-07
-5.36092e-06
-1.12098e-05
-2.58739e-07
-4.26732e-06
-1.11237e-05
-2.4447e-07
-3.20327e-06
-1.09466e-05
-2.25142e-07
-2.17677e-06
-1.06763e-05
-1.99749e-07
-1.19758e-06
-1.03085e-05
-1.66774e-07
-2.79904e-07
-9.83663e-06
-1.24089e-07
5.53823e-07
-9.25217e-06
-6.91171e-08
1.26864e-06
-8.54514e-06
-7.41831e-10
1.78036e-06
-7.70482e-06
1.16106e-07
2.02844e-06
-6.72194e-06
2.56948e-07
1.99507e-06
-5.60007e-06
4.25585e-07
1.78494e-06
-4.34237e-06
6.18299e-07
1.62108e-06
-2.89101e-06
8.31387e-07
1.66384e-06
-1.08174e-06
1.04915e-06
1.63946e-06
1.16146e-06
1.20595e-06
1.19489e-06
3.3279e-06
1.18401e-06
5.2178e-07
4.19742e-06
9.39497e-07
2.83112e-06
4.35487e-07
1.8582e-06
3.46831e-06
3.95588e-08
3.24521e-06
7.18211e-06
2.90669e-07
3.12951e-06
7.92087e-06
3.72729e-07
1.45778e-06
6.96857e-06
2.30401e-07
-9.28658e-07
4.98741e-06
4.16622e-08
-3.36462e-06
2.46266e-06
-9.97639e-08
-5.2214e-06
-4.48451e-07
-1.43845e-07
-6.17049e-06
-3.64188e-06
-1.48988e-07
-6.50711e-06
-6.08474e-06
-1.69323e-07
-6.48703e-06
-7.76204e-06
-1.92561e-07
-6.26445e-06
-8.91755e-06
-2.0856e-07
-5.89307e-06
-9.78023e-06
-2.19895e-07
-5.38698e-06
-1.04599e-05
-2.30227e-07
-4.75967e-06
-1.0991e-05
-2.41047e-07
-4.03008e-06
-1.13855e-05
-2.52402e-07
-3.21749e-06
-1.16548e-05
-2.63532e-07
-2.33894e-06
-1.18097e-05
-2.73425e-07
-1.40981e-06
-1.18577e-05
-2.81148e-07
-4.45363e-07
-1.18022e-05
-2.85946e-07
5.37952e-07
-1.16426e-05
-2.87231e-07
1.52138e-06
-1.13751e-05
-2.84497e-07
2.48271e-06
-1.09924e-05
-2.77205e-07
3.39604e-06
-1.04852e-05
-2.64519e-07
4.23255e-06
-9.84341e-06
-2.44921e-07
4.96144e-06
-9.05807e-06
-2.15521e-07
5.54438e-06
-8.11699e-06
-1.7023e-07
5.92335e-06
-7.0006e-06
-9.96591e-08
6.01295e-06
-5.69123e-06
2.27309e-09
5.71766e-06
-4.19885e-06
1.52557e-07
5.04151e-06
-2.55368e-06
3.39779e-07
4.13875e-06
-7.35811e-07
5.58335e-07
3.04116e-06
1.4749e-06
7.86709e-07
1.79188e-06
3.65702e-06
9.23791e-07
6.57906e-07
4.54316e-06
7.91704e-07
3.13201e-06
3.59525e-07
6.57864e-07
2.80314e-06
5.71396e-09
1.71055e-06
6.02956e-06
9.71706e-08
2.41731e-06
7.05187e-06
1.5931e-07
2.57624e-06
6.66633e-06
1.40769e-07
2.42503e-06
5.01648e-06
1.20383e-07
2.41299e-06
2.31478e-06
1.59087e-07
2.57508e-06
-8.33258e-07
2.22562e-07
2.36205e-06
-3.65581e-06
2.27223e-07
1.77382e-06
-5.66247e-06
1.66576e-07
1.00282e-06
-7.07583e-06
8.56909e-08
2.66008e-07
-8.19416e-06
1.44793e-08
-2.9772e-07
-9.17219e-06
-4.31727e-08
-6.36377e-07
-1.00302e-05
-8.9991e-08
-7.56196e-07
-1.07408e-05
-1.29335e-07
-6.87136e-07
-1.12906e-05
-1.63018e-07
-4.60766e-07
-1.16891e-05
-1.91217e-07
-1.02982e-07
-1.19529e-05
-2.13803e-07
3.65676e-07
-1.20947e-05
-2.30915e-07
9.27859e-07
-1.21206e-05
-2.43024e-07
1.56729e-06
-1.20305e-05
-2.50829e-07
2.26657e-06
-1.18186e-05
-2.55114e-07
3.00482e-06
-1.14735e-05
-2.56593e-07
3.75481e-06
-1.09788e-05
-2.55698e-07
4.48034e-06
-1.0316e-05
-2.52269e-07
5.13394e-06
-9.46576e-06
-2.45138e-07
5.65118e-06
-8.40162e-06
-2.31734e-07
5.93776e-06
-7.07799e-06
-2.08216e-07
5.86507e-06
-5.44772e-06
-1.69775e-07
5.30259e-06
-3.52776e-06
-1.07493e-07
4.18569e-06
-1.43953e-06
3.98828e-09
2.63037e-06
6.69282e-07
1.51807e-07
1.08796e-06
2.65436e-06
3.65095e-07
5.16402e-08
4.15928e-06
5.36464e-07
-3.22428e-07
4.45001e-06
4.68932e-07
2.64481e-06
1.6527e-07
-5.87913e-07
3.29801e-06
9.20209e-08
-1.06225e-06
6.30967e-06
1.92944e-07
-1.3327e-06
7.04644e-06
2.74358e-07
-1.41897e-06
6.39525e-06
3.55801e-07
-1.10258e-06
4.25308e-06
4.45882e-07
-4.99075e-07
1.23065e-06
4.80319e-07
-2.56285e-07
-1.46599e-06
3.9033e-07
-7.26437e-07
-3.40502e-06
2.20171e-07
-1.61778e-06
-4.82824e-06
5.80539e-08
-2.56696e-06
-6.06435e-06
-6.13953e-08
-3.3524e-06
-7.26876e-06
-1.39157e-07
-3.89248e-06
-8.44433e-06
-1.87143e-07
-4.18234e-06
-9.52281e-06
-2.17021e-07
-4.25451e-06
-1.0431e-05
-2.37303e-07
-4.15708e-06
-1.11369e-05
-2.50884e-07
-3.93605e-06
-1.16518e-05
-2.58216e-07
-3.62757e-06
-1.2002e-05
-2.59323e-07
-3.2586e-06
-1.22091e-05
-2.54611e-07
-2.85013e-06
-1.22842e-05
-2.44861e-07
-2.41973e-06
-1.22299e-05
-2.3106e-07
-1.98353e-06
-1.20405e-05
-2.14276e-07
-1.55808e-06
-1.17033e-05
-1.95567e-07
-1.16142e-06
-1.11995e-05
-1.75827e-07
-8.11546e-07
-1.05102e-05
-1.55433e-07
-5.21612e-07
-9.62152e-06
-1.33732e-07
-2.96784e-07
-8.51695e-06
-1.08831e-07
-1.4427e-07
-7.14925e-06
-8.03134e-08
-9.99009e-08
-5.43727e-06
-5.35996e-08
-2.46555e-07
-3.34177e-06
-3.78919e-08
-6.6454e-07
-9.94883e-07
-2.50556e-08
-1.17276e-06
1.15945e-06
1.97178e-08
-1.4595e-06
2.829e-06
1.13642e-07
-1.25866e-06
3.74211e-06
2.17455e-07
-6.43601e-07
3.64112e-06
1.94143e-07
1.95386e-06
4.67268e-08
-3.48876e-07
3.52841e-06
1.17539e-07
-8.79152e-07
6.55902e-06
2.79977e-07
-1.24163e-06
7.00202e-06
4.06378e-07
-1.21893e-06
5.86475e-06
5.08225e-07
-9.42728e-07
3.47051e-06
5.07903e-07
-1.01576e-06
9.50843e-07
3.54979e-07
-1.6482e-06
-9.64751e-07
1.33167e-07
-2.58058e-06
-2.41138e-06
-5.9756e-08
-3.48792e-06
-3.72199e-06
-1.97795e-07
-4.20945e-06
-5.06251e-06
-2.79379e-07
-4.70499e-06
-6.46038e-06
-3.11951e-07
-4.97018e-06
-7.86699e-06
-3.11269e-07
-5.01625e-06
-9.17997e-06
-2.95935e-07
-4.8815e-06
-1.02869e-05
-2.78134e-07
-4.62518e-06
-1.11308e-05
-2.61782e-07
-4.30349e-06
-1.17268e-05
-2.46114e-07
-3.95561e-06
-1.21199e-05
-2.29497e-07
-3.60568e-06
-1.23475e-05
-2.11019e-07
-3.26881e-06
-1.24303e-05
-1.9039e-07
-2.95499e-06
-1.23758e-05
-1.67562e-07
-2.67126e-06
-1.21814e-05
-1.42554e-07
-2.42336e-06
-1.18355e-05
-1.15445e-07
-2.21817e-06
-1.13181e-05
-8.63856e-08
-2.06597e-06
-1.06069e-05
-5.52939e-08
-1.97651e-06
-9.69049e-06
-2.0374e-08
-1.93876e-06
-8.57708e-06
2.25487e-08
-1.89427e-06
-7.27045e-06
7.70022e-08
-1.7431e-06
-5.7279e-06
1.3995e-07
-1.41454e-06
-3.86381e-06
1.94252e-07
-9.43608e-07
-1.67908e-06
2.14269e-07
-5.43065e-07
5.60101e-07
1.99884e-07
-2.86577e-07
2.38608e-06
1.87294e-07
-1.07997e-07
3.37388e-06
1.9012e-07
2.0949e-08
3.36048e-06
1.51634e-07
1.91533e-06
5.88014e-08
-9.95056e-08
3.5051e-06
1.22497e-07
-4.08272e-07
6.53618e-06
3.32307e-07
-6.47234e-07
6.78416e-06
4.5894e-07
-6.50204e-07
5.41106e-06
4.60166e-07
-5.72365e-07
3.1089e-06
2.87617e-07
-6.24704e-07
9.6964e-07
3.66674e-08
-7.16686e-07
-6.64658e-07
-2.05932e-07
-7.91317e-07
-1.95579e-06
-3.7943e-07
-8.93315e-07
-3.13713e-06
-4.81672e-07
-1.06845e-06
-4.37086e-06
-5.15442e-07
-1.2773e-06
-5.7608e-06
-4.89642e-07
-1.4299e-06
-7.28767e-06
-4.25631e-07
-1.46261e-06
-8.79395e-06
-3.52266e-07
-1.36886e-06
-1.00891e-05
-2.90622e-07
-1.18408e-06
-1.10689e-05
-2.45979e-07
-9.55218e-07
-1.17413e-05
-2.13826e-07
-7.17547e-07
-1.21684e-05
-1.88594e-07
-4.91241e-07
-1.24066e-05
-1.6669e-07
-2.86547e-07
-1.24886e-05
-1.45943e-07
-1.07778e-07
-1.24293e-05
-1.2476e-07
4.50533e-08
-1.22319e-05
-1.01804e-07
1.75267e-07
-1.1889e-05
-7.62906e-08
2.86453e-07
-1.13807e-05
-4.81695e-08
3.75944e-07
-1.06771e-05
-1.88485e-08
4.2739e-07
-9.75259e-06
1.10287e-08
4.15686e-07
-8.61325e-06
4.81651e-08
3.52752e-07
-7.30212e-06
9.47842e-08
3.20019e-07
-5.85549e-06
1.60367e-07
4.41825e-07
-4.23314e-06
2.47448e-07
7.55993e-07
-2.33021e-06
3.36831e-07
1.10707e-06
-1.77553e-07
3.86464e-07
1.19941e-06
1.92058e-06
3.73013e-07
9.29179e-07
3.32623e-06
3.17698e-07
4.31872e-07
3.62045e-06
2.37021e-07
2.23198e-06
1.14637e-07
4.66724e-07
2.93079e-06
1.08014e-07
9.91915e-07
5.68215e-06
3.31407e-07
1.39673e-06
5.97693e-06
4.06926e-07
1.63884e-06
4.90903e-06
2.65567e-07
1.67948e-06
3.07912e-06
-5.80987e-09
1.61938e-06
1.338e-06
-3.04596e-07
1.51393e-06
-4.99433e-08
-5.06848e-07
1.50312e-06
-1.33028e-06
-6.13165e-07
1.57404e-06
-2.57229e-06
-6.34882e-07
1.785e-06
-3.99957e-06
-5.819e-07
2.15926e-06
-5.66641e-06
-4.68704e-07
2.62586e-06
-7.42524e-06
-3.29314e-07
3.06799e-06
-9.03007e-06
-2.06368e-07
3.40989e-06
-1.03079e-05
-1.23461e-07
3.64162e-06
-1.12222e-05
-7.86137e-08
3.78738e-06
-1.18285e-05
-5.86123e-08
3.87407e-06
-1.2203e-05
-5.22096e-08
3.92112e-06
-1.2401e-05
-5.27077e-08
3.94132e-06
-1.24526e-05
-5.61257e-08
3.94255e-06
-1.23708e-05
-5.96482e-08
3.92837e-06
-1.21565e-05
-6.10766e-08
3.89764e-06
-1.17993e-05
-5.87433e-08
3.84287e-06
-1.12745e-05
-5.11588e-08
3.74842e-06
-1.05447e-05
-3.77321e-08
3.59037e-06
-9.57475e-06
-1.94342e-08
3.3422e-06
-8.36627e-06
1.66096e-09
2.97921e-06
-6.97804e-06
3.9493e-08
2.52982e-06
-5.49738e-06
9.19383e-08
2.08548e-06
-3.95977e-06
1.71596e-07
1.76471e-06
-2.2908e-06
2.81849e-07
1.57888e-06
-3.91801e-07
4.00361e-07
1.35534e-06
1.67203e-06
4.72196e-07
9.25046e-07
3.3051e-06
4.51462e-07
3.85308e-07
3.81103e-06
3.49177e-07
2.45373e-06
1.63481e-07
3.74267e-07
2.49036e-06
6.61191e-08
1.02892e-06
4.84197e-06
1.87235e-07
1.65377e-06
5.1954e-06
1.59655e-07
2.01879e-06
4.5653e-06
-1.76953e-08
2.07758e-06
3.26314e-06
-2.39417e-07
1.98235e-06
1.83363e-06
-3.97596e-07
1.93536e-06
4.62028e-07
-4.62913e-07
2.04151e-06
-9.97735e-07
-4.37447e-07
2.51521e-06
-2.71332e-06
-3.32347e-07
3.37082e-06
-4.68667e-06
-1.69111e-07
4.40148e-06
-6.70226e-06
3.96185e-09
5.30504e-06
-8.46061e-06
1.30504e-07
5.8835e-06
-9.79753e-06
1.88031e-07
6.12163e-06
-1.07386e-05
1.92125e-07
6.11633e-06
-1.13857e-05
1.68773e-07
5.97858e-06
-1.18264e-05
1.36004e-07
5.78661e-06
-1.21128e-05
1.02357e-07
5.58511e-06
-1.22698e-05
7.10454e-08
5.39722e-06
-1.23072e-05
4.31887e-08
5.23296e-06
-1.22248e-05
1.90532e-08
5.09297e-06
-1.20141e-05
-1.69425e-09
4.96674e-06
-1.16551e-05
-1.72518e-08
4.83451e-06
-1.11119e-05
-2.97545e-08
4.66359e-06
-1.03336e-05
-3.95157e-08
4.41374e-06
-9.2762e-06
-4.80675e-08
4.04877e-06
-7.9441e-06
-5.65329e-08
3.5499e-06
-6.41763e-06
-6.07524e-08
2.92606e-06
-4.82483e-06
-4.7682e-08
2.2202e-06
-3.25022e-06
-2.32577e-09
1.50254e-06
-1.66881e-06
9.74317e-08
8.8224e-07
-4.04265e-09
2.34656e-07
4.26001e-07
1.76101e-06
3.69585e-07
1.45377e-07
3.16809e-06
4.19967e-07
1.85814e-08
3.59625e-06
3.43962e-07
2.32204e-06
1.52676e-07
-9.88722e-08
2.51923e-06
6.95172e-08
6.51791e-08
4.57224e-06
1.06317e-07
3.68408e-07
4.85409e-06
3.95004e-08
5.73294e-07
4.42723e-06
-6.50721e-08
5.26655e-07
3.45586e-06
-1.44491e-07
3.70081e-07
2.14887e-06
-1.57589e-07
4.15251e-07
5.05626e-07
-8.85055e-08
8.62093e-07
-1.49978e-06
5.448e-08
1.62929e-06
-3.71926e-06
2.3725e-07
2.40007e-06
-5.82753e-06
3.68468e-07
2.85302e-06
-7.5571e-06
4.00865e-07
2.90204e-06
-8.85777e-06
3.4796e-07
2.66908e-06
-9.82553e-06
2.61425e-07
2.32806e-06
-1.05778e-05
1.8106e-07
1.99895e-06
-1.11745e-05
1.18752e-07
1.73168e-06
-1.16312e-05
7.27112e-08
1.53399e-06
-1.19531e-05
3.8623e-08
1.39867e-06
-1.21466e-05
1.25917e-08
1.31439e-06
-1.2216e-05
-6.47273e-09
1.26953e-06
-1.21604e-05
-1.91579e-08
1.25637e-06
-1.19716e-05
-2.89636e-08
1.26783e-06
-1.16303e-05
-3.59209e-08
1.29771e-06
-1.11008e-05
-4.05492e-08
1.33806e-06
-1.03292e-05
-4.43664e-08
1.3712e-06
-9.25756e-06
-5.12746e-08
1.35955e-06
-7.86434e-06
-6.74863e-08
1.25061e-06
-6.21297e-06
-9.48566e-08
1.00757e-06
-4.46017e-06
-1.20386e-07
6.3795e-07
-2.76137e-06
-1.17512e-07
1.90873e-07
-1.157e-06
-6.24056e-08
-2.51984e-07
3.92374e-07
4.94209e-08
-4.9098e-07
1.81273e-06
1.90804e-07
-4.64879e-07
2.86418e-06
2.81614e-07
-2.39071e-07
3.12753e-06
2.46931e-07
1.98391e-06
1.03186e-07
-3.04111e-07
2.75034e-06
7.22022e-08
-6.50441e-07
4.84703e-06
7.13644e-08
-9.61097e-07
5.14264e-06
2.24387e-08
-1.27196e-06
4.74474e-06
-6.2575e-09
-1.53691e-06
3.70509e-06
1.56266e-08
-1.51558e-06
2.0119e-06
1.14757e-07
-1.08573e-06
-1.84466e-07
2.58684e-07
-3.77659e-07
-2.58287e-06
3.73437e-07
2.2005e-07
-4.70492e-06
3.87125e-07
4.72037e-07
-6.3875e-06
3.08188e-07
4.17335e-07
-7.7061e-06
2.04555e-07
2.40943e-07
-8.80767e-06
1.27292e-07
9.29648e-08
-9.76103e-06
8.43199e-08
1.81523e-08
-1.05655e-05
6.31184e-08
-2.07131e-10
-1.12059e-05
5.0257e-08
1.1652e-08
-1.16815e-05
3.89066e-08
3.57801e-08
-1.20045e-05
2.76905e-08
6.24619e-08
-1.21903e-05
1.74107e-08
8.67335e-08
-1.22488e-05
9.01691e-09
1.06247e-07
-1.21824e-05
2.94743e-09
1.19466e-07
-1.19848e-05
4.90538e-10
1.28094e-07
-1.16396e-05
1.14011e-09
1.39252e-07
-1.11167e-05
5.19378e-09
1.7034e-07
-1.03706e-05
1.06713e-08
2.42385e-07
-9.34362e-06
1.42458e-08
3.57757e-07
-7.98693e-06
7.41136e-09
4.70569e-07
-6.30805e-06
-1.74615e-08
5.04935e-07
-4.43005e-06
-6.39414e-08
4.17745e-07
-2.56242e-06
-1.10768e-07
2.45561e-07
-8.59322e-07
-1.23969e-07
7.34269e-08
6.47557e-07
-8.09396e-08
-4.7429e-08
1.92447e-06
1.17831e-08
-6.89319e-08
2.77435e-06
1.14452e-07
-3.01706e-08
2.96154e-06
1.30606e-07
1.89826e-06
5.87488e-08
-6.44908e-07
3.29802e-06
9.61327e-08
-1.6499e-06
5.72757e-06
1.2339e-07
-2.63359e-06
5.99271e-06
1.32618e-07
-3.40628e-06
5.33537e-06
1.80734e-07
-3.72812e-06
3.75439e-06
2.70644e-07
-3.52196e-06
1.43909e-06
3.6463e-07
-3.0303e-06
-1.07023e-06
3.92653e-07
-2.69417e-06
-3.2531e-06
3.33582e-07
-2.61815e-06
-5.02295e-06
2.42174e-07
-2.6681e-06
-6.50853e-06
1.71328e-07
-2.67322e-06
-7.82852e-06
1.27801e-07
-2.57765e-06
-8.99904e-06
9.59612e-08
-2.41541e-06
-9.98701e-06
6.39049e-08
-2.23646e-06
-1.07735e-05
2.93023e-08
-2.06596e-06
-1.13707e-05
-5.37733e-09
-1.91313e-06
-1.18067e-05
-2.71307e-08
-1.76793e-06
-1.21048e-05
-4.43663e-08
-1.62367e-06
-1.22787e-05
-5.52693e-08
-1.47839e-06
-1.23334e-05
-6.00605e-08
-1.33348e-06
-1.22673e-05
-5.93838e-08
-1.19194e-06
-1.20719e-05
-5.38392e-08
-1.05619e-06
-1.17309e-05
-4.37915e-08
-9.24604e-07
-1.12183e-05
-2.93442e-08
-7.86141e-07
-1.04975e-05
-1.08316e-08
-6.20082e-07
-9.52201e-06
1.30028e-08
-4.02645e-07
-8.23969e-06
3.59302e-08
-1.3924e-07
-6.61499e-06
4.40792e-08
1.05743e-07
-4.69562e-06
2.11635e-08
2.43092e-07
-2.66913e-06
-2.98521e-08
2.48655e-07
-7.80343e-07
-8.33724e-08
1.80822e-07
8.23375e-07
-1.06337e-07
1.12117e-07
2.07553e-06
-8.0227e-08
6.59168e-08
2.84332e-06
-2.02359e-08
2.17498e-08
2.98985e-06
1.85616e-08
1.90655e-06
1.58703e-08
-4.15434e-07
3.6111e-06
1.01238e-07
-1.28515e-06
6.41607e-06
1.80066e-07
-2.22882e-06
6.70631e-06
2.28887e-07
-3.00796e-06
5.82739e-06
2.8579e-07
-3.46275e-06
3.87546e-06
3.32419e-07
-3.74554e-06
1.40007e-06
3.20994e-07
-4.09141e-06
-9.67924e-07
2.43445e-07
-4.531e-06
-2.96301e-06
1.49899e-07
-4.94543e-06
-4.68208e-06
7.41937e-08
-5.23414e-06
-6.23173e-06
1.26403e-08
-5.39105e-06
-7.63672e-06
-3.40844e-08
-5.4408e-06
-8.87748e-06
-7.09729e-08
-5.39827e-06
-9.93143e-06
-9.73209e-08
-5.26974e-06
-1.0788e-05
-1.13273e-07
-5.06667e-06
-1.14519e-05
-1.21259e-07
-4.80772e-06
-1.19416e-05
-1.2359e-07
-4.51157e-06
-1.22786e-05
-1.21877e-07
-4.19324e-06
-1.24795e-05
-1.17098e-07
-3.86336e-06
-1.25531e-05
-1.09825e-07
-3.52883e-06
-1.25011e-05
-1.00371e-07
-3.19335e-06
-1.23181e-05
-8.88463e-08
-2.85736e-06
-1.19913e-05
-7.51464e-08
-2.51692e-06
-1.14995e-05
-5.88884e-08
-2.16135e-06
-1.08133e-05
-3.9391e-08
-1.7705e-06
-9.89628e-06
-1.61623e-08
-1.31864e-06
-8.70321e-06
1.20821e-08
-7.94346e-07
-7.18018e-06
4.1321e-08
-2.40802e-07
-5.30279e-06
5.40764e-08
2.23379e-07
-3.16623e-06
3.34904e-08
4.83823e-07
-1.02371e-06
-1.6232e-08
5.32285e-07
8.40259e-07
-6.41256e-08
4.41725e-07
2.25375e-06
-8.60523e-08
2.83913e-07
3.07325e-06
-7.0138e-08
1.05575e-07
3.20627e-06
-3.59957e-08
2.01912e-06
-5.29777e-09
-4.34735e-08
3.58301e-06
7.03813e-08
-4.86105e-07
6.69243e-06
1.64918e-07
-1.13886e-06
7.13364e-06
2.24091e-07
-1.84291e-06
6.27288e-06
2.57296e-07
-2.46454e-06
4.24987e-06
2.46261e-07
-3.02647e-06
1.78589e-06
1.75698e-07
-3.5233e-06
-5.4782e-07
7.68627e-08
-3.88844e-06
-2.58661e-06
-1.07936e-08
-4.1069e-06
-4.39435e-06
-6.86485e-08
-4.18701e-06
-6.04545e-06
-1.05543e-07
-4.13908e-06
-7.55907e-06
-1.25039e-07
-3.97675e-06
-8.90576e-06
-1.33594e-07
-3.72685e-06
-1.00434e-05
-1.37482e-07
-3.42386e-06
-1.09504e-05
-1.40234e-07
-3.09763e-06
-1.16355e-05
-1.42211e-07
-2.76792e-06
-1.21282e-05
-1.42568e-07
-2.4459e-06
-1.24595e-05
-1.40678e-07
-2.13763e-06
-1.26509e-05