/*--------------------------------*- C++ -*----------------------------------*\
| =========                 |                                                 |
| \\      /  F ield         | OpenFOAM: The Open Source CFD Toolbox           |
|  \\    /   O peration     | Version:  v2006                                 |
|   \\  /    A nd           | Website:  www.openfoam.com                      |
|    \\/     M anipulation  |                                                 |
\*---------------------------------------------------------------------------*/
FoamFile
{
    version     2.0;
    format      ascii;
    class       volVectorField;
    location    "12";
    object      U;
}
// * * * * * * * * * * * * * * * * * * * * * * * * * * * * * * * * * * * * * //

dimensions      [0 1 -1 0 0 0 0];


internalField   nonuniform List<vector> 
78750
(
(-0.0633021 -0.034403 -0.0295253)
(-0.0485747 -0.0376033 -0.0344832)
(-0.0409511 -0.0344556 -0.03213)
(-0.0368679 -0.0323835 -0.031704)
(-0.0309492 -0.0298493 -0.0308391)
(-0.0255809 -0.0276611 -0.0303614)
(-0.020312 -0.0255425 -0.030062)
(-0.0153275 -0.0234017 -0.029901)
(-0.010686 -0.0212176 -0.0298251)
(-0.00640086 -0.0190137 -0.0297626)
(-0.00244615 -0.0168691 -0.0297274)
(0.00116007 -0.0148644 -0.0297457)
(0.00442305 -0.0130204 -0.029824)
(0.00742013 -0.0113237 -0.0299439)
(0.010187 -0.00975223 -0.0300829)
(0.0127411 -0.00828036 -0.0302174)
(0.0150896 -0.00688196 -0.0303252)
(0.0172325 -0.00553273 -0.030386)
(0.0191643 -0.00421042 -0.0303815)
(0.0208754 -0.00289461 -0.0302963)
(0.0223528 -0.00156606 -0.0301177)
(0.0235833 -0.000206685 -0.0298364)
(0.0245397 0.00119663 -0.0294489)
(0.0252203 0.00265896 -0.0289353)
(0.025555 0.00419152 -0.0282867)
(0.0254942 0.00581513 -0.0274949)
(0.025022 0.00755294 -0.0265461)
(0.024112 0.00941429 -0.0254093)
(0.0227098 0.0113853 -0.0240566)
(0.0207553 0.0134372 -0.0224526)
(0.0181784 0.0155353 -0.020543)
(0.0149261 0.017698 -0.0182017)
(0.0108051 0.0199548 -0.0149329)
(0.00585177 0.0206578 -0.00980765)
(0.00131951 0.0133692 -0.00275559)
(-0.00240607 0.00925884 -0.013942)
(-0.0090016 -0.0273869 -0.04056)
(-0.0156101 -0.0412819 -0.0497085)
(-0.0199799 -0.0425264 -0.0507647)
(-0.0233005 -0.0394098 -0.0490294)
(-0.0256689 -0.0367043 -0.0467916)
(-0.0273585 -0.0352792 -0.0448447)
(-0.0284756 -0.0340195 -0.0431368)
(-0.0289365 -0.0322061 -0.0415756)
(-0.0287335 -0.0297554 -0.0401741)
(-0.0280895 -0.0272675 -0.0391023)
(-0.0271546 -0.0251942 -0.0384463)
(-0.025927 -0.0234737 -0.0381372)
(-0.0244544 -0.0219677 -0.038087)
(-0.0227852 -0.0205406 -0.0382161)
(-0.0209701 -0.019083 -0.0384563)
(-0.0190594 -0.0175161 -0.0387468)
(-0.0170985 -0.0157863 -0.0390299)
(-0.015126 -0.0138584 -0.0392529)
(-0.0131727 -0.0117097 -0.0393701)
(-0.0112645 -0.00932665 -0.0393456)
(-0.00942624 -0.00670271 -0.0391561)
(-0.0076794 -0.00383794 -0.0387901)
(-0.00601206 -0.000736594 -0.0382425)
(-0.00441776 0.00259174 -0.0375189)
(-0.00291326 0.00614658 -0.036614)
(-0.00153442 0.00995859 -0.0354922)
(-0.000282651 0.0141178 -0.03405)
(0.000811172 0.0186947 -0.0321462)
(0.00165286 0.0236885 -0.0296662)
(0.00216763 0.0290814 -0.026445)
(0.00227563 0.0346733 -0.0222559)
(0.00191225 0.0394811 -0.0169474)
(0.00108598 0.040198 -0.0103657)
(-2.44855e-05 0.0259392 -0.00266761)
(0.000235722 0.0471831 -0.00849992)
(-0.00265203 0.0636882 -0.0228538)
(-0.00715783 0.0610698 -0.0267758)
(-0.0114891 0.052663 -0.0242629)
(-0.0151337 0.0421958 -0.0194645)
(-0.017956 0.0309781 -0.0151693)
(-0.0201716 0.0198366 -0.0118498)
(-0.0219476 0.00964828 -0.00897873)
(-0.0232141 0.000897531 -0.00622622)
(-0.0240014 -0.00603837 -0.00361982)
(-0.0241794 -0.0113774 -0.0013505)
(-0.0236716 -0.0153783 0.000247089)
(-0.0225279 -0.018295 0.000902847)
(-0.0208892 -0.0202623 0.000566456)
(-0.0189247 -0.0213207 -0.000649065)
(-0.0167795 -0.0214915 -0.00260792)
(-0.0145806 -0.0208401 -0.00519835)
(-0.0124401 -0.0194716 -0.00831016)
(-0.010454 -0.0175084 -0.0118049)
(-0.00870063 -0.0150718 -0.015491)
(-0.00723526 -0.0122611 -0.0191173)
(-0.00608022 -0.00912949 -0.0224015)
(-0.00521573 -0.00566982 -0.0250909)
(-0.00458073 -0.00182883 -0.0270257)
(-0.00408698 0.0024432 -0.0281629)
(-0.0036319 0.00714598 -0.0285529)
(-0.00313888 0.0122404 -0.0283322)
(-0.00260048 0.0176929 -0.0276322)
(-0.00205898 0.0234534 -0.0264531)
(-0.00155052 0.0294497 -0.0247266)
(-0.00109183 0.035467 -0.0223049)
(-0.000680321 0.040942 -0.0190104)
(-0.000330522 0.0446164 -0.0146904)
(-5.39405e-05 0.0432111 -0.00891598)
(-1.56911e-05 0.025868 -0.00182146)
(-5.75054e-05 0.0407057 -0.00485272)
(-0.000254082 0.0546459 -0.0146009)
(-0.000441778 0.0502377 -0.0182341)
(-0.000587708 0.040859 -0.0180597)
(-0.00100672 0.028849 -0.0154742)
(-0.00179976 0.0158751 -0.0116242)
(-0.00302705 0.00360208 -0.00675736)
(-0.00461696 -0.00673187 -0.000244293)
(-0.00629678 -0.015203 0.00881858)
(-0.00791621 -0.0230589 0.019868)
(-0.00887612 -0.0316452 0.0301985)
(-0.00896103 -0.0406851 0.0371217)
(-0.00831689 -0.0485548 0.0404389)
(-0.00714141 -0.0540828 0.0415514)
(-0.00555929 -0.0570486 0.0416408)
(-0.00367047 -0.0576464 0.0412359)
(-0.00158145 -0.0561502 0.0404623)
(0.000603681 -0.0528332 0.0392291)
(0.00278946 -0.0479645 0.0373009)
(0.00488073 -0.0418375 0.0343476)
(0.00677259 -0.0348148 0.0300232)
(0.0083425 -0.0273646 0.0240936)
(0.0094442 -0.0200598 0.016637)
(0.00991619 -0.0134618 0.00830368)
(0.00965033 -0.0077957 0.000387623)
(0.00873389 -0.00260747 -0.00576328)
(0.00740683 0.00301393 -0.009715)
(0.00598158 0.00965959 -0.0118517)
(0.00472729 0.0172286 -0.0127345)
(0.00373745 0.025242 -0.0127291)
(0.00297172 0.0330965 -0.011929)
(0.00233305 0.0398496 -0.0102453)
(0.00177376 0.0440978 -0.00763069)
(0.00118179 0.0433669 -0.00382881)
(0.000339242 0.0267417 0.000575803)
(0.000350812 0.0407025 -0.00166594)
(0.000836218 0.0605255 -0.00805373)
(0.000891009 0.0596039 -0.0112404)
(0.000549903 0.0532162 -0.0120767)
(-0.000387171 0.0445522 -0.0109773)
(-0.00187984 0.0358888 -0.00785406)
(-0.00371203 0.0277321 -0.00172729)
(-0.00558674 0.0178395 0.00868584)
(-0.00686453 0.00269879 0.0217363)
(-0.007045 -0.017689 0.031646)
(-0.00637637 -0.038691 0.0346706)
(-0.00537789 -0.0560414 0.0323956)
(-0.00433098 -0.0684279 0.028278)
(-0.00329295 -0.0765114 0.0245424)
(-0.00224481 -0.0813167 0.0219768)
(-0.00113541 -0.0835993 0.0207005)
(8.7345e-05 -0.0837741 0.0206615)
(0.00146329 -0.0820037 0.0217808)
(0.00301621 -0.0782769 0.0239342)
(0.00474968 -0.0724503 0.0268935)
(0.00664039 -0.0642748 0.0302515)
(0.00862656 -0.0534436 0.0333182)
(0.0105859 -0.039729 0.0349687)
(0.0123236 -0.023363 0.0335443)
(0.0135359 -0.00577469 0.0272794)
(0.0138924 0.00990902 0.0161299)
(0.0131771 0.0209416 0.00350622)
(0.0116119 0.027486 -0.00566352)
(0.00973697 0.032146 -0.0099022)
(0.00782262 0.0370492 -0.0106509)
(0.00597067 0.0426648 -0.0093853)
(0.00429383 0.0480078 -0.00708397)
(0.00289524 0.0514109 -0.00430886)
(0.0016194 0.049901 -0.00102179)
(0.000318297 0.0310338 0.00178271)
(3.28866e-05 0.0369538 0.000393828)
(-7.6123e-05 0.0590533 -0.00361187)
(-0.000542164 0.0600185 -0.00566489)
(-0.00127325 0.0551884 -0.00563249)
(-0.00234189 0.046424 -0.00281514)
(-0.00324525 0.0342331 0.00391344)
(-0.00315753 0.0172934 0.0142618)
(-0.00157866 -0.00526905 0.0241671)
(0.000971325 -0.0303298 0.0288839)
(0.00351333 -0.0529063 0.0273958)
(0.00539166 -0.0697031 0.0222335)
(0.00651484 -0.0806105 0.0164893)
(0.00708475 -0.0872 0.0117824)
(0.0073521 -0.0910904 0.00837212)
(0.00749742 -0.0933468 0.00598704)
(0.00761328 -0.094571 0.00433159)
(0.00776876 -0.0950842 0.00324153)
(0.00801406 -0.095027 0.00269766)
(0.00838987 -0.0943959 0.00281751)
(0.00893311 -0.0930469 0.00385516)
(0.00967943 -0.0906679 0.00620844)
(0.0106456 -0.0866959 0.0103954)
(0.0118201 -0.0801764 0.0168953)
(0.0131386 -0.0696468 0.0257137)
(0.0144568 -0.0533507 0.0354855)
(0.0154177 -0.0311121 0.0422461)
(0.0154377 -0.00688112 0.0410653)
(0.0141562 0.0139007 0.03157)
(0.0118058 0.0291581 0.018693)
(0.00921009 0.0403374 0.00827706)
(0.00681596 0.0492343 0.00249473)
(0.00466735 0.0560485 0.000568505)
(0.00293196 0.0597923 0.000931106)
(0.00141247 0.0576589 0.00235863)
(0.000158861 0.0350832 0.0028789)
(-0.000139417 0.0360323 0.00399667)
(-0.000715279 0.0594464 0.00392148)
(-0.001552 0.061271 0.00331415)
(-0.00251926 0.0559347 0.0046018)
(-0.00337439 0.0434591 0.00991135)
(-0.0030999 0.0213947 0.0186617)
(-0.00146689 -0.00860243 0.0249876)
(0.000524551 -0.0381875 0.0245423)
(0.00183303 -0.0601335 0.0193555)
(0.00219993 -0.0732603 0.0140126)
(0.0019195 -0.080339 0.011068)
(0.00137856 -0.0843978 0.0102293)
(0.000792297 -0.0870911 0.010475)
(0.000270591 -0.0890666 0.0110869)
(-0.000130624 -0.0904813 0.0116433)
(-0.000401751 -0.0912988 0.0119297)
(-0.00056371 -0.0914408 0.011863)
(-0.00064605 -0.0908407 0.0114289)
(-0.000676316 -0.089445 0.0106552)
(-0.00067427 -0.0871854 0.00962389)
(-0.000646115 -0.0839268 0.00851489)
(-0.000577089 -0.079374 0.0076773)
(-0.000422578 -0.0729012 0.0077628)
(-0.000109894 -0.0633154 0.00982186)
(0.000387735 -0.0488352 0.0146031)
(0.00116473 -0.028042 0.0206872)
(0.00201589 -0.00289628 0.0236981)
(0.00243387 0.0206753 0.0205007)
(0.00213515 0.0378 0.0133728)
(0.00137596 0.0485591 0.00745164)
(0.000548579 0.0558342 0.00464841)
(-0.000116471 0.0609282 0.00406301)
(-0.000487446 0.0631454 0.00452212)
(-0.000551516 0.059015 0.00510616)
(-0.000224334 0.0338529 0.00372806)
(-0.000275174 0.0353453 0.00566173)
(-0.00161766 0.0588534 0.00848838)
(-0.00320129 0.0606075 0.0106575)
(-0.00433422 0.0511317 0.0154607)
(-0.00423572 0.0267906 0.0219355)
(-0.0027524 -0.00709999 0.023774)
(-0.00145423 -0.0371239 0.0195775)
(-0.00120137 -0.0564964 0.0143251)
(-0.00170494 -0.0677847 0.0116157)
(-0.0024256 -0.0756076 0.0109431)
(-0.00307946 -0.0823258 0.0108803)
(-0.00355507 -0.0884587 0.0106824)
(-0.00382961 -0.0938081 0.0102254)
(-0.00394552 -0.0981418 0.00968371)
(-0.00396228 -0.101387 0.00927062)
(-0.0039256 -0.103587 0.00912734)
(-0.00387206 -0.104821 0.00930592)
(-0.00383236 -0.105162 0.00978516)
(-0.00383234 -0.104657 0.0104891)
(-0.00389249 -0.103318 0.0113058)
(-0.00402286 -0.101101 0.0121145)
(-0.00421311 -0.0978587 0.012826)
(-0.00442175 -0.0932313 0.0134468)
(-0.00457014 -0.0864267 0.0141973)
(-0.00445164 -0.0759391 0.015695)
(-0.00372037 -0.0597067 0.0186422)
(-0.00211775 -0.0366819 0.0222362)
(0.00011555 -0.00948328 0.0235868)
(0.00209294 0.0163263 0.0208357)
(0.00300276 0.0359746 0.0154192)
(0.00272809 0.0478162 0.0107445)
(0.00187923 0.0538795 0.00859932)
(0.00107653 0.0558897 0.00812661)
(0.000434093 0.0516399 0.00776451)
(0.000131768 0.0289854 0.00484621)
(-0.000818841 0.0410221 0.00936857)
(-0.00306491 0.0689018 0.0172735)
(-0.00474618 0.0659495 0.0217117)
(-0.00552673 0.0412742 0.0237649)
(-0.00545979 0.00482091 0.0203654)
(-0.00577092 -0.025108 0.0132121)
(-0.00686254 -0.0440135 0.00777243)
(-0.00812695 -0.0572497 0.00476461)
(-0.00908152 -0.0681839 0.00250533)
(-0.00960412 -0.0772383 0.000330566)
(-0.00974455 -0.0842914 -0.00159814)
(-0.00961496 -0.0895622 -0.00307403)
(-0.00930252 -0.0934286 -0.00406751)
(-0.00886064 -0.0962057 -0.0046537)
(-0.0083354 -0.0980966 -0.00492742)
(-0.00776063 -0.0991938 -0.00495858)
(-0.00716013 -0.0995397 -0.0047868)
(-0.00656003 -0.0991508 -0.00442288)
(-0.00599174 -0.0980363 -0.00385846)
(-0.0055001 -0.096215 -0.0030808)
(-0.00513634 -0.0937126 -0.00208522)
(-0.00494264 -0.090586 -0.000889146)
(-0.00494017 -0.0868912 0.000477393)
(-0.00510845 -0.0825762 0.00201688)
(-0.00534766 -0.0772199 0.00386272)
(-0.00545182 -0.0695867 0.00642495)
(-0.00502268 -0.0573095 0.0103234)
(-0.00364505 -0.0380627 0.0153509)
(-0.00137599 -0.0123809 0.01966)
(0.00107039 0.0154519 0.021274)
(0.0026836 0.0387593 0.0198615)
(0.00288795 0.0522616 0.0172054)
(0.00224143 0.0563485 0.0151562)
(0.00125057 0.0520455 0.012959)
(0.00031976 0.0293475 0.00712582)
(-0.00143359 0.0495226 0.0104664)
(-0.00594564 0.068643 0.0183198)
(-0.00994656 0.0527633 0.0178368)
(-0.0126233 0.0223174 0.0116872)
(-0.0142769 -0.0051227 0.00442061)
(-0.0161098 -0.0252861 0.000952037)
(-0.0177598 -0.0423004 0.000145078)
(-0.0187492 -0.0572609 -8.56497e-05)
(-0.0190644 -0.0696356 -0.000120467)
(-0.0188801 -0.0796136 0.000110156)
(-0.0183405 -0.0878098 0.000511538)
(-0.0175373 -0.0946373 0.000940375)
(-0.0165254 -0.100248 0.00130496)
(-0.015344 -0.104709 0.00156788)
(-0.0140288 -0.108067 0.00172472)
(-0.0126146 -0.110362 0.00178463)
(-0.0111334 -0.111631 0.00176202)
(-0.00961417 -0.111894 0.00167472)
(-0.00808424 -0.111155 0.00154547)
(-0.00657134 -0.109397 0.00140377)
(-0.00510625 -0.106586 0.0012852)
(-0.0037284 -0.102689 0.00122577)
(-0.00249712 -0.0977089 0.00124784)
(-0.00149503 -0.0917374 0.00134343)
(-0.000814778 -0.0850014 0.00148202)
(-0.000491938 -0.0777537 0.00168754)
(-0.00046295 -0.0698122 0.00221709)
(-0.000494956 -0.0598083 0.00379484)
(-0.000176378 -0.0448417 0.00743813)
(0.000842838 -0.0224215 0.0131144)
(0.00228479 0.00555514 0.0187558)
(0.003163 0.0315594 0.0216555)
(0.00281602 0.0470939 0.0208801)
(0.00158829 0.0489133 0.0170646)
(0.000374876 0.0295507 0.00843199)
(0.000356171 0.0647086 0.00691896)
(-0.0016612 0.0960699 0.0148667)
(-0.00599124 0.0769888 0.013474)
(-0.0115101 0.0351172 0.0051091)
(-0.0171078 0.000733304 -0.00104885)
(-0.0214381 -0.0233899 -0.0023252)
(-0.0239945 -0.0441909 -0.00261927)
(-0.0250199 -0.0629514 -0.00348683)
(-0.0248492 -0.0781935 -0.0046104)
(-0.0239263 -0.0896954 -0.00549666)
(-0.0225508 -0.0983805 -0.00602253)
(-0.020921 -0.105073 -0.00625205)
(-0.019153 -0.11024 -0.00626447)
(-0.017313 -0.114125 -0.00612579)
(-0.0154379 -0.116868 -0.00588624)
(-0.0135508 -0.118559 -0.00558177)
(-0.0116682 -0.119261 -0.0052381)
(-0.00980388 -0.119015 -0.0048745)
(-0.00797016 -0.117841 -0.00450635)
(-0.00617905 -0.115738 -0.00414519)
(-0.00444328 -0.112679 -0.00379638)
(-0.00277742 -0.108606 -0.00345418)
(-0.00119964 -0.103415 -0.00309673)
(0.000264569 -0.0969497 -0.00268616)
(0.00156661 -0.0890112 -0.00218375)
(0.00261751 -0.0794332 -0.00158841)
(0.00328626 -0.0682192 -0.000961696)
(0.00348114 -0.0557503 -0.000355111)
(0.00324214 -0.0422557 0.000549712)
(0.00281794 -0.0264332 0.00289317)
(0.00262395 -0.00532037 0.00810754)
(0.00272341 0.0210704 0.0153556)
(0.00241824 0.0437418 0.0201718)
(0.00151562 0.0507059 0.0186405)
(0.000406804 0.0317378 0.0090952)
(0.00146108 0.051147 0.000239128)
(0.0047563 0.0965915 0.00484643)
(0.00557391 0.100286 0.00586356)
(0.00418993 0.0831583 0.00285914)
(0.000582553 0.0540713 -0.00172186)
(-0.00384858 0.0210565 -0.00416679)
(-0.00765945 -0.0137491 -0.00362926)
(-0.00956756 -0.0462322 -0.00267768)
(-0.0104113 -0.0717616 -0.00312387)
(-0.0107039 -0.089444 -0.00383203)
(-0.01056 -0.101603 -0.00405746)
(-0.0100986 -0.110473 -0.00387723)
(-0.00938368 -0.117231 -0.00351913)
(-0.00844714 -0.12238 -0.00314912)
(-0.007321 -0.126143 -0.00285376)
(-0.00603909 -0.128651 -0.0026591)
(-0.00463263 -0.129993 -0.00255846)
(-0.00312908 -0.13023 -0.00253285)
(-0.00155392 -0.129389 -0.00256205)
(6.63438e-05 -0.127469 -0.00263012)
(0.00170295 -0.124443 -0.00272811)
(0.00332305 -0.12027 -0.00285488)
(0.00488704 -0.114899 -0.00301461)
(0.00634903 -0.108297 -0.0032095)
(0.00765946 -0.100438 -0.00342734)
(0.00876099 -0.0912521 -0.00363188)
(0.00958277 -0.0805445 -0.00377144)
(0.0100122 -0.0680392 -0.00380678)
(0.0098963 -0.0535979 -0.00371153)
(0.00911712 -0.0371985 -0.0032619)
(0.00773229 -0.0181215 -0.00152416)
(0.00599872 0.00538211 0.00305104)
(0.00388555 0.0310368 0.00935062)
(0.00198016 0.0436647 0.0112833)
(0.000505795 0.032335 0.00627633)
(0.000109529 0.0324575 -0.00035039)
(0.00218868 0.0719041 0.00104452)
(0.00381795 0.0843557 0.00203453)
(0.00444079 0.0803744 0.00151654)
(0.00422016 0.0650144 0.000610662)
(0.00371674 0.0401403 0.00198935)
(0.00390514 0.00668566 0.00460918)
(0.00432669 -0.0280984 0.0049168)
(0.00373447 -0.0565013 0.00288315)
(0.00241635 -0.0768382 0.00066313)
(0.00102474 -0.0914529 -0.000661313)
(-0.000107342 -0.102752 -0.00114392)
(-0.00086593 -0.111894 -0.00117876)
(-0.00123817 -0.119185 -0.00108705)
(-0.00126623 -0.124714 -0.00102328)
(-0.00100866 -0.128637 -0.00102161)
(-0.000515135 -0.131132 -0.0010696)
(0.000176995 -0.132333 -0.00115043)
(0.00103742 -0.132308 -0.00125528)
(0.00203869 -0.131064 -0.00138309)
(0.00315306 -0.128553 -0.00153712)
(0.00434911 -0.124673 -0.00172115)
(0.0055881 -0.119275 -0.00193479)
(0.00681835 -0.11218 -0.00216686)
(0.00797 -0.103203 -0.00239345)
(0.00895113 -0.0921175 -0.00259825)
(0.00964072 -0.0786175 -0.00282752)
(0.00987781 -0.0624759 -0.00324279)
(0.00946383 -0.0439137 -0.00398787)
(0.00817263 -0.023451 -0.00468549)
(0.00589739 -0.00079644 -0.00412416)
(0.00307409 0.0240325 -0.00118412)
(0.000709985 0.0460221 0.00297135)
(-0.000512333 0.053261 0.00448249)
(-0.000409977 0.0342548 0.00192615)
(-0.000583295 0.0330614 0.00140672)
(-0.00153002 0.0662154 0.00256883)
(-0.0019717 0.0756936 0.00342929)
(-0.00226988 0.0705979 0.00475577)
(-0.00219434 0.0490802 0.00710158)
(-0.00126569 0.0136046 0.00789313)
(-0.000308217 -0.0234006 0.00423117)
(-0.000607757 -0.050273 -0.00161261)
(-0.00194607 -0.0665196 -0.00574718)
(-0.00353474 -0.0779479 -0.00737013)
(-0.00499585 -0.088519 -0.00727089)
(-0.00612091 -0.0992346 -0.0062657)
(-0.0068021 -0.109411 -0.00501014)
(-0.007074 -0.118131 -0.00389796)
(-0.00702485 -0.124991 -0.0030409)
(-0.0067409 -0.130045 -0.0023949)
(-0.00628884 -0.133492 -0.00188436)
(-0.00571817 -0.135488 -0.00145519)
(-0.00506714 -0.136111 -0.00108038)
(-0.00436742 -0.135356 -0.000752163)
(-0.00364706 -0.133146 -0.000474329)
(-0.00293241 -0.129331 -0.000255062)
(-0.00225051 -0.123697 -9.60126e-05)
(-0.00163045 -0.116007 2.8388e-05)
(-0.00109902 -0.106017 0.000193358)
(-0.000672744 -0.0933648 0.000503771)
(-0.000354701 -0.0773517 0.000959948)
(-0.00016854 -0.0571802 0.00121275)
(-0.000183971 -0.0330469 0.000577701)
(-0.000605956 -0.00727948 -0.00101776)
(-0.00145932 0.0167139 -0.00218145)
(-0.00226349 0.0363617 -0.00175214)
(-0.00241642 0.0479025 -0.000574808)
(-0.00178097 0.0472629 -0.000177642)
(-0.000436429 0.0258254 -0.000630961)
(-0.000148364 0.0383259 0.00219826)
(-0.00115701 0.0715018 0.00500322)
(-0.00191302 0.0780796 0.007174)
(-0.0021322 0.0679443 0.00888972)
(-0.00171113 0.0415248 0.00759217)
(-0.0013553 0.010978 0.00127788)
(-0.00209564 -0.0121356 -0.00607078)
(-0.0035516 -0.0287541 -0.0104976)
(-0.00511912 -0.0438824 -0.0118271)
(-0.0064943 -0.0595574 -0.0110047)
(-0.00750875 -0.0753804 -0.00885803)
(-0.00811859 -0.0903708 -0.00616953)
(-0.00834548 -0.103679 -0.00365868)
(-0.00824201 -0.11465 -0.00176911)
(-0.00789541 -0.123041 -0.000552348)
(-0.00740236 -0.12907 0.000174046)
(-0.00683895 -0.133119 0.000611061)
(-0.00625549 -0.135484 0.000891111)
(-0.00568361 -0.136321 0.00108506)
(-0.0051437 -0.135665 0.00122597)
(-0.00464901 -0.133451 0.00132317)
(-0.00420816 -0.129521 0.0013694)
(-0.00382998 -0.123654 0.0013505)
(-0.00352979 -0.11566 0.00127299)
(-0.00333137 -0.105483 0.00122434)
(-0.00324339 -0.0931301 0.00143295)
(-0.00321282 -0.0782977 0.0022115)
(-0.00308672 -0.0601158 0.00363366)
(-0.00266097 -0.0377752 0.00500932)
(-0.00190319 -0.0124522 0.00502572)
(-0.00116396 0.0116964 0.00342222)
(-0.000691237 0.0299391 0.00167461)
(-0.00037724 0.0388935 0.000836943)
(-5.82148e-05 0.0374777 0.00048914)
(0.000129045 0.0204786 0.000237974)
(3.82583e-05 0.0403233 0.00275562)
(-0.000443841 0.0744987 0.0069988)
(-0.00104753 0.0774821 0.00813527)
(-0.00117349 0.0619992 0.0057034)
(-0.000961687 0.0350898 -0.00128464)
(-0.00094855 0.00978411 -0.00948469)
(-0.00113029 -0.00961796 -0.0150538)
(-0.00127841 -0.0251425 -0.0175875)
(-0.00142015 -0.0391596 -0.0178265)
(-0.00165509 -0.0533129 -0.0161456)
(-0.00199196 -0.068569 -0.0128047)
(-0.00229435 -0.0848029 -0.0085417)
(-0.00242122 -0.100583 -0.00455561)
(-0.00234136 -0.114076 -0.00171627)
(-0.00209831 -0.12429 -9.21464e-05)
(-0.00175599 -0.131374 0.000713996)
(-0.00137192 -0.135958 0.00109696)
(-0.000987941 -0.138573 0.00129678)
(-0.000630616 -0.139515 0.00143827)
(-0.000313509 -0.138906 0.00158518)
(-3.98937e-05 -0.136751 0.00176413)
(0.000194278 -0.132945 0.00196702)
(0.000395466 -0.127262 0.00214114)
(0.000567892 -0.119398 0.00218088)
(0.000694213 -0.109167 0.00196821)
(0.000729073 -0.096765 0.00152505)
(0.000654013 -0.0825926 0.00120716)
(0.000536143 -0.0665907 0.00169327)
(0.000556614 -0.0476843 0.00352524)
(0.000908436 -0.0247001 0.00618804)
(0.00154143 0.000808224 0.00781944)
(0.00198556 0.0232718 0.00721194)
(0.00183699 0.0365672 0.00541918)
(0.00122267 0.0380266 0.00375694)
(0.000329831 0.0227914 0.00190825)
(0.000362529 0.0370038 0.00142063)
(0.00129404 0.0699806 0.00471374)
(0.00195514 0.0724354 0.00432581)
(0.0025233 0.0571374 -0.000558523)
(0.00282124 0.0328218 -0.0091493)
(0.00276299 0.0108881 -0.0170417)
(0.00258021 -0.00596707 -0.0219393)
(0.00246673 -0.0193709 -0.0238487)
(0.00248774 -0.0317191 -0.0231502)
(0.0026859 -0.0451146 -0.0198701)
(0.00316756 -0.0608648 -0.0142892)
(0.00393834 -0.0785629 -0.00782891)
(0.00478762 -0.0960666 -0.00244729)
(0.00547775 -0.111018 0.000849607)
(0.00593583 -0.122222 0.00230875)
(0.00621378 -0.129808 0.00267112)
(0.00638004 -0.134543 0.00252816)
(0.00647708 -0.13712 0.00219695)
(0.00652651 -0.137943 0.00182987)
(0.00654164 -0.137208 0.00150531)
(0.00653143 -0.134971 0.00126527)
(0.00649855 -0.131169 0.0011258)
(0.00643598 -0.125588 0.00107219)
(0.00632289 -0.117865 0.00103857)
(0.00612332 -0.107608 0.000882506)
(0.00578947 -0.0947632 0.000425058)
(0.00527645 -0.0798941 -0.000337197)
(0.00458565 -0.0638789 -0.000953719)
(0.00380641 -0.046904 -0.000540673)
(0.00310711 -0.0277753 0.00173204)
(0.00267785 -0.00519579 0.0055546)
(0.0024465 0.0186375 0.00877711)
(0.00198671 0.0367769 0.00943664)
(0.00115313 0.0420638 0.00766187)
(0.000263757 0.0265825 0.00358681)
(0.000128593 0.0301334 -0.00051276)
(0.00128737 0.0590176 -0.000702081)
(0.00232306 0.0629576 -0.00258411)
(0.0030941 0.0543831 -0.00702717)
(0.00348766 0.0377644 -0.0137276)
(0.00339319 0.0205349 -0.0192396)
(0.0032174 0.0053194 -0.02175)
(0.00322648 -0.00862855 -0.0208842)
(0.00365428 -0.0235826 -0.0165966)
(0.00474561 -0.0416151 -0.00943898)
(0.00641115 -0.0626458 -0.0015627)
(0.00814691 -0.0838876 0.00427978)
(0.00943628 -0.102096 0.00696599)
(0.0100918 -0.115795 0.00724408)
(0.0102286 -0.125276 0.00639894)
(0.0100613 -0.131514 0.00530762)
(0.00975852 -0.135383 0.00433709)
(0.00941741 -0.137436 0.00358108)
(0.00908823 -0.137964 0.00303669)
(0.00879498 -0.13708 0.00267227)
(0.00854501 -0.134766 0.00244687)
(0.00832959 -0.130865 0.00231056)
(0.00812299 -0.125053 0.00219054)
(0.00788327 -0.116862 0.00196159)
(0.00755286 -0.105877 0.00142043)
(0.00706648 -0.0921378 0.000340211)
(0.0063651 -0.0763356 -0.00130668)
(0.00542994 -0.0595295 -0.00308321)
(0.00430596 -0.0423543 -0.00412942)
(0.00308223 -0.0243598 -0.00349308)
(0.00191042 -0.00433678 -0.000619013)
(0.00101609 0.0173624 0.00360977)
(0.000449708 0.0355257 0.00656349)
(9.11143e-05 0.0416302 0.00640762)
(-1.51966e-06 0.027231 0.00306475)
(-0.000220013 0.0273523 -0.000596517)
(-7.83513e-05 0.051376 -0.0029658)
(0.000379973 0.0547308 -0.00546494)
(0.000823372 0.048971 -0.00854682)
(0.000993836 0.0363541 -0.0118959)
(0.000754153 0.0214432 -0.0130939)
(0.000569622 0.00570346 -0.010673)
(0.000916685 -0.0127236 -0.00445016)
(0.00199185 -0.0356275 0.00367629)
(0.00343174 -0.0612252 0.00997216)
(0.00454584 -0.0848008 0.0118553)
(0.00491067 -0.102627 0.00988033)
(0.00464899 -0.114332 0.0065076)
(0.00411623 -0.121821 0.0036191)
(0.00355077 -0.126945 0.00172308)
(0.00305704 -0.130651 0.000646537)
(0.00267371 -0.133241 0.000107548)
(0.00240243 -0.134743 -0.000107899)
(0.00222651 -0.135094 -0.000129653)
(0.00212486 -0.134189 -2.41245e-05)
(0.0020795 -0.131863 0.000181575)
(0.00207683 -0.127842 0.000477318)
(0.00210654 -0.121665 0.000841579)
(0.00216187 -0.112685 0.00118286)
(0.00223319 -0.100331 0.00124517)
(0.00228572 -0.0846368 0.000599378)
(0.00223021 -0.0666529 -0.00104825)
(0.00195885 -0.0481417 -0.0033354)
(0.00143943 -0.0303504 -0.00523247)
(0.000725868 -0.0131735 -0.00569939)
(-7.93412e-05 0.00419336 -0.00422543)
(-0.000707763 0.0213444 -0.00126306)
(-0.000866938 0.0345086 0.00144181)
(-0.000659307 0.0380594 0.00232232)
(-0.000177697 0.024313 0.00119824)
(-0.000206202 0.0286524 -0.000185368)
(-0.000883738 0.0503291 -0.00305242)
(-0.00134159 0.0531238 -0.0053457)
(-0.00179668 0.0491261 -0.00682428)
(-0.00231862 0.0398711 -0.00670769)
(-0.00263131 0.0255702 -0.00331095)
(-0.00230509 0.00487189 0.00295854)
(-0.00123324 -0.0214846 0.00842172)
(5.65198e-06 -0.0480404 0.00942868)
(0.000706761 -0.0691848 0.00633184)
(0.000768972 -0.0839081 0.00243354)
(0.000518081 -0.0948749 0.000101214)
(0.000237194 -0.104541 -0.000504968)
(5.84728e-05 -0.113601 -0.00014965)
(-7.39903e-06 -0.121562 0.000446823)
(-2.23314e-06 -0.127836 0.000910224)
(3.61232e-05 -0.132246 0.00116251)
(8.22128e-05 -0.134903 0.00125831)
(0.000125889 -0.135967 0.00127562)
(0.00016235 -0.13552 0.0012805)
(0.00018843 -0.133531 0.0013252)
(0.000203422 -0.129832 0.00145348)
(0.00021365 -0.124077 0.00170033)
(0.000238761 -0.115712 0.00206278)
(0.000315783 -0.104052 0.00240288)
(0.000482055 -0.0886385 0.00230978)
(0.00071098 -0.0698706 0.00117302)
(0.00087261 -0.0494709 -0.00120961)
(0.000830763 -0.0296245 -0.0040228)
(0.000588398 -0.0113807 -0.00592493)
(0.000267181 0.00539253 -0.0060806)
(-1.43936e-05 0.0203372 -0.00461897)
(-0.000138678 0.030781 -0.00262585)
(-0.00011538 0.0333447 -0.00112503)
(-3.00768e-06 0.0214056 -0.000221327)
(-0.000336699 0.0338441 0.00093234)
(-0.00204515 0.0589646 -0.000502975)
(-0.00364603 0.0623954 -0.00129754)
(-0.00502532 0.0572793 -0.000446347)
(-0.00610022 0.0432075 0.00268085)
(-0.00614913 0.0197861 0.00668613)
(-0.00537676 -0.00864579 0.00805809)
(-0.00461906 -0.0349114 0.00573483)
(-0.00436247 -0.0553411 0.00244688)
(-0.00442351 -0.0715954 0.00067867)
(-0.00449065 -0.0862326 0.000476129)
(-0.00440523 -0.0997895 0.000781477)
(-0.00417032 -0.11136 0.000827108)
(-0.00387003 -0.120252 0.000486031)
(-0.00357307 -0.126615 -3.20454e-05)
(-0.00330299 -0.131009 -0.000522683)
(-0.00305496 -0.133879 -0.00088737)
(-0.00281473 -0.135448 -0.00110269)
(-0.00257423 -0.135784 -0.00117711)
(-0.00233304 -0.134856 -0.00112382)
(-0.00209552 -0.132561 -0.000946046)
(-0.00186675 -0.128704 -0.000628238)
(-0.0016475 -0.122972 -0.000131716)
(-0.001428 -0.114903 0.000593677)
(-0.00118208 -0.103893 0.0015455)
(-0.000867439 -0.0893002 0.00250665)
(-0.000453188 -0.0708724 0.00285922)
(1.44734e-05 -0.0495994 0.00179773)
(0.000365392 -0.0279438 -0.000745941)
(0.000465466 -0.00826405 -0.00359563)
(0.000376256 0.00857144 -0.00533803)
(0.000233409 0.0222044 -0.00544173)
(0.000133338 0.0309402 -0.00439428)
(6.95344e-05 0.0328226 -0.00286879)
(-9.85931e-07 0.0211199 -0.000935915)
(-0.000107454 0.0390829 0.00175628)
(-0.00146531 0.0679531 0.00238122)
(-0.00300756 0.0703076 0.00281929)
(-0.00441589 0.0603755 0.00419066)
(-0.00551487 0.0388463 0.0060433)
(-0.00595469 0.0108185 0.00586877)
(-0.00641049 -0.016408 0.00306418)
(-0.00714812 -0.0389916 8.28501e-05)
(-0.00791934 -0.057922 -0.00157304)
(-0.00850829 -0.0746091 -0.00232358)
(-0.00886751 -0.0891767 -0.00278399)
(-0.00903064 -0.101457 -0.00308707)
(-0.00903068 -0.111626 -0.00316448)
(-0.00888116 -0.119979 -0.00302386)
(-0.00859728 -0.126672 -0.00275792)
(-0.00820494 -0.131779 -0.00245949)
(-0.00773648 -0.135374 -0.00218062)
(-0.00722108 -0.137535 -0.00193913)
(-0.00668015 -0.138305 -0.00173404)
(-0.00612805 -0.137672 -0.00155441)
(-0.00557338 -0.135551 -0.00138153)
(-0.00501908 -0.131771 -0.001186)
(-0.0044614 -0.126068 -0.000920373)
(-0.00388804 -0.118091 -0.000512092)
(-0.00327442 -0.10741 0.000126394)
(-0.00258145 -0.093517 0.00102753)
(-0.00176662 -0.0758787 0.0019781)
(-0.000839915 -0.0545613 0.00230906)
(5.49421e-05 -0.0312388 0.00122324)
(0.000675521 -0.00895557 -0.00114161)
(0.000904288 0.0098696 -0.00348772)
(0.000824516 0.024169 -0.00462628)
(0.000606387 0.0326721 -0.00437188)
(0.000338215 0.0342288 -0.00313476)
(4.20165e-05 0.0218177 -0.00102128)
(0.000159092 0.0409523 0.00163381)
(-0.000362034 0.0744575 0.00338279)
(-0.00136666 0.0785533 0.00431495)
(-0.0025131 0.0686848 0.00504283)
(-0.00367394 0.0466273 0.00477197)
(-0.00457196 0.0197166 0.00228906)
(-0.0054582 -0.0055916 -0.00107747)
(-0.00620675 -0.0274022 -0.00343594)
(-0.00669662 -0.0465897 -0.0044315)
(-0.00693677 -0.064217 -0.00443244)
(-0.00695356 -0.080735 -0.00386077)
(-0.00676627 -0.0958896 -0.00312088)
(-0.00640827 -0.109016 -0.00251764)
(-0.00593454 -0.119595 -0.00216146)
(-0.00540352 -0.127577 -0.00200804)
(-0.00485618 -0.133299 -0.00196704)
(-0.00431471 -0.137159 -0.00196842)
(-0.00379125 -0.139442 -0.00197162)
(-0.00329362 -0.140297 -0.00195455)
(-0.00282691 -0.139772 -0.00190362)
(-0.00239382 -0.13783 -0.00180684)
(-0.00199447 -0.134351 -0.00164818)
(-0.00162603 -0.129126 -0.00140174)
(-0.00128076 -0.121859 -0.00102515)
(-0.000942588 -0.112164 -0.000454429)
(-0.000580171 -0.0995541 0.000383936)
(-0.000143387 -0.0833719 0.00149134)
(0.000416493 -0.0630166 0.00257541)
(0.00107823 -0.0389184 0.00285503)
(0.00165429 -0.0136376 0.00161274)
(0.00188405 0.00903732 -0.000662103)
(0.00167436 0.0263112 -0.00253578)
(0.00121071 0.0362326 -0.00307313)
(0.00065784 0.0378721 -0.00238461)
(9.99646e-05 0.0237987 -0.000709992)
(0.000235066 0.039337 0.00122495)
(0.000570292 0.0753265 0.00332923)
(0.000397141 0.0808214 0.00423815)
(-0.000175588 0.0711997 0.00427391)
(-0.0011133 0.0479282 0.00280046)
(-0.00214756 0.0197952 -0.000116468)
(-0.00316275 -0.00691503 -0.00293558)
(-0.0040201 -0.030513 -0.00453132)
(-0.00464157 -0.0515237 -0.00490669)
(-0.00501279 -0.0705716 -0.00456888)
(-0.00515758 -0.0876433 -0.00404335)
(-0.00511804 -0.102344 -0.00363872)
(-0.00493462 -0.114411 -0.0034098)
(-0.00463604 -0.123896 -0.00328856)
(-0.0042464 -0.131058 -0.00321208)
(-0.00379077 -0.136224 -0.00315208)
(-0.00329418 -0.139681 -0.00309902)
(-0.00277828 -0.141624 -0.00304978)
(-0.0022595 -0.142158 -0.00300309)
(-0.00174959 -0.141303 -0.00295655)
(-0.00125736 -0.139005 -0.0029038)
(-0.000790706 -0.135136 -0.00283134)
(-0.000358959 -0.129492 -0.00271332)
(3.11213e-05 -0.12183 -0.00250338)