/*--------------------------------*- C++ -*----------------------------------*\
| =========                 |                                                 |
| \\      /  F ield         | OpenFOAM: The Open Source CFD Toolbox           |
|  \\    /   O peration     | Version:  v2012                                 |
|   \\  /    A nd           | Website:  www.openfoam.com                      |
|    \\/     M anipulation  |                                                 |
\*---------------------------------------------------------------------------*/
FoamFile
{
    version     2.0;
    format      ascii;
    class       volVectorField;
    location    "18";
    object      U;
}
// * * * * * * * * * * * * * * * * * * * * * * * * * * * * * * * * * * * * * //

dimensions      [0 1 -1 0 0 0 0];


internalField   nonuniform List<vector> 
78750
(
(-6.94927e-06 -8.84304e-05 2.06347e-05)
(-2.83058e-05 -7.63272e-05 4.85055e-05)
(-7.34589e-05 -3.93253e-05 7.75292e-05)
(-0.000135168 7.01349e-06 0.000114481)
(-0.000207148 5.3714e-05 0.000158334)
(-0.000285476 9.76794e-05 0.000207009)
(-0.000366763 0.000137765 0.00025713)
(-0.000448377 0.000173597 0.000305534)
(-0.000528711 0.000205127 0.000348644)
(-0.000606692 0.000232684 0.000383054)
(-0.000681312 0.000255605 0.000405401)
(-0.000750908 0.000272737 0.000413191)
(-0.000813919 0.00028294 0.000404837)
(-0.000868877 0.000285903 0.00038058)
(-0.000914811 0.000281778 0.00034102)
(-0.00095095 0.000271145 0.000287911)
(-0.000976053 0.000255148 0.000224733)
(-0.000990617 0.000233882 0.000150811)
(-0.000993861 0.00020873 7.04301e-05)
(-0.000985921 0.000180653 -1.35376e-05)
(-0.00096711 0.000150541 -9.85705e-05)
(-0.000937781 0.000119258 -0.000182068)
(-0.000898499 8.75931e-05 -0.000261711)
(-0.000849866 5.62437e-05 -0.000335265)
(-0.000792721 2.58167e-05 -0.000400549)
(-0.000727884 -3.13645e-06 -0.000455695)
(-0.000656248 -3.00636e-05 -0.000498876)
(-0.000578802 -5.44497e-05 -0.000528311)
(-0.000496694 -7.56267e-05 -0.000542205)
(-0.000411158 -9.2768e-05 -0.000538799)
(-0.000323245 -0.000104707 -0.000516271)
(-0.000233746 -0.000109817 -0.000472851)
(-0.000145411 -0.000105759 -0.000406842)
(-7.45779e-05 -8.95635e-05 -0.000317198)
(-2.42133e-05 -4.91057e-05 -0.000159047)
(-3.14847e-05 0.000475835 -0.000385429)
(-9.4843e-05 0.000898383 -0.000486088)
(-0.00017701 0.00111507 -0.000504053)
(-0.000287355 0.00126612 -0.000527706)
(-0.000399679 0.00135325 -0.000553995)
(-0.000506349 0.0013826 -0.000577031)
(-0.000604229 0.00137316 -0.000598233)
(-0.000690915 0.00134063 -0.000621757)
(-0.000764294 0.00129728 -0.000649322)
(-0.000823557 0.0012463 -0.000681524)
(-0.000869613 0.00118448 -0.000713655)
(-0.000899205 0.00110576 -0.000735433)
(-0.00091719 0.00101803 -0.000746854)
(-0.000923998 0.000925931 -0.000750339)
(-0.000920242 0.000831708 -0.000748133)
(-0.000907163 0.000737276 -0.000742846)
(-0.000885734 0.000644596 -0.000735704)
(-0.00085717 0.000554803 -0.00072779)
(-0.000822476 0.000468994 -0.000719471)
(-0.00078271 0.000387812 -0.000711189)
(-0.000738807 0.000311782 -0.000703167)
(-0.000691646 0.000241216 -0.000695649)
(-0.000641956 0.000176221 -0.000688743)
(-0.000590412 0.00011686 -0.000682339)
(-0.000537483 6.2999e-05 -0.000676203)
(-0.000483612 1.4584e-05 -0.000669662)
(-0.000429196 -2.87009e-05 -0.000661948)
(-0.000374573 -6.6909e-05 -0.00065178)
(-0.000320025 -0.000100282 -0.000637593)
(-0.000265871 -0.000128644 -0.000616966)
(-0.00021216 -0.000151827 -0.000586949)
(-0.00015823 -0.000168764 -0.000541564)
(-0.000104423 -0.000177076 -0.000465994)
(-6.23626e-05 -0.000169926 -0.000340733)
(-3.11735e-05 -0.000100519 -9.0905e-05)
(-4.69053e-05 0.00089182 0.000164225)
(-0.000111533 0.00153689 0.000265751)
(-0.00018861 0.0018093 0.000317276)
(-0.000285917 0.00197472 0.000341967)
(-0.000376551 0.00205066 0.000336744)
(-0.000456275 0.00205552 0.000306171)
(-0.000526234 0.00200781 0.000249497)
(-0.000584978 0.00192621 0.000169736)
(-0.000631198 0.00182388 6.74371e-05)
(-0.000663748 0.00171049 -5.21415e-05)
(-0.000682422 0.00159077 -0.000182381)
(-0.000688548 0.00146836 -0.0003106)
(-0.000683865 0.00134456 -0.000422859)
(-0.000670364 0.00122024 -0.000507351)
(-0.00064926 0.00109795 -0.000559612)
(-0.000623437 0.000980074 -0.000588287)
(-0.00059345 0.000867551 -0.000601751)
(-0.000560381 0.000761531 -0.000605275)
(-0.000525281 0.000663266 -0.000602089)
(-0.000488875 0.000573079 -0.000594228)
(-0.000451759 0.000490953 -0.00058342)
(-0.000414494 0.0004167 -0.000570618)
(-0.000377508 0.000350028 -0.000556653)
(-0.000341116 0.00029043 -0.000541926)
(-0.000305608 0.000237447 -0.000526755)
(-0.000271144 0.000190432 -0.000511177)
(-0.00023785 0.000149001 -0.000495007)
(-0.000205775 0.000112603 -0.000477784)
(-0.000174983 8.10554e-05 -0.000458635)
(-0.000145428 5.40933e-05 -0.000436198)
(-0.000116961 3.19772e-05 -0.000408132)
(-8.90453e-05 1.5029e-05 -0.000370185)
(-6.12982e-05 4.2299e-06 -0.000314528)
(-3.8199e-05 1.15647e-06 -0.000232504)
(-2.17652e-05 1.56208e-05 -5.54949e-05)
(-4.91872e-05 0.00112373 0.0005414)
(-9.49443e-05 0.00187261 0.000780294)
(-0.000135979 0.00214661 0.000852813)
(-0.000187515 0.00226683 0.000900813)
(-0.000235492 0.00228797 0.000934866)
(-0.000280956 0.00224714 0.000943246)
(-0.00032455 0.00217073 0.000921354)
(-0.000364711 0.00207113 0.000865222)
(-0.000398918 0.00195848 0.00077765)
(-0.000425057 0.00183623 0.00066084)
(-0.000441876 0.00170847 0.000521535)
(-0.000449015 0.00157625 0.000366966)
(-0.000447476 0.00144211 0.000208548)
(-0.000437222 0.00130776 6.17048e-05)
(-0.000421176 0.00117694 -6.1266e-05)
(-0.000399827 0.00105304 -0.000151744)
(-0.000376338 0.000938369 -0.00021732)
(-0.000350652 0.000833523 -0.000265045)
(-0.000323877 0.000738977 -0.000299406)
(-0.00029658 0.000653991 -0.000324044)
(-0.000269636 0.000578746 -0.000340838)
(-0.000243439 0.000512629 -0.000351559)
(-0.000218358 0.000454903 -0.000357309)
(-0.000194696 0.000404797 -0.000359076)
(-0.000172642 0.000361386 -0.000357466)
(-0.00015233 0.000323833 -0.000353088)
(-0.000133754 0.000291163 -0.000346286)
(-0.000116849 0.000262581 -0.000337433)
(-0.000101468 0.000237021 -0.000326884)
(-8.73654e-05 0.000213791 -0.000314632)
(-7.40588e-05 0.000192084 -0.000300526)
(-6.06211e-05 0.000171344 -0.000285774)
(-4.56102e-05 0.000150844 -0.000273056)
(-3.133e-05 0.000130287 -0.000255555)
(-1.93189e-05 9.79978e-05 -0.000153194)
(-2.86916e-05 0.00081857 0.000551419)
(-3.92379e-05 0.00127837 0.000773502)
(-3.88482e-05 0.00148309 0.000829179)
(-3.49558e-05 0.00162304 0.000871285)
(-3.145e-05 0.00170795 0.000906537)
(-3.11399e-05 0.00174778 0.000927145)
(-3.46522e-05 0.00175116 0.000932221)
(-4.07215e-05 0.00172535 0.000920197)
(-4.76995e-05 0.00167535 0.000890197)
(-5.40432e-05 0.00160603 0.000840657)
(-5.85362e-05 0.001521 0.000772971)
(-6.03117e-05 0.00142432 0.000690014)
(-5.91537e-05 0.00131979 0.000597388)
(-5.59119e-05 0.00121218 0.000500547)
(-5.10723e-05 0.00110576 0.000406787)
(-4.52429e-05 0.00100481 0.000322143)
(-3.90055e-05 0.000912255 0.000250214)
(-3.29393e-05 0.000829775 0.000191278)
(-2.73287e-05 0.000757768 0.000144297)
(-2.23599e-05 0.000695971 0.00010757)
(-1.82978e-05 0.000643702 7.9466e-05)
(-1.52027e-05 0.00060005 5.85485e-05)
(-1.32031e-05 0.000564053 4.3617e-05)
(-1.22886e-05 0.000534585 3.36556e-05)
(-1.24397e-05 0.000510387 2.75964e-05)
(-1.3562e-05 0.000490143 2.45387e-05)
(-1.55235e-05 0.000472471 2.33951e-05)
(-1.81492e-05 0.000455948 2.31261e-05)
(-2.10937e-05 0.000439267 2.27347e-05)
(-2.40364e-05 0.000420926 2.12225e-05)
(-2.6521e-05 0.000399101 1.72833e-05)
(-2.78143e-05 0.000371668 6.93486e-06)
(-2.60749e-05 0.000335827 -2.0156e-05)
(-2.10248e-05 0.000289464 -6.00724e-05)
(-1.39003e-05 0.000192694 -5.49422e-05)
(-1.17993e-05 0.000591427 0.000466334)
(-9.51358e-06 0.000880294 0.000622361)
(-1.39254e-06 0.00102145 0.00065485)
(1.4739e-05 0.00112715 0.000678804)
(3.50771e-05 0.00119961 0.000698618)
(5.71719e-05 0.00124316 0.00070968)
(7.95495e-05 0.00126336 0.000711373)
(0.000101207 0.00126383 0.000704842)
(0.000121534 0.00124861 0.000690389)
(0.000139915 0.00122054 0.000668589)
(0.000155876 0.00118266 0.000640004)
(0.00016899 0.00113704 0.000605778)
(0.000179051 0.00108607 0.000567137)
(0.000185749 0.00103186 0.000525826)
(0.000189061 0.000976953 0.000483738)
(0.000188992 0.000923558 0.000442857)
(0.000185669 0.000873702 0.000404823)
(0.000179634 0.00082844 0.000371275)
(0.000171187 0.000788432 0.000342714)
(0.000160711 0.000753728 0.000318849)
(0.000148617 0.000724136 0.000299459)
(0.000135224 0.000699061 0.000284059)
(0.000120899 0.000677863 0.000272181)
(0.00010596 0.000659632 0.000263105)
(9.07067e-05 0.000643502 0.000256226)
(7.54062e-05 0.000628385 0.000250683)
(6.03208e-05 0.000613225 0.000245686)
(4.57226e-05 0.000596722 0.000240098)
(3.18817e-05 0.000577525 0.000232681)
(1.91224e-05 0.000553917 0.000221962)
(7.79408e-06 0.000524088 0.000206506)
(-1.65614e-06 0.000485714 0.000181884)
(-7.83957e-06 0.000436118 0.000137888)
(-9.3457e-06 0.000371539 7.65635e-05)
(-6.93947e-06 0.000231811 3.17967e-05)
(-3.18037e-06 0.000364606 0.000348667)
(2.40733e-06 0.00054039 0.000409206)
(1.03038e-05 0.000631196 0.000399732)
(2.4745e-05 0.000705717 0.000393331)
(4.21953e-05 0.000764724 0.000391405)
(6.10437e-05 0.000810912 0.000388296)
(8.02828e-05 0.000846769 0.000382956)
(9.91798e-05 0.000873869 0.000375708)
(0.000117029 0.000893212 0.000366441)
(0.000133327 0.000905699 0.000354808)
(0.000147653 0.000911846 0.000340608)
(0.00015971 0.00091258 0.000324027)
(0.000169274 0.000908782 0.00030544)
(0.000176168 0.000901833 0.000285766)
(0.000180258 0.000892801 0.000265926)
(0.000181583 0.000882864 0.000246952)
(0.000180252 0.000872594 0.000229507)
(0.000176437 0.00086261 0.000213876)
(0.000170516 0.000852952 0.00020066)
(0.000162613 0.000843794 0.000189974)
(0.000153035 0.000834823 0.000181604)
(0.000142077 0.000825933 0.000175436)
(0.00012996 0.00081662 0.000171008)
(0.000116928 0.000806642 0.000168064)
(0.000103197 0.000795355 0.000166006)
(8.89803e-05 0.000782345 0.000164462)
(7.44966e-05 0.000766739 0.000162678)
(5.99696e-05 0.000747793 0.000160054)
(4.56859e-05 0.000724173 0.000155496)
(3.19315e-05 0.000694473 0.000148217)
(1.90505e-05 0.00065649 0.000136893)
(7.4675e-06 0.000607776 0.000117779)
(-1.31815e-06 0.000544977 8.12621e-05)
(-5.22081e-06 0.000462076 2.94271e-05)
(-5.18887e-06 0.000274904 -1.61434e-06)
(-3.26705e-06 0.00028799 0.000252005)
(-2.69821e-06 0.000471709 0.000259562)
(-4.94005e-06 0.000558495 0.000231146)
(-5.76519e-06 0.000626951 0.000206396)
(-5.16302e-06 0.000681829 0.00018897)
(-3.41531e-06 0.000726067 0.000173384)
(-5.80726e-07 0.000762272 0.000157447)
(3.31281e-06 0.000791954 0.000140683)
(8.17787e-06 0.000816601 0.000123545)
(1.38524e-05 0.000836923 0.000106505)
(2.01422e-05 0.000853842 9.04421e-05)
(2.67339e-05 0.000867649 7.55939e-05)
(3.3325e-05 0.000879002 6.20734e-05)
(3.9606e-05 0.000888039 4.95011e-05)
(4.54146e-05 0.000895378 3.79512e-05)
(5.05697e-05 0.000901133 2.73889e-05)
(5.49785e-05 0.000905856 1.82217e-05)
(5.85609e-05 0.000909511 1.05693e-05)
(6.11819e-05 0.000912582 4.51161e-06)
(6.28327e-05 0.000914732 3.08896e-07)
(6.34416e-05 0.000916131 -1.86696e-06)
(6.2932e-05 0.000916318 -2.26924e-06)
(6.12783e-05 0.000915288 -9.17087e-07)
(5.84484e-05 0.000912367 1.71974e-06)
(5.44594e-05 0.000907347 5.45435e-06)
(4.93446e-05 0.000899295 9.65403e-06)
(4.32055e-05 0.00088768 1.39743e-05)
(3.61741e-05 0.000871102 1.75968e-05)
(2.84766e-05 0.000848397 2.00142e-05)
(2.03872e-05 0.000817284 2.02752e-05)
(1.2265e-05 0.000775353 1.74255e-05)
(4.64301e-06 0.000718667 8.25831e-06)
(-1.34454e-06 0.000642451 -1.2691e-05)
(-4.03583e-06 0.000539641 -4.3057e-05)
(-4.20444e-06 0.000309855 -5.21407e-05)
(-4.38045e-06 0.000245818 0.000149531)
(-6.74492e-06 0.000447527 0.000162356)
(-1.14118e-05 0.000540812 0.000152385)
(-1.66827e-05 0.000612964 0.000140836)
(-2.14355e-05 0.000669047 0.000129751)
(-2.54506e-05 0.00071328 0.000117548)
(-2.86136e-05 0.000748332 0.000103487)
(-3.07372e-05 0.000776635 8.80399e-05)
(-3.17401e-05 0.000799561 7.16204e-05)
(-3.15557e-05 0.000818637 5.50143e-05)
(-3.02328e-05 0.00083456 3.8705e-05)
(-2.78276e-05 0.000848383 2.34115e-05)
(-2.44983e-05 0.000860433 9.44902e-06)
(-2.03952e-05 0.000871487 -2.66077e-06)
(-1.57353e-05 0.000881614 -1.2819e-05)
(-1.07119e-05 0.000891369 -2.07092e-05)
(-5.54165e-06 0.000900591 -2.6398e-05)
(-3.86957e-07 0.000909642 -2.9707e-05)
(4.46158e-06 0.000918159 -3.09106e-05)
(8.94566e-06 0.000926367 -2.99462e-05)
(1.28629e-05 0.000933714 -2.7146e-05)
(1.60754e-05 0.000940241 -2.25711e-05)
(1.84753e-05 0.000945208 -1.66826e-05)
(1.99783e-05 0.000948473 -9.65532e-06)
(2.05376e-05 0.000949046 -2.06789e-06)
(2.014e-05 0.000946506 5.79469e-06)
(1.8824e-05 0.000939456 1.32428e-05)
(1.66659e-05 0.000926956 1.98753e-05)
(1.38093e-05 0.000906878 2.48956e-05)
(1.04383e-05 0.000877303 2.78265e-05)
(6.78452e-06 0.000834738 2.75822e-05)
(3.14493e-06 0.000775417 2.23371e-05)
(1.00164e-07 0.000693301 8.3452e-06)
(-1.36809e-06 0.000581101 -1.27131e-05)
(-1.7368e-06 0.000328253 -2.55745e-05)
(-5.50859e-06 0.000234083 0.000103814)
(-9.85585e-06 0.000442483 0.000135352)
(-1.5728e-05 0.000538006 0.000143801)
(-2.29306e-05 0.000610698 0.000145461)
(-2.95341e-05 0.000666531 0.00014245)
(-3.53701e-05 0.000709578 0.000135611)
(-4.03795e-05 0.000743257 0.000125834)
(-4.44413e-05 0.00076969 0.000113724)
(-4.74372e-05 0.000790913 0.000100153)
(-4.93056e-05 0.000808005 8.57194e-05)
(-5.00271e-05 0.000822317 7.12577e-05)
(-4.96244e-05 0.000834391 5.73007e-05)
(-4.81682e-05 0.000845182 4.457e-05)
(-4.57553e-05 0.000854896 3.33996e-05)
(-4.25124e-05 0.000864228 2.42724e-05)
(-3.85905e-05 0.000873125 1.72741e-05)
(-3.41556e-05 0.00088208 1.26763e-05)
(-2.93776e-05 0.000890819 1.03679e-05)
(-2.44222e-05 0.000899648 1.045e-05)
(-1.94873e-05 0.00090806 1.27251e-05)
(-1.47309e-05 0.00091619 1.71493e-05)
(-1.02949e-05 0.000923356 2.33022e-05)
(-6.32131e-06 0.000929501 3.09981e-05)
(-2.90495e-06 0.000933701 3.96713e-05)
(-1.28972e-07 0.000935648 4.89989e-05)
(1.97762e-06 0.00093409 5.82876e-05)
(3.40221e-06 0.000928321 6.7105e-05)
(4.1818e-06 0.000916553 7.46663e-05)
(4.37745e-06 0.000897373 8.04655e-05)
(4.09584e-06 0.000868029 8.36646e-05)
(3.42534e-06 0.000825793 8.35439e-05)
(2.4721e-06 0.000766136 7.84261e-05)
(1.37231e-06 0.000683868 6.58478e-05)
(6.43212e-07 0.000571143 4.57017e-05)
(3.56488e-07 0.000318412 1.72876e-05)
(-6.44942e-06 0.000225405 7.80366e-05)
(-1.18737e-05 0.000428127 0.000124632)
(-1.84424e-05 0.000520354 0.000144728)
(-2.65018e-05 0.000590098 0.000154976)
(-3.3837e-05 0.000642869 0.000157349)
(-4.03153e-05 0.000683068 0.000154265)
(-4.59033e-05 0.000713605 0.000147106)
(-5.05198e-05 0.000737067 0.000136951)
(-5.40106e-05 0.000755017 0.000124523)
(-5.63152e-05 0.000769103 0.000110663)
(-5.73698e-05 0.000780153 9.60933e-05)
(-5.7186e-05 0.000789298 8.17603e-05)
(-5.57771e-05 0.000796978 6.83794e-05)
(-5.3267e-05 0.000804026 5.66692e-05)
(-4.97705e-05 0.000810596 4.69951e-05)
(-4.54546e-05 0.000817282 3.97514e-05)
(-4.04773e-05 0.000823989 3.5028e-05)
(-3.50461e-05 0.000831099 3.3003e-05)
(-2.93373e-05 0.000838292 3.35872e-05)
(-2.35656e-05 0.000845744 3.67876e-05)
(-1.79034e-05 0.000852911 4.23362e-05)
(-1.25423e-05 0.000859762 5.00455e-05)
(-7.62331e-06 0.000865515 5.94181e-05)
(-3.28411e-06 0.000869909 7.00186e-05)
(3.9387e-07 0.000871888 8.11213e-05)
(3.34876e-06 0.000870894 9.21396e-05)
(5.57444e-06 0.000865498 0.000102286)
(7.08203e-06 0.000854675 0.000110979)
(7.91743e-06 0.000836364 0.000117418)
(8.14077e-06 0.000808681 0.000120963)
(7.79387e-06 0.00076841 0.000120592)
(6.86523e-06 0.000712038 0.000114903)
(5.3272e-06 0.000634209 0.000101304)
(3.77219e-06 0.00052832 7.88398e-05)
(2.46284e-06 0.000291473 3.6737e-05)
(-6.00002e-06 0.000218474 5.49161e-05)
(-1.13624e-05 0.000410188 0.000106571)
(-1.80014e-05 0.000497064 0.000131738)
(-2.61856e-05 0.000562071 0.000145866)
(-3.37047e-05 0.000610828 0.000150841)
(-4.03317e-05 0.000647096 0.00014952)
(-4.6052e-05 0.000674077 0.000143662)
(-5.07143e-05 0.000693845 0.000134245)
(-5.41857e-05 0.00070835 0.000122058)
(-5.63281e-05 0.000718767 0.000107712)
(-5.70943e-05 0.000726399 9.21184e-05)
(-5.64324e-05 0.000731943 7.63364e-05)
(-5.43981e-05 0.000736364 6.15828e-05)
(-5.10669e-05 0.000740072 4.86679e-05)
(-4.66226e-05 0.00074379 3.81716e-05)
(-4.12465e-05 0.000747666 3.03295e-05)
(-3.51699e-05 0.000752175 2.53854e-05)
(-2.85989e-05 0.000757211 2.34016e-05)
(-2.17928e-05 0.000763008 2.44549e-05)
(-1.49659e-05 0.000769211 2.84502e-05)
(-8.37485e-06 0.000775814 3.53004e-05)
(-2.22472e-06 0.00078221 4.47369e-05)
(3.2573e-06 0.000788141 5.64567e-05)
(7.92237e-06 0.000792736 6.97954e-05)
(1.16403e-05 0.000795475 8.38754e-05)
(1.43728e-05 0.000795209 9.75308e-05)
(1.61125e-05 0.000791108 0.000109814)
(1.68947e-05 0.000781621 0.000119955)
(1.67773e-05 0.000765368 0.000127415)
(1.58471e-05 0.00074005 0.000131486)
(1.41767e-05 0.000703267 0.000131275)
(1.17513e-05 0.000651302 0.00012517)
(8.60047e-06 0.00057985 0.000110505)
(5.70506e-06 0.000482492 8.58285e-05)
(3.40001e-06 0.000265343 3.7305e-05)
(-4.97808e-06 0.000214745 2.34122e-05)
(-1.01595e-05 0.000397849 6.90899e-05)
(-1.68892e-05 0.000480224 9.3678e-05)
(-2.53889e-05 0.000541227 0.000107676)
(-3.3413e-05 0.000585918 0.000112255)
(-4.06115e-05 0.000618209 0.000110403)
(-4.68416e-05 0.000640889 0.000103757)
(-5.18973e-05 0.000656362 9.32602e-05)
(-5.55474e-05 0.000666247 7.94061e-05)
(-5.76335e-05 0.000672148 6.28926e-05)
(-5.80388e-05 0.000675075 4.47401e-05)
(-5.67523e-05 0.000676216 2.63906e-05)
(-5.38113e-05 0.000676242 9.20883e-06)
(-4.93603e-05 0.000676069 -5.71127e-06)
(-4.35899e-05 0.000676115 -1.77661e-05)
(-3.67464e-05 0.000677036 -2.65979e-05)
(-2.90987e-05 0.00067897 -3.20755e-05)
(-2.09564e-05 0.000682284 -3.40904e-05)
(-1.26054e-05 0.000686821 -3.26484e-05)
(-4.36668e-06 0.000692649 -2.77222e-05)
(3.47163e-06 0.000699311 -1.94026e-05)
(1.06085e-05 0.000706576 -7.81931e-06)
(1.67995e-05 0.000713695 6.64004e-06)
(2.18194e-05 0.000720156 2.33218e-05)
(2.55267e-05 0.000724941 4.10967e-05)
(2.78303e-05 0.000727257 5.85811e-05)
(2.87349e-05 0.000725792 7.43431e-05)
(2.83007e-05 0.000719389 8.73905e-05)
(2.66562e-05 0.000706265 9.71162e-05)
(2.39566e-05 0.00068459 0.000103062)
(2.03644e-05 0.0006517 0.000104415)
(1.59584e-05 0.00060449 9.96709e-05)
(1.09395e-05 0.000538647 8.61106e-05)
(6.72105e-06 0.000448613 6.26598e-05)
(3.51596e-06 0.000247036 1.8446e-05)
(-3.61763e-06 0.000224085 -1.12322e-05)
(-8.6398e-06 0.000408098 2.10563e-05)
(-1.55291e-05 0.000490229 4.11869e-05)
(-2.45534e-05 0.000549841 5.1935e-05)
(-3.33769e-05 0.00059224 5.36299e-05)
(-4.14421e-05 0.000621142 4.90001e-05)
(-4.84988e-05 0.000639742 3.9528e-05)
(-5.42194e-05 0.000650308 2.57621e-05)
(-5.83011e-05 0.000654939 8.15234e-06)
(-6.05103e-05 0.000655128 -1.2589e-05)
(-6.07255e-05 0.000652403 -3.50565e-05)
(-5.89129e-05 0.000647825 -5.74886e-05)
(-5.51566e-05 0.000642593 -7.81896e-05)
(-4.96191e-05 0.000637465 -9.59838e-05)
(-4.25613e-05 0.000633346 -0.000110163)
(-3.42867e-05 0.000630689 -0.000120438)
(-2.51259e-05 0.000630066 -0.00012669)
(-1.54374e-05 0.000631577 -0.000128898)
(-5.59234e-06 0.000635431 -0.000127022)
(4.04652e-06 0.00064136 -0.000121066)
(1.31111e-05 0.0006492 -0.000111014)
(2.1254e-05 0.00065832 -9.69746e-05)
(2.81546e-05 0.000668199 -7.9235e-05)
(3.35466e-05 0.000677874 -5.85201e-05)
(3.72275e-05 0.000686502 -3.60546e-05)
(3.90966e-05 0.000692817 -1.35509e-05)
(3.91579e-05 0.000695651 7.19685e-06)
(3.75016e-05 0.000693385 2.47629e-05)
(3.43225e-05 0.000684397 3.84142e-05)
(2.9873e-05 0.000666461 4.77749e-05)
(2.44383e-05 0.000637124 5.23496e-05)
(1.82257e-05 0.000592999 5.08561e-05)
(1.16627e-05 0.00053007 4.09193e-05)
(6.51077e-06 0.000442704 2.22028e-05)
(2.79923e-06 0.000245918 -9.453e-06)
(-2.41495e-06 0.000248683 -4.07512e-05)
(-7.36019e-06 0.000444626 -2.43437e-05)
(-1.41889e-05 0.000531152 -1.07953e-05)
(-2.34676e-05 0.000592665 -4.77509e-06)
(-3.27874e-05 0.000634682 -6.92345e-06)
(-4.14651e-05 0.000661559 -1.50847e-05)
(-4.91203e-05 0.000676588 -2.82099e-05)
(-5.53401e-05 0.000682602 -4.60248e-05)
(-5.97407e-05 0.00068176 -6.82265e-05)
(-6.20578e-05 0.000676091 -9.387e-05)
(-6.21456e-05 0.000667159 -0.000121164)
(-5.99717e-05 0.000656554 -0.000147969)
(-5.56385e-05 0.000645471 -0.00017238)
(-4.93526e-05 0.000635154 -0.000193104)
(-4.1408e-05 0.000626443 -0.000209464)
(-3.21497e-05 0.000620206 -0.000221214)
(-2.1961e-05 0.000616885 -0.000228301)
(-1.12359e-05 0.000616912 -0.000230744)
(-3.88309e-07 0.000620278 -0.000228537)
(1.01692e-05 0.000626954 -0.00022165)
(2.00305e-05 0.000636473 -0.000210039)
(2.8806e-05 0.000648351 -0.000193727)
(3.61345e-05 0.000661689 -0.000172943)
(4.17072e-05 0.00067559 -0.000148371)
(4.52913e-05 0.000688772 -0.000121319)
(4.67684e-05 0.000699974 -9.37303e-05)
(4.61425e-05 0.000707555 -6.77687e-05)
(4.35352e-05 0.000709867 -4.52665e-05)
(3.9182e-05 0.000704819 -2.72182e-05)
(3.3423e-05 0.000690146 -1.38896e-05)
(2.66414e-05 0.000662928 -5.47227e-06)
(1.91846e-05 0.000619729 -2.859e-06)
(1.16356e-05 0.000556071 -7.91836e-06)
(6.00763e-06 0.000466254 -2.01136e-05)
(1.95538e-06 0.000262196 -3.6327e-05)
(-1.54009e-06 0.000286573 -5.71291e-05)
(-6.38049e-06 0.000502545 -5.37524e-05)
(-1.28649e-05 0.000597344 -4.66378e-05)
(-2.19434e-05 0.000663598 -4.54015e-05)
(-3.1229e-05 0.000707553 -5.12806e-05)
(-3.99614e-05 0.000733959 -6.27522e-05)
(-4.77022e-05 0.00074673 -7.92109e-05)
(-5.39656e-05 0.000748974 -0.000100623)
(-5.83617e-05 0.000743405 -0.00012674)
(-6.05964e-05 0.000732249 -0.000156353)
(-6.05165e-05 0.000717588 -0.000187346)
(-5.80957e-05 0.000701152 -0.00021729)
(-5.3457e-05 0.00068459 -0.000244145)
(-4.68351e-05 0.000669217 -0.000266628)
(-3.85423e-05 0.000656261 -0.000284178)
(-2.89429e-05 0.00064658 -0.000296665)
(-1.84271e-05 0.000640915 -0.000304155)
(-7.40797e-06 0.000639608 -0.000306712)
(3.69679e-06 0.000642856 -0.000304369)
(1.44687e-05 0.000650445 -0.000297067)
(2.44903e-05 0.000662017 -0.000284717)
(3.33573e-05 0.000676812 -0.000267227)
(4.07037e-05 0.000693946 -0.00024471)
(4.61936e-05 0.000712171 -0.000217715)
(4.9582e-05 0.000730134 -0.000187532)
(5.07255e-05 0.000746158 -0.00015622)
(4.96339e-05 0.000758464 -0.000126249)
(4.64367e-05 0.000764936 -9.97769e-05)
(4.14069e-05 0.000763285 -7.80413e-05)
(3.49114e-05 0.000750756 -6.12987e-05)
(2.74079e-05 0.000724169 -4.95384e-05)
(1.93142e-05 0.000679551 -4.32409e-05)
(1.13226e-05 0.00061206 -4.37124e-05)
(5.57887e-06 0.000515366 -4.97948e-05)
(1.28908e-06 0.00029442 -5.30777e-05)
(-1.21146e-06 0.000331971 -6.10084e-05)
(-6.04948e-06 0.00057135 -6.48526e-05)
(-1.21577e-05 0.000676051 -6.18602e-05)
(-2.08831e-05 0.000748505 -6.37146e-05)
(-2.98511e-05 0.000795576 -7.18893e-05)
(-3.83203e-05 0.000822701 -8.53614e-05)
(-4.58051e-05 0.00083421 -0.000103823)
(-5.18279e-05 0.000833756 -0.000127408)
(-5.5986e-05 0.000824354 -0.000155812)
(-5.79989e-05 0.00080871 -0.000187647)
(-5.77033e-05 0.000789137 -0.000220516)
(-5.50979e-05 0.000767777 -0.00025183)
(-5.03132e-05 0.000746448 -0.000279508)
(-4.36005e-05 0.000726803 -0.000302393)
(-3.52795e-05 0.000710163 -0.000320058)
(-2.57132e-05 0.00069765 -0.000332532)
(-1.5287e-05 0.000690018 -0.000339959)
(-4.40349e-06 0.000687784 -0.00034249)
(6.53306e-06 0.000691071 -0.000340162)
(1.71153e-05 0.000699753 -0.00033292)
(2.69388e-05 0.000713307 -0.000320595)
(3.56128e-05 0.000730973 -0.000303024)
(4.2767e-05 0.000751619 -0.000280163)
(4.80729e-05 0.000773906 -0.000252425)
(5.12666e-05 0.000796167 -0.000220965)
(5.22064e-05 0.000816556 -0.000187875)
(5.08794e-05 0.00083291 -0.000155773)
(4.74383e-05 0.000842877 -0.000127091)
(4.21488e-05 0.000843727 -0.000103245)
(3.54005e-05 0.000832402 -8.45469e-05)
(2.76507e-05 0.000805218 -7.08341e-05)
(1.93767e-05 0.000757798 -6.23385e-05)
(1.128e-05 0.000684666 -5.99508e-05)
(5.59669e-06 0.000578905 -6.22547e-05)
(1.0719e-06 0.000336382 -5.83138e-05)
(-1.2949e-06 0.000380524 -5.55319e-05)
(-6.22163e-06 0.000643636 -6.04373e-05)
(-1.21696e-05 0.000758526 -5.86431e-05)
(-2.07165e-05 0.000837474 -6.15053e-05)
(-2.94907e-05 0.000888079 -7.04551e-05)
(-3.77468e-05 0.000916319 -8.46376e-05)
(-4.50122e-05 0.000927058 -0.000103883)
(-5.08138e-05 0.00092435 -0.000128389)
(-5.4753e-05 0.00091165 -0.000157755)
(-5.65531e-05 0.000891974 -0.000190417)
(-5.6063e-05 0.000868021 -0.000223827)
(-5.32816e-05 0.000842177 -0.00025529)
(-4.83631e-05 0.000816576 -0.000282799)
(-4.15649e-05 0.000793049 -0.000305297)
(-3.32119e-05 0.000773158 -0.000322519)
(-2.36633e-05 0.000758124 -0.000334577)
(-1.33016e-05 0.00074886 -0.000341722)
(-2.52114e-06 0.000745897 -0.000344136)
(8.29224e-06 0.00074943 -0.000341904)
(1.87438e-05 0.000759266 -0.000334931)
(2.84379e-05 0.000774878 -0.00032302)
(3.69934e-05 0.000795353 -0.000305911)
(4.40447e-05 0.000819465 -0.000283478)
(4.92608e-05 0.000845642 -0.000255981)
(5.23781e-05 0.000872044 -0.000224468)
(5.32353e-05 0.000896521 -0.000190953)
(5.18287e-05 0.000916664 -0.000158146)
(4.82993e-05 0.000929756 -0.00012862)
(4.29201e-05 0.000932754 -0.000103956)
(3.60725e-05 0.00092218 -8.45553e-05)
(2.82272e-05 0.000893953 -7.02043e-05)
(1.98495e-05 0.000843185 -6.1026e-05)
(1.16604e-05 0.000763866 -5.7794e-05)
(5.95965e-06 0.000648372 -5.91134e-05)
(1.20955e-06 0.000383042 -5.40251e-05)
(-1.69886e-06 0.000428286 -4.34591e-05)
(-6.80023e-06 0.000713723 -4.44065e-05)
(-1.28095e-05 0.00083817 -4.13397e-05)
(-2.1407e-05 0.000923213 -4.35087e-05)
(-3.01633e-05 0.000977075 -5.20357e-05)
(-3.83671e-05 0.00100629 -6.6015e-05)
(-4.55465e-05 0.00101616 -8.52367e-05)
(-5.12413e-05 0.00101116 -0.000109879)
(-5.50593e-05 0.00099511 -0.000139434)
(-5.67225e-05 0.000971396 -0.000172217)
(-5.60776e-05 0.000943024 -0.000205548)
(-5.31354e-05 0.000912705 -0.00023672)
(-4.80491e-05 0.000882823 -0.000263763)
(-4.10899e-05 0.000855466 -0.000285732)
(-3.25837e-05 0.000832368 -0.000302437)
(-2.2896e-05 0.000814919 -0.000314087)
(-1.24126e-05 0.000804115 -0.000320967)
(-1.52664e-06 0.000800555 -0.000323293)
(9.37486e-06 0.000804439 -0.000321127)
(1.99109e-05 0.000815574 -0.000314398)
(2.96829e-05 0.000833365 -0.000302883)
(3.83054e-05 0.000856817 -0.000286291)
(4.54114e-05 0.000884544 -0.000264408)
(5.06709e-05 0.000914802 -0.000237416)
(5.38114e-05 0.000945497 -0.00020626)
(5.46716e-05 0.000974231 -0.000172909)
(5.32389e-05 0.00099828 -0.000140078)
(4.96683e-05 0.00101462 -0.000110459)
(4.42272e-05 0.00101984 -8.57436e-05)
(3.73045e-05 0.00101012 -6.64378e-05)
(2.9356e-05 0.00098095 -5.23515e-05)
(2.08474e-05 0.000927016 -4.3659e-05)
(1.24783e-05 0.000841765 -4.12108e-05)
(6.62908e-06 0.000716953 -4.39012e-05)
(1.63738e-06 0.000429759 -4.26907e-05)
(-2.31396e-06 0.000472311 -2.68565e-05)
(-7.60942e-06 0.000777298 -2.04033e-05)
(-1.38148e-05 0.00091005 -1.44561e-05)
(-2.25701e-05 0.00100029 -1.47951e-05)
(-3.14152e-05 0.00105678 -2.2106e-05)
(-3.96577e-05 0.0010865 -3.52606e-05)
(-4.68636e-05 0.00109514 -5.39639e-05)
(-5.25782e-05 0.00108752 -7.83075e-05)
(-5.64062e-05 0.0010678 -0.000107713)
(-5.80515e-05 0.00103968 -0.000140384)
(-5.73439e-05 0.00100651 -0.000173574)
(-5.428e-05 0.000971327 -0.000204532)
(-4.90132e-05 0.000936805 -0.000231319)
(-4.18205e-05 0.000905301 -0.000253029)
(-3.30355e-05 0.00087876 -0.000269522)
(-2.30444e-05 0.000858724 -0.000281025)
(-1.22461e-05 0.000846305 -0.000287838)
(-1.03788e-06 0.00084216 -0.000290135)
(1.01797e-05 0.000846498 -0.000287975)
(2.10115e-05 0.000859118 -0.000281293)
(3.10562e-05 0.000879368 -0.000269909)
(3.99146e-05 0.000906143 -0.000253517)
(4.72009e-05 0.000937897 -0.000231889)
(5.25764e-05 0.000972684 -0.000205164)
(5.5765e-05 0.00100814 -0.000174244)
(5.6612e-05 0.00104157 -0.000141074)
(5.51198e-05 0.00106994 -0.000108406)
(5.14542e-05 0.00108988 -7.89921e-05)
(4.59123e-05 0.00109767 -5.4629e-05)
(3.8884e-05 0.00108916 -3.58902e-05)
(3.08213e-05 0.00105948 -2.26717e-05)
(2.21566e-05 0.00100297 -1.52407e-05)
(1.35656e-05 0.000912607 -1.46782e-05)
(7.48162e-06 0.000779632 -2.03058e-05)
(2.26735e-06 0.000473153 -2.64709e-05)
(-2.9906e-06 0.000510532 -8.37446e-06)
(-8.41191e-06 0.000831238 6.91423e-06)
(-1.48027e-05 0.000970608 1.64191e-05)
(-2.3671e-05 0.00106491 1.84646e-05)
(-3.25626e-05 0.00112332 1.28756e-05)
(-4.08526e-05 0.0011531 9.82105e-07)
(-4.81424e-05 0.00116022 -1.68353e-05)
(-5.39856e-05 0.0011497 -4.06468e-05)
(-5.79907e-05 0.00112595 -6.98882e-05)
(-5.98025e-05 0.00109296 -0.000102731)
(-5.92187e-05 0.00105438 -0.000136364)
(-5.61788e-05 0.00101361 -0.000167907)
(-5.07909e-05 0.000973743 -0.000195305)
(-4.33221e-05 0.000937483 -0.000217527)
(-3.41671e-05 0.000907035 -0.000234376)
(-2.37364e-05 0.000884139 -0.000246077)
(-1.24652e-05 0.000869964 -0.000252996)
(-7.70142e-07 0.0008652 -0.000255326)
(1.09326e-05 0.000870079 -0.000253122)
(2.22243e-05 0.000884376 -0.000246323)
(3.26923e-05 0.00090741 -0.000234731)
(4.1899e-05 0.000938016 -0.000217972)
(4.94307e-05 0.000974454 -0.000195815)
(5.48934e-05 0.00101452 -0.000168461)
(5.80173e-05 0.00105549 -0.000136948)
(5.86968e-05 0.00109427 -0.000103334)
(5.69932e-05 0.00112744 -7.05077e-05)
(5.31056e-05 0.00115135 -4.1283e-05)
(4.73902e-05 0.00116199 -1.74847e-05)
(4.02368e-05 0.00115496 3.34259e-07)
(3.20869e-05 0.00112522 1.22583e-05)
(2.3335e-05 0.0010668 1.79309e-05)
(1.45989e-05 0.00097244 1.6062e-05)
(8.30853e-06 0.000832947 6.82609e-06)
(2.94761e-06 0.000510943 -8.20031e-06)
(-3.47662e-06 0.000541624 8.43811e-06)
(-8.82378e-06 0.000873938 3.17725e-05)
(-1.52632e-05 0.00101817 4.45873e-05)
(-2.40684e-05 0.00111545 4.90746e-05)
(-3.28795e-05 0.00117521 4.54519e-05)
(-4.11165e-05 0.00120491 3.52173e-05)
(-4.84494e-05 0.0012106 1.87802e-05)
(-5.44872e-05 0.00119738 -4.07446e-06)
(-5.87827e-05 0.00116976 -3.30054e-05)
(-6.10519e-05 0.00113171 -6.659e-05)
(-6.10154e-05 0.00108713 -0.000102164)
(-5.83487e-05 0.00103985 -0.00013626)
(-5.3004e-05 0.000993576 -0.000165818)
(-4.52372e-05 0.000951702 -0.000189247)
(-3.56508e-05 0.000916778 -0.000206535)
(-2.46888e-05 0.000890662 -0.000218355)
(-1.28671e-05 0.00087457 -0.000225224)
(-5.99996e-07 0.000869156 -0.00022752)