/*--------------------------------*- C++ -*----------------------------------*\
| =========                 |                                                 |
| \\      /  F ield         | OpenFOAM: The Open Source CFD Toolbox           |
|  \\    /   O peration     | Version:  v2006                                 |
|   \\  /    A nd           | Website:  www.openfoam.com                      |
|    \\/     M anipulation  |                                                 |
\*---------------------------------------------------------------------------*/
FoamFile
{
    version     2.0;
    format      ascii;
    class       volScalarField;
    location    "41";
    object      omega;
}
// * * * * * * * * * * * * * * * * * * * * * * * * * * * * * * * * * * * * * //

dimensions      [0 0 -1 0 0 0 0];


internalField   nonuniform List<scalar> 
78750
(
354.133
13.6937
13.6956
13.6957
13.6935
13.6894
13.6843
13.6788
13.6736
13.6688
13.6646
13.6611
13.6581
13.6557
13.6537
13.6521
13.6508
13.6496
13.6484
13.6472
13.646
13.6446
13.6431
13.6413
13.6393
13.6371
13.6346
13.6318
13.6288
13.6258
13.6237
13.625
13.6351
13.6609
357.721
519.466
4.14537
4.20433
4.2447
4.26966
4.28395
4.29106
4.29376
4.29404
4.29318
4.29181
4.29022
4.2885
4.28662
4.28454
4.28221
4.27958
4.27663
4.27332
4.26964
4.26555
4.26103
4.25603
4.25049
4.24431
4.23737
4.22952
4.22048
4.20996
4.19771
4.18343
4.16773
4.15448
4.15112
525.425
519.47
4.12925
4.17235
4.20428
4.22583
4.23967
4.24885
4.25565
4.26146
4.26711
4.27288
4.27875
4.28451
4.2899
4.29468
4.2986
4.30147
4.30317
4.30361
4.30277
4.30066
4.29736
4.29297
4.28762
4.28139
4.27434
4.26638
4.25739
4.24705
4.23475
4.22021
4.20491
4.1933
4.19231
526.082
519.463
4.10082
4.12874
4.15058
4.1662
4.17683
4.18469
4.19236
4.20183
4.21399
4.22865
4.24503
4.26217
4.27909
4.29494
4.30906
4.321
4.33044
4.33724
4.34134
4.34276
4.34159
4.33796
4.3321
4.32432
4.31511
4.30502
4.29438
4.28315
4.27077
4.25654
4.24111
4.22878
4.22654
526.521
519.46
4.08291
4.10048
4.11596
4.12948
4.14194
4.15474
4.16931
4.18657
4.20668
4.2291
4.25284
4.27673
4.29963
4.3206
4.33891
4.35409
4.3659
4.37423
4.3791
4.38059
4.37884
4.374
4.36632
4.35621
4.34409
4.33074
4.31764
4.30587
4.2953
4.28473
4.27333
4.26383
4.26259
526.912
519.459
4.0797
4.09724
4.11579
4.13598
4.15841
4.18336
4.21067
4.23972
4.26956
4.29908
4.32719
4.35295
4.37563
4.39474
4.41002
4.4214
4.42896
4.43286
4.4333
4.43051
4.42469
4.41601
4.40469
4.39101
4.37515
4.35778
4.34103
4.32695
4.31622
4.30785
4.29997
4.29337
4.29312
527.199
519.461
4.09162
4.12117
4.15332
4.18821
4.22534
4.26356
4.30129
4.33738
4.37094
4.40116
4.42744
4.44943
4.46698
4.48009
4.48892
4.49369
4.49468
4.4922
4.48654
4.47795
4.46665
4.45286
4.43683
4.41859
4.39818
4.3769
4.35748
4.34228
4.3324
4.32705
4.3236
4.32088
4.32261
527.468
519.465
4.10918
4.15389
4.20082
4.24902
4.29668
4.34158
4.38264
4.4196
4.45202
4.47959
4.5022
4.5199
4.53287
4.54136
4.54566
4.54613
4.54308
4.53684
4.5277
4.51589
4.50161
4.48503
4.4663
4.44513
4.4215
4.39713
4.37533
4.35871
4.3487
4.34488
4.3444
4.34454
4.34749
527.702
519.469
4.1281
4.18786
4.24855
4.30812
4.36389
4.41352
4.45705
4.49505
4.52726
4.55363
4.57426
4.58938
4.59929
4.60437
4.605
4.60162
4.59463
4.5844
4.57128
4.55554
4.53744
4.51724
4.49467
4.46928
4.44169
4.41417
4.39048
4.37318
4.36384
4.36205
4.36449
4.36713
4.37116
527.922
519.474
4.14913
4.22486
4.29961
4.37033
4.43382
4.48799
4.5339
4.57277
4.6046
4.62959
4.64803
4.66034
4.66698
4.66847
4.66533
4.65809
4.64723
4.6332
4.6164
4.59714
4.57575
4.55211
4.52577
4.49663
4.46544
4.43486
4.40893
4.3902
4.38041
4.3794
4.38369
4.38815
4.39307
528.123
519.479
4.17066
4.26201
4.34999
4.43097
4.50163
4.56018
4.60836
4.64807
4.67972
4.70367
4.72036
4.73033
4.73416
4.73248
4.72589
4.71498
4.70031
4.6824
4.66171
4.63863
4.61313
4.58499
4.5541
4.52065
4.48576
4.45276
4.42564
4.40669
4.39744
4.39762
4.40351
4.4093
4.41485
528.317
519.484
4.19196
4.29886
4.40046
4.49255
4.57156
4.63586
4.68722
4.72826
4.76016
4.7834
4.79858
4.80637
4.80748
4.80263
4.79253
4.77786
4.75927
4.73734
4.7124
4.68463
4.65419
4.62115
4.5855
4.54756
4.50872
4.47283
4.44393
4.42418
4.41504
4.41608
4.42324
4.43013
4.4363
528.499
519.489
4.21547
4.33964
4.45636
4.56049
4.64812
4.71796
4.77187
4.81351
4.84495
4.86687
4.88002
4.88522
4.88327
4.87498
4.86116
4.84248
4.81943
4.79246
4.7621
4.7288
4.69289
4.65455
4.61394
4.57155
4.52925
4.4914
4.46167
4.44192
4.43342
4.43548
4.44379
4.45159
4.45833
528.675
519.495
4.24156
4.38384
4.51532
4.63028
4.72499
4.79897
4.85457
4.89624
4.92681
4.94733
4.95865
4.96165
4.95718
4.94607
4.92887
4.90599
4.87806
4.84577
4.80982
4.77085
4.72935
4.68568
4.64016
4.59353
4.54812
4.50879
4.47872
4.45945
4.45195
4.45525
4.4647
4.47329
4.48048
528.845
519.502
4.26716
4.42635
4.57118
4.69573
4.7966
4.87424
4.93197
4.97417
5.00428
5.02399
5.03422
5.03586
5.02971
5.01623
4.99582
4.96901
4.93647
4.899
4.8574
4.81248
4.76493
4.71534
4.66432
4.61304
4.56451
4.52411
4.49444
4.47648
4.47067
4.47558
4.48626
4.49558
4.50303
529.01
519.509
4.29263
4.46783
4.62495
4.75795
4.8639
4.94424
5.00334
5.04589
5.07568
5.0948
5.10428
5.10502
5.0975
5.08206
5.05906
5.02903
4.99263
4.95066
4.90399
4.85355
4.80019
4.74472
4.68803
4.63179
4.57981
4.53812
4.5089
4.49264
4.48906
4.49603
4.5081
4.5181
4.5256
529.171
519.516
4.317
4.50673
4.67467
4.8148
4.92477
5.00705
5.06708
5.11021
5.14016
5.15917
5.1685
5.16881
5.16045
5.14368
5.11883
5.08634
5.04681
5.00099
4.94978
4.89417
4.83517
4.77378
4.71128
4.64987
4.59431
4.55126
4.52256
4.50822
4.50722
4.51661
4.53028
4.54097
4.54835
529.327
519.524
4.34091
4.54405
4.72173
4.86807
4.98138
5.06522
5.12603
5.16967
5.20004
5.21933
5.22872
5.22879
5.21985
5.20212
5.17586
5.14143
5.09937
5.05034
4.99519
4.93491
4.87054
4.8033
4.7348
4.6679
4.6084
4.56375
4.53554
4.52327
4.52513
4.53717
4.55256
4.56389
4.57095
529.48
519.532
4.36363
4.57918
4.76601
4.91823
5.03473
5.12014
5.18186
5.22618
5.25707
5.27671
5.28622
5.28615
5.27677
5.25824
5.23081
5.19481
5.15068
5.09902
5.04057
4.97622
4.90699
4.83417
4.75966
4.68697
4.62309
4.57637
4.5483
4.538
4.54282
4.55774
4.57497
4.58694
4.59349
529.629
519.541
4.38718
4.61506
4.81065
4.96809
5.08708
5.17358
5.23593
5.2808
5.31216
5.33212
5.34174
5.34151
5.33165
5.31234
5.28378
5.2463
5.20033
5.14637
5.08509
5.01725
4.94377
4.86591
4.78574
4.70736
4.63891
4.58981
4.56154
4.55292
4.56055
4.5783
4.59735
4.60989
4.61572
529.774
519.55
4.4103
4.64971
4.85325
5.01525
5.13636
5.22387
5.28697
5.33257
5.3646
5.38511
5.39505
5.39488
5.38478
5.36491
5.33545
5.29672
5.24914
5.19314
5.12932
5.05835
4.98102
4.89851
4.813
4.72907
4.65601
4.60427
4.57546
4.56824
4.5785
4.59899
4.61979
4.63279
4.63769
529.917
519.56
4.4339
4.68451
4.8955
5.06151
5.18433
5.27263
5.3364
5.38271
5.41544
5.43653
5.44687
5.44684
5.43661
5.4163
5.38609
5.3463
5.29732
5.23953
5.17346
5.09968
5.01887
4.93212
4.84165
4.75244
4.67488
4.62036
4.59067
4.58441
4.59689
4.61983
4.6422
4.65551
4.65927
530.056
519.57
4.45704
4.71815
4.93598
5.10556
5.22988
5.31894
5.38343
5.43054
5.46406
5.48583
5.49668
5.49694
5.48673
5.46617
5.43541
5.39478
5.34462
5.28528
5.21723
5.14091
5.05689
4.96619
4.87106
4.77686
4.69502
4.63778
4.60708
4.60152
4.61592
4.64102
4.66469
4.67812
4.68051
530.193
519.58
4.48056
4.75188
4.97616
5.14895
5.27452
5.36427
5.42949
5.47741
5.51173
5.5342
5.54557
5.54614
5.53602
5.51529
5.48411
5.4428
5.39168
5.33102
5.26124
5.18266
5.09573
5.00134
4.90182
4.80287
4.71694
4.65697
4.62507
4.61983
4.63569
4.66253
4.68719
4.70051
4.70134
530.326
519.591
4.5035
4.78436
5.01456
5.19023
5.31699
5.40747
5.47352
5.52234
5.55755
5.58078
5.59275
5.59371
5.58375
5.56295
5.53149
5.48965
5.43774
5.376
5.30472
5.22415
5.13457
5.03675
4.93307
4.82963
4.73993
4.67745
4.64439
4.63936
4.65639
4.68459
4.70987
4.72282
4.72182
530.458
519.602
4.52657
4.81664
5.05242
5.23074
5.35857
5.44981
5.51672
5.5665
5.60262
5.62667
5.63927
5.64066
5.6309
5.61008
5.57838
5.53611
5.48355
5.42087
5.34829
5.26595
5.17398
5.07301
4.96542
4.8577
4.76441
4.69945
4.66517
4.6601
4.67795
4.70707
4.73261
4.74491
4.74187
530.587
519.613
4.54891
4.84752
5.08844
5.26918
5.3981
5.4902
5.55808
5.6089
5.64602
5.67094
5.68424
5.68613
5.67666
5.6559
5.62408
5.58148
5.52839
5.46491
5.3912
5.30727
5.2131
5.10921
4.99794
4.88619
4.78963
4.72246
4.68709
4.68201
4.70048
4.73021
4.75562
4.76695
4.76154
530.715
519.625
4.57119
4.87803
5.12383
5.30688
5.43687
5.52986
5.59877
5.65066
5.6888
5.7146
5.72862
5.73103
5.72189
5.70124
5.66936
5.62654
5.57303
5.50889
5.4342
5.34886
5.25272
5.14614
5.03141
4.91581
4.81611
4.74668
4.71013
4.70487
4.72373
4.75369
4.77861
4.78868
4.78067
530.841
519.636
4.59268
4.90716
5.1575
5.34273
5.47383
5.56782
5.63782
5.69084
5.73003
5.75674
5.77151
5.77448
5.7657
5.74526
5.71342
5.67049
5.61669
5.55203
5.47653
5.38998
5.29208
5.18303
5.06513
4.94596
4.8434
4.77184
4.73409
4.72859
4.7477
4.77771
4.80189
4.8104
4.79942
530.966
519.648
4.61408
4.93592
5.19063
5.37797
5.5102
5.6052
5.67632
5.73045
5.77066
5.79825
5.81373
5.81726
5.80887
5.78868
5.75696
5.71403
5.66007
5.59504
5.51891
5.43136
5.33196
5.22076
5.1
4.97753
4.87223
4.79837
4.7591
4.75299
4.77205
4.80175
4.82479
4.83154
4.81751
531.088
519.66
4.63473
4.96343
5.22225
5.41165
5.54506
5.64118
5.71344
5.76866
5.80984
5.83825
5.85441
5.85849
5.85053
5.83065
5.79916
5.75634
5.70237
5.63713
5.56055
5.47222
5.37157
5.25853
5.1353
5.01
4.90241
4.82634
4.78529
4.77818
4.79681
4.826
4.84813
4.85294
4.83529
531.209
519.672
4.65528
4.99061
5.25342
5.44488
5.57956
5.67684
5.75022
5.80643
5.84842
5.87752
5.89425
5.89881
5.89126
5.87174
5.84055
5.79797
5.74412
5.67883
5.60197
5.51306
5.41142
5.29686
5.17157
5.0439
4.93441
4.85619
4.81301
4.80428
4.82193
4.85035
4.87164
4.87438
4.85283
531.326
519.684
4.67514
5.01664
5.28324
5.47679
5.6129
5.7115
5.78602
5.84305
5.88563
5.91521
5.93239
5.93738
5.93023
5.91112
5.88034
5.8381
5.7845
5.7193
5.6423
5.55297
5.45052
5.3347
5.20772
5.07828
4.96765
4.88779
4.84255
4.83177
4.84784
4.87505
4.89535
4.89588
4.87024
531.439
519.696
4.69484
5.04226
5.31256
5.50825
5.64602
5.74629
5.82192
5.87938
5.92211
5.95189
5.96935
5.97469
5.96794
5.94929
5.91898
5.8772
5.82395
5.75895
5.68192
5.59224
5.48907
5.37209
5.24362
5.11279
5.00165
4.9208
4.87383
4.86083
4.87475
4.90025
4.91925
4.91738
4.88744
531.549
519.708
4.71385
5.06675
5.34053
5.53835
5.67796
5.77953
5.85609
5.91409
5.95682
5.98666
6.00431
6.00999
6.00367
5.98554
5.95582
5.91461
5.86186
5.79716
5.72017
5.6302
5.52631
5.40816
5.27821
5.14622
5.03519
4.95424
4.90641
4.89155
4.90305
4.92617
4.94345
4.93883
4.9042
531.656
519.721
4.73265
5.09083
5.36793
5.56774
5.70897
5.81155
5.88887
5.94743
5.99042
6.02008
6.0378
6.04376
6.03787
6.02033
5.9913
5.95081
5.89869
5.83443
5.75761
5.66741
5.5628
5.44339
5.31179
5.17852
5.06768
4.98712
4.93931
4.92339
4.93268
4.95332
4.96808
4.96019
4.92028
531.761
519.733
4.75074
5.11385
5.39417
5.59608
5.73852
5.84191
5.91987
5.97886
6.02201
6.05148
6.06926
6.07547
6.07004
6.05316
6.02495
5.98536
5.9341
5.87053
5.79407
5.70382
5.5986
5.47792
5.34453
5.20973
5.09877
5.01865
4.97153
4.95551
4.96327
4.98156
4.99313
4.98127
4.93534
531.865
519.745
4.7684
5.13619
5.41956
5.62355
5.76687
5.87089
5.94938
6.00874
6.05208
6.0815
6.09916
6.10555
6.10062
6.08452
6.05732
6.01885
5.96872
5.90615
5.83043
5.74049
5.635
5.5133
5.37815
5.24152
5.12943
5.04884
5.00228
4.98685
4.99396
5.01026
5.01832
5.00195
4.94934
531.966
519.757
4.78518
5.15729
5.44343
5.64928
5.79344
5.89807
5.97703
6.0367
6.08018
6.10956
6.12699
6.13352
6.1291
6.1139
6.08791
6.05088
6.00228
5.94117
5.86672
5.77773
5.67265
5.55063
5.41427
5.2759
5.16146
5.07864
5.03137
5.01644
5.02355
5.03843
5.04309
5.02202
4.96242
532.064
519.769
4.80162
5.17798
5.46678
5.67426
5.81904
5.92406
6.00331
6.06311
6.10656
6.13578
6.15294
6.1596
6.15577
6.14159
6.11702
6.08172
6.03505
5.97592
5.9034
5.81615
5.7125
5.59133
5.45495
5.31554
5.19772
5.1103
5.05978
5.04397
5.05114
5.06522
5.06701
5.04149
4.9751
532.157
519.78
4.81732
5.19767
5.48891
5.69775
5.84299
5.94831
6.02778
6.08767
6.13103
6.16
6.17683
6.18355
6.18026
6.16714
6.14411
6.11077
6.06639
6.00975
5.93984
5.85522
5.75415
5.6354
5.50082
5.36207
5.24097
5.14699
5.08983
5.0703
5.07646
5.09003
5.0897
5.06044
4.98795
532.243
519.791
4.83281
5.21713
5.51094
5.72059
5.86602
5.97147
6.051
6.1108
6.15392
6.18251
6.19888
6.20554
6.2027
6.19058
6.16911
6.13784
6.09594
6.04214
5.97534
5.89408
5.79663
5.68175
5.55109
5.41544
5.29263
5.19162
5.12487
5.09774
5.10039
5.11294
5.11115
5.07905
5.00149
532.322
519.802
4.84784
5.23574
5.53185
5.74205
5.88754
5.99302
6.0725
6.1321
6.17486
6.20295
6.21872
6.22515
6.22259
6.21136
6.19137
6.16213
6.12275
6.07191
6.00848
5.93103
5.83793
5.72806
5.60313
5.47341
5.35178
5.24541
5.16787
5.1295
5.12506
5.13498
5.13178
5.09757
5.01588
532.393
519.813
4.86266
5.25383
5.55201
5.76264
5.90809
6.01348
6.09278
6.15204
6.19426
6.2217
6.2368
6.24267
6.24013
6.22954
6.2108
6.18339
6.14635
6.09831
6.03817
5.96456
5.87605
5.7718
5.65384
5.53232
5.41531
5.30703
5.22015
5.1686
5.15338
5.15795
5.15246
5.11628
5.03095
532.458
519.825
4.87727
5.27139
5.57134
5.78214
5.92736
6.03249
6.11145
6.17017
6.21168
6.23826
6.25247
6.25759
6.25487
6.24469
6.22695
6.20109
6.1661
6.12055
6.06333
5.99321
5.90902
5.81038
5.7
5.58823
5.47872
5.3728
5.28036
5.21649
5.18813
5.1842
5.17449
5.13551
5.04616
532.521
519.836
4.89168
5.28841
5.5899
5.80069
5.94557
6.05035
6.12884
6.18689
6.2275
6.25302
6.26609
6.27024
6.26708
6.25703
6.23999
6.21536
6.18206
6.13856
6.08374
6.0165
5.93594
5.84233
5.73936
5.63791
5.53783
5.43791
5.34462
5.27178
5.23019
5.21535
5.19902
5.15559
5.06096
532.585
519.848
4.90554
5.3046
5.60739
5.81803
5.96245
6.06677
6.14469
6.20196
6.24156
6.26586
6.27764
6.28065
6.27683
6.26666
6.25006
6.22639
6.19447
6.15264
6.09974
6.03471
5.95696
5.86747
5.77126
5.6795
5.58943
5.49804
5.40831
5.33111
5.27874
5.25219
5.22702
5.17694
5.07502
532.653
519.859
4.919
5.32017
5.62405
5.83439
5.97826
6.08205
6.15932
6.21572
6.25419
6.27716
6.2875
6.28921
6.28454
6.27404
6.25768
6.23479
6.2041
6.16376
6.11251
6.04927
5.97371
5.88751
5.79721
5.7135
5.6325
5.55033
5.46716
5.39001
5.33011
5.293
5.25797
5.19936
5.08806
532.726
519.871
4.93158
5.33461
5.6394
5.84936
5.99266
6.09589
6.1725
6.228
6.26531
6.2869
6.29572
6.29605
6.29041
6.27944
6.26319
6.24104
6.2116
6.17287
6.12338
6.06196
5.98842
5.90509
5.81995
5.74224
5.66824
5.59435
5.51896
5.4454
5.38231
5.33605
5.29099
5.22263
5.10038
532.804
519.881
4.94344
5.34824
5.6538
5.86332
6.006
6.10867
6.1846
6.2392
6.27533
6.2955
6.30275
6.30163
6.29488
6.2833
6.26708
6.24567
6.21767
6.1809
6.13367
6.07461
6.00354
5.92323
5.84278
5.7691
5.69945
5.63156
5.56333
5.49511
5.43219
5.37938
5.32505
5.24663
5.11285
532.884
519.891
4.95439
5.36073
5.66689
5.87593
6.01802
6.12015
6.19543
6.24916
6.28416
6.30292
6.30859
6.30597
6.298
6.28564
6.26933
6.24868
6.22235
6.18805
6.14386
6.08816
6.02064
5.94427
5.8687
5.79777
5.72994
5.66495
5.60169
5.53871
5.47789
5.42106
5.35922
5.27146
5.12666
532.964
519.9
4.96468
5.37244
5.67909
5.8876
6.0291
6.13071
6.20537
6.25827
6.29215
6.30952
6.3136
6.30941
6.30004
6.28669
6.27006
6.25004
6.22548
6.19409
6.15379
6.10267
6.04022
5.96938
5.89958
5.83116
5.76338
5.69821
5.63668
5.57721
5.51894
5.4601
5.39278
5.29722
5.14254
533.041
519.908
4.97435
5.38332
5.69027
5.89818
6.03907
6.14017
6.21425
6.26635
6.29917
6.31519
6.31768
6.31185
6.30091
6.28627
6.26896
6.24926
6.22637
6.19814
6.16244
6.11715
6.0615
5.99833
5.93572
5.87063
5.80246
5.73487
5.67166
5.61279
5.55607
5.49627
5.42528
5.32369
5.16047
533.116
519.917
4.98373
5.39376
5.70078
5.90798
6.04823
6.14882
6.22235
6.27371
6.3055
6.32022
6.32112
6.31357
6.30082
6.28452
6.26604
6.24615
6.22451
6.19932
6.16859
6.13008
6.08288
6.0297
5.9758
5.91559
5.84793
5.77719
5.70967
5.64812
5.59098
5.53018
5.45667
5.35049
5.17981
533.187
519.925
4.99274
5.40368
5.71045
5.9168
6.05639
6.1565
6.22951
6.28017
6.31102
6.32448
6.32383
6.31452
6.29978
6.28143
6.26122
6.24046
6.2194
6.19682
6.17101
6.13982
6.10227
6.06099
6.01735
5.96394
5.89862
5.8255
5.75253
5.68563
5.62559
5.56276
5.48697
5.37702
5.19953
533.257
519.933
5.00149
5.41321
5.71944
5.92485
6.06375
6.16339
6.23593
6.28596
6.31593
6.32823
6.32609
6.31499
6.29807
6.27728
6.25474
6.23229
6.21095
6.1902
6.16889
6.14512
6.11794
6.08978
6.05774
6.013
5.95223
5.87861
5.80067
5.72707
5.66191
5.59547
5.51681
5.4031
5.21887
533.326
519.941
5.0097
5.42191
5.72752
5.93195
6.07017
6.16938
6.2415
6.29098
6.32019
6.33144
6.32793
6.31511
6.2959
6.27236
6.2469
6.22194
6.1993
6.17939
6.16186
6.14524
6.12875
6.11437
6.09487
6.06025
6.00603
5.93417
5.85281
5.77248
5.70082
5.62916
5.54662
5.42856
5.2372
533.394
519.949
5.01763
5.43014
5.73495
5.93832
6.07584
6.17464
6.2464
6.29544
6.32401
6.33437
6.32966
6.31523
6.29372
6.26721
6.23833
6.21005
6.18504
6.1648
6.15007
6.14008
6.13431
6.13384
6.12731
6.10376
6.05772
5.98983
5.90728
5.82139
5.74282
5.66468
5.57701
5.45359
5.25441
533.462
519.957
5.02497
5.43754
5.74143
5.94372
6.08058
6.17904
6.25056
6.29929
6.3274
6.33708
6.33141
6.31559
6.29187
6.2623
6.22965
6.19732
6.16889
6.14712
6.13407
6.13001
6.13486
6.14792
6.15432
6.14222
6.10531
6.04308
5.96146
5.87178
5.78699
5.7019
5.60813
5.47826
5.27039
533.531
519.965
5.03182
5.44427
5.74714
5.94833
6.08457
6.18276
6.25415
6.30272
6.33057
6.33983
6.33349
6.31656
6.29085
6.25826
6.22162
6.18468
6.15183
6.12722
6.11459
6.11558
6.13083
6.15678
6.1758
6.17514
6.14785
6.09248
6.01382
5.92285
5.83266
5.74067
5.64019
5.50287
5.28542
533.599
519.973
5.03801
5.45012
5.75187
5.95198
6.08766
6.18569
6.25707
6.30568
6.33351
6.34265
6.33599
6.31835
6.29098
6.25561
6.21498
6.17303
6.13488
6.10611
6.09242
6.09731
6.12241
6.16058
6.19185
6.20252
6.18506
6.13729
6.06305
5.97275
5.87849
5.7802
5.67285
5.52746
5.29987
533.666
519.98
5.04357
5.45517
5.75575
5.9548
6.09
6.18798
6.2595
6.30832
6.33639
6.34574
6.33917
6.32124
6.29264
6.25484
6.21041
6.16329
6.11913
6.08488
6.06849
6.07579
6.10984
6.15956
6.20281
6.22476
6.21727
6.17763
6.10889
6.02081
5.92393
5.82025
5.70625
5.55251
5.31451
533.73
519.986
5.04847
5.45938
5.75871
5.95674
6.09154
6.18957
6.26137
6.3106
6.33917
6.3491
6.34311
6.32534
6.29603
6.25633
6.20849
6.15629
6.10562
6.06463
6.04366
6.05149
6.09316
6.15372
6.20875
6.24203
6.24467
6.21348
6.15098
6.06632
5.96818
5.86025
5.74015
5.57821
5.32983
533.792
519.992
5.0528
5.46285
5.76087
5.95791
6.09238
6.19055
6.26275
6.31257
6.3419
6.35277
6.34788
6.33074
6.30131
6.26039
6.20981
6.15292
6.09558
6.04677
6.01919
6.02514
6.07253
6.14301
6.20974
6.25461
6.26775
6.24547
6.18981
6.10946
6.01122
5.90014
5.77468
5.60493
5.34634
533.852
519.998
5.05652
5.46552
5.76216
5.95823
6.09242
6.19081
6.26353
6.31409
6.34439
6.35649
6.35311
6.33718
6.30835
6.26705
6.21458
6.15376
6.09
6.03267
5.99649
5.99767
6.04815
6.12715
6.20532
6.26214
6.28635
6.2736
6.22549
6.15031
6.05301
5.9398
5.80974
5.6327
5.36414
533.912
520.004
5.0597
5.46746
5.76266
5.95776
6.09171
6.19038
6.26372
6.31516
6.34664
6.36028
6.35883
6.34465
6.31715
6.27636
6.22306
6.15936
6.08993
6.0239
5.97736
5.97055
6.0206
6.106
6.19501
6.26407
6.29996
6.29741
6.25755
6.18855
6.09339
5.97915
5.84535
5.66161
5.3833
533.971
520.009
5.0622
5.46855
5.76223
5.95637
6.0901
6.18909
6.2631
6.31553
6.34836
6.36381
6.36467
6.35278
6.32735
6.28805
6.23511
6.16989
6.09607
6.02189
5.96392
5.94585
5.9911
6.07979
6.17842
6.25986
6.3082
6.31694
6.28684
6.22439
6.13223
6.01796
5.88126
5.69147
5.40364
534.034
520.013
5.06414
5.46892
5.76101
5.95415
6.08765
6.18696
6.26168
6.31516
6.34947
6.36692
6.37041
6.36129
6.33862
6.30177
6.25048
6.18532
6.10884
6.02792
5.95841
5.92631
5.9617
6.04929
6.15535
6.24887
6.31038
6.33151
6.31239
6.25739
6.16925
6.05593
5.91721
5.72205
5.42503
534.099
520.018
5.06539
5.46844
5.75887
5.95097
6.08419
6.18379
6.2592
6.31376
6.34962
6.36922
6.37561
6.36966
6.35039
6.31692
6.26855
6.20515
6.12815
6.04268
5.96287
5.91521
5.93561
6.01639
6.1262
6.23065
6.30574
6.34032
6.33336
6.28696
6.20395
6.09264
5.9528
5.75306
5.4473
534.17
520.021
5.06608
5.46727
5.75597
5.94698
6.07985
6.17964
6.25566
6.31124
6.34863
6.37043
6.37983
6.37734
6.36193
6.33261
6.28833
6.22837
6.15311
6.06593
5.97843
5.91564
5.91707
5.98454
6.09262
6.20537
6.2937
6.34249
6.34883
6.31229
6.23568
6.12752
5.98764
5.78434
5.47058
534.244
520.025
5.06628
5.46548
5.75234
5.94215
6.07456
6.17443
6.25093
6.30742
6.34625
6.37019
6.38265
6.38372
6.37249
6.34789
6.30863
6.25353
6.18213
6.09624
6.00468
5.9294
5.91045
5.95873
6.05817
6.17476
6.27478
6.33797
6.35851
6.33299
6.26401
6.16018
6.02141
5.81571
5.49484
534.323
520.028
5.06614
5.46322
5.74814
5.93666
6.06845
6.16823
6.24505
6.30226
6.34234
6.36827
6.38364
6.38824
6.38128
6.36171
6.32811
6.27898
6.21322
6.13138
6.03969
5.95622
5.91861
5.94411
6.02762
6.14169
6.25021
6.32708
6.36227
6.34875
6.2885
6.1901
6.05359
5.8467
5.51977
534.403
520.031
5.06578
5.46064
5.7435
5.93057
6.0616
6.16111
6.23802
6.29574
6.33683
6.36448
6.38251
6.39042
6.38759
6.37308
6.34545
6.303
6.2442
6.16864
6.0805
5.99389
5.94213
5.94482
6.0067
6.11067
6.22249
6.31092
6.36057
6.35973
6.30913
6.21718
6.08403
5.87716
5.54524
534.486
520.034
5.06541
5.45791
5.73857
5.92404
6.05411
6.15313
6.22991
6.28786
6.32969
6.35876
6.37907
6.3899
6.39086
6.38118
6.35948
6.32398
6.27292
6.20527
6.12365
6.03886
5.97904
5.96236
6.00022
6.08717
6.19562
6.29186
6.35451
6.3663
6.32588
6.24112
6.11227
5.90651
5.57067
534.569
520.037
5.06508
5.45508
5.73338
5.91709
6.04603
6.14435
6.22075
6.27866
6.32094
6.35116
6.37322
6.38643
6.39068
6.38537
6.36927
6.34065
6.29762
6.23881
6.16586
6.08704
6.02561
5.9955
6.01078
6.07623
6.1744
6.27329
6.34613
6.36969
6.33944
6.26225
6.13837
5.93459
5.59573
534.652
520.041
5.06493
5.45229
5.72808
5.90984
6.03745
6.13485
6.21062
6.26821
6.31065
6.34172
6.36493
6.37992
6.38679
6.38521
6.37412
6.35194
6.31682
6.26722
6.20425
6.13449
6.07703
6.04041
6.03789
6.08094
6.16321
6.25863
6.33772
6.37116
6.35035
6.28063
6.16199
5.96076
5.61957
534.733
520.045
5.06494
5.44952
5.72264
5.90228
6.02839
6.12467
6.19955
6.25652
6.29875
6.33025
6.35418
6.37039
6.37923
6.38062
6.3738
6.3574
6.32973
6.28927
6.23692
6.17833
6.12889
6.09203
6.07824
6.10164
6.16522
6.25162
6.33227
6.37281
6.35997
6.29703
6.18344
5.98483
5.64164
534.814
520.05
5.06512
5.4468
5.71709
5.89445
6.01891
6.1139
6.1877
6.2438
6.28552
6.3171
6.34126
6.35809
6.36817
6.37172
6.36829
6.35686
6.33598
6.30434
6.26287
6.21682
6.17785
6.14545
6.12679
6.13562
6.18096
6.25456
6.33205
6.37615
6.36912
6.31169
6.20246
6.00616
5.66103
534.891
520.055
5.06538
5.44405
5.71136
5.88633
6.00901
6.1026
6.17516
6.23022
6.27122
6.3026
6.3266
6.3435
6.35411
6.35894
6.35796
6.35053
6.33564
6.31228
6.28163
6.24888
6.22175
6.19695
6.17864
6.17865
6.20883
6.2685
6.33916
6.3832
6.37929
6.3256
6.21955
6.02472
5.67732
534.967
520.06
5.06568
5.44123
5.70545
5.8779
5.99873
6.09082
6.16204
6.21592
6.25604
6.28701
6.31053
6.32704
6.33756
6.34287
6.34335
6.33891
6.32905
6.31325
6.29309
6.27388
6.25925
6.24395
6.22968
6.22593
6.24512
6.29183
6.35355
6.3944
6.39094
6.33903
6.23469
6.04018
5.69005
535.039
520.065
5.06596
5.4383
5.6993
5.86918
5.98812
6.07868
6.14853
6.20117
6.24034
6.27079
6.2936
6.30935
6.3192
6.32422
6.32523
6.32272
6.31685
6.30776
6.2976
6.29182
6.2899
6.28516
6.27742
6.27393
6.28639
6.32251
6.37465
6.41002
6.40457
6.35247
6.24829
6.05284
5.69948
535.108
520.07
5.06606
5.43508
5.6928
5.86008
5.97713
6.06618
6.13468
6.18614
6.2244
6.25433
6.27636
6.29113
6.29989
6.30395
6.30456
6.30288
6.29989
6.29655
6.29573
6.30298
6.31361
6.31983
6.32006
6.31964
6.32905
6.35747
6.40062
6.42927
6.42005
6.36614
6.26073
6.06311
5.70598
535.171
520.075
5.06591
5.43151
5.68589
5.85056
5.96573
6.05331
6.12053
6.17091
6.20838
6.2379
6.2592
6.27294
6.28037
6.28298
6.28242
6.28054
6.27928
6.28066
6.2885
6.30817
6.331
6.34827
6.35726
6.36174
6.37085
6.39425
6.4295
6.45085
6.43655
6.3795
6.27164
6.07081
5.7096
535.23
520.08
5.06553
5.42762
5.67861
5.84067
5.954
6.04016
6.10621
6.15569
6.19259
6.22188
6.24261
6.25539
6.26142
6.26224
6.25986
6.25679
6.25603
6.26097
6.27668
6.30779
6.34232
6.37056
6.38872
6.39927
6.41011
6.43083
6.45968
6.47398
6.4541
6.39321
6.28209
6.07726
5.71161
535.281
520.085
5.06481
5.42327
5.67085
5.8303
5.94179
6.02658
6.09159
6.14042
6.1772
6.20643
6.22688
6.239
6.24381
6.24282
6.23822
6.23313
6.23165
6.2388
6.26136
6.30251
6.34801
6.38706
6.41469
6.43208
6.44595
6.46554
6.48905
6.49656
6.47079
6.40552
6.29058
6.08134
5.71147
535.326
520.09
5.06378
5.41854
5.66269
5.81952
5.92915
6.01255
6.07656
6.12492
6.16195
6.19139
6.21197
6.22389
6.22791
6.22534
6.21841
6.21067
6.20729
6.21504
6.2429
6.29239
6.34799
6.39766
6.43509
6.46009
6.47821
6.4982
6.51774
6.51931
6.48801
6.41841
6.29952
6.08563
5.71127
535.362
520.094
5.06244
5.41348
5.65417
5.80833
5.91605
5.99801
6.06101
6.10899
6.14651
6.17663
6.19794
6.21035
6.21426
6.21066
6.20164
6.19093
6.18456
6.19106
6.22195
6.27758
6.342
6.40194
6.44944
6.48274
6.50598
6.52726
6.54345
6.53939
6.50261
6.4286
6.30561
6.08711
5.70877
535.396
520.098
5.06071
5.40804
5.64527
5.79673
5.90243
5.98284
6.04479
6.09247
6.13072
6.16191
6.18455
6.19822
6.20292
6.19919
6.18877
6.17533
6.16533
6.16882
6.20002
6.25896
6.33024
6.39961
6.45734
6.49981
6.52958
6.5538
6.56816
6.55962
6.51812
6.4401
6.31316
6.0899
5.70686
535.423
520.102
5.0587
5.40239
5.63616
5.7848
5.88835
5.96704
6.02779
6.07511
6.11424
6.14687
6.17144
6.18723
6.19375
6.19106
6.18039
6.16504
6.15148
6.15069
6.17936
6.23812
6.31332
6.3904
6.45779
6.50967
6.54663
6.57451
6.58766
6.57509
6.52913
6.44718
6.31627
6.08842
5.7015
535.45
520.105
5.05639
5.39656
5.62684
5.77259
5.8738
5.95054
6.00984
6.05666
6.09668
6.131
6.15804
6.17679
6.18628
6.18601
6.17662
6.1608
6.1446
6.13921
6.16306
6.21791
6.29321
6.37532
6.45127
6.51284
6.55828
6.59174
6.60572
6.59091
6.5418
6.45677
6.32245
6.09026
5.69884
535.47
520.107
5.05385
5.39062
5.61743
5.76018
5.85886
5.93335
5.99087
6.03689
6.07764
6.11371
6.14362
6.16606
6.17961
6.18321
6.17687
6.16257
6.14556
6.1365
6.15439
6.20203
6.27288
6.35581
6.43751
6.50741
6.56108
6.60022
6.61572
6.59952
6.54801
6.46046
6.32331
6.08781
5.69372
535.491
520.109
5.05134
5.38484
5.60816
5.7478
5.84372
5.91564
5.97095
6.01572
6.05684
6.09453
6.12745
6.15409
6.17258
6.18133
6.17975
6.1691
6.15369
6.14309
6.15572
6.19447
6.25693
6.33605
6.42002
6.49681
6.55918
6.60535
6.6246
6.60934
6.55737
6.46879
6.3301
6.09235
5.69517
535.502
520.11
5.04891
5.37923
5.59908
5.73553
5.82849
5.8975
5.95014
5.99312
6.03406
6.07297
6.1088
6.13986
6.16391
6.17887
6.18362
6.17873
6.16757
6.15841
6.16799
6.19815
6.24961
6.31995
6.40078
6.48022
6.54866
6.60083
6.62402
6.61055
6.55909
6.47039
6.33125
6.09296
5.6952
535.517
520.112
5.04681
5.37407
5.59045
5.72363
5.81345
5.87922
5.92872
5.96929
6.00933
6.04883
6.08715
6.12251
6.15232
6.1741
6.18626
6.18882
6.18437
6.17993
6.18982
6.21402
6.25478
6.31369
6.38705
6.46536
6.53798
6.59635
6.62513
6.61559
6.56663
6.47948
6.34146
6.10388
5.7047
535.522
520.113
5.04505
5.36934
5.5823
5.71217
5.79868
5.86093
5.90687
5.94451
5.98273
6.02203
6.06222
6.10146
6.13692
6.16579
6.1861
6.19742
6.20175
6.20509
6.21853
6.24028
6.27257
6.31924
6.38103
6.45244
6.52385
6.58503
6.61797
6.61225
6.56625
6.48129
6.34524
6.10978
5.71157
535.538
520.115
5.04389
5.36531
5.57487
5.70138
5.78443
5.84287
5.88481
5.91895
5.95449
5.99279
6.03402
6.0764
6.11697
6.15268
6.1813
6.20209
6.21663
6.23021
6.25033
6.27379
6.30191
6.33917
6.38944
6.45166
6.51907
6.58136
6.61817
6.61686
6.57475
6.49293
6.35974
6.12685
5.72769
535.546
520.118
5.04337
5.36197
5.56815
5.69124
5.77071
5.82509
5.86263
5.89275
5.92501
5.96157
6.00299
6.04766
6.09258
6.1346
6.17132
6.20179
6.22729
6.25253
6.28152
6.30988
6.33765
6.36869
6.40821
6.45877
6.51746
6.57617
6.61356
6.6149
6.57588
6.49691
6.36656
6.13653
5.7379
535.571
520.121
5.04372
5.35953
5.5623
5.68189
5.75765
5.80774
5.84058
5.86625
5.8947
5.92881
5.96956
6.01554
6.06383
6.11127
6.15543
6.19531
6.23205
6.26994
6.3096
6.34585
6.37755
6.40744
6.44075
6.48217
6.53231
6.58606
6.62239
6.62512
6.58841
6.51186
6.38397
6.15598
5.75547
535.589
520.126
5.04495
5.35792
5.55719
5.67319
5.74511
5.79073
5.81863
5.83961
5.86394
5.89515
5.93457
5.981
6.03168
6.08358
6.13435
6.18302
6.2307
6.28121
6.33209
6.37747
6.41522
6.4468
6.47667
6.51029
6.55098
6.59713
6.62941
6.6311
6.59498
6.51967
6.3933
6.16671
5.76535
535.628
520.132
5.04722
5.35726
5.55284
5.66509
5.73298
5.77388
5.79658
5.81263
5.83262
5.86064
5.89824
5.94439
5.99653
6.05185
6.10827
6.16502
6.22338
6.2866
6.34938
6.40539
6.45175
6.48886
6.5201
6.55071
6.58541
6.625
6.65236
6.65134
6.61413
6.53863
6.4125
6.18583
5.78127
535.66
520.138
5.05026
5.35726
5.54902
5.65743
5.72118
5.75717
5.77442
5.78535
5.80088
5.82557
5.8611
5.90648
5.95934
6.01716
6.07821
6.1421
6.21034
6.28531
6.35939
6.4258
6.48103
6.52455
6.55868
6.58811
6.61821
6.65157
6.67335
6.66846
6.6289
6.552
6.42491
6.19714
5.79004
535.715
520.146
5.05421
5.35807
5.54589
5.65038
5.70982
5.74064
5.75214
5.75761
5.76852
5.78976
5.82301
5.86727
5.9203
5.97987
6.04472
6.115
6.19276
6.27903
6.36454
6.44215
6.50781
6.56018
6.60055
6.63272
6.66195
6.69119
6.70767
6.69795
6.65468
6.57501
6.44563
6.21534
5.80391
535.762
520.154
5.05841
5.35909
5.54307
5.64378
5.69902
5.72456
5.73012
5.72986
5.73587
5.75341
5.78419
5.82713
5.87996
5.94069
6.00847
6.08412
6.17026
6.26628
6.36198
6.4498
6.5252
6.58616
6.63317
6.66922
6.69925
6.72602
6.73829
6.72415
6.677
6.59405
6.46159
6.2279
5.81241
535.83
520.163
5.06308
5.36063
5.54087
5.63791
5.68903
5.70932
5.70863
5.70227
5.70292
5.71637
5.74442
5.78583
5.83822
5.89971
5.96987
6.05023
6.14429
6.24958
6.35543
6.45402
6.54027
6.61148
6.66726
6.70968
6.74307
6.76902
6.77761
6.75871
6.70695
6.61985
6.48335
6.24523
5.82458
535.895
520.171
5.06759
5.36219
5.53904
5.63276
5.68
5.69525
5.68852
5.67568
5.67052
5.67937
5.70427
5.74388
5.79562
5.85751
5.92938
6.01337
6.11378
6.22656
6.3409
6.44882
6.5448
6.62557
6.69006
6.7396
6.77791
6.80507
6.81191
6.78965
6.73405
6.64306
6.50232
6.25923
5.83328
535.973
520.18
5.07224
5.36415
5.53794
5.62861
5.67218
5.68252
5.66979
5.65051
5.63899
5.64263
5.66382
5.70128
5.75216
5.81429
5.88762
5.97485
6.08122
6.20102
6.32371