/*--------------------------------*- C++ -*----------------------------------*\
| =========                 |                                                 |
| \\      /  F ield         | OpenFOAM: The Open Source CFD Toolbox           |
|  \\    /   O peration     | Version:  v2006                                 |
|   \\  /    A nd           | Website:  www.openfoam.com                      |
|    \\/     M anipulation  |                                                 |
\*---------------------------------------------------------------------------*/
FoamFile
{
    version     2.0;
    format      ascii;
    class       surfaceScalarField;
    location    "41";
    object      phi;
}
// * * * * * * * * * * * * * * * * * * * * * * * * * * * * * * * * * * * * * //

dimensions      [1 0 -1 0 0 0 0];
oriented        oriented;


internalField   nonuniform List<scalar> 
228225
(
-7.61728e-06
-8.02656e-08
1.2697e-07
-6.98953e-06
-6.95481e-07
6.78875e-08
-6.07265e-06
-9.4292e-07
2.58431e-08
-5.04772e-06
-1.0277e-06
2.72963e-09
-4.03229e-06
-1.0006e-06
-1.4897e-08
-3.09359e-06
-9.1218e-07
-2.66057e-08
-2.24828e-06
-8.06426e-07
-3.8955e-08
-1.49107e-06
-7.06279e-07
-5.10198e-08
-8.09675e-07
-6.19494e-07
-6.19963e-08
-1.91252e-07
-5.46965e-07
-7.15765e-08
3.75255e-07
-4.86809e-07
-7.98244e-08
8.98618e-07
-4.36471e-07
-8.70263e-08
1.38528e-06
-3.93303e-07
-9.34961e-08
1.83959e-06
-3.54981e-07
-9.94904e-08
2.26425e-06
-3.19633e-07
-1.0518e-07
2.66055e-06
-2.85829e-07
-1.10648e-07
3.02882e-06
-2.52538e-07
-1.15903e-07
3.36859e-06
-2.19056e-07
-1.20893e-07
3.67892e-06
-1.84987e-07
-1.25522e-07
3.95866e-06
-1.50257e-07
-1.29659e-07
4.20661e-06
-1.14986e-07
-1.33143e-07
4.42168e-06
-7.94487e-08
-1.35792e-07
4.60289e-06
-4.39789e-08
-1.37396e-07
4.74893e-06
-8.47702e-09
-1.37717e-07
4.86004e-06
2.5239e-08
-1.36483e-07
4.93496e-06
5.83475e-08
-1.3339e-07
4.97028e-06
9.2662e-08
-1.28075e-07
4.95789e-06
1.32355e-07
-1.20034e-07
4.87923e-06
1.87073e-07
-1.08461e-07
4.69548e-06
2.75986e-07
-9.22654e-08
4.33087e-06
4.35119e-07
-7.05084e-08
3.66086e-06
7.14242e-07
-4.41559e-08
2.56726e-06
1.11244e-06
-1.85805e-08
1.13044e-06
1.43825e-06
-7.14211e-10
1.11933e-06
1.25491e-08
-5.42149e-07
3.61244e-07
1.00358e-07
-1.27366e-06
2.00561e-08
1.53841e-08
-1.97406e-06
-1.71285e-07
-7.13624e-08
-2.56884e-06
-2.65705e-07
-1.67604e-07
-3.01729e-06
-2.9505e-07
-2.57405e-07
-3.31064e-06
-2.89456e-07
-3.29671e-07
-3.46001e-06
-2.75889e-07
-3.81497e-07
-3.48356e-06
-2.6809e-07
-4.15015e-07
-3.39987e-06
-2.69775e-07
-4.33791e-07
-3.22507e-06
-2.80024e-07
-4.42125e-07
-2.97256e-06
-2.95863e-07
-4.4386e-07
-2.6538e-06
-3.13679e-07
-4.41979e-07
-2.27904e-06
-3.29967e-07
-4.38533e-07
-1.85796e-06
-3.41744e-07
-4.34763e-07
-1.40007e-06
-3.46688e-07
-4.3129e-07
-9.14825e-07
-3.43182e-07
-4.28348e-07
-4.11627e-07
-3.30257e-07
-4.25944e-07
1.00315e-07
-3.07499e-07
-4.23967e-07
6.12043e-07
-2.74951e-07
-4.22238e-07
1.11487e-06
-2.33019e-07
-4.20543e-07
1.60045e-06
-1.82396e-07
-4.18644e-07
2.06084e-06
-1.24042e-07
-4.16265e-07
2.4889e-06
-5.94198e-08
-4.13087e-07
2.8801e-06
8.57683e-09
-4.08708e-07
3.20804e-06
9.96312e-08
-4.02772e-07
3.46818e-06
1.9252e-07
-3.94738e-07
3.64819e-06
2.96348e-07
-3.84109e-07
3.72985e-06
4.20398e-07
-3.70073e-07
3.68572e-06
5.81891e-07
-3.51032e-07
3.47363e-06
8.11576e-07
-3.23781e-07
3.03881e-06
1.15251e-06
-2.82767e-07
2.34417e-06
1.63189e-06
-2.23042e-07
1.43765e-06
2.16699e-06
-1.4773e-07
5.23846e-07
2.42333e-06
-7.04329e-08
1.64914e-06
-4.38286e-09
-7.88723e-08
3.52689e-07
8.6827e-08
-6.01491e-07
4.42602e-07
9.99542e-08
-1.33523e-06
4.73294e-07
8.87939e-08
-2.11733e-06
4.47626e-07
6.83623e-08
-2.83346e-06
3.74681e-07
4.61108e-08
-3.41715e-06
2.68865e-07
2.50975e-08
-3.84203e-06
1.43513e-07
5.17185e-09
-4.11748e-06
1.39842e-08
-6.95216e-09
-4.2239e-06
-1.50012e-07
-1.3655e-08
-4.1842e-06
-3.01699e-07
-1.83395e-08
-4.01754e-06
-4.41441e-07
-2.13915e-08
-3.7429e-06
-5.65127e-07
-2.35175e-08
-3.37909e-06
-6.68915e-07
-2.51987e-08
-2.94426e-06
-7.50161e-07
-2.67548e-08
-2.45535e-06
-8.07414e-07
-2.85288e-08
-1.92783e-06
-8.40247e-07
-3.08077e-08
-1.37574e-06
-8.48983e-07
-3.37194e-08
-8.11911e-07
-8.34441e-07
-3.72541e-08
-2.48227e-07
-7.97721e-07
-4.12878e-08
3.03996e-07
-7.40024e-07
-4.56021e-08
8.3361e-07
-6.62504e-07
-4.98981e-08
1.32909e-06
-5.66133e-07
-5.37842e-08
1.77773e-06
-4.5154e-07
-5.69308e-08
2.16389e-06
-3.18703e-07
-5.92823e-08
2.49056e-06
-1.66493e-07
-6.09614e-08
2.73531e-06
9.42182e-09
-6.20657e-08
2.88477e-06
2.0945e-07
-6.29675e-08
2.91724e-06
4.51831e-07
-6.42861e-08
2.81154e-06
7.53948e-07
-6.67085e-08
2.54685e-06
1.14659e-06
-7.05948e-08
2.11101e-06
1.66232e-06
-7.41076e-08
1.52501e-06
2.28838e-06
-7.03879e-08
8.74215e-07
2.86913e-06
-5.08615e-08
2.98245e-07
3.01747e-06
-1.71226e-08
1.93057e-06
1.85597e-08
4.89121e-08
2.13591e-07
9.00447e-08
6.84743e-08
2.69215e-07
1.531e-07
5.43239e-08
3.00342e-07
1.86835e-07
4.71964e-09
2.92641e-07
2.04396e-07
-7.45641e-08
2.40861e-07
2.12814e-07
-1.68624e-07
1.46687e-07
2.15936e-07
-2.5725e-07
1.63416e-08
2.1554e-07
-3.09598e-07
-1.46548e-07
2.12653e-07
-3.41282e-07
-3.26684e-07
2.08124e-07
-3.32721e-07
-5.12949e-07
2.02439e-07
-2.76448e-07
-6.93772e-07
1.9579e-07
-1.70876e-07
-8.59175e-07
1.88202e-07
-1.81587e-08
-1.0016e-06
1.79696e-07
1.77082e-07
-1.11606e-06
1.70375e-07
4.08822e-07
-1.19985e-06
1.60412e-07
6.70287e-07
-1.25205e-06
1.5005e-07
9.54407e-07
-1.27297e-06
1.39571e-07
1.25405e-06
-1.26365e-06
1.29268e-07
1.56209e-06
-1.22549e-06
1.19423e-07
1.87132e-06
-1.15986e-06
1.10303e-07
2.17426e-06
-1.06789e-06
1.02153e-07
2.46279e-06
-9.50172e-07
9.52011e-08
2.72785e-06
-8.06542e-07
8.96368e-08
2.95899e-06
-6.35758e-07
8.56082e-08
3.14374e-06
-4.34765e-07
8.32156e-08
3.2662e-06
-1.95928e-07
8.25793e-08
3.29883e-06
9.29605e-08
8.3549e-08
3.21355e-06
4.51936e-07
8.48819e-08
2.99e-06
8.93066e-07
8.41754e-08
2.61639e-06
1.44114e-06
7.88787e-08
2.10103e-06
2.10983e-06
6.78117e-08
1.48325e-06
2.85211e-06
5.42589e-08
8.45654e-07
3.46036e-06
4.69944e-08
2.90101e-07
3.52546e-06
4.87596e-08
2.17993e-06
4.26476e-08
6.31587e-08
6.54619e-08
8.45527e-08
1.58574e-07
7.23551e-09
1.66101e-07
2.87135e-07
-4.80262e-08
2.1959e-07
4.39661e-07
-1.15154e-07
2.54998e-07
6.10274e-07
-2.08123e-07
2.7803e-07
7.9559e-07
-3.31268e-07
2.92313e-07
9.93378e-07
-4.81736e-07
3.00007e-07
1.19605e-06
-6.51968e-07
3.02487e-07
1.39991e-06
-8.316e-07
3.00784e-07
1.60064e-06
-1.00971e-06
2.95717e-07
1.79479e-06
-1.17614e-06
2.87906e-07
1.98008e-06
-1.32261e-06
2.77815e-07
2.15547e-06
-1.44315e-06
2.65837e-07
2.32078e-06
-1.53406e-06
2.52366e-07
2.4764e-06
-1.59363e-06
2.37834e-07
2.62292e-06
-1.62162e-06
2.22719e-07
2.76091e-06
-1.61882e-06
2.07528e-07
2.89073e-06
-1.58659e-06
1.92774e-07
3.01239e-06
-1.52643e-06
1.7895e-07
3.12539e-06
-1.4397e-06
1.66512e-07
3.22859e-06
-1.32729e-06
1.55869e-07
3.31999e-06
-1.18928e-06
1.47387e-07
3.39636e-06
-1.02465e-06
1.41403e-07
3.45278e-06
-8.30769e-07
1.38258e-07
3.48095e-06
-6.01721e-07
1.38453e-07
3.46499e-06
-3.22521e-07
1.42219e-07
3.38119e-06
2.79051e-08
1.48532e-07
3.21561e-06
4.61864e-07
1.55354e-07
2.94131e-06
1.00701e-06
1.60108e-07
2.53895e-06
1.68376e-06
1.59587e-07
2.00865e-06
2.48944e-06
1.50699e-07
1.38929e-06
3.33868e-06
1.33068e-07
7.69161e-07
3.9689e-06
1.12299e-07
2.50394e-07
3.95436e-06
9.11422e-08
2.37744e-06
5.48539e-08
1.3722e-08
-3.03578e-08
8.17559e-08
8.43134e-08
-2.34735e-07
1.71101e-07
2.14164e-07
-4.09843e-07
2.31531e-07
4.06902e-07
-5.80546e-07
2.72347e-07
6.58501e-07
-7.59003e-07
2.99083e-07
9.59175e-07
-9.47613e-07
3.1549e-07
1.29496e-06
-1.14175e-06
3.24032e-07
1.64836e-06
-1.33197e-06
3.26391e-07
2.00165e-06
-1.50889e-06
3.23794e-07
2.33996e-06
-1.66541e-06
3.17207e-07
2.65225e-06
-1.79603e-06
3.07428e-07
2.93149e-06
-1.89713e-06
2.95115e-07
3.17429e-06
-1.96694e-06
2.80814e-07
3.38018e-06
-2.00514e-06
2.65003e-07
3.5507e-06
-2.01247e-06
2.48136e-07
3.68857e-06
-1.99038e-06
2.30694e-07
3.797e-06
-1.94065e-06
2.13199e-07
3.87912e-06
-1.86512e-06
1.96217e-07
3.93757e-06
-1.76542e-06
1.80328e-07
3.9743e-06
-1.64275e-06
1.66097e-07
3.99039e-06
-1.49767e-06
1.54051e-07
3.98598e-06
-1.32979e-06
1.44682e-07
3.96011e-06
-1.13751e-06
1.3846e-07
3.91019e-06
-9.17117e-07
1.35993e-07
3.82918e-06
-6.58728e-07
1.37734e-07
3.70678e-06
-3.44071e-07
1.43657e-07
3.53621e-06
4.50969e-08
1.53083e-07
3.29218e-06
5.40877e-07
1.64732e-07
2.95981e-06
1.16255e-06
1.76572e-07
2.52145e-06
1.93671e-06
1.85243e-07
1.97498e-06
2.84985e-06
1.86059e-07
1.35525e-06
3.78414e-06
1.74555e-07
7.45724e-07
4.42817e-06
1.50989e-07
2.40213e-07
4.3445e-06
1.16676e-07
2.55919e-06
6.04474e-08
2.26643e-08
-1.23944e-07
7.06217e-08
9.94712e-08
-4.63868e-07
1.51905e-07
2.43278e-07
-7.60823e-07
2.06788e-07
4.56657e-07
-1.03728e-06
2.43109e-07
7.31938e-07
-1.30036e-06
2.65896e-07
1.05347e-06
-1.54808e-06
2.78743e-07
1.39974e-06
-1.77241e-06
2.84187e-07
1.74913e-06
-1.9657e-06
2.84151e-07
2.0849e-06
-2.12492e-06
2.80068e-07
2.39544e-06
-2.24906e-06
2.72946e-07
2.67375e-06
-2.338e-06
2.6352e-07
2.9167e-06
-2.39259e-06
2.52361e-07
3.12413e-06
-2.41442e-06
2.399e-07
3.29786e-06
-2.4055e-06
2.26469e-07
3.44089e-06
-2.36803e-06
2.12355e-07
3.55669e-06
-2.30421e-06
1.97852e-07
3.64863e-06
-2.21608e-06
1.83304e-07
3.71959e-06
-2.10539e-06
1.6913e-07
3.77165e-06
-1.97348e-06
1.55811e-07
3.80596e-06
-1.82113e-06
1.43867e-07
3.82265e-06
-1.64839e-06
1.33827e-07
3.82074e-06
-1.45433e-06
1.26215e-07
3.79807e-06
-1.23668e-06
1.21616e-07
3.75024e-06
-9.90094e-07
1.20556e-07
3.66815e-06
-7.00317e-07
1.23429e-07
3.54059e-06
-3.47037e-07
1.30255e-07
3.35391e-06
9.08219e-08
1.40694e-07
3.10165e-06
6.38767e-07
1.54103e-07
2.76336e-06
1.33154e-06
1.69083e-07
2.32517e-06
2.19198e-06
1.82774e-07
1.79042e-06
3.19441e-06
1.90219e-07
1.19915e-06
4.19096e-06
1.84771e-07
6.37114e-07
4.82858e-06
1.62373e-07
1.92396e-07
4.66806e-06
1.22461e-07
2.69545e-06
5.81153e-08
3.61051e-08
-2.18334e-07
5.77815e-08
1.42443e-07
-6.95044e-07
1.24599e-07
3.154e-07
-1.1027e-06
1.68699e-07
5.45737e-07
-1.46466e-06
1.96764e-07
8.1899e-07
-1.78717e-06
2.13298e-07
1.11646e-06
-2.06734e-06
2.21588e-07
1.41754e-06
-2.2977e-06
2.24047e-07
1.70752e-06
-2.47834e-06
2.22521e-07
1.9786e-06
-2.61432e-06
2.1818e-07
2.22653e-06
-2.7089e-06
2.11785e-07
2.44955e-06
-2.76503e-06
2.03872e-07
2.64769e-06
-2.78568e-06
1.94821e-07
2.82197e-06
-2.77374e-06
1.84905e-07
2.97397e-06
-2.73197e-06
1.74341e-07
3.10543e-06
-2.66294e-06
1.63334e-07
3.21797e-06
-2.56899e-06
1.52114e-07
3.31299e-06
-2.45218e-06
1.40961e-07
3.39145e-06
-2.31421e-06
1.30212e-07
3.45386e-06
-2.1563e-06
1.20252e-07
3.50018e-06
-1.97913e-06
1.11499e-07
3.5298e-06
-1.78258e-06
1.04398e-07
3.54141e-06
-1.56555e-06
9.94208e-08
3.53261e-06
-1.3252e-06
9.71219e-08
3.49665e-06
-1.05234e-06
9.79888e-08
3.4242e-06
-7.30428e-07
1.02329e-07
3.30749e-06
-3.4079e-07
1.10219e-07
3.13727e-06
1.39187e-07
1.21597e-07
2.89865e-06
7.40943e-07
1.36207e-07
2.5767e-06
1.50011e-06
1.53177e-07
2.16033e-06
2.43803e-06
1.70203e-07
1.65551e-06
3.5168e-06
1.82505e-07
1.10284e-06
4.56158e-06
1.82405e-07
5.82576e-07
5.18692e-06
1.62706e-07
1.74313e-07
4.9564e-06
1.21234e-07
2.81719e-06
5.4549e-08
4.21868e-08
-3.08451e-07
4.74943e-08
1.58506e-07
-9.13654e-07
1.02049e-07
3.35782e-07
-1.41785e-06
1.37616e-07
5.58748e-07
-1.84792e-06
1.60031e-07
8.10475e-07
-2.21227e-06
1.73148e-07
1.07425e-06
-2.51099e-06
1.79727e-07
1.33627e-06
-2.74163e-06
1.81807e-07
1.58906e-06
-2.91221e-06
1.8099e-07
1.8291e-06
-3.03259e-06
1.78139e-07
2.05437e-06
-3.10797e-06
1.73708e-07
2.26373e-06
-3.14249e-06
1.67996e-07
2.45662e-06
-3.13985e-06
1.61192e-07
2.63277e-06
-3.10342e-06
1.53449e-07
2.7921e-06
-3.03631e-06
1.44936e-07
2.93457e-06
-2.94136e-06
1.35864e-07
3.06015e-06
-2.82117e-06
1.26503e-07
3.16873e-06
-2.67805e-06
1.17171e-07
3.2601e-06
-2.51392e-06
1.08226e-07
3.33385e-06
-2.33023e-06
1.00044e-07
3.38938e-06
-2.12782e-06
9.30108e-08
3.42579e-06
-1.90667e-06
8.75207e-08
3.44166e-06
-1.66561e-06
8.4024e-08
3.43274e-06
-1.3994e-06
8.29403e-08
3.39152e-06
-1.09598e-06
8.46622e-08
3.3117e-06
-7.40245e-07
8.94205e-08
3.18779e-06
-3.14432e-07
9.73316e-08
3.0107e-06
2.0756e-07
1.08485e-07
2.76816e-06
8.60486e-07
1.22774e-07
2.44667e-06
1.68184e-06
1.3958e-07
2.03796e-06
2.6896e-06
1.57052e-07
1.55075e-06
3.83314e-06
1.70954e-07
1.02581e-06
4.91318e-06
1.73729e-07
5.37327e-07
5.51955e-06
1.56621e-07
1.58561e-07
5.22046e-06
1.15994e-07
2.92714e-06
5.05498e-08
3.60081e-08
-3.85827e-07
4.10154e-08
1.37295e-07
-1.10362e-06
8.82917e-08
2.91107e-07
-1.69112e-06
1.19211e-07
4.82968e-07
-2.17897e-06
1.39031e-07
6.98748e-07
-2.57928e-06
1.51103e-07
9.26282e-07
-2.89643e-06
1.57781e-07
1.15654e-06
-3.13278e-06
1.60771e-07
1.3841e-06
-3.30122e-06
1.61361e-07
1.6056e-06
-3.4143e-06
1.60136e-07
1.81876e-06
-3.4785e-06
1.57297e-07
2.02184e-06
-3.49861e-06
1.52982e-07
2.21344e-06
-3.47881e-06
1.47304e-07
2.39244e-06
-3.42291e-06
1.40416e-07
2.55795e-06
-3.33442e-06
1.32533e-07
2.70917e-06
-3.21659e-06
1.23933e-07
2.84537e-06
-3.0724e-06
1.14946e-07
2.96582e-06
-2.90453e-06
1.05935e-07
3.06976e-06
-2.71524e-06
9.72785e-08
3.15634e-06
-2.50628e-06
8.93568e-08
3.22463e-06
-2.27878e-06
8.25503e-08
3.27305e-06
-2.03248e-06
7.72502e-08
3.29778e-06
-1.76436e-06
7.38528e-08
3.29264e-06
-1.46715e-06
7.27256e-08
3.2528e-06
-1.13048e-06
7.41417e-08
3.17495e-06
-7.40939e-07
7.83429e-08
3.05323e-06
-2.78536e-07
8.56047e-08
2.87895e-06
2.8549e-07
9.61354e-08
2.64085e-06
9.8843e-07
1.09941e-07
2.32754e-06
1.86847e-06
1.26522e-07
1.93302e-06
2.93985e-06
1.44186e-07
1.46735e-06
4.13997e-06
1.58944e-07
9.69821e-07
5.24753e-06
1.63564e-07
5.07695e-07
5.83373e-06
1.48718e-07
1.49752e-07
5.46983e-06
1.09846e-07
3.03187e-06
4.69278e-08
3.22094e-08
-4.55832e-07
3.73872e-08
1.22713e-07
-1.27592e-06
8.14511e-08
2.60546e-07
-1.94022e-06
1.11054e-07
4.34371e-07
-2.48403e-06
1.31076e-07
6.3305e-07
-2.92253e-06
1.44431e-07
8.4689e-07
-3.26342e-06
1.53025e-07
1.06878e-06
-3.51289e-06
1.58113e-07
1.29286e-06
-3.686e-06
1.60615e-07
1.51478e-06
-3.79729e-06
1.61001e-07
1.73178e-06
-3.85492e-06
1.59379e-07
1.94159e-06
-3.86432e-06
1.55883e-07
2.14219e-06
-3.83015e-06
1.50707e-07
2.33182e-06
-3.75668e-06
1.44107e-07
2.50885e-06
-3.64788e-06
1.3639e-07
2.67178e-06
-3.50746e-06
1.27895e-07
2.81921e-06
-3.33885e-06
1.18969e-07
2.94977e-06
-3.14511e-06
1.09964e-07
3.06222e-06
-2.92899e-06
1.01229e-07
3.15507e-06
-2.69234e-06
9.31167e-08
3.22585e-06
-2.43563e-06
8.59679e-08
3.27121e-06
-2.15813e-06
8.01742e-08
3.28717e-06
-1.85652e-06
7.60675e-08
3.2707e-06
-1.5247e-06
7.3874e-08
3.21997e-06
-1.15377e-06
7.38451e-08
3.13183e-06
-7.29305e-07
7.63202e-08
3.0007e-06
-2.2926e-07
8.16512e-08
2.8183e-06
3.77557e-07
9.01263e-08
2.57423e-06
1.13044e-06
1.01863e-07
2.25848e-06
2.06751e-06
1.16552e-07
1.86721e-06
3.19825e-06
1.32806e-07
1.41227e-06
4.44796e-06
1.47049e-07
9.32086e-07
5.57558e-06
1.52514e-07
4.87534e-07
6.13936e-06
1.39674e-07
1.43849e-07
5.71156e-06
1.03189e-07
3.13396e-06
4.36289e-08
2.81255e-08
-5.20305e-07
3.59951e-08
1.11785e-07
-1.43989e-06
8.00266e-08
2.43233e-07
-2.18276e-06
1.10827e-07
4.13054e-07
-2.787e-06
1.32952e-07
6.10734e-07
-3.26917e-06
1.48842e-07
8.26325e-07
-3.63902e-06
1.59943e-07
1.05252e-06
-3.90625e-06
1.6714e-07
1.28227e-06
-4.08687e-06
1.71111e-07
1.51067e-06
-4.19812e-06
1.72421e-07
1.73497e-06
-4.2505e-06
1.71277e-07
1.95291e-06
-4.25018e-06
1.67916e-07
2.16239e-06
-4.20228e-06
1.62658e-07
2.3614e-06
-4.11156e-06
1.55863e-07
2.54804e-06
-3.98242e-06
1.47902e-07
2.72041e-06
-3.81897e-06
1.39138e-07
2.87668e-06
-3.62504e-06
1.29919e-07
3.01441e-06
-3.40345e-06
1.20583e-07
3.13025e-06
-3.15629e-06
1.1143e-07
3.22077e-06
-2.88568e-06
1.02774e-07
3.28288e-06
-2.59279e-06
9.49805e-08
3.31403e-06
-2.27771e-06
8.83451e-08
3.31309e-06
-1.93876e-06
8.30803e-08
3.27981e-06
-1.57096e-06
7.94074e-08
3.21312e-06
-1.16489e-06
7.76609e-08
3.11035e-06
-7.04949e-07
7.8244e-08
2.96667e-06
-1.67331e-07
8.15595e-08
2.77468e-06
4.81395e-07
8.7938e-08
2.52503e-06
1.28235e-06
9.75314e-08
2.20872e-06
2.27356e-06
1.10085e-07
1.82253e-06
3.45998e-06
1.24383e-07
1.3781e-06
4.75524e-06
1.37245e-07
9.11857e-07
5.89961e-06
1.42565e-07
4.78968e-07
6.44185e-06
1.31114e-07
1.42495e-07
5.95224e-06
9.69872e-08
3.23748e-06
4.07859e-08
2.82604e-08
-5.85103e-07
3.62026e-08
1.13053e-07
-1.60748e-06
8.25001e-08
2.47044e-07
-2.43313e-06
1.16135e-07
4.20691e-07
-3.10209e-06
1.41284e-07
6.22642e-07
-3.63116e-06
1.59947e-07
8.42066e-07
-4.03175e-06
1.73271e-07
1.07119e-06
-4.31739e-06
1.82005e-07
1.30335e-06
-4.50583e-06
1.86811e-07
1.53431e-06
-4.61751e-06
1.88438e-07
1.76173e-06
-4.66524e-06
1.8733e-07
1.98368e-06
-4.65598e-06
1.83859e-07
2.19828e-06
-4.59532e-06
1.78457e-07
2.4036e-06
-4.48839e-06
1.71542e-07
2.59761e-06
-4.3399e-06
1.63492e-07
2.77785e-06
-4.15384e-06
1.54651e-07
2.94046e-06
-3.93296e-06
1.45308e-07
3.0808e-06
-3.67951e-06
1.35713e-07
3.19474e-06
-3.39637e-06
1.2614e-07
3.27911e-06
-3.08693e-06
1.16857e-07
3.3323e-06
-2.75421e-06
1.08195e-07
3.35372e-06
-2.39956e-06
1.00381e-07
3.34295e-06
-2.02162e-06
9.35684e-08
3.29934e-06
-1.61549e-06
8.80505e-08
3.22149e-06
-1.17139e-06
8.42319e-08
3.10667e-06
-6.72844e-07
8.25665e-08
2.95034e-06
-9.46849e-08
8.35092e-08
2.74603e-06
5.98074e-07
8.74449e-08
2.48587e-06
1.44774e-06
9.45791e-08
2.16282e-06
2.49172e-06
1.04731e-07
1.77565e-06
3.73022e-06
1.16843e-07
1.33713e-06
5.06575e-06
1.28085e-07
8.8259e-07
6.22154e-06
1.32946e-07
4.62052e-07
6.74049e-06
1.22589e-07
1.3664e-07
6.18809e-06
9.07172e-08
3.33801e-06
3.7877e-08
2.58556e-08
-6.48877e-07
3.75088e-08
1.07355e-07
-1.77652e-06
8.72735e-08
2.38675e-07
-2.68861e-06
1.2397e-07
4.10438e-07
-3.42552e-06
1.51522e-07
6.10948e-07
-4.00356e-06
1.71785e-07
8.28777e-07
-4.43561e-06
1.85959e-07
1.05565e-06
-4.73927e-06
1.94961e-07
1.28634e-06
-4.93616e-06
1.99613e-07
1.51687e-06
-5.04883e-06
2.0079e-07
1.74456e-06
-5.09219e-06
1.99271e-07
1.96744e-06
-5.07442e-06
1.95574e-07
2.18368e-06
-5.00173e-06
1.90192e-07
2.39128e-06
-4.87952e-06
1.83543e-07
2.58739e-06
-4.71196e-06
1.75965e-07
2.7677e-06
-4.50182e-06
1.6768e-07
2.92733e-06
-4.25145e-06
1.58884e-07
3.06224e-06
-3.96414e-06
1.49735e-07
3.17005e-06
-3.64459e-06
1.40413e-07
3.24931e-06
-3.29736e-06
1.31165e-07
3.29888e-06
-2.92597e-06
1.22173e-07
3.31779e-06
-2.53208e-06
1.13566e-07
3.30519e-06
-2.11462e-06
1.05531e-07
3.25997e-06
-1.66877e-06
9.84065e-08
3.1803e-06
-1.18446e-06
9.26338e-08
3.06316e-06
-6.44569e-07
8.87262e-08
2.90394e-06
-2.28564e-08
8.72283e-08
2.69646e-06
7.16733e-07
8.86334e-08
2.43374e-06
1.61703e-06
9.32379e-08
2.1101e-06
2.71428e-06
1.00908e-07
1.72596e-06
4.0036e-06
1.10662e-07
1.29533e-06
5.37649e-06
1.19954e-07
8.5313e-07
6.54016e-06
1.23888e-07
4.45273e-07
7.03479e-06
1.14211e-07
1.31038e-07
6.419e-06
8.44272e-08
3.43578e-06
3.49867e-08
2.86545e-08
-7.16538e-07
3.86036e-08
1.1556e-07
-1.95477e-06
9.10695e-08
2.54098e-07
-2.95693e-06
1.29582e-07
4.34312e-07
-3.76388e-06
1.57976e-07
6.43316e-07
-4.39097e-06
1.78273e-07
8.68306e-07
-4.85267e-06
1.91982e-07
1.0999e-06
-5.17126e-06
2.0034e-07
1.33327e-06
-5.37394e-06
2.04383e-07
1.56467e-06
-5.48524e-06
2.05007e-07
1.79154e-06
-5.52222e-06
2.03162e-07
2.01212e-06
-5.49448e-06
1.99502e-07
2.22468e-06
-5.40878e-06
1.94514e-07
2.42674e-06
-5.27013e-06
1.88581e-07
2.61453e-06
-5.08165e-06
1.8193e-07
2.78401e-06
-4.84598e-06
1.74725e-07
2.93225e-06
-4.56671e-06
1.67068e-07
3.05746e-06
-4.24839e-06
1.59092e-07
3.1579e-06
-3.89592e-06
1.50928e-07
3.23189e-06
-3.51399e-06
1.42675e-07
3.27784e-06
-3.10627e-06
1.34365e-07
3.29432e-06
-2.67457e-06
1.26006e-07
3.27994e-06
-2.21803e-06
1.17756e-07
3.23303e-06
-1.73182e-06
1.09904e-07
3.15126e-06
-1.20563e-06
1.02849e-07
3.03118e-06
-6.21698e-07
9.70952e-08
2.86797e-06
4.69605e-08
9.3239e-08
2.65572e-06
8.36896e-07
9.1914e-08
2.38838e-06
1.79056e-06
9.36389e-08
2.06194e-06
2.94203e-06
9.85186e-08
1.67886e-06
4.28083e-06
1.0576e-07
1.25463e-06
5.68773e-06
1.13038e-07
8.2391e-07
6.85528e-06
1.15889e-07
4.28495e-07
7.32422e-06
1.06606e-07
1.2553e-07
6.64435e-06
7.86811e-08
3.53059e-06
3.23965e-08
3.16434e-08
-7.8747e-07
3.89263e-08
1.25685e-07
-2.14156e-06
9.24382e-08
2.73933e-07
-3.23641e-06
1.30997e-07
4.64279e-07
-4.1129e-06
1.58512e-07
6.81682e-07
-4.78586e-06
1.77374e-07
9.11803e-07
-5.27239e-06
1.89514e-07
1.14458e-06
-5.60058e-06
1.96483e-07
1.37489e-06
-5.80378e-06
1.99502e-07
1.60006e-06
-5.90995e-06
1.9953e-07
1.8183e-06
-5.93788e-06
1.97429e-07
2.02824e-06
-5.89833e-06
1.93919e-07
2.22816e-06
-5.79813e-06
1.89451e-07
2.41554e-06
-5.6418e-06
1.84329e-07
2.58766e-06
-5.43246e-06
1.78733e-07
2.74265e-06
-5.17371e-06
1.72799e-07
2.87896e-06
-4.86961e-06
1.66645e-07
2.99503e-06
-4.52475e-06
1.60343e-07
3.08919e-06
-4.14397e-06
1.53953e-07
3.15964e-06
-3.73183e-06
1.47421e-07
3.20452e-06
-3.29175e-06
1.4062e-07
3.22192e-06
-2.82548e-06
1.33515e-07
3.20979e-06
-2.3321e-06
1.26185e-07
3.16579e-06
-1.80668e-06
1.18821e-07
3.08695e-06
-1.23858e-06
1.11721e-07
2.96929e-06
-6.09459e-07
1.05303e-07
2.8077e-06
1.08304e-07
1.00102e-07
2.59625e-06
9.51417e-07
9.67566e-08
2.32936e-06
1.96136e-06
9.5904e-08
2.00422e-06
3.1691e-06
9.79034e-08
1.62508e-06
4.55754e-06
1.02315e-07
1.20916e-06
5.99645e-06
1.07225e-07
7.91197e-07
7.16484e-06
1.0867e-07
4.09512e-07
7.60701e-06
9.94862e-08
1.1916e-07
6.86251e-06
7.32274e-08
3.62143e-06
2.99569e-08
3.69887e-08
-8.62884e-07
3.80469e-08
1.4188e-07
-2.33728e-06
9.0505e-08
3.0268e-07
-3.52486e-06
1.27405e-07
5.04228e-07
-4.46742e-06
1.52792e-07
7.29276e-07
-5.18049e-06
1.69459e-07
9.62626e-07
-5.68552e-06
1.7969e-07
1.19455e-06
-6.01781e-06
1.85237e-07
1.42053e-06
-6.21721e-06
1.87397e-07
1.63876e-06
-6.31535e-06
1.87127e-07
1.84794e-06
-6.33222e-06
1.85147e-07
2.04691e-06
-6.27937e-06
1.82068e-07
2.23412e-06
-6.16362e-06
1.78299e-07
2.40781e-06
-5.98953e-06
1.74072e-07
2.56664e-06
-5.76085e-06
1.696e-07
2.70932e-06
-5.48137e-06
1.65027e-07
2.83467e-06
-5.15535e-06
1.60443e-07
2.94154e-06
-4.78745e-06
1.55896e-07
3.02871e-06
-4.38244e-06
1.51352e-07
3.09466e-06
-3.94442e-06
1.46696e-07
3.13756e-06
-3.47634e-06
1.41737e-07
3.15522e-06
-2.97948e-06
1.36367e-07
3.14503e-06
-2.45246e-06
1.30559e-07
3.10383e-06
-1.88989e-06
1.24383e-07
3.02782e-06
-1.28065e-06
1.18022e-07
2.91233e-06
-6.05842e-07
1.11783e-07
2.75187e-06
1.62523e-07
1.06112e-07
2.54064e-06
1.06089e-06
1.01596e-07
2.27376e-06
2.12916e-06
9.88994e-08
1.94969e-06
3.39447e-06
9.85306e-08
1.57434e-06
4.83244e-06
1.00348e-07
1.16637e-06
6.30157e-06
1.02884e-07
7.60498e-07
7.46824e-06
1.02727e-07
3.91922e-07
7.88282e-06
9.33331e-08
1.13455e-07
7.07354e-06
6.84332e-08
3.70867e-06
2.78159e-08
4.11987e-08
-9.40608e-07
3.61448e-08
1.55104e-07
-2.5373e-06
8.58299e-08
3.26166e-07
-3.81606e-06
1.19904e-07
5.36244e-07
-4.82023e-06
1.42552e-07
7.66308e-07
-5.56756e-06
1.56865e-07
1.0009e-06
-6.08552e-06
1.65306e-07
1.23112e-06
-6.41776e-06
1.69669e-07
1.45333e-06
-6.61066e-06
1.71209e-07
1.66606e-06
-6.69892e-06
1.70816e-07
1.86822e-06
-6.70352e-06
1.69132e-07
2.05858e-06
-6.63633e-06
1.66612e-07
2.23581e-06
-6.50442e-06
1.63579e-07
2.39861e-06
-6.31256e-06
1.60272e-07
2.54577e-06
-6.06484e-06
1.56861e-07
2.67638e-06
-5.76541e-06
1.53475e-07
2.78979e-06
-5.4189e-06
1.50202e-07
2.88548e-06
-5.03019e-06
1.47105e-07
2.96288e-06
-4.60393e-06
1.44146e-07
3.02113e-06
-4.14378e-06
1.41168e-07
3.0589e-06
-3.65207e-06
1.38005e-07
3.07421e-06
-3.12927e-06
1.3451e-07
3.06428e-06
-2.57308e-06
1.30563e-07
3.02543e-06
-1.97716e-06
1.26102e-07
2.953e-06
-1.32943e-06
1.21157e-07
2.8414e-06
-6.10198e-07
1.15875e-07
2.68435e-06
2.08901e-07
1.10551e-07
2.47574e-06
1.1637e-06
1.05653e-07
2.21102e-06
2.29189e-06
1.01804e-07
1.88978e-06
3.61595e-06
9.95954e-08
1.51956e-06
5.1034e-06
9.91427e-08
1.12054e-06
6.60118e-06
9.94229e-08
7.27472e-07
7.76394e-06
9.76006e-08
3.72823e-07
8.15023e-06
8.77873e-08
1.07152e-07
7.27618e-06
6.39945e-08
3.7916e-06
2.57939e-08
4.62141e-08
-1.02068e-06
3.34786e-08
1.70204e-07
-2.74083e-06
7.92407e-08
3.52288e-07
-4.10843e-06
1.10045e-07
5.71293e-07
-5.16951e-06
1.30089e-07
8.0655e-07
-5.94547e-06
1.4252e-07
1.04263e-06
-6.47145e-06
1.49761e-07
1.27163e-06
-6.80033e-06
1.5351e-07
1.49081e-06
-6.98478e-06
1.54902e-07
1.69912e-06
-7.06196e-06
1.54706e-07
1.89557e-06
-7.05344e-06
1.53462e-07
2.07896e-06
-6.97127e-06
1.51548e-07
2.248e-06
-6.82267e-06
1.49231e-07
2.40148e-06
-6.61273e-06
1.467e-07
2.5385e-06
-6.34592e-06
1.44104e-07
2.65847e-06
-6.0269e-06
1.41562e-07
2.76115e-06
-5.6607e-06
1.39174e-07
2.84653e-06
-5.2525e-06
1.36992e-07
2.9144e-06
-4.80677e-06
1.35022e-07
2.9644e-06
-4.32687e-06
1.33155e-07
2.99566e-06
-3.81455e-06
1.31276e-07
3.00656e-06
-3.26938e-06
1.29249e-07
2.99446e-06
-2.68789e-06
1.26924e-07
2.95551e-06
-2.06238e-06
1.24164e-07
2.88459e-06
-1.3794e-06
1.20866e-07
2.7754e-06
-6.18076e-07
1.1701e-07
2.62096e-06
2.50534e-07
1.12697e-07
2.41477e-06
1.26153e-06
1.08211e-07
2.15246e-06
2.45e-06
1.04038e-07
1.83442e-06
3.83309e-06
1.00741e-07
1.46949e-06
5.36963e-06
9.8586e-08
1.07908e-06
6.89467e-06
9.69259e-08
6.97914e-07
8.05183e-06
9.3493e-08
3.56098e-07
8.40947e-06
8.30921e-08
1.01858e-07
7.47124e-06
6.0129e-08
3.87099e-06
2.4008e-08
4.95803e-08
-1.10138e-06
3.07412e-08
1.80623e-07
-2.94466e-06
7.24868e-08
3.70036e-07
-4.39827e-06
1.00204e-07
5.94033e-07
-5.51161e-06
1.17948e-07
8.3085e-07
-6.31116e-06
1.28761e-07
1.0655e-06
-6.84115e-06
1.34968e-07
1.29118e-06
-7.16424e-06
1.3817e-07
1.50586e-06
-7.3389e-06
1.39408e-07
1.70869e-06
-7.40416e-06
1.39356e-07
1.8987e-06
-7.38194e-06
1.38476e-07
2.07471e-06
-7.28436e-06
1.37079e-07
2.23555e-06
-7.11888e-06
1.3538e-07
2.38024e-06
-6.89092e-06
1.33534e-07
2.50813e-06
-6.60543e-06
1.31661e-07
2.61897e-06
-6.26755e-06
1.29859e-07
2.71282e-06
-5.88273e-06
1.28218e-07
2.78989e-06
-5.45629e-06
1.26782e-07
2.85026e-06
-4.99263e-06
1.2554e-07
2.89381e-06
-4.49481e-06
1.24439e-07
2.91998e-06
-3.96408e-06
1.23418e-07
2.9274e-06
-3.39914e-06
1.2239e-07
2.9136e-06
-2.79531e-06
1.21237e-07
2.87476e-06
-2.14335e-06
1.19815e-07
2.80548e-06
-1.42812e-06
1.17968e-07
2.69899e-06
-6.27204e-07
1.15552e-07
2.54778e-06
2.8916e-07
1.12488e-07
2.34495e-06
1.35539e-06
1.08844e-07
2.08621e-06
2.60366e-06
1.04913e-07
1.77265e-06
4.04533e-06
1.01156e-07
1.4143e-06
5.62997e-06
9.78856e-08
1.03367e-06
7.18057e-06
9.47292e-08
6.6536e-07
8.33045e-06
8.99061e-08
3.37388e-07
8.65907e-06
7.88878e-08
9.57169e-08
7.65727e-06
5.65685e-08
3.94591e-06
2.23221e-08
5.27916e-08
-1.18267e-06
2.81109e-08
1.89801e-07
-3.14786e-06
6.5903e-08
3.84872e-07
-4.68414e-06
9.05831e-08
6.1228e-07
-5.84521e-06
1.06035e-07
8.49648e-07
-6.66385e-06
1.15205e-07
1.08261e-06
-7.19454e-06
1.20345e-07
1.30531e-06
-7.50997e-06
1.22968e-07
1.51618e-06
-7.67382e-06
1.24006e-07
1.71448e-06
-7.72652e-06
1.24037e-07
1.89921e-06
-7.69012e-06
1.23447e-07
2.06922e-06
-7.57686e-06
1.22497e-07
2.2234e-06
-7.3944e-06
1.21363e-07
2.36093e-06
-7.1486e-06
1.20172e-07
2.48139e-06
-6.84488e-06
1.19022e-07
2.58478e-06
-6.48889e-06
1.17986e-07
2.67144e-06
-6.08646e-06
1.17121e-07
2.74171e-06
-5.64297e-06
1.16465e-07
2.79587e-06
-5.16271e-06
1.15976e-07
2.83399e-06
-4.6485e-06
1.15614e-07
2.85567e-06
-4.10105e-06
1.1534e-07
2.85973e-06
-3.51826e-06
1.15102e-07
2.84384e-06
-2.89422e-06
1.14827e-07
2.80424e-06
-2.21815e-06
1.14411e-07
2.73546e-06
-1.47307e-06
1.13711e-07
2.63051e-06
-6.34845e-07
1.12544e-07
2.48154e-06
3.27321e-07
1.10714e-07
2.28144e-06
1.44725e-06
1.08103e-07
2.02601e-06
2.75414e-06
1.04786e-07
1.71685e-06
4.25329e-06
1.01043e-07
1.36489e-06
5.88466e-06
9.71472e-08
9.93491e-07
7.45907e-06
9.28971e-08
6.3698e-07
8.60026e-06
8.69162e-08
3.21532e-07
8.89972e-06
7.52933e-08
9.08033e-08
7.83543e-06
5.34739e-08
4.01734e-06
2.08735e-08
5.52265e-08
-1.26397e-06
2.57023e-08
1.96804e-07
-3.3495e-06
5.97711e-08
3.95982e-07
-4.96508e-06
8.15456e-08
6.2537e-07
-6.16954e-06
9.47852e-08
8.62198e-07
-7.00315e-06
1.02371e-07
1.0928e-06
-7.53169e-06
1.06477e-07
1.31216e-06
-7.83789e-06
1.08511e-07
1.51911e-06
-7.99009e-06
1.09294e-07
1.71293e-06
-8.02969e-06
1.09319e-07
1.89263e-06
-7.97873e-06
1.08907e-07
2.05703e-06
-7.84954e-06
1.08274e-07
2.20511e-06
-7.65004e-06
1.07567e-07
2.33616e-06
-7.38652e-06
1.06894e-07
2.44993e-06
-7.06495e-06
1.06336e-07
2.54662e-06
-6.69149e-06
1.05955e-07
2.62676e-06
-6.27234e-06
1.05782e-07
2.69087e-06
-5.81287e-06
1.05837e-07
2.73941e-06
-5.31727e-06
1.06073e-07
2.77262e-06
-4.78809e-06
1.06441e-07
2.79021e-06
-4.2255e-06
1.069e-07
2.79113e-06
-3.62654e-06
1.07402e-07
2.77316e-06
-2.98412e-06
1.07897e-07
2.73256e-06
-2.28586e-06
1.08313e-07
2.66388e-06
-1.51294e-06
1.08538e-07
2.55997e-06
-6.39388e-07
1.08397e-07
2.41287e-06
3.6669e-07
1.07648e-07
2.21538e-06
1.53856e-06
1.06053e-07
1.96349e-06
2.90238e-06
1.03506e-07
1.65928e-06
4.45723e-06
1.001e-07
1.31444e-06
6.13339e-06
9.59994e-08
9.52877e-07
7.72955e-06
9.10692e-08
6.08448e-07
8.86065e-06
8.42286e-08
3.05614e-07
9.13094e-06
7.21014e-08
8.58276e-08
8.0054e-06
5.07078e-08
4.08506e-06
1.95859e-08
5.68282e-08
-1.34471e-06
2.35309e-08
2.01161e-07
-3.54825e-06
5.41285e-08
4.02183e-07
-5.23952e-06
7.31967e-08
6.31387e-07
-6.48333e-06
8.44354e-08
8.66042e-07
-7.32856e-06
9.06555e-08
1.09338e-06
-7.85302e-06
9.39189e-08
1.30918e-06
-8.14924e-06
9.54961e-08
1.5125e-06
-8.28954e-06
9.60887e-08
1.70257e-06
-8.3159e-06
9.6107e-08
1.87832e-06
-8.25031e-06
9.58185e-08
2.03853e-06
-8.10515e-06
9.54036e-08
2.18216e-06
-7.88866e-06
9.49895e-08
2.30857e-06
-7.60758e-06
9.46712e-08
2.41757e-06
-7.26844e-06
9.45214e-08
2.50946e-06
-6.87794e-06
9.4602e-08
2.58481e-06
-6.44259e-06
9.49504e-08
2.64428e-06
-5.96784e-06
9.55588e-08
2.68849e-06
-5.45781e-06
9.63791e-08
2.71782e-06
-4.91473e-06
9.73641e-08
2.73213e-06
-4.33824e-06
9.84628e-08
2.73047e-06
-3.72448e-06
9.96259e-08
2.71069e-06
-3.06512e-06
1.00805e-07
2.66908e-06
-2.34618e-06
1.01945e-07
2.60014e-06
-1.54698e-06
1.02956e-07
2.49671e-06
-6.39682e-07
1.0368e-07
2.35077e-06
4.0869e-07
1.03867e-07
2.1552e-06
1.6308e-06
1.03209e-07
1.90623e-06
3.04973e-06
1.01465e-07
1.6065e-06
4.65824e-06
9.85574e-08
1.26832e-06
6.37693e-06
9.45178e-08
9.1603e-07
7.99262e-06
8.92144e-08
5.82827e-07
9.11226e-06
8.17728e-08
2.91562e-07
9.35341e-06
6.92621e-08