/*--------------------------------*- C++ -*----------------------------------*\
| =========                 |                                                 |
| \\      /  F ield         | OpenFOAM: The Open Source CFD Toolbox           |
|  \\    /   O peration     | Version:  v2006                                 |
|   \\  /    A nd           | Website:  www.openfoam.com                      |
|    \\/     M anipulation  |                                                 |
\*---------------------------------------------------------------------------*/
FoamFile
{
    version     2.0;
    format      ascii;
    class       volScalarField;
    location    "100";
    object      alphat;
}
// * * * * * * * * * * * * * * * * * * * * * * * * * * * * * * * * * * * * * //

dimensions      [1 -1 -1 0 0 0 0];


internalField   nonuniform List<scalar> 
78750
(
0.00080136
0.00154726
0.000910002
9.16141e-06
4.14217e-05
7.30047e-05
4.46452e-05
6.85376e-05
6.47335e-05
7.74306e-05
8.46699e-05
9.41998e-05
0.000103375
0.000112814
0.00012179
0.00013066
0.000139675
0.000149277
0.000159964
0.000171986
0.000185391
0.000200369
0.000211436
0.000212351
0.000213365
0.000214545
0.000215949
0.000217545
0.000219095
0.000219957
0.000218841
0.000213551
0.000200888
0.000103907
2.24875e-06
2.98284e-05
4.92515e-05
4.65896e-05
4.51901e-05
6.47919e-05
5.21678e-05
5.90799e-05
5.98821e-05
6.67255e-05
7.70823e-05
9.567e-05
0.000122135
0.000149344
0.000176029
0.000207799
0.000243293
0.00027366
0.000292597
0.000302485
0.00030799
0.0003116
0.000315381
0.000321187
0.000329948
0.000344138
0.000369913
0.00040812
0.000416559
0.000419018
0.00042052
0.000420528
0.000339811
0.000203427
6.17482e-05
2.22595e-06
1.02375e-06
3.30567e-05
3.86222e-05
3.6721e-05
5.41667e-05
9.67432e-05
0.000143165
0.000142147
0.000114559
8.90716e-05
7.5563e-05
8.00015e-05
0.000108764
0.000153069
0.000189247
0.000226714
0.000286174
0.000335704
0.000342365
0.000348642
0.000354606
0.000332484
0.00028977
0.000257973
0.00023357
0.000216004
0.000209051
0.000219683
0.000262013
0.000342834
0.000382922
0.000276125
0.000121107
3.80234e-05
2.62356e-06
7.0386e-07
1.07727e-05
2.60667e-05
6.53395e-05
0.000122008
0.000127624
0.000119269
0.000120435
0.00013403
0.000157812
0.00017875
0.000180146
0.000168432
0.000157332
0.000151998
0.000154165
0.000165713
0.000189031
0.000227657
0.000284876
0.000337844
0.000341093
0.000345218
0.000349707
0.000354183
0.000255966
0.000184019
0.000139837
0.000110381
9.39296e-05
9.22207e-05
0.000103755
9.97048e-05
4.61956e-05
3.42722e-06
1.83005e-06
3.50116e-05
0.000187731
0.000288886
0.000292717
0.000295559
0.000298565
0.000302333
0.000307041
0.000312344
0.000317564
0.000310153
0.000293761
0.00027693
0.000251704
0.000214719
0.000173155
0.00013766
0.000114516
0.00010485
0.00010842
0.000126709
0.000166007
0.000237723
0.000315925
0.000322869
0.000329983
0.000336502
0.000167436
8.48036e-05
5.48787e-05
4.77461e-05
4.85358e-05
4.30425e-05
4.16503e-06
2.97886e-06
2.8392e-05
8.22309e-05
0.000195428
0.000274079
0.000282053
0.000250448
0.000195876
0.000165908
0.000160025
0.000174551
0.000208876
0.000260391
0.00031692
0.000348031
0.000348748
0.00034818
0.000342158
0.000275183
0.000204465
0.000149159
0.000114042
9.59256e-05
9.17344e-05
0.000101264
0.000130868
0.000204922
0.000297018
0.000135202
5.41307e-05
3.22419e-05
2.64255e-05
3.23166e-05
5.41955e-05
5.01494e-06
3.30085e-06
3.76533e-05
0.000143973
0.000178826
0.000162675
0.0001478
0.000144955
0.000152654
0.000166421
0.000179083
0.000186808
0.000193342
0.000204455
0.000221757
0.000242817
0.000263656
0.000279828
0.000287835
0.000285944
0.000271371
0.000241843
0.000199816
0.000152944
0.000110395
7.75628e-05
5.57134e-05
4.40298e-05
4.12918e-05
5.11932e-05
7.57928e-05
3.4744e-05
1.70904e-05
1.33797e-05
2.05624e-05
5.16179e-06
3.40453e-06
3.09007e-05
0.000112923
0.000174297
0.000177718
0.000168142
0.000160742
0.000157966
0.00015793
0.000158073
0.000156872
0.000154863
0.000154529
0.00015874
0.00016908
0.000185284
0.000205677
0.000228173
0.000251228
0.000273949
0.000295219
0.000310464
0.00031173
0.000309975
0.000281435
0.00023785
0.000190411
0.000149742
0.000110466
5.99705e-05
3.3274e-05
3.39177e-05
2.73958e-05
1.27491e-05
4.16712e-06
4.63018e-06
5.90098e-05
0.000164069
0.000164886
0.000149307
0.000143721
0.000152265
0.000172931
0.000200492
0.000227016
0.000245683
0.000253788
0.000252157
0.00024419
0.000234827
0.000228203
0.000225833
0.000226908
0.000229844
0.0002336
0.000238074
0.000243752
0.000251146
0.000260209
0.000269885
0.000278002
0.000281438
0.000274908
0.000250677
0.00020423
0.000139161
7.74526e-05
3.83455e-05
1.99186e-05
3.39918e-06
3.79337e-06
3.59171e-05
9.13768e-05
0.000102474
9.80692e-05
9.3504e-05
9.44228e-05
0.000102771
0.000118673
0.000139392
0.000158312
0.000169268
0.000172115
0.000170499
0.000167595
0.000165613
0.000166281
0.000170441
0.000177447
0.000185418
0.000192369
0.000197244
0.000200063
0.000201425
0.000201973
0.000201898
0.00020034
0.000194794
0.000177958
0.000133506
7.25753e-05
4.24998e-05
3.47327e-05
2.29427e-05
3.17543e-06
4.08823e-06
2.95996e-05
7.96888e-05
8.9604e-05
8.1379e-05
7.29149e-05
6.87932e-05
6.95916e-05
7.56989e-05
8.80519e-05
0.000107548
0.00013375
0.000163065
0.000188022
0.000200271
0.000196718
0.00018307
0.000168722
0.000159494
0.000156433
0.000157994
0.000161835
0.000165929
0.000169296
0.000172
0.000174521
0.000176798
0.000177012
0.000170733
0.000149078
9.97512e-05
5.25443e-05
3.29748e-05
2.62766e-05
3.658e-06
4.90582e-06
3.75967e-05
0.000101059
0.000110422
9.53681e-05
7.84445e-05
6.79173e-05
6.56445e-05
7.14119e-05
8.46507e-05
0.000104205
0.000128428
0.000155569
0.000183553
0.000209707
0.000230712
0.000243393
0.000245518
0.000236838
0.000220644
0.00020232
0.000186429
0.000174884
0.000166778
0.000160067
0.000153205
0.000146141
0.000139409
0.000131578
0.00011665
8.4031e-05
4.60643e-05
3.04119e-05
3.20074e-05
4.33379e-06
4.68029e-06
3.15276e-05
8.26219e-05
8.93517e-05
7.72076e-05
6.38494e-05
5.18952e-05
4.22385e-05
3.9645e-05
4.73238e-05
6.58351e-05
9.30947e-05
0.000124728
0.000157755
0.000191668
0.000225367
0.000254547
0.000274342
0.000283646
0.000284158
0.00027666
0.000263019
0.000246829
0.000229896
0.000212212
0.000193279
0.000172942
0.0001521
0.000131872
0.00010961
7.75692e-05
4.16485e-05
2.71993e-05
3.60365e-05
5.00206e-06
4.99121e-06
3.19657e-05
7.71171e-05
8.05603e-05
6.85552e-05
5.7789e-05
5.09181e-05
4.3496e-05
3.29848e-05
2.89533e-05
3.7995e-05
6.08973e-05
9.45094e-05
0.000131346
0.000166438
0.000199351
0.000229691
0.000255248
0.000273436
0.000282722
0.000282457
0.000273695
0.000258836
0.00024041
0.000220047
0.000198286
0.000175099
0.000150531
0.000124938
9.75945e-05
6.60406e-05
3.67155e-05
2.69014e-05
4.78897e-05
5.53904e-06
5.47707e-06
3.02158e-05
6.55368e-05
6.72049e-05
5.80066e-05
4.92951e-05
4.45251e-05
4.25467e-05
3.93634e-05
3.33248e-05
3.35711e-05
4.69075e-05
7.37378e-05
0.000107914
0.000141264
0.000171731
0.000200687
0.00022836
0.00025229
0.000268931
0.000275469
0.00027165
0.000259621
0.000242153
0.0002213
0.000198203
0.000173383
0.000146982
0.000118919
8.91668e-05
5.85905e-05
3.41629e-05
2.79134e-05
6.14203e-05
6.02951e-06
5.57103e-06
2.66092e-05
6.19956e-05
6.65657e-05
5.91079e-05
5.04909e-05
4.41505e-05
4.03758e-05
3.79658e-05
3.4217e-05
2.95076e-05
3.17066e-05
4.63124e-05
7.41571e-05
0.000110061
0.000146206
0.000179549
0.000210135
0.000236937
0.000257126
0.000267959
0.00026819
0.000258635
0.000241311
0.000218424
0.000191974
0.000163703
0.000134966
0.000106617
7.91601e-05
5.35786e-05
3.46863e-05
3.23672e-05
7.09155e-05
6.46879e-06
6.58507e-06
3.49178e-05
8.56427e-05
9.37996e-05
8.49806e-05
7.24927e-05
6.20791e-05
5.54257e-05
5.17196e-05
4.84359e-05
4.29599e-05
3.78446e-05
4.06965e-05
5.59691e-05
8.33663e-05
0.000118571
0.000156141
0.000192487
0.000224905
0.00024995
0.00026472
0.000268308
0.000261608
0.000246247
0.000223832
0.000195961
0.00016467
0.000132508
0.00010197
7.47305e-05
5.19348e-05
3.67252e-05
3.75094e-05
7.1789e-05
6.93934e-06
7.21121e-06
4.39986e-05
0.000102404
0.000112032
0.00010737
9.71353e-05
8.50194e-05
7.46746e-05
6.81812e-05
6.47829e-05
6.13171e-05
5.57522e-05
5.24484e-05
5.84024e-05
7.63982e-05
0.000104161
0.000136986
0.000171462
0.0002048
0.000232214
0.000248896
0.000253296
0.000247245
0.000233526
0.000213883
0.000188981
0.000159582
0.000127787
9.71656e-05
7.10446e-05
5.10549e-05
3.92535e-05
4.34914e-05
7.31693e-05
7.5475e-06
7.21673e-06
4.82594e-05
0.000104111
0.000111759
0.000111558
0.000109265
0.000104195
9.6076e-05
8.73259e-05
8.06394e-05
7.60343e-05
7.14988e-05
6.6835e-05
6.65334e-05
7.59498e-05
9.66346e-05
0.000125117
0.000156015
0.00018542
0.000209584
0.000224359
0.000227867
0.000221637
0.000208813
0.000191798
0.000171332
0.000147146
0.000119613
9.13616e-05
6.68082e-05
4.93101e-05
4.10084e-05
4.93755e-05
7.44196e-05
7.9573e-06
6.79421e-06
4.7808e-05
0.000103188
0.000109156
0.000109699
0.00011088
0.000111694
0.000109975
0.00010476
9.77347e-05
9.14701e-05
8.67472e-05
8.26563e-05
7.93435e-05
7.98224e-05
8.79355e-05
0.000105061
0.000129228
0.000156529
0.000182496
0.00020152
0.00020856
0.000203038
0.00018837
0.000168948
0.000147799
0.000125864
0.000102965
8.00018e-05
6.01522e-05
4.70433e-05
4.38043e-05
5.84444e-05
7.35447e-05
8.21111e-06
6.43211e-06
5.20328e-05
0.000107338
0.000112494
0.000114137
0.000117741
0.000121778
0.000124066
0.000123003
0.000118196
0.000110879
0.000103199
9.66982e-05
9.19875e-05
8.98433e-05
9.19401e-05
9.96271e-05
0.000112081
0.000127006
0.000143283
0.000160439
0.000175228
0.000180698
0.000171864
0.000151358
0.00012639
0.000102926
8.31494e-05
6.65541e-05
5.28953e-05
4.41813e-05
4.50227e-05
6.47655e-05
5.93286e-05
8.02387e-06
6.00167e-06
5.50239e-05
0.000108232
0.000110899
0.000112591
0.000118788
0.000126867
0.00013393
0.000138168
0.000138561
0.000134828
0.000127626
0.000118446
0.000109003
0.000100957
9.62054e-05
9.71177e-05
0.000105193
0.000117916
0.000128105
0.000132072
0.00013358
0.000135831
0.000136732
0.000130533
0.000114332
9.2602e-05
7.25807e-05
5.82042e-05
4.9756e-05
4.72224e-05
5.45872e-05
8.12017e-05
5.63537e-05
7.91874e-06
5.56488e-06
5.60421e-05
0.000104125
0.000100455
0.000100109
0.000107384
0.000118274
0.000129184
0.000138444
0.000145321
0.000149133
0.000149158
0.000144945
0.000136687
0.000125481
0.000113053
0.000101631
9.38561e-05
9.24674e-05
9.95503e-05
0.000113005
0.000122758
0.000121821
0.000115128
0.000107109
9.68871e-05
8.28046e-05
6.66416e-05
5.25207e-05
4.37685e-05
4.28379e-05
5.42343e-05
8.30814e-05
4.37432e-05
7.35543e-06
5.87413e-06
6.49114e-05
0.000112751
9.38058e-05
8.53578e-05
9.00456e-05
0.000102405
0.000116884
0.000129633
0.000139497
0.000146994
0.000152695
0.000156487
0.000157531
0.000154618
0.000146959
0.000134716
0.000119489
0.000104318
9.24269e-05
8.62225e-05
8.70695e-05
9.39036e-05
0.000100301
9.94696e-05
9.2698e-05
8.30472e-05
7.17165e-05
6.05919e-05
5.2334e-05
5.00783e-05
5.97015e-05
8.77356e-05
4.73183e-05
7.51784e-06
6.95561e-06
8.2248e-05
0.00014471
0.000101665
7.84085e-05
7.39861e-05
8.02267e-05
9.27304e-05
0.000108946
0.000125808
0.000139637
0.00014843
0.000153059
0.000155488
0.000156904
0.000157173
0.000155043
0.000148472
0.000136052
0.00011937
0.000102173
8.80047e-05
7.90597e-05
7.60064e-05
7.72401e-05
7.76386e-05
7.26107e-05
6.30148e-05
5.24943e-05
4.55429e-05
4.64523e-05
6.00684e-05
8.78766e-05
4.54337e-05
7.30489e-06
8.72023e-06
9.00279e-05
0.000171277
0.000120568
8.40489e-05
6.90605e-05
6.51857e-05
6.66268e-05
7.21247e-05
8.20679e-05
9.65453e-05
0.00011407
0.000131031
0.000143239
0.000149068
0.000149994
0.00014828
0.000145488
0.000141687
0.000135043
0.000123463
0.00010758
9.09815e-05
7.73665e-05
6.87962e-05
6.59021e-05
6.73802e-05
6.88517e-05
6.69418e-05
6.26377e-05
6.08203e-05
6.93979e-05
9.22748e-05
5.16052e-05
7.60233e-06
9.38339e-06
7.35825e-05
0.000137459
0.000119567
9.60713e-05
7.8214e-05
6.61387e-05
5.80564e-05
5.34169e-05
5.23724e-05
5.52606e-05
6.27003e-05
7.56601e-05
9.48054e-05
0.000118219
0.000139552
0.000151953
0.000154155
0.000149341
0.000141641
0.000133725
0.000125585
0.000114901
9.99013e-05
8.2794e-05
6.74044e-05
5.59821e-05
4.8907e-05
4.44077e-05
4.10004e-05
4.08781e-05
4.94375e-05
7.33953e-05
4.85626e-05
7.71644e-06
9.14937e-06
4.76348e-05
8.07743e-05
8.71951e-05
8.65766e-05
8.10439e-05
7.21537e-05
6.21688e-05
5.28088e-05
4.50456e-05
3.94091e-05
3.62461e-05
3.59467e-05
3.91639e-05
4.68849e-05
6.04692e-05
8.04461e-05
0.000104124
0.000124435
0.000134595
0.000132889
0.000121409
0.000105597
9.06556e-05
7.86684e-05
6.91758e-05
6.14167e-05
5.65574e-05
5.6738e-05
6.19222e-05
6.80533e-05
7.64281e-05
9.10008e-05
5.07092e-05
7.98219e-06
7.93065e-06
2.67592e-05
5.60619e-05
7.44952e-05
7.98989e-05
7.9296e-05
7.58837e-05
7.09388e-05
6.49594e-05
5.82119e-05
5.10169e-05
4.3761e-05
3.68118e-05
3.06063e-05
2.59682e-05
2.4247e-05
2.71497e-05
3.70239e-05
5.68976e-05
8.80385e-05
0.000122231
0.000145304
0.00015417
0.000148334
0.000123348
8.85006e-05
6.02739e-05
4.21515e-05
3.07242e-05
2.58574e-05
2.77919e-05
3.87257e-05
6.39709e-05
4.77451e-05
8.05422e-06
6.80584e-06
2.39732e-05
7.11637e-05
0.000109817
0.000118982
0.000117629
0.000112338
0.000105335
9.73059e-05
8.83349e-05
7.81102e-05
6.62593e-05
5.35779e-05
4.15757e-05
3.10153e-05
2.11484e-05
1.18922e-05
9.77886e-06
1.5486e-05
2.92498e-05
5.32075e-05
8.42384e-05
0.000106741
0.000106918
9.30707e-05
7.78994e-05
6.44539e-05
5.4697e-05
5.0292e-05
4.91514e-05
5.11391e-05
6.62642e-05
9.6033e-05
3.78675e-05
7.93053e-06
7.6073e-06
3.43456e-05
0.000108908
0.000165858
0.000167236
0.00014947
0.000128237
0.000107589
9.02201e-05
8.32218e-05
9.29166e-05
0.000115918
0.000113133
7.29195e-05
4.19261e-05
2.31055e-05
7.23376e-06
1.24576e-06
1.67801e-06
1.10688e-06
1.53111e-05
4.27992e-05
7.73802e-05
9.62103e-05
8.20875e-05
5.80946e-05
4.20346e-05
3.50744e-05
3.63407e-05
4.95117e-05
8.06758e-05
0.000112516
0.000106966
3.58469e-05
7.12966e-06
8.75143e-06
4.72951e-05
0.000113903
0.000112242
9.68999e-05
8.21546e-05
7.18246e-05
6.47491e-05
5.81448e-05
5.54549e-05
6.68103e-05
9.65833e-05
0.000101214
6.26016e-05
3.17328e-05
1.21267e-05
5.89599e-06
7.74245e-07
9.62661e-07
1.2057e-06
5.51992e-06
1.90848e-05
4.17654e-05
7.22734e-05
0.000106653
0.00010422
7.77574e-05
5.60815e-05
4.40904e-05
4.10749e-05
4.6044e-05
5.33192e-05
5.85902e-05
2.74461e-05
7.17334e-06
8.94191e-06
5.04471e-05
0.000100245
9.67893e-05
8.47201e-05
7.66259e-05
7.2673e-05
6.97041e-05
6.94374e-05
7.4853e-05
8.60697e-05
9.94172e-05
0.000107827
0.000103505
8.24233e-05
5.19618e-05
2.64428e-05
7.83658e-06
1.17863e-07
5.45565e-07
7.54449e-07
1.37368e-06
2.12518e-06
2.63777e-06
8.3524e-06
1.92691e-05
3.29791e-05
4.52073e-05
5.9595e-05
9.52579e-05
0.000117784
7.76196e-05
6.32484e-05
4.47904e-05
3.35518e-06
8.80992e-06
5.19829e-05
0.000164161
0.000144881
9.78578e-05
7.68839e-05
7.89966e-05
9.48864e-05
0.00010343
9.14274e-05
7.67705e-05
6.86783e-05
6.6176e-05
6.7712e-05
7.21569e-05
7.65897e-05
7.71206e-05
7.03399e-05
5.42472e-05
3.19415e-05
1.04297e-05
8.37969e-07
1.16334e-06
4.51233e-07
1.43655e-06
3.01292e-06
1.10765e-06
3.53812e-06
8.56354e-07
3.26812e-06
9.61693e-06
1.53211e-05
2.53136e-05
1.83612e-05
4.25356e-06
9.31096e-06
4.77245e-05
0.000136531
0.000135836
9.48688e-05
6.80526e-05
6.06702e-05
6.59347e-05
8.09376e-05
0.00010638
0.000140969
0.000170803
0.000176066
0.000158218
0.000133688
0.000112464
9.60617e-05
8.38243e-05
7.57203e-05
7.2408e-05
7.45141e-05
8.14284e-05
8.92956e-05
8.86449e-05
7.28938e-05
5.15402e-05
3.32829e-05
1.84868e-05
6.00063e-06
1.22454e-06
2.70027e-06
4.3412e-06
4.50845e-06
1.52053e-06
4.2837e-07
9.63694e-06
4.55669e-05
0.000116245
0.000102877
6.92201e-05
5.36377e-05
5.51159e-05
6.74238e-05
8.42675e-05
0.000101869
0.000120898
0.000143413
0.000169696
0.000196896
0.00021935
0.000230252
0.000224512
0.000203317
0.000175147
0.000149176
0.000129892
0.000117532
0.00011042
0.000106774
0.000105421
0.000106036
0.000108551
0.000112046
0.000102776
0.000119098
5.3263e-05
9.1644e-06
6.55837e-07
2.17467e-06
7.4742e-06
9.804e-06
4.59707e-05
0.000128158
0.000115534
7.17463e-05
5.00545e-05
5.04072e-05
6.96996e-05
0.00010366
0.000133166
0.00014779
0.000154409
0.000159957
0.000167799
0.00017931
0.000194887
0.000214177
0.00023583
0.000257218
0.000274791
0.000285564
0.000288802
0.000286236
0.000279884
0.000267892
0.000243501
0.000209132
0.000178847
0.000152247
3.04002e-05
1.09294e-06
3.34108e-07
3.00325e-06
5.93808e-05
8.12466e-06
9.85336e-06
4.3278e-05
0.000115227
0.000116392
8.06379e-05
5.13873e-05
4.14893e-05
4.76082e-05
7.05658e-05
0.000112184
0.00016411
0.000209012
0.000237304
0.00025004
0.00025255
0.000250747
0.000249218
0.000250585
0.000255685
0.000263963
0.000272998
0.000276593
0.00026131
0.000213693
0.000152916
0.000114541
0.000104813
0.000113999
0.000126332
0.000107265
2.99335e-05
4.95274e-06
4.33502e-06
2.51557e-05
3.85931e-06
9.84891e-06
4.20572e-05
0.000112501
0.000116616
8.71122e-05
5.52888e-05
3.92166e-05
3.84998e-05
5.3143e-05
8.68512e-05
0.000136522
0.00018917
0.000237206
0.000279463
0.000314258
0.000333569
0.000334072
0.000333404
0.000331308
0.000327613
0.000322415
0.000285505
0.000190331
9.95422e-05
6.77822e-05
8.30513e-05
0.000156063
0.00024943
0.000247926
0.000182934
0.00010681
5.06615e-05
2.6014e-05
2.53676e-05
3.94378e-06
9.79976e-06
4.42494e-05
0.000126538
0.000148494
0.000129435
8.80361e-05
5.15913e-05
3.69872e-05
3.91816e-05
5.82049e-05
9.84628e-05
0.000151463
0.000196705
0.000228189
0.000248959
0.000260479
0.000261918
0.000252265
0.000233931
0.00021232
0.000186126
0.000145418
0.000102905
8.89712e-05
0.000106962
0.000133009
0.000144006
0.000152825
0.000156873
0.000139232
0.000103405
6.81036e-05
4.48319e-05
3.71221e-05
3.78079e-06
1.01152e-05
4.64622e-05
0.000128319
0.000138559
0.000118295
8.984e-05
6.16249e-05
4.30931e-05
3.85551e-05
4.86008e-05
7.63189e-05
0.000119628
0.000161116
0.000187584
0.000199738
0.000200051
0.000190229
0.000178004
0.000178987
0.000205711
0.000255735
0.000304254
0.000304242
0.000297177
0.000288472
0.000217183
0.000137019
8.40033e-05
5.90894e-05
5.06274e-05
4.78297e-05
4.39004e-05
4.09694e-05
4.83524e-05
2.62183e-06
1.00983e-05
4.70972e-05
0.000129938
0.000148945
0.000136614
0.000112771
8.18326e-05
5.34404e-05
3.85742e-05
3.82788e-05
5.29854e-05
8.57657e-05
0.000133403
0.000181912
0.000221646
0.000252413
0.000276031
0.000292343
0.000298841
0.000294341
0.000282006
0.000264931
0.000244621
0.000224552
0.000208459
0.000195865
0.000182236
0.000161101
0.000130684
9.99805e-05
7.4972e-05
5.23085e-05
3.62994e-05
3.40432e-05
2.0435e-06
9.94864e-06
4.72773e-05
0.000142451
0.000166698
0.00015163
0.000127476
0.000101473
7.20883e-05
4.70357e-05
3.62989e-05
4.07784e-05
6.38289e-05
0.000110924
0.000171929
0.000223829
0.000258964
0.000280775
0.000293481
0.000301116
0.000306768
0.000311148
0.00031316
0.000311304
0.000303998
0.000289082
0.000263288
0.000223479
0.000171456
0.000116894
7.20625e-05
4.38086e-05
3.13331e-05
3.17877e-05
5.33611e-05
2.7185e-06
1.01334e-05
4.65362e-05
0.000132411
0.000156383
0.000140664
0.000118001
0.000100472
8.55419e-05
6.40317e-05
4.39264e-05
3.73248e-05
4.70207e-05
7.91747e-05
0.000139583
0.000212205
0.000272549
0.000314784
0.000317442
0.00031892
0.000319525
0.000319184
0.000317848
0.000315486
0.000312095
0.000307706
0.00030241
0.000286463
0.000242399
0.000176808
0.000106322
5.4345e-05
2.84494e-05
2.19647e-05
3.82415e-05
2.87173e-06
1.01358e-05
4.76315e-05
0.000141291
0.000161135
0.00014013
0.000110419
8.93693e-05
8.02025e-05
7.45729e-05
6.01293e-05
4.53987e-05
4.43119e-05
6.25482e-05
0.000107353
0.000175427
0.000243018
0.000293606
0.000310566
0.000312541
0.000313793
0.000314215
0.000313736
0.00031231
0.000309921
0.000306588
0.000302384
0.000297468
0.000240628
0.000164867
9.63179e-05
4.99981e-05
2.66943e-05
2.14302e-05
4.61677e-05
3.31317e-06
1.01084e-05
4.60368e-05
0.0001355
0.000166266
0.000148488
0.000116381
8.98039e-05
7.48627e-05
6.66252e-05
5.76916e-05
4.70005e-05
4.40532e-05
5.84203e-05
0.000102545
0.000182324
0.000265894
0.000306466
0.000308744
0.00031047
0.000311496
0.000311715
0.000311059
0.000309479
0.000306954
0.000303486
0.000299113
0.000293933
0.000288132
0.000188573
9.67805e-05
4.4354e-05
2.18627e-05
1.79876e-05
5.25093e-05
3.5295e-06
1.0539e-05
5.05789e-05
0.000144399
0.000154123
0.000123276
9.09864e-05
7.39416e-05
7.14433e-05
7.54765e-05
7.20391e-05
5.68948e-05
4.64204e-05
5.29192e-05
8.72231e-05
0.000160579
0.000249003
0.000299974
0.000302893
0.000305279
0.00030697
0.000307855
0.000307867
0.000306966
0.000305139
0.000302394
0.000298765
0.00029432
0.000278377
0.000173795
8.97699e-05
4.2775e-05
2.16662e-05
1.85391e-05
6.66028e-05
3.46612e-06
1.07665e-05
5.47476e-05
0.000153126
0.000158857
0.000127641
9.25791e-05
6.99512e-05
6.08385e-05
6.11731e-05
6.45746e-05
6.29794e-05
5.80245e-05
6.37555e-05
9.53249e-05
0.000162556
0.000241794
0.000296895
0.000299114
0.000301007
0.000302383
0.000303106
0.00030309
0.000302294
0.000300711
0.000298369
0.000295325
0.000291662
0.000242441
0.000161431
9.36439e-05
4.91598e-05
2.6554e-05
2.26607e-05
6.92846e-05
3.20634e-06
1.09138e-05
6.01403e-05
0.000157326
0.000151328
0.000115281
8.56058e-05
7.10985e-05
6.6635e-05
6.47954e-05
6.08069e-05
5.57666e-05
5.52399e-05
6.72764e-05
0.000102855
0.000166098
0.000233172
0.000280545
0.000296693
0.000298392
0.000299611
0.000300229
0.000300168
0.000299396
0.000297925
0.000295815
0.000290906
0.000254272
0.00020601
0.000154316
0.000104129
6.2239e-05
3.61321e-05
2.98363e-05
6.7437e-05
3.14407e-06
1.09948e-05
6.61352e-05
0.000161768
0.000146542
0.000109458
7.85455e-05
6.2807e-05
6.02196e-05
6.54888e-05
6.93369e-05
6.63741e-05
6.48303e-05
7.70254e-05
0.000112896
0.000170438
0.000226836
0.000266908
0.000291117
0.000296101
0.000297273
0.00029784
0.000297724
0.000296898
0.000294562
0.000278256
0.000255342
0.000226034
0.000190788
0.000150877
0.000108715
6.89278e-05
4.00545e-05
3.05314e-05
5.53467e-05
3.45309e-06
1.07067e-05
6.48269e-05
0.000157824
0.000154682
0.000128396
9.78134e-05
7.33583e-05
5.94901e-05
5.49685e-05
5.59274e-05
5.86412e-05
6.41251e-05
8.00574e-05
0.000116852
0.000175902
0.000238174
0.000283786
0.000292783
0.000294696
0.000296083
0.000296806
0.000296766
0.000295915
0.000294251
0.000291842
0.000275728
0.000243285
0.000198465
0.00014418
9.00724e-05
4.97089e-05
2.92587e-05
2.76075e-05
7.148e-05
4.06198e-06
1.03922e-05
6.3138e-05
0.000162195
0.000162033
0.00013568
0.000106013
8.29574e-05
6.85447e-05
6.14122e-05
5.89523e-05
5.85004e-05
6.11244e-05
7.38213e-05
0.000107619
0.000170207
0.000245405
0.000286998
0.00028982
0.000292287
0.000294195
0.000295378
0.000295707
0.000295099
0.000293511
0.000290951
0.000287497
0.000283317
0.000206999
0.000117012
5.80546e-05
3.02581e-05
2.10123e-05
2.86206e-05
0.000106171
4.26309e-06
1.03287e-05
6.12829e-05
0.000159326
0.000165688
0.000145133
0.000115992
8.7813e-05
6.77045e-05
5.72747e-05
5.45061e-05
5.60975e-05
5.98177e-05
6.95125e-05
9.58611e-05
0.000150926
0.000228595
0.000282674
0.000286095
0.000289237
0.00029186
0.000293764
0.000294788
0.000294811
0.000293753
0.000291576
0.000288294
0.000283989
0.000184884
9.42334e-05
4.6401e-05
2.51162e-05
1.86772e-05
2.86582e-05
5.74745e-05
3.69332e-06
1.00228e-05
5.91702e-05
0.000161394
0.000170163
0.000150768
0.000128688
0.000108269
8.70231e-05
6.83056e-05
5.73321e-05
5.39396e-05
5.52901e-05
6.0968e-05
7.73639e-05
0.00011646
0.000184429
0.000258109
0.000280233
0.000284106
0.000287601
0.000290475
0.000292529
0.000293613
0.000293617
0.000292475
0.00029016
0.000266677
0.00017603
9.96545e-05
5.34294e-05
3.00408e-05
2.17843e-05
3.00768e-05
4.95211e-05
3.07665e-06
1.02406e-05
5.94056e-05
0.000162725
0.000165407
0.000136429
0.000108154
9.1028e-05
8.18136e-05
7.36956e-05
6.48383e-05
5.8901e-05
5.7521e-05
6.01126e-05
6.96378e-05
9.55074e-05
0.000149314
0.000225044
0.000274439
0.000278564
0.000282594
0.000286219
0.000289185
0.000291286
0.000292371
0.00029234
0.000291144
0.000252838
0.000183742
0.000118437
7.03383e-05
4.18117e-05
3.00075e-05
3.70642e-05
7.04961e-05
2.81254e-06
1.02549e-05
6.19449e-05
0.000163773
0.000162279
0.000133183
0.000106159
8.98886e-05
8.16142e-05
7.58361e-05
6.93497e-05
6.35503e-05
6.08549e-05
6.1632e-05
6.72844e-05
8.45516e-05
0.000124733
0.000192252
0.000260218
0.000272492
0.000276844
0.000281063
0.000284801
0.000287778
0.00028979
0.0002907
0.000288818
0.000246456
0.000191479
0.000135557
8.78922e-05
5.53887e-05
4.01358e-05
4.66802e-05
0.000100287
2.79753e-06
1.02989e-05
6.10236e-05
0.000161215
0.000153914
0.000120175
9.15985e-05
7.64983e-05
7.16977e-05
7.18387e-05
7.17752e-05
6.95763e-05
6.73073e-05
6.69084e-05
6.95427e-05
7.95422e-05
0.000105735
0.000156295
0.000221408
0.000267047
0.000271145
0.000275451
0.000279572
0.000283155
0.00028361
0.000276818
0.000260912
0.000232304
0.000191886
0.000144731
9.97262e-05
6.60381e-05
4.90277e-05
5.50942e-05
0.000109264
2.88032e-06
1.0237e-05
6.38273e-05
0.000160718
0.000148542
0.0001156
8.88091e-05
7.37099e-05
6.77843e-05
6.79175e-05
7.09081e-05
7.34044e-05
7.38662e-05
7.33109e-05
7.38486e-05
7.91736e-05
9.57629e-05
0.000130973
0.000183485
0.000232391
0.000254979
0.000252303
0.000240447
0.000231876
0.000229662
0.000229698
0.000224725
0.00020894
0.000180731
0.000143147
0.000103707
7.20484e-05
5.55467e-05
6.17587e-05
0.000104909
3.01088e-06
1.00084e-05
6.01081e-05
0.000157334
0.000148348
0.000116889
8.96947e-05
7.32734e-05
6.55089e-05
6.37564e-05
6.61975e-05
7.09398e-05
7.55667e-05
7.81087e-05
7.86008e-05
7.99513e-05
8.7522e-05
0.000107755
0.000144246
0.000188608
0.000219343
0.000223882
0.000210782
0.000195076
0.000185358
0.000182417
0.00018166
0.000176056
0.00016018
0.000133572
0.000101741
7.41755e-05
5.9692e-05
6.6681e-05
9.76932e-05
3.18254e-06
9.84503e-06
5.69985e-05
0.000150294
0.000148015
0.00012153
9.44804e-05
7.54772e-05
6.48164e-05
6.06294e-05
6.13685e-05
6.5678e-05
7.17719e-05
7.73877e-05
8.07813e-05
8.24181e-05
8.58067e-05
9.66008e-05
0.000120015
0.000155429
0.000189624
0.000204805
0.000197752
0.000179169
0.00016071
0.000148356
0.00014244
0.000139198
0.000132478
0.000117481
9.53225e-05
7.36847e-05
6.22776e-05
7.0287e-05
8.81982e-05
3.38099e-06
9.62803e-06
5.2671e-05
0.000144707
0.000152955
0.000134185
0.000109162
8.67336e-05
7.05952e-05
6.10107e-05
5.72504e-05
5.86395e-05
6.42709e-05
7.22087e-05
7.94072e-05
8.35576e-05
8.54881e-05
8.94716e-05
0.000101073
0.00012396
0.000154769
0.000180099
0.000187224
0.000176053
0.000155433
0.000134775
0.000119454
0.000110189
0.000104132
9.6522e-05
8.42056e-05
7.0176e-05
6.29733e-05
7.20861e-05
7.67645e-05
3.57828e-06
9.48826e-06
4.8647e-05
0.000136313
0.000152171
0.000139515
0.000118706
9.7582e-05
8.01583e-05
6.72985e-05
5.88035e-05
5.4698e-05
5.52515e-05
6.04766e-05
6.92494e-05
7.86124e-05
8.52545e-05
8.91985e-05
9.48697e-05
0.00010783
0.000130325
0.000156594
0.000173958
0.000174419
0.00015979
0.000137001
0.000113983
9.60938e-05
8.4302e-05
7.65611e-05
6.98125e-05
6.31958e-05
6.12816e-05
7.20499e-05
6.38746e-05
3.73843e-06
9.41328e-06
4.71406e-05
0.000132778
0.000156249
0.000149673
0.000133013
0.000112259
9.25334e-05
7.71966e-05
6.65566e-05
5.95082e-05
5.55839e-05
5.5358e-05
5.953e-05
6.76976e-05
7.73625e-05
8.50244e-05
9.02048e-05
9.6966e-05
0.000110248
0.000130937
0.000152381
0.00016403
0.000160808
0.000144581
0.000120902
9.68855e-05
7.78639e-05
6.52163e-05
5.76609e-05
5.40368e-05
5.61601e-05
6.91388e-05
5.34014e-05
3.86549e-06
9.35668e-06
4.67136e-05
0.000135674
0.000165136
0.000161181
0.000147327
0.000128642
0.000107399
8.78431e-05
7.38457e-05
6.53406e-05
5.99918e-05
5.65173e-05
5.58203e-05
5.9435e-05
6.7618e-05
7.79316e-05
8.64521e-05
9.24934e-05
0.00010035
0.000114669
0.000134786
0.000152469
0.00015844
0.000150214
0.000130644
0.000105369
8.13181e-05
6.32358e-05
5.21213e-05
4.75197e-05
5.06487e-05
6.52902e-05
4.73703e-05
3.98759e-06
9.59896e-06
4.98722e-05
0.000148545
0.000179882
0.000172835
0.000158532
0.000143283
0.000124906
0.00010321
8.45728e-05
7.36205e-05
6.85702e-05
6.50556e-05
6.12857e-05
5.93747e-05
6.20606e-05
6.98788e-05
8.00792e-05
8.82351e-05
9.39052e-05
0.000102132
0.000117259
0.000136797
0.00015102
0.000151755
0.00013858
0.000115839
9.00515e-05
6.78194e-05
5.2787e-05
4.57612e-05
4.80289e-05
6.32056e-05
4.57894e-05
4.11515e-06
1.0105e-05
5.82917e-05
0.000175806
0.000192948
0.000171085
0.000154008
0.000145638
0.00013659
0.000118739
9.67214e-05
8.16545e-05
7.62405e-05
7.55765e-05
7.33628e-05
6.85947e-05
6.57124e-05
6.84181e-05
7.67182e-05
8.63753e-05
9.23716e-05
9.63727e-05
0.000105265
0.000122166
0.000140763
0.000149229
0.000142347
0.000123274
9.83649e-05
7.4533e-05
5.69451e-05
4.79404e-05
4.94732e-05
6.52676e-05
4.68629e-05
4.21982e-06
1.10417e-05
7.63265e-05
0.000202446
0.000175677
0.000139778
0.000128008
0.000131276
0.000135688
0.000129835
0.000113603
9.83249e-05
9.1646e-05
9.13447e-05
8.99281e-05
8.31652e-05
7.50617e-05
7.16612e-05
7.53223e-05
8.37658e-05
9.06247e-05
9.25346e-05
9.49568e-05
0.000105003
0.000122408
0.000137005
0.000138165
0.000125069
0.000103464
8.05239e-05
6.22957e-05
5.24516e-05
5.3973e-05
7.07827e-05
4.88954e-05
4.26326e-06
1.17184e-05
0.000111041
0.000182861
0.000123591
0.000101727
0.000107098
0.000123085
0.000134905
0.000135403
0.000128654
0.000122544
0.00012051
0.000119467
0.000113486
0.000100973
8.71337e-05
7.82521e-05
7.70544e-05
8.21525e-05
8.78132e-05
8.84881e-05
8.65644e-05
8.96454e-05
0.000101568
0.000117217
0.000124995
0.000119061
0.000102871
8.32875e-05
6.66734e-05
5.75826e-05
6.00374e-05
7.79092e-05
5.027e-05
4.2467e-06
1.16145e-05
0.000138103
0.0001226
8.46348e-05
8.75446e-05
0.000113285
0.000141178
0.000156991
0.000162213
0.000162428
0.000159819
0.000153819
0.000143537
0.000128723
0.000110867
9.38727e-05
8.19639e-05
7.72413e-05
7.89116e-05
8.2744e-05
8.30652e-05
7.92009e-05
7.68871e-05
8.1861e-05
9.41799e-05
0.000106037
0.000107866
9.84355e-05
8.33024e-05
6.92226e-05
6.16262e-05
6.52922e-05
8.35279e-05
5.03559e-05
4.18789e-06
1.08491e-05
0.000127073
9.59749e-05
7.96837e-05
0.000101263
0.000136549
0.000158799
0.000169551
0.000176052
0.000179134
0.000176866
0.0001687
0.000155513
0.000138427
0.000119173
0.000100849
8.68941e-05
7.93045e-05
7.79145e-05
7.9869e-05
8.00849e-05
7.57594e-05
7.0026e-05
6.87047e-05
7.49225e-05
8.60237e-05
9.34261e-05
9.09682e-05
8.09587e-05
6.98943e-05
6.40387e-05
6.87787e-05
8.64821e-05
4.8817e-05