/*--------------------------------*- C++ -*----------------------------------*\
| =========                 |                                                 |
| \\      /  F ield         | OpenFOAM: The Open Source CFD Toolbox           |
|  \\    /   O peration     | Version:  v2006                                 |
|   \\  /    A nd           | Website:  www.openfoam.com                      |
|    \\/     M anipulation  |                                                 |
\*---------------------------------------------------------------------------*/
FoamFile
{
    version     2.0;
    format      ascii;
    class       volScalarField;
    location    "100";
    object      k;
}
// * * * * * * * * * * * * * * * * * * * * * * * * * * * * * * * * * * * * * //

dimensions      [0 2 -2 0 0 0 0];


internalField   nonuniform List<scalar> 
78750
(
0.800691
0.196449
0.0681528
0.000932538
0.0025492
0.0040391
0.00278219
0.00355116
0.00330378
0.00342016
0.00350049
0.00353227
0.00360572
0.0036617
0.00371411
0.00375938
0.0037978
0.00382995
0.00385654
0.00387791
0.00389392
0.00390395
0.00390696
0.00390135
0.0038847
0.00385352
0.00380283
0.00372516
0.00361157
0.00345333
0.00324314
0.00297404
0.00264014
0.0021404
0.00074872
0.0119749
0.00373578
0.0033946
0.00194752
0.00209802
0.00202059
0.00234422
0.00243066
0.0025648
0.00269935
0.00282866
0.00301332
0.00323642
0.00348145
0.00371794
0.00392595
0.00410137
0.00425052
0.00438179
0.00449987
0.00460728
0.00470579
0.00479563
0.00487578
0.00494353
0.00499413
0.00502181
0.00502324
0.00499489
0.00493304
0.00483674
0.00469455
0.00445164
0.00387011
0.00119997
0.00028149
0.00148526
0.00188764
0.00173253
0.00209193
0.00250651
0.00279781
0.00300045
0.00311003
0.00309431
0.00295471
0.00276804
0.00267831
0.00272351
0.00285796
0.00303346
0.00320412
0.00334741
0.00347338
0.00359392
0.00370986
0.00382514
0.00394509
0.00406884
0.00419408
0.00432006
0.00444164
0.00454396
0.00460411
0.00460839
0.00456154
0.00445583
0.00422351
0.00359461
0.00150967
0.000195303
0.00105712
0.00174543
0.00252328
0.003119
0.003575
0.00396227
0.00429646
0.00455967
0.00473863
0.00483088
0.00484105
0.0047706
0.00462961
0.00444386
0.00424532
0.00406462
0.00392358
0.00383061
0.00378335
0.00377389
0.00379615
0.00384384
0.00390849
0.00398382
0.00407541
0.00419159
0.00432526
0.00447747
0.0046387
0.00476653
0.00476043
0.00451144
0.00383239
0.00204349
0.00051703
0.00212257
0.00266335
0.00281321
0.00286873
0.00290329
0.00294367
0.00300453
0.00309161
0.00319916
0.00331272
0.00341603
0.00349741
0.0035469
0.00355421
0.0035108
0.00341098
0.00325912
0.00307988
0.00291848
0.00281874
0.00279814
0.00284067
0.0029156
0.00300595
0.00311162
0.00323082
0.00335286
0.00350383
0.00374725
0.00405289
0.00428997
0.00420393
0.00365159
0.00256542
0.000846822
0.00188617
0.00219185
0.00236958
0.00252497
0.00268876
0.00286602
0.00306335
0.00329362
0.00354731
0.00379996
0.00402066
0.00418886
0.00430251
0.00437163
0.00440384
0.00439949
0.00435726
0.00426916
0.00411797
0.0038971
0.00362365
0.00333548
0.00307582
0.00287974
0.00275731
0.00269926
0.00268802
0.00273451
0.00294981
0.0033477
0.00380398
0.00403601
0.00377105
0.00328492
0.000939922
0.00176433
0.00202005
0.00215843
0.0022707
0.00237318
0.00246511
0.00254642
0.00262212
0.0027013
0.00279283
0.00290057
0.00302037
0.00314229
0.00325657
0.00335805
0.0034459
0.00352066
0.00358334
0.0036345
0.00367144
0.0036861
0.00366377
0.00358244
0.00341405
0.00312334
0.00271601
0.00227616
0.00196283
0.00188629
0.00203822
0.00247764
0.00302356
0.00338146
0.00355749
0.000969688
0.00176541
0.00211774
0.00231975
0.00248106
0.00262864
0.00275899
0.0028642
0.00294101
0.00299261
0.00302663
0.0030527
0.00307999
0.00311442
0.00315687
0.00320468
0.00325451
0.00330423
0.0033528
0.00339958
0.00344379
0.00348446
0.00352093
0.00355284
0.00358005
0.0036025
0.00361943
0.00362793
0.00361086
0.00350789
0.00323555
0.00290157
0.00277356
0.0029722
0.00276765
0.00133308
0.00209061
0.00229305
0.0024099
0.00252766
0.0026519
0.00277065
0.00287289
0.00295439
0.00301639
0.00306235
0.00309597
0.00312086
0.0031407
0.00315937
0.00318036
0.00320614
0.00323798
0.0032765
0.00332227
0.003376
0.00343836
0.00350926
0.00358668
0.0036651
0.00373474
0.0037824
0.00379596
0.00376843
0.00369796
0.00357988
0.00338468
0.00309348
0.00285344
0.00222311
0.0010843
0.00185763
0.00212813
0.00227424
0.00238025
0.00246287
0.00253141
0.0025922
0.00264709
0.00269549
0.00273719
0.00277284
0.00280326
0.00282918
0.0028516
0.00287175
0.00289102
0.00291136
0.00293478
0.00296312
0.00299783
0.00303978
0.00308914
0.00314536
0.00320705
0.00327126
0.0033317
0.00337618
0.00338819
0.00334908
0.00321978
0.00293606
0.00266727
0.00262611
0.0020689
0.00117617
0.0019446
0.00227025
0.00245786
0.0025999
0.00270678
0.00277702
0.00281677
0.00283636
0.00284209
0.00283642
0.00282221
0.00280305
0.00278195
0.00276076
0.00274019
0.00272131
0.00270639
0.00269903
0.00270345
0.00272334
0.00276109
0.00281739
0.00289103
0.0029793
0.00307787
0.00318156
0.00328406
0.00337458
0.00343425
0.00343255
0.00328974
0.00296364
0.00274091
0.00241679
0.00142245
0.00209514
0.00230892
0.00240031
0.00244846
0.00248011
0.00252462
0.00260397
0.00271562
0.00282993
0.00291233
0.00295193
0.00295642
0.0029383
0.00290759
0.00287068
0.00283164
0.00279312
0.00275739
0.00272779
0.00270968
0.00271066
0.00273771
0.00279348
0.00287381
0.00296805
0.00306142
0.00313702
0.00318312
0.00319557
0.00316198
0.0030379
0.0028453
0.0027813
0.00292345
0.00135135
0.00190433
0.00208301
0.00212993
0.00208847
0.0019563
0.00177288
0.00162721
0.00163118
0.00183579
0.00216214
0.00248517
0.0027315
0.00289176
0.00298633
0.00303662
0.00305948
0.00306809
0.00307021
0.00307053
0.00307162
0.00307564
0.00308429
0.00310002
0.0031267
0.00316737
0.00322031
0.0032734
0.00330066
0.00327168
0.00317025
0.00298358
0.0027742
0.00280273
0.00342421
0.0014489
0.00192221
0.00209986
0.00217015
0.00216568
0.00205415
0.00182726
0.0015264
0.00124237
0.00116295
0.00139208
0.00179717
0.00221279
0.00255485
0.00280815
0.00298989
0.00311804
0.0032079
0.00327071
0.00331636
0.00335073
0.003378
0.00340146
0.00342412
0.00344906
0.00347933
0.0035158
0.00355242
0.00356844
0.00351747
0.00333589
0.00299467
0.00271928
0.00286595
0.00383351
0.00159001
0.00193395
0.00205284
0.00208809
0.00206669
0.00197541
0.00181675
0.00161569
0.00139851
0.00123117
0.00127148
0.001569
0.0019861
0.002388
0.00271949
0.0029787
0.00317526
0.00332079
0.00342545
0.00349986
0.00355183
0.00358734
0.00361123
0.00362804
0.00364277
0.00366062
0.00368562
0.00371716
0.00374221
0.00372109
0.00356727
0.00318875
0.00281241
0.00301106
0.00420229
0.00161095
0.00201291
0.00223383
0.0023217
0.0023035
0.00217454
0.00196285
0.00172035
0.00148652
0.00127477
0.0011414
0.00123122
0.00156623
0.00200721
0.00242872
0.00278005
0.00305992
0.00327726
0.00344177
0.00356291
0.00364988
0.00370998
0.00374934
0.00377384
0.00378966
0.00380397
0.00382455
0.00385612
0.00389025
0.0038883
0.00375431
0.00338457
0.00300275
0.00323063
0.0045442
0.00192869
0.00262562
0.00298846
0.003168
0.00320515
0.00308303
0.00282
0.00247704
0.00212789
0.00182034
0.00156766
0.00141769
0.00148423
0.00176921
0.0021451
0.00251134
0.0028297
0.0030942
0.00330942
0.00348187
0.00361828
0.00372451
0.00380528
0.00386446
0.00390664
0.00393814
0.00396734
0.0040029
0.00404585
0.00406993
0.00398643
0.00367196
0.00329986
0.00348914
0.00490212
0.00215695
0.00284217
0.00322566
0.00347546
0.0036286
0.00365026
0.00352059
0.00325611
0.00291446
0.00256511
0.0022534
0.00200738
0.00188198
0.00194775
0.00217754
0.00247316
0.00276389
0.00302078
0.00323852
0.00341987
0.00357064
0.00369635
0.00380023
0.00388422
0.00395038
0.00400266
0.00404821
0.0040972
0.00415733
0.00421375
0.0041885
0.00395336
0.00365007
0.00383224
0.00535071
0.00211903
0.00271351
0.00308722
0.00337539
0.00360838
0.00375085
0.00377822
0.00368099
0.00347122
0.00319038
0.00289253
0.00262168
0.00241528
0.00232755
0.00239852
0.00259429
0.00283814
0.00307529
0.00328291
0.00345658
0.00359954
0.00371711
0.00381359
0.00389169
0.00395349
0.00400231
0.00404492
0.00409349
0.00416387
0.00425766
0.00431114
0.00417502
0.00396304
0.00419709
0.00586011
0.00198935
0.00257306
0.00295942
0.00326946
0.00354089
0.00374232
0.00385248
0.00386389
0.00377641
0.00360204
0.00337074
0.00312302
0.00289641
0.00272553
0.00264731
0.00268932
0.00283543
0.00303575
0.00324212
0.00342654
0.00357951
0.0037011
0.00379503
0.00386495
0.0039137
0.00394479
0.00396541
0.00399053
0.0040465
0.0041626
0.00431841
0.00437286
0.00432937
0.00463179
0.00631003
0.00188115
0.00252707
0.00293115
0.00325688
0.00355455
0.00379785
0.00396709
0.00405379
0.00405446
0.00397002
0.0038096
0.00359492
0.00335899
0.00313906
0.00297013
0.00288409
0.00289831
0.0030002
0.00315585
0.00333055
0.00349578
0.0036327
0.00373565
0.00380702
0.00385115
0.00387196
0.00387521
0.00387298
0.00388652
0.00394264
0.00405212
0.00416628
0.00426072
0.00463932
0.00637571
0.00175256
0.00237747
0.00277086
0.00309379
0.00340169
0.00367553
0.00389941
0.00406523
0.00416711
0.00419963
0.00415937
0.00404785
0.00387495
0.00366124
0.00343746
0.00324074
0.00311153
0.00307673
0.0031317
0.00324767
0.00339088
0.00353298
0.00365123
0.00373266
0.00377738
0.00379247
0.00378854
0.00378552
0.0038213
0.00393876
0.00413492
0.00433749
0.00451225
0.00486094
0.00632235
0.00162008
0.00220381
0.00257157
0.00287239
0.00315943
0.0034238
0.00365768
0.00385681
0.0040178
0.0041364
0.00420688
0.0042231
0.00418098
0.00407937
0.00392315
0.00372528
0.00351028
0.00331647
0.00318902
0.00316455
0.00324394
0.00338758
0.00354498
0.00367512
0.00375084
0.00376408
0.00372155
0.00363461
0.00352386
0.0034413
0.00346786
0.00362975
0.00385569
0.0042552
0.005797
0.00171459
0.00232899
0.00264941
0.00288201
0.0030934
0.00329471
0.00349172
0.00367989
0.00385124
0.0039993
0.00411983
0.00420974
0.00426567
0.00428365
0.00425898
0.00418667
0.00406473
0.00389479
0.00368976
0.00348113
0.00331583
0.00324232
0.0032838
0.00341747
0.00358678
0.00373745
0.00384154
0.00390496
0.00395025
0.00398594
0.0040053
0.0040335
0.00413785
0.00446859
0.00603009
0.00205536
0.00274485
0.00300269
0.00312233
0.00317839
0.00322683
0.00331459
0.0034464
0.00360494
0.00376879
0.00392037
0.00404846
0.00414778
0.00421756
0.00425974
0.00427624
0.00426572
0.00422302
0.00414025
0.00401108
0.00383881
0.00364359
0.00346635
0.00335759
0.00334546
0.00340354
0.00345531
0.0034286
0.0033216
0.00322346
0.00324488
0.00340563
0.00364696
0.00407634
0.00562075
0.0028015
0.00358484
0.00374794
0.00371993
0.00356449
0.00337618
0.00325041
0.00321756
0.00327301
0.00339789
0.00356531
0.0037469
0.00391894
0.00406508
0.00417561
0.00424692
0.00428141
0.00428573
0.00426802
0.0042332
0.00417841
0.00409242
0.00396565
0.00380565
0.00366163
0.00361292
0.00372061
0.00395169
0.00416875
0.00423923
0.00416699
0.00409361
0.00413888
0.00444187
0.00609209
0.00355265
0.00432217
0.00435435
0.00419709
0.00393223
0.00363457
0.00336438
0.00314814
0.00300115
0.00293835
0.00296906
0.00309029
0.00328297
0.00351418
0.00374789
0.00395709
0.00412603
0.00424687
0.00431465
0.00432913
0.00429819
0.00423778
0.00416038
0.00405673
0.00389342
0.00363607
0.00330541
0.00302176
0.00291877
0.00300071
0.00313149
0.00323987
0.00344843
0.00402222
0.00617937
0.00358631
0.00423801
0.00423135
0.00412935
0.00400914
0.00387325
0.0037019
0.00348708
0.00323843
0.00298034
0.00274803
0.00258258
0.00252442
0.00260347
0.00282178
0.0031434
0.00350082
0.00383241
0.00410013
0.00429776
0.00443078
0.00450021
0.00450506
0.0044565
0.00439494
0.00437013
0.00438641
0.00439241
0.00436309
0.00436153
0.00439735
0.00442742
0.00450477
0.00483812
0.00671643
0.00288343
0.0034028
0.00365936
0.00388031
0.00407418
0.00422013
0.00429765
0.00429111
0.00418901
0.00398436
0.00367613
0.00327385
0.00280791
0.00233919
0.00196581
0.00179931
0.00191014
0.00226917
0.00271777
0.00310413
0.00338294
0.00357628
0.00370703
0.0037804
0.00378097
0.00365956
0.00337187
0.00303123
0.00282344
0.00279913
0.00294285
0.00320607
0.00359317
0.00436335
0.00694905
0.00256873
0.0032159
0.00373551
0.00407825
0.00431829
0.00449277
0.0046175
0.00470278
0.0047555
0.00477405
0.00473183
0.00456396
0.00418689
0.00353139
0.00262768
0.00165143
0.000895356
0.000781563
0.00122599
0.00197358
0.00270587
0.00322792
0.00357666
0.00385102
0.00413036
0.00443607
0.0047044
0.00481598
0.00467638
0.00433966
0.00405185
0.00402385
0.00427541
0.00496763
0.00717351
0.00338623
0.00406992
0.00444427
0.00457065
0.00459173
0.00455098
0.00446553
0.00435934
0.00428048
0.00429086
0.00439801
0.00449899
0.00446052
0.00412903
0.00330999
0.00200324
0.000513593
7.53395e-05
0.000134325
9.44576e-05
0.00105778
0.00206352
0.00267005
0.00296097
0.00303112
0.00299372
0.0029315
0.00292464
0.00305596
0.00336322
0.00371456
0.00398823
0.00419652
0.00446922
0.00532439
0.00433275
0.00472371
0.00477621
0.00471073
0.00459769
0.0044333
0.00419464
0.00388414
0.00357314
0.00337371
0.00329988
0.00318639
0.00288694
0.00233028
0.00147793
0.000544901
0.000267917
4.80215e-05
7.37675e-05
0.000101376
0.00046235
0.00140032
0.00244829
0.00321126
0.00377102
0.00400304
0.00397451
0.00373738
0.00340997
0.00323191
0.0033673
0.00361138
0.00389785
0.0044583
0.00551394
0.00409599
0.0042894
0.00433749
0.00436532
0.00440686
0.00444669
0.00443584
0.00430752
0.00404297
0.00371778
0.00344629
0.00327133
0.00313134
0.00294003
0.00260233
0.00200562
0.0011564
0.000350121
6.23078e-06
3.69156e-05
6.15354e-05
0.000128072
0.000214873
0.000264858
0.000753258
0.00146068
0.00212309
0.00278159
0.00344762
0.00406674
0.00447377
0.00476309
0.00458613
0.00373948
0.00240769
0.00373475
0.00438379
0.00453541
0.00457023
0.00456763
0.00457184
0.0046353
0.00474732
0.00482831
0.00477571
0.00451218
0.0040756
0.00361209
0.00324662
0.00303203
0.00295652
0.00291275
0.00269668
0.00214549
0.00132441
0.000514128
5.60191e-05
9.95458e-05
4.43346e-05
0.000151338
0.000321382
0.000114131
0.000355048
8.73199e-05
0.000344826
0.00102049
0.00162555
0.00256526
0.00378162
0.00337252
0.00411254
0.0048981
0.00499793
0.00495072
0.00483571
0.00467651
0.00452951
0.00445962
0.00450763
0.00466695
0.00488537
0.00509658
0.00525073
0.0053133
0.00525997
0.00508814
0.00481984
0.00449513
0.00415913
0.00384571
0.00356069
0.00327993
0.00297377
0.00264613
0.00228844
0.00188806
0.00143071
0.00089871
0.000311556
7.58203e-05
0.00022415
0.00030098
0.00028467
0.000164783
0.000286883
0.00456908
0.00489014
0.00485506
0.00476033
0.0046384
0.00453437
0.00448438
0.00444493
0.0043861
0.00432233
0.00427713
0.00426436
0.00428486
0.00433084
0.00439016
0.00444878
0.00449293
0.00450984
0.00448869
0.00442379
0.00431795
0.00418306
0.00403198
0.00387336
0.00371047
0.0035398
0.00334742
0.00310851
0.00278366
0.00243559
0.00181828
0.000583313
0.000139735
0.00045406
0.00482271
0.00478491
0.00497824
0.00492462
0.00481474
0.00465624
0.0044974
0.00446588
0.0045626
0.0046823
0.00477152
0.00482451
0.00484831
0.00485181
0.00484195
0.00482197
0.00479159
0.0047482
0.00468842
0.00460919
0.00450843
0.0043852
0.00424031
0.00407603
0.00389661
0.00370661
0.00350425
0.00326953
0.00295086
0.00251665
0.00173143
0.000240524
0.00010222
0.000491366
0.00305015
0.0061619
0.00497303
0.0052124
0.00518405
0.00507347
0.00488794
0.00462076
0.0043928
0.00436111
0.00448071
0.00463668
0.00477659
0.00489195
0.00498543
0.00505933
0.00511439
0.0051496
0.00516174
0.00514519
0.00509355
0.00500237
0.0048715
0.00470495
0.004506
0.00426925
0.00398768
0.0037009
0.00351611
0.00347195
0.00343218
0.00318694
0.00238815
0.00087048
0.000685912
0.00143661
0.0027556
0.00514703
0.00517923
0.00514706
0.00506749
0.0049241
0.00468544
0.00437989
0.00419196
0.00421441
0.00434389
0.00448532
0.00460894
0.00471218
0.00479585
0.00485972
0.00490259
0.00492133
0.00490965
0.00486024
0.00476824
0.00463624
0.0044725
0.00427127
0.00401382
0.00377775
0.0037645
0.00382015
0.00384687
0.00384451
0.00379521
0.00361395
0.00310334
0.00226802
0.00208604
0.00260288
0.0050179
0.00528193
0.00534413
0.00531704
0.0052173
0.00501162
0.00465969
0.00427256
0.00408847
0.00411764
0.00422674
0.00433753
0.00443242
0.00451136
0.00457526
0.00462252
0.00464863
0.00464395
0.00459063
0.00446418
0.00424619
0.0039358
0.00357046
0.00330734
0.00326251
0.00329053
0.00333375
0.00339262
0.00346407
0.00353234
0.00355709
0.00345027
0.003135
0.00279297
0.00249772
0.00540596
0.00551803
0.00553301
0.00549703
0.00540232
0.00521712
0.00491231
0.00451806
0.0042308
0.00418775
0.00428282
0.00439549
0.00448678
0.00455474
0.00460293
0.00463512
0.00465553
0.00466699
0.00466535
0.00463605
0.00456903
0.00446561
0.00431953
0.00412289
0.00388922
0.00361636
0.00327386
0.00286679
0.00251572
0.00235444
0.00236751
0.00242847
0.00237797
0.00219925
0.00180301
0.0052684
0.00530038
0.00537721
0.00541858
0.00541616
0.00534063
0.00514401
0.00477722
0.00433145
0.0040955
0.00413897
0.00429266
0.00443969
0.0045527
0.00463319
0.0046851
0.00471131
0.00471464
0.00469829
0.00466506
0.00461627
0.00455152
0.00446883
0.00436471
0.00423507
0.00407642
0.00388565
0.00365803
0.00338887
0.00309241
0.00281798
0.00261211
0.00242025
0.00207363
0.00141667
0.0051854
0.0054611
0.00558973
0.00563731
0.00563694
0.00557928
0.00543597
0.00514942
0.00466476
0.00416437
0.0039755
0.00406998
0.00424079
0.00438987
0.00450459
0.00459048
0.00465142
0.00468873
0.0047019
0.00468993
0.00465252
0.0045903
0.00450457
0.00439681
0.00426816
0.00411808
0.00394182
0.00372856
0.00346099
0.00312027
0.00272105
0.00238382
0.00221374
0.00207495
0.00190463
0.00532939
0.00553742
0.0056119
0.00563681
0.00563018
0.00558292
0.00547869
0.00529258
0.0049634
0.00445058
0.00401008
0.00391803
0.0040582
0.00423567
0.00438176
0.00449384
0.00457881
0.00464192
0.0046833
0.00470019
0.00469096
0.00465484
0.00459173
0.00450225
0.0043881
0.00425257
0.00409909
0.00392318
0.00370857
0.00342434
0.00302381
0.00252253
0.00214154
0.00199147
0.00201863
0.0054054
0.00547615
0.00556251
0.00560268
0.00560394
0.00555683
0.00545338
0.00529976
0.00509435
0.0047729
0.00431068
0.00398164
0.00394577
0.00405733
0.00418665
0.00429688
0.00438554
0.00445607
0.00450974
0.00454403
0.00455622
0.00454458
0.00450831
0.00444751
0.00436338
0.00425861
0.00413804
0.00399742
0.00381627
0.00355846
0.0031702
0.00263449
0.00216826
0.00205455
0.00234553
0.00537656
0.00567666
0.00578597
0.005812
0.00578712
0.00570424
0.0055496
0.00532308
0.005041
0.00471367
0.00433466
0.00402465
0.00397091
0.00407704
0.00419696
0.00429245
0.00436806
0.0044296
0.00447586
0.00450303
0.00450858
0.00449101
0.00444966
0.00438463
0.00429687
0.00418842
0.00406281
0.00392569
0.00375987
0.00351461
0.00312077
0.00255528
0.00206006
0.00202784
0.00252455
0.00580945
0.00570491
0.00567326
0.0056468
0.00559447
0.00549258
0.00533724
0.0051556
0.00495066
0.00468018
0.00430661
0.00390856
0.00374632
0.00383399
0.00397758
0.00409675
0.00419131
0.00427084
0.00433615
0.0043828
0.00440793
0.0044099
0.00438811
0.00434283
0.00427514
0.004187
0.00408145
0.0039609
0.00380563
0.00356413
0.00317235
0.00259244
0.00203255
0.00200965
0.00250457
0.00604686
0.0058267
0.00578812
0.0057508
0.00566842
0.00550521
0.00525385
0.00497417
0.0047391
0.00454924
0.00434943
0.00410514
0.00392304
0.00391183
0.00398176
0.00405747
0.00412405
0.00418306
0.00423366
0.00427078
0.00429089
0.00429185
0.00427276
0.00423388
0.00417652
0.00410297
0.00401633
0.00391303
0.00377705
0.00358106
0.00328134
0.00282118
0.00227475
0.00209937
0.00231174
0.00608056
0.00573594
0.00565734
0.00561126
0.00553292
0.00538004
0.00514043
0.00484708
0.00454004
0.00424838
0.0039987
0.00382939
0.00378112
0.00383881
0.00392456
0.00400095
0.00406498
0.00411973
0.0041655
0.004199
0.00421702
0.00421763
0.00420013
0.0041651
0.00411435
0.00405084
0.00397436
0.00388079
0.00376453
0.00361442
0.00340577
0.00309189
0.0026544
0.0023534
0.00223631
0.00612852
0.0056844
0.0055867
0.00552358
0.00541548
0.00521789
0.00494036
0.00466232
0.00443376
0.00422956
0.00402244
0.00384364
0.00377239
0.00381089
0.0038835
0.00395326
0.0040143
0.0040666
0.00410951
0.00414062
0.00415672
0.00415585
0.0041374
0.00410225
0.00405207
0.00398823
0.00391153
0.00382152
0.00371584
0.00358866
0.00342636
0.00319557
0.00284725
0.00254259
0.00243837
0.00572213
0.00554514
0.00556615
0.00557963
0.00553801
0.00539121
0.00510321
0.00471173
0.00433274
0.00404295
0.00384369
0.00372509
0.00369864
0.00375178
0.00383064
0.00390496
0.00396962
0.00402642
0.00407487
0.00411074
0.00413049
0.00413182
0.00411364
0.00407618
0.00402135
0.00395232
0.00387055
0.0037739
0.00365533
0.00350007
0.00328861
0.00303429
0.00279805
0.00269511
0.00286534
0.00529501
0.00530679
0.00537488
0.005419
0.0054286
0.00537386
0.00521687
0.00493615
0.00457035
0.00420409
0.0038983
0.00368821
0.00360719
0.00364451
0.00372977
0.003814
0.00388877
0.00395707
0.00401761
0.00406526
0.00409587
0.00410641
0.00409501
0.00406106
0.00400532
0.00393022
0.00384032
0.00372959
0.00357131
0.00332073
0.0029662
0.00265611
0.00258351
0.00267597
0.00305238
0.00524582
0.00541202
0.00551849
0.00557733
0.00559094
0.00553141
0.00536281
0.00506327
0.00466378
0.00425221
0.00390499
0.00365257
0.00352054
0.00352268
0.00360537
0.00370123
0.00378853
0.00386966
0.00394519
0.00400922
0.00405677
0.00408397
0.00408809
0.00406762
0.00402237
0.00395356
0.0038641
0.00374034
0.00353843
0.00320518
0.00274682
0.00233799
0.00222984
0.00233578
0.0027015
0.00490293
0.0051282
0.00526781
0.00536646
0.00544773
0.00549769
0.00548278
0.00534912
0.00504669
0.00460719
0.00414924
0.00376805
0.00350903
0.00340679
0.00344408
0.00353982
0.00363996
0.00373458
0.00382551
0.00390883
0.00397852
0.00402969
0.00405869
0.00406319
0.00404211
0.00399564
0.003923
0.00381045
0.00362233
0.00331304
0.00285918
0.00235843
0.00206629
0.00203844
0.00224473
0.00518727
0.00530277
0.00536099
0.00539151
0.00540092
0.00537967
0.00531603
0.00519804
0.00500082
0.00469463
0.00430579
0.00391752
0.00359895
0.00340165
0.00335582
0.00341559
0.0035087
0.00360364
0.00369885
0.00379342
0.00387989
0.003952
0.00400468
0.00403424
0.00403856
0.00401708
0.00396815
0.00388218
0.00373734
0.00349798
0.00312342
0.00262716
0.0021892
0.00201068
0.00201533
0.00519821
0.00519762
0.00524351
0.00528345
0.00531109
0.00530945
0.00525906
0.00514604
0.00496083
0.00469452
0.00435561
0.003992
0.00366295
0.00341727
0.00329961
0.00330755
0.00338041
0.00346946
0.00356417
0.00366473
0.0037641
0.00385385
0.00392697
0.00397827
0.0040045
0.0040043
0.00397633
0.00391399
0.00380328
0.00361813
0.00331954
0.00288035
0.00239779
0.00212784
0.00197475
0.00535272
0.00520377
0.00518639
0.00518397
0.00517142
0.00513017
0.00504988
0.0049339
0.00478285
0.00458446
0.00432937
0.00403481
0.00374101
0.00348837
0.00331879
0.00326097
0.00329232
0.00336285
0.00344661
0.00353999
0.00364029
0.00373837
0.00382564
0.00389489
0.0039407
0.00395971
0.00394947
0.00390558
0.00381813
0.00366716
0.00341748
0.00303391
0.00257125
0.00225934
0.00202058
0.00529669
0.00509547
0.00508244
0.00509009
0.00508476
0.00503682
0.00492788
0.0047689
0.00458656
0.00439442
0.00418795
0.00396199
0.00372625
0.00350412
0.00332784
0.00323057
0.00321991
0.00326386
0.00333125
0.00341041
0.00349982
0.00359782
0.00369719
0.00378575
0.00385208
0.00388972
0.00389589
0.00386752
0.00379734
0.00366825
0.00344964
0.00310966
0.00268953
0.0023725
0.00211105
0.0051222
0.00495806
0.00495205
0.00495935
0.00495572
0.00491756
0.00482571
0.00468076
0.00450289
0.00431449
0.00412623
0.00393698
0.00374399
0.0035511
0.00337439
0.00324049
0.00317665
0.00317925
0.00322098
0.00328148
0.0033545
0.00344018
0.0035367
0.00363521
0.0037212
0.00378135
0.00380828
0.00379857
0.00374614
0.00363682
0.00344477
0.00314405
0.00277268
0.0024737
0.00223636
0.00495788
0.00489443
0.00492143
0.00494427
0.0049493
0.0049143
0.00481922
0.00466279
0.00446786
0.0042651
0.00407283
0.00389324
0.00372124
0.00355314
0.00339216
0.00324991
0.00315056
0.00311095
0.00312128
0.00315978
0.00321319
0.00327936
0.00335898
0.00345008
0.0035437
0.00362453
0.00367733
0.00369179
0.00366023
0.0035715
0.00340549
0.0031439
0.00282506
0.00255929
0.00238767
0.00474777
0.00482705
0.0049084
0.0049623
0.00499662
0.00499649
0.00493946
0.00480666
0.00460232
0.00436138
0.00412844
0.00392779
0.00375725
0.00360291
0.00345428
0.00330929
0.00318058
0.00309153
0.00305496
0.00306044
0.00309045
0.00313486
0.00319082
0.00325844
0.00333699
0.00341917
0.00349057
0.0035325
0.0035286
0.00346548
0.00332777
0.00310569
0.00283914
0.00261572
0.00254571
0.00466456
0.00487021
0.00501447
0.00510336
0.0051603
0.00517786
0.00514265
0.00503898
0.00485422
0.00459283
0.00428978
0.00399861
0.00375829
0.00357455
0.00343079
0.00330629
0.00319153
0.00309421
0.0030307
0.00300651
0.00301189
0.00303461
0.00306803
0.00311043
0.00316218
0.00322135
0.00328422
0.00333629
0.0033558
0.00332031
0.00321192
0.00302705
0.00280856
0.00263085
0.00268361
0.00457452
0.0049566
0.00521358
0.00536871
0.00546628
0.00550388
0.00547417
0.00537309
0.00520133
0.00496134
0.00465856
0.00431533
0.00397785
0.00369302
0.00347859
0.00332139
0.00319799
0.00309705
0.003022
0.00297994
0.0029685
0.00297701
0.0029957
0.0030197
0.00304789
0.00308123
0.00311955
0.00315593
0.00317693
0.00315923
0.00307816
0.00292749
0.00275018
0.00262096
0.00279574
0.00454656
0.00514511
0.005523
0.00575077
0.00589924
0.00596892
0.00594937
0.00583522
0.00563229
0.00536171
0.00504565
0.00468976
0.00430167
0.00391931
0.00359591
0.00335896
0.00319448
0.00307891
0.00299918
0.00295346
0.00294001
0.00294883
0.00296714
0.0029869
0.00300529
0.00302142
0.00303545
0.00304669
0.00305018
0.00303018
0.00296465
0.00284303
0.00270414
0.00262549
0.00289533
0.00474022
0.00543498
0.00587388
0.00614882
0.00634297
0.0064542
0.00646255
0.00635566
0.00613415
0.00582309
0.00547487
0.0051195
0.00474058
0.00432434
0.00390332
0.00354137
0.0032736
0.0030931
0.00297759
0.00291229
0.0028918
0.00290661
0.00293832
0.00297154
0.00299828
0.00301562
0.00302258
0.00301855
0.003002
0.00296752
0.00290355
0.00280312
0.00269924
0.00266368
0.00298637
0.0051633
0.00577025
0.0061464
0.00639857
0.00660127
0.00673976
0.0067771
0.00669053
0.00647231
0.0061339
0.00573654
0.00535627
0.00500104
0.00462993
0.00421882
0.00379995
0.00343737
0.0031712
0.00299678
0.00289249
0.00284728
0.0028562
0.00290116
0.00295517
0.00300087
0.00303213
0.00304669
0.00304276
0.00301823
0.00297131
0.00290047
0.00281059
0.00273381
0.00272845
0.00305276
0.00603856
0.00623536
0.00640096
0.0065501
0.00670584
0.00682469
0.00685423
0.0067727
0.00657799
0.00627639
0.00590516
0.00553266
0.00518857
0.00484698
0.0044713
0.00405528
0.00364257
0.00330039
0.00305995
0.00290561
0.0028203
0.00280147
0.00284313
0.00291547
0.0029854
0.00303847
0.00307051
0.00307904
0.00306102
0.00301396
0.00293993
0.00285227
0.00278678
0.00279042
0.00307393
0.00678949
0.00646257
0.00642047
0.00648341
0.00660106
0.00667738
0.00665822
0.00654248
0.00634316
0.00607859
0.0057801
0.0054809
0.00518973
0.00488982
0.00455672
0.00417799
0.00377462
0.00340703
0.00312698
0.00293561
0.00281598
0.00276436
0.00278611
0.00286413
0.00295517
0.00303052
0.00308181
0.00310647
0.00310129
0.00306298
0.00299312
0.00290761
0.00284354
0.0028401
0.00305666
0.0067697
0.00622282
0.00610921
0.00619751
0.00635701
0.00643213
0.00641126
0.00632003
0.00617492
0.00598898
0.00577379
0.00553636
0.00527781
0.00499239
0.00466952
0.00430304
0.00390667
0.00352544
0.0032126
0.00298536
0.00283031
0.00274035
0.00272443
0.00278664
0.00289177
0.00299224
0.00306655
0.00311033
0.00312124
0.0030961
0.00303571
0.00295495
0.00288883
0.00287061
0.00301494
0.0057907
0.00541094
0.00540333
0.00563923
0.00589859
0.00604952
0.00611977
0.00612671
0.00607603
0.00597317
0.00582337
0.00563044
0.00539679
0.00512261
0.00480553
0.00444502
0.00405274
0.00366166
0.00331983
0.0030565
0.00286552
0.00273598
0.00267302
0.00269335
0.00278887
0.00291064
0.00301269
0.00308011
0.00311042
0.00310164
0.00305448
0.00298235
0.00291632
0.00288329
0.00296924
0.00470604
0.00461378
0.00468388
0.00489418
0.00515746
0.00540842
0.00563087
0.00580691
0.0059158
0.00594455
0.005893
0.00576928
0.00558366
0.0053437
0.00505219
0.00470969
0.00432277
0.00391394
0.00352736
0.00320578
0.00295803
0.00277498
0.00265264
0.00260502
0.00265138
0.00277281
0.00290795
0.00300914
0.00306541
0.00307634
0.00304479
0.00298412
0.00292168
0.00287573
0.00292184
0.00418771
0.00432945
0.00433016
0.0043235
0.0043688
0.00448941
0.00468823
0.00495773
0.0052546
0.00550735
0.00566306
0.00570811
0.0056543
0.00551701
0.00530767
0.00503179
0.00469167
0.00429803
0.00388327
0.0034956
0.00317208
0.00291813
0.00272581
0.0025953
0.00254686
0.00260053
0.0027334
0.0028776
0.00298142
0.00302934
0.00302364
0.00297871
0.00292149
0.00286745
0.0029058
0.00416763
0.00461341
0.00468691
0.00464703
0.00453612
0.004378
0.00422638
0.00417962
0.00433186
0.00465771
0.00501748
0.00528896
0.00543238
0.00545769
0.00538433
0.00522571
0.00498667
0.00466946
0.00428744
0.00387886
0.00349542
0.00317096
0.00291191
0.00271207
0.00257375
0.00251621
0.00256133
0.00268807
0.00282963
0.00293044
0.00297096
0.00295893
0.00292079
0.00288258
0.00299147
0.00458621
0.00517807
0.00543626
0.00553924
0.00553487
0.00539716
0.00509374
0.00466703
0.0043132
0.00424045
0.00445311
0.00477686
0.00504882
0.00520916
0.00526178
0.00522293
0.0051017
0.00489864
0.00461209
0.00425359
0.00386179
0.00348792
0.00316772
0.00291074
0.00271343
0.00257654
0.00251743
0.00255484
0.00266755
0.00279474
0.00288476
0.00292156
0.00292477
0.00294155
0.00323478
0.00481581
0.00531895
0.00558954
0.00575767
0.00588524
0.00596058
0.00592507
0.0056803
0.00521045
0.00472294
0.00447643
0.00452649
0.00473126
0.00493241
0.00505622
0.00509395
0.00505415
0.0049408
0.00475013
0.00447874
0.00413768
0.00376318
0.00340408
0.00309514
0.00284816
0.002663
0.00254444
0.00250947
0.0025681
0.00268806
0.00280989
0.00289453
0.00295077
0.00305246
0.00360574
0.00493376
0.00536
0.00553396
0.00562927
0.0057141
0.00581839
0.00594663
0.00604131
0.0059684
0.00562888
0.00513602
0.00475725
0.00464447
0.00472924
0.00485901
0.00494114
0.00495497
0.00490138
0.00477935
0.00458309
0.00430947
0.00397134
0.00360415
0.003253
0.00295104
0.00271619
0.00256298
0.00250133
0.00253597
0.00264889
0.00278914
0.00291011
0.00301455
0.00320182
0.00399415
0.00520288
0.00561908
0.00575764
0.00580319
0.00581701
0.00582698
0.00586375
0.00596562
0.00610074
0.00612439
0.00590472
0.00545502
0.00499472
0.00476019