/*--------------------------------*- C++ -*----------------------------------*\
| =========                 |                                                 |
| \\      /  F ield         | OpenFOAM: The Open Source CFD Toolbox           |
|  \\    /   O peration     | Version:  v2006                                 |
|   \\  /    A nd           | Website:  www.openfoam.com                      |
|    \\/     M anipulation  |                                                 |
\*---------------------------------------------------------------------------*/
FoamFile
{
    version     2.0;
    format      ascii;
    class       volScalarField;
    location    "100";
    object      nut;
}
// * * * * * * * * * * * * * * * * * * * * * * * * * * * * * * * * * * * * * //

dimensions      [0 2 -1 0 0 0 0];


internalField   nonuniform List<scalar> 
78750
(
0.000530812
0.00102149
0.000597944
5.97676e-06
2.69214e-05
4.7424e-05
2.89158e-05
4.43258e-05
4.17573e-05
4.98445e-05
5.43876e-05
6.04005e-05
6.61878e-05
7.21488e-05
7.78175e-05
8.34145e-05
8.90917e-05
9.51206e-05
0.000101807
0.000109292
0.000117583
0.000126763
0.000133323
0.000133298
0.000133091
0.000132645
0.000131875
0.000130637
0.000128742
0.000125958
0.000122014
0.00011654
0.000109024
5.82811e-05
1.57875e-06
2.18049e-05
3.6022e-05
3.27826e-05
3.09143e-05
4.40235e-05
3.53853e-05
4.00965e-05
4.0629e-05
4.52039e-05
5.20371e-05
6.4262e-05
8.16022e-05
9.93562e-05
0.000116797
0.000137703
0.000161172
0.000181323
0.000193952
0.000200606
0.000204351
0.000206811
0.000209328
0.000213091
0.000218651
0.000227541
0.000243675
0.000267414
0.00027106
0.000270356
0.000268728
0.00026613
0.00021312
0.000126775
3.89502e-05
1.71229e-06
6.72999e-07
2.14675e-05
2.48696e-05
2.37642e-05
3.5587e-05
6.46018e-05
9.67892e-05
9.69467e-05
7.85775e-05
6.11944e-05
5.16884e-05
5.41611e-05
7.2753e-05
0.000101435
0.000124654
0.000148828
0.000187554
0.000219823
0.00022403
0.000227995
0.000231753
0.000217162
0.000189153
0.000168291
0.000152227
0.000140526
0.000135558
0.000141682
0.000167711
0.000217635
0.000241179
0.000172665
7.55149e-05
2.45584e-05
2.14962e-06
4.68449e-07
7.2318e-06
1.78482e-05
4.57974e-05
8.70216e-05
9.21169e-05
8.68809e-05
8.83717e-05
9.88659e-05
0.000116767
0.000132404
0.000133349
0.000124351
0.000115588
0.000110887
0.000111484
0.000118653
0.000133975
0.000159802
0.000198255
0.000233348
0.000234017
0.000235511
0.000237547
0.000239897
0.000173085
0.000124376
9.45865e-05
7.47734e-05
6.36679e-05
6.23579e-05
6.97777e-05
6.70073e-05
3.2058e-05
2.89983e-06
1.23258e-06
2.41309e-05
0.000130037
0.00019979
0.000201806
0.000203084
0.000204603
0.000206882
0.000210091
0.000213976
0.000217998
0.00021343
0.000202658
0.000191496
0.000174376
0.0001489
0.000120028
9.5185e-05
7.87745e-05
7.15751e-05
7.33323e-05
8.48977e-05
0.000110294
0.00015688
0.000207382
0.000211066
0.000215176
0.000219312
0.00010933
5.58363e-05
3.67881e-05
3.26752e-05
3.37508e-05
3.12952e-05
3.62888e-06
2.00699e-06
1.92958e-05
5.61432e-05
0.000134019
0.000188742
0.000195084
0.000174031
0.000136809
0.000116561
0.000113144
0.000124183
0.000149413
0.000187066
0.000228407
0.000251436
0.000252424
0.000252344
0.000248143
0.000199531
0.000147992
0.000107483
8.15103e-05
6.77198e-05
6.37339e-05
6.91249e-05
8.78723e-05
0.000135879
0.000195349
8.84694e-05
3.55786e-05
2.1803e-05
1.88618e-05
2.46147e-05
4.38764e-05
4.6269e-06
2.22414e-06
2.56953e-05
9.87679e-05
0.000123025
0.000112154
0.000102082
0.00010026
0.000105699
0.000115333
0.000124223
0.000129748
0.000134526
0.000142584
0.000155057
0.000170252
0.000185375
0.000197279
0.000203458
0.000202636
0.000192783
0.000172211
0.000142577
0.000109276
7.8847e-05
5.5188e-05
3.92504e-05
3.04419e-05
2.78016e-05
3.35867e-05
4.89907e-05
2.24494e-05
1.14165e-05
9.76972e-06
1.70946e-05
5.004e-06
2.29373e-06
2.11587e-05
7.793e-05
0.000120857
0.000123726
0.000117528
0.000112798
0.000111257
0.000111589
0.00011199
0.000111381
0.000110148
0.000110074
0.000113221
0.000120744
0.000132471
0.000147219
0.000163506
0.000180231
0.000196758
0.000212288
0.000223528
0.000224739
0.000223805
0.000203546
0.000172383
0.000138371
0.000109189
8.08452e-05
4.39025e-05
2.39668e-05
2.3421e-05
1.83914e-05
9.27663e-06
3.91094e-06
3.13466e-06
4.04586e-05
0.000112989
0.000113891
0.000103445
9.98976e-05
0.000106191
0.000121004
0.000140735
0.00015983
0.000173453
0.000179637
0.000178908
0.00017364
0.000167324
0.000162909
0.000161492
0.000162513
0.000164848
0.000167761
0.000171185
0.000175474
0.000181007
0.000187758
0.000194979
0.00020111
0.000203901
0.000199515
0.000182308
0.000148923
0.000101871
5.70499e-05
2.84059e-05
1.52145e-05
3.15148e-06
2.55971e-06
2.46126e-05
6.3057e-05
7.09976e-05
6.81295e-05
6.50756e-05
6.58016e-05
7.17127e-05
8.29454e-05
9.76343e-05
0.000111171
0.00011921
0.000121593
0.000120838
0.000119157
0.000118105
0.000118918
0.000122209
0.000127531
0.000133542
0.000138819
0.000142597
0.000144891
0.00014613
0.000146778
0.000146973
0.000146086
0.000142281
0.00013021
9.78778e-05
5.33577e-05
3.13823e-05
2.58483e-05
1.77722e-05
2.93528e-06
2.77288e-06
2.05228e-05
5.57921e-05
6.30785e-05
5.75048e-05
5.16437e-05
4.87652e-05
4.93138e-05
5.35953e-05
6.23023e-05
7.61021e-05
9.47216e-05
0.000115652
0.000133611
0.000142642
0.000140479
0.000131112
0.000121209
0.000114933
0.000113055
0.000114482
0.000117535
0.00012075
0.000123418
0.00012559
0.00012762
0.000129467
0.000129799
0.000125361
0.000109616
7.34826e-05
3.88509e-05
2.46962e-05
2.07423e-05
3.42141e-06
3.34025e-06
2.61289e-05
7.08273e-05
7.77841e-05
6.7463e-05
5.56949e-05
4.83618e-05
4.68375e-05
5.10156e-05
6.05231e-05
7.45594e-05
9.19711e-05
0.00011153
0.00013177
0.000150786
0.000166189
0.000175675
0.000177599
0.000171733
0.00016041
0.000147502
0.000136313
0.000128241
0.000122633
0.000117996
0.000113198
0.000108211
0.000103439
9.78289e-05
8.69239e-05
6.28065e-05
3.46504e-05
2.3378e-05
2.61565e-05
4.12627e-06
3.17674e-06
2.18366e-05
5.77537e-05
6.28028e-05
5.44929e-05
4.52026e-05
3.68094e-05
2.99861e-05
2.81558e-05
3.36324e-05
4.68573e-05
6.64034e-05
8.9197e-05
0.000113127
0.000137833
0.000162515
0.000184054
0.000198895
0.000206191
0.000207124
0.000202218
0.000192795
0.000181453
0.000169501
0.000156921
0.000143339
0.000128633
0.000113472
9.86937e-05
8.23182e-05
5.85138e-05
3.16873e-05
2.12704e-05
3.01204e-05
4.8193e-06
3.40115e-06
2.22819e-05
5.43187e-05
5.71351e-05
4.89094e-05
4.14308e-05
3.662e-05
3.1315e-05
2.37283e-05
2.07938e-05
2.72618e-05
4.37147e-05
6.79467e-05
9.46297e-05
0.000120201
0.000144336
0.000166733
0.000185765
0.000199516
0.000206826
0.000207172
0.000201282
0.000190878
0.000177799
0.000163229
0.000147556
0.000130752
0.000112838
9.40708e-05
7.38861e-05
5.03821e-05
2.84151e-05
2.15982e-05
4.11171e-05
5.38312e-06
3.72432e-06
2.09139e-05
4.57609e-05
4.72427e-05
4.10568e-05
3.51326e-05
3.19238e-05
3.06321e-05
2.83992e-05
2.40516e-05
2.42231e-05
3.38611e-05
5.33076e-05
7.81788e-05
0.000102584
0.000125022
0.000146474
0.000167089
0.000185049
0.000197726
0.000203015
0.000200683
0.000192277
0.000179814
0.000164795
0.000148054
0.000129968
0.00011063
8.99654e-05
6.79232e-05
4.51084e-05
2.6839e-05
2.29295e-05
5.38342e-05
5.88893e-06
3.7726e-06
1.833e-05
4.31107e-05
4.66185e-05
4.16878e-05
3.58759e-05
3.16042e-05
2.90877e-05
2.74737e-05
2.48167e-05
2.14109e-05
2.30052e-05
3.36296e-05
5.39486e-05
8.02621e-05
0.000106899
0.000131624
0.000154444
0.000174577
0.000189908
0.000198376
0.000199018
0.000192398
0.000179978
0.000163372
0.000144052
0.000123305
0.000102137
8.11825e-05
6.08087e-05
4.17426e-05
2.77348e-05
2.71818e-05
6.32942e-05
6.35612e-06
4.4561e-06
2.40778e-05
5.96267e-05
6.57226e-05
5.98805e-05
5.13775e-05
4.42785e-05
3.98025e-05
3.73795e-05
3.51852e-05
3.1312e-05
2.76308e-05
2.97421e-05
4.09588e-05
6.11284e-05
8.71427e-05
0.00011503
0.000142141
0.000166459
0.000185402
0.00019678
0.000199879
0.000195323
0.000184296
0.000167966
0.000147506
0.00012442
0.000100607
7.79426e-05
5.76947e-05
4.07544e-05
2.96709e-05
3.18608e-05
6.46474e-05
6.84333e-06
4.90822e-06
3.06338e-05
7.20487e-05
7.93389e-05
7.64342e-05
6.94563e-05
6.10485e-05
5.38567e-05
4.94045e-05
4.71583e-05
4.4817e-05
4.08846e-05
3.85617e-05
4.30365e-05
5.64294e-05
7.71251e-05
0.000101679
0.000127564
0.000152696
0.00017348
0.000186291
0.00018993
0.000185738
0.000175778
0.000161345
0.000142928
0.000121085
9.7388e-05
7.45322e-05
5.50571e-05
4.02577e-05
3.19147e-05
3.71526e-05
6.61328e-05
7.45143e-06
4.92417e-06
3.36508e-05
7.3349e-05
7.9307e-05
7.96646e-05
7.84594e-05
7.51819e-05
6.96299e-05
6.35563e-05
5.89314e-05
5.5781e-05
5.26379e-05
4.93621e-05
4.92907e-05
5.6444e-05
7.20483e-05
9.3578e-05
0.00011703
0.000139458
0.000158008
0.000169513
0.000172514
0.000168129
0.00015872
0.000146099
0.000130825
0.000112686
9.19607e-05
7.06531e-05
5.21666e-05
3.91662e-05
3.35801e-05
4.23922e-05
6.74394e-05
7.86039e-06
4.63165e-06
3.32909e-05
7.26158e-05
7.7406e-05
7.83292e-05
7.96604e-05
8.068e-05
7.9822e-05
7.63771e-05
7.156e-05
6.72473e-05
6.40174e-05
6.1209e-05
5.89444e-05
5.94906e-05
6.57629e-05
7.88626e-05
9.73744e-05
0.000118383
0.000138499
0.000153418
0.000159236
0.000155445
0.000144606
0.000130059
0.000114121
9.75191e-05
8.01227e-05
6.26392e-05
4.75721e-05
3.78619e-05
3.63282e-05
5.06161e-05
6.70214e-05
8.14559e-06
4.38685e-06
3.62644e-05
7.56223e-05
7.9886e-05
8.16282e-05
8.47265e-05
8.80994e-05
9.01769e-05
8.97918e-05
8.66431e-05
8.16148e-05
7.62723e-05
7.1748e-05
6.85034e-05
6.71363e-05
6.89331e-05
7.49563e-05
8.4645e-05
9.63148e-05
0.00010914
0.000122764
0.000134681
0.000139488
0.000133241
0.00011787
9.89113e-05
8.09987e-05
6.58621e-05
5.31454e-05
4.27261e-05
3.63526e-05
3.81606e-05
5.70989e-05
5.4898e-05
8.07056e-06
4.09483e-06
3.83499e-05
7.62619e-05
7.87987e-05
8.06134e-05
8.56087e-05
9.19254e-05
9.74812e-05
0.000100963
0.000101624
9.92488e-05
9.43014e-05
8.78604e-05
8.11786e-05
7.54861e-05
7.22151e-05
7.3179e-05
7.95648e-05
8.95322e-05
9.76648e-05
0.000101138
0.000102801
0.000105103
0.000106417
0.000102226
9.01616e-05
7.36282e-05
5.8299e-05
4.73493e-05
4.11309e-05
3.98724e-05
4.7429e-05
7.29911e-05
5.28832e-05
8.03447e-06
3.79318e-06
3.89776e-05
7.31892e-05
7.1222e-05
7.15778e-05
7.73668e-05
8.57596e-05
9.41576e-05
0.000101334
0.000106747
0.000109894
0.000110248
0.000107468
0.000101679
9.36744e-05
8.47189e-05
7.64703e-05
7.09271e-05
7.01997e-05
7.59451e-05
8.66479e-05
9.46243e-05
9.44351e-05
8.98076e-05
8.41396e-05
7.67097e-05
6.61568e-05
5.38357e-05
4.30384e-05
3.65483e-05
3.66546e-05
4.78039e-05
7.55968e-05
4.14959e-05
7.54451e-06
4.00922e-06
4.51856e-05
7.92285e-05
6.64033e-05
6.0877e-05
6.46919e-05
7.40712e-05
8.50553e-05
9.48248e-05
0.000102492
0.000108404
0.000112969
0.000116106
0.000117197
0.000115343
0.000109945
0.000101103
8.99908e-05
7.88793e-05
7.02066e-05
6.58339e-05
6.68723e-05
7.25993e-05
7.81194e-05
7.81213e-05
7.3514e-05
6.66267e-05
5.83404e-05
5.01218e-05
4.41759e-05
4.33183e-05
5.31235e-05
8.03759e-05
4.50175e-05
7.69325e-06
4.78264e-06
5.77901e-05
0.000102545
7.24491e-05
5.61626e-05
5.32489e-05
5.80174e-05
6.73897e-05
7.95629e-05
9.23091e-05
0.000102902
0.000109813
0.000113635
0.000115799
0.000117182
0.000117691
0.000116395
0.00011176
0.000102714
9.04247e-05
7.77072e-05
6.72506e-05
6.0755e-05
5.87907e-05
6.01901e-05
6.10086e-05
5.76096e-05
5.05869e-05
4.27893e-05
3.78875e-05
3.96736e-05
5.28908e-05
7.98022e-05
4.29385e-05
7.45456e-06
6.06976e-06
6.42683e-05
0.000123272
8.71618e-05
6.09437e-05
5.0165e-05
4.74186e-05
4.85574e-05
5.27007e-05
6.01616e-05
7.10346e-05
8.42481e-05
9.71367e-05
0.000106564
0.000111272
0.000112312
0.000111353
0.00010956
0.000106992
0.00010227
9.3806e-05
8.20636e-05
6.97536e-05
5.9706e-05
5.35458e-05
5.18559e-05
5.37473e-05
5.58307e-05
5.53275e-05
5.28995e-05
5.26044e-05
6.15629e-05
8.398e-05
4.86286e-05
7.71474e-06
6.60864e-06
5.34283e-05
0.000100731
8.80493e-05
7.0968e-05
5.78568e-05
4.89266e-05
4.29198e-05
3.94608e-05
3.86761e-05
4.08254e-05
4.6381e-05
5.60847e-05
7.04638e-05
8.81245e-05
0.000104336
0.000113935
0.000115901
0.000112563
0.000106996
0.000101208
9.51992e-05
8.72231e-05
7.59479e-05
6.30586e-05
5.14757e-05
4.29346e-05
3.77756e-05
3.47227e-05
3.27195e-05
3.36225e-05
4.21973e-05
6.50168e-05
4.49925e-05
7.77985e-06
6.43195e-06
3.45689e-05
5.93293e-05
6.45813e-05
6.45707e-05
6.07843e-05
5.43377e-05
4.69306e-05
3.98938e-05
3.40046e-05
2.96971e-05
2.72517e-05
2.6969e-05
2.93438e-05
3.51304e-05
4.53824e-05
6.05554e-05
7.86811e-05
9.44338e-05
0.000102614
0.000101818
9.35453e-05
8.18961e-05
7.0857e-05
6.20552e-05
5.51571e-05
4.95786e-05
4.6283e-05
4.71115e-05
5.22239e-05
5.84477e-05
6.71536e-05
8.21538e-05
4.75443e-05
8.0926e-06
5.47062e-06
1.90451e-05
4.06528e-05
5.47284e-05
5.93182e-05
5.94111e-05
5.73207e-05
5.39767e-05
4.97386e-05
4.47968e-05
3.93927e-05
3.38323e-05
2.84251e-05
2.35474e-05
1.98709e-05
1.84448e-05
2.05558e-05
2.79697e-05
4.29966e-05
6.66458e-05
9.27121e-05
0.000110374
0.000117166
0.000112626
9.33906e-05
6.66775e-05
4.51731e-05
3.15993e-05
2.33229e-05
2.01576e-05
2.24761e-05
3.26303e-05
5.60758e-05
4.38746e-05
8.09047e-06
4.65203e-06
1.70652e-05
5.19138e-05
8.12536e-05
8.88924e-05
8.8552e-05
8.51133e-05
8.02785e-05
7.4601e-05
6.81645e-05
6.07067e-05
5.18684e-05
4.21958e-05
3.28544e-05
2.44914e-05
1.66094e-05
9.25557e-06
7.53802e-06
1.18585e-05
2.23433e-05
4.07209e-05
6.48129e-05
8.27587e-05
8.37197e-05
7.37857e-05
6.26161e-05
5.24356e-05
4.48277e-05
4.13788e-05
4.07334e-05
4.31673e-05
5.76131e-05
8.62952e-05
3.55878e-05
8.12072e-06
5.251e-06
2.49367e-05
8.09722e-05
0.000124875
0.000127036
0.000114364
9.8698e-05
8.3206e-05
7.00776e-05
6.49476e-05
7.29095e-05
9.14751e-05
8.9772e-05
5.81699e-05
3.3577e-05
1.85074e-05
5.76448e-06
9.82932e-07
1.30975e-06
8.56222e-07
1.17681e-05
3.2802e-05
5.93836e-05
7.42251e-05
6.39254e-05
4.58897e-05
3.38381e-05
2.88498e-05
3.05558e-05
4.25221e-05
7.06251e-05
0.00010031
9.74041e-05
3.38475e-05
7.31471e-06
6.13507e-06
3.48073e-05
8.54438e-05
8.51819e-05
7.42682e-05
6.34968e-05
5.588e-05
5.06423e-05
4.57157e-05
4.38624e-05
5.31494e-05
7.71169e-05
8.0943e-05
5.0089e-05
2.53794e-05
9.6867e-06
4.70449e-06
6.17817e-07
7.68879e-07
9.63694e-07
4.41119e-06
1.52426e-05
3.33358e-05
5.7675e-05
8.51804e-05
8.34406e-05
6.25762e-05
4.55776e-05
3.643e-05
3.47674e-05
4.0125e-05
4.78621e-05
5.42238e-05
2.64441e-05
7.40183e-06
6.29635e-06
3.72659e-05
7.55051e-05
7.38112e-05
6.52701e-05
5.94834e-05
5.66584e-05
5.44354e-05
5.42575e-05
5.85293e-05
6.7372e-05
7.78845e-05
8.44702e-05
8.10111e-05
6.44057e-05
4.05096e-05
2.0564e-05
6.0881e-06
9.17821e-08
4.27462e-07
5.9642e-07
1.09782e-06
1.71905e-06
2.15903e-06
6.90575e-06
1.60707e-05
2.77321e-05
3.83749e-05
5.12013e-05
8.28761e-05
0.00010346
6.87837e-05
5.67534e-05
4.13272e-05
3.40883e-06
6.22331e-06
3.86346e-05
0.000124167
0.000110751
7.55468e-05
5.9891e-05
6.19196e-05
7.45753e-05
8.12716e-05
7.16605e-05
5.99293e-05
5.33771e-05
5.12235e-05
5.22e-05
5.53704e-05
5.84629e-05
5.85319e-05
5.30703e-05
4.07085e-05
2.38972e-05
7.82148e-06
6.35167e-07
8.98463e-07
3.56559e-07
1.16276e-06
2.49791e-06
9.3954e-07
3.06792e-06
7.59842e-07
2.97667e-06
9.05199e-06
1.50028e-05
2.59296e-05
2.01911e-05
4.74746e-06
6.55702e-06
3.51511e-05
0.000102338
0.00010293
7.26372e-05
5.2659e-05
4.73589e-05
5.17832e-05
6.38419e-05
8.41929e-05
0.00011186
0.000135794
0.00014016
0.000126049
0.000106531
8.95851e-05
7.64356e-05
6.65596e-05
5.99159e-05
5.69851e-05
5.81788e-05
6.29046e-05
6.8126e-05
6.67772e-05
5.42785e-05
3.79865e-05
2.43175e-05
1.34095e-05
4.32578e-06
8.77859e-07
1.93766e-06
3.15521e-06
3.24268e-06
1.20789e-06
4.11739e-07
6.79153e-06
3.3668e-05
8.76083e-05
7.85674e-05
5.35651e-05
4.20249e-05
4.35214e-05
5.33729e-05
6.66734e-05
8.04884e-05
9.5413e-05
0.000113126
0.000133891
0.000155489
0.000173455
0.000182381
0.000178171
0.000161676
0.000139557
0.000119084
0.000103846
9.40581e-05
8.84015e-05
8.54558e-05
8.42745e-05
8.45685e-05
8.62302e-05
8.84723e-05
8.04949e-05
9.25285e-05
4.04286e-05
6.74424e-06
4.49655e-07
1.52195e-06
6.73031e-06
6.92524e-06
3.39758e-05
9.63958e-05
8.79452e-05
5.53492e-05
3.92344e-05
4.00772e-05
5.58969e-05
8.34367e-05
0.000107272
0.000118972
0.000124123
0.000128363
0.000134432
0.000143444
0.000155719
0.000170968
0.000188098
0.00020499
0.000218782
0.000227052
0.000229166
0.000226443
0.000220442
0.000209708
0.000189087
0.000160783
0.000135971
0.00011457
2.26771e-05
8.44145e-07
2.84187e-07
2.62489e-06
5.27328e-05
8.02522e-06
6.9114e-06
3.16134e-05
8.5632e-05
8.74603e-05
6.12537e-05
3.95319e-05
3.2356e-05
3.75508e-05
5.60839e-05
8.95906e-05
0.000131482
0.000167857
0.00019095
0.000201536
0.000203866
0.000202691
0.000201721
0.000203084
0.00020747
0.000214434
0.000221996
0.000225086
0.00021269
0.000173739
0.00012375
9.15295e-05
8.18272e-05
8.64693e-05
9.34207e-05
7.8122e-05
2.18862e-05
3.82831e-06
3.66525e-06
2.26608e-05
3.89547e-06
6.91335e-06
3.09064e-05
8.43132e-05
8.84933e-05
6.68705e-05
4.29553e-05
3.08399e-05
3.05591e-05
4.23652e-05
6.92949e-05
0.000108876
0.000150766
0.000188956
0.000222559
0.000250265
0.000265707
0.000266242
0.000265919
0.000264533
0.000261937
0.000258178
0.000228981
0.000152859
7.99357e-05
5.4008e-05
6.47745e-05
0.000118935
0.000186608
0.000182294
0.000131847
7.52134e-05
3.51127e-05
1.84206e-05
1.94445e-05
3.68106e-06
6.8593e-06
3.23603e-05
9.42618e-05
0.000111838
9.84195e-05
6.76622e-05
4.02175e-05
2.93152e-05
3.14718e-05
4.70705e-05
7.97644e-05
0.000122616
0.000158986
0.000184078
0.000200436
0.000209313
0.000210104
0.000202053
0.000187144
0.000169745
0.000148833
0.000116429
8.2575e-05
7.15152e-05
8.58188e-05
0.00010613
0.000113981
0.000119768
0.000121579
0.000106575
7.80712e-05
5.08188e-05
3.36382e-05
2.9459e-05
3.53461e-06
7.09253e-06
3.41746e-05
9.62745e-05
0.000105175
9.06323e-05
6.93792e-05
4.79471e-05
3.38409e-05
3.06221e-05
3.89936e-05
6.16567e-05
9.70482e-05
0.000131039
0.000152828
0.000162936
0.000163362
0.000155489
0.000145622
0.000146514
0.000168395
0.000209238
0.000248741
0.00024851
0.000242514
0.000235208
0.000176929
0.0001115
6.82546e-05
4.79447e-05
4.10936e-05
3.89814e-05
3.61544e-05
3.45138e-05
4.25835e-05
2.56236e-06
7.10738e-06
3.47564e-05
9.78003e-05
0.000113468
0.000105153
8.76321e-05
6.41483e-05
4.22179e-05
3.06928e-05
3.06418e-05
4.25756e-05
6.90477e-05
0.000107498
0.000146653
0.000178729
0.000203565
0.000222632
0.000235815
0.000241104
0.000237548
0.000227695
0.000214032
0.000197765
0.0001817
0.000168857
0.000158849
0.000147994
0.000131018
0.000106448
8.15995e-05
6.13884e-05
4.31403e-05
3.05215e-05
3.00117e-05
2.01809e-06
6.97412e-06
3.46831e-05
0.000106449
0.00012593
0.000115604
9.80594e-05
7.87836e-05
5.65438e-05
3.7315e-05
2.91254e-05
3.29999e-05
5.18775e-05
9.02767e-05
0.000139932
0.0001821
0.000210576
0.000228197
0.000238425
0.000244558
0.000249116
0.000252685
0.000254373
0.000252964
0.000247162
0.0002352
0.0002144
0.00018218
0.00013997
9.56264e-05
5.91568e-05
3.62099e-05
2.62942e-05
2.75366e-05
4.84719e-05
2.70472e-06
7.12043e-06
3.43846e-05
9.99479e-05
0.000119536
0.000108619
9.19283e-05
7.88259e-05
6.74447e-05
5.06867e-05
3.49567e-05
2.99135e-05
3.79257e-05
6.41224e-05
0.000113289
0.000172412
0.000221558
0.000255957
0.000258148
0.000259363
0.000259868
0.000259617
0.000258585
0.000256758
0.000254137
0.000250747
0.00024666
0.00023391
0.000198191
0.00014481
8.73045e-05
4.48369e-05
2.3733e-05
1.88505e-05
3.45373e-05
2.86463e-06
7.14018e-06
3.5116e-05
0.000106123
0.000122449
0.000107639
8.57853e-05
7.02547e-05
6.37225e-05
5.97244e-05
4.84151e-05
3.67028e-05
3.59465e-05
5.08473e-05
8.73475e-05
0.000142775
0.000197791
0.000238952
0.000252735
0.000254325
0.00025534
0.000255703
0.000255367
0.000254303
0.000252505
0.000249993
0.000246828
0.000243133
0.000197002
0.0001353
7.93554e-05
4.14948e-05
2.24833e-05
1.86258e-05
4.22015e-05
3.3219e-06
7.06977e-06
3.3806e-05
0.000101695
0.000126384
0.000114031
9.02212e-05
7.02399e-05
5.90257e-05
5.2903e-05
4.61094e-05
3.78097e-05
3.56623e-05
4.75132e-05
8.35938e-05
0.000148755
0.000216991
0.000250102
0.000251936
0.000253308
0.000254113
0.000254278
0.00025376
0.000252534
0.000250591
0.000247944
0.000244632
0.000240738
0.000236415
0.000155125
7.99862e-05
3.70123e-05
1.86126e-05
1.59088e-05
4.88557e-05
3.57173e-06
7.44013e-06
3.76039e-05
0.000109727
0.000118731
9.61704e-05
7.19032e-05
5.91504e-05
5.76647e-05
6.11954e-05
5.84816e-05
4.6186e-05
3.77056e-05
4.30564e-05
7.10749e-05
0.000130959
0.000203153
0.000244785
0.00024719
0.000249149
0.000250539
0.000251282
0.000251333
0.000250673
0.000249303
0.000247243
0.000244534
0.00024125
0.000228638
0.000143193
7.44261e-05
3.59395e-05
1.87091e-05
1.67856e-05
6.33621e-05
3.54397e-06
7.58409e-06
4.04973e-05
0.000115615
0.000121483
9.87367e-05
7.24403e-05
5.53617e-05
4.86507e-05
4.93258e-05
5.23778e-05
5.12834e-05
4.73589e-05
5.21031e-05
7.79455e-05
0.000132933
0.000197722
0.000242757
0.000244545
0.000246068
0.000247176
0.000247769
0.000247782
0.000247189
0.000245991
0.000244219
0.000241929
0.000239201
0.000199164
0.000132988
7.75738e-05
4.12205e-05
2.28696e-05
2.05056e-05
6.59565e-05
3.27484e-06
7.75662e-06
4.51481e-05
0.000120802
0.000117888
9.10213e-05
6.84775e-05
5.74902e-05
5.42348e-05
5.28788e-05
4.96548e-05
4.55398e-05
4.5118e-05
5.49759e-05
8.40876e-05
0.000135819
0.000190678
0.000229417
0.000242617
0.000244002
0.000245007
0.000245537
0.000245537
0.000244985
0.000243895
0.000242315
0.000238476
0.000208646
0.000169268
0.00012705
8.60348e-05
5.18127e-05
3.06343e-05
2.63503e-05
6.27485e-05
3.16925e-06
7.83303e-06
4.95005e-05
0.000123414
0.000113205
8.55996e-05
6.22314e-05
5.04247e-05
4.88936e-05
5.35671e-05
5.69265e-05
5.4553e-05
5.32539e-05
6.31981e-05
9.25405e-05
0.000139619
0.000185738
0.00021848
0.000238239
0.000242277
0.000243219
0.000243697
0.000243655
0.000243074
0.000241299
0.000228111
0.000209522
0.000185684
0.000156948
0.000124334
8.98091e-05
5.71787e-05
3.3559e-05
2.6329e-05
5.03165e-05
3.45121e-06
7.67063e-06
4.89686e-05
0.000121658
0.000120764
0.000101368
7.80235e-05
5.90716e-05
4.82978e-05
4.49024e-05
4.5858e-05
4.81668e-05
5.26851e-05
6.57338e-05
9.5862e-05
0.0001442
0.000195141
0.000232409
0.00023969
0.00024119
0.00024229
0.000242889
0.000242919
0.000242346
0.000241174
0.000239457
0.000226541
0.000200213
0.000163662
0.00011922
7.47797e-05
4.15482e-05
2.47863e-05
2.41556e-05
6.55786e-05
4.04535e-06
7.41333e-06
4.73366e-05
0.00012395
0.000125334
0.000106127
8.38699e-05
6.64014e-05
5.54806e-05
5.01639e-05
4.84464e-05
4.82147e-05
5.03983e-05
6.07991e-05
8.84968e-05
0.000139783
0.00020135
0.000235305
0.000237473
0.000239376
0.00024086
0.000241804
0.000242121
0.000241755
0.000240684
0.000238923
0.000236535
0.00023365
0.000171248
9.72931e-05
4.87261e-05
2.58295e-05
1.84181e-05
2.6107e-05
0.000100755
4.30526e-06
7.3883e-06
4.6227e-05
0.000122593
0.000128993
0.000114085
9.19594e-05
7.01867e-05
5.45682e-05
4.65531e-05
4.4628e-05
4.61618e-05
4.93402e-05
5.73423e-05
7.8979e-05
0.000124162
0.000187832
0.000232048
0.000234665
0.000237073
0.000239092
0.000240575
0.000241412
0.000241524
0.000240864
0.00023942
0.000237216
0.000234326
0.000153188
7.86795e-05
3.93223e-05
2.18383e-05
1.68409e-05
2.69279e-05
5.60874e-05
3.81845e-06
7.1541e-06
4.45216e-05
0.000123977
0.000132395
0.000118608
0.00010225
8.6774e-05
7.02688e-05
5.55386e-05
4.69283e-05
4.44008e-05
4.56768e-05
5.04288e-05
6.39402e-05
9.60888e-05
0.000151919
0.000212333
0.000230281
0.000233236
0.000235908
0.000238115
0.000239716
0.000240608
0.000240725
0.000240034
0.000238532
0.00021978
0.000145667
8.30933e-05
4.51985e-05
2.60738e-05
1.96469e-05
2.8314e-05
4.83876e-05
3.18139e-06
7.31006e-06
4.47816e-05
0.000125303
0.000129035
0.000107645
8.62371e-05
7.32428e-05
6.62936e-05
6.00364e-05
5.30696e-05
4.84312e-05
4.74819e-05
4.97394e-05
5.76466e-05
7.89763e-05
0.000123274
0.000185531
0.000225983
0.000229131
0.000232213
0.000234993
0.000237282
0.000238932
0.00023984
0.000239948
0.000239239
0.00020816
0.000151771
9.84139e-05
5.91057e-05
3.58703e-05
2.66375e-05
3.4342e-05
6.77364e-05
2.86013e-06
7.36267e-06
4.69854e-05
0.000126879
0.000127407
0.000105829
8.53192e-05
7.29583e-05
6.6733e-05
6.23093e-05
5.71582e-05
5.25074e-05
5.03929e-05
5.11203e-05
5.58353e-05
7.01055e-05
0.00010326
0.000158909
0.000214808
0.00022468
0.000228019
0.000231269
0.000234161
0.000236485
0.000238094
0.000238898
0.000237529
0.000202984
0.000158118
0.000112468
7.3561e-05
4.71223e-05
3.51446e-05
4.25717e-05
9.48331e-05
2.80315e-06
7.38328e-06
4.61547e-05
0.000124502
0.000120463
9.52453e-05
7.35032e-05
6.20803e-05
5.86936e-05
5.9151e-05
5.93082e-05
5.76214e-05
5.58367e-05
5.5576e-05
5.7796e-05
6.60781e-05
8.77282e-05
0.000129489
0.000183198
0.000220716
0.000223876
0.000227217
0.000230431
0.000233248
0.000233552
0.000227975
0.000214995
0.000191656
0.000158667
0.000120159
8.3409e-05
5.60043e-05
4.26334e-05
4.9737e-05
0.000102329
2.86733e-06
7.37383e-06
4.8529e-05
0.000124741
0.000116862
9.21341e-05
7.1697e-05
6.02021e-05
5.58643e-05
5.63042e-05
5.89718e-05
6.1139e-05
6.15636e-05
6.11158e-05
6.15551e-05
6.59466e-05
7.96616e-05
0.000108787
0.000152199
0.000192553
0.000211069
0.00020868
0.00019873
0.000191542
0.000189663
0.000189715
0.000185717
0.000172884
0.00014987
0.000119158
8.69202e-05
6.11558e-05
4.82364e-05
5.55142e-05
9.7848e-05
2.99399e-06
7.1841e-06
4.54162e-05
0.000121198
0.000115743
9.235e-05
7.1793e-05
5.93993e-05
5.36947e-05
5.26962e-05
5.50119e-05
5.91331e-05
6.30835e-05
6.52427e-05
6.5652e-05
6.67422e-05
7.29809e-05
8.97221e-05
0.000119935
0.000156637
0.000181995
0.000185623
0.00017466
0.000161585
0.000153525
0.00015114
0.00015064
0.000146205
0.000133334
0.000111615
8.55846e-05
6.31524e-05
5.1918e-05
5.98927e-05
9.1041e-05
3.16925e-06
7.05465e-06
4.29639e-05
0.000115464
0.000115133
9.56704e-05
7.53094e-05
6.09301e-05
5.29495e-05
5.00214e-05
5.0995e-05
5.48205e-05
6.00495e-05
6.48131e-05
6.76645e-05
6.90014e-05
7.17631e-05
8.06706e-05
0.000100062
0.000129406
0.000157704
0.000170193
0.000164242
0.000148771
0.000133464
0.000123289
0.00011853
0.00011607
0.000110792
9.86792e-05
8.0624e-05
6.30667e-05
5.43976e-05
6.32697e-05
8.23592e-05
3.38056e-06
6.85891e-06
3.93534e-05
0.000110077
0.000117681
0.000104343
8.58331e-05
6.90225e-05
5.68957e-05
4.97792e-05
4.72071e-05
4.87341e-05
5.36838e-05
6.04814e-05
6.65938e-05
7.00922e-05
7.16773e-05
7.49348e-05
8.45212e-05
0.000103491
0.000129033
0.000149995
0.000155822
0.000146479
0.000129346
0.000112252
9.9667e-05
9.21963e-05
8.74767e-05
8.15266e-05
7.16827e-05
6.04752e-05
5.53476e-05
6.5177e-05
7.19963e-05
3.60095e-06
6.73313e-06
3.61918e-05
0.000103277
0.000116585
0.000107941
9.27385e-05
7.70178e-05
6.3966e-05
5.43355e-05
4.80345e-05
4.51511e-05
4.59809e-05
5.06016e-05
5.81163e-05
6.60602e-05
7.16546e-05
7.49221e-05
7.95844e-05
9.03053e-05
0.000108959
0.000130733
0.000145081
0.000145381
0.000133183
0.000114269
9.52414e-05
8.05571e-05
7.10321e-05
6.49704e-05
5.98192e-05
5.48926e-05
5.42972e-05
6.55803e-05
6.0299e-05
3.79296e-06
6.64523e-06
3.48803e-05
0.000100157
0.000119224
0.00011529
0.000103351
8.79776e-05
7.31812e-05
6.16656e-05
5.37472e-05
4.85927e-05
4.58578e-05
4.60553e-05
4.98171e-05
5.6849e-05
6.50725e-05
7.15453e-05
7.58645e-05
8.14501e-05
9.24522e-05
0.000109613
0.00012738
0.00013698
0.000134226
0.000120712
0.000101074
8.12338e-05
6.56272e-05
5.54187e-05
4.95722e-05
4.71982e-05
5.01031e-05
6.33456e-05
5.07389e-05
3.94889e-06
6.59495e-06
3.46201e-05
0.000102717
0.000126575
0.000124723
0.000114909
0.000101023
8.48866e-05
6.99162e-05
5.92638e-05
5.29449e-05
4.91089e-05
4.6714e-05
4.65111e-05
4.98092e-05
5.68626e-05
6.56414e-05
7.28414e-05
7.78825e-05
8.43843e-05
9.6258e-05
0.000112949
0.000127585
0.000132458
0.000125543
0.000109256
8.83027e-05
6.84482e-05
5.36483e-05
4.4772e-05
4.15475e-05
4.53179e-05
6.00385e-05
4.51799e-05
4.08719e-06
6.75832e-06
3.71016e-05
0.00011323
0.000139061
0.000135043
0.000124902
0.000113581
9.94493e-05
8.24796e-05
6.78848e-05
5.94643e-05
5.58302e-05
5.34366e-05
5.07728e-05
4.95534e-05
5.20764e-05
5.88303e-05
6.75215e-05
7.4417e-05
7.91422e-05
8.59517e-05
9.85051e-05
0.000114723
0.000126482
0.000127
0.000115973
9.70575e-05
7.5692e-05
5.7376e-05
4.51738e-05
3.98656e-05
4.28654e-05
5.80303e-05
4.36212e-05
4.2135e-06
7.16228e-06
4.39148e-05
0.000135897
0.000151418
0.00013587
0.000123444
0.000117453
0.000110523
9.62228e-05
7.84669e-05
6.64049e-05
6.22875e-05
6.21231e-05
6.07064e-05
5.71337e-05
5.50472e-05
5.75557e-05
6.46986e-05
7.29171e-05
7.79719e-05
8.12694e-05
8.86243e-05
0.000102668
0.000118113
0.000125084
0.000119268
0.00010335
8.26538e-05
6.29509e-05
4.85728e-05
4.15745e-05
4.39352e-05
5.96315e-05
4.44367e-05
4.3055e-06
7.93989e-06
5.83671e-05
0.000158687
0.000139865
0.000112756
0.000104264
0.000107518
0.000111381
0.000106603
9.32323e-05
8.07125e-05
7.53849e-05
7.54155e-05
7.45836e-05
6.93108e-05
6.28584e-05
6.02603e-05
6.35244e-05
7.07564e-05
7.65836e-05
7.81598e-05
8.01054e-05
8.84287e-05
0.000102917
0.00011505
0.00011596
0.000105007
8.70255e-05
6.80245e-05
5.30813e-05
4.53704e-05
4.77458e-05
6.43655e-05
4.61355e-05
4.33477e-06
8.64045e-06
8.65762e-05
0.000145945
0.000100309
8.36958e-05
8.88065e-05
0.000102389
0.000112299
0.000112666
0.000106979
0.000101875
0.000100251
9.95378e-05
9.47632e-05
8.45402e-05
7.317e-05
6.59053e-05
6.50517e-05
6.94586e-05
7.42876e-05
7.48434e-05
7.31499e-05
7.56432e-05
8.55686e-05
9.86352e-05
0.000105126
0.000100177
8.67118e-05
7.0497e-05
5.68926e-05
4.98291e-05
5.30585e-05
7.06834e-05
4.72968e-05
4.31074e-06
8.73775e-06
0.000109089
9.91625e-05
6.97624e-05
7.29644e-05
9.47595e-05
0.000118162
0.000131372
0.00013571
0.000135889
0.000133748
0.000128808
0.000120312
0.000108033
9.31956e-05
7.90579e-05
6.91664e-05
6.52981e-05
6.67942e-05
7.00806e-05
7.03518e-05
6.70395e-05
6.50089e-05
6.91204e-05
7.94354e-05
8.94017e-05
9.0997e-05
8.32072e-05
7.0716e-05
5.92337e-05
5.34501e-05
5.77765e-05
7.5792e-05
4.73588e-05
4.25284e-06
8.17624e-06
0.000100614
7.79044e-05
6.59738e-05
8.4643e-05
0.000114557
0.000133456
0.000142631
0.000148181
0.000150822
0.000148946
0.000142105
0.000131047
0.000116716
0.000100563
8.51889e-05
7.34899e-05
6.71517e-05
6.60378e-05
6.77315e-05
6.79217e-05
6.42321e-05
5.93271e-05
5.81489e-05
6.33568e-05
7.27306e-05
7.90568e-05
7.71547e-05
6.89775e-05
6.00352e-05
5.57447e-05
6.10478e-05
7.865e-05
4.59983e-05
4.18945e-06
7.29368e-06
6.79097e-05