/*--------------------------------*- C++ -*----------------------------------*\
| =========                 |                                                 |
| \\      /  F ield         | OpenFOAM: The Open Source CFD Toolbox           |
|  \\    /   O peration     | Version:  v2006                                 |
|   \\  /    A nd           | Website:  www.openfoam.com                      |
|    \\/     M anipulation  |                                                 |
\*---------------------------------------------------------------------------*/
FoamFile
{
    version     2.0;
    format      ascii;
    class       surfaceScalarField;
    location    "100";
    object      phi;
}
// * * * * * * * * * * * * * * * * * * * * * * * * * * * * * * * * * * * * * //

dimensions      [1 0 -1 0 0 0 0];
oriented        oriented;


internalField   nonuniform List<scalar> 
228225
(
-0.000308618
-2.09519e-05
-2.23853e-06
-0.000286646
-2.08255e-05
-1.14523e-06
-0.00026077
-2.50977e-05
-7.2697e-07
-0.000232307
-2.84426e-05
7.65291e-08
-0.000204611
-2.8001e-05
4.80166e-07
-0.000179294
-2.59021e-05
7.72345e-07
-0.000156328
-2.39326e-05
1.15386e-06
-0.000135829
-2.17639e-05
1.43422e-06
-0.00011744
-2.00022e-05
1.76094e-06
-0.000101031
-1.82794e-05
2.00067e-06
-8.62461e-05
-1.68634e-05
2.19281e-06
-7.28125e-05
-1.56641e-05
2.33535e-06
-6.04654e-05
-1.46944e-05
2.44591e-06
-4.90209e-05
-1.38874e-05
2.53662e-06
-3.83438e-05
-1.3205e-05
2.61746e-06
-2.83572e-05
-1.25952e-05
2.69429e-06
-1.90496e-05
-1.19956e-05
2.76961e-06
-1.04579e-05
-1.13581e-05
2.84387e-06
-2.6415e-06
-1.06598e-05
2.91652e-06
4.33672e-06
-9.89745e-06
2.98741e-06
1.04148e-05
-9.0729e-06
3.05806e-06
1.55341e-05
-8.19119e-06
3.13163e-06
1.96387e-05
-7.26202e-06
3.21482e-06
2.2666e-05
-6.29145e-06
3.31951e-06
2.45635e-05
-5.30031e-06
3.45897e-06
2.53238e-05
-4.34402e-06
3.64808e-06
2.5014e-05
-3.5057e-06
3.90307e-06
2.37839e-05
-2.87153e-06
4.23827e-06
2.18935e-05
-2.53332e-06
4.66174e-06
1.97089e-05
-2.56312e-06
5.169e-06
1.76134e-05
-2.94127e-06
5.73922e-06
1.57506e-05
-3.43296e-06
6.33297e-06
1.36979e-05
-3.51774e-06
6.87567e-06
9.89128e-06
-1.95601e-06
7.158e-06
6.00781e-06
5.56357e-06
-1.25936e-05
-9.17939e-06
1.17639e-08
-2.49266e-05
-1.00052e-05
4.38755e-07
-3.45671e-05
-1.70352e-05
8.12428e-07
-4.1853e-05
-2.28719e-05
1.27149e-06
-4.52268e-05
-2.59617e-05
1.38192e-06
-4.49872e-05
-2.73058e-05
1.47917e-06
-4.28088e-05
-2.72154e-05
1.55598e-06
-3.94539e-05
-2.62988e-05
1.66684e-06
-3.60354e-05
-2.47582e-05
1.80224e-06
-3.29523e-05
-2.29022e-05
1.94196e-06
-3.04943e-05
-2.10185e-05
2.02686e-06
-2.84961e-05
-1.93929e-05
2.0001e-06
-2.66484e-05
-1.81672e-05
1.84994e-06
-2.46681e-05
-1.72973e-05
1.61729e-06
-2.24064e-05
-1.66736e-05
1.35966e-06
-1.97706e-05
-1.62321e-05
1.12123e-06
-1.66996e-05
-1.58969e-05
9.21383e-07
-1.32037e-05
-1.55493e-05
7.60284e-07
-9.35412e-06
-1.51004e-05
6.30716e-07
-5.24002e-06
-1.4524e-05
5.2677e-07
-9.47502e-07
-1.38225e-05
4.45309e-07
3.42013e-06
-1.29825e-05
3.84809e-07
7.74323e-06
-1.19972e-05
3.45778e-07
1.19119e-05
-1.08848e-05
3.30806e-07
1.58152e-05
-9.66627e-06
3.44279e-07
1.93155e-05
-8.36576e-06
3.92876e-07
2.2263e-05
-7.04161e-06
4.832e-07
2.44951e-05
-5.76783e-06
6.14963e-07
2.58315e-05
-4.62104e-06
7.83186e-07
2.60814e-05
-3.64552e-06
9.84694e-07
2.50016e-05
-2.75884e-06
1.22073e-06
2.23402e-05
-1.71621e-06
1.50001e-06
1.77441e-05
5.23338e-08
1.85833e-06
9.95497e-06
4.64437e-06
2.35645e-06
1.46414e-05
2.52008e-06
-8.02005e-06
-2.23914e-06
6.00038e-07
-6.98264e-06
-1.20088e-05
5.33313e-07
-5.39258e-06
-1.91887e-05
5.92858e-07
-3.95124e-06
-2.43514e-05
6.50878e-07
-2.13998e-06
-2.72956e-05
4.78414e-07
-4.65849e-07
-2.81211e-05
1.77653e-07
8.76501e-07
-2.75202e-05
-3.93162e-08
1.7204e-06
-2.60171e-05
-1.64856e-07
2.02975e-06
-2.40057e-05
-1.214e-07
1.72266e-06
-2.18174e-05
1.53499e-07
7.07629e-07
-1.97419e-05
6.71553e-07
-1.00858e-06
-1.79953e-05
1.26437e-06
-3.12087e-06
-1.67301e-05
1.64011e-06
-5.22027e-06
-1.59386e-05
1.7121e-06
-7.03305e-06
-1.54993e-05
1.57786e-06
-8.41751e-06
-1.53193e-05
1.33572e-06
-9.30076e-06
-1.53191e-05
1.07462e-06
-9.63816e-06
-1.53872e-05
8.50518e-07
-9.3885e-06
-1.54189e-05
6.62246e-07
-8.53227e-06
-1.53531e-05
4.94576e-07
-7.07622e-06
-1.51636e-05
3.45739e-07
-5.04541e-06
-1.48204e-05
2.08526e-07
-2.47013e-06
-1.42973e-05
6.6562e-08
5.84699e-07
-1.35861e-05
-6.60948e-08
4.03605e-06
-1.26741e-05
-1.99117e-07
7.71234e-06
-1.14926e-05
-3.38166e-07
1.13092e-05
-9.96849e-06
-4.76688e-07
1.45038e-05
-8.17039e-06
-5.90227e-07
1.68794e-05
-6.1555e-06
-5.93953e-07
1.78769e-05
-3.95917e-06
-3.59332e-07
1.69735e-05
-1.56503e-06
1.35111e-07
1.41355e-05
8.91155e-07
7.79283e-07
9.76278e-06
3.66542e-06
1.45182e-06
4.04573e-06
8.9041e-06
2.27205e-06
1.75158e-05
1.97735e-06
3.49086e-06
-7.51379e-06
1.86465e-06
8.1843e-06
-1.88012e-05
2.5139e-06
1.17983e-05
-2.39635e-05
1.77986e-06
1.33206e-05
-2.6118e-05
7.86256e-07
1.26906e-05
-2.62719e-05
-1.07987e-07
1.09982e-05
-2.55258e-05
-8.20236e-07
9.14178e-06
-2.4299e-05
-1.42222e-06
7.68864e-06
-2.28046e-05
-1.92517e-06
6.99783e-06
-2.12492e-05
-2.31338e-06
7.2696e-06
-1.9804e-05
-2.57332e-06
8.51627e-06
-1.85498e-05
-2.70657e-06
1.05158e-05
-1.74658e-05
-2.71438e-06
1.28301e-05
-1.65141e-05
-2.59206e-06
1.50109e-05
-1.5689e-05
-2.35273e-06
1.67353e-05
-1.4984e-05
-2.03066e-06
1.77719e-05
-1.43771e-05
-1.6652e-06
1.79922e-05
-1.38673e-05
-1.29642e-06
1.74339e-05
-1.34798e-05
-9.58938e-07
1.62856e-05
-1.32381e-05
-6.72784e-07
1.48181e-05
-1.31405e-05
-4.41398e-07
1.33339e-05
-1.31608e-05
-2.51729e-07
1.21056e-05
-1.32572e-05
-9.53514e-08
1.13254e-05
-1.33534e-05
2.40779e-08
1.10948e-05
-1.33371e-05
1.05949e-07
1.14511e-05
-1.31221e-05
1.59127e-07
1.24037e-05
-1.26086e-05
1.77686e-07
1.39455e-05
-1.16741e-05
1.18877e-07
1.60037e-05
-1.02748e-05
-4.70643e-08
1.8309e-05
-8.23176e-06
-3.43174e-07
2.01242e-05
-5.1082e-06
-7.62112e-07
2.04615e-05
-7.50579e-07
-1.17962e-06
1.76602e-05
5.11018e-06
-1.31974e-06
1.1856e-05
1.07279e-05
-9.81926e-07
4.52779e-06
1.66632e-05
3.21128e-08
2.16979e-05
9.89582e-07
2.52405e-06
-1.10826e-05
1.15604e-06
4.17945e-06
-2.1239e-05
7.54177e-07
3.97113e-06
-2.41229e-05
4.03087e-08
2.74725e-06
-2.49229e-05
-3.97592e-07
1.67651e-06
-2.49713e-05
-6.88507e-07
1.27155e-06
-2.46716e-05
-9.0102e-07
1.79609e-06
-2.41588e-05
-1.08218e-06
3.31898e-06
-2.34273e-05
-1.26424e-06
5.64579e-06
-2.24117e-05
-1.4679e-06
8.46119e-06
-2.11706e-05
-1.69668e-06
1.1494e-05
-1.98482e-05
-1.93747e-06
1.46202e-05
-1.85882e-05
-2.1688e-06
1.77971e-05
-1.74474e-05
-2.36995e-06
2.09429e-05
-1.64023e-05
-2.51868e-06
2.3914e-05
-1.5402e-05
-2.59051e-06
2.65347e-05
-1.44081e-05
-2.55882e-06
2.86203e-05
-1.34281e-05
-2.3936e-06
2.99748e-05
-1.24985e-05
-2.07133e-06
3.03965e-05
-1.16638e-05
-1.59612e-06
2.97716e-05
-1.10048e-05
-1.01327e-06
2.81683e-05
-1.06293e-05
-3.98376e-07
2.58273e-05
-1.05984e-05
1.73417e-07
2.31031e-05
-1.0875e-05
6.51561e-07
2.03916e-05
-1.13424e-05
1.02324e-06
1.8068e-05
-1.18734e-05
1.32045e-06
1.64067e-05
-1.23266e-05
1.56686e-06
1.55928e-05
-1.25049e-05
1.756e-06
1.5722e-05
-1.22516e-05
1.88115e-06
1.68274e-05
-1.13191e-05
1.90644e-06
1.828e-05
-8.42148e-06
1.62863e-06
1.84625e-05
-2.18613e-06
8.72257e-07
1.58425e-05
7.33692e-06
-2.06313e-07
9.58868e-06
1.72187e-05
-1.06091e-06
3.03776e-06
2.3625e-05
-1.03722e-06
2.48355e-05
5.15504e-08
1.66686e-06
-1.38854e-05
1.0496e-06
2.18999e-06
-2.3252e-05
1.33827e-06
2.79877e-06
-2.59324e-05
1.13533e-06
3.68009e-06
-2.66643e-05
8.6008e-07
4.68911e-06
-2.65563e-05
6.06807e-07
5.57104e-06
-2.5891e-05
3.70627e-07
6.13877e-06
-2.48239e-05
1.32877e-07
6.34521e-06
-2.34679e-05
-1.19116e-07
6.27558e-06
-2.18842e-05
-4.1099e-07
6.08275e-06
-2.01922e-05
-7.55039e-07
5.90438e-06
-1.85349e-05
-1.13399e-06
5.8357e-06
-1.7041e-05
-1.51158e-06
5.94596e-06
-1.57712e-05
-1.8513e-06
6.29322e-06
-1.47074e-05
-2.13147e-06
6.91807e-06
-1.37847e-05
-2.34607e-06
7.83814e-06
-1.29447e-05
-2.49241e-06
9.02817e-06
-1.21597e-05
-2.56156e-06
1.03929e-05
-1.14091e-05
-2.54099e-06
1.1762e-05
-1.06658e-05
-2.40971e-06
1.28685e-05
-9.93564e-06
-2.12965e-06
1.33524e-05
-9.27374e-06
-1.66348e-06
1.28226e-05
-8.7532e-06
-9.99995e-07
1.09931e-05
-8.44582e-06
-1.79586e-07
7.7751e-06
-8.41928e-06
7.49485e-07
3.39925e-06
-8.72025e-06
1.63377e-06
-1.58912e-06
-9.39482e-06
2.38292e-06
-6.31047e-06
-1.04701e-05
2.94864e-06
-9.66613e-06
-1.19713e-05
3.36185e-06
-1.08296e-05
-1.34589e-05
3.61337e-06
-9.19889e-06
-1.31304e-05
3.34502e-06
-4.38073e-06
-9.01269e-06
2.28206e-06
1.05283e-06
1.32641e-06
7.18966e-07
3.12986e-06
1.52731e-05
-5.44367e-07
3.67665e-07
2.60064e-05
-4.92278e-07
2.47551e-05
2.4785e-08
8.57859e-07
-1.5565e-05
7.96685e-07
1.40873e-06
-2.43868e-05
6.59738e-07
1.3898e-06
-2.61837e-05
3.76156e-07
1.07823e-06
-2.64231e-05
1.85567e-07
5.80599e-07
-2.5988e-05
4.87043e-08
-6.14848e-08
-2.50657e-05
-6.2857e-08
-7.71504e-07
-2.38313e-05
-1.65979e-07
-1.37842e-06
-2.24494e-05
-3.04619e-07
-1.6439e-06
-2.10364e-05
-4.89519e-07
-1.40862e-06
-1.96289e-05
-7.22639e-07
-6.66693e-07
-1.82186e-05
-1.00132e-06
4.53162e-07
-1.68065e-05
-1.31745e-06
1.78308e-06
-1.54299e-05
-1.65339e-06
3.20832e-06
-1.41471e-05
-1.98434e-06
4.6995e-06
-1.30028e-05
-2.28613e-06
6.27799e-06
-1.20091e-05
-2.53945e-06
7.96075e-06
-1.11489e-05
-2.73e-06
9.74251e-06
-1.03896e-05
-2.84753e-06
1.16016e-05
-9.69807e-06
-2.88342e-06
1.34746e-05
-9.04645e-06
-2.8278e-06
1.52099e-05
-8.41118e-06
-2.66649e-06
1.65519e-05
-7.77638e-06
-2.37492e-06
1.71472e-05
-7.14235e-06
-1.9122e-06
1.65649e-05
-6.5417e-06
-1.22118e-06
1.43552e-05
-6.0554e-06
-2.52223e-07
9.92742e-06
-5.84995e-06
1.21597e-06
2.98533e-06
-6.17491e-06
3.02587e-06
-6.37061e-06
-7.23026e-06
4.91531e-06
-1.72322e-05
-8.76061e-06
6.43406e-06
-2.71693e-05
-1.00024e-05
7.28666e-06
-3.13646e-05
-1.11611e-05
7.41822e-06
-2.40323e-05
-1.01183e-05
6.23949e-06
-9.13841e-06
-9.48342e-07
3.78551e-06
5.31188e-07
1.63433e-05
1.44999e-06
2.49022e-05
6.62782e-07
2.50334e-06
-1.81236e-05
8.50186e-08
4.27896e-06
-2.55745e-05
-5.52614e-07
5.76491e-06
-2.67794e-05
-8.64724e-07
7.04348e-06
-2.66694e-05
-1.01157e-06
8.07901e-06
-2.59317e-05
-1.07187e-06
8.88343e-06
-2.47712e-05
-1.0759e-06
9.50641e-06
-2.33761e-05
-1.04783e-06
1.002e-05
-2.19084e-05
-1.01357e-06
1.04955e-05
-2.04596e-05
-9.98873e-07
1.10089e-05
-1.90523e-05
-1.02509e-06
1.16459e-05
-1.76741e-05
-1.10838e-06
1.24872e-05
-1.63124e-05
-1.25952e-06
1.35853e-05
-1.49755e-05
-1.48003e-06
1.49552e-05
-1.36966e-05
-1.75638e-06
1.65817e-05
-1.25176e-05
-2.05949e-06
1.84339e-05
-1.14686e-05
-2.35324e-06
2.04729e-05
-1.05572e-05
-2.60401e-06
2.26535e-05
-9.77058e-06
-2.78515e-06
2.49209e-05
-9.0846e-06
-2.87765e-06
2.72108e-05
-8.47291e-06
-2.87104e-06
2.94587e-05
-7.91165e-06
-2.76526e-06
3.16051e-05
-7.38083e-06
-2.5701e-06
3.35904e-05
-6.86319e-06
-2.3016e-06
3.53242e-05
-6.34508e-06
-1.97579e-06
3.66343e-05
-5.8138e-06
-1.60307e-06
3.7177e-05
-5.25555e-06
-1.18483e-06
3.63539e-05
-4.65939e-06
-7.13515e-07
3.3385e-05
-4.02748e-06
-1.8387e-07
2.75878e-05
-3.414e-06
6.30099e-07
1.91881e-05
-3.09132e-06
1.89225e-06
8.7045e-06
-4.09542e-06
4.06611e-06
-1.33795e-06
-6.38459e-06
6.98328e-06
-4.69357e-06
-5.33666e-06
9.07144e-06
-5.3015e-07
6.83004e-06
7.80337e-06
2.23279e-05
3.08931e-06
5.73512e-07
-1.84011e-05
-3.31852e-07
8.55866e-07
-2.51739e-05
-7.21252e-07
1.2774e-06
-2.60605e-05
-1.16932e-06
1.95242e-06
-2.57284e-05
-1.64485e-06
2.68254e-06
-2.47458e-05
-1.95454e-06
3.28479e-06
-2.33487e-05
-2.08024e-06
3.69739e-06
-2.17562e-05
-2.1078e-06
3.94843e-06
-2.01363e-05
-2.11583e-06
4.11123e-06
-1.85806e-05
-2.14568e-06
4.27958e-06
-1.71182e-05
-2.2103e-06
4.55098e-06
-1.57397e-05
-2.31088e-06
5.01126e-06
-1.44229e-05
-2.44644e-06
5.72194e-06
-1.31536e-05
-2.61718e-06
6.71254e-06
-1.19341e-05
-2.82417e-06
7.98319e-06
-1.07796e-05
-3.06667e-06
9.51907e-06
-9.71256e-06
-3.33898e-06
1.13063e-05
-8.75381e-06
-3.62952e-06
1.3338e-05
-7.91266e-06
-3.92325e-06
1.56071e-05
-7.18058e-06
-4.20453e-06
1.80938e-05
-6.53409e-06
-4.4572e-06
2.07546e-05
-5.94357e-06
-4.66276e-06
2.35161e-05
-5.38113e-06
-4.79884e-06
2.62741e-05
-4.82441e-06
-4.83952e-06
2.88946e-05
-4.25699e-06
-4.75725e-06
3.12212e-05
-3.66682e-06
-4.52915e-06
3.30887e-05
-3.04502e-06
-4.14138e-06
3.43156e-05
-2.38662e-06
-3.57157e-06
3.46967e-05
-1.68955e-06
-2.80036e-06
3.40052e-05
-9.4686e-07
-1.86729e-06
3.17477e-05
-9.10704e-08
-8.47657e-07
2.65536e-05
7.90757e-07
1.92353e-07
1.67663e-05
1.84046e-06
1.52087e-06
5.12427e-06
3.38992e-06
3.26541e-06
-8.73097e-07
8.79154e-06
5.14689e-06
1.93514e-05
3.14969e-06
-1.53101e-06
-1.69908e-05
1.39549e-07
-1.68129e-06
-2.51213e-05
2.33927e-07
-7.82049e-07
-2.65935e-05
-1.69159e-07
8.90513e-07
-2.63754e-05
-7.99826e-07
3.00238e-06
-2.53022e-05
-1.32154e-06
5.1945e-06
-2.36868e-05
-1.63127e-06
7.16404e-06
-2.18213e-05
-1.71118e-06
8.76052e-06
-1.99349e-05
-1.64659e-06
9.97355e-06
-1.81388e-05
-1.54911e-06
1.08714e-05
-1.64536e-05
-1.49894e-06
1.15529e-05
-1.48629e-05
-1.5311e-06
1.21226e-05
-1.33448e-05
-1.65051e-06
1.26824e-05
-1.18871e-05
-1.85137e-06
1.33176e-05
-1.04853e-05
-2.12339e-06
1.40835e-05
-9.13845e-06
-2.45392e-06
1.50001e-05
-7.85026e-06
-2.8277e-06
1.60614e-05
-6.63639e-06
-3.22609e-06
1.72582e-05
-5.5258e-06
-3.62766e-06
1.85937e-05
-4.54447e-06
-4.01214e-06
2.00804e-05
-3.69366e-06
-4.36519e-06
2.17252e-05
-2.94648e-06
-4.67939e-06
2.35175e-05
-2.26169e-06
-4.95065e-06
2.54225e-05
-1.59922e-06
-5.17249e-06
2.73761e-05
-9.27972e-07
-5.33005e-06
2.92873e-05
-2.35679e-07
-5.39625e-06
3.09941e-05
5.173e-07
-5.33073e-06
3.22899e-05
1.32844e-06
-5.0804e-06
3.29402e-05
2.15696e-06
-4.57377e-06
3.26513e-05
3.00748e-06
-3.74967e-06
3.11791e-05
3.90454e-06
-2.61949e-06
2.81113e-05
4.90235e-06
-1.16558e-06
2.28416e-05
6.0306e-06
9.4101e-07
1.44658e-05
8.17082e-06
3.51821e-06
4.22005e-06
1.40895e-05
5.15103e-06
2.0912e-05
3.13064e-06
1.94699e-06
-1.87356e-05
-1.57773e-07
3.39775e-06
-2.65775e-05
9.99224e-08
4.59987e-06
-2.77751e-05
9.85451e-08
5.83897e-06
-2.73961e-05
-8.45385e-08
7.17696e-06
-2.60952e-05
-3.93273e-07
8.45452e-06
-2.40452e-05
-7.4271e-07
9.44644e-06
-2.15426e-05
-1.06903e-06
1.0005e-05
-1.89637e-05
-1.31371e-06
1.00996e-05
-1.65842e-05
-1.43638e-06
9.78571e-06
-1.45032e-05
-1.44271e-06
9.19287e-06
-1.27021e-05
-1.40082e-06
8.48486e-06
-1.11229e-05
-1.3739e-06
7.81975e-06
-9.71002e-06
-1.39675e-06
7.3234e-06
-8.41452e-06
-1.48207e-06
7.08525e-06
-7.19698e-06
-1.63301e-06
7.1643e-06
-6.029e-06
-1.85151e-06
7.59411e-06
-4.89756e-06
-2.13946e-06
8.384e-06
-3.80917e-06
-2.49285e-06
9.51873e-06
-2.78031e-06
-2.89535e-06
1.09626e-05
-1.81896e-06
-3.32062e-06
1.26711e-05
-9.15512e-07
-3.74458e-06
1.45798e-05
-2.81899e-08
-4.1495e-06
1.67002e-05
7.91888e-07
-4.52184e-06
1.89617e-05
1.64981e-06
-4.85415e-06
2.127e-05
2.56763e-06
-5.13338e-06
2.35139e-05
3.56593e-06
-5.32404e-06
2.55166e-05
4.65333e-06
-5.37148e-06
2.70101e-05
5.81863e-06
-5.2136e-06
2.76946e-05
7.03428e-06
-4.78522e-06
2.72601e-05
8.27896e-06
-4.03029e-06
2.53596e-05
9.60092e-06
-2.91106e-06
2.1279e-05
1.12248e-05
-1.2732e-06
1.37842e-05
1.42637e-05
1.15304e-06
4.36156e-06
2.0002e-05
3.2848e-06
2.3062e-05
2.30095e-06
7.34225e-07
-1.97213e-05
1.94796e-07
2.24318e-06
-2.82152e-05
4.80684e-08
3.73968e-06
-2.96029e-05
2.46678e-07
5.10632e-06
-2.93134e-05
4.66868e-07
6.37723e-06
-2.80797e-05
6.33347e-07
7.51682e-06
-2.60176e-05
7.61636e-07
8.4053e-06
-2.33119e-05
8.2603e-07
8.88112e-06
-2.02574e-05
7.84419e-07
8.884e-06
-1.71989e-05
6.00259e-07
8.54214e-06
-1.44104e-05
2.58433e-07
8.02229e-06
-1.19959e-05
-1.57614e-07
7.43267e-06
-9.92478e-06
-5.64102e-07
6.83095e-06
-8.1274e-06
-9.2604e-07
6.26255e-06
-6.5476e-06
-1.23845e-06
5.7767e-06
-5.14803e-06
-1.50236e-06
5.44538e-06
-3.89946e-06
-1.74032e-06
5.3448e-06
-2.76983e-06
-1.97472e-06
5.52162e-06
-1.72544e-06
-2.21514e-06
5.98706e-06
-7.40926e-07
-2.46763e-06
6.7445e-06
1.91616e-07
-2.74017e-06
7.74681e-06
1.14235e-06
-3.04241e-06
9.04616e-06
2.0578e-06
-3.37735e-06
1.06055e-05
2.96999e-06
-3.73809e-06
1.24522e-05
3.90544e-06
-4.11081e-06
1.45785e-05
4.90092e-06
-4.47636e-06
1.69335e-05
6.00221e-06
-4.81813e-06
1.93907e-05
7.25534e-06
-5.10009e-06
2.16954e-05
8.68956e-06
-5.23609e-06
2.3441e-05
1.03033e-05
-5.10146e-06
2.4092e-05
1.20696e-05
-4.56286e-06
2.30327e-05
1.40252e-05
-3.53524e-06
1.94714e-05
1.64651e-05
-1.94683e-06
1.24609e-05
2.05654e-05
2.52595e-07
4.0357e-06
2.57673e-05
2.16908e-06
2.54932e-05
1.51773e-06
8.09214e-07
-2.08362e-05
2.7573e-07
2.83553e-06
-3.0043e-05
-2.06351e-07
4.96214e-06
-3.16466e-05
-6.48612e-08
6.81199e-06
-3.13475e-05
2.24921e-07
8.33889e-06
-2.99943e-05
4.51359e-07
9.53853e-06
-2.78167e-05
6.81885e-07
1.04344e-05
-2.51018e-05
9.83658e-07
1.09733e-05
-2.20654e-05
1.35085e-06
1.09562e-05
-1.8848e-05
1.72346e-06
1.02738e-05
-1.56689e-05
1.96715e-06
9.09783e-06
-1.27872e-05
1.97289e-06
7.72071e-06
-1.03035e-05
1.75529e-06
6.35004e-06
-8.16498e-06
1.41023e-06
5.0925e-06
-6.28788e-06
1.00518e-06
4.00723e-06
-4.6156e-06
5.65531e-07
3.13904e-06
-3.11943e-06
1.05245e-07
2.46094e-06
-1.77517e-06
-2.9642e-07
1.99719e-06
-5.50822e-07
-6.88872e-07
1.75595e-06
5.83357e-07
-1.0612e-06
1.73717e-06
1.64978e-06
-1.41977e-06
2.01003e-06
2.66711e-06
-1.78115e-06
2.57806e-06
3.65567e-06
-2.15345e-06
3.44682e-06
4.63714e-06
-2.52863e-06
4.62583e-06
5.63627e-06
-2.90823e-06
6.13484e-06
6.68758e-06
-3.30023e-06
7.98885e-06
7.83864e-06
-3.70221e-06
1.01754e-05
9.15163e-06
-4.10418e-06
1.2608e-05
1.07008e-05
-4.47968e-06
1.50284e-05
1.25584e-05
-4.7343e-06
1.69086e-05
1.47793e-05
-4.68657e-06
1.74216e-05
1.74706e-05
-4.11982e-06
1.53947e-05
2.10122e-05
-2.81015e-06
9.93908e-06
2.62204e-05
-7.17144e-07
3.44142e-06
3.07329e-05
1.01266e-06
2.79877e-05
8.74409e-07
1.9095e-06
-2.29287e-05
1.23757e-07
3.33306e-06
-3.21906e-05
6.21302e-07
4.58617e-06
-3.37435e-05
7.39999e-07
5.68951e-06
-3.32611e-05
7.22787e-07
6.55262e-06
-3.15543e-05
6.43717e-07
7.12098e-06
-2.89361e-05
5.51267e-07
7.44779e-06
-2.58954e-05
5.25881e-07
7.66761e-06
-2.27954e-05
6.16718e-07
7.73521e-06
-1.96522e-05
8.68197e-07
7.32392e-06
-1.63926e-05
1.25591e-06
6.22063e-06
-1.31919e-05
1.59567e-06
4.60775e-06
-1.03562e-05
1.72563e-06
2.82524e-06
-7.98265e-06
1.64488e-06
1.11695e-06
-5.9688e-06
1.42576e-06
-3.98186e-07
-4.19465e-06
1.1259e-06
-1.66971e-06
-2.59361e-06
7.74203e-07
-2.66908e-06
-1.13798e-06
3.88408e-07
-3.36081e-06
1.93116e-07
-2.80844e-08
-3.76605e-06
1.40752e-06
-3.97487e-07
-3.86343e-06
2.55103e-06
-7.8555e-07
-3.65476e-06
3.6457e-06
-1.17218e-06
-3.14908e-06
4.71891e-06
-1.55696e-06
-2.35879e-06
5.79746e-06
-1.94191e-06
-1.29701e-06
6.9089e-06
-2.32952e-06
2.69489e-08
8.08555e-06
-2.72164e-06
1.60864e-06
9.37017e-06
-3.11866e-06
3.44072e-06
1.08223e-05
-3.51586e-06
5.50111e-06
1.25248e-05
-3.90915e-06
7.69525e-06
1.45903e-05
-4.27076e-06
9.7004e-06
1.71682e-05
-4.47678e-06
1.07991e-05
2.04938e-05
-4.28048e-06
9.76147e-06
2.50346e-05
-3.29486e-06
5.82964e-06
3.09508e-05
-1.30654e-06
1.77501e-06
3.416e-05
2.16527e-07
2.94001e-05
3.86028e-07
1.22458e-07
-2.41056e-05
8.97038e-07
6.99115e-07
-3.46559e-05
1.64802e-06
1.49115e-06
-3.64964e-05
1.71298e-06
2.28431e-06
-3.59475e-05
1.65072e-06
2.95269e-06
-3.39925e-05
1.5419e-06
3.41101e-06
-3.09675e-05
1.38176e-06
3.60709e-06
-2.74137e-05
1.195e-06
3.61421e-06
-2.38789e-05
1.02421e-06
3.62378e-06
-2.05724e-05
9.24293e-07
3.64103e-06
-1.73182e-05
9.66048e-07
3.30061e-06
-1.39328e-05
1.14935e-06
2.29678e-06
-1.06095e-05
1.31313e-06
7.35312e-07
-7.70881e-06
1.3318e-06
-1.07499e-06
-5.33134e-06
1.20997e-06
-2.87881e-06
-3.35149e-06
9.93018e-07
-4.52193e-06
-1.63666e-06
7.1463e-07
-5.92238e-06
-1.04928e-07
3.92344e-07
-6.98694e-06
1.25177e-06
2.75394e-08
-7.73181e-06
2.49287e-06
-3.22129e-07
-8.11721e-06
3.64386e-06
-6.9225e-07
-8.13292e-06
4.74122e-06
-1.06765e-06
-7.78075e-06
5.82074e-06
-1.44477e-06
-7.0705e-06
6.91609e-06
-1.82263e-06
-6.0189e-06
8.06093e-06
-2.20055e-06
-4.65057e-06
9.29401e-06
-2.57733e-06
-3.00056e-06
1.06657e-05
-2.95064e-06
-1.1196e-06
1.2245e-05
-3.31539e-06
9.20134e-07
1.41294e-05
-3.6664e-06
3.0091e-06
1.64595e-05
-3.99846e-06
4.91925e-06
1.94444e-05
-4.26296e-06
6.14131e-06
2.34072e-05
-4.28812e-06
5.81858e-06
2.8781e-05
-3.7196e-06
3.6137e-06
3.49171e-05
-2.18684e-06
1.20359e-06
3.6935e-05
-6.62346e-07
3.07614e-05
-1.13888e-07
3.47821e-07
-2.52038e-05
6.41534e-07
1.50251e-06
-3.63918e-05
4.8801e-07
2.73502e-06
-3.82661e-05
4.5714e-07
3.86896e-06
-3.77176e-05
5.43757e-07
4.8588e-06
-3.57913e-05
6.86878e-07
5.63208e-06
-3.27375e-05
8.46769e-07
6.03243e-06
-2.89339e-05
9.69508e-07
5.96402e-06
-2.49259e-05
1.00305e-06
5.55249e-06
-2.11722e-05
9.59418e-07
5.08971e-06
-1.77492e-05
9.01217e-07
4.66417e-06
-1.43825e-05
9.22851e-07
3.94511e-06
-1.08839e-05
1.04956e-06
2.6244e-06
-7.50036e-06
1.15779e-06
7.80763e-07
-4.60022e-06
1.14783e-06
-1.30868e-06
-2.25498e-06
1.02156e-06
-3.40632e-06
-3.29063e-07
8.13302e-07
-5.33814e-06
1.29931e-06
5.45963e-07
-7.02377e-06
2.71948e-06
2.3202e-07
-8.38918e-06
3.98353e-06
-1.14834e-07
-9.40298e-06
5.1389e-06
-4.7394e-07
-1.00378e-05
6.23083e-06
-8.50191e-07
-1.028e-05
7.3007e-06
-1.2352e-06
-1.01242e-05
8.38663e-06
-1.62556e-06
-9.57195e-06
9.52734e-06
-2.01904e-06
-8.63429e-06
1.07686e-05
-2.41352e-06
-7.33642e-06
1.21713e-05
-2.80584e-06
-5.72741e-06
1.38216e-05
-3.18979e-06
-3.89578e-06
1.5842e-05
-3.55288e-06
-1.97713e-06
1.84081e-05
-3.88545e-06
-1.89408e-07
2.17654e-05
-4.1479e-06
1.10616e-06
2.62385e-05
-4.21023e-06
1.51334e-06
3.20532e-05
-3.83666e-06
1.14364e-06
3.78923e-05
-2.79063e-06
4.45103e-07
3.90624e-05
-1.52563e-06
3.18823e-05
-5.96219e-07
1.33273e-06
-2.63674e-05
-1.15461e-07
1.77594e-06
-3.63432e-05
-3.3457e-07
2.01159e-06
-3.7835e-05
-4.83972e-07
2.24955e-06
-3.72984e-05
-4.82907e-07
2.59492e-06
-3.5636e-05
-3.60514e-07
3.10277e-06
-3.30209e-05
-1.41737e-07
3.62701e-06
-2.96059e-05
1.64167e-07
3.91276e-06
-2.56976e-05
4.53721e-07
3.76962e-06
-2.17406e-05
6.65566e-07
3.27204e-06
-1.8063e-05
7.8167e-07
2.71067e-06
-1.46494e-05
8.29248e-07
2.22779e-06
-1.12452e-05
8.72813e-07
1.58974e-06
-7.7682e-06
9.44425e-07
5.52761e-07
-4.51713e-06
9.87643e-07
-8.502e-07
-1.77963e-06
9.52703e-07
-2.44647e-06
4.43774e-07
8.39754e-07
-4.11384e-06
2.31141e-06
6.63216e-07
-5.71275e-06
3.88614e-06
4.32684e-07
-7.14999e-06
5.25823e-06
1.56794e-07
-8.36004e-06
6.49162e-06
-1.53133e-07
-9.29911e-06
7.6442e-06
-4.88059e-07
-9.93591e-06
8.76637e-06
-8.4459e-07
-1.02488e-05
9.9008e-06
-1.21756e-06
-1.02204e-05
1.10868e-05
-1.60317e-06
-9.83556e-06
1.23695e-05
-1.9983e-06
-9.08393e-06
1.38118e-05
-2.39977e-06
-7.9708e-06
1.55108e-05
-2.80277e-06
-6.53794e-06
1.76151e-05
-3.19695e-06
-4.88192e-06
2.03445e-05
-3.57244e-06
-3.17904e-06
2.39926e-05
-3.89884e-06
-1.7025e-06
2.88697e-05
-4.06709e-06
-6.76571e-07
3.49603e-05
-3.88321e-06
3.182e-08
4.04629e-05
-3.19804e-06
2.39767e-07
4.1168e-05
-2.18766e-06
3.32784e-05
-9.79276e-07
1.00462e-06
-2.68541e-05
-4.25145e-07
1.81681e-07
-3.5061e-05
-3.12571e-07
-9.63612e-07
-3.60262e-05
-4.97397e-07
-2.07962e-06
-3.53738e-05
-6.26349e-07
-2.99595e-06
-3.3849e-05
-6.77394e-07
-3.50237e-06
-3.16613e-05
-6.63651e-07
-3.47112e-06
-2.89008e-05
-5.72334e-07
-3.02052e-06
-2.56401e-05
-3.88108e-07
-2.48856e-06
-2.20626e-05
-1.35717e-07
-2.17861e-06
-1.84511e-05
1.20681e-07
-2.15746e-06
-1.49941e-05
3.51408e-07
-2.25255e-06
-1.16548e-05
5.30723e-07
-2.35241e-06
-8.29313e-06
6.54417e-07
-2.60061e-06
-4.95649e-06
7.17267e-07
-3.14338e-06
-1.91998e-06
7.0611e-07
-3.94752e-06
6.32576e-07
6.2665e-07
-4.87502e-06
2.74086e-06
4.94975e-07
-5.83813e-06
4.51246e-06
3.18738e-07
-6.75729e-06
6.04461e-06
1.00906e-07
-7.56985e-06
7.41371e-06
-1.53181e-07
-8.22901e-06
8.68948e-06
-4.39385e-07
-8.70257e-06
9.93364e-06
-7.54682e-07
-8.96927e-06
1.1197e-05
-1.09635e-06
-9.01285e-06
1.25208e-05
-1.46123e-06
-8.81547e-06
1.39453e-05
-1.84546e-06
-8.35379e-06
1.55242e-05
-2.24423e-06
-7.6034e-06
1.73476e-05
-2.65049e-06
-6.5589e-06
1.95714e-05
-3.05071e-06
-5.26631e-06
2.24493e-05
-3.42603e-06
-3.86453e-06
2.63351e-05
-3.74191e-06
-2.58808e-06
3.15485e-05
-3.91015e-06
-1.55869e-06
3.78296e-05
-3.79643e-06
-5.52389e-07
4.29513e-05
-3.32725e-06
7.64028e-08
4.32731e-05
-2.52267e-06
3.47665e-05
-1.18175e-06
-3.23765e-07
-2.626e-05
-2.80538e-07
-1.72238e-06
-3.36347e-05
-4.59034e-08
-3.25752e-06
-3.42868e-05
-2.13122e-07
-4.78284e-06
-3.34789e-05
-3.5976e-07
-6.24033e-06
-3.19014e-05
-4.54611e-07
-7.47141e-06
-2.98455e-05
-5.23876e-07
-8.25642e-06
-2.74618e-05
-5.75473e-07
-8.45123e-06
-2.47768e-05
-5.85206e-07
-8.12682e-06
-2.17867e-05
-5.2502e-07
-7.55605e-06
-1.85726e-05
-3.88194e-07
-7.01939e-06
-1.52925e-05
-1.89607e-07
-6.60892e-06
-1.20582e-05
3.36568e-08
-6.25096e-06
-8.85987e-06
2.45476e-07
-5.92247e-06
-5.65908e-06
4.08393e-07
-5.74188e-06
-2.55082e-06
4.8013e-07
-5.8078e-06
2.67815e-07
4.5108e-07
-6.10059e-06
2.69293e-06
3.45953e-07
-6.52863e-06
4.73448e-06
1.91773e-07
-6.99631e-06
6.47457e-06
2.37481e-09
-7.42177e-06
8.00151e-06
-2.17987e-07
-7.74119e-06
9.40039e-06
-4.65745e-07
-7.91226e-06
1.07537e-05
-7.40481e-07
-7.91509e-06
1.21346e-05
-1.04304e-06
-7.75005e-06
1.36047e-05
-1.37372e-06
-7.43002e-06
1.52168e-05
-1.73257e-06
-6.96718e-06
1.70246e-05
-2.11883e-06
-6.35889e-06
1.91026e-05
-2.52986e-06
-5.58662e-06
2.15845e-05
-2.95634e-06
-4.64679e-06
2.47166e-05
-3.37246e-06
-3.61092e-06
2.88818e-05
-3.72853e-06
-2.67225e-06
3.44106e-05
-3.90755e-06
-1.90262e-06
4.07935e-05
-3.76581e-06
-9.14928e-07
4.53893e-05
-3.34391e-06
-8.00824e-08
4.52622e-05
-2.6707e-06
3.61156e-05
-1.24337e-06
-4.99766e-07
-2.54162e-05
-3.7508e-07
-1.98353e-06
-3.21053e-05
-5.86093e-08
-3.62621e-06
-3.24861e-05
-1.5645e-07
-5.27137e-06
-3.15385e-05
-2.82723e-07
-6.87351e-06
-2.99018e-05
-3.74059e-07
-8.33622e-06
-2.7907e-05
-4.43096e-07
-9.51674e-06
-2.57356e-05
-5.05638e-07
-1.02618e-05
-2.3429e-05
-5.58148e-07
-1.04739e-05
-2.09474e-05
-5.82339e-07
-1.0189e-05
-1.82536e-05
-5.62752e-07
-9.57997e-06
-1.53754e-05
-4.90243e-07
-8.84291e-06
-1.23984e-05
-3.64929e-07
-8.07657e-06
-9.39694e-06
-1.98958e-07
-7.29568e-06
-6.39232e-06
-1.68298e-08
-6.5403e-06
-3.39561e-06
1.21693e-07
-5.94637e-06
-4.85484e-07
1.91694e-07
-5.59326e-06
2.20213e-06
1.6507e-07
-5.48287e-06
4.58325e-06
5.56022e-08
-5.56718e-06
6.66031e-06
-1.07127e-07
-5.7753e-06
8.48308e-06
-3.04923e-07
-6.02298e-06
1.01145e-05
-5.25499e-07
-6.22044e-06
1.16291e-05
-7.64622e-07
-6.29331e-06
1.31147e-05
-1.0219e-06
-6.2064e-06
1.46718e-05
-1.29901e-06
-5.97637e-06
1.64052e-05
-1.59842e-06
-5.6693e-06
1.84197e-05
-1.92316e-06
-5.37511e-06
2.08185e-05
-2.27739e-06
-5.1542e-06
2.37143e-05
-2.6656e-06
-4.98197e-06
2.72711e-05
-3.08326e-06
-4.73561e-06
3.17555e-05
-3.50251e-06
-4.27259e-06
3.73741e-05
-3.80681e-06
-3.48607e-06
4.34406e-05
-3.75629e-06
-2.23741e-06
4.72679e-05
-3.30598e-06
-1.04602e-06
4.6572e-05
-2.59062e-06
3.62457e-05
-1.2159e-06
-4.65855e-07
-2.45963e-05
-3.59663e-07
-2.35437e-06
-3.04538e-05
2.5234e-07
-4.54636e-06
-3.05284e-05
2.63339e-07
-6.73553e-06
-2.93984e-05
8.98981e-08
-8.83844e-06
-2.76616e-05
-8.62204e-08
-1.07549e-05
-2.56917e-05
-2.42363e-07
-1.23621e-05
-2.36828e-05
-3.89305e-07
-1.35548e-05
-2.16629e-05
-5.21155e-07
-1.42518e-05
-1.95808e-05
-6.23002e-07
-1.44124e-05
-1.73696e-05
-6.8361e-07
-1.40767e-05
-1.49832e-05
-6.95089e-07
-1.33763e-05
-1.24187e-05
-6.5283e-07
-1.24773e-05
-9.71349e-06
-5.57963e-07
-1.15068e-05
-6.91716e-06
-4.21082e-07
-1.05391e-05
-4.06969e-06
-2.66023e-07
-9.64695e-06
-1.21438e-06
-1.30578e-07
-8.91873e-06
1.57149e-06
-5.93757e-08
-8.39625e-06
4.18677e-06
-8.45143e-08
-8.06227e-06
6.56382e-06
-1.98347e-07
-7.87685e-06
8.70055e-06
-3.75082e-07
-7.8159e-06
1.06456e-05
-5.86323e-07
-7.85823e-06
1.246e-05
-8.13634e-07
-7.96054e-06
1.42049e-05
-1.04851e-06
-8.0574e-06
1.59577e-05
-1.28844e-06
-8.08594e-06
1.7827e-05
-1.53681e-06
-8.02953e-06
1.99622e-05
-1.79821e-06
-7.95125e-06
2.25421e-05
-2.07574e-06
-7.97843e-06
2.57422e-05
-2.37106e-06
-8.18951e-06
2.96904e-05
-2.68714e-06
-8.40862e-06
3.44369e-05
-3.03421e-06
-8.08812e-06
3.98478e-05
-3.4016e-06
-6.62417e-06
4.50524e-05
-3.6241e-06
-4.21674e-06
4.78744e-05
-3.41231e-06
-2.01226e-06
4.67237e-05
-2.62097e-06
3.53801e-05
-1.25629e-06
-3.39672e-07
-2.39953e-05
-2.8858e-07
-1.80926e-06
-2.94566e-05
4.45334e-07
-3.88006e-06
-2.92982e-05
8.19778e-07
-6.15173e-06
-2.79022e-05
7.68106e-07
-8.55383e-06
-2.58518e-05
6.07113e-07
-1.09872e-05
-2.36393e-05
4.17099e-07
-1.3278e-05
-2.15418e-05
2.00558e-07
-1.52573e-05
-1.95996e-05
-2.6758e-08
-1.67938e-05
-1.77461e-05
-2.41291e-07
-1.77866e-05
-1.58897e-05
-4.35203e-07
-1.81834e-05
-1.39502e-05
-5.91939e-07
-1.79962e-05
-1.1871e-05
-6.98831e-07
-1.73109e-05
-9.62512e-06
-7.44783e-07
-1.6271e-05
-7.20881e-06
-7.23252e-07
-1.50426e-05
-4.63576e-06
-6.37539e-07
-1.37914e-05
-1.93076e-06
-5.0662e-07
-1.26806e-05
8.63457e-07
-3.68389e-07
-1.18426e-05
3.66314e-06
-2.73323e-07
-1.13507e-05
6.38218e-06
-2.63502e-07
-1.1183e-05
8.93735e-06
-3.5407e-07
-1.12306e-05
1.12805e-05
-5.35606e-07
-1.13623e-05
1.34229e-05
-7.83701e-07
-1.15001e-05
1.54389e-05
-1.06296e-06
-1.16216e-05
1.74302e-05
-1.34225e-06
-1.17204e-05
1.9509e-05
-1.6059e-06
-1.17797e-05
2.18126e-05
-1.85043e-06
-1.17803e-05
2.45168e-05
-2.07918e-06
-1.17387e-05
2.78237e-05
-2.29514e-06
-1.17061e-05
3.18831e-05
-2.49474e-06
-1.16189e-05
3.66396e-05
-2.67169e-06
-1.10083e-05
4.16343e-05
-2.84978e-06
-9.06231e-06
4.57689e-05
-3.08243e-06
-5.80596e-06
4.75559e-05
-3.24056e-06
-2.53352e-06
4.6075e-05
-2.81625e-06
3.42379e-05
-1.44479e-06
2.38955e-07
-2.40665e-05
-1.91165e-07
-2.83284e-07
-2.94807e-05
5.19065e-07
-1.35297e-06
-2.93343e-05
1.06494e-06
-2.75236e-06
-2.77812e-05
1.22758e-06
-4.53592e-06
-2.53126e-05
1.20059e-06
-6.75132e-06
-2.25627e-05
1.11456e-06
-9.30384e-06
-1.99912e-05
1.00092e-06
-1.19957e-05
-1.77338e-05
8.46148e-07
-1.45909e-05
-1.57521e-05
6.37201e-07
-1.68729e-05
-1.39513e-05
3.8877e-07
-1.86615e-05
-1.22321e-05
1.18639e-07
-1.98563e-05
-1.05065e-05
-1.23021e-07
-2.03889e-05
-8.70464e-06
-3.45447e-07
-2.02609e-05
-6.77362e-06
-5.25396e-07
-1.95417e-05
-4.67708e-06
-6.42922e-07
-1.83611e-05
-2.39078e-06
-6.8472e-07