/*--------------------------------*- C++ -*----------------------------------*\
| =========                 |                                                 |
| \\      /  F ield         | OpenFOAM: The Open Source CFD Toolbox           |
|  \\    /   O peration     | Version:  v2012                                 |
|   \\  /    A nd           | Website:  www.openfoam.com                      |
|    \\/     M anipulation  |                                                 |
\*---------------------------------------------------------------------------*/
FoamFile
{
    version     2.0;
    format      ascii;
    class       surfaceScalarField;
    location    "100";
    object      phi;
}
// * * * * * * * * * * * * * * * * * * * * * * * * * * * * * * * * * * * * * //

dimensions      [1 0 -1 0 0 0 0];
oriented        oriented;


internalField   nonuniform List<scalar> 
228225
(
-1.82051e-09
2.44785e-09
9.98394e-12
-8.07501e-09
1.00049e-08
-3.7476e-09
-1.80447e-08
1.46973e-08
-4.72678e-09
-3.15843e-08
1.86607e-08
-5.12127e-09
-4.81631e-08
2.20048e-08
-5.42739e-09
-6.70566e-08
2.46796e-08
-5.78465e-09
-8.75888e-08
2.67377e-08
-6.20743e-09
-1.09037e-07
2.81625e-08
-6.71287e-09
-1.30799e-07
2.9038e-08
-7.27798e-09
-1.52257e-07
2.9368e-08
-7.90804e-09
-1.72924e-07
2.92483e-08
-8.58196e-09
-1.92302e-07
2.86827e-08
-9.30565e-09
-2.10008e-07
2.7768e-08
-1.00613e-08
-2.25674e-07
2.65199e-08
-1.08535e-08
-2.39031e-07
2.50216e-08
-1.16658e-08
-2.49818e-07
2.3289e-08
-1.25009e-08
-2.57867e-07
2.13816e-08
-1.33329e-08
-2.63007e-07
1.9315e-08
-1.41725e-08
-2.65178e-07
1.71564e-08
-1.49887e-08
-2.64312e-07
1.49184e-08
-1.57828e-08
-2.6043e-07
1.26522e-08
-1.65378e-08
-2.53552e-07
1.03679e-08
-1.7242e-08
-2.43783e-07
8.10622e-09
-1.78774e-08
-2.31225e-07
5.87629e-09
-1.84343e-08
-2.16042e-07
3.71218e-09
-1.88957e-08
-1.98415e-07
1.62545e-09
-1.92527e-08
-1.78574e-07
-3.50174e-10
-1.9491e-08
-1.56769e-07
-2.20098e-09
-1.96033e-08
-1.33309e-07
-3.88305e-09
-1.95764e-08
-1.0855e-07
-5.36293e-09
-1.93981e-08
-8.29337e-08
-6.58268e-09
-1.90328e-08
-5.70843e-08
-7.46358e-09
-1.83866e-08
-3.20725e-08
-7.84751e-09
-1.71617e-08
-1.01781e-08
-7.47325e-09
-1.44213e-08
-4.79407e-09
-5.38483e-09
-7.81931e-09
2.58743e-08
-1.56064e-08
-2.74362e-08
4.67623e-08
-1.71414e-08
-5.11833e-08
5.63939e-08
-1.79494e-08
-7.69931e-08
6.33684e-08
-1.88977e-08
-1.03342e-07
6.81121e-08
-1.9759e-08
-1.29203e-07
7.10492e-08
-2.05078e-08
-1.53761e-07
7.24901e-08
-2.1195e-08
-1.76481e-07
7.27168e-08
-2.18348e-08
-1.96933e-07
7.19347e-08
-2.24433e-08
-2.14882e-07
7.03329e-08
-2.30168e-08
-2.30128e-07
6.8059e-08
-2.35645e-08
-2.42605e-07
6.52394e-08
-2.40809e-08
-2.52249e-07
6.19864e-08
-2.45716e-08
-2.59103e-07
5.84022e-08
-2.50296e-08
-2.63194e-07
5.45717e-08
-2.54589e-08
-2.6463e-07
5.05761e-08
-2.58523e-08
-2.63501e-07
4.64679e-08
-2.62154e-08
-2.59951e-07
4.23084e-08
-2.65417e-08
-2.5411e-07
3.81475e-08
-2.68331e-08
-2.4615e-07
3.40408e-08
-2.70829e-08
-2.36231e-07
3.00257e-08
-2.7292e-08
-2.24544e-07
2.61362e-08
-2.74555e-08
-2.11263e-07
2.23984e-08
-2.75742e-08
-1.96581e-07
1.88365e-08
-2.76415e-08
-1.80682e-07
1.54682e-08
-2.76558e-08
-1.63757e-07
1.23112e-08
-2.76094e-08
-1.45991e-07
9.37827e-09
-2.74966e-08
-1.2757e-07
6.68436e-09
-2.7304e-08
-1.08681e-07
4.24139e-09
-2.70152e-08
-8.95091e-08
2.06741e-09
-2.6602e-08
-7.0238e-08
1.80078e-10
-2.60329e-08
-5.10752e-08
-1.36931e-09
-2.52568e-08
-3.22947e-08
-2.52118e-09
-2.41076e-08
-1.46217e-08
-3.04827e-09
-2.20993e-08
-1.89667e-09
-1.75182e-08
-5.39473e-09
4.03133e-08
-9.04364e-09
-1.53687e-08
6.75672e-08
-1.08328e-08
-2.67569e-08
7.94247e-08
-1.16423e-08
-3.86728e-08
8.76169e-08
-1.23303e-08
-5.05317e-08
9.29117e-08
-1.29421e-08
-6.19127e-08
9.59618e-08
-1.35329e-08
-7.25266e-08
9.72187e-08
-1.41129e-08
-8.21716e-08
9.70658e-08
-1.47049e-08
-9.07118e-08
9.57775e-08
-1.5302e-08
-9.80569e-08
9.35916e-08
-1.59138e-08
-1.04157e-07
9.06858e-08
-1.65259e-08
-1.08996e-07
8.72189e-08
-1.71423e-08
-1.12578e-07
8.33164e-08
-1.7747e-08
-1.14927e-07
7.90911e-08
-1.83417e-08
-1.16075e-07
7.46329e-08
-1.89114e-08
-1.16067e-07
7.00249e-08
-1.94572e-08
-1.14981e-07
6.53495e-08
-1.99684e-08
-1.12894e-07
6.06687e-08
-2.0446e-08
-1.09898e-07
5.60307e-08
-2.08799e-08
-1.06076e-07
5.14881e-08
-2.12693e-08
-1.01519e-07
4.70758e-08
-2.16067e-08
-9.63143e-08
4.28247e-08
-2.1894e-08
-9.055e-08
3.87596e-08
-2.21256e-08
-8.43007e-08
3.48912e-08
-2.23027e-08
-7.7647e-08
3.12335e-08
-2.24206e-08
-7.06517e-08
2.77951e-08
-2.24788e-08
-6.33814e-08
2.45802e-08
-2.2471e-08
-5.58936e-08
2.15872e-08
-2.2392e-08
-4.82392e-08
1.88156e-08
-2.22285e-08
-4.04674e-08
1.62586e-08
-2.19644e-08
-3.26146e-08
1.38989e-08
-2.15712e-08
-2.47001e-08
1.17161e-08
-2.09988e-08
-1.67641e-08
9.67317e-09
-2.01321e-08
-8.82955e-09
7.71863e-09
-1.87013e-08
4.60748e-09
-1.5333e-08
-5.47668e-09
4.47124e-08
1.07695e-09
-1.00388e-08
7.25607e-08
-4.30354e-10
-1.40356e-08
8.48375e-08
-1.41729e-09
-1.77202e-08
9.34135e-08
-2.11101e-09
-2.12183e-08
9.91198e-08
-2.71096e-09
-2.45062e-08
1.02572e-07
-3.32233e-09
-2.75484e-08
1.04251e-07
-3.99069e-09
-3.02937e-08
1.04517e-07
-4.70521e-09
-3.27098e-08
1.0367e-07
-5.47607e-09
-3.47638e-08
1.01931e-07
-6.28581e-09
-3.64331e-08
9.94939e-08
-7.13865e-09
-3.7706e-08
9.6506e-08
-8.01392e-09
-3.85864e-08
9.31029e-08
-8.90633e-09
-3.90843e-08
8.93834e-08
-9.7952e-09
-3.92146e-08
8.54436e-08
-1.06801e-08
-3.90001e-08
8.13529e-08
-1.15428e-08
-3.84727e-08
7.71988e-08
-1.23764e-08
-3.76746e-08
7.30359e-08
-1.31657e-08
-3.66479e-08
6.8915e-08
-1.39107e-08
-3.54317e-08
6.48719e-08
-1.45991e-08
-3.4067e-08
6.09408e-08
-1.52312e-08
-3.25887e-08
5.7145e-08
-1.57976e-08
-3.1034e-08
5.35041e-08
-1.6299e-08
-2.94348e-08
5.00206e-08
-1.67305e-08
-2.78058e-08
4.66997e-08
-1.70929e-08
-2.61699e-08
4.35385e-08
-1.73811e-08
-2.45182e-08
4.05244e-08
-1.75954e-08
-2.28337e-08
3.76353e-08
-1.77309e-08
-2.10771e-08
3.48399e-08
-1.77832e-08
-1.91691e-08
3.20927e-08
-1.77408e-08
-1.69932e-08
2.93129e-08
-1.75903e-08
-1.43642e-08
2.64066e-08
-1.732e-08
-1.09708e-08
2.32268e-08
-1.69461e-08
-6.48128e-09
1.96191e-08
-1.63917e-08
1.25919e-08
-1.44649e-08
-6.44513e-09
4.43043e-08
6.85267e-09
-8.61424e-09
6.90353e-08
5.69457e-09
-8.67156e-09
8.01724e-08
4.72371e-09
-7.5367e-09
8.82005e-08
4.0759e-09
-5.73621e-09
9.37746e-08
3.54537e-09
-3.55489e-09
9.74192e-08
2.97272e-09
-1.17676e-09
9.95339e-08
2.33768e-09
1.26697e-09
1.00442e-07
1.63142e-09
3.68635e-09
1.00381e-07
8.71811e-10
6.00034e-09
9.95606e-08
5.4083e-11
8.16309e-09
9.81299e-08
-7.9776e-10
1.01251e-08
9.62309e-08
-1.68619e-09
1.18627e-08
9.39603e-08
-2.59548e-09
1.33512e-08
9.14164e-08
-3.52089e-09
1.45679e-08
8.86668e-08
-4.44167e-09
1.54924e-08
8.57829e-08
-5.35259e-09
1.61099e-08
8.28143e-08
-6.23568e-09
1.64218e-08
7.9814e-08
-7.08821e-09
1.64171e-08
7.68148e-08
-7.89596e-09
1.60952e-08
7.38519e-08
-8.6575e-09
1.54512e-08
7.09459e-08
-9.36211e-09
1.44917e-08
6.81157e-08
-1.00096e-08
1.3218e-08
6.53683e-08
-1.05923e-08
1.16447e-08
6.27062e-08
-1.11112e-08
9.78311e-09
6.01211e-08
-1.15613e-08
7.67039e-09
5.75959e-08
-1.19441e-08
5.34961e-09
5.51011e-08
-1.22564e-08
2.89468e-09
5.25907e-08
-1.25007e-08
4.0931e-10
5.00004e-08
-1.2674e-08
-1.96114e-09
4.72379e-08
-1.27753e-08
-4.02101e-09
4.41701e-08
-1.2798e-08
-5.48066e-09
4.06254e-08
-1.27591e-08
-5.87006e-09
3.63612e-08
-1.27445e-08
-4.53561e-09
3.10664e-08
-1.27818e-08
1.99483e-08
-1.18925e-08
-4.51591e-09
4.09215e-08
7.89702e-09
-5.00465e-09
6.25961e-08
6.93074e-09
-3.39902e-09
7.25289e-08
6.03679e-09
-5.56951e-10
7.98772e-08
5.48095e-09
2.95836e-09
8.52263e-08
5.03373e-09
6.82958e-09
8.89834e-08
4.56349e-09
1.08277e-08
9.15065e-08
4.02948e-09
1.47891e-08
9.30358e-08
3.44445e-09
1.85759e-08
9.37896e-08
2.80479e-09
2.20968e-08
9.39145e-08
2.12417e-09
2.52784e-08
9.35495e-08
1.40071e-09
2.80714e-08
9.27843e-08
6.52431e-10
3.04381e-08
9.17125e-08
-1.19619e-10
3.23531e-08
9.03972e-08
-8.94397e-10
3.37874e-08
8.8905e-08
-1.67306e-09
3.47335e-08
8.72778e-08
-2.4412e-09
3.51818e-08
8.55615e-08
-3.19568e-09
3.51344e-08
8.37838e-08
-3.92305e-09
3.45974e-08
8.19752e-08
-4.62131e-09
3.35756e-08
8.01526e-08
-5.27998e-09
3.20852e-08
7.83334e-08
-5.89795e-09
3.01461e-08
7.65222e-08
-6.46763e-09
2.77829e-08
7.47201e-08
-6.98911e-09
2.50312e-08
7.29174e-08
-7.45731e-09
2.19287e-08
7.10956e-08
-7.87322e-09
1.85344e-08
6.92243e-08
-8.23399e-09
1.49199e-08
6.72565e-08
-8.5416e-09
1.11782e-08
6.51279e-08
-8.79562e-09
7.43511e-09
6.27438e-08
-8.99886e-09
3.84199e-09
5.99801e-08
-9.14979e-09
6.01858e-10
5.66588e-08
-9.24762e-09
-2.00914e-09
5.25498e-08
-9.3147e-09
-3.51517e-09
4.73254e-08
-9.45701e-09
-3.29505e-09
4.05801e-08
-9.73535e-09
2.60281e-08
-9.37435e-09
-2.21062e-09
3.6952e-08
6.18009e-09
-1.69582e-09
5.67801e-08
5.3021e-09
3.10275e-10
6.59747e-08
4.54559e-09
3.17328e-09
7.29301e-08
4.08595e-09
6.49874e-09
7.81603e-08
3.73975e-09
1.00511e-08
8.20497e-08
3.38186e-09
1.36722e-08
8.48929e-08
2.9922e-09
1.72234e-08
8.69182e-08
2.56532e-09
2.06091e-08
8.82936e-08
2.11057e-09
2.37415e-08
8.91589e-08
1.62435e-09
2.65603e-08
8.9613e-08
1.11652e-09
2.90132e-08
8.97451e-08
5.86856e-10
3.1063e-08
8.96156e-08
4.56216e-11
3.26796e-08
8.92838e-08
-5.02125e-10
3.38461e-08
8.8788e-08
-1.04886e-09
3.45464e-08
8.81677e-08
-1.59092e-09
3.47807e-08
8.7448e-08
-2.11976e-09
3.45423e-08
8.66537e-08
-2.63351e-09
3.38437e-08
8.57984e-08
-3.12385e-09
3.26915e-08
8.48948e-08
-3.59002e-09
3.11043e-08
8.39459e-08
-4.02558e-09
2.91054e-08
8.29515e-08
-4.43053e-09
2.67238e-08
8.19016e-08
-4.80023e-09
2.39977e-08
8.07793e-08
-5.13549e-09
2.09704e-08
7.95558e-08
-5.43339e-09
1.77017e-08
7.81887e-08
-5.6956e-09
1.42587e-08
7.6619e-08
-5.92082e-09
1.07361e-08
7.47635e-08
-6.11194e-09
7.24026e-09
7.25086e-08
-6.26918e-09
3.91427e-09
6.97e-08
-6.39421e-09
9.29246e-10
6.61275e-08
-6.4851e-09
-1.46636e-09
6.1511e-08
-6.56394e-09
-2.88678e-09
5.54657e-08
-6.71943e-09
-2.79192e-09
4.74901e-08
-7.00697e-09
3.00668e-08
-6.8298e-09
-8.29675e-10
3.37534e-08
4.0269e-09
-3.18733e-10
5.29477e-08
3.32199e-09
1.00563e-09
6.18922e-08
2.76045e-09
2.78053e-09
6.8725e-08
2.42884e-09
4.80088e-09
7.39612e-08
2.17873e-09
6.94905e-09
7.79678e-08
1.93273e-09
9.14098e-09
8.10348e-08
1.66707e-09
1.13062e-08
8.33683e-08
1.38625e-09
1.3376e-08
8.51353e-08
1.0873e-09
1.53047e-08
8.64532e-08
7.75531e-10
1.70485e-08
8.74208e-08
4.48941e-10
1.85738e-08
8.81062e-08
1.13918e-10
1.9848e-08
8.85696e-08
-2.27453e-10
2.08472e-08
8.88513e-08
-5.68294e-10
2.15581e-08
8.89888e-08
-9.09768e-10
2.19627e-08
8.90061e-08
-1.244e-09
2.20555e-08
8.89252e-08
-1.57091e-09
2.18361e-08
8.87579e-08
-1.88419e-09
2.13039e-08
8.85147e-08
-2.18385e-09
2.04658e-08
8.81977e-08
-2.46499e-09
1.93344e-08
8.78058e-08
-2.72818e-09
1.79235e-08
8.73303e-08
-2.96973e-09
1.62622e-08
8.67558e-08
-3.19085e-09
1.43734e-08
8.60577e-08
-3.389e-09
1.22932e-08
8.51998e-08
-3.56595e-09
1.00711e-08
8.41324e-08
-3.72024e-09
7.75907e-09
8.27848e-08
-3.85427e-09
5.42556e-09
8.10642e-08
-3.96777e-09
3.15731e-09
7.88405e-08
-4.06374e-09
1.05477e-09
7.59441e-08
-4.14113e-09
-7.54853e-10
7.21395e-08
-4.201e-09
-2.11056e-09
6.71205e-08
-4.25628e-09
-2.735e-09
6.04617e-08
-4.37045e-09
-2.28576e-09
5.16117e-08
-4.572e-09
3.22197e-08
-4.43814e-09
-5.48944e-10
3.15517e-08
2.74976e-09
-5.52225e-10
5.06323e-08
2.32092e-09
-1.7754e-10
5.95229e-08
1.99265e-09
4.10445e-10
6.63395e-08
1.79816e-09
1.12916e-09
7.15933e-08
1.6497e-09
1.93235e-09
7.56653e-08
1.49846e-09
2.79443e-09
7.88348e-08
1.33813e-09
3.68159e-09
8.13158e-08
1.16618e-09
4.5648e-09
8.32638e-08
9.87317e-10
5.41691e-09
8.48008e-08
7.99568e-10
6.21725e-09
8.60142e-08
6.07639e-10
6.93723e-09
8.69745e-08
4.10651e-10
7.56296e-09
8.77308e-08
2.13585e-10
8.07281e-09
8.83243e-08
1.65958e-11
8.45498e-09
8.87819e-08
-1.74882e-10
8.69663e-09
8.91265e-08
-3.61422e-10
8.78831e-09
8.93715e-08
-5.39857e-10
8.73064e-09
8.95279e-08
-7.10544e-10
8.51368e-09
8.95997e-08
-8.6963e-10
8.14239e-09
8.95874e-08
-1.01783e-09
7.61675e-09
8.94831e-08
-1.15224e-09
6.94782e-09
8.92747e-08
-1.27473e-09
6.14495e-09
8.89413e-08
-1.38326e-09
5.22691e-09
8.84546e-08
-1.48016e-09
4.21744e-09
8.77736e-08
-1.56406e-09
3.14517e-09
8.68433e-08
-1.63775e-09
2.04159e-09
8.55887e-08
-1.70051e-09
9.49665e-10
8.391e-08
-1.75567e-09
-7.63796e-11
8.16718e-08
-1.80304e-09
-9.82333e-10
7.86952e-08
-1.8454e-09
-1.70115e-09
7.47372e-08
-1.88153e-09
-2.13227e-09
6.94779e-08
-1.92294e-09
-2.14508e-09
6.2479e-08
-2.00647e-09
-1.54831e-09
5.31623e-08
-2.14656e-09
3.27613e-08
-2.0898e-09
-9.07105e-10
3.00599e-08
2.40035e-09
-1.56001e-09
4.89823e-08
2.30114e-09
-2.01887e-09
5.77897e-08
2.19143e-09
-2.35061e-09
6.45407e-08
2.13088e-09
-2.57923e-09
6.97493e-08
2.07189e-09
-2.70943e-09
7.37941e-08
2.00241e-09
-2.75145e-09
7.69581e-08
1.91897e-09
-2.71551e-09
7.9451e-08
1.82689e-09
-2.60902e-09
8.14319e-08
1.7262e-09
-2.44598e-09
8.30169e-08
1.62135e-09
-2.23915e-09
8.42964e-08
1.51186e-09
-2.00271e-09
8.53348e-08
1.40215e-09
-1.74763e-09
8.61837e-08
1.29174e-09
-1.48604e-09
8.68782e-08
1.18483e-09
-1.23233e-09
8.74474e-08
1.08053e-09
-9.97736e-10
8.79075e-08
9.83545e-10
-7.90524e-10
8.82732e-08
8.92722e-10
-6.24806e-10
8.85497e-08
8.11353e-10
-5.0269e-10
8.87404e-08
7.37762e-10
-4.29317e-10
8.88405e-08
6.73284e-10
-4.04444e-10
8.88429e-08
6.16023e-10
-4.30062e-10
8.87311e-08
5.67987e-10
-4.99813e-10
8.84845e-08
5.26424e-10
-6.08468e-10
8.80707e-08
4.92677e-10
-7.48489e-10
8.7449e-08
4.63453e-10
-9.03619e-10
8.65612e-08
4.39549e-10
-1.06707e-09
8.53328e-08
4.17189e-10
-1.21454e-09
8.36619e-08
3.96583e-10
-1.33149e-09
8.14146e-08
3.73411e-10
-1.39565e-09
7.84116e-08
3.47738e-10
-1.38559e-09
7.44135e-08
3.15069e-10
-1.2814e-09
6.91017e-08
2.69626e-10
-1.03084e-09
6.20462e-08
1.83517e-10
-5.93844e-10
5.26739e-08
5.22223e-11
3.22072e-08
-4.03111e-11
-1.3534e-09
2.89122e-08
2.50146e-09
-2.47813e-09
4.74215e-08
2.6857e-09
-3.45973e-09
5.60248e-08
2.74654e-09
-4.31893e-09
6.26136e-08
2.78586e-09
-5.05534e-09
6.76888e-08
2.79677e-09
-5.67029e-09
7.16254e-08
2.78306e-09
-6.16186e-09
7.46982e-08
2.7529e-09
-6.53844e-09
7.71175e-08
2.70875e-09
-6.79772e-09
7.90358e-08
2.65672e-09
-6.9521e-09
8.05719e-08
2.59751e-09
-7.00113e-09
8.18104e-08
2.536e-09
-6.95755e-09
8.28191e-08
2.47217e-09
-6.82841e-09
8.36443e-08
2.41033e-09
-6.62424e-09
8.43244e-08
2.34997e-09
-6.35461e-09
8.48833e-08
2.29485e-09
-6.03455e-09
8.53418e-08
2.24394e-09
-5.67095e-09
8.57093e-08
2.20034e-09
-5.27686e-09
8.59945e-08
2.16224e-09
-4.86384e-09
8.61945e-08
2.13272e-09
-4.4413e-09
8.63071e-08
2.10955e-09
-4.01164e-09
8.63204e-08
2.09445e-09
-3.5873e-09
8.62214e-08
2.0844e-09
-3.16813e-09
8.59849e-08
2.08061e-09
-2.75897e-09
8.55823e-08
2.07948e-09
-2.36075e-09
8.49692e-08
2.08171e-09
-1.97482e-09
8.40921e-08
2.0832e-09
-1.60062e-09
8.28744e-08
2.08411e-09
-1.24038e-09
8.12207e-08
2.0797e-09
-8.92527e-10
7.89985e-08
2.06938e-09
-5.66811e-10
7.60378e-08
2.04754e-09
-2.72628e-10
7.21063e-08
2.01244e-09
-2.44538e-11
6.69008e-08
1.95335e-09
1.59236e-10
6.00092e-08
1.85248e-09
2.51812e-10
5.08845e-08
1.69717e-09
3.10134e-08
1.44573e-09
-1.54717e-09
2.79896e-08
2.47007e-09
-2.86108e-09
4.59127e-08
2.82138e-09
-4.04573e-09
5.42368e-08
2.97432e-09
-5.10453e-09
6.06026e-08
3.06869e-09
-6.02702e-09
6.54976e-08
3.11439e-09
-6.81229e-09
6.928e-08
3.13072e-09
-7.46186e-09
7.22219e-08
3.12485e-09
-7.97254e-09
7.45231e-08
3.10475e-09
-8.34527e-09
7.63374e-08
3.07296e-09
-8.58644e-09
7.77762e-08
3.03522e-09
-8.69533e-09
7.89276e-08
2.99257e-09
-8.68117e-09
7.98537e-08
2.94967e-09
-8.54846e-09
8.0605e-08
2.90672e-09
-8.30609e-09
8.1215e-08
2.86771e-09
-7.96702e-09
8.17123e-08
2.8322e-09
-7.54193e-09
8.21126e-08
2.80354e-09
-7.04253e-09
8.24302e-08
2.78057e-09
-6.48389e-09
8.26685e-08
2.76597e-09
-5.8774e-09
8.28308e-08
2.75778e-09
-5.23875e-09
8.29099e-08
2.75794e-09
-4.57891e-09
8.28986e-08
2.7637e-09
-3.9134e-09
8.27786e-08
2.77627e-09
-3.2529e-09
8.25301e-08
2.79217e-09
-2.59943e-09
8.21195e-08
2.81198e-09
-1.97106e-09
8.15084e-08
2.83159e-09
-1.37053e-09
8.064e-08
2.85101e-09
-8.07072e-10
7.94455e-08
2.86553e-09
-2.88525e-10
7.78283e-08
2.87444e-09
1.69588e-10
7.56672e-08
2.87206e-09
5.55831e-10
7.27956e-08
2.85656e-09
8.42681e-10
6.89987e-08
2.8204e-09
1.00159e-09
6.39844e-08
2.7571e-09
9.9575e-10
5.73701e-08
2.64587e-09
7.69927e-10
4.8636e-08
2.47379e-09
2.96645e-08
2.11848e-09
-1.35855e-09
2.73407e-08
2.00642e-09
-2.57143e-09
4.47518e-08
2.37503e-09
-3.70696e-09
5.28291e-08
2.54406e-09
-4.74361e-09
5.89969e-08
2.64145e-09
-5.66135e-09
6.37247e-08
2.68945e-09
-6.44948e-09
6.73633e-08
2.70599e-09
-7.10589e-09
7.01745e-08
2.70228e-09
-7.62136e-09
7.23572e-08
2.68242e-09
-7.99433e-09
7.40582e-08
2.65268e-09
-8.22659e-09
7.53919e-08
2.6152e-09
-8.31335e-09
7.6441e-08
2.57501e-09
-8.26506e-09
7.7272e-08
2.5332e-09
-8.08593e-09
7.79313e-08
2.49401e-09
-7.78665e-09
7.84575e-08
2.4578e-09
-7.37778e-09
7.88751e-08
2.42816e-09
-6.87504e-09
7.92053e-08
2.40472e-09
-6.29364e-09
7.94578e-08
2.39033e-09
-5.64968e-09
7.96418e-08
2.38374e-09
-4.96137e-09
7.97556e-08
2.38699e-09
-4.24865e-09
7.97977e-08
2.39792e-09
-3.52174e-09
7.97556e-08
2.4177e-09
-2.80527e-09
7.96165e-08
2.44331e-09
-2.10262e-09
7.93553e-08
2.47513e-09
-1.43814e-09
7.89442e-08
2.50941e-09
-8.14692e-10
7.83402e-08
2.54588e-09
-2.49702e-10
7.74929e-08
2.58017e-09
2.55311e-10
7.63304e-08
2.61141e-09
6.83557e-10
7.47645e-08
2.63456e-09
1.02884e-09
7.26735e-08
2.64792e-09
1.27629e-09
6.99031e-08
2.6454e-09
1.40885e-09
6.62435e-08
2.62366e-09
1.39916e-09
6.14209e-08
2.57264e-09
1.22193e-09
5.50683e-08
2.47824e-09
8.40098e-10
4.66959e-08
2.32113e-09
2.85322e-08
1.97302e-09
-8.8704e-10
2.71237e-08
1.10345e-09
-1.81858e-09
4.43166e-08
1.36644e-09
-2.75946e-09
5.22838e-08
1.48841e-09
-3.66798e-09
5.83517e-08
1.55122e-09
-4.50106e-09
6.29871e-08
1.57232e-09
-5.24013e-09
6.65332e-08
1.5692e-09
-5.86805e-09
6.92537e-08
1.54784e-09
-6.36797e-09
7.13427e-08
1.51422e-09
-6.73103e-09
7.29512e-08
1.47078e-09
-6.95133e-09
7.41899e-08
1.42251e-09
-7.03049e-09
7.5147e-08
1.37119e-09
-6.96356e-09
7.58859e-08
1.32119e-09
-6.76667e-09
7.64588e-08
1.2737e-09
-6.44116e-09
7.69013e-08
1.23253e-09
-6.00984e-09
7.72439e-08
1.1982e-09
-5.48225e-09
7.75042e-08
1.1738e-09
-4.88195e-09
7.7698e-08
1.15898e-09
-4.22572e-09
7.783e-08
1.15594e-09
-3.53777e-09
7.79042e-08
1.16336e-09
-2.83648e-09
7.79143e-08
1.18244e-09
-2.14478e-09
7.78529e-08
1.21085e-09
-1.48015e-09
7.77019e-08
1.24886e-09
-8.57895e-10
7.7441e-08
1.29324e-09
-2.95649e-10
7.70371e-08
1.34346e-09
1.98672e-10
7.64519e-08
1.3956e-09
6.12525e-10
7.56298e-08
1.44855e-09
9.41286e-10
7.45044e-08
1.4979e-09
1.17886e-09
7.29833e-08
1.54211e-09
1.326e-09
7.09519e-08
1.57623e-09
1.37636e-09
6.82534e-08
1.59827e-09
1.32942e-09
6.46881e-08
1.60242e-09
1.18075e-09
5.99841e-08
1.58431e-09
9.31195e-10
5.37889e-08
1.53074e-09
5.7426e-10
4.56228e-08
1.42934e-09
2.7915e-08
1.191e-09
-3.25323e-10
2.74484e-08
5.69847e-13
-9.15337e-10
4.48218e-08
8.56392e-11
-1.61933e-09
5.28589e-08
1.28823e-10
-2.36502e-09
5.89626e-08
1.34596e-10
-3.0958e-09
6.36031e-08
1.15157e-10
-3.77516e-09
6.71324e-08
7.91769e-11
-4.36793e-09
6.98154e-08
3.17326e-11
-4.85433e-09
7.1854e-08
-2.53936e-11
-5.21356e-09
7.33992e-08
-8.83671e-11
-5.43724e-09
7.45691e-08
-1.55262e-10
-5.51885e-09
7.54511e-08
-2.22015e-10
-5.46246e-09
7.61154e-08
-2.86827e-10
-5.27046e-09
7.6613e-08
-3.45848e-10
-4.95623e-09
7.69858e-08
-3.97777e-10
-4.53542e-09
7.7262e-08
-4.39314e-10
-4.02724e-09
7.74654e-08
-4.69834e-10
-3.45099e-09
7.76087e-08
-4.86867e-10
-2.83227e-09
7.77018e-08
-4.90806e-10
-2.19179e-09
7.77451e-08
-4.80241e-10
-1.55767e-09
7.77365e-08
-4.56676e-10
-9.50716e-10
7.76643e-08
-4.19804e-10
-3.89882e-10
7.75142e-08
-3.72196e-10
1.049e-10
7.72604e-08
-3.14512e-10
5.1906e-10
7.68732e-08
-2.50176e-10
8.42976e-10
7.63084e-08
-1.80546e-10
1.06846e-09
7.55133e-08
-1.09558e-10
1.19751e-09
7.44153e-08
-3.89242e-11
1.22862e-09
7.29247e-08
2.72833e-11
1.1718e-09
7.09206e-08
8.73256e-11
1.03875e-09
6.82492e-08
1.37462e-10
8.4688e-10
6.47044e-08
1.76287e-10
6.1347e-10
6.00174e-08
1.99788e-10
3.68899e-10
5.38302e-08
2.03447e-10
1.45687e-10
4.56656e-08
1.79259e-10
2.79474e-08
1.14082e-10
1.62062e-10
2.83115e-08
-1.02531e-09
-1.25379e-10
4.62258e-08
-1.11566e-09
-6.14681e-10
5.45002e-08
-1.15285e-09
-1.2118e-09
6.07631e-08
-1.20226e-09
-1.85011e-09
6.55034e-08
-1.26226e-09
-2.47538e-09
6.90853e-08
-1.32916e-09
-3.04197e-09
7.17861e-08
-1.40302e-09
-3.52123e-09
7.38141e-08
-1.48202e-09
-3.88652e-09
7.53301e-08
-1.5653e-09
-4.12286e-09
7.6455e-08
-1.64955e-09
-4.22443e-09
7.72845e-08
-1.7329e-09
-4.18691e-09
7.78899e-08
-1.81165e-09
-4.01948e-09
7.8329e-08
-1.88383e-09
-3.73149e-09
7.86436e-08
-1.94594e-09
-3.341e-09
7.88678e-08
-1.99652e-09
-2.86598e-09
7.90238e-08
-2.0328e-09
-2.33311e-09
7.91296e-08
-2.05423e-09
-1.76417e-09
7.91925e-08
-2.0591e-09
-1.18936e-09
7.92168e-08
-2.048e-09
-6.27357e-10
7.91971e-08
-2.02039e-09
-1.10509e-10
7.91247e-08
-1.9781e-09
3.43736e-10
7.89807e-08
-1.92172e-09
7.17798e-10
7.87416e-08
-1.8541e-09
9.95399e-10
7.83721e-08
-1.77674e-09
1.16772e-09
7.78291e-08
-1.69317e-09
1.23163e-09
7.70536e-08
-1.60535e-09
1.19086e-09
7.59731e-08
-1.51699e-09
1.05535e-09
7.44902e-08
-1.42991e-09
8.40982e-10
7.24827e-08
-1.34733e-09
5.7148e-10
6.97876e-08
-1.27002e-09
2.80744e-10
6.6195e-08
-1.19979e-09
1.06128e-11
6.14247e-08
-1.1357e-09
-1.91433e-10
5.51097e-08
-1.07851e-09
-2.5672e-10
4.67571e-08
-1.02642e-09
2.86115e-08
-9.20626e-10
4.61107e-10
2.95855e-08
-1.73579e-09
3.71936e-10
4.82748e-08
-1.95948e-09
3.65031e-11
5.68944e-08
-2.05727e-09
-4.54494e-10
6.34011e-08
-2.14949e-09
-1.01394e-09
6.83047e-08
-2.2401e-09
-1.58819e-09
7.19906e-08
-2.33187e-09
-2.12354e-09
7.47477e-08
-2.42593e-09
-2.58489e-09
7.67982e-08
-2.52302e-09
-2.94251e-09
7.83094e-08
-2.62163e-09
-3.17974e-09
7.94122e-08
-2.72031e-09
-3.28578e-09
8.02058e-08
-2.81594e-09
-3.25752e-09
8.07695e-08
-2.90631e-09
-3.10281e-09
8.11623e-08
-2.98799e-09
-2.8332e-09
8.14325e-08
-3.05885e-09
-2.46535e-09
8.16143e-08
-3.11589e-09
-2.01622e-09
8.1735e-08
-3.15769e-09
-1.51713e-09
8.18111e-08
-3.18217e-09
-9.90227e-10
8.18541e-08
-3.18901e-09
-4.61868e-10
8.18659e-08
-3.17729e-09
3.84202e-11
8.18439e-08
-3.14799e-09
4.90437e-10
8.17758e-08
-3.10145e-09
8.65648e-10
8.16442e-08
-3.03983e-09
1.15141e-09
8.14213e-08
-2.96456e-09
1.32822e-09
8.10718e-08
-2.87871e-09
1.39604e-09
8.05471e-08
-2.78441e-09
1.34848e-09
7.9787e-08
-2.68513e-09
1.1926e-09
7.87115e-08
-2.58308e-09
9.44238e-10
7.72206e-08
-2.48136e-09
6.24817e-10
7.51825e-08
-2.38137e-09
2.68948e-10
7.24288e-08
-2.28459e-09
-8.23209e-11
6.87363e-08
-2.19019e-09
-3.75293e-10
6.38146e-08
-2.09655e-09
-5.43853e-10
5.72767e-08
-1.99885e-09
-5.06362e-10
4.86109e-08
-1.89084e-09
2.97609e-08
-1.65684e-09
5.40498e-10
3.10865e-08
-2.04083e-09
5.21657e-10
5.06164e-08
-2.32399e-09
2.52634e-10
5.96148e-08
-2.45033e-09
-1.75999e-10
6.63918e-08
-2.56234e-09
-6.86273e-10
7.14824e-08
-2.66797e-09
-1.21464e-09
7.52907e-08
-2.77151e-09
-1.71331e-09
7.81219e-08
-2.87612e-09
-2.14063e-09
8.02086e-08
-2.9821e-09
-2.47226e-09
8.17294e-08
-3.08921e-09
-2.6859e-09
8.28211e-08
-3.19518e-09
-2.77392e-09
8.35913e-08
-3.29796e-09
-2.73266e-09
8.41224e-08
-3.39432e-09
-2.56901e-09
8.44802e-08
-3.4818e-09
-2.29255e-09
8.4714e-08
-3.55722e-09
-1.92411e-09
8.48632e-08
-3.61851e-09
-1.48029e-09
8.49553e-08
-3.6632e-09
-9.9102e-10
8.50103e-08
-3.69016e-09
-4.75644e-10
8.50389e-08
-3.69801e-09
3.10648e-11
8.50452e-08
-3.68687e-09
5.07617e-10
8.50244e-08
-3.65666e-09
9.25133e-10
8.49658e-08
-3.60878e-09
1.26502e-09
8.48485e-08
-3.54436e-09
1.50797e-09
8.46446e-08
-3.46592e-09
1.64147e-09
8.43144e-08
-3.37554e-09
1.65581e-09
8.38079e-08
-3.27643e-09
1.55629e-09
8.30589e-08
-3.17105e-09
1.34526e-09
8.19844e-08
-3.06264e-09
1.04298e-09
8.04767e-08
-2.95323e-09
6.71703e-10
7.8398e-08
-2.84509e-09
2.69192e-10
7.55694e-08
-2.73843e-09
-1.19012e-10
7.17576e-08
-2.63291e-09
-4.3594e-10
6.66567e-08
-2.52507e-09
-6.10726e-10
5.98616e-08
-2.40931e-09
-5.61843e-10
5.08363e-08
-2.27621e-09
3.11866e-08
-1.98621e-09
4.48197e-10
3.25966e-08
-1.9577e-09
3.94787e-10
5.28954e-08
-2.22731e-09
1.18751e-10
6.22407e-08
-2.34931e-09
-2.96728e-10
6.92669e-08
-2.45932e-09
-7.80502e-10
7.45299e-08
-2.5637e-09
-1.27705e-09
7.84526e-08
-2.66711e-09
-1.73402e-09
8.13527e-08
-2.77182e-09
-2.12262e-09
8.34747e-08
-2.87859e-09
-2.41177e-09
8.50049e-08
-2.98641e-09
-2.5848e-09
8.60886e-08
-3.09354e-09
-2.63608e-09
8.68379e-08
-3.19723e-09
-2.55791e-09
8.73414e-08
-3.29486e-09
-2.36296e-09
8.76676e-08
-3.38327e-09
-2.06108e-09
8.78707e-08
-3.45991e-09
-1.66569e-09
8.79912e-08
-3.52204e-09
-1.20294e-09
8.80601e-08
-3.56782e-09
-6.93726e-10
8.80976e-08
-3.59544e-09
-1.68664e-10
8.81165e-08
-3.6042e-09
3.48084e-10
8.81203e-08
-3.59351e-09
8.33007e-10
8.81051e-08
-3.56396e-09
1.25646e-09
8.80581e-08
-3.51629e-09
1.59912e-09
8.79584e-08
-3.45229e-09
1.84245e-09
8.77748e-08
-3.37382e-09
1.97409e-09
8.74666e-08
-3.28364e-09
1.98564e-09
8.69793e-08
-3.1843e-09
1.88058e-09
8.6244e-08
-3.07896e-09
1.66326e-09
8.51718e-08
-2.97026e-09
1.35066e-09
8.36504e-08
-2.86092e-09
9.66426e-10
8.1534e-08
-2.75268e-09
5.46014e-10
7.86364e-08
-2.64653e-09
1.3309e-10
7.47123e-08
-2.54171e-09
-2.1973e-10
6.94439e-08
-2.43575e-09
-4.40867e-10
6.24077e-08
-2.32315e-09
-4.57041e-10
5.30472e-08
-2.19663e-09
3.26522e-08
-1.92226e-09
2.38176e-10
3.39442e-08
-1.58705e-09
8.16127e-11
5.48389e-08
-1.78583e-09
-2.52203e-10
6.44534e-08
-1.87846e-09
-6.88993e-10
7.16719e-08
-1.96908e-09
-1.16556e-09
7.70669e-08
-2.06004e-09
-1.63388e-09
8.10743e-08
-2.15339e-09
-2.05417e-09
8.4023e-08
-2.25047e-09
-2.39422e-09
8.61659e-08
-2.351e-09
-2.63287e-09
8.76966e-08
-2.45381e-09
-2.75355e-09
8.87661e-08
-2.55657e-09
-2.75088e-09
8.94916e-08
-2.65671e-09
-2.62382e-09
8.99658e-08
-2.75117e-09
-2.38047e-09
9.02609e-08
-2.83713e-09
-2.03222e-09
9.04336e-08
-2.91167e-09
-1.59616e-09
9.05274e-08
-2.97241e-09
-1.09387e-09
9.05746e-08
-3.01718e-09
-5.49525e-10
9.05974e-08
-3.04453e-09
1.31885e-11
9.06086e-08
-3.0534e-09
5.63834e-10
9.06127e-08
-3.04358e-09
1.07932e-09
9.06051e-08
-3.01529e-09
1.53476e-09
9.05727e-08
-2.96958e-09
1.90689e-09
9.04929e-08
-2.90791e-09
2.18132e-09
9.03335e-08
-2.83244e-09
2.34379e-09
9.00506e-08
-2.74556e-09
2.38443e-09
8.95875e-08
-2.65017e-09
2.30582e-09
8.88716e-08
-2.54912e-09
2.11387e-09
8.78103e-08
-2.44545e-09
1.81769e-09
8.62859e-08
-2.34173e-09
1.44695e-09
8.41474e-08
-2.24027e-09
1.02315e-09
8.1201e-08
-2.14224e-09
5.89447e-10
7.71936e-08
-2.04791e-09
1.93927e-10
7.17962e-08
-1.95579e-09
-1.08856e-10
6.45726e-08
-1.86329e-09
-2.43673e-10
5.495e-08
-1.7674e-09
3.39728e-08
-1.56498e-09
-1.17929e-11
3.50159e-08
-1.06086e-09
-3.03343e-10
5.62897e-08
-1.15669e-09
-7.20834e-10
6.60746e-08
-1.2055e-09
-1.19425e-09
7.34122e-08
-1.26698e-09
-1.67564e-09
7.88851e-08
-1.33715e-09
-2.12387e-09
8.29377e-08
-1.41472e-09
-2.50727e-09
8.59059e-08
-1.49915e-09
-2.80057e-09
8.80487e-08
-1.58925e-09
-2.986e-09
8.95647e-08
-1.68312e-09
-3.05106e-09
9.06091e-08
-1.77817e-09
-2.98962e-09
9.13034e-08
-1.87152e-09
-2.80977e-09
9.17432e-08
-1.96014e-09
-2.51079e-09
9.20039e-08
-2.04106e-09
-2.11041e-09
9.21445e-08
-2.11152e-09
-1.62395e-09
9.22108e-08
-2.16905e-09
-1.07374e-09
9.22363e-08
-2.21162e-09
-4.84098e-10
9.22446e-08
-2.23773e-09
1.2109e-10
9.22494e-08
-2.24644e-09
7.16541e-10
9.22553e-08
-2.23742e-09
1.2741e-09
9.22575e-08
-2.21101e-09
1.77356e-09
9.22423e-08
-2.16811e-09
2.19052e-09
9.21858e-08
-2.11025e-09
2.50897e-09
9.20546e-08
-2.03945e-09
2.7146e-09
9.18025e-08
-1.95816e-09
2.80107e-09
9.13706e-08
-1.86915e-09
2.76438e-09
9.06832e-08
-1.77539e-09
2.61067e-09
8.96446e-08
-1.67989e-09
2.34779e-09
8.81334e-08
-1.58552e-09
1.99508e-09
8.59943e-08
-1.49487e-09
1.57794e-09
8.30283e-08
-1.40983e-09
1.128e-09
7.89767e-08
-1.33157e-09
6.79553e-10
7.35033e-08
-1.26054e-09
2.85758e-10
6.61637e-08
-1.19759e-09
7.84094e-12
5.63751e-08
-1.14629e-09
3.50278e-08
-1.04754e-09
-2.44163e-10
3.57717e-08
-5.09723e-10
-6.72685e-10
5.72116e-08
-4.9586e-10
-1.16967e-09
6.70693e-08
-4.97687e-10
-1.68249e-09
7.44531e-08
-5.27639e-10
-2.17121e-09
7.99493e-08
-5.75008e-10
-2.60722e-09
8.40065e-08
-6.34915e-10
-2.95887e-09
8.69639e-08
-7.04909e-10
-3.21261e-09
8.9084e-08
-7.8283e-10
-3.34892e-09
9.05681e-08
-8.6608e-10
-3.36358e-09
9.15751e-08
-9.51779e-10
-3.25248e-09
9.22283e-08
-1.03679e-09
-3.01752e-09
9.26269e-08
-1.11811e-09
-2.66928e-09
9.28479e-08
-1.1927e-09
-2.21915e-09
9.2953e-08
-1.25792e-09
-1.68703e-09
9.2989e-08
-1.3113e-09
-1.09212e-09
9.29917e-08
-1.35094e-09
-4.56888e-10
9.29851e-08
-1.37531e-09
1.92496e-10
9.2984e-08
-1.38358e-09
8.30567e-10
9.29927e-08
-1.37537e-09
1.43173e-09
9.30068e-08
-1.35105e-09
1.97343e-09
9.30114e-08
-1.31145e-09
2.43641e-09
9.29825e-08
-1.25809e-09
2.798e-09
9.2884e-08
-1.19287e-09
3.0499e-09
9.26694e-08
-1.11823e-09
3.18061e-09
9.22765e-08
-1.03684e-09
3.18684e-09
9.16284e-08
-9.51713e-10
3.07078e-09
9.0626e-08
-8.65851e-10
2.84237e-09
8.91457e-08
-7.82368e-10
2.51045e-09
8.70286e-08
-7.04148e-10
2.10054e-09
8.40735e-08
-6.33765e-10
1.63192e-09
8.00178e-08
-5.73378e-10
1.13875e-09
7.45224e-08
-5.25349e-10
6.5709e-10
6.71385e-08
-4.94244e-10
2.43748e-10
5.72802e-08
-4.90438e-10
3.57729e-08
-5.01973e-10
-4.21918e-10
3.62271e-08
-3.25157e-11
-9.49573e-10
5.76613e-08
7.64511e-11
-1.50831e-09
6.75127e-08
1.1578e-10
-2.05175e-09
7.48824e-08
1.13898e-10
-2.54573e-09
8.03568e-08
8.71978e-11
-2.96664e-09
8.43836e-08
4.38863e-11
-3.2954e-09
8.73042e-08
-1.22225e-11
-3.51416e-09
8.93812e-08
-7.81005e-11
-3.61336e-09
9.08188e-08
-1.50688e-10
-3.58923e-09
9.17763e-08
-2.26767e-10
-3.43761e-09
9.23804e-08
-3.032e-10
-3.16355e-09
9.27307e-08
-3.76813e-10
-2.78022e-09
9.29075e-08
-4.44802e-10
-2.29521e-09
9.29731e-08
-5.04379e-10
-1.73017e-09
9.2977e-08
-5.53369e-10
-1.10321e-09
9.29549e-08
-5.89756e-10
-4.40425e-10
9.29331e-08
-6.12266e-10
2.38829e-10
9.29259e-08
-6.19907e-10
9.05931e-10
9.29387e-08
-6.12508e-10
1.53499e-09
9.29659e-08
-5.9024e-10
2.10926e-09
9.29932e-08
-5.54072e-10
2.60117e-09
9.29945e-08
-5.05282e-10
2.99818e-09
9.29338e-08
-4.45873e-10
3.28197e-09
9.27616e-08