/*--------------------------------*- C++ -*----------------------------------*\
| =========                 |                                                 |
| \\      /  F ield         | OpenFOAM: The Open Source CFD Toolbox           |
|  \\    /   O peration     | Version:  v2006                                 |
|   \\  /    A nd           | Website:  www.openfoam.com                      |
|    \\/     M anipulation  |                                                 |
\*---------------------------------------------------------------------------*/
FoamFile
{
    version     2.0;
    format      ascii;
    class       volScalarField;
    location    "100";
    object      alphat;
}
// * * * * * * * * * * * * * * * * * * * * * * * * * * * * * * * * * * * * * //

dimensions      [1 -1 -1 0 0 0 0];


internalField   nonuniform List<scalar> 
78750
(
1.41963e-09
2.64686e-07
5.01816e-07
7.39553e-07
9.7194e-07
1.19632e-06
1.41108e-06
1.61474e-06
1.80585e-06
1.98311e-06
2.14547e-06
2.29208e-06
2.42236e-06
2.536e-06
2.63249e-06
2.71072e-06
2.77047e-06
2.81144e-06
2.8332e-06
2.83521e-06
2.8166e-06
2.77605e-06
2.71224e-06
2.62352e-06
2.50813e-06
2.36453e-06
2.19099e-06
1.98688e-06
1.75373e-06
1.49406e-06
1.21001e-06
9.06267e-07
6.02308e-07
3.36633e-07
5.11106e-09
4.25646e-09
2.46473e-06
5.41667e-06
8.15235e-06
1.0167e-05
1.16498e-05
1.28617e-05
1.39488e-05
1.49909e-05
1.60378e-05
1.71218e-05
1.82631e-05
1.94937e-05
2.0869e-05
2.19523e-05
2.20306e-05
2.20184e-05
2.1925e-05
2.17582e-05
2.15245e-05
2.1228e-05
2.08688e-05
2.0445e-05
1.99507e-05
1.93758e-05
1.87091e-05
1.73251e-05
1.51573e-05
1.29989e-05
1.07711e-05
8.35033e-06
5.97675e-06
4.39644e-06
2.60429e-06
2.1495e-08
7.49205e-09
2.45299e-06
5.50385e-06
9.28294e-06
1.31743e-05
1.64716e-05
1.89718e-05
2.08299e-05
2.22418e-05
2.33473e-05
2.42343e-05
2.49529e-05
2.55303e-05
2.59915e-05
2.63677e-05
2.66592e-05
2.67817e-05
2.63903e-05
2.58985e-05
2.53574e-05
2.47832e-05
2.3859e-05
2.27268e-05
2.14833e-05
2.01825e-05
1.88456e-05
1.74558e-05
1.59474e-05
1.41895e-05
1.20416e-05
9.62019e-06
7.67669e-06
6.98978e-06
2.65118e-06
3.86761e-08
1.14833e-08
2.33765e-06
5.39491e-06
9.75169e-06
1.49969e-05
1.97653e-05
2.32196e-05
2.55014e-05
2.69467e-05
2.77791e-05
2.81392e-05
2.81259e-05
2.7815e-05
2.72689e-05
2.65422e-05
2.56841e-05
2.47321e-05
2.37063e-05
2.26206e-05
2.14962e-05
2.03607e-05
1.92507e-05
1.82056e-05
1.72585e-05
1.64313e-05
1.57153e-05
1.50406e-05
1.42442e-05
1.30931e-05
1.14673e-05
9.71925e-06
8.82231e-06
8.98689e-06
2.40505e-06
5.1368e-08
1.64932e-08
2.28079e-06
5.44645e-06
1.04458e-05
1.70238e-05
2.31021e-05
2.7272e-05
2.97446e-05
3.09492e-05
3.11742e-05
3.06586e-05
2.9623e-05
2.82633e-05
2.67411e-05
2.51757e-05
2.3643e-05
2.21805e-05
2.0798e-05
1.94897e-05
1.82468e-05
1.70694e-05
1.59738e-05
1.49893e-05
1.41483e-05
1.34763e-05
1.29722e-05
1.2569e-05
1.21001e-05
1.13489e-05
1.02801e-05
9.35734e-06
9.5669e-06
9.57058e-06
2.24055e-06
5.98949e-08
2.13584e-08
2.30678e-06
5.65751e-06
1.1322e-05
1.92214e-05
2.64901e-05
3.1063e-05
3.32872e-05
3.38046e-05
3.30819e-05
3.15179e-05
2.94721e-05
2.72465e-05
2.5063e-05
2.30542e-05
2.12754e-05
1.97276e-05
1.83799e-05
1.7188e-05
1.61099e-05
1.51193e-05
1.42109e-05
1.3388e-05
1.26576e-05
1.20356e-05
1.15276e-05
1.10905e-05
1.06102e-05
9.97026e-06
9.2539e-06
8.97831e-06
1.01205e-05
9.30069e-06
2.12739e-06
6.56736e-08
2.64142e-08
2.33272e-06
5.80642e-06
1.19263e-05
2.07064e-05
2.85956e-05
3.31808e-05
3.50222e-05
3.48809e-05
3.33278e-05
3.09051e-05
2.81102e-05
2.53318e-05
2.28119e-05
2.06522e-05
1.88546e-05
1.7372e-05
1.61424e-05
1.51042e-05
1.42085e-05
1.34294e-05
1.27546e-05
1.21567e-05
1.16031e-05
1.10767e-05
1.05699e-05
1.006e-05
9.50271e-06
8.89409e-06
8.41004e-06
8.58052e-06
1.03606e-05
8.70662e-06
2.04898e-06
7.0222e-08
3.06191e-08
2.37068e-06
5.9403e-06
1.23829e-05
2.18445e-05
3.02704e-05
3.48507e-05
3.62763e-05
3.54596e-05
3.31369e-05
3.00184e-05
2.67186e-05
2.36571e-05
2.10321e-05
1.88781e-05
1.71483e-05
1.57703e-05
1.46689e-05
1.37781e-05
1.30526e-05
1.24718e-05
1.20077e-05
1.15932e-05
1.11577e-05
1.06575e-05
1.00816e-05
9.43818e-06
8.75451e-06
8.11699e-06
7.75465e-06
8.18932e-06
1.03451e-05
8.17799e-06
1.99744e-06
7.48457e-08
3.47725e-08
2.39538e-06
6.00719e-06
1.26246e-05
2.24654e-05
3.1095e-05
3.55133e-05
3.6563e-05
3.52598e-05
3.24507e-05
2.89486e-05
2.54181e-05
2.2261e-05
1.96233e-05
1.74934e-05
1.58002e-05
1.44653e-05
1.34194e-05
1.2608e-05
1.20038e-05
1.16029e-05
1.13595e-05
1.11682e-05
1.09095e-05
1.04902e-05
9.8773e-06
9.11129e-06
8.29705e-06
7.60069e-06
7.28568e-06
7.85869e-06
1.02014e-05
7.73451e-06
1.96064e-06
8.00846e-08
3.8536e-08
2.42205e-06
6.06725e-06
1.28077e-05
2.29338e-05
3.17583e-05
3.60804e-05
3.68285e-05
3.51269e-05
3.19427e-05
2.81796e-05
2.45229e-05
2.13362e-05
1.87143e-05
1.66122e-05
1.49426e-05
1.36238e-05
1.25938e-05
1.18109e-05
1.12661e-05
1.09723e-05
1.08731e-05
1.08441e-05
1.07328e-05
1.03997e-05
9.77961e-06
8.92665e-06
8.00718e-06
7.25192e-06
6.94884e-06
7.59264e-06
1.00283e-05
7.37598e-06
1.93413e-06
8.5853e-08
4.23474e-08
2.44015e-06
6.09868e-06
1.2913e-05
2.32097e-05
3.20862e-05
3.62529e-05
3.67443e-05
3.4765e-05
3.13561e-05
2.74652e-05
2.37696e-05
2.05935e-05
1.79956e-05
1.59113e-05
1.42487e-05
1.29282e-05
1.18927e-05
1.11153e-05
1.06066e-05
1.03926e-05
1.04087e-05
1.052e-05
1.05479e-05
1.03122e-05
9.71494e-06
8.81579e-06
7.82517e-06
7.02445e-06
6.7236e-06
7.41237e-06
9.90346e-06
7.07236e-06
1.9143e-06
9.19254e-08
4.62254e-08
2.46229e-06
6.14392e-06
1.3045e-05
2.3509e-05
3.24328e-05
3.64643e-05
3.67302e-05
3.45145e-05
3.09298e-05
2.69558e-05
2.32509e-05
2.00987e-05
1.75266e-05
1.5455e-05
1.37889e-05
1.24516e-05
1.13933e-05
1.05951e-05
1.00839e-05
9.89996e-06
9.97695e-06
1.01777e-05
1.03095e-05
1.0162e-05
9.60844e-06
8.70425e-06
7.68553e-06
6.86638e-06
6.57493e-06
7.30559e-06
9.84465e-06
6.81771e-06
1.90062e-06
9.80681e-08
5.01338e-08
2.47977e-06
6.17799e-06
1.31497e-05
2.37373e-05
3.26525e-05
3.65308e-05
3.65965e-05
3.41985e-05
3.05001e-05
2.64924e-05
2.28066e-05
1.96902e-05
1.71466e-05
1.50873e-05
1.34167e-05
1.20618e-05
1.09783e-05
1.0156e-05
9.63418e-06
9.46209e-06
9.57396e-06
9.83388e-06
1.00415e-05
9.96743e-06
9.46411e-06
8.58153e-06
7.56872e-06
6.75781e-06
6.49053e-06
7.27251e-06
9.85992e-06
6.59928e-06
1.89186e-06
1.04119e-07
5.42608e-08
2.5016e-06
6.22808e-06
1.32958e-05
2.40274e-05
3.29224e-05
3.66406e-05
3.65154e-05
3.3959e-05
3.01766e-05
2.61594e-05
2.25056e-05
1.94282e-05
1.69109e-05
1.48588e-05
1.3177e-05
1.17963e-05
1.06782e-05
9.81917e-06
9.26804e-06
9.08374e-06
9.20066e-06
9.48648e-06
9.73942e-06
9.72103e-06
9.2707e-06
8.43105e-06
7.45309e-06
6.67534e-06
6.44823e-06
7.29296e-06
9.93168e-06
6.41972e-06
1.88827e-06
1.10025e-07
5.83545e-08
2.52067e-06
6.27271e-06
1.34276e-05
2.42782e-05
3.31308e-05
3.66911e-05
3.63954e-05
3.37107e-05
2.98742e-05
2.58682e-05
2.22571e-05
1.92231e-05
1.67342e-05
1.4691e-05
1.29997e-05
1.15947e-05
1.04422e-05
9.54476e-06
8.95897e-06
8.75281e-06
8.8617e-06
9.15444e-06
9.43206e-06
9.45363e-06
9.05261e-06
8.26626e-06
7.34171e-06
6.61555e-06
6.44346e-06
7.36421e-06
1.00522e-05
6.26879e-06
1.88855e-06
1.15736e-07
6.26709e-08
2.54315e-06
6.32912e-06
1.35911e-05
2.45785e-05
3.33782e-05
3.67744e-05
3.63186e-05
3.35279e-05
2.966e-05
2.56797e-05
2.2116e-05
1.91244e-05
1.66605e-05
1.4622e-05
1.29166e-05
1.14819e-05
1.02882e-05
9.34345e-06
8.70908e-06
8.46321e-06
8.54457e-06
8.82475e-06
9.10838e-06
9.1582e-06
8.80617e-06
8.0832e-06
7.22689e-06
6.56625e-06
6.46059e-06
7.46774e-06
1.02031e-05
6.1501e-06
1.89297e-06
1.21284e-07
6.69251e-08
2.56398e-06
6.38321e-06
1.3748e-05
2.48559e-05
3.35915e-05
3.68313e-05
3.6232e-05
3.33539e-05
2.94695e-05
2.55234e-05
2.20112e-05
1.90647e-05
1.66288e-05
1.45986e-05
1.28824e-05
1.14202e-05
1.01864e-05
9.19348e-06
8.50666e-06
8.21387e-06
8.25792e-06
8.51365e-06
8.79097e-06
8.85851e-06
8.55112e-06
7.89474e-06
7.11467e-06
6.52882e-06
6.49886e-06
7.6017e-06
1.0376e-05
6.05283e-06
1.90006e-06
1.26651e-07
7.1373e-08
2.58728e-06
6.44547e-06
1.39273e-05
2.51686e-05
3.38345e-05
3.69189e-05
3.61898e-05
3.32433e-05
2.93573e-05
2.54515e-05
2.19907e-05
1.90864e-05
1.66756e-05
1.46512e-05
1.29216e-05
1.14287e-05
1.015e-05
9.10151e-06
8.35161e-06
7.9976e-06
7.98947e-06
8.20613e-06
8.46493e-06
8.54336e-06
8.28037e-06
7.6955e-06
6.99883e-06
6.49499e-06
6.54762e-06
7.753e-06
1.05608e-05
5.98011e-06
1.91017e-06
1.31872e-07
7.57556e-08
2.60955e-06
6.50731e-06
1.41064e-05
2.54719e-05
3.40615e-05
3.69975e-05
3.61493e-05
3.31439e-05
2.92618e-05
2.53988e-05
2.19914e-05
1.91329e-05
1.67523e-05
1.47394e-05
1.30019e-05
1.14826e-05
1.01615e-05
9.05749e-06
8.2421e-06
7.82067e-06
7.7525e-06
7.92082e-06
8.15129e-06
8.23244e-06
8.00945e-06
7.49575e-06
6.88475e-06
6.46669e-06
6.60712e-06
7.92099e-06
1.07519e-05
5.92258e-06
1.92197e-06
1.36928e-07
8.03008e-08
2.63347e-06
6.57497e-06
1.43028e-05
2.58039e-05
3.43158e-05
3.71087e-05
3.61539e-05
3.31024e-05
2.92311e-05
2.54115e-05
2.20548e-05
1.92394e-05
1.68875e-05
1.48859e-05
1.31404e-05
1.15942e-05
1.02284e-05
9.06433e-06
8.17584e-06
7.67572e-06
7.53629e-06
7.64586e-06
7.83937e-06
7.91768e-06
7.73281e-06
7.29111e-06
6.76794e-06
6.43819e-06
6.66927e-06
8.0949e-06
1.09424e-05
5.88124e-06
1.93552e-06
1.41845e-07
8.47853e-08
2.65646e-06
6.64267e-06
1.45025e-05
2.61375e-05
3.45689e-05
3.72229e-05
3.61658e-05
3.30692e-05
2.92078e-05
2.54313e-05
2.21276e-05
1.93604e-05
1.70441e-05
1.50615e-05
1.33159e-05
1.17487e-05
1.03417e-05
9.11813e-06
8.15458e-06
7.56992e-06
7.35232e-06
7.39571e-06
7.54469e-06
7.61342e-06
7.46169e-06
7.08919e-06
6.65301e-06
6.41285e-06
6.73802e-06
8.27946e-06
1.11338e-05
5.85141e-06
1.95028e-06
1.46604e-07
8.94053e-08
2.68029e-06
6.71409e-06
1.47164e-05
2.6499e-05
3.48551e-05
3.73755e-05
3.62205e-05
3.3082e-05
2.92309e-05
2.54958e-05
2.22428e-05
1.95222e-05
1.72418e-05
1.52799e-05
1.35368e-05
1.19512e-05
1.05037e-05
9.21898e-06
8.17573e-06
7.4976e-06
7.19324e-06
7.16267e-06
7.26057e-06
7.3146e-06
7.1924e-06
6.88663e-06
6.53592e-06
6.3848e-06
6.80463e-06
8.46289e-06
1.13168e-05
5.82981e-06
1.96548e-06
1.51208e-07
9.39716e-08
2.70306e-06
6.78472e-06
1.49322e-05
2.68628e-05
3.51359e-05
3.75264e-05
3.62783e-05
3.30945e-05
2.92517e-05
2.5559e-05
2.23604e-05
1.96923e-05
1.74551e-05
1.55224e-05
1.37903e-05
1.21935e-05
1.07105e-05
9.36597e-06
8.2412e-06
7.46432e-06
7.06719e-06
6.95661e-06
6.99746e-06
7.03101e-06
6.93299e-06
6.68953e-06
6.42146e-06
6.35872e-06
6.8751e-06
8.65364e-06
1.14989e-05
5.81664e-06
1.9815e-06
1.55645e-07
9.86463e-08
2.72626e-06
6.85738e-06
1.51538e-05
2.72294e-05
3.54104e-05
3.76746e-05
3.63473e-05
3.31295e-05
2.92998e-05
2.56498e-05
2.25042e-05
1.98876e-05
1.76946e-05
1.57943e-05
1.40778e-05
1.2475e-05
1.09603e-05
9.55726e-06
8.34875e-06
7.46708e-06
6.9705e-06
6.77367e-06
6.7519e-06
6.75988e-06
6.68119e-06
6.49566e-06
6.30682e-06
6.33051e-06
6.94294e-06
8.84155e-06
1.16705e-05
5.8075e-06
1.99728e-06
1.599e-07
1.03275e-07
2.74878e-06
6.93039e-06
1.53779e-05
2.75858e-05
3.56684e-05
3.78071e-05
3.64024e-05
3.31632e-05
2.93456e-05
2.5737e-05
2.2647e-05
2.00873e-05
1.79452e-05
1.60851e-05
1.43929e-05
1.27922e-05
1.12522e-05
9.79389e-06
8.50119e-06
7.51104e-06
6.9095e-06
6.62103e-06
6.53128e-06
6.50802e-06
6.44261e-06
6.3092e-06
6.19517e-06
6.30307e-06
7.01174e-06
9.0316e-06
1.18353e-05
5.80183e-06
2.01301e-06
1.63958e-07
1.07976e-07
2.77116e-06
7.0048e-06
1.56102e-05
2.794e-05
3.59188e-05
3.79333e-05
3.64548e-05
3.31982e-05
2.93978e-05
2.58343e-05
2.28015e-05
2.02997e-05
1.82106e-05
1.63945e-05
1.47322e-05
1.31406e-05
1.15821e-05
1.0073e-05
8.69715e-06
7.59588e-06
6.88397e-06
6.49831e-06
6.33516e-06
6.27507e-06
6.21693e-06
6.12977e-06
6.08586e-06
6.27523e-06
7.07983e-06
9.22371e-06
1.20021e-05
5.80168e-06
2.02871e-06
1.67813e-07
1.1262e-07
2.79246e-06
7.07668e-06
1.58362e-05
2.82806e-05
3.61513e-05
3.80429e-05
3.64926e-05
3.32216e-05
2.94438e-05
2.5928e-05
2.29544e-05
2.0514e-05
1.84832e-05
1.67179e-05
1.50933e-05
1.35191e-05
1.19498e-05
1.03955e-05
8.93896e-06
7.72626e-06
6.89946e-06
6.41147e-06
6.16944e-06
6.06631e-06
6.00838e-06
5.96028e-06
5.98053e-06
6.24774e-06
7.14772e-06
9.41789e-06
1.21631e-05
5.8036e-06
2.04396e-06
1.71449e-07
1.17304e-07
2.81382e-06
7.1495e-06
1.60653e-05
2.86193e-05
3.63765e-05
3.81448e-05
3.65234e-05
3.32398e-05
2.94942e-05
2.60244e-05
2.31082e-05
2.07305e-05
1.87612e-05
1.70515e-05
1.54709e-05
1.39219e-05
1.23501e-05
1.07579e-05
9.22552e-06
7.90313e-06
6.95711e-06
6.36152e-06
6.03506e-06
5.88263e-06
5.81773e-06
5.80148e-06
5.88009e-06
6.22214e-06
7.21881e-06
9.62155e-06
1.23258e-05
5.81396e-06
2.05988e-06
1.74877e-07
1.21927e-07
2.83441e-06
7.22074e-06
1.62902e-05
2.89453e-05
3.65841e-05
3.82288e-05
3.65359e-05
3.32389e-05
2.95254e-05
2.6106e-05
2.32534e-05
2.09445e-05
1.90426e-05
1.73945e-05
1.58649e-05
1.4349e-05
1.27828e-05
1.11603e-05
9.55752e-06
8.12876e-06
7.06029e-06
6.35249e-06
5.9362e-06
5.72791e-06
5.64828e-06
5.65583e-06
5.78616e-06
6.19924e-06
7.2927e-06
9.8312e-06
1.24887e-05
5.82989e-06
2.07635e-06
1.78096e-07
1.26559e-07
2.85508e-06
7.29275e-06
1.65171e-05
2.92681e-05
3.67832e-05
3.83029e-05
3.65378e-05
3.3228e-05
2.95477e-05
2.61805e-05
2.33932e-05
2.11549e-05
1.93233e-05
1.77413e-05
1.62689e-05
1.47938e-05
1.32424e-05
1.15982e-05
9.93203e-06
8.40116e-06
7.20836e-06
6.3847e-06
5.87376e-06
5.6033e-06
5.50121e-06
5.52445e-06
5.6997e-06
6.1797e-06
7.36906e-06
1.00445e-05
1.2651e-05
5.85043e-06
2.0932e-06
1.81109e-07
1.31135e-07
2.87542e-06
7.36431e-06
1.67412e-05
2.9579e-05
3.6965e-05
3.83578e-05
3.65193e-05
3.31962e-05
2.95509e-05
2.62398e-05
2.35223e-05
2.13592e-05
1.96025e-05
1.80916e-05
1.66825e-05
1.52558e-05
1.37275e-05
1.20699e-05
1.03472e-05
8.71853e-06
7.40104e-06
6.45912e-06
5.84956e-06
5.51109e-06
5.37889e-06
5.40946e-06
5.62225e-06
6.16412e-06
7.44729e-06
1.02598e-05
1.28116e-05
5.87463e-06
2.11028e-06
1.83923e-07
1.357e-07
2.89601e-06
7.43747e-06
1.69664e-05
2.98844e-05
3.71352e-05
3.83986e-05
3.64849e-05
3.31482e-05
2.95388e-05
2.62863e-05
2.36409e-05
2.15549e-05
1.98757e-05
1.84399e-05
1.70996e-05
1.57286e-05
1.42323e-05
1.25707e-05
1.07992e-05
9.07776e-06
7.63649e-06
6.57481e-06
5.86328e-06
5.45154e-06
5.28198e-06
5.31156e-06
5.55418e-06
6.15219e-06
7.5262e-06
1.04743e-05
1.29693e-05
5.90167e-06
2.12741e-06
1.86547e-07
1.40216e-07
2.91647e-06
7.51234e-06
1.71881e-05
3.01771e-05
3.72875e-05
3.84193e-05
3.64289e-05
3.30786e-05
2.95072e-05
2.63179e-05
2.37479e-05
2.17419e-05
2.01432e-05
1.87862e-05
1.75196e-05
1.62107e-05
1.47544e-05
1.30974e-05
1.1285e-05
9.47628e-06
7.91344e-06
6.73146e-06
5.91529e-06
5.42552e-06
5.21177e-06
5.23235e-06
5.49733e-06
6.14653e-06
7.6101e-06
1.06886e-05
1.31248e-05
5.93117e-06
2.14448e-06
1.88991e-07
1.44671e-07
2.93595e-06
7.58492e-06
1.74081e-05
3.04616e-05
3.74252e-05
3.84234e-05
3.63557e-05
3.29912e-05
2.94585e-05
2.63377e-05
2.38434e-05
2.19175e-05
2.04013e-05
1.91264e-05
1.7938e-05
1.66972e-05
1.52885e-05
1.3645e-05
1.18003e-05
9.91063e-06
8.22969e-06
6.92773e-06
6.00489e-06
5.43289e-06
5.16868e-06
5.17274e-06
5.45281e-06
6.14767e-06
7.69732e-06
1.09025e-05
1.32788e-05
5.96297e-06
2.16145e-06
1.91263e-07
1.49036e-07
2.95484e-06
7.65552e-06
1.76223e-05
3.07341e-05
3.75466e-05
3.84061e-05
3.62571e-05
3.28787e-05
2.93872e-05
2.63377e-05
2.3923e-05
2.20812e-05
2.06508e-05
1.9461e-05
1.83543e-05
1.71862e-05
1.58314e-05
1.42093e-05
1.23404e-05
1.03771e-05
8.58283e-06
7.16236e-06
6.13162e-06
5.47377e-06
5.15334e-06
5.13371e-06
5.42163e-06
6.15601e-06
7.78702e-06
1.1115e-05
1.34317e-05
5.99682e-06
2.17828e-06
1.93375e-07
1.53335e-07
2.97283e-06
7.72499e-06
1.78372e-05
3.1e-05
3.76545e-05
3.83747e-05
3.61451e-05
3.27519e-05
2.92983e-05
2.63178e-05
2.39849e-05
2.22307e-05
2.08887e-05
1.97865e-05
1.87645e-05
1.76735e-05
1.63785e-05
1.47851e-05
1.29004e-05
1.08709e-05
8.96924e-06
7.43279e-06
6.29383e-06
5.54736e-06
5.16577e-06
5.11599e-06
5.40489e-06
6.17261e-06
7.87991e-06
1.13266e-05
1.35837e-05
6.03261e-06
2.19496e-06
1.95334e-07
1.57567e-07
2.99049e-06
7.79359e-06
1.80489e-05
3.12535e-05
3.77454e-05
3.83235e-05
3.60113e-05
3.26046e-05
2.91939e-05
2.62863e-05
2.40347e-05
2.23671e-05
2.11158e-05
2.01039e-05
1.91691e-05
1.81581e-05
1.69275e-05
1.53692e-05
1.34763e-05
1.13884e-05
9.38589e-06
7.73677e-06
6.49005e-06
5.65289e-06
5.20584e-06
5.11996e-06
5.40319e-06
6.19789e-06
7.97593e-06
1.15366e-05
1.37352e-05
6.07011e-06
2.21146e-06
1.97153e-07
1.61704e-07
3.00715e-06
7.85983e-06
1.82557e-05
3.1494e-05
3.78191e-05
3.82538e-05
3.58583e-05
3.24373e-05
2.90687e-05
2.62354e-05
2.407e-05
2.2492e-05
2.13306e-05
2.04108e-05
1.95658e-05
1.86375e-05
1.74751e-05
1.59577e-05
1.40637e-05
1.19252e-05
9.82909e-06
8.07132e-06
6.71801e-06
5.78889e-06
5.27302e-06
5.14595e-06
5.41755e-06
6.23327e-06
8.07661e-06
1.17465e-05
1.38869e-05
6.10936e-06
2.22782e-06
1.98846e-07
1.65758e-07
3.02326e-06
7.92465e-06
1.84587e-05
3.17221e-05
3.78764e-05
3.81658e-05
3.56864e-05
3.22528e-05
2.89285e-05
2.61712e-05
2.40931e-05
2.26065e-05
2.15368e-05
2.07069e-05
1.99529e-05
1.91103e-05
1.80191e-05
1.65471e-05
1.46587e-05
1.24774e-05
1.02955e-05
8.4338e-06
6.97566e-06
5.95385e-06
5.36632e-06
5.19358e-06
5.44804e-06
6.27904e-06
8.18212e-06
1.1956e-05
1.40393e-05
6.15028e-06
2.24403e-06
2.00429e-07
1.69718e-07
3.03849e-06
7.98716e-06
1.86561e-05
3.19361e-05
3.79151e-05
3.8057e-05
3.54923e-05
3.20461e-05
2.87674e-05
2.6088e-05
2.41001e-05
2.27077e-05
2.17322e-05
2.0995e-05
2.03301e-05
1.9574e-05
1.85573e-05
1.71347e-05
1.52578e-05
1.30412e-05
1.07814e-05
8.82122e-06
7.26071e-06
6.14618e-06
5.48495e-06
5.26284e-06
5.49539e-06
6.33647e-06
8.29403e-06
1.21668e-05
1.41934e-05
6.19299e-06
2.26016e-06
2.01916e-07
1.73579e-07
3.05297e-06
8.04762e-06
1.88485e-05
3.21372e-05
3.79374e-05
3.79297e-05
3.52794e-05
3.18222e-05
2.85911e-05
2.59913e-05
2.40951e-05
2.27978e-05
2.19173e-05
2.12736e-05
2.06995e-05
2.0028e-05
1.90864e-05
1.77166e-05
1.58564e-05
1.36121e-05
1.12831e-05
9.23053e-06
7.57076e-06
6.36403e-06
5.62755e-06
5.35294e-06
5.55935e-06
6.40573e-06
8.41271e-06
1.2379e-05
1.43498e-05
6.23756e-06
2.27623e-06
2.03323e-07
1.77336e-07
3.06659e-06
8.10578e-06
1.90355e-05
3.23243e-05
3.79405e-05
3.77803e-05
3.50433e-05
3.15762e-05
2.83946e-05
2.58766e-05
2.40746e-05
2.28745e-05
2.20908e-05
2.15421e-05
2.10599e-05
2.04744e-05
1.96071e-05
1.82915e-05
1.64523e-05
1.4187e-05
1.17972e-05
9.65889e-06
7.9036e-06
6.60578e-06
5.79313e-06
5.46354e-06
5.64022e-06
6.48765e-06
8.53931e-06
1.25939e-05
1.45093e-05
6.28409e-06
2.29232e-06
2.04666e-07
1.80998e-07
3.07955e-06
8.16216e-06
1.92181e-05
3.24987e-05
3.79267e-05
3.76118e-05
3.47882e-05
3.13133e-05
2.81836e-05
2.57489e-05
2.40422e-05
2.294e-05
2.22532e-05
2.17994e-05
2.14089e-05
2.09092e-05
2.01163e-05
1.88555e-05
1.70408e-05
1.47614e-05
1.23198e-05
1.01033e-05
8.25694e-06
6.86968e-06
5.98034e-06
5.59373e-06
5.73758e-06
6.58232e-06
8.67437e-06
1.28121e-05
1.46727e-05
6.33282e-06
2.30848e-06
2.05961e-07
1.84553e-07
3.09166e-06
8.21619e-06
1.93949e-05
3.26583e-05
3.78931e-05
3.74209e-05
3.45108e-05
3.10303e-05
2.79552e-05
2.56058e-05
2.39964e-05
2.29933e-05
2.24043e-05
2.2046e-05
2.17475e-05
2.13333e-05
2.06142e-05
1.94077e-05
1.76197e-05
1.5332e-05
1.28474e-05
1.05605e-05
8.62843e-06
7.1542e-06
6.18828e-06
5.74307e-06
5.85142e-06
6.69009e-06
8.81854e-06
1.30345e-05
1.48406e-05
6.38374e-06
2.32477e-06
2.07222e-07
1.88013e-07
3.10314e-06
8.2685e-06
1.95672e-05
3.28047e-05
3.78419e-05
3.72104e-05
3.42147e-05
3.07317e-05
2.77138e-05
2.54513e-05
2.39399e-05
2.3036e-05
2.25442e-05
2.22806e-05
2.20731e-05
2.17433e-05
2.1097e-05
1.99445e-05
1.81842e-05
1.58943e-05
1.33761e-05
1.10273e-05
9.01554e-06
7.45753e-06
6.41576e-06
5.91095e-06
5.98164e-06
6.81144e-06
8.97281e-06
1.32622e-05
1.5014e-05
6.43709e-06
2.34125e-06
2.08463e-07
1.91361e-07
3.11371e-06
8.31817e-06
1.97328e-05
3.29354e-05
3.77706e-05
3.6978e-05
3.3898e-05
3.04159e-05
2.74585e-05
2.52851e-05
2.38733e-05
2.30691e-05
2.26745e-05
2.2505e-05
2.23873e-05
2.21404e-05
2.15651e-05
2.04651e-05
1.8733e-05
1.64437e-05
1.39007e-05
1.14992e-05
9.41497e-06
7.77762e-06
6.66169e-06
6.09682e-06
6.12809e-06
6.94652e-06
9.13773e-06
1.34962e-05
1.5193e-05
6.49283e-06
2.35796e-06
2.09696e-07
1.94612e-07
3.12357e-06
8.36583e-06
1.98932e-05
3.30522e-05
3.76811e-05
3.67256e-05
3.35628e-05
3.00853e-05
2.71918e-05
2.51096e-05
2.37983e-05
2.30938e-05
2.27955e-05
2.27186e-05
2.26889e-05
2.25225e-05
2.20157e-05
2.09665e-05
1.92631e-05
1.69789e-05
1.44186e-05
1.19726e-05
9.8232e-06
8.11181e-06
6.92453e-06
6.30024e-06
6.29117e-06
7.09643e-06
9.31501e-06
1.37382e-05
1.53781e-05
6.55107e-06
2.37497e-06
2.10928e-07
1.97752e-07
3.1325e-06
8.41071e-06
2.00465e-05
3.31529e-05
3.75712e-05
3.6451e-05
3.32076e-05
2.97392e-05
2.69136e-05
2.49253e-05
2.37163e-05
2.31121e-05
2.29097e-05
2.29239e-05
2.29799e-05
2.28911e-05
2.24493e-05
2.14479e-05
1.97723e-05
1.74963e-05
1.49262e-05
1.24439e-05
1.02371e-05
8.4574e-06
7.20227e-06
6.51995e-06
6.47038e-06
7.26142e-06
9.5056e-06
1.39897e-05
1.55696e-05
6.61183e-06
2.39231e-06
2.12169e-07
2.00797e-07
3.14066e-06
8.45339e-06
2.01944e-05
3.32394e-05
3.74421e-05
3.61551e-05
3.28332e-05
2.93785e-05
2.66248e-05
2.47332e-05
2.36282e-05
2.3125e-05
2.3018e-05
2.31219e-05
2.3261e-05
2.32463e-05
2.28656e-05
2.19085e-05
2.02591e-05
1.79935e-05
1.54199e-05
1.29089e-05
1.06524e-05
8.81121e-06
7.49289e-06
6.75504e-06
6.66571e-06
7.44219e-06
9.71124e-06
1.42526e-05
1.57677e-05
6.67507e-06
2.41003e-06
2.13422e-07
2.03748e-07
3.14798e-06
8.49365e-06
2.03361e-05
3.33105e-05
3.72918e-05
3.58358e-05
3.24382e-05
2.90025e-05
2.63255e-05
2.45338e-05
2.35353e-05
2.31345e-05
2.31229e-05
2.33154e-05
2.3535e-05
2.35905e-05
2.32661e-05
2.23487e-05
2.07229e-05
1.8469e-05
1.58979e-05
1.33652e-05
1.10665e-05
9.17042e-06
7.79396e-06
7.00382e-06
6.87662e-06
7.63991e-06
9.93329e-06
1.45288e-05
1.59722e-05
6.74093e-06
2.42819e-06
2.14693e-07
2.06618e-07
3.1546e-06
8.532e-06
2.04732e-05
3.33676e-05
3.7121e-05
3.54933e-05
3.20228e-05
2.86116e-05
2.6016e-05
2.43276e-05
2.34379e-05
2.31408e-05
2.32253e-05
2.35054e-05
2.38032e-05
2.3925e-05
2.36518e-05
2.27689e-05
2.11634e-05
1.89218e-05
1.6358e-05
1.38104e-05
1.14768e-05
9.53266e-06
8.10361e-06
7.26515e-06
7.10277e-06
7.85483e-06
1.01731e-05
1.48197e-05
1.61833e-05
6.80937e-06
2.44684e-06
2.15984e-07
2.09417e-07
3.16057e-06
8.56865e-06
2.06061e-05
3.34101e-05
3.6928e-05
3.51259e-05
3.15863e-05
2.82057e-05
2.56968e-05
2.41152e-05
2.33372e-05
2.31457e-05
2.3327e-05
2.36944e-05
2.40684e-05
2.42524e-05
2.40249e-05
2.31706e-05
2.15812e-05
1.93514e-05
1.67987e-05
1.42422e-05
1.18807e-05
9.89564e-06
8.42005e-06
7.53782e-06
7.3435e-06
8.08686e-06
1.04318e-05
1.51266e-05
1.64009e-05
6.88057e-06
2.46607e-06
2.17301e-07
2.12154e-07
3.16596e-06
8.60389e-06
2.07355e-05
3.34384e-05
3.67129e-05
3.47339e-05
3.1129e-05
2.77855e-05
2.53683e-05
2.38971e-05
2.3233e-05
2.31487e-05
2.34278e-05
2.38826e-05
2.43313e-05
2.45742e-05
2.43871e-05
2.35554e-05
2.19774e-05
1.97582e-05
1.72195e-05
1.46593e-05
1.22767e-05
1.02575e-05
8.74145e-06
7.82033e-06
7.59787e-06
8.33588e-06
1.07102e-05
1.54508e-05
1.66247e-05
6.9545e-06
2.48591e-06
2.18645e-07
2.14834e-07
3.17083e-06
8.63789e-06
2.08616e-05
3.34521e-05
3.64746e-05
3.43165e-05
3.06514e-05
2.73517e-05
2.50316e-05
2.36746e-05
2.31267e-05
2.31509e-05
2.35287e-05
2.4071e-05
2.45934e-05
2.48922e-05
2.47405e-05
2.39254e-05
2.23537e-05
2.01431e-05
1.76201e-05
1.50602e-05
1.26625e-05
1.06162e-05
9.06609e-06
8.11158e-06
7.86541e-06
8.602e-06
1.1009e-05
1.5793e-05
1.68545e-05
7.03115e-06
2.5064e-06
2.20019e-07
2.17459e-07
3.17519e-06
8.67068e-06
2.09845e-05
3.34509e-05
3.62132e-05
3.38744e-05
3.01545e-05
2.69054e-05
2.46873e-05
2.34493e-05
2.30184e-05
2.31513e-05
2.36282e-05
2.42586e-05
2.48541e-05
2.52065e-05
2.5086e-05
2.42822e-05
2.27124e-05
2.05085e-05
1.80017e-05
1.54453e-05
1.30375e-05
1.097e-05
9.39216e-06
8.40966e-06
8.14488e-06
8.88506e-06
1.13292e-05
1.61545e-05
1.70899e-05
7.11045e-06
2.52757e-06
2.21423e-07
2.20031e-07
3.17908e-06
8.70242e-06
2.11045e-05
3.34347e-05
3.59283e-05
3.3408e-05
2.96399e-05
2.64482e-05
2.43364e-05
2.32206e-05
2.29075e-05
2.31497e-05
2.37267e-05
2.44457e-05
2.51137e-05
2.55177e-05
2.54246e-05
2.46273e-05
2.30554e-05
2.08564e-05
1.83657e-05
1.58145e-05
1.34008e-05
1.13178e-05
9.7183e-06
8.71369e-06
8.4356e-06
9.18461e-06
1.16704e-05
1.65348e-05
1.73307e-05
7.19236e-06
2.54945e-06
2.22863e-07
2.2255e-07
3.1825e-06
8.73314e-06
2.12216e-05
3.34033e-05
3.56199e-05
3.29184e-05
2.91093e-05
2.59821e-05
2.398e-05
2.29876e-05
2.27932e-05
2.31455e-05
2.38235e-05
2.46315e-05
2.53718e-05
2.58255e-05
2.57566e-05
2.49621e-05
2.33853e-05
2.11905e-05
1.87145e-05
1.61694e-05
1.37526e-05
1.1659e-05
1.00434e-05
9.02226e-06
8.73613e-06
9.50004e-06
1.2033e-05
1.69342e-05
1.75761e-05
7.27663e-06
2.57203e-06
2.24338e-07
2.25021e-07
3.18554e-06
8.76314e-06
2.13363e-05
3.33567e-05
3.52885e-05
3.24072e-05
2.85654e-05
2.55095e-05
2.36207e-05
2.27532e-05
2.26779e-05
2.31405e-05
2.39193e-05
2.4816e-05
2.56276e-05
2.61291e-05
2.60814e-05
2.52868e-05
2.37038e-05
2.15138e-05
1.90504e-05
1.65109e-05
1.40931e-05
1.19926e-05
1.0366e-05
9.33408e-06
9.04598e-06
9.83087e-06
1.24165e-05
1.73521e-05
1.78255e-05
7.3632e-06
2.59531e-06
2.25854e-07
2.27443e-07
3.18818e-06
8.79239e-06
2.14485e-05
3.32942e-05
3.49341e-05
3.18758e-05
2.80103e-05
2.50323e-05
2.3259e-05
2.25165e-05
2.256e-05
2.31328e-05
2.40128e-05
2.49983e-05
2.58805e-05
2.64278e-05
2.63987e-05
2.56018e-05
2.40125e-05
2.18292e-05
1.93759e-05
1.68412e-05
1.44237e-05
1.23194e-05
1.06861e-05
9.64838e-06
9.36365e-06
1.01752e-05
1.28195e-05
1.77865e-05
1.80774e-05
7.45148e-06
2.61918e-06
2.27412e-07
2.29812e-07
3.19046e-06
8.82094e-06
2.15578e-05
3.32158e-05
3.4558e-05
3.13273e-05
2.74478e-05
2.45539e-05
2.28979e-05
2.228e-05
2.24412e-05
2.31233e-05
2.41038e-05
2.51775e-05
2.6129e-05
2.67202e-05
2.67069e-05
2.59057e-05
2.43103e-05
2.21357e-05
1.96908e-05
1.716e-05
1.47439e-05
1.26387e-05
1.10028e-05
9.96428e-06
9.68889e-06
1.05339e-05
1.32412e-05
1.82365e-05
1.83317e-05
7.54154e-06
2.6437e-06
2.29016e-07
2.32119e-07
3.19227e-06
8.84836e-06
2.16631e-05
3.31205e-05
3.41607e-05
3.07639e-05
2.68805e-05
2.40763e-05
2.25383e-05
2.20434e-05
2.23204e-05
2.31102e-05
2.41904e-05
2.53517e-05
2.63717e-05
2.70049e-05
2.70053e-05
2.61981e-05
2.45967e-05
2.24322e-05
1.99947e-05
1.74679e-05
1.50544e-05
1.29508e-05
1.13157e-05
1.02808e-05
1.002e-05
1.0905e-05
1.36806e-05
1.86994e-05
1.85858e-05
7.63235e-06
2.66864e-06
2.30665e-07
2.34353e-07
3.19357e-06
8.87428e-06
2.17631e-05
3.30083e-05
3.37442e-05
3.01888e-05
2.63121e-05
2.36029e-05
2.21832e-05
2.18094e-05
2.21994e-05
2.30943e-05
2.4272e-05
2.55193e-05
2.66062e-05
2.72798e-05
2.72918e-05
2.64772e-05
2.48699e-05
2.27164e-05
2.02862e-05
1.77639e-05
1.53548e-05
1.32556e-05
1.16249e-05
1.05979e-05
1.03569e-05
1.12879e-05
1.41368e-05
1.91739e-05
1.88398e-05
7.72361e-06
2.69393e-06
2.32352e-07
2.36501e-07
3.19417e-06
8.89806e-06
2.18566e-05
3.28785e-05
3.33085e-05
2.96031e-05
2.57438e-05
2.31347e-05
2.18337e-05
2.15788e-05
2.20787e-05
2.30758e-05
2.43484e-05
2.56796e-05
2.68318e-05
2.7544e-05
2.7566e-05
2.67431e-05
2.51301e-05
2.29879e-05
2.05646e-05
1.80473e-05
1.56443e-05
1.35521e-05
1.19295e-05
1.09145e-05
1.06984e-05
1.16817e-05
1.46089e-05
1.96595e-05
1.90916e-05
7.81455e-06
2.71941e-06
2.34075e-07
2.38559e-07
3.19403e-06
8.91943e-06
2.1943e-05
3.27315e-05
3.28544e-05
2.90079e-05
2.5177e-05
2.26734e-05
2.14918e-05
2.13542e-05
2.19611e-05
2.30566e-05
2.44205e-05
2.58323e-05
2.70471e-05
2.77958e-05
2.78263e-05
2.6995e-05
2.53772e-05
2.32461e-05
2.08293e-05
1.83172e-05
1.59218e-05
1.38394e-05
1.22286e-05
1.12302e-05
1.10444e-05
1.20861e-05
1.50962e-05
2.01544e-05
1.93393e-05
7.90457e-06
2.74495e-06
2.35838e-07
2.40527e-07
3.19308e-06
8.9382e-06
2.20222e-05
3.25666e-05
3.23802e-05
2.84018e-05
2.46102e-05
2.2218e-05
2.11577e-05
2.11368e-05
2.18486e-05
2.30396e-05
2.44911e-05
2.59799e-05
2.72539e-05
2.80364e-05
2.80741e-05
2.72347e-05
2.56138e-05
2.34933e-05
2.10818e-05
1.85749e-05
1.6188e-05
1.41175e-05
1.25215e-05
1.15439e-05
1.13936e-05
1.24999e-05
1.55965e-05
2.06555e-05
1.95823e-05
7.99315e-06
2.77041e-06
2.37632e-07
2.42415e-07
3.19141e-06
8.95465e-06
2.2095e-05
3.23839e-05
3.18854e-05
2.77843e-05
2.4043e-05
2.17684e-05
2.08321e-05
2.09279e-05
2.17433e-05
2.30273e-05
2.45632e-05
2.61249e-05
2.7454e-05
2.8267e-05
2.83106e-05
2.74642e-05
2.58429e-05
2.37312e-05
2.13235e-05
1.88212e-05
1.64435e-05
1.43866e-05
1.28084e-05
1.18552e-05
1.17451e-05
1.29219e-05
1.61083e-05
2.11607e-05
1.982e-05
8.08017e-06
2.79575e-06
2.39458e-07
2.4424e-07
3.18913e-06
8.96923e-06
2.21622e-05
3.21822e-05
3.13676e-05
2.71535e-05
2.34735e-05
2.13228e-05
2.05146e-05
2.0728e-05
2.16465e-05
2.30226e-05
2.46407e-05
2.6272e-05
2.7652e-05
2.84918e-05
2.85395e-05
2.76877e-05
2.60693e-05
2.39635e-05
2.1557e-05
1.9058e-05
1.66897e-05
1.46478e-05
1.30897e-05
1.21645e-05
1.20993e-05
1.33515e-05
1.66296e-05
2.16671e-05
2.00512e-05
8.16512e-06
2.82084e-06
2.41308e-07
2.46017e-07
3.18642e-06
8.98247e-06
2.22247e-05
3.19608e-05
3.08267e-05
2.65104e-05
2.29019e-05
2.088e-05
2.02053e-05
2.05359e-05
2.15573e-05
2.30257e-05
2.47255e-05
2.64241e-05
2.78511e-05
2.87136e-05
2.87631e-05
2.79071e-05
2.62945e-05
2.41916e-05
2.17835e-05
1.92865e-05
1.69271e-05
1.49009e-05
1.33644e-05
1.24696e-05
1.24529e-05
1.37864e-05
1.71586e-05
2.21729e-05
2.02759e-05
8.24805e-06
2.84568e-06
2.43181e-07
2.47758e-07
3.18346e-06
8.9948e-06
2.22827e-05
3.17184e-05
3.02626e-05
2.58565e-05
2.23293e-05
2.04385e-05
1.98968e-05
2.03458e-05
2.14729e-05
2.30365e-05
2.48195e-05
2.65845e-05
2.80554e-05
2.89365e-05
2.8985e-05
2.81247e-05
2.65194e-05
2.44169e-05
2.20049e-05
1.95085e-05
1.71576e-05
1.51474e-05
1.36342e-05
1.27733e-05
1.28105e-05
1.42262e-05
1.76921e-05
2.26748e-05
2.04926e-05
8.32837e-06
2.87013e-06
2.45067e-07
2.49464e-07
3.18039e-06
9.00608e-06
2.23349e-05
3.14543e-05
2.96779e-05
2.51959e-05
2.17592e-05
2.00014e-05
1.95918e-05
2.01585e-05
2.13919e-05
2.30526e-05
2.49204e-05
2.67522e-05
2.82655e-05
2.91621e-05
2.92069e-05
2.83414e-05
2.67431e-05
2.46386e-05
2.22212e-05
1.97246e-05
1.7382e-05
1.53885e-05
1.39002e-05
1.30763e-05
1.31716e-05
1.46713e-05
1.82299e-05
2.31723e-05
2.0702e-05
8.40612e-06