/*--------------------------------*- C++ -*----------------------------------*\
| =========                 |                                                 |
| \\      /  F ield         | OpenFOAM: The Open Source CFD Toolbox           |
|  \\    /   O peration     | Version:  v2006                                 |
|   \\  /    A nd           | Website:  www.openfoam.com                      |
|    \\/     M anipulation  |                                                 |
\*---------------------------------------------------------------------------*/
FoamFile
{
    version     2.0;
    format      ascii;
    class       volScalarField;
    location    "100";
    object      omega;
}
// * * * * * * * * * * * * * * * * * * * * * * * * * * * * * * * * * * * * * //

dimensions      [0 0 -1 0 0 0 0];


internalField   nonuniform List<scalar> 
78750
(
352.312
13.543
13.5667
13.5904
13.6136
13.636
13.6574
13.6779
13.6971
13.715
13.7315
13.7465
13.76
13.7718
13.782
13.7904
13.7971
13.8019
13.805
13.8061
13.8053
13.8024
13.7973
13.7898
13.7797
13.767
13.7514
13.7329
13.7117
13.6884
13.6647
13.6434
13.6307
13.634
356.269
516.982
4.16012
4.25243
4.33294
4.4027
4.46294
4.51455
4.55828
4.59487
4.625
4.64929
4.66833
4.68263
4.69265
4.69888
4.70184
4.7019
4.69937
4.69449
4.68747
4.67844
4.66741
4.65433
4.63903
4.62121
4.60055
4.57659
4.54839
4.51455
4.47335
4.42238
4.35932
4.28675
4.21524
523.068
516.995
4.22844
4.36932
4.48818
4.58486
4.66227
4.72395
4.77267
4.81046
4.83883
4.859
4.872
4.87872
4.87996
4.87648
4.86901
4.85823
4.84475
4.82912
4.81188
4.79358
4.77462
4.75523
4.7354
4.71486
4.69305
4.66906
4.64156
4.60868
4.56772
4.515
4.44764
4.36978
4.2891
523.407
517.009
4.28576
4.46149
4.60484
4.71524
4.79811
4.86021
4.9065
4.94015
4.96326
4.97734
4.98355
4.98286
4.97608
4.96396
4.94726
4.92676
4.9033
4.87778
4.85118
4.82452
4.79875
4.77464
4.7525
4.73208
4.7125
4.69228
4.66934
4.64105
4.604
4.55429
4.49015
4.41726
4.33887
523.757
517.028
4.34071
4.54436
4.70461
4.82186
4.90529
4.96496
5.00753
5.0368
5.05505
5.06378
5.06399
5.05643
5.04177
5.02068
4.99396
4.96256
4.92758
4.89032
4.85229
4.81521
4.78092
4.75099
4.72621
4.70651
4.69085
4.67721
4.66263
4.64332
4.61486
4.57289
4.51641
4.45042
4.37481
524.095
517.046
4.38751
4.61295
4.78595
4.9081
4.99205
5.05061
5.09147
5.11861
5.13418
5.13938
5.13493
5.12136
5.09918
5.06912
5.03215
4.98952
4.94278
4.89376
4.84456
4.7977
4.75577
4.72066
4.69311
4.67299
4.6593
4.65004
4.64202
4.63086
4.61132
4.57845
4.53113
4.47242
4.39971
524.419
517.064
4.43144
4.67536
4.85858
4.98441
5.06874
5.12643
5.1658
5.19086
5.20362
5.20505
5.19563
5.1757
5.14576
5.10665
5.05965
5.00642
4.94896
4.88962
4.83119
4.77694
4.72999
4.69184
4.66273
4.64232
4.62973
4.62325
4.61993
4.61535
4.6038
4.57961
4.54085
4.48852
4.41847
524.731
517.08
4.46759
4.72703
4.91952
5.04949
5.13515
5.19298
5.23186
5.25582
5.26669
5.26521
5.25164
5.22623
5.18955
5.14269
5.08727
5.02532
4.95928
4.89199
4.82681
4.76773
4.71769
4.67728
4.64623
4.62416
4.61046
4.604
4.60245
4.60185
4.59638
4.57959
4.54825
4.50163
4.43476
525.019
517.095
4.50227
4.77604
4.97689
5.11054
5.19743
5.25539
5.29367
5.31634
5.32509
5.3205
5.30269
5.2719
5.22886
5.17491
5.11198
5.04251
4.96933
4.89577
4.82593
4.7644
4.71335
4.67231
4.64046
4.6172
4.60206
4.59438
4.59268
4.59377
4.59218
4.581
4.55568
4.5141
4.45095
525.288
517.109
4.53376
4.82059
5.02931
5.16675
5.25516
5.31354
5.35157
5.37331
5.38036
5.3731
5.35157
5.31601
5.26729
5.20701
5.1374
5.06125
4.98179
4.90286
4.82931
4.7663
4.71492
4.67391
4.64196
4.61815
4.60194
4.59294
4.59027
4.59159
4.59211
4.58485
4.56426
4.5271
4.46789
525.538
517.123
4.56425
4.8632
5.07904
5.2198
5.30951
5.3682
5.40585
5.42655
5.43176
5.42178
5.39655
5.35638
5.30229
5.23611
5.16035
5.07811
4.99303
4.90948
4.83311
4.76949
4.71863
4.67854
4.64743
4.62402
4.6076
4.59785
4.59426
4.5952
4.59661
4.59183
4.57473
4.54126
4.48575
525.774
517.137
4.5946
4.90514
5.1276
5.27138
5.36225
5.42122
5.45856
5.47832
5.48185
5.46933
5.44063
5.39612
5.33694
5.26514
5.18349
5.09539
5.00488
4.91681
4.83763
4.77337
4.72315
4.68434
4.65464
4.63238
4.61659
4.60688
4.6029
4.60346
4.60518
4.60187
4.58727
4.55675
4.5044
525.996
517.151
4.62344
4.94449
5.17288
5.31933
5.41126
5.47053
5.50758
5.52644
5.52837
5.51342
5.48146
5.43291
5.36904
5.29207
5.20497
5.11143
5.01582
4.92351
4.84172
4.77689
4.72744
4.6902
4.66237
4.64188
4.62748
4.6186
4.61492
4.61546
4.61731
4.61483
4.6019
4.57355
4.52359
526.208
517.166
4.65315
4.98451
5.21844
5.36723
5.46004
5.51951
5.55627
5.57428
5.57467
5.55741
5.52235
5.46996
5.40164
5.31974
5.22743
5.12862
5.028
4.93134
4.84659
4.7808
4.73183
4.69606
4.67018
4.65175
4.63922
4.63179
4.62904
4.63005
4.63217
4.63023
4.6184
4.59158
4.5432
526.409
517.181
4.68103
5.0216
5.26049
5.41142
5.50513
5.56491
5.6015
5.61879
5.61782
5.59847
5.56062
5.50478
5.43245
5.3461
5.24904
5.14534
5.03995
4.93906
4.85124
4.78428
4.73571
4.70139
4.67763
4.66157
4.65133
4.64589
4.64465
4.6466
4.64922
4.64766
4.63649
4.61059
4.56303
526.603
517.197
4.70987
5.05961
5.30325
5.45612
5.55059
5.61064
5.64705
5.66365
5.66138
5.64007
5.59959
5.54053
5.46448
5.37399
5.27245
5.16407
5.05397
4.94869
4.85726
4.78844
4.73969
4.70649
4.68468
4.67103
4.66333
4.66028
4.66103
4.66441
4.66785
4.66672
4.65596
4.63052
4.58307
526.789
517.212
4.73698
5.09492
5.34283
5.49752
5.59283
5.65325
5.68963
5.7057
5.70231
5.67925
5.63643
5.57452
5.49516
5.40096
5.29537
5.18266
5.06811
4.95855
4.86338
4.79239
4.74317
4.7109
4.69103
4.67992
4.67501
4.67471
4.67788
4.68308
4.68762
4.68698
4.67643
4.65104
4.60313
526.969
517.228
4.76488
5.13107
5.38317
5.53959
5.63568
5.69648
5.73283
5.74838
5.74393
5.71925
5.67428
5.60976
5.5274
5.42983
5.32051
5.2037
5.0848
4.97076
4.87132
4.79733
4.74688
4.71497
4.69672
4.68806
4.68606
4.68877
4.69474
4.7022
4.7082
4.70821
4.69779
4.67216
4.62328
527.143
517.244
4.79127
5.16491
5.42086
5.57898
5.67596
5.73724
5.77366
5.78879
5.7834
5.75726
5.71038
5.64356
5.55857
5.45806
5.34542
5.22494
5.10201
4.98368
4.87992
4.80255
4.75046
4.71856
4.7017
4.69543
4.69645
4.70241
4.71148
4.72151
4.72923
4.73003
4.7197
4.69359
4.64331
527.312
517.26
4.81824
5.19938
5.45921
5.61907
5.71699
5.77876
5.81522
5.8299
5.82357
5.79605
5.74743
5.67858
5.59129
5.48818
5.37258
5.24871
5.12192
4.99922
4.89073
4.80915
4.75459
4.72202
4.70609
4.702
4.70602
4.71539
4.72785
4.74077
4.75049
4.75224
4.742
4.71527
4.66326
527.477
517.276
4.84386
5.23186
5.4954
5.65714
5.75618
5.81854
5.85501
5.86921
5.86196
5.83318
5.78301
5.7124
5.62316
5.51787
5.39977
5.27298
5.14272
5.01593
4.90277
4.81659
4.75907
4.72535
4.70997
4.70786
4.71486
4.72777
4.74383
4.75992
4.7719
4.77477
4.76464
4.73712
4.68306
527.637
517.293
4.86977
5.26463
5.53198
5.69586
5.79639
5.85931
5.89551
5.90903
5.9008
5.8708
5.81927
5.74717
5.6563
5.54918
5.42896
5.29958
5.1661
5.03529
4.91725
4.82576
4.76449
4.7289
4.71352
4.71304
4.7229
4.7394
4.75922
4.77867
4.79309
4.79718
4.78718
4.75881
4.70252
527.795
517.309
4.89443
5.29553
5.56656
5.73291
5.83492
5.89852
5.93454
5.9472
5.93801
5.90693
5.85424
5.78092
5.68876
5.58022
5.45832
5.32683
5.19057
5.05608
4.93331
4.83624
4.77075
4.73274
4.71689
4.71772
4.7303
4.75041
4.77413
4.79715
4.81424
4.81973
4.80993
4.78058
4.72177
527.949
517.326
4.91915
5.32632
5.60086
5.76958
5.87282
5.93717
5.97337
5.98532
5.97526
5.94323
5.88956
5.81526
5.7221
5.61246
5.48925
5.35602
5.21731
5.07935
4.95182
4.84874
4.77838
4.73725
4.72029
4.72198
4.73705
4.76073
4.78843
4.81514
4.83499
4.84192
4.8323
4.80196
4.74053
528.1
517.342
4.94281
5.3556
5.63355
5.80432
5.90874
5.9739
6.0105
6.02227
6.0112
5.97827
5.92378
5.84875
5.75491
5.64456
5.52046
5.38595
5.24527
5.10427
4.97226
4.86309
4.78745
4.74262
4.72398
4.72608
4.74336
4.77049
4.8022
4.8327
4.85543
4.86389
4.85449
4.82307
4.75887
528.247
517.359
4.96624
5.38451
5.66607
5.83837
5.94381
6.00976
6.0468
6.05848
6.04662
6.01303
5.95798
5.88247
5.78822
5.67746
5.55282
5.41741
5.27516
5.13149
4.99523
4.8799
4.79849
4.74932
4.72831
4.73023
4.74933
4.77975
4.81544
4.84979
4.8755
4.88564
4.87688
4.84399
4.77673
528.392
517.376
4.98856
5.41169
5.69651
5.87038
5.97696
6.04384
6.08148
6.0933
6.08092
6.0468
5.9913
5.9155
5.82109
5.71024
5.58545
5.4496
5.30629
5.16045
5.02043
4.89922
4.81178
4.75773
4.73367
4.73477
4.75522
4.78862
4.82816
4.86634
4.89508
4.9071
4.89902
4.8645
4.79401
528.533
517.392
5.0106
5.43838
5.72627
5.90155
6.00916
6.07692
6.11521
6.12736
6.1149
6.08012
6.02426
5.94837
5.85408
5.74345
5.61884
5.48294
5.339
5.19151
5.04821
4.92153
4.82779
4.76831
4.74048
4.74005
4.76126
4.79729
4.84052
4.88255
4.91451
4.92885
4.92126
4.88524
4.81099
528.671
517.408
5.03169
5.46365
5.75435
5.93096
6.03961
6.10829
6.14728
6.1598
6.14734
6.11215
6.0562
5.9805
5.8866
5.77651
5.65245
5.5169
5.37282
5.22425
5.0783
4.94678
4.84673
4.78144
4.7492
4.74648
4.76778
4.80595
4.8526
4.8984
4.93368
4.95053
4.94346
4.90594
4.82764
528.805
517.425
5.05244
5.48835
5.78162
5.95941
6.06902
6.1386
6.17831
6.19129
6.17894
6.14348
6.0876
6.01225
5.91896
5.80965
5.68642
5.55159
5.4078
5.25866
5.1107
4.975
4.86875
4.79741
4.76019
4.75443
4.77508
4.81482
4.86455
4.914
4.95263
4.97205
4.96551
4.92644
4.8439
528.934
517.441
5.07246
5.51194
5.80748
5.9863
6.09683
6.16732
6.20778
6.22129
6.20917
6.17362
6.11799
6.0432
5.95075
5.84248
5.72039
5.58662
5.44356
5.29439
5.14503
5.00584
4.89375
4.81635
4.77376
4.76427
4.78351
4.82416
4.87653
4.92939
4.97129
4.99328
4.98729
4.94663
4.85971
529.06
517.457
5.09212
5.53505
5.83247
6.01213
6.12349
6.19485
6.23609
6.25017
6.23838
6.20287
6.14762
6.07352
5.98206
5.87502
5.75431
5.62191
5.47996
5.33124
5.18109
5.03907
4.92162
4.83831
4.79009
4.77628
4.79333
4.83417
4.88863
4.94456
4.9896
5.01408
5.00863
4.96639
4.87503
529.182
517.473
5.11116
5.55753
5.8562
6.03652
6.14867
6.2209
6.26294
6.27765
6.26631
6.23102
6.17626
6.10297
6.01266
5.90704
5.78795
5.6572
5.51672
5.3689
5.21853
5.07439
4.95218
4.86327
4.80934
4.79073
4.80487
4.84515
4.9011
4.95979
5.00801
5.03457
5.02953
4.98567
4.88983
529.299
517.489
5.12944
5.57887
5.87877
6.05972
6.17261
6.24569
6.28851
6.30388
6.29308
6.25828
6.20395
6.13154
6.04248
5.93845
5.82116
5.69231
5.5536
5.4071
5.25706
5.11148
4.98522
4.89116
4.83157
4.8078
4.81838
4.85734
4.91414
4.97519
5.02636
5.05473
5.04997
5.00443
4.9041
529.414
517.504
5.14701
5.59927
5.90021
6.08167
6.19523
6.26909
6.31267
6.32871
6.31846
6.28418
6.23044
6.15907
6.07144
5.96915
5.85385
5.7271
5.59043
5.44561
5.29639
5.15003
5.02048
4.92184
4.85681
4.82767
4.8341
4.87099
4.92795
4.99082
5.0446
5.07454
5.06991
5.02265
4.91785
529.524
517.519
5.16388
5.61872
5.92047
6.10234
6.21655
6.2912
6.33555
6.35224
6.34256
6.30888
6.25587
6.18564
6.09955
5.99913
5.88594
5.76145
5.62703
5.48418
5.33622
5.18969
5.05765
4.95507
4.88496
4.85039
4.85222
4.88634
4.94275
5.00685
5.06278
5.094
5.08937
5.04033
4.93107
529.632
517.534
5.18018
5.63723
5.93962
6.12182
6.23663
6.31205
6.35716
6.37454
6.36547
6.33241
6.28016
6.21119
6.12678
6.02834
5.9174
5.79531
5.66333
5.52271
5.37638
5.23024
5.09647
4.99063
4.91589
4.87598
4.87286
4.90357
4.95867
5.02333
5.08091
5.1131
5.10832
5.05747
4.94378
529.737
517.549
5.19566
5.65467
5.95755
6.14003
6.25541
6.33158
6.37744
6.3955
6.38708
6.35473
6.30337
6.23572
6.15302
6.05672
5.94811
5.82854
5.69913
5.56095
5.41659
5.27136
5.13658
5.02819
4.94937
4.90434
4.89608
4.92283
4.97591
5.04046
5.09913
5.13193
5.12681
5.07409
4.95601
529.84
517.563
5.21051
5.67122
5.97445
6.15713
6.27304
6.34993
6.39652
6.41526
6.40749
6.3759
6.32552
6.25928
6.17837
6.08418
5.97807
5.86112
5.73441
5.59885
5.45672
5.31284
5.17776
5.0675
4.98517
4.93531
4.92182
4.94417
4.99456
5.0583
5.11746
5.15051
5.14485
5.0902
4.96778
529.94
517.577
5.22461
5.68674
5.99018
6.173
6.2894
6.36698
6.41428
6.4337
6.4266
6.3958
6.34649
6.28174
6.20271
6.11072
6.00706
5.89288
5.76898
5.63618
5.49654
5.35442
5.21967
5.10824
5.023
4.96871
4.95005
4.96764
5.01474
5.07699
5.13605
5.16892
5.16251
5.10585
4.97915
530.038
517.59
5.23805
5.70139
6.00492
6.18783
6.30467
6.3829
6.4309
6.45096
6.44453
6.41456
6.36639
6.30321
6.22612
6.1364
6.03527
5.9238
5.80283
5.67291
5.53596
5.39594
5.2621
5.15012
5.0626
5.00432
4.9806
4.99321
5.03648
5.09659
5.15494
5.18722
5.17983
5.12109
4.99014
530.135
517.604
5.25077
5.71508
6.01856
6.20148
6.31872
6.39757
6.44622
6.46692
6.46115
6.43202
6.38506
6.3235
6.24841
6.16102
6.06249
5.95383
5.83578
5.70888
5.57479
5.43718
5.30479
5.19288
5.10367
5.0419
5.01336
5.02083
5.05983
5.11719
5.17424
5.2055
5.1969
5.13597
5.00082
530.229
517.616
5.26288
5.72796
6.03127
6.21414
6.33173
6.41116
6.46043
6.48173
6.47661
6.44834
6.40263
6.34273
6.26968
6.18465
6.08875
5.98292
5.86786
5.74402
5.61293
5.47801
5.34754
5.23627
5.14596
5.08119
5.0481
5.0504
5.08476
5.13883
5.194
5.22384
5.21378
5.15057
5.01125
530.323
517.629
5.2743
5.73991
6.04292
6.22567
6.34358
6.42354
6.4734
6.49528
6.49079
6.4634
6.41898
6.36078
6.2898
6.20716
6.11392
6.01096
5.89892
5.7782
5.65025
5.51826
5.39016
5.28006
5.18923
5.12198
5.08469
5.08184
5.11126
5.16152
5.21428
5.24228
5.23054
5.16494
5.02148
530.415
517.641
5.28515
5.75109
6.05368
6.23625
6.35442
6.43489
6.48531
6.50774
6.50387
6.47734
6.43425
6.37776
6.30885
6.2286
6.13801
6.03792
5.92892
5.81135
5.68661
5.55778
5.43246
5.32402
5.23321
5.16403
5.12291
5.11503
5.13931
5.18532
5.23516
5.26094
5.24726
5.17917
5.03156
530.506
517.653
5.29529
5.76133
6.06339
6.24573
6.36414
6.44509
6.49604
6.51901
6.51576
6.49012
6.44839
6.39363
6.3268
6.24892
6.16098
6.06376
5.9578
5.84341
5.72193
5.59637
5.47422
5.3679
5.27763
5.20708
5.16258
5.14984
5.16883
5.21022
5.25667
5.27986
5.264
5.1933
5.04154
530.596
517.665
5.30486
5.77081
6.07223
6.25428
6.37289
6.4543
6.50576
6.52924
6.52659
6.50186
6.46152
6.40849
6.34371
6.26819
6.18286
6.08846
5.98552
5.87431
5.75615
5.63404
5.51534
5.41149
5.32225
5.25086
5.20348
5.18616
5.19984
5.23628
5.27891
5.29913
5.28086
5.20741
5.05148
530.685
517.676
5.31375
5.77938
6.08007
6.26179
6.38058
6.46242
6.51438
6.53836
6.53633
6.51252
6.47362
6.42236
6.35963
6.28643
6.20366
6.11205
6.01209
5.90403
5.78922
5.67065
5.55567
5.45463
5.36683
5.2951
5.24534
5.2238
5.23221
5.26348
5.30191
5.31881
5.2979
5.22157
5.06143
530.773
517.687
5.32207
5.78721
6.08707
6.26841
6.38734
6.46958
6.52202
6.54649
6.54507
6.52221
6.48479
6.43529
6.3746
6.30368
6.22343
6.13454
6.03749
5.93255
5.82109
5.70613
5.59507
5.49708
5.41111
5.33953
5.28792
5.26256
5.26586
5.2918
5.32571
5.33899
5.31519
5.23583
5.07141
530.861
517.697
5.32979
5.79425
6.09316
6.27407
6.3931
6.47573
6.52862
6.55358
6.55279
6.53091
6.49503
6.44733
6.38867
6.32001
6.24222
6.15598
6.06178
5.9599
5.85175
5.74046
5.63351
5.53879
5.45493
5.38392
5.33095
5.30221
5.30065
5.3213
5.35038
5.35973
5.33282
5.25027
5.08147
530.949
517.707
5.337
5.8006
6.09846
6.27888
6.39797
6.48094
6.53426
6.55969
6.55953
6.53868
6.50438
6.4585
6.40188
6.33545
6.26007
6.17642
6.08499
5.9861
5.88123
5.77363
5.67091
5.57964
5.49816
5.4281
5.37422
5.34258
5.33647
5.35191
5.37591
5.38106
5.35083
5.26493
5.09166
531.037
517.717
5.34372
5.80626
6.10295
6.2828
6.4019
6.48518
6.5389
6.56479
6.56529
6.5455
6.51286
6.46884
6.41427
6.35005
6.27703
6.1959
6.10717
6.0112
5.90956
5.80564
5.70726
5.61957
5.5407
5.47191
5.41758
5.38349
5.37318
5.38353
5.40233
5.40306
5.3693
5.27987
5.10201
531.124
517.727
5.35
5.81129
6.10668
6.28589
6.40495
6.48848
6.54258
6.56891
6.57008
6.55141
6.52049
6.47836
6.42584
6.36382
6.29314
6.21448
6.12838
6.03525
5.93677
5.83654
5.74255
5.65854
5.58246
5.51524
5.46084
5.42474
5.41059
5.41602
5.42958
5.42573
5.38826
5.29515
5.11256
531.212
517.737
5.35584
5.81569
6.10964
6.28812
6.40707
6.49083
6.54526
6.57204
6.57392
6.55645
6.52728
6.48707
6.43661
6.37679
6.30843
6.23221
6.14867
6.05832
5.96295
5.86637
5.7768
5.69652
5.62336
5.55796
5.50386
5.4662
5.4486
5.44934
5.45764
5.44908
5.40776
5.3108
5.12335
531.301
517.746
5.36126
5.81947
6.11186
6.28953
6.40831
6.49223
6.54696
6.57417
6.57682
6.56071
6.53326
6.49494
6.44655
6.38894
6.32289
6.24909
6.1681
6.08048
5.98819
5.89525
5.81009
5.73357
5.6634
5.6
5.54651
5.50766
5.48702
5.48334
5.48647
5.47314
5.42783
5.32687
5.13438
531.39
517.755
5.36626
5.82266
6.11335
6.29011
6.40867
6.49269
6.54766
6.57527
6.57872
6.56408
6.53833
6.50193
6.45564
6.40026
6.33654
6.26516
6.1867
6.1018
6.01255
5.92328
5.84249
5.76969
5.70256
5.6413
5.58868
5.54901
5.52572
5.51794
5.516
5.49787
5.44848
5.34338
5.14571
531.479
517.764
5.37087
5.82526
6.11412
6.28989
6.40815
6.49222
6.54737
6.57535
6.57958
6.56644
6.54244
6.50801
6.46385
6.41073
6.34937
6.28042
6.20451
6.12234
6.03618
5.95064
5.87415
5.80501
5.74089
5.68185
5.6303
5.59013
5.56451
5.55298
5.54616
5.52327
5.46973
5.36035
5.15733
531.569
517.773
5.37509
5.8273
6.11419
6.28889
6.40679
6.49085
6.54614
6.57445
6.57948
6.5679
6.5457
6.51326
6.47125
6.42039
6.36139
6.2949
6.22155
6.14215
6.05915
5.97749
5.90517
5.83959
5.77843
5.72162
5.67128
5.63089
5.60334
5.58838
5.57687
5.54928
5.49156
5.3778
5.16927
531.66
517.782
5.37893
5.82876
6.11356
6.2871
6.40457
6.48857
6.54393
6.57253
6.57835
6.56837
6.54799
6.51758
6.47775
6.4292
6.37259
6.30857
6.23783
6.16127
6.08156
6.00396
5.93569
5.87355
5.81527
5.76069
5.71164
5.67123
5.64205
5.62392
5.60799
5.57584
5.51393
5.3957
5.18151
531.751
517.791
5.38239
5.82965
6.11223
6.28454
6.40155
6.48543
6.54083
6.56969
6.57631
6.56795
6.54942
6.52104
6.48341
6.43716
6.38296
6.32144
6.25334
6.17968
6.10336
6.03001
5.96568
5.90688
5.85141
5.79902
5.75133
5.71108
5.68056
5.65967
5.63949
5.6029
5.53686
5.41408
5.19409
531.844
517.799
5.38541
5.82992
6.11017
6.2812
6.3977
6.48143
6.53682
6.56592
6.57332
6.56662
6.54994
6.5236
6.48817
6.44425
6.39246
6.33347
6.26804
6.19735
6.12452
6.05555
5.9951
5.93959
5.88686
5.83663
5.79033
5.75037
5.71874
5.69537
5.67121
5.63033
5.5602
5.43284
5.20695
531.936
517.807
5.38797
5.82956
6.10739
6.27711
6.39308
6.47665
6.53201
6.56133
6.56954
6.56449
6.54965
6.52533
6.49207
6.45046
6.40109
6.34462
6.2819
6.21421
6.14495
6.08043
6.02384
5.97157
5.92156
5.8735
5.82863
5.78908
5.75656
5.73101
5.70315
5.65815
5.58397
5.452
5.22009
532.029
517.815
5.39002
5.82851
6.10386
6.27224
6.38768
6.47107
6.52641
6.55597
6.565
6.56162
6.5486
6.52627
6.49515
6.45582
6.40885
6.35492
6.29491
6.23027
6.16464
6.10462
6.05184
6.00278
5.95547
5.90956
5.86616
5.82712
5.79389
5.76642
5.73513
5.68621
5.60808
5.47148
5.23345
532.123
517.822
5.39156
5.82681
6.09963
6.26665
6.38155
6.46479
6.52012
6.54997
6.55986
6.55817
6.54693
6.52652
6.49749
6.46038
6.41577
6.36436
6.30708
6.24551
6.18359
6.12806
6.07906
6.03317
5.98852
5.94478
5.9029
5.86449
5.83073
5.8016
5.7671
5.71445
5.63245
5.4912
5.24697
532.217
517.83
5.39259
5.82446
6.09467
6.26031
6.37468
6.45776
6.51314
6.54334
6.55417
6.55422
6.54476
6.52623
6.4992
6.46425
6.42197
6.37304
6.3185
6.26006
6.20193
6.15083
6.10553
6.06274
6.0207
5.97909
5.93875
5.90105
5.86695
5.83639
5.79893
5.74275
5.65698
5.51108
5.26062
532.31
517.837
5.39318
5.82153
6.08907
6.25329
6.3671
6.45004
6.50549
6.53615
6.54805
6.54988
6.54219
6.52549
6.50041
6.46755
6.42753
6.38107
6.32926
6.27401
6.2198
6.17302
6.13131
6.09152
6.05202
6.01251
5.97371
5.93679
5.90247
5.87072
5.83056
5.77105
5.68164
5.53112
5.27441
532.404
517.843
5.3934
5.81808
6.08284
6.24557
6.35878
6.44155
6.49712
6.52838
6.54157
6.54521
6.53927
6.52438
6.50121
6.47041
6.4326
6.38858
6.33954
6.28757
6.23742
6.19479
6.1565
6.11959
6.08253
6.04506
6.0078
5.97171
5.93731
5.90457
5.86191
5.79926
5.70631
5.55123
5.28827
532.498
517.85
5.39331
5.81416
6.07602
6.23718
6.34972
6.43228
6.48797
6.51995
6.53481
6.54013
6.53596
6.5229
6.50166
6.4729
6.43729
6.3957
6.34944
6.30082
6.2549
6.21621
6.18118
6.147
6.11226
6.07672
6.04093
6.00565
5.97119
5.93773
5.89286
5.82731
5.73097
5.5714
5.30221
532.591
517.857
5.39297
5.80979
6.06861
6.22812
6.33992
6.42219
6.47794
6.51062
6.52717
6.53434
6.5321
6.52102
6.50179
6.47509
6.44168
6.40251
6.35906
6.31385
6.27224
6.23733
6.20541
6.17382
6.14129
6.10758
6.07321
6.03882
6.00467
5.97033
5.92336
5.85507
5.7555
5.59152
5.31614
532.684
517.863
5.39241
5.80496
6.06061
6.21839
6.3294
6.41133
6.46711
6.50053
6.51887
6.52798
6.52776
6.51873
6.50158
6.47701
6.44582
6.40909
6.36846
6.3267
6.2894
6.25815
6.22921
6.20011
6.16968
6.13774
6.10477
6.07132
6.03766
6.00243
5.95345
5.88258
5.77989
5.61159
5.33006
532.776
517.869
5.39145
5.79955
6.05196
6.20797
6.31814
6.39967
6.45542
6.48954
6.50971
6.52081
6.52271
6.51587
6.50092
6.47857
6.4497
6.41547
6.3777
6.33946
6.30644
6.27871
6.25263
6.2259
6.19748
6.16723
6.13561
6.10311
6.06999
6.03392
5.98302
5.90971
5.80401
5.63147
5.34386
532.867
517.875
5.39003
5.79354
6.04266
6.19688
6.30621
6.38732
6.44303
6.47787
6.49987
6.51297
6.51703
6.51243
6.49977
6.47975
6.45328
6.42164
6.38684
6.3522
6.32339
6.29904
6.2757
6.25126
6.22476
6.19614
6.16582
6.13427
6.10173
6.06487
6.01216
5.93653
5.82795
5.65128
5.35772
532.958
517.881
5.38805
5.78685
6.03267
6.18511
6.29359
6.37428
6.42996
6.46553
6.48937
6.50447
6.51068
6.50836
6.49806
6.48047
6.45653
6.42762
6.39593
6.36506
6.34032
6.31922
6.29849
6.27621
6.25154
6.22445
6.19538
6.16474
6.13278
6.09518
6.04076
5.96293
5.85158
5.6709
5.37155
533.047
517.886
5.38553
5.77953
6.02202
6.17269
6.28035
6.36066
6.41638
6.45276
6.47846
6.49552
6.50385
6.50378
6.49586
6.48074
6.45942
6.43338
6.40499
6.37813
6.3573
6.33928
6.32104
6.30082
6.2779
6.25228
6.2244
6.19464
6.16326
6.12496
6.06892
5.98901
5.87501
5.69041
5.38533
533.135
517.891
5.38252
5.7716
6.01071
6.15958
6.26642
6.3464
6.40226
6.43959
6.46724
6.48628
6.49668
6.49883
6.49325
6.48064
6.46201
6.43896
6.41405
6.39139
6.3743
6.35922
6.34334
6.32508
6.30381
6.2796
6.25285
6.22392
6.19309
6.15411
6.09652
6.01463
5.89806
5.70964
5.39893
533.221
517.895
5.37916
5.76321
5.99881
6.14579
6.25177
6.33146
6.38762
6.42611
6.45587
6.47694
6.4894
6.49371
6.49042
6.48028
6.46435
6.44436
6.42305
6.40473
6.39127
6.37902
6.36542
6.34903
6.32935
6.30647
6.2808
6.25267
6.2224
6.18277
6.12371
6.03993
5.92088
5.72871
5.41245
533.307
517.9
5.37561
5.75443
5.98632
6.13126
6.23627
6.31566
6.3723
6.41228
6.44433
6.46756
6.48214
6.48861
6.48758
6.47986
6.46662
6.44971
6.43207
6.41811
6.40814
6.39861
6.38719
6.37261
6.35446
6.33287
6.30824
6.28088
6.25113
6.21085
6.15036
6.06476
5.94329
5.74746
5.42574
533.39
517.905
5.37202
5.74538
5.97329
6.11594
6.2198
6.29882
6.3561
6.39811
6.4325
6.45806
6.47492
6.48363
6.48489
6.47958
6.46902
6.4552
6.44129
6.43159
6.42497
6.41806
6.40872
6.39588
6.37919
6.35884
6.3352
6.30857
6.27936
6.23848
6.17665
6.0893
5.96549
5.76605
5.43895
533.473
517.909
5.36845
5.73607
5.95967
6.09976
6.20221
6.28065
6.33858
6.3829
6.41991
6.44816
6.46762
6.47879
6.48244
6.4796
6.47174
6.46105
6.45094
6.44529
6.4418
6.43734
6.42998
6.41879
6.40351
6.38436
6.3617
6.3358
6.30707
6.26555
6.20239
6.11335
5.98724
5.78428
5.4519
533.554
517.914
5.36491
5.7265
5.94548
6.0827
6.18345
6.2611
6.31961
6.3664
6.40635
6.43766
6.46005
6.47395
6.4802
6.47998
6.47494
6.46751
6.46132
6.45945
6.45885
6.45663
6.4511
6.44144
6.42748
6.40944
6.38766
6.3624
6.33424
6.2922
6.22782
6.13715
6.00882
5.80237
5.46475
533.633
517.92
5.36135
5.71664
5.93068
6.06473
6.16347
6.24002
6.29901
6.34837
6.39149
6.42618
6.45185
6.46881
6.47794
6.48056
6.47853
6.47452
6.47239
6.47402
6.47606
6.4759
6.47204
6.46379
6.45105
6.43407
6.41322
6.38888
6.36093
6.31826
6.25267
6.16044
6.02993
5.82007
5.47731
533.711
517.925
5.35774
5.70647
5.9153
6.04589
6.14228
6.21747
6.27681
6.3288
6.37526
6.41358
6.44283
6.46316
6.47546
6.48118
6.48239
6.48201
6.48405
6.48899
6.4935
6.49525
6.49292
6.48597
6.47438
6.45844
6.43856
6.41522
6.38737
6.34402
6.27725
6.18351
6.05088
5.83765
5.48976
533.788
517.93
5.35406
5.69598
5.89933
6.02616
6.11986
6.19337
6.25294
6.30758
6.3575
6.39965
6.43273
6.45672
6.47248
6.48158
6.48627
6.48973
6.49599
6.50412
6.51097
6.51451
6.51363
6.5079
6.49737
6.48242
6.46348
6.44111
6.41328
6.36921
6.30127
6.20605
6.07135
5.85481
5.50188
533.863
517.936
5.35039
5.68529
5.88287
6.0056
6.09625
6.16779
6.22749
6.28483
6.33833
6.38446
6.42157
6.44944
6.46891
6.48165
6.49009
6.49765
6.50812
6.51933
6.52845
6.53371
6.53421
6.52964
6.52015
6.50615
6.48814
6.46672
6.43891
6.39411
6.32503
6.22839
6.09166
5.87185
5.51389
533.937
517.942
5.34683
5.67445
5.86592
5.98417
6.07132
6.14056
6.20031
6.26046
6.31769
6.36796
6.40928
6.44123
6.46464
6.48127
6.49375
6.50568
6.52025
6.53445
6.54576
6.55269
6.55452
6.55107
6.54256
6.52947
6.51234
6.49182
6.46396
6.41843
6.34821
6.25017
6.11145
5.88842
5.52551
534.009
517.948
5.34355
5.66362
5.8486
5.96192
6.04507
6.11163
6.17136
6.23441
6.29555
6.35018
6.3959
6.43213
6.4597
6.48047
6.49726
6.51384
6.53239
6.54946
6.56289
6.57144
6.57457
6.57221
6.56468
6.55248
6.53622
6.5166
6.4887
6.44244
6.37114
6.27175
6.13107
5.90486
5.537
534.081
517.954
5.34059
5.65279
5.8309
5.9388
6.01737
6.08082
6.14044
6.20638
6.2716
6.33084
6.3812
6.42194
6.45389
6.47905
6.50041
6.52186
6.54426
6.56414
6.57966
6.58983
6.59425
6.59297
6.58637
6.57503
6.55959
6.5408
6.5128
6.4658
6.39343
6.29271
6.15012
5.92077
5.54804
534.151
517.961
5.33794
5.64201
5.81292
5.91493
5.98825
6.0481
6.10766
6.17614
6.24553
6.30965
6.36496
6.41047
6.44704
6.47682
6.50299
6.52943
6.55563
6.57831
6.59594
6.60776
6.6135
6.61332
6.60768
6.59721
6.58259
6.56464
6.53656
6.48885
6.41545
6.31346
6.16899
5.93654
5.55894
534.221
517.969
5.33543
5.63118
5.79467
5.89034
5.95772
6.01324
6.07233
6.14315
6.21686
6.28614
6.34674
6.39734
6.43882
6.47348
6.50473
6.5362
6.56618
6.59168
6.61149
6.62502
6.63215
6.6331
6.62844
6.61883
6.605
6.58782
6.55961
6.51117
6.43676
6.33352
6.18721
5.9517
5.56931
534.288
517.976
5.33296
5.62031
5.77627
5.86527
5.92607
5.97654
6.03457
6.10742
6.18544
6.26009
6.32624
6.38224
6.42893
6.46879
6.50539
6.54186
6.5756
6.60399
6.62607
6.64143
6.65005
6.65226
6.64865
6.63996
6.62696
6.61056
6.58226
6.53315
6.45779
6.35334
6.20525
5.96672
5.57953
534.357
517.984
5.3305
5.60947
5.75784
5.83981
5.89346
5.93821
5.99458
6.06905
6.15122
6.23129
6.30321
6.36487
6.41709
6.46247
6.50474
6.54614
6.58364
6.61498
6.63945
6.65677
6.66702
6.67058
6.66811
6.66038
6.6482
6.63253
6.60411
6.55431
6.47801
6.37239
6.22254
5.98105
5.58915
534.423
517.991
5.32814
5.59876
5.73944
5.81414
5.86002
5.89847
5.95264
6.02838
6.11445
6.19984
6.27756
6.34505
6.40302
6.4542
6.50242
6.54871
6.59001
6.6244
6.6514
6.67085
6.6829
6.68799
6.6868
6.68014
6.6689
6.65398
6.62551
6.5751
6.49793
6.3912
6.23963
5.99522
5.59861
534.49
517.999
5.32609
5.58829
5.72109
5.7881
5.82571
5.85737
5.90897
5.98572
6.07547
6.16601
6.24945
6.3228
6.38665
6.44382
6.49813
6.54929
6.59445
6.63202
6.66171
6.68347
6.69749
6.70425
6.70447
6.69904
6.68897
6.67456
6.64595
6.59493
6.51692
6.40911
6.25587
6.0086
5.6074
534.555
518.007
5.32462
5.57829
5.7029
5.76171
5.79036
5.8147
5.86352
5.94122
6.03457
6.13013
6.21917
6.29829
6.36802
6.43124
6.49163
6.54763
6.59673
6.63764
6.67022
6.6945
6.71073
6.71941
6.72129
6.71731
6.7086
6.69471
6.66597
6.61438
6.53559
6.42675
6.27189
6.0218
5.61601
534.622
518.016
5.32379
5.56874
5.68485
5.73489
5.75378
5.77025
5.81601
5.8947
5.99175
6.09237
6.18697
6.27182
6.3474
6.4167
6.48298
6.54371
6.59677
6.64111
6.67672
6.70371
6.72234
6.73312
6.73683
6.73443
6.72714
6.71378
6.68489
6.63275
6.55321
6.44337
6.28693
6.0341
5.62387
534.686
518.026
5.3237
5.55979
5.6671
5.70777
5.71596
5.72372
5.76605
5.84578
5.94673
6.05255
6.15278
6.24336
6.32481
6.40023
6.47212
6.53746
6.59447
6.64235
6.68118
6.71109
6.73237
6.74551
6.75129
6.75071
6.745
6.73228
6.70333
6.65069
6.57046
6.45969
6.30173
6.0462
5.6315
534.752
518.036
5.32418
5.55134
5.6497
5.68049
5.67703
5.67509
5.71337
5.794
5.89906
6.01036
6.11639
6.21281
6.30019
6.38176
6.45899
6.52878
6.58973
6.6412
6.68337
6.71637
6.74046
6.75615
6.76417
6.76552
6.76148
6.74946
6.72047
6.66739
6.58653
6.47488
6.31544
6.05729
5.63828
534.816
518.047
5.32511
5.54344
5.63286
5.65343
5.63743
5.62461
5.65781
5.73885
5.84804
5.96502
6.07711
6.17956
6.27299
6.36078
6.44323
6.51747
6.58242
6.63761
6.68329
6.71958
6.74675
6.76523
6.77576
6.77929
6.7771
6.76591
6.73702
6.68359
6.60217
6.4897
6.32885
6.06812
5.64478
534.882
518.058
5.32626
5.53599
5.61668
5.6269
5.59769
5.57278
5.59961
5.68028
5.79333
5.91608
6.03441
6.14308
6.24271
6.33677
6.42441
6.50315
6.57221
6.63126
6.6806
6.72037
6.75078
6.77225
6.78544
6.79129
6.79105
6.7808
6.75208
6.6984
6.61652
6.5033
6.3411
6.07789
5.65038
534.945
518.069
5.3275
5.52897
5.60129
5.60125
5.55841
5.52022
5.53924
5.61835
5.73464
5.86304
5.98772
6.10279
6.20881
6.30922
6.40216
6.48556
6.55893
6.62208
6.67534
6.71884
6.75278
6.7775
6.79363
6.80204
6.80397
6.79481
6.76642
6.7126
6.63034
6.51645
6.35297
6.08733
5.65567
535.013
518.079
5.32874
5.52234
5.58669
5.57669
5.52012
5.46784
5.47748
5.55352
5.67215
5.80585
5.93686
6.05844
6.17097
6.27777
6.37611
6.46435
6.54224
6.6097
6.66708
6.71453
6.75219
6.78036
6.7996
6.81073
6.81494
6.80702
6.77909
6.72528
6.64277
6.52832
6.36365
6.09569
5.66005
535.075
518.089
5.33003
5.51606
5.57283
5.55315
5.48293
5.41603
5.41498
5.48647
5.60634
5.74475
5.88189
6.00997
6.12911
6.24228
6.34615
6.43943
6.5221
6.59416
6.65598
6.70768
6.74936
6.78128
6.80392
6.81801
6.8247
6.8182
6.79089
6.73721
6.65456
6.53963
6.37385
6.10365
5.66408
535.144
518.1
5.33145
5.51012
5.5596
5.53055
5.44691
5.36518
5.35241
5.41795
5.53784
5.68023
5.82313
5.95757
6.08329
6.20272
6.31215
6.41063
6.49827
6.57513
6.64159
6.69775
6.74366
6.77952
6.80573
6.82297
6.83229
6.82738
6.80087
6.74751
6.66487
6.54959
6.38282
6.1105
5.66721
535.207
518.11
5.33312
5.50448
5.54685
5.50864
5.41179
5.31526
5.29009
5.34853
5.46731
5.61281
5.761
5.90154
6.03373
6.15927
6.27433
6.37817
6.471
6.55293
6.62432
6.68523
6.73566
6.77574
6.80579
6.8264
6.83854
6.8354
6.80984
6.75693
6.67442
6.55889
6.39121
6.11687
5.66993
535.277
518.121
5.33499
5.49909
5.53452
5.48736
5.37756
5.26645
5.22819
5.27855
5.39517
5.54294
5.69578
5.84205
5.98045
6.11193
6.2326
6.34188
6.44005
6.5272
6.60369
6.66951
6.72464
6.76912
6.80318
6.82731
6.84242
6.84123
6.81683
6.76456
6.68235
6.56672
6.39827
6.12205
5.67166
535.34
518.133
5.33701
5.49385
5.52257
5.4667
5.34416
5.21851
5.16669
5.2081
5.3216
5.4708
5.62771
5.77932
5.92363
6.06092
6.18726
6.30213
6.40584
6.49846
6.58029
6.6513