/*--------------------------------*- C++ -*----------------------------------*\
| =========                 |                                                 |
| \\      /  F ield         | OpenFOAM: The Open Source CFD Toolbox           |
|  \\    /   O peration     | Version:  v2006                                 |
|   \\  /    A nd           | Website:  www.openfoam.com                      |
|    \\/     M anipulation  |                                                 |
\*---------------------------------------------------------------------------*/
FoamFile
{
    version     2.0;
    format      ascii;
    class       volScalarField;
    location    "100";
    object      T;
}
// * * * * * * * * * * * * * * * * * * * * * * * * * * * * * * * * * * * * * //

dimensions      [0 0 0 1 0 0 0];


internalField   nonuniform List<scalar> 
78750
(
300.023
300.07
300.116
300.16
300.203
300.245
300.284
300.323
300.359
300.394
300.427
300.458
300.488
300.516
300.542
300.567
300.591
300.613
300.634
300.654
300.672
300.689
300.705
300.719
300.732
300.743
300.751
300.757
300.762
300.777
300.829
300.978
301.315
301.932
302.832
300.055
300.162
300.259
300.344
300.42
300.487
300.548
300.602
300.65
300.693
300.731
300.765
300.796
300.822
300.845
300.864
300.881
300.896
300.908
300.918
300.926
300.932
300.937
300.94
300.941
300.941
300.939
300.936
300.936
300.949
301.002
301.153
301.487
302.078
302.954
300.074
300.217
300.347
300.462
300.561
300.647
300.722
300.787
300.845
300.896
300.941
300.98
301.015
301.044
301.069
301.09
301.107
301.119
301.128
301.134
301.136
301.135
301.131
301.124
301.114
301.102
301.089
301.075
301.067
301.079
301.142
301.311
301.652
302.236
303.115
300.088
300.257
300.41
300.545
300.658
300.753
300.833
300.902
300.963
301.017
301.064
301.106
301.143
301.175
301.202
301.225
301.244
301.258
301.269
301.276
301.278
301.277
301.271
301.262
301.248
301.23
301.21
301.191
301.182
301.2
301.28
301.473
301.824
302.405
303.292
300.099
300.29
300.462
300.612
300.734
300.833
300.916
300.987
301.049
301.104
301.152
301.195
301.232
301.265
301.292
301.315
301.333
301.346
301.355
301.36
301.362
301.359
301.353
301.343
301.33
301.312
301.293
301.277
301.275
301.307
301.409
301.624
301.987
302.576
303.47
300.108
300.317
300.506
300.667
300.797
300.9
300.985
301.058
301.122
301.179
301.23
301.275
301.314
301.348
301.376
301.398
301.413
301.424
301.429
301.43
301.427
301.42
301.41
301.398
301.383
301.366
301.35
301.341
301.351
301.403
301.53
301.767
302.144
302.745
303.646
300.116
300.34
300.542
300.712
300.847
300.952
301.039
301.114
301.181
301.24
301.293
301.34
301.381
301.416
301.444
301.464
301.478
301.485
301.486
301.482
301.475
301.464
301.45
301.435
301.42
301.405
301.394
301.394
301.419
301.492
301.643
301.901
302.294
302.911
303.817
300.123
300.359
300.571
300.749
300.889
300.998
301.088
301.165
301.234
301.296
301.353
301.403
301.446
301.482
301.51
301.529
301.54
301.544
301.54
301.531
301.518
301.502
301.484
301.466
301.449
301.436
301.431
301.441
301.48
301.572
301.746
302.022
302.432
303.063
303.974
300.129
300.375
300.596
300.781
300.925
301.038
301.13
301.21
301.281
301.346
301.405
301.457
301.503
301.54
301.569
301.588
301.598
301.599
301.593
301.58
301.562
301.541
301.519
301.498
301.479
301.467
301.466
301.484
301.537
301.646
301.839
302.133
302.558
303.204
304.12
300.134
300.39
300.619
300.811
300.959
301.075
301.17
301.252
301.326
301.394
301.456
301.51
301.558
301.597
301.626
301.645
301.654
301.654
301.644
301.628
301.606
301.581
301.555
301.531
301.511
301.499
301.501
301.526
301.59
301.714
301.924
302.234
302.674
303.332
304.253
300.138
300.403
300.64
300.837
300.99
301.109
301.206
301.291
301.368
301.438
301.502
301.559
301.609
301.649
301.679
301.699
301.708
301.706
301.695
301.676
301.651
301.623
301.594
301.567
301.545
301.533
301.538
301.568
301.641
301.779
302.004
302.328
302.782
303.452
304.377
300.143
300.416
300.66
300.864
301.021
301.142
301.242
301.33
301.409
301.481
301.548
301.607
301.658
301.7
301.731
301.75
301.759
301.756
301.744
301.723
301.696
301.665
301.633
301.604
301.582
301.57
301.576
301.612
301.693
301.842
302.08
302.417
302.883
303.564
304.493
300.147
300.428
300.679
300.888
301.049
301.173
301.275
301.365
301.447
301.522
301.59
301.652
301.705
301.747
301.779
301.8
301.808
301.805
301.791
301.769
301.74
301.707
301.673
301.643
301.619
301.608
301.617
301.657
301.745
301.905
302.155
302.503
302.98
303.671
304.603
300.151
300.441
300.699
300.913
301.077
301.204
301.308
301.4
301.484
301.562
301.632
301.695
301.75
301.794
301.826
301.847
301.856
301.852
301.838
301.814
301.784
301.749
301.714
301.682
301.658
301.648
301.659
301.703
301.799
301.967
302.229
302.587
303.073
303.772
304.708
300.156
300.452
300.717
300.936
301.103
301.232
301.339
301.434
301.52
301.599
301.672
301.737
301.793
301.838
301.872
301.893
301.901
301.898
301.883
301.858
301.827
301.791
301.754
301.722
301.698
301.688
301.702
301.751
301.853
302.031
302.302
302.669
303.163
303.87
304.808
300.16
300.464
300.735
300.958
301.129
301.261
301.37
301.466
301.555
301.636
301.711
301.777
301.835
301.881
301.916
301.937
301.946
301.942
301.927
301.902
301.869
301.833
301.795
301.762
301.738
301.73
301.746
301.8
301.909
302.095
302.375
302.748
303.25
303.964
304.905
300.164
300.475
300.752
300.98
301.154
301.287
301.399
301.497
301.588
301.671
301.748
301.816
301.875
301.923
301.958
301.98
301.99
301.986
301.971
301.945
301.912
301.874
301.836
301.803
301.78
301.772
301.791
301.849
301.965
302.159
302.447
302.827
303.335
304.055
304.998
300.167
300.486
300.769
301.002
301.178
301.314
301.427
301.528
301.62
301.706
301.784
301.854
301.914
301.963
301.999
302.022
302.032
302.029
302.014
301.988
301.954
301.916
301.878
301.844
301.821
301.816
301.837
301.9
302.021
302.223
302.518
302.904
303.418
304.143
305.088
300.171
300.497
300.786
301.022
301.201
301.339
301.455
301.557
301.652
301.739
301.819
301.891
301.952
302.002
302.039
302.063
302.074
302.071
302.056
302.031
301.997
301.958
301.92
301.886
301.864
301.86
301.884
301.951
302.079
302.287
302.589
302.98
303.498
304.229
305.176
300.175
300.508
300.802
301.043
301.224
301.364
301.481
301.586
301.682
301.772
301.853
301.927
301.989
302.04
302.079
302.104
302.115
302.113
302.098
302.073
302.039
302.001
301.962
301.928
301.907
301.904
301.931
302.003
302.136
302.351
302.659
303.054
303.577
304.312
305.261
300.179
300.518
300.818
301.063
301.247
301.389
301.508
301.614
301.712
301.803
301.887
301.961
302.026
302.078
302.117
302.143
302.155
302.154
302.14
302.115
302.082
302.043
302.004
301.971
301.95
301.949
301.979
302.055
302.194
302.415
302.729
303.128
303.655
304.394
305.344
300.182
300.529
300.834
301.082
301.269
301.413
301.533
301.642
301.742
301.834
301.92
301.996
302.061
302.114
302.155
302.182
302.195
302.194
302.181
302.157
302.124
302.086
302.047
302.014
301.994
301.995
302.028
302.108
302.252
302.479
302.798
303.201
303.731
304.474
305.426
300.186
300.539
300.85
301.101
301.29
301.436
301.559
301.669
301.771
301.865
301.952
302.029
302.096
302.15
302.192
302.22
302.234
302.234
302.222
302.199
302.167
302.129
302.091
302.058
302.039
302.041
302.077
302.161
302.311
302.544
302.867
303.273
303.806
304.553
305.506
300.189
300.549
300.865
301.121
301.312
301.459
301.584
301.696
301.799
301.895
301.984
302.062
302.13
302.186
302.228
302.257
302.272
302.274
302.263
302.241
302.209
302.172
302.134
302.103
302.084
302.088
302.127
302.215
302.37
302.608
302.936
303.344
303.881
304.63
305.585
300.193
300.559
300.88
301.139
301.333
301.482
301.608
301.722
301.827
301.925
302.015
302.095
302.164
302.221
302.264
302.294
302.31
302.313
302.303
302.282
302.252
302.215
302.178
302.147
302.13
302.136
302.177
302.269
302.429
302.672
303.004
303.415
303.954
304.707
305.662
300.196
300.569
300.895
301.158
301.354
301.505
301.633
301.748
301.855
301.955
302.046
302.128
302.198
302.255
302.3
302.33
302.348
302.352
302.343
302.323
302.294
302.259
302.223
302.192
302.176
302.184
302.228
302.324
302.489
302.737
303.073
303.486
304.027
304.782
305.738
300.2
300.578
300.91
301.177
301.374
301.527
301.657
301.774
301.883
301.984
302.077
302.16
302.231
302.29
302.335
302.366
302.385
302.39
302.383
302.364
302.336
302.302
302.267
302.238
302.223
302.232
302.279
302.379
302.549
302.802
303.141
303.556
304.099
304.856
305.812
300.203
300.588
300.925
301.195
301.395
301.549
301.681
301.8
301.911
302.014
302.108
302.192
302.264
302.323
302.369
302.402
302.421
302.428
302.422
302.404
302.378
302.345
302.311
302.283
302.27
302.281
302.331
302.435
302.609
302.866
303.209
303.625
304.17
304.928
305.885
300.207
300.598
300.94
301.213
301.415
301.572
301.705
301.826
301.938
302.043
302.138
302.223
302.297
302.357
302.404
302.437
302.458
302.465
302.46
302.445
302.42
302.388
302.356
302.329
302.317
302.331
302.383
302.491
302.669
302.931
303.276
303.694
304.239
304.999
305.955
300.21
300.608
300.955
301.231
301.436
301.594
301.729
301.852
301.966
302.072
302.169
302.255
302.329
302.391
302.438
302.472
302.493
302.502
302.499
302.484
302.461
302.432
302.401
302.375
302.365
302.38
302.436
302.547
302.729
302.995
303.343
303.761
304.308
305.068
306.024
300.214
300.617
300.97
301.25
301.456
301.616
301.753
301.878
301.993
302.101
302.199
302.287
302.362
302.424
302.472
302.507
302.529
302.539
302.537
302.524
302.502
302.474
302.445
302.421
302.412
302.43
302.488
302.603
302.789
303.059
303.408
303.828
304.375
305.135
306.091
300.217
300.627
300.985
301.268
301.476
301.638
301.777
301.903
302.021
302.13
302.23
302.318
302.395
302.457
302.506
302.542
302.565
302.575
302.574
302.563
302.543
302.517
302.49
302.467
302.46
302.48
302.541
302.658
302.849
303.122
303.473
303.893
304.44
305.201
306.156
300.22
300.637
301
301.286
301.496
301.66
301.801
301.929
302.048
302.159
302.26
302.35
302.427
302.491
302.54
302.577
302.6
302.611
302.612
302.602
302.584
302.56
302.534
302.513
302.508
302.53
302.593
302.714
302.908
303.184
303.537
303.957
304.504
305.265
306.219
300.224
300.647
301.014
301.304
301.517
301.682
301.825
301.955
302.076
302.188
302.291
302.382
302.46
302.524
302.574
302.611
302.635
302.648
302.649
302.641
302.624
302.602
302.578
302.559
302.556
302.579
302.645
302.769
302.966
303.246
303.6
304.02
304.567
305.327
306.28
300.227
300.656
301.029
301.322
301.537
301.704
301.849
301.981
302.104
302.218
302.321
302.413
302.492
302.557
302.608
302.645
302.67
302.683
302.686
302.679
302.664
302.644
302.622
302.605
302.604
302.629
302.697
302.824
303.024
303.306
303.661
304.081
304.627
305.387
306.34
300.231
300.666
301.044
301.34
301.557
301.726
301.873
302.007
302.131
302.247
302.352
302.445
302.525
302.59
302.642
302.68
302.705
302.719
302.723
302.717
302.704
302.685
302.665
302.651
302.651
302.679
302.749
302.879
303.082
303.366
303.722
304.141
304.687
305.446
306.398
300.234
300.676
301.059
301.358
301.577
301.748
301.896
302.032
302.159
302.276
302.383
302.477
302.557
302.623
302.675
302.714
302.74
302.755
302.759
302.755
302.743
302.727
302.709
302.696
302.699
302.729
302.801
302.933
303.139
303.425
303.781
304.2
304.745
305.504
306.455
300.238
300.686
301.074
301.376
301.597
301.77
301.92
302.058
302.187
302.306
302.414
302.509
302.59
302.657
302.709
302.748
302.775
302.79
302.796
302.793
302.783
302.768
302.752
302.742
302.746
302.778
302.853
302.987
303.195
303.483
303.84
304.258
304.802
305.56
306.511
300.241
300.695
301.088
301.394
301.617
301.792
301.944
302.084
302.215
302.335
302.445
302.541
302.623
302.69
302.743
302.782
302.809
302.825
302.832
302.83
302.822
302.809
302.795
302.787
302.793
302.827
302.904
303.041
303.251
303.54
303.897
304.314
304.858
305.615
306.565
300.244
300.705
301.103
301.412
301.637
301.814
301.968
302.11
302.242
302.365
302.476
302.573
302.655
302.723
302.776
302.816
302.844
302.861
302.868
302.867
302.86
302.849
302.837
302.831
302.84
302.876
302.955
303.094
303.306
303.597
303.954
304.37
304.913
305.669
306.619
300.248
300.715
301.118
301.43
301.657
301.836
301.992
302.136
302.27
302.395
302.507
302.605
302.688
302.756
302.81
302.85
302.878
302.896
302.904
302.905
302.899
302.889
302.88
302.876
302.887
302.925
303.006
303.147
303.361
303.653
304.01
304.425
304.967
305.722
306.671
300.251
300.724
301.133
301.448
301.677
301.858
302.016
302.162
302.299
302.424
302.538
302.637
302.721
302.79
302.844
302.884
302.913
302.931
302.94
302.942
302.937
302.93
302.922
302.92
302.933
302.974
303.057
303.2
303.415
303.708
304.065
304.479
305.02
305.775
306.723
300.255
300.734
301.147
301.466
301.697
301.88
302.04
302.188
302.327
302.454
302.569
302.67
302.754
302.823
302.878
302.918
302.947
302.966
302.976
302.978
302.975
302.969
302.964
302.964
302.979
303.022
303.107
303.252
303.469
303.763
304.12
304.533
305.072
305.827
306.774
300.258
300.744
301.162
301.484
301.717
301.902
302.064
302.215
302.355
302.485
302.601
302.702
302.787
302.857
302.911
302.952
302.982
303.001
303.011
303.015
303.013
303.009
303.005
303.007
303.025
303.07
303.158
303.304
303.523
303.817
304.174
304.585
305.124
305.877
306.825
300.262
300.753
301.177
301.502
301.737
301.924
302.089
302.241
302.384
302.515
302.633
302.735
302.821
302.89
302.945
302.987
303.016
303.036
303.047
303.052
303.051
303.048
303.046
303.051
303.07
303.118
303.207
303.355
303.576
303.871
304.227
304.637
305.175
305.928
306.875
300.265
300.763
301.191
301.519
301.757
301.946
302.113
302.268
302.413
302.546
302.665
302.768
302.854
302.924
302.979
303.021
303.051
303.071
303.083
303.088
303.089
303.088
303.087
303.094
303.116
303.165
303.257
303.407
303.628
303.924
304.28
304.689
305.225
305.977
306.924
300.268
300.773
301.206
301.537
301.777
301.968
302.137
302.295
302.442
302.576
302.697
302.801
302.888
302.958
303.013
303.055
303.085
303.106
303.118
303.125
303.127
303.127
303.128
303.137
303.161
303.212
303.306
303.457
303.68
303.977
304.332
304.74
305.275
306.026
306.973
300.272
300.782
301.221
301.555
301.797
301.99
302.162
302.322
302.471
302.607
302.729
302.834
302.921
302.992
303.047
303.089
303.12
303.14
303.154
303.161
303.164
303.165
303.169
303.179
303.205
303.259
303.354
303.508
303.732
304.029
304.383
304.79
305.324
306.075
307.021
300.275
300.792
301.235
301.573
301.817
302.013
302.187
302.349
302.5
302.638
302.761
302.867
302.955
303.026
303.081
303.123
303.154
303.175
303.189
303.197
303.201
303.204
303.209
303.222
303.25
303.305
303.403
303.558
303.783
304.081
304.434
304.84
305.372
306.123
307.069
300.279
300.802
301.25
301.591
301.838
302.035
302.212
302.376
302.53
302.67
302.794
302.9
302.989
303.06
303.115
303.158
303.188
303.21
303.225
303.233
303.239
303.243
303.25
303.264
303.294
303.352
303.451
303.608
303.834
304.132
304.485
304.889
305.421
306.171
307.117
300.282
300.811
301.265
301.609
301.858
302.058
302.237
302.404
302.56
302.702
302.827
302.934
303.023
303.094
303.15
303.192
303.223
303.245
303.26
303.27
303.276
303.282
303.29
303.306
303.339
303.398
303.5
303.658
303.885
304.184
304.535
304.939
305.469
306.219
307.165
300.285
300.821
301.28
301.627
301.879
302.081
302.262
302.432
302.59
302.734
302.86
302.968
303.057
303.128
303.184
303.226
303.257
303.28
303.295
303.306
303.313
303.32
303.33
303.348
303.383
303.445
303.548
303.708
303.936
304.235
304.586
304.988
305.517
306.266
307.212
300.289
300.831
301.295
301.645
301.899
302.104
302.288
302.46
302.621
302.766
302.894
303.003
303.092
303.163
303.218
303.261
303.292
303.315
303.331
303.342
303.35
303.359
303.37
303.39
303.427
303.491
303.596
303.758
303.987
304.286
304.636
305.036
305.565
306.314
307.26
300.292
300.841
301.31
301.664
301.92
302.127
302.314
302.489
302.652
302.799
302.928
303.037
303.126
303.197
303.253
303.295
303.326
303.349
303.366
303.378
303.388
303.397
303.41
303.432
303.471
303.537
303.645
303.808
304.038
304.337
304.686
305.085
305.612
306.362
307.308
300.296
300.851
301.325
301.682
301.941
302.151
302.34
302.518
302.684
302.833
302.963
303.072
303.161
303.232
303.287
303.33
303.361
303.384
303.401
303.414
303.425
303.436
303.45
303.474
303.515
303.584
303.693
303.858
304.089
304.388
304.736
305.134
305.66
306.409
307.357
300.299
300.861
301.34
301.701
301.962
302.175
302.367
302.548
302.716
302.867
302.998
303.107
303.196
303.267
303.322
303.364
303.396
303.419
303.437
303.45
303.462
303.474
303.49
303.516
303.559
303.63
303.742
303.908
304.141
304.439
304.786
305.183
305.709
306.458
307.405
300.303
300.871
301.356
301.72
301.984
302.199
302.394
302.578
302.748
302.901
303.033
303.143
303.232
303.302
303.357
303.399
303.43
303.454
303.472
303.486
303.499
303.512
303.53
303.558
303.604
303.677
303.791
303.959
304.193
304.491
304.837
305.232
305.757
306.506
307.454
300.307
300.882
301.372
301.739
302.006
302.223
302.422
302.608
302.781
302.935
303.068
303.178
303.267
303.338
303.392
303.434
303.465
303.489
303.507
303.522
303.536
303.551
303.57
303.6
303.648
303.723
303.84
304.01
304.245
304.543
304.888
305.282
305.805
306.555
307.503
300.31
300.892
301.388
301.758
302.027
302.248
302.449
302.639
302.814
302.97
303.104
303.214
303.303
303.373
303.427
303.468
303.5
303.524
303.543
303.558
303.573
303.589
303.61
303.642
303.692
303.77
303.889
304.061
304.297
304.595
304.938
305.331
305.854
306.604
307.553
300.314
300.903
301.404
301.778
302.05
302.273
302.478
302.67
302.848
303.006
303.14
303.251
303.339
303.409
303.462
303.503
303.535
303.559
303.578
303.594
303.61
303.627
303.65
303.684
303.737
303.817
303.938
304.112
304.349
304.647
304.99
305.381
305.903
306.653
307.602
300.318
300.913
301.42
301.797
302.072
302.298
302.506
302.702
302.882
303.041
303.176
303.287
303.375
303.444
303.497
303.538
303.569
303.594
303.613
303.63
303.647
303.665
303.69
303.726
303.781
303.864
303.987
304.164
304.402
304.7
305.041
305.431
305.953
306.702
307.652
300.322
300.924
301.436
301.817
302.094
302.323
302.535
302.734
302.917
303.077
303.213
303.323
303.411
303.48
303.533
303.573
303.604
303.629
303.649
303.666
303.684
303.704
303.73
303.768
303.825
303.911
304.037
304.216
304.455
304.753
305.093
305.481
306.002
306.752
307.703
300.325
300.935
301.452
301.837
302.117
302.349
302.564
302.766
302.951
303.113
303.249
303.36
303.448
303.516
303.568
303.608
303.639
303.664
303.684
303.702
303.72
303.742
303.77
303.81
303.87
303.958
304.087
304.267
304.508
304.806
305.144
305.532
306.052
306.802
307.753
300.329
300.946
301.469
301.857
302.14
302.375
302.593
302.799
302.986
303.15
303.286
303.397
303.484
303.551
303.603
303.643
303.674
303.698
303.719
303.738
303.757
303.78
303.81
303.852
303.914
304.005
304.136
304.319
304.562
304.859
305.196
305.582
306.102
306.852
307.803
300.333
300.957
301.485
301.877
302.162
302.401
302.623
302.832
303.022
303.186
303.323
303.433
303.52
303.587
303.638
303.678
303.709
303.733
303.754
303.774
303.794
303.818
303.85
303.894
303.959
304.052
304.186
304.372
304.615
304.912
305.248
305.633
306.152
306.902
307.854
300.337
300.967
301.502
301.897
302.186
302.428
302.653
302.865
303.057
303.223
303.36
303.47
303.556
303.623
303.673
303.713
303.743
303.768
303.79
303.81
303.831
303.856
303.89
303.936
304.003
304.1
304.236
304.424
304.669
304.966
305.3
305.684
306.203
306.952
307.904
300.341
300.979
301.519
301.918
302.209
302.455
302.684
302.9
303.094
303.261
303.398
303.507
303.593
303.658
303.709
303.747
303.778
303.803
303.825
303.846
303.868
303.895
303.93
303.978
304.048
304.147
304.286
304.476
304.722
305.019
305.352
305.734
306.253
307.002
307.954
300.345
300.99
301.536
301.939
302.233
302.483
302.716
302.935
303.131
303.299
303.436
303.545
303.629
303.694
303.744
303.782
303.813
303.838
303.86
303.881
303.905
303.933
303.969
304.02
304.092
304.194
304.336
304.528
304.776
305.072
305.404
305.785
306.303
307.052
308.004
300.349
301.001
301.553
301.96
302.258
302.511
302.748
302.97
303.169
303.337
303.475
303.583
303.666
303.73
303.779
303.817
303.847
303.873
303.895
303.917
303.941
303.971
304.009
304.062
304.136
304.241
304.386
304.58
304.829
305.125
305.455
305.835
306.353
307.102
308.054
300.353
301.013
301.571
301.981
302.283
302.54
302.781
303.007
303.207
303.377
303.513
303.621
303.704
303.767
303.815
303.852
303.882
303.907
303.93
303.953
303.978
304.008
304.049
304.104
304.18
304.288
304.435
304.632
304.882
305.178
305.507
305.886
306.403
307.152
308.103
300.357
301.025
301.589
302.003
302.308
302.569
302.814
303.043
303.246
303.416
303.553
303.659
303.741
303.803
303.851
303.888
303.917
303.942
303.965
303.988
304.014
304.046
304.088
304.145
304.224
304.334
304.485
304.683
304.934
305.23
305.557
305.935
306.452
307.2
308.152
300.361
301.037
301.607
302.026
302.334
302.599
302.848
303.081
303.285
303.456
303.592
303.698
303.779
303.84
303.886
303.923
303.952
303.977
304
304.024
304.051
304.084
304.127
304.187
304.268
304.381
304.534
304.735
304.987
305.282
305.608
305.985
306.501
307.249
308.2
300.365
301.049
301.626
302.048
302.36
302.629
302.883
303.119
303.325
303.496
303.632
303.736
303.816
303.876
303.922
303.958
303.987
304.012
304.036
304.06
304.087
304.122
304.167
304.228
304.312
304.427
304.582
304.785
305.038
305.333
305.658
306.034
306.549
307.297
308.248
300.369
301.061
301.644
302.071
302.387
302.66
302.918
303.157
303.365
303.536
303.671
303.775
303.854
303.913
303.958
303.993
304.022
304.047
304.071
304.096
304.124
304.159
304.206
304.269
304.355
304.473
304.631
304.836
305.09
305.384
305.707
306.082
306.597
307.344
308.295
300.374
301.073
301.663
302.094
302.414
302.692
302.955
303.197
303.406
303.577
303.711
303.814
303.892
303.95
303.994
304.029
304.057
304.082
304.106
304.131
304.16
304.197
304.245
304.31
304.399
304.519
304.679
304.886
305.14
305.434
305.756
306.13
306.644
307.391
308.341
300.378
301.086
301.683
302.118
302.442
302.725
302.992
303.237
303.448
303.619
303.752
303.854
303.93
303.987
304.03
304.064
304.092
304.117
304.141
304.167
304.197
304.235
304.284
304.351
304.442
304.564
304.727
304.936
305.191
305.484
305.804
306.177
306.691
307.437
308.386
300.383
301.099
301.703
302.143
302.472
302.759
303.032
303.28
303.491
303.662
303.794
303.893
303.968
304.024
304.067
304.1
304.128
304.152
304.177
304.203
304.233
304.272
304.323
304.392
304.485
304.61
304.774
304.984
305.24
305.532
305.851
306.223
306.737
307.482
308.431
300.387
301.112
301.724
302.169
302.502
302.795
303.073
303.324
303.536
303.706
303.836
303.934
304.007
304.062
304.103
304.136
304.163
304.188
304.212
304.238
304.27
304.31
304.362
304.432
304.527
304.654
304.821
305.033
305.289
305.581
305.898
306.269
306.782
307.526
308.474
300.392
301.126
301.746
302.196
302.534
302.833
303.116
303.37
303.582
303.751
303.88
303.976
304.047
304.1
304.14
304.172
304.199
304.223
304.247
304.274
304.306
304.347
304.401
304.473
304.57
304.699
304.868
305.081
305.337
305.628
305.944
306.314
306.826
307.57
308.517
300.397
301.141
301.768
302.224
302.568
302.872
303.16
303.417
303.63
303.798
303.924
304.018
304.087
304.138
304.177
304.208
304.235
304.259
304.283
304.31
304.343
304.385
304.439
304.513
304.612
304.743
304.914
305.129
305.385
305.675
305.99
306.358
306.87
307.613
308.56
300.402
301.156
301.792
302.254
302.602
302.913
303.206
303.466
303.679
303.845
303.97
304.061
304.128
304.178
304.215
304.245
304.271
304.294
304.319
304.346
304.379
304.422
304.478
304.553
304.654
304.787
304.96
305.175
305.432
305.721
306.034
306.402
306.913
307.655
308.601
300.408
301.172
301.816
302.283
302.638
302.955
303.253
303.516
303.73
303.894
304.016
304.105
304.17
304.217
304.253
304.282
304.307
304.331
304.355
304.382
304.416
304.46
304.517
304.593
304.696
304.831
305.005
305.222
305.478
305.766
306.078
306.445
306.955
307.697
308.642
300.414
301.189
301.841
302.314
302.674
302.998
303.302
303.567
303.781
303.943
304.063
304.149
304.212
304.257
304.292
304.32
304.344
304.367
304.391
304.419
304.453
304.497
304.556
304.634
304.737
304.874
305.05
305.267
305.524
305.81
306.121
306.487
306.997
307.737
308.682
300.419
301.205
301.867
302.346
302.712
303.043
303.353
303.62
303.833
303.994
304.11
304.194
304.254
304.298
304.331
304.358
304.381
304.404
304.428
304.456
304.49
304.535
304.594
304.674
304.779
304.918
305.095
305.313
305.569
305.854
306.164
306.528
307.038
307.778
308.722
300.425
301.223
301.893
302.379
302.752
303.09
303.406
303.675
303.887
304.045
304.159
304.239
304.297
304.339
304.37
304.396
304.419
304.441
304.465
304.493
304.527
304.573
304.633
304.714
304.821
304.96
305.139
305.357
305.613
305.897
306.205
306.569
307.078
307.817
308.76
300.432
301.241
301.921
302.414
302.793
303.139
303.46
303.731
303.942
304.097
304.208
304.286
304.341
304.38
304.41
304.435
304.456
304.478
304.502
304.53
304.565
304.611
304.672
304.754
304.862
305.004
305.183
305.402
305.658
305.94
306.247
306.61
307.118
307.856
308.799
300.438
301.259
301.95
302.449
302.836
303.19
303.516
303.789
303.998
304.151
304.258
304.333
304.385
304.422
304.451
304.474
304.495
304.516
304.539
304.567
304.603
304.65
304.712
304.794
304.904
305.046
305.226
305.446
305.701
305.982
306.287
306.649
307.157
307.894
308.837
300.445
301.278
301.979
302.486
302.88
303.242
303.573
303.848
304.056
304.205
304.309
304.38
304.429
304.465
304.491
304.513
304.534
304.554
304.577
304.605
304.641
304.688
304.751
304.835
304.946
305.089
305.27
305.49
305.744
306.024
306.328
306.689
307.196
307.933
308.874
300.452
301.298
302.009
302.523
302.925
303.295
303.632
303.907
304.114
304.26
304.36
304.428
304.475
304.508
304.533
304.553
304.573
304.593
304.616
304.644
304.68
304.727
304.791
304.876
304.987
305.132
305.313
305.533
305.786
306.065
306.367
306.727
307.234
307.97
308.911
300.459
301.318
302.04
302.561
302.971
303.349
303.691
303.967
304.172
304.315
304.412
304.477
304.52
304.551
304.575
304.594
304.612
304.632
304.654
304.682
304.719
304.767
304.831
304.917
305.03
305.175
305.357
305.577
305.829
306.106
306.407
306.766
307.272
308.008
308.949
300.466
301.339
302.071
302.6
303.017
303.404
303.75
304.027
304.23
304.371
304.464
304.526
304.567
304.595
304.617
304.635
304.653
304.671
304.693
304.721
304.758
304.807
304.871
304.958
305.071
305.218
305.4
305.619
305.871
306.146
306.446
306.804
307.309
308.045
308.985
300.473
301.359
302.102
302.64
303.065
303.46
303.811
304.089
304.29
304.427
304.516
304.575
304.613
304.64
304.66
304.677
304.693
304.711
304.733
304.761
304.798
304.847
304.912
305
305.114
305.261
305.444
305.663
305.913
306.187
306.485
306.843
307.348
308.082
309.022
300.48
301.381
302.135
302.681
303.115
303.518
303.873
304.151
304.35
304.483
304.569
304.624
304.66
304.684
304.703
304.718
304.734
304.752
304.773
304.801
304.838
304.887
304.953
305.041
305.156
305.304
305.487
305.705
305.954
306.227
306.523
306.88
307.384
308.119
309.058
300.488
301.403
302.169
302.724
303.167
303.578
303.938
304.215
304.411
304.541
304.623
304.675
304.707
304.73
304.746
304.761
304.776
304.793
304.814
304.842
304.879
304.929
304.995
305.084
305.2
305.348
305.531
305.749
305.997
306.267
306.563
306.918
307.423
308.156
309.096
300.496
301.426
302.204
302.768
303.22
303.64
304.004
304.282
304.474
304.599
304.677
304.725
304.755
304.775
304.79
304.804
304.818
304.834
304.855
304.883
304.92
304.97
305.037
305.126
305.243
305.391
305.574
305.791
306.038
306.307
306.6
306.955
307.459
308.193
309.132
300.504
301.449
302.24
302.814
303.276
303.705
304.073
304.349
304.539
304.659
304.733
304.777
304.804
304.822
304.835
304.847
304.86
304.876
304.897
304.924
304.962
305.012
305.08
305.17
305.287
305.436
305.619
305.836
306.081
306.348
306.64
306.994
307.498
308.231
309.17
300.513
301.474
302.278
302.861
303.333
303.771
304.143
304.419
304.604
304.72
304.789
304.83
304.853
304.869
304.88
304.891
304.903
304.918
304.939
304.966
305.003
305.054
305.123
305.213
305.331
305.48
305.662
305.878
306.122
306.387
306.678
307.032
307.535
308.267
309.206
300.522
301.5
302.316
302.909
303.391
303.838
304.213
304.489
304.671
304.782
304.847
304.883
304.903
304.916
304.926
304.936
304.947
304.961
304.981
305.009
305.046
305.098
305.166
305.258
305.376
305.525
305.708
305.923
306.165
306.429
306.718
307.071
307.574
308.306
309.245
300.531
301.526
302.355
302.958
303.449
303.905
304.285
304.56
304.738
304.845
304.905
304.937
304.954
304.965
304.973
304.981
304.991
305.005
305.024
305.052
305.089
305.141
305.21
305.302
305.42
305.57
305.752
305.966
306.206
306.468
306.757
307.109
307.611
308.343
309.282
300.541
301.552
302.394
303.008
303.509
303.973
304.356
304.631
304.806
304.908
304.963
304.992
305.006
305.014
305.02
305.026
305.036
305.049
305.068
305.095
305.133
305.185
305.255
305.347
305.466
305.616
305.798
306.011
306.25
306.511
306.798
307.149
307.652
308.383
309.322
300.55
301.578
302.434
303.058
303.57
304.042
304.429
304.703
304.875
304.972
305.023
305.047
305.058
305.063
305.067
305.073
305.081
305.093
305.112
305.139
305.177
305.229
305.299
305.392
305.511
305.661
305.843
306.054
306.292
306.551
306.836
307.187
307.689
308.421
309.36
300.559
301.605
302.475
303.11
303.631
304.112
304.503
304.776
304.944
305.037
305.083
305.103
305.111
305.114
305.116
305.12
305.127
305.139
305.157
305.184
305.222
305.275
305.345
305.439
305.559
305.708
305.89
306.101
306.337
306.594
306.878
307.228
307.731
308.462
309.401
300.569
301.633
302.516
303.163
303.695
304.185
304.579
304.85
305.015
305.104
305.144
305.16
305.164
305.164
305.165
305.167
305.173
305.184
305.202
305.229
305.267
305.32
305.391
305.484
305.604
305.754
305.935
306.144
306.379
306.634
306.918
307.267
307.769
308.5
309.439
300.579
301.661
302.559
303.218
303.761
304.26
304.657
304.928
305.089
305.171
305.207
305.218
305.219
305.216
305.214
305.215
305.22
305.23
305.248
305.274
305.313
305.366
305.438
305.532
305.653
305.802
305.983
306.191
306.424
306.678
306.961
307.31
307.812
308.543
309.482
300.59
301.691
302.603
303.274
303.829
304.337
304.738
305.007
305.164
305.241
305.271
305.278
305.274
305.269
305.265
305.264
305.267
305.277
305.294
305.32
305.358
305.412
305.484
305.578
305.699
305.849
306.028
306.236
306.467
306.72
307.001
307.349
307.851
308.582
309.521
300.6
301.721
302.649
303.333
303.9
304.417
304.821
305.09
305.242
305.313
305.338
305.339
305.331
305.323
305.316
305.314
305.316
305.324
305.341
305.367
305.405
305.459