/*--------------------------------*- C++ -*----------------------------------*\
| =========                 |                                                 |
| \\      /  F ield         | OpenFOAM: The Open Source CFD Toolbox           |
|  \\    /   O peration     | Version:  v2006                                 |
|   \\  /    A nd           | Website:  www.openfoam.com                      |
|    \\/     M anipulation  |                                                 |
\*---------------------------------------------------------------------------*/
FoamFile
{
    version     2.0;
    format      ascii;
    class       volScalarField;
    location    "27";
    object      nut;
}
// * * * * * * * * * * * * * * * * * * * * * * * * * * * * * * * * * * * * * //

dimensions      [0 2 -1 0 0 0 0];


internalField   nonuniform List<scalar> 
78750
(
0.000412017
0.000904393
0.000604692
0.000175451
1.19099e-06
2.36438e-05
2.00862e-05
1.82796e-05
2.7289e-05
1.92225e-05
2.89111e-05
2.72868e-05
3.19259e-05
3.66889e-05
4.18845e-05
4.7752e-05
5.29513e-05
5.33689e-05
5.24151e-05
5.14147e-05
5.0421e-05
4.94759e-05
4.85927e-05
4.77574e-05
4.69397e-05
4.61086e-05
4.5241e-05
4.43072e-05
4.32578e-05
4.20106e-05
4.04893e-05
3.85931e-05
2.9192e-05
7.00117e-06
2.89922e-07
9.47027e-06
7.42514e-05
1.43195e-05
2.85473e-05
3.7605e-05
2.91472e-05
2.89797e-05
3.19524e-05
3.09549e-05
3.39621e-05
3.58857e-05
3.99165e-05
4.5806e-05
5.44388e-05
6.70724e-05
8.40886e-05
0.000102755
0.000114296
0.000111582
0.000101236
9.44385e-05
9.49978e-05
0.00010068
0.000107561
0.000111842
0.000109226
0.000103152
9.77947e-05
9.28575e-05
8.71306e-05
7.8891e-05
6.05827e-05
2.50292e-05
6.54735e-06
1.40854e-06
1.85206e-07
1.04993e-05
1.6782e-05
2.47501e-05
2.81025e-05
3.82302e-05
3.78163e-05
3.24133e-05
2.87309e-05
2.59154e-05
2.40199e-05
2.26156e-05
2.16771e-05
2.12194e-05
2.13417e-05
2.20957e-05
2.34719e-05
2.57686e-05
3.04786e-05
4.08057e-05
6.18915e-05
9.65681e-05
0.000124361
8.70829e-05
6.31222e-05
6.26894e-05
6.79336e-05
7.13307e-05
7.38966e-05
7.36703e-05
6.62217e-05
4.45701e-05
1.78628e-05
8.26832e-06
2.80159e-06
1.22197e-06
9.24649e-06
1.67359e-05
2.51173e-05
3.72003e-05
4.93589e-05
5.80108e-05
6.14188e-05
6.02489e-05
5.67152e-05
5.26183e-05
4.90847e-05
4.68039e-05
4.72537e-05
5.26472e-05
6.06497e-05
7.01832e-05
8.4234e-05
0.000105803
0.000102136
6.18688e-05
3.80988e-05
2.69678e-05
2.05478e-05
2.22648e-05
4.08905e-05
5.78615e-05
4.50222e-05
4.86327e-05
6.41039e-05
7.64087e-05
6.06067e-05
1.97222e-05
8.81111e-06
3.78635e-06
4.30441e-06
2.28239e-05
4.14097e-05
4.79594e-05
4.85885e-05
4.93987e-05
4.96808e-05
4.56703e-05
3.70599e-05
2.75666e-05
2.04089e-05
1.72743e-05
2.1181e-05
4.59803e-05
0.000100488
5.61069e-05
3.59048e-05
3.76227e-05
7.64678e-05
9.17136e-05
9.29125e-05
9.94699e-05
9.38165e-05
7.3598e-05
5.75927e-05
5.21635e-05
5.42166e-05
6.20703e-05
7.21746e-05
7.32449e-05
5.42821e-05
2.84806e-05
1.401e-05
1.27556e-05
5.41307e-06
1.21506e-06
2.47958e-05
2.24123e-05
3.44391e-05
6.1693e-05
8.01134e-05
7.45839e-05
6.36771e-05
5.40542e-05
4.49556e-05
3.64033e-05
2.94785e-05
2.50439e-05
2.34693e-05
2.4524e-05
2.68241e-05
2.88981e-05
3.16503e-05
3.63186e-05
4.09802e-05
4.2756e-05
4.42189e-05
4.71487e-05
5.03635e-05
5.31577e-05
5.59373e-05
5.87672e-05
6.02853e-05
5.807e-05
4.94934e-05
3.4536e-05
1.92633e-05
1.13646e-05
1.3845e-05
5.95436e-06
3.70175e-07
7.18451e-06
1.20684e-05
1.97375e-05
3.11943e-05
4.45015e-05
5.24145e-05
5.17584e-05
4.64153e-05
4.02051e-05
3.46741e-05
3.05208e-05
2.85814e-05
2.89372e-05
2.99824e-05
2.96e-05
2.7284e-05
2.42544e-05
2.15691e-05
2.10675e-05
2.6739e-05
4.31142e-05
4.14597e-05
3.62076e-05
4.04833e-05
4.85949e-05
5.59367e-05
6.02229e-05
6.01952e-05
5.21226e-05
3.44989e-05
1.74904e-05
1.07184e-05
1.56268e-05
6.60891e-06
2.67359e-06
1.03137e-05
2.52983e-05
5.24463e-05
5.63173e-05
3.41991e-05
2.36023e-05
1.97808e-05
1.82857e-05
1.72907e-05
1.62362e-05
1.60497e-05
1.9733e-05
3.14722e-05
5.56811e-05
8.56077e-05
0.000107474
0.000127031
0.000109339
5.86628e-05
3.1171e-05
2.07315e-05
2.00461e-05
3.57199e-05
0.000107167
7.06768e-05
5.7769e-05
6.85413e-05
7.99942e-05
7.03661e-05
4.09603e-05
1.74879e-05
1.06745e-05
1.75258e-05
7.59211e-06
5.7054e-06
3.0677e-05
7.70972e-05
4.18414e-05
2.02319e-05
1.28758e-05
1.79446e-05
3.65028e-05
5.42577e-05
4.8583e-05
3.81463e-05
3.0365e-05
2.52793e-05
2.29058e-05
2.15228e-05
1.85479e-05
2.08813e-05
3.65801e-05
4.94813e-05
5.64079e-05
6.80353e-05
8.7345e-05
9.51489e-05
8.42464e-05
8.11605e-05
8.59987e-05
9.15793e-05
8.90134e-05
7.44061e-05
5.24944e-05
3.00231e-05
1.48237e-05
1.08062e-05
2.35608e-05
8.45608e-06
5.78116e-06
3.06411e-05
5.9102e-05
4.62646e-05
2.43624e-05
1.06998e-05
9.64307e-06
1.72144e-05
3.21785e-05
3.66984e-05
2.74319e-05
1.74508e-05
1.11378e-05
9.15151e-06
1.47687e-05
3.74106e-05
5.12487e-05
5.45754e-05
5.77658e-05
5.90005e-05
5.95749e-05
6.02173e-05
6.0735e-05
6.08799e-05
6.08058e-05
6.06174e-05
5.95983e-05
5.60697e-05
4.85086e-05
3.68384e-05
2.35623e-05
1.39672e-05
1.25267e-05
3.18595e-05
9.02085e-06
6.1069e-06
3.78582e-05
7.21216e-05
4.25905e-05
2.07893e-05
8.98604e-06
3.60857e-06
2.25311e-06
1.48185e-05
4.06452e-05
6.53615e-05
6.1197e-05
3.25982e-05
1.91288e-05
1.66954e-05
2.26638e-05
3.57893e-05
4.8848e-05
5.85311e-05
6.66586e-05
7.32428e-05
7.66527e-05
7.59591e-05
7.16906e-05
6.52862e-05
5.8607e-05
5.29114e-05
4.8032e-05
4.23173e-05
3.3427e-05
2.14707e-05
1.23886e-05
1.20208e-05
3.68456e-05
9.26215e-06
5.35895e-06
3.87593e-05
7.58168e-05
8.90833e-05
9.02761e-05
5.87402e-05
2.77537e-05
1.44853e-05
7.86234e-06
5.89054e-06
7.13174e-06
1.23749e-05
2.24211e-05
3.16247e-05
3.27988e-05
3.2148e-05
3.53034e-05
4.1602e-05
4.86056e-05
5.50274e-05
6.02503e-05
6.3581e-05
6.42269e-05
6.16817e-05
5.63789e-05
4.97412e-05
4.32103e-05
3.72655e-05
3.13163e-05
2.46565e-05
1.77945e-05
1.3079e-05
1.56762e-05
5.42536e-05
9.38778e-06
4.27312e-06
2.23508e-05
6.83141e-05
9.03773e-05
8.40206e-05
7.05615e-05
5.94101e-05
4.86497e-05
3.71914e-05
2.69816e-05
1.9627e-05
1.53671e-05
1.41245e-05
1.58456e-05
2.01712e-05
2.63979e-05
3.35957e-05
4.10329e-05
4.85266e-05
5.59077e-05
6.26159e-05
6.76229e-05
6.95197e-05
6.72841e-05
6.12744e-05
5.31806e-05
4.49947e-05
3.77954e-05
3.12575e-05
2.40868e-05
1.61244e-05
1.11059e-05
1.50147e-05
6.16359e-05
9.32387e-06
5.44894e-06
3.22897e-05
7.6522e-05
8.52683e-05
9.00401e-05
9.65517e-05
9.98165e-05
9.23308e-05
7.34246e-05
5.26088e-05
3.62593e-05
2.49104e-05
1.73473e-05
1.30607e-05
1.27585e-05
1.79953e-05
2.86764e-05
4.17698e-05
5.43163e-05
6.48805e-05
7.26217e-05
7.65873e-05
7.60155e-05
7.10159e-05
6.27115e-05
5.27733e-05
4.27009e-05
3.34444e-05
2.54612e-05
1.89835e-05
1.44312e-05
1.27942e-05
2.01953e-05
8.34633e-05
9.45147e-06
4.67641e-06
2.36304e-05
6.54061e-05
8.4768e-05
8.61314e-05
8.41618e-05
8.6205e-05
9.30011e-05
9.83352e-05
9.1047e-05
6.79578e-05
4.45495e-05
2.92149e-05
1.96017e-05
1.3394e-05
1.02651e-05
1.14278e-05
1.85585e-05
3.14255e-05
4.66961e-05
5.99898e-05
6.83961e-05
7.09643e-05
6.8218e-05
6.17093e-05
5.33319e-05
4.46008e-05
3.63647e-05
2.85408e-05
2.02234e-05
1.26234e-05
1.00871e-05
1.87256e-05
8.91538e-05
9.49391e-06
5.44922e-06
3.20756e-05
8.03937e-05
8.35196e-05
7.69535e-05
7.2232e-05
7.19581e-05
7.60828e-05
8.31597e-05
8.95409e-05
8.83697e-05
7.34375e-05
5.17328e-05
3.48107e-05
2.35686e-05
1.58812e-05
1.1248e-05
1.03778e-05
1.45575e-05
2.40525e-05
3.6067e-05
4.61822e-05
5.16194e-05
5.21924e-05
4.89926e-05
4.32767e-05
3.60435e-05
2.82262e-05
2.10673e-05
1.58181e-05
1.2901e-05
1.30015e-05
2.47216e-05
9.88999e-05
9.71273e-06
5.51312e-06
3.40055e-05
8.28162e-05
9.33182e-05
9.49307e-05
9.57564e-05
9.65394e-05
9.63799e-05
9.48881e-05
9.21124e-05
8.75037e-05
7.95884e-05
6.72743e-05
5.27855e-05
3.94846e-05
2.79846e-05
1.83603e-05
1.1553e-05
8.43182e-06
9.96349e-06
1.63938e-05
2.5742e-05
3.42764e-05
3.93989e-05
4.08078e-05
3.93974e-05
3.60935e-05
3.12864e-05
2.46157e-05
1.63281e-05
1.00767e-05
9.75432e-06
2.23524e-05
0.000100682
9.85023e-06
5.47669e-06
3.43621e-05
8.72131e-05
8.98077e-05
8.26653e-05
8.11058e-05
8.73765e-05
9.87528e-05
0.000110463
0.000117761
0.000117544
0.000108717
9.26262e-05
7.35431e-05
5.63142e-05
4.1997e-05
2.8995e-05
1.76719e-05
9.90207e-06
6.60444e-06
7.9365e-06
1.36009e-05
2.1326e-05
2.76093e-05
3.05272e-05
3.01172e-05
2.70242e-05
2.21528e-05
1.70735e-05
1.35134e-05
1.20564e-05
1.36635e-05
2.93558e-05
0.000100802
1.00916e-05
5.88296e-06
4.26955e-05
9.30918e-05
9.12615e-05
8.49263e-05
8.43967e-05
9.04157e-05
0.000100534
0.000111867
0.000122084
0.000128953
0.00012973
0.000121271
0.000102404
7.83853e-05
5.70642e-05
4.00435e-05
2.55956e-05
1.42949e-05
7.65705e-06
5.56937e-06
7.63036e-06
1.29897e-05
1.9457e-05
2.46359e-05
2.74823e-05
2.79096e-05
2.55122e-05
1.95828e-05
1.21937e-05
8.41703e-06
1.0578e-05
2.77426e-05
0.00010134
1.02681e-05
5.95499e-06
4.49258e-05
9.49264e-05
9.14117e-05
8.49369e-05
8.66356e-05
9.62609e-05
0.00010951
0.000122155
0.000132117
0.000138808
0.000141574
0.00013872
0.000127426
0.0001058
7.85359e-05
5.36467e-05
3.35257e-05
1.83756e-05
9.16262e-06
5.40962e-06
5.75061e-06
9.0679e-06
1.37646e-05
1.78394e-05
1.99047e-05
1.95447e-05
1.72347e-05
1.42915e-05
1.21182e-05
1.13076e-05
1.44463e-05
3.45627e-05
9.75405e-05
1.04548e-05
6.08652e-06
5.01317e-05
9.76506e-05
8.8234e-05
7.9366e-05
8.18725e-05
9.49832e-05
0.000113497
0.000131596
0.000146187
0.000156413
0.000162098
0.000162713
0.000156592
0.000141002
0.000114398
8.23217e-05
5.33327e-05
3.04237e-05
1.50221e-05
7.67927e-06
6.20463e-06
8.12482e-06
1.18981e-05
1.62149e-05
1.98442e-05
2.15759e-05
1.99916e-05
1.47824e-05
9.47685e-06
7.78224e-06
1.16099e-05
3.28834e-05
9.8014e-05
1.06666e-05
6.34261e-06
5.53162e-05
9.93736e-05
8.93576e-05
8.18492e-05
8.57525e-05
9.96376e-05
0.000118381
0.000136954
0.000152902
0.000165495
0.000174335
0.000178906
0.000178242
0.00017015
0.000151347
0.000120567
8.45607e-05
5.25772e-05
2.80815e-05
1.29033e-05
7.23847e-06
7.48444e-06
1.00085e-05
1.28694e-05
1.49168e-05
1.54111e-05
1.42972e-05
1.24007e-05
1.09429e-05
1.11033e-05
1.59454e-05
4.15198e-05
9.27595e-05
1.08466e-05
6.3825e-06
5.90858e-05
9.83945e-05
8.69881e-05
8.10542e-05
8.79095e-05
0.000104965
0.000126167
0.000146504
0.000164208
0.000179089
0.000191119
0.000200001
0.000205176
0.000205608
0.000198812
0.000180325
0.000146368
0.000102962
6.30903e-05
3.25106e-05
1.36512e-05
7.40654e-06
8.53354e-06
1.18116e-05
1.5015e-05
1.6769e-05
1.55446e-05
1.13671e-05
7.65952e-06
7.69058e-06
1.39824e-05
4.18954e-05
9.06428e-05
1.09646e-05
6.57083e-06
6.38473e-05
0.000102281
9.06599e-05
8.52329e-05
9.22473e-05
0.000108574
0.000128526
0.000148047
0.000165766
0.000181531
0.000195353
0.000207083
0.000216306
0.000222364
0.000224117
0.000218822
0.000201019
0.000164669
0.000114687
6.7309e-05
3.13901e-05
1.03085e-05
5.06282e-06
7.2048e-06
1.015e-05
1.19279e-05
1.21904e-05
1.15136e-05
1.05671e-05
1.00553e-05
1.58614e-05
4.48849e-05
8.96078e-05
1.1066e-05
6.56751e-06
6.73062e-05
0.000108079
9.79126e-05
9.30113e-05
9.95056e-05
0.000114161
0.00013197
0.000149762
0.000166505
0.000182068
0.00019647
0.000209648
0.00022144
0.000231498
0.000239281
0.000243784
0.000242265
0.00022833
0.000191989
0.000132836
7.23282e-05
2.84178e-05
6.25421e-06
3.79808e-06
7.75314e-06
1.08883e-05
1.08379e-05
8.30535e-06
6.90813e-06
8.33505e-06
1.51342e-05
4.61089e-05
8.86077e-05
1.13138e-05
6.52755e-06
6.43582e-05
0.000115762
0.000107974
9.88496e-05
9.8286e-05
0.000105944
0.000118686
0.000133736
0.000149471
0.000165072
0.000180088
0.000194224
0.000207232
0.000218812
0.000228505
0.00023568
0.000239206
0.000236343
0.00022115
0.000183393
0.000121386
5.81894e-05
1.5893e-05
5.28285e-07
2.36037e-06
6.2909e-06
8.98139e-06
9.74263e-06
8.92025e-06
1.04055e-05
1.90718e-05
5.67872e-05
8.48052e-05
1.13377e-05
6.28008e-06
5.32983e-05
0.000109214
0.000110485
0.000102363
9.58569e-05
9.47981e-05
9.92509e-05
0.000108067
0.00012012
0.000134495
0.000150395
0.000167096
0.000183969
0.000200499
0.000216219
0.000230539
0.000242024
0.00024372
0.000234612
0.000222804
0.000207834
0.000139732
5.6951e-05
1.022e-05
4.18652e-06
2.00428e-06
4.61864e-06
5.69247e-06
5.7018e-06
6.76865e-06
1.51135e-05
4.84406e-05
8.58951e-05
1.13142e-05
5.98209e-06
4.17611e-05
9.02553e-05
9.88416e-05
9.71085e-05
9.24478e-05
8.80391e-05
8.5917e-05
8.69369e-05
9.12753e-05
9.89459e-05
0.000109938
0.000124108
0.000141052
0.000160093
0.000180385
0.00020096
0.000220571
0.000236377
0.000233326
0.000223805
0.000211272
0.000195878
0.000111151
3.24943e-05
3.28026e-06
4.65126e-08
3.79946e-06
7.19363e-06
9.42468e-06
9.16386e-06
1.49763e-05
4.69408e-05
9.25576e-05
1.16913e-05
5.72544e-06
3.46551e-05
7.7547e-05
9.17774e-05
9.61031e-05
9.67025e-05
9.49693e-05
9.19066e-05
8.86586e-05
8.63214e-05
8.57645e-05
8.77104e-05
9.28644e-05
0.00010195
0.000115593
0.000134055
0.000156934
0.000183015
0.000209847
0.000229066
0.000222229
0.000212663
0.000199802
0.000183947
0.000123883
2.16439e-05
4.94764e-06
8.96031e-07
2.10088e-06
5.26911e-06
1.12061e-05
2.30174e-05
6.82734e-05
8.1137e-05
1.18245e-05
5.62085e-06
3.26594e-05
7.98493e-05
0.000100998
0.000109953
0.000114793
0.000117119
0.000117151
0.000114823
0.0001104
0.000104666
9.87514e-05
9.38783e-05
9.12384e-05
9.20009e-05
9.73504e-05
0.000108354
0.000125294
0.000146562
0.000168451
0.00018652
0.000196746
0.000194377
0.000177283
0.000126004
4.18849e-05
7.14965e-07
5.27308e-08
2.72417e-06
5.56558e-06
9.60648e-06
2.3496e-05
8.08921e-05
7.47471e-05
1.17028e-05
5.7786e-06
3.61975e-05
0.000100019
0.000128697
0.000138471
0.000144161
0.000149818
0.000155728
0.000160047
0.000160543
0.000156042
0.000146879
0.000134605
0.000121388
0.000109438
0.000100628
9.65835e-05
9.89219e-05
0.00010923
0.000128075
0.0001522
0.000172394
0.000178441
0.000170133
0.000151038
9.6846e-05
1.5523e-05
1.69423e-06
4.61269e-08
4.73039e-06
8.19436e-06
2.00092e-05
6.8023e-05
7.91903e-05
1.15948e-05
6.2918e-06
4.36193e-05
0.000129792
0.000158892
0.000157316
0.000151351
0.000151973
0.000162266
0.000180081
0.000199942
0.000215352
0.000221364
0.00021583
0.000199484
0.000175772
0.000149885
0.000126681
0.000109466
9.99778e-05
9.92685e-05
0.000107759
0.000122421
0.000132237
0.000125287
0.000103472
7.12297e-05
2.64733e-05
3.89169e-06
1.01351e-06
3.01546e-06
1.16349e-05
2.68265e-05
7.74758e-05
7.60447e-05
1.2185e-05
6.77542e-06
4.35318e-05
0.000122486
0.000143396
0.000134027
0.000119862
0.000113332
0.000119027
0.000137172
0.000165882
0.000200726
0.000234908
0.0002614
0.000274719
0.00027117
0.000249466
0.000213243
0.000172209
0.000136616
0.00011131
9.62402e-05
8.88015e-05
8.43166e-05
7.65832e-05
6.31401e-05
4.72979e-05
2.67864e-05
2.51027e-06
1.876e-06
8.8199e-07
7.20686e-06
2.91162e-05
0.000126565
5.99425e-05
1.20208e-05
6.92755e-06
3.71832e-05
9.74948e-05
0.000112068
0.000104653
9.32074e-05
8.60483e-05
8.7606e-05
9.92445e-05
0.000121245
0.000152968
0.000191815
0.000232727
0.000269184
0.000295086
0.000306057
0.000299215
0.0002729
0.000229371
0.00017946
0.000136982
0.000107217
8.7506e-05
7.31049e-05
5.97365e-05
4.5825e-05
3.63071e-05
2.9705e-05
1.13413e-05
2.62651e-06
8.91235e-07
8.10196e-06
2.47126e-05
9.27515e-05
1.0146e-05
6.82276e-06
3.31829e-05
8.84702e-05
0.00010401
9.89858e-05
8.89387e-05
8.11116e-05
7.9873e-05
8.69138e-05
0.000103007
0.000128927
0.000165116
0.000210314
0.000259819
0.00030558
0.000339287
0.000357206
0.000360821
0.000348661
0.000312194
0.000252703
0.000190341
0.000141676
0.000107433
8.08627e-05
6.06302e-05
5.78229e-05
3.3847e-05
3.09341e-06
1.54904e-06
2.44639e-07
2.98581e-06
1.58385e-05
8.76894e-05
1.19467e-05
6.72234e-06
3.27943e-05
9.31203e-05
0.000113726
0.00011003
9.9124e-05
8.95076e-05
8.59402e-05
8.98412e-05
0.000101861
0.000123422
0.00015731
0.000207459
0.000276423
0.000356608
0.000367766
0.000368213
0.000366343
0.000361671
0.000353642
0.000341616
0.000325116
0.000223801
0.000143141
9.5595e-05
3.75961e-05
4.42949e-07
5.53027e-06
1.38696e-05
1.03171e-05
2.83661e-06
1.32032e-05
7.05718e-05
9.26202e-05
1.41336e-05
6.71138e-06
3.34237e-05
0.000100378
0.000124085
0.000118687
0.000105315
9.47235e-05
9.12426e-05
9.4492e-05
0.000103506
0.000118836
0.00014282
0.000179168
0.000232424
0.000305118
0.000365332
0.000366439
0.000365485
0.00036188
0.000354833
0.00034329
0.000250416
0.000156304
8.77308e-05
2.80244e-05
2.65599e-06
4.90065e-06
1.35066e-05
4.32465e-05
8.2001e-05
6.09636e-05
7.38536e-05
0.000118194
4.65972e-05
1.26494e-05
6.84935e-06
3.39758e-05
0.000105383
0.000129001
0.000119769
0.000103473
9.25598e-05
9.1061e-05
9.71261e-05
0.000106998
0.000118014
0.000130379
0.000146512
0.000168997
0.000198072
0.000229254
0.000254107
0.000264798
0.000258552
0.000238184
0.000208942
0.000175293
0.000138623
9.95225e-05
6.14183e-05
2.5968e-05
6.09732e-06
5.76441e-06
1.43146e-05
2.90185e-05
5.08612e-05
0.000104998
0.000104545
4.04656e-05
1.05725e-05
7.36395e-06
3.92416e-05
0.000120394
0.000139251
0.000127049
0.000109229
9.73288e-05
9.59999e-05
0.00010424
0.000117703
0.00013079
0.000140068
0.000146126
0.00015217
0.000161223
0.00017392
0.000187686
0.000197761
0.000200135
0.000194013
0.00018132
0.000164805
0.000146614
0.000126836
0.000104418
8.0568e-05
5.84825e-05
3.92966e-05
2.45354e-05
1.57156e-05
1.45845e-05
2.77052e-05
7.24796e-05
7.27446e-05
8.51622e-06
8.10844e-06
5.25534e-05
0.000140912
0.0001533
0.000144696
0.000130404
0.00011814
0.000114066
0.000119911
0.000133155
0.000148611
0.000160974
0.00016762
0.000169817
0.000171504
0.000176264
0.000184668
0.000193713
0.00019885
0.000197322
0.000189448
0.000177185
0.000162068
0.00014431
0.000123778
0.000104278
9.5353e-05
0.000103239
8.50219e-05
3.57046e-05
2.75199e-05
2.5257e-05
5.48544e-06
2.16926e-06
9.22115e-06
8.49155e-06
6.61176e-05
0.000151085
0.000167409
0.000169476
0.000163433
0.000151165
0.000139196
0.0001349
0.000140778
0.000154708
0.000171948
0.000187082
0.000196636
0.000201625
0.000207195
0.000218122
0.000233843
0.000247822
0.00025312
0.000247961
0.000233843
0.00021216
0.000186158
0.000168552
0.000175751
9.59482e-05
3.2058e-05
2.5258e-05
2.97524e-05
2.8205e-05
1.55891e-05
9.0098e-06
2.9534e-05
1.33226e-05
7.98099e-06
6.11098e-05
0.00014802
0.0001759
0.000187386
0.00018939
0.0001819
0.000166765
0.000151749
0.000145318
0.000150498
0.000165962
0.000187948
0.000210962
0.000229977
0.000244959
0.000262634
0.000289754
0.000322487
0.000346462
0.000352563
0.000342445
0.000322588
0.000296803
0.000242811
8.09834e-05
2.12407e-05
1.93063e-05
3.05987e-05
2.88478e-05
2.25432e-05
2.70839e-05
5.38319e-05
0.000132667
1.45233e-05
7.0322e-06
5.08335e-05
0.000143332
0.000179242
0.000193949
0.000200708
0.000202652
0.000199052
0.000188331
0.000174081
0.00016489
0.000167029
0.000182354
0.000209983
0.000247438
0.000294164
0.000353513
0.000394962
0.000389444
0.000381525
0.000370779
0.000356779
0.00033954
0.000237502
6.26267e-05
1.52619e-05
1.23377e-05
2.68434e-05
4.71051e-05
4.31156e-05
4.47968e-05
7.71774e-05
0.000146086
6.59222e-05
1.33097e-05
6.64511e-06
4.93939e-05
0.000150655
0.000182118
0.000187154
0.000190534
0.000198323
0.000209312
0.000217974
0.000217221
0.000204669
0.000188245
0.000179712
0.000185988
0.000209609
0.000249546
0.000297545
0.00033628
0.000347051
0.000320662
0.000262911
0.000186339
0.0001006
3.39909e-05
8.6935e-06
8.27101e-06
2.58628e-05
7.64071e-05
0.000118962
0.000104981
0.000110395
0.000129758
8.83037e-05
3.21614e-05
9.43413e-06
7.82707e-06
6.42445e-05
0.00017152
0.000175186
0.000164174
0.000165672
0.000176918
0.000194565
0.000216378
0.000237983
0.000251539
0.000248251
0.000225623
0.000195276
0.00017333
0.000166322
0.000172221
0.000183381
0.000188807
0.000181903
0.00016416
0.00013778
0.000102386
6.11221e-05
2.72724e-05
1.19021e-05
1.3712e-05
3.1916e-05
6.62035e-05
9.22082e-05
0.000103694
9.28911e-05
5.86391e-05
2.72775e-05
5.3038e-06
9.91589e-06
9.89089e-05
0.000165918
0.000129303
0.000125265
0.000147352
0.000177167
0.00020477
0.000228566
0.000250628
0.000272097
0.00029085
0.000301211
0.000295236
0.000268163
0.000227885
0.000191366
0.000168301
0.000157989
0.00015444
0.000149951
0.000139041
0.000123012
0.00010834
9.64564e-05
8.03977e-05
6.0008e-05
4.64136e-05
3.90059e-05
3.77801e-05
5.54241e-05
9.07239e-05
5.56632e-05
3.14881e-05
2.37005e-06
9.91012e-06
8.73062e-05
9.91549e-05
6.25182e-05
7.79523e-05
0.000131264
0.000199523
0.000256488
0.00029574
0.000321491
0.000338326
0.000348872
0.000353959
0.000352607
0.000342082
0.000319151
0.00028446
0.000246207
0.00021412
0.000191442
0.000177875
0.000177362
0.00019376
0.000210749
0.00019013
0.00013865
0.000102317
9.1543e-05
9.54936e-05
0.000111839
0.000165654
0.000227881
0.00013791
4.64977e-05
5.86278e-06
7.06969e-06
2.51375e-05
4.2195e-05
1.78106e-05
3.43176e-05
9.75619e-05
0.000213673
0.000323833
0.000397912
0.000444102
0.000471555
0.000485553
0.000489129
0.000482495
0.000463538
0.000427789
0.000374364
0.000320626
0.000292347
0.00029353
0.000286394
0.000198164
0.00012279
0.000117595
0.000158199
0.000204345
0.000221315
0.00021445
0.000191815
0.000160325
0.000125046
9.04843e-05
7.11094e-05
6.45917e-05
1.29345e-05
5.75418e-06
1.68576e-05
4.00247e-05
2.31368e-06
6.15926e-06
3.74434e-05
0.000126147
0.00025099
0.000369904
0.000454037
0.000466747
0.000475854
0.000481327
0.000483173
0.000481382
0.000476007
0.00041885
0.000330819
0.000245972
0.000145091
8.75656e-05
9.43025e-05
0.000173237
0.000318354
0.000359367
0.000306839
0.000223883
0.000157501
0.000119528
0.000102265
9.63562e-05
0.000100709
0.000125146
0.0001586
1.43854e-05
8.34761e-06
3.81049e-05
7.04964e-05
1.27743e-05
3.8745e-07
1.23383e-05
6.50181e-05
0.00014207
0.00021573
0.000280443
0.000337968
0.000387076
0.000422231
0.000436639
0.000424771
0.000386903
0.000333068
0.000274992
0.000213846
0.000147037
9.37286e-05
7.68823e-05
9.66886e-05
0.00015329
0.000224692
0.000257976
0.000234945
0.000186053
0.000145074
0.000124408
0.00012403
0.000142902
0.000167571
8.11161e-05
1.21929e-05
9.65237e-06
0.000103507
7.27411e-05
4.14652e-05
1.45746e-05
1.35084e-05
3.50807e-05
7.81293e-05
0.000131234
0.000178138
0.000216123
0.00024478
0.000265857
0.000283906
0.000301608
0.000315593
0.000316879
0.000297314
0.000257498
0.000206331
0.000154802
0.000114037
9.24881e-05
8.83264e-05
9.43775e-05
0.000107021
0.000127388
0.00015331
0.000170763
0.000173102
0.000172838
0.000175384
0.000151781
5.26447e-05
9.39611e-06
6.80566e-06
3.34347e-05
8.90845e-05
9.26142e-05
5.37646e-05
1.7403e-05
1.09742e-05
2.46625e-05
6.9352e-05
0.000135275
0.000186123
0.000213906
0.000222561
0.000221243
0.000222706
0.000234499
0.000254637
0.000273775
0.000281356
0.000271097
0.000243121
0.000204181
0.000164157
0.000130298
0.000104596
8.67134e-05
7.73048e-05
7.85316e-05
9.39391e-05
0.000123047
0.00014934
0.000154984
0.000122253
4.31401e-05
8.27482e-06
6.40843e-06
2.8763e-05
8.87694e-05
0.000127128
8.60962e-05
2.4881e-05
4.36948e-06
3.3434e-06
2.21895e-05
7.82487e-05
0.000155371
0.000206437
0.00021713
0.000199601
0.000179537
0.000178236
0.000206215
0.000263513
0.00032965
0.000370298
0.000368669
0.000331694
0.000277561
0.00022221
0.000173371
0.000132878
0.000101278
8.03171e-05
7.30837e-05
8.35085e-05
0.00011078
0.000130511
0.000112476
4.10576e-05
8.44633e-06
8.97161e-06
7.91829e-05
0.00012919
0.000125128
0.000118036
8.23935e-05
2.39764e-05
6.042e-06
1.11006e-05
4.29528e-05
0.000102434
0.000149441
0.000165064
0.00015631
0.000139677
0.000132796
0.00014967
0.000205326
0.000307662
0.000411278
0.000451942
0.000432677
0.000381345
0.000318632
0.00025673
0.000201648
0.000155652
0.000119961
9.65544e-05
8.77592e-05
9.46068e-05
0.000112937
0.000120162
5.03763e-05
9.77407e-06
8.23513e-06
6.41757e-05
0.000144762
0.000167804
0.000179618
0.000187583
0.000145749
4.65515e-05
1.39688e-05
8.38594e-06
2.4413e-05
6.9083e-05
0.000109395
0.000127902
0.000128419
0.000120797
0.000119402
0.000136443
0.000184116
0.000272983
0.00037909
0.000439235
0.000435918
0.000391642
0.000327967
0.00026023
0.000199155
0.000150723
0.000116965
9.81999e-05
9.536e-05
0.000110709
0.000133939
6.72242e-05
1.09803e-05
7.15072e-06
3.69064e-05
0.00012352
0.000117732
9.22551e-05
0.000100222
0.000146417
0.000191235
8.71117e-05
2.31486e-05
6.86897e-06
1.24359e-05
4.97543e-05
9.79615e-05
0.000122779
0.000128991
0.00012473
0.000121926
0.000130127
0.000154817
0.000200233
0.000265988
0.000332771
0.000366143
0.000353003
0.000304896
0.000240799
0.000180005
0.000135327
0.000110884
0.000107772
0.000127371
0.000153559
7.75811e-05
1.12334e-05
8.57748e-06
5.61944e-05
0.000152436
0.000141375
9.81227e-05
8.63619e-05
0.00010496
0.00015424
0.000206031
0.000129559
3.98443e-05
1.35935e-05
1.17341e-05
3.55591e-05
8.38031e-05
0.000114359
0.000125451
0.000126646
0.000125333
0.00012784
0.000137509
0.000155573
0.000182917
0.000219289
0.000256663
0.000275632
0.000262021
0.000222733
0.000178213
0.000147478
0.000140032
0.00015698
0.000175782
8.26524e-05
1.09241e-05
8.58513e-06
4.64437e-05
0.000127486
0.000101953
7.16567e-05
7.58836e-05
9.84285e-05
0.000132735
0.000186741
0.000252937
0.000234687
9.12526e-05
3.30797e-05
1.65286e-05
2.22564e-05
5.77961e-05
0.000100522
0.000122126
0.00012928
0.000130533
0.000131099
0.00013314
0.000137287
0.000144586
0.000157016
0.000176082
0.000197845
0.000209751
0.000202997
0.000186599
0.000176871
0.00018077
0.000182574
8.45965e-05
1.07069e-05
9.01412e-06
4.0867e-05
0.000107858
6.19654e-05
3.95365e-05
5.21701e-05
9.17961e-05
0.000150812
0.000215064
0.000283392
0.000351879
0.000362299
0.000185552
6.29734e-05
2.72595e-05
2.39633e-05
4.95638e-05
9.41723e-05
0.000121739
0.000130216
0.000132268
0.000134464
0.000136963
0.000137731
0.000136763
0.000137099
0.000142857
0.000155924
0.000171801
0.000181862
0.000184733
0.000184445
0.000173999
8.03847e-05
1.07303e-05
9.43821e-06
5.3352e-05
0.000105112
4.6445e-05
3.45064e-05
5.75789e-05
0.000125167
0.000220559
0.000299728
0.00035284
0.000386295
0.00038912
0.000313605
0.000148639
5.6623e-05
2.99087e-05
3.77732e-05
7.94543e-05
0.000126089
0.000140834
0.000138187
0.000135261
0.000135935
0.0001373
0.000135501
0.000129944
0.00012434
0.000124498
0.000134585
0.000152807
0.000169695
0.000176685
0.000168388
8.0357e-05
1.11157e-05
8.11647e-06
3.91301e-05
0.000105122
4.63744e-05
2.61877e-05
4.38125e-05
0.000113282
0.000232275
0.000331341
0.00038973
0.000417742
0.000410267
0.000340939
0.000209068
9.27726e-05
4.67394e-05
4.153e-05
6.8602e-05
0.000105798
0.000123497
0.000126197
0.000128819
0.000136584
0.000145617
0.000148732
0.000142573
0.000130416
0.000119556
0.000117023
0.000125765
0.000141918
0.000156741
0.00016145
8.41947e-05
1.1796e-05
9.06961e-06
4.83927e-05
0.00011091
5.37264e-05
2.53096e-05
3.24221e-05
8.14337e-05
0.000191905
0.000313982
0.000402273
0.000454122
0.00046226
0.000399303
0.000258752
0.000123282
5.95269e-05
4.51834e-05
7.57682e-05
0.000119293
0.000126772
0.000119536
0.000119144
0.000131429
0.000151711
0.000166116
0.000163678
0.000146571
0.00012445
0.000107488
0.000102422
0.000111563
0.000132864
0.00015279
7.97332e-05
1.22681e-05
9.97363e-06
9.03653e-05
5.38679e-05
3.42119e-05
4.27124e-05
7.18627e-05
0.00013885
0.00023905
0.000318176
0.000371149
0.000406023
0.00041832
0.000390696
0.000307268
0.000190426
0.000101663
6.52744e-05
7.00609e-05
0.00010945
0.00012845
0.000118944
0.000110732
0.000115981
0.000135588
0.000160014
0.000170136
0.000156999
0.000129009
0.000101752
8.82036e-05
9.4765e-05
0.000122539
0.000149471
6.85675e-05
1.21219e-05
8.89594e-06
5.87292e-05
4.78567e-05
2.80603e-05
3.44288e-05
6.25268e-05
0.000123895
0.000198885
0.000260289
0.000305379
0.000338784
0.000360753
0.000364118
0.000335276
0.000265209
0.0001743
0.000107966
8.18519e-05
9.10719e-05
0.000119098
0.000127738
0.000118057
0.000112294
0.000119537
0.000138112
0.000155621
0.000154831
0.000133178
0.00010558
8.99736e-05
9.65852e-05
0.000127379
0.000149772
6.05812e-05
1.15892e-05
7.46682e-06
3.05615e-05
7.64179e-05
5.84503e-05
1.63326e-05
1.45448e-05
3.8827e-05
0.000105436
0.000202432
0.00028471
0.000339494
0.000366379
0.000358714
0.000310985
0.000235029
0.000162496
0.000117892
0.000105925
0.000125526
0.000156982
0.00016103
0.000141481
0.000122561
0.000115369
0.000120796
0.000133859
0.000142787
0.000136226
0.000118241
0.000105747
0.000112845
0.000141173
0.000153806
5.83189e-05
1.11646e-05
7.91504e-06
3.05434e-05
7.58837e-05
9.91023e-05
2.71023e-05
4.58723e-06
1.16515e-05
4.79107e-05
0.000133486
0.0002319
0.000287011
0.000298959
0.000284435
0.000255743
0.00022225
0.000193669
0.000179639
0.000186859
0.000209424
0.000220485
0.000203529
0.000171417
0.000140802
0.000120184
0.000111438
0.000112901
0.000120292
0.000126384
0.000126055
0.000124853
0.000134115
0.00015431
0.000153312
5.69723e-05
1.08852e-05
9.52951e-06
4.46616e-05
0.000121943
4.31401e-05
2.62828e-05
1.55563e-05
1.60987e-05
5.62567e-05
0.000150528
0.000243806
0.000297966
0.000320079
0.000321066
0.000308932
0.000291998
0.00027847
0.000273861
0.000276946
0.000277508
0.000264356
0.000236486
0.000200863
0.000165206
0.000135343
0.00011461
0.000103752
0.000101746
0.000106598
0.000115513
0.000126456
0.000140058
0.000153517
0.000144434
5.50521e-05
1.07301e-05
9.49858e-06
3.91222e-05
8.83071e-05
1.71542e-05
6.38273e-06
1.5656e-05
2.54584e-05
7.25298e-05
0.000203612
0.000309223
0.000358856
0.000377203
0.000380488
0.000375537
0.00036658
0.00035703
0.000348311
0.000338608
0.0003239
0.000301327
0.000271169
0.000236014
0.000199184
0.000164097
0.000134076
0.000111714
9.82441e-05
9.38653e-05
9.8538e-05
0.000111552
0.000129234
0.000143289
0.000135077
5.41351e-05
1.07243e-05
9.83538e-06
5.40451e-05
5.75257e-05
1.34442e-05
4.92601e-06
1.58381e-05
4.39571e-05
0.000101545
0.000229829
0.000322675
0.000371783
0.000396914
0.000410716
0.000417013
0.000416526
0.000410176
0.000399069
0.000383632
0.000363626
0.000338897
0.000309769
0.000277065
0.000241956
0.00020596
0.000171096
0.000139936
0.000115188
9.90369e-05
9.30624e-05
9.85308e-05
0.000114683
0.000133245
0.000133141
5.66191e-05
1.0892e-05
9.4944e-06
8.28971e-05
2.21168e-05
5.83107e-06
9.63468e-06
4.39895e-05
0.000133126
0.000213216
0.000269732
0.000311601
0.000344352
0.000371523
0.000393265
0.000407499
0.000413097
0.00041099
0.000402918
0.000390193
0.000373495
0.000353223
0.00032966
0.000303085
0.000273827
0.000242347
0.000209405
0.000176317
0.000145238
0.000119233
0.0001019
9.68121e-05
0.0001066
0.000127714
0.000137395
6.21485e-05
1.11621e-05
9.14103e-06
5.65111e-05
3.30135e-05