/*--------------------------------*- C++ -*----------------------------------*\
| =========                 |                                                 |
| \\      /  F ield         | OpenFOAM: The Open Source CFD Toolbox           |
|  \\    /   O peration     | Version:  v2006                                 |
|   \\  /    A nd           | Website:  www.openfoam.com                      |
|    \\/     M anipulation  |                                                 |
\*---------------------------------------------------------------------------*/
FoamFile
{
    version     2.0;
    format      ascii;
    class       volScalarField;
    location    "27";
    object      T;
}
// * * * * * * * * * * * * * * * * * * * * * * * * * * * * * * * * * * * * * //

dimensions      [0 0 0 1 0 0 0];


internalField   nonuniform List<scalar> 
78750
(
314.534
315.024
314.912
314.38
313.426
312.959
312.442
311.959
311.535
311.078
310.68
310.299
309.928
309.586
309.263
308.961
308.678
308.405
308.139
307.888
307.659
307.452
307.265
307.096
306.941
306.801
306.674
306.561
306.465
306.389
306.337
306.34
306.603
309.405
420.025
318.679
326.156
327.148
327.208
326.64
326.061
325.378
324.774
324.036
323.226
322.288
321.228
320.055
318.803
317.535
316.32
315.203
314.187
313.255
312.421
311.747
311.235
310.837
310.511
310.246
310.018
309.816
309.649
309.541
309.544
309.761
310.475
313.086
329.75
438.119
309.159
315.963
317.145
318.697
320.526
322.045
323.284
324.332
325.214
325.901
326.402
326.723
326.863
326.799
326.495
325.932
325.112
324.042
322.72
321.198
319.694
318.403
317.283
316.129
315.045
314.453
314.248
314.212
314.274
314.508
315.147
316.881
322.968
351.096
454.714
306.071
313.91
318.677
321.867
323.997
325.407
326.311
326.81
326.962
326.82
326.436
325.878
325.228
324.584
324.047
323.666
323.463
323.461
323.655
324.021
324.628
325.574
326.652
326.838
324.976
322.256
319.894
318.113
317.143
316.875
317.062
317.831
321.281
346.745
452.402
315.767
327.921
330.33
330.941
331.252
331.448
331.512
331.329
330.803
329.903
328.666
327.226
325.873
325.018
324.662
324.27
323.586
322.612
321.889
321.575
321.37
321.185
320.978
320.696
320.326
319.999
319.829
319.857
320.113
320.684
321.953
325.419
336.949
373.26
467.769
315.264
317.193
315.361
317.602
320.306
322.672
324.809
326.67
328.085
328.999
329.403
329.301
328.734
327.795
326.669
325.568
324.585
323.78
323.199
322.861
322.7
322.655
322.652
322.671
322.706
322.759
322.842
322.984
323.256
323.814
325.116
328.799
341.383
379.637
471.163
304.437
308.994
313.781
318.598
322.911
326.506
329.375
331.646
333.473
334.954
336.115
337.003
337.755
338.438
338.874
338.786
337.977
336.372
334.102
331.249
328.344
326.187
324.905
324.422
324.496
324.768
325.051
325.326
325.682
326.314
327.763
332.095
347.292
387.925
475.32
304.759
316.175
324.662
330.536
334.51
337.193
338.746
339.29
338.986
337.868
336.011
333.905
332.461
332.282
333.053
334.112
335.169
336.074
336.791
337.289
337.111
335.409
332.271
329.365
327.745
326.812
326.373
326.388
326.637
327.112
328.208
331.963
347.219
388.672
474.808
313.244
328.547
334.26
337.324
339.786
340.784
340.25
339.51
338.965
338.401
337.602
336.429
334.974
333.674
332.851
332.108
330.978
329.991
329.549
329.303
329.068
328.769
328.414
328.105
327.954
327.959
328.09
328.343
328.777
329.614
331.605
337.661
357.262
400.884
480.901
312.511
321.851
326.309
329.212
331.165
331.656
331.481
332.195
333.553
334.673
335.235
334.998
333.846
332.096
330.608
329.859
329.426
329.101
328.891
328.783
328.748
328.762
328.812
328.9
329.033
329.229
329.51
329.929
330.598
331.817
334.509
341.929
363.751
406.041
480.003
316.374
329.916
335.411
338.782
340.788
340.334
337.785
335.083
333.963
333.793
333.859
333.957
333.894
333.357
332.422
331.606
331.103
330.815
330.633
330.515
330.441
330.398
330.381
330.39
330.436
330.545
330.765
331.164
331.868
333.179
336.102
344.408
368.772
411.989
482.539
315.347
324.127
327.601
330.072
332.549
335.369
337.779
338.211
337.139
335.773
334.638
333.882
333.48
333.284
333.135
332.946
332.74
332.562
332.418
332.301
332.203
332.121
332.056
332.011
332.002
332.06
332.253
332.708
333.67
335.673
340.114
351.042
377.972
418.121
481.133
307.979
319.142
325.079
328.776
331.799
334.663
337.46
339.852
341.288
341.561
340.872
339.608
338.163
336.845
335.828
335.133
334.681
334.38
334.164
333.994
333.851
333.726
333.613
333.516
333.443
333.419
333.5
333.803
334.557
336.288
340.541
352.417
382.92
422.606
481.611
313.89
326.511
332.085
335.419
337.779
339.352
340.46
341.504
342.717
343.992
344.908
344.992
344.014
342.187
340.084
338.273
336.991
336.18
335.683
335.371
335.158
335
334.871
334.762
334.68
334.649
334.737
335.098
336.095
338.607
344.813
359.82
391.805
427.619
479.835
309.453
319.912
325.684
329.571
332.895
335.914
338.497
340.515
342.054
343.358
344.619
345.722
346.209
345.695
344.183
342.083
340.001
338.387
337.331
336.691
336.302
336.053
335.881
335.753
335.658
335.605
335.635
335.843
336.457
338.115
343.127
359.019
395.778
430.823
479.611
312.953
326.937
333.362
337.321
340.438
342.827
344.472
345.442
345.889
346.004
345.975
345.954
345.971
345.821
345.189
343.93
342.19
340.372
338.893
337.904
337.306
336.947
336.724
336.582
336.503
336.5
336.635
337.082
338.281
341.333
348.866
366.847
402.066
434.44
479.898
313.911
326.506
332.338
336.159
339.339
342.002
344.138
345.751
346.861
347.499
347.719
347.605
347.263
346.792
346.214
345.424
344.26
342.684
340.955
339.486
338.485
337.882
337.527
337.314
337.188
337.135
337.173
337.378
337.966
339.685
345.54
364.551
403.967
436.008
479.558
313.32
326.771
333.122
337.252
340.719
343.558
345.668
347.115
348.064
348.653
348.952
348.979
348.718
348.156
347.333
346.337
345.205
343.872
342.315
340.757
339.524
338.727
338.268
338.019
337.91
337.932
338.153
338.779
340.361
344.241
353.324
373.416
409.013
439.157
481.398
316.666
331.051
337.338
341.435
344.791
347.334
349.012
349.979
350.457
350.621
350.574
350.365
349.997
349.43
348.597
347.475
346.143
344.709
343.22
341.749
340.481
339.568
338.995
338.658
338.47
338.388
338.412
338.611
339.251
341.46
349.484
372.216
410.892
440.777
481.838
316.919
330.673
336.902
341.175
344.857
347.773
349.78
351.009
351.681
351.971
351.986
351.787
351.403
350.833
350.033
348.927
347.474
345.765
344.002
342.406
341.134
340.241
339.683
339.374
339.251
339.309
339.631
340.464
342.418
346.91
357.193
379.823
415.041
443.786
484.468
318.741
333.172
339.548
343.916
347.615
350.375
352.096
353.025
353.457
353.577
353.484
353.222
352.809
352.241
351.491
350.497
349.167
347.454
345.488
343.596
342.109
341.103
340.46
340.055
339.807
339.678
339.676
339.902
340.774
343.856
353.734
378.37
415.888
444.796
484.885
320.227
334.473
340.821
345.281
349.042
351.807
353.522
354.457
354.903
355.041
354.97
354.739
354.37
353.864
353.209
352.364
351.25
349.752
347.814
345.61
343.609
342.22
341.421
341.001
340.832
340.901
341.305
342.333
344.729
350.325
362.839
387.119
420.694
448.343
488.146
321.214
335.674
342.229
346.867
350.663
353.31
354.877
355.712
356.11
356.242
356.195
356.015
355.723
355.328
354.826
354.203
353.419
352.392
350.982
349.052
346.687
344.411
342.835
341.959
341.479
341.22
341.149
341.389
342.493
346.613
359.799
387.862
422.146
449.694
489.393
323.407
338.406
344.988
349.523
353.042
355.344
356.621
357.252
357.511
357.55
357.443
357.229
356.93
356.555
356.104
355.573
354.945
354.186
353.216
351.885
349.997
347.534
345.085
343.526
342.86
342.734
343.076
344.121
346.53
351.746
363.736
390.745
424.393
451.685
491.052
325.074
340.254
346.714
351.076
354.397
356.564
357.783
358.394
358.646
358.678
358.564
358.345
358.045
357.677
357.246
356.754
356.198
355.566
354.832
353.924
352.683
350.832
348.168
345.398
343.746
343.023
342.776
343.055
344.731
350.585
364.763
391.41
425.037
452.361
491.587
326.711
342.232
348.24
352.073
355.04
357.135
358.448
359.189
359.551
359.665
359.607
359.424
359.145
358.788
358.362
357.875
357.328
356.718
356.038
355.263
354.33
353.085
351.22
348.459
345.899
344.866
344.926
345.865
348.172
354.289
370.972
399.661
429.952
455.893
494.83
325.982
341.252
346.785
350.188
352.964
355.256
357.047
358.353
359.242
359.798
360.092
360.18
360.106
359.903
359.595
359.201
358.734
358.202
357.596
356.9
356.101
355.185
353.996
352.041
348.65
345.778
344.644
344.698
346.119
349.954
362.765
394.521
427.236
453.913
493.346
323.311
337.466
342.564
345.678
348.302
350.7
352.91
354.886
356.57
357.93
358.963
359.687
360.13
360.33
360.326
360.158
359.86
359.461
358.977
358.402
357.721
356.93
356.034
354.838
352.628
349.201
347.392
347.988
351.005
357.159
366.328
392.209
427.006
454.508
492.848
318.966
331.463
336.581
339.827
342.537
344.999
347.321
349.551
351.684
353.682
355.493
357.063
358.349
359.323
359.98
360.338
360.437
360.327
360.056
359.659
359.133
358.465
357.648
356.672
355.319
352.477
348.008
346.817
349.809
360.519
380.576
405.291
433.049
458.637
498.029
315.626
328.34
334.405
338.243
341.234
343.692
345.757
347.55
349.185
350.754
352.31
353.865
355.394
356.837
358.115
359.15
359.886
360.311
360.453
360.367
360.104
359.703
359.181
358.529
357.668
356.217
352.852
350.365
352.432
359.758
380.395
412.592
437.731
460.512
498.883
315.203
330.769
338.188
342.634
345.937
348.479
350.38
351.746
352.706
353.405
353.979
354.541
355.177
355.936
356.823
357.79
358.742
359.56
360.14
360.434
360.458
360.256
359.858
359.266
358.462
357.319
355.122
350.93
351.888
361.306
375.563
404.593
433.211
458.122
497.263
318.329
336.616
344.168
348.489
351.799
354.49
356.574
358.026
358.897
359.31
359.406
359.306
359.109
358.901
358.763
358.768
358.965
359.348
359.845
360.33
360.685
360.854
360.836
360.637
360.235
359.553
358.255
355.467
354.023
364.658
389.837
414.685
438.795
463.242
502.593
322.106
339.901
346.438
350.193
353.301
356.174
358.775
360.902
362.405
363.301
363.718
363.798
363.651
363.352
362.95
362.482
361.993
361.544
361.211
361.041
361.011
361.035
361.016
360.883
360.58
360.046
359.153
357.306
355.123
359.27
389.638
433.639
454.314
471.064
504.736
322.818
338.082
343.777
347.216
350.23
353.236
356.277
359.148
361.558
363.338
364.506
365.183
365.512
365.603
365.529
365.333
365.038
364.651
364.181
363.646
363.1
362.624
362.264
362.009
361.812
361.615
361.407
360.958
360.88
359.006
357.584
380.69
414.724
446.208
491.455
320.565
334.607
340.34
343.931
347.083
350.181
353.298
356.34
359.114
361.437
363.219
364.477
365.301
365.799
366.068
366.175
366.158
366.032
365.815
365.516
365.119
364.597
363.973
363.337
362.781
362.384
362.404
361.456
361.523
356.414
343.565
364.409
409.322
444.571
486.461
318.372
333.233
339.692
343.679
347.042
350.173
353.109
355.792
358.186
360.29
362.08
363.522
364.605
365.359
365.852
366.176
366.368
366.428
366.358
366.166
365.863
365.472
364.975
364.382
364.002
364.201
369.109
378.795
373.984
356.497
354.402
391.489
428.471
454.991
493.285
317.647
333.33
340.146
344.333
347.904
351.27
354.364
356.965
359.002
360.614
361.973
363.162
364.185
365.019
365.651
366.1
366.413
366.61
366.68
366.613
366.4
366.017
365.457
365.039
366.234
373.598
391.786
413.748
421.815
415.719
413.396
424.632
444.763
471.753
517.867
316.853
332.374
339.382
343.769
347.621
351.41
355.037
358.103
360.329
361.804
362.806
363.579
364.257
364.88
365.436
365.908
366.29
366.587
366.803
366.935
366.97
366.885
366.65
366.281
366.079
367.498
374.721
392.509
416.819
438.429
459.551
482.695
499.309
515.489
533.681
316.778
332.818
340.142
344.717
348.695
352.532
356.208
359.402
361.787
363.349
364.301
364.883
365.279
365.601
365.902
366.19
366.456
366.689
366.882
367.033
367.138
367.192
367.187
367.112
366.954
366.738
366.72
367.862
371.607
379.114
396.03
417.534
443.709
468.761
496.599
319.062
336.031
343.316
347.849
351.672
355.105
358.221
360.928
363.056
364.553
365.521
366.119
366.48
366.706
366.864
367
367.129
367.254
367.371
367.478
367.572
367.651
367.716
367.768
367.808
367.843
367.828
367.347
366.753
366.098
371.765
368.936
360.66
387.255
467.696
322.809
339.341
345.98
350.131
353.494
356.342
358.856
361.138
363.146
364.762
365.942
366.739
367.249
367.562
367.749
367.863
367.943
368.011
368.078
368.151
368.236
368.342
368.479
368.664
368.91
369.19
369.184
372.824
379.546
383.389
384.375
374.857
373.755
402.855
468.831
323.373
339.396
345.75
349.694
352.842
355.487
357.804
359.936
361.95
363.788
365.329
366.51
367.348
367.91
368.27
368.49
368.621
368.704
368.772
368.852
368.972
369.163
369.462
369.901
370.554
371.799
376.044
380.362
381.748
384.313
392.213
400.633
413.446
436.569
480.13
320.761
337.92
345.12
349.551
353.084
356.01
358.416
360.391
362.064
363.562
364.938
366.165
367.188
367.98
368.55
368.935
369.176
369.325
369.433
369.554
369.757
370.143
370.842
372.135
375.143
382.582
386.208
377.855
371.437
374.218
385.417
401.135
419.128
447.234
503.983
318.911
338.503
347.172
352.4
356.491
359.742
362.187
363.905
365.051
365.825
366.42
366.985
367.589
368.219
368.814
369.312
369.687
369.946
370.123
370.284
370.58
371.411
373.933
381.506
400.475
429.425
445.263
437.353
429.901
430.84
438.6
451.821
470.334
498.525
536.984
323.553
344.63
353.648
359.125
363.342
366.4
368.411
369.606
370.197
370.365
370.263
370.018
369.741
369.537
369.504
369.671
369.988
370.366
370.726
371.023
371.251
371.524
372.328
375.208
383.999
403.884
431.682
452.585
464.044
472.77
480.386
488.812
499.189
512.498
522.505
337.023
355.031
362.5
367.751
371.673
373.772
374.659
374.93
374.892
374.677
374.348
373.942
373.483
372.988
372.475
371.983
371.588
371.381
371.394
371.58
371.85
372.146
372.45
372.783
373.407
375.373
380.346
388.721
399.551
413.551
429.041
440.233
448.037
447.266
469.851
344.215
357.035
363.297
369.876
375.11
376.959
377.249
377.055
376.722
376.354
375.986
375.629
375.286
374.959
374.65
374.364
374.117
373.949
373.925
374.09
374.395
374.665
374.664
374.527
374.691
375.693
377.887
380.827
384.27
388.812
394.193
398.544
400.477
385.086
431.127
330.297
341.153
348.461
358.225
369.039
373.665
375.176
375.712
375.903
375.937
375.888
375.798
375.699
375.621
375.603
375.699
376.002
376.668
377.831
379.353
380.944
382.804
386.186
387.926
386.408
383.963
381.753
379.892
378.162
376.433
374.542
371.675
367.344
364.556
413.724
315.34
328.6
338.378
347.814
361.728
370.448
373.738
375.063
375.71
376.057
376.25
376.364
376.459
376.619
376.959
377.634
378.915
381.292
385.304
391.768
401.324
408.168
404.14
397.202
391.14
385.358
379.718
374.977
372.405
372.19
373.174
375.121
379.942
391.984
435.806
319.059
339.379
350.568
357.076
363.277
371.451
374.973
376.428
377.175
377.581
377.773
377.817
377.773
377.709
377.723
377.976
378.741
380.457
383.771
389.593
398.873
410.058
416.326
414.826
409.385
402.574
395.557
389.453
385.916
386.343
390.675
398.31
409.724
431.016
485.995
333.912
350.983
359.119
364.893
367.615
373.004
376.589
378.445
379.475
380.14
380.586
380.855
380.951
380.882
380.688
380.462
380.349
380.548
381.357
383.264
386.986
393.172
401.221
408.881
414.458
417.399
417.653
415.881
413.79
413.597
417.005
424.7
437.608
462.153
515.066
326.866
336.267
341.576
346.646
353.206
361.644
370.62
376.59
379.437
380.888
381.879
382.701
383.412
383.975
384.297
384.308
384.075
383.788
383.666
383.934
384.872
386.85
390.258
395.27
401.737
409.31
417.509
425.749
433.438
440.195
446.747
454.824
466.544
487.248
525.407
311.541
327.469
337.538
342.991
347.141
353.016
362.001
371.188
376.988
379.89
381.631
383.006
384.296
385.575
386.744
387.472
387.449
386.89
386.288
385.897
385.825
386.205
387.257
389.295
392.7
397.892
405.31
415.346
428.02
442.187
455.455
466.911
478.109
493.108
519.992
322.085
344.88
355.582
361.383
364.116
364.876
366.44
371.362
376.493
379.537
381.427
382.985
384.595
386.427
388.477
390.372
391.293
390.763
389.533
388.439
387.631
387.092
386.88
387.159
388.207
390.437
394.413
400.839
410.384
423.029
437.19
450.428
461.678
474.208
501.07
330.363
344.786
350.019
354.073
358.1
361.576
364.089
366.495
370.881
375.77
379.263
381.425
383.18
385.076
387.349
390.022
392.706
394.451
394.482
393.182
391.538
390.04
388.768
387.758
387.128
387.133
388.222
391.085
396.544
405.119
416.24
428.017
438.789
451.915
484.468
316.53
332.865
340.95
346.736
352.934
359.03
363.209
365.503
367.143
370.092
374.505
378.372
380.81
382.561
384.335
386.492
389.179
392.247
395.089
396.892
397.227
396.284
394.634
392.78
391.008
389.52
388.616
388.857
391.147
396.424
404.774
414.876
425.488
440.54
479.748
320.8
343.118
352.792
358.818
364.123
368.489
371.259
372.527
372.866
372.756
373.166
375.355
378.295
380.675
382.336
383.835
385.585
387.8
390.525
393.556
396.438
398.653
399.831
399.861
398.943
397.517
396.092
395.221
395.679
398.511
404.464
413.121
423.704
440.385
484.425
326.659
345.204
352.694
358.235
364.467
369.932
373.396
375.263
376.055
376.216
375.992
375.531
375.799
377.604
380.03
381.935
383.366
384.758
386.394
388.428
390.898
393.714
396.662
399.442
401.71
403.18
403.812
403.996
404.521
406.42
410.72
417.906
428.018
445.183
490.398
323.174
340.252
348.646
355.501
364.033
370.978
374.842
376.775
377.731
378.149
378.25
378.144
377.787
377.15
377.597
379.662
381.794
383.452
384.913
386.451
388.221
390.309
392.769
395.633
398.886
402.419
405.981
409.263
412.226
415.433
419.855
426.392
435.822
452.425
496.037
328.829
347.452
356.144
363.861
373.166
379.05
380.808
381.129
381.109
380.993
380.832
380.629
380.358
379.888
379.056
379.431
381.297
383.058
384.455
385.761
387.184
388.816
390.709
392.956
395.71
399.168
403.498
408.685
414.375
420.122
426.055
432.977
442.058
457.661
498.709
323.397
340.967
349.848
357.229
365.979
374.361
378.658
380.355
381.124
381.52
381.714
381.771
381.712
381.503
381.025
380.576
381.556
383.189
384.739
386.225
387.757
389.323
390.871
392.477
394.36
396.824
400.254
405.057
411.391
418.848
426.876
435.669
446.062
462.158
501.175
321.547
343.211
355.064
363.649
368.567
372.451
376.788
379.013
380.181
380.904
381.394
381.727
381.941
382.045
381.998
381.852
382.706
384.417
386.055
387.735
389.635
391.611
393.303
394.593
395.766
397.238
399.477
403.116
408.922
417.353
427.905
439.539
451.805
468.803
505.992
334.007
353.411
365.78
378.324
383.062
381.088
381.022
381.395
381.766
382.097
382.38
382.606
382.775
382.882
382.917
382.889
383.15
384.396
386.113
387.981
390.205
392.819
395.374
397.308
398.593
399.712
401.268
404.039
409.222
418.15
430.647
444.174
457.139
474.127
509.575
333.848
348.622
357.259
368.08
376.919
381.037
382.119
382.468
382.697
382.917
383.134
383.334
383.502
383.63
383.714
383.753
383.835
384.388
385.766
387.639
389.874
392.623
395.802
398.855
401.227
402.971
404.682
407.241
411.946
420.383
432.643
445.841
458.269
474.73
510.016
324.259
340.602
347.87
353.687
363.504
375.234
381.185
383.072
383.607
383.801
383.918
384.021
384.121
384.216
384.304
384.4
384.615
385.234
386.393
387.913
389.792
392.248
395.422
399.09
402.674
405.703
408.292
411.154
415.46
422.581
432.826
444.263
455.748
471.972
509.041
315.459
334.96
346.081
352.864
359.352
369.447
378.468
382.729
384.089
384.538
384.732
384.851
384.958
385.082
385.247
385.495
385.901
386.544
387.442
388.596
390.106
392.169
394.987
398.634
402.907
407.35
411.576
415.668
420.318
426.534
434.8
444.439
455.196
471.647
510.066
322.821
345.645
356.751
365.854
375.967
378.919
381.406
383.788
384.769
385.245
385.558
385.808
386.033
386.259
386.513
386.826
387.232
387.764
388.45
389.34
390.529
392.163
394.432
397.545
401.639
406.667
412.353
418.346
424.524
431.178
438.74
447.367
457.545
473.743
511.343
326.91
346.633
356.358
365.639
378.583
384.054
384.395
385.115
385.575
385.935
386.278
386.625
386.977
387.334
387.698
388.08
388.497
388.969
389.527
390.216
391.103
392.289
393.92
396.199
399.383
403.735
409.421
416.382
424.265
432.561
440.977
449.713
459.64
475.137
510.815
326.312
347.284
360.921
374
382.131
384.735
385.644
386.445
386.801
387.088
387.382
387.702
388.05
388.422
388.813
389.223
389.656
390.121
390.632
391.214
391.904
392.762
393.878
395.39
397.504
400.515
404.793
410.711
418.433
427.615
437.384
447.118
457.342
472.37
507.208
331.878
353.586
367.993
384.752
391.471
387.275
386.952
387.233
387.548
387.882
388.24
388.62
389.021
389.438
389.874
390.328
390.802
391.3
391.826
392.391
393.011
393.717
394.558
395.613
397.01
398.956
401.773
405.928
411.987
420.304
430.412
441.073
451.936
467.177
502.603
332.116
352.746
363.566
376.517
389.383
387.26
387.45
387.742
388.073
388.453
388.875
389.323
389.786
390.26
390.749
391.257
391.787
392.341
392.921
393.53
394.176
394.871
395.641
396.528
397.609
399.012
400.961
403.839
408.263
415.01
424.374
435.288
446.645
462.336
498.892
328.562
350.26
360.728
371.349
387.116
388.677
388.07
388.244
388.607
389.041
389.519
390.022
390.538
391.063
391.601
392.159
392.742
393.351
393.989
394.657
395.36
396.106
396.909
397.797
398.818
400.061
401.687
403.997
407.536
413.156
421.569
432.172
443.687
459.782
497.324
327.205
348.593
357.395
364.86
377.546
389.737
389.091
388.948
389.146
389.544
390.067
390.639
391.221
391.808
392.408
393.03
393.678
394.355
395.064
395.807
396.591
397.424
398.319
399.301
400.412
401.725
403.377
405.627
408.957
414.155
421.986
432.141
443.565
459.903
498.086
327.763
348.895
358.591
366.327
376.518
388.874
389.639
389.343
389.628
390.095
390.62
391.183
391.787
392.429
393.094
393.784
394.505
395.261
396.05
396.877
397.751
398.683
399.691
400.803
402.065
403.555
405.408
407.872
411.388
416.645
424.279
434.078
445.321
461.765
500.226
327.511
349.416
359.515
368.155
380.173
389.82
390.528
390.119
390.405
390.792
391.265
391.844
392.493
393.19
393.916
394.662
395.436
396.256
397.119
398.028
398.989
400.02
401.143
402.397
403.836
405.553
407.695
410.516
414.428
420.004
427.686
437.271
448.356
464.836
503.1
328.479
350.736
360.45
368.187
378.787
390.291
392.101
390.786
391
391.391
391.874
392.473
393.16
393.906
394.687
395.498
396.35
397.247
398.186
399.17
400.211
401.328
402.553
403.93
405.529
407.454
409.875
413.054
417.382
423.321
431.138
440.606
451.55
467.95
505.674
328.084
349.751
359.749
368.229
379.936
391.172
394.096
391.511
391.599
391.97
392.452
393.071
393.796
394.591
395.433
396.318
397.253
398.233
399.252
400.314
401.433
402.631
403.943
405.421
407.144
409.233
411.872
415.34
420.012
426.269
434.238
443.659
454.489
470.755
507.835
328.403
351.044
361.537
370.023
380.942
391.643
395.736
392.533
392.175
392.51
392.977
393.585
394.332
395.175
396.084
397.051
398.081
399.158
400.275
401.433
402.647
403.938
405.345
406.924
408.76
410.985
413.796
417.482
422.409
428.895
436.972
446.339
457.038
473.133
509.645
329.271
351.608
361.747
370.34
382.063
393.208
397.103
393.969
392.884
393.129
393.564
394.164
394.924
395.799
396.753
397.779
398.883
400.049
401.262
402.522
403.839
405.236
406.751
408.444
410.404
412.769
415.748
419.634
424.782
431.463
439.632
448.97
459.59
475.598
511.57
328.973
351.467
361.951
370.652
381.869
393.041
398.385
395.534
393.451
393.668
394.108
394.703
395.472
396.368
397.364
398.458
399.645
400.899
402.207
403.57
404.996
406.509
408.147
409.972
412.078
414.606
417.771
421.866
427.221
434.051
442.251
451.5
461.993
477.849
513.225
329.588
352.278
362.896
372.057
383.979
394.523
399.529
397.604
394.199
394.351
394.791
395.375
396.136
397.043
398.083
399.242
400.494
401.819
403.204
404.651
406.171
407.786
409.539
411.492
413.745
416.447
419.815
424.137
429.705
436.657
444.827
453.925
464.256
479.979
514.896
329.304
351.491
361.67
370.038
380.886
392.449
399.422
400.06
395.54
394.909
395.307
395.895
396.662
397.626
398.763
400.034
401.404
402.849
404.358
405.932
407.584
409.342
411.25
413.378
415.828
418.756
422.373
426.94
432.688
439.669
447.681
456.504
466.586
482.128
516.644
329.537
352.057
362.737
371.907
383.597
393.992
399.839
401.624
397.671
395.432
395.732
396.317
397.101
398.115
399.335
400.715
402.216
403.808
405.473
407.211
409.035
410.975
413.077
415.414
418.091
421.261
425.12
429.895
435.752
442.687
450.513
459.1
469.022
484.475
518.432
329.221
351.563
361.816
370.022
380.302
391.572
399.175
402.227
400.655
396.323
396.21
396.714
397.451
398.445
399.691
401.148
402.769
404.514
406.358
408.296
410.337
412.515
414.881
417.511
420.507
424.002
428.157
433.133
439.029
445.821
453.38
461.681
471.381
486.589
519.685
329.438
352.348
363.189
372.157
383.06
392.776
399.167
402.398
402.915
398.515
396.872
397.234
397.932
398.89
400.124
401.604
403.285
405.129
407.107
409.205
411.429
413.804
416.385
419.251
422.51
426.286
430.703
435.857
441.777
448.414
455.702
463.709
473.181
488.18
520.717
329.774
353.071
363.95
372.609
382.759
392.509
399.165
402.5
403.928
401.332
397.705
397.887
398.57
399.529
400.8
402.349
404.118
406.06
408.146
410.371
412.742
415.284
418.04
421.081
424.506
428.435
432.977
438.197
444.085
450.579
457.647
465.419
474.727
489.651
521.91
330.506
354.352
365.711
375.012
385.552
393.807
399.149
402.5
404.482
403.893
399.497
398.567
399.216
400.222
401.557
403.218
405.147
407.276
409.556
411.967
414.524
417.256
420.205
423.417
426.957
430.912
435.379
440.439
446.118
452.406
459.315
467.006
476.353
491.4
523.161
331.497
355.762
367.481
377.168
387.797
395.657
399.954
402.613
404.883
405.697
402.043
399.181
399.589
400.602
401.977
403.715
405.777
408.105
410.636
413.311
416.114
419.075
422.262
425.746
429.579
433.794
438.414
443.471
448.999
455.04
461.675
469.108
478.226
492.932
523.705
332.692
356.972
368.841
379.015
389.989
397.139
400.586
402.72
405.046
406.934
404.682
400.294
399.755
400.6
401.899
403.593
405.635
407.975
410.592
413.462
416.529
419.742
423.104
426.69
430.607
434.941
439.719
444.921
450.516
456.506
462.974
470.162
479.002
493.391
523.929
333.296
357.733
369.843
380.409
391.523
398.372
401.191
402.798
405.006
407.804
407.461
402.227
400.221
400.739
401.922
403.566
405.669
408.101
410.73
413.555
416.645
420.028
423.644
427.424
431.365
435.552
440.103
445.101
450.575
456.529
463.018
470.259
479.229
493.941
524.901
333.403
357.454
369.352
379.994
391.485
398.569
401.298
402.565
404.337
407.569
409.956
405.716
401.494
401.683
402.907
404.463
406.418
408.955
411.966
415.139
418.308
421.576
425.124
429.031
433.236
437.641
442.218
447.04
452.238
457.953
464.333
471.637
480.876
496.003
526.401
333.158
357.133
368.936
379.568
391.322
398.927
401.66
402.527
403.56
406.202
410.44
410.88
404.862
403.067
404.206
406.368
408.52
410.611
413.149
416.401
420.14
423.917
427.557
431.25
435.276
439.766
444.679
449.902
455.377
461.162
467.421
474.471
483.358
497.86
526.796
332.323
355.935
367.23
377.264
388.976
397.76
401.485
402.556
402.971
404.275
408.027
412.927
411.78
406.773
405.545
406.872
409.741
412.976
415.565
417.837
420.606
424.209
428.381
432.592
436.612
440.629
444.964
449.813
455.198
461.068
467.422
474.466
483.197
497.354
526.107
331.76
355.528
366.741
376.402
387.644
396.842
401.281
402.695
402.984
403.193
404.878
409.603
415.002
414.574
410.388
408.528
408.924
411.247
415.28
419.525
422.502
424.991
428.048
432.035
436.679
441.434
446.017
450.553
455.362
460.722
466.81
473.84
482.741
497.228
526.47
331.087
354.95
365.969
375.086
385.655
395.185
400.639
402.719
403.29
403.199
403.211
405.059
410.282
416.301
418.055
415.307
412.439
411.136
411.576
414.804
420.543
425.961
429.806
433.065
436.765
441.315
446.55
452.054
457.567
463.173
469.188
476.063
484.939
499.711
529.318
331.123
355.293
366.358
375.204
385.077
394.14
399.975
402.61
403.565
403.745
403.425
403.163
404.716
409.639
415.96
420.043
420.529
417.878
415.104
413.742
415.37
420.545
427.258
433.439
438.274
442.329
446.623
451.742
457.651
464.047
470.747
477.992
487.2
502.864
533.324
330.98
355.746
367.142
376.058
385.573
393.934
399.509
402.423
403.689
404.163
404.197
403.821
403.224
403.787
407.259
412.942
418.578
422.399
423.537
422.446
421.337
421.774
424.589
429.659
436.131
442.694
448.203
452.781
457.427
462.871
469.388
477.292
488.128
506.411
536.71
331.695
356.328
367.708
376.743
386.467
394.693
399.801
402.539
403.899
404.523
404.753
404.742
404.484
403.864
403.346
404.472
408.048
413.32
419.059
424.161
428.201
431.224
433.325
435.33
438.245
442.851
449.151
456.221
462.735
468.709
475.003
482.601
493.33
511.091
537.113
331.991
356.83
368.304
377.308
386.945
395.259
400.41
403.059
404.385
405.044
405.342
405.423
405.362
405.19
404.842
404.203
403.666
404.334
407.02
411.701
417.863
424.963
432.255
439.008
444.557
448.535
452.173
457.273
464.546
472.679
480.641
488.563
497.956
511.969
534.009
332.111
356.421
367.693
376.551
386.239
395.058
400.771
403.68
405.066
405.74
406.064
406.193
406.197
406.111
405.954
405.73
405.388
404.821
404.124
403.997
405.478
409.247
415.475
423.749
433.21
442.856
451.02
456.124
459.804
465.47
472.877
480.91
489.727
502.543
528.79
332.087
356.378
367.576
376.139
385.336
394.191
400.601
404.156
405.865
406.652
407.003
407.137
407.15
407.088
406.972
406.809
406.604
406.348
405.999
405.44
404.564
403.802
404.416
407.774
414.482
424.103
436.266
449.011
456.826
459.601
463.624
470.818
481.215
497.768
528.531
330.931
354.731
365.766
373.845
382.262
390.958
398.308
403.131
405.757
407.059
407.678
407.952
408.044
408.034
407.961
407.844
407.692
407.507
407.283
407
406.592
405.88
404.688
403.705
404.74
409.399
419.276
433.197
453.665
467.678
472.971
478.242
486.774
501.583
527.748
330.462
354.935
366.5
374.83
383.131
391.211
398.091
403.034
406.025
407.627
408.432
408.813
408.968
408.997
408.953
408.864
408.743
408.598
408.429
408.23
407.987
407.652
407.095
406.068
404.732
404.325
406.722
414.913
427.885
453.417
473.7
483.621
490.911
501.309
522.512
330.087
354.912
366.871
375.477
383.918
391.78
398.237
403.022
406.162
407.993
408.984
409.497
409.743
409.838
409.843
409.793
409.707
409.596
409.464
409.312
409.135
408.917
408.609
408.067
407.198
406.238
405.337
406.958
407.197
419.579
444.098
465.064
478.661
490.741
514.82
331.035
357.003
369.755
379.324
388.965
397.126
402.606
406.021
408.144
409.41
410.122
410.502
410.687
410.755
410.752
410.704
410.626
410.526
410.408
410.272
410.12
409.942
409.706
409.291
408.668
408.176
407.627
407.754
405.287
405.123
420.004
445.066
466.333
483.406
512.512
332.444
358.641
371.577
381.724
392.289
400.839
405.959
408.659
410.105
410.901
411.332
411.552
411.647
411.665
411.635
411.573
411.489
411.386