/*--------------------------------*- C++ -*----------------------------------*\
| =========                 |                                                 |
| \\      /  F ield         | OpenFOAM: The Open Source CFD Toolbox           |
|  \\    /   O peration     | Version:  v2012                                 |
|   \\  /    A nd           | Website:  www.openfoam.com                      |
|    \\/     M anipulation  |                                                 |
\*---------------------------------------------------------------------------*/
FoamFile
{
    version     2.0;
    format      ascii;
    class       surfaceScalarField;
    location    "95";
    object      phi;
}
// * * * * * * * * * * * * * * * * * * * * * * * * * * * * * * * * * * * * * //

dimensions      [1 0 -1 0 0 0 0];
oriented        oriented;


internalField   nonuniform List<scalar> 
228225
(
-6.03067e-10
-7.92422e-10
1.14728e-09
-1.06481e-09
1.59409e-09
-1.13057e-09
-2.95719e-09
3.40586e-09
-1.51379e-09
-6.56284e-09
5.12877e-09
-1.52093e-09
-1.17711e-08
6.73103e-09
-1.52636e-09
-1.83008e-08
8.15076e-09
-1.61865e-09
-2.58659e-08
9.36804e-09
-1.80281e-09
-3.41571e-08
1.03612e-08
-2.07119e-09
-4.28917e-08
1.11375e-08
-2.40113e-09
-5.18031e-08
1.1692e-08
-2.78039e-09
-6.06563e-08
1.2042e-08
-3.19098e-09
-6.92208e-08
1.21905e-08
-3.62434e-09
-7.73153e-08
1.21593e-08
-4.06505e-09
-8.47563e-08
1.19522e-08
-4.50854e-09
-9.14101e-08
1.15927e-08
-4.94249e-09
-9.71336e-08
1.10873e-08
-5.36441e-09
-1.01827e-07
1.04577e-08
-5.76401e-09
-1.05395e-07
9.71039e-09
-6.14068e-09
-1.07775e-07
8.86584e-09
-6.48295e-09
-1.08917e-07
7.93036e-09
-6.79241e-09
-1.08779e-07
6.92342e-09
-7.06174e-09
-1.07339e-07
5.85107e-09
-7.29078e-09
-1.04595e-07
4.73211e-09
-7.47381e-09
-1.00556e-07
3.5734e-09
-7.61273e-09
-9.52462e-08
2.3947e-09
-7.70432e-09
-8.87012e-08
1.20606e-09
-7.75303e-09
-8.0978e-08
3.92663e-11
-7.75932e-09
-7.21263e-08
-1.12377e-09
-7.73155e-09
-6.22307e-08
-2.21872e-09
-7.67379e-09
-5.14097e-08
-3.22734e-09
-7.59504e-09
-3.98158e-08
-4.10314e-09
-7.49005e-09
-2.77034e-08
-4.78818e-09
-7.32275e-09
-1.56043e-08
-5.16922e-09
-6.93216e-09
-4.77332e-09
-5.08526e-09
-5.74307e-09
-3.58986e-09
-1.18503e-09
-1.726e-09
1.18717e-08
-1.09388e-08
-9.07983e-09
2.14314e-08
-1.24836e-08
-1.85056e-08
2.60606e-08
-1.32276e-08
-2.9059e-08
2.96014e-08
-1.39205e-08
-4.00289e-08
3.22102e-08
-1.4508e-08
-5.09322e-08
3.40553e-08
-1.50037e-08
-6.13892e-08
3.52701e-08
-1.54432e-08
-7.11525e-08
3.59654e-08
-1.58411e-08
-8.00318e-08
3.62244e-08
-1.6209e-08
-8.79075e-08
3.6116e-08
-1.65482e-08
-9.46933e-08
3.56936e-08
-1.68641e-08
-1.00352e-07
3.50026e-08
-1.71544e-08
-1.04851e-07
3.40804e-08
-1.74222e-08
-1.08193e-07
3.29587e-08
-1.76644e-08
-1.10385e-07
3.1666e-08
-1.78832e-08
-1.1145e-07
3.02288e-08
-1.80748e-08
-1.11425e-07
2.86723e-08
-1.82413e-08
-1.10354e-07
2.70195e-08
-1.83791e-08
-1.08289e-07
2.52904e-08
-1.84899e-08
-1.05293e-07
2.35055e-08
-1.85702e-08
-1.01431e-07
2.1683e-08
-1.86217e-08
-9.67784e-08
1.98411e-08
-1.86413e-08
-9.1414e-08
1.79959e-08
-1.86302e-08
-8.54201e-08
1.61637e-08
-1.85848e-08
-7.88765e-08
1.43572e-08
-1.85056e-08
-7.18698e-08
1.2588e-08
-1.83877e-08
-6.44703e-08
1.08674e-08
-1.8229e-08
-5.67791e-08
9.20542e-09
-1.80209e-08
-4.88524e-08
7.6102e-09
-1.77553e-08
-4.0754e-08
6.08828e-09
-1.74137e-08
-3.25276e-08
4.64497e-09
-1.69754e-08
-2.42031e-08
3.29065e-09
-1.64027e-08
-1.58246e-08
2.04765e-09
-1.55957e-08
-7.63474e-09
1.01472e-09
-1.4291e-08
1.76371e-10
-1.14002e-08
-2.41117e-10
2.13133e-08
-9.19845e-09
-3.47554e-09
3.56259e-08
-1.09623e-08
-7.70808e-09
4.19985e-08
-1.17055e-08
-1.24319e-08
4.65818e-08
-1.22552e-08
-1.73121e-08
4.97766e-08
-1.26873e-08
-2.21068e-08
5.19008e-08
-1.30512e-08
-2.66507e-08
5.31837e-08
-1.3369e-08
-3.0828e-08
5.38021e-08
-1.36611e-08
-3.45557e-08
5.38868e-08
-1.39327e-08
-3.77885e-08
5.35401e-08
-1.4193e-08
-4.04942e-08
5.28398e-08
-1.44404e-08
-4.26593e-08
5.18483e-08
-1.46793e-08
-4.42892e-08
5.06154e-08
-1.49056e-08
-4.53933e-08
4.91831e-08
-1.51219e-08
-4.5988e-08
4.75862e-08
-1.53233e-08
-4.61048e-08
4.58554e-08
-1.55118e-08
-4.57702e-08
4.40199e-08
-1.56819e-08
-4.5019e-08
4.21041e-08
-1.58353e-08
-4.38923e-08
4.01299e-08
-1.59673e-08
-4.24235e-08
3.81177e-08
-1.60797e-08
-4.06591e-08
3.60862e-08
-1.6168e-08
-3.86373e-08
3.40515e-08
-1.62338e-08
-3.63957e-08
3.20285e-08
-1.62728e-08
-3.39785e-08
3.00326e-08
-1.62861e-08
-3.14262e-08
2.80734e-08
-1.62694e-08
-2.87674e-08
2.61528e-08
-1.62227e-08
-2.60345e-08
2.42738e-08
-1.61397e-08
-2.32448e-08
2.2432e-08
-1.60163e-08
-2.04083e-08
2.06155e-08
-1.58415e-08
-1.75214e-08
1.88037e-08
-1.56031e-08
-1.45609e-08
1.69629e-08
-1.52783e-08
-1.14844e-08
1.50449e-08
-1.4831e-08
-8.23388e-09
1.2976e-08
-1.41783e-08
-4.72291e-09
1.06521e-08
-1.31486e-08
6.2033e-09
-1.075e-08
2.07863e-10
2.60281e-08
-4.92373e-09
-1.71002e-10
4.25356e-08
-6.52897e-09
-7.98243e-10
4.99449e-08
-7.32044e-09
-1.67656e-09
5.53064e-08
-7.8466e-09
-2.7535e-09
5.90976e-08
-8.2426e-09
-3.95205e-09
6.1678e-08
-8.57974e-09
-5.19018e-09
6.33136e-08
-8.89213e-09
-6.40717e-09
6.42076e-08
-9.18859e-09
-7.55243e-09
6.45141e-08
-9.48079e-09
-8.59478e-09
6.43512e-08
-9.76919e-09
-9.50719e-09
6.38109e-08
-1.00596e-08
-1.0276e-08
6.29647e-08
-1.03483e-08
-1.08929e-08
6.18709e-08
-1.06378e-08
-1.13634e-08
6.05757e-08
-1.09228e-08
-1.16908e-08
5.91186e-08
-1.12045e-08
-1.18905e-08
5.75318e-08
-1.14772e-08
-1.19733e-08
5.58441e-08
-1.17415e-08
-1.19577e-08
5.40795e-08
-1.19916e-08
-1.18599e-08
5.22597e-08
-1.2228e-08
-1.16981e-08
5.04024e-08
-1.24453e-08
-1.14936e-08
4.85239e-08
-1.26437e-08
-1.1259e-08
4.6637e-08
-1.28183e-08
-1.10155e-08
4.47528e-08
-1.29694e-08
-1.07712e-08
4.28802e-08
-1.30912e-08
-1.05366e-08
4.10219e-08
-1.31833e-08
-1.03123e-08
3.91704e-08
-1.32412e-08
-1.00908e-08
3.73137e-08
-1.32633e-08
-9.84321e-09
3.54289e-08
-1.32428e-08
-9.53303e-09
3.34796e-08
-1.3175e-08
-9.0965e-09
3.14131e-08
-1.30476e-08
-8.43761e-09
2.91522e-08
-1.28471e-08
-7.43218e-09
2.65908e-08
-1.25516e-08
-5.8933e-09
2.35756e-08
-1.21387e-08
-3.63772e-09
1.99116e-08
-1.1515e-08
1.23714e-08
-9.80555e-09
-5.89715e-10
2.83573e-08
-1.74048e-09
-2.87887e-10
4.52359e-08
-3.00085e-09
4.44898e-10
5.29137e-08
-3.70251e-09
1.33623e-09
5.85711e-08
-4.15602e-09
2.2548e-09
6.2668e-08
-4.48875e-09
3.15442e-09
6.55626e-08
-4.78359e-09
4.01061e-09
6.75209e-08
-5.06357e-09
4.81132e-09
6.87478e-08
-5.34168e-09
5.54954e-09
6.93965e-08
-5.61928e-09
6.21522e-09
6.95871e-08
-5.90342e-09
6.80779e-09
6.94101e-08
-6.19156e-09
7.32214e-09
6.89385e-08
-6.487e-09
7.74929e-09
6.82279e-08
-6.78482e-09
8.08673e-09
6.73252e-08
-7.08646e-09
8.32316e-09
6.62668e-08
-7.38612e-09
8.45505e-09
6.50843e-08
-7.68445e-09
8.47244e-09
6.38026e-08
-7.97547e-09
8.3665e-09
6.24443e-08
-8.25944e-09
8.13046e-09
6.10265e-08
-8.53053e-09
7.75696e-09
5.95646e-08
-8.78885e-09
7.24106e-09
5.80693e-08
-9.02898e-09
6.57875e-09
5.65497e-08
-9.25083e-09
5.77024e-09
5.50103e-08
-9.44912e-09
4.82418e-09
5.34506e-08
-9.62372e-09
3.75215e-09
5.18629e-08
-9.76982e-09
2.57749e-09
5.02319e-08
-9.88713e-09
1.33148e-09
4.85319e-08
-9.97063e-09
5.55107e-11
4.67233e-08
-1.00191e-08
-1.18689e-09
4.47482e-08
-1.00259e-08
-2.31293e-09
4.25248e-08
-9.98594e-09
-3.21229e-09
3.99373e-08
-9.88668e-09
-3.72717e-09
3.68291e-08
-9.72255e-09
-3.63284e-09
3.29807e-08
-9.49965e-09
-2.65018e-09
2.81035e-08
-9.17522e-09
1.77423e-08
-8.02039e-09
-7.92796e-10
2.90459e-08
1.04946e-10
-4.56612e-10
4.57139e-08
-8.1577e-10
4.81352e-10
5.33661e-08
-1.38963e-09
1.72064e-09
5.90842e-08
-1.75242e-09
3.09184e-09
6.33196e-08
-2.02399e-09
4.51204e-09
6.64132e-08
-2.26963e-09
5.92087e-09
6.86248e-08
-2.51427e-09
7.2808e-09
7.0148e-08
-2.76018e-09
8.55915e-09
7.11323e-08
-3.01319e-09
9.72837e-09
7.16891e-08
-3.272e-09
1.07737e-08
7.19065e-08
-3.54046e-09
1.16746e-08
7.18505e-08
-3.81466e-09
1.24239e-08
7.15748e-08
-4.09628e-09
1.30108e-08
7.11201e-08
-4.38033e-09
1.3423e-08
7.05206e-08
-4.66745e-09
1.36575e-08
6.98022e-08
-4.95225e-09
1.37085e-08
6.89877e-08
-5.23494e-09
1.35685e-08
6.80936e-08
-5.51014e-09
1.32389e-08
6.71346e-08
-5.77783e-09
1.27145e-08
6.61201e-08
-6.03286e-09
1.20028e-08
6.50575e-08
-6.27517e-09
1.1104e-08
6.39487e-08
-6.49994e-09
1.00288e-08
6.27922e-08
-6.70713e-09
8.79259e-09
6.15794e-08
-6.89234e-09
7.41495e-09
6.02955e-08
-7.05547e-09
5.92431e-09
5.89157e-08
-7.19235e-09
4.35537e-09
5.74027e-08
-7.30272e-09
2.75856e-09
5.57027e-08
-7.38236e-09
1.19736e-09
5.37396e-08
-7.43004e-09
-2.47315e-10
5.14082e-08
-7.43915e-09
-1.46754e-09
4.85629e-08
-7.40419e-09
-2.32565e-09
4.50078e-08
-7.32227e-09
-2.60124e-09
4.04731e-08
-7.21638e-09
-2.04242e-09
3.46085e-08
-7.06357e-09
2.19848e-08
-6.28492e-09
-7.08446e-10
2.88691e-08
8.85678e-10
-4.05403e-10
4.52267e-08
1.8284e-10
4.37298e-10
5.27857e-08
-2.62211e-10
1.56658e-09
5.84989e-08
-5.43663e-10
2.83672e-09
6.28027e-08
-7.53388e-10
4.1703e-09
6.60291e-08
-9.48878e-10
5.5095e-09
6.84269e-08
-1.14332e-09
6.81818e-09
7.01844e-08
-1.34277e-09
8.05516e-09
7.14419e-08
-1.54735e-09
9.19728e-09
7.23076e-08
-1.76082e-09
1.0223e-08
7.28619e-08
-1.98033e-09
1.11127e-08
7.31683e-08
-2.20775e-09
1.18537e-08
7.32738e-08
-2.43917e-09
1.24329e-08
7.32163e-08
-2.67548e-09
1.28416e-08
7.30241e-08
-2.91237e-09
1.30737e-08
7.27206e-08
-3.15016e-09
1.31237e-08
7.23225e-08
-3.3844e-09
1.2988e-08
7.18439e-08
-3.61523e-09
1.26689e-08
7.12935e-08
-3.83828e-09
1.2163e-08
7.06777e-08
-4.05362e-09
1.14809e-08
6.99979e-08
-4.25711e-09
1.0626e-08
6.92522e-08
-4.44885e-09
9.61168e-09
6.84326e-08
-4.625e-09
8.45075e-09
6.75258e-08
-4.78573e-09
7.16506e-09
6.65091e-08
-4.92751e-09
5.77994e-09
6.53502e-08
-5.05053e-09
4.33307e-09
6.40019e-08
-5.15149e-09
2.86682e-09
6.23992e-08
-5.23051e-09
1.43964e-09
6.04515e-08
-5.28399e-09
1.22907e-10
5.80361e-08
-5.3102e-09
-9.98711e-10
5.49849e-08
-5.3027e-09
-1.79873e-09
5.10734e-08
-5.26445e-09
-2.10271e-09
4.59937e-08
-5.21747e-09
-1.68234e-09
3.93424e-08
-5.15183e-09
2.49204e-08
-4.61971e-09
-4.73947e-10
2.82902e-08
1.05358e-09
-2.98126e-10
4.45011e-08
5.49218e-10
2.49297e-10
5.20195e-08
2.18605e-10
9.94786e-10
5.77391e-08
1.41804e-11
1.84159e-09
6.20966e-08
-1.40072e-10
2.7336e-09
6.5418e-08
-2.82029e-10
3.63825e-09
6.79493e-08
-4.28008e-10
4.52736e-09
6.98729e-08
-5.77082e-10
5.37489e-09
7.13269e-08
-7.31595e-10
6.15784e-09
7.24138e-08
-8.90057e-10
6.86239e-09
7.32127e-08
-1.05531e-09
7.47466e-09
7.37819e-08
-1.22437e-09
7.97817e-09
7.41665e-08
-1.3982e-09
8.36807e-09
7.43997e-08
-1.57355e-09
8.63662e-09
7.45077e-08
-1.75099e-09
8.77358e-09
7.4509e-08
-1.92706e-09
8.7828e-09
7.44184e-08
-2.1022e-09
8.6525e-09
7.42451e-08
-2.27295e-09
8.3904e-09
7.39956e-08
-2.43965e-09
7.99607e-09
7.36715e-08
-2.59896e-09
7.47243e-09
7.32714e-08
-2.75124e-09
6.83026e-09
7.27887e-08
-2.89337e-09
6.07565e-09
7.2212e-08
-3.02576e-09
5.22588e-09
7.15225e-08
-3.14552e-09
4.29359e-09
7.06934e-08
-3.25314e-09
3.30394e-09
6.96859e-08
-3.34595e-09
2.28364e-09
6.84467e-08
-3.42447e-09
1.26582e-09
6.69025e-08
-3.4862e-09
2.95086e-10
6.49533e-08
-3.5314e-09
-5.75328e-10
6.24643e-08
-3.55643e-09
-1.28373e-09
5.92522e-08
-3.55952e-09
-1.74269e-09
5.5073e-08
-3.54108e-09
-1.82008e-09
4.95936e-08
-3.522e-09
-1.362e-09
4.23761e-08
-3.49114e-09
2.66825e-08
-3.12541e-09
-3.81233e-10
2.75739e-08
1.09779e-09
-3.95597e-10
4.37353e-08
7.81298e-10
-1.92057e-10
5.12415e-08
5.71628e-10
1.32208e-10
5.69719e-08
4.43582e-10
5.20477e-10
6.13632e-08
3.45037e-10
9.47941e-10
6.47426e-08
2.49162e-10
1.39228e-09
6.73529e-08
1.51106e-10
1.84061e-09
6.93765e-08
4.84967e-11
2.27419e-09
7.09485e-08
-5.57504e-11
2.68171e-09
7.21711e-08
-1.63794e-10
3.04932e-09
7.31192e-08
-2.73927e-10
3.36891e-09
7.38504e-08
-3.8872e-10
3.63549e-09
7.44065e-08
-5.05297e-10
3.83999e-09
7.48199e-08
-6.24373e-10
3.97541e-09
7.51139e-08
-7.42993e-10
4.04069e-09
7.53059e-08
-8.618e-10
4.0311e-09
7.54068e-08
-9.78186e-10
3.94338e-09
7.54245e-08
-1.09279e-09
3.78079e-09
7.53619e-08
-1.20304e-09
3.54344e-09
7.52191e-08
-1.30961e-09
3.2333e-09
7.49911e-08
-1.41001e-09
2.85682e-09
7.46696e-08
-1.50496e-09
2.42223e-09
7.42395e-08
-1.59214e-09
1.93763e-09
7.36799e-08
-1.67235e-09
1.41447e-09
7.296e-08
-1.74343e-09
8.67891e-10
7.20383e-08
-1.80624e-09
3.15862e-10
7.08569e-08
-1.85881e-09
-2.16832e-10
6.93384e-08
-1.90207e-09
-7.068e-10
6.73771e-08
-1.93405e-09
-1.11957e-09
6.4832e-08
-1.955e-09
-1.41644e-09
6.15115e-08
-1.96187e-09
-1.54727e-09
5.71614e-08
-1.95807e-09
-1.43296e-09
5.14354e-08
-1.95658e-09
-9.82503e-10
4.38756e-08
-1.94981e-09
2.7427e-08
-1.72714e-09
-4.72058e-10
2.68286e-08
1.21812e-09
-7.26588e-10
4.28975e-08
1.09046e-09
-8.42508e-10
5.03646e-08
9.9324e-10
-8.81212e-10
5.60732e-08
9.37348e-10
-8.66953e-10
6.04602e-08
8.88861e-10
-8.13965e-10
6.38507e-08
8.38228e-10
-7.28916e-10
6.64872e-08
7.82091e-10
-6.25882e-10
6.85494e-08
7.22648e-10
-5.09153e-10
7.01726e-08
6.59046e-10
-3.85822e-10
7.14563e-08
5.93162e-10
-2.6725e-10
7.24758e-08
5.23958e-10
-1.56237e-10
7.32856e-08
4.53948e-10
-6.04057e-11
7.39275e-08
3.82186e-10
1.89364e-11
7.44311e-08
3.10888e-10
7.42343e-11
7.4819e-08
2.38349e-10
1.08922e-10
7.51063e-08
1.66736e-10
1.15868e-10
7.53036e-08
9.48929e-11
9.90419e-11
7.54164e-08
2.60448e-11
5.35645e-11
7.54471e-08
-4.10227e-11
-1.6959e-11
7.53935e-08
-1.04417e-10
-1.09065e-10
7.52501e-08
-1.64605e-10
-2.26044e-10
7.5006e-08
-2.20862e-10
-3.5848e-10
7.46458e-08
-2.73847e-10
-5.01351e-10
7.41462e-08
-3.21757e-10
-6.52463e-10
7.34758e-08
-3.65664e-10
-8.00999e-10
7.25909e-08
-4.04e-10
-9.39052e-10
7.1433e-08
-4.3799e-10
-1.05684e-09
6.99225e-08
-4.66308e-10
-1.14147e-09
6.79528e-08
-4.90339e-10
-1.18252e-09
6.5381e-08
-5.08692e-10
-1.16255e-09
6.20144e-08
-5.22535e-10
-1.06409e-09
5.75964e-08
-5.33151e-10
-8.56105e-10
5.17796e-08
-5.52788e-10
-5.08108e-10
4.41021e-08
-5.73687e-10
2.74132e-08
-4.94759e-10
-6.39963e-10
2.60701e-08
1.39802e-09
-1.09602e-09
4.1919e-08
1.43494e-09
-1.44786e-09
4.92842e-08
1.43255e-09
-1.72868e-09
5.49188e-08
1.4347e-09
-1.9506e-09
5.92531e-08
1.42869e-09
-2.12148e-09
6.26092e-08
1.41291e-09
-2.24954e-09
6.52246e-08
1.39052e-09
-2.34174e-09
6.72782e-08
1.36217e-09
-2.40057e-09
6.89015e-08
1.33058e-09
-2.43264e-09
7.01939e-08
1.29539e-09
-2.4439e-09
7.12278e-08
1.25866e-09
-2.43515e-09
7.20584e-08
1.21964e-09
-2.41577e-09
7.2725e-08
1.18015e-09
-2.37858e-09
7.32576e-08
1.13936e-09
-2.33692e-09
7.36759e-08
1.09938e-09
-2.28379e-09
7.39953e-08
1.05918e-09
-2.22655e-09
7.42247e-08
1.02042e-09
-2.16253e-09
7.437e-08
9.82082e-10
-2.09247e-09
7.44316e-08
9.4576e-10
-2.01637e-09
7.44079e-08
9.10398e-10
-1.93632e-09
7.42917e-08
8.7749e-10
-1.84887e-09
7.40725e-08
8.45917e-10
-1.75403e-09
7.37336e-08
8.17063e-10
-1.64976e-09
7.32523e-08
7.89711e-10
-1.53369e-09
7.25961e-08
7.65108e-10
-1.40983e-09
7.17225e-08
7.41886e-10
-1.26866e-09
7.05726e-08
7.21063e-10
-1.11619e-09
6.90687e-08
7.00973e-10
-9.50134e-10
6.71049e-08
6.82217e-10
-7.73448e-10
6.45413e-08
6.62714e-10
-5.89989e-10
6.11882e-08
6.42468e-10
-4.03892e-10
5.67941e-08
6.16724e-10
-2.19566e-10
5.10182e-08
5.77078e-10
-4.94984e-11
4.34074e-08
5.24309e-10
2.68886e-08
4.7428e-10
-7.48935e-10
2.5341e-08
1.47804e-09
-1.31325e-09
4.0857e-08
1.62679e-09
-1.78411e-09
4.80687e-08
1.68499e-09
-2.17947e-09
5.35877e-08
1.72556e-09
-2.50742e-09
5.78355e-08
1.74598e-09
-2.77544e-09
6.11251e-08
1.75388e-09
-2.99523e-09
6.36905e-08
1.75221e-09
-3.1655e-09
6.57052e-08
1.74484e-09
-3.29689e-09
6.72994e-08
1.73256e-09
-3.38846e-09
6.85688e-08
1.7178e-09
-3.44751e-09
6.95855e-08
1.70037e-09
-3.47271e-09
7.04022e-08
1.68211e-09
-3.46948e-09
7.10584e-08
1.66241e-09
-3.43581e-09
7.1582e-08
1.64285e-09
-3.37617e-09
7.19941e-08
1.62264e-09
-3.29268e-09
7.23081e-08
1.60321e-09
-3.18455e-09
7.25338e-08
1.58365e-09
-3.05723e-09
7.26751e-08
1.56528e-09
-2.90422e-09
7.27339e-08
1.54711e-09
-2.73334e-09
7.27066e-08
1.53036e-09
-2.54437e-09
7.25874e-08
1.51395e-09
-2.33476e-09
7.23646e-08
1.49901e-09
-2.10794e-09
7.20228e-08
1.48435e-09
-1.866e-09
7.15385e-08
1.47097e-09
-1.60837e-09
7.08814e-08
1.45754e-09
-1.33901e-09
7.00086e-08
1.44488e-09
-1.0605e-09
6.8864e-08
1.43138e-09
-7.82752e-10
6.73711e-08
1.41746e-09
-5.06088e-10
6.54288e-08
1.40098e-09
-2.46086e-10
6.29001e-08
1.38155e-09
-1.7113e-11
5.9603e-08
1.35591e-09
1.62323e-10
5.52929e-08
1.32095e-09
2.73687e-10
4.96423e-08
1.26639e-09
2.76232e-10
4.22125e-08
1.19116e-09
2.61154e-08
1.04974e-09
-7.00445e-10
2.47027e-08
1.33824e-09
-1.24326e-09
3.9876e-08
1.52393e-09
-1.70777e-09
4.69288e-08
1.60492e-09
-2.10518e-09
5.23276e-08
1.65771e-09
-2.44035e-09
5.64824e-08
1.68829e-09
-2.72036e-09
5.96996e-08
1.70468e-09
-2.94862e-09
6.22068e-08
1.71259e-09
-3.13058e-09
6.41744e-08
1.71389e-09
-3.27176e-09
6.57285e-08
1.71151e-09
-3.37298e-09
6.69641e-08
1.70585e-09
-3.43657e-09
6.79506e-08
1.69884e-09
-3.46468e-09
6.87405e-08
1.69022e-09
-3.45893e-09
6.93716e-08
1.68147e-09
-3.42179e-09
6.98725e-08
1.672e-09
-3.35296e-09
7.02625e-08
1.66308e-09
-3.25601e-09
7.05562e-08
1.65396e-09
-3.12882e-09
7.07618e-08
1.64579e-09
-2.97496e-09
7.08847e-08
1.6377e-09
-2.79876e-09
7.09252e-08
1.63072e-09
-2.59708e-09
7.08812e-08
1.62389e-09
-2.37336e-09
7.07458e-08
1.61816e-09
-2.13e-09
7.0509e-08
1.61244e-09
-1.8694e-09
7.01543e-08
1.60758e-09
-1.59275e-09
6.96604e-08
1.60238e-09
-1.30583e-09
6.89963e-08
1.59751e-09
-1.01112e-09
6.81222e-08
1.59162e-09
-7.14616e-10
6.69824e-08
1.58508e-09
-4.23793e-10
6.55043e-08
1.57615e-09
-1.47421e-10
6.35889e-08
1.56461e-09
9.8898e-11
6.11054e-08
1.54786e-09
3.0057e-10
5.78772e-08
1.52442e-09
4.34639e-10
5.36692e-08
1.48916e-09
4.78217e-10
4.81653e-08
1.4349e-09
3.88165e-10
4.09435e-08
1.35624e-09
2.53195e-08
1.18611e-09
-5.00074e-10
2.42537e-08
9.49102e-10
-9.13619e-10
3.91887e-08
1.10171e-09
-1.28674e-09
4.61313e-08
1.16922e-09
-1.61719e-09
5.1445e-08
1.21244e-09
-1.90295e-09
5.55334e-08
1.23639e-09
-2.14926e-09
5.86964e-08
1.24977e-09
-2.3573e-09
6.11588e-08
1.25576e-09
-2.52841e-09
6.30874e-08
1.25743e-09
-2.66304e-09
6.46075e-08
1.25558e-09
-2.76273e-09
6.58116e-08
1.25213e-09
-2.82824e-09
6.67692e-08
1.24714e-09
-2.86137e-09
6.75313e-08
1.24196e-09
-2.8619e-09
6.81364e-08
1.23628e-09
-2.83219e-09
6.86115e-08
1.2312e-09
-2.77344e-09
6.89773e-08
1.22619e-09
-2.68655e-09
6.9247e-08
1.22225e-09
-2.57272e-09
6.94301e-08
1.2187e-09
-2.43506e-09
6.95309e-08
1.21641e-09
-2.27721e-09
6.95509e-08
1.21463e-09
-2.09617e-09
6.94872e-08
1.21411e-09
-1.89911e-09
6.93342e-08
1.21398e-09
-1.68485e-09
6.90809e-08
1.21492e-09
-1.45959e-09
6.87126e-08
1.21594e-09
-1.22466e-09
6.82073e-08
1.2176e-09
-9.82324e-10
6.75361e-08
1.21879e-09
-7.40541e-10
6.66586e-08
1.21989e-09
-4.97752e-10
6.55222e-08
1.21961e-09
-2.67393e-10
6.40547e-08
1.218e-09
-5.28696e-11
6.21611e-08
1.21329e-09
1.3519e-10
5.97128e-08
1.20487e-09
2.81698e-10
5.65393e-08
1.18996e-09
3.76592e-10
5.24107e-08
1.16611e-09
3.92019e-10
4.70208e-08
1.12663e-09
3.08439e-10
3.99585e-08
1.06866e-09
2.46966e-08
9.32107e-10
-2.07434e-10
2.40625e-08
3.98342e-10
-4.33771e-10
3.89463e-08
4.69025e-10
-6.67075e-10
4.58637e-08
5.0066e-10
-8.97143e-10
5.11558e-08
5.18512e-10
-1.1125e-09
5.52241e-08
5.26028e-10
-1.31228e-09
5.83683e-08
5.27297e-10
-1.49135e-09
6.08118e-08
5.25171e-10
-1.64624e-09
6.27219e-08
5.20345e-10
-1.77377e-09
6.42226e-08
5.14385e-10
-1.87857e-09
6.54072e-08
5.07544e-10
-1.95368e-09
6.63444e-08
5.01021e-10
-2.00426e-09
6.70861e-08
4.94359e-10
-2.02507e-09
6.767e-08
4.88436e-10
-2.02034e-09
6.81246e-08
4.8306e-10
-1.99276e-09
6.84693e-08
4.79014e-10
-1.9398e-09
6.8719e-08
4.75875e-10
-1.86472e-09
6.8882e-08
4.7437e-10
-1.77416e-09
6.8964e-08
4.73965e-10
-1.66282e-09
6.89658e-08
4.75283e-10
-1.53882e-09
6.88855e-08
4.77676e-10
-1.40441e-09
6.87165e-08
4.81671e-10
-1.25633e-09
6.84494e-08
4.86518e-10
-1.1078e-09
6.80684e-08
4.92647e-10
-9.51744e-10
6.75528e-08
4.99216e-10
-7.95042e-10
6.68729e-08
5.06552e-10
-6.39201e-10
6.59901e-08
5.13712e-10
-4.89733e-10
6.48508e-08
5.20895e-10
-3.47081e-10
6.3385e-08
5.27013e-10
-2.15707e-10
6.14974e-08
5.32028e-10
-9.82563e-11
5.90621e-08
5.34539e-10
-2.80427e-12
5.59092e-08
5.34006e-10
6.608e-11
5.18126e-08
5.28235e-10
1.03966e-10
4.64688e-08
5.15143e-10
9.76087e-11
3.94717e-08
4.93624e-10
2.43579e-08
4.35765e-10
7.67748e-11
2.41588e-08
-1.72894e-10
3.17423e-11
3.9188e-08
-1.96863e-10
-6.9248e-11
4.61709e-08
-2.07725e-10
-2.02642e-10
5.15089e-08
-2.18171e-10
-3.55837e-10
5.5608e-08
-2.30311e-10
-5.15659e-10
5.87711e-08
-2.42745e-10
-6.74385e-10
6.12248e-08
-2.55613e-10
-8.19905e-10
6.31375e-08
-2.68281e-10
-9.53638e-10
6.46359e-08
-2.80999e-10
-1.06564e-09
6.58136e-08
-2.93181e-10
-1.15935e-09
6.67413e-08
-3.04975e-10
-1.2268e-09
6.74709e-08
-3.15407e-10
-1.27357e-09
6.80417e-08
-3.24599e-10
-1.29879e-09
6.84815e-08
-3.32024e-10
-1.30432e-09
6.88117e-08
-3.37899e-10
-1.28893e-09
6.90462e-08
-3.41638e-10
-1.25856e-09
6.91948e-08
-3.43608e-10
-1.21261e-09
6.92623e-08
-3.43298e-10
-1.15628e-09
6.92506e-08
-3.41168e-10
-1.09182e-09
6.91571e-08
-3.36801e-10
-1.01963e-09
6.89764e-08
-3.30744e-10
-9.45868e-10
6.86977e-08
-3.22682e-10
-8.70748e-10
6.83065e-08
-3.13243e-10
-7.96856e-10
6.77807e-08
-3.02179e-10
-7.2448e-10
6.70917e-08
-2.90175e-10
-6.57691e-10
6.61993e-08
-2.77029e-10
-5.936e-10
6.50508e-08
-2.63435e-10
-5.34111e-10
6.35746e-08
-2.49174e-10
-4.77871e-10
6.16759e-08
-2.34899e-10
-4.22833e-10
5.92269e-08
-2.20316e-10
-3.64122e-10
5.60577e-08
-2.05968e-10
-3.00993e-10
5.19401e-08
-1.91252e-10
-2.25608e-10
4.65691e-08
-1.75838e-10
-1.35051e-10
3.95359e-08
-1.55778e-10
2.43458e-08
-1.21812e-10
2.8352e-10
2.4499e-08
-6.24374e-10
3.7567e-10
3.98238e-08
-7.27306e-10
3.79091e-10
4.69411e-08
-7.73794e-10
3.19433e-10
5.23772e-08
-8.08872e-10
2.18861e-10
5.6546e-08
-8.37522e-10
9.39139e-11
5.97584e-08
-8.62286e-10
-4.26899e-11
6.22446e-08
-8.84133e-10
-1.77583e-10
6.41783e-08
-9.04037e-10
-3.0875e-10
6.56877e-08
-9.22078e-10
-4.27845e-10
6.68701e-08
-9.3867e-10
-5.2889e-10
6.7797e-08
-9.53525e-10
-6.13458e-10
6.85226e-08
-9.66843e-10
-6.81119e-10
6.90862e-08
-9.78153e-10
-7.28768e-10
6.95178e-08
-9.87574e-10
-7.61403e-10
6.98382e-08
-9.94637e-10
-7.78547e-10
7.00629e-08
-9.99511e-10
-7.83666e-10
7.0201e-08
-1.00178e-09
-7.78612e-10
7.02587e-08
-1.00169e-09
-7.66056e-10
7.02372e-08
-9.98926e-10
-7.49329e-10
7.01346e-08
-9.93834e-10
-7.3271e-10
6.99446e-08
-9.86186e-10
-7.14944e-10
6.96574e-08
-9.76418e-10
-7.0118e-10
6.9257e-08
-9.64382e-10
-6.9124e-10
6.8722e-08
-9.50577e-10
-6.87808e-10
6.80222e-08
-9.34877e-10
-6.88291e-10
6.71177e-08
-9.17757e-10
-6.91706e-10
6.59536e-08
-8.99034e-10
-6.94852e-10
6.44579e-08
-8.79032e-10
-6.97483e-10
6.2533e-08
-8.57301e-10
-6.83608e-10
6.00497e-08
-8.33756e-10
-6.55076e-10
5.68338e-08
-8.07386e-10
-5.8944e-10
5.2654e-08
-7.7687e-10
-4.81141e-10
4.71981e-08
-7.38419e-10
-3.1279e-10
4.00509e-08
-6.85593e-10
2.46112e-08
-5.76281e-10
3.74191e-10
2.49916e-08
-8.67142e-10
5.31494e-10
4.06774e-08
-1.01154e-09
5.91183e-10
4.79599e-08
-1.07735e-09
5.74243e-10
5.35174e-08
-1.12553e-09
5.1046e-10
5.77746e-08
-1.16334e-09
4.13169e-10
6.10502e-08
-1.19464e-09
2.97848e-10
6.35812e-08
-1.22178e-09
1.75831e-10
6.5545e-08
-1.24571e-09
5.88779e-11
6.70743e-08
-1.26731e-09
-5.30409e-11
6.82681e-08
-1.28669e-09
-1.52714e-10
6.92008e-08
-1.30415e-09
-2.38774e-10
6.99275e-08
-1.31943e-09
-3.09099e-10
7.04896e-08
-1.33264e-09
-3.65203e-10
7.09171e-08
-1.34341e-09
-4.0613e-10
7.12325e-08
-1.35179e-09
-4.38452e-10
7.14508e-08
-1.35746e-09
-4.58446e-10
7.15828e-08
-1.3605e-09
-4.73172e-10
7.16338e-08
-1.36065e-09
-4.82248e-10
7.16059e-08
-1.35812e-09
-4.94279e-10
7.14968e-08
-1.35272e-09
-5.03122e-10
7.13006e-08
-1.34475e-09
-5.19205e-10
7.10064e-08
-1.33411e-09
-5.40016e-10
7.05989e-08
-1.32116e-09
-5.6581e-10
7.00552e-08
-1.30587e-09
-6.00877e-10
6.9345e-08
-1.28861e-09
-6.40194e-10
6.84265e-08
-1.26929e-09
-6.81839e-10
6.72445e-08
-1.24817e-09
-7.24404e-10
6.57241e-08
-1.22493e-09
-7.5658e-10
6.3766e-08
-1.19947e-09
-7.7295e-10
6.12373e-08
-1.17089e-09
-7.60516e-10
5.79598e-08
-1.13821e-09
-7.0479e-10
5.36963e-08
-1.09887e-09
-5.86408e-10
4.81276e-08
-1.04817e-09
-3.8314e-10
4.0828e-08
-9.77857e-10
2.50558e-08
-8.29148e-10
3.4417e-10
2.55263e-08
-8.78816e-10
4.94948e-10
4.15484e-08
-1.02097e-09
5.55222e-10
4.89853e-08
-1.08659e-09
5.50556e-10
5.46574e-08
-1.13526e-09
5.00205e-10
5.89982e-08
-1.17317e-09
4.1957e-10
6.23345e-08
-1.20469e-09
3.25602e-10
6.49083e-08
-1.23187e-09
2.25039e-10
6.6902e-08
-1.25603e-09
1.25566e-10
6.84509e-08
-1.27773e-09
3.41668e-11
6.96571e-08
-1.29739e-09
-4.61766e-11
7.05965e-08
-1.315e-09
-1.14129e-10
7.13262e-08
-1.33064e-09
-1.68553e-10
7.18881e-08
-1.34405e-09
-2.09511e-10
7.23139e-08
-1.35522e-09
-2.39017e-10
7.26261e-08
-1.36384e-09
-2.58336e-10
7.28408e-08
-1.36993e-09
-2.73035e-10
7.29686e-08
-1.37324e-09
-2.78815e-10
7.30156e-08
-1.37382e-09
-2.85729e-10
7.29836e-08
-1.37154e-09
-2.93229e-10
7.28705e-08
-1.36656e-09
-3.02862e-10
7.267e-08
-1.35882e-09
-3.19472e-10
7.23715e-08
-1.34857e-09
-3.4422e-10
7.19586e-08
-1.33584e-09
-3.76103e-10
7.14085e-08
-1.32091e-09
-4.16697e-10
7.06895e-08
-1.30384e-09
-4.64129e-10
6.97594e-08
-1.28486e-09
-5.15991e-10
6.85608e-08
-1.2639e-09
-5.70236e-10
6.70178e-08
-1.24099e-09
-6.14697e-10
6.50282e-08
-1.21567e-09
-6.47332e-10
6.24562e-08
-1.18739e-09
-6.51598e-10
5.91194e-08
-1.15482e-09
-6.14626e-10
5.47755e-08
-1.11577e-09
-5.20736e-10
4.90976e-08
-1.0653e-09
-3.47267e-10
4.16517e-08
-9.96533e-10
2.55602e-08
-8.51387e-10
2.2977e-10
2.59927e-08
-6.96498e-10
3.19152e-10
4.22572e-08
-7.98479e-10
3.46828e-10
4.98061e-08
-8.47422e-10
3.27759e-10
5.55612e-08
-8.85391e-10
2.78346e-10
5.99627e-08
-9.15819e-10
2.12919e-10
6.33429e-08
-9.41672e-10
1.37474e-10
6.59476e-08
-9.64587e-10
6.15762e-11
6.79624e-08
-9.85295e-10
-8.84074e-12
6.95252e-08
-1.0043e-09
-6.88134e-11
7.07398e-08
-1.02171e-09
-1.18851e-10
7.16836e-08
-1.03757e-09
-1.55898e-10
7.24146e-08
-1.05171e-09
-1.79268e-10
7.29762e-08
-1.06404e-09
-1.91848e-10
7.34001e-08
-1.07431e-09
-1.93581e-10
7.37099e-08
-1.08241e-09
-1.85614e-10
7.39218e-08
-1.08812e-09
-1.7323e-10
7.40468e-08
-1.0914e-09
-1.55581e-10
7.40911e-08
-1.09211e-09
-1.39631e-10
7.40566e-08
-1.0903e-09
-1.25261e-10
7.39412e-08
-1.08592e-09
-1.12916e-10
7.37387e-08
-1.07912e-09
-1.10288e-10
7.34379e-08
-1.06996e-09
-1.1643e-10
7.30224e-08
-1.05865e-09
-1.30697e-10
7.24687e-08
-1.04532e-09
-1.54355e-10
7.17447e-08
-1.0302e-09
-1.90298e-10
7.0807e-08
-1.01341e-09
-2.31907e-10
6.95977e-08
-9.95121e-10
-2.78515e-10
6.80391e-08
-9.75258e-10
-3.21484e-10
6.60273e-08
-9.53726e-10
-3.63015e-10
6.34241e-08
-9.30022e-10
-3.84521e-10
6.00445e-08
-9.03396e-10
-3.76112e-10
5.56419e-08
-8.72128e-10
-3.31617e-10
4.98843e-08
-8.3286e-10
-2.29117e-10
4.23314e-08
-7.81692e-10
2.60079e-08
-6.7757e-10
6.96842e-11
2.63133e-08
-3.90986e-10
7.02161e-11
4.2686e-08
-4.28479e-10
4.08217e-11
5.02855e-08
-4.49957e-10
-6.79885e-12
5.60782e-08
-4.70103e-10
-6.22274e-11
6.05069e-08
-4.87916e-10
-1.20675e-10
6.39059e-08
-5.0438e-10
-1.77041e-10
6.65232e-08
-5.19965e-10
-2.24067e-10
6.85456e-08
-5.34888e-10
-2.6357e-10
7.01124e-08
-5.49166e-10
-2.88801e-10
7.13282e-08
-5.62713e-10
-2.99657e-10
7.22713e-08
-5.75338e-10
-2.99682e-10
7.30004e-08
-5.86861e-10
-2.85645e-10
7.35592e-08
-5.97023e-10
-2.59522e-10
7.39801e-08
-6.05637e-10
-2.23047e-10
7.42867e-08
-6.12475e-10
-1.79985e-10
7.44957e-08
-6.17406e-10
-1.31305e-10
7.46182e-08
-6.20274e-10
-8.03466e-11
7.46605e-08
-6.21031e-10
-2.76838e-11
7.46247e-08
-6.19631e-10
2.09582e-11
7.45086e-08
-6.16123e-10
6.3934e-11
7.43059e-08
-6.10558e-10
1.00505e-10
7.40053e-08
-6.03088e-10
1.2682e-10
7.35901e-08
-5.93857e-10
1.4212e-10
7.30365e-08
-5.8309e-10
1.45488e-10
7.23122e-08
-5.70976e-10
1.37955e-10
7.13734e-08
-5.57771e-10
1.17877e-10
7.01612e-08
-5.43664e-10
8.74915e-11
6.85975e-08
-5.28836e-10
5.05586e-11
6.65774e-08
-5.1336e-10
1.2643e-11
6.39618e-08
-4.97224e-10
-2.83686e-11
6.05638e-08
-4.80216e-10
-5.99261e-11
5.61354e-08
-4.61777e-10
-7.65176e-11
5.03424e-08
-4.40656e-10
-6.89596e-11
4.2742e-08
-4.17522e-10
2.63168e-08
-3.78427e-10
-9.19057e-11
2.64444e-08
-4.15351e-11
-1.81706e-10
4.27854e-08
-6.61803e-12
-2.70613e-10
5.03712e-08
3.11722e-12
-3.50233e-10
5.61532e-08
3.60425e-12
-4.16084e-10
6.0573e-08
4.28219e-13
-4.69083e-10
6.3964e-08
-5.00169e-12
-5.0788e-10
6.65738e-08
-1.19839e-11
-5.30584e-10
6.8589e-08
-2.01475e-11
-5.39319e-10
7.01486e-08
-2.8859e-11
-5.2921e-10
7.13576e-08
-3.77568e-11
-5.0594e-10
7.22941e-08
-4.65086e-11
-4.68131e-10
7.3017e-08
-5.47892e-11
-4.16218e-10
7.35701e-08
-6.23038e-11
-3.53387e-10
7.39859e-08
-6.88036e-11
-2.79884e-10
7.42881e-08
-7.40593e-11
-2.00448e-10
7.44937e-08
-7.79019e-11
-1.16759e-10
7.46136e-08
-8.01926e-11
-2.88949e-11
7.46544e-08
-8.08546e-11
5.82742e-11
7.4618e-08
-7.98623e-11
1.41069e-10
7.45023e-08
-7.72456e-11
2.18643e-10
7.4301e-08
-7.30792e-11
2.89654e-10
7.40029e-08
-6.74911e-11
3.49823e-10
7.35909e-08
-6.06678e-11
3.96697e-10
7.30414e-08
-5.28257e-11
4.32038e-10
7.23218e-08
-4.42179e-11
4.51183e-10
7.13883e-08
-3.51357e-11
4.56494e-10
7.0182e-08
-2.58907e-11
4.48006e-10
6.86247e-08
-1.68143e-11
4.20316e-10
6.66114e-08
-8.33661e-12
3.80537e-10
6.40033e-08
-9.89311e-13
3.26489e-10
6.06137e-08
4.83559e-12
2.58156e-10
5.61951e-08
8.48487e-12
1.77385e-10
5.0414e-08
8.75608e-12
9.09273e-11
4.28294e-08
2.89056e-13
2.64405e-08
-3.31905e-11
-2.22103e-10
2.63856e-08
2.81924e-10
-3.95203e-10
4.25716e-08
3.86024e-10
-5.37138e-10
5.00869e-08
4.25097e-10
-6.42883e-10
5.58158e-08
4.44675e-10
-7.21931e-10
6.01945e-08
4.55088e-10
-7.68931e-10
6.35534e-08
4.59962e-10
-7.95565e-10
6.61375e-08
4.61083e-10
-7.97711e-10
6.81318e-08
4.59619e-10
-7.79559e-10
6.96743e-08
4.56392e-10
-7.41589e-10
7.08687e-08
4.52076e-10
-6.89469e-10
7.1793e-08
4.47176e-10
-6.19589e-10
7.25056e-08
4.42133e-10
-5.36007e-10
7.305e-08
4.37286e-10
-4.4348e-10
7.34586e-08
4.32932e-10
-3.39024e-10
7.37551e-08
4.29308e-10
-2.27571e-10
7.39563e-08
4.26607e-10
-1.13793e-10
7.40735e-08
4.24951e-10
3.76912e-12
7.41128e-08
4.24439e-10
1.20347e-10
7.40764e-08
4.25084e-10
2.34129e-10
7.39622e-08
4.26871e-10
3.41064e-10
7.37637e-08
4.29707e-10
4.40831e-10
7.34699e-08
4.33473e-10