/*--------------------------------*- C++ -*----------------------------------*\
| =========                 |                                                 |
| \\      /  F ield         | OpenFOAM: The Open Source CFD Toolbox           |
|  \\    /   O peration     | Version:  v2012                                 |
|   \\  /    A nd           | Website:  www.openfoam.com                      |
|    \\/     M anipulation  |                                                 |
\*---------------------------------------------------------------------------*/
FoamFile
{
    version     2.0;
    format      ascii;
    class       volVectorField;
    location    "95";
    object      U;
}
// * * * * * * * * * * * * * * * * * * * * * * * * * * * * * * * * * * * * * //

dimensions      [0 1 -1 0 0 0 0];


internalField   nonuniform List<vector> 
78750
(
(-6.85307e-07 -5.65153e-05 0.000122563)
(-4.94919e-07 -8.35108e-05 0.000215109)
(-2.83164e-06 -8.95476e-05 0.000262699)
(-7.37135e-06 -8.74698e-05 0.000295767)
(-1.47424e-05 -8.05452e-05 0.000317554)
(-2.4627e-05 -7.08094e-05 0.000330658)
(-3.65223e-05 -5.97486e-05 0.000337023)
(-4.98682e-05 -4.83639e-05 0.000338201)
(-6.41991e-05 -3.73791e-05 0.000335391)
(-7.90305e-05 -2.7244e-05 0.000329601)
(-9.39525e-05 -1.82939e-05 0.00032158)
(-0.000108575 -1.06537e-05 0.000311969)
(-0.000122555 -4.44601e-06 0.000301239)
(-0.000135588 3.45101e-07 0.000289828)
(-0.000147411 3.69709e-06 0.000278058)
(-0.000157789 5.68909e-06 0.000266247)
(-0.000166524 6.34105e-06 0.000254627)
(-0.000173452 5.75293e-06 0.000243443)
(-0.000178442 3.96189e-06 0.000232868)
(-0.000181398 1.07388e-06 0.000223092)
(-0.000182248 -2.86226e-06 0.000214237)
(-0.000180935 -7.73253e-06 0.000206435)
(-0.000177441 -1.34702e-05 0.000199745)
(-0.000171772 -1.99357e-05 0.00019421)
(-0.000163954 -2.7018e-05 0.000189785)
(-0.00015404 -3.45132e-05 0.000186371)
(-0.000142106 -4.2211e-05 0.00018374)
(-0.000128238 -4.97713e-05 0.000181554)
(-0.00011256 -5.68076e-05 0.000179295)
(-9.52362e-05 -6.27455e-05 0.00017623)
(-7.63909e-05 -6.68631e-05 0.000171282)
(-5.60873e-05 -6.81341e-05 0.000162948)
(-3.49939e-05 -6.51835e-05 0.000149123)
(-1.74268e-05 -5.61289e-05 0.000126804)
(-4.54376e-06 -3.27737e-05 7.68457e-05)
(-4.2138e-07 6.30262e-05 -0.000152571)
(-1.08109e-05 0.000137233 -0.000239554)
(-2.20484e-05 0.000179245 -0.000273201)
(-3.91022e-05 0.000214157 -0.000300454)
(-5.75539e-05 0.000241862 -0.000322033)
(-7.6061e-05 0.000262823 -0.000338738)
(-9.4e-05 0.000278051 -0.000351801)
(-0.000110967 0.000288067 -0.000362456)
(-0.000126583 0.000293746 -0.000371141)
(-0.000140619 0.000295403 -0.000378399)
(-0.000152878 0.00029375 -0.000384296)
(-0.000163293 0.000288962 -0.000389157)
(-0.000171762 0.000281647 -0.000392914)
(-0.000178318 0.000271866 -0.00039582)
(-0.000182925 0.00026016 -0.000397767)
(-0.000185636 0.000246586 -0.000398948)
(-0.000186482 0.000231612 -0.000399251)
(-0.000185553 0.000215278 -0.000398846)
(-0.000182907 0.000198008 -0.000397616)
(-0.000178661 0.000179835 -0.000395707)
(-0.000172903 0.000161148 -0.000393013)
(-0.00016577 0.00014197 -0.000389656)
(-0.00015737 0.00012266 -0.000385514)
(-0.000147861 0.000103235 -0.00038066)
(-0.000137357 8.40314e-05 -0.000374924)
(-0.000126012 6.5067e-05 -0.000368275)
(-0.000113949 4.66166e-05 -0.000360417)
(-0.000101325 2.87126e-05 -0.000351077)
(-8.82655e-05 1.1661e-05 -0.000339618)
(-7.49022e-05 -4.47803e-06 -0.000325222)
(-6.12451e-05 -1.93492e-05 -0.000306446)
(-4.7064e-05 -3.26409e-05 -0.00028083)
(-3.22215e-05 -4.32637e-05 -0.000242777)
(-1.97661e-05 -4.86526e-05 -0.000185751)
(-1.13832e-05 -3.63886e-05 -6.95775e-05)
(1.30061e-06 0.000198808 -0.000133162)
(-4.37699e-06 0.000340783 -0.000221017)
(-8.87333e-06 0.000403528 -0.000256639)
(-1.6499e-05 0.000448522 -0.000280322)
(-2.47897e-05 0.00047969 -0.000296762)
(-3.29893e-05 0.000500423 -0.00030849)
(-4.08464e-05 0.0005127 -0.000317271)
(-4.81554e-05 0.000518485 -0.000323949)
(-5.4784e-05 0.000518772 -0.000329305)
(-6.06049e-05 0.0005148 -0.00033356)
(-6.55786e-05 0.000507054 -0.000337107)
(-6.96393e-05 0.000496391 -0.00033992)
(-7.28119e-05 0.000483042 -0.000342237)
(-7.50813e-05 0.00046766 -0.000343949)
(-7.64983e-05 0.000450351 -0.000345236)
(-7.70693e-05 0.000431657 -0.000345969)
(-7.68823e-05 0.000411678 -0.000346256)
(-7.59548e-05 0.000390888 -0.000345967)
(-7.43775e-05 0.000369317 -0.00034524)
(-7.21878e-05 0.000347392 -0.000343946)
(-6.9478e-05 0.000325133 -0.000342207)
(-6.62939e-05 0.000302923 -0.000339894)
(-6.27251e-05 0.000280768 -0.0003371)
(-5.88106e-05 0.000259014 -0.000333677)
(-5.46513e-05 0.000237606 -0.000329678)
(-5.02853e-05 0.000216785 -0.000324903)
(-4.5779e-05 0.000196523 -0.000319247)
(-4.1153e-05 0.000177016 -0.000312301)
(-3.64632e-05 0.000158134 -0.000303646)
(-3.16988e-05 0.000139955 -0.000292417)
(-2.68539e-05 0.000122228 -0.00027741)
(-2.17182e-05 0.000104854 -0.000256282)
(-1.60032e-05 8.73247e-05 -0.00022504)
(-1.03174e-05 6.92786e-05 -0.000178853)
(-7.36007e-06 3.78948e-05 -7.6303e-05)
(1.27363e-06 0.000274721 -3.72444e-05)
(-8.70363e-07 0.000453694 -0.000101381)
(-7.06574e-07 0.000533596 -0.000134504)
(-1.91947e-06 0.000590916 -0.000157367)
(-3.61823e-06 0.000631042 -0.000172551)
(-5.58064e-06 0.000657709 -0.000183624)
(-7.63573e-06 0.000674064 -0.000192302)
(-9.71361e-06 0.000682094 -0.00019965)
(-1.16945e-05 0.000683724 -0.000206044)
(-1.35403e-05 0.000679997 -0.000211963)
(-1.51733e-05 0.000672164 -0.000217453)
(-1.65879e-05 0.000660766 -0.00022276)
(-1.77386e-05 0.00064668 -0.000227783)
(-1.86514e-05 0.000630184 -0.000232667)
(-1.93072e-05 0.000611951 -0.000237257)
(-1.97481e-05 0.000592122 -0.000241657)
(-1.9971e-05 0.000571246 -0.000245695)
(-2.00262e-05 0.00054939 -0.000249458)
(-1.99169e-05 0.000527019 -0.000252775)
(-1.96989e-05 0.000504155 -0.000255723)
(-1.93791e-05 0.000481194 -0.000258136)
(-1.90121e-05 0.000458112 -0.000260082)
(-1.85958e-05 0.000435235 -0.000261398)
(-1.81908e-05 0.00041256 -0.000262084)
(-1.77871e-05 0.00039035 -0.000261936)
(-1.7409e-05 0.000368409 -0.000260984)
(-1.70349e-05 0.000346835 -0.000258968)
(-1.666e-05 0.00032533 -0.000255751)
(-1.62092e-05 0.00030376 -0.000250885)
(-1.56342e-05 0.000281587 -0.000243905)
(-1.47796e-05 0.000258311 -0.000233901)
(-1.33829e-05 0.000232956 -0.000219813)
(-1.0928e-05 0.000204349 -0.000199738)
(-7.51654e-06 0.000170757 -0.000169526)
(-5.93715e-06 0.000103666 -8.836e-05)
(-1.9686e-07 0.000308172 2.28961e-05)
(-1.5667e-06 0.000497537 -1.77946e-05)
(2.90667e-08 0.000583086 -4.46489e-05)
(1.47591e-06 0.000645618 -6.38749e-05)
(2.99742e-06 0.000690259 -7.6618e-05)
(4.52104e-06 0.000721289 -8.59621e-05)
(5.99107e-06 0.000741509 -9.37294e-05)
(7.38147e-06 0.000753473 -0.000100521)
(8.66565e-06 0.000758697 -0.000106859)
(9.84286e-06 0.000758776 -0.000112865)
(1.08911e-05 0.000754518 -0.000118814)
(1.18208e-05 0.00074698 -0.00012465)
(1.26044e-05 0.000736586 -0.000130521)
(1.32502e-05 0.00072409 -0.000136288)
(1.37272e-05 0.000709708 -0.000142043)
(1.4043e-05 0.000694016 -0.000147623)
(1.41662e-05 0.000677112 -0.000153091)
(1.41009e-05 0.000659461 -0.00015828)
(1.38135e-05 0.000641087 -0.000163241)
(1.33127e-05 0.000622366 -0.000167812)
(1.25677e-05 0.000603265 -0.000172039)
(1.1591e-05 0.000584093 -0.000175757)
(1.03573e-05 0.000564778 -0.000178992)
(8.89428e-06 0.00054552 -0.000181582)
(7.19804e-06 0.00052612 -0.000183544)
(5.31831e-06 0.000506606 -0.00018471)
(3.27833e-06 0.000486612 -0.000185052)
(1.15859e-06 0.000465921 -0.000184343)
(-9.75784e-07 0.000443859 -0.00018243)
(-2.99452e-06 0.000419787 -0.000178888)
(-4.7682e-06 0.000392475 -0.000173304)
(-6.00206e-06 0.000360535 -0.000165225)
(-6.17144e-06 0.000321722 -0.000154247)
(-4.77445e-06 0.000273278 -0.000136771)
(-4.41346e-06 0.000171354 -7.72228e-05)
(-8.12061e-07 0.000323371 5.38192e-05)
(-1.74219e-06 0.000512013 2.9746e-05)
(-1.09179e-07 0.000598253 9.44025e-06)
(1.7688e-06 0.000662138 -5.78268e-06)
(3.97989e-06 0.000709052 -1.59226e-05)
(6.33013e-06 0.000742712 -2.37047e-05)
(8.71584e-06 0.000766266 -3.04023e-05)
(1.1039e-05 0.000781736 -3.66468e-05)
(1.32554e-05 0.00079103 -4.25629e-05)
(1.53046e-05 0.000795238 -4.84253e-05)
(1.71622e-05 0.000795572 -5.42395e-05)
(1.87893e-05 0.000792607 -6.01462e-05)
(2.01742e-05 0.000787162 -6.60545e-05)
(2.129e-05 0.000779529 -7.204e-05)
(2.2131e-05 0.000770306 -7.79694e-05)
(2.26695e-05 0.000759622 -8.3892e-05)
(2.29139e-05 0.000747937 -8.96619e-05)
(2.28373e-05 0.000735286 -9.53155e-05)
(2.24505e-05 0.00072203 -0.000100706)
(2.17335e-05 0.000708134 -0.000105864)
(2.07054e-05 0.000693873 -0.000110647)
(1.93542e-05 0.000679138 -0.000115082)
(1.77061e-05 0.000664102 -0.000119033)
(1.57661e-05 0.000648552 -0.000122524)
(1.35798e-05 0.000632514 -0.000125417)
(1.11686e-05 0.00061562 -0.000127724)
(8.60255e-06 0.000597657 -0.000129294)
(5.93473e-06 0.000577963 -0.000130104)
(3.27462e-06 0.000555913 -0.000129938)
(7.18275e-07 0.000530319 -0.00012864)
(-1.57409e-06 0.000499822 -0.000125874)
(-3.37753e-06 0.000462309 -0.000121684)
(-4.192e-06 0.000415119 -0.000116191)
(-3.51871e-06 0.000354485 -0.000106504)
(-3.40617e-06 0.000224594 -6.31171e-05)
(-9.04816e-07 0.000324165 6.14388e-05)
(-1.44278e-06 0.000508641 4.69801e-05)
(-9.30123e-08 0.000593568 3.18419e-05)
(1.5984e-06 0.000657457 2.02199e-05)
(3.6306e-06 0.000705184 1.23577e-05)
(5.829e-06 0.000740651 6.27875e-06)
(8.08102e-06 0.000766515 8.79032e-07)
(1.03062e-05 0.00078508 -4.13211e-06)
(1.24426e-05 0.000797779 -9.06685e-06)
(1.44407e-05 0.000806014 -1.39627e-05)
(1.62563e-05 0.000810539 -1.89315e-05)
(1.78633e-05 0.000812255 -2.39241e-05)
(1.92275e-05 0.00081154 -2.90143e-05)
(2.03358e-05 0.000809012 -3.41066e-05)
(2.11617e-05 0.00080484 -3.92457e-05)
(2.17012e-05 0.000799474 -4.43154e-05)
(2.19363e-05 0.000792958 -4.93484e-05)
(2.18678e-05 0.000785632 -5.42245e-05)
(2.14858e-05 0.000777458 -5.897e-05)
(2.07989e-05 0.000768685 -6.34673e-05)
(1.98022e-05 0.000759201 -6.77404e-05)
(1.85191e-05 0.000749158 -7.16766e-05)
(1.69506e-05 0.000738351 -7.52992e-05)
(1.51311e-05 0.000726799 -7.85002e-05)
(1.30767e-05 0.000714146 -8.13007e-05)
(1.0838e-05 0.000700203 -8.35934e-05)
(8.45532e-06 0.000684354 -8.53905e-05)
(6.00729e-06 0.000666056 -8.65743e-05)
(3.56452e-06 0.000644236 -8.71136e-05)
(1.23982e-06 0.000617729 -8.68091e-05)
(-8.57568e-07 0.000584641 -8.55631e-05)
(-2.51665e-06 0.00054271 -8.34535e-05)
(-3.34553e-06 0.000488563 -8.09385e-05)
(-2.90585e-06 0.00041797 -7.56988e-05)
(-2.72286e-06 0.000265116 -4.49403e-05)
(-7.18884e-07 0.000319454 5.67925e-05)
(-9.83046e-07 0.000501136 4.82199e-05)
(-1.17635e-07 0.000585292 3.76581e-05)
(9.87977e-07 0.000649068 2.93282e-05)
(2.3337e-06 0.000697515 2.36539e-05)
(3.80277e-06 0.000734148 1.912e-05)
(5.31578e-06 0.000761869 1.50546e-05)
(6.82577e-06 0.000782583 1.11505e-05)
(8.28505e-06 0.000797993 7.37838e-06)
(9.65007e-06 0.000809112 3.6073e-06)
(1.09008e-05 0.000816987 -1.90134e-07)
(1.20047e-05 0.000822132 -4.06456e-06)
(1.29407e-05 0.000825217 -7.94908e-06)
(1.36894e-05 0.000826478 -1.18899e-05)
(1.42426e-05 0.000826372 -1.57995e-05)
(1.45821e-05 0.000824976 -1.97125e-05)
(1.47069e-05 0.000822616 -2.35359e-05)
(1.46048e-05 0.000819268 -2.72976e-05)
(1.42786e-05 0.000815163 -3.0904e-05)
(1.37277e-05 0.000810195 -3.43822e-05)
(1.29615e-05 0.000804508 -3.7641e-05)
(1.19827e-05 0.000797907 -4.07083e-05)
(1.0815e-05 0.00079042 -4.34962e-05)
(9.46736e-06 0.000781726 -4.60336e-05)
(7.97402e-06 0.000771678 -4.82353e-05)
(6.35853e-06 0.00075974 -5.01292e-05)
(4.66989e-06 0.000745475 -5.16296e-05)
(2.9518e-06 0.00072797 -5.27564e-05)
(1.27548e-06 0.000706276 -5.34011e-05)
(-2.91349e-07 0.000678816 -5.35266e-05)
(-1.64948e-06 0.000643727 -5.29938e-05)
(-2.66099e-06 0.00059825 -5.19982e-05)
(-3.02642e-06 0.00053888 -5.08779e-05)
(-2.5126e-06 0.000460732 -4.80371e-05)
(-2.12153e-06 0.000290928 -2.70578e-05)
(-6.56568e-07 0.000312138 4.89052e-05)
(-8.74317e-07 0.000492975 4.55762e-05)
(-5.17763e-07 0.000576896 3.94109e-05)
(-7.55952e-08 0.000640934 3.43616e-05)
(5.21902e-07 0.000689864 3.07958e-05)
(1.21032e-06 0.000727452 2.78846e-05)
(1.94735e-06 0.000756298 2.51571e-05)
(2.69837e-06 0.000778568 2.25301e-05)
(3.4409e-06 0.00079565 1.99032e-05)
(4.1503e-06 0.000808822 1.72929e-05)
(4.79775e-06 0.000818801 1.4654e-05)
(5.37576e-06 0.000826375 1.19966e-05)
(5.86743e-06 0.000831886 9.27782e-06)
(6.26522e-06 0.000835836 6.56039e-06)
(6.55057e-06 0.000838356 3.83398e-06)
(6.71929e-06 0.000839783 1.16753e-06)
(6.7669e-06 0.000840122 -1.47427e-06)
(6.68624e-06 0.000839599 -4.0186e-06)
(6.47681e-06 0.00083813 -6.49876e-06)
(6.14281e-06 0.000835855 -8.84234e-06)
(5.68327e-06 0.000832604 -1.10823e-05)
(5.10907e-06 0.000828419 -1.31488e-05)
(4.42748e-06 0.00082302 -1.50764e-05)
(3.65743e-06 0.000816307 -1.67981e-05)
(2.80939e-06 0.000807827 -1.83497e-05)
(1.91139e-06 0.00079725 -1.96669e-05)
(9.8471e-07 0.000783825 -2.07857e-05)
(7.12666e-08 0.00076682 -2.16422e-05)
(-7.9537e-07 0.000744956 -2.22609e-05)
(-1.56529e-06 0.000716791 -2.25516e-05)
(-2.18445e-06 0.000680101 -2.25287e-05)
(-2.55721e-06 0.000632181 -2.22898e-05)
(-2.50946e-06 0.000569101 -2.22065e-05)
(-1.93165e-06 0.000485888 -2.12339e-05)
(-1.46316e-06 0.000304727 -9.32059e-06)
(-8.08838e-07 0.000304162 4.22161e-05)
(-1.16985e-06 0.00048445 4.44131e-05)
(-1.29322e-06 0.000568262 4.25282e-05)
(-1.44654e-06 0.000632286 4.05784e-05)
(-1.48087e-06 0.000681492 3.90718e-05)
(-1.41972e-06 0.000719427 3.76396e-05)
(-1.30082e-06 0.000748914 3.61801e-05)
(-1.13825e-06 0.000771868 3.46379e-05)
(-9.53148e-07 0.000789916 3.30652e-05)
(-7.49174e-07 0.000804065 3.14243e-05)
(-5.43913e-07 0.000815276 2.97666e-05)
(-3.49446e-07 0.000824045 2.80781e-05)
(-1.74332e-07 0.000830963 2.64167e-05)
(-2.88749e-08 0.000836253 2.47538e-05)
(8.53699e-08 0.000840302 2.3106e-05)
(1.62096e-07 0.000843164 2.14484e-05)
(1.97274e-07 0.000845079 1.9843e-05)
(1.89569e-07 0.000845996 1.82561e-05)
(1.37396e-07 0.000846064 1.67461e-05)
(4.01688e-08 0.000845146 1.52782e-05)
(-9.58035e-08 0.000843301 1.39094e-05)
(-2.72514e-07 0.000840299 1.26047e-05)
(-4.81398e-07 0.000836086 1.1418e-05)
(-7.14473e-07 0.000830291 1.03095e-05)
(-9.617e-07 0.000822681 9.32791e-06)
(-1.21566e-06 0.000812658 8.42906e-06)
(-1.45821e-06 0.00079968 7.65575e-06)
(-1.67655e-06 0.000782749 6.95763e-06)
(-1.84975e-06 0.00076078 6.3716e-06)
(-1.96259e-06 0.000732066 5.84816e-06)
(-1.99031e-06 0.000694549 5.40013e-06)
(-1.89646e-06 0.000645251 4.8235e-06)
(-1.60206e-06 0.000580365 3.83189e-06)
(-1.07805e-06 0.000494635 2.80653e-06)
(-7.06003e-07 0.00030822 6.16695e-06)
(-1.04366e-06 0.000295788 3.75453e-05)
(-1.60037e-06 0.000474437 4.49473e-05)
(-2.0739e-06 0.000557453 4.66637e-05)
(-2.65384e-06 0.000621004 4.73498e-05)
(-3.09427e-06 0.00066984 4.75534e-05)
(-3.42281e-06 0.000707677 4.74067e-05)
(-3.66585e-06 0.000737107 4.69643e-05)
(-3.84805e-06 0.000760239 4.63443e-05)
(-3.97066e-06 0.000778465 4.55759e-05)
(-4.04607e-06 0.000793002 4.47356e-05)
(-4.07911e-06 0.000804571 4.38155e-05)
(-4.08133e-06 0.000813894 4.28713e-05)
(-4.05519e-06 0.000821317 4.18805e-05)
(-4.00714e-06 0.000827278 4.08946e-05)
(-3.9398e-06 0.000831896 3.99033e-05)
(-3.86081e-06 0.00083545 3.895e-05)
(-3.76768e-06 0.000837941 3.80032e-05)
(-3.66624e-06 0.000839541 3.71074e-05)
(-3.55393e-06 0.000840156 3.62289e-05)
(-3.43194e-06 0.00083987 3.54108e-05)
(-3.30186e-06 0.000838506 3.46173e-05)
(-3.16199e-06 0.000836048 3.38893e-05)
(-3.01076e-06 0.000832207 3.31877e-05)
(-2.8443e-06 0.000826831 3.25494e-05)
(-2.66158e-06 0.000819454 3.19303e-05)
(-2.46114e-06 0.000809697 3.13603e-05)
(-2.24113e-06 0.000796793 3.07853e-05)
(-1.9949e-06 0.000779962 3.02196e-05)
(-1.72984e-06 0.000757909 2.959e-05)
(-1.44139e-06 0.000729143 2.88825e-05)
(-1.14178e-06 0.000691421 2.79711e-05)
(-8.33138e-07 0.000641982 2.6682e-05)
(-5.14235e-07 0.000576872 2.46038e-05)
(-1.58402e-07 0.00049105 2.16948e-05)
(-3.54641e-09 0.000304596 1.776e-05)
(-1.18512e-06 0.000287265 3.30579e-05)
(-1.85895e-06 0.000462618 4.37758e-05)
(-2.52351e-06 0.000544148 4.78049e-05)
(-3.30735e-06 0.000606519 5.01612e-05)
(-3.9409e-06 0.000654549 5.1502e-05)
(-4.43532e-06 0.000691713 5.21739e-05)
(-4.83916e-06 0.000720732 5.24301e-05)
(-5.16053e-06 0.000743491 5.23899e-05)
(-5.41179e-06 0.000761542 5.2178e-05)
(-5.59553e-06 0.000775885 5.18304e-05)
(-5.72137e-06 0.000787421 5.14194e-05)
(-5.78934e-06 0.000796658 5.09451e-05)
(-5.8082e-06 0.00080413 5.04584e-05)
(-5.77514e-06 0.000810067 4.99444e-05)
(-5.69771e-06 0.000814792 4.94452e-05)
(-5.57623e-06 0.000818372 4.89386e-05)
(-5.41676e-06 0.000821002 4.84616e-05)
(-5.21876e-06 0.000822644 4.79876e-05)
(-4.98456e-06 0.000823402 4.75507e-05)
(-4.71364e-06 0.000823151 4.71207e-05)
(-4.41275e-06 0.000821912 4.67286e-05)
(-4.0796e-06 0.000819468 4.63413e-05)
(-3.71473e-06 0.000815728 4.59854e-05)
(-3.32283e-06 0.000810343 4.56229e-05)
(-2.90453e-06 0.000803052 4.5274e-05)
(-2.46404e-06 0.000793283 4.48915e-05)
(-2.00394e-06 0.000780485 4.44815e-05)
(-1.53788e-06 0.000763702 4.39764e-05)
(-1.07068e-06 0.000741866 4.33514e-05)
(-6.17402e-07 0.000713338 4.24946e-05)
(-2.02345e-07 0.000676124 4.13031e-05)
(1.37228e-07 0.000627364 3.95045e-05)
(3.69128e-07 0.000563394 3.66999e-05)
(5.31376e-07 0.000479165 3.24796e-05)
(4.8408e-07 0.000296583 2.37884e-05)
(-1.09314e-06 0.000279272 2.71535e-05)
(-1.74212e-06 0.000450572 3.83055e-05)
(-2.40072e-06 0.000530181 4.2973e-05)
(-3.18364e-06 0.000591147 4.58689e-05)
(-3.81863e-06 0.000638042 4.75711e-05)
(-4.33449e-06 0.000674392 4.85562e-05)
(-4.75223e-06 0.000702702 4.90746e-05)
(-5.09387e-06 0.000724966 4.93062e-05)
(-5.3611e-06 0.000742538 4.93335e-05)
(-5.56384e-06 0.000756559 4.92468e-05)
(-5.69901e-06 0.000767743 4.90709e-05)
(-5.77652e-06 0.000776752 4.88591e-05)
(-5.79267e-06 0.000783941 4.8611e-05)
(-5.75776e-06 0.000789702 4.83643e-05)
(-5.66728e-06 0.000794183 4.8107e-05)
(-5.52913e-06 0.000797617 4.78696e-05)
(-5.34068e-06 0.000800026 4.76343e-05)
(-5.10569e-06 0.00080154 4.74271e-05)
(-4.82921e-06 0.000802092 4.72262e-05)
(-4.513e-06 0.000801729 4.70548e-05)
(-4.15695e-06 0.000800301 4.68871e-05)
(-3.76607e-06 0.000797764 4.67426e-05)
(-3.34438e-06 0.000793862 4.65917e-05)
(-2.89427e-06 0.000788423 4.64484e-05)
(-2.42295e-06 0.000781026 4.62768e-05)
(-1.9344e-06 0.000771288 4.60808e-05)
(-1.43945e-06 0.000758506 4.58106e-05)
(-9.44801e-07 0.000741926 4.54484e-05)
(-4.67367e-07 0.000720354 4.49118e-05)
(-2.31144e-08 0.000692371 4.41335e-05)
(3.57486e-07 0.000655903 4.29525e-05)
(6.36753e-07 0.000608345 4.11494e-05)
(7.62862e-07 0.000546038 3.82952e-05)
(7.94294e-07 0.000464243 3.39128e-05)
(6.44626e-07 0.000287141 2.38724e-05)
(-7.7902e-07 0.000272856 1.9159e-05)
(-1.26885e-06 0.000440611 2.77798e-05)
(-1.78929e-06 0.000518605 3.15541e-05)
(-2.41957e-06 0.000578286 3.39079e-05)
(-2.95767e-06 0.000624238 3.52906e-05)
(-3.40064e-06 0.000659784 3.60769e-05)
(-3.77978e-06 0.000687499 3.65054e-05)
(-4.0929e-06 0.000709205 3.6692e-05)
(-4.34961e-06 0.000726361 3.67338e-05)
(-4.54344e-06 0.00073995 3.6673e-05)
(-4.68206e-06 0.000750809 3.65631e-05)
(-4.76294e-06 0.000759451 3.64155e-05)
(-4.79148e-06 0.000766363 3.62638e-05)
(-4.76525e-06 0.000771793 3.61057e-05)
(-4.69194e-06 0.000776026 3.59661e-05)
(-4.56841e-06 0.000779153 3.5836e-05)
(-4.40101e-06 0.000781338 3.57352e-05)
(-4.1892e-06 0.000782567 3.56506e-05)
(-3.94224e-06 0.000782918 3.55982e-05)
(-3.65778e-06 0.000782297 3.55618e-05)
(-3.34128e-06 0.000780698 3.55539e-05)
(-2.99668e-06 0.00077794 3.55549e-05)
(-2.62835e-06 0.000773915 3.55733e-05)
(-2.24309e-06 0.000768316 3.55853e-05)
(-1.84257e-06 0.000760874 3.55934e-05)
(-1.43746e-06 0.000751078 3.55662e-05)
(-1.02957e-06 0.000738389 3.5495e-05)
(-6.33131e-07 0.000721937 3.53314e-05)
(-2.56891e-07 0.000700706 3.50408e-05)
(8.32265e-08 0.00067319 3.45368e-05)
(3.69627e-07 0.000637516 3.37219e-05)
(5.67681e-07 0.00059104 3.24011e-05)
(6.44081e-07 0.000530353 3.02775e-05)
(6.40033e-07 0.000450762 2.69246e-05)
(5.11858e-07 0.000278719 1.88544e-05)
(-3.2383e-07 0.000269111 9.94518e-06)
(-5.94413e-07 0.000435138 1.40618e-05)
(-8.88167e-07 0.000512298 1.59177e-05)
(-1.29822e-06 0.000571361 1.70366e-05)
(-1.68282e-06 0.000616771 1.76184e-05)
(-2.03471e-06 0.000651906 1.78856e-05)
(-2.34983e-06 0.000679216 1.79567e-05)
(-2.63075e-06 0.000700607 1.79109e-05)
(-2.86582e-06 0.000717419 1.77877e-05)
(-3.06092e-06 0.000730734 1.76354e-05)
(-3.21055e-06 0.000741273 1.74703e-05)
(-3.31661e-06 0.000749658 1.7304e-05)
(-3.37431e-06 0.000756265 1.71356e-05)
(-3.38863e-06 0.00076145 1.6991e-05)
(-3.35982e-06 0.00076539 1.68662e-05)
(-3.29231e-06 0.000768287 1.67764e-05)
(-3.18403e-06 0.000770194 1.67164e-05)
(-3.04511e-06 0.000771214 1.6698e-05)
(-2.87473e-06 0.00077131 1.67122e-05)
(-2.67753e-06 0.000770507 1.67674e-05)
(-2.46055e-06 0.000768686 1.6852e-05)
(-2.22326e-06 0.000765784 1.69711e-05)
(-1.97484e-06 0.00076158 1.711e-05)
(-1.71903e-06 0.000755887 1.72705e-05)
(-1.45713e-06 0.000748331 1.74343e-05)
(-1.19456e-06 0.00073852 1.75986e-05)
(-9.39252e-07 0.000725815 1.77394e-05)
(-6.93111e-07 0.000709474 1.78453e-05)
(-4.64033e-07 0.000688391 1.78803e-05)
(-2.52917e-07 0.000661198 1.78142e-05)
(-7.50798e-08 0.000625954 1.75818e-05)
(6.26538e-08 0.00058017 1.71041e-05)
(1.47016e-07 0.000520412 1.62302e-05)
(2.05476e-07 0.000442172 1.47499e-05)
(1.77608e-07 0.00027312 1.08501e-05)
(1.19484e-07 0.000268635 1.07774e-06)
(5.66759e-08 0.000435225 2.53409e-07)
(-1.92306e-08 0.000512649 -2.77066e-08)
(-2.12039e-07 0.000571849 -3.03944e-07)
(-4.6062e-07 0.000617351 -6.20883e-07)
(-7.27169e-07 0.00065248 -9.5786e-07)
(-9.97928e-07 0.000679772 -1.29976e-06)
(-1.25278e-06 0.000701065 -1.64532e-06)
(-1.48931e-06 0.000717787 -1.9867e-06)
(-1.69455e-06 0.000730944 -2.32853e-06)
(-1.8675e-06 0.000741347 -2.65825e-06)
(-2.00146e-06 0.000749537 -2.95834e-06)
(-2.09776e-06 0.000755979 -3.21322e-06)
(-2.15606e-06 0.00076095 -3.42957e-06)
(-2.18206e-06 0.000764715 -3.59551e-06)
(-2.17193e-06 0.000767396 -3.71242e-06)
(-2.13306e-06 0.000769133 -3.774e-06)
(-2.06795e-06 0.000769946 -3.78342e-06)
(-1.98125e-06 0.000769888 -3.73648e-06)
(-1.87914e-06 0.000768897 -3.63858e-06)
(-1.76356e-06 0.000766943 -3.48798e-06)
(-1.64101e-06 0.000763877 -3.29251e-06)
(-1.51506e-06 0.000759566 -3.05246e-06)
(-1.39058e-06 0.000753738 -2.77719e-06)
(-1.26703e-06 0.000746103 -2.46826e-06)
(-1.15135e-06 0.000736186 -2.13573e-06)
(-1.04117e-06 0.000723432 -1.78087e-06)
(-9.39179e-07 0.000707018 -1.41198e-06)
(-8.42289e-07 0.000685921 -1.02818e-06)
(-7.52109e-07 0.000658693 -6.33233e-07)
(-6.58648e-07 0.00062348 -2.19366e-07)
(-5.57169e-07 0.000577719 2.28066e-07)
(-4.27513e-07 0.000518058 7.48042e-07)
(-2.79565e-07 0.000439932 1.35731e-06)
(-1.9284e-07 0.000271229 2.27221e-06)
(4.51278e-07 0.000271317 -5.89844e-06)
(5.26589e-07 0.000440572 -1.07573e-05)
(6.2875e-07 0.000519192 -1.28377e-05)
(6.0153e-07 0.00057928 -1.43056e-05)
(4.64946e-07 0.000625381 -1.54004e-05)
(2.67398e-07 0.00066094 -1.62592e-05)
(4.45847e-08 0.000688479 -1.69645e-05)
(-1.87005e-07 0.000709931 -1.75623e-05)
(-4.10609e-07 0.000726691 -1.80833e-05)
(-6.22344e-07 0.000739851 -1.85416e-05)
(-8.0591e-07 0.000750179 -1.89481e-05)
(-9.62481e-07 0.000758292 -1.93037e-05)
(-1.08852e-06 0.000764603 -1.96089e-05)
(-1.18502e-06 0.000769462 -1.98585e-05)
(-1.25078e-06 0.000773074 -2.00511e-05)
(-1.29164e-06 0.000775632 -2.0182e-05)
(-1.30872e-06 0.000777215 -2.02502e-05)
(-1.30747e-06 0.00077791 -2.02526e-05)
(-1.29164e-06 0.000777708 -2.01906e-05)
(-1.2654e-06 0.000776611 -2.00634e-05)
(-1.23666e-06 0.000774526 -1.98744e-05)
(-1.20671e-06 0.000771366 -1.96249e-05)
(-1.17969e-06 0.000766933 -1.93196e-05)
(-1.15906e-06 0.000761014 -1.89608e-05)
(-1.1482e-06 0.000753252 -1.85524e-05)
(-1.14546e-06 0.000743228 -1.8094e-05)
(-1.1502e-06 0.000730317 -1.75846e-05)
(-1.15636e-06 0.000713744 -1.70148e-05)
(-1.16479e-06 0.000692411 -1.63687e-05)
(-1.15843e-06 0.000664911 -1.56143e-05)
(-1.13026e-06 0.000629302 -1.46989e-05)
(-1.04826e-06 0.000583046 -1.35194e-05)
(-8.77936e-07 0.000522681 -1.18959e-05)
(-6.46292e-07 0.000443638 -9.6116e-06)
(-4.84228e-07 0.000272903 -4.7704e-06)
(6.07496e-07 0.000276311 -1.00281e-05)
(7.3403e-07 0.000449478 -1.70652e-05)
(9.27795e-07 0.000529898 -2.01238e-05)
(9.92944e-07 0.000591293 -2.224e-05)
(9.2417e-07 0.000638356 -2.37578e-05)
(7.81221e-07 0.000674586 -2.49055e-05)
(5.96754e-07 0.000702608 -2.58168e-05)
(3.95112e-07 0.000724368 -2.65681e-05)
(1.92266e-07 0.000741341 -2.72062e-05)
(8.92202e-11 0.000754604 -2.77582e-05)
(-1.7872e-07 0.00076499 -2.82383e-05)
(-3.3345e-07 0.00077309 -2.86532e-05)
(-4.64645e-07 0.000779376 -2.90046e-05)
(-5.69399e-07 0.000784163 -2.92917e-05)
(-6.49703e-07 0.00078771 -2.95124e-05)
(-7.09816e-07 0.000790172 -2.96642e-05)
(-7.52181e-07 0.000791678 -2.97452e-05)
(-7.79896e-07 0.000792272 -2.9754e-05)
(-7.98058e-07 0.000791992 -2.96907e-05)
(-8.14875e-07 0.000790797 -2.95556e-05)
(-8.30586e-07 0.000788637 -2.93507e-05)
(-8.50508e-07 0.000785378 -2.90781e-05)
(-8.80868e-07 0.000780863 -2.87408e-05)
(-9.1912e-07 0.000774828 -2.83408e-05)
(-9.69874e-07 0.000766952 -2.78796e-05)
(-1.03336e-06 0.000756761 -2.73549e-05)
(-1.10134e-06 0.000743658 -2.67603e-05)
(-1.17469e-06 0.000726807 -2.60803e-05)
(-1.23962e-06 0.000705123 -2.52872e-05)
(-1.28655e-06 0.000677128 -2.43324e-05)
(-1.29646e-06 0.00064087 -2.31363e-05)
(-1.23791e-06 0.000593716 -2.1551e-05)
(-1.05974e-06 0.000532156 -1.93208e-05)
(-7.91798e-07 0.000451491 -1.61221e-05)
(-6.14988e-07 0.000277238 -9.11975e-06)
(5.78692e-07 0.000282381 -1.11328e-05)
(6.72357e-07 0.00045968 -1.82187e-05)
(8.66224e-07 0.000541989 -2.13199e-05)
(9.40336e-07 0.000604791 -2.34676e-05)
(8.94853e-07 0.000652868 -2.50033e-05)
(7.76561e-07 0.000689843 -2.61636e-05)
(6.25026e-07 0.000718382 -2.70835e-05)
(4.58931e-07 0.00074051 -2.78428e-05)
(2.89561e-07 0.000757715 -2.84877e-05)
(1.2792e-07 0.000771132 -2.90464e-05)
(-1.57461e-08 0.000781591 -2.95332e-05)
(-1.40693e-07 0.000789731 -2.99552e-05)
(-2.42111e-07 0.000796006 -3.03137e-05)
(-3.21704e-07 0.000800775 -3.06084e-05)
(-3.79326e-07 0.000804274 -3.08362e-05)
(-4.19251e-07 0.000806692 -3.09959e-05)
(-4.46186e-07 0.000808136 -3.10842e-05)
(-4.61937e-07 0.000808681 -3.11006e-05)
(-4.71231e-07 0.000808338 -3.10439e-05)
(-4.8182e-07 0.000807094 -3.09158e-05)
(-4.95134e-07 0.000804869 -3.07167e-05)
(-5.15791e-07 0.000801555 -3.04503e-05)
(-5.4983e-07 0.000796961 -3.01181e-05)
(-5.96532e-07 0.000790846 -2.97231e-05)
(-6.57475e-07 0.00078285 -2.92657e-05)
(-7.31429e-07 0.000772515 -2.8745e-05)
(-8.15982e-07 0.000759201 -2.8153e-05)
(-9.06215e-07 0.000742075 -2.74757e-05)
(-9.92342e-07 0.000719999 -2.66835e-05)
(-1.06146e-06 0.000691481 -2.57299e-05)
(-1.10057e-06 0.000654495 -2.45325e-05)
(-1.07088e-06 0.000606369 -2.29476e-05)
(-9.32325e-07 0.000543478 -2.07198e-05)
(-6.98237e-07 0.000461036 -1.75233e-05)
(-5.78247e-07 0.00028289 -1.04655e-05)
(4.14122e-07 0.00028823 -9.7956e-06)
(4.23265e-07 0.000468926 -1.51217e-05)
(5.48799e-07 0.000552801 -1.74694e-05)
(5.75864e-07 0.000616759 -1.91183e-05)
(5.17138e-07 0.00066569 -2.03229e-05)
(4.15012e-07 0.000703276 -2.12538e-05)
(2.92789e-07 0.000732257 -2.20113e-05)
(1.63775e-07 0.000754684 -2.26508e-05)
(3.97277e-08 0.000772095 -2.32069e-05)
(-7.03226e-08 0.000785635 -2.36971e-05)
(-1.62829e-07 0.000796171 -2.41316e-05)
(-2.35788e-07 0.000804338 -2.45124e-05)
(-2.85802e-07 0.000810622 -2.48401e-05)
(-3.15416e-07 0.00081537 -2.51113e-05)
(-3.2629e-07 0.000818847 -2.53239e-05)
(-3.19934e-07 0.000821228 -2.5474e-05)
(-3.01662e-07 0.000822641 -2.55599e-05)
(-2.75314e-07 0.000823146 -2.55793e-05)
(-2.45954e-07 0.000822772 -2.55325e-05)
(-2.19194e-07 0.00082149 -2.54191e-05)
(-1.96046e-07 0.000819235 -2.5242e-05)
(-1.81946e-07 0.000815878 -2.50026e-05)
(-1.84756e-07 0.000811244 -2.47053e-05)
(-2.00761e-07 0.000805064 -2.4352e-05)
(-2.32863e-07 0.000796992 -2.39462e-05)
(-2.82933e-07 0.000786539 -2.34872e-05)
(-3.48565e-07 0.000773068 -2.2973e-05)
(-4.24073e-07 0.00075571 -2.23929e-05)
(-5.00786e-07 0.000733321 -2.1729e-05)
(-5.7617e-07 0.000704359 -2.09463e-05)
(-6.34082e-07 0.000666774 -1.99877e-05)
(-6.4565e-07 0.000617823 -1.87468e-05)
(-5.80476e-07 0.000553822 -1.70409e-05)
(-4.33686e-07 0.000469881 -1.46261e-05)
(-4.10715e-07 0.000288481 -9.31845e-06)
(1.73023e-07 0.000292765 -6.94727e-06)
(7.83807e-08 0.000475499 -9.36077e-06)
(9.17192e-08 0.000560313 -1.04434e-05)
(3.4414e-08 0.000624972 -1.12526e-05)
(-5.44693e-08 0.000674409 -1.18978e-05)
(-1.53865e-07 0.000712363 -1.24426e-05)
(-2.52071e-07 0.000741595 -1.29226e-05)
(-3.39722e-07 0.000764195 -1.33585e-05)
(-4.12992e-07 0.000781711 -1.37602e-05)
(-4.67581e-07 0.000795314 -1.41319e-05)
(-4.98003e-07 0.000805872 -1.44724e-05)
(-5.06704e-07 0.000814044 -1.478e-05)
(-4.94767e-07 0.00082031 -1.50493e-05)
(-4.60405e-07 0.000825037 -1.52766e-05)
(-4.07031e-07 0.000828483 -1.54565e-05)
(-3.39685e-07 0.000830838 -1.55861e-05)
(-2.617e-07 0.000832219 -1.56613e-05)
(-1.77163e-07 0.000832703 -1.56812e-05)
(-8.94647e-08 0.000832306 -1.56446e-05)
(-3.48099e-09 0.00083101 -1.55526e-05)
(7.4191e-08 0.000828739 -1.54065e-05)
(1.41592e-07 0.000825374 -1.521e-05)
(1.94946e-07 0.000820722 -1.49663e-05)
(2.30329e-07 0.000814526 -1.46807e-05)
(2.46201e-07 0.000806418 -1.43571e-05)
(2.42553e-07 0.000795916 -1.40004e-05)
(2.19144e-07 0.00078236 -1.36127e-05)
(1.76535e-07 0.000764883 -1.31947e-05)
(1.18357e-07 0.000742312 -1.27414e-05)
(5.46579e-08 0.000713098 -1.22431e-05)
(-1.58361e-08 0.000675153 -1.16779e-05)
(-7.8425e-08 0.000625714 -1.10053e-05)
(-1.10599e-07 0.000561042 -1.01532e-05)
(-8.34105e-08 0.000476205 -9.01931e-06)
(-1.69482e-07 0.000292856 -6.6151e-06)
(-7.86145e-08 0.000295308 -3.64141e-06)
(-2.63498e-07 0.000478459 -2.73591e-06)
(-3.72591e-07 0.000563475 -2.36831e-06)
(-5.18987e-07 0.000628273 -2.20819e-06)
(-6.45282e-07 0.000677808 -2.20484e-06)
(-7.4608e-07 0.000715816 -2.29751e-06)
(-8.22783e-07 0.000745076 -2.45127e-06)
(-8.74594e-07 0.000767673 -2.64438e-06)
(-9.00644e-07 0.000785173 -2.86119e-06)
(-8.99506e-07 0.000798741 -3.08842e-06)
(-8.71559e-07 0.00080926 -3.3151e-06)
(-8.19697e-07 0.000817383 -3.53125e-06)