/*--------------------------------*- C++ -*----------------------------------*\
| =========                 |                                                 |
| \\      /  F ield         | OpenFOAM: The Open Source CFD Toolbox           |
|  \\    /   O peration     | Version:  v2012                                 |
|   \\  /    A nd           | Website:  www.openfoam.com                      |
|    \\/     M anipulation  |                                                 |
\*---------------------------------------------------------------------------*/
FoamFile
{
    version     2.0;
    format      ascii;
    class       surfaceScalarField;
    location    "81";
    object      phi;
}
// * * * * * * * * * * * * * * * * * * * * * * * * * * * * * * * * * * * * * //

dimensions      [1 0 -1 0 0 0 0];
oriented        oriented;


internalField   nonuniform List<scalar> 
228225
(
-1.12731e-09
-3.7379e-11
9.23604e-10
-2.98342e-09
3.52828e-09
-1.67002e-09
-6.83897e-09
6.04198e-09
-2.18858e-09
-1.28758e-08
8.31992e-09
-2.28043e-09
-2.08832e-08
1.03638e-08
-2.35858e-09
-3.04744e-08
1.21173e-08
-2.52538e-09
-4.12598e-08
1.35713e-08
-2.78733e-09
-5.28273e-08
1.47084e-08
-3.13949e-09
-6.48178e-08
1.55465e-08
-3.55758e-09
-7.68738e-08
1.60897e-08
-4.03256e-09
-8.86954e-08
1.63661e-08
-4.54379e-09
-9.99958e-08
1.63845e-08
-5.08458e-09
-1.10533e-07
1.61752e-08
-5.63792e-09
-1.20082e-07
1.57505e-08
-6.20036e-09
-1.28468e-07
1.51431e-08
-6.75778e-09
-1.35525e-07
1.43639e-08
-7.308e-09
-1.41127e-07
1.34437e-08
-7.83861e-09
-1.45175e-07
1.23928e-08
-8.34798e-09
-1.47585e-07
1.12387e-08
-8.82603e-09
-1.48311e-07
9.99129e-09
-9.26686e-09
-1.47322e-07
8.67441e-09
-9.6635e-09
-1.44598e-07
7.29482e-09
-1.00149e-08
-1.40165e-07
5.87621e-09
-1.03116e-08
-1.34041e-07
4.42988e-09
-1.0553e-08
-1.26289e-07
2.97899e-09
-1.07328e-08
-1.1697e-07
1.536e-09
-1.08527e-08
-1.06199e-07
1.37715e-10
-1.09098e-08
-9.40569e-08
-1.23312e-09
-1.0909e-08
-8.06977e-08
-2.50926e-09
-1.08505e-08
-6.6287e-08
-3.66991e-09
-1.07386e-08
-5.10644e-08
-4.66502e-09
-1.05603e-08
-3.53677e-08
-5.43027e-09
-1.02646e-08
-1.98786e-08
-5.83856e-09
-9.65218e-09
-6.13508e-09
-5.69759e-09
-8.0428e-09
-3.89806e-09
-2.23813e-09
-3.2114e-09
1.5417e-08
-1.22442e-08
-1.36214e-08
2.77611e-08
-1.38207e-08
-2.66279e-08
3.36406e-08
-1.45936e-08
-4.10081e-08
3.80619e-08
-1.53603e-08
-5.58686e-08
4.12472e-08
-1.60252e-08
-7.05811e-08
4.34229e-08
-1.65923e-08
-8.46728e-08
4.47652e-08
-1.71016e-08
-9.782e-08
4.54225e-08
-1.7568e-08
-1.09774e-07
4.55067e-08
-1.80043e-08
-1.20388e-07
4.51113e-08
-1.84104e-08
-1.29537e-07
4.431e-08
-1.8793e-08
-1.37172e-07
4.31675e-08
-1.91485e-08
-1.4325e-07
4.17333e-08
-1.94815e-08
-1.47767e-07
4.00561e-08
-1.97871e-08
-1.50731e-07
3.81761e-08
-2.00685e-08
-1.52179e-07
3.61308e-08
-2.03206e-08
-1.52141e-07
3.39538e-08
-2.0546e-08
-1.50685e-07
3.16761e-08
-2.074e-08
-1.47875e-07
2.93304e-08
-2.09048e-08
-1.43789e-07
2.69438e-08
-2.10358e-08
-1.38515e-07
2.45352e-08
-2.11347e-08
-1.32154e-07
2.21288e-08
-2.11976e-08
-1.24796e-07
1.97462e-08
-2.12258e-08
-1.1656e-07
1.74073e-08
-2.12145e-08
-1.07548e-07
1.51302e-08
-2.11635e-08
-9.78743e-08
1.29314e-08
-2.10674e-08
-8.76391e-08
1.08256e-08
-2.0924e-08
-7.69772e-08
8.82554e-09
-2.07216e-08
-6.59787e-08
6.943e-09
-2.04494e-08
-5.47516e-08
5.18882e-09
-2.00857e-08
-4.33839e-08
3.57455e-09
-1.96073e-08
-3.19623e-08
2.11994e-09
-1.89723e-08
-2.06017e-08
8.61206e-10
-1.80608e-08
-9.67769e-09
-7.56258e-11
-1.65463e-08
-4.0967e-10
-1.31649e-08
-1.38462e-09
2.62697e-08
-9.46994e-09
-6.19359e-09
4.38612e-08
-1.12886e-08
-1.21314e-08
5.1644e-08
-1.20654e-08
-1.85948e-08
5.71816e-08
-1.26571e-08
-2.51807e-08
6.09673e-08
-1.31346e-08
-3.16057e-08
6.33983e-08
-1.35502e-08
-3.76754e-08
6.47595e-08
-1.39249e-08
-4.32475e-08
6.52745e-08
-1.42803e-08
-4.82303e-08
6.51093e-08
-1.46196e-08
-5.25607e-08
6.43949e-08
-1.49529e-08
-5.62067e-08
6.32321e-08
-1.52765e-08
-5.91472e-08
6.17036e-08
-1.55951e-08
-6.13869e-08
5.98753e-08
-1.59024e-08
-6.29347e-08
5.78041e-08
-1.62013e-08
-6.38097e-08
5.55372e-08
-1.64848e-08
-6.40429e-08
5.31167e-08
-1.67551e-08
-6.36607e-08
5.05793e-08
-1.70054e-08
-6.27055e-08
4.7958e-08
-1.72376e-08
-6.122e-08
4.52871e-08
-1.74442e-08
-5.92413e-08
4.25924e-08
-1.7627e-08
-5.68248e-08
3.99021e-08
-1.77818e-08
-5.40287e-08
3.72414e-08
-1.79092e-08
-5.09085e-08
3.46294e-08
-1.80039e-08
-4.75172e-08
3.20814e-08
-1.80668e-08
-4.39042e-08
2.96104e-08
-1.80926e-08
-4.01124e-08
2.72209e-08
-1.80807e-08
-3.61818e-08
2.49179e-08
-1.80241e-08
-3.21384e-08
2.2701e-08
-1.79183e-08
-2.80068e-08
2.05627e-08
-1.77505e-08
-2.3799e-08
1.84875e-08
-1.75076e-08
-1.95085e-08
1.64478e-08
-1.7164e-08
-1.51121e-08
1.44036e-08
-1.66794e-08
-1.05815e-08
1.22909e-08
-1.59611e-08
-5.86442e-09
1.0018e-08
-1.48105e-08
5.84882e-09
-1.21229e-08
-8.7716e-10
3.10056e-08
-3.85867e-09
-2.08023e-09
5.05547e-08
-5.491e-09
-3.37481e-09
5.92878e-08
-6.34714e-09
-4.82705e-09
6.5551e-08
-6.92e-09
-6.41095e-09
6.99143e-08
-7.36147e-09
-8.0649e-09
7.2805e-08
-7.75359e-09
-9.71207e-09
7.4542e-08
-8.13445e-09
-1.12971e-08
7.53686e-08
-8.51008e-09
-1.27689e-08
7.5473e-08
-8.89268e-09
-1.40916e-08
7.49985e-08
-9.28006e-09
-1.52407e-08
7.40595e-08
-9.67836e-09
-1.62016e-08
7.2745e-08
-1.00808e-08
-1.69652e-08
7.11291e-08
-1.04902e-08
-1.75328e-08
6.92707e-08
-1.08981e-08
-1.79126e-08
6.72212e-08
-1.13057e-08
-1.81117e-08
6.50228e-08
-1.17043e-08
-1.81525e-08
6.27128e-08
-1.20946e-08
-1.80495e-08
6.03232e-08
-1.24684e-08
-1.78186e-08
5.78818e-08
-1.2826e-08
-1.74785e-08
5.54133e-08
-1.31603e-08
-1.70557e-08
5.29493e-08
-1.34692e-08
-1.65778e-08
5.05081e-08
-1.3746e-08
-1.60607e-08
4.8103e-08
-1.3991e-08
-1.55224e-08
4.57426e-08
-1.41981e-08
-1.49765e-08
4.34312e-08
-1.43668e-08
-1.44273e-08
4.1162e-08
-1.44921e-08
-1.38607e-08
3.89254e-08
-1.45722e-08
-1.32613e-08
3.67012e-08
-1.45997e-08
-1.25869e-08
3.44558e-08
-1.45696e-08
-1.17674e-08
3.2139e-08
-1.44689e-08
-1.0712e-08
2.96752e-08
-1.42834e-08
-9.27769e-09
2.69614e-08
-1.39928e-08
-7.24447e-09
2.38421e-08
-1.35831e-08
-4.39624e-09
2.01309e-08
-1.29632e-08
1.26142e-08
-1.11605e-08
-1.73648e-09
3.27669e-08
-2.355e-11
-1.90342e-09
5.1971e-08
-1.25065e-09
-1.28176e-09
6.06861e-08
-2.02009e-09
-2.86413e-10
6.70743e-08
-2.51868e-09
8.65227e-10
7.16548e-08
-2.89156e-09
2.07328e-09
7.48349e-08
-3.23966e-09
3.28485e-09
7.69182e-08
-3.58759e-09
4.46018e-09
7.81407e-08
-3.94824e-09
5.57248e-09
7.86802e-08
-4.31894e-09
6.60148e-09
7.86772e-08
-4.70673e-09
7.5299e-09
7.82372e-08
-5.10694e-09
8.34945e-09
7.74476e-08
-5.52254e-09
9.04958e-09
7.63753e-08
-5.94587e-09
9.61915e-09
7.5078e-08
-6.37806e-09
1.00514e-08
7.36005e-08
-6.81055e-09
1.03335e-08
7.19829e-08
-7.24351e-09
1.04594e-08
7.02569e-08
-7.66842e-09
1.04146e-08
6.84513e-08
-8.08503e-09
1.01945e-08
6.65887e-08
-8.48533e-09
9.78536e-09
6.46908e-08
-8.86878e-09
9.18692e-09
6.27742e-08
-9.22781e-09
8.4066e-09
6.08512e-08
-9.56206e-09
7.44593e-09
5.89284e-08
-9.86505e-09
6.3177e-09
5.7008e-08
-1.01365e-08
5.03375e-09
5.50844e-08
-1.03707e-08
3.62133e-09
5.31433e-08
-1.05673e-08
2.10655e-09
5.11589e-08
-1.07208e-08
5.47815e-10
4.90915e-08
-1.08302e-08
-9.89695e-10
4.68817e-08
-1.08891e-08
-2.40377e-09
4.44457e-08
-1.08926e-08
-3.56305e-09
4.16646e-08
-1.08286e-08
-4.2847e-09
3.83768e-08
-1.06961e-08
-4.27266e-09
3.43518e-08
-1.05207e-08
-3.16159e-09
2.92937e-08
-1.02743e-08
1.8601e-08
-9.14807e-09
-1.69164e-09
3.26019e-08
1.85624e-09
-1.57604e-09
5.09418e-08
9.14133e-10
-5.14275e-10
5.93581e-08
2.65444e-10
1.06988e-09
6.56343e-08
-1.44041e-10
2.91389e-09
7.02624e-08
-4.51019e-10
4.87649e-09
7.36132e-08
-7.42281e-10
6.86783e-09
7.59734e-08
-1.04456e-09
8.80848e-09
7.75557e-08
-1.3574e-09
1.06516e-08
7.85263e-08
-1.68871e-09
1.23544e-08
7.90093e-08
-2.0353e-09
1.38886e-08
7.91041e-08
-2.40029e-09
1.52281e-08
7.88857e-08
-2.77785e-09
1.6355e-08
7.84163e-08
-3.1686e-09
1.72556e-08
7.77432e-08
-3.56511e-09
1.79163e-08
7.69073e-08
-3.96765e-09
1.83282e-08
7.59397e-08
-4.36862e-09
1.84842e-08
7.48682e-08
-4.76771e-09
1.83784e-08
7.37135e-08
-5.15758e-09
1.80118e-08
7.24942e-08
-5.5377e-09
1.73811e-08
7.12229e-08
-5.90129e-09
1.64917e-08
6.99097e-08
-6.24786e-09
1.53565e-08
6.85589e-08
-6.57135e-09
1.39859e-08
6.71708e-08
-6.87137e-09
1.23963e-08
6.57387e-08
-7.14252e-09
1.06181e-08
6.42482e-08
-7.38457e-09
8.67999e-09
6.26735e-08
-7.59291e-09
6.63118e-09
6.09756e-08
-7.76752e-09
4.53076e-09
5.90975e-08
-7.90433e-09
2.455e-09
5.69587e-08
-8.00276e-09
5.09053e-10
5.44483e-08
-8.05658e-09
-1.17777e-09
5.14121e-08
-8.06102e-09
-2.42614e-09
4.76431e-08
-8.01851e-09
-2.95621e-09
4.28541e-08
-7.97186e-09
-2.42046e-09
3.66763e-08
-7.91677e-09
2.33884e-08
-7.209e-09
-1.18772e-09
3.15883e-08
2.202e-09
-9.16068e-10
4.91998e-08
1.4693e-09
1.47851e-10
5.73457e-08
9.49667e-10
1.64872e-09
6.35053e-08
6.26718e-10
3.38221e-09
6.81441e-08
3.85515e-10
5.22762e-09
7.16152e-08
1.5141e-10
7.10548e-09
7.41852e-08
-8.95625e-11
8.9472e-09
7.60556e-08
-3.40947e-10
1.07027e-08
7.73761e-08
-6.03827e-10
1.23285e-08
7.82641e-08
-8.81713e-10
1.37961e-08
7.88073e-08
-1.17028e-09
1.50754e-08
7.90756e-08
-1.47103e-09
1.6151e-08
7.91214e-08
-1.77939e-09
1.7003e-08
7.89876e-08
-2.09576e-09
1.76182e-08
7.87057e-08
-2.41404e-09
1.79879e-08
7.8303e-08
-2.73421e-09
1.81093e-08
7.77988e-08
-3.05032e-09
1.79749e-08
7.72099e-08
-3.36218e-09
1.75846e-08
7.6547e-08
-3.66417e-09
1.69466e-08
7.58185e-08
-3.95603e-09
1.60618e-08
7.5027e-08
-4.23263e-09
1.49415e-08
7.41715e-08
-4.49384e-09
1.36047e-08
7.32443e-08
-4.73506e-09
1.20683e-08
7.22316e-08
-4.9564e-09
1.03603e-08
7.11097e-08
-5.15387e-09
8.51746e-09
6.98443e-08
-5.32777e-09
6.58339e-09
6.83848e-08
-5.47469e-09
4.61484e-09
6.66614e-08
-5.59523e-09
2.68108e-09
6.45769e-08
-5.68613e-09
8.77012e-10
6.19996e-08
-5.74625e-09
-6.88446e-10
5.87485e-08
-5.76964e-09
-1.86553e-09
5.45822e-08
-5.76381e-09
-2.41118e-09
4.91694e-08
-5.76711e-09
-2.02948e-09
4.20766e-08
-5.78528e-09
2.66797e-08
-5.31834e-09
-6.52197e-10
3.03691e-08
1.87081e-09
-4.38995e-10
4.76641e-08
1.32379e-09
2.73494e-10
5.56968e-08
9.35567e-10
1.26112e-09
6.18166e-08
6.99997e-10
2.3991e-09
6.6487e-08
5.21529e-10
3.60935e-09
7.00517e-08
3.51804e-10
4.84817e-09
7.27721e-08
1.74037e-10
6.07273e-09
7.48407e-08
-9.962e-12
7.24499e-09
7.64051e-08
-2.01303e-10
8.33477e-09
7.7574e-08
-3.99251e-10
9.31597e-09
7.84319e-08
-6.07607e-10
1.0174e-08
7.9041e-08
-8.22081e-10
1.08878e-08
7.94503e-08
-1.04282e-09
1.14451e-08
7.9696e-08
-1.26624e-09
1.18358e-08
7.9807e-08
-1.4926e-09
1.20547e-08
7.98036e-08
-1.7175e-09
1.20903e-08
7.97023e-08
-1.94121e-09
1.19468e-08
7.95136e-08
-2.15938e-09
1.16202e-08
7.92451e-08
-2.37226e-09
1.11168e-08
7.88989e-08
-2.57582e-09
1.04395e-08
7.8474e-08
-2.7704e-09
9.59984e-09
7.79635e-08
-2.95232e-09
8.6092e-09
7.73553e-08
-3.12207e-09
7.48979e-09
7.66292e-08
-3.27639e-09
6.25789e-09
7.57561e-08
-3.41595e-09
4.94686e-09
7.46943e-08
-3.5379e-09
3.58866e-09
7.33857e-08
-3.64308e-09
2.22885e-09
7.1751e-08
-3.7291e-09
9.20402e-10
6.96817e-08
-3.79675e-09
-2.69398e-10
6.70319e-08
-3.84256e-09
-1.25882e-09
6.3603e-08
-3.8653e-09
-1.93925e-09
5.91307e-08
-3.86824e-09
-2.14178e-09
5.32542e-08
-3.88346e-09
-1.65407e-09
4.54998e-08
-3.90973e-09
2.86116e-08
-3.5865e-09
-4.51606e-10
2.92415e-08
1.58003e-09
-4.68944e-10
4.6445e-08
1.23463e-09
-2.06111e-10
5.44452e-08
9.9031e-10
2.05247e-10
6.05622e-08
8.42656e-10
7.03481e-10
6.52594e-08
7.30008e-10
1.25314e-09
6.88831e-08
6.19111e-10
1.83049e-09
7.169e-08
5.04581e-10
2.41362e-09
7.38734e-08
3.83741e-10
2.98472e-09
7.55763e-08
2.58734e-10
3.52315e-09
7.6907e-08
1.26671e-10
4.02018e-09
7.79454e-08
-7.90969e-12
4.45464e-09
7.87527e-08
-1.46501e-10
4.81479e-09
7.93733e-08
-2.85717e-10
5.1022e-09
7.98416e-08
-4.2875e-10
5.29641e-09
8.01819e-08
-5.71661e-10
5.40097e-09
8.04141e-08
-7.15014e-10
5.40881e-09
8.05504e-08
-8.55144e-10
5.31636e-09
8.05989e-08
-9.92743e-10
5.12236e-09
8.05629e-08
-1.12477e-09
4.83154e-09
8.04424e-08
-1.25206e-09
4.44621e-09
8.02319e-08
-1.37176e-09
3.97156e-09
7.99222e-08
-1.48481e-09
3.41791e-09
7.94968e-08
-1.58862e-09
2.79931e-09
7.89329e-08
-1.68427e-09
2.12824e-09
7.81968e-08
-1.76944e-09
1.42614e-09
7.72433e-08
-1.84535e-09
7.12e-10
7.60093e-08
-1.90997e-09
1.60092e-11
7.44107e-08
-1.96473e-09
-6.26103e-10
7.23326e-08
-2.00774e-09
-1.17669e-09
6.9622e-08
-2.03977e-09
-1.58736e-09
6.60712e-08
-2.05787e-09
-1.79281e-09
6.14047e-08
-2.0675e-09
-1.69716e-09
5.52471e-08
-2.08801e-09
-1.18312e-09
4.71019e-08
-2.11757e-09
2.93541e-08
-1.92506e-09
-5.76548e-10
2.82594e-08
1.55742e-09
-9.09798e-10
4.53483e-08
1.43113e-09
-1.08555e-09
5.32966e-08
1.3246e-09
-1.16768e-09
5.93804e-08
1.26416e-09
-1.18543e-09
6.40638e-08
1.2114e-09
-1.14584e-09
6.76914e-08
1.15516e-09
-1.06946e-09
7.05196e-08
1.09167e-09
-9.58299e-10
7.27393e-08
1.02383e-09
-8.26607e-10
7.44934e-08
9.50802e-10
-6.8226e-10
7.58877e-08
8.75042e-10
-5.34165e-10
7.7002e-08
7.95418e-10
-3.88912e-10
7.78945e-08
7.14479e-10
-2.5787e-10
7.86097e-08
6.3108e-10
-1.43261e-10
7.91789e-08
5.48594e-10
-5.29353e-11
7.9626e-08
4.6591e-10
8.44302e-12
7.99668e-08
3.85522e-10
4.08777e-11
8.0213e-08
3.05529e-10
4.10612e-11
8.03704e-08
2.28615e-10
7.8851e-12
8.04414e-08
1.53528e-10
-5.36855e-11
8.04233e-08
8.23263e-11
-1.47289e-10
8.03098e-08
1.53326e-11
-2.67724e-10
8.00891e-08
-4.64351e-11
-4.10937e-10
7.97439e-08
-1.0437e-10
-5.71532e-10
7.92487e-08
-1.55629e-10
-7.39925e-10
7.85693e-08
-2.03162e-10
-9.0916e-10
7.76578e-08
-2.45007e-10
-1.0678e-09
7.64507e-08
-2.82798e-10
-1.20291e-09
7.48618e-08
-3.15183e-10
-1.30388e-09
7.27755e-08
-3.4413e-10
-1.34923e-09
7.00372e-08
-3.68325e-10
-1.32805e-09
6.64387e-08
-3.89623e-10
-1.2146e-09
6.17031e-08
-4.1031e-10
-9.78111e-10
5.54552e-08
-4.46732e-10
-5.77407e-10
4.71965e-08
-4.94111e-10
2.92262e-08
-4.49384e-10
-8.06972e-10
2.73631e-08
1.70232e-09
-1.40962e-09
4.41825e-08
1.7701e-09
-1.89456e-09
5.20032e-08
1.77863e-09
-2.29615e-09
5.79915e-08
1.78779e-09
-2.62012e-09
6.26035e-08
1.78538e-09
-2.87885e-09
6.618e-08
1.77035e-09
-3.07918e-09
6.89723e-08
1.74693e-09
-3.22574e-09
7.117e-08
1.71602e-09
-3.32567e-09
7.29123e-08
1.68111e-09
-3.38475e-09
7.43046e-08
1.64187e-09
-3.40746e-09
7.54238e-08
1.60095e-09
-3.39969e-09
7.63285e-08
1.55755e-09
-3.36381e-09
7.70605e-08
1.51405e-09
-3.30673e-09
7.76519e-08
1.4694e-09
-3.23043e-09
7.81243e-08
1.42567e-09
-3.14047e-09
7.84934e-08
1.38226e-09
-3.03479e-09
7.87683e-08
1.34118e-09
-2.92132e-09
7.89552e-08
1.30109e-09
-2.79964e-09
7.90545e-08
1.26387e-09
-2.66789e-09
7.9064e-08
1.22813e-09
-2.52914e-09
7.89758e-08
1.19559e-09
-2.38331e-09
7.87783e-08
1.16468e-09
-2.23041e-09
7.84527e-08
1.13696e-09
-2.06601e-09
7.79746e-08
1.11074e-09
-1.89217e-09
7.73083e-08
1.08734e-09
-1.70839e-09
7.64076e-08
1.06487e-09
-1.51091e-09
7.52087e-08
1.04437e-09
-1.29961e-09
7.36278e-08
1.02356e-09
-1.07652e-09
7.15508e-08
1.00294e-09
-8.4867e-10
6.88274e-08
9.79687e-10
-6.15849e-10
6.52537e-08
9.53544e-10
-3.919e-10
6.05602e-08
9.18316e-10
-1.81739e-10
5.43814e-08
8.63258e-10
-1.76748e-12
4.62317e-08
7.86121e-10
2.85322e-08
6.91361e-10
-9.43266e-10
2.65556e-08
1.75142e-09
-1.68065e-09
4.29732e-08
1.9463e-09
-2.31006e-09
5.06066e-08
2.02497e-09
-2.84739e-09
5.64517e-08
2.07803e-09
-3.30204e-09
6.09536e-08
2.10521e-09
-3.68339e-09
6.44426e-08
2.11662e-09
-3.99121e-09
6.7166e-08
2.11611e-09
-4.2397e-09
6.93072e-08
2.10845e-09
-4.42347e-09
7.10039e-08
2.09469e-09
-4.55546e-09
7.23575e-08
2.07794e-09
-4.63326e-09
7.34447e-08
2.05808e-09
-4.66348e-09
7.43212e-08
2.03747e-09
-4.64809e-09
7.50294e-08
2.01549e-09
-4.59019e-09
7.55989e-08
1.99415e-09
-4.4899e-09
7.60526e-08
1.97255e-09
-4.35214e-09
7.64044e-08
1.95252e-09
-4.18182e-09
7.66649e-08
1.93293e-09
-3.9819e-09
7.68383e-08
1.91543e-09
-3.7517e-09
7.69262e-08
1.89873e-09
-3.49562e-09
7.69245e-08
1.8843e-09
-3.21668e-09
7.68268e-08
1.87067e-09
-2.91972e-09
7.662e-08
1.85911e-09
-2.60012e-09
7.62872e-08
1.84799e-09
-2.26698e-09
7.58026e-08
1.83838e-09
-1.92058e-09
7.51331e-08
1.82846e-09
-1.56447e-09
7.42326e-08
1.81902e-09
-1.20314e-09
7.30405e-08
1.80791e-09
-8.46352e-10
7.14745e-08
1.79544e-09
-5.00637e-10
6.94264e-08
1.77879e-09
-1.79863e-10
6.675e-08
1.75734e-09
9.62691e-11
6.3251e-08
1.72691e-09
3.02798e-10
5.86688e-08
1.68361e-09
4.15824e-10
5.26551e-08
1.61476e-09
3.87281e-10
4.47428e-08
1.5168e-09
2.75952e-08
1.3255e-09
-8.64615e-10
2.58901e-08
1.52867e-09
-1.55839e-09
4.19125e-08
1.75573e-09
-2.16858e-09
4.93611e-08
1.85602e-09
-2.70128e-09
5.50641e-08
1.91956e-09
-3.1567e-09
5.94539e-08
1.95561e-09
-3.54223e-09
6.28529e-08
1.97423e-09
-3.85739e-09
6.55013e-08
1.98241e-09
-4.11388e-09
6.75793e-08
1.9824e-09
-4.30772e-09
6.92201e-08
1.97783e-09
-4.44518e-09
7.05245e-08
1.96928e-09
-4.52496e-09
7.15662e-08
1.95926e-09
-4.5521e-09
7.24014e-08
1.94756e-09
-4.53045e-09
7.30702e-08
1.93614e-09
-4.45767e-09
7.36036e-08
1.9244e-09
-4.34141e-09
7.40221e-08
1.91401e-09
-4.18386e-09
7.43418e-08
1.90415e-09
-3.98547e-09
7.45713e-08
1.89626e-09
-3.75304e-09
7.47165e-08
1.88929e-09
-3.49049e-09
7.47774e-08
1.88452e-09
-3.19699e-09
7.47518e-08
1.8807e-09
-2.88024e-09
7.46317e-08
1.8789e-09
-2.54358e-09
7.44061e-08
1.87766e-09
-2.19167e-09
7.40568e-08
1.87789e-09
-1.82855e-09
7.35606e-08
1.87792e-09
-1.4569e-09
7.28837e-08
1.87844e-09
-1.0855e-09
7.1983e-08
1.87752e-09
-7.17751e-10
7.07986e-08
1.87552e-09
-3.66913e-10
6.92527e-08
1.87006e-09
-3.95251e-11
6.72397e-08
1.86079e-09
2.4398e-10
6.46204e-08
1.8444e-09
4.70201e-10
6.12072e-08
1.81907e-09
6.09806e-10
5.6751e-08
1.77859e-09
6.31771e-10
5.09169e-08
1.7144e-09
4.9871e-10
4.32584e-08
1.61841e-09
2.66864e-08
1.40747e-09
-5.88005e-10
2.54779e-08
1.00127e-09
-1.10857e-09
4.12577e-08
1.17462e-09
-1.59194e-09
4.85924e-08
1.25202e-09
-2.03245e-09
5.42051e-08
1.29933e-09
-2.42587e-09
5.85217e-08
1.32366e-09
-2.76532e-09
6.18582e-08
1.33543e-09
-3.05462e-09
6.44524e-08
1.33831e-09
-3.29196e-09
6.64806e-08
1.33588e-09
-3.47898e-09
6.8076e-08
1.32916e-09
-3.61008e-09
6.93367e-08
1.32055e-09
-3.69076e-09
7.03372e-08
1.31026e-09
-3.72397e-09
7.11319e-08
1.30011e-09
-3.7042e-09
7.17625e-08
1.28988e-09
-3.64153e-09
7.22581e-08
1.28107e-09
-3.53268e-09
7.26415e-08
1.27322e-09
-3.38613e-09
7.29268e-08
1.2676e-09
-3.2032e-09
7.31248e-08
1.26352e-09
-2.98714e-09
7.32398e-08
1.26207e-09
-2.74832e-09
7.32737e-08
1.26232e-09
-2.48285e-09
7.3223e-08
1.26517e-09
-2.20413e-09
7.30815e-08
1.26947e-09
-1.9094e-09
7.28368e-08
1.27592e-09
-1.60809e-09
7.24727e-08
1.28316e-09
-1.30463e-09
7.19648e-08
1.29169e-09
-1.00333e-09
7.12818e-08
1.29998e-09
-7.07087e-10
7.03797e-08
1.30829e-09
-4.2778e-10
6.92019e-08
1.31484e-09
-1.63054e-10
6.76708e-08
1.31954e-09
6.99178e-11
6.56851e-08
1.32013e-09
2.67567e-10
6.31078e-08
1.31583e-09
4.13084e-10
5.97579e-08
1.30332e-09
4.93211e-10
5.53917e-08
1.27987e-09
4.85423e-10
4.96858e-08
1.23778e-09
3.66968e-10
4.2205e-08
1.1728e-09
2.60351e-08
1.01728e-09
-2.16339e-10
2.54006e-08
2.935e-10
-4.98515e-10
4.11829e-08
3.56982e-10
-8.06888e-10
4.85154e-08
3.85979e-10
-1.12361e-09
5.41214e-08
3.99069e-10
-1.42729e-09
5.8426e-08
4.00635e-10
-1.71377e-09
6.17469e-08
3.95198e-10
-1.96507e-09
6.43211e-08
3.85861e-10
-2.1847e-09
6.63267e-08
3.7329e-10
-2.36518e-09
6.7896e-08
3.59317e-10
-2.50154e-09
6.91292e-08
3.44187e-10
-2.59354e-09
7.00999e-08
3.29441e-10
-2.64111e-09
7.08648e-08
3.15064e-10
-2.64632e-09
7.14644e-08
3.02405e-10
-2.61017e-09
7.19301e-08
2.91254e-10
-2.53227e-09
7.22836e-08
2.82804e-10
-2.42397e-09
7.2541e-08
2.76641e-10
-2.28515e-09
7.2712e-08
2.73762e-10
-2.12264e-09
7.28027e-08
2.7356e-10
-1.93831e-09
7.28139e-08
2.76813e-10
-1.7419e-09
7.27435e-08
2.82685e-10
-1.5366e-09
7.25843e-08
2.91736e-10
-1.32766e-09
7.23253e-08
3.02931e-10
-1.12171e-09
7.19488e-08
3.16617e-10
-9.19608e-10
7.14321e-08
3.3159e-10
-7.2873e-10
7.07423e-08
3.48028e-10
-5.5101e-10
6.98372e-08
3.64585e-10
-3.87356e-10
6.86586e-08
3.81299e-10
-2.45193e-10
6.7131e-08
3.96686e-10
-1.22439e-10
6.51521e-08
4.10613e-10
-2.35222e-11
6.25874e-08
4.21374e-10
5.06708e-11
5.92556e-08
4.28491e-10
9.57015e-11
5.49166e-08
4.2973e-10
1.10767e-10
4.92478e-08
4.23189e-10
9.00656e-11
4.18189e-08
4.07153e-10
2.57664e-08
3.58347e-10
1.35789e-10
2.56789e-08
-4.12187e-10
7.63066e-11
4.17091e-08
-4.68069e-10
-6.98567e-11
4.91527e-08
-4.93143e-10
-2.67489e-10
5.48362e-08
-5.16338e-10
-4.93941e-10
5.91927e-08
-5.40264e-10
-7.27746e-10
6.25453e-08
-5.63914e-10
-9.56195e-10
6.51364e-08
-5.87824e-10
-1.16265e-09
6.71466e-08
-6.11396e-10
-1.34618e-09
6.87121e-08
-6.34914e-10
-1.49209e-09
6.99343e-08
-6.57412e-10
-1.60312e-09
7.08899e-08
-6.78927e-10
-1.6758e-09
7.16356e-08
-6.98383e-10
-1.71137e-09
7.22149e-08
-7.15792e-10
-1.7099e-09
7.26587e-08
-7.30132e-10
-1.67528e-09
7.29908e-08
-7.41519e-10
-1.61221e-09
7.32269e-08
-7.49065e-10
-1.52393e-09
7.33783e-08
-7.53059e-10
-1.42054e-09
7.34504e-08
-7.52826e-10
-1.3043e-09
7.34454e-08
-7.48875e-10
-1.17809e-09
7.33603e-08
-7.40768e-10
-1.05385e-09
7.31887e-08
-7.29251e-10
-9.32779e-10
7.29185e-08
-7.14059e-10
-8.21524e-10
7.2533e-08
-6.96098e-10
-7.20584e-10
7.20077e-08
-6.75285e-10
-6.37061e-10
7.13105e-08
-6.52673e-10
-5.67741e-10
7.03971e-08
-6.28257e-10
-5.17047e-10
6.92097e-08
-6.03095e-10
-4.77851e-10
6.76704e-08
-5.7712e-10
-4.513e-10
6.56766e-08
-5.51234e-10
-4.30128e-10
6.30908e-08
-5.25098e-10
-4.05505e-10
5.97306e-08
-4.99211e-10
-3.68212e-10
5.53515e-08
-4.72546e-10
-3.04598e-10
4.96281e-08
-4.43983e-10
-2.00771e-10
4.21241e-08
-4.08332e-10
2.59071e-08
-3.41145e-10
3.7398e-10
2.62501e-08
-9.44634e-10
4.7355e-10
4.27051e-08
-1.09619e-09
4.50537e-10
5.03411e-08
-1.16437e-09
3.38042e-10
5.61641e-08
-1.21738e-09
1.74907e-10
6.0619e-08
-1.26163e-09
-1.95301e-11
6.40399e-08
-1.30081e-09
-2.20907e-10
6.66753e-08
-1.33643e-09
-4.18415e-10
6.87126e-08
-1.36981e-09
-5.97256e-10
7.02913e-08
-1.40103e-09
-7.48361e-10
7.15172e-08
-1.43042e-09
-8.69943e-10
7.24689e-08
-1.4574e-09
-9.58775e-10
7.32063e-08
-1.48194e-09
-1.01513e-09
7.37733e-08
-1.50326e-09
-1.03815e-09
7.42037e-08
-1.52126e-09
-1.03346e-09
7.45209e-08
-1.53515e-09
-1.00467e-09
7.47429e-08
-1.54496e-09
-9.55666e-10
7.48802e-08
-1.55004e-09
-8.95503e-10
7.49399e-08
-1.55063e-09
-8.25724e-10
7.49234e-08
-1.54629e-09
-7.57669e-10
7.48285e-08
-1.53745e-09
-6.9287e-10
7.46479e-08
-1.52393e-09
-6.38713e-10
7.43702e-08
-1.50642e-09
-5.96819e-10
7.3977e-08
-1.48493e-09
-5.73591e-10
7.34442e-08
-1.46029e-09
-5.68078e-10
7.27376e-08
-1.43261e-09
-5.79589e-10
7.18125e-08
-1.4027e-09
-6.09235e-10
7.06084e-08
-1.3706e-09
-6.4722e-10
6.90461e-08
-1.33687e-09
-6.88301e-10
6.7019e-08
-1.30114e-09
-7.20635e-10
6.43869e-08
-1.2633e-09
-7.32559e-10
6.09614e-08
-1.222e-09
-6.95202e-10
5.64929e-08
-1.17531e-09
-5.94623e-10
5.06458e-08
-1.1181e-09
-4.03658e-10
4.29739e-08
-1.04224e-09
2.63876e-08
-8.8333e-10
4.60712e-10
2.69996e-08
-1.20932e-09
6.27164e-10
4.39449e-08
-1.40745e-09
6.60856e-10
5.18049e-08
-1.49754e-09
5.99068e-10
5.7792e-08
-1.56553e-09
4.72356e-10
6.23652e-08
-1.62048e-09
3.1073e-10
6.58696e-08
-1.66747e-09
1.33832e-10
6.85624e-08
-1.70958e-09
-4.28802e-11
7.0637e-08
-1.74803e-09
-2.0572e-10
7.22384e-08
-1.78381e-09
-3.46533e-10
7.34755e-08
-1.81688e-09
-4.61249e-10
7.44308e-08
-1.84737e-09
-5.48183e-10
7.51658e-08
-1.87472e-09
-6.00667e-10
7.57272e-08
-1.89873e-09
-6.28316e-10
7.61491e-08
-1.91876e-09
-6.29515e-10
7.64573e-08
-1.93461e-09
-6.10373e-10
7.66694e-08
-1.94569e-09
-5.76818e-10
7.67979e-08
-1.95197e-09
-5.31219e-10
7.68491e-08
-1.95305e-09
-4.84767e-10
7.68255e-08
-1.94913e-09
-4.40853e-10
7.67243e-08
-1.94003e-09
-4.04639e-10
7.65386e-08
-1.92618e-09
-3.83146e-10
7.62557e-08
-1.90763e-09
-3.77823e-10
7.58576e-08
-1.88501e-09
-3.9437e-10
7.53182e-08
-1.85849e-09
-4.29894e-10
7.46028e-08
-1.82879e-09
-4.86157e-10
7.36645e-08
-1.79608e-09
-5.59145e-10
7.24412e-08
-1.76093e-09
-6.38769e-10
7.08503e-08
-1.72319e-09
-7.20192e-10
6.87824e-08
-1.6829e-09
-7.85517e-10
6.6092e-08
-1.63904e-09
-8.20407e-10
6.25851e-08
-1.59038e-09
-7.96571e-10
5.80042e-08
-1.53358e-09
-6.91373e-10
5.20031e-08
-1.46253e-09
-4.73055e-10
4.41223e-08
-1.36699e-09
2.7078e-08
-1.16364e-09
4.1171e-10
2.77822e-08
-1.19324e-09
5.59964e-10
4.51787e-08
-1.38486e-09
5.93747e-10
5.32454e-08
-1.4731e-09
5.42039e-10
5.93848e-08
-1.54057e-09
4.34245e-10
6.40681e-08
-1.595e-09
2.93798e-10
6.76513e-08
-1.6419e-09
1.41781e-10
7.03985e-08
-1.6839e-09
-7.02523e-12
7.25094e-08
-1.72257e-09
-1.44062e-10
7.41332e-08
-1.75849e-09
-2.59981e-10
7.53829e-08
-1.79197e-09
-3.48482e-10
7.63432e-08
-1.82274e-09
-4.10732e-10
7.70782e-08
-1.8506e-09
-4.44893e-10
7.7636e-08
-1.87499e-09
-4.53094e-10
7.80526e-08
-1.8956e-09
-4.37746e-10
7.83543e-08
-1.91186e-09
-4.05235e-10
7.856e-08
-1.92354e-09
-3.58047e-10
7.86823e-08
-1.93022e-09
-3.06693e-10
7.87283e-08
-1.93189e-09
-2.52903e-10
7.87002e-08
-1.92833e-09
-2.032e-10
7.85956e-08
-1.91975e-09
-1.65557e-10
7.8407e-08
-1.90622e-09
-1.43721e-10
7.81217e-08
-1.88814e-09
-1.41135e-10
7.77205e-08
-1.86577e-09
-1.60288e-10
7.71769e-08
-1.83968e-09
-2.00215e-10
7.64545e-08
-1.81019e-09
-2.64377e-10
7.55053e-08
-1.77787e-09
-3.44556e-10
7.42647e-08
-1.74293e-09
-4.35183e-10
7.26478e-08
-1.70561e-09
-5.29988e-10
7.05415e-08
-1.66561e-09
-6.12304e-10
6.77964e-08
-1.62232e-09
-6.64142e-10
6.42123e-08
-1.57419e-09
-6.67092e-10
5.9525e-08
-1.5184e-09
-5.93387e-10
5.3378e-08
-1.44875e-09
-4.13364e-10
4.53001e-08
-1.3567e-09
2.78248e-08
-1.16132e-09
2.63508e-10
2.8472e-08
-9.53528e-10
3.38818e-10
4.61993e-08
-1.09472e-09
3.26189e-10
5.44182e-08
-1.16198e-09
2.57205e-10
6.067e-08
-1.21588e-09
1.52583e-10
6.54348e-08
-1.26089e-09
2.78007e-11
6.90756e-08
-1.30076e-09
-9.85179e-11
7.18624e-08
-1.33748e-09
-2.15545e-10
7.3999e-08
-1.37195e-09
-3.16749e-10
7.56383e-08
-1.4046e-09
-3.93819e-10
7.68957e-08
-1.43535e-09
-4.46901e-10
7.78583e-08
-1.46401e-09
-4.67481e-10
7.85919e-08
-1.49009e-09
-4.66444e-10
7.91458e-08
-1.51318e-09
-4.37651e-10
7.95573e-08
-1.53273e-09
-3.89429e-10
7.98535e-08
-1.54836e-09
-3.2245e-10
8.00539e-08
-1.55962e-09
-2.45327e-10
8.01715e-08
-1.5663e-09
-1.62989e-10
8.02139e-08
-1.56815e-09
-8.12918e-11
8.01833e-08
-1.56519e-09
-5.91019e-12
8.00773e-08
-1.5574e-09
5.72073e-11
7.98882e-08
-1.54504e-09
1.04805e-10
7.96028e-08
-1.52833e-09
1.3069e-10
7.92016e-08
-1.50772e-09
1.35217e-10
7.8657e-08
-1.4836e-09
1.13295e-10
7.7932e-08
-1.45653e-09
6.90427e-11
7.69768e-08
-1.4269e-09
2.09839e-12
7.57255e-08
-1.39521e-09
-7.69331e-11
7.40912e-08
-1.36164e-09
-1.70066e-10
7.1958e-08
-1.32629e-09
-2.56806e-10
6.91731e-08
-1.28867e-09
-3.29242e-10
6.55325e-08
-1.24793e-09
-3.68984e-10
6.07662e-08
-1.20191e-09
-3.55301e-10
5.45109e-08
-1.1464e-09
-2.63058e-10
4.62865e-08
-1.07639e-09
2.84922e-08
-9.32361e-10
7.42452e-11
2.89778e-08
-5.81324e-10
4.36677e-11
4.68763e-08
-6.45652e-10
-3.12023e-11
5.51744e-08
-6.8017e-10
-1.33991e-10
6.14845e-08
-7.12703e-10
-2.47474e-10
6.62906e-08
-7.4262e-10
-3.59767e-10
6.99596e-08
-7.71228e-10
-4.61608e-10
7.27642e-08
-7.99178e-10
-5.47057e-10
7.49108e-08
-8.26682e-10
-6.1024e-10
7.6554e-08
-8.53625e-10
-6.4448e-10
7.78111e-08
-8.79686e-10
-6.52522e-10
7.87703e-08
-9.04398e-10
-6.31899e-10
7.94985e-08
-9.27237e-10
-5.84807e-10
8.00462e-08
-9.4765e-10
-5.12945e-10
8.04511e-08
-9.65125e-10
-4.21022e-10
8.07411e-08
-9.79182e-10
-3.1387e-10
8.09363e-08
-9.89447e-10
-1.96526e-10
8.10498e-08
-9.95605e-10
-7.5458e-11
8.10894e-08
-9.97498e-10
4.6482e-11
8.10577e-08
-9.95047e-10
1.59652e-10
8.09519e-08
-9.88332e-10
2.61234e-10
8.07644e-08
-9.77514e-10
3.44836e-10
8.04817e-08
-9.62906e-10
4.08126e-10
8.00837e-08
-9.44878e-10
4.48262e-10
7.95424e-08
-9.23919e-10
4.58339e-10
7.88199e-08
-9.00537e-10
4.45283e-10
7.78659e-08
-8.75281e-10
4.07014e-10
7.66132e-08
-8.48672e-10
3.45268e-10
7.49735e-08
-8.21176e-10
2.66467e-10
7.28297e-08
-7.93104e-10
1.79076e-10
7.0027e-08
-7.64556e-10
8.67921e-11
6.63589e-08
-7.35327e-10
4.99505e-12
6.15527e-08
-7.0466e-10
-5.50641e-11
5.52417e-08
-6.70914e-10
-7.67675e-11
4.69417e-08
-6.34301e-10
2.89842e-08
-5.67734e-10
-1.08387e-10
2.92592e-08
-1.72476e-10
-2.46032e-10
4.71656e-08
-1.52496e-10
-3.89057e-10
5.54682e-08
-1.50816e-10
-5.25901e-10
6.17804e-08
-1.59472e-10
-6.48465e-10
6.6586e-08
-1.72414e-10
-7.52245e-10
7.02518e-08
-1.88108e-10
-8.32885e-10
7.30511e-08
-2.05766e-10
-8.88928e-10
7.51906e-08
-2.25001e-10
-9.14567e-10
7.68252e-08
-2.45179e-10
-9.11713e-10
7.80729e-08
-2.65574e-10
-8.76613e-10
7.90221e-08
-2.8552e-10
-8.1358e-10
7.97404e-08
-3.04368e-10
-7.26468e-10
8.02785e-08
-3.21487e-10
-6.12485e-10
8.06748e-08
-3.36322e-10
-4.79277e-10
8.09574e-08
-3.48377e-10
-3.35238e-10
8.11466e-08
-3.57267e-10
-1.77179e-10
8.12561e-08
-3.62671e-10
-1.7277e-11
8.12935e-08
-3.64435e-10
1.40485e-10
8.12614e-08
-3.62471e-10
2.92692e-10
8.11573e-08
-3.56861e-10
4.33023e-10
8.09732e-08
-3.47766e-10
5.54038e-10
8.06955e-08
-3.355e-10
6.53939e-10
8.03039e-08
-3.20436e-10
7.29776e-10
7.97702e-08
-3.03079e-10
7.77735e-10
7.90559e-08
-2.83979e-10
7.95869e-10
7.81103e-08
-2.63754e-10
7.86273e-10
7.6866e-08
-2.43047e-10
7.4936e-10
7.5234e-08
-2.22539e-10
6.84091e-10
7.30968e-08
-2.02874e-10
5.97865e-10
7.02993e-08
-1.84732e-10
4.8981e-10
6.66347e-08
-1.68721e-10
3.68095e-10
6.18301e-08
-1.553e-10
2.38446e-10
5.55185e-08
-1.45716e-10
1.07939e-10
4.72166e-08
-1.45766e-10
2.92564e-08
-1.64002e-10
-2.53764e-10
2.93167e-08
1.9722e-10
-4.7873e-10
4.70947e-08
2.9441e-10
-6.7696e-10
5.53389e-08
3.29261e-10
-8.46815e-10
6.1606e-08
3.42572e-10
-9.82458e-10
6.63757e-08
3.4532e-10
-1.08219e-09
7.00117e-08
3.41358e-10
-1.15037e-09
7.27854e-08
3.32609e-10
-1.18248e-09
7.49023e-08
3.20638e-10
-1.18046e-09
7.65168e-08
3.06565e-10
-1.14482e-09
7.77461e-08
2.91348e-10
-1.07748e-09
7.86788e-08
2.75846e-10
-9.81109e-10
7.93823e-08
2.60816e-10
-8.55657e-10
7.99076e-08
2.46884e-10
-7.09814e-10
8.02928e-08
2.34657e-10
-5.43328e-10
8.05665e-08
2.24604e-10
-3.62411e-10
8.0749e-08
2.17142e-10
-1.7328e-10
8.08539e-08
2.12534e-10
1.95665e-11
8.08892e-08
2.10985e-10
2.10821e-10
8.08575e-08
2.12533e-10
3.95926e-10
8.0756e-08
2.17142e-10
5.67051e-10
8.0577e-08
2.24607e-10
7.21569e-10
8.03066e-08
2.34673e-10
8.52426e-10
7.99245e-08
2.46916e-10
9.60234e-10