/*--------------------------------*- C++ -*----------------------------------*\
| =========                 |                                                 |
| \\      /  F ield         | OpenFOAM: The Open Source CFD Toolbox           |
|  \\    /   O peration     | Version:  v2012                                 |
|   \\  /    A nd           | Website:  www.openfoam.com                      |
|    \\/     M anipulation  |                                                 |
\*---------------------------------------------------------------------------*/
FoamFile
{
    version     2.0;
    format      ascii;
    class       volVectorField;
    location    "81";
    object      U;
}
// * * * * * * * * * * * * * * * * * * * * * * * * * * * * * * * * * * * * * //

dimensions      [0 1 -1 0 0 0 0];


internalField   nonuniform List<vector> 
78750
(
(-1.10466e-06 -6.36103e-05 0.000125989)
(-2.26522e-06 -9.12605e-05 0.000220638)
(-7.39368e-06 -9.56393e-05 0.000269206)
(-1.56998e-05 -9.09131e-05 0.000302778)
(-2.74982e-05 -8.09485e-05 0.000324685)
(-4.23154e-05 -6.80857e-05 0.000337589)
(-5.94947e-05 -5.40386e-05 0.00034345)
(-7.83077e-05 -3.99339e-05 0.000343842)
(-9.8105e-05 -2.66135e-05 0.000339938)
(-0.000118323 -1.44744e-05 0.000332702)
(-0.000138374 -3.92008e-06 0.000322865)
(-0.00015778 4.94583e-06 0.000311072)
(-0.000176103 1.20026e-05 0.000297789)
(-0.000192951 1.73082e-05 0.000283467)
(-0.000207992 2.08582e-05 0.000268436)
(-0.000220939 2.27755e-05 0.000253045)
(-0.000231554 2.31002e-05 0.00023756)
(-0.000239643 2.19766e-05 0.00022228)
(-0.00024506 1.94624e-05 0.000207439)
(-0.000247694 1.57004e-05 0.00019331)
(-0.000247482 1.07574e-05 0.000180103)
(-0.000244382 4.78424e-06 0.000168056)
(-0.000238399 -2.12842e-06 0.000157342)
(-0.000229567 -9.80363e-06 0.000148141)
(-0.000217957 -1.81128e-05 0.000140541)
(-0.000203673 -2.6826e-05 0.000134598)
(-0.000186859 -3.57162e-05 0.000130241)
(-0.00016768 -4.44218e-05 0.000127294)
(-0.000146344 -5.25355e-05 0.000125417)
(-0.000123111 -5.94542e-05 0.000124049)
(-9.81947e-05 -6.44255e-05 0.000122295)
(-7.17292e-05 -6.63729e-05 0.000118812)
(-4.4583e-05 -6.38542e-05 0.000111652)
(-2.2193e-05 -5.49285e-05 9.78877e-05)
(-5.97462e-06 -3.17071e-05 6.24388e-05)
(-2.13928e-06 9.14281e-05 -0.000181382)
(-1.6336e-05 0.000191858 -0.000275465)
(-3.22171e-05 0.000246562 -0.000310503)
(-5.56767e-05 0.000290887 -0.000339717)
(-8.07472e-05 0.00032519 -0.000363276)
(-0.000105751 0.00035028 -0.000381567)
(-0.000129931 0.000367626 -0.000395798)
(-0.00015278 0.000377967 -0.000407362)
(-0.000173805 0.000382547 -0.000416689)
(-0.000192707 0.000381822 -0.00042442)
(-0.000209246 0.000376799 -0.000430604)
(-0.000223263 0.000367772 -0.000435638)
(-0.000234723 0.000355533 -0.000439475)
(-0.000243572 0.000340282 -0.000442408)
(-0.000249802 0.000322754 -0.000444315)
(-0.000253476 0.00030306 -0.000445445)
(-0.000254629 0.000281851 -0.000445663)
(-0.000253358 0.000259206 -0.000445181)
(-0.000249768 0.00023568 -0.000443871)
(-0.00024398 0.000211359 -0.000441892)
(-0.000236117 0.000186713 -0.000439122)
(-0.000226369 0.000161746 -0.000435709)
(-0.000214875 0.000136897 -0.000431505)
(-0.000201817 0.000112239 -0.000426563)
(-0.00018737 8.81712e-05 -0.000420676)
(-0.000171728 6.47401e-05 -0.000413812)
(-0.000155059 4.23014e-05 -0.000405626)
(-0.000137573 2.0908e-05 -0.000395737)
(-0.000119456 8.97092e-07 -0.000383358)
(-0.000100908 -1.76381e-05 -0.000367521)
(-8.19857e-05 -3.42859e-05 -0.000346602)
(-6.24573e-05 -4.8639e-05 -0.000317727)
(-4.22952e-05 -5.94019e-05 -0.000274147)
(-2.57591e-05 -6.35029e-05 -0.000207813)
(-1.41988e-05 -4.45548e-05 -7.3748e-05)
(-3.2276e-08 0.00024988 -0.000143912)
(-7.93892e-06 0.000428113 -0.000235241)
(-1.46401e-05 0.000506303 -0.000272258)
(-2.52661e-05 0.000561713 -0.000296944)
(-3.65228e-05 0.000599264 -0.000314217)
(-4.75352e-05 0.000623327 -0.000326633)
(-5.80329e-05 0.000636381 -0.000336082)
(-6.77856e-05 0.000641012 -0.00034336)
(-7.66312e-05 0.000638492 -0.000349318)
(-8.44206e-05 0.000630471 -0.000354136)
(-9.10981e-05 0.000617594 -0.000358256)
(-9.65914e-05 0.000601028 -0.0003616)
(-0.000100921 0.000581097 -0.000364451)
(-0.000104069 0.000558699 -0.000366649)
(-0.000106088 0.000534005 -0.000368406)
(-0.000106995 0.000507755 -0.000369549)
(-0.000106863 0.00048005 -0.000370258)
(-0.000105722 0.000451514 -0.000370377)
(-0.000103671 0.000422327 -0.000369983)
(-0.000100743 0.000393015 -0.000368933)
(-9.70695e-05 0.000363526 -0.000367435)
(-9.269e-05 0.000334396 -0.000365309)
(-8.77285e-05 0.000305673 -0.000362641)
(-8.22655e-05 0.000277736 -0.00035927)
(-7.64049e-05 0.000250589 -0.000355232)
(-7.01992e-05 0.000224558 -0.000350288)
(-6.37436e-05 0.000199605 -0.000344324)
(-5.70668e-05 0.000175974 -0.000336891)
(-5.02448e-05 0.000153575 -0.000327516)
(-4.32938e-05 0.000132556 -0.000315245)
(-3.62272e-05 0.000112744 -0.000298735)
(-2.88257e-05 9.4153e-05 -0.000275382)
(-2.08246e-05 7.64107e-05 -0.000240713)
(-1.32796e-05 5.93876e-05 -0.000189419)
(-8.91524e-06 3.23799e-05 -7.60348e-05)
(-1.66997e-07 0.000333378 -1.84711e-05)
(-3.63226e-06 0.000549748 -7.94999e-05)
(-4.37933e-06 0.000645826 -0.000113915)
(-6.69673e-06 0.000714046 -0.000138095)
(-9.328e-06 0.000760991 -0.000154175)
(-1.20958e-05 0.000791187 -0.000166169)
(-1.48665e-05 0.000808525 -0.000175923)
(-1.75932e-05 0.000815419 -0.000184567)
(-2.01532e-05 0.000814296 -0.000192414)
(-2.25073e-05 0.000806433 -0.000199977)
(-2.45718e-05 0.000793438 -0.000207234)
(-2.63453e-05 0.000775987 -0.000214453)
(-2.77792e-05 0.000755229 -0.000221463)
(-2.88955e-05 0.000731526 -0.000228421)
(-2.96758e-05 0.000705763 -0.000235109)
(-3.01594e-05 0.000678138 -0.000241637)
(-3.03461e-05 0.000649364 -0.000247783)
(-3.02904e-05 0.000619553 -0.000253635)
(-2.99943e-05 0.000589287 -0.00025899)
(-2.95232e-05 0.000558609 -0.000263936)
(-2.88648e-05 0.000528207 -0.000268161)
(-2.81068e-05 0.000498109 -0.000271726)
(-2.72613e-05 0.000468694 -0.000274452)
(-2.63774e-05 0.000439911 -0.00027638)
(-2.54669e-05 0.000412054 -0.000277297)
(-2.45568e-05 0.00038489 -0.000277251)
(-2.36218e-05 0.000358573 -0.000275961)
(-2.26654e-05 0.000332845 -0.000273281)
(-2.16164e-05 0.00030763 -0.000268741)
(-2.04224e-05 0.000282435 -0.000261859)
(-1.8922e-05 0.00025682 -0.000251713)
(-1.68225e-05 0.000229879 -0.000237342)
(-1.3533e-05 0.000200513 -0.000217072)
(-9.30216e-06 0.000167123 -0.000186306)
(-7.03091e-06 0.00010222 -9.89917e-05)
(-1.80974e-06 0.00036127 5.61893e-05)
(-4.08627e-06 0.000580992 2.25458e-05)
(-2.75601e-06 0.000679885 -5.20352e-06)
(-1.36972e-06 0.000751676 -2.56505e-05)
(4.34311e-07 0.000802286 -3.92441e-05)
(2.42597e-06 0.000836727 -4.9501e-05)
(4.46731e-06 0.00085823 -5.85165e-05)
(6.47307e-06 0.000869824 -6.68568e-05)
(8.38947e-06 0.000873275 -7.49808e-05)
(1.01865e-05 0.000870516 -8.29372e-05)
(1.18213e-05 0.000862494 -9.10433e-05)
(1.32885e-05 0.000850524 -9.91683e-05)
(1.45565e-05 0.000835112 -0.000107465)
(1.56247e-05 0.000817215 -0.000115734)
(1.64603e-05 0.000797099 -0.000124059)
(1.7066e-05 0.000775504 -0.00013222)
(1.74059e-05 0.000752561 -0.000140272)
(1.74828e-05 0.000728866 -0.000147997)
(1.72617e-05 0.000704466 -0.000155438)
(1.67453e-05 0.000679871 -0.000162379)
(1.58998e-05 0.000655102 -0.000168843)
(1.47536e-05 0.000630539 -0.000174637)
(1.32926e-05 0.000606096 -0.000179792)
(1.15513e-05 0.000582022 -0.00018413)
(9.52529e-06 0.000558123 -0.000187669)
(7.26972e-06 0.000534476 -0.000190229)
(4.80574e-06 0.000510713 -0.000191794)
(2.22218e-06 0.000486647 -0.000192144)
(-3.98625e-07 0.000461597 -0.00019115)
(-2.91273e-06 0.000434936 -0.000188412)
(-5.15843e-06 0.000405418 -0.000183596)
(-6.80043e-06 0.000371649 -0.000176539)
(-7.19032e-06 0.00033126 -0.0001675)
(-5.72944e-06 0.000281515 -0.000152407)
(-5.16257e-06 0.000177757 -9.04314e-05)
(-2.14593e-06 0.00036781 8.85244e-05)
(-3.5524e-06 0.000578464 7.12519e-05)
(-1.89988e-06 0.000674647 4.9797e-05)
(3.34218e-07 0.000745602 3.31342e-05)
(3.23877e-06 0.000797353 2.20608e-05)
(6.45895e-06 0.000833983 1.33433e-05)
(9.7981e-06 0.000859052 5.56564e-06)
(1.31045e-05 0.0008748 -1.92342e-06)
(1.62839e-05 0.000883439 -9.33851e-06)
(1.92544e-05 0.000886175 -1.69569e-05)
(2.19701e-05 0.000884416 -2.47096e-05)
(2.43733e-05 0.000878801 -3.27521e-05)
(2.64431e-05 0.000870315 -4.08912e-05)
(2.81369e-05 0.000859293 -4.91942e-05)
(2.94489e-05 0.000846465 -5.74874e-05)
(3.0344e-05 0.000831993 -6.58024e-05)
(3.08249e-05 0.000816445 -7.39525e-05)
(3.08648e-05 0.000799875 -8.19584e-05)
(3.0476e-05 0.000782736 -8.96365e-05)
(2.96387e-05 0.000765004 -9.70055e-05)
(2.83722e-05 0.000747022 -0.000103893)
(2.66742e-05 0.000728688 -0.00011032)
(2.45818e-05 0.000710236 -0.000116125)
(2.20985e-05 0.000691464 -0.000121325)
(1.92809e-05 0.000672438 -0.000125771)
(1.61585e-05 0.000652766 -0.000129484)
(1.28145e-05 0.000632234 -0.000132321)
(9.32033e-06 0.000610145 -0.000134289)
(5.80382e-06 0.000585849 -0.0001352)
(2.38988e-06 0.000558104 -0.000134946)
(-7.27724e-07 0.000525494 -0.00013328)
(-3.26777e-06 0.000485806 -0.000130586)
(-4.61627e-06 0.000436244 -0.000127638)
(-4.13594e-06 0.00037286 -0.000121156)
(-3.97153e-06 0.000237378 -7.68189e-05)
(-1.6901e-06 0.000358462 8.95388e-05)
(-2.30619e-06 0.00055858 7.95883e-05)
(-7.95028e-07 0.000650719 6.306e-05)
(1.3742e-06 0.000720001 4.9996e-05)
(4.12015e-06 0.000771662 4.1199e-05)
(7.14935e-06 0.000809905 3.42568e-05)
(1.02888e-05 0.000837579 2.7834e-05)
(1.34178e-05 0.000857191 2.16163e-05)
(1.64381e-05 0.000870245 1.53832e-05)
(1.92769e-05 0.000878306 9.1226e-06)
(2.18694e-05 0.00088219 2.69328e-06)
(2.41704e-05 0.000882929 -3.8175e-06)
(2.6145e-05 0.000880934 -1.05338e-05)
(2.77614e-05 0.000876924 -1.73077e-05)
(2.89886e-05 0.000871083 -2.41635e-05)
(2.98159e-05 0.000863943 -3.09594e-05)
(3.0226e-05 0.000855557 -3.77124e-05)
(3.02189e-05 0.000846333 -4.42779e-05)
(2.97779e-05 0.000836234 -5.06712e-05)
(2.89215e-05 0.000825566 -5.67523e-05)
(2.76442e-05 0.000814212 -6.25389e-05)
(2.59694e-05 0.000802366 -6.79004e-05)
(2.39083e-05 0.000789807 -7.28584e-05)
(2.15042e-05 0.000776582 -7.7294e-05)
(1.87806e-05 0.000762306 -8.12333e-05)
(1.5804e-05 0.000746795 -8.45678e-05)
(1.26284e-05 0.000729386 -8.73267e-05)
(9.34873e-06 0.00070951 -8.94073e-05)
(6.05757e-06 0.000686015 -9.08125e-05)
(2.89417e-06 0.000657665 -9.13742e-05)
(3.87561e-09 0.000622428 -9.10821e-05)
(-2.35952e-06 0.000577892 -9.0286e-05)
(-3.70301e-06 0.000520439 -8.9996e-05)
(-3.4698e-06 0.00044555 -8.75505e-05)
(-3.22839e-06 0.000283278 -5.62435e-05)
(-1.08194e-06 0.00034554 7.59803e-05)
(-1.23192e-06 0.000539752 6.95626e-05)
(-2.40321e-07 0.000629848 5.76025e-05)
(1.20053e-06 0.000698202 4.79692e-05)
(3.00184e-06 0.000750198 4.14611e-05)
(4.99007e-06 0.000789522 3.62226e-05)
(7.05253e-06 0.000819283 3.14315e-05)
(9.12579e-06 0.000841474 2.67431e-05)
(1.11388e-05 0.00085794 2.21113e-05)
(1.30379e-05 0.000869736 1.73982e-05)
(1.47757e-05 0.000878007 1.26369e-05)
(1.63209e-05 0.000883288 7.75288e-06)
(1.76365e-05 0.000886329 2.84701e-06)
(1.8702e-05 0.000887373 -2.14051e-06)
(1.94988e-05 0.000886943 -7.10408e-06)
(2.00093e-05 0.000885112 -1.20719e-05)
(2.0225e-05 0.00088226 -1.69321e-05)
(2.01341e-05 0.000878355 -2.17082e-05)
(1.97434e-05 0.000873672 -2.62907e-05)
(1.9047e-05 0.000868091 -3.07061e-05)
(1.8061e-05 0.000861788 -3.48498e-05)
(1.67883e-05 0.000854546 -3.87528e-05)
(1.52567e-05 0.000846415 -4.2317e-05)
(1.34857e-05 0.000837036 -4.55792e-05)
(1.15148e-05 0.00082627 -4.84487e-05)
(9.37762e-06 0.000813526 -5.09664e-05)
(7.13579e-06 0.000798341 -5.30489e-05)
(4.84577e-06 0.000779724 -5.47397e-05)
(2.59662e-06 0.000756653 -5.59422e-05)
(4.74912e-07 0.000727419 -5.66523e-05)
(-1.39577e-06 0.000690014 -5.67759e-05)
(-2.83649e-06 0.00064145 -5.67024e-05)
(-3.48628e-06 0.000577943 -5.71259e-05)
(-3.05474e-06 0.000494212 -5.62029e-05)
(-2.53964e-06 0.000311995 -3.47403e-05)
(-8.43143e-07 0.000332617 6.09693e-05)
(-9.70771e-07 0.000525103 5.8795e-05)
(-5.98657e-07 0.000614566 5.1775e-05)
(-4.06393e-08 0.000682967 4.59251e-05)
(7.2618e-07 0.000735337 4.18217e-05)
(1.61297e-06 0.000775671 3.84524e-05)
(2.56433e-06 0.000806702 3.52573e-05)
(3.54119e-06 0.000830736 3.21468e-05)
(4.51214e-06 0.000849229 2.90188e-05)
(5.44504e-06 0.000863552 2.58964e-05)
(6.31551e-06 0.000874452 2.27047e-05)
(7.09938e-06 0.000882779 1.95029e-05)
(7.76414e-06 0.000888884 1.62509e-05)
(8.30877e-06 0.000893328 1.30042e-05)
(8.71281e-06 0.000896237 9.72765e-06)
(8.9675e-06 0.00089799 6.50209e-06)
(9.06182e-06 0.000898578 3.32495e-06)
(8.99239e-06 0.000898267 2.77388e-07)
(8.75213e-06 0.000896949 -2.68086e-06)
(8.34803e-06 0.000894794 -5.46755e-06)
(7.7804e-06 0.000891603 -8.12433e-06)
(7.06099e-06 0.000887436 -1.05727e-05)
(6.19725e-06 0.000881975 -1.28585e-05)
(5.21486e-06 0.000875126 -1.49078e-05)
(4.13014e-06 0.000866381 -1.67711e-05)
(2.9766e-06 0.000855394 -1.838e-05)
(1.78337e-06 0.000841334 -1.97903e-05)
(5.94798e-07 0.000823419 -2.09399e-05)
(-5.37756e-07 0.000800246 -2.18788e-05)
(-1.55393e-06 0.000770262 -2.25242e-05)
(-2.38847e-06 0.000731039 -2.29367e-05)
(-2.92234e-06 0.000679658 -2.33163e-05)
(-2.94589e-06 0.000611838 -2.42632e-05)
(-2.34717e-06 0.000522206 -2.45801e-05)
(-1.74178e-06 0.000326755 -1.27472e-05)
(-1.01197e-06 0.000321291 5.00063e-05)
(-1.40144e-06 0.000513079 5.35914e-05)
(-1.64224e-06 0.000602352 5.16815e-05)
(-1.89244e-06 0.000670654 4.95762e-05)
(-1.99311e-06 0.000723257 4.79365e-05)
(-1.96821e-06 0.000763905 4.63429e-05)
(-1.86744e-06 0.000795603 4.46863e-05)
(-1.70459e-06 0.000820362 4.29131e-05)
(-1.49941e-06 0.000839922 4.1094e-05)
(-1.26406e-06 0.000855336 3.9192e-05)
(-1.01806e-06 0.00086764 3.72703e-05)
(-7.70075e-07 0.000877352 3.52908e-05)
(-5.34339e-07 0.000885113 3.33195e-05)
(-3.25831e-07 0.000891133 3.13524e-05)
(-1.54047e-07 0.000895829 2.94636e-05)
(-2.78581e-08 0.000899262 2.75992e-05)
(5.30182e-08 0.000901712 2.57963e-05)
(8.07097e-08 0.000903103 2.40249e-05)
(5.42321e-08 0.000903609 2.23547e-05)
(-2.57982e-08 0.000903065 2.07429e-05)
(-1.55472e-07 0.000901547 1.9252e-05)
(-3.35776e-07 0.000898786 1.7833e-05)
(-5.5751e-07 0.000894736 1.65456e-05)
(-8.13791e-07 0.000888977 1.53353e-05)
(-1.09137e-06 0.000881267 1.42576e-05)
(-1.37802e-06 0.000870938 1.32518e-05)
(-1.65534e-06 0.000857416 1.23621e-05)
(-1.9067e-06 0.0008396 1.15154e-05)
(-2.10929e-06 0.000816327 1.07447e-05)
(-2.23982e-06 0.000785731 9.97101e-06)
(-2.27194e-06 0.000745596 9.18688e-06)
(-2.16458e-06 0.000692687 8.10215e-06)
(-1.83094e-06 0.000622892 6.29989e-06)
(-1.25419e-06 0.000530517 4.18016e-06)
(-7.93113e-07 0.000329425 6.46261e-06)
(-1.31026e-06 0.000310948 4.30612e-05)
(-2.0133e-06 0.000500764 5.25079e-05)
(-2.69157e-06 0.000589038 5.49172e-05)
(-3.5009e-06 0.000656699 5.59879e-05)
(-4.13401e-06 0.000708763 5.63916e-05)
(-4.62194e-06 0.000749184 5.63255e-05)
(-4.99732e-06 0.00078069 5.58767e-05)
(-5.28558e-06 0.000805534 5.51978e-05)
(-5.48727e-06 0.000825172 5.43312e-05)
(-5.61956e-06 0.000840913 5.33754e-05)
(-5.68407e-06 0.000853506 5.2326e-05)
(-5.69606e-06 0.000863734 5.12556e-05)
(-5.65652e-06 0.000871949 5.01419e-05)
(-5.57896e-06 0.000878637 4.90444e-05)
(-5.46312e-06 0.000883923 4.79295e-05)
(-5.32425e-06 0.000888098 4.6877e-05)
(-5.15948e-06 0.000891145 4.58508e-05)
(-4.97545e-06 0.000893263 4.49006e-05)
(-4.77879e-06 0.000894335 4.39846e-05)
(-4.5662e-06 0.000894465 4.31521e-05)
(-4.34032e-06 0.00089344 4.23554e-05)
(-4.10261e-06 0.000891258 4.16405e-05)
(-3.85343e-06 0.000887585 4.09542e-05)
(-3.58873e-06 0.000882269 4.03372e-05)
(-3.30713e-06 0.000874786 3.97285e-05)
(-3.00852e-06 0.000864738 3.91589e-05)
(-2.69162e-06 0.000851277 3.85547e-05)
(-2.34905e-06 0.000833575 3.79263e-05)
(-1.9865e-06 0.000810216 3.7174e-05)
(-1.60767e-06 0.000779609 3.62712e-05)
(-1.22252e-06 0.00073932 3.50489e-05)
(-8.40553e-07 0.000686392 3.32774e-05)
(-4.72224e-07 0.000616556 3.04241e-05)
(-8.91194e-08 0.000524408 2.63937e-05)
(7.58546e-08 0.000324054 2.04383e-05)
(-1.47256e-06 0.000301197 3.69323e-05)
(-2.3502e-06 0.000486992 4.99645e-05)
(-3.24899e-06 0.000573423 5.50209e-05)
(-4.3035e-06 0.00063959 5.80108e-05)
(-5.16961e-06 0.000690596 5.97103e-05)
(-5.86491e-06 0.000730102 6.05677e-05)
(-6.43673e-06 0.000760998 6.09047e-05)
(-6.89604e-06 0.000785266 6.08709e-05)
(-7.2575e-06 0.000804562 6.06225e-05)
(-7.51724e-06 0.000819934 6.02068e-05)
(-7.69353e-06 0.000832349 5.97161e-05)
(-7.77981e-06 0.000842336 5.91543e-05)
(-7.79318e-06 0.000850475 5.85869e-05)
(-7.7287e-06 0.000856998 5.79988e-05)
(-7.59668e-06 0.000862264 5.74429e-05)
(-7.39506e-06 0.00086633 5.68945e-05)
(-7.13731e-06 0.000869418 5.63994e-05)
(-6.82633e-06 0.000871469 5.59256e-05)
(-6.46579e-06 0.000872608 5.55134e-05)
(-6.05889e-06 0.000872684 5.51246e-05)
(-5.61073e-06 0.000871729 5.47939e-05)
(-5.12882e-06 0.00086949 5.44772e-05)
(-4.61306e-06 0.00086588 5.42032e-05)
(-4.06712e-06 0.000860503 5.39202e-05)
(-3.49799e-06 0.000853088 5.36478e-05)
(-2.91048e-06 0.000843002 5.33225e-05)
(-2.30861e-06 0.000829664 5.29464e-05)
(-1.70676e-06 0.000812031 5.24307e-05)
(-1.11466e-06 0.00078897 5.17394e-05)
(-5.51972e-07 0.000758711 5.073e-05)
(-4.46861e-08 0.000719135 4.92711e-05)
(3.56494e-07 0.000667171 4.70247e-05)
(6.04267e-07 0.000598924 4.3497e-05)
(7.50325e-07 0.000508988 3.81736e-05)
(6.5019e-07 0.000313968 2.71032e-05)
(-1.32347e-06 0.00029254 2.91704e-05)
(-2.16496e-06 0.000473524 4.21616e-05)
(-3.03009e-06 0.000557652 4.77271e-05)
(-4.0644e-06 0.000622107 5.11869e-05)
(-4.92111e-06 0.000671706 5.31933e-05)
(-5.62668e-06 0.000710168 5.43279e-05)
(-6.20387e-06 0.000740132 5.48957e-05)
(-6.68208e-06 0.000763711 5.51134e-05)
(-7.05424e-06 0.000782328 5.50817e-05)
(-7.33235e-06 0.000797202 5.49118e-05)
(-7.51076e-06 0.000809079 5.46379e-05)
(-7.60058e-06 0.000818675 5.43277e-05)
(-7.60239e-06 0.000826358 5.39853e-05)
(-7.52341e-06 0.000832559 5.36595e-05)
(-7.36296e-06 0.000837424 5.33398e-05)
(-7.13397e-06 0.000841216 5.30648e-05)
(-6.83427e-06 0.000843945 5.28155e-05)
(-6.47318e-06 0.000845763 5.26234e-05)
(-6.0578e-06 0.000846583 5.24627e-05)
(-5.59223e-06 0.000846466 5.2359e-05)
(-5.08046e-06 0.000845233 5.22798e-05)
(-4.53345e-06 0.000842847 5.22444e-05)
(-3.95646e-06 0.000839015 5.2214e-05)
(-3.35755e-06 0.00083356 5.21999e-05)
(-2.74234e-06 0.000826013 5.21543e-05)
(-2.11893e-06 0.00081597 5.2076e-05)
(-1.4999e-06 0.000802666 5.19004e-05)
(-8.94899e-07 0.000785303 5.16003e-05)
(-3.2456e-07 0.000762594 5.1074e-05)
(1.94804e-07 0.00073304 5.0237e-05)
(6.27942e-07 0.000694423 4.88954e-05)
(9.31359e-07 0.000643987 4.67874e-05)
(1.03484e-06 0.000577844 4.34024e-05)
(1.02437e-06 0.000490977 3.81822e-05)
(8.01983e-07 0.000302844 2.62236e-05)
(-8.90287e-07 0.000286104 1.89196e-05)
(-1.52245e-06 0.000463158 2.82438e-05)
(-2.19374e-06 0.000545479 3.24385e-05)
(-3.01774e-06 0.00060847 3.50395e-05)
(-3.7447e-06 0.000656966 3.65142e-05)
(-4.35742e-06 0.00069446 3.72973e-05)
(-4.88249e-06 0.000723678 3.76625e-05)
(-5.31972e-06 0.000746533 3.77436e-05)
(-5.67631e-06 0.000764581 3.76532e-05)
(-5.9398e-06 0.000778855 3.74435e-05)
(-6.11779e-06 0.000790254 3.71803e-05)
(-6.21077e-06 0.000799318 3.68825e-05)
(-6.2224e-06 0.000806578 3.65943e-05)
(-6.15057e-06 0.000812293 3.63182e-05)
(-6.00732e-06 0.00081678 3.60874e-05)
(-5.79096e-06 0.00082013 3.58953e-05)
(-5.51464e-06 0.000822527 3.57673e-05)
(-5.17885e-06 0.000823951 3.56898e-05)
(-4.7971e-06 0.00082449 3.56816e-05)
(-4.37384e-06 0.000824034 3.57226e-05)
(-3.91693e-06 0.000822583 3.58251e-05)
(-3.43641e-06 0.000819926 3.59631e-05)
(-2.93622e-06 0.000815953 3.61418e-05)
(-2.42962e-06 0.000810318 3.63283e-05)
(-1.92223e-06 0.00080274 3.65202e-05)
(-1.42187e-06 0.000792654 3.6675e-05)
(-9.38052e-07 0.000779491 3.67769e-05)
(-4.8212e-07 0.00076231 3.67656e-05)
(-6.17756e-08 0.000740036 3.6597e-05)
(3.01663e-07 0.000711059 3.61708e-05)
(5.95071e-07 0.000673403 3.53752e-05)
(7.77924e-07 0.000624257 3.39913e-05)
(8.16998e-07 0.00056003 3.16867e-05)
(7.75004e-07 0.000475752 2.80035e-05)
(5.85507e-07 0.000293544 1.91628e-05)
(-3.09887e-07 0.000283208 7.44437e-06)
(-6.69185e-07 0.00045882 1.08663e-05)
(-1.0499e-06 0.000540417 1.25273e-05)
(-1.59923e-06 0.000602852 1.34827e-05)
(-2.13535e-06 0.000650815 1.38772e-05)
(-2.63606e-06 0.000687879 1.39441e-05)
(-3.08559e-06 0.000716632 1.38037e-05)
(-3.48243e-06 0.000739099 1.35374e-05)
(-3.81594e-06 0.000756701 1.31848e-05)
(-4.0837e-06 0.000770596 1.27936e-05)
(-4.27239e-06 0.000781553 1.23844e-05)
(-4.39053e-06 0.000790245 1.19912e-05)
(-4.43214e-06 0.000797073 1.16244e-05)
(-4.40614e-06 0.000802433 1.131e-05)
(-4.30816e-06 0.000806511 1.10519e-05)
(-4.15121e-06 0.000809537 1.08696e-05)
(-3.94231e-06 0.000811562 1.07607e-05)
(-3.68817e-06 0.000812707 1.07391e-05)
(-3.39602e-06 0.000812925 1.0796e-05)
(-3.07559e-06 0.000812247 1.09385e-05)
(-2.73773e-06 0.000810536 1.11519e-05)
(-2.38929e-06 0.000807723 1.14375e-05)
(-2.04145e-06 0.000803561 1.17745e-05)
(-1.69788e-06 0.000797845 1.21587e-05)
(-1.36952e-06 0.000790163 1.25643e-05)
(-1.05907e-06 0.000780092 1.29815e-05)
(-7.74339e-07 0.000766936 1.33787e-05)
(-5.17248e-07 0.000749904 1.37388e-05)
(-2.96007e-07 0.000727806 1.40209e-05)
(-1.09566e-07 0.000699189 1.41929e-05)
(3.40159e-08 0.000661989 1.41917e-05)
(1.31525e-07 0.000613567 1.39484e-05)
(1.75698e-07 0.000550287 1.33233e-05)
(2.12251e-07 0.000467381 1.21336e-05)
(1.45444e-07 0.000288197 8.88027e-06)
(2.38862e-07 0.000284432 -3.22181e-06)
(1.31071e-07 0.000461519 -5.95621e-06)
(2.19228e-08 0.000543783 -6.98626e-06)
(-2.60183e-07 0.000606625 -7.80097e-06)
(-6.27914e-07 0.000654854 -8.55459e-06)
(-1.02108e-06 0.000692 -9.26939e-06)
(-1.41402e-06 0.00072077 -9.95435e-06)
(-1.78022e-06 0.00074312 -1.06212e-05)
(-2.10976e-06 0.000760585 -1.12671e-05)
(-2.38544e-06 0.000774244 -1.18895e-05)
(-2.60228e-06 0.000784979 -1.24737e-05)
(-2.75422e-06 0.000793376 -1.30115e-05)
(-2.84521e-06 0.000799946 -1.34853e-05)
(-2.8714e-06 0.000804993 -1.38869e-05)
(-2.83995e-06 0.000808813 -1.42009e-05)
(-2.75553e-06 0.00081154 -1.44223e-05)
(-2.62711e-06 0.000813334 -1.454e-05)
(-2.4637e-06 0.000814216 -1.45546e-05)
(-2.27819e-06 0.000814248 -1.44615e-05)
(-2.07257e-06 0.000813356 -1.42678e-05)
(-1.86083e-06 0.00081151 -1.3975e-05)
(-1.65393e-06 0.000808537 -1.35937e-05)
(-1.45745e-06 0.000804289 -1.31289e-05)
(-1.27973e-06 0.000798459 -1.2596e-05)
(-1.12383e-06 0.000790729 -1.20037e-05)
(-9.96868e-07 0.000780575 -1.13684e-05)
(-8.96093e-07 0.000767395 -1.06977e-05)
(-8.23355e-07 0.000750293 -1.00031e-05)
(-7.69166e-07 0.000728171 -9.28427e-06)
(-7.34653e-07 0.000699476 -8.53813e-06)
(-7.00443e-07 0.000662226 -7.74298e-06)
(-6.51373e-07 0.000613685 -6.85705e-06)
(-5.50033e-07 0.000550287 -5.78605e-06)
(-3.93469e-07 0.000467179 -4.39656e-06)
(-3.19982e-07 0.000287625 -1.62002e-06)
(6.25324e-07 0.000289515 -1.12125e-05)
(6.69972e-07 0.000470634 -1.8759e-05)
(7.73107e-07 0.000554707 -2.19375e-05)
(6.83346e-07 0.000618875 -2.4181e-05)
(4.47879e-07 0.000668001 -2.58773e-05)
(1.35358e-07 0.000705776 -2.72379e-05)
(-2.02344e-07 0.000734909 -2.83862e-05)
(-5.41981e-07 0.000757482 -2.9393e-05)
(-8.5893e-07 0.000775002 -3.02995e-05)
(-1.13823e-06 0.000788653 -3.11235e-05)
(-1.36588e-06 0.000799273 -3.18715e-05)
(-1.54314e-06 0.000807542 -3.25396e-05)
(-1.66289e-06 0.000813916 -3.31215e-05)
(-1.72828e-06 0.000818787 -3.36071e-05)
(-1.74142e-06 0.000822389 -3.3988e-05)
(-1.71128e-06 0.000824938 -3.42549e-05)
(-1.64336e-06 0.000826527 -3.4402e-05)
(-1.54925e-06 0.000827256 -3.4425e-05)
(-1.43796e-06 0.000827114 -3.43224e-05)
(-1.31983e-06 0.000826103 -3.40948e-05)
(-1.20631e-06 0.000824115 -3.37472e-05)
(-1.10475e-06 0.000821051 -3.3287e-05)
(-1.02284e-06 0.000816685 -3.27249e-05)
(-9.66905e-07 0.000810777 -3.20702e-05)
(-9.43139e-07 0.000802927 -3.13334e-05)
(-9.47984e-07 0.00079267 -3.05208e-05)
(-9.84551e-07 0.000779316 -2.96352e-05)
(-1.04265e-06 0.00076202 -2.86689e-05)
(-1.11426e-06 0.000739587 -2.76014e-05)
(-1.18093e-06 0.000710497 -2.63887e-05)
(-1.22894e-06 0.000672656 -2.4953e-05)
(-1.20644e-06 0.000623338 -2.31462e-05)
(-1.06115e-06 0.000558834 -2.07082e-05)
(-8.05134e-07 0.000474256 -1.72841e-05)
(-6.57789e-07 0.00029144 -9.78179e-06)
(7.81629e-07 0.000297312 -1.55309e-05)
(8.67138e-07 0.000483844 -2.54697e-05)
(1.06771e-06 0.000570396 -2.97362e-05)
(1.07895e-06 0.000636361 -3.27088e-05)
(9.16734e-07 0.000686791 -3.48868e-05)
(6.63583e-07 0.000725465 -3.65803e-05)
(3.70757e-07 0.000755225 -3.79703e-05)
(7.02349e-08 0.000778181 -3.91587e-05)
(-2.17784e-07 0.000795941 -4.02063e-05)
(-4.73682e-07 0.000809686 -4.11434e-05)
(-6.88856e-07 0.000820333 -4.1984e-05)
(-8.57264e-07 0.000828543 -4.27295e-05)
(-9.73297e-07 0.000834841 -4.33757e-05)
(-1.0388e-06 0.000839586 -4.39146e-05)
(-1.06086e-06 0.000843075 -4.43381e-05)
(-1.04322e-06 0.000845484 -4.46375e-05)
(-9.96896e-07 0.000846964 -4.4807e-05)
(-9.27161e-07 0.00084757 -4.48422e-05)
(-8.47866e-07 0.000847341 -4.47426e-05)
(-7.69114e-07 0.000846233 -4.45089e-05)
(-6.99645e-07 0.000844185 -4.41468e-05)
(-6.4925e-07 0.000841042 -4.36617e-05)
(-6.25087e-07 0.000836621 -4.30635e-05)
(-6.3376e-07 0.000830622 -4.23596e-05)
(-6.76647e-07 0.00082268 -4.15594e-05)
(-7.54909e-07 0.000812264 -4.06658e-05)
(-8.63979e-07 0.000798709 -3.96779e-05)
(-9.95503e-07 0.000781092 -3.858e-05)
(-1.13441e-06 0.000758225 -3.73411e-05)
(-1.266e-06 0.000728494 -3.5898e-05)
(-1.36008e-06 0.000689782 -3.41453e-05)
(-1.37065e-06 0.000639239 -3.18845e-05)
(-1.22415e-06 0.000573075 -2.87729e-05)
(-9.36816e-07 0.000486225 -2.4336e-05)
(-7.91212e-07 0.000298452 -1.44359e-05)
(7.26978e-07 0.000306274 -1.61529e-05)
(7.58661e-07 0.000498349 -2.58964e-05)
(9.55294e-07 0.000587429 -3.01109e-05)
(9.72073e-07 0.000655264 -3.3058e-05)
(8.35186e-07 0.000707036 -3.5219e-05)
(6.1495e-07 0.000746679 -3.69047e-05)
(3.63452e-07 0.000777098 -3.82916e-05)
(1.05538e-07 0.000800504 -3.94823e-05)
(-1.35726e-07 0.000818533 -4.05339e-05)
(-3.50049e-07 0.000832437 -4.14781e-05)
(-5.2172e-07 0.00084314 -4.23262e-05)
(-6.47764e-07 0.000851356 -4.30813e-05)
(-7.27795e-07 0.000857604 -4.37369e-05)
(-7.61445e-07 0.000862288 -4.42866e-05)
(-7.53601e-07 0.000865688 -4.472e-05)
(-7.10949e-07 0.00086802 -4.50303e-05)
(-6.41864e-07 0.000869412 -4.52095e-05)
(-5.56398e-07 0.000869952 -4.52552e-05)
(-4.65727e-07 0.000869653 -4.51642e-05)
(-3.76459e-07 0.0008685 -4.49397e-05)
(-3.00793e-07 0.000866398 -4.45848e-05)
(-2.4916e-07 0.00086322 -4.41075e-05)
(-2.26832e-07 0.000858743 -4.3515e-05)
(-2.39793e-07 0.000852687 -4.28179e-05)
(-2.89414e-07 0.000844642 -4.20223e-05)
(-3.76363e-07 0.000834087 -4.1135e-05)
(-4.99797e-07 0.000820305 -4.01523e-05)
(-6.44723e-07 0.000802369 -3.90627e-05)
(-8.05205e-07 0.000779022 -3.78332e-05)
(-9.60312e-07 0.000748627 -3.6406e-05)
(-1.08397e-06 0.000708967 -3.46754e-05)
(-1.13112e-06 0.000657134 -3.24545e-05)
(-1.03811e-06 0.000589188 -2.94095e-05)
(-7.90782e-07 0.000499941 -2.50781e-05)
(-7.24559e-07 0.000306903 -1.53595e-05)
(5.12035e-07 0.000314787 -1.39597e-05)
(4.407e-07 0.000511409 -2.14156e-05)
(5.50978e-07 0.00060258 -2.46562e-05)
(5.05237e-07 0.00067195 -2.69615e-05)
(3.54514e-07 0.000724843 -2.86989e-05)
(1.52977e-07 0.000765279 -3.00933e-05)
(-6.30393e-08 0.000796254 -3.12753e-05)
(-2.70545e-07 0.000820024 -3.23161e-05)
(-4.55604e-07 0.000838285 -3.32575e-05)
(-6.05968e-07 0.000852311 -3.41168e-05)
(-7.15899e-07 0.00086307 -3.49011e-05)
(-7.76925e-07 0.000871281 -3.56054e-05)
(-7.92687e-07 0.0008775 -3.62237e-05)
(-7.65818e-07 0.000882127 -3.67448e-05)
(-7.00044e-07 0.000885469 -3.71599e-05)
(-6.00721e-07 0.000887735 -3.74588e-05)
(-4.78044e-07 0.000889075 -3.76361e-05)
(-3.42084e-07 0.000889563 -3.76857e-05)
(-2.01448e-07 0.000889233 -3.7608e-05)
(-6.84255e-08 0.00088805 -3.74026e-05)
(5.0409e-08 0.000885935 -3.70758e-05)
(1.44652e-07 0.000882738 -3.66332e-05)
(2.08038e-07 0.000878248 -3.60849e-05)
(2.34113e-07 0.000872155 -3.54398e-05)
(2.2034e-07 0.000864056 -3.47091e-05)
(1.64213e-07 0.000853396 -3.38988e-05)
(7.00409e-08 0.000839452 -3.30133e-05)
(-5.45197e-08 0.000821254 -3.20453e-05)
(-2.01965e-07 0.000797528 -3.09769e-05)
(-3.58287e-07 0.000766574 -2.97653e-05)
(-5.00428e-07 0.000726136 -2.8338e-05)
(-5.98539e-07 0.000673215 -2.6556e-05)
(-5.96717e-07 0.000603789 -2.41793e-05)
(-4.55056e-07 0.000512532 -2.08535e-05)
(-5.08363e-07 0.000315111 -1.34054e-05)
(2.24504e-07 0.000321607 -1.01555e-05)
(3.19817e-08 0.000521108 -1.40781e-05)
(1.45579e-08 0.000613601 -1.57897e-05)
(-1.27676e-07 0.000683949 -1.70819e-05)
(-3.15624e-07 0.000737541 -1.81446e-05)
(-5.1158e-07 0.000778472 -1.90726e-05)
(-6.94039e-07 0.000809776 -1.99193e-05)
(-8.53291e-07 0.000833758 -2.07132e-05)
(-9.78969e-07 0.000852132 -2.14664e-05)
(-1.06129e-06 0.000866209 -2.21801e-05)
(-1.09699e-06 0.000876964 -2.28482e-05)
(-1.08619e-06 0.000885147 -2.34608e-05)
(-1.02802e-06 0.00089131 -2.40056e-05)
(-9.27618e-07 0.000895879 -2.44706e-05)
(-7.88374e-07 0.000899156 -2.48439e-05)
(-6.19867e-07 0.000901369 -2.51162e-05)
(-4.29645e-07 0.000902659 -2.52793e-05)
(-2.2775e-07 0.000903117 -2.53294e-05)
(-2.19248e-08 0.000902764 -2.52641e-05)
(1.77101e-07 0.000901578 -2.50857e-05)
(3.58772e-07 0.000899467 -2.47982e-05)
(5.15972e-07 0.000896287 -2.44097e-05)
(6.39796e-07 0.00089181 -2.39292e-05)
(7.27961e-07 0.000885731 -2.3369e-05)
(7.70221e-07 0.000877625 -2.27408e-05)
(7.67733e-07 0.000866938 -2.20567e-05)
(7.24078e-07 0.000852918 -2.13262e-05)
(6.38914e-07 0.000834589 -2.05556e-05)
(5.19023e-07 0.000810641 -1.97427e-05)
(3.76999e-07 0.000779358 -1.88748e-05)
(2.19898e-07 0.000738434 -1.79222e-05)
(6.79939e-08 0.000684835 -1.68255e-05)
(-4.2983e-08 0.000614466 -1.54787e-05)
(-4.28257e-08 0.000521936 -1.37002e-05)
(-2.24886e-07 0.00032174 -9.77334e-06)
(-6.39259e-08 0.000326013 -5.98092e-06)
(-3.61075e-07 0.000526493 -6.02222e-06)
(-5.20123e-07 0.000619444 -6.04547e-06)
(-7.61472e-07 0.000690116 -6.21114e-06)
(-9.8727e-07 0.000743931 -6.51862e-06)
(-1.18083e-06 0.000784995 -6.91402e-06)
(-1.33596e-06 0.000816369 -7.36641e-06)
(-1.45137e-06 0.00084036 -7.8663e-06)
(-1.52012e-06 0.000858709 -8.39605e-06)
(-1.5394e-06 0.000872726 -8.93371e-06)
(-1.50742e-06 0.000883408 -9.46137e-06)