/*--------------------------------*- C++ -*----------------------------------*\
| =========                 |                                                 |
| \\      /  F ield         | OpenFOAM: The Open Source CFD Toolbox           |
|  \\    /   O peration     | Version:  v2006                                 |
|   \\  /    A nd           | Website:  www.openfoam.com                      |
|    \\/     M anipulation  |                                                 |
\*---------------------------------------------------------------------------*/
FoamFile
{
    version     2.0;
    format      ascii;
    class       volScalarField;
    location    "52";
    object      alphat;
}
// * * * * * * * * * * * * * * * * * * * * * * * * * * * * * * * * * * * * * //

dimensions      [1 -1 -1 0 0 0 0];


internalField   nonuniform List<scalar> 
78750
(
1.5695e-08
6.4281e-07
7.74154e-07
8.75629e-07
9.52942e-07
1.00158e-06
1.02177e-06
1.01638e-06
9.89323e-07
9.44625e-07
8.85908e-07
8.16364e-07
7.39029e-07
6.56626e-07
5.72164e-07
4.89147e-07
4.08749e-07
3.35818e-07
2.74124e-07
2.26301e-07
1.93448e-07
1.74747e-07
1.67625e-07
1.68569e-07
1.74261e-07
1.82404e-07
1.9189e-07
2.02367e-07
2.13551e-07
2.24477e-07
2.32495e-07
2.31582e-07
2.11799e-07
1.70711e-07
5.6355e-09
2.44759e-09
1.08986e-06
2.76105e-06
5.77925e-06
8.13355e-06
9.33808e-06
1.0204e-05
1.07489e-05
1.10037e-05
1.10031e-05
1.0782e-05
1.03577e-05
9.74592e-06
9.12673e-06
8.35024e-06
7.51353e-06
6.64227e-06
5.76745e-06
4.91084e-06
4.08951e-06
3.31958e-06
2.61928e-06
2.0063e-06
1.4981e-06
1.10789e-06
8.38683e-07
6.79744e-07
6.09065e-07
6.02119e-07
6.4192e-07
4.51255e-07
3.69085e-07
4.76944e-07
1.01357e-06
2.27223e-08
2.19879e-09
1.99569e-06
4.21401e-06
6.96703e-06
1.01944e-05
1.19369e-05
1.33632e-05
1.44788e-05
1.52966e-05
1.58332e-05
1.61065e-05
1.61357e-05
1.59411e-05
1.52123e-05
1.36947e-05
1.25749e-05
1.17748e-05
1.12033e-05
1.07976e-05
1.01087e-05
8.9978e-06
7.88849e-06
6.79639e-06
5.73766e-06
4.73035e-06
3.79371e-06
2.94851e-06
2.21915e-06
1.63763e-06
8.26225e-07
4.92798e-07
4.67344e-07
8.58241e-07
1.27454e-06
3.6965e-08
3.33773e-09
1.74362e-06
3.80903e-06
6.43219e-06
9.99041e-06
1.43487e-05
1.6006e-05
1.73552e-05
1.84134e-05
1.91988e-05
1.97302e-05
2.00263e-05
2.01052e-05
1.99857e-05
1.82536e-05
1.67126e-05
1.55002e-05
1.45492e-05
1.38284e-05
1.33332e-05
1.30663e-05
1.29504e-05
1.22065e-05
1.09718e-05
9.70105e-06
8.39807e-06
7.07431e-06
5.76212e-06
3.57864e-06
1.78522e-06
9.72785e-07
7.874e-07
1.427e-06
1.32747e-06
4.9226e-08
5.12101e-09
1.95197e-06
4.31843e-06
7.36804e-06
1.1405e-05
1.66345e-05
1.96275e-05
2.1023e-05
2.20758e-05
2.28173e-05
2.32777e-05
2.34856e-05
2.34683e-05
2.32518e-05
2.14402e-05
1.94583e-05
1.77793e-05
1.63722e-05
1.51913e-05
1.42201e-05
1.34665e-05
1.29422e-05
1.26294e-05
1.24331e-05
1.21237e-05
1.13247e-05
9.68992e-06
7.2511e-06
4.61893e-06
2.62696e-06
1.56416e-06
1.2916e-06
2.37302e-06
1.36951e-06
6.15703e-08
7.51753e-09
1.97332e-06
4.4337e-06
7.75421e-06
1.22011e-05
1.78279e-05
2.27799e-05
2.418e-05
2.52192e-05
2.59337e-05
2.63562e-05
2.65166e-05
2.6443e-05
2.45665e-05
2.22344e-05
2.01651e-05
1.83795e-05
1.68319e-05
1.54813e-05
1.43039e-05
1.3301e-05
1.24945e-05
1.18986e-05
1.14724e-05
1.10707e-05
1.04155e-05
9.18132e-06
7.25916e-06
5.02437e-06
3.16495e-06
2.07522e-06
1.83689e-06
3.46236e-06
1.44071e-06
7.28142e-08
1.00649e-08
2.01757e-06
4.59644e-06
8.23754e-06
1.32628e-05
1.95864e-05
2.56142e-05
2.69863e-05
2.79743e-05
2.86209e-05
2.89636e-05
2.90361e-05
2.77465e-05
2.50435e-05
2.25076e-05
2.03043e-05
1.84071e-05
1.67628e-05
1.53192e-05
1.40415e-05
1.29209e-05
1.19756e-05
1.12269e-05
1.06517e-05
1.0145e-05
9.50176e-06
8.46249e-06
6.90379e-06
5.06789e-06
3.47373e-06
2.50638e-06
2.42753e-06
4.59387e-06
1.50878e-06
8.32175e-08
1.31045e-08
2.04944e-06
4.7299e-06
8.67586e-06
1.42785e-05
2.12532e-05
2.78927e-05
2.9568e-05
3.05015e-05
3.1084e-05
3.13556e-05
3.06173e-05
2.77261e-05
2.48313e-05
2.22517e-05
2.00244e-05
1.81129e-05
1.64559e-05
1.49953e-05
1.36892e-05
1.25209e-05
1.15035e-05
1.06618e-05
9.98225e-06
9.38021e-06
8.69734e-06
7.74023e-06
6.41827e-06
4.90831e-06
3.59652e-06
2.82225e-06
2.97938e-06
5.47078e-06
1.57632e-06
9.23219e-08
1.60672e-08
2.08911e-06
4.87038e-06
9.10166e-06
1.52633e-05
2.28768e-05
2.98011e-05
3.18315e-05
3.27261e-05
3.32597e-05
3.34744e-05
3.06879e-05
2.74881e-05
2.44886e-05
2.186e-05
1.96193e-05
1.77113e-05
1.60632e-05
1.4609e-05
1.33005e-05
1.21165e-05
1.10687e-05
1.01841e-05
9.44896e-06
8.7849e-06
8.06314e-06
7.14435e-06
5.98108e-06
4.72112e-06
3.65801e-06
3.09108e-06
3.52483e-06
6.05181e-06
1.63542e-06
1.00459e-07
1.9221e-08
2.12797e-06
4.99288e-06
9.46372e-06
1.60994e-05
2.42079e-05
3.12538e-05
3.40042e-05
3.48655e-05
3.53596e-05
3.36247e-05
3.04578e-05
2.71447e-05
2.41023e-05
2.14741e-05
1.92534e-05
1.73719e-05
1.57502e-05
1.43179e-05
1.30222e-05
1.18376e-05
1.07715e-05
9.85136e-06
9.06406e-06
8.33622e-06
7.56309e-06
6.65092e-06
5.59189e-06
4.51993e-06
3.66519e-06
3.29767e-06
4.01304e-06
6.38612e-06
1.68938e-06
1.07788e-07
2.21629e-08
2.16211e-06
5.09099e-06
9.74618e-06
1.67592e-05
2.52644e-05
3.23976e-05
3.59268e-05
3.67679e-05
3.62842e-05
3.36104e-05
3.02386e-05
2.68348e-05
2.37586e-05
2.11248e-05
1.89091e-05
1.70365e-05
1.54268e-05
1.40086e-05
1.27282e-05
1.15571e-05
1.04986e-05
9.57759e-06
8.77387e-06
8.0119e-06
7.20359e-06
6.29188e-06
5.30328e-06
4.36781e-06
3.67685e-06
3.48671e-06
4.47524e-06
6.55153e-06
1.73596e-06
1.1467e-07
2.5217e-08
2.19408e-06
5.17406e-06
9.98167e-06
1.73114e-05
2.61206e-05
3.32486e-05
3.70417e-05
3.78338e-05
3.63875e-05
3.35332e-05
3.00745e-05
2.66331e-05
2.35472e-05
2.09135e-05
1.86996e-05
1.68282e-05
1.52188e-05
1.38008e-05
1.25209e-05
1.13497e-05
1.02886e-05
9.36164e-06
8.5443e-06
7.75772e-06
6.92444e-06
6.01377e-06
5.0774e-06
4.24438e-06
3.68288e-06
3.64635e-06
4.88488e-06
6.63199e-06
1.77777e-06
1.21261e-07
2.81342e-08
2.22078e-06
5.23979e-06
1.01682e-05
1.77533e-05
2.68016e-05
3.39087e-05
3.75077e-05
3.80793e-05
3.6446e-05
3.34581e-05
2.99248e-05
2.64552e-05
2.33643e-05
2.07322e-05
1.85189e-05
1.66447e-05
1.50293e-05
1.36042e-05
1.23181e-05
1.11429e-05
1.00811e-05
9.15793e-06
8.34317e-06
7.55238e-06
6.71335e-06
5.81284e-06
4.92035e-06
4.16619e-06
3.7071e-06
3.80351e-06
5.27235e-06
6.65142e-06
1.81397e-06
1.27666e-07
3.12145e-08
2.24691e-06
5.30258e-06
1.0347e-05
1.81722e-05
2.74152e-05
3.44559e-05
3.78531e-05
3.82236e-05
3.64408e-05
3.33705e-05
2.98138e-05
2.63539e-05
2.328e-05
2.06591e-05
1.84469e-05
1.65642e-05
1.49329e-05
1.3487e-05
1.21783e-05
1.09812e-05
9.90075e-06
8.96645e-06
8.14787e-06
7.35708e-06
6.52398e-06
5.64423e-06
4.79598e-06
4.10909e-06
3.73529e-06
3.94799e-06
5.6249e-06
6.64638e-06
1.84636e-06
1.33887e-07
3.42505e-08
2.27012e-06
5.35924e-06
1.0511e-05
1.85548e-05
2.79609e-05
3.49262e-05
3.81366e-05
3.83243e-05
3.64073e-05
3.32682e-05
2.96999e-05
2.62593e-05
2.32107e-05
2.06077e-05
1.84013e-05
1.65124e-05
1.48649e-05
1.33955e-05
1.20594e-05
1.08344e-05
9.72954e-06
8.78067e-06
7.95851e-06
7.173e-06
6.35514e-06
5.5047e-06
4.70261e-06
4.07664e-06
3.77744e-06
4.09608e-06
5.967e-06
6.61771e-06
1.87478e-06
1.39908e-07
3.74698e-08
2.29397e-06
5.41886e-06
1.06844e-05
1.89499e-05
2.84928e-05
3.53458e-05
3.83573e-05
3.8374e-05
3.63506e-05
3.3177e-05
2.96277e-05
2.62285e-05
2.32186e-05
2.06396e-05
1.84401e-05
1.65425e-05
1.48731e-05
1.33716e-05
1.1997e-05
1.07307e-05
9.58616e-06
8.60673e-06
7.7697e-06
6.98564e-06
6.18641e-06
5.37171e-06
4.61942e-06
4.05247e-06
3.82187e-06
4.23874e-06
6.28926e-06
6.58364e-06
1.90057e-06
1.4572e-07
4.06845e-08
2.31668e-06
5.47807e-06
1.08579e-05
1.93383e-05
2.89978e-05
3.57304e-05
3.85495e-05
3.8403e-05
3.62801e-05
3.30784e-05
2.95552e-05
2.62052e-05
2.3242e-05
2.06946e-05
1.85084e-05
1.66068e-05
1.49183e-05
1.33852e-05
1.19701e-05
1.06584e-05
9.46851e-06
8.45177e-06
7.59361e-06
6.80708e-06
6.02601e-06
5.24898e-06
4.54801e-06
4.03916e-06
3.87429e-06
4.38618e-06
6.60796e-06
6.5423e-06
1.92407e-06
1.5132e-07
4.40623e-08
2.3404e-06
5.54123e-06
1.10425e-05
1.9742e-05
2.9496e-05
3.60825e-05
3.87051e-05
3.84089e-05
3.62098e-05
3.30055e-05
2.95287e-05
2.62408e-05
2.33312e-05
2.08184e-05
1.86457e-05
1.67381e-05
1.50267e-05
1.34564e-05
1.19934e-05
1.06274e-05
9.38162e-06
8.3155e-06
7.42649e-06
6.63155e-06
5.86656e-06
5.1276e-06
4.4786e-06
4.02731e-06
3.92633e-06
4.53043e-06
6.9141e-06
6.50366e-06
1.94613e-06
1.5672e-07
4.74364e-08
2.36357e-06
5.60511e-06
1.12297e-05
2.01437e-05
2.9975e-05
3.64105e-05
3.8844e-05
3.84064e-05
3.61386e-05
3.29377e-05
2.95123e-05
2.62918e-05
2.34417e-05
2.09699e-05
1.88171e-05
1.69089e-05
1.51782e-05
1.35723e-05
1.20603e-05
1.06361e-05
9.32859e-06
8.20545e-06
7.27794e-06
6.46824e-06
5.71516e-06
5.01219e-06
4.41427e-06
4.01992e-06
3.98222e-06
4.6782e-06
7.21764e-06
6.46582e-06
1.967e-06
1.61937e-07
5.09454e-08
2.38778e-06
5.67251e-06
1.1426e-05
2.05563e-05
3.04452e-05
3.67145e-05
3.89623e-05
3.83984e-05
3.60819e-05
3.29023e-05
2.95404e-05
2.63934e-05
2.36056e-05
2.11758e-05
1.90429e-05
1.71334e-05
1.53816e-05
1.37376e-05
1.21728e-05
1.06852e-05
9.30892e-06
8.11993e-06
7.14607e-06
6.31549e-06
5.56979e-06
4.89958e-06
4.35049e-06
4.01152e-06
4.03598e-06
4.82269e-06
7.51046e-06
6.43384e-06
1.98711e-06
1.66992e-07
5.44387e-08
2.41135e-06
5.73993e-06
1.16233e-05
2.09647e-05
3.08966e-05
3.69996e-05
3.90715e-05
3.83913e-05
3.60339e-05
3.28806e-05
2.95852e-05
2.65146e-05
2.37931e-05
2.14105e-05
1.93035e-05
1.7398e-05
1.56293e-05
1.39488e-05
1.23306e-05
1.07759e-05
9.32511e-06
8.06286e-06
7.0354e-06
6.17774e-06
5.43445e-06
4.79321e-06
4.29028e-06
4.00513e-06
4.09122e-06
4.96898e-06
7.79957e-06
6.40612e-06
2.00669e-06
1.71902e-07
5.80455e-08
2.43579e-06
5.81032e-06
1.18287e-05
2.13823e-05
3.13412e-05
3.727e-05
3.91727e-05
3.839e-05
3.60066e-05
3.28907e-05
2.96673e-05
2.6675e-05
2.40201e-05
2.16854e-05
1.96052e-05
1.77053e-05
1.59214e-05
1.42049e-05
1.25321e-05
1.09078e-05
9.37761e-06
8.0351e-06
6.94693e-06
6.05586e-06
5.30932e-06
4.69205e-06
4.23129e-06
3.99729e-06
4.14354e-06
5.11141e-06
8.07831e-06
6.38491e-06
2.02585e-06
1.76686e-07
6.16278e-08
2.45933e-06
5.87985e-06
1.20335e-05
2.17944e-05
3.17688e-05
3.7527e-05
3.92711e-05
3.83954e-05
3.59924e-05
3.29168e-05
2.97663e-05
2.68534e-05
2.4268e-05
2.19855e-05
1.99376e-05
1.80491e-05
1.62545e-05
1.45046e-05
1.2777e-05
1.10804e-05
9.46612e-06
8.03733e-06
6.88206e-06
5.95182e-06
5.19678e-06
4.59873e-06
4.17626e-06
3.99083e-06
4.1961e-06
5.25405e-06
8.3519e-06
6.36825e-06
2.04474e-06
1.81352e-07
6.53067e-08
2.48337e-06
5.9516e-06
1.22457e-05
2.22162e-05
3.21941e-05
3.77782e-05
3.93707e-05
3.84124e-05
3.59988e-05
3.29684e-05
2.98922e-05
2.70584e-05
2.45425e-05
2.23135e-05
2.03004e-05
1.84268e-05
1.66253e-05
1.4845e-05
1.30637e-05
1.12936e-05
9.59236e-06
8.07214e-06
6.8432e-06
5.86746e-06
5.09778e-06
4.5131e-06
4.12399e-06
3.98369e-06
4.24608e-06
5.3933e-06
8.61708e-06
6.35825e-06
2.06342e-06
1.85914e-07
6.89603e-08
2.50632e-06
6.02201e-06
1.24572e-05
2.26339e-05
3.26069e-05
3.80223e-05
3.94728e-05
3.84388e-05
3.60175e-05
3.30322e-05
3.00295e-05
2.72754e-05
2.48316e-05
2.26602e-05
2.06875e-05
1.88344e-05
1.70308e-05
1.52233e-05
1.33897e-05
1.15449e-05
9.7537e-06
8.13817e-06
6.83019e-06
5.80371e-06
5.01409e-06
4.43748e-06
4.07699e-06
3.97831e-06
4.29574e-06
5.53093e-06
8.87393e-06
6.3501e-06
2.08167e-06
1.90371e-07
7.26942e-08
2.52931e-06
6.09362e-06
1.26749e-05
2.30617e-05
3.30226e-05
3.82693e-05
3.9583e-05
3.84779e-05
3.60513e-05
3.31112e-05
3.01811e-05
2.75064e-05
2.51357e-05
2.30246e-05
2.10962e-05
1.92685e-05
1.74681e-05
1.56381e-05
1.37547e-05
1.18355e-05
9.95231e-06
8.23811e-06
6.84525e-06
5.76213e-06
4.94657e-06
4.37201e-06
4.0348e-06
3.9738e-06
4.34408e-06
5.66748e-06
9.13116e-06
6.35115e-06
2.09992e-06
1.94731e-07
7.64073e-08
2.55111e-06
6.16346e-06
1.28914e-05
2.34869e-05
3.34338e-05
3.85203e-05
3.97022e-05
3.8525e-05
3.60899e-05
3.31924e-05
3.0334e-05
2.77398e-05
2.54454e-05
2.33992e-05
2.15204e-05
1.9724e-05
1.79321e-05
1.60839e-05
1.41535e-05
1.21605e-05
1.01841e-05
8.36933e-06
6.88736e-06
5.7431e-06
4.89668e-06
4.31884e-06
3.99975e-06
3.97229e-06
4.39296e-06
5.80471e-06
9.38815e-06
6.35865e-06
2.11829e-06
1.98992e-07
8.01833e-08
2.57259e-06
6.23324e-06
1.31103e-05
2.39148e-05
3.38403e-05
3.87619e-05
3.9819e-05
3.85734e-05
3.61299e-05
3.32745e-05
3.04879e-05
2.79752e-05
2.57591e-05
2.37812e-05
2.1957e-05
2.01975e-05
1.84204e-05
1.65595e-05
1.45861e-05
1.2521e-05
1.04509e-05
8.53311e-06
6.95753e-06
5.74729e-06
4.86475e-06
4.27805e-06
3.97185e-06
3.97398e-06
4.44309e-06
5.94365e-06
9.64552e-06
6.37365e-06
2.13715e-06
2.03159e-07
8.3942e-08
2.59296e-06
6.30107e-06
1.33267e-05
2.43329e-05
3.42155e-05
3.89745e-05
3.99126e-05
3.86115e-05
3.61619e-05
3.33482e-05
3.06334e-05
2.82035e-05
2.60684e-05
2.41632e-05
2.23989e-05
2.06822e-05
1.89258e-05
1.70577e-05
1.50453e-05
1.29104e-05
1.07471e-05
8.72577e-06
7.05418e-06
5.7747e-06
4.8519e-06
4.25146e-06
3.95317e-06
3.98061e-06
4.49531e-06
6.08436e-06
9.90188e-06
6.39227e-06
2.15616e-06
2.07214e-07
8.77471e-08
2.61284e-06
6.36793e-06
1.35418e-05
2.47444e-05
3.45711e-05
3.91671e-05
3.99889e-05
3.86345e-05
3.61842e-05
3.34135e-05
3.077e-05
2.84231e-05
2.6371e-05
2.45421e-05
2.28426e-05
2.11748e-05
1.94455e-05
1.75762e-05
1.55298e-05
1.33282e-05
1.10726e-05
8.94729e-06
7.17736e-06
5.82534e-06
4.8581e-06
4.23906e-06
3.94384e-06
3.99275e-06
4.55158e-06
6.2319e-06
1.01591e-05
6.41536e-06
2.17531e-06
2.11156e-07
9.15403e-08
2.63188e-06
6.43317e-06
1.37525e-05
2.51382e-05
3.48974e-05
3.9332e-05
4.00409e-05
3.86362e-05
3.61936e-05
3.34639e-05
3.08894e-05
2.86258e-05
2.66593e-05
2.49106e-05
2.32811e-05
2.1668e-05
1.99719e-05
1.81074e-05
1.60321e-05
1.37674e-05
1.14218e-05
9.19342e-06
7.32467e-06
5.89864e-06
4.88399e-06
4.24222e-06
3.94563e-06
4.0124e-06
4.61385e-06
6.3868e-06
1.04189e-05
6.44169e-06
2.19446e-06
2.14969e-07
9.53731e-08
2.65054e-06
6.49817e-06
1.39635e-05
2.55222e-05
3.52021e-05
3.94748e-05
4.00717e-05
3.86171e-05
3.61811e-05
3.34937e-05
3.09897e-05
2.88109e-05
2.69315e-05
2.5266e-05
2.37109e-05
2.2158e-05
2.05012e-05
1.86477e-05
1.65488e-05
1.42252e-05
1.17922e-05
9.46226e-06
7.49488e-06
5.9937e-06
4.92911e-06
4.26099e-06
3.95898e-06
4.04016e-06
4.68244e-06
6.54844e-06
1.0681e-05
6.47141e-06
2.21364e-06
2.18647e-07
9.91949e-08
2.66819e-06
6.56179e-06
1.41738e-05
2.58867e-05
3.54777e-05
3.95902e-05
4.00775e-05
3.85742e-05
3.61458e-05
3.35016e-05
3.1068e-05
2.89734e-05
2.71821e-05
2.56025e-05
2.4126e-05
2.26386e-05
2.1027e-05
1.91902e-05
1.70733e-05
1.46953e-05
1.21788e-05
9.75015e-06
7.68611e-06
6.10986e-06
4.99359e-06
4.29602e-06
3.98495e-06
4.07736e-06
4.75877e-06
6.7183e-06
1.09461e-05
6.50375e-06
2.23278e-06
2.22178e-07
1.0303e-07
2.68478e-06
6.62214e-06
1.43767e-05
2.62363e-05
3.57305e-05
3.96829e-05
4.00619e-05
3.85107e-05
3.60903e-05
3.34918e-05
3.11267e-05
2.91142e-05
2.74108e-05
2.59189e-05
2.45245e-05
2.31071e-05
2.15457e-05
1.97308e-05
1.76009e-05
1.51735e-05
1.25775e-05
1.0054e-05
7.89626e-06
6.24596e-06
5.07702e-06
4.34748e-06
4.02404e-06
4.12453e-06
4.84311e-06
6.89607e-06
1.12132e-05
6.5386e-06
2.25185e-06
2.2556e-07
1.06829e-07
2.70049e-06
6.68023e-06
1.45731e-05
2.65667e-05
3.59572e-05
3.97513e-05
4.00219e-05
3.84211e-05
3.60067e-05
3.34562e-05
3.11593e-05
2.92288e-05
2.76137e-05
2.62115e-05
2.49023e-05
2.35591e-05
2.20525e-05
2.02643e-05
1.81261e-05
1.56536e-05
1.2983e-05
1.03693e-05
8.12226e-06
6.40002e-06
5.17849e-06
4.41532e-06
4.07689e-06
4.18287e-06
4.93712e-06
7.08375e-06
1.14834e-05
6.57567e-06
2.27084e-06
2.28783e-07
1.10642e-07
2.71546e-06
6.73636e-06
1.47665e-05
2.689e-05
3.61677e-05
3.98011e-05
3.9965e-05
3.83167e-05
3.59087e-05
3.34028e-05
3.11681e-05
2.93147e-05
2.77884e-05
2.64783e-05
2.52572e-05
2.39915e-05
2.25438e-05
2.07867e-05
1.86444e-05
1.61313e-05
1.33906e-05
1.06921e-05
8.36102e-06
6.5701e-06
5.29696e-06
4.49913e-06
4.14349e-06
4.25252e-06
5.04095e-06
7.28122e-06
1.1756e-05
6.61477e-06
2.28972e-06
2.31841e-07
1.14431e-07
2.72969e-06
6.79069e-06
1.49545e-05
2.71956e-05
3.63539e-05
3.9829e-05
3.98863e-05
3.81883e-05
3.57836e-05
3.33209e-05
3.11503e-05
2.93757e-05
2.79352e-05
2.67152e-05
2.55849e-05
2.44008e-05
2.3016e-05
2.12942e-05
1.91522e-05
1.66028e-05
1.37968e-05
1.10187e-05
8.60946e-06
6.75376e-06
5.43085e-06
4.59841e-06
4.22426e-06
4.33448e-06
5.15569e-06
7.49003e-06
1.20313e-05
6.6556e-06
2.30845e-06
2.34729e-07
1.18224e-07
2.74349e-06
6.84422e-06
1.5141e-05
2.74921e-05
3.65231e-05
3.9839e-05
3.9791e-05
3.80447e-05
3.56432e-05
3.32216e-05
3.11114e-05
2.94124e-05
2.80577e-05
2.69271e-05
2.58839e-05
2.47825e-05
2.34646e-05
2.1782e-05
1.96447e-05
1.70639e-05
1.41981e-05
1.13465e-05
8.86531e-06
6.94905e-06
5.57853e-06
4.7119e-06
4.31849e-06
4.42889e-06
5.28319e-06
7.71073e-06
1.23093e-05
6.69848e-06
2.3271e-06
2.37449e-07
1.21992e-07
2.75699e-06
6.89686e-06
1.53238e-05
2.77744e-05
3.66719e-05
3.98302e-05
3.96773e-05
3.78814e-05
3.54812e-05
3.30989e-05
3.10479e-05
2.94235e-05
2.81539e-05
2.71134e-05
2.61592e-05
2.51378e-05
2.38875e-05
2.22482e-05
2.01195e-05
1.75117e-05
1.45913e-05
1.16726e-05
9.12618e-06
7.15408e-06
5.73863e-06
4.83879e-06
4.42598e-06
4.5363e-06
5.42462e-06
7.94454e-06
1.25897e-05
6.74291e-06
2.34561e-06
2.39997e-07
1.25748e-07
2.77036e-06
6.94934e-06
1.55049e-05
2.80469e-05
3.68052e-05
3.98062e-05
3.95489e-05
3.77037e-05
3.5304e-05
3.2959e-05
3.0965e-05
2.94124e-05
2.82251e-05
2.72726e-05
2.64069e-05
2.54676e-05
2.42837e-05
2.26895e-05
2.05738e-05
1.79439e-05
1.49746e-05
1.19953e-05
9.39054e-06
7.36735e-06
5.9099e-06
4.97839e-06
4.54671e-06
4.65713e-06
5.58014e-06
8.19265e-06
1.28734e-05
6.78954e-06
2.36406e-06
2.42381e-07
1.29466e-07
2.78364e-06
7.00172e-06
1.56825e-05
2.83061e-05
3.69207e-05
3.97657e-05
3.9405e-05
3.75103e-05
3.51103e-05
3.28015e-05
3.08631e-05
2.93807e-05
2.82737e-05
2.74071e-05
2.66281e-05
2.57703e-05
2.46539e-05
2.31032e-05
2.10038e-05
1.83573e-05
1.53454e-05
1.23126e-05
9.65674e-06
7.58729e-06
6.09072e-06
5.1292e-06
4.67957e-06
4.79076e-06
5.74947e-06
8.45532e-06
1.31598e-05
6.83822e-06
2.38248e-06
2.44608e-07
1.33158e-07
2.79714e-06
7.0559e-06
1.58588e-05
2.85562e-05
3.70229e-05
3.97126e-05
3.9249e-05
3.73051e-05
3.49042e-05
3.26299e-05
3.07455e-05
2.93309e-05
2.83015e-05
2.75182e-05
2.68239e-05
2.60464e-05
2.49978e-05
2.34924e-05
2.14077e-05
1.8749e-05
1.5702e-05
1.26237e-05
9.92442e-06
7.81361e-06
6.28064e-06
5.29058e-06
4.82389e-06
4.93664e-06
5.93239e-06
8.73262e-06
1.34484e-05
6.88899e-06
2.40091e-06
2.46682e-07
1.36784e-07
2.80996e-06
7.10878e-06
1.60312e-05
2.87952e-05
3.71103e-05
3.9646e-05
3.90806e-05
3.7088e-05
3.4686e-05
3.24457e-05
3.06143e-05
2.92653e-05
2.83104e-05
2.76069e-05
2.6994e-05
2.6294e-05
2.53119e-05
2.38526e-05
2.17863e-05
1.91173e-05
1.60415e-05
1.29264e-05
1.01922e-05
8.0457e-06
6.47953e-06
5.46254e-06
4.97964e-06
5.09486e-06
6.12926e-06
9.02532e-06
1.37403e-05
6.9421e-06
2.41941e-06
2.48606e-07
1.40347e-07
2.8224e-06
7.16098e-06
1.62025e-05
2.90269e-05
3.71871e-05
3.95695e-05
3.89028e-05
3.68618e-05
3.44587e-05
3.22517e-05
3.0473e-05
2.91873e-05
2.83037e-05
2.76765e-05
2.71414e-05
2.65157e-05
2.55972e-05
2.41829e-05
2.21365e-05
1.94618e-05
1.63627e-05
1.32188e-05
1.04584e-05
8.28218e-06
6.6866e-06
5.64487e-06
5.14695e-06
5.26548e-06
6.33992e-06
9.3329e-06
1.40344e-05
6.99746e-06
2.438e-06
2.50393e-07
1.43826e-07
2.83445e-06
7.21242e-06
1.63719e-05
2.92501e-05
3.72521e-05
3.94821e-05
3.87151e-05
3.66267e-05
3.4223e-05
3.20489e-05
3.0322e-05
2.90978e-05
2.82825e-05
2.7728e-05
2.72667e-05
2.67113e-05
2.58535e-05
2.44826e-05
2.24569e-05
1.97805e-05
1.66647e-05
1.35004e-05
1.07221e-05
8.52201e-06
6.9007e-06
5.83654e-06
5.32511e-06
5.44824e-06
6.56449e-06
9.65546e-06
1.43302e-05
7.0553e-06
2.45677e-06
2.52058e-07
1.47221e-07
2.84616e-06
7.26328e-06
1.65401e-05
2.94664e-05
3.73071e-05
3.93852e-05
3.85186e-05
3.6384e-05
3.39808e-05
3.184e-05
3.01643e-05
2.90004e-05
2.82511e-05
2.77657e-05
2.73736e-05
2.68838e-05
2.60823e-05
2.47523e-05
2.27476e-05
2.00727e-05
1.69463e-05
1.37688e-05
1.09812e-05
8.76344e-06
7.12044e-06
6.03639e-06
5.51311e-06
5.64231e-06
6.80238e-06
9.99217e-06
1.46265e-05
7.11535e-06
2.4757e-06
2.53619e-07
1.50513e-07
2.85746e-06
7.31333e-06
1.67065e-05
2.96745e-05
3.7351e-05
3.92777e-05
3.83123e-05
3.61327e-05
3.37314e-05
3.16248e-05
3.00005e-05
2.88963e-05
2.82112e-05
2.77915e-05
2.74644e-05
2.70354e-05
2.62859e-05
2.49936e-05
2.30091e-05
2.03389e-05
1.72082e-05
1.40259e-05
1.12364e-05
9.00619e-06
7.34503e-06
6.2435e-06
5.71022e-06
5.84723e-06
7.05336e-06
1.03426e-05
1.49232e-05
7.17772e-06
2.495e-06
2.55095e-07
1.53698e-07
2.86836e-06
7.36255e-06
1.68709e-05
2.98743e-05
3.73836e-05
3.91589e-05
3.80954e-05
3.58723e-05
3.3475e-05
3.14042e-05
2.98321e-05
2.87876e-05
2.81651e-05
2.78081e-05
2.75415e-05
2.71683e-05
2.64659e-05
2.52077e-05
2.32426e-05
2.05796e-05
1.74506e-05
1.42714e-05
1.14875e-05
9.25001e-06
7.57394e-06
6.45707e-06
5.91547e-06
6.06211e-06
7.31659e-06
1.07056e-05
1.52197e-05
7.24242e-06
2.51463e-06
2.56502e-07
1.5676e-07
2.87874e-06
7.41048e-06
1.70321e-05
3.0064e-05
3.74033e-05
3.90273e-05
3.78659e-05
3.56009e-05
3.32098e-05
3.11771e-05
2.96587e-05
2.86748e-05
2.81141e-05
2.78172e-05
2.76073e-05
2.72851e-05
2.66248e-05
2.53969e-05
2.34498e-05
2.07961e-05
1.76744e-05
1.45059e-05
1.17346e-05
9.49475e-06
7.80693e-06
6.67676e-06
6.12839e-06
6.28639e-06
7.59149e-06
1.10803e-05
1.55156e-05
7.30948e-06
2.53459e-06
2.57858e-07
1.59701e-07
2.88864e-06
7.45718e-06
1.719e-05
3.02432e-05
3.74094e-05
3.88817e-05
3.76228e-05
3.53175e-05
3.29351e-05
3.09431e-05
2.94806e-05
2.85586e-05
2.80592e-05
2.78203e-05
2.76634e-05
2.73875e-05
2.67644e-05
2.5563e-05
2.36325e-05
2.09902e-05
1.78813e-05
1.47309e-05
1.19784e-05
9.74059e-06
8.04397e-06
6.90247e-06
6.34877e-06
6.51965e-06
7.87738e-06
1.14655e-05
1.58109e-05
7.37888e-06
2.55485e-06
2.59173e-07
1.62511e-07
2.89794e-06
7.50223e-06
1.73433e-05
3.04101e-05
3.74005e-05
3.87206e-05
3.73643e-05
3.50202e-05
3.26491e-05
3.07006e-05
2.92969e-05
2.84386e-05
2.80008e-05
2.78182e-05
2.77112e-05
2.74773e-05
2.68867e-05
2.5708e-05
2.37925e-05
2.11637e-05
1.80729e-05
1.49483e-05
1.22191e-05
9.98712e-06
8.28473e-06
7.13395e-06
6.5765e-06
6.76187e-06
8.17419e-06
1.18608e-05
1.61057e-05
7.45048e-06
2.57543e-06
2.60454e-07
1.65194e-07
2.90666e-06
7.54551e-06
1.74916e-05
3.05641e-05
3.73759e-05
3.85434e-05
3.70896e-05
3.47081e-05
3.23506e-05
3.04487e-05
2.91077e-05
2.83147e-05
2.79385e-05
2.78112e-05
2.77515e-05
2.75556e-05
2.69932e-05
2.58335e-05
2.39322e-05
2.13193e-05
1.8253e-05
1.51621e-05
1.24587e-05
1.02349e-05
8.52904e-06
7.37087e-06
6.81141e-06
7.01307e-06
8.48205e-06
1.22663e-05
1.64006e-05
7.52439e-06
2.59635e-06
2.61707e-07
1.67743e-07
2.9147e-06
7.58669e-06
1.76338e-05
3.07039e-05
3.73345e-05
3.83485e-05
3.67973e-05
3.43797e-05
3.2038e-05
3.01852e-05
2.89098e-05
2.81844e-05
2.78712e-05
2.77991e-05
2.77849e-05
2.76236e-05
2.7085e-05
2.59407e-05
2.40523e-05
2.14581e-05
1.84226e-05
1.53736e-05
1.26983e-05
1.04845e-05
8.77684e-06
7.61298e-06
7.05295e-06
7.27266e-06
8.80038e-06
1.26812e-05
1.66951e-05
7.60011e-06
2.61755e-06
2.6293e-07
1.70159e-07
2.92209e-06
7.6257e-06
1.77697e-05
3.08294e-05
3.72765e-05
3.81363e-05
3.64874e-05
3.40348e-05
3.17112e-05
2.99098e-05
2.87026e-05
2.80471e-05
2.77983e-05
2.77814e-05
2.78113e-05
2.76819e-05
2.71632e-05
2.60309e-05
2.41542e-05
2.1581e-05
1.8582e-05
1.55819e-05
1.29379e-05
1.07361e-05
9.02858e-06
7.86092e-06
7.30204e-06
7.54169e-06
9.1305e-06
1.31067e-05
1.69908e-05
7.6781e-06
2.63912e-06
2.64132e-07
1.72438e-07
2.92876e-06
7.66232e-06
1.78988e-05
3.09404e-05
3.72017e-05
3.79062e-05
3.61593e-05
3.36731e-05
3.13695e-05
2.96217e-05
2.84851e-05
2.79017e-05
2.77187e-05
2.77576e-05
2.78308e-05
2.77308e-05
2.72287e-05
2.61051e-05
2.42386e-05
2.16881e-05
1.87305e-05
1.57858e-05
1.3177e-05
1.09899e-05
9.2841e-06
8.11384e-06
7.55765e-06
7.82004e-06
9.47142e-06
1.35419e-05
1.72873e-05
7.75823e-06
2.6611e-06
2.65324e-07
1.74587e-07
2.93479e-06
7.69672e-06
1.80214e-05
3.10378e-05
3.71111e-05
3.76591e-05
3.5814e-05
3.32954e-05
3.10138e-05
2.93212e-05
2.82571e-05
2.77477e-05
2.7632e-05
2.77274e-05
2.78433e-05
2.77709e-05
2.72826e-05
2.61647e-05
2.43068e-05
2.17799e-05
1.88675e-05
1.59834e-05
1.34139e-05
1.12449e-05
9.54346e-06
8.37279e-06
7.8218e-06
8.10967e-06
9.82501e-06
1.39878e-05
1.75857e-05
7.841e-06
2.6836e-06
2.66522e-07
1.76602e-07
2.94011e-06
7.72869e-06
1.81373e-05
3.11215e-05
3.70048e-05
3.73951e-05
3.54517e-05
3.29024e-05
3.0645e-05
2.90093e-05
2.80193e-05
2.7585e-05
2.75375e-05
2.76898e-05
2.78483e-05
2.78023e-05
2.73256e-05
2.62112e-05
2.43606e-05
2.18581e-05
1.89938e-05
1.61747e-05
1.36485e-05
1.15009e-05
9.80644e-06
8.63724e-06
8.0931e-06
8.40853e-06
1.01899e-05
1.44432e-05
1.7886e-05
7.92641e-06
2.70665e-06
2.67745e-07
1.78503e-07
2.94487e-06
7.75878e-06
1.82481e-05
3.11937e-05
3.68837e-05
3.71146e-05
3.50733e-05
3.24956e-05
3.02646e-05
2.86874e-05
2.77726e-05
2.74143e-05
2.74356e-05
2.76453e-05
2.78462e-05
2.78257e-05
2.73589e-05
2.62459e-05
2.44014e-05
2.19236e-05
1.91097e-05
1.63587e-05
1.38793e-05
1.17569e-05
1.00727e-05
8.90774e-06
8.37303e-06
8.71875e-06
1.05676e-05
1.49092e-05
1.81899e-05
8.01491e-06
2.73037e-06
2.6902e-07
1.80292e-07
2.94906e-06
7.78697e-06
1.83536e-05
3.12538e-05
3.67475e-05
3.68176e-05
3.46795e-05
3.2076e-05
2.98741e-05
2.83567e-05
2.75177e-05
2.72356e-05
2.73258e-05
2.75929e-05
2.78362e-05
2.78408e-05
2.7383e-05
2.62704e-05
2.44314e-05
2.19789e-05
1.92173e-05
1.65359e-05
1.41057e-05
1.20115e-05
1.03408e-05
9.18314e-06
8.66059e-06
9.03935e-06
1.0958e-05
1.53854e-05
1.84977e-05
8.10679e-06
2.75483e-06
2.70366e-07
1.81995e-07
2.95283e-06
7.81387e-06
1.84558e-05
3.13041e-05
3.65972e-05
3.6505e-05
3.42715e-05
3.16455e-05
2.94754e-05
2.80192e-05
2.72564e-05
2.70503e-05
2.7209e-05
2.75333e-05
2.78188e-05
2.7848e-05
2.73985e-05
2.62857e-05
2.44525e-05
2.20267e-05
1.93194e-05
1.67073e-05
1.43274e-05
1.22641e-05
1.06103e-05
9.46316e-06
8.95594e-06
9.37095e-06
1.13618e-05
1.58715e-05
1.88089e-05
8.20188e-06
2.7801e-06
2.71796e-07
1.83617e-07
2.95616e-06
7.83941e-06
1.85545e-05
3.13438e-05
3.64324e-05
3.61768e-05
3.385e-05
3.12055e-05
2.90701e-05
2.76764e-05
2.69897e-05
2.68586e-05
2.70849e-05
2.74658e-05
2.7793e-05
2.78464e-05
2.74049e-05
2.62925e-05
2.44666e-05
2.20702e-05
1.94205e-05
1.6875e-05
1.45443e-05
1.2513e-05
1.08787e-05
9.74542e-06
9.25709e-06
9.71221e-06
1.17787e-05
1.63682e-05
1.9122e-05
8.29918e-06
2.806e-06
2.73293e-07
1.85175e-07
2.95912e-06
7.86397e-06
1.86507e-05
3.13745e-05
3.62539e-05
3.58338e-05
3.34166e-05
3.07579e-05
2.86606e-05
2.73304e-05
2.67193e-05
2.66619e-05
2.69543e-05
2.73903e-05
2.77583e-05
2.78353e-05
2.74017e-05
2.62903e-05
2.44741e-05
2.21117e-05
1.95245e-05
1.70421e-05
1.47584e-05
1.27592e-05
1.11461e-05
1.00295e-05
9.56326e-06
1.00622e-05
1.22079e-05
1.68746e-05
1.94364e-05
8.39856e-06
2.83257e-06
2.74864e-07
1.8667e-07
2.96163e-06
7.88719e-06
1.87435e-05
3.13946e-05
3.60609e-05
3.5476e-05
3.29718e-05
3.03039e-05
2.8248e-05
2.69826e-05
2.64464e-05
2.64608e-05
2.68171e-05
2.73065e-05
2.77138e-05
2.78135e-05
2.73875e-05
2.62779e-05
2.4474e-05
2.21496e-05
1.96292e-05
1.72076e-05
1.4969e-05
1.30018e-05
1.14115e-05
1.03141e-05
9.87361e-06
1.04208e-05
1.26495e-05
1.73908e-05
1.97511e-05
8.49953e-06
2.85974e-06
2.76517e-07
1.8811e-07
2.96369e-06
7.9092e-06
1.88335e-05
3.14047e-05
3.58537e-05
3.51039e-05
3.25168e-05
2.98451e-05
2.78344e-05
2.66349e-05
2.61727e-05
2.62568e-05
2.66743e-05
2.72145e-05
2.76594e-05
2.77806e-05
2.73618e-05
2.62549e-05
2.44652e-05
2.21823e-05
1.9732e-05
1.73706e-05
1.51766e-05
1.32416e-05
1.1675e-05
1.05991e-05
1.01875e-05
1.07872e-05
1.31029e-05
1.79157e-05
2.00648e-05
8.60127e-06
2.88739e-06
2.78239e-07
1.89492e-07
2.96517e-06
7.92944e-06
1.89188e-05
3.14031e-05
3.56316e-05
3.47176e-05
3.20522e-05
2.93825e-05
2.74209e-05
2.62887e-05
2.58996e-05
2.60507e-05
2.65261e-05
2.71141e-05
2.7594e-05
2.77353e-05
2.73235e-05
2.62198e-05
2.44463e-05
2.22073e-05
1.98294e-05
1.75286e-05
1.53798e-05
1.34778e-05
1.19367e-05
1.08844e-05
1.05051e-05
1.11617e-05
1.3568e-05
1.84486e-05
2.03771e-05
8.70357e-06
2.91546e-06
2.80032e-07
1.90826e-07
2.96607e-06
7.94804e-06
1.90001e-05
3.13903e-05
3.5395e-05
3.43175e-05
3.15786e-05
2.89169e-05
2.70089e-05
2.59464e-05
2.56292e-05
2.58442e-05
2.63738e-05
2.70059e-05
2.75181e-05
2.76779e-05
2.72726e-05
2.61731e-05
2.44176e-05
2.22252e-05
1.9921e-05
1.76815e-05
1.55788e-05
1.3711e-05
1.21966e-05
1.117e-05
1.08258e-05
1.15435e-05
1.40439e-05
1.89881e-05
2.06867e-05
8.80609e-06
2.94393e-06
2.81898e-07
1.92107e-07
2.96624e-06
7.96425e-06
1.90753e-05
3.13645e-05
3.51434e-05
3.39036e-05
3.10963e-05
2.84483e-05
2.65986e-05
2.56102e-05
2.53635e-05
2.56387e-05
2.62183e-05
2.68905e-05
2.74316e-05
2.76075e-05
2.72081e-05
2.61138e-05
2.43785e-05
2.22348e-05
2.00048e-05
1.78271e-05
1.57719e-05
1.39404e-05
1.24549e-05
1.14564e-05
1.11504e-05
1.19331e-05
1.45304e-05
1.95331e-05
2.09929e-05
8.90845e-06
2.97269e-06
2.8384e-07
1.93342e-07
2.96565e-06
7.97818e-06
1.91449e-05
3.13263e-05
3.48762e-05
3.34751e-05
3.06043e-05
2.79759e-05
2.61889e-05
2.5278e-05
2.51015e-05
2.54351e-05
2.60618e-05
2.67704e-05
2.73366e-05
2.7526e-05
2.71317e-05
2.60439e-05
2.43315e-05
2.22394e-05
2.00823e-05
1.79656e-05
1.59585e-05
1.4165e-05
1.27108e-05
1.1743e-05
1.14784e-05
1.23302e-05
1.50271e-05
2.00825e-05
2.12948e-05
9.01008e-06
3.00162e-06
2.85854e-07
1.9453e-07
2.96418e-06
7.98915e-06
1.9207e-05
3.12742e-05
3.45928e-05
3.30309e-05
3.01015e-05
2.74988e-05
2.57791e-05
2.49483e-05
2.48436e-05
2.52352e-05
2.59069e-05
2.66481e-05
2.7235e-05
2.74343e-05
2.70434e-05
2.59631e-05
2.42773e-05
2.2241e-05
2.01537e-05
1.80962e-05
1.61378e-05
1.43842e-05
1.2964e-05
1.20301e-05
1.18107e-05
1.27356e-05
1.55344e-05
2.0636e-05
2.15915e-05
9.1105e-06
3.03062e-06
2.87925e-07
1.95676e-07
2.96188e-06
7.99738e-06
1.92624e-05
3.12085e-05
3.42918e-05
3.25683e-05
2.95849e-05
2.70146e-05
2.53682e-05
2.46223e-05
2.45923e-05
2.50429e-05
2.57581e-05
2.65286e-05
2.71318e-05
2.73367e-05
2.6947e-05
2.58751e-05
2.42194e-05
2.22429e-05
2.02208e-05
1.82192e-05
1.63086e-05
1.45964e-05
1.32131e-05
1.23163e-05
1.21458e-05
1.3149e-05
1.60525e-05
2.11931e-05
2.18817e-05
9.20887e-06
3.05952e-06