/*--------------------------------*- C++ -*----------------------------------*\
| =========                 |                                                 |
| \\      /  F ield         | OpenFOAM: The Open Source CFD Toolbox           |
|  \\    /   O peration     | Version:  v2006                                 |
|   \\  /    A nd           | Website:  www.openfoam.com                      |
|    \\/     M anipulation  |                                                 |
\*---------------------------------------------------------------------------*/
FoamFile
{
    version     2.0;
    format      ascii;
    class       volVectorField;
    location    "52";
    object      U;
}
// * * * * * * * * * * * * * * * * * * * * * * * * * * * * * * * * * * * * * //

dimensions      [0 1 -1 0 0 0 0];


internalField   nonuniform List<vector> 
78750
(
(-0.00770986 -0.00210536 0.00281623)
(-0.00777199 -0.00696167 0.00446477)
(-0.0065699 -0.00861517 0.00475648)
(-0.00460444 -0.00924557 0.00468863)
(-0.00297363 -0.00931256 0.00450307)
(-0.00119727 -0.00895387 0.00428074)
(0.000642938 -0.00828907 0.00403871)
(0.00244836 -0.00740756 0.00378193)
(0.00414266 -0.00637106 0.00351086)
(0.00568147 -0.0052294 0.00322303)
(0.00703421 -0.00402543 0.00291424)
(0.00818142 -0.00279828 0.00257965)
(0.00910803 -0.00158612 0.00221455)
(0.00980258 -0.000424476 0.00181147)
(0.0102656 0.000648492 0.00136479)
(0.0105137 0.00158849 0.000871289)
(0.0105597 0.00235526 0.000327867)
(0.0104171 0.00290942 -0.000257344)
(0.0101227 0.00322934 -0.000867701)
(0.00972291 0.0033136 -0.00147942)
(0.00926205 0.00318562 -0.00206473)
(0.00878204 0.00289262 -0.00259752)
(0.00832215 0.00249565 -0.00305984)
(0.00791743 0.00205617 -0.00344655)
(0.00759657 0.00162492 -0.00376575)
(0.00737929 0.00123821 -0.00403457)
(0.00727237 0.000925309 -0.00427204)
(0.00726391 0.000725889 -0.00449135)
(0.00731485 0.000714242 -0.00469272)
(0.00734568 0.00102834 -0.00485507)
(0.00721242 0.00189914 -0.00492251)
(0.00667732 0.00364118 -0.0047787)
(0.00541695 0.0063841 -0.0042095)
(0.0033161 0.00899311 -0.00294256)
(0.000855244 0.00718893 -0.000934413)
(-0.000336826 0.0010613 0.00236471)
(-0.00030032 -0.00680221 0.00380074)
(-0.000545718 -0.012861 0.00421533)
(-0.000631459 -0.0171791 0.00402109)
(-0.000527815 -0.0196706 0.00363123)
(-0.000214266 -0.0206651 0.00325117)
(0.000259198 -0.0205852 0.00293309)
(0.000868896 -0.0197526 0.00268759)
(0.00160551 -0.0183784 0.00251045)
(0.00243239 -0.016609 0.0023903)
(0.00331558 -0.01455 0.00231391)
(0.00422413 -0.0122823 0.00226781)
(0.005127 -0.00987523 0.00223806)
(0.00599142 -0.00739271 0.00221118)
(0.00678648 -0.00489364 0.00217521)
(0.00748279 -0.00244529 0.00211639)
(0.00806633 -0.000119325 0.00201886)
(0.00853223 0.00200908 0.00187024)
(0.00886669 0.00387671 0.00165886)
(0.00905727 0.00542729 0.00137419)
(0.009102 0.00660823 0.00100598)
(0.00900472 0.0073766 0.000545429)
(0.0087768 0.00770732 -1.54582e-05)
(0.00844296 0.00760613 -0.00067949)
(0.00803928 0.00712501 -0.00144052)
(0.0076046 0.00637695 -0.00228129)
(0.00717276 0.00554828 -0.00317522)
(0.00676228 0.00491287 -0.00408928)
(0.00636271 0.00485759 -0.004976)
(0.00592355 0.00591704 -0.0057427)
(0.00534381 0.00877278 -0.00621146)
(0.00447742 0.0139755 -0.00611021)
(0.00320537 0.0208073 -0.0051831)
(0.00166447 0.025178 -0.0034207)
(0.000179132 0.0178368 -0.0010612)
(2.79154e-05 -5.60932e-05 0.00140247)
(0.000156074 -0.00453816 0.00226249)
(-3.65804e-06 -0.0085925 0.00251127)
(-0.000130276 -0.0122601 0.00243284)
(-0.000194298 -0.0153518 0.00222954)
(-0.000144201 -0.017731 0.00202005)
(3.84594e-05 -0.0193982 0.00184548)
(0.000346025 -0.0203858 0.00170863)
(0.000769985 -0.0207319 0.0016068)
(0.0012966 -0.0204846 0.00153508)
(0.00190918 -0.0196983 0.00148923)
(0.00258968 -0.0184305 0.00146661)
(0.0033184 -0.0167367 0.00146711)
(0.00407802 -0.0146628 0.00149397)
(0.00485202 -0.0122498 0.00154942)
(0.00561097 -0.00959086 0.00162226)
(0.00632012 -0.00681307 0.00169653)
(0.00695745 -0.00402404 0.00176242)
(0.00750125 -0.0013167 0.00181374)
(0.00793668 0.00124608 0.00185028)
(0.00825003 0.00361478 0.00187181)
(0.00842448 0.00571698 0.00186794)
(0.00844817 0.00747502 0.00182012)
(0.00831752 0.00882887 0.00170467)
(0.00803377 0.0097532 0.00148989)
(0.00760702 0.0102874 0.00113153)
(0.00705995 0.0105795 0.000569334)
(0.00641909 0.0109459 -0.000263987)
(0.00571276 0.0119186 -0.00140232)
(0.004948 0.0142557 -0.0027719)
(0.00409977 0.018746 -0.0040859)
(0.00312814 0.0255137 -0.00482497)
(0.00203275 0.0327757 -0.00451118)
(0.000952212 0.0352504 -0.00310057)
(8.84218e-05 0.0226291 -0.000952426)
(-1.57979e-06 -0.0023938 0.00128733)
(0.000266709 -0.00883948 0.00249708)
(0.000599456 -0.0142964 0.00315425)
(0.00104462 -0.0189387 0.00345363)
(0.00156687 -0.022712 0.00352695)
(0.00212143 -0.0254818 0.00348394)
(0.00270848 -0.0272977 0.00340803)
(0.00331647 -0.0282992 0.00332432)
(0.00392113 -0.0285963 0.00323341)
(0.00451973 -0.028275 0.00313641)
(0.00511037 -0.0274109 0.00303309)
(0.0056907 -0.0260702 0.00292326)
(0.00625759 -0.0243116 0.00280751)
(0.00680532 -0.0221814 0.00268974)
(0.00733699 -0.0196796 0.00258085)
(0.00784588 -0.0168216 0.00248377)
(0.00831134 -0.0136937 0.00239266)
(0.00871825 -0.0103872 0.00230529)
(0.00904973 -0.00699678 0.00222183)
(0.00928905 -0.00362333 0.00214418)
(0.00942114 -0.000371268 0.00207512)
(0.00943331 0.00266126 0.00201775)
(0.00931786 0.0054257 0.00198001)
(0.00906662 0.00789707 0.00196592)
(0.00867372 0.0100336 0.00195895)
(0.00813979 0.0118275 0.0019171)
(0.00746842 0.0133682 0.00176784)
(0.00668285 0.0149163 0.00140919)
(0.00580382 0.0170131 0.00072286)
(0.00484063 0.0205201 -0.000385063)
(0.00382597 0.0262674 -0.00177564)
(0.00277808 0.034126 -0.00291886)
(0.00173912 0.0415655 -0.00316479)
(0.000802767 0.0425759 -0.00230738)
(9.02272e-05 0.0260567 -0.000677279)
(1.08156e-05 -0.00385555 0.00109695)
(0.000286981 -0.0117456 0.00223534)
(0.000688169 -0.0181837 0.00285979)
(0.00120431 -0.0234484 0.00315081)
(0.00179175 -0.0275891 0.003235)
(0.00240095 -0.0305687 0.00320852)
(0.00301839 -0.0325017 0.00314396)
(0.0036523 -0.0335595 0.00308211)
(0.00428452 -0.0338669 0.00302844)
(0.00490526 -0.0335145 0.00298251)
(0.00551187 -0.0325777 0.0029428)
(0.00610072 -0.0311234 0.00290695)
(0.00666671 -0.0292108 0.00287257)
(0.00719732 -0.0268886 0.00283891)
(0.00769086 -0.0241705 0.00280847)
(0.00814228 -0.0210637 0.00278399)
(0.00853909 -0.0176269 0.0027603)
(0.00887269 -0.0139343 0.0027321)
(0.00913471 -0.0100603 0.00269636)
(0.00931384 -0.00608312 0.00265223)
(0.00939511 -0.00208969 0.00260095)
(0.00936436 0.00182044 0.00254566)
(0.00921214 0.00554061 0.00249131)
(0.00892992 0.00897498 0.002442)
(0.0085149 0.0120662 0.002397)
(0.00797021 0.0148323 0.00234497)
(0.00730006 0.0174013 0.00225404)
(0.00650653 0.0200554 0.00205452)
(0.00559514 0.0233084 0.00162079)
(0.00458812 0.0279344 0.00080343)
(0.00353165 0.0346307 -0.000380998)
(0.00246653 0.0429933 -0.00153319)
(0.00148637 0.0499459 -0.0020194)
(0.000660903 0.0492352 -0.00157333)
(6.40082e-05 0.0290577 -0.000433508)
(4.14023e-06 -0.00552756 0.00100875)
(0.000278442 -0.0155711 0.00214565)
(0.000717543 -0.0235235 0.00280708)
(0.00129262 -0.0297615 0.00315886)
(0.00194496 -0.034438 0.00331314)
(0.00262232 -0.0376789 0.00334931)
(0.00328678 -0.0396893 0.00332665)
(0.00394781 -0.0407209 0.00329081)
(0.00460048 -0.0409429 0.00325133)
(0.00522697 -0.0404593 0.00320709)
(0.00582681 -0.0393515 0.00315811)
(0.00639925 -0.0376905 0.00310437)
(0.00693499 -0.0355354 0.00304725)
(0.00742859 -0.0329042 0.00299197)
(0.00787726 -0.0297975 0.00294126)
(0.00826718 -0.0262625 0.00289328)
(0.008591 -0.02237 0.00284579)
(0.00884581 -0.0181931 0.00279824)
(0.00902842 -0.0138029 0.00275152)
(0.00913465 -0.0092691 0.00270765)
(0.00915927 -0.00466302 0.00266924)
(0.0090958 -6.38048e-05 0.00263887)
(0.00893393 0.00443732 0.00261849)
(0.00866144 0.00874427 0.00260893)
(0.00826907 0.0127817 0.00260835)
(0.0077513 0.0165403 0.0026088)
(0.00710691 0.0201302 0.00258835)
(0.00633686 0.023835 0.00249484)
(0.00544447 0.0281719 0.00222414)
(0.00444814 0.0338797 0.00163231)
(0.00339278 0.041525 0.000674368)
(0.00232752 0.050404 -0.000377475)
(0.00138052 0.0569418 -0.000974027)
(0.000606472 0.0547992 -0.000858134)
(6.06835e-05 0.0314955 -0.000190144)
(1.54847e-05 -0.00698375 0.000931507)
(0.000309764 -0.0189833 0.00203334)
(0.000774296 -0.0282762 0.00268197)
(0.00136399 -0.0353283 0.00303233)
(0.00201585 -0.0403908 0.00319248)
(0.00267997 -0.0437342 0.00324001)
(0.00331844 -0.0456885 0.00323072)
(0.00394349 -0.0465964 0.00320637)
(0.00455885 -0.0466554 0.00317951)
(0.00514604 -0.045977 0.00314958)
(0.00570556 -0.0446472 0.003117)
(0.00623284 -0.0427382 0.00308241)
(0.00671939 -0.0402894 0.00304849)
(0.00716395 -0.0373003 0.00301618)
(0.00755639 -0.0337879 0.00298578)
(0.00788634 -0.0298197 0.00295419)
(0.00815065 -0.0254726 0.00291941)
(0.00834738 -0.0208252 0.00288078)
(0.00847467 -0.0159534 0.00283921)
(0.00853088 -0.0109272 0.00279722)
(0.00851405 -0.00581254 0.00275862)
(0.00842051 -0.000676061 0.0027279)
(0.00824645 0.00440855 0.00270933)
(0.00798586 0.00936329 0.00270575)
(0.00762881 0.0141253 0.00271696)
(0.00716515 0.0186866 0.00273689)
(0.00658649 0.0231514 0.00274775)
(0.00588642 0.0277988 0.00270762)
(0.00506249 0.0331329 0.00253153)
(0.0041272 0.0398236 0.00209552)
(0.00312031 0.0482547 0.00133592)
(0.00209942 0.0573871 0.000433494)
(0.00121877 0.0632865 -0.000173263)
(0.000519347 0.0597119 -0.000280903)
(4.32839e-05 0.0335575 1.0357e-06)
(1.27631e-05 -0.0085225 0.000837572)
(0.000289628 -0.0226341 0.00184563)
(0.000730032 -0.0333204 0.00243665)
(0.0012863 -0.0411727 0.0027569)
(0.00189592 -0.0465805 0.00290659)
(0.00251323 -0.0499905 0.00295583)
(0.00310569 -0.0518784 0.00295251)
(0.00368504 -0.0526634 0.00292969)
(0.00425836 -0.0525622 0.00290108)
(0.00480934 -0.0516926 0.00286719)
(0.0053351 -0.0501449 0.00282909)
(0.00582675 -0.047981 0.00279048)
(0.00628331 -0.0452079 0.00275165)
(0.00669745 -0.0418249 0.00271345)
(0.00705502 -0.0378906 0.00267517)
(0.00735142 -0.0334808 0.00263692)
(0.00758425 -0.0286811 0.00259939)
(0.00775171 -0.0235786 0.00256412)
(0.00785277 -0.0182554 0.00253348)
(0.00788716 -0.012785 0.00251079)
(0.00785482 -0.00723096 0.00249994)
(0.00775521 -0.00165095 0.00250508)
(0.00758641 0.00389796 0.00252984)
(0.00734419 0.00936014 0.00257617)
(0.00702138 0.0146976 0.00264276)
(0.00660802 0.0199246 0.00272257)
(0.00609256 0.0251606 0.00279802)
(0.00546333 0.0306923 0.00283094)
(0.00471249 0.0370098 0.00274723)
(0.00384703 0.0447012 0.00243888)
(0.00290076 0.0539414 0.00183877)
(0.00193362 0.063335 0.00106977)
(0.00111072 0.0686823 0.000473676)
(0.000465948 0.0638533 0.000200398)
(3.70843e-05 0.0352313 0.000159069)
(1.63643e-05 -0.00985084 0.000748613)
(0.000279051 -0.0257671 0.00168294)
(0.000690847 -0.0376122 0.00225113)
(0.00120404 -0.0461088 0.00257657)
(0.00176092 -0.0517755 0.00274321)
(0.00232092 -0.0552164 0.00281262)
(0.00286052 -0.0570389 0.00282847)
(0.00338994 -0.0577122 0.00281903)
(0.00391653 -0.0574646 0.00280035)
(0.00442735 -0.0564181 0.00277434)
(0.00491086 -0.0546648 0.00274322)
(0.00536609 -0.0522363 0.00270804)
(0.00579165 -0.0491208 0.00266872)
(0.00617183 -0.0453577 0.00262539)
(0.00649968 -0.0410126 0.00257826)
(0.00677086 -0.0361716 0.00252761)
(0.00698214 -0.0309323 0.00247426)
(0.00713149 -0.0253933 0.00242003)
(0.00721821 -0.0196462 0.00236802)
(0.00724261 -0.0137702 0.00232263)
(0.00720547 -0.00782935 0.00228953)
(0.00710742 -0.00187675 0.00227552)
(0.0069481 0.00404189 0.00228769)
(0.00672518 0.00989083 0.00233183)
(0.00643316 0.0156608 0.00241026)
(0.00606273 0.0213998 0.00251888)
(0.00560118 0.0272589 0.00264219)
(0.00503401 0.0335434 0.00274429)
(0.00435013 0.0407264 0.00275602)
(0.00355305 0.0492973 0.00257657)
(0.00267253 0.0592019 0.00213274)
(0.0017718 0.0687016 0.00150121)
(0.00101043 0.0734744 0.000938986)
(0.000417479 0.0674599 0.000554551)
(3.17308e-05 0.036649 0.000268656)
(1.29563e-05 -0.0111288 0.000673817)
(0.000247279 -0.0288103 0.00153771)
(0.000618023 -0.0417948 0.00207245)
(0.00108321 -0.0509322 0.00238377)
(0.00158958 -0.0568686 0.00254608)
(0.00209971 -0.0603637 0.00261639)
(0.00259656 -0.0621481 0.00263513)
(0.0030864 -0.062732 0.00262618)
(0.00357546 -0.0623608 0.00260701)
(0.00404974 -0.0611607 0.0025814)
(0.00450179 -0.0592036 0.00255165)
(0.00493281 -0.0565014 0.00251543)
(0.00533247 -0.0530656 0.00247522)
(0.00569154 -0.0489408 0.00243238)
(0.00600378 -0.0442016 0.00238766)
(0.00626415 -0.0389454 0.00234135)
(0.00646878 -0.0332823 0.00229375)
(0.00661496 -0.0273226 0.00224564)
(0.00670138 -0.0211684 0.00219872)
(0.00672787 -0.0149058 0.00215594)
(0.00669527 -0.00860235 0.00212195)
(0.0066047 -0.0023089 0.00210349)
(0.00645673 0.00393836 0.00210869)
(0.00625032 0.0101221 0.00214582)
(0.00598162 0.016262 0.00222116)
(0.00564262 0.0224434 0.00233573)
(0.00522086 0.0288559 0.00247969)
(0.00470102 0.0358304 0.00262302)
(0.00407047 0.0438251 0.00270321)
(0.00333039 0.0532285 0.00262565)
(0.00250673 0.0637582 0.00231133)
(0.00166491 0.0733563 0.00179881)
(0.000952362 0.0776528 0.00127417)
(0.000392938 0.0705948 0.000814209)
(3.183e-05 0.0378768 0.000347313)
(1.32495e-05 -0.0122277 0.000612361)
(0.000229935 -0.0314353 0.0014252)
(0.000573401 -0.0454138 0.00194476)
(0.0010054 -0.0551222 0.00225847)
(0.00147577 -0.0613108 0.00243002)
(0.0019493 -0.06487 0.00251155)
(0.00241386 -0.0666329 0.00254141)
(0.0028725 -0.0671436 0.00254129)
(0.00332767 -0.0666672 0.00252707)
(0.00376978 -0.065327 0.0025049)
(0.00419426 -0.0631776 0.00247406)
(0.00459807 -0.0602264 0.00243685)
(0.00497232 -0.0564965 0.00239569)
(0.00531033 -0.0520369 0.00235215)
(0.00560629 -0.0469291 0.00230684)
(0.00585531 -0.0412793 0.00225969)
(0.00605334 -0.0352069 0.00221039)
(0.00619733 -0.0288332 0.00215897)
(0.00628532 -0.022271 0.00210625)
(0.0063164 -0.0156162 0.00205428)
(0.00629066 -0.00894437 0.00200716)
(0.0062087 -0.00230969 0.00197151)
(0.00607104 0.00425458 0.00195629)
(0.00587721 0.0107438 0.00197186)
(0.00562442 0.017203 0.00202817)
(0.00530602 0.0237549 0.00213148)
(0.00491075 0.0306306 0.0022783)
(0.00442399 0.0381903 0.00244547)
(0.00383335 0.0468792 0.00257749)
(0.00313899 0.056986 0.00258468)
(0.00236367 0.0680119 0.00238177)
(0.00157447 0.0776209 0.00197506)
(0.000904074 0.0814637 0.00149283)
(0.000372263 0.0734362 0.000987766)
(3.10329e-05 0.0390007 0.000397555)
(1.10111e-05 -0.013288 0.000568098)
(0.000210983 -0.0340054 0.0013401)
(0.000532102 -0.0489866 0.00183915)
(0.000939164 -0.0592811 0.00214176)
(0.00138357 -0.0657366 0.00230735)
(0.0018311 -0.0693737 0.00238671)
(0.00227217 -0.0711257 0.00241712)
(0.00270839 -0.071574 0.00241889)
(0.00313854 -0.0709998 0.00240374)
(0.00355768 -0.0695226 0.00237845)
(0.0039612 -0.0671861 0.002345)
(0.00434304 -0.0640066 0.00230723)
(0.00469729 -0.060007 0.00226804)
(0.005018 -0.0552402 0.00222915)
(0.00529976 -0.0497929 0.00219105)
(0.00553813 -0.0437785 0.00215336)
(0.00572951 -0.0373245 0.00211529)
(0.00587098 -0.0305603 0.00207608)
(0.00596039 -0.0236071 0.00203532)
(0.00599632 -0.0165683 0.00199338)
(0.00597812 -0.00952629 0.00195233)
(0.00590557 -0.00253926 0.00191666)
(0.00577849 0.0043596 0.0018937)
(0.00559622 0.0111729 0.00189358)
(0.00535638 0.0179643 0.0019282)
(0.00505332 0.0248868 0.0020083)
(0.00467712 0.0322083 0.00213745)
(0.0042146 0.0403168 0.00230143)
(0.00365439 0.0496465 0.00245457)
(0.00299629 0.0603951 0.00251474)
(0.00226006 0.0718679 0.00239322)
(0.00151318 0.0814881 0.00207017)
(0.000874689 0.0849463 0.00162771)
(0.000361069 0.0760496 0.0010982)
(3.16189e-05 0.040054 0.000427949)
(1.14232e-05 -0.0142469 0.000529928)
(0.000204513 -0.0363392 0.00126576)
(0.000515087 -0.0522388 0.00174742)
(0.000908173 -0.0630737 0.0020417)
(0.00133589 -0.0697787 0.00220332)
(0.00176506 -0.0734933 0.0022811)
(0.00218732 -0.075239 0.00231134)
(0.00260467 -0.0756327 0.00231404)
(0.00301514 -0.0749638 0.00229909)
(0.00341377 -0.073353 0.00227238)
(0.00379568 -0.0708423 0.00223865)
(0.00415591 -0.0674467 0.00220161)
(0.00448909 -0.0631913 0.002164)
(0.00479006 -0.058133 0.00212735)
(0.00505446 -0.0523644 0.00209201)
(0.00527878 -0.0460057 0.0020575)
(0.00546014 -0.0391909 0.00202301)
(0.00559599 -0.0320555 0.0019877)
(0.0056842 -0.0247268 0.00195102)
(0.00572294 -0.0173144 0.001913)
(0.00571082 -0.00990615 0.00187495)
(0.00564663 -0.00256482 0.00184008)
(0.00552924 0.004674 0.00181417)
(0.0053573 0.0118159 0.00180602)
(0.0051283 0.0189375 0.00182732)
(0.00483716 0.0262161 0.00189059)
(0.00447519 0.0339505 0.00200374)
(0.00403088 0.0425519 0.0021597)
(0.00349448 0.0524426 0.00232198)
(0.00286607 0.0637364 0.00241677)
(0.00216312 0.0755633 0.00235497)
(0.00145349 0.0851448 0.00209775)
(0.000843264 0.0882325 0.00169221)
(0.000346903 0.0785126 0.00115449)
(3.03489e-05 0.0410574 0.000440086)
(1.08455e-05 -0.0152063 0.000504042)
(0.000198568 -0.0386927 0.00121235)
(0.000501462 -0.0555232 0.0016746)
(0.000884237 -0.066898 0.00195333)
(0.00129873 -0.0738445 0.00210298)
(0.00171258 -0.07763 0.00217248)
(0.0021187 -0.079366 0.00219714)
(0.00251939 -0.0797028 0.00219604)
(0.00291225 -0.0789376 0.00217891)
(0.00329212 -0.0771918 0.00215173)
(0.00365422 -0.0745077 0.00211914)
(0.00399388 -0.0709019 0.00208501)
(0.00430643 -0.0664035 0.00205229)
(0.00458766 -0.0610745 0.00202261)
(0.00483426 -0.0550127 0.00199619)
(0.00504373 -0.0483427 0.00197219)
(0.00521396 -0.0412024 0.00194922)
(0.00534298 -0.0337304 0.00192573)
(0.00542887 -0.0260564 0.00190038)
(0.00546969 -0.0182926 0.00187243)
(0.00546353 -0.0105296 0.0018422)
(0.00540835 -0.00283246 0.00181176)
(0.00530198 0.00476115 0.00178544)
(0.00514208 0.0122574 0.00177071)
(0.00492556 0.0197398 0.00177863)
(0.00464734 0.0274022 0.00182258)
(0.00429947 0.0355652 0.00191361)
(0.00387184 0.0446562 0.00205068)
(0.00335628 0.0550831 0.00220604)
(0.0027534 0.0668827 0.00231483)
(0.00207903 0.0790298 0.00229024)
(0.00140138 0.0885733 0.00208048)
(0.000815414 0.091327 0.00170659)
(0.00033408 0.0808395 0.00117154)
(2.92253e-05 0.0420117 0.000439245)
(1.16037e-05 -0.0161142 0.00047817)
(0.000198133 -0.0409121 0.00115461)
(0.000497746 -0.0586071 0.00159399)
(0.000873599 -0.0704722 0.00185588)
(0.00127704 -0.0776295 0.00199391)
(0.00167681 -0.0814707 0.00205609)
(0.00206735 -0.0831898 0.0020762)
(0.00245139 -0.0834659 0.00207214)
(0.00282628 -0.0826024 0.00205314)
(0.00318688 -0.0807215 0.00202513)
(0.00352868 -0.0778662 0.00199292)
(0.00384746 -0.0740554 0.00196062)
(0.0041392 -0.0693234 0.0019313)
(0.00440056 -0.0637378 0.00190662)
(0.0046292 -0.057402 0.00188666)
(0.00482347 -0.0504448 0.00187033)
(0.00498201 -0.0430069 0.00185585)
(0.00510339 -0.0352282 0.00184126)
(0.00518596 -0.0272391 0.00182483)
(0.00522775 -0.019152 0.00180541)
(0.00522646 -0.0110576 0.00178293)
(0.00517934 -0.00302169 0.00175873)
(0.00508326 0.00491732 0.00173615)
(0.00493492 0.0127655 0.0017213)
(0.00473044 0.0206114 0.00172395)
(0.00446453 0.0286601 0.00175696)
(0.0041297 0.0372478 0.00183244)
(0.00371705 0.0468104 0.001953)
(0.00321996 0.0577359 0.00209762)
(0.00263982 0.069986 0.00220975)
(0.00199151 0.0823941 0.002207)
(0.00134401 0.0918655 0.00203057)
(0.000782026 0.094285 0.00168338)
(0.000317596 0.083051 0.00115858)
(2.70214e-05 0.042916 0.000428331)
(1.16734e-05 -0.0170356 0.00046068)
(0.000196682 -0.0431651 0.00111304)
(0.000492526 -0.0617257 0.00153126)
(0.000861202 -0.0740658 0.00177456)
(0.00125356 -0.0814137 0.00189802)
(0.00163955 -0.0852956 0.00195011)
(0.00201506 -0.0869883 0.0019636)
(0.00238314 -0.0871975 0.00195528)
(0.00274089 -0.0862314 0.00193397)
(0.00308318 -0.0842135 0.00190557)
(0.0034057 -0.0811885 0.00187504)
(0.00370462 -0.0771798 0.00184667)
(0.00397653 -0.0722277 0.00182365)
(0.00421892 -0.0664061 0.00180762)
(0.00443035 -0.0598232 0.00179842)
(0.00460999 -0.0526108 0.00179449)
(0.00475722 -0.04491 0.00179333)
(0.00487116 -0.0368599 0.00179213)
(0.0049505 -0.0285887 0.00178823)
(0.00499334 -0.0202063 0.00177965)
(0.00499716 -0.0118009 0.00176551)
(0.00495864 -0.00343607 0.00174652)
(0.00487381 0.00485055 0.0017253)
(0.0047383 0.0130649 0.00170725)
(0.00454728 0.0212973 0.00170152)
(0.0042949 0.029759 0.00172072)
(0.00397376 0.0387946 0.00177773)
(0.00357584 0.0488412 0.00187779)
(0.00309592 0.0602621 0.00200517)
(0.00253628 0.0729457 0.00211054)
(0.00191141 0.0855959 0.00211668)
(0.00129118 0.0949942 0.00196176)
(0.000751304 0.097097 0.0016364)
(0.000302831 0.0851491 0.00112657)
(2.54183e-05 0.0437712 0.000411674)
(1.23665e-05 -0.0179233 0.000441831)
(0.000196745 -0.0453187 0.00106445)
(0.000489231 -0.0646828 0.00145723)
(0.000850674 -0.0774468 0.00168006)
(0.00123176 -0.0849517 0.00178883)
(0.00160387 -0.088857 0.00183136)
(0.00196431 -0.0905147 0.00183869)
(0.00231639 -0.0906519 0.00182635)
(0.00265703 -0.0895802 0.00180268)
(0.00298123 -0.0874242 0.00177353)
(0.00328498 -0.0842308 0.00174396)
(0.00356484 -0.0800283 0.00171841)
(0.00381803 -0.0748645 0.00170023)
(0.00404274 -0.0688203 0.00169109)
(0.00423827 -0.0620093 0.00169081)
(0.00440449 -0.0545659 0.00169762)
(0.00454132 -0.0466314 0.00170868)
(0.00464834 -0.0383426 0.00172063)
(0.00472454 -0.029824 0.00173015)
(0.00476808 -0.0211811 0.00173448)
(0.00477627 -0.0124972 0.00173194)
(0.00474538 -0.00383131 0.00172235)
(0.00467072 0.00478238 0.00170742)
(0.00454708 0.0133513 0.00169154)
(0.00436872 0.0219673 0.00168288)
(0.00412918 0.0308456 0.00169333)
(0.00382105 0.0403339 0.00173583)
(0.00343701 0.0508631 0.00181726)
(0.00297305 0.062765 0.00192597)
(0.00243242 0.0758527 0.00201908)
(0.00182968 0.088708 0.00202529)
(0.00123575 0.0980092 0.00188309)
(0.000717989 0.0997918 0.00157536)
(0.000286622 0.0871445 0.00108311)
(2.33988e-05 0.044579 0.000392022)
(1.24619e-05 -0.0188201 0.00042941)
(0.00019501 -0.0474884 0.00102987)
(0.000482859 -0.0676468 0.00140122)
(0.000836082 -0.0808143 0.00160508)
(0.00120537 -0.088456 0.00169924)
(0.00156356 -0.0923713 0.00173184)
(0.00190928 -0.0939862 0.00173267)
(0.00224594 -0.0940466 0.00171624)
(0.00257026 -0.0928668 0.00169049)
(0.00287736 -0.0905727 0.00166126)
(0.0031635 -0.0872147 0.00163371)
(0.00342565 -0.0828272 0.00161244)
(0.00366159 -0.0774661 0.00160081)
(0.00387019 -0.0712193 0.0016005)
(0.00405139 -0.064205 0.00161115)
(0.00420567 -0.056559 0.00163068)
(0.00433348 -0.0484209 0.00165575)
(0.00443482 -0.039924 0.00168232)
(0.00450891 -0.0311873 0.0017062)
(0.00455406 -0.0223098 0.00172369)
(0.00456741 -0.0133681 0.00173214)
(0.00454485 -0.00441473 0.00173046)
(0.00448103 0.00452117 0.00171958)
(0.00436981 0.0134492 0.00170323)
(0.00420452 0.0224618 0.00168901)
(0.00397802 0.0317749 0.00168847)
(0.00368272 0.0417348 0.00171464)
(0.00331186 0.0527609 0.00177557)
(0.00286257 0.0651487 0.00186279)
(0.00233912 0.0786348 0.00193886)
(0.00175642 0.0916853 0.00193838)
(0.00118639 0.10089 0.00180222)
(0.000688888 0.102363 0.00150857)
(0.000273097 0.0890422 0.00103505)
(2.21302e-05 0.0453436 0.000372098)
(1.28405e-05 -0.0196869 0.000415838)
(0.000193741 -0.0495671 0.000989258)
(0.000477053 -0.0704621 0.00133491)
(0.000822105 -0.0839867 0.00151724)
(0.00117985 -0.091736 0.0015958)
(0.0015247 -0.0956471 0.0016182)
(0.00185649 -0.0972125 0.0016124)
(0.00217865 -0.0971925 0.00159168)
(0.00248771 -0.095903 0.00156354)
(0.00277894 -0.0934711 0.00153376)
(0.00304887 -0.0899512 0.0015076)
(0.00329487 -0.0853844 0.00148974)
(0.00351521 -0.0798356 0.00148362)
(0.0037093 -0.0734003 0.00149095)
(0.00387762 -0.0662013 0.0015114)
(0.00402112 -0.058376 0.00154287)
(0.00414065 -0.0500622 0.00158186)
(0.00423656 -0.0413887 0.00162398)
(0.00430835 -0.0324678 0.00166444)
(0.00435442 -0.0233905 0.00169866)
(0.00437189 -0.0142244 0.00172287)
(0.00435641 -0.00501298 0.00173467)
(0.00430208 0.0042225 0.0017336)
(0.00420203 0.0134958 0.0017221)
(0.00404874 0.0229004 0.00170675)
(0.00383437 0.0326511 0.00169847)
(0.00355111 0.0430889 0.0017103)
(0.00319262 0.0546154 0.00175137)
(0.00275701 0.0674839 0.00181606)
(0.00224953 0.0813517 0.00187199)
(0.00168565 0.0945741 0.00185995)
(0.00113822 0.103667 0.00172479)
(0.000660213 0.104831 0.00144216)
(0.000259793 0.0908523 0.000987236)
(2.0769e-05 0.0460692 0.000353659)
(1.27135e-05 -0.0205563 0.000407111)
(0.000190889 -0.0516453 0.000959711)
(0.000468586 -0.0732629 0.00128343)
(0.000804879 -0.0871246 0.00144613)
(0.00115104 -0.0949648 0.00150986)
(0.001483 -0.0988619 0.00152235)
(0.00180161 -0.100372 0.00151012)
(0.00211021 -0.100269 0.00148542)
(0.00240514 -0.0988689 0.00145541)
(0.00268181 -0.0963009 0.00142582)
(0.00293704 -0.0926239 0.00140195)
(0.00316853 -0.087887 0.00138851)
(0.00337502 -0.0821638 0.00138889)
(0.0035564 -0.075557 0.00140469)
(0.0037136 -0.0681936 0.00143547)
(0.00384794 -0.0602114 0.00147896)
(0.00396064 -0.0517457 0.00153147)
(0.00405234 -0.0429198 0.00158831)
(0.00412279 -0.0338385 0.00164422)
(0.00417051 -0.0245838 0.00169395)
(0.00419258 -0.0152132 0.0017328)
(0.00418439 -0.0057593 0.00175724)
(0.00413958 0.00376607 0.00176553)
(0.00405052 0.0133823 0.00175875)
(0.00390887 0.0231836 0.00174235)
(0.0037061 0.0333825 0.00172648)
(0.00343416 0.0443115 0.00172399)
(0.00308707 0.0563502 0.00174485)
(0.00266384 0.0697056 0.00178594)
(0.00217067 0.0839546 0.00181959)
(0.00162369 0.0973448 0.00179267)
(0.00109652 0.10633 0.00165491)
(0.000635962 0.107196 0.00138072)
(0.000249045 0.0925825 0.000943355)
(1.9997e-05 0.046761 0.000337942)
(1.2817e-05 -0.0213963 0.000397088)
(0.00018871 -0.0536365 0.000924005)
(0.000461472 -0.075925 0.00122102)
(0.000789864 -0.0900842 0.00136076)
(0.00112552 -0.0979921 0.00140793)
(0.00144584 -0.101865 0.00140967)
(0.00175259 -0.103316 0.00139049)
(0.002049 -0.103127 0.0013614)
(0.00233122 -0.101616 0.00132912)
(0.00259485 -0.0989137 0.00129931)
(0.00283695 -0.0950839 0.0012773)
(0.00305555 -0.0901839 0.0012678)
(0.00324974 -0.0842963 0.00127418)
(0.00341978 -0.0775315 0.00129799)
(0.0035669 -0.0700207 0.00133879)
(0.00369275 -0.0619023 0.00139436)
(0.00379882 -0.053309 0.00146099)
(0.00388607 -0.0443585 0.00153386)
(0.00395449 -0.0351471 0.00160745)
(0.00400281 -0.0257463 0.00167589)
(0.0040282 -0.0162016 0.00173356)
(0.00402595 -0.00653266 0.00177555)
(0.00398929 0.00326105 0.00179845)
(0.00390999 0.0132065 0.00180149)
(0.00377893 0.0233991 0.00178844)
(0.00358688 0.0340476 0.0017683)
(0.00332547 0.0454726 0.00175359)
(0.00298898 0.0580274 0.00175512)
(0.00257723 0.0718674 0.00177231)
(0.00209726 0.0864871 0.00178212)
(0.00156596 0.10003 0.00173778)
(0.00105757 0.108901 0.00159463)
(0.000613254 0.109472 0.00132658)
(0.00023902 0.0942409 0.000905173)
(1.9224e-05 0.0474224 0.000325399)
(1.25482e-05 -0.0222355 0.000389914)
(0.000185477 -0.0556194 0.000894748)
(0.000452763 -0.0785636 0.0011673)
(0.00077314 -0.0930017 0.00128543)
(0.00109865 -0.100963 0.00131684)
(0.00140807 -0.104804 0.0013083)
(0.00170395 -0.106191 0.00128254)
(0.00198932 -0.105915 0.00124947)
(0.00226017 -0.104292 0.00121542)
(0.00251223 -0.101457 0.00118596)
(0.00274282 -0.0974797 0.00116639)
(0.00295024 -0.0924244 0.00116135)
(0.00313387 -0.0863833 0.00117405)
(0.00329429 -0.0794736 0.00120588)
(0.00343298 -0.0718302 0.00125629)
(0.00355178 -0.0635918 0.00132297)
(0.00365244 -0.0548882 0.0014022)
(0.00373614 -0.0458314 0.00148918)
(0.00380312 -0.0365092 0.0015783)
(0.0038523 -0.0269823 0.00166349)
(0.00388092 -0.0172829 0.00173854)
(0.00388421 -0.0074165 0.00179761)
(0.00385513 0.00263166 0.00183577)
(0.00378489 0.0128982 0.00185034)
(0.00366364 0.0234808 0.001843)
(0.00348151 0.0345835 0.0018211)
(0.00322979 0.046513 0.00179634)
(0.00290298 0.0595925 0.00178002)
(0.00250156 0.073923 0.00177389)
(0.00203338 0.0889148 0.00175948)
(0.00151602 0.102611 0.00169639)
(0.00102426 0.111373 0.00154593)
(0.000594243 0.111661 0.00128197)
(0.000230939 0.095835 0.000874294)
(1.88276e-05 0.0480576 0.000316356)
(1.25723e-05 -0.0230472 0.000380612)
(0.000183248 -0.057522 0.000857886)
(0.000446095 -0.0810759 0.0011011)
(0.000759659 -0.0957593 0.00119441)
(0.00107634 -0.103755 0.00120846)
(0.00137627 -0.107556 0.00118889)
(0.00166265 -0.108877 0.00115606)
(0.00193834 -0.108512 0.0011186)
(0.00219918 -0.106779 0.00108242)
(0.00244106 -0.103815 0.00105295)
(0.0026615 -0.0996935 0.00103546)
(0.00285904 -0.09449 0.00103454)
(0.00303331 -0.0883047 0.0010533)
(0.00318509 -0.0812618 0.00109306)
(0.00331603 -0.0735 0.00115323)
(0.00342817 -0.0651584 0.00123148)
(0.00352343 -0.0563643 0.00132415)
(0.00360323 -0.0472235 0.00142646)
(0.00366806 -0.0378152 0.00153275)
(0.00371707 -0.028188 0.00163675)
(0.00374767 -0.01836 0.00173178)
(0.00375515 -0.00832072 0.00181105)
(0.00373228 0.0019613 0.00186815)
(0.00366985 0.0125343 0.0018983)
(0.00355736 0.0234991 0.00190081)
(0.00338428 0.0350547 0.00188095)
(0.0031415 0.0474909 0.00184921)
(0.00282364 0.0610972 0.00181714)
(0.00243177 0.0759164 0.00178871)
(0.00197442 0.0912732 0.00175008)
(0.0014699 0.105112 0.00166741)
(0.000993404 0.113763 0.00150828)
(0.000576546 0.113774 0.00124663)
(0.000223368 0.09737 0.000850378)
(1.839e-05 0.0486686 0.000310414)
(1.23341e-05 -0.0238567 0.000372087)
(0.000180479 -0.0594132 0.000822992)
(0.00043889 -0.0835616 0.00103814)
(0.000746064 -0.0984727 0.00110796)
(0.00105469 -0.106491 0.00110568)
(0.0013461 -0.110245 0.00107573)
(0.00162412 -0.111495 0.00103626)
(0.00189136 -0.11104 0.000994738)
(0.00214353 -0.109196 0.000956651)
(0.00237667 -0.106103 0.000927312)
(0.00258848 -0.101843 0.000911896)
(0.00277769 -0.0964971 0.000914866)
(0.0029441 -0.0901753 0.000939194)
(0.00308865 -0.0830085 0.000986049)
(0.00321315 -0.0751385 0.00105475)
(0.00331973 -0.0667049 0.00114298)
(0.00341048 -0.0578324 0.00124713)
(0.00348697 -0.0486214 0.00136256)
(0.0035499 -0.0391422 0.00148377)
(0.00359861 -0.0294318 0.0016046)
(0.00363071 -0.0194935 0.00171821)
(0.00364158 -0.00929956 0.00181726)
(0.00362394 0.00119961 0.00189413)
(0.00356826 0.0120665 0.00194202)
(0.00346351 0.023407 0.0019576)
(0.00329854 0.0354149 0.00194354)
(0.00306386 0.0483618 0.0019085)
(0.00275409 0.0625006 0.00186374)
(0.00237081 0.0778129 0.00181512)
(0.00192312 0.0935366 0.00175324)
(0.00142999 0.10752 0.00165091)
(0.000966931 0.116068 0.00148215)
(0.00056156 0.115813 0.00122114)