/*--------------------------------*- C++ -*----------------------------------*\
| =========                 |                                                 |
| \\      /  F ield         | OpenFOAM: The Open Source CFD Toolbox           |
|  \\    /   O peration     | Version:  v2006                                 |
|   \\  /    A nd           | Website:  www.openfoam.com                      |
|    \\/     M anipulation  |                                                 |
\*---------------------------------------------------------------------------*/
FoamFile
{
    version     2.0;
    format      ascii;
    class       volScalarField;
    location    "96";
    object      nut;
}
// * * * * * * * * * * * * * * * * * * * * * * * * * * * * * * * * * * * * * //

dimensions      [0 2 -1 0 0 0 0];


internalField   nonuniform List<scalar> 
78750
(
3.07288e-09
3.14347e-07
5.45202e-07
7.74527e-07
9.9734e-07
1.20828e-06
1.404e-06
1.5825e-06
1.74258e-06
1.8837e-06
2.0057e-06
2.10872e-06
2.19309e-06
2.25931e-06
2.30791e-06
2.3386e-06
2.35204e-06
2.34887e-06
2.32965e-06
2.29489e-06
2.24546e-06
2.18014e-06
2.09982e-06
2.00441e-06
1.89364e-06
1.76705e-06
1.62411e-06
1.46359e-06
1.28476e-06
1.08699e-06
8.69009e-07
6.32835e-07
3.99086e-07
2.16345e-07
4.84613e-09
3.1588e-09
1.81181e-06
4.5446e-06
7.33579e-06
9.58215e-06
1.11271e-05
1.22392e-05
1.31345e-05
1.39281e-05
1.46825e-05
1.54343e-05
1.62067e-05
1.70214e-05
1.79085e-05
1.88321e-05
1.88529e-05
1.86843e-05
1.84326e-05
1.81067e-05
1.77147e-05
1.72639e-05
1.67565e-05
1.61977e-05
1.55894e-05
1.49312e-05
1.42211e-05
1.3459e-05
1.1999e-05
1.01322e-05
8.20846e-06
6.12633e-06
4.16281e-06
3.02643e-06
2.03239e-06
2.20656e-08
5.11753e-09
1.96329e-06
4.33556e-06
7.23817e-06
1.04832e-05
1.36258e-05
1.62103e-05
1.80839e-05
1.93551e-05
2.0194e-05
2.07344e-05
2.10634e-05
2.12347e-05
2.12844e-05
2.12362e-05
2.10921e-05
2.08422e-05
2.04902e-05
2.00482e-05
1.95259e-05
1.89313e-05
1.82799e-05
1.75816e-05
1.68294e-05
1.60106e-05
1.50999e-05
1.4049e-05
1.27882e-05
1.12219e-05
9.26776e-06
7.09901e-06
5.45144e-06
5.18408e-06
2.26699e-06
3.77834e-08
8.59823e-09
1.84201e-06
4.16667e-06
7.36808e-06
1.13679e-05
1.54511e-05
1.87559e-05
2.10055e-05
2.23573e-05
2.30295e-05
2.31936e-05
2.29793e-05
2.24886e-05
2.18029e-05
2.09881e-05
2.00965e-05
1.91668e-05
1.82269e-05
1.72973e-05
1.63965e-05
1.55449e-05
1.47678e-05
1.40896e-05
1.35229e-05
1.30593e-05
1.26528e-05
1.21973e-05
1.15187e-05
1.04227e-05
8.86183e-06
7.21164e-06
6.34006e-06
7.1096e-06
2.11621e-06
4.9396e-08
1.26042e-08
1.82946e-06
4.28823e-06
8.04008e-06
1.31164e-05
1.83597e-05
2.23777e-05
2.48451e-05
2.60084e-05
2.61652e-05
2.55923e-05
2.45407e-05
2.32231e-05
2.18028e-05
2.03908e-05
1.90497e-05
1.78042e-05
1.66544e-05
1.55881e-05
1.45923e-05
1.36657e-05
1.28238e-05
1.20933e-05
1.14985e-05
1.10494e-05
1.07223e-05
1.04249e-05
9.97916e-06
9.19212e-06
8.07421e-06
7.0636e-06
7.02192e-06
8.1707e-06
2.00225e-06
5.74933e-08
1.69584e-08
1.85531e-06
4.4841e-06
8.81095e-06
1.49764e-05
2.11942e-05
2.54577e-05
2.75781e-05
2.80565e-05
2.7367e-05
2.59232e-05
2.40852e-05
2.21393e-05
2.02791e-05
1.86062e-05
1.7151e-05
1.58992e-05
1.4814e-05
1.38543e-05
1.29866e-05
1.21944e-05
1.14793e-05
1.08508e-05
1.03168e-05
9.88189e-06
9.53198e-06
9.20301e-06
8.77078e-06
8.12635e-06
7.35612e-06
6.90107e-06
7.60269e-06
8.35428e-06
1.91184e-06
6.29584e-08
2.11746e-08
1.88972e-06
4.65166e-06
9.40531e-06
1.63483e-05
2.31211e-05
2.73693e-05
2.91227e-05
2.90198e-05
2.76282e-05
2.54839e-05
2.30622e-05
2.07113e-05
1.86258e-05
1.68679e-05
1.54207e-05
1.42343e-05
1.32481e-05
1.2406e-05
1.16658e-05
1.10077e-05
1.04318e-05
9.92892e-06
9.48071e-06
9.07488e-06
8.69445e-06
8.29878e-06
7.82692e-06
7.26133e-06
6.74702e-06
6.71084e-06
7.97664e-06
7.98377e-06
1.83981e-06
6.70036e-08
2.49484e-08
1.92749e-06
4.79037e-06
9.86363e-06
1.74179e-05
2.46034e-05
2.87439e-05
3.00599e-05
2.93483e-05
2.73136e-05
2.46254e-05
2.18354e-05
1.92936e-05
1.71463e-05
1.54028e-05
1.40113e-05
1.29043e-05
1.20163e-05
1.12928e-05
1.06973e-05
1.02124e-05
9.81759e-06
9.46382e-06
9.0994e-06
8.69403e-06
8.23876e-06
7.73122e-06
7.17803e-06
6.63512e-06
6.27869e-06
6.51565e-06
8.14215e-06
7.48166e-06
1.78283e-06
7.07092e-08
2.84576e-08
1.95597e-06
4.87424e-06
1.01352e-05
1.80524e-05
2.54182e-05
2.93946e-05
3.03721e-05
2.92468e-05
2.6814e-05
2.38238e-05
2.08599e-05
1.82498e-05
1.60948e-05
1.43659e-05
1.29957e-05
1.1914e-05
1.10591e-05
1.03861e-05
9.8731e-06
9.51915e-06
9.2917e-06
9.10624e-06
8.86926e-06
8.51231e-06
8.01561e-06
7.4111e-06
6.77197e-06
6.21518e-06
5.93701e-06
6.32716e-06
8.14345e-06
7.02041e-06
1.73866e-06
7.47888e-08
3.16767e-08
1.98229e-06
4.94282e-06
1.03444e-05
1.8539e-05
2.6043e-05
2.98795e-05
3.05638e-05
2.90897e-05
2.63474e-05
2.31526e-05
2.00957e-05
1.74672e-05
1.53263e-05
1.36203e-05
1.22679e-05
1.11989e-05
1.03605e-05
9.71749e-06
9.26327e-06
9.00987e-06
8.91149e-06
8.86364e-06
8.74204e-06
8.44183e-06
7.92488e-06
7.24436e-06
6.52783e-06
5.94149e-06
5.69608e-06
6.16819e-06
8.07482e-06
6.62433e-06
1.70317e-06
7.92591e-08
3.49145e-08
2.00368e-06
4.98907e-06
1.04831e-05
1.88569e-05
2.64048e-05
3.00899e-05
3.05503e-05
2.8848e-05
2.59277e-05
2.26339e-05
1.95457e-05
1.69212e-05
1.47918e-05
1.30909e-05
1.17348e-05
1.06542e-05
9.80162e-06
9.15548e-06
8.72556e-06
8.53556e-06
8.53268e-06
8.60247e-06
8.5973e-06
8.37672e-06
7.87667e-06
7.15786e-06
6.38604e-06
5.76796e-06
5.53074e-06
6.04561e-06
7.99615e-06
6.30134e-06
1.67596e-06
8.40331e-08
3.80884e-08
2.02475e-06
5.0373e-06
1.06237e-05
1.91621e-05
2.67453e-05
3.02944e-05
3.05513e-05
2.86448e-05
2.55756e-05
2.22118e-05
1.91147e-05
1.65085e-05
1.43994e-05
1.2709e-05
1.13512e-05
1.02591e-05
9.39044e-06
8.73063e-06
8.30413e-06
8.1464e-06
8.20099e-06
8.35101e-06
8.43576e-06
8.28886e-06
7.82235e-06
7.09523e-06
6.29583e-06
5.65889e-06
5.42701e-06
5.97403e-06
7.95633e-06
6.03024e-06
1.65523e-06
8.88808e-08
4.13954e-08
2.04416e-06
5.07957e-06
1.07456e-05
1.94151e-05
2.69927e-05
3.04008e-05
3.0489e-05
2.84375e-05
2.52804e-05
2.1889e-05
1.88018e-05
1.62159e-05
1.41206e-05
1.24317e-05
1.1063e-05
9.95069e-06
9.05733e-06
8.375e-06
7.93762e-06
7.78925e-06
7.87415e-06
8.07724e-06
8.23196e-06
8.15474e-06
7.73677e-06
7.02889e-06
6.22946e-06
5.59066e-06
5.36943e-06
5.94906e-06
7.96282e-06
5.80921e-06
1.64091e-06
9.36981e-08
4.47151e-08
2.06431e-06
5.12791e-06
1.0884e-05
1.96894e-05
2.72569e-05
3.05262e-05
3.04515e-05
2.82649e-05
2.50339e-05
2.16295e-05
1.85635e-05
1.60056e-05
1.39293e-05
1.22451e-05
1.08672e-05
9.7348e-06
8.81456e-06
8.10455e-06
7.64705e-06
7.493e-06
7.58659e-06
7.81602e-06
8.01431e-06
7.98956e-06
7.61959e-06
6.94621e-06
6.16871e-06
5.54706e-06
5.34855e-06
5.96963e-06
8.01983e-06
5.62775e-06
1.63215e-06
9.83967e-08
4.81452e-08
2.0837e-06
5.17434e-06
1.10163e-05
1.99424e-05
2.74802e-05
3.06128e-05
3.03991e-05
2.81131e-05
2.48408e-05
2.14425e-05
1.84032e-05
1.58708e-05
1.38083e-05
1.21236e-05
1.07321e-05
9.57581e-06
8.62506e-06
7.88231e-06
7.39591e-06
7.22406e-06
7.31216e-06
7.55089e-06
7.77663e-06
7.79468e-06
7.47407e-06
6.84731e-06
6.10897e-06
5.52026e-06
5.35632e-06
6.02878e-06
8.11811e-06
5.48199e-06
1.62835e-06
1.02964e-07
5.1605e-08
2.10404e-06
5.22613e-06
1.11634e-05
2.02159e-05
2.77199e-05
3.0717e-05
3.03709e-05
2.79958e-05
2.4694e-05
2.13117e-05
1.83059e-05
1.58032e-05
1.37572e-05
1.20736e-05
1.06689e-05
9.48758e-06
8.50342e-06
7.72324e-06
7.19953e-06
6.99816e-06
7.06667e-06
7.29866e-06
7.53424e-06
7.58134e-06
7.3056e-06
6.73126e-06
6.04406e-06
5.50114e-06
5.38305e-06
6.11726e-06
8.24764e-06
5.36621e-06
1.62875e-06
1.07398e-07
5.513e-08
2.12385e-06
5.27733e-06
1.13088e-05
2.04792e-05
2.79388e-05
3.0806e-05
3.03458e-05
2.79045e-05
2.4591e-05
2.12327e-05
1.82611e-05
1.57859e-05
1.37538e-05
1.20694e-05
1.06501e-05
9.44213e-06
8.42253e-06
7.60163e-06
7.0347e-06
6.79562e-06
6.83544e-06
7.05098e-06
7.28726e-06
7.35631e-06
7.12337e-06
6.60549e-06
5.97768e-06
5.49007e-06
5.42716e-06
6.23237e-06
8.40209e-06
5.27581e-06
1.63271e-06
1.11705e-07
5.86928e-08
2.14455e-06
5.33276e-06
1.1466e-05
2.07592e-05
2.8172e-05
3.09127e-05
3.03468e-05
2.78494e-05
2.45331e-05
2.12049e-05
1.8271e-05
1.58257e-05
1.38098e-05
1.21261e-05
1.06928e-05
9.45732e-06
8.3995e-06
7.53243e-06
6.91415e-06
6.62631e-06
6.62542e-06
6.81187e-06
7.037e-06
7.11962e-06
6.92645e-06
6.46735e-06
5.90474e-06
5.47951e-06
5.47905e-06
6.36267e-06
8.56995e-06
5.20711e-06
1.63955e-06
1.15898e-07
6.22853e-08
2.16478e-06
5.38837e-06
1.16253e-05
2.10377e-05
2.83972e-05
3.10163e-05
3.03563e-05
2.78151e-05
2.45037e-05
2.12079e-05
1.83116e-05
1.58959e-05
1.38968e-05
1.22156e-05
1.07701e-05
9.50884e-06
8.41321e-06
7.4986e-06
6.82551e-06
6.48242e-06
6.43359e-06
6.58332e-06
6.78985e-06
6.88013e-06
6.72403e-06
6.32453e-06
5.83043e-06
5.47226e-06
5.54007e-06
6.50848e-06
8.74817e-06
5.15492e-06
1.6486e-06
1.19978e-07
6.59201e-08
2.18565e-06
5.44716e-06
1.17944e-05
2.13314e-05
2.86371e-05
3.11395e-05
3.03932e-05
2.78157e-05
2.45142e-05
2.12535e-05
1.83965e-05
1.60124e-05
1.40324e-05
1.23562e-05
1.09004e-05
9.6138e-06
8.47883e-06
7.51266e-06
6.77776e-06
6.36925e-06
6.26197e-06
6.3647e-06
6.54347e-06
6.63479e-06
6.51263e-06
6.17291e-06
5.74983e-06
5.46251e-06
5.60292e-06
6.66105e-06
8.93038e-06
5.11908e-06
1.65975e-06
1.23962e-07
6.95576e-08
2.20586e-06
5.5061e-06
1.19676e-05
2.16304e-05
2.88789e-05
3.12672e-05
3.0439e-05
2.78281e-05
2.45371e-05
2.13114e-05
1.84943e-05
1.6144e-05
1.41868e-05
1.25201e-05
1.1059e-05
9.75141e-06
8.57978e-06
7.5626e-06
6.76426e-06
6.28515e-06
6.11331e-06
6.16253e-06
6.30699e-06
6.39355e-06
6.30123e-06
6.01932e-06
5.66716e-06
5.45223e-06
5.66838e-06
6.8196e-06
9.1117e-06
5.09261e-06
1.67192e-06
1.2784e-07
7.32415e-08
2.2263e-06
5.56694e-06
1.2149e-05
2.19459e-05
2.91415e-05
3.14204e-05
3.05127e-05
2.78696e-05
2.459e-05
2.14003e-05
1.86248e-05
1.63106e-05
1.43791e-05
1.2725e-05
1.12616e-05
9.93503e-06
8.72702e-06
7.65677e-06
6.79032e-06
6.23209e-06
5.98721e-06
5.9748e-06
6.07757e-06
6.15331e-06
6.0867e-06
5.86056e-06
5.57909e-06
5.43783e-06
5.73231e-06
6.98023e-06
9.29309e-06
5.07858e-06
1.68569e-06
1.31633e-07
7.69104e-08
2.24582e-06
5.62699e-06
1.23326e-05
2.22652e-05
2.94004e-05
3.15706e-05
3.05873e-05
2.79095e-05
2.46398e-05
2.14871e-05
1.87559e-05
1.64821e-05
1.45818e-05
1.2947e-05
1.14882e-05
1.01488e-05
8.90876e-06
7.78729e-06
6.85191e-06
6.21061e-06
5.88788e-06
5.80861e-06
5.86414e-06
5.9234e-06
5.87726e-06
5.70276e-06
5.48944e-06
5.42095e-06
5.79438e-06
7.14023e-06
9.46782e-06
5.06982e-06
1.69979e-06
1.35319e-07
8.06298e-08
2.2654e-06
5.68779e-06
1.25183e-05
2.25821e-05
2.96477e-05
3.17121e-05
3.06635e-05
2.79607e-05
2.47068e-05
2.15939e-05
1.8909e-05
1.66778e-05
1.48119e-05
1.32001e-05
1.175e-05
1.04016e-05
9.13194e-06
7.95928e-06
6.95213e-06
6.22165e-06
5.81451e-06
5.66203e-06
5.6643e-06
5.70138e-06
5.67058e-06
5.54367e-06
5.39599e-06
5.39944e-06
5.85249e-06
7.2978e-06
9.63827e-06
5.06899e-06
1.71475e-06
1.38916e-07
8.43273e-08
2.28425e-06
5.74839e-06
1.27053e-05
2.28914e-05
2.988e-05
3.18369e-05
3.0723e-05
2.80049e-05
2.47653e-05
2.16908e-05
1.90547e-05
1.68712e-05
1.50462e-05
1.34652e-05
1.2032e-05
1.06822e-05
9.38908e-06
8.16867e-06
7.09012e-06
6.26793e-06
5.77208e-06
5.5418e-06
5.48579e-06
5.49506e-06
5.47361e-06
5.38878e-06
5.30266e-06
5.37586e-06
5.9082e-06
7.45359e-06
9.80253e-06
5.07244e-06
1.72998e-06
1.42407e-07
8.80768e-08
2.30297e-06
5.81022e-06
1.28992e-05
2.31958e-05
3.0101e-05
3.1951e-05
3.07746e-05
2.80447e-05
2.48252e-05
2.17946e-05
1.92107e-05
1.70777e-05
1.52969e-05
1.37509e-05
1.23397e-05
1.09942e-05
9.68254e-06
8.41734e-06
7.26743e-06
6.35055e-06
5.76087e-06
5.4475e-06
5.32778e-06
5.30344e-06
5.28523e-06
5.23678e-06
5.20777e-06
5.34788e-06
5.95801e-06
7.6027e-06
9.95852e-06
5.07907e-06
1.74517e-06
1.45796e-07
9.17896e-08
2.32039e-06
5.86902e-06
1.30869e-05
2.34878e-05
3.03036e-05
3.20453e-05
3.08065e-05
2.80663e-05
2.48708e-05
2.18857e-05
1.93558e-05
1.72771e-05
1.55464e-05
1.40428e-05
1.26621e-05
1.13294e-05
1.00068e-05
8.70243e-06
7.484e-06
6.47272e-06
5.78585e-06
5.3852e-06
5.19693e-06
5.13319e-06
5.11156e-06
5.09294e-06
5.11586e-06
5.31977e-06
6.00693e-06
7.75283e-06
1.01162e-05
5.09029e-06
1.76059e-06
1.49072e-07
9.55574e-08
2.33805e-06
5.92913e-06
1.32778e-05
2.37774e-05
3.0497e-05
3.21298e-05
3.08296e-05
2.80814e-05
2.49187e-05
2.19786e-05
1.95019e-05
1.74791e-05
1.58018e-05
1.43451e-05
1.30005e-05
1.16871e-05
1.03606e-05
9.02279e-06
7.73956e-06
6.63515e-06
5.84738e-06
5.35497e-06
5.09323e-06
4.98427e-06
4.95244e-06
4.95672e-06
5.02568e-06
5.28932e-06
6.05141e-06
7.89861e-06
1.02684e-05
5.10429e-06
1.77581e-06
1.52233e-07
9.92868e-08
2.35471e-06
5.98722e-06
1.34646e-05
2.40546e-05
3.06714e-05
3.21931e-05
3.08298e-05
2.80721e-05
2.49413e-05
2.20495e-05
1.96315e-05
1.76704e-05
1.60522e-05
1.46488e-05
1.33476e-05
1.20618e-05
1.07394e-05
9.37544e-06
8.03282e-06
6.83882e-06
5.94803e-06
5.36051e-06
5.02114e-06
4.86154e-06
4.81277e-06
4.8328e-06
4.94174e-06
5.26133e-06
6.09811e-06
8.05052e-06
1.04208e-05
5.12345e-06
1.79135e-06
1.55269e-07
1.03064e-07
2.3717e-06
6.0467e-06
1.36546e-05
2.43297e-05
3.08375e-05
3.2247e-05
3.08212e-05
2.80554e-05
2.4958e-05
2.21159e-05
1.97575e-05
1.78589e-05
1.63017e-05
1.49548e-05
1.37017e-05
1.24499e-05
1.11391e-05
9.75639e-06
8.36036e-06
7.08068e-06
6.08557e-06
5.40035e-06
4.97979e-06
4.76464e-06
4.69255e-06
4.72131e-06
4.86411e-06
5.23577e-06
6.14633e-06
8.20559e-06
1.05735e-05
5.14661e-06
1.80723e-06
1.58179e-07
1.06805e-07
2.38809e-06
6.10512e-06
1.38412e-05
2.45923e-05
3.09847e-05
3.22797e-05
3.07895e-05
2.80146e-05
2.49513e-05
2.2162e-05
1.98671e-05
1.80354e-05
1.65436e-05
1.52581e-05
1.4059e-05
1.28481e-05
1.15565e-05
1.01625e-05
8.71915e-06
7.358e-06
6.25897e-06
5.47488e-06
4.97075e-06
4.696e-06
4.59477e-06
4.6255e-06
4.79598e-06
5.21545e-06
6.19826e-06
8.36491e-06
1.07253e-05
5.17188e-06
1.82319e-06
1.60947e-07
1.10585e-07
2.40496e-06
6.16545e-06
1.40303e-05
2.48512e-05
3.11224e-05
3.23014e-05
3.07467e-05
2.79632e-05
2.49352e-05
2.22001e-05
1.99697e-05
1.82053e-05
1.67802e-05
1.55583e-05
1.44168e-05
1.3252e-05
1.19865e-05
1.05886e-05
9.10455e-06
7.6665e-06
6.46492e-06
5.58157e-06
4.99211e-06
4.65451e-06
4.51914e-06
4.54578e-06
4.73831e-06
5.2018e-06
6.25548e-06
8.52936e-06
1.08773e-05
5.19946e-06
1.83922e-06
1.6357e-07
1.14322e-07
2.42149e-06
6.22634e-06
1.42151e-05
2.50963e-05
3.12412e-05
3.23026e-05
3.06819e-05
2.78893e-05
2.48976e-05
2.22204e-05
2.00573e-05
1.83632e-05
1.70079e-05
1.58533e-05
1.47738e-05
1.36603e-05
1.2427e-05
1.10318e-05
9.51327e-06
8.00307e-06
6.70151e-06
5.71948e-06
5.04376e-06
4.64071e-06
4.46679e-06
4.48358e-06
4.69226e-06
5.19493e-06
6.31672e-06
8.69799e-06
1.10273e-05
5.22794e-06
1.8551e-06
1.6604e-07
1.18044e-07
2.4375e-06
6.28653e-06
1.43988e-05
2.53361e-05
3.135e-05
3.22913e-05
3.06036e-05
2.78029e-05
2.48486e-05
2.22329e-05
2.01367e-05
1.85125e-05
1.72279e-05
1.61425e-05
1.51277e-05
1.40693e-05
1.28735e-05
1.14873e-05
9.9407e-06
8.36362e-06
6.96549e-06
5.88607e-06
5.12368e-06
4.6531e-06
4.43678e-06
4.43861e-06
4.65834e-06
5.19687e-06
6.38644e-06
8.8716e-06
1.11761e-05
5.2574e-06
1.87078e-06
1.6836e-07
1.21689e-07
2.45265e-06
6.34455e-06
1.45783e-05
2.55646e-05
3.14427e-05
3.22622e-05
3.05054e-05
2.76925e-05
2.47741e-05
2.22224e-05
2.0198e-05
1.86484e-05
1.74383e-05
1.64253e-05
1.54785e-05
1.44789e-05
1.33248e-05
1.19529e-05
1.03836e-05
8.74485e-06
7.25439e-06
6.07972e-06
5.231e-06
4.69148e-06
4.42954e-06
4.41187e-06
4.63795e-06
5.209e-06
6.46512e-06
9.05131e-06
1.13237e-05
5.28753e-06
1.88618e-06
1.7053e-07
1.25327e-07
2.46748e-06
6.40263e-06
1.47596e-05
2.57897e-05
3.15265e-05
3.22223e-05
3.03964e-05
2.7574e-05
2.46925e-05
2.22017e-05
2.02464e-05
1.87723e-05
1.76389e-05
1.67002e-05
1.58236e-05
1.48858e-05
1.37776e-05
1.24248e-05
1.08385e-05
9.14326e-06
7.56506e-06
6.29773e-06
5.36354e-06
4.7542e-06
4.44404e-06
4.4029e-06
4.63099e-06
5.23098e-06
6.55145e-06
9.23629e-06
1.14704e-05
5.31867e-06
1.90135e-06
1.72557e-07
1.28892e-07
2.4817e-06
6.45918e-06
1.49368e-05
2.60019e-05
3.15936e-05
3.21638e-05
3.02664e-05
2.7433e-05
2.45893e-05
2.21637e-05
2.02819e-05
1.88831e-05
1.78272e-05
1.69662e-05
1.61631e-05
1.52904e-05
1.42316e-05
1.29021e-05
1.13033e-05
9.5566e-06
7.89551e-06
6.53848e-06
5.52005e-06
4.84044e-06
4.47993e-06
4.4118e-06
4.63779e-06
5.26309e-06
6.64543e-06
9.42652e-06
1.16163e-05
5.35066e-06
1.91627e-06
1.74448e-07
1.32417e-07
2.49543e-06
6.51502e-06
1.51133e-05
2.62078e-05
3.16499e-05
3.2093e-05
3.01243e-05
2.72808e-05
2.4475e-05
2.21136e-05
2.03057e-05
1.89847e-05
1.80064e-05
1.72227e-05
1.64945e-05
1.56893e-05
1.46829e-05
1.33809e-05
1.17745e-05
9.98155e-06
8.24285e-06
6.79955e-06
5.69851e-06
4.94859e-06
4.53605e-06
4.43787e-06
4.65797e-06
5.30497e-06
6.74644e-06
9.62114e-06
1.17616e-05
5.38367e-06
1.93099e-06
1.7621e-07
1.35878e-07
2.50871e-06
6.56987e-06
1.5287e-05
2.64022e-05
3.16902e-05
3.20042e-05
2.9963e-05
2.71092e-05
2.43425e-05
2.20474e-05
2.03157e-05
1.90745e-05
1.81764e-05
1.74712e-05
1.68189e-05
1.60832e-05
1.5132e-05
1.38605e-05
1.22505e-05
1.04162e-05
8.60514e-06
7.07918e-06
5.89747e-06
5.07755e-06
4.61175e-06
4.48085e-06
4.69154e-06
5.3567e-06
6.85436e-06
9.81967e-06
1.19064e-05
5.41759e-06
1.94547e-06
1.77851e-07
1.39275e-07
2.52142e-06
6.62337e-06
1.54576e-05
2.65871e-05
3.17178e-05
3.19021e-05
2.97883e-05
2.69253e-05
2.41983e-05
2.19697e-05
2.03145e-05
1.91532e-05
1.83355e-05
1.77096e-05
1.71335e-05
1.64682e-05
1.55746e-05
1.43371e-05
1.2728e-05
1.08575e-05
8.97976e-06
7.3752e-06
6.11506e-06
5.22582e-06
4.70592e-06
4.54015e-06
4.73834e-06
5.4183e-06
6.96913e-06
1.00218e-05
1.20509e-05
5.45254e-06
1.95977e-06
1.7938e-07
1.42587e-07
2.53353e-06
6.67541e-06
1.56246e-05
2.67603e-05
3.17302e-05
3.17831e-05
2.95962e-05
2.67249e-05
2.40393e-05
2.18789e-05
2.03022e-05
1.92222e-05
1.84858e-05
1.79398e-05
1.74407e-05
1.68459e-05
1.6011e-05
1.48101e-05
1.32053e-05
1.13034e-05
9.36473e-06
7.68583e-06
6.34979e-06
5.39215e-06
4.81768e-06
4.61525e-06
4.79817e-06
5.48978e-06
7.09067e-06
1.0227e-05
1.21954e-05
5.4885e-06
1.97388e-06
1.80806e-07
1.45818e-07
2.54504e-06
6.72585e-06
1.57876e-05
2.69227e-05
3.17293e-05
3.16498e-05
2.939e-05
2.65115e-05
2.38684e-05
2.1777e-05
2.02794e-05
1.9281e-05
1.86258e-05
1.81596e-05
1.77376e-05
1.72138e-05
1.64377e-05
1.52759e-05
1.36795e-05
1.17514e-05
9.75778e-06
8.0092e-06
6.60005e-06
5.57525e-06
4.94606e-06
4.70562e-06
4.87098e-06
5.57141e-06
7.21938e-06
1.04357e-05
1.23403e-05
5.52561e-06
1.98784e-06
1.82137e-07
1.48947e-07
2.55587e-06
6.77436e-06
1.59456e-05
2.7073e-05
3.17137e-05
3.15006e-05
2.91678e-05
2.62836e-05
2.36852e-05
2.16647e-05
2.0248e-05
1.93322e-05
1.87584e-05
1.83717e-05
1.80262e-05
1.75731e-05
1.68558e-05
1.57325e-05
1.41476e-05
1.21988e-05
1.01567e-05
8.34346e-06
6.86431e-06
5.77382e-06
5.09007e-06
4.81064e-06
4.9565e-06
5.66322e-06
7.35536e-06
1.06476e-05
1.2486e-05
5.56393e-06
2.00169e-06
1.83384e-07
1.51983e-07
2.56607e-06
6.82117e-06
1.60994e-05
2.72124e-05
3.16844e-05
3.13361e-05
2.89302e-05
2.60418e-05
2.34899e-05
2.15417e-05
2.02073e-05
1.93749e-05
1.88828e-05
1.85753e-05
1.83056e-05
1.79223e-05
1.72638e-05
1.61804e-05
1.46089e-05
1.26439e-05
1.05597e-05
8.68707e-06
7.1412e-06
5.98668e-06
5.24875e-06
4.92969e-06
5.05455e-06
5.76542e-06
7.49908e-06
1.08633e-05
1.2633e-05
5.60361e-06
2.01547e-06
1.84557e-07
1.54915e-07
2.5756e-06
6.86601e-06
1.62481e-05
2.73399e-05
3.16404e-05
3.11553e-05
2.86767e-05
2.57863e-05
2.32833e-05
2.14096e-05
2.01593e-05
1.94114e-05
1.90013e-05
1.87725e-05
1.85774e-05
1.82623e-05
1.7661e-05
1.66171e-05
1.5061e-05
1.30847e-05
1.09653e-05
9.03863e-06
7.42959e-06
6.21286e-06
5.42129e-06
5.06214e-06
5.16473e-06
5.87789e-06
7.65057e-06
1.10826e-05
1.27817e-05
5.64475e-06
2.02922e-06
1.85667e-07
1.57754e-07
2.58452e-06
6.90916e-06
1.63928e-05
2.74567e-05
3.15819e-05
3.09577e-05
2.84064e-05
2.55162e-05
2.30646e-05
2.12674e-05
2.01029e-05
1.94408e-05
1.91134e-05
1.89634e-05
1.88423e-05
1.8594e-05
1.80483e-05
1.70432e-05
1.55033e-05
1.35191e-05
1.13711e-05
9.39625e-06
7.72798e-06
6.45123e-06
5.60683e-06
5.2074e-06
5.2868e-06
6.00074e-06
7.81025e-06
1.13062e-05
1.29327e-05
5.68753e-06
2.043e-06
1.86725e-07
1.60495e-07
2.59285e-06
6.95061e-06
1.65331e-05
2.75618e-05
3.15081e-05
3.07429e-05
2.81197e-05
2.52323e-05
2.28351e-05
2.11166e-05
2.00397e-05
1.94646e-05
1.92204e-05
1.9149e-05
1.91006e-05
1.89173e-05
1.8425e-05
1.74572e-05
1.59347e-05
1.39468e-05
1.17765e-05
9.75913e-06
8.03564e-06
6.70114e-06
5.80479e-06
5.365e-06
5.42047e-06
6.13393e-06
7.97825e-06
1.15342e-05
1.30866e-05
5.73209e-06
2.05687e-06
1.87741e-07
1.63143e-07
2.60059e-06
6.99032e-06
1.66691e-05
2.76558e-05
3.14187e-05
3.05098e-05
2.78152e-05
2.49338e-05
2.25939e-05
2.09563e-05
1.9969e-05
1.94822e-05
1.93221e-05
1.93296e-05
1.93536e-05
1.92337e-05
1.87925e-05
1.78598e-05
1.63545e-05
1.43662e-05
1.218e-05
1.01259e-05
8.35145e-06
6.96177e-06
6.01464e-06
5.53461e-06
5.56552e-06
6.27737e-06
8.15491e-06
1.1767e-05
1.32439e-05
5.77858e-06
2.07088e-06
1.88727e-07
1.65701e-07
2.60779e-06
7.02847e-06
1.6801e-05
2.77383e-05
3.13135e-05
3.02585e-05
2.74939e-05
2.4622e-05
2.23425e-05
2.07881e-05
1.98919e-05
1.94945e-05
1.9419e-05
1.95053e-05
1.96009e-05
1.95426e-05
1.91501e-05
1.82505e-05
1.67619e-05
1.47761e-05
1.25798e-05
1.04945e-05
8.67384e-06
7.23217e-06
6.2358e-06
5.7159e-06
5.72202e-06
6.43182e-06
8.34041e-06
1.2005e-05
1.34052e-05
5.82721e-06
2.08511e-06
1.89698e-07
1.68166e-07
2.61439e-06
7.06477e-06
1.69281e-05
2.78089e-05
3.11918e-05
2.99882e-05
2.71552e-05
2.42965e-05
2.20809e-05
2.06119e-05
1.98083e-05
1.95014e-05
1.95112e-05
1.96766e-05
1.98433e-05
1.98452e-05
1.94989e-05
1.86295e-05
1.71565e-05
1.51751e-05
1.29742e-05
1.08633e-05
9.00122e-06
7.511e-06
6.46739e-06
5.9085e-06
5.89002e-06
6.59765e-06
8.53557e-06
1.22489e-05
1.35707e-05
5.87806e-06
2.09961e-06
1.90663e-07
1.70545e-07
2.62048e-06
7.09954e-06
1.70513e-05
2.7868e-05
3.10535e-05
2.96993e-05
2.68002e-05
2.39591e-05
2.18107e-05
2.04289e-05
1.97192e-05
1.95032e-05
1.95987e-05
1.98432e-05
2.00802e-05
2.01409e-05
1.98382e-05
1.89966e-05
1.75379e-05
1.55627e-05
1.33619e-05
1.12307e-05
9.33213e-06
7.7971e-06
6.70867e-06
6.11203e-06
6.06946e-06
6.77486e-06
8.74084e-06
1.24994e-05
1.37411e-05
5.93123e-06
2.11443e-06
1.91633e-07
1.7284e-07
2.626e-06
7.13261e-06
1.717e-05
2.79148e-05
3.08981e-05
2.93917e-05
2.64296e-05
2.36107e-05
2.15329e-05
2.02401e-05
1.9625e-05
1.95005e-05
1.96816e-05
2.0005e-05
2.03119e-05
2.04296e-05
2.01682e-05
1.93515e-05
1.79056e-05
1.59376e-05
1.3741e-05
1.15947e-05
9.6645e-06
8.08881e-06
6.95851e-06
6.3259e-06
6.26013e-06
6.96363e-06
8.95714e-06
1.27577e-05
1.39169e-05
5.98682e-06
2.12962e-06
1.92617e-07
1.75063e-07
2.63108e-06
7.16441e-06
1.72852e-05
2.79497e-05
3.07255e-05
2.90661e-05
2.60451e-05
2.32534e-05
2.12493e-05
2.00468e-05
1.95267e-05
1.94931e-05
1.97596e-05
2.01615e-05
2.05374e-05
2.07108e-05
2.04883e-05
1.9694e-05
1.82593e-05
1.62995e-05
1.41108e-05
1.19539e-05
9.99704e-06
8.38503e-06
7.21601e-06
6.54943e-06
6.46144e-06
7.16336e-06
9.1841e-06
1.30233e-05
1.40974e-05
6.04478e-06
2.14522e-06
1.93619e-07
1.77215e-07
2.63567e-06
7.19474e-06
1.73963e-05
2.79718e-05
3.05355e-05
2.87232e-05
2.5648e-05
2.28886e-05
2.09613e-05
1.98509e-05
1.94251e-05
1.94815e-05
1.98323e-05
2.03122e-05
2.07563e-05
2.09839e-05
2.07982e-05
2.00238e-05
1.85988e-05
1.6648e-05
1.44701e-05
1.23067e-05
1.03278e-05
8.68368e-06
7.47938e-06
6.78134e-06
6.67283e-06
7.37436e-06
9.4228e-06
1.32978e-05
1.42828e-05
6.10503e-06
2.16125e-06
1.94646e-07
1.79302e-07
2.6398e-06
7.22366e-06
1.75032e-05
2.7981e-05
3.03287e-05
2.83646e-05
2.52407e-05
2.25185e-05
2.06706e-05
1.96547e-05
1.93214e-05
1.94654e-05
1.98992e-05
2.04561e-05
2.09677e-05
2.12483e-05
2.10974e-05
2.03407e-05
1.89241e-05
1.69831e-05
1.48185e-05
1.26522e-05
1.06555e-05
8.98369e-06
7.7478e-06
7.02083e-06
6.89376e-06
7.59643e-06
9.67329e-06
1.35813e-05
1.44727e-05
6.16752e-06
2.17773e-06
1.957e-07
1.81319e-07
2.64337e-06
7.2509e-06
1.76051e-05
2.79767e-05
3.01048e-05
2.79909e-05
2.48245e-05
2.21447e-05
2.03778e-05
1.94556e-05
1.92137e-05
1.94442e-05
1.99601e-05
2.0593e-05
2.1171e-05
2.15031e-05
2.13853e-05
2.06445e-05
1.92357e-05
1.73055e-05
1.51558e-05
1.29896e-05
1.0979e-05
9.28355e-06
8.01967e-06
7.26677e-06
7.12358e-06
7.82958e-06
9.93623e-06
1.38746e-05
1.4667e-05
6.23219e-06
2.1947e-06
1.96785e-07
1.83262e-07
2.64634e-06
7.2761e-06
1.77012e-05
2.79589e-05
2.98651e-05
2.76038e-05
2.44016e-05
2.17694e-05
2.00857e-05
1.92571e-05
1.9105e-05
1.94199e-05
2.00156e-05
2.07226e-05
2.13652e-05
2.17473e-05
2.16608e-05
2.09349e-05
1.95341e-05
1.76166e-05
1.54826e-05
1.33185e-05
1.12974e-05
9.58218e-06
8.29412e-06
7.51859e-06
7.36174e-06
8.07353e-06
1.02117e-05
1.41779e-05
1.48651e-05
6.29885e-06
2.21216e-06
1.97902e-07
1.85133e-07
2.64867e-06
7.29929e-06
1.77917e-05
2.79273e-05
2.96087e-05
2.72031e-05
2.39722e-05
2.13932e-05
1.97948e-05
1.90597e-05
1.89962e-05
1.93936e-05
2.00668e-05
2.08456e-05
2.15506e-05
2.19805e-05
2.19238e-05
2.12122e-05
1.98206e-05
1.79186e-05
1.58002e-05
1.36394e-05
1.16104e-05
9.87892e-06
8.57023e-06
7.77525e-06
7.60774e-06
8.32821e-06
1.04999e-05
1.44915e-05
1.50671e-05
6.36764e-06
2.23017e-06
1.99056e-07
1.86938e-07
2.65035e-06
7.32037e-06
1.78765e-05
2.78829e-05
2.93367e-05
2.67898e-05
2.35374e-05
2.1017e-05
1.95063e-05
1.88649e-05
1.8889e-05
1.9367e-05
2.01153e-05
2.09632e-05
2.17277e-05
2.22028e-05
2.21739e-05
2.14762e-05
2.00957e-05
1.82128e-05
1.61094e-05
1.39524e-05
1.19177e-05
1.01732e-05
8.84739e-06
8.03635e-06
7.8613e-06
8.59314e-06
1.08007e-05
1.4815e-05
1.5272e-05
6.43811e-06
2.24867e-06
2.00244e-07
1.88688e-07
2.65146e-06
7.33976e-06
1.79568e-05
2.7825e-05
2.90473e-05
2.63627e-05
2.30966e-05
2.06407e-05
1.92205e-05
1.86738e-05
1.87853e-05
1.93428e-05
2.01643e-05
2.10783e-05
2.18989e-05
2.24157e-05
2.24119e-05
2.17271e-05
2.03592e-05
1.84984e-05
1.64099e-05
1.42575e-05
1.2219e-05
1.04644e-05
9.12479e-06
8.30107e-06
8.12189e-06
8.86871e-06
1.11145e-05
1.51488e-05
1.54797e-05
6.51036e-06
2.2677e-06
2.01469e-07
1.90398e-07
2.65207e-06
7.35787e-06
1.80339e-05
2.77546e-05
2.87406e-05
2.59219e-05
2.265e-05
2.02642e-05
1.8937e-05
1.84862e-05
1.86854e-05
1.93221e-05
2.02153e-05
2.1193e-05
2.20663e-05
2.26209e-05
2.26389e-05
2.19654e-05
2.06109e-05
1.87744e-05
1.67015e-05
1.45547e-05
1.25146e-05
1.07527e-05
9.40245e-06
8.56934e-06
8.38942e-06
9.15457e-06
1.14406e-05
1.54923e-05
1.56895e-05
6.58402e-06
2.2872e-06
2.02726e-07
1.92079e-07
2.65231e-06
7.37511e-06
1.81084e-05
2.76709e-05
2.84155e-05
2.54668e-05
2.21976e-05
1.98876e-05
1.86562e-05
1.83026e-05
1.85905e-05
1.93067e-05
2.02711e-05
2.13104e-05
2.2233e-05
2.28212e-05
2.28568e-05
2.21921e-05
2.08506e-05
1.90396e-05
1.69829e-05
1.48432e-05
1.28037e-05
1.10373e-05
9.67963e-06
8.84041e-06
8.66324e-06
9.45074e-06
1.17799e-05
1.5845e-05
1.59011e-05
6.65907e-06
2.3072e-06
2.04017e-07
1.93741e-07
2.65229e-06
7.39206e-06
1.81815e-05
2.75739e-05
2.80718e-05
2.49984e-05
2.17405e-05
1.95114e-05
1.83777e-05
1.81221e-05
1.84994e-05
1.92959e-05
2.03318e-05
2.14318e-05
2.24011e-05
2.30189e-05
2.30681e-05
2.24093e-05
2.108e-05
1.92946e-05
1.72546e-05
1.51233e-05
1.30864e-05
1.13182e-05
9.95625e-06
9.11437e-06
8.9436e-06
9.75728e-06
1.21322e-05
1.62071e-05
1.6114e-05
6.73514e-06
2.3276e-06
2.05334e-07
1.95385e-07
2.65203e-06
7.40862e-06
1.82524e-05
2.74627e-05
2.77099e-05
2.45185e-05
2.12809e-05
1.91372e-05
1.81022e-05
1.79446e-05
1.84114e-05
1.92889e-05
2.03967e-05
2.15571e-05
2.25711e-05
2.32151e-05
2.32738e-05
2.26178e-05
2.12997e-05
1.95391e-05
1.75161e-05
1.53947e-05
1.33626e-05
1.15953e-05
1.0232e-05
9.39074e-06
9.23013e-06
1.00742e-05
1.24979e-05
1.65789e-05
1.63282e-05
6.81229e-06
2.34845e-06
2.06682e-07
1.97002e-07
2.65155e-06
7.42482e-06
1.83206e-05
2.73365e-05
2.73308e-05
2.40296e-05
2.08213e-05
1.8767e-05
1.78308e-05
1.77701e-05
1.83256e-05
1.92839e-05
2.04642e-05
2.16852e-05
2.2743e-05
2.34108e-05
2.34758e-05
2.28202e-05
2.15123e-05
1.97746e-05
1.77681e-05
1.56576e-05
1.36328e-05
1.18691e-05
1.05074e-05
9.66945e-06
9.52212e-06
1.04005e-05
1.28753e-05
1.69583e-05
1.65426e-05
6.89026e-06
2.36968e-06
2.08058e-07
1.98577e-07
2.65071e-06
7.43996e-06
1.83843e-05
2.71947e-05
2.69359e-05
2.35344e-05
2.03645e-05
1.84028e-05
1.75653e-05
1.75993e-05
1.82412e-05
1.9279e-05
2.05314e-05
2.18131e-05
2.29143e-05
2.36043e-05
2.36738e-05
2.30176e-05
2.17198e-05
2.00016e-05
1.80097e-05
1.59106e-05
1.38951e-05
1.21383e-05
1.07815e-05
9.95056e-06
9.82042e-06
1.07375e-05
1.3266e-05
1.73465e-05
1.67568e-05
6.96875e-06
2.39128e-06
2.09469e-07
2.00091e-07
2.64935e-06
7.45344e-06
1.84419e-05
2.7037e-05
2.6526e-05
2.30343e-05
1.99117e-05
1.80463e-05
1.73077e-05
1.74338e-05
1.81588e-05
1.92736e-05
2.05969e-05
2.19389e-05
2.30833e-05
2.37952e-05
2.38686e-05
2.32121e-05
2.19254e-05
2.02227e-05
1.82426e-05
1.61545e-05
1.41497e-05
1.24021e-05
1.10534e-05
1.02327e-05
1.01237e-05
1.10837e-05
1.36684e-05
1.77413e-05
1.69693e-05
7.04704e-06
2.41305e-06
2.10903e-07
2.01531e-07
2.64731e-06
7.46459e-06
1.84927e-05
2.68634e-05
2.6101e-05
2.25292e-05
1.94627e-05
1.76976e-05
1.70612e-05
1.7276e-05
1.80799e-05
1.92685e-05
2.06605e-05
2.20616e-05
2.32485e-05
2.39818e-05
2.40592e-05
2.34035e-05
2.21291e-05
2.0438e-05
1.8467e-05
1.63891e-05
1.43961e-05
1.26604e-05
1.13232e-05
1.05169e-05
1.04333e-05
1.14407e-05
1.40834e-05
1.8143e-05
1.71804e-05
7.1253e-06
2.43503e-06
2.12369e-07
2.02896e-07
2.64451e-06
7.47319e-06
1.85366e-05
2.66734e-05
2.56589e-05
2.20169e-05
1.90157e-05
1.73548e-05
1.68213e-05
1.71247e-05
1.80065e-05
1.9267e-05
2.07253e-05
2.21834e-05
2.34113e-05
2.41651e-05
2.42467e-05
2.35927e-05
2.23312e-05
2.0649e-05
1.86844e-05
1.66158e-05
1.46351e-05
1.29131e-05
1.15901e-05
1.08016e-05
1.07475e-05
1.18069e-05
1.45095e-05
1.85498e-05
1.73892e-05
7.20301e-06
2.4571e-06
2.13866e-07
2.04199e-07
2.64099e-06
7.47935e-06
1.85746e-05
2.64662e-05
2.51964e-05
2.14935e-05
1.85678e-05
1.70173e-05
1.65904e-05
1.69841e-05
1.79438e-05
1.92743e-05
2.07961e-05
2.23078e-05
2.35738e-05
2.43463e-05
2.44312e-05
2.37794e-05
2.25305e-05
2.08546e-05
1.88944e-05
1.68341e-05
1.48662e-05
1.31596e-05
1.18537e-05
1.10868e-05
1.10671e-05
1.21823e-05
1.49466e-05
1.89615e-05
1.75958e-05
7.2803e-06
2.47929e-06
2.15401e-07