/*--------------------------------*- C++ -*----------------------------------*\
| =========                 |                                                 |
| \\      /  F ield         | OpenFOAM: The Open Source CFD Toolbox           |
|  \\    /   O peration     | Version:  v2006                                 |
|   \\  /    A nd           | Website:  www.openfoam.com                      |
|    \\/     M anipulation  |                                                 |
\*---------------------------------------------------------------------------*/
FoamFile
{
    version     2.0;
    format      ascii;
    class       volScalarField;
    location    "96";
    object      omega;
}
// * * * * * * * * * * * * * * * * * * * * * * * * * * * * * * * * * * * * * //

dimensions      [0 0 -1 0 0 0 0];


internalField   nonuniform List<scalar> 
78750
(
352.31
13.5538
13.5815
13.6089
13.6355
13.6606
13.684
13.7053
13.7244
13.7413
13.756
13.7685
13.7788
13.7871
13.7933
13.7974
13.7996
13.7998
13.7983
13.7949
13.79
13.7832
13.7748
13.7647
13.7529
13.7395
13.7242
13.7072
13.6882
13.6678
13.6471
13.6293
13.6219
13.6355
356.832
516.971
4.16497
4.26429
4.35204
4.42851
4.49435
4.55023
4.59684
4.63494
4.66528
4.68858
4.70552
4.71671
4.72272
4.72414
4.72157
4.71544
4.70611
4.69396
4.6793
4.66244
4.64347
4.62264
4.60002
4.57563
4.54944
4.52149
4.49152
4.45857
4.42121
4.37708
4.32352
4.26321
4.20937
523.938
516.98
4.22377
4.36492
4.48564
4.58505
4.66482
4.728
4.77754
4.81573
4.84424
4.86437
4.87714
4.88344
4.88402
4.87956
4.87073
4.85814
4.84241
4.82414
4.80392
4.78227
4.75963
4.73627
4.71228
4.68752
4.66165
4.63413
4.60421
4.57066
4.53135
4.48296
4.42259
4.35484
4.29039
524.29
516.996
4.27899
4.45302
4.59703
4.70969
4.79479
4.85834
4.90542
4.93948
4.96278
4.97689
4.98299
4.98199
4.97468
4.96179
4.94406
4.92227
4.8973
4.87008
4.84166
4.8131
4.78548
4.75956
4.73566
4.71351
4.69227
4.67067
4.64705
4.61926
4.58435
4.53855
4.47985
4.41463
4.34895
524.642
517.014
4.33248
4.53437
4.69575
4.81579
4.90167
4.96282
5.0062
5.03599
5.05462
5.06361
5.06393
5.05627
5.04128
5.01962
4.99211
4.95975
4.92372
4.88541
4.84637
4.80839
4.77335
4.74281
4.71753
4.69731
4.68108
4.66696
4.65233
4.63392
4.60769
4.56927
4.5171
4.45734
4.39218
524.971
517.033
4.38212
4.60667
4.78084
4.90514
4.99064
5.04985
5.0909
5.11806
5.13356
5.1386
5.13386
5.11982
5.09699
5.06612
5.02825
4.98473
4.93716
4.88742
4.83766
4.79041
4.74834
4.7134
4.68632
4.66686
4.65395
4.64557
4.63872
4.62936
4.61252
4.58314
4.5395
4.48598
4.42204
525.291
517.051
4.42578
4.6687
4.85307
4.98101
5.06687
5.1253
5.16501
5.19028
5.20315
5.20458
5.19499
5.17467
5.14415
5.10434
5.05658
5.00262
4.94452
4.88462
4.82567
4.77092
4.7236
4.68545
4.6568
4.6373
4.62604
4.62124
4.61993
4.6178
4.60926
4.58852
4.55313
4.50532
4.4429
525.6
517.068
4.46398
4.72282
4.91622
5.04766
5.13422
5.19232
5.23116
5.25497
5.26562
5.2638
5.24972
5.2236
5.18607
5.13831
5.08199
5.01924
4.95251
4.88463
4.81898
4.75952
4.70937
4.66926
4.63901
4.61825
4.60643
4.6023
4.60344
4.60576
4.60338
4.58975
4.56137
4.51865
4.45859
525.891
517.084
4.49897
4.77224
4.97409
5.10929
5.19716
5.25547
5.29383
5.31645
5.32507
5.32019
5.30189
5.27041
5.22652
5.17165
5.10782
5.0375
4.96352
4.88918
4.81854
4.75625
4.70479
4.6638
4.63253
4.61046
4.59716
4.59194
4.59313
4.59727
4.59867
4.5903
4.56755
4.52942
4.47271
526.159
517.098
4.53081
4.81711
5.02663
5.16528
5.25438
5.31293
5.35089
5.37247
5.37925
5.37159
5.34945
5.31311
5.2635
5.2023
5.13184
5.05492
4.97479
4.89524
4.8211
4.7576
4.70602
4.66512
4.63366
4.61083
4.59623
4.58945
4.58948
4.59367
4.59685
4.59195
4.57352
4.5395
4.48677
526.407
517.112
4.56227
4.86116
5.07803
5.22007
5.31046
5.36931
5.4069
5.42741
5.43233
5.42188
5.39598
5.35496
5.29991
5.23275
5.15609
5.07303
4.98722
4.903
4.82595
4.76179
4.71066
4.67054
4.63967
4.61689
4.60162
4.59356
4.59213
4.59541
4.59898
4.59606
4.58079
4.55034
4.50167
526.634
517.126
4.59207
4.90238
5.12575
5.27071
5.36222
5.42135
5.45862
5.47821
5.48145
5.46847
5.43911
5.39377
5.33368
5.26097
5.1785
5.0897
4.99861
4.91005
4.83048
4.766
4.71572
4.67695
4.64743
4.62559
4.61057
4.60203
4.59959
4.60182
4.60505
4.60307
4.58997
4.56243
4.51741
526.847
517.141
4.62209
4.94352
5.17312
5.32081
5.41336
5.47273
5.50966
5.52828
5.52984
5.51434
5.48163
5.43215
5.36728
5.28932
5.20135
5.10707
5.01087
4.91805
4.83582
4.77076
4.72121
4.68392
4.65609
4.63574
4.62172
4.61348
4.61067
4.61215
4.61482
4.61311
4.60141
4.57608
4.53398
527.047
517.155
4.65108
4.98268
5.21781
5.36788
5.46135
5.521
5.5577
5.57553
5.57561
5.55785
5.52207
5.46878
5.39948
5.31663
5.2235
5.12402
5.02288
4.92588
4.84094
4.77517
4.72627
4.69053
4.66464
4.64622
4.63379
4.62658
4.62411
4.62536
4.6276
4.62588
4.61499
4.59122
4.55121
527.237
517.17
4.67997
5.02137
5.26177
5.41407
5.50843
5.56836
5.60485
5.62192
5.62059
5.60069
5.56205
5.50523
5.43185
5.34448
5.24652
5.14209
5.03616
4.93487
4.8468
4.7798
4.73121
4.69682
4.67291
4.65668
4.64628
4.64068
4.63921
4.64078
4.64289
4.64106
4.63058
4.60776
4.56897
527.419
517.185
4.70819
5.05872
5.30393
5.45825
5.55347
5.61375
5.65016
5.66663
5.66408
5.64227
5.60105
5.54104
5.46394
5.37242
5.26998
5.16089
5.0503
4.94473
4.85325
4.78458
4.73591
4.70266
4.68066
4.66672
4.65864
4.6551
4.65517
4.65762
4.65998
4.65811
4.64779
4.62545
4.58714
527.593
517.201
4.73599
5.09522
5.34497
5.50121
5.5973
5.65798
5.69436
5.7103
5.70664
5.6831
5.63954
5.57666
5.49621
5.40093
5.29436
5.18085
5.06571
4.95577
4.86047
4.78957
4.74037
4.70797
4.68781
4.67626
4.67075
4.66965
4.67175
4.67557
4.67857
4.6768
4.66649
4.64419
4.60565
527.761
517.216
4.7634
5.1309
5.38493
5.543
5.63998
5.70114
5.7376
5.75314
5.74852
5.72345
5.67782
5.61238
5.52896
5.43031
5.32
5.20238
5.08288
4.96849
4.86899
4.79521
4.74486
4.71284
4.69425
4.68504
4.68224
4.68387
4.68839
4.69403
4.69804
4.69659
4.68623
4.66368
4.62436
527.924
517.232
4.79017
5.1655
5.42359
5.58346
5.68137
5.74306
5.77965
5.79484
5.78935
5.76289
5.7154
5.64772
5.56169
5.46008
5.3464
5.22501
5.10136
4.98254
4.8786
4.80134
4.74929
4.71723
4.69996
4.69304
4.6931
4.69774
4.70505
4.71289
4.71826
4.7173
4.70686
4.6838
4.64321
528.081
517.248
4.8167
5.19959
5.46165
5.62335
5.7223
5.7846
5.82136
5.83624
5.82995
5.80225
5.75314
5.68352
5.59526
5.4911
5.37449
5.24971
5.12218
4.99895
4.89021
4.80871
4.75416
4.72139
4.70499
4.70014
4.70305
4.71089
4.7213
4.73174
4.73884
4.73864
4.72818
4.70445
4.66219
528.234
517.264
4.84243
5.23244
5.49834
5.66198
5.76212
5.82508
5.86195
5.87645
5.86937
5.84051
5.78997
5.71869
5.62855
5.52224
5.40312
5.27538
5.14429
5.01684
4.90327
4.81704
4.7594
4.72536
4.70942
4.70644
4.71219
4.72336
4.73713
4.75044
4.75954
4.76026
4.74981
4.72528
4.68108
528.384
517.28
4.86793
5.26485
5.53463
5.70048
5.80219
5.86586
5.90261
5.91658
5.90867
5.87877
5.82702
5.75439
5.66275
5.5547
5.43352
5.30322
5.1689
5.03738
4.91881
4.82713
4.76558
4.72951
4.71341
4.71192
4.72037
4.73496
4.75231
4.76883
4.78028
4.78221
4.77189
4.7465
4.70004
528.529
517.295
4.89247
5.29578
5.56929
5.73763
5.84091
5.90536
5.94207
5.95531
5.94657
5.91574
5.86298
5.78928
5.69647
5.58709
5.46428
5.33188
5.19475
5.05947
4.93603
4.83859
4.77262
4.73393
4.71715
4.71678
4.72777
4.74578
4.76683
4.78674
4.80073
4.80401
4.7939
4.7676
4.71875
528.671
517.311
4.9168
5.32622
5.60326
5.77402
5.87861
5.94391
5.98094
5.99364
5.98422
5.95263
5.89909
5.8246
5.73098
5.62066
5.49664
5.36256
5.223
5.0842
4.95589
4.85221
4.78113
4.73905
4.7209
4.72114
4.73439
4.75576
4.78063
4.80416
4.82094
4.82579
4.81601
4.7888
4.73738
528.81
517.327
4.94019
5.3553
5.63569
5.80859
5.91442
5.98061
6.01815
6.03082
6.02054
5.9882
5.93403
5.85901
5.76488
5.65401
5.52924
5.39396
5.25246
5.1106
4.97771
4.86776
4.79115
4.7451
4.72497
4.72531
4.74049
4.76509
4.7938
4.82105
4.84077
4.84734
4.83796
4.80987
4.75575
528.947
517.343
4.96335
5.384
5.668
5.84243
5.94931
6.01634
6.0544
6.06711
6.05621
6.02341
5.96887
5.89359
5.79928
5.68821
5.56307
5.42704
5.28404
5.13952
5.0023
4.88598
4.80334
4.75261
4.72975
4.72955
4.74621
4.77381
4.80631
4.83733
4.8601
4.86847
4.85962
4.83062
4.77379
529.081
517.359
4.98538
5.41093
5.69816
5.87415
5.98217
6.05018
6.08892
6.10187
6.09059
6.05738
6.00257
5.92718
5.83293
5.72199
5.5969
5.46059
5.31666
5.17006
5.02906
4.90673
4.81786
4.76197
4.73572
4.73433
4.75197
4.78226
4.81842
4.85324
4.87915
4.8895
4.88155
4.85133
4.79156
529.214
517.375
5.0073
5.43755
5.72783
5.90518
6.01423
6.08314
6.12257
6.13592
6.12465
6.09091
6.03589
5.9606
5.86666
5.75616
5.63148
5.49532
5.35093
5.20278
5.05854
4.93064
4.83531
4.77372
4.74335
4.74002
4.75801
4.79055
4.83013
4.86864
4.89769
4.91016
4.90323
4.87177
4.80893
529.345
517.391
5.0282
5.4626
5.75563
5.93426
6.04433
6.11417
6.15433
6.1681
6.15689
6.12284
6.06785
5.99288
5.89951
5.78974
5.66582
5.53022
5.3859
5.23684
5.09009
4.95738
4.85568
4.78814
4.75311
4.74715
4.76484
4.79914
4.84183
4.8839
4.91616
4.93112
4.925
4.8924
4.82607
529.475
517.408
5.04898
5.48733
5.78289
5.96264
6.07363
6.14437
6.18526
6.1995
6.18845
6.15418
6.09933
6.02482
5.93218
5.82334
5.70043
5.56573
5.4219
5.27246
5.12385
4.98704
4.87916
4.80551
4.76535
4.75608
4.77276
4.80823
4.85365
4.8991
4.93458
4.95215
4.94681
4.91305
4.84298
529.604
517.424
5.06888
5.51073
5.80848
5.9892
6.10109
6.17272
6.21436
6.22914
6.21835
6.18403
6.12947
6.05558
5.96387
5.85618
5.73453
5.60107
5.45816
5.30889
5.1591
5.01899
4.90541
4.8258
4.78028
4.76716
4.78218
4.81822
4.8659
4.91445
4.95301
4.97316
4.96856
4.93355
4.85957
529.731
517.44
5.08868
5.53388
5.8335
6.01501
6.12768
6.20016
6.24257
6.25791
6.24745
6.21317
6.159
6.08582
5.99512
5.88872
5.76853
5.63653
5.49485
5.3462
5.1958
5.05308
4.93433
4.84901
4.79801
4.78062
4.79335
4.82935
4.87881
4.93017
4.97168
4.99425
4.99026
4.95389
4.87582
529.858
517.455
5.10769
5.5561
5.85699
6.0391
6.15251
6.22584
6.26903
6.28501
6.27499
6.24094
6.18725
6.11489
6.02534
5.92038
5.80184
5.67155
5.53142
5.3838
5.23337
5.08875
4.96553
4.87495
4.81856
4.7966
4.80651
4.84183
4.89251
4.94619
4.99027
5.01517
5.01174
4.97393
4.89165
529.982
517.471
5.12616
5.57763
5.87964
6.0623
6.1764
6.25054
6.29449
6.31111
6.30161
6.26803
6.21475
6.14323
6.05493
5.95152
5.83475
5.70633
5.56798
5.42171
5.27171
5.12585
4.99886
4.90351
4.8419
4.81518
4.82178
4.85582
4.90714
4.96278
5.00938
5.0361
5.03299
4.99361
4.90701
530.105
517.487
5.14373
5.59792
5.90086
6.08393
6.19868
6.27358
6.31828
6.33553
6.32657
6.29352
6.24083
6.17035
6.08344
5.98174
5.8669
5.74053
5.60417
5.45955
5.31042
5.16391
5.03392
4.93443
4.86793
4.83641
4.83931
4.87149
4.92291
4.98009
5.02895
5.05707
5.05401
5.0129
4.92188
530.226
517.502
5.16086
5.61752
5.92118
6.10461
6.21996
6.29564
6.34108
6.35897
6.35055
6.31803
6.26599
6.19664
6.11122
6.01132
5.89852
5.77432
5.6401
5.49737
5.34944
5.20282
5.07053
4.9675
4.89651
4.86023
4.85912
4.88894
4.93989
4.99813
5.04887
5.07803
5.07477
5.03179
4.93625
530.345
517.517
5.17718
5.63594
5.94014
6.12383
6.23974
6.31615
6.36233
6.38087
6.37304
6.34112
6.28982
6.22163
6.13784
6.03989
5.92927
5.80738
5.67549
5.53487
5.38848
5.24224
5.10838
5.00246
4.92744
4.88656
4.88125
4.90822
4.95813
5.0169
5.06908
5.09893
5.09525
5.05024
4.95013
530.461
517.532
5.19292
5.65355
5.95815
6.14203
6.25846
6.33559
6.38248
6.40167
6.39442
6.36316
6.31269
6.24576
6.1636
6.06765
5.95929
5.83981
5.71036
5.57203
5.42746
5.28205
5.14726
5.03909
4.96052
4.91527
4.90563
4.92934
4.97765
5.0364
5.08954
5.11973
5.11541
5.06825
4.96353
530.575
517.547
5.20792
5.6701
5.97491
6.15891
6.27581
6.35362
6.4012
6.42102
6.41438
6.38381
6.33427
6.26869
6.18827
6.09437
5.98836
5.8714
5.74452
5.60865
5.46616
5.32198
5.18689
5.0771
4.99553
4.94619
4.9322
4.95229
4.99846
5.05662
5.11022
5.1404
5.13522
5.0858
4.97644
530.687
517.561
5.22225
5.68574
5.99065
6.17471
6.29205
6.37051
6.41878
6.43922
6.43319
6.40334
6.35478
6.29061
6.21198
6.12019
6.01654
5.90217
5.77795
5.64467
5.50448
5.36189
5.22708
5.11626
5.03221
4.97914
4.96084
4.97704
5.02057
5.07757
5.13113
5.16092
5.15467
5.10289
4.98889
530.796
517.575
5.23583
5.70036
6.00522
6.18927
6.30702
6.38611
6.43503
6.45609
6.45068
6.4216
6.37411
6.31141
6.23462
6.145
6.04377
5.932
5.81054
5.67998
5.54227
5.4016
5.26761
5.15633
5.07033
5.0139
4.99141
5.00352
5.04397
5.09926
5.15223
5.18127
5.17375
5.11951
5.00088
530.902
517.589
5.24871
5.71406
6.01876
6.20275
6.32087
6.40056
6.45013
6.4718
6.46702
6.43872
6.39235
6.33118
6.25626
6.16883
6.07004
5.96091
5.84221
5.7145
5.57943
5.44096
5.30826
5.19707
5.10965
5.05027
5.02377
5.03167
5.06864
5.12169
5.17357
5.20148
5.19247
5.13569
5.01244
531.007
517.602
5.26083
5.72676
6.03118
6.21507
6.33353
6.4138
6.46399
6.48627
6.48213
6.45467
6.4095
6.3499
6.2769
6.19168
6.09537
5.9889
5.87298
5.74808
5.61583
5.47982
5.34888
5.23828
5.14992
5.08803
5.05774
5.06138
5.09454
5.14487
5.19515
5.22156
5.21085
5.15144
5.02359
531.109
517.615
5.27226
5.73858
6.04261
6.22634
6.3451
6.42592
6.47672
6.49959
6.49609
6.46949
6.42558
6.3676
6.29655
6.21356
6.11972
6.01592
5.90281
5.78081
5.65143
5.51811
5.38931
5.27977
5.19096
5.12694
5.09313
5.09252
5.12163
5.16879
5.21699
5.24154
5.22893
5.16678
5.03437
531.209
517.628
5.28296
5.74945
6.053
6.23652
6.35555
6.4369
6.48828
6.51173
6.50889
6.4832
6.44062
6.38431
6.31524
6.23451
6.14314
6.042
5.93171
5.81262
5.68619
5.55574
5.42947
5.3214
5.23256
5.16684
5.12978
5.12497
5.14983
5.19344
5.2391
5.26145
5.24673
5.18177
5.04482
531.307
517.64
5.29302
5.7595
6.06245
6.2457
6.36495
6.44678
6.49872
6.52274
6.52055
6.49579
6.45461
6.40002
6.33297
6.2545
6.16561
6.06714
5.95965
5.84349
5.72006
5.59262
5.46921
5.36298
5.27452
5.20749
5.16749
5.15861
5.17907
5.2188
5.26152
5.28134
5.26431
5.19644
5.05498
531.403
517.651
5.30244
5.76872
6.07096
6.25387
6.3733
6.45558
6.50804
6.53261
6.53108
6.50729
6.46757
6.41477
6.34976
6.27358
6.18718
6.09135
5.98666
5.87343
5.75307
5.62878
5.50853
5.40446
5.31675
5.24878
5.20613
5.1933
5.20928
5.24486
5.28426
5.30125
5.28171
5.21086
5.06491
531.498
517.663
5.31125
5.77716
6.07858
6.26108
6.38063
6.46331
6.51627
6.54136
6.54049
6.51769
6.47951
6.42853
6.36561
6.29173
6.20782
6.11465
6.01275
5.90245
5.78519
5.66418
5.54736
5.44575
5.35912
5.29057
5.24558
5.22895
5.24041
5.27157
5.30734
5.32122
5.29901
5.22507
5.07464
531.591
517.674
5.31951
5.78486
6.08534
6.26737
6.38698
6.47003
6.52343
6.54902
6.54881
6.52703
6.49044
6.44133
6.38053
6.30897
6.22756
6.13702
6.0379
5.93054
5.8164
5.69876
5.5856
5.48668
5.40145
5.33268
5.28568
5.26545
5.2724
5.29903
5.3308
5.34131
5.31625
5.23915
5.08425
531.682
517.684
5.32719
5.79181
6.09125
6.27274
6.39236
6.47571
6.52953
6.55559
6.55602
6.5353
6.50036
6.45316
6.39451
6.32529
6.24638
6.15848
6.06213
5.95769
5.84669
5.7325
5.62319
5.52719
5.44363
5.37496
5.32628
5.3027
5.30522
5.32725
5.3547
5.36158
5.3335
5.25315
5.09379
531.772
517.694
5.33436
5.79809
6.09637
6.27724
6.39681
6.48042
6.53461
6.56111
6.56218
6.54254
6.5093
6.46405
6.40756
6.3407
6.26429
6.17902
6.08543
5.98391
5.87605
5.76538
5.66009
5.56718
5.48553
5.41727
5.36724
5.34059
5.33881
5.35619
5.37907
5.38209
5.35083
5.26714
5.1033
531.861
517.704
5.34101
5.80367
6.10068
6.28085
6.40033
6.48415
6.53866
6.56557
6.56729
6.54875
6.51725
6.47399
6.41968
6.35518
6.28128
6.19864
6.10779
6.00918
5.90448
5.79737
5.69622
5.60655
5.52701
5.45945
5.40842
5.37901
5.3731
5.38582
5.40396
5.40292
5.36833
5.28121
5.11285
531.948
517.714
5.3472
5.80864
6.10426
6.28366
6.40297
6.48696
6.54175
6.56905
6.57141
6.554
6.52427
6.48299
6.43087
6.36873
6.29732
6.21731
6.1292
6.03349
5.93195
5.82845
5.73154
5.64523
5.568
5.50141
5.44969
5.41782
5.40796
5.416
5.42932
5.42408
5.38604
5.29539
5.12248
532.035
517.723
5.35293
5.81296
6.10708
6.28565
6.40475
6.48885
6.54388
6.57154
6.57458
6.55836
6.53039
6.49106
6.44112
6.38133
6.31243
6.23503
6.14966
6.05685
5.95848
5.85863
5.76603
5.68317
5.60837
5.54296
5.49084
5.45683
5.44326
5.44672
5.45517
5.44562
5.40402
5.30976
5.13224
532.12
517.732
5.35821
5.81668
6.1092
6.28687
6.40571
6.48988
6.54511
6.57311
6.57686
6.56201
6.53565
6.49821
6.45041
6.39298
6.32658
6.25181
6.16918
6.07926
5.9841
5.88795
5.79971
5.72034
5.64809
5.58405
5.53181
5.49593
5.4789
5.47791
5.48148
5.46756
5.42231
5.32435
5.14215
532.204
517.741
5.36302
5.81975
6.11058
6.28731
6.40586
6.49007
6.54545
6.57375
6.57816
6.56465
6.53992
6.5044
6.45875
6.40367
6.33978
6.26764
6.18776
6.10077
6.00883
5.91646
5.83258
5.75673
5.6871
5.62458
5.57244
5.53497
5.51475
5.5095
5.50825
5.48993
5.44097
5.33922
5.15226
532.288
517.749
5.36735
5.82219
6.11126
6.28702
6.40527
6.48949
6.54501
6.5736
6.57867
6.56652
6.54341
6.50975
6.46623
6.41347
6.35207
6.28255
6.20544
6.12141
6.03277
5.94431
5.86474
5.79238
5.7254
5.6645
5.61267
5.57391
5.55074
5.54143
5.53543
5.51271
5.45999
5.35439
5.16258
532.371
517.758
5.37118
5.82397
6.11122
6.286
6.40392
6.48815
6.54379
6.57265
6.5784
6.56762
6.54611
6.51431
6.47286
6.4224
6.36347
6.29657
6.22224
6.14123
6.056
5.97163
5.89628
5.82735
5.763
5.70379
5.65242
5.6126
5.58676
5.57361
5.56301
5.53593
5.47943
5.36992
5.17315
532.454
517.766
5.37454
5.82516
6.11053
6.2843
6.40189
6.48612
6.54188
6.57101
6.57746
6.56808
6.54817
6.51819
6.47878
6.43055
6.37405
6.30975
6.23823
6.16029
6.0786
5.99854
5.92729
5.86171
5.79996
5.74248
5.69169
5.65102
5.62277
5.60598
5.59091
5.55954
5.49926
5.38578
5.18397
532.536
517.773
5.37747
5.82576
6.10919
6.28192
6.39917
6.48337
6.53925
6.56868
6.57586
6.56793
6.54964
6.52146
6.48405
6.438
6.38387
6.32214
6.2534
6.17857
6.10053
6.02497
5.95774
5.89544
5.83627
5.78053
5.73044
5.6891
5.65869
5.63853
5.61915
5.58356
5.51952
5.40202
5.19507
532.619
517.781
5.38003
5.82587
6.10727
6.27893
6.3958
6.47998
6.53595
6.56568
6.57363
6.56722
6.55059
6.52422
6.48876
6.44486
6.39303
6.33381
6.26783
6.19613
6.1218
6.05084
5.9876
5.92856
5.87195
5.81799
5.76868
5.72684
5.6945
5.67119
5.64762
5.60794
5.54016
5.41862
5.20643
532.701
517.788
5.38227
5.82549
6.10477
6.2753
6.39177
6.47589
6.53194
6.56199
6.57077
6.56595
6.55103
6.52648
6.49299
6.45118
6.40161
6.34485
6.28158
6.21299
6.14239
6.07609
6.0168
5.96102
5.90698
5.85483
5.80637
5.76418
5.73011
5.70391
5.67639
5.63269
5.56122
5.4356
5.21808
532.783
517.796
5.38424
5.82469
6.10174
6.27107
6.3871
6.47113
6.52724
6.5576
6.56724
6.56409
6.55094
6.52827
6.49675
6.45704
6.4097
6.35534
6.29476
6.22926
6.16242
6.10076
6.0454
5.99285
5.94137
5.89107
5.84355
5.80114
5.76555
5.73668
5.70539
5.65778
5.58265
5.45293
5.22999
532.866
517.803
5.38592
5.82341
6.09812
6.2662
6.38176
6.46568
6.52183
6.55251
6.56306
6.56161
6.55028
6.52953
6.50003
6.46241
6.4173
6.36534
6.30741
6.245
6.18195
6.1249
6.07341
6.02406
5.97515
5.92672
5.88021
5.83771
5.80079
5.76948
5.73462
5.68326
5.60449
5.47064
5.24217
532.949
517.81
5.38728
5.82163
6.09389
6.26069
6.37577
6.45956
6.51575
6.54676
6.55824
6.55855
6.54905
6.53024
6.50277
6.46729
6.42442
6.37487
6.31961
6.26032
6.20112
6.14859
6.1009
6.05471
6.00837
5.96184
5.91637
5.87385
5.8357
5.80218
5.76396
5.70899
5.62668
5.4887
5.25463
533.032
517.817
5.38823
5.81926
6.089
6.2545
6.3691
6.45278
6.50904
6.54043
6.55287
6.55493
6.54725
6.53037
6.50495
6.47162
6.43103
6.38392
6.33137
6.27528
6.22006
6.17188
6.12786
6.08476
6.04097
5.99637
5.95204
5.90963
5.87042
5.83491
5.7935
5.73506
5.64925
5.50709
5.26733
533.116
517.824
5.3887
5.81624
6.08341
6.24762
6.36177
6.44537
6.50174
6.53361
6.54714
6.5509
6.54496
6.52996
6.50657
6.47541
6.43713
6.39251
6.34277
6.28998
6.2389
6.19489
6.15438
6.11426
6.07295
6.03027
5.9871
5.94488
5.90475
5.86745
5.82307
5.76131
5.67207
5.52573
5.28021
533.2
517.83
5.38864
5.81253
6.0771
6.24002
6.35374
6.43732
6.49389
6.5264
6.54135
6.54657
6.54225
6.52905
6.50765
6.47865
6.44268
6.40061
6.35374
6.30439
6.25762
6.2176
6.18046
6.14322
6.10434
6.06357
6.02164
5.97974
5.93889
5.89998
5.85278
5.78783
5.69522
5.54468
5.29331
533.285
517.837
5.38807
5.80817
6.07008
6.23171
6.34503
6.42861
6.48543
6.51865
6.53508
6.54185
6.53918
6.52778
6.50833
6.48145
6.44779
6.40827
6.36431
6.31848
6.27612
6.23998
6.20608
6.17161
6.13508
6.0962
6.05552
6.01402
5.97257
5.93229
5.88249
5.81449
5.71857
5.56384
5.30659
533.37
517.842
5.38705
5.8032
6.06236
6.22266
6.33558
6.41923
6.47641
6.51051
6.52861
6.53703
6.53603
6.52637
6.50879
6.48395
6.45254
6.41554
6.37452
6.33226
6.29432
6.26195
6.23121
6.19942
6.16517
6.12814
6.08875
6.04775
6.00595
5.96441
5.91221
5.84132
5.74218
5.58326
5.32007
533.456
517.848
5.38572
5.79773
6.05399
6.21287
6.32534
6.40904
6.46666
6.50179
6.52177
6.53201
6.53279
6.52491
6.50919
6.48633
6.45711
6.42259
6.38449
6.34583
6.31228
6.28357
6.25587
6.22666
6.19463
6.15942
6.12133
6.08099
6.03919
5.99635
5.94184
5.86819
5.76591
5.60282
5.33368
533.542
517.854
5.38421
5.79181
6.04497
6.20229
6.31425
6.39799
6.4561
6.49245
6.51456
6.52684
6.52955
6.52354
6.50968
6.48877
6.46169
6.42961
6.39443
6.3594
6.33011
6.30491
6.28013
6.25341
6.22353
6.1901
6.15337
6.11381
6.0722
6.02817
5.97146
5.89517
5.78981
5.62258
5.34748
533.629
517.86
5.38251
5.78546
6.0353
6.19089
6.3022
6.38591
6.44454
6.48224
6.50673
6.5213
6.52617
6.52219
6.51028
6.49137
6.46643
6.4368
6.40455
6.37322
6.34798
6.3261
6.30408
6.27973
6.25189
6.2202
6.18481
6.14611
6.10482
6.05972
6.00094
5.9221
5.81374
5.6424
5.36142
533.715
517.865
5.38066
5.77871
6.02496
6.17864
6.28916
6.37274
6.43189
6.47107
6.49817
6.51528
6.52254
6.52078
6.51098
6.49416
6.47142
6.44428
6.41504
6.38752
6.36609
6.34729
6.32784
6.3057
6.27979
6.24977
6.21571
6.17792
6.13706
6.09103
6.03031
5.94907
5.83778
5.66238
5.37552
533.801
517.871
5.37861
5.77149
6.01391
6.16548
6.27506
6.3584
6.41803
6.4588
6.48869
6.50856
6.51844
6.51912
6.51163
6.49704
6.47663
6.45209
6.42598
6.40238
6.3845
6.36856
6.35149
6.33139
6.30728
6.27883
6.24605
6.20917
6.16882
6.12195
6.05943
5.97588
5.86174
5.68232
5.38962
533.888
517.877
5.37633
5.7638
6.00217
6.15144
6.25991
6.34288
6.40299
6.44543
6.47825
6.50103
6.51371
6.51705
6.51205
6.49989
6.48195
6.46014
6.43729
6.41769
6.40319
6.38993
6.37507
6.35686
6.33443
6.30743
6.27588
6.23991
6.20013
6.15253
6.08834
6.00262
5.88572
5.70232
5.40378
533.974
517.883
5.3738
5.75563
5.98973
6.13649
6.24368
6.32615
6.38675
6.43101
6.46683
6.49261
6.50825
6.51442
6.51212
6.50256
6.48727
6.46835
6.44889
6.43334
6.42207
6.41134
6.39855
6.38211
6.36123
6.3356
6.30519
6.27009
6.2309
6.18262
6.11687
6.02908
5.9095
5.72218
5.41784
534.06
517.889
5.37107
5.74705
5.97663
6.12067
6.22634
6.30816
6.3693
6.41576
6.45443
6.48324
6.50196
6.51114
6.51171
6.50494
6.49249
6.47664
6.46074
6.44921
6.44106
6.43276
6.42193
6.40716
6.38773
6.36338
6.33405
6.29981
6.26123
6.21236
6.14515
6.0554
5.93321
5.74202
5.43189
534.145
517.894
5.36821
5.73812
5.96294
6.10398
6.20788
6.2888
6.35039
6.39925
6.44081
6.47281
6.49479
6.50714
6.51077
6.507
6.49758
6.485
6.47288
6.46529
6.46014
6.45414
6.44516
6.43195
6.41388
6.3907
6.36237
6.32891
6.29094
6.24151
6.17294
6.08132
5.95661
5.7616
5.44574
534.23
517.9
5.36533
5.72894
5.94871
6.08649
6.18829
6.26803
6.32995
6.38124
6.42587
6.46126
6.48669
6.5024
6.50927
6.50867
6.5025
6.49344
6.48534
6.48157
6.47927
6.47547
6.46825
6.45653
6.43975
6.41772
6.39037
6.35769
6.32031
6.27033
6.20044
6.10704
5.97987
5.78107
5.45951
534.314
517.906
5.36248
5.71953
5.93397
6.06818
6.16755
6.24579
6.30788
6.36166
6.40952
6.44851
6.47759
6.49686
6.50715
6.50992
6.50722
6.50192
6.49809
6.49798
6.4984
6.49667
6.49112
6.48078
6.4652
6.4442
6.41769
6.38569
6.34894
6.2985
6.22739
6.13228
6.00271
5.80019
5.473
534.397
517.913
5.35963
5.70989
5.91875
6.04911
6.14568
6.22201
6.28403
6.34027
6.39146
6.43426
6.46725
6.4903
6.50423
6.51059
6.51157
6.51029
6.51092
6.51437
6.51742
6.5177
6.51374
6.50473
6.4903
6.47032
6.44472
6.4136
6.37723
6.32628
6.254
6.15726
6.02535
5.81916
5.48636
534.481
517.919
5.35666
5.69991
5.90302
6.02932
6.12275
6.19681
6.25847
6.31703
6.3716
6.41836
6.45545
6.48252
6.50033
6.51051
6.51541
6.51837
6.52356
6.53051
6.53615
6.5384
6.536
6.52829
6.51499
6.49602
6.47137
6.44125
6.40506
6.35348
6.28002
6.18169
6.04749
5.83768
5.49937
534.562
517.925
5.35343
5.68954
5.88682
6.00888
6.09888
6.17029
6.23129
6.29193
6.34979
6.40057
6.44193
6.47325
6.4952
6.50946
6.51855
6.52601
6.53582
6.54623
6.55445
6.55867
6.55784
6.55145
6.5393
6.52137
6.49774
6.46867
6.43259
6.38036
6.30574
6.20586
6.06941
5.85603
5.51224
534.643
517.931
5.34984
5.67875
5.87016
5.98785
6.07417
6.14267
6.20275
6.26521
6.32617
6.3809
6.42661
6.46234
6.48866
6.50726
6.52084
6.5331
6.5475
6.56133
6.57212
6.57832
6.57909
6.57403
6.56305
6.54619
6.52356
6.49553
6.45953
6.40662
6.33085
6.22945
6.09081
5.87391
5.52476
534.722
517.936
5.34597
5.66762
5.8531
5.96627
6.04869
6.11407
6.17309
6.23715
6.30098
6.35952
6.40953
6.44976
6.48061
6.50381
6.52218
6.53956
6.55847
6.57569
6.58905
6.59729
6.59971
6.59605
6.58629
6.57054
6.54896
6.522
6.48608
6.43251
6.35563
6.25276
6.11197
5.89161
5.53714
534.801
517.942
5.342
5.65633
5.83569
5.9441
6.02235
6.0845
6.14252
6.20803
6.27456
6.33674
6.39095
6.43563
6.47107
6.49903
6.52242
6.54518
6.56852
6.5891
6.60507
6.61539
6.61952
6.6173
6.6088
6.59419
6.57368
6.54778
6.51194
6.45773
6.37977
6.27547
6.13259
5.90883
5.54917
534.877
517.948
5.33825
5.64507
5.81801
5.92127
5.99492
6.05371
6.11112
6.1779
6.24711
6.31287
6.37119
6.42024
6.46026
6.49303
6.52158
6.54982
6.57751
6.60145
6.62008
6.63255
6.63848
6.6378
6.63066
6.61726
6.59788
6.57308
6.53735
6.48254
6.40356
6.29789
6.15295
5.92586
5.56106
534.955
517.954
5.33496
5.63402
5.80011
5.89769
5.96613
6.02112
6.07798
6.14629
6.21848
6.28802
6.35047
6.40386
6.44841
6.48599
6.51977
6.55341
6.58534
6.6126
6.63391
6.64861
6.65642
6.65736
6.65163
6.63949
6.62125
6.59753
6.56195
6.50658
6.42664
6.31966
6.17274
5.94239
5.57256
535.028
517.961
5.33228
5.62325
5.78208
5.87339
5.93588
5.98653
6.04274
6.11284
6.18843
6.26207
6.32884
6.38664
6.43573
6.47815
6.5172
6.55601
6.59201
6.62253
6.64654
6.66353
6.67333
6.67601
6.6718
6.66101
6.64398
6.62138
6.58599
6.53013
6.4493
6.34108
6.19223
5.95867
5.58385
535.103
517.968
5.3301
5.6127
5.76393
5.8484
5.90411
5.94963
6.00485
6.07685
6.15626
6.23447
6.30591
6.36835
6.42214
6.4695
6.51393
6.55762
6.59747
6.63114
6.65784
6.67716
6.68901
6.6935
6.6909
6.68153
6.66573
6.64429
6.60912
6.55282
6.47117
6.36177
6.21106
5.97438
5.59465
535.175
517.976
5.32822
5.60235
5.74583
5.823
5.8711
5.91059
5.96416
6.03791
6.12139
6.2046
6.28113
6.34852
6.40725
6.45976
6.5097
6.55802
6.60156
6.63834
6.66773
6.68945
6.70344
6.70986
6.70897
6.7011
6.68665
6.66643
6.63158
6.57494
6.49255
6.38204
6.22955
5.98979
5.60518
535.247
517.984
5.32635
5.59205
5.7278
5.79747
5.8372
5.86967
5.92067
5.99571
6.08328
6.17178
6.2538
6.32651
6.39048
6.44838
6.50394
6.55678
6.60398
6.64385
6.67597
6.70014
6.71637
6.72481
6.72576
6.71958
6.70681
6.68756
6.65299
6.59605
6.51301
6.40149
6.24728
6.00454
5.61514
535.316
517.992
5.32437
5.5818
5.70996
5.77197
5.80293
5.8275
5.87483
5.95045
6.04181
6.13567
6.22341
6.30177
6.37129
6.43486
6.49612
6.55349
6.60439
6.64746
6.68243
6.70921
6.72783
6.73848
6.74146
6.73717
6.72624
6.70799
6.6737
6.61652
6.53292
6.42045
6.26462
6.01895
5.62479
535.386
518
5.3222
5.57156
5.69231
5.74665
5.76849
5.78456
5.82732
5.90259
5.99717
6.09621
6.18979
6.27403
6.34939
6.41889
6.48587
6.54779
6.60247
6.64884
6.6868
6.71633
6.73749
6.75048
6.75564
6.75338
6.74438
6.72717
6.69321
6.63587
6.55178
6.43847
6.2811
6.03261
5.63382
535.453
518.007
5.31999
5.56142
5.67487
5.72149
5.734
5.74125
5.77866
5.85278
5.9499
6.05375
6.15308
6.2433
6.3247
6.4004
6.47301
6.53948
6.59804
6.64788
6.68903
6.72151
6.74542
6.76098
6.76851
6.76845
6.76152
6.74545
6.71191
6.65449
6.57001
6.45595
6.29712
6.04591
5.64251
535.522
518.014
5.31794
5.55144
5.65751
5.69624
5.69917
5.69735
5.72912
5.80158
5.90069
6.0089
6.11375
6.20988
6.29738
6.37942
6.45749
6.52847
6.59097
6.6444
6.68887
6.72446
6.75128
6.76956
6.7796
6.78187
6.7771
6.76226
6.72921
6.67181
6.58705
6.47233
6.31216
6.05832
5.65049
535.587
518.022
5.31631
5.54171
5.64019
5.67071
5.66368
5.65265
5.67877
5.74932
5.85003
5.96219
6.07222
6.17407
6.26761
6.35598
6.43935
6.51481
6.58133
6.63847
6.68644
6.72534
6.75528
6.77647
6.78923
6.79399
6.79151
6.77801
6.74558
6.68831
6.60336
6.48809
6.32666
6.07029
5.65807
535.654
518.03
5.31521
5.53224
5.62281
5.64465
5.62709
5.60652
5.62703
5.69582
5.79811
5.91399
6.02889
6.13623
6.23562
6.33014
6.41861
6.4985
6.56905
6.62998
6.68155
6.72388
6.75708
6.78132
6.7969
6.80426
6.80415
6.79208
6.76036
6.70333
6.61831
6.50259
6.34
6.08121
5.66477
535.718
518.04
5.31463
5.52307
5.60545
5.61815
5.58938
5.55871
5.57357
5.64082
5.7447
5.8642
5.9838
6.09641
6.20149
6.30194
6.39538
6.47965
6.55428
6.61911
6.67443
6.72036
6.75698
6.78445
6.80304
6.81315
6.81553
6.805
6.7741
6.71742
6.63244
6.51636
6.35271
6.09159
5.67096
535.785
518.049
5.31436
5.51405
5.58813
5.59133
5.55072
5.50925
5.51794
5.58348
5.6891
5.81236
5.93668
6.05449
6.16514
6.27126
6.36951
6.45813
6.53687
6.60565
6.6648
6.71443
6.75459
6.7854
6.80708
6.82002
6.82495
6.81604
6.78607
6.72985
6.64502
6.52869
6.36407
6.10073
5.67608
535.847
518.06
5.31423
5.50522
5.571
5.56451
5.51158
5.45857
5.46023
5.52356
5.63084
5.75791
5.88702
6.01008
6.12631
6.23791
6.34091
6.43392
6.51687
6.58974
6.6529
6.70641
6.75028
6.78461
6.80955
6.82547
6.83305
6.82587
6.79693
6.74128
6.6567
6.54021
6.37473
6.10926
5.68064
535.913
518.07
5.31409
5.49653
5.55413
5.53789
5.47238
5.40725
5.40078
5.46097
5.56948
5.70032
5.83433
5.96273
6.08459
6.2015
6.30922
6.40667
6.49391
6.571
6.63827
6.69577
6.74348
6.78143
6.80973
6.8287
6.839
6.83365
6.80584
6.75089
6.66667
6.55015
6.3839
6.11642
5.68402
535.974
518.08
5.31407
5.48811
5.53762
5.51157
5.43334
5.35592
5.34013
5.39609
5.5051
5.63942
5.77828
5.91207
6.03964
6.16183
6.27437
6.37642
6.46816
6.54966
6.62125
6.68297
6.73472
6.77648
6.80832
6.83047
6.84358
6.84014
6.81357
6.7594
6.67566
6.55919
6.39228
6.12289
5.68677
536.04
518.09
5.31436
5.48007
5.52147
5.48546
5.39426
5.30423
5.27856
5.32944
5.43814
5.5754
5.71885
5.85792
5.99113
6.11855
6.236
6.34279
6.43917
6.52524
6.60131
6.66736
6.72328
6.76897
6.80444
6.8299
6.84585
6.84444
6.81923
6.766
6.68285
6.56656
6.3991
6.12794
5.68833
536.101
518.101
5.31521
5.4726
5.50582
5.45962
5.35516
5.25227
5.21633
5.26144
5.36906
5.50863
5.65626
5.8004
5.93913
6.0718
6.1943
6.30605
6.40732
6.49819
6.57897