/*--------------------------------*- C++ -*----------------------------------*\
| =========                 |                                                 |
| \\      /  F ield         | OpenFOAM: The Open Source CFD Toolbox           |
|  \\    /   O peration     | Version:  v2006                                 |
|   \\  /    A nd           | Website:  www.openfoam.com                      |
|    \\/     M anipulation  |                                                 |
\*---------------------------------------------------------------------------*/
FoamFile
{
    version     2.0;
    format      ascii;
    class       surfaceScalarField;
    location    "96";
    object      phi;
}
// * * * * * * * * * * * * * * * * * * * * * * * * * * * * * * * * * * * * * //

dimensions      [1 0 -1 0 0 0 0];
oriented        oriented;


internalField   nonuniform List<scalar> 
228225
(
-2.12241e-06
-1.1421e-07
6.16271e-08
-1.64154e-06
-5.3745e-07
5.62118e-08
-8.98354e-07
-8.08976e-07
6.63406e-08
2.72385e-08
-1.00369e-06
7.8367e-08
1.07635e-06
-1.13842e-06
8.95877e-08
2.20359e-06
-1.22614e-06
9.919e-08
3.37247e-06
-1.27572e-06
1.07085e-07
4.55272e-06
-1.29342e-06
1.13385e-07
5.7185e-06
-1.28382e-06
1.18246e-07
6.84741e-06
-1.25053e-06
1.21808e-07
7.91992e-06
-1.19652e-06
1.24185e-07
8.91895e-06
-1.12437e-06
1.25467e-07
9.82969e-06
-1.03636e-06
1.2573e-07
1.06395e-05
-9.3475e-07
1.2504e-07
1.13378e-05
-8.21759e-07
1.2346e-07
1.19155e-05
-6.98779e-07
1.2107e-07
1.23651e-05
-5.67526e-07
1.17942e-07
1.26812e-05
-4.30383e-07
1.14154e-07
1.28607e-05
-2.89477e-07
1.09816e-07
1.29026e-05
-1.47091e-07
1.05034e-07
1.28114e-05
-8.97209e-09
9.99254e-08
1.25787e-05
1.37769e-07
9.45731e-08
1.22136e-05
2.75677e-07
8.90996e-08
1.17225e-05
4.07067e-07
8.35768e-08
1.11138e-05
5.30143e-07
7.80223e-08
1.03981e-05
6.42789e-07
7.23999e-08
9.58833e-06
7.42501e-07
6.6632e-08
8.69964e-06
8.27473e-07
6.05731e-08
7.74638e-06
8.98548e-07
5.40685e-08
6.73554e-06
9.63337e-07
4.6879e-08
5.64906e-06
1.04745e-06
3.84314e-08
4.4162e-06
1.20447e-06
2.78749e-08
2.93073e-06
1.46952e-06
1.56886e-08
1.24143e-06
1.68325e-06
6.34889e-09
1.23587e-06
6.69343e-09
6.55107e-08
-2.48788e-07
6.90848e-08
3.51424e-07
-9.33086e-07
1.09408e-07
8.35224e-07
-1.43117e-06
1.38659e-07
1.47741e-06
-1.80593e-06
1.60029e-07
2.24271e-06
-2.07916e-06
1.75545e-07
3.09535e-06
-2.26542e-06
1.86816e-07
4.00275e-06
-2.37792e-06
1.94977e-07
4.93673e-06
-2.42807e-06
2.00839e-07
5.87324e-06
-2.42514e-06
2.04987e-07
6.79169e-06
-2.37659e-06
2.0782e-07
7.67428e-06
-2.2885e-06
2.096e-07
8.50558e-06
-2.16594e-06
2.10493e-07
9.2722e-06
-2.01335e-06
2.10584e-07
9.96262e-06
-1.83484e-06
2.09876e-07
1.05671e-05
-1.63433e-06
2.08334e-07
1.10772e-05
-1.41486e-06
2.06151e-07
1.14855e-05
-1.17912e-06
2.03491e-07
1.17854e-05
-9.30512e-07
2.00354e-07
1.19716e-05
-6.72355e-07
1.96795e-07
1.20399e-05
-4.08127e-07
1.92843e-07
1.19848e-05
-1.42408e-07
1.88576e-07
1.18126e-05
1.25912e-07
1.84107e-07
1.15157e-05
3.92962e-07
1.79552e-07
1.10961e-05
6.51563e-07
1.75051e-07
1.05557e-05
8.99687e-07
1.70718e-07
9.89736e-06
1.13425e-06
1.66589e-07
9.12439e-06
1.35258e-06
1.6258e-07
8.23821e-06
1.55465e-06
1.58631e-07
7.23704e-06
1.74486e-06
1.54428e-07
6.11382e-06
1.93728e-06
1.48841e-07
4.85592e-06
2.16528e-06
1.39659e-07
3.46327e-06
2.47324e-06
1.23636e-07
2.00798e-06
2.8262e-06
9.87236e-08
6.97453e-07
2.92706e-06
6.74161e-08
1.90294e-06
3.18404e-08
1.67529e-07
-4.74318e-07
5.82623e-08
5.28552e-07
-1.401e-06
1.06287e-07
1.07749e-06
-2.1168e-06
1.36569e-07
1.76764e-06
-2.65144e-06
1.55443e-07
2.54594e-06
-3.02464e-06
1.67123e-07
3.36928e-06
-3.26359e-06
1.74746e-07
4.20691e-06
-3.3959e-06
1.80302e-07
5.03726e-06
-3.44332e-06
1.84884e-07
5.84442e-06
-3.42135e-06
1.8903e-07
6.61587e-06
-3.34106e-06
1.9298e-07
7.34115e-06
-3.21065e-06
1.96824e-07
8.01114e-06
-3.03655e-06
2.0057e-07
8.61762e-06
-2.82406e-06
2.04179e-07
9.15299e-06
-2.57782e-06
2.07581e-07
9.61013e-06
-2.30218e-06
2.1068e-07
9.98324e-06
-2.00136e-06
2.1336e-07
1.02679e-05
-1.67933e-06
2.15524e-07
1.04603e-05
-1.33998e-06
2.17088e-07
1.0557e-05
-9.87051e-07
2.17917e-07
1.05552e-05
-6.24263e-07
2.17949e-07
1.04511e-05
-2.5543e-07
2.17136e-07
1.02454e-05
1.16106e-07
2.15484e-07
9.93741e-06
4.87814e-07
2.13049e-07
9.52533e-06
8.53619e-07
2.0995e-07
9.00891e-06
1.20962e-06
2.06377e-07
8.38902e-06
1.55144e-06
2.02554e-07
7.66701e-06
1.87571e-06
1.98674e-07
6.84417e-06
2.18247e-06
1.94777e-07
5.91948e-06
2.47878e-06
1.90479e-07
4.88799e-06
2.78395e-06
1.84524e-07
3.74882e-06
3.13008e-06
1.74154e-07
2.53737e-06
3.52944e-06
1.55218e-07
1.37062e-06
3.8677e-06
1.25623e-07
4.24187e-07
3.78766e-06
8.67523e-08
2.29035e-06
3.84051e-08
1.7719e-07
-7.04692e-07
5.33248e-08
6.16667e-07
-1.93865e-06
9.76274e-08
1.24219e-06
-2.86303e-06
1.20588e-07
1.97167e-06
-3.51356e-06
1.32642e-07
2.739e-06
-3.93151e-06
1.39416e-07
3.50374e-06
-4.17237e-06
1.4387e-07
4.24563e-06
-4.2852e-06
1.47298e-07
4.95482e-06
-4.30276e-06
1.50171e-07
5.62564e-06
-4.24495e-06
1.52716e-07
6.25356e-06
-4.12422e-06
1.55157e-07
6.83396e-06
-3.94888e-06
1.57743e-07
7.36165e-06
-3.72506e-06
1.60713e-07
7.831e-06
-3.45776e-06
1.6426e-07
8.23626e-06
-3.15168e-06
1.68517e-07
8.57203e-06
-2.81158e-06
1.73556e-07
8.83365e-06
-2.44245e-06
1.79388e-07
9.01771e-06
-2.04944e-06
1.85958e-07
9.12208e-06
-1.63759e-06
1.93143e-07
9.14578e-06
-1.21161e-06
2.00754e-07
9.08847e-06
-7.75605e-07
2.08557e-07
8.94992e-06
-3.33222e-07
2.16248e-07
8.73004e-06
1.12416e-07
2.23472e-07
8.42782e-06
5.60086e-07
2.29852e-07
8.04187e-06
1.00445e-06
2.35009e-07
7.57075e-06
1.442e-06
2.38615e-07
7.01354e-06
1.86807e-06
2.40425e-07
6.37004e-06
2.27872e-06
2.40303e-07
5.64008e-06
2.67407e-06
2.38159e-07
4.82195e-06
3.063e-06
2.33698e-07
3.91384e-06
3.46607e-06
2.25789e-07
2.92683e-06
3.90535e-06
2.11628e-07
1.91581e-06
4.35322e-06
1.87335e-07
9.90707e-07
4.64115e-06
1.52146e-07
2.81399e-07
4.3914e-06
1.0658e-07
2.52701e-06
4.6427e-08
1.86312e-07
-9.28843e-07
3.7668e-08
6.22439e-07
-2.44105e-06
6.63545e-08
1.20569e-06
-3.52679e-06
8.01952e-08
1.85211e-06
-4.24788e-06
8.76891e-08
2.5054e-06
-4.67686e-06
9.20056e-08
3.13992e-06
-4.90086e-06
9.39432e-08
3.7485e-06
-4.98739e-06
9.35492e-08
4.33002e-06
-4.97545e-06
9.10694e-08
4.88352e-06
-4.88573e-06
8.71834e-08
5.4062e-06
-4.7297e-06
8.27184e-08
5.8931e-06
-4.51425e-06
7.8395e-08
6.3374e-06
-4.24422e-06
7.48069e-08
6.73114e-06
-3.92401e-06
7.24438e-08
7.06629e-06
-3.55863e-06
7.1716e-08
7.33588e-06
-3.15421e-06
7.29654e-08
7.53481e-06
-2.71793e-06
7.64635e-08
7.66038e-06
-2.25749e-06
8.23984e-08
7.71226e-06
-1.78042e-06
9.08673e-08
7.69206e-06
-1.29336e-06
1.01869e-07
7.60266e-06
-8.01577e-07
1.15295e-07
7.44719e-06
-3.08742e-07
1.30901e-07
7.22831e-06
1.82931e-07
1.48272e-07
6.94931e-06
6.72186e-07
1.668e-07
6.6099e-06
1.15808e-06
1.85669e-07
6.20855e-06
1.63936e-06
2.0387e-07
5.74216e-06
2.11408e-06
2.2026e-07
5.20632e-06
2.58075e-06
2.33666e-07
4.59563e-06
3.04161e-06
2.43004e-07
3.90453e-06
3.50679e-06
2.47162e-07
3.13255e-06
3.99351e-06
2.44418e-07
2.30013e-06
4.50595e-06
2.31803e-07
1.47118e-06
4.97611e-06
2.06273e-07
7.35739e-07
5.20893e-06
1.68229e-07
1.9587e-07
4.81478e-06
1.17542e-07
2.6759e-06
4.86893e-08
1.65105e-07
-1.1196e-06
2.55493e-08
5.42956e-07
-2.86555e-06
4.663e-08
1.03465e-06
-4.07833e-06
5.95399e-08
1.56781e-06
-4.84972e-06
6.8467e-08
2.10042e-06
-5.28336e-06
7.38122e-08
2.61793e-06
-5.49364e-06
7.52317e-08
3.11879e-06
-5.56112e-06
7.27936e-08
3.60355e-06
-5.52749e-06
6.71647e-08
4.07098e-06
-5.41255e-06
5.92591e-08
4.51722e-06
-5.22597e-06
4.99152e-08
4.93584e-06
-4.9728e-06
3.98425e-08
5.31832e-06
-4.65649e-06
2.97038e-08
5.65515e-06
-4.28108e-06
2.01596e-08
5.93722e-06
-3.85264e-06
1.1832e-08
6.15736e-06
-3.37976e-06
5.28832e-09
6.31114e-06
-2.87285e-06
1.02476e-09
6.39681e-06
-2.34319e-06
-9.07955e-11
6.41503e-06
-1.80155e-06
2.81655e-09
6.3697e-06
-1.2571e-06
8.97073e-09
6.26595e-06
-7.16663e-07
1.87327e-08
6.10909e-06
-1.8439e-07
3.24054e-08
5.90409e-06
3.37759e-07
5.00554e-08
5.6547e-06
8.50107e-07
7.13581e-08
5.36274e-06
1.35429e-06
9.56406e-08
5.0275e-06
1.85266e-06
1.21822e-07
4.64522e-06
2.34781e-06
1.48427e-07
4.20891e-06
2.84328e-06
1.73671e-07
3.70912e-06
3.34573e-06
1.95547e-07
3.13719e-06
3.86685e-06
2.11753e-07
2.49362e-06
4.41768e-06
2.19323e-07
1.80424e-06
4.98103e-06
2.14334e-07
1.13261e-06
5.45443e-06
1.93598e-07
5.49206e-07
5.63529e-06
1.57659e-07
1.3912e-07
5.11879e-06
1.0714e-07
2.77629e-06
4.04519e-08
1.4227e-07
-1.27911e-06
1.69329e-08
4.59391e-07
-3.21633e-06
3.36159e-08
8.66827e-07
-4.53228e-06
4.65416e-08
1.30669e-06
-5.34639e-06
5.66993e-08
1.74722e-06
-5.7873e-06
6.32494e-08
2.17845e-06
-5.99064e-06
6.56512e-08
2.5994e-06
-6.04618e-06
6.40327e-08
3.00972e-06
-5.99691e-06
5.90345e-08
3.40715e-06
-5.86146e-06
5.14274e-08
3.78703e-06
-5.64778e-06
4.1863e-08
4.14245e-06
-5.35913e-06
3.08277e-08
4.46487e-06
-4.99775e-06
1.8745e-08
4.74533e-06
-4.56776e-06
6.12955e-09
4.97544e-06
-4.07687e-06
-5.9698e-09
5.14871e-06
-3.53643e-06
-1.66684e-08
5.26194e-06
-2.96035e-06
-2.58102e-08
5.3148e-06
-2.36351e-06
-3.26205e-08
5.30971e-06
-1.76008e-06
-3.64749e-08
5.25131e-06
-1.16199e-06
-3.68068e-08
5.14562e-06
-5.7795e-07
-3.3124e-08
4.99704e-06
-1.09221e-08
-2.49812e-08
4.81602e-06
5.30607e-07
-1.19239e-08
4.60497e-06
1.05508e-06
5.99923e-09
4.36614e-06
1.56473e-06
2.83013e-08
4.0979e-06
2.06602e-06
5.47999e-08
3.79482e-06
2.56674e-06
8.40608e-08
3.44758e-06
3.07622e-06
1.1422e-07
3.04428e-06
3.60606e-06
1.42877e-07
2.575e-06
4.1691e-06
1.66962e-07
2.04131e-06
4.76886e-06
1.82508e-07
1.47009e-06
5.36765e-06
1.84705e-07
9.18097e-07
5.83717e-06
1.69617e-07
4.41257e-07
5.97528e-06
1.37528e-07
1.12419e-07
5.35846e-06
9.02542e-08
2.85949e-06
3.09489e-08
1.14532e-07
-1.40578e-06
1.18604e-08
3.74424e-07
-3.50405e-06
2.78099e-08
7.12816e-07
-4.91319e-06
4.25119e-08
1.08283e-06
-5.77108e-06
5.45498e-08
1.45787e-06
-6.22488e-06
6.23781e-08
1.82882e-06
-6.42726e-06
6.5531e-08
2.1938e-06
-6.47568e-06
6.44322e-08
2.55131e-06
-6.4144e-06
5.99164e-08
2.89828e-06
-6.26124e-06
5.27536e-08
3.22962e-06
-6.0227e-06
4.34966e-08
3.53859e-06
-5.7006e-06
3.24008e-08
3.8175e-06
-5.29645e-06
1.96849e-08
4.05866e-06
-4.81486e-06
5.82848e-09
4.25536e-06
-4.26522e-06
-8.4414e-09
4.40274e-06
-3.66131e-06
-2.25897e-08
4.49783e-06
-3.01977e-06
-3.57664e-08
4.53997e-06
-2.35847e-06
-4.72799e-08
4.53086e-06
-1.69452e-06
-5.65533e-08
4.47436e-06
-1.04263e-06
-6.29717e-08
4.37603e-06
-4.13923e-07
-6.58126e-08
4.2449e-06
1.84469e-07
-6.43718e-08
4.08363e-06
7.4978e-07
-5.80061e-08
3.90027e-06
1.28444e-06
-4.61016e-08
3.69777e-06
1.79536e-06
-2.82241e-08
3.4743e-06
2.2932e-06
-3.79841e-09
3.226e-06
2.79134e-06
2.36088e-08
2.9419e-06
3.30521e-06
5.50247e-08
2.60887e-06
3.85155e-06
8.74692e-08
2.21629e-06
4.4444e-06
1.17238e-07
1.76531e-06
5.08041e-06
1.39458e-07
1.27987e-06
5.70479e-06
1.48472e-07
8.07298e-07
6.17061e-06
1.39535e-07
3.94535e-07
6.27611e-06
1.1266e-07
1.05893e-07
5.57727e-06
7.09465e-08
2.94543e-06
2.17113e-08
9.9456e-08
-1.51609e-06
1.08181e-08
3.25464e-07
-3.7589e-06
2.85833e-08
6.22298e-07
-5.2553e-06
4.5122e-08
9.49735e-07
-6.15713e-06
5.85706e-08
1.28368e-06
-6.62656e-06
6.77058e-08
1.61501e-06
-6.831e-06
7.23495e-08
1.94109e-06
-6.87482e-06
7.29801e-08
2.25985e-06
-6.80362e-06
7.03651e-08
2.56803e-06
-6.6347e-06
6.51884e-08
2.86085e-06
-6.37348e-06
5.78819e-08
3.13234e-06
-6.02077e-06
4.8619e-08
3.37606e-06
-5.57776e-06
3.75167e-08
3.58598e-06
-5.04975e-06
2.48991e-08
3.75701e-06
-4.4476e-06
1.1278e-08
3.88499e-06
-3.78697e-06
-2.40979e-09
3.96923e-06
-3.08644e-06
-1.76628e-08
4.0084e-06
-2.36591e-06
-3.1819e-08
4.00324e-06
-1.6447e-06
-4.47532e-08
3.95639e-06
-9.3988e-07
-5.59881e-08
3.87218e-06
-2.64975e-07
-6.48267e-08
3.75641e-06
3.70541e-07
-7.03926e-08
3.61554e-06
9.62341e-07
-7.17789e-08
3.4556e-06
1.51242e-06
-6.81239e-08
3.28023e-06
2.02922e-06
-5.85837e-08
3.08912e-06
2.52667e-06
-4.2445e-08
2.87686e-06
3.0229e-06
-1.93792e-08
2.63352e-06
3.53901e-06
9.46325e-09
2.34747e-06
4.09673e-06
4.08244e-08
2.00742e-06
4.71166e-06
7.27844e-08
1.61307e-06
5.37542e-06
9.94257e-08
1.18381e-06
6.02017e-06
1.14097e-07
7.58659e-07
6.4851e-06
1.11138e-07
3.79723e-07
6.56567e-06
9.01446e-08
1.06959e-07
5.79601e-06
5.51916e-08
3.03863e-06
1.55624e-08
8.67782e-08
-1.61338e-06
1.0439e-08
2.89083e-07
-3.99081e-06
2.93624e-08
5.58203e-07
-5.57148e-06
4.69213e-08
8.57238e-07
-6.51729e-06
6.10701e-08
1.1635e-06
-7.0036e-06
7.07342e-08
1.46796e-06
-7.21145e-06
7.59219e-08
1.76746e-06
-7.25172e-06
7.73078e-08
2.05948e-06
-7.17152e-06
7.57672e-08
2.34054e-06
-6.98786e-06
7.19903e-08
2.60602e-06
-6.70541e-06
6.63535e-08
2.85055e-06
-6.32434e-06
5.89543e-08
3.06874e-06
-5.84584e-06
4.98283e-08
3.25581e-06
-5.27603e-06
3.91304e-08
3.40805e-06
-4.62704e-06
2.71025e-08
3.52277e-06
-3.91591e-06
1.41216e-08
3.59777e-06
-3.16272e-06
1.16823e-09
3.63402e-06
-2.38863e-06
-1.36567e-08
3.63136e-06
-1.61446e-06
-2.76937e-08
3.59137e-06
-8.59112e-07
-4.08774e-08
3.51743e-06
-1.3839e-07
-5.27555e-08
3.41455e-06
5.35841e-07
-6.25245e-08
3.28868e-06
1.15735e-06
-6.92394e-08
3.14543e-06
1.72747e-06
-7.19147e-08
2.98863e-06
2.25549e-06
-6.95823e-08
2.81867e-06
2.75774e-06
-6.12122e-08
2.6313e-06
3.25608e-06
-4.58911e-08
2.41723e-06
3.77621e-06
-2.31975e-08
2.16373e-06
4.3442e-06
5.99324e-09
1.86172e-06
4.97754e-06
3.61533e-08
1.50842e-06
5.66435e-06
6.4474e-08
1.11872e-06
6.32693e-06
8.31881e-08
7.25491e-07
6.79317e-06
8.5668e-08
3.684e-07
6.85284e-06
7.07323e-08
1.05887e-07
6.01699e-06
4.27358e-08
3.13492e-06
1.14317e-08
8.09909e-08
-1.70622e-06
1.17327e-08
2.7084e-07
-4.2139e-06
3.31891e-08
5.23369e-07
-5.87638e-06
5.22394e-08
8.03518e-07
-6.86475e-06
6.71669e-08
1.0899e-06
-7.36746e-06
7.7376e-08
1.37403e-06
-7.57879e-06
8.31462e-08
1.65277e-06
-7.61578e-06
8.52575e-08
1.92352e-06
-7.52695e-06
8.46233e-08
2.18284e-06
-7.3292e-06
8.19482e-08
2.42638e-06
-7.02664e-06
7.7626e-08
2.64932e-06
-6.61913e-06
7.17716e-08
2.84712e-06
-6.10813e-06
6.44004e-08
3.01606e-06
-5.50064e-06
5.55756e-08
3.15349e-06
-4.80993e-06
4.53882e-08
3.2577e-06
-4.05417e-06
3.39777e-08
3.32766e-06
-3.25433e-06
2.15737e-08
3.36281e-06
-2.43246e-06
8.60066e-09
3.36318e-06
-1.61021e-06
-4.71424e-09
3.33067e-06
-8.07655e-07
-1.90399e-08
3.26719e-06
-4.24339e-08
-3.25768e-08
3.17646e-06
6.71441e-07
-4.49752e-08
3.06345e-06
1.32562e-06
-5.53657e-08
2.93312e-06
1.92045e-06
-6.27449e-08
2.78912e-06
2.4655e-06
-6.60998e-08
2.6324e-06
2.97874e-06
-6.43663e-08
2.45987e-06
3.48491e-06
-5.63675e-08
2.26384e-06
4.0133e-06
-4.1103e-08
2.03282e-06
4.59351e-06
-1.83156e-08
1.75599e-06
5.24481e-06
9.60114e-09
1.43114e-06
5.9528e-06
3.65404e-08
1.06932e-06
6.63185e-06
5.72042e-08
6.99027e-07
7.09998e-06
6.40256e-08
3.58026e-07
7.13995e-06
5.47265e-08
1.03817e-07
6.23924e-06
3.31966e-08
3.2319e-06
8.6929e-09
7.6697e-08
-1.79596e-06
1.29378e-08
2.57393e-07
-4.43028e-06
3.56105e-08
4.97328e-07
-6.17136e-06
5.48963e-08
7.62442e-07
-7.19975e-06
6.97328e-08
1.03241e-06
-7.71743e-06
7.98886e-08
1.29934e-06
-7.93161e-06
8.58052e-08
1.56026e-06
-7.96508e-06
8.83243e-08
1.81258e-06
-7.86769e-06
8.83589e-08
2.05293e-06
-7.65622e-06
8.65866e-08
2.27724e-06
-7.33442e-06
8.3388e-08
2.48117e-06
-6.90205e-06
7.88903e-08
2.66086e-06
-6.36102e-06
7.31092e-08
2.81337e-06
-5.71931e-06
6.60679e-08
2.93683e-06
-4.99128e-06
5.77892e-08
3.03025e-06
-4.19599e-06
4.83054e-08
3.09319e-06
-3.35505e-06
3.76886e-08
3.12552e-06
-2.49098e-06
2.60886e-08
3.12738e-06
-1.62595e-06
1.37756e-08
3.09894e-06
-7.80779e-07
1.45403e-09
3.04304e-06
2.57935e-08
-1.24482e-08
2.96227e-06
7.77798e-07
-2.57092e-08
2.8604e-06
1.46522e-06
-3.78401e-08
2.74142e-06
2.08727e-06
-4.7962e-08
2.60845e-06
2.65346e-06
-5.50924e-08
2.46244e-06
3.18285e-06
-5.82042e-08
2.3011e-06
3.70227e-06
-5.60971e-08
2.11808e-06
4.24374e-06
-4.74873e-08
1.90357e-06
4.83952e-06
-3.153e-08
1.64689e-06
5.51012e-06
-8.60399e-09
1.34505e-06
6.23893e-06
1.58659e-08
1.00765e-06
6.93323e-06
3.63296e-08
6.59956e-07
7.40224e-06
4.59867e-08
3.37739e-07
7.4216e-06
4.14249e-08
9.72535e-08
6.45542e-06
2.55585e-08
3.32437e-06
6.64988e-09
7.34882e-08
-1.88418e-06
1.45468e-08
2.46778e-07
-4.64265e-06
3.89733e-08
4.76209e-07
-6.45974e-06
5.88959e-08
7.28398e-07
-7.52585e-06
7.3852e-08
9.84005e-07
-8.0571e-06
8.39835e-08
1.23587e-06
-8.27351e-06
8.99388e-08
1.48128e-06
-8.30323e-06
9.2651e-08
1.71773e-06
-8.19727e-06
9.30602e-08
1.94197e-06
-7.97239e-06
9.18478e-08
2.15018e-06
-7.63211e-06
8.94017e-08
2.33849e-06
-7.17629e-06
8.58662e-08
2.50364e-06
-6.60751e-06
8.12658e-08
2.64338e-06
-5.93473e-06
7.56022e-08
2.75647e-06
-5.1733e-06
6.88507e-08
2.84242e-06
-4.343e-06
6.09705e-08
2.90116e-06
-3.46581e-06
5.19348e-08
2.93275e-06
-2.56443e-06
4.17688e-08
2.9373e-06
-1.66118e-06
3.05795e-08
2.91514e-06
-7.77265e-07
1.85497e-08
2.86713e-06
6.76359e-08
6.06437e-09
2.79549e-06
8.56222e-07
-6.89166e-09
2.7035e-06
1.5769e-06
-1.98004e-08
2.59415e-06
2.22785e-06
-3.13368e-08
2.46991e-06
2.81835e-06
-4.07481e-08
2.3316e-06
3.36818e-06
-4.71178e-08
2.17736e-06
3.90575e-06
-4.9329e-08
2.00201e-06
4.46511e-06
-4.60693e-08
1.79732e-06
5.08036e-06
-3.616e-08
1.55441e-06
5.77251e-06
-1.94213e-08
1.26877e-06
6.52245e-06
2.2856e-09
9.50935e-07
7.23082e-06
2.05679e-08
6.23242e-07
7.69897e-06
3.15197e-08
3.18786e-07
7.69635e-06
3.05654e-08
9.14979e-08
6.66455e-06
1.94192e-08
3.41265e-06
5.08513e-09
7.14171e-08
-1.97154e-06
1.57518e-08
2.38734e-07
-4.85101e-06
4.09294e-08
4.58615e-07
-6.74034e-06
6.06508e-08
6.98518e-07
-7.841e-06
7.51722e-08
9.40234e-07
-8.3839e-06
8.49899e-08
1.17737e-06
-8.60162e-06
9.08738e-08
1.40751e-06
-8.62723e-06
9.37598e-08
1.62828e-06
-8.5127e-06
9.45528e-08
1.83664e-06
-8.27474e-06
9.38992e-08
2.02906e-06
-7.9168e-06
9.21808e-08
2.20213e-06
-7.43901e-06
8.95598e-08
2.35316e-06
-6.8447e-06
8.60731e-08
2.48049e-06
-6.14386e-06
8.17177e-08
2.58342e-06
-5.35277e-06
7.64475e-08
2.6619e-06
-4.49176e-06
7.01783e-08
2.71617e-06
-3.583e-06
6.28128e-08
2.74648e-06
-2.64912e-06
5.42777e-08
2.75294e-06
-1.71231e-06
4.45602e-08
2.73569e-06
-7.9384e-07
3.37182e-08
2.69518e-06
8.61012e-08
2.19319e-08
2.63266e-06
9.09029e-07
9.59406e-09
2.54997e-06
1.66212e-06
-2.64406e-09
2.45009e-06
2.34263e-06
-1.50218e-08
2.33456e-06
2.95951e-06
-2.57504e-08
2.20385e-06
3.53301e-06
-3.42279e-08
2.05626e-06
4.09271e-06
-3.94664e-08
1.8874e-06
4.67415e-06
-4.02439e-08
1.69046e-06
5.31256e-06
-3.5289e-08
1.45832e-06
6.02867e-06
-2.39706e-08
1.18802e-06
6.80027e-06
-7.36775e-09
8.88435e-07
7.52144e-06
9.27959e-09
5.81054e-07
7.98671e-06
2.01944e-08
2.96017e-07
7.96053e-06
2.16967e-08
8.42691e-08
6.86321e-06
1.43306e-08
3.49499e-06
3.78141e-09
6.8594e-08
-2.05709e-06
1.68656e-08
2.29189e-07
-5.05461e-06
4.28666e-08
4.39579e-07
-7.01343e-06
6.25778e-08
6.68083e-07
-8.1464e-06
7.68002e-08
8.97438e-07
-8.69965e-06
8.63261e-08
1.1218e-06
-8.91812e-06
9.20674e-08
1.33891e-06
-8.93942e-06
9.50054e-08
1.54645e-06
-8.81635e-06
9.60371e-08
1.74153e-06
-8.56569e-06
9.57891e-08
1.9209e-06
-8.19089e-06
9.46341e-08
2.08161e-06
-7.69254e-06
9.27412e-08
2.22151e-06
-7.07484e-06
9.0156e-08
2.33946e-06
-6.34877e-06
8.68696e-08
2.43522e-06
-5.53144e-06
8.28198e-08
2.50907e-06
-4.64358e-06
7.78952e-08
2.56144e-06
-3.70741e-06
7.19564e-08
2.5926e-06
-2.74525e-06
6.4869e-08
2.60256e-06
-1.77891e-06
5.65416e-08
2.59113e-06
-8.29457e-07
4.69479e-08
2.55826e-06
8.26882e-08
3.61763e-08
2.50445e-06
9.38238e-07
2.44903e-08
2.43093e-06
1.72318e-06
1.23466e-08
2.33894e-06
2.43388e-06
6.30968e-10
2.23046e-06
3.07891e-06
-1.10382e-08
2.1054e-06
3.67883e-06
-2.08597e-08
1.96216e-06
4.26406e-06
-2.8189e-08
1.797e-06
4.87119e-06
-3.19475e-08
1.60441e-06
5.53604e-06
-3.09054e-08
1.37902e-06
6.27831e-06
-2.41952e-08
1.1197e-06
7.07205e-06
-1.23211e-08
8.34756e-07
7.80478e-06
1.93211e-09
5.44945e-07
8.26535e-06
1.17233e-08
2.77116e-07
8.21454e-06
1.46627e-08
7.87215e-08
7.05264e-06
1.02082e-08
3.57281e-06
2.74023e-09
6.70585e-08
-2.14187e-06
1.76301e-08
2.22566e-07
-5.25411e-06
4.38405e-08
4.24635e-07
-7.2787e-06
6.30592e-08
6.42447e-07
-8.44099e-06
7.66664e-08
8.59799e-07
-9.00283e-06
8.5751e-08
1.07153e-06
-9.22124e-06
9.13076e-08
1.27566e-06
-9.23792e-06
9.42969e-08
1.47002e-06
-9.10638e-06
9.55723e-08
1.6519e-06
-8.84339e-06
9.57281e-08
1.81839e-06
-8.4526e-06
9.51288e-08
1.96694e-06
-7.93514e-06
9.3954e-08
2.09586e-06
-7.29611e-06
9.22571e-08
2.2045e-06
-6.54753e-06
9.00278e-08
2.293e-06
-5.70722e-06
8.71943e-08
2.36198e-06
-4.79628e-06
8.36216e-08
2.41212e-06
-3.83677e-06
7.91308e-08
2.44379e-06
-2.85055e-06
7.35289e-08
2.45695e-06
-1.85882e-06
6.66491e-08
2.45113e-06
-8.82138e-07
5.83839e-08
2.42576e-06
5.9205e-08
4.87392e-08
2.38062e-06
9.45361e-07
3.78969e-08
2.31611e-06
1.76135e-06
2.62301e-08
2.23301e-06
2.50258e-06
1.42755e-08
2.13192e-06
3.17715e-06
2.74014e-09
2.01284e-06
3.80572e-06
-7.91477e-09
1.87418e-06
4.41933e-06
-1.67104e-08
1.71268e-06
5.05527e-06
-2.26544e-08
1.52392e-06
5.74939e-06
-2.46295e-08
1.30421e-06
6.51973e-06
-2.16886e-08
1.05423e-06
7.33607e-06
-1.3897e-08
7.83162e-07
8.07924e-06
-3.09889e-09
5.09747e-07
8.53362e-06
5.67666e-09
2.58439e-07
8.45745e-06
9.22341e-09
7.31285e-08
7.23226e-06
6.90979e-09
3.64585e-06
1.904e-09
6.43266e-08
-2.22458e-06
1.82377e-08
2.13922e-07
-5.44831e-06
4.4515e-08
4.0782e-07
-7.53592e-06
6.32292e-08
6.15909e-07
-8.72542e-06
7.6241e-08
8.22805e-07
-9.29471e-06
8.48831e-08
1.02381e-06
-9.51256e-06
9.02273e-08
1.21706e-06
-9.52447e-06
9.32245e-08
1.40046e-06
-9.38455e-06
9.46891e-08
1.57146e-06
-9.10966e-06
9.51827e-08
1.72743e-06
-8.70371e-06
9.50578e-08
1.86618e-06
-8.16847e-06
9.44985e-08
1.98645e-06
-7.51003e-06
9.35646e-08
2.08795e-06
-6.74136e-06
9.22454e-08
2.17118e-06
-5.88101e-06
9.04648e-08
2.23704e-06
-4.9503e-06
8.80792e-08
2.28636e-06
-3.97109e-06
8.4891e-08
2.31963e-06
-2.96458e-06
8.06713e-08
2.33668e-06
-1.95116e-06
7.51947e-08
2.33677e-06
-9.50614e-07
6.82779e-08
2.31883e-06
1.71985e-08
5.9839e-08
2.28186e-06
9.32259e-07
4.99678e-08
2.22547e-06
1.77867e-06
3.896e-08
2.14976e-06
2.55088e-06
2.72926e-08
2.05487e-06
3.25636e-06
1.55609e-08
1.9404e-06
3.91565e-06
4.44117e-09
1.80483e-06
4.56015e-06
-5.34605e-09
1.64543e-06
5.22754e-06
-1.29416e-08
1.45879e-06
5.95327e-06
-1.72723e-08
1.24274e-06
6.75322e-06
-1.73983e-08
9.99663e-07
7.59239e-06
-1.31021e-08
7.3989e-07
8.34498e-06
-5.67869e-09
4.8028e-07
8.79204e-06
1.7123e-09
2.43098e-07
8.69021e-06
5.22854e-09
6.87453e-08
7.40341e-06
4.40577e-09
3.71511e-06
1.29364e-09
6.30499e-08
-2.30635e-06
1.85822e-08
2.08417e-07
-5.63831e-06
4.45427e-08
3.95462e-07
-7.78555e-06
6.24799e-08
5.94789e-07
-8.99958e-06
7.47243e-08
7.919e-07
-9.57477e-06
8.28385e-08
9.82659e-07
-9.79135e-06
8.79315e-08
1.16542e-06
-9.79823e-06
9.09122e-08
1.33822e-06
-9.64998e-06
9.25429e-08
1.4987e-06
-9.36357e-06
9.3351e-08
1.64445e-06
-8.94323e-06
9.36774e-08
1.77364e-06
-8.39146e-06
9.37113e-08
1.88533e-06
-7.71533e-06
9.35194e-08
1.97957e-06
-6.92879e-06
9.30905e-08
2.05719e-06
-6.05107e-06
9.23446e-08
2.11938e-06
-5.10371e-06
9.11286e-08
2.16724e-06
-4.10828e-06
8.9226e-08
2.20143e-06
-3.08524e-06
8.63759e-08
2.22181e-06
-2.05395e-06
8.23036e-08
2.22747e-06
-1.03313e-06
7.67591e-08
2.21682e-06
-4.18368e-08
6.95782e-08
2.18819e-06
9.00011e-07
6.07608e-08
2.1403e-06
1.77591e-06
5.05244e-08
2.07244e-06
2.57933e-06
3.92919e-08
1.98416e-06
3.3169e-06
2.76264e-08
1.87471e-06
4.00881e-06
1.61665e-08
1.74264e-06
4.68651e-06
5.61252e-09
1.58559e-06
5.38774e-06
-3.22517e-09
1.40106e-06
6.14716e-06
-9.40685e-09
1.18828e-06
6.97804e-06
-1.20162e-08
9.5118e-07
7.84027e-06
-1.06663e-08
7.01078e-07
8.60154e-06
-6.18108e-09
4.53765e-07
9.04053e-06
-6.78617e-10
2.29205e-07
8.91306e-06
2.49647e-09
6.47253e-08
7.56645e-06
2.62385e-09
3.78072e-06
8.89959e-10
6.08293e-08
-2.38608e-06
1.8766e-08
2.01314e-07
-5.82312e-06
4.41967e-08
3.81741e-07
-8.02733e-06
6.12576e-08
5.73273e-07
-9.2639e-06
7.26991e-08
7.62025e-07
-9.84387e-06
8.02745e-08
9.44192e-07
-1.00587e-05
8.51086e-08
1.11822e-06
-1.00604e-05
8.80575e-08
1.28225e-06
-9.90392e-06
8.9827e-08
1.43405e-06
-9.60637e-06
9.09074e-08
1.57146e-06
-9.17235e-06
9.16255e-08
1.69289e-06
-8.60515e-06
9.21734e-08
1.79769e-06
-7.91284e-06
9.26239e-08
1.88618e-06
-7.11034e-06
9.29694e-08
1.95943e-06
-6.21755e-06
9.31336e-08
2.01887e-06
-5.25621e-06
9.29663e-08
2.06582e-06
-4.24757e-06
9.22467e-08
2.10108e-06
-3.2113e-06
9.06964e-08
2.12459e-06
-2.16557e-06
8.80031e-08
2.13531e-06
-1.12781e-06
8.38556e-08
2.13129e-06
-1.15928e-07
7.80051e-08
2.11017e-06
8.50663e-07
7.03515e-08
2.06989e-06
1.75507e-06
6.10188e-08
2.00896e-06
2.58978e-06
5.03638e-08
1.92636e-06
3.36047e-06
3.89153e-08
1.82107e-06
4.08669e-06
2.72961e-08
1.69165e-06
4.79965e-06
1.61853e-08
1.53616e-06
5.5368e-06
6.34077e-09
1.353e-06
6.33165e-06
-1.3772e-09
1.14251e-06
7.19448e-06
-5.93111e-09
9.1009e-07
8.07985e-06
-7.03888e-09
6.67911e-07
8.84913e-06
-5.1341e-09
4.31185e-07
9.27954e-06
-1.80016e-09
2.17466e-07
9.12668e-06
8.79085e-10
6.13959e-08
7.72215e-06
1.54036e-09
3.84315e-06
7.21887e-10
5.97491e-08
-2.46471e-06
1.87392e-08
1.96889e-07
-6.00376e-06
4.33805e-08
3.72008e-07
-8.26196e-06
5.94102e-08
5.56773e-07
-9.51871e-06
6.99614e-08
7.37958e-07
-1.01021e-05
7.69526e-08
9.12184e-07
-1.03145e-05
8.14992e-08
1.07808e-06
-1.03108e-05
8.43912e-08
1.23391e-06
-1.01461e-05
8.62746e-08
1.37758e-06
-9.83774e-06
8.76021e-08
1.5071e-06
-9.39064e-06
8.86859e-08
1.62107e-06
-8.80893e-06
8.97189e-08
1.71908e-06
-8.10171e-06
9.07787e-08
1.8017e-06
-7.2849e-06
9.18588e-08
1.87025e-06
-6.37907e-06
9.28848e-08
1.92642e-06
-5.40619e-06
9.37085e-08
1.97183e-06
-4.38718e-06
9.41088e-08
2.0075e-06
-3.34087e-06
9.37988e-08
2.03352e-06
-2.28414e-06
9.24423e-08
2.04881e-06
-1.23289e-06
8.96825e-08
2.05115e-06
-2.03569e-07
8.51968e-08
2.03754e-06
7.85377e-07
7.87868e-08
2.00505e-06
1.71697e-06
7.04737e-08
1.95138e-06
2.5828e-06
6.05337e-08
1.87485e-06
3.38743e-06
4.94498e-08
1.77407e-06
4.14953e-06
3.78272e-08
1.6476e-06
4.89969e-06
2.63369e-08
1.49388e-06
5.6747e-06
1.57187e-08
1.31209e-06
6.5066e-06
6.79531e-09
1.10397e-06
7.40232e-06
2.7666e-10
8.75673e-07
8.31094e-06
-2.6975e-09
6.40199e-07
9.08777e-06
-2.91665e-09
4.1222e-07
9.50945e-06
-1.45354e-09
2.0772e-07
9.33165e-06
2.81622e-10
5.86943e-08
7.87115e-06
1.17987e-09
3.90274e-06
8.53606e-10
5.81319e-08
-2.54153e-06
1.85635e-08
1.91712e-07
-6.17966e-06
4.22037e-08
3.61901e-07
-8.48935e-06
5.7086e-08
5.4075e-07
-9.76435e-06
6.66981e-08
7.15508e-07
-1.035e-05
7.30936e-08
8.83047e-07
-1.05595e-05
7.73504e-08
1.04215e-06
-1.05501e-05
8.01764e-08
1.19119e-06
-1.03774e-05
8.21515e-08
1.32816e-06
-1.00585e-05
8.36895e-08
1.45118e-06
-9.59883e-06
8.50867e-08
1.559e-06
-9.00338e-06
8.6537e-08
1.65139e-06
-8.28232e-06
8.81236e-08
1.7291e-06
-7.45255e-06
8.98442e-08
1.79367e-06
-6.53536e-06
9.16313e-08
1.847e-06
-5.55295e-06
9.33447e-08
1.89091e-06
-4.52595e-06
9.47711e-08
1.92667e-06
-3.47234e-06
9.56253e-08
1.95454e-06
-2.40767e-06
9.55591e-08
1.9735e-06
-1.34613e-06
9.41808e-08
1.98115e-06
-3.02429e-07
9.1102e-08
1.97402e-06
7.06374e-07
8.60255e-08
1.94842e-06
1.66359e-06
7.88591e-08
1.90126e-06
2.56006e-06
6.97815e-08
1.83021e-06
3.39915e-06
5.92152e-08
1.73349e-06
4.19839e-06
4.77425e-08
1.60961e-06
4.98742e-06
3.6032e-08
1.45738e-06
5.80203e-06
2.48205e-08
1.27665e-06
6.67235e-06
1.4922e-08
1.07006e-06
7.60175e-06
7.16101e-09
8.45276e-07
8.53369e-06
2.13505e-09
6.15792e-07
9.3177e-06
-1.99051e-10
3.95471e-07
9.73057e-06
-3.40883e-10
1.99018e-07
9.52836e-06
4.74289e-10
5.62549e-08
8.01378e-06
1.26213e-09
3.95961e-06
1.10415e-09
5.73651e-08
-2.61724e-06
1.82237e-08
1.8853e-07
-6.35163e-06
4.06807e-08
3.54859e-07
-8.71011e-06
5.43247e-08
5.28772e-07
-1.00013e-05
6.29586e-08
6.97959e-07
-1.0588e-05
6.87437e-08
8.59633e-07
-1.07939e-05
7.27006e-08
1.0127e-06
-1.07787e-05
7.54474e-08
1.15561e-06
-1.05979e-05
7.74976e-08
1.28648e-06
-1.02687e-05
7.92263e-08
1.40348e-06
-9.79683e-06
8.09132e-08
1.50548e-06
-9.18823e-06
8.27514e-08
1.59239e-06
-8.45416e-06
8.48273e-08
1.66518e-06
-7.61258e-06
8.71407e-08
1.72559e-06
-6.68549e-06
8.96276e-08
1.77573e-06
-5.69535e-06
9.21553e-08
1.81769e-06
-4.66252e-06
9.45199e-08
1.85299e-06
-3.60418e-06
9.64454e-08
1.88213e-06
-2.53449e-06
9.75848e-08
1.90421e-06
-1.46584e-06
9.7529e-08
1.91674e-06
-4.10907e-07
9.58418e-08
1.91582e-06
6.15047e-07
9.21382e-08
1.89704e-06
1.59605e-06
8.62106e-08
1.85648e-06
2.52236e-06
7.81254e-08
1.79111e-06
3.39618e-06
6.82256e-08
1.6987e-06
4.23362e-06
5.70568e-08
1.57769e-06
5.06304e-06
4.52825e-08
1.42717e-06
5.91881e-06
3.3645e-08
1.24765e-06
6.82885e-06
2.2961e-08
1.04267e-06
7.79266e-06
1.40662e-08
8.20771e-07
8.74805e-06
7.6253e-09
5.95896e-07
9.53905e-06
3.75317e-09
3.8173e-07
9.94326e-06
1.91445e-09
1.91905e-07
9.71732e-06
1.58147e-09
5.42987e-08
8.15058e-06
1.91706e-09
4.01406e-06
1.54067e-09
5.63372e-08
-2.69147e-06
1.77547e-08
1.85133e-07
-6.51937e-06
3.88398e-08
3.48039e-07
-8.92425e-06
5.11384e-08
5.1779e-07
-1.02299e-05
5.87497e-08
6.82468e-07
-1.08167e-05
6.3915e-08
8.39562e-07
-1.10187e-05
6.75686e-08
9.8789e-07
-1.09974e-05
7.02224e-08
1.12585e-06
-1.08083e-05
7.23205e-08
1.25168e-06
-1.04688e-05
7.4202e-08
1.36362e-06
-9.98499e-06
7.61308e-08
1.46068e-06
-9.36367e-06
7.82999e-08
1.54288e-06
-8.61725e-06
8.08002e-08
1.61132e-06
-7.76474e-06
8.36345e-08
1.66787e-06
-6.82888e-06
8.67448e-08
1.71486e-06
-5.83243e-06
9.00071e-08
1.75456e-06
-4.79554e-06
9.32293e-08
1.78875e-06
-3.73462e-06
9.61478e-08
1.81822e-06
-2.66248e-06
9.84229e-08
1.84228e-06
-1.58964e-06
9.96398e-08
1.85848e-06
-5.26539e-07
9.93282e-08
1.86265e-06
5.13736e-07
9.70292e-08
1.84979e-06
1.51637e-06
9.24222e-08
1.81524e-06
2.47135e-06
8.54523e-08
1.75519e-06
3.37974e-06
7.63656e-08
1.66695e-06
4.25609e-06
6.56549e-08
1.54878e-06
5.12713e-06
5.39713e-08
1.40001e-06
6.02541e-06
4.20668e-08
1.22174e-06
6.97627e-06
3.0773e-08
1.01831e-06
7.97513e-06
2.09462e-08
7.9906e-07
8.95408e-06
1.33019e-08
5.7832e-07
9.75196e-06
8.05075e-09
3.6946e-07
1.01477e-05
4.82147e-09
1.85409e-07
9.89871e-06
3.35708e-09
5.24336e-08
8.28159e-06
3.04911e-09
4.06603e-06
2.13495e-09
5.58401e-08
-2.7646e-06
1.71574e-08
1.82998e-07
-6.68338e-06
3.67374e-08
3.43214e-07
-9.13221e-06