/*--------------------------------*- C++ -*----------------------------------*\
| =========                 |                                                 |
| \\      /  F ield         | OpenFOAM: The Open Source CFD Toolbox           |
|  \\    /   O peration     | Version:  v2006                                 |
|   \\  /    A nd           | Website:  www.openfoam.com                      |
|    \\/     M anipulation  |                                                 |
\*---------------------------------------------------------------------------*/
FoamFile
{
    version     2.0;
    format      ascii;
    class       volScalarField;
    location    "96";
    object      T;
}
// * * * * * * * * * * * * * * * * * * * * * * * * * * * * * * * * * * * * * //

dimensions      [0 0 0 1 0 0 0];


internalField   nonuniform List<scalar> 
78750
(
300.035
300.097
300.151
300.199
300.243
300.284
300.322
300.356
300.387
300.416
300.442
300.465
300.487
300.506
300.523
300.539
300.552
300.565
300.576
300.586
300.595
300.604
300.612
300.621
300.63
300.641
300.652
300.666
300.684
300.716
300.791
300.974
301.383
302.133
303.223
300.061
300.176
300.28
300.373
300.455
300.528
300.592
300.65
300.701
300.746
300.785
300.819
300.848
300.872
300.891
300.907
300.918
300.925
300.929
300.93
300.927
300.921
300.913
300.903
300.892
300.88
300.869
300.862
300.862
300.883
300.959
301.156
301.579
302.307
303.36
300.077
300.224
300.356
300.474
300.575
300.663
300.738
300.804
300.862
300.914
300.959
300.999
301.034
301.064
301.09
301.111
301.128
301.14
301.148
301.151
301.15
301.144
301.133
301.118
301.1
301.078
301.055
301.035
301.025
301.043
301.128
301.346
301.774
302.483
303.526
300.089
300.257
300.41
300.544
300.659
300.754
300.835
300.904
300.964
301.018
301.065
301.106
301.143
301.175
301.203
301.226
301.245
301.26
301.27
301.277
301.279
301.276
301.269
301.256
301.238
301.216
301.191
301.169
301.16
301.187
301.289
301.53
301.961
302.657
303.702
300.1
300.29
300.463
300.613
300.737
300.839
300.922
300.993
301.055
301.11
301.158
301.201
301.238
301.27
301.298
301.32
301.338
301.351
301.36
301.364
301.365
301.361
301.354
301.342
301.326
301.306
301.285
301.268
301.268
301.31
301.435
301.698
302.133
302.824
303.873
300.11
300.319
300.508
300.669
300.8
300.904
300.989
301.061
301.125
301.181
301.232
301.277
301.316
301.349
301.377
301.399
301.415
301.425
301.43
301.431
301.428
301.422
301.412
301.399
301.383
301.365
301.349
301.341
301.355
301.418
301.569
301.853
302.297
302.993
304.045
300.118
300.342
300.544
300.715
300.851
300.957
301.045
301.119
301.185
301.244
301.297
301.344
301.385
301.42
301.447
301.467
301.481
301.488
301.488
301.485
301.477
301.466
301.453
301.438
301.422
301.407
301.397
301.399
301.43
301.515
301.692
301.995
302.452
303.159
304.214
300.125
300.362
300.574
300.753
300.894
301.003
301.093
301.17
301.238
301.3
301.356
301.405
301.449
301.484
301.512
301.531
301.542
301.546
301.542
301.533
301.52
301.504
301.487
301.469
301.453
301.44
301.436
301.45
301.497
301.603
301.803
302.124
302.594
303.315
304.374
300.13
300.378
300.599
300.785
300.931
301.043
301.135
301.215
301.286
301.35
301.409
301.461
301.506
301.543
301.572
301.591
301.6
301.601
301.594
301.581
301.563
301.543
301.521
301.5
301.483
301.472
301.472
301.495
301.556
301.681
301.901
302.238
302.723
303.457
304.519
300.135
300.393
300.623
300.815
300.965
301.08
301.175
301.257
301.331
301.398
301.459
301.514
301.561
301.599
301.628
301.647
301.656
301.655
301.646
301.629
301.607
301.582
301.557
301.533
301.514
301.503
301.508
301.538
301.611
301.752
301.989
302.34
302.839
303.586
304.652
300.14
300.407
300.644
300.842
300.996
301.115
301.212
301.296
301.372
301.442
301.506
301.563
301.612
301.652
301.682
301.701
301.709
301.707
301.696
301.677
301.652
301.624
301.595
301.568
301.548
301.537
301.544
301.581
301.663
301.816
302.068
302.433
302.945
303.704
304.772
300.145
300.42
300.665
300.869
301.026
301.148
301.247
301.334
301.413
301.485
301.551
301.61
301.661
301.702
301.733
301.752
301.761
301.758
301.745
301.724
301.697
301.666
301.634
301.605
301.583
301.573
301.582
301.623
301.714
301.878
302.142
302.519
303.043
303.812
304.883
300.149
300.432
300.684
300.893
301.054
301.179
301.28
301.37
301.451
301.525
301.593
301.654
301.707
301.75
301.781
301.801
301.81
301.806
301.793
301.77
301.741
301.708
301.674
301.644
301.621
301.611
301.622
301.667
301.764
301.938
302.213
302.601
303.135
303.914
304.988
300.153
300.444
300.703
300.917
301.082
301.209
301.313
301.404
301.488
301.564
301.635
301.698
301.752
301.796
301.828
301.849
301.857
301.854
301.839
301.816
301.785
301.75
301.715
301.683
301.659
301.65
301.663
301.712
301.815
301.998
302.283
302.679
303.222
304.01
305.086
300.157
300.456
300.721
300.94
301.108
301.237
301.344
301.437
301.523
301.602
301.674
301.739
301.795
301.84
301.873
301.894
301.903
301.899
301.884
301.86
301.828
301.792
301.755
301.723
301.699
301.69
301.705
301.758
301.868
302.058
302.352
302.755
303.306
304.102
305.181
300.161
300.468
300.739
300.963
301.134
301.265
301.374
301.47
301.557
301.638
301.713
301.779
301.836
301.883
301.917
301.939
301.948
301.944
301.929
301.904
301.871
301.834
301.796
301.763
301.739
301.731
301.748
301.805
301.92
302.118
302.42
302.83
303.388
304.19
305.271
300.165
300.479
300.756
300.984
301.158
301.292
301.402
301.5
301.59
301.673
301.749
301.818
301.876
301.924
301.959
301.982
301.991
301.988
301.973
301.947
301.913
301.875
301.837
301.803
301.779
301.772
301.792
301.853
301.974
302.179
302.488
302.903
303.467
304.275
305.358
300.169
300.49
300.773
301.006
301.182
301.318
301.431
301.531
301.622
301.707
301.785
301.855
301.915
301.964
302.001
302.024
302.034
302.031
302.016
301.99
301.956
301.917
301.879
301.844
301.821
301.815
301.837
301.901
302.028
302.239
302.555
302.975
303.544
304.357
305.442
300.173
300.5
300.79
301.026
301.205
301.343
301.458
301.56
301.653
301.74
301.82
301.891
301.953
302.003
302.04
302.065
302.075
302.073
302.058
302.033
301.999
301.96
301.92
301.886
301.863
301.858
301.882
301.951
302.082
302.3
302.621
303.046
303.619
304.437
305.523
300.177
300.511
300.806
301.047
301.228
301.368
301.485
301.588
301.684
301.772
301.854
301.927
301.99
302.041
302.08
302.105
302.116
302.115
302.101
302.075
302.041
302.002
301.963
301.928
301.905
301.901
301.928
302
302.137
302.361
302.687
303.116
303.692
304.515
305.602
300.18
300.521
300.822
301.066
301.251
301.392
301.51
301.616
301.714
301.804
301.887
301.962
302.026
302.078
302.118
302.144
302.157
302.156
302.142
302.118
302.084
302.045
302.005
301.971
301.948
301.946
301.975
302.05
302.192
302.421
302.752
303.184
303.764
304.59
305.68
300.184
300.532
300.837
301.086
301.273
301.416
301.536
301.644
301.743
301.835
301.92
301.996
302.061
302.115
302.155
302.183
302.196
302.196
302.184
302.16
302.127
302.088
302.048
302.014
301.992
301.99
302.021
302.1
302.247
302.481
302.817
303.251
303.834
304.664
305.754
300.187
300.542
300.853
301.105
301.294
301.439
301.561
301.671
301.772
301.866
301.952
302.029
302.096
302.15
302.192
302.22
302.235
302.236
302.225
302.202
302.169
302.131
302.092
302.057
302.036
302.035
302.069
302.151
302.302
302.541
302.881
303.318
303.903
304.736
305.828
300.191
300.552
300.868
301.124
301.316
301.463
301.586
301.698
301.8
301.896
301.984
302.062
302.13
302.186
302.229
302.258
302.274
302.276
302.266
302.244
302.212
302.174
302.135
302.101
302.08
302.081
302.116
302.202
302.357
302.6
302.944
303.383
303.97
304.807
305.9
300.194
300.562
300.884
301.143
301.337
301.485
301.611
301.724
301.828
301.926
302.015
302.095
302.164
302.221
302.264
302.295
302.311
302.315
302.306
302.285
302.255
302.218
302.179
302.146
302.125
302.127
302.164
302.253
302.412
302.66
303.007
303.448
304.037
304.876
305.97
300.198
300.572
300.899
301.162
301.357
301.508
301.636
301.75
301.857
301.955
302.046
302.127
302.197
302.255
302.3
302.331
302.349
302.354
302.346
302.326
302.297
302.261
302.224
302.191
302.171
302.174
302.213
302.304
302.467
302.719
303.069
303.512
304.103
304.945
306.04
300.201
300.581
300.914
301.18
301.378
301.531
301.66
301.776
301.884
301.985
302.077
302.159
302.231
302.289
302.335
302.367
302.386
302.392
302.385
302.367
302.339
302.305
302.268
302.236
302.217
302.221
302.262
302.356
302.522
302.778
303.131
303.576
304.169
305.013
306.109
300.205
300.591
300.929
301.199
301.399
301.553
301.684
301.802
301.912
302.014
302.108
302.191
302.264
302.323
302.37
302.403
302.422
302.43
302.424
302.408
302.381
302.348
302.313
302.281
302.263
302.269
302.312
302.408
302.578
302.837
303.193
303.639
304.234
305.08
306.178
300.208
300.601
300.944
301.217
301.419
301.575
301.708
301.828
301.94
302.043
302.138
302.223
302.296
302.357
302.404
302.438
302.459
302.467
302.463
302.448
302.423
302.391
302.357
302.327
302.31
302.317
302.362
302.461
302.634
302.897
303.256
303.703
304.298
305.147
306.246
300.212
300.611
300.959
301.236
301.44
301.598
301.732
301.854
301.967
302.073
302.169
302.255
302.329
302.391
302.438
302.473
302.495
302.504
302.501
302.488
302.465
302.435
302.402
302.373
302.357
302.366
302.412
302.515
302.691
302.957
303.318
303.766
304.363
305.213
306.313
300.215
300.621
300.974
301.254
301.46
301.62
301.756
301.88
301.995
302.102
302.2
302.287
302.362
302.424
302.473
302.508
302.53
302.541
302.539
302.527
302.506
302.477
302.446
302.419
302.405
302.415
302.464
302.569
302.748
303.018
303.381
303.83
304.428
305.28
306.38
300.219
300.63
300.989
301.272
301.48
301.642
301.78
301.906
302.023
302.131
302.23
302.319
302.395
302.457
302.507
302.543
302.566
302.577
302.577
302.566
302.547
302.52
302.491
302.465
302.453
302.464
302.516
302.623
302.806
303.079
303.444
303.894
304.493
305.346
306.447
300.222
300.64
301.003
301.29
301.501
301.664
301.804
301.932
302.05
302.16
302.261
302.35
302.427
302.491
302.541
302.577
302.601
302.613
302.614
302.605
302.587
302.563
302.535
302.512
302.501
302.514
302.568
302.678
302.865
303.141
303.508
303.958
304.557
305.412
306.513
300.226
300.65
301.018
301.308
301.521
301.686
301.828
301.957
302.078
302.189
302.291
302.382
302.46
302.524
302.574
302.612
302.636
302.649
302.652
302.644
302.627
302.605
302.579
302.558
302.549
302.565
302.621
302.734
302.924
303.203
303.571
304.022
304.622
305.477
306.579
300.229
300.66
301.033
301.326
301.541
301.708
301.852
301.983
302.105
302.219
302.322
302.414
302.492
302.557
302.608
302.646
302.671
302.685
302.688
302.682
302.667
302.647
302.623
302.604
302.597
302.615
302.674
302.79
302.983
303.265
303.635
304.086
304.686
305.542
306.643
300.233
300.67
301.048
301.345
301.561
301.73
301.876
302.009
302.133
302.248
302.353
302.445
302.525
302.59
302.642
302.68
302.706
302.721
302.725
302.72
302.707
302.688
302.667
302.65
302.645
302.666
302.727
302.847
303.043
303.328
303.699
304.15
304.75
305.606
306.707
300.236
300.679
301.063
301.363
301.581
301.752
301.9
302.035
302.161
302.278
302.384
302.477
302.558
302.624
302.676
302.715
302.741
302.756
302.762
302.758
302.746
302.729
302.71
302.695
302.693
302.717
302.781
302.904
303.103
303.39
303.763
304.213
304.813
305.669
306.77
300.239
300.689
301.078
301.381
301.602
301.774
301.924
302.061
302.189
302.307
302.414
302.509
302.59
302.657
302.709
302.749
302.776
302.792
302.798
302.795
302.786
302.77
302.754
302.741
302.741
302.767
302.834
302.96
303.162
303.452
303.826
304.276
304.875
305.731
306.832
300.243
300.699
301.093
301.399
301.622
301.796
301.948
302.087
302.217
302.337
302.445
302.541
302.623
302.69
302.743
302.783
302.81
302.827
302.834
302.833
302.824
302.811
302.797
302.786
302.789
302.818
302.888
303.017
303.222
303.514
303.888
304.338
304.937
305.792
306.892
300.246
300.709
301.108
301.417
301.642
301.818
301.972
302.113
302.244
302.366
302.476
302.573
302.656
302.723
302.777
302.817
302.845
302.862
302.87
302.87
302.863
302.852
302.839
302.831
302.837
302.868
302.941
303.073
303.281
303.576
303.95
304.399
304.997
305.852
306.951
300.25
300.718
301.122
301.435
301.662
301.84
301.996
302.139
302.273
302.396
302.508
302.606
302.689
302.757
302.81
302.851
302.879
302.897
302.906
302.907
302.901
302.892
302.882
302.876
302.884
302.918
302.994
303.129
303.34
303.637
304.012
304.46
305.057
305.911
307.009
300.253
300.728
301.137
301.453
301.682
301.862
302.02
302.165
302.301
302.426
302.539
302.638
302.722
302.79
302.844
302.885
302.914
302.932
302.942
302.944
302.94
302.932
302.924
302.921
302.931
302.968
303.047
303.185
303.399
303.697
304.072
304.519
305.116
305.969
307.066
300.257
300.738
301.152
301.47
301.702
301.884
302.044
302.191
302.329
302.456
302.57
302.67
302.755
302.824
302.878
302.919
302.948
302.967
302.977
302.98
302.978
302.972
302.965
302.965
302.978
303.018
303.1
303.24
303.457
303.757
304.132
304.578
305.173
306.026
307.122
300.26
300.748
301.167
301.488
301.722
301.906
302.068
302.217
302.357
302.486
302.602
302.703
302.788
302.857
302.912
302.953
302.982
303.002
303.013
303.017
303.015
303.011
303.007
303.009
303.025
303.067
303.152
303.295
303.514
303.815
304.191
304.636
305.23
306.081
307.177
300.264
300.757
301.181
301.506
301.742
301.928
302.092
302.244
302.386
302.516
302.633
302.735
302.821
302.891
302.945
302.987
303.017
303.036
303.048
303.053
303.053
303.05
303.048
303.052
303.071
303.116
303.204
303.35
303.571
303.874
304.248
304.692
305.285
306.136
307.231
300.267
300.767
301.196
301.524
301.762
301.95
302.116
302.27
302.414
302.547
302.665
302.768
302.854
302.924
302.979
303.021
303.051
303.071
303.083
303.089
303.09
303.089
303.089
303.096
303.117
303.165
303.255
303.404
303.627
303.931
304.306
304.748
305.34
306.19
307.284
300.27
300.777
301.211
301.542
301.782
301.972
302.14
302.297
302.443
302.577
302.697
302.801
302.888
302.958
303.013
303.055
303.085
303.106
303.119
303.125
303.128
303.128
303.13
303.139
303.163
303.213
303.306
303.458
303.683
303.988
304.362
304.803
305.394
306.243
307.336
300.274
300.786
301.225
301.56
301.802
301.994
302.165
302.324
302.472
302.608
302.73
302.834
302.921
302.992
303.047
303.089
303.119
303.14
303.154
303.161
303.165
303.167
303.17
303.181
303.208
303.261
303.357
303.511
303.738
304.044
304.417
304.857
305.446
306.294
307.387
300.277
300.796
301.24
301.578
301.822
302.016
302.19
302.351
302.502
302.64
302.762
302.867
302.955
303.025
303.081
303.123
303.153
303.175
303.189
303.197
303.202
303.205
303.211
303.224
303.253
303.309
303.407
303.563
303.792
304.099
304.472
304.911
305.498
306.345
307.438
300.281
300.806
301.255
301.596
301.842
302.039
302.214
302.378
302.531
302.671
302.795
302.901
302.989
303.059
303.115
303.157
303.188
303.209
303.224
303.233
303.239
303.244
303.251
303.266
303.297
303.356
303.457
303.615
303.846
304.154
304.526
304.963
305.55
306.396
307.487
300.284
300.816
301.27
301.613
301.862
302.061
302.239
302.406
302.561
302.703
302.828
302.934
303.023
303.094
303.149
303.191
303.222
303.244
303.259
303.269
303.276
303.282
303.291
303.308
303.341
303.403
303.506
303.667
303.899
304.207
304.579
305.015
305.6
306.445
307.536
300.287
300.825
301.284
301.631
301.882
302.084
302.265
302.434
302.591
302.735
302.861
302.968
303.057
303.128
303.183
303.225
303.256
303.278
303.294
303.305
303.312
303.32
303.33
303.349
303.385
303.449
303.555
303.718
303.952
304.261
304.631
305.066
305.649
306.493
307.584
300.291
300.835
301.299
301.65
301.903
302.106
302.29
302.461
302.622
302.767
302.894
303.002
303.091
303.162
303.217
303.259
303.29
303.313
303.329
303.34
303.349
303.358
303.37
303.391
303.429
303.495
303.603
303.768
304.004
304.313
304.683
305.116
305.698
306.541
307.631
300.294
300.845
301.314
301.668
301.923
302.129
302.315
302.49
302.652
302.799
302.928
303.037
303.126
303.196
303.252
303.294
303.325
303.348
303.364
303.376
303.386
303.395
303.409
303.432
303.472
303.54
303.651
303.818
304.055
304.365
304.734
305.165
305.746
306.588
307.678
300.298
300.855
301.329
301.686
301.944
302.152
302.341
302.518
302.683
302.832
302.962
303.071
303.16
303.231
303.286
303.328
303.359
303.382
303.399
303.412
303.422
303.433
303.448
303.473
303.515
303.586
303.698
303.867
304.106
304.416
304.784
305.214
305.793
306.635
307.724
300.301
300.865
301.344
301.704
301.964
302.175
302.367
302.547
302.714
302.865
302.996
303.105
303.195
303.266
303.32
303.362
303.394
303.417
303.434
303.447
303.459
303.471
303.487
303.514
303.558
303.631
303.745
303.916
304.156
304.466
304.833
305.262
305.84
306.681
307.77
300.305
300.874
301.359
301.722
301.985
302.198
302.393
302.575
302.745
302.898
303.03
303.14
303.229
303.3
303.355
303.397
303.428
303.451
303.469
303.483
303.495
303.508
303.526
303.555
303.601
303.676
303.792
303.965
304.206
304.516
304.882
305.309
305.886
306.726
307.815
300.308
300.884
301.374
301.74
302.005
302.222
302.419
302.604
302.777
302.931
303.064
303.175
303.264
303.335
303.389
303.431
303.462
303.486
303.504
303.518
303.531
303.546
303.565
303.595
303.643
303.72
303.839
304.013
304.255
304.565
304.93
305.356
305.931
306.771
307.86
300.312
300.894
301.389
301.759
302.026
302.245
302.445
302.634
302.808
302.964
303.098
303.209
303.299
303.369
303.424
303.465
303.497
303.52
303.539
303.554
303.568
303.583
303.604
303.636
303.686
303.765
303.885
304.062
304.304
304.614
304.978
305.402
305.977
306.816
307.904
300.315
300.904
301.404
301.777
302.047
302.269
302.472
302.664
302.841
302.998
303.133
303.244
303.334
303.404
303.458
303.499
303.531
303.555
303.574
303.589
303.604
303.621
303.643
303.677
303.729
303.809
303.932
304.11
304.353
304.663
305.026
305.448
306.021
306.86
307.949
300.319
300.914
301.419
301.796
302.068
302.293
302.499
302.694
302.873
303.033
303.168
303.279
303.369
303.439
303.493
303.534
303.565
303.589
303.609
303.625
303.641
303.659
303.682
303.717
303.771
303.854
303.978
304.158
304.402
304.712
305.073
305.494
306.066
306.904
307.993
300.322
300.924
301.435
301.814
302.09
302.317
302.527
302.725
302.907
303.067
303.203
303.315
303.404
303.473
303.527
303.568
303.6
303.624
303.644
303.661
303.677
303.696
303.721
303.758
303.813
303.898
304.025
304.205
304.451
304.76
305.12
305.539
306.111
306.948
308.038
300.326
300.934
301.45
301.834
302.112
302.342
302.555
302.756
302.941
303.103
303.239
303.351
303.439
303.508
303.562
303.603
303.634
303.659
303.679
303.696
303.714
303.734
303.76
303.798
303.856
303.943
304.071
304.253
304.499
304.808
305.167
305.585
306.155
306.993
308.082
300.329
300.945
301.466
301.853
302.134
302.368
302.584
302.788
302.975
303.138
303.276
303.387
303.475
303.544
303.597
303.637
303.668
303.693
303.713
303.732
303.75
303.771
303.799
303.839
303.899
303.987
304.117
304.301
304.548
304.857
305.214
305.63
306.199
307.037
308.127
300.333
300.956
301.483
301.873
302.157
302.394
302.614
302.821
303.01
303.174
303.312
303.423
303.511
303.579
303.631
303.672
303.703
303.728
303.748
303.767
303.786
303.809
303.838
303.88
303.941
304.032
304.164
304.349
304.597
304.905
305.26
305.675
306.244
307.081
308.171
300.337
300.966
301.499
301.893
302.18
302.42
302.643
302.854
303.045
303.211
303.349
303.46
303.547
303.615
303.666
303.706
303.737
303.762
303.783
303.803
303.823
303.846
303.877
303.92
303.984
304.077
304.211
304.397
304.646
304.953
305.307
305.721
306.288
307.126
308.216
300.341
300.977
301.516
301.913
302.203
302.447
302.674
302.887
303.081
303.248
303.386
303.497
303.583
303.65
303.702
303.741
303.772
303.797
303.818
303.838
303.859
303.884
303.916
303.961
304.026
304.121
304.257
304.446
304.695
305.002
305.354
305.766
306.333
307.17
308.261
300.345
300.989
301.533
301.934
302.227
302.474
302.705
302.922
303.117
303.285
303.423
303.533
303.619
303.686
303.737
303.776
303.807
303.832
303.853
303.874
303.896
303.921
303.955
304.002
304.069
304.166
304.304
304.494
304.744
305.05
305.401
305.812
306.378
307.215
308.307
300.349
301
301.55
301.955
302.252
302.502
302.736
302.956
303.154
303.322
303.461
303.57
303.656
303.721
303.772
303.811
303.841
303.866
303.888
303.91
303.932
303.959
303.994
304.043
304.112
304.211
304.351
304.543
304.793
305.099
305.448
305.858
306.423
307.26
308.352
300.353
301.011
301.568
301.977
302.276
302.531
302.769
302.992
303.192
303.361
303.499
303.608
303.692
303.757
303.807
303.845
303.876
303.901
303.924
303.945
303.969
303.997
304.033
304.084
304.155
304.256
304.398
304.592
304.842
305.148
305.496
305.904
306.469
307.306
308.398
300.357
301.023
301.586
301.999
302.302
302.56
302.803
303.029
303.23
303.4
303.537
303.645
303.729
303.793
303.842
303.88
303.911
303.936
303.959
303.981
304.005
304.034
304.072
304.125
304.198
304.301
304.446
304.64
304.892
305.196
305.543
305.95
306.514
307.351
308.444
300.361
301.035
301.604
302.022
302.329
302.591
302.838
303.068
303.27
303.44
303.577
303.684
303.766
303.829
303.878
303.915
303.945
303.971
303.994
304.016
304.042
304.072
304.111
304.166
304.241
304.347
304.493
304.689
304.942
305.245
305.59
305.996
306.56
307.397
308.49
300.365
301.048
301.624
302.046
302.356
302.623
302.874
303.107
303.312
303.482
303.617
303.723
303.804
303.866
303.913
303.95
303.98
304.005
304.029
304.052
304.078
304.11
304.151
304.206
304.284
304.392
304.54
304.738
304.991
305.294
305.638
306.042
306.605
307.443
308.536
300.37
301.061
301.643
302.07
302.385
302.656
302.912
303.148
303.354
303.524
303.659
303.763
303.842
303.903
303.949
303.986
304.015
304.04
304.064
304.088
304.115
304.147
304.19
304.247
304.327
304.437
304.588
304.788
305.041
305.343
305.685
306.089
306.651
307.488
308.582
300.374
301.074
301.664
302.095
302.414
302.69
302.951
303.191
303.398
303.568
303.701
303.804
303.881
303.94
303.986
304.021
304.05
304.075
304.099
304.123
304.151
304.185
304.229
304.288
304.37
304.483
304.635
304.837
305.09
305.392
305.733
306.135
306.697
307.534
308.628
300.379
301.088
301.685
302.121
302.444
302.725
302.991
303.234
303.443
303.612
303.744
303.845
303.921
303.978
304.022
304.057
304.086
304.111
304.134
304.159
304.188
304.223
304.268
304.329
304.413
304.528
304.683
304.886
305.14
305.441
305.78
306.182
306.743
307.58
308.674
300.384
301.102
301.707
302.147
302.475
302.762
303.033
303.279
303.488
303.657
303.787
303.886
303.961
304.016
304.059
304.093
304.121
304.146
304.17
304.195
304.224
304.26
304.307
304.371
304.457
304.573
304.73
304.935
305.19
305.49
305.827
306.228
306.789
307.626
308.719
300.389
301.116
301.729
302.175
302.507
302.799
303.075
303.325
303.535
303.703
303.832
303.928
304.001
304.055
304.097
304.129
304.157
304.182
304.206
304.231
304.261
304.298
304.347
304.412
304.5
304.619
304.778
304.984
305.239
305.538
305.875
306.274
306.835
307.671
308.765
300.394
301.131
301.752
302.203
302.54
302.838
303.119
303.372
303.583
303.75
303.877
303.971
304.041
304.094
304.134
304.166
304.193
304.217
304.241
304.267
304.298
304.336
304.386
304.453
304.543
304.664
304.825
305.033
305.288
305.587
305.921
306.32
306.88
307.716
308.81
300.4
301.147
301.775
302.232
302.574
302.878
303.165
303.421
303.632
303.798
303.922
304.014
304.083
304.133
304.172
304.203
304.229
304.253
304.277
304.304
304.335
304.374
304.426
304.494
304.586
304.71
304.873
305.081
305.337
305.635
305.968
306.366
306.926
307.762
308.855
300.405
301.162
301.799
302.261
302.609
302.92
303.212
303.471
303.683
303.846
303.969
304.058
304.124
304.173
304.21
304.24
304.266
304.289
304.314
304.34
304.372
304.412
304.465
304.535
304.629
304.755
304.92
305.13
305.386
305.683
306.015
306.411
306.971
307.806
308.899
300.411
301.179
301.824
302.292
302.645
302.962
303.26
303.522
303.734
303.896
304.016
304.103
304.166
304.213
304.249
304.278
304.302
304.326
304.35
304.377
304.409
304.451
304.505
304.577
304.673
304.801
304.967
305.179
305.435
305.731
306.061
306.456
307.016
307.851
308.944
300.417
301.195
301.85
302.323
302.682
303.006
303.309
303.573
303.785
303.946
304.063
304.148
304.209
304.254
304.288
304.315
304.339
304.362
304.386
304.414
304.447
304.489
304.544
304.618
304.716
304.846
305.014
305.227
305.483
305.778
306.107
306.501
307.06
307.895
308.987
300.423
301.212
301.875
302.354
302.72
303.05
303.359
303.625
303.837
303.996
304.111
304.193
304.252
304.294
304.327
304.353
304.377
304.399
304.423
304.451
304.484
304.528
304.584
304.66
304.76
304.891
305.062
305.275
305.531
305.825
306.152
306.546
307.105
307.939
309.031
300.429
301.23
301.901
302.386
302.758
303.095
303.409
303.678
303.889
304.046
304.159
304.238
304.295
304.335
304.366
304.392
304.414
304.436
304.46
304.488
304.522
304.566
304.624
304.701
304.803
304.936
305.108
305.322
305.579
305.871
306.197
306.59
307.148
307.982
309.073
300.435
301.247
301.928
302.419
302.797
303.141
303.46
303.731
303.942
304.097
304.207
304.284
304.338
304.377
304.406
304.43
304.452
304.474
304.497
304.525
304.56
304.605
304.664
304.742
304.846
304.982
305.155
305.37
305.626
305.917
306.242
306.634
307.192
308.025
309.116
300.441
301.264
301.955
302.453
302.837
303.189
303.513
303.785
303.995
304.148
304.255
304.329
304.381
304.418
304.446
304.469
304.49
304.511
304.535
304.563
304.598
304.644
304.704
304.784
304.889
305.026
305.201
305.417
305.672
305.962
306.286
306.676
307.234
308.066
309.157
300.447
301.282
301.982
302.488
302.879
303.238
303.568
303.841
304.05
304.2
304.304
304.375
304.425
304.46
304.487
304.509
304.529
304.549
304.573
304.601
304.636
304.683
304.744
304.825
304.932
305.071
305.247
305.464
305.719
306.008
306.33
306.72
307.277
308.109
309.198
300.453
301.301
302.012
302.524
302.923
303.29
303.625
303.899
304.106
304.253
304.354
304.422
304.469
304.502
304.527
304.548
304.568
304.588
304.611
304.639
304.675
304.722
304.784
304.867
304.975
305.115
305.292
305.509
305.764
306.052
306.372
306.761
307.318
308.149
309.238
300.46
301.321
302.042
302.562
302.968
303.344
303.684
303.959
304.164
304.308
304.405
304.47
304.514
304.545
304.569
304.588
304.607
304.626
304.649
304.677
304.714
304.761
304.825
304.908
305.018
305.16
305.338
305.555
305.81
306.096
306.415
306.803
307.36
308.19
309.278
300.467
301.341
302.073
302.601
303.015
303.399
303.744
304.021
304.223
304.363
304.457
304.519
304.56
304.589
304.61
304.629
304.646
304.665
304.688
304.716
304.752
304.801
304.865
304.95
305.061
305.204
305.383
305.6
305.854
306.139
306.456
306.844
307.4
308.229
309.317
300.475
301.363
302.105
302.641
303.063
303.456
303.806
304.083
304.283
304.42
304.51
304.568
304.606
304.633
304.653
304.67
304.686
304.705
304.727
304.755
304.792
304.841
304.906
304.992
305.104
305.248
305.428
305.646
305.899
306.182
306.499
306.885
307.441
308.27
309.357
300.482
301.384
302.137
302.681
303.112
303.513
303.867
304.145
304.343
304.477
304.563
304.618
304.653
304.677
304.695
304.711
304.727
304.745
304.767
304.795
304.832
304.881
304.947
305.034
305.147
305.292
305.472
305.69
305.942
306.224
306.539
306.925
307.48
308.308
309.395
300.49
301.406
302.17
302.722
303.161
303.57
303.928
304.207
304.404
304.534
304.616
304.668
304.7
304.722
304.739
304.753
304.768
304.785
304.807
304.835
304.872
304.922
304.988
305.076
305.19
305.336
305.518
305.735
305.986
306.267
306.58
306.965
307.52
308.348
309.434
300.498
301.427
302.203
302.763
303.211
303.628
303.99
304.269
304.464
304.591
304.67
304.718
304.748
304.768
304.783
304.796
304.81
304.826
304.847
304.875
304.912
304.962
305.029
305.118
305.233
305.38
305.561
305.779
306.029
306.308
306.62
307.004
307.558
308.385
309.471
300.505
301.45
302.237
302.806
303.263
303.687
304.053
304.332
304.524
304.648
304.724
304.769
304.796
304.814
304.827
304.839
304.852
304.867
304.888
304.916
304.953
305.004
305.072
305.161
305.277
305.424
305.606
305.823
306.072
306.35
306.661
307.044
307.598
308.425
309.509
300.513
301.472
302.272
302.851
303.316
303.748
304.119
304.397
304.586
304.706
304.778
304.82
304.844
304.86
304.872
304.882
304.894
304.909
304.929
304.957
304.994
305.045
305.113
305.203
305.32
305.468
305.65
305.866
306.114
306.39
306.7
307.082
307.636
308.462
309.546
300.522
301.496
302.308
302.897
303.372
303.813
304.186
304.464
304.65
304.766
304.834
304.872
304.894
304.907
304.917
304.926
304.937
304.952
304.971
304.999
305.036
305.087
305.156
305.247
305.364
305.513
305.695
305.91
306.157
306.432
306.74
307.122
307.675
308.501
309.585
300.53
301.521
302.346
302.945
303.431
303.88
304.257
304.534
304.716
304.827
304.891
304.925
304.944
304.955
304.963
304.971
304.981
304.994
305.013
305.04
305.078
305.129
305.199
305.29
305.408
305.556
305.738
305.953
306.199
306.472
306.779
307.16
307.713
308.538
309.621
300.539
301.547
302.386
302.996
303.492
303.95
304.331
304.606
304.785
304.89
304.949
304.979
304.994
305.003
305.009
305.016
305.025
305.038
305.057
305.083
305.121
305.173
305.242
305.334
305.453
305.602
305.783
305.998
306.242
306.513
306.819
307.2
307.752
308.577
309.66
300.549
301.575
302.427
303.048
303.555
304.022
304.406
304.68
304.854
304.955
305.008
305.034
305.046
305.052
305.056
305.062
305.069
305.081
305.1
305.126
305.164
305.216
305.286
305.378
305.497
305.646
305.827
306.04
306.283
306.553
306.858
307.238
307.79
308.614
309.697
300.559
301.603
302.47
303.102
303.62
304.096
304.483
304.756
304.926
305.021
305.069
305.09
305.099
305.102
305.104
305.108
305.115
305.126
305.144
305.17
305.208
305.26
305.33
305.423
305.542
305.691
305.873
306.085
306.327
306.595
306.899
307.278
307.83
308.654
309.736
300.569
301.632
302.513
303.157
303.686
304.171
304.562
304.832
304.998
305.088
305.131
305.148
305.152
305.153
305.153
305.155
305.161
305.171
305.188
305.214
305.252
305.304
305.374
305.467
305.587
305.736
305.917
306.128
306.368
306.635
306.938
307.316
307.868
308.691
309.774
300.579
301.661
302.557
303.213
303.754
304.248
304.642
304.911
305.072
305.156
305.194
305.206
305.207
305.205
305.203
305.203
305.207
305.217
305.234
305.259
305.297
305.349
305.42
305.514
305.633
305.783
305.963
306.174
306.412
306.678
306.979
307.357
307.909
308.732
309.814
300.59
301.691
302.602
303.272
303.825
304.328
304.725
304.992
305.148
305.226
305.258
305.265
305.263
305.257
305.253
305.251
305.254
305.263
305.279
305.304
305.341
305.394
305.465
305.559
305.679
305.828
306.007
306.217
306.454
306.718
307.018
307.396
307.948
308.77
309.853
300.601
301.723
302.649
303.332
303.898
304.411
304.81
305.075
305.226
305.298
305.324
305.326
305.319
305.311
305.304
305.301
305.303