/*--------------------------------*- C++ -*----------------------------------*\
| =========                 |                                                 |
| \\      /  F ield         | OpenFOAM: The Open Source CFD Toolbox           |
|  \\    /   O peration     | Version:  v2006                                 |
|   \\  /    A nd           | Website:  www.openfoam.com                      |
|    \\/     M anipulation  |                                                 |
\*---------------------------------------------------------------------------*/
FoamFile
{
    version     2.0;
    format      ascii;
    class       volVectorField;
    location    "96";
    object      U;
}
// * * * * * * * * * * * * * * * * * * * * * * * * * * * * * * * * * * * * * //

dimensions      [0 1 -1 0 0 0 0];


internalField   nonuniform List<vector> 
78750
(
(-0.00328465 -0.00131214 0.00105062)
(-0.00345059 -0.0042619 0.00137579)
(-0.00254548 -0.00553165 0.00187133)
(-0.000727621 -0.00629622 0.00231318)
(0.000905897 -0.00678344 0.0026799)
(0.00269974 -0.00706034 0.00298182)
(0.00459117 -0.00716613 0.00322856)
(0.00653014 -0.00712518 0.00342944)
(0.00846717 -0.0069551 0.00359211)
(0.010362 -0.00667037 0.00372228)
(0.0121804 -0.00628369 0.00382408)
(0.0138922 -0.00580657 0.00390051)
(0.0154711 -0.00524972 0.0039538)
(0.0168944 -0.00462357 0.00398553)
(0.018143 -0.00393759 0.00399698)
(0.0191996 -0.00319699 0.00399009)
(0.0200514 -0.00241406 0.00396607)
(0.0206875 -0.0016021 0.00392608)
(0.0211008 -0.00077414 0.00387123)
(0.0212872 5.70205e-05 0.00380284)
(0.0212489 0.000877983 0.00372245)
(0.0209852 0.00167479 0.00363032)
(0.0204949 0.0024341 0.00352818)
(0.0197888 0.00314168 0.00341718)
(0.0188805 0.00378193 0.00329801)
(0.0177856 0.00433851 0.00317105)
(0.0165235 0.00479384 0.00303662)
(0.0151165 0.00512346 0.00289314)
(0.013592 0.00531091 0.00274006)
(0.0119748 0.00538614 0.00257578)
(0.0102657 0.0055141 0.00238517)
(0.00838639 0.0061003 0.00211982)
(0.00614153 0.00757636 0.00170614)
(0.0034804 0.00918653 0.00112426)
(0.000867787 0.00701456 0.000476601)
(-0.000121654 -0.0021656 0.00147317)
(0.000306717 -0.00908126 0.00270948)
(0.000923308 -0.0135968 0.00355173)
(0.00185137 -0.0168166 0.0041074)
(0.0030149 -0.0190718 0.00448196)
(0.00435879 -0.0205727 0.0047434)
(0.0058232 -0.021455 0.00493101)
(0.00735381 -0.0218145 0.00506885)
(0.00890656 -0.0217231 0.00517278)
(0.0104451 -0.0212385 0.00525309)
(0.0119384 -0.0204093 0.00531615)
(0.0133594 -0.0192777 0.00536559)
(0.0146847 -0.017882 0.0054026)
(0.0158926 -0.0162607 0.00542527)
(0.0169608 -0.0144532 0.00542903)
(0.0178841 -0.012482 0.00542104)
(0.0186507 -0.0103677 0.00540878)
(0.0192405 -0.00814609 0.00539018)
(0.0196452 -0.00584904 0.00536474)
(0.019858 -0.00350765 0.00533171)
(0.0198714 -0.0011526 0.00529084)
(0.0196853 0.00118552 0.0052418)
(0.0192994 0.00347576 0.00518472)
(0.0187095 0.0056879 0.00511952)
(0.0179171 0.00779089 0.0050458)
(0.0169233 0.00975213 0.00496201)
(0.0157414 0.0115362 0.00486386)
(0.0143793 0.0131339 0.00475499)
(0.0128246 0.0145783 0.00464182)
(0.0110775 0.0159918 0.00451434)
(0.00912906 0.0177292 0.00433672)
(0.00693276 0.020428 0.00401906)
(0.00452214 0.0242087 0.00341397)
(0.00217647 0.0263221 0.00241772)
(0.000277529 0.0180997 0.00102086)
(2.63173e-05 -0.00360709 0.00129033)
(0.000512712 -0.0119963 0.0026273)
(0.00127419 -0.0186455 0.00344315)
(0.0023171 -0.0238125 0.00390025)
(0.00354178 -0.0276218 0.00413627)
(0.00486895 -0.0302275 0.00425256)
(0.00624276 -0.0318088 0.00431334)
(0.00762363 -0.0325318 0.00435361)
(0.00898057 -0.0325326 0.00438972)
(0.010289 -0.0319183 0.004428)
(0.0115295 -0.0307744 0.00446996)
(0.0126859 -0.0291703 0.00451509)
(0.0137442 -0.0271649 0.00456239)
(0.0146911 -0.0248103 0.00461096)
(0.0155144 -0.022155 0.00466003)
(0.0162039 -0.0192461 0.00470848)
(0.0167505 -0.016124 0.00475641)
(0.0171474 -0.0128281 0.00480416)
(0.0173889 -0.00939766 0.00485151)
(0.0174698 -0.0058727 0.00489779)
(0.0173845 -0.00229341 0.00494173)
(0.0171303 0.00129922 0.00498144)
(0.0167072 0.00486156 0.00501423)
(0.0161137 0.0083498 0.00503716)
(0.0153477 0.0117207 0.00504779)
(0.0144093 0.0149343 0.00504458)
(0.0133006 0.0179618 0.0050272)
(0.0120253 0.0208055 0.00499707)
(0.0105866 0.0235285 0.00495348)
(0.00898294 0.0263222 0.00488528)
(0.0071939 0.0295743 0.00475011)
(0.00519664 0.0336426 0.00444115)
(0.00319055 0.037662 0.00381485)
(0.00139892 0.0378492 0.00273035)
(0.000132244 0.0237017 0.00111952)
(2.70472e-05 -0.0064943 0.00123255)
(0.000589276 -0.0184678 0.00249263)
(0.00148958 -0.0276625 0.00313791)
(0.00263698 -0.0343728 0.00343388)
(0.00388906 -0.03889 0.0035527)
(0.00515621 -0.0416446 0.00359338)
(0.00639836 -0.0430595 0.00360679)
(0.0075974 -0.0434474 0.00361446)
(0.00874001 -0.0430152 0.00362302)
(0.00981587 -0.0419009 0.00363313)
(0.010817 -0.0402017 0.00364377)
(0.0117354 -0.0379905 0.00365415)
(0.0125624 -0.0353264 0.00366455)
(0.0132884 -0.0322613 0.00367675)
(0.0139039 -0.0288431 0.00369407)
(0.0144006 -0.0251191 0.00372116)
(0.0147715 -0.021136 0.00376348)
(0.0150121 -0.0169397 0.00382657)
(0.0151197 -0.0125744 0.0039154)
(0.0150935 -0.00808203 0.00403359)
(0.0149331 -0.00350213 0.00418195)
(0.0146384 0.00112597 0.00435734)
(0.0142085 0.00575967 0.00455178)
(0.0136413 0.0103503 0.00475201)
(0.0129342 0.0148418 0.00494075)
(0.0120847 0.0191752 0.00509953)
(0.0110922 0.0233043 0.00521286)
(0.00995813 0.0272282 0.00527176)
(0.00868473 0.0310406 0.00527227)
(0.00726813 0.0349791 0.00520448)
(0.0056925 0.0393751 0.00502824)
(0.00396695 0.0441672 0.00465198)
(0.002355 0.0477229 0.00398664)
(0.000978928 0.0459199 0.00288443)
(6.3365e-05 0.0270781 0.00118501)
(4.9198e-05 -0.00903882 0.00092255)
(0.000613093 -0.0242905 0.00178517)
(0.00147695 -0.0355081 0.00216221)
(0.00251953 -0.0431839 0.00230531)
(0.00360568 -0.047925 0.0023431)
(0.00466697 -0.0505191 0.00233676)
(0.00568889 -0.0516238 0.00231394)
(0.00667138 -0.0516489 0.00228321)
(0.00761101 -0.0508272 0.0022449)
(0.00850275 -0.0492954 0.00219714)
(0.00934 -0.0471402 0.00213835)
(0.0101132 -0.0444234 0.00206837)
(0.0108098 -0.0411965 0.00198892)
(0.0114165 -0.0375112 0.00190407)
(0.0119201 -0.0334244 0.00182053)
(0.0123105 -0.0289993 0.00174766)
(0.012581 -0.024303 0.00169723)
(0.0127289 -0.0194013 0.00168299)
(0.0127556 -0.0143539 0.00171989)
(0.012665 -0.00920993 0.00182286)
(0.0124625 -0.00400669 0.00200504)
(0.012153 0.00122892 0.0022752)
(0.0117418 0.00647462 0.00263426)
(0.0112313 0.0117058 0.00307122)
(0.0106203 0.0168882 0.00356072)
(0.00990431 0.0219768 0.00406341)
(0.00907723 0.0269298 0.00453193)
(0.0081325 0.0317506 0.00492138)
(0.00706315 0.0365434 0.00519617)
(0.00585965 0.0415314 0.0053227)
(0.00451365 0.0468848 0.0052477)
(0.00307129 0.0520801 0.00489319)
(0.00178131 0.0550487 0.00421561)
(0.000708012 0.0515393 0.00307596)
(3.22899e-05 0.0291718 0.00124123)
(4.91004e-05 -0.0113464 0.000629703)
(0.000541296 -0.0294316 0.00122944)
(0.00127688 -0.0422079 0.00152706)
(0.00214709 -0.0504969 0.00167621)
(0.00303794 -0.0552741 0.00173959)
(0.00390086 -0.0576663 0.00175232)
(0.00473629 -0.0585053 0.00173533)
(0.00555013 -0.0582431 0.00169591)
(0.00633916 -0.0571047 0.00163497)
(0.00709705 -0.0552067 0.00155166)
(0.00781518 -0.052615 0.00144506)
(0.00848136 -0.0493752 0.0013148)
(0.00908046 -0.0455329 0.00116167)
(0.00959657 -0.0411476 0.000988199)
(0.0100156 -0.0362983 0.00079949)
(0.0103276 -0.0310808 0.000603779)
(0.0105272 -0.0255991 0.000412951)
(0.0106136 -0.0199543 0.00024272)
(0.0105908 -0.0142341 0.000112486)
(0.0104665 -0.00850576 4.50102e-05)
(0.0102497 -0.00281381 6.53239e-05)
(0.00994933 0.00281925 0.000198404)
(0.00957296 0.0083879 0.000465238)
(0.00912542 0.0138965 0.000876967)
(0.00860777 0.0193513 0.00142769)
(0.00801632 0.0247555 0.00208818)
(0.00734237 0.0301184 0.00280509)
(0.0065732 0.0354875 0.00350854)
(0.00569391 0.0409859 0.0041224)
(0.0046906 0.0467797 0.00456467)
(0.00356169 0.0528071 0.00473801)
(0.00238461 0.0581142 0.00454727)
(0.0013564 0.0604752 0.00396049)
(0.000513693 0.0554963 0.00287008)
(1.71972e-05 0.0305158 0.00109267)
(4.75751e-05 -0.0132801 0.000429399)
(0.000460806 -0.0336974 0.000882905)
(0.00107204 -0.047725 0.00115534)
(0.00179325 -0.0565184 0.00132078)
(0.00253 -0.0613681 0.0014051)
(0.00324537 -0.0636637 0.00143448)
(0.00394421 -0.064351 0.00142933)
(0.00463127 -0.0639 0.00139804)
(0.00530115 -0.0625232 0.00134284)
(0.00594634 -0.0603182 0.00126373)
(0.00655743 -0.0573304 0.00115989)
(0.00712184 -0.05359 0.00103011)
(0.00762467 -0.0491404 0.0008735)
(0.00805088 -0.0440565 0.0006905)
(0.00838777 -0.0384494 0.000483624)
(0.00862694 -0.0324542 0.000258013)
(0.0087653 -0.026217 2.2244e-05)
(0.00880467 -0.0198761 -0.000210905)
(0.00875114 -0.0135477 -0.000423957)
(0.00861356 -0.00731619 -0.000594863)
(0.00840146 -0.00123095 -0.000697519)
(0.00812683 0.00469112 -0.000703196)
(0.007801 0.010459 -0.000583158)
(0.00742889 0.0161045 -0.000313229)
(0.00701077 0.0216735 0.000119728)
(0.00654094 0.027221 0.000709816)
(0.0060073 0.032817 0.0014254)
(0.00539252 0.038564 0.00220711)
(0.00467735 0.0446021 0.00296934)
(0.00384641 0.051019 0.00359897)
(0.00290269 0.0575145 0.00395719)
(0.0019385 0.0628014 0.00392044)
(0.00109973 0.0646404 0.00345159)
(0.000410153 0.0584359 0.0024706)
(1.72722e-05 0.0315049 0.00088653)
(3.73644e-05 -0.0148183 0.000284859)
(0.000370623 -0.0371107 0.000660784)
(0.000874875 -0.0521781 0.000947419)
(0.00148068 -0.0614277 0.00114831)
(0.00210572 -0.0663805 0.00126237)
(0.00271737 -0.0686299 0.0013122)
(0.00332057 -0.0692116 0.00132017)
(0.00391806 -0.0686075 0.00129649)
(0.00450269 -0.067018 0.00124461)
(0.00506609 -0.0645211 0.00116539)
(0.00559877 -0.0611436 0.00105831)
(0.00608869 -0.0569043 0.000921992)
(0.00652262 -0.0518512 0.000754898)
(0.00688819 -0.0460796 0.000556184)
(0.00717545 -0.0397307 0.000326256)
(0.00737785 -0.0329777 6.75961e-05)
(0.00749233 -0.0260051 -0.000213888)
(0.00751964 -0.0189894 -0.000507209)
(0.00746421 -0.0120794 -0.000795077)
(0.00733426 -0.00538503 -0.00105366)
(0.00714185 0.00102756 -0.00125381)
(0.00689744 0.00713922 -0.00136369)
(0.00661068 0.012976 -0.00135134)
(0.00629053 0.0186049 -0.00118883)
(0.00593917 0.0241236 -0.000856609)
(0.00555171 0.0296509 -0.000349325)
(0.00511602 0.0353236 0.000316525)
(0.00461218 0.0412997 0.00109602)
(0.00401835 0.0477287 0.00190854)
(0.00331789 0.0546128 0.00263067)
(0.00251348 0.0614385 0.00310216)
(0.00169735 0.0666784 0.0031816)
(0.000978746 0.0681093 0.00283071)
(0.000374953 0.0609119 0.00199426)
(2.31728e-05 0.0324256 0.000671954)
(3.24615e-05 -0.0161242 0.000246715)
(0.000318892 -0.0401125 0.000645012)
(0.00076024 -0.0561975 0.000971507)
(0.00129655 -0.0659583 0.00120147)
(0.0018523 -0.071093 0.0013322)
(0.00239724 -0.0733683 0.00139172)
(0.0029359 -0.0739005 0.00140643)
(0.00346948 -0.0731872 0.00138918)
(0.00399007 -0.0714224 0.00134535)
(0.00448956 -0.0686713 0.00127724)
(0.00495928 -0.0649475 0.00118528)
(0.00538881 -0.0602643 0.00106846)
(0.0057673 -0.0546758 0.000924743)
(0.00608504 -0.048294 0.000751318)
(0.00633453 -0.0412829 0.000545117)
(0.00651145 -0.0338381 0.000303756)
(0.00661423 -0.0261721 2.70962e-05)
(0.00664254 -0.0184888 -0.000280576)
(0.00659889 -0.010966 -0.000607888)
(0.00648882 -0.00374164 -0.00093458)
(0.00632095 0.00309171 -0.0012313)
(0.00610592 0.00949473 -0.00146196)
(0.00585481 0.0154913 -0.00158818)
(0.00557637 0.0211683 -0.00157406)
(0.00527387 0.0266647 -0.00139078)
(0.00494286 0.0321588 -0.00102157)
(0.00457076 0.0378565 -0.000468464)
(0.0041393 0.0439747 0.000237783)
(0.00362756 0.0506811 0.0010247)
(0.00301739 0.0579138 0.00176719)
(0.0023079 0.0649956 0.00229525)
(0.00158455 0.0702233 0.00245702)
(0.000933792 0.071356 0.00221547)
(0.00037052 0.0633345 0.00153837)
(2.75544e-05 0.0334326 0.00048816)
(2.62211e-05 -0.0172389 0.000228349)
(0.000278985 -0.04272 0.000634985)
(0.000677775 -0.0597216 0.000976638)
(0.0011677 -0.0699524 0.00121882)
(0.00167702 -0.0752596 0.00135857)
(0.00217693 -0.0775615 0.00142509)
(0.00267158 -0.0780465 0.00144556)
(0.0031612 -0.0772273 0.00143361)
(0.00363734 -0.0752928 0.0013953)
(0.00409191 -0.0722974 0.00133363)
(0.00451674 -0.0682453 0.00124978)
(0.00490263 -0.0631483 0.00114345)
(0.00524064 -0.0570693 0.00101304)
(0.0055235 -0.0501363 0.0008558)
(0.00574589 -0.0425319 0.000668191)
(0.00590403 -0.0344732 0.000446717)
(0.00599669 -0.0261891 0.000189188)
(0.00602446 -0.0179049 -0.000103681)
(0.00598869 -0.0098225 -0.000425813)
(0.00589306 -0.00210477 -0.000763177)
(0.00574455 0.00513066 -0.00109206)
(0.00555258 0.0118265 -0.00137999)
(0.00532754 0.0180032 -0.00158933)
(0.0050781 0.0237612 -0.00168205)
(0.00480829 0.0292704 -0.00162381)
(0.00451521 0.0347553 -0.00138817)
(0.00418762 0.0404784 -0.000963302)
(0.00380719 0.0467082 -0.000363859)
(0.00335384 0.0536316 0.000351521)
(0.00280956 0.0611408 0.00106463)
(0.00216887 0.0684348 0.00160602)
(0.00150913 0.0736738 0.0018207)
(0.000902118 0.0745659 0.00167307)
(0.000364043 0.0657971 0.00114961)
(2.75974e-05 0.0345053 0.000345067)
(2.35327e-05 -0.0182959 0.000253982)
(0.000259994 -0.045265 0.000713454)
(0.000635175 -0.0632142 0.001087)
(0.00109559 -0.0739498 0.00134289)
(0.0015724 -0.0794601 0.00148686)
(0.00203894 -0.0818128 0.00155471)
(0.00249981 -0.0822692 0.00157646)
(0.00295482 -0.0813595 0.00156718)
(0.00339545 -0.0792714 0.00153401)
(0.00381391 -0.076053 0.00148087)
(0.00420265 -0.0717036 0.00140964)
(0.00455357 -0.0662365 0.0013203)
(0.00485933 -0.0597231 0.00121085)
(0.0051145 -0.0523036 0.00107735)
(0.0053156 -0.0441729 0.000914411)
(0.00546058 -0.0355594 0.00071612)
(0.0055481 -0.0267045 0.00047752)
(0.00557771 -0.0178453 0.000196503)
(0.00555072 -0.00919993 -0.000123987)
(0.00547018 -0.000957461 -0.000473336)
(0.00534075 0.00673608 -0.000830995)
(0.00516975 0.0137995 -0.00116676)
(0.00496606 0.020242 -0.00144417)
(0.00473772 0.0261693 -0.00162517)
(0.00448917 0.0317737 -0.00167376)
(0.00421898 0.0373165 -0.0015587)
(0.00391829 0.0431063 -0.00125884)
(0.003571 0.049457 -0.000775272)
(0.0031571 0.0565788 -0.000151533)
(0.00265793 0.0643341 0.000506713)
(0.0020657 0.0718278 0.00103721)
(0.00145094 0.077102 0.00128607)
(0.000874858 0.0777874 0.00121799)
(0.000355443 0.0683042 0.000833199)
(2.66846e-05 0.0356082 0.000236673)
(2.14003e-05 -0.0192864 0.000275564)
(0.000246572 -0.0476458 0.000757463)
(0.000603989 -0.0664599 0.00113405)
(0.0010411 -0.0776384 0.00138577)
(0.00149138 -0.0833149 0.00152588)
(0.00193007 -0.085699 0.00159209)
(0.00236219 -0.0861157 0.00161416)
(0.00278734 -0.0851096 0.00160715)
(0.00319709 -0.0828666 0.00157856)
(0.00358399 -0.0794292 0.00153289)
(0.00394103 -0.074794 0.00147271)
(0.00426103 -0.0689788 0.00139865)
(0.0045379 -0.0620661 0.0013091)
(0.00476759 -0.0542093 0.00120018)
(0.00494791 -0.0456156 0.00106608)
(0.0050779 -0.0365224 0.000899862)
(0.00515716 -0.0271781 0.000694643)
(0.0051856 -0.0178273 0.000445364)
(0.00516342 -0.00869808 0.000150951)
(0.00509276 7.3366e-06 -0.000182815)
(0.00497807 0.00812073 -0.000540509)
(0.00482483 0.0155405 -0.000895908)
(0.00463999 0.0222646 -0.00121468)
(0.0044302 0.0283997 -0.00145915)
(0.00419949 0.0341525 -0.00159223)
(0.00394709 0.0398113 -0.00157964)
(0.00366601 0.0457189 -0.00139374)
(0.00334274 0.0522229 -0.00102465)
(0.00295892 0.0595508 -0.000501341)
(0.00249583 0.0675404 8.58736e-05)
(0.00194455 0.0752152 0.000586956)
(0.00137086 0.0805134 0.000852941)
(0.000827254 0.0809838 0.000848179)
(0.000333639 0.07078 0.000581621)
(2.30797e-05 0.0366843 0.000155152)
(1.95972e-05 -0.0202773 0.000308297)
(0.000236408 -0.0500444 0.0008297)
(0.000579223 -0.0697369 0.0012215)
(0.00099643 -0.0813646 0.00147478)
(0.00142356 -0.0872116 0.00161193)
(0.00183785 -0.0896319 0.0016755)
(0.00224487 -0.0900141 0.0016966)
(0.00264418 -0.0889175 0.00169078)
(0.00302751 -0.0865281 0.00166608)
(0.00338776 -0.0828854 0.00162758)
(0.00371846 -0.0779862 0.00157838)
(0.00401328 -0.071854 0.00151931)
(0.00426729 -0.0645815 0.00144852)
(0.00447759 -0.0563327 0.00136142)
(0.00464297 -0.0473231 0.00125114)
(0.00476318 -0.0377954 0.00110948)
(0.00483827 -0.0280015 0.000928318)
(0.00486837 -0.0181903 0.000701278)
(0.00485375 -0.00859688 0.000425677)
(0.00479506 0.000563625 0.000104866)
(0.0046948 0.00910486 -0.000249025)
(0.00455758 0.0169061 -0.000613598)
(0.00438906 0.0239525 -0.000957887)
(0.00419456 0.0303486 -0.00124643)
(0.00397734 0.0363112 -0.001443)
(0.00373689 0.0421487 -0.0015125)
(0.00346757 0.0482307 -0.00142373)
(0.00315832 0.0549306 -0.00115891)
(0.00279353 0.0624868 -0.000734202)
(0.00235523 0.0707139 -0.000223811)
(0.00183487 0.0785598 0.000237505)
(0.00129567 0.0838693 0.000508399)
(0.000781851 0.0841139 0.000552772)
(0.000313452 0.0731863 0.000384217)
(2.09715e-05 0.037713 9.42244e-05)
(1.88986e-05 -0.0212368 0.000332402)
(0.000229577 -0.0523416 0.000869963)
(0.000559589 -0.0728405 0.001256)
(0.000958083 -0.0848592 0.001497)
(0.00136293 -0.0908413 0.00162417)
(0.00175352 -0.0932792 0.00168197)
(0.00213596 -0.093617 0.00170074)
(0.00250977 -0.0924251 0.0016957)
(0.002867 -0.0898883 0.0016751)
(0.00320101 -0.0860443 0.00164458)
(0.0035059 -0.0808921 0.00160787)
(0.00377621 -0.0744634 0.00156638)
(0.00400802 -0.0668627 0.00151851)
(0.00419943 -0.0582656 0.00145942)
(0.00435006 -0.048895 0.00138138)
(0.00446027 -0.0389969 0.00127465)
(0.00453054 -0.0288237 0.0011289)
(0.00456117 -0.0186237 0.000935175)
(0.00455228 -0.00863382 0.000688097)
(0.00450412 0.000923642 0.000388475)
(0.00441789 0.00984902 4.58902e-05)
(0.00429626 0.018007 -0.000319834)
(0.00414357 0.0253725 -0.000679988)
(0.0039642 0.0320471 -0.00100085)
(0.00376048 0.038254 -0.0012471)
(0.00353165 0.0443163 -0.0013836)
(0.00327279 0.0506224 -0.00137734)
(0.00297472 0.0575619 -0.00120535)
(0.00262469 0.0653747 -0.000873574)
(0.00220762 0.0738442 -0.000441151)
(0.00171605 0.0818464 -2.66556e-05)
(0.00121046 0.0871425 0.000238628)
(0.00072823 0.0871407 0.000318773)
(0.000288891 0.075486 0.000229305)
(1.80645e-05 0.0386802 4.8097e-05)
(1.73164e-05 -0.0221956 0.000357114)
(0.000220602 -0.0546341 0.000915448)
(0.000537199 -0.0759315 0.0013021)
(0.000917817 -0.0883327 0.00153548)
(0.00130249 -0.0944451 0.00165481)
(0.0016723 -0.0969 0.00170744)
(0.00203364 -0.0971951 0.00172381)
(0.00238583 -0.0959117 0.00171905)
(0.00272114 -0.0932351 0.00170171)
(0.0030333 -0.0892027 0.00167787)
(0.00331702 -0.0838173 0.00165173)
(0.00356767 -0.0771193 0.00162504)
(0.00378229 -0.0692238 0.00159624)
(0.00395984 -0.0603153 0.00156028)
(0.0041006 -0.0506221 0.00150896)
(0.00420534 -0.0403911 0.00143168)
(0.00427474 -0.0298732 0.00131687)
(0.00430902 -0.0193145 0.00115374)
(0.00430798 -0.00895184 0.000934726)
(0.00427115 0.000987497 0.000658126)
(0.00419878 0.0102923 0.000330974)
(0.00409224 0.0188132 -2.95009e-05)
(0.00395394 0.026515 -0.000397156)
(0.00378709 0.0334957 -0.000740127)
(0.00359382 0.039983 -0.00102433)
(0.0033731 0.0463116 -0.00121508)
(0.00312055 0.0528847 -0.00127853)
(0.00282852 0.0601015 -0.00118823)
(0.00248695 0.0681951 -0.000942028)
(0.002084 0.076912 -0.000585603)
(0.00161444 0.0850553 -0.000221427)
(0.00113698 0.0903158 3.06232e-05)
(0.000682652 0.0900528 0.000135531)
(0.00026915 0.077677 0.000109007)
(1.66002e-05 0.0395897 1.38997e-05)
(1.69931e-05 -0.0231307 0.000374862)
(0.000215231 -0.0568472 0.000938969)
(0.000520764 -0.078887 0.00131261)
(0.000884997 -0.0916261 0.0015288)
(0.00125026 -0.0978423 0.00163507)
(0.00159972 -0.100301 0.00167998)
(0.00194012 -0.100547 0.00169272)
(0.00227076 -0.0991698 0.00168791)
(0.00258424 -0.0963547 0.0016742)
(0.00287476 -0.0921402 0.00165815)
(0.00313759 -0.0865347 0.00164454)
(0.00336888 -0.0795888 0.00163559)
(0.00356651 -0.0714296 0.00162997)
(0.00373018 -0.0622504 0.00162246)
(0.00386077 -0.0522839 0.0016042)
(0.00395954 -0.0417762 0.00156338)
(0.00402749 -0.0309737 0.00148659)
(0.00406489 -0.0201165 0.00136068)
(0.00407127 -0.00943711 0.00117532)
(0.00404552 0.000837172 0.000926045)
(0.00398682 0.010488 0.000617421)
(0.00389527 0.0193543 0.000264801)
(0.00377207 0.0273909 -0.000107058)
(0.00361887 0.0346912 -0.000467395)
(0.00343671 0.0414851 -0.000782834)
(0.00322457 0.0481149 -0.00101918)
(0.00297852 0.0549936 -0.00114243)
(0.00269213 0.0625236 -0.00112403)
(0.00235762 0.0709236 -0.000955682)
(0.00196645 0.0798957 -0.000671552)
(0.00151673 0.0881691 -0.000358971)
(0.00106562 0.0933766 -0.000125942)
(0.000637969 0.0928424 -5.82135e-06)
(0.000249659 0.0797581 1.64263e-05)
(1.48911e-05 0.0404456 -1.13468e-05)
(1.54948e-05 -0.0240557 0.000390055)
(0.000206861 -0.0590272 0.000958093)
(0.000500735 -0.081787 0.00132009)
(0.000849638 -0.0948463 0.00152126)
(0.00119773 -0.101157 0.0016159)
(0.0015297 -0.103616 0.00165366)
(0.00185247 -0.103813 0.00166276)
(0.00216514 -0.102345 0.00165734)
(0.00246055 -0.0993978 0.00164615)
(0.00273329 -0.0950127 0.00163607)
(0.00297916 -0.0892044 0.00163235)
(0.003195 -0.0820336 0.00163764)
(0.00337939 -0.0736378 0.00165093)
(0.00353266 -0.0642183 0.00166726)
(0.0036562 -0.0540106 0.00167779)
(0.00375165 -0.0432593 0.00167039)
(0.00382021 -0.0322049 0.00163061)
(0.00386219 -0.0210798 0.00154342)
(0.00387683 -0.0101103 0.00139566)
(0.00386236 0.000478753 0.0011794)
(0.00381687 0.0104643 0.000895641)
(0.00373911 0.0196747 0.00055694)
(0.00362902 0.028054 0.000186374)
(0.00348722 0.0356898 -0.000186028)
(0.00331402 0.0428127 -0.000527117)
(0.00310814 0.0497713 -0.000802725)
(0.00286609 0.0569846 -0.000978589)
(0.00258265 0.0648538 -0.00102453)
(0.0022521 0.0735764 -0.000927388)
(0.00186893 0.0828041 -0.000711466)
(0.00143482 0.091192 -0.000450292)
(0.00100572 0.0963288 -0.000240145)
(0.000600799 0.0955157 -0.000112344)
(0.000233982 0.0817381 -5.30033e-05)
(1.39125e-05 0.0412539 -2.88588e-05)
(1.52851e-05 -0.0249613 0.000399887)
(0.000202319 -0.0611449 0.000962252)
(0.000487097 -0.0845833 0.00130446)
(0.00082256 -0.0979304 0.00148493)
(0.00115477 -0.104316 0.00156481)
(0.00147017 -0.106767 0.00159381)
(0.00177601 -0.106911 0.00159848)
(0.00207133 -0.105352 0.0015922)
(0.00234925 -0.102276 0.00158372)
(0.00260475 -0.0977279 0.00158026)
(0.00283412 -0.0917304 0.0015875)
(0.00303478 -0.0843554 0.00160852)
(0.00320591 -0.0757512 0.00164262)
(0.00334838 -0.0661271 0.00168496)
(0.00346412 -0.0557209 0.00172663)
(0.00355522 -0.0447742 0.00175506)
(0.00362327 -0.0335195 0.00175487)
(0.00366878 -0.0221785 0.0017093)
(0.00369088 -0.0109668 0.00160265)
(0.00368729 -0.000102003 0.00142358)
(0.00365507 0.0101923 0.00116939)
(0.00359163 0.0197359 0.000849401)
(0.00349538 0.0284618 0.000484688)
(0.00336572 0.0364493 0.000104544)
(0.00320219 0.0439261 -0.000257819)
(0.00300327 0.0512429 -0.000567909)
(0.00276578 0.0588218 -0.000790994)
(0.00248553 0.0670576 -0.000895487)
(0.00215867 0.0761216 -0.000864152)
(0.0017824 0.0856113 -0.000712762)
(0.00136173 0.0941082 -0.000502338)
(0.000951885 0.0991673 -0.000317913)
(0.000567259 0.0980757 -0.000188759)
(0.000219756 0.0836254 -0.000102457)
(1.29359e-05 0.0420207 -3.97599e-05)
(1.414e-05 -0.0258508 0.000405913)
(0.000195401 -0.063213 0.000957712)
(0.000470683 -0.0872995 0.00127873)
(0.000793816 -0.100911 0.00143897)
(0.00111226 -0.107359 0.00150473)
(0.00141367 -0.109796 0.00152521)
(0.00170541 -0.109885 0.00152521)
(0.00198633 -0.108236 0.00151734)
(0.00224979 -0.105036 0.00151027)
(0.00249115 -0.100334 0.00151146)
(0.00270707 -0.0941599 0.00152695)
(0.00289548 -0.086597 0.00156025)
(0.00305601 -0.0778042 0.00161118)
(0.00319 -0.067998 0.00167545)
(0.00329975 -0.057419 0.00174466)
(0.00338773 -0.0463054 0.00180644)
(0.00345585 -0.0348814 0.00184507)
(0.00350484 -0.0233571 0.00184256)
(0.00353379 -0.011935 0.00178075)
(0.00354007 -0.00082276 0.00164465)
(0.00351985 0.00975961 0.00142709)
(0.00346927 0.0196258 0.00113321)
(0.00338536 0.0286982 0.000781236)
(0.00326634 0.0370465 0.000399322)
(0.00311099 0.0448934 2.08258e-05)
(0.00291758 0.0525893 -0.000319035)
(0.00268334 0.0605551 -0.000584612)
(0.00240508 0.0691753 -0.000742746)
(0.00208054 0.0785905 -0.000772478)
(0.00170925 0.0883399 -0.000681958)
(0.00129943 0.0969331 -0.0005209)
(0.000905893 0.101903 -0.000363877)
(0.000538748 0.100532 -0.000238424)
(0.000207878 0.0854265 -0.000133893)
(1.2301e-05 0.042749 -4.44972e-05)
(1.39438e-05 -0.0267246 0.000407634)
(0.000191628 -0.0652333 0.000942737)
(0.000459861 -0.0899376 0.00123841)
(0.000772614 -0.10379 0.00137591)
(0.00107874 -0.110287 0.00142628)
(0.00136733 -0.112702 0.00143758)
(0.00164599 -0.112735 0.00143258)
(0.00191348 -0.110997 0.00142299)
(0.00216342 -0.107677 0.00141734)
(0.00239146 -0.102828 0.00142325)
(0.00259458 -0.0964903 0.00144705)
(0.00277108 -0.0887573 0.00149261)
(0.00292101 -0.0797992 0.00156015)
(0.00304613 -0.0698399 0.00164582)
(0.00314917 -0.0591222 0.00174162)
(0.00323306 -0.0478806 0.00183557)
(0.00330014 -0.0363296 0.00191197)
(0.0033515 -0.0246654 0.00195217)
(0.00338637 -0.0130746 0.00193624)
(0.00340188 -0.00174991 0.00184599)
(0.00339344 0.00909646 0.0016698)
(0.0033559 0.0192752 0.00140802)
(0.0032848 0.0286977 0.00107519)
(0.00317703 0.0374219 0.000697558)
(0.0030305 0.0456616 0.000308268)
(0.00284317 0.0537627 -5.66839e-05)
(0.00261258 0.0621414 -0.000360465)
(0.00233651 0.0711678 -0.000568109)
(0.00201444 0.0809482 -0.000655033)
(0.00164784 0.0909623 -0.000622442)
(0.00124732 0.0996501 -0.000509608)
(0.000867428 0.104531 -0.000381357)
(0.000514955 0.102886 -0.000263933)
(0.000198107 0.0871503 -0.00014895)
(1.19153e-05 0.0434443 -4.36137e-05)
(1.3201e-05 -0.027579 0.000405151)
(0.000186608 -0.0671961 0.000917841)
(0.0004479 -0.0924845 0.00118584)
(0.00075138 -0.106551 0.0013003)
(0.00104691 -0.113082 0.0013355)
(0.00132466 -0.11547 0.00133764)
(0.00159237 -0.115443 0.00132728)
(0.00184871 -0.113616 0.00131519)
(0.00208749 -0.110178 0.00130968)
(0.00230457 -0.105188 0.00131844)
(0.00249714 -0.0986933 0.0013481)
(0.0026638 -0.0908 0.00140293)
(0.00280493 -0.0816891 0.00148371)
(0.00292261 -0.0715925 0.00158724)
(0.00301991 -0.0607555 0.00170627)
(0.00310011 -0.0494096 0.00182955)
(0.00316594 -0.0377603 0.00194183)
(0.00321882 -0.0259891 0.00202428)
(0.00325825 -0.014265 0.00205564)
(0.00328133 -0.0027628 0.00201486)
(0.00328289 0.00831816 0.00188572)
(0.00325677 0.0187897 0.0016632)
(0.00319711 0.0285541 0.00135718)
(0.00309951 0.0376568 0.000991156)
(0.00296095 0.0463006 0.000597567)
(0.00277907 0.054823 0.000213114)
(0.00255163 0.0636314 -0.000123951)
(0.00227725 0.0730775 -0.00037658)
(0.00195673 0.0832295 -0.000516525)
(0.00159366 0.0935053 -0.000538381)
(0.00120134 0.102279 -0.000471893)
(0.000833533 0.107066 -0.000373003)
(0.000493873 0.10515 -0.000267173)
(0.000189362 0.0888008 -0.000148752)
(1.15618e-05 0.0441078 -3.74815e-05)
(1.31385e-05 -0.0284221 0.000399355)
(0.000183895 -0.0691235 0.000886038)
(0.000440131 -0.0949729 0.00112487)
(0.000736071 -0.109236 0.00121591)
(0.00102251 -0.115789 0.00123596)
(0.0012908 -0.118143 0.001229)
(0.00154887 -0.118055 0.00121324)
(0.00179524 -0.11614 0.00119853)
(0.0020239 -0.11259 0.00119292)
(0.0022309 -0.107465 0.00120416)
(0.00241361 -0.100823 0.00123906)
(0.00257083 -0.0927838 0.00130221)
(0.00270327 -0.0835381 0.00139479)
(0.00281333 -0.0733259 0.00151415)
(0.00290444 -0.0623951 0.00165371)
(0.00298028 -0.050974 0.00180302)
(0.00304401 -0.0392584 0.00194766)
(0.00309749 -0.0274149 0.00206924)
(0.00314053 -0.0155926 0.00214603)
(0.00317033 -0.00394537 0.00215493)
(0.00318129 0.00734495 0.00207565)
(0.00316631 0.0180954 0.00189756)
(0.00311812 0.0282003 0.00162506)
(0.00303096 0.0376914 0.0012778)
(0.00290078 0.0467572 0.000886644)
(0.00272478 0.0557231 0.000488592)
(0.00250092 0.0649831 0.000123326)
(0.00222863 0.0748671 -0.000169841)
(0.00190989 0.0854025 -0.000358914)
(0.0015499 0.0959447 -0.00043214)
(0.00116407 0.104804 -0.000410302)
(0.00080589 0.109501 -0.000341202)
(0.000476612 0.107323 -0.000250161)
(0.000182245 0.0903843 -0.000134863)
(1.14266e-05 0.0447435 -2.6835e-05)
(1.27974e-05 -0.0292453 0.00038966)
(0.000180674 -0.070991 0.000845045)
(0.00043218 -0.0973666 0.00105237)
(0.000721648 -0.1118 0.00111956)
(0.00100059 -0.118361 0.00112465)
(0.00126138 -0.120674 0.00110861)
(0.00151195 -0.120521 0.0010871)
(0.00175041 -0.118517 0.00106893)
(0.00197082 -0.114854 0.00106199)
(0.00216943 -0.109595 0.00107405)
(0.00234381 -0.10281 0.00111214)
(0.00249297 -0.0946285 0.00118122)
(0.00261783 -0.0852551 0.00128294)
(0.00272103 -0.0749376 0.00141524)
(0.00280627 -0.0639274 0.00157234)
(0.00287753 -0.0524502 0.0017447)
(0.00293837 -0.0406934 0.00191886)
(0.00299109 -0.0288082 0.00207719)
(0.00303597 -0.0169234 0.00219804)
(0.00307046 -0.00516899 0.00225693)
(0.00308884 0.0062955 0.00223011)
(0.00308329 0.0172974 0.00210144)
(0.00304534 0.0277266 0.00186925)
(0.00296785 0.0376016 0.00154836)
(0.00284568 0.0470948 0.00116711)
(0.00267544 0.0565153 0.000762257)
(0.00245521 0.0662399 0.000374765)
(0.00218509 0.076572 4.63037e-05)
(0.00186821 0.0874951 -0.000187335)
(0.00151112 0.0983019 -0.000308272)
(0.00113115 0.107243 -0.000328864)
(0.000781374 0.111848 -0.000289465)
(0.00046104 0.109412 -0.000215774)
(0.000175623 0.0919022 -0.00010926)
(1.12521e-05 0.0453508 -1.23632e-05)
(1.28522e-05 -0.0300606 0.00037762)
(0.000178877 -0.0728316 0.000799872)
(0.000426901 -0.0997143 0.000975757)
(0.000711138 -0.114304 0.00101978)
(0.00098391 -0.120865 0.0010105)
(0.00123857 -0.123136 0.000985728)
(0.00148304 -0.122916 0.000958576)
(0.00171492 -0.120821 0.000936891)
(0.00192824 -0.117046 0.000928286)
(0.0021194 -0.111657 0.000940607)
(0.00228626 -0.104735 0.000980994)
(0.00242799 -0.0964216 0.00105461)
(0.00254571 -0.0869329 0.00116348)
(0.00264225 -0.076525 0.00130611)
(0.00272157 -0.0654525 0.00147743)
(0.00278798 -0.053939 0.00166886)
(0.00284543 -0.0421636 0.00186807)
(0.00289665 -0.0302627 0.00205859)
(0.00294239 -0.0183441 0.00221947)
(0.00298048 -0.00651225 0.00232579)
(0.0030052 0.00509941 0.00235123)
(0.00300821 0.0163332 0.00227461)
(0.00297993 0.0270774 0.00208788)
(0.00291188 0.0373382 0.00180011)
(0.00279771 0.0472698 0.00143604)
(0.00263335 0.0571617 0.00103133)
(0.00241686 0.0673685 0.000627857)
(0.00214896 0.0781637 0.000269594)
(0.0018338 0.0894844 -3.87536e-06)
(0.00147921 0.10056 -0.000168737)
(0.00110422 0.109584 -0.000229399)