/*--------------------------------*- C++ -*----------------------------------*\
| =========                 |                                                 |
| \\      /  F ield         | OpenFOAM: The Open Source CFD Toolbox           |
|  \\    /   O peration     | Version:  v2006                                 |
|   \\  /    A nd           | Website:  www.openfoam.com                      |
|    \\/     M anipulation  |                                                 |
\*---------------------------------------------------------------------------*/
FoamFile
{
    version     2.0;
    format      ascii;
    class       volScalarField;
    location    "79";
    object      alphat;
}
// * * * * * * * * * * * * * * * * * * * * * * * * * * * * * * * * * * * * * //

dimensions      [1 -1 -1 0 0 0 0];


internalField   nonuniform List<scalar> 
78750
(
1.76372e-09
2.82264e-07
5.66074e-07
8.72598e-07
1.18931e-06
1.50542e-06
1.81281e-06
2.10567e-06
2.37988e-06
2.63251e-06
2.86158e-06
3.06586e-06
3.24475e-06
3.39745e-06
3.52339e-06
3.62274e-06
3.69563e-06
3.74209e-06
3.76206e-06
3.75531e-06
3.72145e-06
3.6602e-06
3.57005e-06
3.44984e-06
3.29882e-06
3.1165e-06
2.90204e-06
2.65636e-06
2.38127e-06
2.07851e-06
1.74764e-06
1.38555e-06
9.93368e-07
5.86247e-07
7.1804e-09
4.43475e-09
3.22282e-06
5.66444e-06
7.6056e-06
9.23973e-06
1.08066e-05
1.23717e-05
1.39502e-05
1.5551e-05
1.71857e-05
1.88603e-05
2.06086e-05
2.24911e-05
2.36931e-05
2.4013e-05
2.42012e-05
2.42666e-05
2.42169e-05
2.40587e-05
2.37972e-05
2.34352e-05
2.29733e-05
2.24069e-05
2.17291e-05
2.09311e-05
2.00076e-05
1.77271e-05
1.54366e-05
1.31715e-05
1.0781e-05
8.20449e-06
5.84046e-06
4.42238e-06
2.41221e-06
2.24636e-08
7.61999e-09
2.44971e-06
5.20675e-06
8.22685e-06
1.13096e-05
1.42545e-05
1.6919e-05
1.92603e-05
2.12963e-05
2.30558e-05
2.45556e-05
2.58127e-05
2.68677e-05
2.74955e-05
2.74183e-05
2.72072e-05
2.68797e-05
2.64532e-05
2.59461e-05
2.53777e-05
2.44075e-05
2.29159e-05
2.1341e-05
1.9823e-05
1.84494e-05
1.7231e-05
1.61011e-05
1.49019e-05
1.33806e-05
1.13131e-05
8.88385e-06
7.03664e-06
6.63975e-06
2.33342e-06
3.81815e-08
1.15829e-08
2.333e-06
5.286e-06
9.39657e-06
1.44724e-05
1.94561e-05
2.34385e-05
2.63426e-05
2.83935e-05
2.97626e-05
3.05408e-05
3.07831e-05
3.05507e-05
2.99181e-05
2.8955e-05
2.77293e-05
2.63176e-05
2.47921e-05
2.32112e-05
2.16191e-05
2.00484e-05
1.85475e-05
1.71857e-05
1.60199e-05
1.50884e-05
1.43907e-05
1.38349e-05
1.31869e-05
1.21048e-05
1.04125e-05
8.56532e-06
7.70049e-06
8.27394e-06
2.13367e-06
5.06414e-08
1.64618e-08
2.28325e-06
5.43677e-06
1.0419e-05
1.70969e-05
2.3433e-05
2.79122e-05
3.07145e-05
3.20509e-05
3.25742e-05
3.22956e-05
3.12077e-05
2.96254e-05
2.77651e-05
2.58139e-05
2.39086e-05
2.2126e-05
2.04894e-05
1.89876e-05
1.75967e-05
1.63015e-05
1.51106e-05
1.40605e-05
1.31959e-05
1.2549e-05
1.21123e-05
1.17872e-05
1.13421e-05
1.04922e-05
9.21422e-06
8.08361e-06
8.20571e-06
8.72424e-06
2.00693e-06
5.92204e-08
2.13396e-08
2.31072e-06
5.66054e-06
1.13513e-05
1.94065e-05
2.69063e-05
3.16997e-05
3.39059e-05
3.46978e-05
3.43697e-05
3.28008e-05
3.05653e-05
2.80287e-05
2.54978e-05
2.31765e-05
2.11543e-05
1.94351e-05
1.7974e-05
1.67067e-05
1.55717e-05
1.45299e-05
1.35738e-05
1.27142e-05
1.19689e-05
1.1359e-05
1.088e-05
1.0453e-05
9.90582e-06
9.07906e-06
8.08448e-06
7.50263e-06
8.39608e-06
8.59662e-06
1.95223e-06
6.60294e-08
2.58688e-08
2.34466e-06
5.83272e-06
1.19925e-05
2.09164e-05
2.89931e-05
3.37564e-05
3.58103e-05
3.58588e-05
3.43812e-05
3.18666e-05
2.88353e-05
2.57579e-05
2.29579e-05
2.05782e-05
1.86291e-05
1.70499e-05
1.57616e-05
1.46917e-05
1.37816e-05
1.29989e-05
1.23294e-05
1.17424e-05
1.12022e-05
1.06884e-05
1.01802e-05
9.62346e-06
8.93411e-06
8.09314e-06
7.3055e-06
7.11857e-06
8.55999e-06
8.16792e-06
1.91367e-06
7.23088e-08
3.00202e-08
2.37605e-06
5.93233e-06
1.2346e-05
2.18509e-05
3.0414e-05
3.51807e-05
3.68672e-05
3.63188e-05
3.41574e-05
3.10275e-05
2.75673e-05
2.42779e-05
2.14309e-05
1.90939e-05
1.72225e-05
1.57342e-05
1.45434e-05
1.35765e-05
1.27839e-05
1.21439e-05
1.16366e-05
1.12045e-05
1.07772e-05
1.02969e-05
9.72325e-06
9.02699e-06
8.20495e-06
7.342e-06
6.68702e-06
6.74866e-06
8.54035e-06
7.84693e-06
1.8997e-06
7.887e-08
3.3716e-08
2.39889e-06
5.99383e-06
1.25608e-05
2.24057e-05
3.11858e-05
3.58406e-05
3.71908e-05
3.6174e-05
3.35235e-05
3.00011e-05
2.63133e-05
2.29481e-05
2.01165e-05
1.78313e-05
1.60183e-05
1.4587e-05
1.34575e-05
1.25671e-05
1.18817e-05
1.13973e-05
1.10819e-05
1.08429e-05
1.05677e-05
1.0153e-05
9.53472e-06
8.71295e-06
7.76843e-06
6.87315e-06
6.30167e-06
6.53457e-06
8.57309e-06
7.50863e-06
1.88809e-06
8.58656e-08
3.76149e-08
2.42253e-06
6.04004e-06
1.27036e-05
2.27891e-05
3.17454e-05
3.63283e-05
3.74316e-05
3.60857e-05
3.31226e-05
2.93808e-05
2.55893e-05
2.22043e-05
1.93896e-05
1.71256e-05
1.5325e-05
1.38957e-05
1.27624e-05
1.18735e-05
1.12103e-05
1.07853e-05
1.05661e-05
1.04478e-05
1.02906e-05
9.95084e-06
9.33257e-06
8.44651e-06
7.43231e-06
6.5239e-06
6.01223e-06
6.3628e-06
8.57532e-06
7.24256e-06
1.88339e-06
9.31135e-08
4.11561e-08
2.43813e-06
6.06772e-06
1.27959e-05
2.30353e-05
3.20672e-05
3.65382e-05
3.74106e-05
3.57884e-05
3.2584e-05
2.86969e-05
2.48615e-05
2.14955e-05
1.87198e-05
1.64903e-05
1.47115e-05
1.32923e-05
1.21628e-05
1.12798e-05
1.06404e-05
1.02731e-05
1.01386e-05
1.01222e-05
1.00646e-05
9.79125e-06
9.18299e-06
8.26025e-06
7.20629e-06
6.29843e-06
5.83908e-06
6.28999e-06
8.65151e-06
6.98328e-06
1.87942e-06
1.00373e-07
4.52276e-08
2.45954e-06
6.11195e-06
1.29286e-05
2.33305e-05
3.23975e-05
3.67368e-05
3.74057e-05
3.5575e-05
3.22159e-05
2.82555e-05
2.4413e-05
2.10695e-05
1.83163e-05
1.60961e-05
1.43112e-05
1.28737e-05
1.17195e-05
1.08127e-05
1.01603e-05
9.80394e-06
9.70553e-06
9.74733e-06
9.76007e-06
9.54881e-06
8.97498e-06
8.05984e-06
7.01012e-06
6.1265e-06
5.7201e-06
6.25993e-06
8.75075e-06
6.76573e-06
1.87887e-06
1.07506e-07
4.89946e-08
2.4757e-06
6.1463e-06
1.30334e-05
2.35528e-05
3.26209e-05
3.68266e-05
3.73039e-05
3.52839e-05
3.17951e-05
2.77892e-05
2.39649e-05
2.0664e-05
1.79493e-05
1.5751e-05
1.39706e-05
1.25238e-05
1.13518e-05
1.0426e-05
9.76381e-06
9.4166e-06
9.3433e-06
9.42403e-06
9.48302e-06
9.31442e-06
8.77105e-06
7.87766e-06
6.85405e-06
6.01039e-06
5.66267e-06
6.29374e-06
8.90685e-06
6.56519e-06
1.87984e-06
1.14377e-07
5.32785e-08
2.49725e-06
6.19837e-06
1.31896e-05
2.38567e-05
3.28924e-05
3.6932e-05
3.72243e-05
3.50546e-05
3.14878e-05
2.74753e-05
2.36845e-05
2.04227e-05
1.77329e-05
1.55399e-05
1.37474e-05
1.22758e-05
1.10716e-05
1.01122e-05
9.42205e-06
9.06181e-06
8.99001e-06
9.08581e-06
9.17215e-06
9.03868e-06
8.53382e-06
7.68273e-06
6.7079e-06
5.91954e-06
5.63604e-06
6.35861e-06
9.08341e-06
6.39799e-06
1.88352e-06
1.20985e-07
5.73162e-08
2.51589e-06
6.24573e-06
1.33291e-05
2.4113e-05
3.31034e-05
3.69887e-05
3.71109e-05
3.48058e-05
3.11756e-05
2.71711e-05
2.34271e-05
2.0216e-05
1.7561e-05
1.53816e-05
1.35831e-05
1.20905e-05
1.08561e-05
9.86306e-06
9.14314e-06
8.76537e-06
8.68734e-06
8.78626e-06
8.88471e-06
8.77298e-06
8.30141e-06
7.49768e-06
6.5821e-06
5.85824e-06
5.64514e-06
6.46483e-06
9.29208e-06
6.25109e-06
1.88892e-06
1.27288e-07
6.17439e-08
2.53813e-06
6.30496e-06
1.35045e-05
2.44291e-05
3.33533e-05
3.70655e-05
3.70263e-05
3.46156e-05
3.09551e-05
2.69795e-05
2.32874e-05
2.01216e-05
1.74921e-05
1.53162e-05
1.3502e-05
1.19794e-05
1.07055e-05
9.66924e-06
8.90702e-06
8.49549e-06
8.39584e-06
8.48474e-06
8.5853e-06
8.49076e-06
8.05571e-06
7.30838e-06
6.46197e-06
5.8098e-06
5.67137e-06
6.59105e-06
9.50925e-06
6.13042e-06
1.89627e-06
1.33311e-07
6.59897e-08
2.55896e-06
6.36282e-06
1.36726e-05
2.47179e-05
3.35697e-05
3.71217e-05
3.69354e-05
3.44311e-05
3.075e-05
2.68111e-05
2.31781e-05
2.00651e-05
1.74685e-05
1.53026e-05
1.34776e-05
1.19271e-05
1.06136e-05
9.53202e-06
8.72338e-06
8.27135e-06
8.14179e-06
8.21135e-06
8.30493e-06
8.22047e-06
7.81876e-06
7.12918e-06
6.35552e-06
5.77886e-06
5.71934e-06
6.7441e-06
9.74027e-06
6.02834e-06
1.90508e-06
1.39039e-07
7.05047e-08
2.58203e-06
6.42819e-06
1.38642e-05
2.50461e-05
3.38153e-05
3.72017e-05
3.68798e-05
3.43032e-05
3.06201e-05
2.67263e-05
2.31516e-05
2.00864e-05
1.7517e-05
1.53563e-05
1.35162e-05
1.19335e-05
1.05755e-05
9.44202e-06
8.5782e-06
8.073e-06
7.90143e-06
7.94135e-06
8.02096e-06
7.94441e-06
7.57827e-06
6.95052e-06
6.25343e-06
5.75518e-06
5.77722e-06
6.90971e-06
9.97037e-06
5.94508e-06
1.91507e-06
1.44487e-07
7.48901e-08
2.60444e-06
6.49379e-06
1.40544e-05
2.53612e-05
3.40448e-05
3.72768e-05
3.68308e-05
3.41904e-05
3.05104e-05
2.66654e-05
2.31532e-05
2.01416e-05
1.76064e-05
1.54575e-05
1.36071e-05
1.19947e-05
1.05922e-05
9.40402e-06
8.48012e-06
7.91389e-06
7.69168e-06
7.69339e-06
7.75171e-06
7.67841e-06
7.34634e-06
6.78083e-06
6.16103e-06
5.74225e-06
5.8484e-06
7.0927e-06
1.02036e-05
5.87699e-06
1.92617e-06
1.49651e-07
7.94501e-08
2.62815e-06
6.56425e-06
1.42611e-05
2.57045e-05
3.42989e-05
3.73777e-05
3.68177e-05
3.41257e-05
3.04565e-05
2.66611e-05
2.32087e-05
2.02476e-05
1.77449e-05
1.56077e-05
1.37475e-05
1.21057e-05
1.06571e-05
9.41039e-06
8.41971e-06
7.78246e-06
7.49986e-06
7.45504e-06
7.48622e-06
7.41364e-06
7.11584e-06
6.61377e-06
6.0723e-06
5.73388e-06
5.92541e-06
7.28331e-06
1.04304e-05
5.82218e-06
1.93794e-06
1.54531e-07
8.39143e-08
2.65133e-06
6.63506e-06
1.4469e-05
2.60445e-05
3.45503e-05
3.74853e-05
3.6819e-05
3.40791e-05
3.04213e-05
2.66762e-05
2.32863e-05
2.03811e-05
1.79179e-05
1.57992e-05
1.39353e-05
1.22677e-05
1.07735e-05
9.46566e-06
8.40285e-06
7.68671e-06
7.3355e-06
7.23659e-06
7.23464e-06
7.15897e-06
6.89358e-06
6.45383e-06
5.98973e-06
5.73174e-06
6.01069e-06
7.48505e-06
1.06544e-05
5.77931e-06
1.95047e-06
1.59143e-07
8.84811e-08
2.67495e-06
6.70843e-06
1.46888e-05
2.64083e-05
3.48282e-05
3.76226e-05
3.68538e-05
3.40681e-05
3.04212e-05
2.67239e-05
2.33945e-05
2.05448e-05
1.81229e-05
1.60267e-05
1.41636e-05
1.2474e-05
1.09359e-05
9.56544e-06
8.4255e-06
7.62197e-06
7.19357e-06
7.03319e-06
6.99261e-06
6.91063e-06
6.67604e-06
6.29751e-06
5.90975e-06
5.73157e-06
6.09859e-06
7.69041e-06
1.08681e-05
5.74621e-06
1.96346e-06
1.63491e-07
9.29741e-08
2.69787e-06
6.78111e-06
1.49089e-05
2.6774e-05
3.51139e-05
3.77763e-05
3.69069e-05
3.40719e-05
3.04334e-05
2.67843e-05
2.35181e-05
2.07288e-05
1.83548e-05
1.62882e-05
1.44328e-05
1.27266e-05
1.11472e-05
9.71315e-06
8.49165e-06
7.59344e-06
7.07998e-06
6.85094e-06
6.76596e-06
6.67354e-06
6.46685e-06
6.14715e-06
5.83367e-06
5.73421e-06
6.18987e-06
7.90146e-06
1.10786e-05
5.72316e-06
1.9771e-06
1.67591e-07
9.75164e-08
2.72066e-06
6.8541e-06
1.5132e-05
2.7142e-05
3.53887e-05
3.79215e-05
3.69656e-05
3.40882e-05
3.04605e-05
2.68595e-05
2.36563e-05
2.09288e-05
1.86062e-05
1.65752e-05
1.47349e-05
1.30191e-05
1.14033e-05
9.90683e-06
8.60107e-06
7.60204e-06
6.99561e-06
6.6905e-06
6.55485e-06
6.44701e-06
6.2643e-06
6.00021e-06
5.75862e-06
5.73674e-06
6.28165e-06
8.11531e-06
1.12864e-05
5.70843e-06
1.99093e-06
1.71448e-07
1.02003e-07
2.74297e-06
6.92652e-06
1.53525e-05
2.74963e-05
3.56498e-05
3.80588e-05
3.70213e-05
3.41138e-05
3.04973e-05
2.6943e-05
2.38038e-05
2.11416e-05
1.88761e-05
1.68877e-05
1.50701e-05
1.33519e-05
1.17049e-05
1.01482e-05
8.75659e-06
7.65219e-06
6.94518e-06
6.55694e-06
6.3643e-06
6.23546e-06
6.0717e-06
5.85879e-06
5.68557e-06
5.73921e-06
6.37339e-06
8.33162e-06
1.14909e-05
5.70629e-06
2.00594e-06
1.75089e-07
1.06502e-07
2.76487e-06
6.99934e-06
1.55779e-05
2.78453e-05
3.59013e-05
3.8187e-05
3.70697e-05
3.41365e-05
3.05331e-05
2.7027e-05
2.39536e-05
2.13596e-05
1.9156e-05
1.72172e-05
1.54311e-05
1.37196e-05
1.20493e-05
1.04369e-05
8.96009e-06
7.74761e-06
6.93235e-06
6.45331e-06
6.19659e-06
6.04017e-06
5.88922e-06
5.72213e-06
5.61337e-06
5.74073e-06
6.46581e-06
8.55462e-06
1.16951e-05
5.71508e-06
2.02218e-06
1.78529e-07
1.10949e-07
2.78576e-06
7.0697e-06
1.57981e-05
2.81796e-05
3.61373e-05
3.83041e-05
3.71113e-05
3.41562e-05
3.05708e-05
2.71145e-05
2.41072e-05
2.1583e-05
1.94452e-05
1.75623e-05
1.58156e-05
1.41198e-05
1.24342e-05
1.0772e-05
9.21247e-06
7.89137e-06
6.96116e-06
6.38409e-06
6.05607e-06
5.86489e-06
5.71971e-06
5.59217e-06
5.54319e-06
5.74196e-06
6.55847e-06
8.7805e-06
1.18978e-05
5.73224e-06
2.03937e-06
1.81781e-07
1.15382e-07
2.80605e-06
7.13854e-06
1.60152e-05
2.85055e-05
3.63617e-05
3.84101e-05
3.71423e-05
3.41664e-05
3.06062e-05
2.7198e-05
2.42555e-05
2.18034e-05
1.97363e-05
1.79164e-05
1.62181e-05
1.45481e-05
1.28573e-05
1.11529e-05
9.51466e-06
8.08531e-06
7.03411e-06
6.35186e-06
5.94521e-06
5.71155e-06
5.56433e-06
5.46929e-06
5.47484e-06
5.74203e-06
6.64944e-06
9.00572e-06
1.20978e-05
5.7562e-06
2.05726e-06
1.84851e-07
1.19775e-07
2.82572e-06
7.20585e-06
1.62282e-05
2.88202e-05
3.65723e-05
3.85041e-05
3.71629e-05
3.41668e-05
3.06331e-05
2.7274e-05
2.43983e-05
2.2021e-05
2.00285e-05
1.82769e-05
1.66346e-05
1.49996e-05
1.33134e-05
1.15755e-05
9.8641e-06
8.32811e-06
7.15192e-06
6.3588e-06
5.86687e-06
5.5831e-06
5.42568e-06
5.35556e-06
5.40988e-06
5.74219e-06
6.73946e-06
9.22986e-06
1.22948e-05
5.78559e-06
2.07566e-06
1.87752e-07
1.24141e-07
2.84482e-06
7.27175e-06
1.64378e-05
2.91254e-05
3.67702e-05
3.85851e-05
3.71704e-05
3.41541e-05
3.06472e-05
2.73387e-05
2.45316e-05
2.22316e-05
2.03173e-05
1.86397e-05
1.70609e-05
1.54707e-05
1.37998e-05
1.20381e-05
1.02599e-05
8.61934e-06
7.31528e-06
6.40628e-06
5.82275e-06
5.48124e-06
5.30513e-06
5.25177e-06
5.34829e-06
5.74118e-06
6.82568e-06
9.44988e-06
1.24874e-05
5.81918e-06
2.09434e-06
1.9049e-07
1.28475e-07
2.86364e-06
7.33697e-06
1.66447e-05
2.94207e-05
3.69549e-05
3.86531e-05
3.71651e-05
3.41288e-05
3.06491e-05
2.73925e-05
2.46553e-05
2.24342e-05
2.06005e-05
1.90007e-05
1.74915e-05
1.59546e-05
1.43095e-05
1.25343e-05
1.06974e-05
8.95623e-06
7.52356e-06
6.49511e-06
5.81454e-06
5.40818e-06
5.20503e-06
5.16017e-06
5.29217e-06
5.74155e-06
6.91226e-06
9.66672e-06
1.26763e-05
5.85614e-06
2.11321e-06
1.93077e-07
1.32775e-07
2.88217e-06
7.40154e-06
1.68485e-05
2.97057e-05
3.71253e-05
3.87059e-05
3.71437e-05
3.40872e-05
3.06356e-05
2.7433e-05
2.47677e-05
2.26271e-05
2.08765e-05
1.93583e-05
1.79244e-05
1.64488e-05
1.48394e-05
1.30614e-05
1.11744e-05
9.33749e-06
7.77671e-06
6.62591e-06
5.84321e-06
5.36509e-06
5.12659e-06
5.08173e-06
5.24221e-06
5.7437e-06
6.9988e-06
9.87994e-06
1.28621e-05
5.89598e-06
2.13214e-06
1.95521e-07
1.37051e-07
2.90083e-06
7.46696e-06
1.705e-05
2.99809e-05
3.72821e-05
3.87436e-05
3.71062e-05
3.40292e-05
3.06065e-05
2.74607e-05
2.48681e-05
2.28083e-05
2.11419e-05
1.97079e-05
1.83539e-05
1.69465e-05
1.5382e-05
1.36117e-05
1.16847e-05
9.75894e-06
8.07295e-06
6.79856e-06
5.90972e-06
5.35361e-06
5.07186e-06
5.01869e-06
5.20051e-06
5.74911e-06
7.08553e-06
1.00905e-05
1.30453e-05
5.93816e-06
2.15106e-06
1.97832e-07
1.41291e-07
2.91926e-06
7.53317e-06
1.72465e-05
3.02436e-05
3.74227e-05
3.87639e-05
3.705e-05
3.39517e-05
3.0559e-05
2.74758e-05
2.49563e-05
2.29777e-05
2.13973e-05
2.00503e-05
1.87802e-05
1.74467e-05
1.59351e-05
1.41824e-05
1.22251e-05
1.02181e-05
8.41113e-06
7.01285e-06
6.0145e-06
5.37456e-06
5.04184e-06
4.97203e-06
5.16773e-06
5.7578e-06
7.17158e-06
1.02976e-05
1.32266e-05
5.98248e-06
2.16993e-06
2.00021e-07
1.45468e-07
2.93647e-06
7.59616e-06
1.7439e-05
3.04961e-05
3.75478e-05
3.87672e-05
3.69763e-05
3.38565e-05
3.0493e-05
2.74717e-05
2.50269e-05
2.31316e-05
2.16392e-05
2.03814e-05
1.91983e-05
1.79434e-05
1.64917e-05
1.47657e-05
1.27884e-05
1.07094e-05
8.78801e-06
7.2674e-06
6.15756e-06
5.42893e-06
5.03824e-06
4.94379e-06
5.14589e-06
5.77142e-06
7.25808e-06
1.05018e-05
1.34061e-05
6.02849e-06
2.18869e-06
2.021e-07
1.49569e-07
2.9531e-06
7.65721e-06
1.7625e-05
3.07357e-05
3.76576e-05
3.87508e-05
3.68791e-05
3.37376e-05
3.0406e-05
2.7451e-05
2.50842e-05
2.32738e-05
2.18706e-05
2.07035e-05
1.96095e-05
1.84367e-05
1.70503e-05
1.53587e-05
1.33705e-05
1.12288e-05
9.20057e-06
7.56025e-06
6.338e-06
5.51667e-06
5.06156e-06
4.93476e-06
5.13573e-06
5.79045e-06
7.3451e-06
1.07032e-05
1.3585e-05
6.07635e-06
2.20741e-06
2.04083e-07
1.53624e-07
2.9689e-06
7.71683e-06
1.78112e-05
3.09706e-05
3.77544e-05
3.87194e-05
3.67677e-05
3.3605e-05
3.03035e-05
2.74094e-05
2.51193e-05
2.33973e-05
2.20862e-05
2.10115e-05
2.00086e-05
1.89207e-05
1.76043e-05
1.59539e-05
1.3964e-05
1.17696e-05
9.64377e-06
7.88814e-06
6.55419e-06
5.63761e-06
5.11279e-06
4.94659e-06
5.13906e-06
5.81646e-06
7.43382e-06
1.09022e-05
1.37635e-05
6.1257e-06
2.22602e-06
2.05982e-07
1.57623e-07
2.98409e-06
7.7749e-06
1.79931e-05
3.11933e-05
3.7835e-05
3.86689e-05
3.66341e-05
3.34492e-05
3.01805e-05
2.73536e-05
2.51435e-05
2.35072e-05
2.22883e-05
2.13085e-05
2.03986e-05
1.93978e-05
1.81544e-05
1.65504e-05
1.4566e-05
1.23278e-05
1.01134e-05
8.24751e-06
6.80356e-06
5.79021e-06
5.19143e-06
4.9796e-06
5.15665e-06
5.85028e-06
7.52478e-06
1.10993e-05
1.39427e-05
6.1769e-06
2.24462e-06
2.07815e-07
1.6157e-07
2.99875e-06
7.83206e-06
1.81743e-05
3.14076e-05
3.78996e-05
3.85992e-05
3.64807e-05
3.32744e-05
3.00388e-05
2.72786e-05
2.515e-05
2.36029e-05
2.24754e-05
2.15896e-05
2.07739e-05
1.98621e-05
1.86945e-05
1.71413e-05
1.51694e-05
1.28964e-05
1.06033e-05
8.63398e-06
7.08342e-06
5.97331e-06
5.29752e-06
5.03476e-06
5.18997e-06
5.89344e-06
7.61928e-06
1.1295e-05
1.41227e-05
6.2296e-06
2.26317e-06
2.09592e-07
1.65455e-07
3.01269e-06
7.88743e-06
1.8351e-05
3.16097e-05
3.79473e-05
3.85097e-05
3.63058e-05
3.30784e-05
2.98778e-05
2.71869e-05
2.51421e-05
2.3686e-05
2.26524e-05
2.18606e-05
2.11385e-05
2.03163e-05
1.9226e-05
1.77264e-05
1.57716e-05
1.3471e-05
1.1108e-05
9.04251e-06
7.38978e-06
6.18427e-06
5.42984e-06
5.11203e-06
5.2398e-06
5.94712e-06
7.71858e-06
1.14906e-05
1.43048e-05
6.28428e-06
2.28178e-06
2.1133e-07
1.69285e-07
3.02607e-06
7.94168e-06
1.85257e-05
3.18017e-05
3.79777e-05
3.83994e-05
3.61087e-05
3.28611e-05
2.96968e-05
2.70763e-05
2.51169e-05
2.37528e-05
2.2814e-05
2.21175e-05
2.1489e-05
2.07562e-05
1.97443e-05
1.83007e-05
1.63675e-05
1.40461e-05
1.16219e-05
9.4685e-06
7.71915e-06
6.42077e-06
5.58727e-06
5.21141e-06
5.30696e-06
6.01268e-06
7.82437e-06
1.16878e-05
1.44889e-05
6.34053e-06
2.30039e-06
2.13037e-07
1.73063e-07
3.03892e-06
7.99464e-06
1.8697e-05
3.19817e-05
3.79909e-05
3.82691e-05
3.5891e-05
3.26242e-05
2.94983e-05
2.69502e-05
2.50779e-05
2.38071e-05
2.29637e-05
2.23628e-05
2.18283e-05
2.11839e-05
2.02496e-05
1.88627e-05
1.69537e-05
1.4617e-05
1.21396e-05
9.90685e-06
8.0673e-06
6.67973e-06
5.76805e-06
5.33247e-06
5.39216e-06
6.09157e-06
7.93853e-06
1.18885e-05
1.46765e-05
6.39872e-06
2.3191e-06
2.14724e-07
1.76777e-07
3.0511e-06
8.04605e-06
1.88649e-05
3.21501e-05
3.79861e-05
3.81173e-05
3.56503e-05
3.23655e-05
2.92798e-05
2.68058e-05
2.50222e-05
2.38455e-05
2.3098e-05
2.2593e-05
2.21526e-05
2.15968e-05
2.07391e-05
1.94091e-05
1.75264e-05
1.51789e-05
1.2656e-05
1.0353e-05
8.43043e-06
6.95828e-06
5.97029e-06
5.47438e-06
5.49569e-06
6.18517e-06
8.06343e-06
1.20954e-05
1.48679e-05
6.45859e-06
2.3379e-06
2.16393e-07
1.80433e-07
3.06273e-06
8.09617e-06
1.90297e-05
3.23068e-05
3.7964e-05
3.79454e-05
3.53894e-05
3.20885e-05
2.90454e-05
2.66473e-05
2.49539e-05
2.38721e-05
2.32203e-05
2.28105e-05
2.2463e-05
2.19944e-05
2.12121e-05
1.99369e-05
1.80817e-05
1.57274e-05
1.31661e-05
1.08018e-05
8.80412e-06
7.25307e-06
6.19185e-06
5.6362e-06
5.61771e-06
6.29464e-06
8.20115e-06
1.23113e-05
1.50643e-05
6.5204e-06
2.35685e-06
2.1805e-07
1.84019e-07
3.07366e-06
8.1446e-06
1.91904e-05
3.24507e-05
3.79233e-05
3.77517e-05
3.51062e-05
3.1791e-05
2.87928e-05
2.64724e-05
2.48706e-05
2.38844e-05
2.33284e-05
2.30134e-05
2.27579e-05
2.23752e-05
2.16667e-05
2.0445e-05
1.86155e-05
1.6258e-05
1.36654e-05
1.12488e-05
9.18417e-06
7.56058e-06
6.43021e-06
5.81656e-06
5.75809e-06
6.42119e-06
8.3543e-06
1.25393e-05
1.52655e-05
6.58388e-06
2.37595e-06
2.1969e-07
1.87548e-07
3.08408e-06
8.19191e-06
1.93484e-05
3.25832e-05
3.78654e-05
3.75383e-05
3.48036e-05
3.14768e-05
2.85263e-05
2.62855e-05
2.47766e-05
2.38863e-05
2.34256e-05
2.32039e-05
2.30385e-05
2.27392e-05
2.21017e-05
2.09311e-05
1.91265e-05
1.67662e-05
1.41486e-05
1.16893e-05
9.56635e-06
7.8773e-06
6.68275e-06
6.01383e-06
5.91622e-06
6.56521e-06
8.52441e-06
1.27819e-05
1.54723e-05
6.6492e-06
2.39528e-06
2.21316e-07
1.91003e-07
3.09383e-06
8.23759e-06
1.95023e-05
3.27027e-05
3.77888e-05
3.73033e-05
3.44798e-05
3.1144e-05
2.8244e-05
2.60848e-05
2.46701e-05
2.38763e-05
2.35106e-05
2.33814e-05
2.33043e-05
2.30859e-05
2.25163e-05
2.13941e-05
1.96131e-05
1.7252e-05
1.46143e-05
1.21199e-05
9.94675e-06
8.19961e-06
6.94668e-06
6.22639e-06
6.09179e-06
6.72784e-06
8.71398e-06
1.30421e-05
1.56843e-05
6.71609e-06
2.4148e-06
2.22923e-07
1.94401e-07
3.10315e-06
8.28242e-06
1.96541e-05
3.28112e-05
3.76953e-05
3.7049e-05
3.41379e-05
3.07965e-05
2.79501e-05
2.58743e-05
2.4555e-05
2.38576e-05
2.35861e-05
2.35477e-05
2.35565e-05
2.34156e-05
2.291e-05
2.18323e-05
2.00731e-05
1.77127e-05
1.50605e-05
1.25387e-05
1.03229e-05
8.52468e-06
7.21933e-06
6.452e-06
6.2831e-06
6.90792e-06
8.92333e-06
1.33212e-05
1.59017e-05
6.78479e-06
2.43462e-06
2.24518e-07
1.97721e-07
3.11181e-06
8.32577e-06
1.98023e-05
3.29068e-05
3.75832e-05
3.67737e-05
3.37762e-05
3.04329e-05
2.76435e-05
2.56532e-05
2.44303e-05
2.38298e-05
2.3652e-05
2.37032e-05
2.37956e-05
2.3729e-05
2.32833e-05
2.22461e-05
2.05063e-05
1.81476e-05
1.54861e-05
1.29428e-05
1.06918e-05
8.84976e-06
7.49826e-06
6.68905e-06
6.4901e-06
7.10781e-06
9.15436e-06
1.36211e-05
1.61243e-05
6.85519e-06
2.45476e-06
2.261e-07
2.0098e-07
3.12012e-06
8.36853e-06
1.99489e-05
3.29917e-05
3.74544e-05
3.64797e-05
3.33982e-05
3.00572e-05
2.73281e-05
2.54251e-05
2.42995e-05
2.37955e-05
2.37104e-05
2.38493e-05
2.40227e-05
2.40267e-05
2.36364e-05
2.26353e-05
2.09122e-05
1.85566e-05
1.58912e-05
1.33324e-05
1.10522e-05
9.1728e-06
7.78131e-06
6.93558e-06
6.71124e-06
7.32622e-06
9.40731e-06
1.39423e-05
1.63522e-05
6.92752e-06
2.47527e-06
2.27681e-07
2.04154e-07
3.12782e-06
8.40997e-06
2.00921e-05
3.30637e-05
3.73072e-05
3.61658e-05
3.30028e-05
2.96688e-05
2.70037e-05
2.51898e-05
2.41624e-05
2.37549e-05
2.37615e-05
2.39866e-05
2.42385e-05
2.43096e-05
2.39703e-05
2.30007e-05
2.12916e-05
1.89398e-05
1.62757e-05
1.37063e-05
1.14028e-05
9.49208e-06
8.06668e-06
7.19003e-06
6.94535e-06
7.56239e-06
9.68244e-06
1.42852e-05
1.65853e-05
7.00178e-06
2.4962e-06
2.29264e-07
2.07256e-07
3.13517e-06
8.45087e-06
2.02336e-05
3.31249e-05
3.71438e-05
3.58345e-05
3.25936e-05
2.92717e-05
2.66741e-05
2.49511e-05
2.40221e-05
2.37104e-05
2.38074e-05
2.41164e-05
2.44439e-05
2.45783e-05
2.42853e-05
2.33428e-05
2.16449e-05
1.92977e-05
1.66395e-05
1.4064e-05
1.17424e-05
9.80623e-06
8.35261e-06
7.45039e-06
7.19043e-06
7.81472e-06
9.97888e-06
1.46494e-05
1.6823e-05
7.07795e-06
2.51756e-06
2.30857e-07
2.10265e-07
3.14195e-06
8.49055e-06
2.03719e-05
3.3173e-05
3.69622e-05
3.54845e-05
3.21697e-05
2.88656e-05
2.63395e-05
2.47089e-05
2.38789e-05
2.36625e-05
2.38485e-05
2.42396e-05
2.46399e-05
2.48339e-05
2.45828e-05
2.3663e-05
2.19735e-05
1.96315e-05
1.69829e-05
1.44054e-05
1.20705e-05
1.0114e-05
8.6374e-06
7.71527e-06
7.44538e-06
8.08232e-06
1.02959e-05
1.50335e-05
1.70643e-05
7.15577e-06
2.53933e-06
2.32463e-07
2.13191e-07
3.14836e-06
8.52958e-06
2.05082e-05
3.32099e-05
3.67648e-05
3.51186e-05
3.17349e-05
2.84543e-05
2.60034e-05
2.44668e-05
2.37358e-05
2.36136e-05
2.38867e-05
2.43574e-05
2.48273e-05
2.5077e-05
2.48632e-05
2.39618e-05
2.22783e-05
1.99419e-05
1.73065e-05
1.47308e-05
1.2387e-05
1.0415e-05
8.92068e-06
7.98306e-06
7.70816e-06
8.36326e-06
1.06317e-05
1.5436e-05
1.73086e-05
7.23514e-06
2.56151e-06
2.3409e-07
2.16013e-07
3.15419e-06
8.56735e-06
2.06411e-05
3.32334e-05
3.65492e-05
3.47351e-05
3.12879e-05
2.80372e-05
2.56657e-05
2.4225e-05
2.35934e-05
2.35645e-05
2.39231e-05
2.44708e-05
2.50073e-05
2.53088e-05
2.51282e-05
2.42412e-05
2.25611e-05
2.02306e-05
1.76113e-05
1.50405e-05
1.26916e-05
1.07085e-05
9.20099e-06
8.25276e-06
7.97788e-06
8.65647e-06
1.09853e-05
1.5855e-05
1.75542e-05
7.31552e-06
2.58401e-06
2.35737e-07
2.1874e-07
3.15957e-06
8.60426e-06
2.07715e-05
3.32453e-05
3.63177e-05
3.43364e-05
3.08315e-05
2.76171e-05
2.53293e-05
2.39863e-05
2.34543e-05
2.35174e-05
2.39592e-05
2.4581e-05
2.51804e-05
2.55297e-05
2.53779e-05
2.45016e-05
2.28232e-05
2.04995e-05
1.7899e-05
1.5336e-05
1.29851e-05
1.09947e-05
9.47804e-06
8.52357e-06
8.25287e-06
8.96027e-06
1.13547e-05
1.62881e-05
1.7801e-05
7.39694e-06
2.60684e-06
2.37411e-07
2.21356e-07
3.16434e-06
8.63979e-06
2.08982e-05
3.32435e-05
3.60679e-05
3.39201e-05
3.03637e-05
2.71928e-05
2.49935e-05
2.3751e-05
2.33194e-05
2.3474e-05
2.39971e-05
2.46903e-05
2.5349e-05
2.57418e-05
2.56144e-05
2.47452e-05
2.30667e-05
2.07503e-05
1.81707e-05
1.56179e-05
1.32679e-05
1.12732e-05
9.75107e-06
8.79437e-06
8.53243e-06
9.27365e-06
1.17387e-05
1.67337e-05
1.80464e-05
7.47832e-06
2.62978e-06
2.39101e-07
2.23874e-07
3.16867e-06
8.6745e-06
2.10226e-05
3.32298e-05
3.5801e-05
3.34877e-05
2.98863e-05
2.67659e-05
2.46602e-05
2.35214e-05
2.31911e-05
2.34361e-05
2.40384e-05
2.47999e-05
2.55142e-05
2.59461e-05
2.58388e-05
2.49734e-05
2.32936e-05
2.09858e-05
1.84288e-05
1.58882e-05
1.35413e-05
1.15451e-05
1.00205e-05
9.06501e-06
8.81568e-06
9.59503e-06
1.21354e-05
1.7189e-05
1.82904e-05
7.5598e-06
2.65285e-06
2.40815e-07
2.2628e-07
3.1724e-06
8.70789e-06
2.11435e-05
3.32022e-05
3.55145e-05
3.30362e-05
2.93969e-05
2.63343e-05
2.43278e-05
2.32984e-05
2.30702e-05
2.34049e-05
2.40851e-05
2.49127e-05
2.5679e-05
2.61455e-05
2.60535e-05
2.51884e-05
2.35063e-05
2.12084e-05
1.8675e-05
1.61476e-05
1.38057e-05
1.18102e-05
1.02859e-05
9.33481e-06
9.10218e-06
9.92466e-06
1.25436e-05
1.76531e-05
1.85312e-05
7.64048e-06
2.6759e-06
2.42531e-07
2.28593e-07
3.17576e-06
8.74068e-06
2.12628e-05
3.3162e-05
3.52088e-05
3.25666e-05
2.88968e-05
2.58993e-05
2.39968e-05
2.30804e-05
2.29556e-05
2.33806e-05
2.41385e-05
2.50303e-05
2.58453e-05
2.63418e-05
2.62606e-05
2.53928e-05
2.37082e-05
2.14221e-05
1.89121e-05
1.63983e-05
1.40624e-05
1.20695e-05
1.05477e-05
9.60375e-06
9.39122e-06
1.02613e-05
1.29625e-05
1.81222e-05
1.87671e-05
7.71986e-06
2.69894e-06
2.44246e-07
2.30803e-07
3.17858e-06
8.77242e-06
2.13793e-05
3.31071e-05
3.48812e-05
3.20761e-05
2.83838e-05
2.54595e-05
2.36662e-05
2.28666e-05
2.28479e-05
2.33648e-05
2.42007e-05
2.51555e-05
2.6016e-05
2.65381e-05
2.6463e-05
2.55896e-05
2.39028e-05
2.16316e-05
1.91429e-05
1.66417e-05
1.43123e-05
1.23232e-05
1.08061e-05
9.87198e-06
9.68293e-06
1.0605e-05
1.33924e-05
1.85979e-05
1.89991e-05
7.79836e-06
2.72209e-06
2.45967e-07
2.32923e-07
3.18104e-06
8.80365e-06
2.14942e-05
3.30381e-05
3.45318e-05
3.15656e-05
2.78592e-05
2.50157e-05
2.33364e-05
2.26566e-05
2.27462e-05
2.33569e-05
2.42717e-05
2.5289e-05
2.61927e-05
2.67363e-05
2.66628e-05
2.5781e-05
2.40928e-05
2.18394e-05
1.93698e-05
1.68794e-05
1.45561e-05
1.25719e-05
1.1061e-05
1.01389e-05
9.97639e-06
1.09544e-05
1.38313e-05
1.90775e-05
1.92252e-05
7.87543e-06
2.74526e-06
2.4769e-07
2.34946e-07
3.18301e-06
8.83392e-06
2.16062e-05
3.29528e-05
3.41582e-05
3.10332e-05
2.73222e-05
2.45675e-05
2.30071e-05
2.24506e-05
2.26511e-05
2.33577e-05
2.43526e-05
2.54325e-05
2.63775e-05
2.6939e-05
2.68629e-05
2.59696e-05
2.42797e-05
2.2046e-05
1.95935e-05
1.71126e-05
1.47951e-05
1.28162e-05
1.13129e-05
1.0405e-05
1.02721e-05
1.13098e-05
1.42782e-05
1.95587e-05
1.94458e-05
7.95098e-06
2.76823e-06
2.49409e-07
2.36884e-07
3.18461e-06
8.86357e-06
2.1716e-05
3.28515e-05
3.37609e-05
3.04806e-05
2.67747e-05
2.41163e-05
2.26788e-05
2.22479e-05
2.25616e-05
2.3366e-05
2.44429e-05
2.55859e-05
2.65712e-05
2.71478e-05
2.70653e-05
2.61577e-05
2.44652e-05
2.22518e-05
1.98149e-05
1.73426e-05
1.50306e-05
1.30572e-05
1.15622e-05
1.06699e-05
1.05688e-05
1.16696e-05
1.47316e-05
2.00397e-05
1.96597e-05
8.02467e-06
2.79088e-06
2.51114e-07
2.38725e-07
3.18568e-06
8.89203e-06
2.18219e-05
3.27317e-05
3.33381e-05
2.99073e-05
2.62172e-05
2.36625e-05
2.23517e-05
2.20489e-05
2.24775e-05
2.33816e-05
2.45421e-05
2.57491e-05
2.67743e-05
2.7364e-05
2.7272e-05
2.63474e-05
2.46511e-05
2.24573e-05
2.00344e-05
1.75699e-05
1.52633e-05
1.3296e-05
1.18103e-05
1.09351e-05
1.08682e-05
1.20345e-05
1.51908e-05
2.0519e-05
1.98673e-05
8.09651e-06
2.81321e-06
2.52805e-07
2.40477e-07
3.18627e-06
8.91934e-06
2.19239e-05
3.25935e-05
3.28904e-05
2.93153e-05
2.56518e-05
2.32077e-05
2.20267e-05
2.18533e-05
2.2398e-05
2.34033e-05
2.46488e-05
2.59209e-05
2.69858e-05
2.75872e-05
2.74838e-05
2.65405e-05
2.48398e-05
2.26643e-05
2.02537e-05
1.77958e-05
1.54945e-05
1.35331e-05
1.20569e-05
1.11992e-05
1.11676e-05
1.24029e-05
1.56544e-05
2.09951e-05
2.00682e-05
8.1664e-06
2.83516e-06
2.54476e-07
2.42131e-07
3.18624e-06
8.94491e-06
2.20201e-05
3.24347e-05
3.2417e-05
2.87054e-05
2.50799e-05
2.27529e-05
2.17044e-05
2.16613e-05
2.23228e-05
2.34301e-05
2.4762e-05
2.61001e-05
2.72051e-05
2.78175e-05
2.77015e-05
2.67388e-05
2.50335e-05
2.2874e-05
2.04734e-05
1.80211e-05
1.57245e-05
1.37696e-05
1.23036e-05
1.14655e-05
1.14726e-05
1.27758e-05
1.61216e-05
2.14669e-05
2.02628e-05
8.23446e-06
2.85675e-06
2.56127e-07
2.4369e-07
3.18557e-06
8.96858e-06
2.21102e-05
3.22553e-05
3.19188e-05
2.80796e-05
2.45033e-05
2.22997e-05
2.13858e-05
2.14733e-05
2.22513e-05
2.3461e-05
2.48798e-05
2.62848e-05
2.74305e-05
2.8054e-05
2.79257e-05
2.69448e-05
2.52363e-05
2.30895e-05
2.06956e-05
1.82469e-05
1.59546e-05
1.40061e-05
1.25514e-05
1.17345e-05
1.17824e-05
1.31538e-05
1.65922e-05
2.19339e-05
2.04516e-05
8.30079e-06
2.87797e-06
2.57757e-07
2.45144e-07
3.18408e-06
8.98951e-06
2.21918e-05
3.20534e-05
3.13951e-05
2.74387e-05
2.3923e-05
2.18487e-05
2.10721e-05
2.12898e-05
2.21834e-05
2.3495e-05
2.50013e-05
2.64739e-05
2.76606e-05
2.82957e-05
2.81561e-05
2.71596e-05
2.54508e-05
2.33125e-05
2.09214e-05
1.84742e-05
1.61853e-05
1.42437e-05
1.2801e-05
1.20066e-05
1.20968e-05
1.3537e-05
1.7066e-05
2.23959e-05
2.06357e-05
8.36565e-06
2.89885e-06
2.59369e-07
2.46497e-07
3.18176e-06
9.00754e-06
2.22647e-05
3.18291e-05
3.08467e-05
2.6784e-05
2.33397e-05
2.14e-05
2.0766e-05
2.11116e-05
2.21184e-05
2.35314e-05
2.51254e-05
2.66664e-05
2.78947e-05
2.8542e-05
2.83928e-05
2.73841e-05
2.56784e-05
2.35443e-05
2.11518e-05
1.87036e-05
1.64172e-05
1.44824e-05
1.30525e-05
1.2282e-05
1.2416e-05
1.39259e-05
1.75433e-05
2.28528e-05
2.08156e-05
8.42934e-06
2.91944e-06