/*--------------------------------*- C++ -*----------------------------------*\
| =========                 |                                                 |
| \\      /  F ield         | OpenFOAM: The Open Source CFD Toolbox           |
|  \\    /   O peration     | Version:  v2006                                 |
|   \\  /    A nd           | Website:  www.openfoam.com                      |
|    \\/     M anipulation  |                                                 |
\*---------------------------------------------------------------------------*/
FoamFile
{
    version     2.0;
    format      ascii;
    class       surfaceScalarField;
    location    "79";
    object      phi;
}
// * * * * * * * * * * * * * * * * * * * * * * * * * * * * * * * * * * * * * //

dimensions      [1 0 -1 0 0 0 0];
oriented        oriented;


internalField   nonuniform List<scalar> 
228225
(
1.80832e-06
-3.00628e-07
-1.25711e-08
2.18398e-06
-4.21992e-07
4.65762e-08
2.62367e-06
-5.33532e-07
9.32241e-08
3.1295e-06
-6.36402e-07
1.30118e-07
3.70365e-06
-7.32391e-07
1.57731e-07
4.3431e-06
-8.17871e-07
1.77884e-07
5.03892e-06
-8.88806e-07
1.92477e-07
5.7782e-06
-9.42763e-07
2.03003e-07
6.54579e-06
-9.78597e-07
2.10526e-07
7.3255e-06
-9.95943e-07
2.15783e-07
8.10057e-06
-9.94758e-07
2.19259e-07
8.85445e-06
-9.75532e-07
2.21263e-07
9.57164e-06
-9.3953e-07
2.21967e-07
1.0238e-05
-8.88165e-07
2.21474e-07
1.084e-05
-8.22143e-07
2.19844e-07
1.13648e-05
-7.42157e-07
2.171e-07
1.18006e-05
-6.49316e-07
2.1326e-07
1.21369e-05
-5.44861e-07
2.08344e-07
1.23644e-05
-4.30141e-07
2.02387e-07
1.24755e-05
-3.06671e-07
1.95434e-07
1.24641e-05
-1.76231e-07
1.87545e-07
1.23273e-05
-4.21032e-08
1.78804e-07
1.20567e-05
1.013e-07
1.69329e-07
1.16507e-05
2.46664e-07
1.59314e-07
1.11125e-05
3.89302e-07
1.49035e-07
1.04478e-05
5.26001e-07
1.38875e-07
9.66534e-06
6.53365e-07
1.29287e-07
8.77582e-06
7.69025e-07
1.20784e-07
7.79104e-06
8.71357e-07
1.13786e-07
6.71861e-06
9.64283e-07
1.08575e-07
5.54775e-06
1.06647e-06
1.0491e-07
4.23039e-06
1.21721e-06
1.00765e-07
2.70899e-06
1.43163e-06
9.03836e-08
1.08664e-06
1.55764e-06
6.51669e-08
1.06509e-06
2.1718e-08
1.41873e-07
-4.52127e-07
9.56316e-09
5.67114e-07
-9.12314e-07
6.53518e-08
1.20384e-06
-1.28038e-06
1.09849e-07
2.00518e-06
-1.57974e-06
1.42009e-07
2.92234e-06
-1.81462e-06
1.64958e-07
3.91141e-06
-1.98878e-06
1.81653e-07
4.93552e-06
-2.10739e-06
1.94283e-07
5.96424e-06
-2.17599e-06
2.04316e-07
6.97244e-06
-2.19968e-06
2.12675e-07
7.93929e-06
-2.18294e-06
2.19904e-07
8.84761e-06
-2.12966e-06
2.26299e-07
9.68316e-06
-2.04334e-06
2.31976e-07
1.04344e-05
-1.92786e-06
2.36787e-07
1.10929e-05
-1.78744e-06
2.40497e-07
1.16518e-05
-1.62452e-06
2.4312e-07
1.21049e-05
-1.44033e-06
2.44737e-07
1.24467e-05
-1.23673e-06
2.45337e-07
1.26724e-05
-1.01579e-06
2.44886e-07
1.27784e-05
-7.79829e-07
2.43344e-07
1.27625e-05
-5.31649e-07
2.40608e-07
1.26231e-05
-2.73778e-07
2.36569e-07
1.23594e-05
-9.75109e-09
2.31103e-07
1.19718e-05
2.6459e-07
2.2408e-07
1.14626e-05
5.4032e-07
2.15385e-07
1.08323e-05
8.14571e-07
2.04926e-07
1.00842e-05
1.08133e-06
1.92639e-07
9.22377e-06
1.33504e-06
1.78837e-07
8.2575e-06
1.57122e-06
1.64216e-07
7.19108e-06
1.78852e-06
1.49496e-07
6.02383e-06
1.9964e-06
1.35465e-07
4.746e-06
2.22209e-06
1.22585e-07
3.35605e-06
2.49759e-06
1.09932e-07
1.92172e-06
2.77269e-06
9.35166e-08
6.49022e-07
2.76366e-06
6.6675e-08
1.68967e-06
2.41543e-08
1.16427e-07
-5.96996e-07
2.82148e-08
5.57795e-07
-1.43883e-06
8.56587e-08
1.24529e-06
-2.08996e-06
1.22229e-07
2.09391e-06
-2.5732e-06
1.44825e-07
3.02701e-06
-2.90666e-06
1.59048e-07
3.98732e-06
-3.11761e-06
1.68647e-07
4.93758e-06
-3.23343e-06
1.75861e-07
5.85425e-06
-3.27451e-06
1.81905e-07
6.72181e-06
-3.25459e-06
1.87389e-07
7.52953e-06
-3.1832e-06
1.92586e-07
8.2696e-06
-3.06728e-06
1.97605e-07
8.93591e-06
-2.91208e-06
2.02481e-07
9.52286e-06
-2.72195e-06
2.07184e-07
1.00247e-05
-2.5009e-06
2.11656e-07
1.04363e-05
-2.25203e-06
2.15952e-07
1.07536e-05
-1.97778e-06
2.20159e-07
1.09736e-05
-1.68093e-06
2.24273e-07
1.10939e-05
-1.36439e-06
2.28249e-07
1.11133e-05
-1.03121e-06
2.31957e-07
1.10313e-05
-6.84762e-07
2.35136e-07
1.0848e-05
-3.28044e-07
2.37521e-07
1.05661e-05
3.3254e-08
2.3889e-07
1.01791e-05
4.12654e-07
2.38903e-07
9.69038e-06
7.91894e-07
2.37093e-07
9.10133e-06
1.17069e-06
2.32912e-07
8.41434e-06
1.54251e-06
2.25821e-07
7.63456e-06
1.89942e-06
2.15461e-07
6.76902e-06
2.23512e-06
2.01764e-07
5.8221e-06
2.55059e-06
1.85033e-07
4.79229e-06
2.86061e-06
1.65832e-07
3.67704e-06
3.1929e-06
1.44679e-07
2.50136e-06
3.55164e-06
1.21774e-07
1.36185e-06
3.81562e-06
9.65291e-08
4.23167e-07
3.63613e-06
6.58928e-08
2.08805e-06
2.41693e-08
1.77883e-07
-8.07355e-07
3.22989e-08
6.51055e-07
-1.99123e-06
7.97235e-08
1.3189e-06
-2.86377e-06
1.06044e-07
2.08668e-06
-3.46226e-06
1.21251e-07
2.87935e-06
-3.8303e-06
1.31028e-07
3.65459e-06
-4.03095e-06
1.38199e-07
4.39426e-06
-4.11701e-06
1.43953e-07
5.09138e-06
-4.12033e-06
1.48709e-07
5.74268e-06
-4.05852e-06
1.52614e-07
6.34566e-06
-3.94192e-06
1.55746e-07
6.89767e-06
-3.77752e-06
1.58234e-07
7.39534e-06
-3.57001e-06
1.60278e-07
7.83399e-06
-3.32271e-06
1.62118e-07
8.2077e-06
-3.03863e-06
1.64024e-07
8.51045e-06
-2.72107e-06
1.66275e-07
8.73731e-06
-2.37379e-06
1.69151e-07
8.88461e-06
-2.00111e-06
1.72894e-07
8.95019e-06
-1.60762e-06
1.77661e-07
8.93321e-06
-1.19775e-06
1.83536e-07
8.83338e-06
-7.75383e-07
1.90476e-07
8.65059e-06
-3.43505e-07
1.98281e-07
8.3814e-06
9.58804e-08
2.0659e-07
8.03817e-06
5.41057e-07
2.14862e-07
7.61816e-06
9.89689e-07
2.22264e-07
7.12334e-06
1.43785e-06
2.27736e-07
6.55652e-06
1.87934e-06
2.30072e-07
5.92128e-06
2.30664e-06
2.28125e-07
5.22038e-06
2.71507e-06
2.21097e-07
4.45312e-06
3.10932e-06
2.08691e-07
3.61541e-06
3.50759e-06
1.90905e-07
2.71093e-06
3.92973e-06
1.67777e-07
1.7811e-06
4.3416e-06
1.39885e-07
9.19793e-07
4.56789e-06
1.08828e-07
2.5709e-07
4.2247e-06
7.36395e-08
2.31658e-06
2.77689e-08
1.56593e-07
-9.91953e-07
2.81225e-08
5.59452e-07
-2.45827e-06
6.40938e-08
1.11e-06
-3.49796e-06
8.3889e-08
1.7216e-06
-4.16997e-06
9.62719e-08
2.33802e-06
-4.55146e-06
1.04767e-07
2.93601e-06
-4.7394e-06
1.10461e-07
3.50994e-06
-4.80446e-06
1.13555e-07
4.05894e-06
-4.78342e-06
1.14139e-07
4.58186e-06
-4.6939e-06
1.12515e-07
5.07614e-06
-4.54533e-06
1.09172e-07
5.53733e-06
-4.34333e-06
1.04652e-07
5.95882e-06
-4.09101e-06
9.95297e-08
6.33239e-06
-3.79065e-06
9.44001e-08
6.64912e-06
-3.44518e-06
8.98567e-08
6.90063e-06
-3.05903e-06
8.64835e-08
7.08044e-06
-2.6384e-06
8.48328e-08
7.18479e-06
-2.19081e-06
8.5372e-08
7.21296e-06
-1.72423e-06
8.84589e-08
7.16698e-06
-1.24606e-06
9.43196e-08
7.05086e-06
-7.62263e-07
1.03033e-07
6.86969e-06
-2.76798e-07
1.14494e-07
6.62892e-06
2.08305e-07
1.28384e-07
6.33356e-06
6.92351e-07
1.44123e-07
5.98737e-06
1.17514e-06
1.60792e-07
5.5927e-06
1.65552e-06
1.77078e-07
5.1502e-06
2.13063e-06
1.91291e-07
4.65838e-06
2.597e-06
2.01555e-07
4.11275e-06
3.05466e-06
2.06146e-07
3.50571e-06
3.51273e-06
2.03751e-07
2.83075e-06
3.98927e-06
1.93381e-07
2.09725e-06
4.48886e-06
1.74405e-07
1.35474e-06
4.93645e-06
1.47515e-07
6.82585e-07
5.12445e-06
1.15228e-07
1.83554e-07
4.64563e-06
7.74569e-08
2.47069e-06
2.85165e-08
1.46171e-07
-1.16003e-06
2.19615e-08
4.89798e-07
-2.85292e-06
5.10114e-08
9.40448e-07
-4.01736e-06
6.90018e-08
1.43126e-06
-4.74203e-06
8.14199e-08
1.92374e-06
-5.13367e-06
8.97594e-08
2.40489e-06
-5.31486e-06
9.43095e-08
2.8726e-06
-5.36737e-06
9.52383e-08
3.32619e-06
-5.32985e-06
9.29132e-08
3.76373e-06
-5.21921e-06
8.78405e-08
4.18159e-06
-5.04366e-06
8.05444e-08
4.57377e-06
-4.80699e-06
7.15365e-08
4.93194e-06
-4.51053e-06
6.13798e-08
5.24651e-06
-4.15589e-06
5.07064e-08
5.50798e-06
-3.74677e-06
4.01917e-08
5.70849e-06
-3.29001e-06
3.05341e-08
5.84306e-06
-2.79534e-06
2.24452e-08
5.91001e-06
-2.27432e-06
1.66249e-08
5.91074e-06
-1.73864e-06
1.37551e-08
5.84919e-06
-1.19886e-06
1.44095e-08
5.73115e-06
-6.63123e-07
1.89585e-08
5.56341e-06
-1.36563e-07
2.75792e-08
5.35329e-06
3.78216e-07
4.02809e-08
5.10721e-06
8.81661e-07
5.68536e-08
4.82993e-06
1.37577e-06
7.67327e-08
4.52349e-06
1.86327e-06
9.87594e-08
4.1862e-06
2.34683e-06
1.2118e-07
3.81174e-06
2.82974e-06
1.41815e-07
3.38919e-06
3.31899e-06
1.58322e-07
2.9053e-06
3.82835e-06
1.68363e-07
2.35192e-06
4.37308e-06
1.69627e-07
1.74185e-06
4.93883e-06
1.60084e-07
1.12535e-06
5.41343e-06
1.39308e-07
5.68403e-07
5.57129e-06
1.09665e-07
1.56912e-07
4.98418e-06
7.22569e-08
2.60193e-06
2.46968e-08
1.14417e-07
-1.29148e-06
1.72656e-08
3.8772e-07
-3.16801e-06
4.17958e-08
7.50695e-07
-4.4393e-06
5.892e-08
1.15201e-06
-5.21495e-06
7.16715e-08
1.56132e-06
-5.62326e-06
8.03892e-08
1.96708e-06
-5.80564e-06
8.50922e-08
2.366e-06
-5.85227e-06
8.60262e-08
2.75606e-06
-5.80355e-06
8.3654e-08
3.13462e-06
-5.67627e-06
7.85221e-08
3.49718e-06
-5.47729e-06
7.10854e-08
3.83719e-06
-5.20862e-06
6.1661e-08
4.1466e-06
-4.8705e-06
5.05991e-08
4.41678e-06
-4.46443e-06
3.84066e-08
4.63975e-06
-3.99545e-06
2.57421e-08
4.80952e-06
-3.47301e-06
1.32563e-08
4.92313e-06
-2.9101e-06
1.18678e-09
4.97864e-06
-2.32169e-06
-8.10559e-09
4.97866e-06
-1.72261e-06
-1.60011e-08
4.92714e-06
-1.12605e-06
-2.12452e-08
4.82938e-06
-5.42244e-07
-2.30593e-08
4.69052e-06
2.31467e-08
-2.0793e-08
4.51918e-06
5.63581e-07
-1.39621e-08
4.32037e-06
1.08285e-06
-2.31153e-09
4.0985e-06
1.58355e-06
1.41566e-08
3.85497e-06
2.07192e-06
3.49486e-08
3.58687e-06
2.55615e-06
5.88395e-08
3.28601e-06
3.04679e-06
8.38795e-08
2.93918e-06
3.55834e-06
1.07533e-07
2.53156e-06
4.10928e-06
1.26747e-07
2.05541e-06
4.71124e-06
1.37987e-07
1.525e-06
5.3314e-06
1.37747e-07
9.87479e-07
5.82656e-06
1.24097e-07
5.00322e-07
5.95917e-06
9.87548e-08
1.40965e-07
5.27891e-06
6.38704e-08
2.72142e-06
2.04541e-08
9.73925e-08
-1.40312e-06
1.44647e-08
3.28327e-07
-3.43711e-06
3.81566e-08
6.37464e-07
-4.80507e-06
5.66083e-08
9.83345e-07
-5.63163e-06
7.08808e-08
1.34002e-06
-6.06054e-06
8.07215e-08
1.6966e-06
-6.24827e-06
8.61336e-08
2.04935e-06
-6.29248e-06
8.74998e-08
2.39582e-06
-6.23542e-06
8.54224e-08
2.73278e-06
-6.0937e-06
8.05006e-08
3.05557e-06
-5.87323e-06
7.31981e-08
3.35806e-06
-5.57481e-06
6.37701e-08
3.63311e-06
-5.19795e-06
5.24659e-08
3.87348e-06
-4.74446e-06
3.97309e-08
4.07293e-06
-4.22094e-06
2.60977e-08
4.22688e-06
-3.63905e-06
1.21459e-08
4.33264e-06
-3.01432e-06
-1.48866e-09
4.38946e-06
-2.36421e-06
-1.42312e-08
4.39869e-06
-1.70616e-06
-2.56214e-08
4.36358e-06
-1.05574e-06
-3.51224e-08
4.28873e-06
-4.25296e-07
-4.20178e-08
4.18087e-06
1.76613e-07
-4.55353e-08
4.04383e-06
7.45618e-07
-4.4936e-08
3.88433e-06
1.28203e-06
-3.96067e-08
3.70612e-06
1.79092e-06
-2.91048e-08
3.50956e-06
2.28168e-06
-1.31461e-08
3.29028e-06
2.76754e-06
7.95741e-09
3.03872e-06
3.26566e-06
3.27511e-08
2.74018e-06
3.79743e-06
5.94987e-08
2.37913e-06
4.38555e-06
8.48101e-08
1.94804e-06
5.03812e-06
1.04185e-07
1.46082e-06
5.70585e-06
1.12628e-07
9.60433e-07
6.22008e-06
1.06519e-07
4.9887e-07
6.33368e-06
8.64846e-08
1.48084e-07
5.57355e-06
5.53576e-08
2.8516e-06
1.68467e-08
8.68266e-08
-1.50337e-06
1.34372e-08
2.96499e-07
-3.68314e-06
3.65498e-08
5.79793e-07
-5.14323e-06
5.49798e-08
8.98667e-07
-6.01975e-06
6.92651e-08
1.22875e-06
-6.46988e-06
7.92723e-08
1.55919e-06
-6.66389e-06
8.52124e-08
1.88563e-06
-6.70643e-06
8.75539e-08
2.20513e-06
-6.64172e-06
8.68598e-08
2.51428e-06
-6.48643e-06
8.36317e-08
2.80865e-06
-6.24577e-06
7.82078e-08
3.08286e-06
-5.91974e-06
7.07497e-08
3.33106e-06
-5.50749e-06
6.13793e-08
3.54766e-06
-5.01137e-06
5.03425e-08
3.72804e-06
-4.43925e-06
3.79633e-08
3.86883e-06
-3.80444e-06
2.4651e-08
3.96786e-06
-3.12422e-06
1.09214e-08
4.02416e-06
-2.41778e-06
-2.67187e-09
4.03854e-06
-1.70436e-06
-1.61236e-08
4.01286e-06
-1.00151e-06
-2.84921e-08
3.95048e-06
-3.23586e-07
-3.92755e-08
3.85607e-06
3.18753e-07
-4.7669e-08
3.73521e-06
9.19351e-07
-5.28118e-08
3.59337e-06
1.47778e-06
-5.38652e-08
3.43453e-06
1.99993e-06
-5.01152e-08
3.25947e-06
2.49773e-06
-4.09249e-08
3.06401e-06
2.98878e-06
-2.5728e-08
2.83793e-06
3.49609e-06
-4.30595e-09
2.56721e-06
4.04724e-06
2.09522e-08
2.23603e-06
4.66859e-06
4.81333e-08
1.83671e-06
5.36504e-06
7.23289e-08
1.38204e-06
6.07297e-06
8.73433e-08
9.11445e-07
6.60233e-06
8.79529e-08
4.74112e-07
6.69692e-06
7.34696e-08
1.40972e-07
5.85897e-06
4.68806e-08
2.97786e-06
1.36145e-08
7.9236e-08
-1.59606e-06
1.34816e-08
2.72268e-07
-3.91344e-06
3.74605e-08
5.34648e-07
-5.46247e-06
5.69562e-08
8.30866e-07
-6.38807e-06
7.21136e-08
1.13798e-06
-6.85973e-06
8.27361e-08
1.44566e-06
-7.06059e-06
8.906e-08
1.74963e-06
-7.10202e-06
9.16898e-08
2.04687e-06
-7.03027e-06
9.13746e-08
2.33393e-06
-6.86217e-06
8.87456e-08
2.60649e-06
-6.60247e-06
8.41967e-08
2.85959e-06
-6.2507e-06
7.79025e-08
3.08815e-06
-5.80598e-06
6.9977e-08
3.28762e-06
-5.27139e-06
6.0585e-08
3.45447e-06
-4.65595e-06
4.99051e-08
3.58627e-06
-3.97433e-06
3.81485e-08
3.68157e-06
-3.24504e-06
2.55926e-08
3.73971e-06
-2.48848e-06
1.26252e-08
3.76035e-06
-1.72508e-06
1.51206e-10
3.74611e-06
-9.73663e-07
-1.35494e-08
3.69881e-06
-2.50203e-07
-2.60188e-08
3.6219e-06
4.32839e-07
-3.71109e-08
3.51975e-06
1.06757e-06
-4.60111e-08
3.39681e-06
1.65262e-06
-5.18226e-08
3.25627e-06
2.1942e-06
-5.36713e-08
3.09872e-06
2.70607e-06
-5.07279e-08
2.92037e-06
3.20923e-06
-4.20449e-08
2.71191e-06
3.73139e-06
-2.68058e-08
2.45876e-06
4.30515e-06
-4.7444e-09
2.14678e-06
4.95981e-06
2.07348e-08
1.76846e-06
5.69695e-06
4.63028e-08
1.33565e-06
6.44023e-06
6.53075e-08
8.84887e-07
6.98144e-06
7.12076e-08
4.62796e-07
7.05645e-06
6.19054e-08
1.38723e-07
6.14218e-06
3.99949e-08
3.10397e-06
1.14833e-08
7.91016e-08
-1.68864e-06
1.35479e-08
2.69075e-07
-4.1409e-06
3.75192e-08
5.24876e-07
-5.775e-06
5.68233e-08
8.11086e-07
-6.74586e-06
7.16879e-08
1.10551e-06
-7.23628e-06
8.21984e-08
1.3986e-06
-7.44238e-06
8.87435e-08
1.68646e-06
-7.48176e-06
9.19109e-08
1.96626e-06
-7.40242e-06
9.23714e-08
2.23476e-06
-7.22132e-06
9.06976e-08
2.48799e-06
-6.94292e-06
8.72663e-08
2.72152e-06
-6.56644e-06
8.2262e-08
2.93102e-06
-6.09123e-06
7.57993e-08
3.11281e-06
-5.52112e-06
6.79992e-08
3.26417e-06
-4.86623e-06
5.89668e-08
3.38338e-06
-4.14229e-06
4.88156e-08
3.46945e-06
-3.36875e-06
3.76986e-08
3.52204e-06
-2.56686e-06
2.58431e-08
3.54132e-06
-1.75788e-06
1.35728e-08
3.52783e-06
-9.61623e-07
1.52067e-09
3.48451e-06
-1.95235e-07
-1.15804e-08
3.41394e-06
5.27188e-07
-2.37162e-08
3.31982e-06
1.19624e-06
-3.44884e-08
3.20587e-06
1.80973e-06
-4.31072e-08
3.07478e-06
2.37405e-06
-4.87046e-08
2.92687e-06
2.90446e-06
-5.04194e-08
2.75863e-06
3.4247e-06
-4.71885e-08
2.56156e-06
3.96626e-06
-3.77717e-08
2.32241e-06
4.56562e-06
-2.13191e-08
2.02621e-06
5.25397e-06
1.98293e-09
1.66807e-06
6.02924e-06
2.57228e-08
1.25867e-06
6.80315e-06
4.61946e-08
8.32182e-07
7.35177e-06
5.5681e-08
4.328e-07
7.40433e-06
5.08004e-08
1.28329e-07
6.41234e-06
3.3386e-08
3.22165e-06
9.47332e-09
7.59093e-08
-1.77882e-06
1.4339e-08
2.58574e-07
-4.36272e-06
3.91879e-08
5.03803e-07
-6.07908e-06
5.89531e-08
7.76623e-07
-7.09259e-06
7.4012e-08
1.05591e-06
-7.60008e-06
8.45833e-08
1.333e-06
-7.81057e-06
9.11433e-08
1.60435e-06
-7.84748e-06
9.43869e-08
1.86727e-06
-7.7604e-06
9.50848e-08
2.11861e-06
-7.56648e-06
9.38588e-08
2.35461e-06
-7.26998e-06
9.11042e-08
2.57125e-06
-6.87005e-06
8.70184e-08
2.76485e-06
-6.36648e-06
8.17086e-08
2.93248e-06
-5.76395e-06
7.52586e-08
3.07218e-06
-5.07359e-06
6.77143e-08
3.18281e-06
-4.31198e-06
5.91019e-08
3.26384e-06
-3.49919e-06
4.94635e-08
3.31509e-06
-2.65695e-06
3.88983e-08
3.33671e-06
-1.80701e-06
2.75862e-08
3.3292e-06
-9.69814e-07
1.57642e-08
3.29361e-06
-1.63448e-07
3.87449e-09
3.2326e-06
5.96787e-07
-8.51347e-09
3.14897e-06
1.30014e-06
-2.01961e-08
3.04552e-06
1.94365e-06
-3.0398e-08
2.92417e-06
2.53385e-06
-3.8384e-08
2.78486e-06
3.08718e-06
-4.33618e-08
2.62428e-06
3.62963e-06
-4.43074e-08
2.43481e-06
4.19562e-06
-3.98614e-08
2.20471e-06
4.82444e-06
-2.87279e-08
1.92115e-06
5.54804e-06
-1.05732e-08
1.5788e-06
6.36008e-06
1.13468e-08
1.18961e-06
7.16084e-06
3.11777e-08
7.85423e-07
7.7129e-06
4.25428e-08
4.07349e-07
7.74062e-06
4.10483e-08
1.20284e-07
6.67087e-06
2.75825e-08
3.33296e-06
7.77574e-09
7.67249e-08
-1.87003e-06
1.46176e-08
2.57444e-07
-4.5827e-06
3.9333e-08
4.96411e-07
-6.37666e-06
5.86431e-08
7.59129e-07
-7.42846e-06
7.31963e-08
1.02571e-06
-7.95006e-06
8.34504e-08
1.28852e-06
-8.16329e-06
8.99639e-08
1.54455e-06
-8.19685e-06
9.33978e-08
1.79131e-06
-8.10158e-06
9.4471e-08
2.02586e-06
-7.89476e-06
9.37737e-08
2.24473e-06
-7.5805e-06
9.16978e-08
2.44438e-06
-7.15811e-06
8.84557e-08
2.6217e-06
-6.62793e-06
8.41652e-08
2.77447e-06
-5.99557e-06
7.89034e-08
2.90133e-06
-5.2731e-06
7.26947e-08
3.00164e-06
-4.47775e-06
6.55231e-08
3.07518e-06
-3.63002e-06
5.73637e-08
3.12194e-06
-2.75187e-06
4.82234e-08
3.1421e-06
-1.86528e-06
3.81747e-08
3.13606e-06
-9.91058e-07
2.73518e-08
3.10465e-06
-1.47961e-07
1.59914e-08
3.04936e-06
6.47603e-07
4.55297e-09
2.97278e-06
1.38389e-06
-7.09915e-09
2.87711e-06
2.05735e-06
-1.79764e-08
2.76355e-06
2.67473e-06
-2.72572e-08
2.63154e-06
3.25354e-06
-3.42916e-08
2.47773e-06
3.82161e-06
-3.81402e-08
2.29513e-06
4.41572e-06
-3.74909e-08
2.07339e-06
5.07703e-06
-3.08763e-08
1.80165e-06
5.83716e-06
-1.74768e-08
1.47511e-06
6.68469e-06
1.75136e-09
1.10747e-06
7.50875e-06
1.93732e-08
7.28151e-07
8.06039e-06
3.12687e-08
3.75022e-07
8.06079e-06
3.21911e-08
1.09553e-07
6.91323e-06
2.21233e-08
3.43515e-06
6.12405e-09
7.43217e-08
-1.9596e-06
1.53846e-08
2.49246e-07
-4.79815e-06
4.05856e-08
4.79424e-07
-6.66667e-06
5.98633e-08
7.30685e-07
-7.75387e-06
7.41779e-08
9.84142e-07
-8.28765e-06
8.41819e-08
1.23297e-06
-8.5026e-06
9.05373e-08
1.47449e-06
-8.53227e-06
9.39645e-08
1.70634e-06
-8.42859e-06
9.52121e-08
1.92572e-06
-8.20895e-06
9.48725e-08
2.12942e-06
-7.87749e-06
9.33344e-08
2.31436e-06
-7.43381e-06
9.08108e-08
2.47805e-06
-6.87899e-06
8.74145e-08
2.61891e-06
-6.21958e-06
8.32033e-08
2.73618e-06
-5.46848e-06
7.81719e-08
2.82964e-06
-4.64341e-06
7.22634e-08
2.89931e-06
-3.76503e-06
6.53973e-08
2.94522e-06
-2.85522e-06
5.75109e-08
2.96735e-06
-1.93594e-06
4.85973e-08
2.96576e-06
-1.02811e-06
3.87186e-08
2.94079e-06
-1.50966e-07
2.80428e-08
2.89336e-06
6.78222e-07
1.68789e-08
2.82488e-06
1.44672e-06
5.72304e-09
2.73701e-06
2.15052e-06
-5.22843e-09
2.63061e-06
2.79656e-06
-1.53666e-08
2.50469e-06
3.4033e-06
-2.37849e-08
2.35587e-06
4.00018e-06
-2.971e-08
2.17777e-06
4.6258e-06
-3.19631e-08
1.96142e-06
5.32243e-06
-2.90895e-08
1.69811e-06
6.12034e-06
-1.99842e-08
1.38533e-06
7.00229e-06
-5.04202e-09
1.03639e-06
7.84655e-06
1.07673e-08
6.79407e-07
8.39464e-06
2.21554e-08
3.48667e-07
8.36612e-06
2.46109e-08
1.01516e-07
7.14202e-06
1.7344e-08
3.5307e-06
4.70673e-09
7.39887e-08
-2.0492e-06
1.56646e-08
2.45149e-07
-5.00976e-06
4.05475e-08
4.67468e-07
-6.94808e-06
5.91743e-08
7.07589e-07
-8.06677e-06
7.28417e-08
9.47929e-07
-8.61034e-06
8.24019e-08
1.18263e-06
-8.82582e-06
8.85632e-08
1.40945e-06
-8.85106e-06
9.20175e-08
1.62623e-06
-8.7388e-06
9.34783e-08
1.83037e-06
-8.50655e-06
9.35134e-08
2.01895e-06
-8.15852e-06
9.2505e-08
2.18928e-06
-7.69477e-06
9.06736e-08
2.33941e-06
-7.1172e-06
8.81356e-08
2.46829e-06
-6.43335e-06
8.49463e-08
2.57564e-06
-5.65686e-06
8.10877e-08
2.66165e-06
-4.80584e-06
7.64767e-08
2.7266e-06
-3.9009e-06
7.09887e-08
2.77059e-06
-2.96365e-06
6.44958e-08
2.79353e-06
-2.01572e-06
5.69098e-08
2.79518e-06
-1.07789e-06
4.82102e-08
2.77543e-06
-1.69631e-07
3.84887e-08
2.73464e-06
6.91096e-07
2.79839e-08
2.67365e-06
1.49071e-06
1.70706e-08
2.59326e-06
2.22472e-06
6.26548e-09
2.49371e-06
2.90023e-06
-4.06244e-09
2.37389e-06
3.53659e-06
-1.34323e-08
2.2303e-06
4.16462e-06
-2.08139e-08
2.05701e-06
4.82431e-06
-2.52257e-08
1.84633e-06
5.55838e-06
-2.53177e-08
1.59153e-06
6.39489e-06
-1.98772e-08
1.29238e-06
7.31011e-06
-8.91487e-09
9.622e-07
8.17173e-06
4.5858e-09
6.27866e-07
8.71358e-06
1.4778e-08
3.20247e-07
8.65484e-06
1.8072e-08
9.25204e-08
7.35562e-06
1.30866e-08
3.6185e-06
3.43838e-09
7.15062e-08
-2.13687e-06
1.62106e-08
2.36865e-07
-5.21617e-06
4.11568e-08
4.50743e-07
-7.22127e-06
5.94092e-08
6.80306e-07
-8.36886e-06
7.2591e-08
9.08884e-07
-8.92063e-06
8.17457e-08
1.13125e-06
-9.13581e-06
8.7665e-08
1.34539e-06
-9.15621e-06
9.10651e-08
1.54925e-06
-9.03527e-06
9.26547e-08
1.74037e-06
-8.7906e-06
9.29856e-08
1.91611e-06
-8.42663e-06
9.24305e-08
2.07417e-06
-7.94398e-06
9.12086e-08
2.21309e-06
-7.34549e-06
8.94319e-08
2.33233e-06
-6.63967e-06
8.71422e-08
2.43207e-06
-5.84086e-06
8.43089e-08
2.51287e-06
-4.96741e-06
8.08303e-08
2.57521e-06
-4.03972e-06
7.65529e-08
2.61924e-06
-3.07892e-06
7.13051e-08
2.64469e-06
-2.10604e-06
6.49384e-08
2.65096e-06
-1.14145e-06
5.73629e-08
2.63739e-06
-2.04579e-07
4.85957e-08
2.60364e-06
6.86124e-07
3.8803e-08
2.54985e-06
1.51628e-06
2.82988e-08
2.4763e-06
2.28083e-06
1.7511e-08
2.3827e-06
2.98694e-06
6.95829e-09
2.26749e-06
3.65468e-06
-2.8318e-09
2.12747e-06
4.31605e-06
-1.1379e-08
1.95718e-06
5.01209e-06
-1.74971e-08
1.75018e-06
5.78535e-06
-2.00168e-08
1.50163e-06
6.66102e-06
-1.77247e-08
1.21343e-06
7.60838e-06
-1.03251e-08
8.99277e-07
8.4848e-06
6.5344e-10
5.84759e-07
9.01833e-06
9.13388e-09
2.97271e-07
8.92876e-06
1.27207e-08
8.57242e-08
7.55657e-06
9.52964e-09
3.70051e-06
2.41926e-09
7.06715e-08
-2.22384e-06
1.63977e-08
2.3147e-07
-5.41775e-06
4.08424e-08
4.37185e-07
-7.48524e-06
5.83132e-08
6.56027e-07
-8.6584e-06
7.07634e-08
8.7253e-07
-9.21647e-06
7.94044e-08
1.08222e-06
-9.43049e-06
8.50527e-08
1.28338e-06
-9.44572e-06
8.83978e-08
1.47413e-06
-9.31609e-06
9.0116e-08
1.65219e-06
-9.05933e-06
9.07336e-08
1.81516e-06
-8.68015e-06
9.06133e-08
1.9611e-06
-8.17984e-06
8.99775e-08
2.08892e-06
-7.5622e-06
8.89412e-08
2.19849e-06
-6.83673e-06
8.75433e-08
2.29039e-06
-6.01844e-06
8.57448e-08
2.36547e-06
-5.12586e-06
8.34294e-08
2.42451e-06
-4.17911e-06
8.04189e-08
2.46778e-06
-3.19862e-06
7.64996e-08
2.49497e-06
-2.20462e-06
7.1462e-08
2.50522e-06
-1.21676e-06
6.51424e-08
2.49739e-06
-2.54156e-07
5.74773e-08
2.47048e-06
6.6456e-07
4.85546e-08
2.42387e-06
1.52434e-06
3.863e-08
2.35718e-06
2.31949e-06
2.8096e-08
2.2697e-06
3.05707e-06
1.74246e-08
2.1596e-06
3.75767e-06
7.15147e-09
2.02354e-06
4.45422e-06
-2.07562e-09
1.85672e-06
5.18845e-06
-9.55528e-09
1.6538e-06
6.00225e-06
-1.40446e-08
1.41174e-06
6.91733e-06
-1.44045e-08
1.13439e-06
7.89559e-06
-1.01387e-08
8.36631e-07
8.7845e-06
-2.40022e-09
5.41433e-07
9.308e-06
4.86967e-09
2.7376e-07
9.1872e-06
8.36177e-09
7.84829e-08
7.74421e-06
6.55749e-09
3.7761e-06
1.58482e-09
6.81809e-08
-2.30864e-06
1.67093e-08
2.23296e-07
-5.61367e-06
4.08575e-08
4.21076e-07
-7.74066e-06
5.77082e-08
6.30396e-07
-8.93716e-06
6.95221e-08
8.36599e-07
-9.50028e-06
7.76768e-08
1.03567e-06
-9.71254e-06
8.30412e-08
1.22604e-06
-9.72234e-06
8.63007e-08
1.40592e-06
-9.58402e-06
8.81072e-08
1.57314e-06
-9.31546e-06
8.89617e-08
1.72554e-06
-8.92171e-06
8.9214e-08
1.86147e-06
-8.4048e-06
8.9084e-08
1.9802e-06
-7.76955e-06
8.86848e-08
2.08194e-06
-7.02645e-06
8.80513e-08
2.16759e-06
-6.19117e-06
8.71413e-08
2.23834e-06
-5.28238e-06
8.5834e-08
2.29516e-06
-4.31981e-06
8.39395e-08
2.33848e-06
-3.32309e-06
8.122e-08
2.36792e-06
-2.31141e-06
7.74233e-08
2.38237e-06
-1.30347e-06
7.23233e-08
2.38024e-06
-3.17725e-07
6.57771e-08
2.35982e-06
6.27276e-07
5.77865e-08
2.31974e-06
1.51596e-06
4.85345e-08
2.25898e-06
2.34195e-06
3.83688e-08
2.17637e-06
3.11201e-06
2.77408e-08
2.06994e-06
3.84699e-06
1.71611e-08
1.93651e-06
4.58046e-06
7.21948e-09
1.7718e-06
5.35448e-06
-1.32317e-09
1.57161e-06
6.20984e-06
-7.46881e-09
1.33458e-06
7.16431e-06
-1.01109e-08
1.06631e-06
8.17218e-06
-8.62134e-09
7.82621e-07
9.07149e-06
-3.7591e-09
5.04433e-07
9.58363e-06
1.88282e-09
2.54124e-07
9.43163e-06
5.0042e-09
7.26926e-08
7.92033e-06
4.22785e-09
3.84652e-06
9.7176e-10
6.70392e-08
-2.39235e-06
1.67628e-08
2.17724e-07
-5.8045e-06
4.02323e-08
4.08073e-07
-7.98714e-06
5.61966e-08
6.07945e-07
-9.2042e-06
6.72195e-08
8.03734e-07
-9.77083e-06
7.48212e-08
9.92027e-07
-9.98066e-06
7.9879e-08
1.17149e-06
-9.98479e-06
8.30444e-08
1.34046e-06
-9.83786e-06
8.49309e-08
1.4969e-06
-9.55785e-06
8.60101e-08
1.63884e-06
-9.1502e-06
8.66181e-08
1.76485e-06
-8.61773e-06
8.69738e-08
1.87446e-06
-7.96629e-06
8.71918e-08
1.96816e-06
-7.20739e-06
8.73059e-08
2.04714e-06
-6.35736e-06
8.72726e-08
2.1129e-06
-5.43503e-06
8.69677e-08
2.1667e-06
-4.45973e-06
8.61918e-08
2.20918e-06
-3.45019e-06
8.4686e-08
2.24006e-06
-2.42437e-06
8.21604e-08
2.25809e-06
-1.39976e-06
7.83316e-08
2.26127e-06
-3.93806e-07
7.29811e-08
2.24723e-06
5.75365e-07
6.60233e-08
2.21383e-06
1.49188e-06
5.75623e-08
2.15932e-06
2.34865e-06
4.78925e-08
2.08201e-06
3.15194e-06
3.74412e-08
1.97974e-06
3.92261e-06
2.67083e-08
1.84945e-06
4.69452e-06
1.62594e-08
1.68746e-06
5.50967e-06
6.78508e-09
1.49071e-06
6.40734e-06
-8.38771e-10
1.25917e-06
7.40096e-06
-5.28288e-09
1.00007e-06
8.43713e-06
-6.15798e-09
7.29903e-07
9.34496e-06
-3.79899e-09
4.68179e-07
9.84477e-06
-9.07081e-11
2.34646e-07
9.66172e-06
2.55877e-09
6.67596e-08
8.08459e-06
2.54559e-09
3.91138e-06
5.98333e-10
6.46573e-08
-2.47379e-06
1.6868e-08
2.1007e-07
-5.98958e-06
3.97558e-08
3.93304e-07
-8.22522e-06
5.49179e-08
5.84899e-07
-9.46094e-06
6.52019e-08
7.71923e-07
-1.00301e-05
7.22686e-08
9.51299e-07
-1.0237e-05
7.70176e-08
1.1218e-06
-1.02353e-05
8.00744e-08
1.28183e-06
-1.00798e-05
8.20151e-08
1.42944e-06
-9.78868e-06
8.32811e-08
1.56281e-06
-9.3677e-06
8.41924e-08
1.6807e-06
-8.82052e-06
8.49638e-08
1.78283e-06
-8.15406e-06
8.57091e-08
1.8699e-06
-7.38086e-06
8.64615e-08
1.94338e-06
-6.51795e-06
8.71806e-08
2.00501e-06
-5.58434e-06
8.77462e-08
2.05632e-06
-4.59893e-06
8.79604e-08
2.09815e-06
-3.5795e-06
8.75573e-08
2.13031e-06
-2.54268e-06
8.62226e-08
2.15147e-06
-1.50446e-06
8.36274e-08
2.1593e-06
-4.81038e-07
7.94816e-08
2.15084e-06
5.10298e-07
7.36091e-08
2.12318e-06
1.4536e-06
6.60217e-08
2.0739e-06
2.34105e-06
5.69451e-08
2.00085e-06
3.17829e-06
4.67707e-08
1.90167e-06
3.98586e-06
3.59856e-08
1.77352e-06
4.79755e-06
2.51438e-08
1.6133e-06
5.65498e-06
1.49066e-08
1.419e-06
6.59547e-06
6.09293e-09
1.1924e-06
7.62781e-06
-4.25253e-10
9.4151e-07
8.69088e-06
-3.16419e-09
6.83449e-07
9.60552e-06
-2.97268e-09
4.36374e-07
1.00922e-05
-1.07062e-09
2.17836e-07
9.87858e-06
7.97214e-10
6.18018e-08
8.23829e-06
1.25909e-09
3.97159e-06
3.1449e-10
6.33937e-08
-2.55388e-06
1.67778e-08
2.04676e-07
-6.16961e-06
3.8821e-08
3.81496e-07
-8.45498e-06
5.30068e-08
5.65233e-07
-9.70707e-06
6.24548e-08
7.43726e-07
-1.02775e-05
6.89442e-08
9.14321e-07
-1.04809e-05
7.33666e-08
1.07599e-06
-1.04732e-05
7.63035e-08
1.22725e-06
-1.03093e-05
7.82872e-08
1.36626e-06
-1.00074e-05
7.97263e-08
1.49128e-06
-9.57358e-06
8.09244e-08
1.60118e-06
-9.01244e-06
8.20928e-08
1.6958e-06
-8.33196e-06
8.33453e-08
1.77606e-06
-7.54577e-06
8.4715e-08
1.84362e-06
-6.67161e-06
8.61636e-08
1.9005e-06
-5.72873e-06
8.75743e-08
1.94853e-06
-4.73564e-06
8.87512e-08
1.98884e-06
-3.70916e-06
8.94247e-08
2.02145e-06
-2.66448e-06
8.92649e-08
2.04505e-06
-1.6159e-06
8.79071e-08
2.05707e-06
-5.7798e-07
8.50001e-08
2.05399e-06
4.33182e-07
8.02811e-08
2.03213e-06
1.40188e-06
7.36656e-08
1.98832e-06
2.31964e-06
6.52987e-08
1.91987e-06
3.19129e-06
5.55241e-08
1.82421e-06
4.03677e-06
4.48108e-08
1.69865e-06
4.88944e-06
3.37064e-08
1.54069e-06
5.79007e-06
2.28563e-08
1.34931e-06
6.77372e-06
1.30543e-08
1.12746e-06
7.84427e-06
5.20393e-09
8.8519e-07
8.93292e-06
-7.24633e-11
6.38948e-07
9.85284e-06
-1.56201e-09
4.0576e-07
1.0326e-05
-1.2671e-09
2.01456e-07
1.00824e-05
-3.40598e-10
5.6904e-08
8.38159e-06
1.94685e-10
4.02712e-06
1.18941e-10
6.12682e-08
-2.63176e-06
1.66979e-08
1.9793e-07
-6.34412e-06
3.79356e-08
3.68692e-07
-8.67684e-06
5.11857e-08
5.4559e-07
-9.94372e-06
5.9825e-08
7.16938e-07
-1.05145e-05
6.57482e-08
8.80291e-07
-1.0714e-05
6.98419e-08
1.03474e-06
-1.07003e-05
7.26445e-08
1.17889e-06
-1.05281e-05
7.46441e-08
1.31096e-06
-1.02156e-05
7.62171e-08
1.42923e-06
-9.76943e-06
7.76498e-08
1.53262e-06
-9.19491e-06
7.91492e-08
1.62109e-06
-8.5012e-06
8.08293e-08
1.69569e-06
-7.70301e-06
8.27242e-08
1.75825e-06
-6.8189e-06
8.48002e-08
1.81099e-06
-5.86834e-06
8.69487e-08
1.85597e-06
-4.86954e-06
8.89832e-08
1.8946e-06
-3.83836e-06
9.06393e-08
1.92715e-06
-2.78854e-06
9.15821e-08
1.95242e-06
-1.73252e-06
9.14223e-08
1.96772e-06
-6.82955e-07
8.97557e-08
1.96908e-06
3.45665e-07
8.62352e-08
1.95215e-06
1.33822e-06
8.0672e-08
1.91305e-06
2.28571e-06
7.31163e-08
1.84853e-06
3.19204e-06
6.3849e-08
1.75581e-06
4.07624e-06
5.33127e-08
1.63238e-06
4.97085e-06
4.20502e-08
1.47632e-06
5.91543e-06
3.07021e-08
1.28756e-06
6.94236e-06
2.00464e-08
1.0702e-06
8.05047e-06
1.09848e-08
8.3505e-07
9.16342e-06
4.34606e-09
5.9978e-07
1.00873e-05
2.91634e-10
3.79211e-07
1.05467e-05
-7.7366e-10
1.87489e-07
1.02739e-05
-6.30934e-10
5.28087e-08
8.51542e-06
-1.73217e-10
4.07855e-06
1.63823e-10
6.00357e-08
-2.70818e-06
1.64703e-08
1.93009e-07
-6.51374e-06
3.67136e-08
3.58353e-07
-8.89102e-06
4.89028e-08
5.28925e-07
-1.01709e-05
5.66676e-08
6.93624e-07
-1.07411e-05
6.20037e-08
8.50349e-07
-1.09365e-05
6.57654e-08
9.98167e-07
-1.09165e-05
6.84302e-08
1.13566e-06
-1.07359e-05
7.04365e-08
1.26112e-06
-1.04131e-05
7.21289e-08
1.37287e-06
-9.95489e-06
7.37775e-08
1.4699e-06
-9.36746e-06
7.55854e-08
1.55226e-06
-8.66115e-06
7.7667e-08
1.62108e-06
-7.85183e-06
8.00565e-08
1.67837e-06
-6.95884e-06
8.27235e-08
1.72652e-06
-6.00199e-06
8.55663e-08
1.76788e-06
-4.99922e-06
8.84074e-08
1.80413e-06
-3.96554e-06
9.09921e-08
1.83585e-06
-2.91317e-06
9.29881e-08
1.86204e-06
-1.85263e-06
9.39939e-08
1.88001e-06
-7.94411e-07
9.35662e-08
1.88546e-06
2.49012e-07
9.12842e-08
1.87339e-06
1.26351e-06
8.68564e-08
1.83917e-06
2.23979e-06
8.02273e-08
1.77894e-06
3.18074e-06
7.15995e-08
1.68963e-06
4.10424e-06
6.13755e-08
1.56884e-06
5.0416e-06
5.00881e-08
1.41518e-06
6.03072e-06
3.83782e-08
1.22947e-06
7.10099e-06
2.70193e-08
1.01686e-06
8.24602e-06
1.69121e-08
7.88959e-07
9.3821e-06
8.93722e-09
5.63327e-07
1.0309e-05
3.55052e-09
3.54683e-07
1.07544e-05
3.48135e-10
1.74696e-07
1.04534e-05
-3.82661e-10
4.90594e-08
8.64012e-06
-5.58442e-11
4.12599e-06
4.34731e-10
5.81967e-08
-2.78251e-06
1.62245e-08
1.87219e-07