/*--------------------------------*- C++ -*----------------------------------*\
| =========                 |                                                 |
| \\      /  F ield         | OpenFOAM: The Open Source CFD Toolbox           |
|  \\    /   O peration     | Version:  v2006                                 |
|   \\  /    A nd           | Website:  www.openfoam.com                      |
|    \\/     M anipulation  |                                                 |
\*---------------------------------------------------------------------------*/
FoamFile
{
    version     2.0;
    format      ascii;
    class       volScalarField;
    location    "79";
    object      T;
}
// * * * * * * * * * * * * * * * * * * * * * * * * * * * * * * * * * * * * * //

dimensions      [0 0 0 1 0 0 0];


internalField   nonuniform List<scalar> 
78750
(
300.031
300.099
300.17
300.24
300.306
300.367
300.422
300.472
300.517
300.558
300.595
300.629
300.659
300.687
300.712
300.734
300.754
300.772
300.788
300.801
300.813
300.822
300.828
300.832
300.832
300.83
300.823
300.813
300.799
300.789
300.805
300.905
301.184
301.731
302.525
300.056
300.163
300.259
300.345
300.424
300.495
300.561
300.62
300.675
300.724
300.769
300.81
300.847
300.88
300.91
300.937
300.961
300.981
300.999
301.014
301.027
301.035
301.041
301.042
301.038
301.03
301.016
300.998
300.978
300.967
300.993
301.116
301.416
301.959
302.741
300.069
300.202
300.325
300.436
300.535
300.622
300.7
300.768
300.828
300.881
300.928
300.969
301.006
301.037
301.065
301.088
301.108
301.125
301.138
301.148
301.155
301.158
301.158
301.155
301.147
301.135
301.118
301.098
301.081
301.082
301.134
301.294
301.623
302.175
302.97
300.084
300.249
300.4
300.535
300.65
300.748
300.83
300.901
300.962
301.016
301.064
301.106
301.142
301.174
301.202
301.225
301.243
301.258
301.269
301.276
301.279
301.277
301.272
301.263
301.248
301.229
301.207
301.184
301.172
301.187
301.267
301.463
301.815
302.377
303.184
300.096
300.283
300.453
300.602
300.724
300.824
300.906
300.976
301.038
301.092
301.139
301.182
301.219
301.251
301.278
301.301
301.319
301.332
301.341
301.346
301.346
301.344
301.337
301.326
301.311
301.292
301.271
301.255
301.255
301.292
301.404
301.634
302.008
302.584
303.401
300.106
300.311
300.497
300.658
300.787
300.89
300.975
301.047
301.11
301.167
301.216
301.261
301.3
301.333
301.36
301.381
301.396
301.405
301.409
301.408
301.403
301.395
301.384
301.37
301.354
301.336
301.32
301.313
301.327
301.386
301.527
301.784
302.178
302.768
303.592
300.114
300.333
300.532
300.701
300.835
300.94
301.026
301.099
301.165
301.223
301.275
301.322
301.363
301.397
301.425
301.445
301.459
301.465
301.466
301.461
301.451
301.439
301.423
301.407
301.389
301.374
301.364
301.366
301.397
301.48
301.648
301.93
302.343
302.948
303.777
300.12
300.351
300.559
300.736
300.874
300.983
301.071
301.147
301.215
301.276
301.331
301.38
301.423
301.458
301.486
301.506
301.518
301.521
301.518
301.509
301.495
301.478
301.46
301.44
301.422
301.408
301.403
301.415
301.46
301.562
301.754
302.057
302.486
303.105
303.94
300.125
300.366
300.584
300.766
300.909
301.021
301.112
301.19
301.26
301.324
301.381
301.433
301.478
301.515
301.544
301.564
301.575
301.578
301.572
301.56
301.542
301.521
301.498
301.476
301.456
301.443
301.442
301.462
301.521
301.642
301.854
302.176
302.621
303.254
304.094
300.13
300.381
300.606
300.795
300.942
301.056
301.15
301.231
301.303
301.369
301.429
301.483
301.53
301.568
301.598
301.618
301.629
301.63
301.623
301.608
301.588
301.563
301.538
301.513
301.492
301.48
301.481
301.508
301.578
301.714
301.945
302.283
302.743
303.388
304.232
300.135
300.393
300.625
300.82
300.972
301.089
301.185
301.269
301.344
301.412
301.475
301.531
301.579
301.619
301.65
301.671
301.681
301.682
301.673
301.656
301.633
301.607
301.578
301.551
301.53
301.518
301.522
301.556
301.635
301.786
302.033
302.386
302.859
303.515
304.363
300.139
300.406
300.646
300.846
301.002
301.122
301.22
301.306
301.383
301.454
301.518
301.576
301.626
301.668
301.699
301.72
301.731
301.731
301.721
301.703
301.678
301.65
301.619
301.591
301.569
301.557
301.565
301.603
301.692
301.855
302.117
302.483
302.967
303.634
304.486
300.143
300.418
300.664
300.87
301.029
301.151
301.252
301.341
301.42
301.493
301.56
301.62
301.672
301.715
301.747
301.769
301.779
301.778
301.768
301.748
301.722
301.692
301.66
301.631
301.608
301.598
301.608
301.652
301.75
301.925
302.2
302.577
303.072
303.748
304.602
300.148
300.43
300.683
300.894
301.056
301.181
301.285
301.375
301.457
301.532
301.6
301.662
301.716
301.76
301.793
301.815
301.825
301.824
301.813
301.793
301.765
301.734
301.701
301.671
301.648
301.639
301.653
301.702
301.808
301.994
302.281
302.667
303.171
303.856
304.713
300.151
300.442
300.701
300.916
301.082
301.209
301.315
301.407
301.491
301.569
301.639
301.703
301.758
301.803
301.837
301.86
301.87
301.869
301.857
301.836
301.808
301.775
301.741
301.711
301.689
301.681
301.698
301.754
301.868
302.064
302.361
302.756
303.268
303.96
304.82
300.155
300.453
300.719
300.939
301.108
301.237
301.345
301.439
301.525
301.605
301.677
301.742
301.799
301.845
301.88
301.903
301.914
301.913
301.9
301.879
301.85
301.816
301.782
301.751
301.73
301.724
301.744
301.806
301.927
302.133
302.44
302.843
303.362
304.06
304.922
300.159
300.464
300.736
300.96
301.132
301.264
301.373
301.47
301.558
301.639
301.714
301.78
301.838
301.886
301.921
301.945
301.956
301.955
301.943
301.921
301.891
301.857
301.822
301.791
301.771
301.767
301.792
301.858
301.988
302.203
302.519
302.928
303.453
304.157
305.021
300.163
300.475
300.753
300.982
301.156
301.29
301.401
301.5
301.59
301.673
301.749
301.817
301.876
301.925
301.962
301.986
301.998
301.997
301.985
301.963
301.932
301.898
301.863
301.832
301.813
301.811
301.839
301.912
302.049
302.273
302.597
303.012
303.541
304.251
305.116
300.167
300.486
300.769
301.002
301.179
301.315
301.428
301.529
301.621
301.706
301.784
301.853
301.914
301.963
302.001
302.026
302.039
302.038
302.026
302.004
301.974
301.939
301.903
301.873
301.855
301.856
301.887
301.966
302.11
302.342
302.674
303.093
303.627
304.341
305.207
300.171
300.497
300.786
301.022
301.202
301.34
301.455
301.557
301.651
301.738
301.817
301.888
301.95
302.001
302.039
302.065
302.079
302.079
302.067
302.045
302.015
301.98
301.945
301.915
301.897
301.901
301.936
302.02
302.172
302.411
302.75
303.173
303.711
304.428
305.295
300.174
300.507
300.801
301.042
301.224
301.363
301.481
301.585
301.68
301.769
301.85
301.923
301.986
302.037
302.077
302.104
302.118
302.119
302.108
302.086
302.056
302.021
301.986
301.957
301.94
301.946
301.985
302.074
302.233
302.48
302.825
303.251
303.792
304.512
305.379
300.178
300.517
300.817
301.062
301.245
301.387
301.506
301.612
301.709
301.799
301.882
301.956
302.02
302.073
302.114
302.142
302.157
302.159
302.148
302.127
302.098
302.063
302.028
301.999
301.984
301.991
302.034
302.129
302.294
302.548
302.898
303.327
303.87
304.593
305.46
300.181
300.527
300.833
301.081
301.267
301.41
301.531
301.638
301.738
301.829
301.914
301.989
302.054
302.108
302.15
302.179
302.195
302.198
302.188
302.168
302.139
302.104
302.07
302.042
302.028
302.037
302.084
302.183
302.354
302.615
302.969
303.401
303.946
304.671
305.537
300.185
300.537
300.848
301.099
301.288
301.433
301.555
301.665
301.765
301.859
301.944
302.021
302.088
302.143
302.185
302.215
302.232
302.236
302.228
302.208
302.18
302.146
302.112
302.085
302.072
302.084
302.133
302.237
302.414
302.68
303.039
303.473
304.02
304.746
305.612
300.188
300.547
300.863
301.118
301.308
301.455
301.579
301.69
301.793
301.888
301.975
302.053
302.121
302.177
302.22
302.251
302.269
302.274
302.267
302.249
302.221
302.188
302.155
302.128
302.116
302.13
302.183
302.291
302.473
302.745
303.107
303.543
304.09
304.818
305.683
300.192
300.557
300.878
301.136
301.328
301.477
301.603
301.716
301.82
301.916
302.005
302.084
302.153
302.21
302.255
302.287
302.305
302.312
302.306
302.289
302.263
302.231
302.198
302.172
302.161
302.176
302.232
302.344
302.531
302.808
303.174
303.61
304.158
304.887
305.751
300.195
300.566
300.892
301.154
301.348
301.498
301.626
301.741
301.846
301.945
302.035
302.115
302.185
302.243
302.289
302.321
302.341
302.349
302.344
302.329
302.304
302.273
302.241
302.216
302.206
302.223
302.281
302.397
302.589
302.869
303.238
303.675
304.224
304.953
305.817
300.199
300.576
300.907
301.171
301.368
301.52
301.649
301.765
301.873
301.973
302.064
302.146
302.217
302.276
302.322
302.356
302.377
302.386
302.382
302.368
302.344
302.315
302.284
302.26
302.251
302.27
302.331
302.45
302.645
302.93
303.301
303.739
304.288
305.017
305.881
300.202
300.585
300.921
301.189
301.387
301.541
301.672
301.79
301.899
302
302.093
302.176
302.248
302.308
302.356
302.39
302.412
302.422
302.42
302.407
302.385
302.357
302.328
302.304
302.297
302.317
302.38
302.502
302.701
302.99
303.362
303.8
304.349
305.079
305.942
300.205
300.594
300.935
301.206
301.407
301.562
301.695
301.814
301.925
302.028
302.122
302.207
302.28
302.341
302.389
302.424
302.447
302.458
302.457
302.446
302.426
302.399
302.371
302.349
302.342
302.364
302.429
302.554
302.757
303.048
303.422
303.86
304.409
305.139
306.002
300.208
300.603
300.949
301.223
301.426
301.583
301.717
301.839
301.951
302.056
302.151
302.237
302.311
302.373
302.421
302.458
302.482
302.494
302.494
302.484
302.466
302.441
302.414
302.393
302.388
302.411
302.478
302.606
302.812
303.106
303.481
303.919
304.468
305.197
306.06
300.212
300.612
300.963
301.24
301.445
301.604
301.74
301.863
301.977
302.083
302.18
302.267
302.342
302.404
302.454
302.491
302.516
302.529
302.531
302.523
302.506
302.482
302.457
302.438
302.434
302.458
302.527
302.657
302.866
303.162
303.539
303.976
304.525
305.255
306.117
300.215
300.622
300.976
301.257
301.464
301.624
301.762
301.887
302.003
302.11
302.209
302.297
302.373
302.436
302.487
302.524
302.55
302.564
302.567
302.56
302.545
302.524
302.5
302.482
302.48
302.506
302.576
302.709
302.92
303.219
303.596
304.033
304.58
305.31
306.172
300.218
300.631
300.99
301.274
301.483
301.645
301.784
301.911
302.029
302.138
302.238
302.327
302.404
302.468
302.519
302.558
302.584
302.599
302.603
302.598
302.584
302.565
302.543
302.527
302.526
302.553
302.625
302.76
302.973
303.274
303.652
304.088
304.635
305.365
306.227
300.221
300.64
301.004
301.291
301.501
301.665
301.807
301.935
302.055
302.165
302.267
302.357
302.435
302.5
302.551
302.591
302.618
302.634
302.639
302.635
302.623
302.605
302.586
302.571
302.571
302.601
302.674
302.811
303.027
303.329
303.708
304.143
304.689
305.419
306.28
300.224
300.649
301.018
301.308
301.52
301.686
301.829
301.959
302.081
302.193
302.296
302.387
302.466
302.531
302.584
302.624
302.651
302.668
302.675
302.672
302.662
302.646
302.628
302.615
302.617
302.648
302.723
302.862
303.079
303.384
303.762
304.197
304.742
305.472
306.333
300.227
300.657
301.031
301.324
301.539
301.707
301.851
301.984
302.107
302.221
302.325
302.417
302.497
302.563
302.616
302.657
302.685
302.703
302.71
302.709
302.7
302.686
302.67
302.659
302.663
302.695
302.772
302.913
303.132
303.438
303.817
304.25
304.795
305.524
306.385
300.231
300.666
301.045
301.341
301.558
301.727
301.874
302.008
302.133
302.248
302.354
302.447
302.528
302.595
302.649
302.69
302.719
302.737
302.746
302.745
302.738
302.726
302.712
302.703
302.708
302.742
302.821
302.963
303.184
303.491
303.87
304.303
304.846
305.575
306.436
300.234
300.675
301.059
301.358
301.577
301.748
301.896
302.032
302.159
302.276
302.383
302.478
302.559
302.627
302.681
302.722
302.752
302.771
302.781
302.782
302.776
302.765
302.753
302.746
302.754
302.789
302.87
303.013
303.236
303.544
303.923
304.355
304.897
305.626
306.486
300.237
300.684
301.072
301.375
301.595
301.768
301.919
302.057
302.185
302.304
302.413
302.508
302.591
302.659
302.714
302.755
302.786
302.805
302.816
302.818
302.814
302.805
302.795
302.789
302.799
302.836
302.918
303.063
303.288
303.597
303.976
304.406
304.948
305.676
306.536
300.24
300.693
301.086
301.392
301.614
301.789
301.942
302.081
302.212
302.333
302.442
302.539
302.622
302.691
302.746
302.788
302.819
302.839
302.851
302.854
302.851
302.844
302.836
302.832
302.844
302.883
302.966
303.113
303.339
303.649
304.028
304.457
304.998
305.725
306.585
300.243
300.702
301.1
301.408
301.633
301.81
301.964
302.106
302.238
302.361
302.472
302.57
302.654
302.723
302.779
302.821
302.853
302.873
302.886
302.89
302.888
302.883
302.876
302.875
302.888
302.929
303.015
303.163
303.39
303.701
304.079
304.507
305.047
305.774
306.634
300.246
300.712
301.114
301.425
301.652
301.831
301.987
302.131
302.265
302.389
302.502
302.601
302.685
302.755
302.811
302.854
302.886
302.907
302.92
302.926
302.926
302.922
302.917
302.918
302.933
302.976
303.063
303.212
303.441
303.752
304.13
304.557
305.096
305.823
306.683
300.25
300.721
301.127
301.442
301.671
301.852
302.01
302.156
302.292
302.418
302.532
302.632
302.717
302.788
302.844
302.887
302.919
302.941
302.955
302.962
302.963
302.96
302.958
302.96
302.978
303.022
303.111
303.262
303.491
303.804
304.181
304.607
305.145
305.872
306.732
300.253
300.73
301.141
301.459
301.69
301.872
302.033
302.181
302.319
302.447
302.562
302.663
302.749
302.82
302.877
302.92
302.953
302.975
302.99
302.997
303
302.999
302.998
303.003
303.022
303.069
303.159
303.312
303.542
303.855
304.232
304.657
305.194
305.921
306.782
300.256
300.739
301.155
301.476
301.709
301.894
302.056
302.206
302.347
302.476
302.593
302.695
302.781
302.853
302.909
302.954
302.986
303.009
303.024
303.033
303.036
303.037
303.038
303.045
303.067
303.116
303.208
303.362
303.594
303.907
304.284
304.707
305.243
305.97
306.831
300.259
300.748
301.169
301.493
301.728
301.915
302.079
302.232
302.374
302.505
302.623
302.726
302.813
302.885
302.942
302.987
303.02
303.043
303.059
303.068
303.073
303.075
303.078
303.087
303.111
303.162
303.257
303.413
303.645
303.959
304.335
304.757
305.292
306.019
306.882
300.263
300.757
301.183
301.51
301.747
301.936
302.103
302.257
302.402
302.535
302.654
302.758
302.846
302.918
302.975
303.02
303.053
303.077
303.093
303.104
303.11
303.113
303.118
303.13
303.156
303.209
303.306
303.464
303.698
304.012
304.387
304.808
305.342
306.07
306.932
300.266
300.766
301.197
301.527
301.767
301.957
302.126
302.283
302.43
302.565
302.685
302.79
302.878
302.951
303.008
303.053
303.087
303.111
303.128
303.139
303.146
303.151
303.158
303.172
303.201
303.257
303.356
303.515
303.75
304.065
304.439
304.859
305.393
306.12
306.984
300.269
300.776
301.211
301.545
301.786
301.979
302.15
302.309
302.458
302.595
302.717
302.822
302.911
302.984
303.041
303.086
303.12
303.145
303.162
303.174
303.183
303.189
303.198
303.214
303.245
303.304
303.406
303.567
303.804
304.119
304.493
304.911
305.444
306.172
307.036
300.272
300.785
301.226
301.562
301.806
302.001
302.174
302.336
302.487
302.625
302.748
302.855
302.944
303.017
303.074
303.119
303.153
303.179
303.197
303.21
303.219
303.227
303.238
303.256
303.29
303.352
303.456
303.62
303.858
304.173
304.546
304.964
305.496
306.224
307.088
300.276
300.795
301.24
301.579
301.826
302.023
302.199
302.363
302.516
302.656
302.78
302.887
302.977
303.05
303.108
303.153
303.187
303.212
303.231
303.245
303.255
303.265
303.278
303.298
303.335
303.399
303.506
303.673
303.913
304.229
304.601
305.017
305.548
306.276
307.141
300.279
300.804
301.255
301.597
301.845
302.045
302.223
302.39
302.545
302.687
302.812
302.92
303.01
303.083
303.141
303.186
303.22
303.246
303.265
303.28
303.291
303.303
303.317
303.34
303.38
303.447
303.557
303.726
303.968
304.284
304.655
305.07
305.601
306.329
307.195
300.282
300.814
301.269
301.615
301.866
302.067
302.248
302.417
302.574
302.718
302.845
302.953
303.043
303.116
303.174
303.219
303.254
303.28
303.299
303.315
303.328
303.34
303.357
303.382
303.425
303.495
303.608
303.78
304.024
304.341
304.711
305.124
305.654
306.382
307.248
300.286
300.823
301.284
301.633
301.886
302.09
302.273
302.444
302.604
302.749
302.877
302.986
303.077
303.15
303.207
303.252
303.287
303.313
303.334
303.35
303.364
303.378
303.396
303.424
303.469
303.543
303.659
303.834
304.08
304.397
304.766
305.178
305.707
306.435
307.302
300.289
300.833
301.299
301.651
301.906
302.112
302.298
302.472
302.634
302.781
302.91
303.02
303.11
303.183
303.241
303.286
303.32
303.347
303.368
303.384
303.399
303.415
303.436
303.466
303.514
303.591
303.711
303.888
304.136
304.454
304.822
305.232
305.761
306.489
307.356
300.293
300.843
301.314
301.669
301.927
302.135
302.324
302.501
302.665
302.813
302.943
303.053
303.144
303.216
303.274
303.319
303.354
303.38
303.402
303.419
303.435
303.453
303.475
303.508
303.559
303.639
303.762
303.942
304.192
304.511
304.878
305.287
305.814
306.542
307.409
300.296
300.853
301.329
301.688
301.948
302.159
302.35
302.529
302.696
302.846
302.977
303.087
303.177
303.25
303.307
303.352
303.387
303.414
303.436
303.454
303.471
303.49
303.514
303.549
303.603
303.686
303.813
303.996
304.249
304.568
304.933
305.341
305.868
306.595
307.462
300.3
300.863
301.344
301.706
301.969
302.183
302.377
302.559
302.727
302.879
303.01
303.121
303.211
303.284
303.341
303.385
303.42
303.447
303.469
303.488
303.507
303.527
303.553
303.591
303.647
303.734
303.864
304.05
304.305
304.625
304.989
305.395
305.921
306.648
307.515
300.303
300.873
301.36
301.725
301.99
302.207
302.404
302.588
302.759
302.912
303.045
303.155
303.245
303.317
303.374
303.418
303.453
303.481
303.503
303.523
303.542
303.564
303.592
303.632
303.692
303.781
303.914
304.104
304.361
304.681
305.044
305.449
305.974
306.701
307.568
300.307
300.884
301.376
301.745
302.012
302.231
302.431
302.619
302.792
302.946
303.079
303.19
303.28
303.351
303.408
303.452
303.486
303.514
303.537
303.557
303.578
303.601
303.631
303.673
303.736
303.829
303.965
304.158
304.416
304.737
305.099
305.503
306.027
306.753
307.619
300.311
300.895
301.392
301.764
302.035
302.256
302.459
302.65
302.825
302.981
303.114
303.225
303.314
303.385
303.441
303.485
303.52
303.547
303.571
303.592
303.613
303.638
303.67
303.714
303.779
303.876
304.016
304.212
304.472
304.793
305.154
305.556
306.079
306.805
307.671
300.314
300.905
301.409
301.784
302.057
302.282
302.488
302.681
302.859
303.016
303.15
303.26
303.349
303.42
303.475
303.518
303.553
303.581
303.604
303.626
303.649
303.674
303.708
303.755
303.823
303.923
304.066
304.265
304.527
304.848
305.208
305.608
306.131
306.856
307.722
300.318
300.916
301.425
301.804
302.08
302.308
302.517
302.713
302.893
303.052
303.186
303.296
303.384
303.454
303.509
303.552
303.586
303.614
303.638
303.66
303.684
303.711
303.747
303.796
303.867
303.969
304.116
304.317
304.582
304.903
305.261
305.661
306.182
306.907
307.772
300.322
300.928
301.442
301.825
302.104
302.334
302.547
302.746
302.928
303.088
303.222
303.332
303.42
303.489
303.543
303.586
303.619
303.647
303.672
303.695
303.719
303.748
303.785
303.836
303.91
304.016
304.165
304.37
304.636
304.958
305.314
305.712
306.233
306.957
307.821
300.326
300.939
301.46
301.846
302.127
302.361
302.577
302.78
302.964
303.124
303.259
303.368
303.456
303.524
303.577
303.619
303.653
303.681
303.705
303.729
303.754
303.784
303.823
303.877
303.953
304.062
304.214
304.422
304.69
305.011
305.367
305.763
306.283
307.006
307.87
300.33
300.95
301.477
301.867
302.151
302.388
302.608
302.814
303
303.162
303.296
303.405
303.491
303.559
303.612
303.653
303.686
303.714
303.739
303.763
303.789
303.82
303.861
303.917
303.996
304.108
304.263
304.473
304.743
305.064
305.418
305.813
306.332
307.055
307.918
300.334
300.962
301.495
301.888
302.176
302.416
302.639
302.848
303.037
303.199
303.334
303.442
303.528
303.594
303.646
303.687
303.72
303.748
303.773
303.797
303.824
303.857
303.899
303.957
304.039
304.153
304.312
304.524
304.796
305.117
305.469
305.863
306.381
307.103
307.965
300.339
300.974
301.512
301.91
302.2
302.444
302.671
302.883
303.074
303.237
303.372
303.479
303.564
303.629
303.681
303.721
303.753
303.781
303.806
303.831
303.859
303.893
303.937
303.997
304.081
304.198
304.36
304.575
304.847
305.168
305.519
305.911
306.429
307.15
308.011
300.343
300.986
301.53
301.931
302.225
302.473
302.703
302.919
303.111
303.275
303.41
303.517
303.6
303.665
303.715
303.755
303.787
303.815
303.84
303.866
303.894
303.929
303.974
304.037
304.123
304.243
304.407
304.625
304.898
305.219
305.568
305.959
306.476
307.196
308.057
300.347
300.998
301.548
301.953
302.25
302.502
302.736
302.955
303.149
303.314
303.448
303.554
303.637
303.701
303.75
303.789
303.821
303.848
303.874
303.9
303.929
303.965
304.012
304.076
304.165
304.288
304.454
304.674
304.949
305.269
305.617
306.006
306.522
307.241
308.101
300.351
301.01
301.567
301.976
302.276
302.531
302.77
302.992
303.188
303.354
303.487
303.592
303.674
303.736
303.785
303.823
303.855
303.882
303.908
303.934
303.964
304.001
304.049
304.115
304.206
304.332
304.501
304.723
304.998
305.318
305.664
306.052
306.567
307.285
308.145
300.355
301.022
301.585
301.998
302.302
302.561
302.804
303.029
303.228
303.393
303.526
303.631
303.711
303.772
303.82
303.858
303.889
303.916
303.941
303.968
303.999
304.037
304.086
304.154
304.247
304.375
304.547
304.771
305.047
305.366
305.711
306.097
306.611
307.329
308.187
300.36
301.034
301.604
302.021
302.328
302.592
302.839
303.068
303.268
303.434
303.566
303.669
303.748
303.809
303.855
303.892
303.923
303.95
303.975
304.002
304.034
304.072
304.124
304.193
304.288
304.418
304.593
304.818
305.095
305.414
305.756
306.142
306.655
307.371
308.229
300.364
301.047
301.623
302.044
302.355
302.623
302.875
303.107
303.308
303.475
303.606
303.708
303.786
303.845
303.891
303.927
303.957
303.984
304.009
304.037
304.068
304.108
304.161
304.232
304.329
304.461
304.637
304.864
305.142
305.46
305.801
306.185
306.697
307.413
308.27
300.368
301.059
301.642
302.067
302.382
302.655
302.911
303.147
303.35
303.516
303.647
303.747
303.824
303.882
303.926
303.962
303.991
304.018
304.043
304.071
304.103
304.144
304.198
304.27
304.369
304.504
304.682
304.91
305.189
305.505
305.845
306.228
306.739
307.453
308.31
300.373
301.072
301.661
302.091
302.41
302.687
302.949
303.187
303.392
303.558
303.688
303.787
303.862
303.919
303.962
303.997
304.026
304.052
304.078
304.105
304.138
304.18
304.234
304.309
304.409
304.545
304.725
304.955
305.234
305.549
305.887
306.269
306.779
307.493
308.348
300.377
301.085
301.681
302.115
302.438
302.721
302.987
303.228
303.435
303.601
303.73
303.827
303.901
303.956
303.998
304.032
304.061
304.086
304.112
304.14
304.173
304.216
304.271
304.347
304.449
304.587
304.769
305
305.279
305.593
305.93
306.31
306.819
307.532
308.387
300.382
301.098
301.701
302.14
302.467
302.754
303.025
303.27
303.478
303.644
303.771
303.867
303.939
303.993
304.035
304.068
304.095
304.121
304.147
304.175
304.209
304.252
304.308
304.385
304.489
304.628
304.812
305.043
305.322
305.636
305.97
306.349
306.858
307.57
308.424
300.387
301.111
301.721
302.165
302.497
302.789
303.065
303.313
303.521
303.687
303.813
303.908
303.978
304.031
304.071
304.103
304.131
304.156
304.181
304.21
304.244
304.288
304.345
304.423
304.529
304.67
304.854
305.087
305.366
305.678
306.011
306.389
306.897
307.607
308.461
300.391
301.125
301.742
302.19
302.527
302.824
303.105
303.356
303.565
303.73
303.855
303.949
304.017
304.069
304.108
304.139
304.166
304.191
304.216
304.245
304.279
304.324
304.382
304.461
304.568
304.711
304.896
305.13
305.408
305.719
306.05
306.427
306.934
307.644
308.497
300.396
301.138
301.763
302.216
302.558
302.861
303.146
303.4
303.61
303.774
303.898
303.989
304.057
304.107
304.145
304.175
304.202
304.226
304.252
304.28
304.315
304.36
304.42
304.5
304.608
304.751
304.938
305.172
305.45
305.76
306.089
306.465
306.971
307.681
308.533
300.401
301.152
301.784
302.243
302.59
302.899
303.189
303.446
303.656
303.819
303.941
304.031
304.096
304.145
304.182
304.212
304.237
304.262
304.287
304.316
304.351
304.396
304.457
304.538
304.647
304.792
304.98
305.214
305.491
305.8
306.128
306.502
307.007
307.716
308.569
300.406
301.167
301.807
302.271
302.623
302.938
303.234
303.493
303.703
303.865
303.985
304.073
304.136
304.183
304.219
304.248
304.273
304.297
304.323
304.352
304.387
304.433
304.494
304.576
304.687
304.833
305.021
305.256
305.533
305.839
306.166
306.539
307.044
307.752
308.604
300.411
301.182
301.83
302.301
302.658
302.98
303.281
303.542
303.752
303.912
304.03
304.115
304.177
304.222
304.257
304.285
304.31
304.333
304.358
304.387
304.423
304.47
304.532
304.615
304.726
304.873
305.063
305.297
305.573
305.878
306.203
306.575
307.079
307.787
308.639
300.416
301.197
301.855
302.331
302.695
303.023
303.329
303.593
303.803
303.961
304.076
304.159
304.218
304.262
304.295
304.322
304.346
304.369
304.394
304.424
304.46
304.507
304.57
304.654
304.766
304.914
305.104
305.339
305.614
305.918
306.241
306.611
307.115
307.822
308.674
300.422
301.214
301.88
302.363
302.733
303.069
303.38
303.645
303.854
304.01
304.123
304.203
304.26
304.302
304.334
304.36
304.383
304.406
304.431
304.46
304.497
304.544
304.608
304.693
304.806
304.955
305.145
305.38
305.654
305.956
306.277
306.647
307.15
307.857
308.709
300.428
301.231
301.907
302.396
302.773
303.116
303.433
303.7
303.908
304.061
304.171
304.248
304.303
304.342
304.373
304.398
304.42
304.443
304.468
304.497
304.534
304.582
304.647
304.732
304.847
304.996
305.187
305.422
305.695
305.995
306.315
306.683
307.186
307.893
308.745
300.434
301.249
301.934
302.431
302.815
303.165
303.487
303.755
303.962
304.113
304.219
304.294
304.346
304.384
304.412
304.436
304.458
304.48
304.505
304.534
304.571
304.62
304.685
304.772
304.887
305.038
305.229
305.463
305.735
306.033
306.351
306.719
307.221
307.927
308.779
300.44
301.267
301.963
302.466
302.858
303.216
303.543
303.813
304.018
304.166
304.269
304.34
304.389
304.425
304.452
304.475
304.496
304.518
304.542
304.572
304.609
304.659
304.725
304.812
304.928
305.08
305.271
305.505
305.776
306.073
306.389
306.756
307.257
307.963
308.815
300.447
301.287
301.992
302.504
302.903
303.269
303.601
303.872
304.075
304.22
304.319
304.387
304.434
304.467
304.493
304.515
304.535
304.556
304.58
304.61
304.648
304.698
304.764
304.852
304.969
305.121
305.313
305.547
305.816
306.111
306.426
306.791
307.293
307.998
308.851
300.454
301.306
302.023
302.542
302.949
303.324
303.661
303.933
304.134
304.274
304.37
304.435
304.479
304.51
304.534
304.554
304.574
304.594
304.618
304.648
304.686
304.737
304.804
304.894
305.012
305.164
305.357
305.59
305.858
306.151
306.464
306.829
307.329
308.035
308.887
300.461
301.327
302.055
302.582
302.998
303.381
303.723
303.995
304.193
304.33
304.422
304.483
304.524
304.553
304.575
304.595
304.613
304.633
304.657
304.687
304.725
304.776
304.844
304.935
305.053
305.207
305.399
305.632
305.898
306.189
306.501
306.865
307.365
308.071
308.923
300.469
301.349
302.087
302.623
303.047
303.439
303.785
304.058
304.254
304.387
304.475
304.532
304.57
304.597
304.618
304.635
304.653
304.673
304.696
304.726
304.765
304.817
304.886
304.977
305.097
305.251
305.443
305.675
305.941
306.23
306.54
306.903
307.403
308.108
308.961
300.476
301.371
302.121
302.665
303.098
303.498
303.849
304.121
304.315
304.444
304.528
304.582
304.617
304.641
304.66
304.677
304.693
304.713
304.736
304.766
304.805
304.857
304.927
305.019
305.139
305.294
305.486
305.718
305.982
306.269
306.577
306.939
307.439
308.144
308.997
300.484
301.393
302.155
302.708
303.15
303.558
303.913
304.185
304.376
304.502
304.582
304.632
304.664
304.686
304.703
304.718
304.734
304.753
304.776
304.806
304.846
304.898
304.969
305.062
305.183
305.339
305.532
305.762
306.025
306.31
306.617
306.978
307.478
308.183
309.036
300.492
301.416
302.19
302.752
303.203
303.62
303.978
304.25
304.438
304.56
304.636
304.682
304.711
304.731
304.747
304.761
304.776
304.794
304.816
304.846
304.886
304.94
305.011
305.104
305.227
305.382
305.575
305.805
306.066
306.35
306.655
307.015
307.514
308.219
309.072
300.501
301.44
302.226
302.798
303.258
303.683
304.046
304.317
304.501
304.619
304.69
304.733
304.759
304.777
304.791
304.803
304.818
304.835
304.858
304.888
304.928
304.982
305.054
305.149
305.272
305.428
305.621
305.85
306.11
306.392
306.696
307.055
307.554
308.259
309.112
300.509
301.464
302.264
302.847
303.316
303.75
304.116
304.386
304.566
304.679
304.746
304.785
304.808
304.823
304.835
304.846
304.86
304.877
304.899
304.929
304.969
305.024
305.097
305.192
305.316
305.473
305.666
305.894
306.152
306.432
306.734
307.093
307.591
308.296
309.15
300.518
301.49
302.304
302.897
303.377
303.82
304.189
304.457
304.634
304.741
304.803
304.837
304.857
304.87
304.88
304.89
304.903
304.919
304.941
304.971
305.012
305.067
305.141
305.238
305.363
305.52
305.713
305.94
306.197
306.475
306.776
307.134
307.633
308.338
309.191
300.528
301.518
302.346
302.95
303.44
303.893
304.265
304.532
304.703
304.804
304.861
304.891
304.907
304.917
304.926
304.934
304.946
304.961
304.983
305.013
305.055
305.11
305.185
305.282
305.407
305.565
305.758
305.984
306.239
306.515
306.815
307.172
307.671
308.375
309.229
300.538
301.547
302.389
303.004
303.505
303.967
304.343
304.608
304.774
304.87
304.92
304.945
304.958
304.966
304.972
304.979
304.99
305.005
305.026
305.057
305.098
305.155
305.23
305.329
305.455
305.614
305.806
306.032
306.285
306.56
306.858
307.215
307.713
308.418
309.272
300.548
301.576
302.433
303.059
303.571
304.041
304.421
304.685
304.847
304.936
304.981
305.001
305.01
305.015
305.019
305.025
305.034
305.048
305.069
305.1
305.142
305.199
305.274
305.374
305.501
305.659
305.852
306.076
306.328
306.601
306.897
307.254
307.752
308.456
309.31
300.559
301.606
302.477
303.113
303.635
304.115
304.498
304.761
304.919
305.003
305.042
305.058
305.063
305.064
305.066
305.071
305.079
305.093
305.114
305.144
305.187
305.244
305.321
305.422
305.55
305.709
305.901
306.125
306.375
306.646
306.942
307.298
307.796
308.501
309.354
300.57
301.636
302.521
303.168
303.7
304.187
304.575
304.837
304.992
305.07
305.104
305.115
305.116
305.115
305.115
305.117
305.124
305.137
305.158
305.188
305.231
305.289
305.366
305.467
305.596
305.755
305.947
306.17
306.419
306.688
306.982
307.337
307.835
308.539
309.393
300.58
301.665
302.564
303.222
303.764
304.26
304.652
304.914
305.065
305.139
305.167
305.173
305.171
305.166
305.164