/*--------------------------------*- C++ -*----------------------------------*\
| =========                 |                                                 |
| \\      /  F ield         | OpenFOAM: The Open Source CFD Toolbox           |
|  \\    /   O peration     | Version:  v2012                                 |
|   \\  /    A nd           | Website:  www.openfoam.com                      |
|    \\/     M anipulation  |                                                 |
\*---------------------------------------------------------------------------*/
FoamFile
{
    version     2.0;
    format      ascii;
    class       volScalarField;
    location    "600/rightSolid";
    object      T;
}
// * * * * * * * * * * * * * * * * * * * * * * * * * * * * * * * * * * * * * //

dimensions      [0 0 0 1 0 0 0];


internalField   nonuniform List<scalar> 
130
(
430.4381
429.6097
428.6131
427.5324
426.437
425.38
424.402
423.5325
422.7927
422.1965
421.7539
421.4712
421.3512
431.3339
430.306
429.1241
427.8892
426.6742
425.5287
424.4872
423.5735
422.8036
422.1877
421.7333
421.4456
421.328
433.2403
431.7349
430.1461
428.5973
427.1534
425.8461
424.6928
423.703
422.8821
422.233
421.7582
421.4589
421.3361
436.1918
433.7307
431.464
429.4611
427.7194
426.218
424.9382
423.8659
422.9915
422.3081
421.8122
421.5011
421.3729
439.7614
435.6546
432.5603
430.1147
428.1234
426.4752
425.1065
423.9794
423.071
422.3663
421.8574
421.5386
421.407
439.7664
435.6591
432.5648
430.1193
428.1282
426.4802
425.1118
423.9849
423.0767
422.3722
421.8634
421.5447
421.4132
436.2055
433.744
431.4773
429.4749
427.7337
426.233
424.954
423.8825
423.0088
422.326
421.8302
421.5194
421.3917
433.2623
431.7567
430.1683
428.6203
427.1773
425.8712
424.7191
423.7305
422.9109
422.2629
421.7888
421.4904
421.3682
431.3632
430.3356
429.1548
427.9211
426.7076
425.5636
424.5238
423.6118
422.8437
422.2297
421.7772
421.4913
421.3746
430.4678
429.6413
428.6469
427.5681
426.4746
425.4194
424.4433
423.576
422.8385
422.245
421.8057
421.5273
421.414
)
;

boundaryField
{
    maxX
    {
        type            zeroGradient;
    }
    minZ
    {
        type            zeroGradient;
    }
    maxZ
    {
        type            zeroGradient;
    }
    rightSolid_to_bottomAir
    {
        type            compressible::turbulentTemperatureRadCoupledMixed;
        refValue        nonuniform List<scalar> 
130
(
433.492
433.0802
432.5376
431.9007
431.1967
430.447
429.6696
428.8786
428.0827
427.2813
426.455
425.5586
424.6237
434.754
434.2761
433.6324
432.8856
432.0742
431.2269
430.3661
429.5075
428.6593
427.8194
426.9665
426.0467
425.0564
436.057
435.4426
434.6666
433.7943
432.8606
431.8978
430.9313
429.9776
429.0474
428.138
427.2264
426.2553
425.2195
438.5588
437.1109
435.8308
434.6575
433.5188
432.4028
431.3209
430.2849
429.2881
428.3207
427.3576
426.3387
425.2619
443.974
439.3258
436.9292
435.2885
433.9062
432.6418
431.4636
430.3644
429.3307
428.3329
427.3431
426.2999
425.2096
443.9915
439.3341
436.9336
435.2914
433.9091
432.6452
431.4676
430.3692
429.336
428.3385
427.3491
426.3064
425.2168
438.5593
437.1148
435.8382
434.6679
433.5317
432.4176
431.3374
430.3028
429.3067
428.3396
427.3768
426.3581
425.2809
436.0708
435.4603
434.6882
433.8191
432.8877
431.9265
430.961
430.0079
429.0778
428.1685
427.2568
426.2859
425.2505
434.7821
434.3091
433.6691
432.9247
432.1147
431.2681
430.4074
429.5488
428.7004
427.8605
427.0077
426.0884
425.0992
433.5313
433.1249
432.5861
431.9516
431.2488
430.4997
429.7222
428.9309
428.1347
427.3331
426.5069
425.6112
424.6788
)
;
        refGradient     nonuniform List<scalar> 
130
(
-0.01492093
-0.01492093
-0.01492093
-0.01492093
0.06300251
0.06300251
0.06300251
0.06300251
0.09884974
0.09884974
0.09884974
0.09884974
0.1016984
-0.01492093
-0.01492093
-0.01492093
-0.01492093
0.06300251
0.06300251
0.06300251
0.06300251
0.09884974
0.09884974
0.09884974
0.09884974
0.1016984
-0.08716761
-0.08716761
-0.08716761
-0.08716761
0.03587215
0.03587215
0.03587215
0.03587215
0.086081
0.086081
0.1016984
0.1016984
0.1016984
-0.08716761
-0.08716761
-0.08716761
-0.08716761
0.03587215
0.03587215
0.03587215
0.03587215
0.086081
0.086081
0.1016984
0.1016984
0.1016984
-0.1375988
-0.1375988
-0.1375988
-0.1375988
0.02710568
0.02710568
0.02710568
0.02710568
0.086081
0.086081
0.1004222
0.1004222
0.1004222
-0.1375988
-0.1375988
-0.1375988
-0.1375988
0.02710568
0.02710568
0.02710568
0.02710568
0.086081
0.086081
0.1004222
0.1004222
0.1004222
-0.085934
-0.085934
-0.085934
-0.085934
0.03711087
0.03711087
0.03711087
0.03711087
0.09526923
0.09526923
0.09526923
0.09526923
0.1004222
-0.085934
-0.085934
-0.085934
-0.085934
0.03711087
0.03711087
0.03711087
0.03711087
0.09526923
0.09526923
0.09526923
0.09526923
0.1004222
-0.01451208
-0.01451208
-0.01451208
-0.01451208
0.06355684
0.06355684
0.06355684
0.06355684
0.09917784
0.09917784
0.09917784
0.09917784
0.09917784
-0.01451208
-0.01451208
-0.01451208
-0.01451208
0.06355684
0.06355684
0.06355684
0.06355684
0.09917784
0.09917784
0.09917784
0.09917784
0.09917784
)
;
        valueFraction   nonuniform List<scalar> 
130
(
0.0003213253
0.0003213253
0.0003213253
0.0003213253
0.0003213253
0.0003213253
0.0003213253
0.0003213253
0.0003213253
0.0003213253
0.0003213253
0.0003213253
0.0003213253
0.0003213253
0.0003213253
0.0003213253
0.0003213253
0.0003213253
0.0003213253
0.0003213253
0.0003213253
0.0003213253
0.0003213253
0.0003213253
0.0003213253
0.0003213253
0.0003213253
0.0003213253
0.0003213253
0.0003213253
0.0003213253
0.0003213253
0.0003213253
0.0003213253
0.0003213253
0.0003213253
0.0003213253
0.0003213253
0.0003213253
0.0003213253
0.0003213253
0.0003213253
0.0003213253
0.0003213253
0.0003213253
0.0003213253
0.0003213253
0.0003213253
0.0003213253
0.0003213253
0.0003213253
0.0003213253
0.0003213253
0.0003213253
0.0003213253
0.0003213253
0.0003213253
0.0003213253
0.0003213253
0.0003213253
0.0003213253
0.0003213253
0.0003213253
0.0003213253
0.0003213253
0.0003213253
0.0003213253
0.0003213253
0.0003213253
0.0003213253
0.0003213253
0.0003213253
0.0003213253
0.0003213253
0.0003213253
0.0003213253
0.0003213253
0.0003213253
0.0003213253
0.0003213253
0.0003213253
0.0003213253
0.0003213253
0.0003213253
0.0003213253
0.0003213253
0.0003213253
0.0003213253
0.0003213253
0.0003213253
0.0003213253
0.0003213253
0.0003213253
0.0003213253
0.0003213253
0.0003213253
0.0003213253
0.0003213253
0.0003213253
0.0003213253
0.0003213253
0.0003213253
0.0003213253
0.0003213253
0.0003213253
0.0003213253
0.0003213253
0.0003213253
0.0003213253
0.0003213253
0.0003213253
0.0003213253
0.0003213253
0.0003213253
0.0003213253
0.0003213253
0.0003213253
0.0003213253
0.0003213253
0.0003213253
0.0003213253
0.0003213253
0.0003213253
0.0003213253
0.0003213253
0.0003213253
0.0003213253
0.0003213253
0.0003213253
0.0003213253
)
;
        value           nonuniform List<scalar> 
130
(
430.3387
429.5091
428.5112
427.429
426.3324
425.2739
424.2945
423.4238
422.6831
422.0859
421.6426
421.3593
421.2389
431.2358
430.2066
429.0231
427.7865
426.5701
425.423
424.3801
423.465
422.6941
422.0772
421.6221
421.3338
421.2158
433.1444
431.6371
430.0462
428.4953
427.0499
425.7409
424.5859
423.5946
422.7727
422.1226
421.6471
421.3472
421.2239
436.1
433.6356
431.3659
429.3603
427.6167
426.1132
424.8317
423.7578
422.8823
422.1978
421.7012
421.3894
421.2607
439.675
435.5621
432.4636
430.0146
428.0213
426.3708
425.0002
423.8714
422.9618
422.2561
421.7463
421.4268
421.2947
439.68
435.5666
432.468
430.0192
428.026
426.3758
425.0054
423.8769
422.9675
422.262
421.7523
421.4329
421.3009
436.1137
433.6489
431.3793
429.3741
427.6311
426.1283
424.8475
423.7744
422.8997
422.2157
421.7192
421.4077
421.2795
433.1665
431.659
430.0685
428.5183
427.0739
425.766
424.6123
423.6222
422.8017
422.1526
421.6777
421.3787
421.2561
431.2651
430.2362
429.0538
427.8184
426.6036
425.458
424.4167
423.5034
422.7343
422.1193
421.6661
421.3796
421.2625
430.3684
429.5408
428.545
427.4647
426.37
425.3134
424.336
423.4674
422.729
422.1345
421.6944
421.4156
421.3019
)
;
        Tnbr            T;
        qrNbr           qr;
        qr              none;
        thermalInertia  false;
        thicknessLayers List<scalar> 0();
        kappaLayers     List<scalar> 0();
        kappaMethod     solidThermo;
        kappa           none;
        alphaAni        none;
        alpha           none;
    }
    rightSolid_to_topAir
    {
        type            compressible::turbulentTemperatureRadCoupledMixed;
        refValue        nonuniform List<scalar> 
130
(
359.1973
360.3068
360.9956
361.2423
361.0537
360.4685
359.5546
358.4044
357.1378
355.9202
354.9761
354.7265
355.3827
351.5098
351.4618
350.9816
350.1296
348.9888
347.6444
346.1684
344.6278
343.1156
341.7996
340.9657
341.3094
342.5992
352.4811
352.3294
351.5182
350.0252
347.8821
345.1986
342.1697
339.0507
336.1146
333.6386
331.9137
331.7403
333.4145
358.7522
360.2387
361.2907
361.8077
361.6607
360.7196
358.9138
356.3253
353.2895
350.5028
349.0229
350.4778
352.7943
361.0938
362.9533
364.5678
365.9504
367.0843
367.9212
368.3883
368.4204
368.024
367.3782
366.8948
367.4728
369.9105
361.0959
362.9553
364.5694
365.9513
367.084
367.9184
368.3813
368.4068
368.0009
367.3429
366.8454
367.4119
369.8463
358.7581
360.2441
361.2949
361.8094
361.658
360.7097
358.8932
356.2903
353.2363
350.4267
348.9137
350.3156
352.6338
352.4859
352.3318
351.5175
350.0207
347.8737
345.1871
342.1567
339.0386
336.1059
333.6351
331.9148
331.7401
333.3952
351.5208
351.4721
350.9913
350.1392
348.9991
347.6562
346.1823
344.6441
343.1346
341.8215
340.9906
341.3369
342.625
359.2154
360.3247
361.0131
361.2593
361.0703
360.4851
359.5716
358.4225
357.1575
355.9424
355.0016
354.7569
355.4195
)
;
        refGradient     nonuniform List<scalar> 
130
(
-1.681765
-1.681765
-1.681765
-1.681765
-1.530839
-1.530839
-1.530839
-1.530839
-1.408335
-1.408335
-1.408335
-1.408335
-1.41088
-1.681765
-1.681765
-1.681765
-1.681765
-1.530839
-1.530839
-1.530839
-1.530839
-1.408335
-1.408335
-1.408335
-1.408335
-1.41088
-1.824092
-1.824092
-1.824092
-1.824092
-1.636054
-1.636054
-1.636054
-1.636054
-1.529823
-1.529823
-1.41088
-1.41088
-1.41088
-1.824092
-1.824092
-1.824092
-1.824092
-1.636054
-1.636054
-1.636054
-1.636054
-1.529823
-1.529823
-1.41088
-1.41088
-1.41088
-1.900672
-1.900672
-1.900672
-1.900672
-1.664079
-1.664079
-1.664079
-1.664079
-1.529823
-1.529823
-1.387874
-1.387874
-1.387874
-1.900672
-1.900672
-1.900672
-1.900672
-1.664079
-1.664079
-1.664079
-1.664079
-1.529823
-1.529823
-1.387874
-1.387874
-1.387874
-1.824133
-1.824133
-1.824133
-1.824133
-1.635321
-1.635321
-1.635321
-1.635321
-1.487196
-1.487196
-1.487196
-1.487196
-1.387874
-1.824133
-1.824133
-1.824133
-1.824133
-1.635321
-1.635321
-1.635321
-1.635321
-1.487196
-1.487196
-1.487196
-1.487196
-1.387874
-1.681856
-1.681856
-1.681856
-1.681856
-1.529368
-1.529368
-1.529368
-1.529368
-1.39216
-1.39216
-1.39216
-1.39216
-1.39216
-1.681856
-1.681856
-1.681856
-1.681856
-1.529368
-1.529368
-1.529368
-1.529368
-1.39216
-1.39216
-1.39216
-1.39216
-1.39216
)
;
        valueFraction   nonuniform List<scalar> 
130
(
0.0003213253
0.0003213253
0.0003213253
0.0003213253
0.0003213253
0.0003213253
0.0003213253
0.0003213253
0.0003213253
0.0003213253
0.0003213253
0.0003213253
0.0003213253
0.0003213253
0.0003213253
0.0003213253
0.0003213253
0.0003213253
0.0003213253
0.0003213253
0.0003213253
0.0003213253
0.0003213253
0.0003213253
0.0003213253
0.0003213253
0.0003213253
0.0003213253
0.0003213253
0.0003213253
0.0003213253
0.0003213253
0.0003213253
0.0003213253
0.0003213253
0.0003213253
0.0003213253
0.0003213253
0.0003213253
0.0003213253
0.0003213253
0.0003213253
0.0003213253
0.0003213253
0.0003213253
0.0003213253
0.0003213253
0.0003213253
0.0003213253
0.0003213253
0.0003213253
0.0003213253
0.0003213253
0.0003213253
0.0003213253
0.0003213253
0.0003213253
0.0003213253
0.0003213253
0.0003213253
0.0003213253
0.0003213253
0.0003213253
0.0003213253
0.0003213253
0.0003213253
0.0003213253
0.0003213253
0.0003213253
0.0003213253
0.0003213253
0.0003213253
0.0003213253
0.0003213253
0.0003213253
0.0003213253
0.0003213253
0.0003213253
0.0003213253
0.0003213253
0.0003213253
0.0003213253
0.0003213253
0.0003213253
0.0003213253
0.0003213253
0.0003213253
0.0003213253
0.0003213253
0.0003213253
0.0003213253
0.0003213253
0.0003213253
0.0003213253
0.0003213253
0.0003213253
0.0003213253
0.0003213253
0.0003213253
0.0003213253
0.0003213253
0.0003213253
0.0003213253
0.0003213253
0.0003213253
0.0003213253
0.0003213253
0.0003213253
0.0003213253
0.0003213253
0.0003213253
0.0003213253
0.0003213253
0.0003213253
0.0003213253
0.0003213253
0.0003213253
0.0003213253
0.0003213253
0.0003213253
0.0003213253
0.0003213253
0.0003213253
0.0003213253
0.0003213253
0.0003213253
0.0003213253
0.0003213253
0.0003213253
0.0003213253
)
;
        value           nonuniform List<scalar> 
130
(
430.3081
429.479
428.4815
427.3996
426.3035
425.2451
424.2656
423.3948
422.6543
422.057
421.6136
421.3305
421.2106
431.2024
430.1733
428.9899
427.7532
426.5371
425.3898
424.3467
423.4314
422.6606
422.0435
421.5884
421.3005
421.1832
433.1106
431.6034
430.0125
428.4614
427.0159
425.7063
424.5507
423.5587
422.7364
422.0858
421.6104
421.3108
421.1884
436.0674
433.604
431.335
429.33
427.5869
426.0835
424.8017
423.7274
422.8514
422.1664
421.6699
421.3589
421.2314
439.6414
435.5305
432.4333
429.9853
427.993
426.3432
424.9731
423.8447
422.9357
422.23
421.7209
421.402
421.271
439.6463
435.535
432.4377
429.9899
427.9978
426.3482
424.9784
423.8502
422.9414
422.2359
421.7269
421.4081
421.2772
436.0811
433.6172
431.3483
429.3438
427.6013
426.0986
424.8175
423.7439
422.8689
422.1844
421.6876
421.3769
421.2502
433.1326
431.6253
430.0348
428.4845
427.0399
425.7314
424.5771
423.5863
422.7655
422.1159
421.6408
421.342
421.2206
431.2317
430.2029
429.0205
427.7852
426.5705
425.4247
424.3833
423.4697
422.7008
422.0857
421.6325
421.3464
421.23
430.3379
429.5107
428.5154
427.4354
426.3411
425.2845
424.3071
423.4383
422.7002
422.1056
421.6655
421.3868
421.2736
)
;
        Tnbr            T;
        qrNbr           qr;
        qr              none;
        thermalInertia  false;
        thicknessLayers List<scalar> 0();
        kappaLayers     List<scalar> 0();
        kappaMethod     solidThermo;
        kappa           none;
        alphaAni        none;
        alpha           none;
    }
    rightSolid_to_heater
    {
        type            compressible::turbulentTemperatureCoupledBaffleMixed;
        refValue        nonuniform List<scalar> 10(430.9851 432.0594 434.4258 438.5176 445.588 445.5937 438.5314 434.4478 432.0894 431.0224);
        refGradient     uniform 0;
        valueFraction   nonuniform List<scalar> 10(0.5000003 0.5000003 0.5000003 0.5000003 0.5000003 0.5000003 0.5000003 0.5000003 0.5000003 0.5000003);
        value           nonuniform List<scalar> 10(430.6614 431.6471 433.7848 437.3086 442.6311 442.6365 437.3223 433.8068 431.6767 430.6949);
        Tnbr            T;
        thicknessLayers List<scalar> 0();
        kappaLayers     List<scalar> 0();
        kappaMethod     solidThermo;
        kappa           none;
        alphaAni        none;
        alpha           none;
        field           T;
    }
}


// ************************************************************************* //
