/*--------------------------------*- C++ -*----------------------------------*\
| =========                 |                                                 |
| \\      /  F ield         | OpenFOAM: The Open Source CFD Toolbox           |
|  \\    /   O peration     | Version:  v2006                                 |
|   \\  /    A nd           | Website:  www.openfoam.com                      |
|    \\/     M anipulation  |                                                 |
\*---------------------------------------------------------------------------*/
FoamFile
{
    version     2.0;
    format      ascii;
    class       surfaceScalarField;
    location    "72";
    object      phi;
}
// * * * * * * * * * * * * * * * * * * * * * * * * * * * * * * * * * * * * * //

dimensions      [1 0 -1 0 0 0 0];
oriented        oriented;


internalField   nonuniform List<scalar> 
228225
(
-0.000241311
-2.62242e-05
-3.30158e-06
-0.000212908
-2.64644e-05
-1.94496e-06
-0.000185536
-2.58494e-05
-1.53144e-06
-0.000160561
-2.3306e-05
-1.68833e-06
-0.000142087
-1.6325e-05
-2.15388e-06
-0.000126338
-1.33105e-05
-2.42569e-06
-0.00011263
-1.106e-05
-2.6518e-06
-0.000100464
-9.29335e-06
-2.87385e-06
-8.9394e-05
-7.98789e-06
-3.08428e-06
-7.92299e-05
-6.89367e-06
-3.27339e-06
-6.98428e-05
-5.93624e-06
-3.45514e-06
-6.11675e-05
-5.05679e-06
-3.62356e-06
-5.31217e-05
-4.27141e-06
-3.78064e-06
-4.56541e-05
-3.5508e-06
-3.92372e-06
-3.87097e-05
-2.90086e-06
-4.051e-06
-3.22455e-05
-2.30882e-06
-4.16294e-06
-2.62238e-05
-1.77004e-06
-4.25887e-06
-2.06155e-05
-1.27523e-06
-4.33958e-06
-1.53989e-05
-8.16576e-07
-4.4054e-06
-1.05595e-05
-3.86081e-07
-4.45691e-06
-6.08809e-06
2.1936e-08
-4.49479e-06
-1.98469e-06
4.17696e-07
-4.51986e-06
1.74651e-06
8.06451e-07
-4.53326e-06
5.0952e-06
1.19483e-06
-4.53553e-06
8.04763e-06
1.58922e-06
-4.52965e-06
1.05868e-05
1.99583e-06
-4.51865e-06
1.26925e-05
2.42088e-06
-4.50541e-06
1.43411e-05
2.87111e-06
-4.49344e-06
1.55062e-05
3.35419e-06
-4.48755e-06
1.61512e-05
3.87835e-06
-4.4858e-06
1.62347e-05
4.4631e-06
-4.50248e-06
1.56866e-05
5.14215e-06
-4.54017e-06
1.42537e-05
6.11377e-06
-4.6065e-06
1.1072e-05
8.48565e-06
-5.09106e-06
1.38676e-05
-2.79531e-06
-5.53798e-06
-2.46572e-05
4.14077e-06
-1.05641e-05
-2.7484e-05
6.11053e-06
-1.60038e-05
-2.68785e-05
6.43138e-06
-2.47223e-05
-2.07161e-05
5.96133e-06
-3.37457e-05
-1.11238e-05
3.74418e-06
-4.41737e-05
-5.03258e-06
2.06548e-06
-5.3529e-05
-2.5667e-06
8.12842e-07
-5.99023e-05
-2.74479e-06
-2.05385e-07
-6.34971e-05
-3.42659e-06
-9.87554e-07
-6.48941e-05
-3.84856e-06
-1.66471e-06
-6.46605e-05
-3.97524e-06
-2.20866e-06
-6.32249e-05
-3.87516e-06
-2.63032e-06
-6.09495e-05
-3.60717e-06
-2.9526e-06
-5.80921e-05
-3.2226e-06
-3.19873e-06
-5.48307e-05
-2.78827e-06
-3.38691e-06
-5.12616e-05
-2.36074e-06
-3.53008e-06
-4.74506e-05
-1.95611e-06
-3.6377e-06
-4.34508e-05
-1.57066e-06
-3.71721e-06
-3.93081e-05
-1.19834e-06
-3.77396e-06
-3.50635e-05
-8.3402e-07
-3.80982e-06
-3.07622e-05
-4.70159e-07
-3.82291e-06
-2.64678e-05
-7.86693e-08
-3.81219e-06
-2.21956e-05
3.00843e-07
-3.78128e-06
-1.79875e-05
7.06622e-07
-3.73547e-06
-1.388e-05
1.14401e-06
-3.67871e-06
-9.90996e-06
1.62175e-06
-3.6138e-06
-6.11548e-06
2.15128e-06
-3.5444e-06
-2.54052e-06
2.74737e-06
-3.47297e-06
7.60537e-07
3.42965e-06
-3.40106e-06
3.71147e-06
4.22799e-06
-3.32862e-06
6.19326e-06
5.20241e-06
-3.25326e-06
7.93745e-06
6.52684e-06
-3.16496e-06
8.20282e-06
8.86987e-06
-3.0559e-06
4.90115e-06
1.46427e-05
-2.851e-06
1.99143e-05
-1.1875e-06
-3.40896e-06
-2.12756e-05
1.98646e-07
-3.22521e-06
-2.89024e-05
1.3889e-06
-5.00766e-06
-2.67613e-05
1.86821e-06
-8.28171e-06
-1.9749e-05
2.49629e-06
-1.2103e-05
-1.04742e-05
3.27058e-06
-1.79031e-05
-2.00474e-06
2.77202e-06
-2.44075e-05
2.28155e-06
1.59134e-06
-3.0333e-05
2.35228e-06
7.56155e-07
-3.49893e-05
9.72323e-07
1.99818e-07
-3.83798e-05
-2.72734e-07
-2.30084e-07
-4.07342e-05
-1.03189e-06
-6.26727e-07
-4.20609e-05
-1.55458e-06
-1.02707e-06
-4.24525e-05
-1.83333e-06
-1.41377e-06
-4.20256e-05
-1.89297e-06
-1.7889e-06
-4.0899e-05
-1.7934e-06
-2.15509e-06
-3.91936e-05
-1.60252e-06
-2.49764e-06
-3.70276e-05
-1.36157e-06
-2.79432e-06
-3.44979e-05
-1.09312e-06
-3.04076e-06
-3.16771e-05
-8.10012e-07
-3.2426e-06
-2.8623e-05
-5.18334e-07
-3.40335e-06
-2.53793e-05
-2.2125e-07
-3.52634e-06
-2.19854e-05
1.08853e-07
-3.61547e-06
-1.8527e-05
4.81922e-07
-3.67399e-06
-1.5028e-05
8.76629e-07
-3.70425e-06
-1.15239e-05
1.31183e-06
-3.70803e-06
-8.05668e-06
1.80337e-06
-3.6861e-06
-4.67679e-06
2.37036e-06
-3.63778e-06
-1.44477e-06
3.03807e-06
-3.56365e-06
1.56351e-06
3.84257e-06
-3.465e-06
4.24216e-06
4.84374e-06
-3.34225e-06
6.40956e-06
6.17138e-06
-3.19025e-06
7.67336e-06
8.19401e-06
-2.99496e-06
7.07145e-06
1.21132e-05
-2.7222e-06
3.62783e-06
2.0212e-05
-2.20809e-06
2.42256e-05
-7.50756e-07
2.864e-06
-2.8459e-05
4.48448e-06
-2.11111e-06
-3.06728e-05
6.95927e-06
-1.06778e-05
-2.48608e-05
6.89711e-06
-1.99741e-05
-1.64376e-05
6.11716e-06
-2.45952e-05
-1.10166e-05
5.1086e-06
-2.41318e-05
-6.63683e-06
4.10841e-06
-2.17182e-05
-3.17033e-06
2.99329e-06
-2.00596e-05
-1.36372e-06
2.01208e-06
-1.95589e-05
-9.03492e-07
1.3347e-06
-1.97755e-05
-9.2732e-07
8.33388e-07
-2.01622e-05
-1.08014e-06
3.98562e-07
-2.04919e-05
-1.22857e-06
-2.98379e-08
-2.07243e-05
-1.30869e-06
-3.21918e-07
-2.07085e-05
-1.29878e-06
-6.37112e-07
-2.03805e-05
-1.19637e-06
-9.51536e-07
-1.97352e-05
-1.01712e-06
-1.25768e-06
-1.87958e-05
-7.79311e-07
-1.5494e-06
-1.75946e-05
-5.01542e-07
-1.82104e-06
-1.61752e-05
-1.89916e-07
-2.06837e-06
-1.45453e-05
1.10744e-07
-2.28827e-06
-1.27405e-05
4.22929e-07
-2.47896e-06
-1.0789e-05
7.66561e-07
-2.63986e-06
-8.71032e-06
1.14263e-06
-2.77112e-06
-6.55274e-06
1.55958e-06
-2.87352e-06
-4.35801e-06
2.03041e-06
-2.94774e-06
-2.1696e-06
2.57267e-06
-2.99376e-06
-3.62158e-08
3.20986e-06
-3.01075e-06
1.98291e-06
3.97479e-06
-2.9957e-06
3.81076e-06
4.9171e-06
-2.94441e-06
5.34078e-06
6.12241e-06
-2.85287e-06
6.40186e-06
7.77917e-06
-2.71478e-06
6.63802e-06
1.04215e-05
-2.50905e-06
5.25936e-06
1.56323e-05
-2.17791e-06
2.21941e-06
2.47542e-05
-1.53317e-06
2.67395e-05
-3.55223e-07
-9.69086e-06
-2.2844e-05
3.98847e-06
-1.95439e-05
-2.623e-05
5.38203e-06
-2.71627e-05
-2.27337e-05
5.32981e-06
-3.05708e-05
-1.83549e-05
5.10105e-06
-2.969e-05
-1.67271e-05
4.7151e-06
-2.56451e-05
-1.49277e-05
4.18713e-06
-1.96677e-05
-1.27712e-05
3.59416e-06
-1.35511e-05
-1.04467e-05
2.95785e-06
-8.46225e-06
-8.32576e-06
2.33731e-06
-4.64804e-06
-6.50552e-06
1.77302e-06
-2.0392e-06
-4.94783e-06
1.26816e-06
-4.50783e-07
-3.62301e-06
8.13126e-07
3.78942e-07
-2.52529e-06
3.90575e-07
7.51231e-07
-1.65614e-06
-1.52576e-08
8.14574e-07
-9.9529e-07
-2.68355e-07
7.95503e-07
-4.75294e-07
-5.30098e-07
7.81194e-07
3.95512e-09
-7.79458e-07
9.55993e-07
3.2227e-07
-1.01156e-06
1.28883e-06
6.87955e-07
-1.22575e-06
1.73534e-06
1.06917e-06
-1.42175e-06
2.28493e-06
1.45425e-06
-1.59935e-06
2.93876e-06
1.8509e-06
-1.75819e-06
3.68444e-06
2.27313e-06
-1.89782e-06
4.50257e-06
2.73558e-06
-2.01752e-06
5.36864e-06
3.25524e-06
-2.11623e-06
6.25278e-06
3.85357e-06
-2.1926e-06
7.11756e-06
4.55907e-06
-2.24421e-06
7.91373e-06
5.41228e-06
-2.26724e-06
8.57521e-06
6.47649e-06
-2.25899e-06
9.00723e-06
7.86543e-06
-2.21994e-06
9.03494e-06
9.84021e-06
-2.14536e-06
8.25224e-06
1.31398e-05
-2.01524e-06
5.84715e-06
1.96832e-05
-1.76294e-06
2.39847e-06
2.92584e-05
-1.17845e-06
2.92079e-05
-1.61434e-07
-1.69226e-05
-1.24423e-05
6.3353e-06
-2.8092e-05
-2.34061e-05
7.98206e-06
-3.00326e-05
-2.8789e-05
7.56713e-06
-2.46192e-05
-3.1306e-05
7.12631e-06
-1.69508e-05
-3.15397e-05
6.78482e-06
-7.93214e-06
-3.071e-05
6.4609e-06
2.05319e-06
-2.90725e-05
6.07601e-06
1.24599e-05
-2.66701e-05
5.64297e-06
2.2556e-05
-2.37137e-05
5.18164e-06
3.16901e-05
-2.03982e-05
4.70534e-06
3.9361e-05
-1.68403e-05
4.21705e-06
4.51916e-05
-1.31325e-05
3.71276e-06
4.89009e-05
-9.36481e-06
3.18939e-06
5.02921e-05
-5.62728e-06
2.64983e-06
4.92879e-05
-2.03032e-06
2.10604e-06
4.62992e-05
9.88746e-07
1.57834e-06
4.20111e-05
3.2423e-06
1.08528e-06
3.71625e-05
4.55257e-06
6.37811e-07
3.26746e-05
4.96099e-06
2.23206e-07
2.89489e-05
4.89329e-06
-9.70143e-08
2.58955e-05
4.83733e-06
-3.33251e-07
2.333e-05
4.96803e-06
-5.59626e-07
2.11296e-05
5.22508e-06
-7.63619e-07
1.92364e-05
5.55601e-06
-9.42995e-07
1.76018e-05
5.96819e-06
-1.09726e-06
1.61726e-05
6.48635e-06
-1.22528e-06
1.48925e-05
7.13968e-06
-1.32487e-06
1.37053e-05
7.96759e-06
-1.39506e-06
1.25571e-05
9.03294e-06
-1.43791e-06
1.13901e-05
1.0454e-05
-1.45504e-06
1.01072e-05
1.25268e-05
-1.44325e-06
8.42821e-06
1.61566e-05
-1.39097e-06
5.65761e-06
2.36192e-05
-1.24468e-06
2.33987e-06
3.32754e-05
-7.97411e-07
3.14562e-05
1.55292e-09
-9.0692e-06
-7.53702e-06
3.91824e-06
-1.49925e-05
-2.23798e-05
4.66704e-06
-1.74709e-05
-3.1211e-05
4.75955e-06
-1.72494e-05
-3.64272e-05
4.80556e-06
-1.42458e-05
-3.94671e-05
4.8378e-06
-8.89923e-06
-4.10088e-05
4.8551e-06
-1.55435e-06
-4.139e-05
4.85955e-06
7.58617e-06
-4.07412e-05
4.81392e-06
1.82397e-05
-3.91775e-05
4.70342e-06
2.99891e-05
-3.67868e-05
4.54895e-06
4.2312e-05
-3.36111e-05
4.37907e-06
5.45933e-05
-2.96753e-05
4.21865e-06
6.61219e-05
-2.49812e-05
4.0769e-06
7.61064e-05
-1.95277e-05
3.94418e-06
8.38064e-05
-1.34457e-05
3.7871e-06
8.85069e-05
-7.15159e-06
3.55255e-06
8.99842e-05
-1.28624e-06
3.18817e-06
8.72362e-05
4.75172e-06
2.6817e-06
8.08608e-05
9.36545e-06
2.07609e-06
7.23281e-05
1.20049e-05
1.47676e-06
6.34014e-05
1.279e-05
9.8487e-07
5.53131e-05
1.24411e-05
6.03591e-07
4.84305e-05
1.18047e-05
2.84146e-07
4.25696e-05
1.14004e-05
-5.1243e-09
3.74043e-05
1.12835e-05
-1.74323e-07
3.28019e-05
1.13968e-05
-3.35664e-07
2.86597e-05
1.17265e-05
-4.76522e-07
2.48844e-05
1.23005e-05
-5.94432e-07
2.13915e-05
1.31743e-05
-6.91913e-07
1.80977e-05
1.44637e-05
-7.69235e-07
1.48951e-05
1.64801e-05
-8.22725e-07
1.15524e-05
2.02331e-05
-8.43347e-07
7.4776e-06
2.83245e-05
-7.85926e-07
3.22355e-06
3.78391e-05
-4.68954e-07
3.43547e-05
2.08608e-07
2.27514e-06
-1.21649e-05
2.25639e-06
6.93465e-06
-2.92107e-05
2.00275e-06
1.19931e-05
-3.83756e-05
1.98503e-06
1.66124e-05
-4.32771e-05
2.19734e-06
2.05787e-05
-4.57938e-05
2.40184e-06
2.39829e-05
-4.68965e-05
2.57823e-06
2.70771e-05
-4.70821e-05
2.72762e-06
3.0216e-05
-4.65712e-05
2.83709e-06
3.37388e-05
-4.54394e-05
2.88682e-06
3.79446e-05
-4.37168e-05
2.86511e-06
4.31186e-05
-4.14287e-05
2.77659e-06
4.94934e-05
-3.85687e-05
2.6446e-06
5.7153e-05
-3.50288e-05
2.50936e-06
6.59209e-05
-3.06001e-05
2.42541e-06
7.52811e-05
-2.51158e-05
2.43291e-06
8.43454e-05
-1.86374e-05
2.54062e-06
9.17822e-05
-1.13423e-05
2.73384e-06
9.68215e-05
-3.15811e-06
2.99029e-06
9.67425e-05
6.41156e-06
3.15498e-06
9.14739e-05
1.4372e-05
3.01209e-06
8.28333e-05
1.89687e-05
2.56097e-06
7.3006e-05
2.03914e-05
1.95511e-06
6.34498e-05
2.0017e-05
1.38822e-06
5.48789e-05
1.90416e-05
9.47464e-07
4.73659e-05
1.81882e-05
6.09028e-07
4.07629e-05
1.76525e-05
3.35556e-07
3.49324e-05
1.74368e-05
9.79574e-08
2.9725e-05
1.75507e-05
-7.47101e-08
2.50231e-05
1.80382e-05
-2.03998e-07
2.07382e-05
1.90115e-05
-3.18747e-07
1.67354e-05
2.08138e-05
-4.15159e-07
1.26693e-05
2.46349e-05
-4.89428e-07
7.89868e-06
3.3339e-05
-4.99166e-07
3.36802e-06
4.23927e-05
-2.68976e-07
3.73017e-05
2.81657e-07
8.42633e-06
-2.05084e-05
-2.53854e-07
2.15752e-05
-4.07946e-05
-1.71397e-06
3.47023e-05
-4.9492e-05
-2.07192e-06
4.60176e-05
-5.29533e-05
-1.64849e-06
5.52733e-05
-5.39903e-05
-1.03564e-06
6.25365e-05
-5.36581e-05
-4.52559e-07
6.78502e-05
-5.2398e-05
7.24212e-08
7.12765e-05
-5.04118e-05
5.02931e-07
7.29405e-05
-4.78211e-05
8.22467e-07
7.30567e-05
-4.47417e-05
1.02741e-06
7.19238e-05
-4.12735e-05
1.10665e-06
6.98633e-05
-3.74305e-05
1.05672e-06
6.71863e-05
-3.311e-05
8.95376e-07
6.43623e-05
-2.82934e-05
6.65837e-07
6.21429e-05
-2.31599e-05
4.40052e-07
6.11968e-05
-1.78077e-05
3.18045e-07
6.17544e-05
-1.20861e-05
3.86303e-07
6.34362e-05
-5.38901e-06
7.27114e-07
6.51207e-05
3.54159e-06
1.34043e-06
6.43131e-05
1.3407e-05
1.90541e-06
6.05832e-05
2.07149e-05
2.08625e-06
5.4989e-05
2.41764e-05
1.89056e-06
4.85502e-05
2.50391e-05
1.47994e-06
4.21934e-05
2.44041e-05
1.02404e-06
3.65406e-05
2.31815e-05
6.58181e-07
3.16304e-05
2.21492e-05
3.9219e-07
2.72954e-05
2.15487e-05
1.9041e-07
2.33989e-05
2.13888e-05
1.94037e-08
1.98286e-05
2.1668e-05
-1.02396e-07
1.65207e-05
2.24767e-05
-2.05725e-07
1.33789e-05
2.41858e-05
-2.93391e-07
1.00962e-05
2.818e-05
-3.69605e-07
6.03468e-06
3.76151e-05
-4.00837e-07
2.44362e-06
4.60097e-05
-2.15939e-07
3.94163e-05
2.05447e-07
1.29773e-05
-3.26729e-05
-6.777e-07
2.59145e-05
-5.19627e-05
-1.28854e-06
3.55407e-05
-5.67646e-05
-1.77107e-06
4.25792e-05
-5.74378e-05
-1.98216e-06
4.77223e-05
-5.66563e-05
-1.93629e-06
5.13749e-05
-5.50352e-05
-1.7633e-06
5.36958e-05
-5.26876e-05
-1.54987e-06
5.47678e-05
-4.9712e-05
-1.33201e-06
5.4753e-05
-4.63073e-05
-1.116e-06
5.38776e-05
-4.26488e-05
-9.0476e-07
5.22451e-05
-3.86992e-05
-7.05396e-07
4.96639e-05
-3.41645e-05
-5.23173e-07
4.57547e-05
-2.87461e-05
-3.56619e-07
4.06744e-05
-2.28819e-05
-2.68743e-07
3.55456e-05
-1.76107e-05
-3.58753e-07
3.14778e-05
-1.31028e-05
-5.58132e-07
2.87715e-05
-8.59506e-06
-6.89174e-07
2.69298e-05
-2.89533e-06
-5.51931e-07
2.53354e-05
5.19674e-06
3.09233e-08
2.39803e-05
1.41517e-05
6.84986e-07
2.26278e-05
2.0986e-05
1.12839e-06
2.14888e-05
2.41664e-05
1.16166e-06
2.02866e-05
2.52645e-05
9.77401e-07
1.88177e-05
2.51704e-05
6.95739e-07
1.72853e-05
2.42863e-05
4.01329e-07
1.58198e-05
2.34064e-05
1.69977e-07
1.43941e-05
2.29223e-05
9.36602e-09
1.30014e-05
2.288e-05
-1.4172e-07
1.16083e-05
2.32723e-05
-2.54536e-07
1.01641e-05
2.4217e-05
-3.42098e-07
8.51954e-06
2.61851e-05
-4.06897e-07
6.29803e-06
3.07909e-05
-4.52914e-07
3.34673e-06
4.09363e-05
-4.59679e-07
1.21388e-06
4.83141e-05
-2.79896e-07
4.04776e-05
4.8143e-08
7.5335e-06
-3.87443e-05
-1.10034e-06
1.17175e-05
-5.45427e-05
-1.17217e-06
1.35046e-05
-5.69862e-05
-1.30832e-06
1.45684e-05
-5.68333e-05
-1.48228e-06
1.5298e-05
-5.55925e-05
-1.61459e-06
1.54233e-05
-5.32536e-05
-1.70976e-06
1.45806e-05
-4.98455e-05
-1.78378e-06
1.26271e-05
-4.57044e-05
-1.83812e-06
9.71587e-06
-4.13459e-05
-1.85218e-06
6.23508e-06
-3.71875e-05
-1.81009e-06
2.66667e-06
-3.32771e-05
-1.7169e-06
-5.65181e-07
-2.92586e-05
-1.57866e-06
-3.18347e-06
-2.4686e-05
-1.39437e-06
-5.06681e-06
-1.97602e-05
-1.23084e-06
-6.17799e-06
-1.53504e-05
-1.16279e-06
-6.62234e-06
-1.15383e-05
-1.14283e-06
-6.83951e-06
-7.33879e-06
-1.06913e-06
-7.87787e-06
-1.11492e-06
-7.80267e-07
-9.11476e-06
6.55222e-06
-1.60074e-07
-9.79937e-06
1.44132e-05
3.83868e-07
-9.0541e-06
1.9531e-05
6.71401e-07
-7.45286e-06
2.18677e-05
6.57493e-07
-5.53604e-06
2.27874e-05
5.21965e-07
-3.63395e-06
2.29098e-05
3.24008e-07
-2.03813e-06
2.25522e-05
1.04949e-07
-7.70408e-07
2.21944e-05
-8.79602e-08
2.78565e-07
2.20996e-05
-2.56581e-07
1.1841e-06
2.2325e-05
-3.78974e-07
1.98274e-06
2.29242e-05
-4.76735e-07
2.63543e-06
2.40981e-05
-5.55932e-07
2.90773e-06
2.65143e-05
-6.14335e-07
2.15456e-06
3.21919e-05
-6.4438e-07
4.32716e-07
4.32664e-05
-6.11903e-07
-3.44606e-08
4.91571e-05
-4.1226e-07
4.04687e-05
-1.07768e-07
1.25852e-06
-3.9546e-05
-3.93575e-07
2.27588e-06
-5.54801e-05
-2.78489e-08
3.58564e-06
-5.81115e-05
-1.26591e-07
4.87534e-06
-5.76854e-05
-3.56733e-07
5.60291e-06
-5.55465e-05
-6.61566e-07
5.35012e-06
-5.18514e-05
-1.02651e-06
4.16264e-06
-4.72034e-05
-1.36624e-06
2.39433e-06
-4.23307e-05
-1.58038e-06
3.91996e-07
-3.77468e-05
-1.63041e-06
-1.65349e-06
-3.3664e-05
-1.54969e-06
-3.61267e-06
-3.00035e-05
-1.40347e-06
-5.24771e-06
-2.6464e-05
-1.24961e-06
-6.24595e-06
-2.26466e-05
-1.11846e-06
-6.73722e-06
-1.83136e-05
-1.00999e-06
-7.32925e-06
-1.38705e-05
-9.20728e-07
-8.12578e-06
-9.93818e-06
-8.27478e-07
-8.63986e-06
-6.19528e-06
-6.59303e-07
-8.03046e-06
-1.47152e-06
-2.99532e-07
-7.20699e-06
5.40172e-06
2.61867e-07
-6.94146e-06
1.34091e-05
6.71967e-07
-7.01731e-06
1.88174e-05
7.33706e-07
-6.60052e-06
2.0752e-05
6.4843e-07
-5.71472e-06
2.13553e-05
4.9959e-07
-4.61362e-06
2.14528e-05
3.13309e-07
-3.54571e-06
2.13307e-05
1.14366e-07
-2.55203e-06
2.12275e-05
-6.35999e-08
-1.56822e-06
2.13065e-05
-2.24376e-07
-5.79621e-07
2.16591e-05
-3.51765e-07
3.87969e-07
2.23937e-05
-4.58414e-07
1.24994e-06
2.37783e-05
-5.47779e-07
1.76256e-06
2.66513e-05
-6.17982e-07
1.34794e-06
3.33732e-05
-6.60423e-07
1.37666e-07
4.52529e-05
-6.28789e-07
6.92073e-08
4.9712e-05
-4.4387e-07
4.06251e-05
-1.78077e-07
5.87965e-06
-4.46756e-05
-3.04535e-07
8.38359e-06
-5.69417e-05
-4.95359e-07
9.15502e-06
-5.77616e-05
-6.93759e-07
8.75102e-06
-5.59814e-05
-9.09454e-07
7.16559e-06
-5.23017e-05
-1.26265e-06
4.92416e-06
-4.75217e-05
-1.72425e-06
2.76395e-06
-4.26056e-05
-2.13927e-06
1.17619e-06
-3.81267e-05
-2.38311e-06
3.68214e-07
-3.43394e-05
-2.41505e-06
2.92851e-07
-3.11745e-05
-2.2685e-06
7.09657e-07
-2.83069e-05
-2.00888e-06
1.31441e-06
-2.53189e-05
-1.69269e-06
1.79405e-06
-2.17587e-05
-1.35967e-06
1.80743e-06
-1.73056e-05
-1.05272e-06
1.0395e-06
-1.23184e-05
-8.28412e-07
-3.39653e-07
-7.90236e-06
-6.93947e-07
-1.47213e-06
-4.51137e-06
-5.80982e-07
-1.16223e-06
-1.42744e-06
-3.8403e-07
1.11746e-06
3.01946e-06
5.92421e-08
3.82346e-06
9.90652e-06
7.33281e-07
4.64185e-06
1.68858e-05
1.04807e-06
3.93505e-06
2.04837e-05
9.20969e-07
3.17042e-06
2.13362e-05
7.36666e-07
2.6684e-06
2.13621e-05
5.51002e-07
2.43467e-06
2.11527e-05
3.73675e-07
2.41362e-06
2.1004e-05
2.09157e-07
2.54271e-06
2.10859e-05
5.865e-08
2.77026e-06
2.14813e-05
-7.86275e-08
3.03576e-06
2.23123e-05
-2.06111e-07
3.23211e-06
2.38969e-05
-3.22602e-07
3.11791e-06
2.7219e-05
-4.26515e-07
2.15754e-06
3.49459e-05
-5.13601e-07
7.87613e-07
4.73058e-05
-5.26687e-07
5.50711e-07
5.03722e-05
-3.80041e-07
4.12175e-05
-1.43259e-07
5.1521e-06
-4.9794e-05
8.51771e-07
4.38478e-06
-5.67423e-05
9.64869e-07
2.12171e-06
-5.58633e-05
5.09453e-07
-9.66915e-07
-5.28423e-05
-3.51816e-08
-3.9768e-06
-4.87021e-05
-6.81921e-07
-5.93813e-06
-4.44325e-05
-1.29269e-06
-6.73092e-06
-4.01873e-05
-1.79915e-06
-6.76649e-06
-3.60361e-05
-2.18914e-06
-6.48567e-06
-3.22665e-05
-2.42707e-06
-6.148e-06
-2.90302e-05
-2.495e-06
-5.85283e-06
-2.61469e-05
-2.4216e-06
-5.6161e-06
-2.3257e-05
-2.23718e-06
-5.40113e-06
-1.9957e-05
-1.95135e-06
-5.14578e-06
-1.59344e-05
-1.58458e-06
-4.91174e-06
-1.13302e-05
-1.22029e-06
-4.8856e-06
-7.00401e-06
-9.53409e-07
-5.00177e-06
-3.66463e-06
-7.72513e-07
-4.87762e-06
-9.98073e-07
-6.01623e-07
-3.39491e-06
1.81605e-06
-3.37473e-07
2.73851e-07
5.98206e-06
1.80009e-07
4.11007e-06
1.20741e-05
8.85818e-07
5.47812e-06
1.78154e-05
1.22547e-06
5.04839e-06
2.059e-05
1.12275e-06
4.19199e-06
2.12655e-05
9.12093e-07
3.45514e-06
2.11829e-05
6.73746e-07
3.00743e-06
2.09586e-05
4.64478e-07
2.85796e-06
2.09135e-05
2.95486e-07
2.94813e-06
2.12198e-05
1.47263e-07
3.20968e-06
2.20367e-05
-5.70989e-09
3.44478e-06
2.3769e-05
-1.17547e-07
3.24887e-06
2.76568e-05
-2.27637e-07
2.02105e-06
3.65654e-05
-3.29257e-07
7.21642e-07
4.90598e-05
-3.80684e-07
4.8769e-07
5.08786e-05
-2.8011e-07
4.16912e-05
-8.53473e-08
-7.54882e-06
-4.47217e-05
2.42573e-06
-1.4668e-05
-5.25533e-05
2.5731e-06
-2.02589e-05
-5.24851e-05
1.67836e-06
-2.3693e-05
-5.07448e-05
7.20444e-07
-2.45568e-05
-4.8414e-05
-1.77089e-08
-2.34301e-05
-4.56023e-05
-4.4715e-07
-2.12645e-05
-4.19138e-05
-8.13128e-07
-1.88208e-05
-3.76021e-05
-1.14996e-06
-1.65802e-05
-3.3261e-05
-1.43681e-06
-1.4896e-05
-2.92039e-05
-1.63457e-06
-1.39099e-05
-2.54707e-05
-1.73263e-06
-1.35222e-05
-2.19313e-05
-1.74034e-06
-1.34377e-05
-1.8376e-05
-1.65711e-06
-1.32161e-05
-1.46531e-05
-1.47501e-06
-1.24458e-05
-1.08532e-05
-1.22783e-06
-1.11111e-05
-7.3506e-06
-9.93686e-07
-9.54655e-06
-4.45062e-06
-8.03745e-07
-7.93458e-06
-2.01342e-06
-6.33213e-07
-6.10904e-06
3.81134e-07
-4.37913e-07
-3.1581e-06
3.11121e-06
-1.43356e-07
1.26874e-06
7.16765e-06
3.96008e-07
5.32728e-06
1.26032e-05
1.05898e-06
7.01036e-06
1.7431e-05
1.39396e-06
6.98868e-06
1.98608e-05
1.36297e-06
6.27343e-06
2.06504e-05
1.19808e-06
5.3869e-06
2.08262e-05
9.81125e-07
4.60132e-06
2.09068e-05
7.64135e-07
4.03407e-06
2.11976e-05
5.68586e-07
3.71629e-06
2.19563e-05
3.84969e-07
3.57208e-06
2.37139e-05
1.98345e-07
3.19656e-06
2.80653e-05
-1.0195e-08
1.84884e-06
3.81285e-05
-1.45096e-07
7.81907e-07
5.04334e-05
-2.18224e-07
4.54598e-07
5.13671e-05
-1.49327e-07
4.2075e-05
-1.54613e-09
-1.5679e-05
-3.39858e-05
3.83946e-06
-2.37359e-05
-5.02547e-05
4.56413e-06
-2.73614e-05
-5.38763e-05
3.87924e-06
-2.77441e-05
-5.46615e-05
3.29251e-06
-2.58133e-05
-5.39866e-05
2.81302e-06
-2.26155e-05
-5.17689e-05
2.3311e-06
-1.8951e-05
-4.78359e-05
1.80628e-06
-1.5371e-05
-4.27245e-05
1.24843e-06
-1.22115e-05
-3.72989e-05
7.00069e-07
-9.72327e-06
-3.19661e-05
1.75893e-07
-8.18696e-06
-2.68904e-05
-1.58987e-07
-7.49946e-06
-2.21953e-05
-4.30612e-07
-7.28191e-06
-1.79631e-05
-6.18618e-07
-6.98792e-06
-1.42141e-05
-7.16029e-07
-6.17657e-06
-1.09218e-05
-7.32203e-07
-4.7996e-06
-8.04157e-06
-6.87575e-07
-3.1391e-06
-5.51791e-06
-6.05868e-07
-1.41849e-06
-3.25305e-06
-5.01467e-07
3.70192e-07
-1.06027e-06
-3.73692e-07
2.41869e-06
1.23248e-06
-2.02202e-07
5.43275e-06
4.05479e-06
5.83458e-08
9.33466e-06
8.03152e-06
6.19646e-07
1.24428e-05
1.30576e-05
1.20783e-06
1.32961e-05
1.74594e-05
1.49298e-06
1.25672e-05
1.98317e-05
1.49791e-06
1.12215e-05
2.07376e-05
1.39061e-06
9.72282e-06
2.11379e-05
1.23094e-06
8.28444e-06
2.15571e-05
1.0509e-06
7.02757e-06
2.23318e-05
8.65004e-07
6.01437e-06
2.40614e-05
6.66055e-07
5.02214e-06
2.86398e-05
4.30608e-07
3.28398e-06
3.96877e-05
1.36644e-07
1.73544e-06
5.19363e-05
-6.71963e-08
7.36353e-07
5.23024e-05
-6.12352e-08
4.25837e-05
1.03766e-07
-1.08923e-05
-2.84191e-05
4.34575e-06
-1.55536e-05
-5.16297e-05
5.109e-06
-1.70815e-05
-5.77419e-05
4.81417e-06
-1.74668e-05
-5.92243e-05
4.50345e-06
-1.71332e-05
-5.89509e-05
4.22216e-06
-1.58886e-05
-5.73801e-05
3.94618e-06
-1.33346e-05
-5.44975e-05
3.65834e-06
-9.42923e-06
-5.04098e-05
3.34579e-06
-4.61767e-06
-4.54718e-05
2.99302e-06
5.59866e-07
-4.00177e-05
2.5943e-06
5.63083e-06
-3.43028e-05
2.15319e-06
1.0219e-05
-2.85788e-05
1.68864e-06
1.40482e-05
-2.30691e-05
1.23286e-06
1.69317e-05
-1.79195e-05
8.18408e-07
1.87563e-05
-1.32015e-05
4.70641e-07
1.95443e-05
-9.01438e-06
2.02351e-07
1.95237e-05
-5.52472e-06
3.80369e-08
1.90468e-05
-2.75082e-06
-2.32968e-08
1.8483e-05
-4.82619e-07
-1.83853e-08
1.81026e-05
1.55998e-06
4.5203e-08
1.82613e-05
3.67383e-06
2.15718e-07
1.94767e-05
6.29779e-06
5.17415e-07
2.15287e-05
9.97996e-06
1.03145e-06
2.26861e-05
1.4689e-05
1.61362e-06
2.1727e-05
1.89018e-05
1.871e-06
1.91935e-05
2.14099e-05
1.83192e-06
1.61324e-05
2.2479e-05
1.68876e-06
1.31169e-05
2.30274e-05
1.51434e-06
1.03294e-05
2.37625e-05
1.32937e-06
7.87093e-06
2.53847e-05
1.12856e-06
5.9009e-06
2.98048e-05
8.85765e-07
4.22661e-06
4.09946e-05
5.76512e-07
2.6911e-06
5.32351e-05
3.07565e-07
1.30002e-06
5.34471e-05
2.54365e-07
4.35087e-05
3.50702e-07
-3.05753e-06
-2.89801e-05
3.34696e-06
-5.65862e-06
-5.19153e-05
3.22045e-06
-7.43252e-06
-5.81303e-05
2.71093e-06
-8.8185e-06
-5.96512e-05
2.36385e-06
-9.66769e-06
-5.97643e-05
2.13952e-06
-9.58244e-06
-5.91321e-05
2.01924e-06
-8.0024e-06
-5.78817e-05
1.9946e-06
-4.5372e-06
-5.59115e-05
2.05289e-06
7.70445e-07
-5.30794e-05
2.17399e-06
7.58243e-06
-4.9369e-05
2.32408e-06
1.54213e-05
-4.4863e-05
2.46707e-06
2.37185e-05
-3.96905e-05
2.56412e-06
3.18363e-05
-3.39765e-05
2.57714e-06
3.91012e-05
-2.78099e-05
2.47541e-06
4.48174e-05
-2.12347e-05
2.24091e-06
4.8225e-05
-1.43105e-05
1.87869e-06
4.88953e-05
-7.61007e-06
1.44327e-06
4.7268e-05
-2.12625e-06
1.03794e-06
4.42453e-05
1.82708e-06
7.38748e-07
4.07028e-05
4.55384e-06
5.62695e-07
3.72956e-05
6.58887e-06
4.9841e-07
3.46115e-05
8.44642e-06
5.40954e-07
3.32661e-05
1.06109e-05
7.30906e-07
3.31016e-05
1.37092e-05
1.18314e-06
3.23796e-05
1.78532e-05
1.81636e-06
2.97479e-05
2.1843e-05
2.21509e-06
2.55951e-05
2.43867e-05
2.22939e-06
2.10442e-05
2.55148e-05
2.03408e-06
1.68819e-05
2.611e-05
1.7826e-06
1.34345e-05
2.72686e-05
1.52776e-06
1.062e-05
3.13261e-05
1.24745e-06
7.59648e-06
4.31103e-05
9.03394e-07
4.81195e-06
5.54583e-05
6.0982e-07
2.17279e-06
5.55798e-05
5.1959e-07
4.51104e-05
5.29922e-07
2.96726e-06
-3.33187e-05
1.47023e-06
4.58487e-06
-5.45563e-05
1.34441e-06
6.14926e-06
-6.0735e-05
1.29588e-06
7.85587e-06
-6.23887e-05
1.23962e-06
9.68305e-06
-6.25456e-05
1.14836e-06
1.16009e-05
-6.18492e-05
1.01202e-06
1.35782e-05
-6.0437e-05
8.31129e-07
1.56963e-05
-5.83594e-05
6.17221e-07
1.81521e-05
-5.56512e-05
4.04643e-07
2.11401e-05
-5.2379e-05
2.69626e-07
2.48393e-05
-4.86763e-05
2.90046e-07
2.94434e-05
-4.46941e-05
4.90305e-07
3.50897e-05
-4.04574e-05
8.41587e-07
4.1715e-05
-3.57879e-05
1.29055e-06
4.88954e-05
-3.02887e-05
1.77114e-06
5.5494e-05
-2.31933e-05
2.18824e-06
5.97668e-05
-1.42754e-05
2.34629e-06
6.08025e-05
-5.28055e-06
2.12863e-06
5.89777e-05
2.00923e-06
1.68141e-06
5.53211e-05
7.02058e-06
1.22893e-06
5.08774e-05
1.01696e-05
8.90478e-07
4.633e-05
1.23186e-05
6.90726e-07
4.22462e-05
1.40772e-05
6.25608e-07
3.93012e-05
1.59485e-05
7.15628e-07
3.75693e-05
1.85485e-05
1.06277e-06
3.56684e-05
2.211e-05
1.6654e-06
3.22092e-05
2.56623e-05
2.18288e-06
2.72353e-05
2.80901e-05
2.35413e-06
2.16399e-05
2.94066e-05
2.23028e-06
1.63556e-05
3.05256e-05
1.95524e-06
1.22314e-05
3.37953e-05
1.58595e-06
8.78194e-06
4.53126e-05
1.1213e-06
5.53485e-06
5.77977e-05
7.18152e-07
2.54985e-06
5.78459e-05
5.75768e-07
4.70199e-05
5.50098e-07
6.73729e-06
-4.02395e-05
3.0097e-07
1.20923e-05
-6.06514e-05
5.70936e-07
1.63674e-05
-6.62783e-05
9.43819e-07
2.02043e-05
-6.77249e-05
1.14706e-06
2.37412e-05
-6.76757e-05
1.24847e-06
2.69855e-05
-6.6693e-05
1.27191e-06
2.99142e-05
-6.48784e-05
1.21411e-06
3.24765e-05
-6.22227e-05
1.05896e-06
3.46192e-05
-5.87296e-05
7.86679e-07
3.6305e-05
-5.45013e-05
4.04397e-07
3.75563e-05
-4.98139e-05
-3.3443e-08
3.85368e-05
-4.50989e-05
-4.1491e-07
3.97041e-05
-4.07382e-05
-6.91612e-07
4.16464e-05
-3.67643e-05
-7.83355e-07
4.47611e-05
-3.26601e-05
-6.12561e-07
4.8771e-05
-2.70836e-05
-5.54168e-08
5.21469e-05
-1.84379e-05
8.02693e-07
5.34771e-05
-8.0446e-06
1.43897e-06
5.27762e-05
1.17457e-06
1.55463e-06
5.07022e-05
7.83255e-06
1.29181e-06
4.80243e-05
1.1955e-05
9.20301e-07
4.51547e-05
1.46039e-05
6.03217e-07
4.22727e-05
1.65735e-05
3.94657e-07
3.9546e-05
1.83736e-05
3.03193e-07
3.72978e-05
2.04469e-05
3.49027e-07
3.54785e-05
2.33229e-05
6.16111e-07
3.30052e-05
2.70346e-05
1.1198e-06
2.89421e-05
3.05345e-05
1.62493e-06
2.34391e-05
3.29793e-05
1.90839e-06
1.73657e-05
3.46268e-05
1.93721e-06
1.22427e-05
3.72376e-05
1.75236e-06
8.83588e-06
4.76913e-05
1.38444e-06
5.85496e-06
6.00513e-05
1.04707e-06
2.82253e-06
6.01856e-05
8.84401e-07
4.92028e-05
7.06401e-07
6.10844e-06
-4.56804e-05
-5.88122e-07
1.10576e-05
-6.474e-05
-7.73875e-07
1.46617e-05
-6.91027e-05
-6.51215e-07
1.76329e-05
-7.00194e-05
-5.29802e-07
2.02446e-05
-6.97113e-05
-4.269e-07
2.26328e-05
-6.86143e-05
-3.34259e-07
2.49101e-05
-6.68158e-05
-2.45726e-07
2.71634e-05
-6.42872e-05
-1.57976e-07
2.94275e-05
-6.09743e-05
-7.05393e-08
3.17189e-05
-5.68905e-05
-3.0713e-08
3.39418e-05
-5.21568e-05
-4.82077e-08
3.59171e-05
-4.70301e-05
-1.95902e-07
3.74163e-05
-4.18935e-05
-4.3556e-07
3.8327e-05
-3.69726e-05
-7.24055e-07
3.86185e-05
-3.19247e-05
-9.9482e-07
3.8201e-05
-2.55433e-05
-1.05497e-06
3.68341e-05
-1.64211e-05
-5.70908e-07
3.4809e-05
-6.09065e-06
1.32757e-07
3.30044e-05
2.53621e-06
4.87078e-07
3.19766e-05
8.4369e-06
4.56778e-07
3.15006e-05
1.22099e-05
2.46906e-07
3.12058e-05
1.4889e-05
3.18332e-08
3.08231e-05
1.7169e-05
-1.89425e-07
3.00653e-05
1.94878e-05
-3.26673e-07
2.87451e-05
2.21669e-05
-3.56752e-07
2.68877e-05
2.54409e-05
-1.89525e-07
2.46365e-05
2.91563e-05
2.34418e-07
2.19935e-05
3.25006e-05
7.79821e-07
1.89822e-05
3.48469e-05
1.19879e-06
1.57605e-05
3.6464e-05
1.37501e-06
1.24186e-05
3.91836e-05
1.31586e-06
9.06968e-06
5.00696e-05
9.5864e-07
5.43836e-06
6.31405e-05
5.85632e-07
2.29849e-06
6.28988e-05
4.36311e-07
5.11415e-05
3.18503e-07
3.86047e-06
-4.84977e-05
-1.06038e-06
7.70825e-06
-6.72019e-05
-1.22315e-06
1.09141e-05
-7.09269e-05
-1.15046e-06
1.37045e-05
-7.14593e-05
-1.09737e-06
1.62096e-05
-7.0872e-05
-1.07761e-06
1.84342e-05
-6.94635e-05
-1.08886e-06
2.02701e-05
-6.72054e-05
-1.12997e-06
2.15043e-05
-6.39742e-05
-1.19502e-06
2.19766e-05
-5.9814e-05
-1.25985e-06
2.18917e-05
-5.51788e-05
-1.27964e-06
2.17939e-05
-5.05823e-05
-1.2137e-06
2.20933e-05
-4.61123e-05
-1.06974e-06
2.26803e-05
-4.15229e-05
-9.10561e-07
2.28993e-05
-3.63985e-05
-8.04318e-07
2.17156e-05
-2.99928e-05
-7.81735e-07
1.83628e-05
-2.14421e-05
-7.76e-07
1.38598e-05
-1.13735e-05
-5.46513e-07
1.0381e-05
-2.43605e-06
-1.65289e-07
9.03189e-06
3.90382e-06
-1.04095e-08
9.4821e-06
8.10294e-06
-1.09307e-07
1.074e-05
1.12884e-05
-3.22554e-07
1.20309e-05
1.41606e-05
-5.33963e-07
1.29627e-05
1.69987e-05
-7.14529e-07
1.3369e-05
1.99783e-05
-8.28245e-07
1.32038e-05
2.32407e-05
-8.13776e-07
1.26691e-05
2.66941e-05
-5.94529e-07
1.21523e-05
2.99652e-05
-1.55884e-07
1.18907e-05
3.26053e-05
2.58859e-07
1.15639e-05
3.4615e-05
5.64279e-07
1.02627e-05
3.68302e-05
7.29483e-07
6.19268e-06
4.1763e-05
7.85694e-07
1.15547e-06
5.32599e-05
7.82025e-07
-4.44031e-07
6.36336e-05
5.83218e-07
-7.85616e-07
6.2481e-05
4.5559e-07
4.99377e-05
2.27924e-07
1.9918e-06
-4.96743e-05
-8.12479e-07
3.81029e-06
-6.84531e-05
-5.84558e-07
5.36924e-06
-7.21088e-05
-4.39476e-07
6.85231e-06
-7.26482e-05
-3.78325e-07
8.27491e-06
-7.20236e-05
-3.6362e-07
9.56633e-06
-7.04525e-05
-3.91805e-07
1.05665e-05
-6.78008e-05
-4.72813e-07
1.09918e-05
-6.37964e-05
-6.20555e-07
1.05181e-05
-5.84454e-05
-8.32007e-07
9.01162e-06
-5.247e-05
-1.05374e-06
6.72995e-06
-4.68959e-05
-1.20085e-06
4.20142e-06
-4.21548e-05
-1.21791e-06
1.77923e-06
-3.78309e-05
-1.09407e-06
-6.93041e-07
-3.29663e-05
-8.45215e-07
-3.8337e-06
-2.62798e-05
-5.26479e-07
-7.9857e-06
-1.70596e-05
-2.46677e-07
-1.20297e-05
-7.32708e-06
-5.26951e-08
-1.43914e-05
-1.28696e-07
-3.33824e-09
-1.41714e-05
3.68983e-06
-5.89064e-08
-1.27058e-05
6.79407e-06
-2.00939e-07
-1.09769e-05
9.89815e-06
-3.65202e-07
-9.63226e-06
1.33559e-05
-5.35149e-07
-8.85909e-06
1.69227e-05
-6.63051e-07
-8.37227e-06