/*--------------------------------*- C++ -*----------------------------------*\
| =========                 |                                                 |
| \\      /  F ield         | OpenFOAM: The Open Source CFD Toolbox           |
|  \\    /   O peration     | Version:  v2006                                 |
|   \\  /    A nd           | Website:  www.openfoam.com                      |
|    \\/     M anipulation  |                                                 |
\*---------------------------------------------------------------------------*/
FoamFile
{
    version     2.0;
    format      ascii;
    class       volScalarField;
    location    "72";
    object      T;
}
// * * * * * * * * * * * * * * * * * * * * * * * * * * * * * * * * * * * * * //

dimensions      [0 0 0 1 0 0 0];


internalField   nonuniform List<scalar> 
78750
(
325.341
326.677
327.314
327.619
327.027
326.096
326.051
325.624
325.539
325.3
325.178
325.021
324.902
324.786
324.684
324.589
324.501
324.415
324.33
324.241
324.146
324.042
323.924
323.791
323.637
323.459
323.251
323.002
322.699
322.309
321.795
321.055
320.356
323.094
425.177
313.952
324.555
331.501
337.978
338.767
335.336
333.439
332.51
331.845
331.334
330.882
330.469
330.078
329.708
329.36
329.032
328.723
328.429
328.147
327.874
327.606
327.341
327.078
326.814
326.551
326.287
326.028
325.78
325.558
325.398
325.395
325.861
328.439
346.354
449.43
313.417
324.555
328.779
331.454
334.651
336.872
336.678
335.606
334.774
334.234
333.839
333.512
333.205
332.888
332.559
332.237
331.932
331.645
331.374
331.118
330.875
330.644
330.425
330.218
330.025
329.851
329.705
329.605
329.584
329.71
330.152
331.492
336.594
361.514
460.154
317.311
330.437
338.121
342.39
341.158
339.079
338.269
337.724
337.261
336.845
336.431
336.021
335.634
335.276
334.94
334.617
334.306
334.011
333.734
333.478
333.244
333.031
332.843
332.68
332.545
332.445
332.389
332.396
332.507
332.807
333.536
335.597
343.347
374.832
469.705
320.784
333.355
337.537
338.981
338.855
338.787
338.536
338.173
337.791
337.432
337.1
336.789
336.495
336.215
335.947
335.691
335.448
335.22
335.006
334.806
334.623
334.46
334.321
334.21
334.138
334.114
334.158
334.303
334.609
335.21
336.466
339.655
350.184
384.894
474.96
316.385
327.255
330.301
332.678
334.733
336.224
337.366
338.211
338.775
339.093
339.198
339.118
338.883
338.531
338.114
337.681
337.274
336.916
336.607
336.336
336.092
335.874
335.683
335.523
335.402
335.332
335.333
335.443
335.732
336.362
337.794
341.708
354.777
392.694
479.088
312.409
319.937
323.649
326.53
328.893
330.966
332.876
334.619
336.13
337.399
338.438
339.251
339.831
340.155
340.198
339.957
339.463
338.818
338.141
337.552
337.14
336.874
336.678
336.516
336.386
336.301
336.284
336.375
336.653
337.294
338.806
343.169
358.262
397.963
480.71
307.579
317.223
323.528
327.718
330.666
332.889
334.661
336.148
337.46
338.652
339.731
340.677
341.466
342.055
342.389
342.465
342.331
341.973
341.375
340.65
339.894
339.155
338.54
338.084
337.743
337.493
337.34
337.319
337.495
338.025
339.383
343.594
359.434
400.374
481.367
307.551
317.07
323.651
328.502
332.133
334.918
337.152
339.032
340.654
342.057
343.254
344.261
345.096
345.713
345.959
345.736
345.153
344.383
343.458
342.408
341.377
340.448
339.588
338.861
338.359
338.051
337.894
337.887
338.081
338.638
340.13
345.124
363.58
405.201
481.929
307.603
320.381
328.841
333.813
336.985
339.345
341.265
342.86
344.177
345.265
346.194
347.038
347.837
348.482
348.711
348.396
347.639
346.566
345.245
343.8
342.392
341.316
340.532
339.865
339.344
339.019
338.844
338.803
338.928
339.37
340.719
345.834
366.003
408.768
482.776
313.387
330.525
337.901
341.543
344.085
346.192
347.928
349.193
349.933
350.253
350.344
350.342
350.255
349.954
349.407
348.719
347.858
346.684
345.234
343.761
342.458
341.566
340.928
340.357
339.869
339.565
339.445
339.49
339.752
340.461
342.503
349.563
373.03
415.261
483.665
315.484
330.073
336.222
339.681
342.439
344.905
346.847
348.095
348.789
349.201
349.517
349.805
350.052
350.169
350.018
349.538
348.687
347.351
345.553
343.736
342.495
341.743
341.204
340.748
340.381
340.154
340.075
340.152
340.468
341.327
343.872
352.654
379.765
420.931
483.487
315.757
332.283
339.503
343.709
347.124
349.651
350.858
350.892
350.276
349.532
348.97
348.727
348.888
349.452
350.104
350.386
350.174
349.442
347.985
345.806
343.714
342.597
341.969
341.506
341.154
340.923
340.831
340.917
341.299
342.349
345.459
355.861
385.812
425.102
482.302
323.017
338.756
344.531
348.041
350.845
352.644
353.61
353.867
353.493
352.722
351.803
350.888
350.144
349.842
350.114
350.571
350.751
350.551
349.864
348.373
346.094
343.941
342.815
342.183
341.761
341.535
341.473
341.578
341.969
343.072
346.529
358.584
391.635
428.709
480.858
330.664
341.111
344.431
346.33
347.358
348.234
349.258
350.261
350.995
351.352
351.388
351.198
350.88
350.605
350.59
350.802
350.967
350.946
350.68
349.986
348.545
346.39
344.373
343.182
342.479
342.058
341.929
342.102
342.688
344.224
348.773
363.254
398.554
432.846
480.228
325.904
335.588
337.95
339.774
341.787
344.103
346.525
348.563
349.996
350.915
351.434
351.66
351.702
351.657
351.603
351.577
351.561
351.505
351.352
351.013
350.292
348.915
346.934
345.12
343.969
343.245
342.813
342.72
343.123
344.637
349.775
366.203
402.417
434.998
479.952
315.962
323.627
327.794
331.134
334.335
337.732
341.322
344.671
347.388
349.435
350.89
351.829
352.338
352.524
352.502
352.382
352.237
352.096
351.942
351.729
351.36
350.636
349.247
347.205
345.377
344.275
343.67
343.448
343.762
345.306
351.125
370.572
408.966
440.022
482.485
310.627
321.167
328.269
332.297
335.119
337.437
339.529
341.651
343.871
346.071
348.126
349.943
351.451
352.587
353.305
353.59
353.522
353.27
352.981
352.712
352.443
352.091
351.469
350.19
348.102
345.959
344.557
343.943
344.055
345.295
350.026
367.314
406.075
437.789
480.649
310.281
325.161
333.4
337.427
339.917
341.788
343.269
344.471
345.525
346.566
347.675
348.866
350.123
351.411
352.671
353.756
354.431
354.577
354.318
353.893
353.461
353.06
352.64
352.043
350.905
348.937
346.664
344.946
344.215
345.011
350.5
371.047
409.518
440.755
483.37
311.751
325.974
332.855
336.596
339.289
341.693
344.03
346.33
348.491
350.359
351.821
352.86
353.562
354.072
354.547
355.072
355.539
355.783
355.683
355.293
354.781
354.277
353.821
353.373
352.792
351.767
350.034
347.938
346.179
345.469
348.133
366.575
408.35
440.149
481.948
313.853
326.689
332.56
335.946
338.503
340.734
342.809
344.855
346.988
349.257
351.569
353.701
355.421
356.642
357.454
357.904
357.854
357.413
356.793
356.104
355.439
354.845
354.309
353.795
353.222
352.378
350.946
348.99
347.138
346.105
347.83
363.847
403.722
437.033
481.235
315.133
329.343
335.877
339.517
342.204
344.496
346.551
348.42
350.085
351.532
352.85
354.186
355.576
356.938
358.178
359.042
359.06
358.347
357.385
356.466
355.661
354.947
354.27
353.564
352.734
351.636
350.17
348.522
347.108
346.454
348.951
365.949
408.065
440.117
481.727
314.969
329.888
336.433
340.046
342.806
345.341
347.879
350.51
353.069
355.177
356.611
357.513
358.188
358.867
359.535
359.732
359.032
357.909
356.84
355.858
354.854
353.811
352.83
351.912
350.957
349.909
348.83
348.028
348.183
351.078
361.859
386.611
418.036
446.086
487.389
315.454
330.032
336.21
339.674
342.366
344.846
347.34
349.97
352.679
355.189
357.174
358.531
359.417
360.034
360.407
360.229
359.221
357.961
356.861
355.753
354.463
353.012
351.754
350.915
350.189
349.381
348.515
347.55
346.255
344.371
345.631
371.176
414.533
445.706
487.35
315.764
330.373
336.866
340.523
343.337
345.922
348.457
350.9
353.09
355.011
356.696
358.055
359.035
359.734
360.272
360.588
360.236
359.102
357.87
356.683
355.29
353.466
351.368
349.715
348.98
348.742
348.742
349.399
351.883
358.347
368.766
383.47
419.248
448.96
488.78
315.839
331.406
338.385
342.286
345.325
348.232
351.212
354.043
356.229
357.638
358.58
359.34
359.965
360.428
360.775
361.085
361.324
361.056
360.056
358.761
357.455
355.949
353.922
351.405
349.237
348.313
348.624
350.082
353.623
362.34
383.801
423.88
443.317
463.273
503.486
316.339
332.107
339.003
342.932
346.103
349.267
352.636
355.88
358.419
359.999
360.804
361.205
361.459
361.652
361.783
361.86
361.913
361.956
361.796
361.074
359.945
358.781
357.602
356.24
354.565
352.768
351.215
349.361
344.746
336.238
325.587
352.378
408.43
443.386
485.95
317.526
333.488
340.213
344.169
347.557
351.06
354.677
357.739
359.886
361.289
362.14
362.607
362.851
362.975
363.029
363.032
362.99
362.895
362.703
362.257
361.319
360.064
358.799
357.463
355.569
352.685
350.06
350.205
356.698
364.334
357.026
356.973
404.012
440.287
482.532
318.821
335.112
341.742
345.738
349.35
353.233
357.158
360.078
361.652
362.459
362.96
363.306
363.542
363.696
363.785
363.818
363.797
363.718
363.554
363.221
362.556
361.476
360.122
358.51
356.32
353.723
353.236
359.822
376.858
399.021
418.509
432.781
445.831
465.786
506.718
320.068
335.836
342.099
346.036
349.732
353.731
357.874
361.194
363.042
363.822
364.143
364.316
364.439
364.533
364.594
364.621
364.608
364.551
364.43
364.208
363.792
363.053
362.026
360.929
359.808
358.572
357.311
356.024
354.501
357.806
368.986
401.875
437.822
463.365
502.641
320.68
335.75
341.669
345.429
348.908
352.574
356.509
360.212
362.872
364.298
364.91
365.137
365.215
365.241
365.247
365.239
365.21
365.148
365.035
364.834
364.469
363.816
362.831
361.686
360.573
359.587
358.444
358.062
358.905
358.827
348.214
347.315
402.882
441.375
483.289
320.759
335.41
341.06
344.57
347.647
350.696
354.005
357.656
361.127
363.684
365.152
365.831
366.082
366.138
366.112
366.05
365.967
365.859
365.712
365.489
365.118
364.48
363.488
362.217
360.78
359.248
357.839
360.321
374.504
386.012
378.828
373.74
408.134
443.98
489.907
319.328
333.718
339.622
343.221
346.217
348.988
351.745
354.768
358.173
361.499
364.074
365.651
366.426
366.726
366.793
366.752
366.657
366.522
366.339
366.075
365.653
364.945
363.839
362.426
361.016
360.267
362.528
371.547
389.114
410.212
423.119
437.685
455.485
476.936
513.811
318.174
332.75
339.079
342.897
346.007
348.807
351.365
353.779
356.314
359.212
362.206
364.692
366.317
367.155
367.485
367.551
367.492
367.369
367.207
367.003
366.738
366.356
365.748
364.796
363.545
362.085
359.669
357.131
359.694
375.013
399.528
422.178
445.585
468.313
505.952
317.536
332.501
339.194
343.192
346.422
349.381
352.147
354.662
356.887
358.986
361.257
363.667
365.767
367.191
367.938
368.221
368.252
368.159
368
367.794
367.538
367.209
366.748
366.021
364.736
363.291
362.09
359.016
357.032
358.387
368.13
369.587
398.603
434.072
483.256
317.176
332.315
339.284
343.434
346.74
349.764
352.663
355.456
358.011
360.188
362.068
363.927
365.838
367.483
368.559
369.066
369.186
369.099
368.907
368.655
368.352
367.976
367.463
366.686
365.541
366.635
375.722
385.895
380.187
369.166
361.531
362.497
398.917
432.554
476.117
317.054
332.393
339.534
343.777
347.142
350.221
353.203
356.162
359.006
361.489
363.441
364.975
366.389
367.819
369.04
369.81
370.134
370.152
370
369.754
369.44
369.05
368.563
367.973
367.386
367.6
372.914
389.708
399.339
390.265
379.258
380.302
409.089
440.99
486.215
317.366
332.934
340.133
344.424
347.847
350.986
354.031
357.07
360.058
362.793
365.07
366.848
368.259
369.491
370.558
371.279
371.59
371.578
371.368
371.059
370.709
370.34
369.963
369.577
369.176
368.869
369.562
376.436
393.816
406.549
406.165
408.882
426.337
452.467
499.152
317.763
333.589
340.841
345.189
348.703
351.978
355.226
358.522
361.706
364.449
366.603
368.307
369.812
371.287
372.61
373.436
373.7
373.572
373.218
372.749
372.234
371.724
371.247
370.827
370.485
370.293
370.572
371.493
376.96
393.936
416.763
433.585
447.871
467.46
509.39
318.619
334.602
341.614
345.849
349.347
352.662
356.028
359.555
363.061
366.086
368.373
370.108
371.68
373.392
374.999
375.866
375.976
375.684
375.233
374.731
374.21
373.677
373.112
372.483
371.766
370.919
370.324
371.666
373.552
379.561
398.733
422.979
444.168
466.139
505.584
319.204
335.268
342.07
346.209
349.693
353.035
356.477
360.13
363.786
366.923
369.226
370.941
372.616
374.665
376.57
377.273
377.044
376.6
376.212
375.924
375.742
375.693
375.827
376.213
376.922
377.595
376.562
373.772
371.212
373.021
388.039
414.101
438.691
461.973
499.578
319.243
335.077
341.905
346.049
349.48
352.698
355.915
359.283
362.805
366.123
368.616
370.059
370.811
371.465
372.632
374.292
375.736
376.255
376.164
376.002
375.928
376.056
376.618
378.088
381.202
385.343
385.354
380.182
375.15
374.801
387.416
413.277
436.297
459.285
498.663
319.21
335.123
342.139
346.405
349.92
353.206
356.435
359.655
362.843
365.973
368.823
370.884
371.906
372.099
371.684
371.142
372.895
377.05
378.409
377.961
377.491
377.279
377.547
378.875
382.408
388.601
393.306
391.666
387.653
386.481
394.668
414.641
434.378
456.942
499.784
319.133
335.316
342.581
347.032
350.736
354.256
357.758
361.197
364.379
367.174
369.623
371.788
373.581
374.842
375.451
375.35
374.597
374.412
377.051
379.604
379.631
379.151
378.927
379.28
380.907
384.946
391.332
396.853
399.467
400.923
405.711
417.823
433.411
454.941
499.877
318.237
334.745
342.65
347.492
351.489
355.322
359.103
362.602
365.537
367.917
369.856
371.329
372.324
372.949
373.353
373.644
373.854
373.921
374.056
375.274
377.853
379.898
380.148
379.969
380.197
381.375
384.342
389.647
396.857
405.154
413.905
423.997
436.377
455.674
500.437
318.828
336.154
344.378
349.478
353.86
358.282
362.76
366.699
369.509
371.266
372.501
373.58
374.498
375.134
375.456
375.51
375.361
375.076
374.759
374.639
375.186
377.083
379.89
380.959
381.183
381.582
382.731
385.422
390.913
400.746
414.914
428.958
441.463
459.353
502.532
319.904
337.772
346.098
351.429
356.345
361.614
366.877
371.001
373.407
374.478
374.881
375.075
375.235
375.373
375.467
375.503
375.471
375.374
375.233
375.114
375.142
375.583
377.381
380.166
380.659
380.496
380.458
381.116
383.316
388.623
399.792
417.675
436.779
458.48
500.128
322.331
340.549
348.553
354.025
359.714
366.155
372.158
375.936
377.318
377.47
377.282
377.062
376.869
376.697
376.529
376.36
376.189
376.03
375.915
375.915
376.181
377.171
380.247
384.729
383.828
381.909
380.572
379.829
380.715
385.8
398.164
418.745
439.792
462.747
503.111
324.152
342.101
349.8
355.518
362.032
369.43
375.733
378.89
379.284
378.789
378.282
377.878
377.563
377.309
377.095
376.905
376.737
376.603
376.537
376.611
376.999
378.207
381.464
387.134
389.488
387.035
384.623
383.25
384.414
392.33
409.035
429.524
447.656
468.995
508.498
324.864
342.449
349.842
355.484
361.984
369.367
375.982
379.742
380.395
379.907
379.361
378.889
378.495
378.171
377.903
377.681
377.497
377.35
377.253
377.242
377.402
377.968
379.572
383.354
388.887
392.39
392.142
390.044
389.245
394.709
411.036
431.425
448.379
469.095
509.904
323.923
341.156
348.266
353.381
358.907
365.274
371.92
377.404
380.092
380.476
380.193
379.807
379.425
379.074
378.766
378.503
378.281
378.097
377.948
377.841
377.801
377.905
378.368
379.74
382.984
388.563
395.387
401.057
404.208
408.323
418.661
433.724
448.876
469.551
511.724
322.68
339.944
347.215
352.064
356.785
361.834
367.091
372.438
377.334
380.164
380.926
380.855
380.585
380.274
379.963
379.67
379.404
379.17
378.968
378.796
378.655
378.559
378.554
378.792
379.675
382.036
387.065
395.583
406.357
416.338
425.789
436.173
447.725
465.352
506.508
321.835
339.463
347.262
352.442
357.432
362.548
367.073
370.658
374.095
377.899
380.482
381.226
381.236
381.08
380.886
380.677
380.461
380.246
380.038
379.841
379.659
379.495
379.36
379.295
379.414
380.003
381.678
385.551
393.175
405.068
418.211
430.273
441.78
457.779
497.141
322.022
340.197
348.373
353.831
359.179
364.811
369.79
373.268
375.488
377.539
380.318
381.659
381.784
381.674
381.551
381.418
381.266
381.104
380.94
380.778
380.619
380.455
380.289
380.137
380.045
380.125
380.607
381.86
384.496
391.354
404.876
420.757
435.356
453.251
493.714
323.132
341.793
349.931
355.539
361.33
367.339
372.353
375.954
378.41
380.142
381.772
383.081
382.797
382.538
382.38
382.247
382.115
381.985
381.86
381.742
381.637
381.547
381.473
381.436
381.497
381.811
382.775
385.305
389.523
393.615
404.274
420.286
436.686
458.309
503.822
323.699
342.617
350.807
356.637
362.86
368.961
373.364
376.188
378.38
380.507
382.519
383.725
383.545
383.311
383.17
383.055
382.945
382.841
382.746
382.662
382.595
382.554
382.556
382.645
382.938
383.731
385.87
391.598
403.244
414.238
422.783
434.505
449.106
471.806
516.28
323.718
342.959
351.505
357.695
364.421
370.75
374.987
377.303
378.679
380.01
382.023
384.222
384.498
384.263
384.126
384.032
383.952
383.882
383.819
383.761
383.706
383.657
383.624
383.646
383.825
384.432
386.26
391.641
405.102
425.841
441.396
451.607
462.684
480.907
518.105
325.203
344.954
353.538
360.13
367.651
373.981
377.702
379.725
380.902
381.728
382.641
384.221
385.363
385.089
384.962
384.91
384.889
384.895
384.925
384.974
385.037
385.112
385.197
385.296
385.446
385.777
386.684
389.377
397.101
414.062
435.615
451.911
463.878
479.389
513.203
325.166
345.001
353.874
360.892
368.984
375.034
378.02
379.505
380.516
381.467
382.594
384.136
385.898
386.074
385.916
385.839
385.808
385.814
385.858
385.941
386.063
386.23
386.438
386.683
386.965
387.316
387.867
389.058
392.226
400.449
416.415
436.795
453.778
471.922
507.326
326.203
346.368
355.622
363.284
372.325
378.328
380.769
381.647
382.04
382.344
382.784
383.687
385.474
387.053
387.114
387.073
387.062
387.081
387.138
387.237
387.383
387.587
387.856
388.184
388.563
389.003
389.559
390.415
392.134
396.351
406.639
425.796
445.572
466.596
504.234
327.035
347.157
356.757
365.114
374.874
380.458
382.312
382.907
383.188
383.405
383.651
384.035
384.865
386.62
387.734
387.9
387.98
388.071
388.2
388.375
388.604
388.908
389.304
389.785
390.311
390.842
391.437
392.307
393.95
397.694
406.718
424.131
442.714
463.702
502.921
327.354
347.55
357.637
366.695
377.008
382.442
383.94
384.24
384.3
384.366
384.532
384.878
385.567
386.894
388.53
388.943
389.089
389.233
389.432
389.706
390.057
390.518
391.145
391.961
392.885
393.686
394.241
394.958
396.719
401.163
411.023
427.07
443.15
462.973
504.182
327.851
348.032
358.556
368.418
379.216
384.367
385.526
385.649
385.595
385.564
385.632
385.874
386.43
387.548
389.102
389.807
389.983
390.172
390.44
390.832
391.354
392.065
393.11
394.632
396.681
398.912
400.57
401.665
403.596
408.378
418.085
432.042
446.481
466.305
509.475
328.379
348.252
358.728
368.915
380.084
385.512
386.632
386.716
386.655
386.648
386.762
387.07
387.703
388.845
390.334
391.084
391.121
391.244
391.474
391.867
392.447
393.296
394.628
396.736
399.932
404.25
408.961
412.981
416.594
421.57
429.518
440.296
453.021
472.631
514.891
328.656
347.699
357.21
366.541
377.597
384.792
387.089
387.565
387.615
387.657
387.814
388.168
388.849
390.023
391.55
392.378
392.149
392.105
392.221
392.486
392.959
393.749
395.065
397.196
400.508
405.358
411.773
419.063
426.23
432.981
439.972
448.079
458.29
475.399
514.694
327.701
345.538
353.274
360.25
369.446
379.057
385.029
387.494
388.255
388.516
388.769
389.203
389.994
391.393
393.5
395.369
395.202
394.128
393.588
393.34
393.286
393.486
394.105
395.423
397.814
401.651
407.137
414.164
422.327
431.046
439.83
448.762
458.72
474.203
510.602
324.835
341.906
348.697
353.51
359.279
367.792
377.185
383.924
387.308
388.522
388.95
389.304
389.861
390.87
392.724
395.685
398.717
399.665
398.544
397.212
396.208
395.436
394.88
394.689
395.229
397.108
400.984
407.053
414.997
424.709
435.959
447.508
458.813
474.473
510.045
322.71
340.822
348.591
353.368
357.357
361.684
368.101
376.081
383.019
387.218
388.825
389.318
389.676
390.224
391.196
392.974
395.98
399.808
402.923
404.124
403.484
402.047
400.505
399.04
397.823
397.345
398.754
403.675
412.641
424.343
437.14
449.523
461.625
478.861
516.482
321.759
341.511
350.52
356.255
361.061
364.938
367.88
371.395
376.756
382.76
387.206
389.192
389.772
390.089
390.548
391.356
392.797
395.269
398.94
403.243
407.098
409.579
410.319
409.668
408.299
406.818
406.139
408.18
415.251
426.983
439.948
452.036
464.642
483.868
523.052
321.242
341.386
350.992
357.302
363.149
368.715
372.537
374.248
375.411
377.98
382.449
386.893
389.436
390.264
390.566
390.894
391.449
392.433
394.13
396.882
400.835
405.678
410.713
415.174
418.51
420.575
421.792
423.278
426.984
434.612
445.066
456.083
468.386
487.646
525.229
321.817
342.161
351.809
358.187
364.366
370.86
376.299
379.253
380.083
380.009
380.392
382.875
386.726
389.564
390.65
391.025
391.304
391.684
392.299
393.332
395.059
397.814
401.835
407.118
413.405
420.305
427.459
434.583
441.308
447.789
455.19
463.785
474.123
490.334
522.608
323.086
344.493
354.551
361.41
368.2
374.358
378.981
382.095
383.707
384.217
384.112
383.868
384.965
388.087
390.423
391.339
391.695
391.923
392.169
392.521
393.088
394.044
395.646
398.226
402.146
407.749
415.336
425.165
437.178
449.506
458.953
466.717
474.753
486.704
515.005
325.186
347.514
357.835
365.583
374.126
380.574
383.632
384.976
385.698
386.1
386.266
386.247
386.165
387.359
390.057
391.62
392.267
392.561
392.747
392.914
393.115
393.408
393.884
394.688
396.056
398.346
402.079
407.974
416.909
429.527
443.84
454.54
462.912
474.045
504.658
327.504
349.837
360.145
368.459
378.022
384.405
387.019
387.9
388.189
388.269
388.26
388.207
388.158
388.467
390.452
392.218
393.062
393.448
393.661
393.813
393.945
394.077
394.228
394.436
394.769
395.359
396.436
398.396
401.87
407.976
419.618
433.927
447.557
463.622
499.381
328.5
350.674
361.324
370.208
379.972
385.759
388.035
388.899
389.256
389.395
389.426
389.404
389.404
389.73
391.378
393.196
394.112
394.541
394.788
394.968
395.121
395.253
395.365
395.458
395.54
395.637
395.814
396.205
397.084
399.196
406.766
425.547
444.405
464.991
504.146
329.074
351.353
362.301
371.576
381.346
386.844
389.026
389.89
390.269
390.438
390.503
390.526
390.603
391.095
392.671
394.343
395.226
395.674
395.955
396.176
396.374
396.554
396.714
396.841
396.928
396.975
397.006
397.102
397.488
399.011
406.323
430.3
450.991
472.43
511.355
330
351.756
362.626
372.271
382.348
387.83
389.911
390.704
391.03
391.167
391.225
391.278
391.457
392.143
393.84
395.546
396.412
396.873
397.186
397.449
397.694
397.925
398.132
398.297
398.403
398.438
398.423
398.437
398.723
400.145
406.71
430.015
453.066
475.266
512.13
330.768
350.865
360.431
369.197
379.113
386.195
389.82
391.406
392.01
392.19
392.214
392.236
392.451
393.248
394.924
396.599
397.515
398.045
398.433
398.781
399.125
399.468
399.794
400.074
400.275
400.366
400.339
400.247
400.284
401.083
405.423
423.268
448.77
472.623
508.203
328.756
346.738
354.273
360.486
368.279
377.297
384.795
389.447
391.748
392.685
392.999
393.114
393.343
394.111
395.743
397.443
398.431
399.026
399.474
399.888
400.323
400.796
401.296
401.783
402.195
402.476
402.6
402.582
402.532
402.896
405.837
419.948
444.92
469.728
505.851
324.577
341.75
349.208
354.181
359.349
366.561
375.494
383.484
388.965
391.931
393.218
393.696
393.941
394.444
395.86
398.016
399.447
400.24
400.781
401.248
401.72
402.236
402.809
403.43
404.041
404.543
404.873
405.087
405.397
406.501
411.056
425.705
446.987
470.373
508.752
321.425
340.53
350.315
356.428
361.201
365.504
370.649
377.122
383.697
388.946
392.136
393.609
394.172
394.45
395.08
397.086
399.644
401.007
401.842
402.546
403.281
404.108
405.015
405.934
406.769
407.452
407.998
408.587
409.722
412.735
420.623
436.202
453.425
474.376
514.736
320.395
342.17
353.92
361.538
367.869
372.922
375.98
378.153
381.204
385.444
389.709
392.667
394.113
394.701
395.045
395.835
398.363
401.291
402.446
403.119
403.847
404.857
406.307
408.202
410.215
411.808
412.89
414.059
416.321
421.258
430.941
444.97
459.36
478.838
519.33
320.892
344.199
356.553
364.827
372.4
379.318
383.745
385.129
385.199
385.813
388.008
391.115
393.526
394.716
395.231
395.635
396.634
399.509
403.011
404.442
404.964
405.571
406.63
408.535
411.574
415.208
418.192
420.521
423.736
429.605
439.071
450.7
463.13
481.639
521.154
323.435
348.471
361.494
370.807
379.139
385.25
389.207
390.812
390.738
390.099
389.718
390.67
392.825
394.577
395.428
395.866
396.351
397.53
400.433
404.316
406.788
407.662
408.283
409.347
411.541
415.549
420.839
425.733
430.44
436.778
445.451
455.413
466.619
484.251
522.197
329.34
355.638
369.765
381.372
390.265
393.18
393.955
394.233
394.08
393.665
393.103
392.617
393.095
394.536
395.618
396.171
396.56
397.119
398.396
401.2
405.308
409.003
411.096
412.238
413.578
416.232
421.304
428.322
435.457
442.738
450.934
459.952
470.49
487.485
523.475
336.652
361.461
376.97
391.379
398.228
397.884
396.889
396.239
395.846
395.549
395.253
394.915
394.679
395.137
396
396.579
396.937
397.276
397.832
399.051
401.623
405.786
410.6
414.585
417.258
419.663
423.433
429.983
438.581
447.137
455.262
463.613
473.621
490.147
524.584
339.842
362.948
377.595
392.087
398.094
398.328
397.981
397.55
397.157
396.848
396.615
396.436
396.323
396.414
396.835
397.267
397.563
397.788
398.045
398.504
399.513
401.689
405.62
411.17
417.198
422.423
427.033
432.716
440.735
449.921
458.573
466.876
476.57
492.574
525.426
336.272
358.216
369.534
380.956
391.64
396.212
397.636
397.997
397.986
397.848
397.695
397.593
397.601
397.756
398.03
398.312
398.526
398.682
398.817
398.991
399.327
400.102
401.858
405.374
411.215
419.022
427.382
435.367
443.876
453.312
462.396
470.711
479.78
494.181
524.313
330.943
352.292
361.445
369.805
382.71
392.591
396.501
397.903
398.405
398.565
398.609
398.654
398.775
398.991
399.244
399.468
399.639
399.761
399.849
399.921
400.019
400.235
400.787
402.133
405.09
410.694
419.451
430.173
440.856
451.287
461.056
469.73
478.337
491.046
519.936
329.45
351.187
360.984
368.72
378.248
388.824
394.769
397.502
398.717
399.263
399.555
399.784
400.022
400.268
400.499
400.698
400.861
400.988
401.079
401.137
401.171
401.213
401.335
401.709
402.709
405.114
410.244
419.28
430.868
442.293
452.926
462.509
471.588
484.357
515.182
329.494
351.064
360.541
367.161
373.632
381.472
389.365
394.756
397.858
399.514
400.385
400.876
401.198
401.447
401.663
401.856
402.028
402.176
402.296
402.385
402.442
402.474
402.507
402.603
402.907
403.767
406.04
411.545
421.829
434.113
445.709
456.134
466.01
479.971
513.365
326.031
346.573
355.984
362.148
367.809
373.992
381.261
388.013
393.191
396.851
399.28
400.797
401.699
402.252
402.629
402.911
403.136
403.321
403.473
403.597
403.695
403.773
403.843
403.934
404.118
404.567
405.765
409.098
417.25
429.842
442.54
453.481
463.551
477.871
512.162
322.397
344.508
356.507
364.509
371.718
378.62
383.715
387.219
390.161
392.938
395.609
398.143
400.297
401.807
402.796
403.469
403.951
404.306
404.572
404.774
404.933
405.066
405.192
405.337
405.553
405.953
406.848
409.187
415.337
426.734
439.822
451.353
461.646
476.118
511.351
324.86
349.719
362.44
371.127
379.789
389.24
396.02
398.148
398.068
397.517
397.109
397.308
398.682
400.556
402.128
403.311
404.203
404.878
405.381
405.753
406.038
406.277
406.508
406.773
407.13
407.69
408.718
410.957
416.259
426.241
438.287
449.58
460.103
475.442
512.933
330.448
354.903
365.905
373.817
382.367
391.976
400.402
404.543
405.358
404.832
403.515
401.419
400.245
400.986
402.223
403.385
404.422
405.335
406.092
406.671
407.101
407.441
407.757
408.116
408.607
409.381
410.771
413.621
419.777
430.601
442.535
453.086
463.569
479.934
517.898
330.335
353.616
364.549
372.708
381.304
389.528
396.176
401.13
403.915
405.05
405.18
404.298
402.463
402.106
402.828
403.758
404.738
405.753
406.725
407.541
408.157
408.626
409.037
409.485
410.087
411.033
412.72
416.106
423.22
435.931
450.176
460.701
470.576
486.046
520.83
327.74
352.559
364.872
373.802
383.069
391.496
396.44
399.329
401.544
403.064
403.92
404.263
403.795
402.978
403.271
404.029
404.923
405.952
407.096
408.203
409.086
409.704
410.156
410.575
411.097
411.906
413.339
416.168
422.142
433.803
449.913
463.116
473.511
487.583
519.114
330.131
355.955
368.5
377.99
388.525
398.407
403.472
404.299
404.047
403.956
404.037
404.123
404.085
403.546
403.549
404.212
405.062
406.042
407.222
408.577
409.892
410.916
411.605
412.09
412.537
413.122
414.091
415.925
419.729
427.71
441.5
456.762
468.674
482.69
513.588
332.938
357.727
369.464
378.95
390.073
400.535
406.716
408.151
407.329
406.174
405.313
404.798
404.458
404.095
403.985
404.554
405.371
406.29
407.399
408.791
410.386
411.885
413.004
413.719
414.202
414.656
415.306
416.494
418.959
424.388
435.272
450.322
463.161
477.944
509.915
331.374
356.02
367.768
376.664
386.428
396.212
403.518
407.071
407.424
406.556
405.65
405.023
404.639
404.447
404.573
405.219
406.018
406.86
407.869
409.21
410.945
412.897
414.689
416.019
416.892
417.518
418.168
419.207
421.315
425.96
435.315
448.61
460.814
475.906
509.75
331.27
357.478
370.071
379.389
389.066
398.092
404.37
407.196
407.249
406.214
405.375
404.952
404.808
404.97
405.512
406.227
406.896
407.606
408.504
409.743
411.434
413.547
415.828
417.885
419.463
420.628
421.683
423.097
425.648
430.693
439.626
451.199
462.462
477.779
513.208
332.971
359.573
372.465
382.917
394.156
403.025
407.849
409.022
407.878
406.393
405.656
405.664
406.013
406.458
406.903
407.373
407.909
408.573
409.453
410.662
412.321
414.505
417.146
419.961
422.555
424.701
426.544
428.582
431.637
436.829
444.859
454.615
464.935
480.305
516.4
332.896
358.863
371.633
382.394
394.219
403.264
407.977
409.723
409.219
407.824
406.953
406.902
407.133
407.438
407.791
408.193
408.665
409.253
410.023
411.068
412.512
414.493
417.118
420.363
423.986
427.601
430.977
434.333
438.343
443.843
451.165
459.655
469.191
484.19
519.29
332.877
358.375
370.891
381.346
393.136
402.955
408.125
410.21
410.624
409.615
408.192
407.579
407.807
408.186
408.539
408.907
409.329
409.841
410.49
411.347
412.51
414.117
416.343
419.361
423.246
427.844
432.774
437.715
442.788
448.509
455.215
462.774
471.533
485.643
519.317
331.99
356.919
368.987
378.651
389.524
399.904
406.782
409.863
410.83
410.72
409.701
408.393
407.895
408.421
408.983
409.432
409.863
410.34
410.907
411.61
412.519
413.739
415.427
417.803
421.131
425.631
431.313
437.856
444.78
451.81
458.947
466.336
474.668
488.015
520.112
331.266
356.903
369.379
379.124
389.674
399.333
406.207
409.99
411.461
411.671
411.26
410.249
408.943
408.408
409.103
409.843
410.402
410.918
411.486