/*--------------------------------*- C++ -*----------------------------------*\
| =========                 |                                                 |
| \\      /  F ield         | OpenFOAM: The Open Source CFD Toolbox           |
|  \\    /   O peration     | Version:  v2006                                 |
|   \\  /    A nd           | Website:  www.openfoam.com                      |
|    \\/     M anipulation  |                                                 |
\*---------------------------------------------------------------------------*/
FoamFile
{
    version     2.0;
    format      ascii;
    class       volVectorField;
    location    "72";
    object      U;
}
// * * * * * * * * * * * * * * * * * * * * * * * * * * * * * * * * * * * * * //

dimensions      [0 1 -1 0 0 0 0];


internalField   nonuniform List<vector> 
78750
(
(-0.354124 -0.224939 -0.096369)
(-0.304065 -0.21138 -0.0964874)
(-0.290431 -0.18229 -0.0938105)
(-0.241231 -0.145916 -0.0953089)
(-0.192152 -0.101566 -0.102338)
(-0.169855 -0.0850126 -0.102216)
(-0.165746 -0.0747869 -0.101996)
(-0.143697 -0.0647095 -0.101613)
(-0.131836 -0.0567638 -0.101288)
(-0.115638 -0.0490458 -0.100461)
(-0.102479 -0.0423403 -0.0998791)
(-0.0900745 -0.0359464 -0.099004)
(-0.0783104 -0.0303026 -0.0980568)
(-0.067749 -0.0250043 -0.0970029)
(-0.0577269 -0.0202325 -0.0958159)
(-0.0485509 -0.015842 -0.0945292)
(-0.0399509 -0.0118474 -0.0931217)
(-0.0319755 -0.00818903 -0.0916227)
(-0.0245527 -0.0048267 -0.0900422)
(-0.0176623 -0.00171465 -0.088404)
(-0.0112867 0.00119471 -0.0867416)
(-0.00541646 0.00395012 -0.0850955)
(-5.75554e-05 0.00659648 -0.0835084)
(0.00477503 0.00917891 -0.082025)
(0.00907591 0.0117359 -0.0807064)
(0.012822 0.0143028 -0.0796244)
(0.015987 0.0169103 -0.0788465)
(0.0185434 0.0195878 -0.0784334)
(0.0204573 0.0223617 -0.0784422)
(0.0216849 0.0252294 -0.0789285)
(0.0221616 0.0282573 -0.0800157)
(0.0218082 0.0312789 -0.0818437)
(0.020116 0.0344467 -0.0849573)
(0.0202759 0.0397761 -0.0914918)
(0.0110998 0.0839363 -0.0600421)
(0.0368065 -0.277766 0.0974603)
(-0.03747 -0.289313 0.112084)
(-0.00809275 -0.306989 0.117313)
(-0.0262834 -0.283645 0.102579)
(-0.0443054 -0.180606 0.0233272)
(-0.0565769 -0.136704 -0.0217029)
(-0.0713496 -0.108518 -0.0416479)
(-0.0813508 -0.0897468 -0.0506386)
(-0.0873318 -0.0770493 -0.0571139)
(-0.0903233 -0.0672738 -0.0614715)
(-0.0908096 -0.0584719 -0.0645213)
(-0.0893877 -0.0503058 -0.06666)
(-0.0866063 -0.042789 -0.0681165)
(-0.082873 -0.0359021 -0.0690649)
(-0.0784984 -0.0296262 -0.06961)
(-0.0736517 -0.0239102 -0.0698175)
(-0.0684438 -0.0186693 -0.0697409)
(-0.0629549 -0.0138098 -0.0694267)
(-0.0572505 -0.00924379 -0.0689139)
(-0.0513888 -0.00488744 -0.0682316)
(-0.0454337 -0.000665572 -0.0673995)
(-0.0394582 0.00349387 -0.0664442)
(-0.0335122 0.00766228 -0.0654076)
(-0.0276379 0.011908 -0.064334)
(-0.0218842 0.0162983 -0.0632592)
(-0.0163037 0.0209038 -0.0622055)
(-0.0109471 0.0258004 -0.0611931)
(-0.0058658 0.0310771 -0.0602208)
(-0.00111953 0.0368453 -0.0592751)
(0.00320054 0.0432609 -0.0583224)
(0.00692653 0.0506137 -0.0572931)
(0.0098281 0.0597533 -0.0560116)
(0.0117025 0.0747504 -0.0540128)
(0.0120225 0.118757 -0.0493911)
(0.00399057 0.226305 -0.0245601)
(-0.011246 -0.108898 -0.0206019)
(0.00101291 -0.185334 -0.00298182)
(-0.0078145 -0.175199 0.0126278)
(-0.00828165 -0.123524 0.0398575)
(-0.0137867 -0.0522151 0.0710876)
(-0.020967 0.0271859 0.0483251)
(-0.0301015 0.0513578 -0.000672833)
(-0.0392249 0.030366 -0.0301046)
(-0.0466043 0.0055023 -0.0426546)
(-0.052231 -0.0111214 -0.0493262)
(-0.056175 -0.0211196 -0.0537844)
(-0.0586123 -0.0264298 -0.0568434)
(-0.0596731 -0.0281862 -0.0590667)
(-0.0595285 -0.0272882 -0.060957)
(-0.0583088 -0.024895 -0.0627368)
(-0.0562175 -0.0220879 -0.0643551)
(-0.0534311 -0.0192704 -0.0657191)
(-0.0500786 -0.0164735 -0.0667955)
(-0.0462801 -0.0136653 -0.0675869)
(-0.0421264 -0.0108131 -0.0681058)
(-0.0376872 -0.00787359 -0.0683726)
(-0.0330256 -0.00479349 -0.0684125)
(-0.0282225 -0.00150528 -0.0682428)
(-0.0233536 0.00207213 -0.0678796)
(-0.0184596 0.00603185 -0.0673372)
(-0.0135909 0.0104873 -0.0666241)
(-0.00881084 0.0155843 -0.0657417)
(-0.00419281 0.0215181 -0.0647018)
(0.000170306 0.0285586 -0.0635039)
(0.0041333 0.0371451 -0.0621249)
(0.00749523 0.0482268 -0.0604727)
(0.0100413 0.0645626 -0.0582597)
(0.0112247 0.0961196 -0.0545458)
(0.0100472 0.176066 -0.0452765)
(0.00234476 0.290358 -0.017229)
(0.0047488 -0.293858 0.0728716)
(0.00147015 -0.364395 0.0829238)
(-0.00737431 -0.345505 0.0840065)
(-0.0222981 -0.265948 0.0856021)
(-0.0342735 -0.157898 0.0823397)
(-0.0359451 -0.0709807 0.0753122)
(-0.0323694 -0.0125211 0.0547149)
(-0.0292844 0.00962441 0.0317478)
(-0.0280741 0.00976036 0.0165)
(-0.0279273 0.00494025 0.00594681)
(-0.0283123 -0.000327744 -0.00263524)
(-0.0288324 -0.00484815 -0.00997413)
(-0.029258 -0.00810135 -0.0161972)
(-0.0293956 -0.00989166 -0.0214351)
(-0.0291238 -0.0102375 -0.0259391)
(-0.0284018 -0.00933473 -0.0299287)
(-0.0272443 -0.00753055 -0.033519)
(-0.025699 -0.00520171 -0.0367412)
(-0.0238224 -0.00259486 -0.039593)
(-0.0216509 0.000176813 -0.0420695)
(-0.0192141 0.0030881 -0.0441772)
(-0.016555 0.00616476 -0.0459267)
(-0.0137073 0.00946876 -0.0473253)
(-0.0107178 0.0130899 -0.0483871)
(-0.00765016 0.0171454 -0.0491263)
(-0.00456286 0.0217872 -0.049553)
(-0.00151749 0.0272125 -0.0496725)
(0.00141202 0.033689 -0.0494858)
(0.00412517 0.0416132 -0.0489838)
(0.00649032 0.0516652 -0.0481328)
(0.00835091 0.0653628 -0.0468326)
(0.00951837 0.0872353 -0.0448064)
(0.00929092 0.133115 -0.0411813)
(0.00697331 0.238226 -0.0320437)
(0.000726516 0.339286 -0.00761539)
(-0.00829075 -0.206047 0.0365444)
(-0.0219355 -0.198437 0.0316804)
(-0.0347402 -0.120465 0.0293679)
(-0.043288 -0.0463759 0.034209)
(-0.0431791 -0.0478751 0.0399759)
(-0.0396527 -0.0487335 0.0435073)
(-0.032556 -0.0417217 0.0445278)
(-0.0236303 -0.0315429 0.0414008)
(-0.0154233 -0.0240345 0.0355466)
(-0.00903691 -0.0198458 0.0288765)
(-0.00452041 -0.0176049 0.0221914)
(-0.0015972 -0.0161768 0.0157498)
(7.63808e-05 -0.0148435 0.00962007)
(0.000890418 -0.0132108 0.00383421)
(0.0011538 -0.0111659 -0.00157414)
(0.00114085 -0.00877998 -0.00656522)
(0.00108335 -0.00615246 -0.0111109)
(0.00118398 -0.00334082 -0.0152131)
(0.00153962 -0.000389712 -0.018917)
(0.00209387 0.00270634 -0.0222471)
(0.00279995 0.00598476 -0.0252261)
(0.00365054 0.00950084 -0.0278671)
(0.00464014 0.01333 -0.0301785)
(0.00574687 0.0175746 -0.0321661)
(0.00693996 0.0223777 -0.0338333)
(0.00818199 0.0279307 -0.035181)
(0.00942724 0.0344944 -0.0362063)
(0.0106169 0.0424436 -0.0369002)
(0.0116706 0.0523638 -0.0372561)
(0.012485 0.0652929 -0.0372767)
(0.0129284 0.0835471 -0.0369117)
(0.0127556 0.113717 -0.0359433)
(0.0110485 0.175928 -0.0333108)
(0.00737491 0.294764 -0.0245046)
(0.000891943 0.376967 -0.00256857)
(-0.0155067 -0.184423 0.0768827)
(-0.0361101 -0.270706 0.0818205)
(-0.041865 -0.287981 0.0775337)
(-0.0391373 -0.282096 0.0736956)
(-0.0294454 -0.25361 0.0732417)
(-0.0174346 -0.221275 0.0759883)
(-0.0041269 -0.188652 0.0789057)
(0.0103437 -0.155834 0.0813484)
(0.0251257 -0.124276 0.0827503)
(0.0390311 -0.0949807 0.0826443)
(0.0512276 -0.0685439 0.0806677)
(0.0610058 -0.0456131 0.0765532)
(0.0678255 -0.0269172 0.0702185)
(0.071347 -0.0129686 0.0618978)
(0.0714448 -0.00352439 0.0522085)
(0.0683709 0.00265594 0.0421041)
(0.0628616 0.00729071 0.032551)
(0.0560865 0.0116573 0.0242449)
(0.0493135 0.0159156 0.0172157)
(0.0434845 0.0198927 0.0111648)
(0.0386941 0.0236183 0.0057964)
(0.0347203 0.0272973 0.00101369)
(0.0313519 0.0311549 -0.00320089)
(0.0284597 0.0353937 -0.00687453)
(0.0259711 0.0402099 -0.0100459)
(0.0238167 0.0458177 -0.0127475)
(0.0219178 0.0524984 -0.0150044)
(0.0201963 0.0606588 -0.0168354)
(0.0185775 0.0709511 -0.0182781)
(0.0170066 0.0845999 -0.0193837)
(0.0154267 0.104576 -0.0202172)
(0.0136551 0.139828 -0.0208621)
(0.0108838 0.216331 -0.020684)
(0.00702265 0.34734 -0.0145025)
(0.000984901 0.41086 0.00335444)
(-0.00956483 -0.0460887 0.0160244)
(-0.0177114 -0.165231 0.00829685)
(-0.0226117 -0.249265 0.00544534)
(-0.0240237 -0.304675 0.00473375)
(-0.0220205 -0.339518 0.00529841)
(-0.0166176 -0.357297 0.00682964)
(-0.00796949 -0.359922 0.0102679)
(0.00379449 -0.348108 0.0162644)
(0.0179995 -0.32413 0.0245584)
(0.0339881 -0.290686 0.0345606)
(0.0512299 -0.249558 0.0457401)
(0.0689933 -0.20198 0.0575377)
(0.0863483 -0.148987 0.0692908)
(0.102175 -0.0919394 0.0799992)
(0.115299 -0.0338074 0.0881825)
(0.1245 0.0196433 0.0917851)
(0.128795 0.0603286 0.0887416)
(0.127755 0.0818724 0.0785033)
(0.120978 0.0855877 0.0628273)
(0.109351 0.0800184 0.046537)
(0.0961074 0.0745677 0.0342353)
(0.0838229 0.0725725 0.0260345)
(0.0732115 0.072871 0.01988)
(0.0642313 0.0743101 0.0145611)
(0.0564664 0.0768043 0.00982808)
(0.049575 0.0806192 0.00569165)
(0.0434067 0.0860432 0.00213675)
(0.0378381 0.0934506 -0.000880152)
(0.0327465 0.103459 -0.00343122)
(0.0280605 0.11729 -0.00559291)
(0.0237035 0.13816 -0.00746773)
(0.0194639 0.176591 -0.00921508)
(0.0143936 0.263438 -0.0103)
(0.0090433 0.399233 -0.00588123)
(0.00209773 0.445958 0.00791444)
(-0.000583021 -0.0998214 0.0378502)
(0.00598521 -0.257651 0.0376596)
(0.0130686 -0.339797 0.0196985)
(0.0202572 -0.384183 0.00198937)
(0.0263955 -0.409568 -0.012895)
(0.0316191 -0.424813 -0.0254396)
(0.03629 -0.433706 -0.0361028)
(0.0407582 -0.437383 -0.0447858)
(0.0454901 -0.43536 -0.0510552)
(0.0509748 -0.426418 -0.0542695)
(0.0576394 -0.409318 -0.0536597)
(0.065839 -0.383066 -0.0485478)
(0.0758068 -0.346547 -0.038503)
(0.0875605 -0.298328 -0.0235063)
(0.100808 -0.237867 -0.00410496)
(0.114702 -0.167166 0.01857)
(0.127302 -0.0883192 0.0433522)
(0.137372 -0.00114252 0.0694793)
(0.141949 0.0830986 0.0905186)
(0.137858 0.140314 0.0967941)
(0.126646 0.162382 0.0879052)
(0.11151 0.159093 0.0706637)
(0.0966403 0.147541 0.0538426)
(0.0836608 0.138989 0.0413365)
(0.0722596 0.134723 0.0321339)
(0.0622522 0.133394 0.0248518)
(0.053461 0.13448 0.0188927)
(0.0456839 0.138187 0.014006)
(0.0387342 0.145038 0.00996133)
(0.0325241 0.156201 0.00652242)
(0.0269044 0.175025 0.00339339)
(0.0215878 0.213349 0.000177321)
(0.0154978 0.308166 -0.00250432)
(0.00957753 0.450708 0.000518282)
(0.00242086 0.484052 0.0104963)
(0.00237318 -0.108502 0.00612667)
(0.0200905 -0.263507 -0.0110207)
(0.0388865 -0.357896 -0.0229936)
(0.0566657 -0.413484 -0.0297647)
(0.0717941 -0.443471 -0.0338208)
(0.083872 -0.456074 -0.0369167)
(0.0932011 -0.456822 -0.0401924)
(0.0999804 -0.448852 -0.0443297)
(0.104191 -0.434127 -0.0497279)
(0.10589 -0.41442 -0.0563922)
(0.105384 -0.39149 -0.0637129)
(0.103148 -0.366288 -0.0704383)
(0.0996223 -0.337856 -0.0749404)
(0.0952428 -0.303275 -0.0758277)
(0.0910048 -0.25927 -0.0719495)
(0.0884657 -0.204622 -0.0615447)
(0.0881901 -0.140415 -0.0429991)
(0.0901119 -0.0639353 -0.0137928)
(0.0944899 0.0296342 0.025964)
(0.0964498 0.123991 0.0619689)
(0.0923277 0.189875 0.0792125)
(0.0843008 0.2205 0.0781601)
(0.0742642 0.225215 0.0660801)
(0.064111 0.21568 0.0506673)
(0.0554821 0.204359 0.0382296)
(0.0480976 0.196206 0.0295103)
(0.0416064 0.191676 0.023256)
(0.0358268 0.190684 0.0184623)
(0.030635 0.193541 0.0145693)
(0.0259419 0.201307 0.0112232)
(0.0215477 0.217831 0.00804417)
(0.017243 0.258093 0.00440688)
(0.0121885 0.364033 0.000811406)
(0.00745643 0.504153 0.0027054)
(0.00181613 0.52011 0.00930278)
(0.00751683 -0.241848 -0.00408869)
(0.0278627 -0.464677 -0.018043)
(0.0437819 -0.551395 -0.026708)
(0.0555711 -0.577018 -0.0332151)
(0.0642146 -0.578582 -0.0390516)
(0.0709135 -0.568928 -0.0453474)
(0.0757324 -0.551654 -0.0525968)
(0.0786173 -0.527874 -0.0607137)
(0.079721 -0.498137 -0.0690064)
(0.0793186 -0.462939 -0.0763445)
(0.0776792 -0.422504 -0.0815036)
(0.0748163 -0.376259 -0.0832357)
(0.0704184 -0.323038 -0.0804255)
(0.0638681 -0.264815 -0.07528)
(0.0557163 -0.207991 -0.0725233)
(0.0483152 -0.156311 -0.0716261)
(0.0428864 -0.106496 -0.0671399)
(0.039084 -0.0485129 -0.0512288)
(0.0381434 0.030205 -0.0170014)
(0.0379343 0.122943 0.0246706)
(0.0352877 0.198109 0.0526108)
(0.0323992 0.234925 0.060078)
(0.0303348 0.246685 0.0564146)
(0.0279953 0.24372 0.0472014)
(0.0254288 0.232059 0.036436)
(0.0233081 0.221324 0.0279532)
(0.0213423 0.215167 0.021922)
(0.0194435 0.213666 0.017527)
(0.0175625 0.216461 0.0140729)
(0.0156394 0.224341 0.0111359)
(0.0135333 0.241375 0.00838416)
(0.0109248 0.284539 0.00523679)
(0.00725887 0.402835 0.0017744)
(0.00413996 0.544327 0.00277114)
(0.000696397 0.543582 0.00631355)
(0.00726844 -0.327384 -0.017619)
(0.0144393 -0.486363 -0.0136605)
(0.0180046 -0.513806 -0.0102031)
(0.0201089 -0.51509 -0.0106828)
(0.0216405 -0.507624 -0.0143245)
(0.0224906 -0.49263 -0.021539)
(0.0221802 -0.469477 -0.0323089)
(0.0202431 -0.439128 -0.0455186)
(0.0166044 -0.405066 -0.0591105)
(0.0117665 -0.370604 -0.0709705)
(0.00647236 -0.33526 -0.0795141)
(0.00132051 -0.294152 -0.0833369)
(-0.00301429 -0.242317 -0.0814087)
(-0.00621348 -0.185665 -0.0766073)
(-0.00837231 -0.138235 -0.0727943)
(-0.00947862 -0.100425 -0.0686064)
(-0.00992513 -0.0608639 -0.0601775)
(-0.0109831 -0.00560365 -0.0412415)
(-0.0124838 0.0711618 -0.00901872)
(-0.0136021 0.15025 0.0233138)
(-0.0134853 0.206458 0.0418307)
(-0.0116881 0.230263 0.0450433)
(-0.0092 0.238424 0.0420745)
(-0.00656635 0.238139 0.0357288)
(-0.00400786 0.231923 0.0276856)
(-0.00195998 0.225612 0.0208768)
(-0.000330028 0.222581 0.0159445)
(0.00105858 0.223335 0.0123333)
(0.00227842 0.228098 0.00946675)
(0.00334526 0.238548 0.00697139)
(0.00412536 0.260789 0.00458048)
(0.00405883 0.316024 0.00202908)
(0.00173208 0.447335 -0.000212987)
(0.000235839 0.575048 0.000772364)
(-0.000533781 0.554963 0.00232653)
(0.000397373 -0.350308 -0.00168338)
(0.00250238 -0.523607 0.0196865)
(0.00435752 -0.565422 0.0206431)
(0.00618154 -0.572417 0.0150777)
(0.00758786 -0.563089 0.00500044)
(0.00808289 -0.537579 -0.00995672)
(0.00712307 -0.496801 -0.0271237)
(0.00494662 -0.446498 -0.0420286)
(0.00212898 -0.394235 -0.0520678)
(-0.00092328 -0.345717 -0.0576467)
(-0.00396383 -0.302537 -0.0605366)
(-0.00664637 -0.262702 -0.0621046)
(-0.0085279 -0.223242 -0.0626173)
(-0.00953851 -0.183092 -0.0614442)
(-0.0103649 -0.144932 -0.0584757)
(-0.0115035 -0.108982 -0.0531678)
(-0.012619 -0.0678363 -0.0427929)
(-0.0125571 -0.00946449 -0.0227092)
(-0.0108936 0.0718914 0.00750865)
(-0.00997149 0.14918 0.0310152)
(-0.0103673 0.189065 0.0379333)
(-0.00991176 0.20515 0.0379409)
(-0.00887848 0.211095 0.0348877)
(-0.00743205 0.211715 0.0299008)
(-0.00581596 0.209317 0.0239456)
(-0.00431133 0.20699 0.0185863)
(-0.00291288 0.206872 0.0143953)
(-0.00152454 0.209842 0.0111554)
(-0.000134395 0.21684 0.00852041)
(0.00119841 0.230408 0.00617631)
(0.00233673 0.258797 0.00380042)
(0.00274974 0.328417 0.00113116)
(0.000799617 0.478034 -0.000843554)
(-3.01417e-05 0.590226 -0.000163868)
(4.03968e-05 0.555385 0.000268059)
(0.00343874 -0.360223 0.0125832)
(0.0117703 -0.518076 0.0243475)
(0.0133118 -0.545491 0.0179034)
(0.0131426 -0.542419 0.00630087)
(0.0117353 -0.520546 -0.0128497)
(0.00887745 -0.482054 -0.0383215)
(0.00546631 -0.436417 -0.0631309)
(0.00263427 -0.39263 -0.0812879)
(0.000921111 -0.354743 -0.0905045)
(0.000361115 -0.322481 -0.0919309)
(0.000698596 -0.293268 -0.0880779)
(0.00152741 -0.26335 -0.0808689)
(0.00241207 -0.227895 -0.0714784)
(0.00287352 -0.183148 -0.0615517)
(0.00229844 -0.133863 -0.0537709)
(0.000528967 -0.0918342 -0.0486714)
(-0.00154649 -0.0584432 -0.0432233)
(-0.00251911 -0.0230631 -0.0326663)
(-0.000738906 0.0315312 -0.00963566)
(0.00401937 0.112661 0.0245976)
(0.00676205 0.177204 0.0422975)
(0.00609813 0.196681 0.0399981)
(0.00505602 0.201388 0.0353755)
(0.00414576 0.202254 0.0307994)
(0.00361502 0.202053 0.0265475)
(0.00343981 0.202235 0.0227164)
(0.00352843 0.203897 0.0192725)
(0.00380328 0.208051 0.0161792)
(0.00417802 0.216094 0.0133343)
(0.00456007 0.231305 0.0105377)
(0.00478904 0.263859 0.00741597)
(0.00432024 0.344319 0.0035311)
(0.002043 0.50474 0.000433093)
(0.000959261 0.600578 0.000505087)
(0.000719638 0.556943 0.000421549)
(0.00512786 -0.451484 0.0518229)
(0.00766353 -0.564117 0.0633332)
(0.00506679 -0.572124 0.0548805)
(0.000925467 -0.553706 0.0379454)
(-0.00396463 -0.514782 0.0116283)
(-0.0078265 -0.466771 -0.0168689)
(-0.00975626 -0.41847 -0.0436195)
(-0.0102001 -0.373393 -0.0673688)
(-0.00988141 -0.334346 -0.0854988)
(-0.00935521 -0.301879 -0.0961816)
(-0.00887509 -0.273081 -0.100013)
(-0.00850575 -0.243767 -0.0979087)
(-0.00820784 -0.209742 -0.0900553)
(-0.0078142 -0.16765 -0.0774161)
(-0.00727831 -0.118578 -0.064021)
(-0.00709159 -0.0723051 -0.0543417)
(-0.00732267 -0.0372287 -0.0477744)
(-0.00746091 -0.00935389 -0.0407261)
(-0.00668158 0.0219088 -0.0283969)
(-0.00303054 0.0714835 -0.00343141)
(0.00379403 0.141337 0.0306179)
(0.00784674 0.192475 0.0480621)
(0.00779661 0.205338 0.0458342)
(0.00673322 0.205503 0.0391895)
(0.00540071 0.201985 0.031615)
(0.00449592 0.199288 0.0255935)
(0.00412388 0.199564 0.0215052)
(0.00412847 0.203417 0.0185306)
(0.00441061 0.212006 0.0160159)
(0.00483178 0.228931 0.0135584)
(0.00508267 0.266157 0.0107492)
(0.00434054 0.359525 0.00692573)
(0.00191302 0.531837 0.00301515)
(0.000780603 0.611521 0.00238159)
(0.000828535 0.562072 0.00181291)
(-0.00729987 -0.46189 0.0804847)
(-0.0170293 -0.520437 0.0708954)
(-0.0255743 -0.510634 0.0532339)
(-0.0332256 -0.479009 0.0309158)
(-0.0363798 -0.44303 0.0125385)
(-0.0356235 -0.410935 0.000309126)
(-0.0329762 -0.377666 -0.0116326)
(-0.0294593 -0.34154 -0.0259043)
(-0.0259151 -0.305663 -0.0410395)
(-0.0230419 -0.273107 -0.0542071)
(-0.0211659 -0.243767 -0.0638006)
(-0.0202384 -0.214929 -0.0693846)
(-0.0199921 -0.183006 -0.0704024)
(-0.019868 -0.145384 -0.0663008)
(-0.0190683 -0.103565 -0.0587427)
(-0.0173423 -0.0642861 -0.0514567)
(-0.0151818 -0.0332061 -0.0457798)
(-0.0129795 -0.00853682 -0.0403359)
(-0.0106344 0.0156413 -0.0328738)
(-0.00735044 0.0469451 -0.0195199)
(-0.00171173 0.0944047 0.00492853)
(0.005453 0.15348 0.0352623)
(0.00975826 0.193657 0.0513809)
(0.0104623 0.205964 0.051631)
(0.00970232 0.2074 0.0464235)
(0.00839664 0.205468 0.0393009)
(0.00708925 0.204212 0.0326523)
(0.00613179 0.20639 0.0275004)
(0.00555236 0.214111 0.0234063)
(0.0052938 0.232349 0.0195879)
(0.00516318 0.276779 0.0153244)
(0.00414699 0.38586 0.0104204)
(0.00183712 0.562232 0.00672966)
(0.000781242 0.62561 0.00592175)
(0.000868038 0.569453 0.00499072)
(-0.0175277 -0.354188 0.0696883)
(-0.0308752 -0.472712 0.0578324)
(-0.0378221 -0.49116 0.0535961)
(-0.0398002 -0.494274 0.0557053)
(-0.0388409 -0.488304 0.0593384)
(-0.0354715 -0.468982 0.0602891)
(-0.0304667 -0.433798 0.0558437)
(-0.0250354 -0.388656 0.0456671)
(-0.0200495 -0.341739 0.0316399)
(-0.0159153 -0.296155 0.0156811)
(-0.0130152 -0.252849 -0.000194989)
(-0.0114928 -0.21208 -0.0140724)
(-0.0109806 -0.173624 -0.0247429)
(-0.0107124 -0.137583 -0.0317946)
(-0.00988026 -0.104673 -0.0354756)
(-0.00817756 -0.0755846 -0.0365684)
(-0.00588367 -0.0503657 -0.0359605)
(-0.00340705 -0.0279722 -0.0340301)
(-0.000884156 -0.00613721 -0.0304252)
(0.0018537 0.0187118 -0.0237818)
(0.00543887 0.0519255 -0.0110392)
(0.0107547 0.0986144 0.0113422)
(0.0165385 0.150611 0.0374175)
(0.0192682 0.183307 0.050714)
(0.0189936 0.195397 0.0521539)
(0.0173386 0.199589 0.0491258)
(0.0151553 0.201747 0.0442781)
(0.012966 0.204993 0.0391666)
(0.0110567 0.212407 0.0344944)
(0.00950812 0.230089 0.0298993)
(0.00827102 0.277475 0.0242494)
(0.00671636 0.399517 0.0164238)
(0.00370863 0.578019 0.00987462)
(0.00185358 0.632853 0.00824852)
(0.00127198 0.571951 0.00725484)
(-0.0131432 -0.256158 0.0513265)
(-0.0195598 -0.457947 0.0395833)
(-0.0228693 -0.517574 0.0421757)
(-0.0239019 -0.537449 0.0480006)
(-0.024483 -0.538496 0.0547406)
(-0.0239299 -0.523026 0.0628096)
(-0.0214586 -0.489272 0.0717292)
(-0.0167811 -0.440498 0.0788772)
(-0.0103558 -0.384874 0.0815794)
(-0.00295108 -0.327689 0.078541)
(0.00474335 -0.271819 0.069724)
(0.0120416 -0.220124 0.0563413)
(0.0183523 -0.17503 0.0405144)
(0.0233302 -0.137218 0.0245319)
(0.0267423 -0.105558 0.0102372)
(0.0285675 -0.0784005 -0.00117334)
(0.0290414 -0.0544564 -0.00916039)
(0.0286065 -0.0328001 -0.0138215)
(0.0277754 -0.0124311 -0.0155686)
(0.0270262 0.00838538 -0.0145106)
(0.0267699 0.0328149 -0.00978055)
(0.0275935 0.066097 0.00144444)
(0.0300894 0.113546 0.0231866)
(0.0328251 0.165716 0.0489767)
(0.0326704 0.197159 0.060984)
(0.0298232 0.208255 0.0604714)
(0.0256874 0.21257 0.0559455)
(0.0211527 0.217026 0.0506705)
(0.0169991 0.225261 0.0456117)
(0.0133638 0.243886 0.0405002)
(0.0103257 0.295265 0.0342246)
(0.00784006 0.431722 0.0256212)
(0.00533138 0.615283 0.0177597)
(0.00346326 0.662181 0.0154307)
(0.00207356 0.59002 0.0137071)
(-0.00498424 -0.258724 0.0222563)
(-0.00484357 -0.491463 -0.0196276)
(-0.00903977 -0.558174 -0.0398151)
(-0.0113985 -0.576586 -0.0476263)
(-0.0131447 -0.580144 -0.0488838)
(-0.0139421 -0.575336 -0.0441098)
(-0.0129881 -0.5629 -0.0327306)
(-0.00953704 -0.540489 -0.0151812)
(-0.00320603 -0.506082 0.00616522)
(0.00577748 -0.460824 0.028292)
(0.0167403 -0.407202 0.0486001)
(0.0288388 -0.347633 0.0648155)
(0.0412481 -0.284446 0.0750062)
(0.0529975 -0.220128 0.0777539)
(0.0630039 -0.157555 0.0723558)
(0.0700216 -0.100837 0.0592876)
(0.0729828 -0.0550249 0.0414324)
(0.0719887 -0.0215375 0.0239324)
(0.0682314 0.00289737 0.0105272)
(0.0631241 0.0224126 0.00210075)
(0.0578719 0.0401553 -0.00178452)
(0.0532807 0.0593328 -0.0012148)
(0.0499335 0.0853869 0.00588483)
(0.0485601 0.126285 0.0251311)
(0.0481932 0.176417 0.0532679)
(0.0456583 0.212113 0.0715577)
(0.040352 0.226606 0.0734367)
(0.0337763 0.231694 0.0668963)
(0.0274036 0.237811 0.0588049)
(0.0221774 0.253002 0.0514125)
(0.0181532 0.297448 0.0436961)
(0.0142908 0.42538 0.0340445)
(0.00939931 0.610101 0.0261399)
(0.0061324 0.661911 0.0232372)
(0.00332334 0.59385 0.0198649)
(0.00119932 -0.258395 -0.00613572)
(0.00595685 -0.463141 -0.03837)
(0.00780002 -0.53057 -0.0504193)
(0.0100112 -0.552385 -0.0555703)
(0.0125537 -0.559587 -0.0594675)
(0.0153758 -0.559578 -0.0635279)
(0.0183031 -0.554416 -0.0678113)
(0.021318 -0.544945 -0.071337)
(0.0245965 -0.530543 -0.0720365)
(0.0284945 -0.509424 -0.0674614)
(0.0333583 -0.480171 -0.0558286)
(0.0394695 -0.442464 -0.0369209)
(0.0470919 -0.396136 -0.0120982)
(0.0563377 -0.340317 0.0161934)
(0.0669415 -0.27296 0.0449468)
(0.0780128 -0.191213 0.069802)
(0.0870334 -0.101857 0.0814924)
(0.0912029 -0.0238125 0.0743092)
(0.0902229 0.0311706 0.0551396)
(0.085633 0.065767 0.0347435)
(0.0791922 0.0884339 0.0188768)
(0.0722587 0.105928 0.00877846)
(0.0657979 0.122584 0.0043378)
(0.0602815 0.143126 0.00665176)
(0.0563226 0.174935 0.0207266)
(0.0538182 0.216792 0.0469568)
(0.0500767 0.250319 0.0699932)
(0.0436439 0.265691 0.0782968)
(0.0356332 0.270716 0.0745902)
(0.0276761 0.279783 0.0655368)
(0.0212418 0.323428 0.0538939)
(0.0164231 0.473823 0.0396342)
(0.011053 0.666017 0.0272832)
(0.00723495 0.715241 0.0232838)
(0.0039146 0.633141 0.0198318)
(0.00405829 -0.324972 -0.0105546)
(0.0134634 -0.538583 -0.0121058)
(0.0208505 -0.610599 -0.00908437)
(0.0263038 -0.633701 -0.00774726)
(0.0314005 -0.638951 -0.00781736)
(0.036519 -0.633569 -0.00931616)
(0.0413611 -0.618661 -0.0127621)
(0.0457483 -0.594339 -0.0189865)
(0.0495304 -0.561754 -0.0285745)
(0.052571 -0.523865 -0.0409504)
(0.0548577 -0.48472 -0.0540019)
(0.0565584 -0.447751 -0.0645932)
(0.0580971 -0.413843 -0.069594)
(0.060157 -0.380448 -0.0662524)
(0.0634909 -0.34134 -0.0513048)
(0.0689049 -0.283017 -0.0193824)
(0.0758847 -0.193238 0.0253047)
(0.0806017 -0.0880135 0.0588258)
(0.0809661 0.00385258 0.0664369)
(0.0781674 0.0683916 0.054946)
(0.0739996 0.108969 0.0373374)
(0.0695012 0.134582 0.0214799)
(0.0650562 0.152617 0.0100027)
(0.0608966 0.168078 0.00338482)
(0.0571041 0.185666 0.00268558)
(0.0538753 0.21142 0.0120834)
(0.0509322 0.245167 0.0327297)
(0.0462143 0.275393 0.0540088)
(0.0387131 0.295005 0.0660502)
(0.0298796 0.308263 0.0678722)
(0.0217935 0.33612 0.0618507)
(0.0160764 0.462459 0.0504443)
(0.0110342 0.663258 0.0414582)
(0.00797508 0.71971 0.0366873)
(0.00470079 0.644154 0.0293794)
(0.00472161 -0.385439 -0.018673)
(0.0122712 -0.579797 -0.0328704)
(0.0184173 -0.635245 -0.0397718)
(0.0230217 -0.65295 -0.0428464)
(0.0270274 -0.656833 -0.0441882)
(0.0307874 -0.652224 -0.0442632)
(0.0343491 -0.640393 -0.0430205)
(0.0378379 -0.62108 -0.0404161)
(0.0413764 -0.592925 -0.0367258)
(0.0450245 -0.554473 -0.0328647)
(0.0487203 -0.506583 -0.0305685)
(0.0522279 -0.45408 -0.0316718)
(0.0551244 -0.403921 -0.0365921)
(0.0569914 -0.360039 -0.0437389)
(0.0576008 -0.319101 -0.0503023)
(0.056954 -0.267598 -0.0475393)
(0.0564442 -0.184451 -0.02029)
(0.0550406 -0.0794171 0.0168675)
(0.0519105 0.0156242 0.0371545)
(0.0490944 0.0827468 0.0371103)
(0.0475969 0.124834 0.0272367)
(0.0469013 0.152339 0.0155469)
(0.0463281 0.17338 0.00508755)
(0.0454386 0.192764 -0.00297583)
(0.0439188 0.214179 -0.00707196)
(0.0416133 0.242032 -0.00297984)
(0.0385876 0.277631 0.0135966)
(0.0347633 0.312252 0.0361221)
(0.0301671 0.336923 0.0526173)
(0.0253633 0.353316 0.0588721)
(0.0200574 0.379946 0.0561362)
(0.0170649 0.504723 0.0425095)
(0.0115612 0.699625 0.0291536)
(0.00676683 0.759158 0.0245136)
(0.003725 0.678632 0.0184418)
(0.00322417 -0.428769 -0.0276297)
(0.00823335 -0.621464 -0.0411424)
(0.0133488 -0.669423 -0.0459977)
(0.0176086 -0.682198 -0.0493662)
(0.0215619 -0.6826 -0.0527125)
(0.0252277 -0.674952 -0.0564561)
(0.0283985 -0.659978 -0.0606917)
(0.0308279 -0.637542 -0.0651801)
(0.0322273 -0.60794 -0.0687744)
(0.0325867 -0.572702 -0.069214)
(0.0324638 -0.533026 -0.0644855)
(0.0326725 -0.488814 -0.054977)
(0.0334731 -0.440517 -0.0437697)
(0.0341987 -0.388868 -0.0342901)
(0.0335456 -0.330569 -0.0283628)
(0.0299902 -0.254576 -0.0234558)
(0.0245159 -0.153193 -0.00899148)
(0.0186812 -0.0483089 0.0106919)
(0.0146823 0.0317891 0.0201174)
(0.0139066 0.0829273 0.0182692)
(0.0151446 0.116418 0.0113525)
(0.017012 0.14215 0.00313381)
(0.0187158 0.166018 -0.0045766)
(0.019782 0.192073 -0.0100746)
(0.0199628 0.222966 -0.0106291)
(0.019388 0.258593 -0.00292484)
(0.0185304 0.29408 0.012803)
(0.0178165 0.322092 0.0298261)
(0.0172456 0.340201 0.0413437)
(0.0163627 0.353587 0.0460348)
(0.0127361 0.385019 0.0461702)
(0.00467133 0.521563 0.0453243)
(-0.000336492 0.741961 0.0359991)
(-0.00172232 0.792305 0.0288211)
(-0.000546402 0.703481 0.0196401)
(0.00182659 -0.431583 -0.0218406)
(0.00407244 -0.626079 -0.0194858)
(0.00657782 -0.673737 -0.0169445)
(0.00874512 -0.686009 -0.0163201)
(0.0108867 -0.685341 -0.0170315)
(0.0129871 -0.675233 -0.0192567)
(0.0148293 -0.654919 -0.0235698)
(0.0160967 -0.622047 -0.0307708)
(0.0162669 -0.576546 -0.0408061)
(0.0148716 -0.525193 -0.0510999)
(0.011988 -0.477132 -0.057384)
(0.00828329 -0.434953 -0.0567958)
(0.00443174 -0.393837 -0.0487999)
(0.000801948 -0.344867 -0.0343836)
(-0.00325078 -0.276127 -0.0166082)
(-0.00878098 -0.180022 -0.00117651)
(-0.0151911 -0.0762796 0.00922052)
(-0.0202494 0.00159784 0.014321)
(-0.0215478 0.0496535 0.0142506)
(-0.0201306 0.0831028 0.0112573)
(-0.0176903 0.11318 0.00657565)
(-0.01528 0.144515 0.00112877)
(-0.0136577 0.177029 -0.00291681)
(-0.0127194 0.210232 -0.00310384)
(-0.011992 0.244086 0.00130382)
(-0.0111269 0.276414 0.00978686)
(-0.00981365 0.304307 0.0203239)
(-0.00794968 0.326633 0.0294149)
(-0.00569919 0.347288 0.0346513)
(-0.00312182 0.380112 0.0350538)
(0.00119418 0.461424 0.0284711)
(0.0024644 0.617116 0.0186247)
(-0.000748713 0.746965 0.0182282)
(-0.00149412 0.774994 0.0150084)
(-0.000918844 0.669301 0.00724541)
(0.000308044 -0.443606 -0.0142494)
(0.000683697 -0.642715 -0.0165626)
(0.00118467 -0.691547 -0.0172607)
(0.00162158 -0.704833 -0.0176674)
(0.00200093 -0.704625 -0.0182061)
(0.0022258 -0.693959 -0.0192293)
(0.00209925 -0.67156 -0.021189)
(0.00140314 -0.63437 -0.0245562)
(3.4708e-05 -0.581739 -0.0294623)
(-0.0019942 -0.520044 -0.0351843)
(-0.00493887 -0.460183 -0.0396531)
(-0.00889944 -0.408677 -0.0402372)
(-0.013576 -0.362643 -0.0349822)
(-0.0185994 -0.312174 -0.0222117)
(-0.0228248 -0.243851 -0.00228706)
(-0.0243969 -0.151947 0.0165357)
(-0.0245282 -0.0603324 0.0239848)
(-0.0248937 -0.00239004 0.0236057)
(-0.0243682 0.0329623 0.0223259)
(-0.023232 0.0625192 0.0207511)
(-0.021468 0.0943902 0.0184022)
(-0.0193076 0.131382 0.014756)
(-0.0173767 0.168575 0.010471)
(-0.0157458 0.199482 0.0087167)
(-0.0134444 0.227329 0.011669)
(-0.00999296 0.253235 0.0173311)
(-0.00565143 0.274267 0.0227316)
(-0.000932245 0.289669 0.0264735)
(0.00332904 0.300114 0.0289182)
(0.00618225 0.307141 0.0321606)
(0.00446269 0.3442 0.0380203)
(0.0053137 0.557297 0.0298869)
(0.00540172 0.772586 0.0113693)
(0.00286621 0.810875 0.00523549)
(0.00133782 0.693682 0.0017388)
(-0.000142913 -0.434857 -0.0180527)
(0.00179976 -0.62946 -0.0223368)
(0.00355787 -0.67719 -0.0228623)
(0.00491619 -0.689254 -0.0237859)
(0.00602585 -0.687352 -0.0254486)
(0.00672249 -0.67391 -0.0283064)
(0.00665224 -0.646739 -0.0329623)
(0.00540165 -0.603628 -0.0393308)
(0.00288708 -0.547451 -0.0455445)
(-0.000290143 -0.484806 -0.0495218)
(-0.00362477 -0.422559 -0.0508393)
(-0.00727561 -0.367749 -0.0494787)
(-0.0112433 -0.323541 -0.0448374)
(-0.015005 -0.285572 -0.0357022)
(-0.0176255 -0.242943 -0.0195135)
(-0.0170863 -0.179336 0.00505479)
(-0.0122487 -0.0906488 0.0282705)
(-0.00751223 -0.0165896 0.0369491)
(-0.00624599 0.0228461 0.037204)
(-0.00695709 0.0481395 0.0366943)
(-0.00773213 0.0740299 0.0369893)
(-0.00761014 0.10731 0.0376396)
(-0.00622533 0.147058 0.0371171)
(-0.00450308 0.180989 0.0333664)
(-0.00300664 0.199895 0.0277478)
(-0.000954801 0.213336 0.0251763)
(0.00205944 0.228779 0.0259328)
(0.00540352 0.248052 0.0267204)
(0.00764315 0.2794 0.0243419)
(0.00824435 0.346319 0.0165152)
(0.00247315 0.45885 0.0111515)
(-0.0135699 0.591059 0.0273872)
(-0.0171619 0.760005 0.0297928)
(-0.0147023 0.784504 0.023133)
(-0.00752169 0.67412 0.0129068)
(0.000926768 -0.449347 -0.0148876)
(0.00485194 -0.657086 -0.00543667)
(0.00803454 -0.706591 -0.00130894)
(0.0104272 -0.717438 -0.000712942)
(0.012462 -0.71322 -0.00223285)
(0.0139424 -0.695562 -0.00636232)
(0.0143208 -0.66028 -0.0146157)
(0.0129803 -0.604904 -0.0278322)
(0.00985568 -0.53764 -0.0431042)