/*--------------------------------*- C++ -*----------------------------------*\
| =========                 |                                                 |
| \\      /  F ield         | OpenFOAM: The Open Source CFD Toolbox           |
|  \\    /   O peration     | Version:  v2006                                 |
|   \\  /    A nd           | Website:  www.openfoam.com                      |
|    \\/     M anipulation  |                                                 |
\*---------------------------------------------------------------------------*/
FoamFile
{
    version     2.0;
    format      ascii;
    class       volScalarField;
    location    "31";
    object      alphat;
}
// * * * * * * * * * * * * * * * * * * * * * * * * * * * * * * * * * * * * * //

dimensions      [1 -1 -1 0 0 0 0];


internalField   nonuniform List<scalar> 
78750
(
0.00131143
0.0028665
0.00196186
0.000705126
0.000123211
4.77742e-06
4.71093e-05
2.16508e-05
4.32282e-05
2.91146e-05
4.75434e-05
3.45248e-05
4.9901e-05
4.339e-05
5.05423e-05
5.05999e-05
5.32335e-05
5.51383e-05
5.69086e-05
5.86679e-05
6.02773e-05
6.17804e-05
6.31341e-05
6.44479e-05
6.56894e-05
6.65966e-05
6.71366e-05
6.73057e-05
6.67079e-05
6.46868e-05
6.01475e-05
5.2175e-05
4.0479e-05
1.30855e-05
3.65566e-07
0.00017118
0.00014693
7.15101e-05
4.47721e-07
4.00474e-05
4.49014e-05
5.16863e-05
6.92604e-05
7.62541e-05
9.1329e-05
9.94991e-05
0.000109956
0.000116567
0.000122801
0.000127531
0.000131368
0.000134522
0.000136937
0.000138906
0.000140544
0.000141972
0.000143256
0.000144409
0.000145414
0.000146391
0.00014736
0.000147672
0.000146529
0.000142978
0.00013581
0.000123793
0.000104122
6.60008e-05
1.85683e-05
1.79536e-06
6.35224e-06
3.35383e-05
5.03448e-05
5.37473e-05
6.12172e-05
9.36744e-05
0.000113195
0.000126894
0.000137621
0.000144896
0.000149827
0.00015326
0.00015594
0.000158253
0.0001599
0.000160742
0.000161391
0.000162321
0.000163542
0.00016502
0.000166749
0.000168705
0.000170848
0.000173106
0.00017533
0.000177204
0.000178147
0.000177211
0.000172863
0.000162464
0.000140786
9.95666e-05
4.5496e-05
1.68949e-05
3.62749e-06
2.46347e-06
4.10436e-05
6.83196e-05
0.000133425
0.000184518
0.000149917
0.000130762
0.00013956
0.000158604
0.000174264
0.000184635
0.000193314
0.000201882
0.000209948
0.000217219
0.000223839
0.000229952
0.00023538
0.000239956
0.000243594
0.000246227
0.000247781
0.00024822
0.000247398
0.000244826
0.000239723
0.000231102
0.000217844
0.00019875
0.000172266
0.000135668
8.7353e-05
4.09725e-05
1.99514e-05
4.99245e-06
2.78643e-06
0.000120816
0.000114038
0.000111714
0.000120706
0.000140534
0.000171608
0.000216531
0.00026789
0.000269284
0.000270704
0.000272138
0.000273585
0.000275062
0.00027659
0.000278188
0.000279874
0.000281666
0.000283579
0.000285628
0.000287827
0.000290188
0.00029271
0.00028535
0.000274031
0.000263971
0.00025176
0.000234934
0.000211386
0.000177689
0.000129544
7.13451e-05
3.04257e-05
1.88787e-05
6.17665e-06
1.67221e-06
8.62324e-05
0.000116256
0.000119242
0.000125173
0.00014619
0.000181698
0.00020091
0.00017929
0.00015022
0.000137314
0.000138083
0.000144896
0.000153248
0.000162125
0.000171496
0.000180966
0.000190274
0.000200692
0.000214892
0.000233331
0.000250571
0.000258439
0.00025295
0.000236591
0.000214603
0.000190608
0.000165812
0.000139929
0.000111969
8.13087e-05
5.0729e-05
2.93587e-05
2.5515e-05
7.07264e-06
7.04837e-07
3.08258e-05
4.70971e-05
5.53425e-05
6.00844e-05
6.43777e-05
6.85787e-05
7.2095e-05
7.43963e-05
7.57757e-05
7.7689e-05
8.2345e-05
9.19118e-05
0.000107332
0.000124304
0.00012982
0.000118131
0.000101746
8.94245e-05
8.41183e-05
8.81887e-05
0.000103536
0.00013018
0.000162525
0.000188325
0.00019957
0.000197821
0.000185699
0.000163393
0.000129593
8.49831e-05
4.31805e-05
2.29943e-05
2.3406e-05
7.62717e-06
2.0074e-06
3.58525e-05
4.67669e-05
5.0795e-05
5.33459e-05
5.50303e-05
5.60866e-05
5.65669e-05
5.63627e-05
5.53393e-05
5.34173e-05
5.05367e-05
4.67065e-05
4.22497e-05
3.78882e-05
3.47437e-05
3.38602e-05
3.47622e-05
3.55271e-05
3.54071e-05
3.94828e-05
5.12122e-05
6.72662e-05
8.36965e-05
0.000101216
0.000116208
0.000121274
0.000113658
9.75451e-05
7.72628e-05
5.4936e-05
3.43596e-05
2.38117e-05
3.24829e-05
8.25454e-06
1.63529e-06
2.11609e-05
4.16907e-05
6.43511e-05
8.32681e-05
9.58679e-05
0.000103201
0.000106525
0.000106482
0.000103521
9.83441e-05
9.14283e-05
8.24734e-05
7.1601e-05
6.04847e-05
5.09968e-05
4.43998e-05
4.09499e-05
4.04559e-05
4.36923e-05
5.04481e-05
5.52891e-05
5.40528e-05
5.14668e-05
5.05664e-05
5.16473e-05
5.97845e-05
8.32994e-05
0.000112504
9.30095e-05
5.02122e-05
2.71308e-05
2.11145e-05
3.48346e-05
8.59425e-06
2.60014e-06
1.90259e-05
4.5062e-05
8.18235e-05
0.000115607
0.000135511
0.000142638
0.000139365
0.000126765
0.000109058
9.49337e-05
8.81533e-05
8.39778e-05
7.51565e-05
6.2285e-05
5.18509e-05
4.70858e-05
4.84431e-05
5.58615e-05
6.97749e-05
9.16059e-05
0.000118598
0.000134306
0.00012746
0.000110037
9.22253e-05
7.95933e-05
7.73456e-05
8.60321e-05
8.65456e-05
5.10338e-05
2.41099e-05
1.88138e-05
3.62658e-05
9.02886e-06
4.79163e-06
2.15454e-05
5.51148e-05
0.000102475
0.000136595
0.000147093
0.000138387
0.000116796
9.11689e-05
7.04682e-05
6.10552e-05
6.35403e-05
7.21218e-05
7.19106e-05
5.95101e-05
4.95943e-05
4.76199e-05
5.1828e-05
5.80636e-05
6.2691e-05
6.56098e-05
6.94691e-05
7.76693e-05
9.31851e-05
0.000114433
0.000129687
0.000129529
0.00012548
0.000125146
9.7622e-05
4.25537e-05
2.16656e-05
2.10771e-05
4.94043e-05
9.59972e-06
7.17327e-06
3.08298e-05
9.24697e-05
0.000151013
0.000157416
0.000136264
0.000103855
7.75873e-05
6.1339e-05
5.32016e-05
5.52635e-05
7.35523e-05
0.000110903
0.000130618
9.68359e-05
6.50477e-05
5.38968e-05
5.75831e-05
6.68481e-05
6.63091e-05
5.83756e-05
5.46678e-05
6.03325e-05
7.8359e-05
0.000107526
0.000134198
0.000147131
0.000148453
0.000136596
9.63941e-05
3.89495e-05
1.70116e-05
1.80721e-05
5.27831e-05
9.65132e-06
8.87421e-06
4.64611e-05
0.000140777
0.000155431
0.00013136
9.27917e-05
6.42434e-05
5.19383e-05
5.07446e-05
5.71822e-05
7.38528e-05
0.000105239
0.000137282
0.000139361
0.000110847
7.72856e-05
5.70315e-05
5.14615e-05
5.78472e-05
6.75717e-05
6.55057e-05
5.78145e-05
5.67564e-05
6.62302e-05
8.5425e-05
0.000106295
0.000118148
0.000116444
9.71218e-05
5.96271e-05
2.77124e-05
1.67854e-05
2.19991e-05
7.47495e-05
9.70812e-06
8.96616e-06
5.11806e-05
0.000123949
0.000146246
0.000131666
9.55438e-05
6.95723e-05
6.1347e-05
6.64359e-05
7.83223e-05
8.96867e-05
9.97172e-05
0.000110236
0.000117859
0.000115406
9.98427e-05
7.77175e-05
5.98424e-05
5.11474e-05
5.16212e-05
5.85129e-05
6.36748e-05
6.34503e-05
6.56505e-05
7.65042e-05
9.52145e-05
0.000111843
0.000115083
9.86068e-05
5.91669e-05
2.34955e-05
1.32731e-05
2.01713e-05
8.17683e-05
9.63408e-06
7.67063e-06
4.0068e-05
0.000108687
0.00015932
0.000171739
0.000155775
0.000118134
8.22117e-05
6.18051e-05
5.37789e-05
5.34466e-05
5.86209e-05
6.91199e-05
8.49025e-05
0.000102516
0.000113776
0.000110879
9.21363e-05
6.85221e-05
5.29713e-05
4.83967e-05
5.3989e-05
6.45712e-05
6.76636e-05
6.50995e-05
6.64316e-05
7.34155e-05
8.02183e-05
7.50228e-05
4.71613e-05
2.00782e-05
1.39581e-05
2.43766e-05
0.000101304
9.58663e-06
6.56038e-06
3.05546e-05
8.47105e-05
0.000155977
0.000185601
0.000180971
0.00016681
0.000149159
0.000120773
9.03705e-05
7.10454e-05
6.14749e-05
5.76e-05
5.8375e-05
6.48637e-05
7.88632e-05
9.96815e-05
0.000119055
0.00012318
0.000103161
7.42436e-05
5.65032e-05
5.23904e-05
5.98082e-05
7.18691e-05
7.45219e-05
7.04856e-05
6.81943e-05
6.53068e-05
4.84986e-05
1.96057e-05
1.20067e-05
2.24416e-05
0.000101235
9.55942e-06
7.04609e-06
3.03539e-05
9.0554e-05
0.000159512
0.000148921
0.000111385
8.56775e-05
7.85094e-05
8.99169e-05
0.000117773
0.000139961
0.000128209
0.000100198
7.87379e-05
6.64842e-05
6.23436e-05
6.75421e-05
8.4339e-05
0.000109444
0.00012743
0.000122665
9.55985e-05
7.04267e-05
5.94189e-05
5.87418e-05
6.05163e-05
5.83923e-05
5.40575e-05
4.87897e-05
3.52492e-05
1.641e-05
1.25098e-05
2.52776e-05
0.00010737
9.61113e-06
7.79406e-06
3.27743e-05
0.000104217
0.000172085
0.000135859
0.000109284
9.98722e-05
9.52871e-05
8.77238e-05
8.33948e-05
9.22134e-05
0.00011715
0.000144383
0.000141709
0.000108621
7.86542e-05
6.40669e-05
6.39134e-05
7.89362e-05
0.000109156
0.000136479
0.000129601
9.66338e-05
7.14372e-05
6.31387e-05
6.63448e-05
6.9937e-05
6.58944e-05
5.71923e-05
3.8423e-05
1.49345e-05
1.12886e-05
2.47736e-05
0.000108828
9.73203e-06
1.07682e-05
7.25114e-05
0.000167395
8.29714e-05
5.55359e-05
5.21512e-05
6.18286e-05
8.44778e-05
0.000115341
0.000140236
0.000154457
0.000165234
0.000176974
0.000180098
0.000158437
0.000115739
8.29109e-05
7.09529e-05
7.73892e-05
0.00010134
0.000132898
0.000141365
0.000115132
8.29182e-05
6.4138e-05
5.76298e-05
5.56784e-05
5.07482e-05
4.25545e-05
2.90898e-05
1.32799e-05
1.18422e-05
2.74103e-05
0.000110941
9.88331e-06
1.16447e-05
0.000123979
6.22996e-05
3.6867e-05
4.02876e-05
6.69872e-05
0.000116127
0.000167841
0.000198008
0.000206637
0.000200946
0.000185536
0.000164999
0.000142529
0.000119774
0.000100616
9.03372e-05
9.20378e-05
0.000105186
0.000123406
0.000134647
0.000128979
0.000107084
8.16772e-05
6.41109e-05
5.54223e-05
5.0262e-05
4.19919e-05
3.00936e-05
1.79583e-05
1.02095e-05
1.1891e-05
3.00253e-05
0.000109428
1.00204e-05
9.11042e-06
8.53622e-05
7.12161e-05
5.52872e-05
6.53554e-05
8.78995e-05
0.000126116
0.00016853
0.000183792
0.000178367
0.000165556
0.000151001
0.000138189
0.000131528
0.000134387
0.000144305
0.000151301
0.000148951
0.000143004
0.00013853
0.000132933
0.000121262
0.000103402
8.5467e-05
7.35589e-05
6.83302e-05
6.44315e-05
5.41626e-05
3.52414e-05
1.59477e-05
8.82363e-06
1.249e-05
3.36829e-05
0.00010349
1.00636e-05
8.56306e-06
4.45042e-05
0.000132031
0.000118401
5.69001e-05
3.44984e-05
3.47918e-05
5.36542e-05
8.94437e-05
0.000125564
0.000154019
0.000183236
0.000218175
0.000249623
0.00025908
0.00024351
0.000220138
0.000202061
0.00018948
0.000175986
0.000155978
0.000128801
9.88411e-05
7.25509e-05
5.45064e-05
4.51762e-05
4.18927e-05
4.10867e-05
3.60404e-05
1.87034e-05
8.41743e-06
1.23613e-05
3.52857e-05
9.79152e-05
1.0011e-05
1.08691e-05
6.41737e-05
0.000123403
6.99483e-05
4.67265e-05
2.98637e-05
2.4551e-05
3.70195e-05
9.04934e-05
0.000216086
0.000306931
0.000310806
0.000313882
0.00031604
0.000317252
0.000317498
0.000309461
0.000284339
0.000264561
0.00024349
0.0002152
0.000178752
0.000137522
9.80139e-05
6.64514e-05
4.39863e-05
2.66504e-05
1.24001e-05
7.24063e-06
1.01714e-05
7.00563e-06
1.06907e-05
3.21315e-05
9.97137e-05
9.98936e-06
1.16281e-05
0.000110107
3.43725e-05
2.34251e-05
3.57269e-05
4.60386e-05
5.63631e-05
9.08448e-05
0.000150207
0.000177921
0.000198295
0.000217862
0.000234671
0.000246373
0.00025239
0.000253184
0.000249646
0.000243127
0.000235184
0.000226425
0.000215772
0.000200739
0.00017881
0.000150065
0.000117917
8.71436e-05
6.05343e-05
3.61212e-05
1.16875e-05
1.12557e-06
3.55222e-06
8.54071e-06
2.83018e-05
0.000104277
1.00899e-05
1.05745e-05
7.54551e-05
4.16902e-05
5.80373e-05
9.10558e-05
7.46372e-05
6.62696e-05
6.92648e-05
8.30241e-05
0.000103446
0.000125826
0.000146602
0.000164498
0.000179847
0.000192781
0.000202797
0.00020924
0.000211452
0.000209111
0.000202871
0.000194246
0.00018443
0.000173554
0.000160691
0.000144525
0.000124206
9.95593e-05
7.03792e-05
3.54023e-05
6.01824e-06
3.15825e-06
7.96943e-06
2.80716e-05
0.000107677
1.03553e-05
9.01193e-06
4.82657e-05
9.33341e-05
0.000107808
8.57196e-05
6.06852e-05
4.67984e-05
4.04657e-05
3.99916e-05
4.61738e-05
6.12169e-05
8.70147e-05
0.000118836
0.000146085
0.00016706
0.000185768
0.000202672
0.000215422
0.000221381
0.000218592
0.00020686
0.000188942
0.000169089
0.000150359
0.000133801
0.000118248
0.000100142
7.44179e-05
3.72526e-05
7.83902e-06
4.95868e-06
1.1164e-05
3.55243e-05
0.00010329
1.04873e-05
7.26623e-06
3.03442e-05
7.26477e-05
0.000123979
0.000141524
0.00012487
8.87729e-05
5.91193e-05
4.10054e-05
3.10827e-05
2.72604e-05
2.96107e-05
4.12919e-05
6.90902e-05
0.000113374
0.000151723
0.000177167
0.000199196
0.000217998
0.000229656
0.000231188
0.000220198
0.000197103
0.000166875
0.000135912
0.000107951
8.3042e-05
5.7258e-05
2.64402e-05
5.91828e-06
5.20183e-06
1.45772e-05
4.62942e-05
9.02332e-05
1.03332e-05
6.92506e-06
2.81338e-05
7.49224e-05
0.000131457
0.000164575
0.00017828
0.000176005
0.000147241
9.87084e-05
6.22051e-05
4.15804e-05
3.00307e-05
2.41542e-05
2.39379e-05
3.30912e-05
6.13282e-05
0.000112421
0.000154338
0.000180291
0.000201386
0.00021544
0.000218472
0.000209452
0.000188569
0.000158083
0.000122793
8.80757e-05
5.44335e-05
2.05265e-05
2.20987e-06
2.80174e-06
1.46113e-05
5.2264e-05
8.01849e-05
1.00944e-05
7.60461e-06
2.96587e-05
7.02243e-05
0.000119494
0.000147432
0.00014766
0.000132844
0.000117138
0.000106981
9.92167e-05
8.80378e-05
7.10278e-05
5.20102e-05
3.64805e-05
2.67332e-05
2.42996e-05
3.4435e-05
7.02976e-05
0.000124553
0.000159868
0.000184277
0.000202583
0.000209074
0.000201688
0.000181724
0.00015205
0.000116946
8.01096e-05
3.99739e-05
5.03267e-06
1.66533e-07
1.02385e-05
4.09184e-05
8.27419e-05
1.00729e-05
8.5459e-06
3.02726e-05
7.14573e-05
0.000127144
0.00015357
0.000143365
0.000112124
8.08701e-05
6.12789e-05
5.2523e-05
5.40639e-05
6.84277e-05
9.34325e-05
0.000101669
7.24445e-05
4.38727e-05
2.98029e-05
2.99317e-05
5.50715e-05
0.000124117
0.000181893
0.000209706
0.000228908
0.00023385
0.000219987
0.000191299
0.000154114
0.000114738
7.20247e-05
1.63573e-05
2.39371e-07
6.45505e-06
3.01181e-05
9.19443e-05
1.03088e-05
1.06509e-05
3.7148e-05
0.000101443
0.00016527
0.000145765
9.72556e-05
6.44776e-05
5.30746e-05
5.54234e-05
5.89294e-05
5.57199e-05
5.82042e-05
8.05812e-05
0.000130084
0.000171114
0.000126929
6.37766e-05
3.70103e-05
3.43048e-05
6.30984e-05
0.000169026
0.00026337
0.000272832
0.000279881
0.000283246
0.000248981
0.000202014
0.000154332
0.000104364
2.85961e-05
2.4948e-06
5.09884e-06
2.58509e-05
0.000100172
1.06635e-05
1.23279e-05
5.17776e-05
0.000159025
0.000143915
8.05411e-05
4.12643e-05
2.67395e-05
2.80085e-05
4.8296e-05
9.62757e-05
0.000131901
0.000123635
0.000119951
0.000142506
0.000176692
0.000176874
0.000115495
6.08198e-05
4.1492e-05
5.05747e-05
0.000107645
0.000228537
0.00026873
0.000274503
0.000278307
0.000249336
0.000207096
0.000161485
0.000107665
3.00017e-05
4.3546e-06
6.06421e-06
2.74487e-05
0.000103371
1.10157e-05
1.20552e-05
5.90644e-05
0.00014754
9.90828e-05
4.68235e-05
2.60811e-05
2.50312e-05
4.0793e-05
8.01109e-05
0.000140214
0.000173034
0.000169795
0.00015386
0.000148855
0.000157554
0.000157976
0.000123961
7.68149e-05
5.4275e-05
6.37771e-05
0.000126581
0.000225901
0.00027376
0.000278661
0.000264938
0.000237466
0.000200674
0.000155929
9.55457e-05
2.6354e-05
5.89895e-06
8.69768e-06
3.37931e-05
9.75839e-05
1.11779e-05
1.11015e-05
6.17395e-05
0.000134077
8.4418e-05
4.26655e-05
2.736e-05
3.28452e-05
6.01846e-05
9.11161e-05
0.000111675
0.000128255
0.000139429
0.000142284
0.00013129
0.00010734
8.48863e-05
7.78604e-05
9.53655e-05
0.000139923
0.000181208
0.000205956
0.000223366
0.000235999
0.000239512
0.000231565
0.000212806
0.000183565
0.00014006
7.62253e-05
2.24142e-05
7.40404e-06
1.16783e-05
4.29407e-05
8.6283e-05
1.11327e-05
1.05417e-05
5.61301e-05
0.000140723
0.00013737
8.59318e-05
4.39308e-05
2.82498e-05
3.04838e-05
4.4065e-05
5.74309e-05
6.63189e-05
7.62653e-05
9.69756e-05
0.000129486
0.000155167
0.000158753
0.000150253
0.000148423
0.000160553
0.000180711
0.000201544
0.000218903
0.000230445
0.000233843
0.000226722
0.000207246
0.000173168
0.000120536
5.72879e-05
1.90272e-05
9.08995e-06
1.54603e-05
5.58403e-05
7.6498e-05
1.09411e-05
1.00965e-05
4.60479e-05
0.000125397
0.000167994
0.0001618
0.000103564
5.3122e-05
3.25252e-05
2.69992e-05
2.86146e-05
3.61675e-05
5.11203e-05
7.45245e-05
9.52428e-05
0.000106392
0.00011815
0.00013447
0.000153573
0.000174401
0.000196573
0.000218088
0.000235869
0.000246958
0.000248918
0.000239768
0.000217745
0.000180238
0.000123338
5.76441e-05
1.94232e-05
9.79276e-06
1.81139e-05
6.92633e-05
6.84552e-05
1.05755e-05
9.61904e-06
3.77573e-05
0.000111336
0.000169039
0.000168217
0.00015993
0.000151649
0.00011773
7.43126e-05
4.83084e-05
3.20581e-05
1.98735e-05
1.45007e-05
2.24003e-05
5.31259e-05
9.78634e-05
0.000136244
0.000172299
0.000208783
0.000242235
0.000267125
0.000279315
0.000278355
0.000266073
0.000245122
0.000218039
0.000184979
0.000140616
7.89574e-05
2.797e-05
1.09726e-05
1.6819e-05
6.31665e-05
6.73487e-05
1.02817e-05
1.06757e-05
4.26967e-05
0.000122825
0.000175462
0.000153542
9.98127e-05
6.50096e-05
6.34908e-05
9.90283e-05
0.000154761
0.000124334
5.10579e-05
1.68522e-05
7.10585e-06
1.42192e-05
5.02082e-05
0.000139993
0.000255844
0.000307476
0.000318797
0.000327488
0.000333981
0.000338561
0.000303752
0.000260756
0.000222705
0.000187022
0.000149298
0.000100866
4.5001e-05
1.51377e-05
1.4864e-05
4.52919e-05
7.87701e-05
1.03373e-05
1.17243e-05
5.58341e-05
0.000154101
0.000176644
0.000161565
0.000130744
8.89592e-05
5.74887e-05
4.95351e-05
6.73955e-05
0.000115174
0.000114507
3.2735e-05
7.92287e-06
9.09363e-06
3.90643e-05
0.000140383
0.000275957
0.000291908
0.000305624
0.000317021
0.000326214
0.000328868
0.000285857
0.000243905
0.00020792
0.000175924
0.000144936
0.000109308
6.22365e-05
2.21858e-05
1.43685e-05
3.41723e-05
0.000103736
1.0711e-05
1.18984e-05
5.90556e-05
0.000155602
0.000173073
0.000151302
0.000123336
0.000110908
0.000106953
8.94873e-05
7.10056e-05
6.63484e-05
6.74426e-05
4.58063e-05
1.44299e-05
6.02217e-06
2.15485e-05
7.9652e-05
0.000188195
0.000272532
0.000296607
0.000308871
0.000304789
0.000285485
0.00025751
0.00022684
0.000196744
0.000167644
0.000137576
0.000102814
6.13429e-05
2.57493e-05
1.54883e-05
3.24459e-05
0.000124287
1.12446e-05
1.16832e-05
5.8292e-05
0.000151043
0.000172894
0.000160735
0.000127214
9.14032e-05
7.4414e-05
7.53746e-05
8.40274e-05
8.5525e-05
7.29376e-05
5.08245e-05
2.118e-05
5.12979e-06
1.30344e-05
6.02111e-05
0.00016707
0.00026074
0.000288531
0.000301785
0.000299815
0.00028186
0.000254879
0.000224341
0.000192937
0.000160469
0.000123859
8.17682e-05
4.57544e-05
2.39894e-05
1.86197e-05
3.9827e-05
0.000127827
1.16668e-05
1.11605e-05
5.25416e-05
0.000143265
0.000175956
0.000177392
0.00016746
0.000141426
9.83154e-05
6.57613e-05
5.36512e-05
5.72131e-05
7.06771e-05
7.38344e-05
4.49527e-05
1.36875e-05
2.38793e-06
1.82243e-05
8.38628e-05
0.000199683
0.000274979
0.000290855
0.000304163
0.000295254
0.000265625
0.00022967
0.000191377
0.000149186
0.000100968
5.64833e-05
3.2205e-05
2.25604e-05
2.48909e-05
5.86121e-05
0.000111664
1.17449e-05
1.05475e-05
4.52264e-05
0.000129683
0.000175445
0.000176503
0.00016324
0.000146113
0.000124056
8.95988e-05
5.85525e-05
4.55775e-05
4.81692e-05
6.16192e-05
6.84537e-05
3.60093e-05
9.70685e-06
5.6035e-06
2.22896e-05
9.16553e-05
0.000203691
0.000272202
0.000289722
0.000299728
0.000268737
0.000228352
0.000183466
0.000132862
7.99156e-05
4.13101e-05
2.56303e-05
2.38987e-05
3.55568e-05
9.04532e-05
8.89998e-05
1.13957e-05
1.07013e-05
4.37392e-05
0.000128481
0.000179517
0.000176356
0.000156234
0.000132106
0.000110636
8.95899e-05
6.48654e-05
4.79214e-05
4.55124e-05
5.64896e-05
7.37689e-05
6.55458e-05
2.82136e-05
8.07462e-06
5.1419e-06
1.6802e-05
6.86497e-05
0.000151534
0.000221453
0.000246591
0.000237837
0.000210282
0.00017083
0.000121513
7.03971e-05
3.53908e-05
2.23279e-05
2.50771e-05
4.72331e-05
0.000119229
7.19931e-05
1.08532e-05
1.1212e-05
4.70173e-05
0.000137839
0.000181891
0.00017333
0.000148218
0.000118524
9.28191e-05
7.32013e-05
5.67151e-05
4.48368e-05
4.293e-05
5.33286e-05
7.40558e-05
8.39327e-05
5.06878e-05
1.86797e-05
5.41102e-06
7.97003e-06
1.3131e-05
5.78659e-05
0.00012578
0.000179808
0.000196311
0.000185808
0.000158696
0.00011842
7.18653e-05
3.6511e-05
2.15348e-05
2.43797e-05
5.19027e-05
0.00012693
6.15524e-05
1.04184e-05
1.1734e-05
5.25121e-05
0.000148221
0.000179111
0.000167864
0.000140976
0.000106526
7.54684e-05
5.51063e-05
4.5682e-05
4.47747e-05
5.06966e-05
6.30265e-05
7.85278e-05
8.32452e-05
6.28586e-05
3.24533e-05
1.20994e-05
1.66723e-06
1.10033e-05
2.40563e-05
5.95628e-05
0.000105623
0.000139955
0.000150844
0.000141573
0.000116136
7.85653e-05
4.26958e-05
2.33646e-05
2.25304e-05
4.56803e-05
0.000119548
5.7978e-05
1.02829e-05
1.176e-05
5.61501e-05
0.000156055
0.000177113
0.000162372
0.000134729
0.000102313
7.1549e-05
4.82389e-05
3.62657e-05
3.66599e-05
4.93544e-05
6.91757e-05
8.28121e-05
7.91201e-05
5.94049e-05
3.62499e-05
1.89079e-05
7.38752e-06
2.6508e-06
9.55862e-06
3.58943e-05
7.22206e-05
0.000107761
0.000128137
0.000129488
0.000114499
8.6031e-05
5.1951e-05
2.80899e-05
2.22791e-05
3.87663e-05
0.000107715
5.98973e-05
1.04014e-05
1.14796e-05
5.44796e-05
0.000157736
0.000182804
0.000166378
0.00013717
0.000107406
8.09786e-05
5.71651e-05
3.94395e-05
3.28923e-05
3.91577e-05
5.5451e-05
7.00212e-05
7.02839e-05
5.69115e-05
3.97182e-05
2.57925e-05
1.66762e-05
1.30693e-05
1.32466e-05
2.84769e-05
5.34972e-05
8.31498e-05
0.000106921
0.000116285
0.000109982
8.99034e-05
6.02828e-05
3.4135e-05
2.39356e-05
3.52427e-05
9.60172e-05
6.60084e-05
1.06434e-05
1.14033e-05
5.38061e-05
0.000156901
0.000184121
0.00016683
0.000136963
0.000109035
8.71959e-05
6.64636e-05
4.50769e-05
3.08807e-05
2.89738e-05
3.9095e-05
5.38151e-05
5.9489e-05
5.35369e-05
4.46284e-05
3.9245e-05
3.93028e-05
3.69048e-05
2.15577e-05
2.54495e-05
4.42374e-05
7.13478e-05
9.66515e-05
0.000109213
0.000106088
8.99077e-05
6.45651e-05
3.94599e-05
2.72753e-05
3.62537e-05
9.29223e-05
7.2908e-05
1.08554e-05
1.15422e-05
5.49573e-05
0.000156997
0.000183501
0.000166362
0.000135563
0.000107168
8.84309e-05
7.49301e-05
5.76898e-05
3.81012e-05
2.72679e-05
2.86162e-05
3.95017e-05
5.02813e-05
5.14129e-05
4.63427e-05
4.39074e-05
4.83162e-05
4.79019e-05
2.84879e-05
2.44747e-05
3.71569e-05
6.0103e-05
8.53311e-05
0.000100704
0.000100212
8.62903e-05
6.42872e-05
4.23908e-05
3.12039e-05
4.07881e-05
9.89204e-05
7.75177e-05
1.09685e-05
1.14991e-05
5.44717e-05
0.000157201
0.000186563
0.000168998
0.000136532
0.000106661
8.76624e-05
7.73542e-05
6.7722e-05
5.05968e-05
3.28107e-05
2.46635e-05
2.70915e-05
3.66275e-05
4.63374e-05
5.21713e-05
5.67281e-05
6.05164e-05
5.06769e-05
2.87307e-05
2.3924e-05
3.46044e-05
5.54771e-05
8.00241e-05
9.56103e-05
9.48589e-05
8.11355e-05
6.1742e-05
4.40295e-05
3.59798e-05
4.89041e-05
0.0001118
7.84752e-05
1.09761e-05
1.15964e-05
5.4332e-05
0.000159725
0.00019003
0.000168462
0.000133721
0.000105906
9.04336e-05
8.37052e-05
7.93647e-05
6.85338e-05
4.78387e-05
3.0835e-05
2.48177e-05
2.86634e-05
3.85303e-05
4.92307e-05
5.92572e-05
6.60896e-05
5.52483e-05
2.97534e-05
2.2289e-05
3.09166e-05
4.97183e-05
7.34212e-05
8.97344e-05
8.94443e-05
7.60531e-05
5.88269e-05
4.51228e-05
4.12811e-05
5.94081e-05
0.000125628
7.67633e-05
1.09176e-05
1.17059e-05
5.44991e-05
0.000159799
0.000186823
0.000158857
0.000120552
9.46763e-05
8.33643e-05
8.12248e-05
8.25327e-05
7.96245e-05
6.37431e-05
4.09714e-05
2.67085e-05
2.35196e-05
2.99057e-05
4.44792e-05
6.42576e-05
7.77194e-05
6.28011e-05
3.18155e-05
2.2286e-05
2.98887e-05
4.78448e-05
7.11545e-05
8.72523e-05
8.60559e-05
7.21365e-05
5.65581e-05
4.65002e-05
4.73398e-05
7.17172e-05
0.000136761
7.32499e-05
1.08298e-05
1.19543e-05
5.66827e-05
0.000164389
0.00018128
0.000145335
0.000106709
8.58634e-05
7.97608e-05
8.15396e-05
8.55594e-05
8.57608e-05
7.51773e-05
5.33389e-05
3.4154e-05
2.54066e-05
2.6505e-05
3.58911e-05
5.16211e-05
6.48766e-05
5.51473e-05
2.83281e-05
1.97997e-05
2.75355e-05
4.52487e-05
6.88173e-05
8.58769e-05
8.49138e-05
7.05674e-05
5.5694e-05
4.81955e-05
5.32759e-05
8.33423e-05
0.000143176
6.97977e-05
1.0758e-05
1.20081e-05
5.84114e-05
0.000169171
0.000171754
0.000125796
8.98579e-05
7.60818e-05
7.60817e-05
8.15287e-05
8.60415e-05
8.47981e-05
7.44274e-05
5.58322e-05
3.75378e-05
2.71828e-05
2.63533e-05
3.47517e-05
4.97032e-05
5.88544e-05
4.50652e-05
2.27668e-05
1.79004e-05
2.73287e-05
4.64369e-05
7.12084e-05
8.85411e-05
8.71127e-05
7.22146e-05
5.73436e-05
5.10579e-05
5.88324e-05
9.22096e-05
0.000146361
6.79954e-05
1.07638e-05
1.20513e-05
5.98038e-05
0.000172024
0.000160734
0.000108347
7.74981e-05
7.06381e-05
7.74311e-05
8.84348e-05
9.50416e-05
9.21285e-05
7.90818e-05
5.96617e-05
4.12468e-05
2.97297e-05
2.66368e-05
3.17768e-05
4.14186e-05
4.43909e-05
3.10407e-05
1.64688e-05
1.57644e-05
2.71029e-05
4.849e-05
7.58847e-05
9.43212e-05
9.20381e-05
7.53892e-05
5.94957e-05
5.37332e-05
6.3445e-05
9.88087e-05
0.000148229
6.72184e-05
1.08745e-05
1.20879e-05
6.27569e-05
0.000170261
0.00014257
9.05766e-05
6.61876e-05
6.42765e-05
7.50101e-05
8.86161e-05
9.5822e-05
9.2276e-05
7.90297e-05
6.09172e-05
4.42809e-05
3.35074e-05
3.01907e-05
3.46687e-05
4.11765e-05
3.66923e-05
2.11969e-05
1.25702e-05
1.57578e-05
2.99944e-05
5.5566e-05
8.465e-05
0.000100231
9.53831e-05
7.68689e-05
6.03662e-05
5.62705e-05
7.00818e-05
0.000109964
0.000151282
6.46511e-05
1.09888e-05
1.20189e-05
6.52649e-05
0.00016499
0.000131309
8.39468e-05
6.33274e-05
6.39407e-05
7.76576e-05
9.40794e-05
0.000102044
9.71752e-05
8.22203e-05
6.35873e-05
4.74402e-05
3.69839e-05
3.30422e-05
3.52135e-05
3.73915e-05
2.83048e-05
1.45628e-05
1.01623e-05
1.55274e-05
3.24767e-05
6.41044e-05
9.18691e-05
9.52966e-05
8.78124e-05
7.58607e-05
6.4356e-05
6.38207e-05
8.34729e-05
0.000127149
0.000152553
5.91063e-05
1.08509e-05
1.18553e-05
6.72779e-05
0.000158424
0.000128329
8.52439e-05
6.31907e-05
6.01855e-05
7.00037e-05
8.51991e-05
9.60867e-05
9.61742e-05
8.54801e-05
6.92663e-05
5.39375e-05
4.35853e-05
3.9262e-05
3.95884e-05
3.80397e-05
2.55451e-05
1.18382e-05
8.40478e-06
1.36885e-05
2.99107e-05
6.61463e-05
0.000101651
8.93685e-05
7.31607e-05
6.99551e-05
7.39767e-05
8.43249e-05
0.000110049
0.000146293
0.000145786
5.15332e-05
1.03195e-05
1.15475e-05
6.54533e-05
0.000153804
0.000138938
0.000101519
7.2483e-05
6.08006e-05
6.32084e-05
7.4354e-05
8.62016e-05
9.06934e-05
8.5194e-05
7.30876e-05
5.99392e-05
4.98619e-05
4.45157e-05
4.27918e-05
3.97534e-05
2.87989e-05
1.391e-05
7.1546e-06
9.49616e-06
1.97664e-05
4.41667e-05
9.08567e-05
0.000105408
7.75884e-05
6.48907e-05
7.35091e-05
9.91718e-05
0.000132329
0.000153736
0.000130755
4.45384e-05
9.55909e-06
1.13234e-05
6.29752e-05
0.00015137
0.000152372
0.00012503
8.89038e-05
6.39776e-05
5.48269e-05
5.7876e-05
6.85941e-05
7.98758e-05
8.38973e-05
7.85556e-05
6.82661e-05
5.85496e-05
5.21943e-05
4.90189e-05
4.59723e-05
3.85243e-05
2.50587e-05
1.17063e-05
6.92559e-06
1.04377e-05
2.11106e-05
4.2454e-05
7.96629e-05
0.000103718
8.99753e-05
8.32412e-05
9.945e-05
0.000130182
0.000148326
0.000120519
4.04866e-05
8.88627e-06
1.11164e-05
6.08042e-05
0.000153153
0.000164609
0.000149264
0.000119889
8.56791e-05
6.19064e-05
5.22972e-05
5.36646e-05
6.20099e-05
7.12383e-05
7.47983e-05
7.13149e-05
6.46795e-05
5.90501e-05
5.58694e-05
5.38065e-05
4.99774e-05
4.20723e-05
2.95236e-05
1.58994e-05
8.8147e-06
1.00482e-05
1.74252e-05
3.11301e-05
5.58178e-05
9.40983e-05
0.000118271
0.000125711
0.000139014
0.000148137
0.000120913
4.03648e-05
8.61352e-06
1.10305e-05
5.94405e-05
0.000158556
0.000175802
0.000162894
0.000141466
0.000113572
8.26018e-05
6.00377e-05
4.99084e-05
5.0032e-05
5.7093e-05
6.56696e-05
6.97565e-05
6.82378e-05
6.46954e-05
6.2298e-05
6.14383e-05
6.03318e-05
5.68715e-05
5.00555e-05
3.95296e-05
2.6053e-05
1.48098e-05
1.08989e-05
1.34971e-05
2.11952e-05
3.7278e-05
7.28578e-05
0.000121561
0.000143681
0.000146594
0.000121608
4.3275e-05
8.84151e-06
1.11059e-05
5.92844e-05
0.000164342
0.000181491
0.000163307
0.000143936
0.00013048
0.000113281
8.64238e-05
6.27207e-05
5.07568e-05
4.91767e-05
5.44109e-05
6.14863e-05
6.55878e-05
6.60962e-05
6.57044e-05
6.63562e-05
6.76077e-05
6.75167e-05
6.4716e-05
5.93218e-05
5.14609e-05
4.02923e-05
2.67796e-05
1.63137e-05
1.25491e-05
1.49182e-05
2.66349e-05
5.63955e-05
0.000103845
0.000131774
0.00012337
4.92092e-05
9.47156e-06
1.12343e-05
5.78771e-05
0.00016419
0.000179314
0.000150993
0.000125293
0.000115678
0.00011552
0.000109354
8.7852e-05
6.49857e-05
5.26709e-05
5.05964e-05
5.50209e-05
6.1166e-05
6.54049e-05
6.77484e-05
7.00799e-05
7.30767e-05
7.53955e-05
7.51753e-05
7.21609e-05
6.75483e-05
6.19605e-05
5.41609e-05
4.17975e-05
2.61972e-05
1.43648e-05
1.17292e-05
2.33706e-05
5.2445e-05
9.22216e-05
0.000119245
5.73415e-05
1.01997e-05
1.14855e-05
5.68113e-05
0.000161453
0.000171693
0.000134424
0.000106386
9.94028e-05
0.000106088
0.000114866
0.000110751
8.88711e-05
6.64794e-05
5.50585e-05
5.34751e-05
5.74067e-05
6.26724e-05
6.73381e-05
7.18448e-05
7.67371e-05
8.09116e-05
8.22956e-05
8.04498e-05
7.71757e-05
7.42078e-05
7.14194e-05
6.60679e-05
5.27531e-05
2.97399e-05
1.17264e-05
1.19781e-05
2.88506e-05
6.64301e-05
0.000111422
5.77156e-05
1.05283e-05
1.16931e-05
5.45317e-05
0.000155774
0.000155951
0.000110527
8.50293e-05
8.26062e-05
9.36401e-05
0.000108817
0.000116761
0.000107232
8.46478e-05
6.58794e-05
5.75675e-05
5.72088e-05
6.06512e-05
6.52649e-05
7.05283e-05
7.63323e-05
8.11726e-05
8.25024e-05
7.9795e-05
7.57935e-05
7.33048e-05
7.30201e-05
7.3149e-05
6.79275e-05
4.76524e-05
1.98996e-05
1.00509e-05
2.00183e-05
6.04381e-05
0.000117069
5.15834e-05
1.04447e-05
1.19663e-05
5.36069e-05
0.000150551
0.000134865
8.72059e-05
6.80967e-05
7.1371e-05
8.73061e-05
0.000106672
0.000118506
0.000114513
9.61214e-05
7.5936e-05
6.34988e-05
5.91382e-05
5.95195e-05
6.20057e-05
6.56855e-05
6.98954e-05
7.26029e-05
7.10415e-05
6.58571e-05
6.13877e-05
6.09732e-05
6.52788e-05
7.26046e-05
7.82314e-05
7.18188e-05
4.41388e-05
1.90007e-05
1.78064e-05
4.25142e-05
0.000111787
5.50593e-05
1.04672e-05
1.20285e-05
5.20956e-05
0.000140569
0.000114936
7.16854e-05
5.67075e-05
6.15519e-05
7.83892e-05
9.94248e-05
0.000114156
0.000114327
0.000100332
8.19541e-05
6.84302e-05
6.162e-05
5.91894e-05
5.89444e-05
5.99281e-05
6.06074e-05
5.75621e-05
4.98387e-05
4.46495e-05
4.68162e-05
5.63784e-05
7.1778e-05
8.98702e-05
0.000106543
0.000115462
0.000101767
5.4032e-05
2.5412e-05
2.7589e-05
6.36125e-05
7.30668e-05
1.1152e-05
1.19515e-05
5.18982e-05
0.000133352
0.000112298
7.3404e-05
5.51534e-05
5.44209e-05
6.53944e-05
8.35444e-05
0.000100806
0.000107334
0.000100029
8.56295e-05
7.27285e-05
6.44042e-05
5.94212e-05
5.60483e-05
5.27353e-05
4.62979e-05
3.58088e-05
3.05445e-05
3.57859e-05
5.06155e-05
7.44668e-05
0.000103905
0.00013137
0.000150039
0.00015432
0.000130649
6.93769e-05
2.94065e-05
2.60425e-05
6.12579e-05
8.80086e-05
1.2313e-05
1.163e-05