/*--------------------------------*- C++ -*----------------------------------*\
| =========                 |                                                 |
| \\      /  F ield         | OpenFOAM: The Open Source CFD Toolbox           |
|  \\    /   O peration     | Version:  v2006                                 |
|   \\  /    A nd           | Website:  www.openfoam.com                      |
|    \\/     M anipulation  |                                                 |
\*---------------------------------------------------------------------------*/
FoamFile
{
    version     2.0;
    format      ascii;
    class       volScalarField;
    location    "31";
    object      k;
}
// * * * * * * * * * * * * * * * * * * * * * * * * * * * * * * * * * * * * * //

dimensions      [0 2 -2 0 0 0 0];


internalField   nonuniform List<scalar> 
78750
(
1.86857
0.603019
0.282167
0.0878651
0.0116388
0.000234578
0.00269271
0.00121677
0.00222782
0.00140166
0.00207568
0.00141924
0.00188489
0.00153763
0.001689
0.00158538
0.00159
0.00155921
0.00153713
0.00151355
0.00148961
0.00146486
0.00143883
0.00141097
0.00138072
0.00134901
0.0013131
0.00127077
0.00121941
0.00115551
0.00107412
0.00096841
0.000830706
0.000613622
0.000183422
0.0576617
0.0194313
0.00367185
2.73014e-05
0.00311354
0.00303936
0.00270674
0.00287763
0.00268414
0.00276066
0.0026723
0.00269696
0.00265951
0.00265778
0.00264163
0.00263227
0.00262171
0.00261205
0.00260271
0.00259365
0.00258472
0.00257574
0.00256649
0.00255667
0.00254595
0.00253464
0.00252073
0.00250212
0.00247591
0.0024377
0.00238049
0.00229276
0.00214326
0.00175374
0.00134756
0.00172035
0.00221506
0.00241736
0.00244158
0.00227791
0.00246845
0.00250321
0.00254522
0.00258231
0.00260517
0.00262497
0.0026388
0.0026494
0.00265738
0.00266352
0.0026685
0.00267293
0.0026773
0.00268204
0.00268756
0.00269424
0.00270246
0.00271249
0.00272443
0.00273815
0.00275307
0.00276798
0.00278074
0.00278782
0.00278357
0.00275826
0.00269047
0.00251214
0.00210764
0.00287141
0.000660614
0.0015963
0.00193981
0.00208108
0.00215953
0.0022298
0.00229949
0.00235576
0.00239576
0.00242522
0.00244862
0.00246842
0.00248599
0.00250226
0.00251791
0.00253348
0.00254935
0.00256584
0.00258328
0.00260195
0.00262217
0.00264426
0.00266848
0.0026951
0.00272432
0.00275625
0.00279087
0.00282772
0.00286564
0.00290195
0.00293068
0.00293585
0.00285993
0.00262823
0.00402008
0.000753103
0.0014709
0.00178038
0.00197045
0.00207478
0.00213374
0.00217127
0.00219831
0.00222005
0.00224004
0.00225999
0.00227995
0.00230009
0.00232072
0.00234221
0.00236489
0.00238905
0.00241496
0.00244287
0.00247302
0.00250563
0.00254088
0.0025788
0.00261981
0.00266414
0.00271082
0.00275834
0.00280468
0.00284672
0.00287934
0.00289287
0.00286364
0.00274157
0.00274813
0.00509971
0.000453057
0.00135198
0.00172136
0.00192912
0.00202861
0.00204959
0.00203342
0.00201039
0.00199249
0.00198593
0.00199498
0.00201689
0.00204543
0.00207646
0.00210827
0.00214042
0.00217306
0.00220661
0.0022416
0.00227831
0.00231676
0.00235723
0.00240075
0.00244896
0.00250378
0.00256686
0.00263928
0.00272144
0.00281296
0.00291101
0.00300843
0.00308622
0.00311671
0.00338867
0.00597171
0.000189758
0.000865619
0.0012182
0.00142594
0.00155018
0.00162178
0.0016595
0.00167519
0.00167649
0.00167001
0.00166196
0.00165746
0.00165911
0.00166614
0.0016771
0.00169423
0.00172429
0.00177529
0.00184961
0.00193777
0.00202295
0.00209542
0.0021558
0.00220919
0.00226107
0.00231567
0.00237547
0.00244141
0.00251347
0.00259244
0.00267998
0.00277687
0.00289666
0.00341914
0.00646634
0.000554013
0.00161076
0.00205128
0.0023016
0.00245107
0.00253946
0.00258603
0.00260007
0.00258521
0.00254242
0.00247133
0.00237097
0.00223973
0.00207726
0.00188999
0.00169446
0.00151172
0.00135472
0.00123682
0.00121349
0.00131407
0.0014818
0.00165978
0.00183654
0.00200571
0.00215561
0.00228442
0.00240131
0.00251886
0.00264432
0.00277536
0.00291201
0.00314297
0.00396798
0.00714442
0.000450822
0.00207641
0.00281977
0.00322626
0.00346959
0.00362203
0.00371515
0.00376366
0.00377494
0.00375264
0.00369848
0.00361037
0.0034809
0.00330017
0.00306568
0.00279084
0.00249812
0.00221693
0.00196401
0.00175475
0.0016084
0.00152545
0.00149065
0.00149068
0.00151714
0.00156981
0.00166786
0.00181686
0.00198636
0.00217183
0.00240804
0.00273304
0.00323407
0.00424982
0.00744575
0.000715889
0.00221703
0.0029843
0.00339326
0.0036137
0.00373046
0.00378209
0.0037868
0.00375446
0.00369298
0.00361492
0.00352073
0.00338808
0.00318966
0.00291443
0.00259506
0.00229615
0.00206007
0.00189336
0.00178168
0.00170974
0.00166514
0.00163735
0.00161889
0.00160502
0.00159333
0.00158941
0.00161216
0.00168177
0.00180486
0.00200584
0.00235709
0.00300523
0.00430104
0.00789574
0.00133409
0.00285626
0.00358589
0.00392276
0.00407069
0.00411527
0.00408734
0.00399741
0.00385016
0.00366384
0.00349807
0.0033737
0.00323049
0.00300988
0.00268432
0.00229182
0.00194038
0.00170342
0.00157483
0.00152012
0.00151394
0.00154056
0.00158321
0.00162254
0.00164405
0.00164653
0.00163979
0.00164086
0.00166845
0.00173988
0.00191559
0.00239112
0.00333843
0.0048284
0.00846124
0.00253101
0.00381828
0.00422029
0.00432356
0.00432522
0.00426331
0.00413605
0.00393805
0.00367866
0.00340856
0.00324717
0.00322163
0.00321366
0.00314774
0.0029811
0.00265963
0.00223814
0.00187296
0.00163773
0.00150785
0.00145474
0.00146721
0.00152736
0.00159676
0.00164319
0.0016622
0.00166346
0.00165852
0.00165869
0.00167694
0.00175457
0.00209441
0.00316719
0.0049294
0.00865773
0.00367628
0.00424312
0.0043309
0.00431001
0.00423054
0.00407728
0.00383487
0.00353609
0.00324969
0.00303196
0.00292501
0.00290065
0.00288954
0.0028608
0.00279156
0.00264035
0.00236701
0.0020265
0.00174091
0.00155958
0.00145991
0.00142367
0.00144645
0.00150896
0.00157597
0.00162522
0.00165486
0.00167146
0.00168492
0.00171633
0.0018458
0.00235226
0.00364259
0.00544579
0.00888598
0.0033794
0.00383761
0.00403989
0.0041141
0.00410556
0.00400777
0.00382153
0.00360422
0.00342099
0.00327465
0.00315167
0.00305537
0.00298813
0.00293905
0.00289186
0.00282679
0.00271376
0.00251694
0.00224026
0.00195739
0.00174057
0.00160469
0.0015345
0.00151841
0.00154317
0.00158541
0.00162539
0.00165475
0.00167311
0.00168817
0.00175167
0.0021898
0.00368038
0.00557231
0.00882702
0.00243912
0.00368871
0.00419126
0.00442161
0.00454384
0.00459267
0.00455692
0.00440495
0.0041418
0.00382486
0.0035139
0.00324504
0.00303422
0.00288351
0.00278289
0.00271427
0.00265566
0.00257796
0.00243967
0.00221127
0.00192909
0.00168343
0.00152582
0.00144657
0.00142335
0.00144091
0.00148286
0.00153129
0.00157652
0.00162953
0.00178096
0.00245291
0.00416103
0.00596951
0.00898187
0.00186938
0.00326538
0.00388279
0.00419332
0.00439208
0.0045516
0.00469334
0.00481053
0.00485908
0.00477187
0.00454141
0.0042225
0.00386649
0.00351675
0.00321267
0.00298055
0.00282368
0.0027207
0.00264054
0.0025476
0.00239731
0.00215886
0.00187717
0.00164253
0.00149854
0.00143297
0.00142622
0.00146159
0.00151919
0.00158541
0.00169287
0.00227665
0.00420138
0.00607735
0.00912371
0.00224867
0.00339519
0.00385734
0.0040408
0.00411427
0.00413517
0.00413306
0.00414976
0.004226
0.0043545
0.0044796
0.00453855
0.00447573
0.00427276
0.00395913
0.00358866
0.00323279
0.00295327
0.00276298
0.00263146
0.00251753
0.00237633
0.00216735
0.0019079
0.00166604
0.00148317
0.00136523
0.00130496
0.00128997
0.00132557
0.00152078
0.00235779
0.00445772
0.00636733
0.00951874
0.00279562
0.00399486
0.00444107
0.00457121
0.00459314
0.0045803
0.00455529
0.0045095
0.00443413
0.00436231
0.00434859
0.00439489
0.00445344
0.00447633
0.00441464
0.00421542
0.00387286
0.00346989
0.00311705
0.00286259
0.00268161
0.0025237
0.00233604
0.00208317
0.00180705
0.00158379
0.00144146
0.00137493
0.00136536
0.00138205
0.00148129
0.00229254
0.00456315
0.00658055
0.00994439
0.00493307
0.00498413
0.00471494
0.00441807
0.00414364
0.00401185
0.00401883
0.00409067
0.00415009
0.00416844
0.00416003
0.00415067
0.00414985
0.00414962
0.00413376
0.00406867
0.00389581
0.00360581
0.00328378
0.00301513
0.00281314
0.00264081
0.00245108
0.00219858
0.00188507
0.00158319
0.00134952
0.00119701
0.00113766
0.00118327
0.00140647
0.00243219
0.00485664
0.00693642
0.010419
0.00589311
0.00495051
0.0043592
0.00381577
0.00363368
0.00374426
0.00392306
0.00406532
0.0041556
0.00420078
0.00420436
0.00416975
0.00410386
0.00401396
0.00390131
0.00375935
0.0035828
0.00338484
0.00319516
0.00303031
0.00288094
0.00272526
0.00253403
0.0022735
0.00193679
0.0015836
0.00127943
0.0010462
0.000903067
0.000912164
0.00125518
0.00254821
0.00514905
0.00728603
0.0107851
0.00330553
0.00370144
0.00372189
0.0036572
0.00368493
0.00372144
0.00378432
0.00386853
0.00394556
0.0039991
0.0040175
0.00399308
0.00392452
0.00382155
0.00370587
0.00359711
0.00349631
0.00339219
0.00327738
0.00315155
0.00301482
0.00286085
0.00267693
0.00245038
0.00218701
0.00192213
0.00167455
0.00141988
0.00115118
0.000965923
0.00125278
0.00278342
0.00548366
0.0076025
0.0109401
0.00316111
0.00478742
0.00490849
0.0047255
0.00434461
0.00385361
0.00356544
0.00357576
0.0036822
0.00377455
0.00383328
0.00386172
0.00386707
0.003854
0.00382203
0.0037676
0.00368709
0.00357998
0.00344811
0.00329111
0.00310333
0.00287265
0.00258366
0.0022245
0.00182149
0.00146232
0.00124289
0.0011935
0.00119746
0.00110503
0.00124364
0.00284896
0.00567935
0.00777546
0.0109272
0.00507204
0.00508945
0.00462567
0.00413818
0.00385025
0.00352746
0.00317802
0.00321997
0.00345143
0.0036235
0.00373413
0.00381744
0.00388278
0.00392711
0.00394952
0.00394938
0.00392542
0.00387474
0.00379402
0.00367923
0.00352226
0.00330809
0.00301247
0.00260386
0.00207807
0.00148118
0.000881951
0.000415584
0.000298057
0.000618908
0.000981167
0.00248921
0.00554957
0.00774071
0.0109175
0.00620711
0.00465233
0.00354462
0.00271164
0.00290874
0.0031289
0.00322667
0.00339337
0.00352536
0.00361382
0.00369169
0.00376166
0.00382291
0.00387454
0.00391581
0.00394589
0.00396362
0.00396699
0.00395263
0.00391565
0.00384901
0.00374237
0.00357948
0.00333746
0.00298501
0.00249635
0.0018899
0.00120756
0.00048479
7.96971e-05
0.000525299
0.00201793
0.00523597
0.00764547
0.0112096
0.00460065
0.0039972
0.00342593
0.00319559
0.00338262
0.00337867
0.00339141
0.00342519
0.00348873
0.00356813
0.003649
0.00372167
0.00378166
0.00382768
0.00386108
0.00388284
0.00389388
0.00389475
0.00388528
0.00386434
0.00382916
0.00377435
0.00369055
0.0035633
0.00337277
0.00309187
0.00268892
0.0021504
0.00144603
0.000497941
0.000535332
0.0019569
0.00525927
0.00789549
0.0119226
0.00298718
0.00462843
0.00490648
0.00482343
0.00450511
0.00412444
0.00374174
0.00342425
0.00322445
0.00316687
0.00323118
0.00336432
0.00351087
0.00363719
0.00373052
0.00378946
0.00381741
0.00381841
0.00379533
0.00374967
0.00368131
0.00358892
0.00347054
0.00332292
0.00314119
0.00291382
0.00261583
0.00222639
0.00168889
0.000863504
0.00102123
0.00274352
0.00582423
0.00842816
0.0125064
0.00232331
0.00482491
0.00551818
0.00572707
0.00574213
0.00558328
0.00521916
0.00467043
0.0040243
0.00339819
0.00292012
0.00268818
0.00272
0.00292914
0.00318797
0.00341587
0.00358469
0.00369002
0.00373667
0.00373099
0.00367654
0.00357258
0.00341396
0.0031928
0.00290441
0.00255227
0.00215734
0.00173783
0.00126211
0.000732512
0.00124369
0.003712
0.00647009
0.00880512
0.0125499
0.00227565
0.00408301
0.00490291
0.00533995
0.00561766
0.0058015
0.00588992
0.00584047
0.00557877
0.0050613
0.00434518
0.00355368
0.00285021
0.0024163
0.00235951
0.00259769
0.00292789
0.00322229
0.00344468
0.00358556
0.00364637
0.00363063
0.00353669
0.00335564
0.00307196
0.00266782
0.00216074
0.00158218
0.000914091
0.000257072
0.000722371
0.00404675
0.00678652
0.00891401
0.0123969
0.00277841
0.00450859
0.00526489
0.00556712
0.00565779
0.00564157
0.00557592
0.00551966
0.00552816
0.00558408
0.00557435
0.00534199
0.00477731
0.00392896
0.00301408
0.00235707
0.00220623
0.00245031
0.002799
0.00310766
0.0033359
0.00347048
0.00351132
0.00345705
0.00329796
0.00301614
0.00259234
0.0020374
0.00134761
0.000430325
4.01134e-05
0.00311073
0.0064051
0.00875185
0.0125705
0.00373025
0.0057427
0.00635866
0.00648634
0.00642035
0.00623203
0.0059394
0.00558281
0.00523192
0.00495281
0.00488726
0.00511568
0.00540715
0.00543476
0.00499868
0.00409612
0.00303862
0.00235057
0.00229275
0.00255154
0.00285103
0.00310865
0.00328517
0.00336291
0.00333588
0.00319413
0.0029171
0.00249554
0.00193257
0.00107008
5.03889e-05
0.00200091
0.00584162
0.00864646
0.0131908
0.00578969
0.00656771
0.00644901
0.00619684
0.00588937
0.0054937
0.00508236
0.00488559
0.00496935
0.00500273
0.00482956
0.00473018
0.00490919
0.00515205
0.00525248
0.00510747
0.00450259
0.00344674
0.00261994
0.0024633
0.00263502
0.00283838
0.00302213
0.00316033
0.00322257
0.00319364
0.00305377
0.00277804
0.00236439
0.00169655
0.000491272
0.00159415
0.00559914
0.00878896
0.013983
0.00823929
0.00705869
0.00637169
0.00585049
0.00521505
0.00438351
0.0037379
0.00380031
0.00450331
0.00512471
0.00538385
0.00540529
0.00536457
0.00535783
0.00534435
0.00527055
0.00504241
0.00439771
0.00338984
0.00279316
0.0027278
0.00282592
0.00294203
0.0030517
0.00312211
0.0031298
0.00305414
0.00286789
0.00255234
0.00199624
0.000895432
0.00191872
0.00588952
0.00924904
0.014687
0.00839956
0.00666841
0.0061481
0.00561864
0.00473806
0.00373362
0.00353406
0.00419471
0.00492547
0.00536844
0.00561243
0.00574111
0.00576708
0.00571251
0.0056103
0.0054601
0.00521447
0.00473552
0.00391672
0.00329785
0.00314198
0.00314665
0.00318371
0.00322342
0.00324387
0.00322479
0.00314628
0.00298534
0.00270809
0.00219584
0.00135519
0.002761
0.00652408
0.00979725
0.0150205
0.0071961
0.00628985
0.00599237
0.0054439
0.00447033
0.00350068
0.00345627
0.00410474
0.00458172
0.00490715
0.00515048
0.00531461
0.00539173
0.00535934
0.00518253
0.00482936
0.00435263
0.00396064
0.00375391
0.00364177
0.00358815
0.00356535
0.00355332
0.00353641
0.00350104
0.00343418
0.0033216
0.00314403
0.00286182
0.00238687
0.00190343
0.00366851
0.00715866
0.0101945
0.0149575
0.00613905
0.00649281
0.0065465
0.0063307
0.00578982
0.00478863
0.00368369
0.00331973
0.00347914
0.00370939
0.00392364
0.00408202
0.00419947
0.00429304
0.00434973
0.00435906
0.00431984
0.00425115
0.00418834
0.004141
0.00410168
0.00406155
0.00401316
0.00394964
0.00386391
0.00374772
0.00359048
0.00337357
0.00305745
0.00262027
0.00254619
0.00458226
0.00768259
0.0103821
0.0144898
0.0050136
0.00626838
0.00667518
0.00688621
0.00697664
0.00677874
0.00594334
0.00467804
0.00371998
0.00318513
0.00301195
0.00311682
0.00341017
0.00375453
0.00402945
0.00421374
0.00432784
0.00439732
0.00443837
0.00445841
0.00446011
0.00444293
0.00440438
0.00434066
0.00424676
0.00411629
0.00394005
0.00370025
0.003355
0.00290098
0.00294113
0.00528769
0.00799924
0.0103259
0.0137243
0.00458549
0.00584383
0.00622096
0.00636692
0.00649397
0.00671238
0.00703806
0.00720187
0.00670432
0.00562447
0.0043248
0.00297265
0.00199549
0.00204266
0.00265578
0.00325245
0.00369936
0.0040172
0.00424042
0.00439618
0.00450197
0.00456734
0.00459829
0.00459439
0.00455187
0.00446429
0.00432324
0.00411463
0.00380388
0.00335247
0.00312252
0.00519287
0.00793883
0.0101222
0.0131955
0.00585193
0.0065612
0.00668466
0.0066268
0.00645881
0.00615151
0.00575226
0.00563395
0.00595328
0.00619153
0.00594426
0.00485577
0.00275703
0.00119586
0.00144947
0.0022984
0.00300961
0.00349551
0.00383673
0.00410041
0.00430929
0.00446897
0.00458355
0.00465936
0.00469614
0.00468548
0.00461811
0.00448261
0.00425476
0.00388518
0.00344353
0.00454635
0.00753894
0.00984198
0.0132047
0.00701
0.00681142
0.00670164
0.00664814
0.00659869
0.00650079
0.00623171
0.00563613
0.00500623
0.00472911
0.00465379
0.00448051
0.00353251
0.00135102
0.00114891
0.00204486
0.00271459
0.00314594
0.00348758
0.0037961
0.00406318
0.00428612
0.00446253
0.00460093
0.00470646
0.0047714
0.00478579
0.00473829
0.00461253
0.00436561
0.00390403
0.00413679
0.00709158
0.00965643
0.0137054
0.00716649
0.00663776
0.00649713
0.00642093
0.00634233
0.00626068
0.00621228
0.00616419
0.00591181
0.00539969
0.00484732
0.00435598
0.0037803
0.00216941
0.000920492
0.0016681
0.00244291
0.00293501
0.00329116
0.00359988
0.00388179
0.00412785
0.00433814
0.00451726
0.00466547
0.00477849
0.0048486
0.00486559
0.00481417
0.00465684
0.00428179
0.00430798
0.00712574
0.00996938
0.0146992
0.00692381
0.00653694
0.00652209
0.00651671
0.00645314
0.00629026
0.00601915
0.00573214
0.00553525
0.00535786
0.00505325
0.00453117
0.00376827
0.0026751
0.000787773
0.00124148
0.00215968
0.00271881
0.00310225
0.0034272
0.00372671
0.00399177
0.00422223
0.00442288
0.00459467
0.00473473
0.00483713
0.00489381
0.0048922
0.00481504
0.0046619
0.00508537
0.00785428
0.0108006
0.0158239
0.00634455
0.00638091
0.00655134
0.00666479
0.00672631
0.00671934
0.00660773
0.00632908
0.00588059
0.00541882
0.00508536
0.0048171
0.00441529
0.00363906
0.00188296
0.000315044
0.00118202
0.00214927
0.0027295
0.00313905
0.00348477
0.00379047
0.00405354
0.00428138
0.00447895
0.00464201
0.00476287
0.00483347
0.00485111
0.00490291
0.00519911
0.00627281
0.00887664
0.011624
0.016358
0.00578667
0.00637914
0.00664541
0.00676353
0.00681364
0.00680917
0.00674607
0.00660372
0.00631102
0.0057985
0.00523626
0.00483506
0.00451639
0.00408265
0.00323077
0.00123749
0.000535625
0.000994461
0.0019545
0.00260946
0.00307755
0.00346034
0.00379074
0.00408214
0.00434007
0.00455409
0.00471242
0.00480607
0.0048559
0.00510835
0.00597313
0.00751043
0.00968225
0.0119526
0.0159456
0.00613121
0.00667897
0.00685241
0.00690835
0.00691059
0.00686126
0.00674696
0.00655258
0.00626108
0.00582263
0.00528987
0.00491142
0.00468385
0.00442096
0.00393114
0.00271661
0.000874782
0.00033016
0.000565386
0.00159968
0.0023653
0.00293135
0.00340004
0.00379907
0.00414125
0.00442207
0.00462953
0.00475518
0.00483712
0.00522311
0.00656965
0.00836972
0.01007
0.0118224
0.0150787
0.00677156
0.00684277
0.00684942
0.00683153
0.00678293
0.00668395
0.00651151
0.00624644
0.00588528
0.0054274
0.00492172
0.00457125
0.00440619
0.00424869
0.003947
0.00329406
0.00176633
0.000423666
0.000283175
0.000362334
0.00145146
0.00232223
0.00297447
0.00351716
0.00397784
0.00435307
0.00463384
0.00481217
0.00491695
0.00526495
0.00672915
0.00875096
0.010159
0.0115542
0.0143933
0.00747953
0.00707611
0.00697817
0.00692312
0.00683921
0.00667884
0.00639587
0.00595895
0.00541186
0.00491069
0.00460258
0.00447375
0.0044001
0.00426607
0.00399507
0.00347274
0.00245955
0.000941944
7.55302e-05
0.000260485
0.00069957
0.00166424
0.00250059
0.0031757
0.00374821
0.00422466
0.0045951
0.00485307
0.00500924
0.00525745
0.00643279
0.00861096
0.00998136
0.0112908
0.0141941
0.00752612
0.00694165
0.00688093
0.00686913
0.00681977
0.00667538
0.00637075
0.00584244
0.00509982
0.00435884
0.00398067
0.00396915
0.00400798
0.00393944
0.00370952
0.00323574
0.00240401
0.00123172
0.000303815
5.62994e-05
0.000288734
0.00131306
0.00228805
0.00305994
0.00369858
0.00423716
0.00466839
0.00498938
0.00519683
0.0053814
0.00614562
0.00818716
0.00968827
0.011143
0.0143629
0.00716246
0.00684379
0.00687776
0.00690763
0.00689372
0.00679716
0.00656214
0.00612092
0.00542356
0.00453762
0.00382712
0.00361215
0.00362238
0.00357909
0.00338326
0.00296648
0.00227818
0.00137406
0.000591351
0.000281389
0.000402403
0.00119723
0.00217767
0.00301627
0.00371392
0.00430261
0.0047841
0.00516087
0.00542529
0.00560859
0.00609485
0.00779512
0.00947886
0.011165
0.0146603
0.00696113
0.0068376
0.00687789
0.00689979
0.00688551
0.00680833
0.00662499
0.0062762
0.00568785
0.00479235
0.00375006
0.00312943
0.00301629
0.00300563
0.00288064
0.00256597
0.00206135
0.00146781
0.000970951
0.000695075
0.00065994
0.00120305
0.00218038
0.00308501
0.00383638
0.0044646
0.00498486
0.00540988
0.00573269
0.00595791
0.00634292
0.00774053
0.00949555
0.0113141
0.014871
0.00703307
0.00689696
0.006926
0.00694435
0.00692898
0.0068544
0.00668658
0.00638977
0.00592654
0.00522151
0.00420369
0.00316071
0.00265537
0.0025404
0.00244935
0.00222511
0.00184818
0.00140951
0.00106715
0.000879057
0.000846673
0.00121475
0.00212008
0.00308238
0.00390355
0.00458741
0.00515816
0.00563936
0.00603258
0.00633757
0.00675499
0.00799443
0.00966818
0.0114634
0.0149287
0.00690202
0.00685445
0.00692014
0.00696124
0.00696738
0.00691645
0.00677496
0.00651085
0.00611078
0.00555632
0.0047555
0.0036515
0.00266191
0.00220243
0.00204841
0.0018986
0.00166233
0.00138067
0.0011329
0.000962283
0.000924623
0.00127972
0.00217313
0.00317508
0.00404454
0.00476645
0.00537236
0.00589983
0.00636096
0.00676233
0.00727946
0.00844251
0.00991738
0.0115666
0.0148731
0.00698384
0.00691652
0.00694821
0.00697223
0.00697623
0.00694395
0.00685052
0.0066684
0.00637752
0.00596239
0.00537467
0.00449143
0.00332564
0.00239804
0.00198362
0.00181351
0.00164744
0.0014455
0.00124697
0.00107704
0.000982968
0.0012558
0.00212432
0.00318387
0.00412324
0.00489947
0.00555096
0.00612954
0.00666396
0.00717338
0.00781198
0.00891824
0.0101646
0.0116255
0.0147995
0.00712863
0.00693611
0.00690492
0.00688955
0.00685865
0.00679285
0.00667518
0.00649746
0.00625618
0.00594016
0.00551785
0.00489286
0.0039125
0.00274134
0.00194781
0.00162213
0.00148517
0.0013781
0.00127065
0.00116115
0.00108474
0.00134004
0.00222046
0.00331901
0.00429981
0.00510342
0.0057742
0.00638292
0.00697838
0.00758876
0.00832825
0.00935888
0.0103989
0.0116848
0.014768
0.00751122
0.0070777
0.00696306
0.0069049
0.00684072
0.00674179
0.00659127
0.00638608
0.00613063
0.00582547
0.00545283
0.00495898
0.00422572
0.00318419
0.00220702
0.00166698
0.0014376
0.00131508
0.00121813
0.00112354
0.00105339
0.00131648
0.00227446
0.0034608
0.00450707
0.00534573
0.00602953
0.00664885
0.00727983
0.00796506
0.00876284
0.0097011
0.0105805
0.0117344
0.014812
0.00768051
0.00701303
0.0068336
0.00673992
0.00664453
0.00652098
0.00636651
0.00617287
0.00592397
0.0056097
0.00521688
0.00471521
0.00403823
0.00314179
0.00220825
0.00160775
0.00134588
0.00122738
0.00114552
0.00106664
0.00102847
0.00140019
0.0025271
0.00380357
0.00487859
0.00571356
0.00637619
0.00697361
0.00760089
0.00831665
0.00912563
0.00997053
0.0107358
0.0118134
0.0150298
0.00785992
0.00703786
0.00678894
0.0066412
0.00648961
0.00632281
0.00617154
0.00602215
0.00583166
0.00556978
0.00521141
0.00472307
0.00405265
0.00319344
0.00227727
0.00160725
0.00127872
0.00112502
0.00102415
0.000937772
0.000940729
0.00147477
0.00282393
0.00422526
0.00533075
0.00615328
0.00678096
0.0073305
0.00791963
0.00863974
0.0094568
0.0102389
0.0109365
0.0120036
0.0155086
0.0080121
0.00697034
0.00664218
0.00643406
0.00621285
0.00598543
0.00581774
0.00568546
0.0055208
0.00528355
0.00494612
0.00447595
0.00383482
0.00304055
0.00221436
0.00157115
0.00122197
0.00104016
0.000913819
0.000822598
0.000932097
0.00176575
0.00340717
0.00487846
0.00593409
0.00672064
0.00732888
0.00782797
0.00834171
0.00902341
0.00982961
0.0105623
0.0112311
0.0123418
0.0160398
0.00802043
0.00688384
0.00653594
0.00630261
0.0060403
0.00576957
0.00558781
0.00548161
0.0053655
0.00518192
0.00489296
0.00445997
0.00384679
0.00307655
0.00227501
0.00161883
0.00120792
0.000966053
0.000792616
0.000690383
0.000911936
0.00203207
0.0040418
0.00563074
0.00655801
0.00727858
0.00796026
0.00855345
0.00903881
0.00960692
0.0102933
0.0109258
0.0115511
0.0126372
0.0159142
0.00780852
0.0067228
0.00640613
0.00617895
0.00590066
0.00557703
0.00531641
0.00516039
0.00504151
0.00489059
0.00466089
0.00431139
0.00380364
0.00313531
0.00240811
0.00177315
0.00131422
0.00100056
0.000757826
0.000601959
0.000811268
0.00201025
0.00438158
0.00643673
0.00729845
0.00777393
0.0083948
0.00924261
0.0099825
0.0105223
0.0110086
0.0114453
0.0119078
0.0127117
0.0147365
0.00734588
0.00657342
0.00637738
0.00621781
0.00598552
0.00565143
0.00529696
0.00504593
0.00489705
0.00477093
0.00459778
0.00432797
0.00392428
0.00337248
0.00272312
0.00210071
0.00159821
0.00121302
0.000894317
0.000630806
0.000598044
0.00134881
0.00349493
0.00635538
0.0081292
0.00863679
0.00880866
0.00934092
0.0102398
0.0109827
0.0114563
0.0117707
0.0120364
0.0124039
0.0130071
0.00688825
0.00653438
0.00648175
0.0064136
0.0062593
0.00595637
0.00550033
0.00503708
0.00472048
0.00454714
0.00442565
0.00427098
0.00402377
0.00364922
0.00315436
0.00260717
0.00210326
0.00168109
0.00131499
0.000971835
0.000682339
0.000712826
0.00169593
0.00407993
0.00704569
0.00917161
0.00994887
0.0100139
0.0102437
0.01074
0.0111791
0.0114588
0.0116163
0.0116859
0.0114749
0.00646959
0.00646667
0.00655275
0.00659522
0.00657028
0.0064212
0.00607282
0.00552167
0.00494606
0.00453652
0.00431036
0.00417254
0.00402726
0.00381155
0.00349787
0.00310498
0.0026902
0.00230459
0.00195764
0.00162717
0.00128667
0.000964327
0.000880003
0.00156782
0.00348049
0.00629718
0.00902558
0.0106524
0.0110373
0.0110947
0.0111552
0.0112122
0.0112144
0.0111013
0.0107038
0.00623134
0.0064476
0.00659628
0.00669415
0.00675266
0.00673502
0.00657181
0.00617418
0.00553575
0.00485281
0.00435466
0.00408201
0.00393749
0.00381587
0.00365204
0.00342418
0.00314978
0.00286771
0.00260314
0.00235278
0.00209502
0.00180693
0.00149008
0.00125354
0.00143711
0.00251743
0.00470832
0.00762178
0.0100866
0.0110773
0.0113705
0.0114011
0.0113135
0.0111044
0.0110038
0.00621212
0.00643097
0.00655683
0.00665238
0.006743
0.00681296
0.00681397
0.00667115
0.00628299
0.00561246
0.00486
0.00428618
0.00395899
0.00378856
0.00367085
0.00354491
0.00339144
0.00322285
0.00306055
0.00291251
0.00277024
0.00261565
0.00242288
0.00216767
0.00187466
0.00169908
0.00200218
0.003292
0.00591356
0.00859363
0.0100501
0.0107126
0.0109747
0.0111008
0.012347
0.00633697
0.00647676
0.00653264
0.00657906
0.0066373
0.0067092
0.00676312
0.00674345
0.00658527
0.00619692
0.00553361
0.00477355
0.00418582
0.00384495
0.00366721
0.0035593
0.00346813
0.00337841
0.0032975
0.00323434
0.00318844
0.00315256
0.00311145
0.00303201
0.00287154
0.00260513
0.00227579
0.00208341
0.00265891
0.00523363
0.00755936
0.0090699
0.0100241
0.0109588
0.0142365
0.00664893
0.00659739
0.00654566
0.00652654
0.00654151
0.00660376
0.00668692
0.00672701
0.00667066
0.00646869
0.00603979
0.00535622
0.00461731
0.00406537
0.00374201
0.00356932
0.00347434
0.00341552
0.00338096
0.0033723
0.00339125
0.00343949
0.00351393
0.00358888
0.00361021
0.00351108
0.00324008
0.00277726
0.00223775
0.0032023
0.00613456
0.00823129
0.0096843
0.0112782
0.0155124
0.00704443
0.00666591
0.00646516
0.00635873
0.00631519
0.00636274
0.00647079
0.00655087
0.00654399
0.00642263
0.00614769
0.00565082
0.00495919
0.00429318
0.00382374
0.00355004
0.00340749
0.00334129
0.00332393
0.00334702
0.00341009
0.00352282
0.00369942
0.00392808
0.00414862
0.00425591
0.00414962
0.00375791
0.00304602
0.00282083
0.00556269
0.00844935
0.0101663
0.0118607
0.0155618
0.00762163
0.00673425
0.00635276
0.00614765
0.00603749
0.00607531
0.00621933
0.00634054
0.0063663
0.00627627
0.00605257
0.00565502
0.00506402
0.0044019
0.00385437
0.00348882
0.00327556
0.00316798
0.00313393
0.00316001
0.00324748
0.00342747
0.00374668
0.00420652
0.00472139
0.00512521
0.00526336
0.00506984
0.00453041
0.00386188
0.00481582
0.00774638
0.00977636
0.0114768
0.0153658
0.00803823
0.00664813
0.00614907
0.00587312
0.00568423
0.00565799
0.00578441
0.00592549
0.00598473
0.0059291
0.00574186
0.00539628
0.0048766
0.00425904
0.00369612
0.00327533
0.00299608
0.002831
0.00275507
0.00275978
0.00288703
0.00327697
0.0039885
0.00490313
0.00579136
0.00644286
0.00676881
0.00676883
0.00647563
0.00587155
0.00518886
0.00628368
0.00839718
0.0107687
0.016819
0.00821149
0.00662547
0.00616465
0.00589244
0.00562906
0.00543069
0.00539025
0.00546215
0.00552826
0.00550395
0.00534865
0.005038
0.00456477
0.00398549
0.00342026
0.00295509
0.00260763
0.00236984
0.0022348
0.00225514
0.0026761
0.00371223
0.00504968
0.00631979
0.00731386
0.00796757
0.00830779
0.00836223
0.00811712
0.00740021
0.0060872
0.00628369
0.00859796
0.01192
0.0197979
0.00791563
0.00664315
0.00638496
0.00619431
0.00590337
0.00549231
0.00511486
0.00493881
0.00493805
0.0049562
0.0048712
0.00463493
0.0042388
0.00371697
0.0031547
0.00263893
0.0022155
0.00190309
0.00174892
0.00200456
0.0031592
0.00501455
0.00663875
0.00779166
0.00861144
0.00916396
0.00942433
0.00936492
0.00894173
0.00813655
0.00741884
0.00831388
0.0105474
0.0137167
0.020322
0.00753588
0.00687257
0.00685661
0.00679374
0.00658133
0.00613763
0.00546591
0.0048165
0.00448671
0.00444715
0.0044398
0.00431211
0.00402816
0.00360083
0.0030728
0.00251801
0.00201194
0.0016119
0.00143761
0.00188515
0.00357459
0.00614677
0.0079383
0.0087465
0.0092648
0.00972254
0.0100292
0.0100029
0.00965161
0.00925767
0.00937312
0.0104575
0.0119991
0.0140383
0.016918
0.00713139
0.00694214
0.00709628
0.00717635
0.00713936
0.00689703
0.00630281
0.00532714
0.00439689
0.00401248
0.00401124
0.00401165
0.00387451
0.00358548
0.00315989
0.00263764
0.00209341
0.00160721
0.00128842
0.00147378
0.00286291
0.00572004
0.00843906
0.00957506
0.00980937
0.00991349
0.0101595
0.0104214
0.0105009
0.0105618
0.0109165
0.0115949
0.0123519
0.0131218
0.013028
0.00704445
0.00694618
0.00710561
0.00723807
0.0073277
0.00731276
0.0070631
0.00632746
0.00504002
0.00396974
0.00368128
0.00372714
0.00372783
0.00359732
0.00332991
0.00293447
0.00244716
0.00194217
0.00150408
0.00127978
0.00170822
0.00349463
0.0065206
0.009218
0.0104839
0.0106383
0.0104963
0.0105594
0.010836
0.0111655
0.0115208
0.0118589
0.0120886
0.0120502
0.0109073
0.00711463
0.00687597
0.00692767
0.00699987
0.0070736
0.00712456
0.00708847
0.00680965
0.0059282
0.00448953
0.00363093
0.00351802
0.00358244
0.00357937
0.00346837
0.00324334
0.00290726
0.00249256
0.00206341
0.00168615
0.00148343
0.00183442
0.00330682
0.00590186
0.0086878
0.0106085
0.0112522
0.011191
0.0111391
0.011271
0.0114671
0.011599
0.0115829
0.0112738
0.0103252
0.0074532
0.00704406
0.00699725
0.00699363
0.00698303
0.00694213
0.00684526
0.0066468
0.00618555
0.00512331
0.00395233
0.00353022
0.00353202
0.00357692
0.00356179
0.00346632
0.00328154
0.0030124
0.00269224
0.00236906
0.00207542
0.0018769
0.00200854
0.00289261
0.00478027
0.00736635
0.00980703
0.011206
0.0115534
0.0115553
0.0115202
0.0114547
0.0113049
0.0109805
0.0106473
0.00767478
0.00708581
0.0070023
0.00699406
0.00697988
0.00690739
0.00672153
0.00639501
0.00591818
0.0051943
0.00425904
0.00372595
0.0036342
0.00366497
0.00368263
0.00365398
0.00356832
0.00342072
0.00322118
0.00299994
0.00278468
0.0025823
0.0024084
0.00237851