/*--------------------------------*- C++ -*----------------------------------*\
| =========                 |                                                 |
| \\      /  F ield         | OpenFOAM: The Open Source CFD Toolbox           |
|  \\    /   O peration     | Version:  v2006                                 |
|   \\  /    A nd           | Website:  www.openfoam.com                      |
|    \\/     M anipulation  |                                                 |
\*---------------------------------------------------------------------------*/
FoamFile
{
    version     2.0;
    format      ascii;
    class       volScalarField;
    location    "31";
    object      nut;
}
// * * * * * * * * * * * * * * * * * * * * * * * * * * * * * * * * * * * * * //

dimensions      [0 2 -1 0 0 0 0];


internalField   nonuniform List<scalar> 
78750
(
0.000818387
0.00178542
0.00122085
0.000438587
7.666e-05
2.97447e-06
2.93397e-05
1.34925e-05
2.69492e-05
1.81602e-05
2.96667e-05
2.15534e-05
3.11651e-05
2.71107e-05
3.15931e-05
3.16433e-05
3.33057e-05
3.45144e-05
3.56411e-05
3.67635e-05
3.77951e-05
3.87639e-05
3.96435e-05
4.05036e-05
4.13252e-05
4.19444e-05
4.23429e-05
4.2521e-05
4.2232e-05
4.10627e-05
3.8316e-05
3.33951e-05
2.60698e-05
8.47788e-06
3.384e-07
0.000110107
9.28791e-05
4.48295e-05
2.7972e-07
2.49652e-05
2.7962e-05
3.21676e-05
4.30895e-05
4.743e-05
5.67978e-05
6.18727e-05
6.83694e-05
7.24748e-05
7.63442e-05
7.92787e-05
8.16557e-05
8.36109e-05
8.51096e-05
8.63333e-05
8.73539e-05
8.82473e-05
8.90553e-05
8.97873e-05
9.04344e-05
9.10735e-05
9.17198e-05
9.1973e-05
9.13429e-05
8.92398e-05
8.49139e-05
7.75968e-05
6.55291e-05
4.18907e-05
1.22836e-05
1.674e-06
4.11055e-06
2.15889e-05
3.24428e-05
3.46139e-05
3.93699e-05
6.01731e-05
7.26435e-05
8.13646e-05
8.81733e-05
9.27649e-05
9.58525e-05
9.79781e-05
9.96195e-05
0.000101024
0.000102
0.000102459
0.000102796
0.000103313
0.000104013
0.000104877
0.000105898
0.000107063
0.000108346
0.000109704
0.000111044
0.000112172
0.000112728
0.000112124
0.000109408
0.000102933
8.9412e-05
6.35938e-05
2.95809e-05
1.19379e-05
3.5404e-06
1.60275e-06
2.67084e-05
4.452e-05
8.70474e-05
0.000120476
9.79314e-05
8.543e-05
9.11598e-05
0.000103561
0.000113736
0.000120445
0.000126039
0.000131548
0.000136721
0.000141365
0.000145576
0.000149446
0.000152862
0.000155714
0.000157949
0.000159523
0.000160389
0.00016053
0.000159854
0.000158052
0.000154632
0.000148972
0.000140371
0.000128082
0.000111129
8.77712e-05
5.69319e-05
2.73204e-05
1.4565e-05
4.9311e-06
1.8241e-06
7.93228e-05
7.50346e-05
7.36544e-05
7.97061e-05
9.28897e-05
0.000113477
0.000143185
0.000177103
0.000177953
0.000178801
0.000179647
0.000180496
0.000181363
0.000182261
0.000183204
0.000184202
0.000185266
0.000186405
0.000187628
0.00018894
0.000190349
0.000191852
0.000186869
0.000179292
0.000172545
0.000164405
0.000153276
0.000137806
0.000115793
8.44802e-05
4.67516e-05
2.04363e-05
1.41473e-05
6.22627e-06
1.10333e-06
5.73235e-05
7.75873e-05
7.98344e-05
8.40208e-05
9.82935e-05
0.000122265
0.00013522
0.000120642
0.000101021
9.22569e-05
9.26759e-05
9.71438e-05
0.000102636
0.00010847
0.000114622
0.000120828
0.000126911
0.000133721
0.000143036
0.00015516
0.000166478
0.000171568
0.000167803
0.000156848
0.000142192
0.00012625
0.000109835
9.27702e-05
7.44146e-05
5.43574e-05
3.44227e-05
2.07849e-05
2.02562e-05
7.26426e-06
4.64577e-07
2.05402e-05
3.15584e-05
3.72375e-05
4.05696e-05
4.35993e-05
4.65611e-05
4.90447e-05
5.06802e-05
5.16587e-05
5.29683e-05
5.61145e-05
6.25728e-05
7.29813e-05
8.44183e-05
8.8077e-05
8.00958e-05
6.89767e-05
6.06386e-05
5.70478e-05
5.97643e-05
7.00418e-05
8.78719e-05
0.000109467
0.000126597
0.000133921
0.000132537
0.000124244
0.000109206
8.65829e-05
5.68579e-05
2.91243e-05
1.61068e-05
1.85291e-05
7.84994e-06
1.34669e-06
2.46836e-05
3.25882e-05
3.56922e-05
3.77243e-05
3.91112e-05
4.0022e-05
4.04924e-05
4.04425e-05
3.97723e-05
3.84212e-05
3.63443e-05
3.35476e-05
3.02652e-05
2.70234e-05
2.46251e-05
2.37919e-05
2.41668e-05
2.43805e-05
2.39467e-05
2.639e-05
3.40513e-05
4.47568e-05
5.58966e-05
6.7882e-05
7.82025e-05
8.18035e-05
7.67925e-05
6.60182e-05
5.24528e-05
3.75683e-05
2.39587e-05
1.75468e-05
2.7073e-05
8.64928e-06
1.09788e-06
1.46608e-05
2.93684e-05
4.58245e-05
5.97601e-05
6.92241e-05
7.48967e-05
7.7644e-05
7.7907e-05
7.59957e-05
7.2407e-05
6.74812e-05
6.09915e-05
5.30255e-05
4.48258e-05
3.77864e-05
3.28356e-05
3.01598e-05
2.95989e-05
3.16721e-05
3.61765e-05
3.92241e-05
3.79643e-05
3.58077e-05
3.48661e-05
3.53295e-05
4.06727e-05
5.65554e-05
7.64301e-05
6.3352e-05
3.4435e-05
1.89987e-05
1.57409e-05
2.93835e-05
9.00338e-06
1.73506e-06
1.3054e-05
3.15034e-05
5.79318e-05
8.2575e-05
9.74376e-05
0.000103116
0.000101213
9.24319e-05
7.98005e-05
6.96645e-05
6.48183e-05
6.18241e-05
5.53751e-05
4.59272e-05
3.82725e-05
3.47951e-05
3.58178e-05
4.12693e-05
5.14176e-05
6.72275e-05
8.65881e-05
9.74938e-05
9.19459e-05
7.88264e-05
6.55534e-05
5.6087e-05
5.40195e-05
5.96424e-05
5.97502e-05
3.52717e-05
1.69383e-05
1.41041e-05
3.09623e-05
9.53044e-06
3.20052e-06
1.49297e-05
3.90724e-05
7.36344e-05
9.90227e-05
0.00010735
0.000101571
8.61655e-05
6.7581e-05
5.24605e-05
4.55941e-05
4.75019e-05
5.38736e-05
5.36079e-05
4.4243e-05
3.67623e-05
3.52096e-05
3.82552e-05
4.28113e-05
4.61825e-05
4.82784e-05
5.102e-05
5.68488e-05
6.78439e-05
8.27315e-05
9.30031e-05
9.20795e-05
8.84315e-05
8.75818e-05
6.80535e-05
2.9734e-05
1.55127e-05
1.63035e-05
4.32092e-05
1.01504e-05
4.83471e-06
2.16262e-05
6.608e-05
0.000108947
0.000114315
9.95152e-05
7.62512e-05
5.72442e-05
4.54392e-05
3.95342e-05
4.11624e-05
5.48642e-05
8.27746e-05
9.74909e-05
7.22388e-05
4.84565e-05
4.00514e-05
4.26686e-05
4.94096e-05
4.89095e-05
4.29727e-05
4.01426e-05
4.41267e-05
5.69775e-05
7.76459e-05
9.62159e-05
0.000104752
0.000105003
9.60845e-05
6.75437e-05
2.72971e-05
1.21676e-05
1.40432e-05
4.65847e-05
1.02423e-05
6.05076e-06
3.30204e-05
0.000101667
0.000113265
9.64389e-05
6.86089e-05
4.78191e-05
3.88462e-05
3.80157e-05
4.27957e-05
5.51608e-05
7.84702e-05
0.000102253
0.000103724
8.2446e-05
5.74337e-05
4.23212e-05
3.81019e-05
4.2714e-05
4.97654e-05
4.81221e-05
4.2346e-05
4.14018e-05
4.80445e-05
6.15669e-05
7.61131e-05
8.40999e-05
8.24644e-05
6.85126e-05
4.1996e-05
1.96337e-05
1.22942e-05
1.76785e-05
6.74419e-05
1.02965e-05
6.14549e-06
3.63626e-05
8.92416e-05
0.000106154
9.62438e-05
7.03276e-05
5.15638e-05
4.57245e-05
4.96905e-05
5.86741e-05
6.72122e-05
7.47003e-05
8.25148e-05
8.81372e-05
8.6215e-05
7.45056e-05
5.79191e-05
4.45223e-05
3.79678e-05
3.8214e-05
4.3189e-05
4.68586e-05
4.65364e-05
4.79478e-05
5.55882e-05
6.87987e-05
8.03782e-05
8.23017e-05
7.02228e-05
4.20151e-05
1.67298e-05
9.75116e-06
1.63851e-05
7.43719e-05
1.02023e-05
5.21362e-06
2.81347e-05
7.74e-05
0.000114388
0.000124064
0.000113143
8.62677e-05
6.03799e-05
4.56497e-05
3.99123e-05
3.98065e-05
4.37623e-05
5.16679e-05
6.34989e-05
7.66693e-05
8.50556e-05
8.28297e-05
6.87559e-05
5.10546e-05
3.93794e-05
3.58728e-05
3.98865e-05
4.75514e-05
4.96674e-05
4.76093e-05
4.83724e-05
5.32049e-05
5.7872e-05
5.39234e-05
3.38382e-05
1.45008e-05
1.05076e-05
2.03828e-05
9.36747e-05
1.01406e-05
4.41406e-06
2.13039e-05
6.02338e-05
0.000112157
0.0001345
0.000131989
0.000122333
0.000109893
8.93228e-05
6.70628e-05
5.28728e-05
4.58543e-05
4.30375e-05
4.36681e-05
4.85538e-05
5.90439e-05
7.46167e-05
8.90798e-05
9.21057e-05
7.70598e-05
5.53699e-05
4.20339e-05
3.88439e-05
4.41822e-05
5.29052e-05
5.46656e-05
5.15087e-05
4.96322e-05
4.735e-05
3.50729e-05
1.42233e-05
9.04314e-06
1.88918e-05
9.40297e-05
1.01017e-05
4.76612e-06
2.12265e-05
6.45361e-05
0.000114971
0.000108241
8.15807e-05
6.31991e-05
5.82514e-05
6.69751e-05
8.78992e-05
0.000104551
9.58197e-05
7.49211e-05
5.89069e-05
4.97661e-05
4.66847e-05
5.05817e-05
6.31456e-05
8.19048e-05
9.53083e-05
9.16713e-05
7.13562e-05
5.24615e-05
4.41334e-05
4.34838e-05
4.46409e-05
4.29154e-05
3.95723e-05
3.55786e-05
2.56429e-05
1.20036e-05
9.5566e-06
2.15808e-05
0.000100612
1.01769e-05
5.23754e-06
2.2932e-05
7.48169e-05
0.000125415
0.000100104
8.12456e-05
7.47354e-05
7.1606e-05
6.60819e-05
6.28746e-05
6.9486e-05
8.81626e-05
0.000108514
0.000106395
8.1498e-05
5.89989e-05
4.80555e-05
4.79323e-05
5.91695e-05
8.17647e-05
0.000102151
9.69121e-05
7.21594e-05
5.32236e-05
4.68952e-05
4.91124e-05
5.16055e-05
4.84704e-05
4.19457e-05
2.8126e-05
1.09828e-05
8.66857e-06
2.12808e-05
0.000102385
1.03125e-05
7.42054e-06
5.24551e-05
0.00012345
6.19512e-05
4.18998e-05
3.96081e-05
4.71194e-05
6.44399e-05
8.7904e-05
0.000106666
0.000117184
0.000125022
0.000133576
0.000135661
0.000119156
8.69409e-05
6.22375e-05
5.32408e-05
5.80433e-05
7.59567e-05
9.95362e-05
0.000105791
8.60653e-05
6.18776e-05
4.77369e-05
4.27536e-05
4.11662e-05
3.73964e-05
3.1265e-05
2.13469e-05
9.82877e-06
9.22299e-06
2.3869e-05
0.000105374
1.05215e-05
8.28415e-06
9.12792e-05
4.65817e-05
2.78757e-05
3.05723e-05
5.0778e-05
8.78893e-05
0.000126892
0.000149589
0.000156014
0.000151626
0.000139898
0.000124303
0.000107268
9.00507e-05
7.55762e-05
6.78038e-05
6.90363e-05
7.88515e-05
9.24565e-05
0.000100817
9.65048e-05
8.00441e-05
6.09603e-05
4.77403e-05
4.11499e-05
3.72015e-05
3.09834e-05
2.21427e-05
1.32072e-05
7.60069e-06
9.37961e-06
2.64758e-05
0.000104917
1.07267e-05
6.39042e-06
6.21491e-05
5.26427e-05
4.12725e-05
4.89998e-05
6.60236e-05
9.47834e-05
0.000126656
0.000138101
0.000134002
0.000124358
0.000113406
0.000103757
9.87188e-05
0.000100818
0.000108207
0.000113404
0.000111599
0.000107101
0.000103707
9.94689e-05
9.06817e-05
7.72605e-05
6.37811e-05
5.47988e-05
5.07936e-05
4.77828e-05
4.0069e-05
2.60139e-05
1.17807e-05
6.63058e-06
1.00203e-05
3.01215e-05
0.000100274
1.08517e-05
5.87485e-06
3.19433e-05
9.63255e-05
8.72482e-05
4.23583e-05
2.59093e-05
2.62423e-05
4.04902e-05
6.74379e-05
9.45655e-05
0.000115873
0.000137725
0.000163858
0.000187358
0.00019435
0.000182578
0.000164974
0.000151352
0.000141859
0.000131691
0.000116655
9.62647e-05
7.38059e-05
5.41029e-05
4.05696e-05
3.3545e-05
3.10317e-05
3.03753e-05
2.66131e-05
1.383e-05
6.33505e-06
9.99402e-06
3.18404e-05
9.55852e-05
1.08573e-05
7.53064e-06
4.64968e-05
9.13115e-05
5.2404e-05
3.52288e-05
2.25917e-05
1.86158e-05
2.80518e-05
6.84269e-05
0.000163127
0.000231449
0.00023415
0.000236258
0.000237685
0.000238412
0.000238425
0.000232231
0.000213238
0.000198279
0.000182374
0.000161082
0.000133705
0.000102775
7.31614e-05
4.95154e-05
3.26962e-05
1.97506e-05
9.16089e-06
5.33803e-06
7.50755e-06
5.23738e-06
8.54322e-06
2.88764e-05
9.71865e-05
1.08197e-05
8.32767e-06
8.20921e-05
2.61191e-05
1.79944e-05
2.73776e-05
3.51017e-05
4.28248e-05
6.88623e-05
0.000113695
0.000134531
0.000149791
0.000164419
0.000176945
0.000185607
0.000189983
0.000190431
0.000187632
0.000182605
0.000176523
0.000169842
0.000161751
0.000150388
0.000133868
0.000112254
8.81084e-05
6.50124e-05
4.50622e-05
2.68127e-05
8.64689e-06
8.31522e-07
2.64671e-06
6.72957e-06
2.51247e-05
0.000100772
1.08655e-05
7.61198e-06
5.66208e-05
3.15824e-05
4.40136e-05
6.89843e-05
5.6593e-05
5.02724e-05
5.25408e-05
6.29452e-05
7.83658e-05
9.52309e-05
0.000110847
0.000124258
0.000135724
0.000145352
0.000152769
0.000157491
0.000159029
0.00015715
0.000152353
0.000145778
0.000138323
0.000130086
0.000120369
0.000108183
9.28909e-05
7.43698e-05
5.24879e-05
2.63468e-05
4.47311e-06
2.37064e-06
6.28664e-06
2.48264e-05
0.000103681
1.11157e-05
6.34046e-06
3.49887e-05
6.8158e-05
7.93005e-05
6.35563e-05
4.53445e-05
3.52041e-05
3.05921e-05
3.03257e-05
3.50579e-05
4.64757e-05
6.60054e-05
9.00406e-05
0.000110555
0.00012628
0.000140263
0.000152863
0.000162313
0.000166638
0.000164381
0.000155412
0.000141818
0.000126801
0.000112658
0.000100172
8.84625e-05
7.48643e-05
5.55983e-05
2.78271e-05
5.8797e-06
3.8123e-06
9.06682e-06
3.18669e-05
0.000100407
1.13499e-05
4.94206e-06
2.12071e-05
5.16832e-05
8.93307e-05
0.000103002
9.17347e-05
6.58321e-05
4.42394e-05
3.09259e-05
2.35812e-05
2.0754e-05
2.25685e-05
3.14496e-05
5.25391e-05
8.60676e-05
0.000114998
0.000134087
0.000150555
0.000164554
0.000173139
0.000174079
0.000165597
0.000148036
0.000125163
0.000101797
8.0746e-05
6.20399e-05
4.2742e-05
1.97459e-05
4.45389e-06
4.06881e-06
1.22557e-05
4.24007e-05
8.90009e-05
1.1339e-05
4.66531e-06
1.97164e-05
5.38258e-05
9.57987e-05
0.000121063
0.000132074
0.000131168
0.000110373
7.44643e-05
4.72321e-05
3.17446e-05
2.30073e-05
1.85255e-05
1.83376e-05
2.52807e-05
4.67141e-05
8.54261e-05
0.000117059
0.000136525
0.000152278
0.000162681
0.000164745
0.000157719
0.000141777
0.000118658
9.20008e-05
6.58622e-05
4.06309e-05
1.5307e-05
1.65655e-06
2.18238e-06
1.25032e-05
4.85759e-05
7.99498e-05
1.11834e-05
5.14594e-06
2.09292e-05
5.06727e-05
8.73688e-05
0.0001088
0.000109804
9.94704e-05
8.82695e-05
8.10852e-05
7.5609e-05
6.74381e-05
5.46582e-05
4.01554e-05
2.82008e-05
2.06386e-05
1.86876e-05
2.63489e-05
5.35642e-05
9.4636e-05
0.000121222
0.000139501
0.000153136
0.000157824
0.000152032
0.000136772
0.000114242
8.7697e-05
5.99473e-05
2.98522e-05
3.75841e-06
1.27125e-07
8.60118e-06
3.78817e-05
8.25053e-05
1.11486e-05
5.77545e-06
2.12673e-05
5.13685e-05
9.27153e-05
0.00011314
0.000106554
8.40369e-05
6.11171e-05
4.66758e-05
4.02733e-05
4.16581e-05
5.29051e-05
7.24269e-05
7.89827e-05
5.63551e-05
3.41078e-05
2.30806e-05
2.30249e-05
4.20915e-05
9.44662e-05
0.000138067
0.000158856
0.000173114
0.000176591
0.000165884
0.000144034
0.000115844
8.60879e-05
5.39357e-05
1.22296e-05
1.80844e-07
5.26985e-06
2.75431e-05
9.11461e-05
1.13408e-05
7.22818e-06
2.64418e-05
7.41142e-05
0.000122569
0.000109317
7.37108e-05
4.93693e-05
4.09876e-05
4.30607e-05
4.5964e-05
4.35537e-05
4.55143e-05
6.29806e-05
0.000101628
0.000133662
9.91323e-05
4.97558e-05
2.87489e-05
2.64359e-05
4.8254e-05
0.00012867
0.00019994
0.000206693
0.00021166
0.00021388
0.000187742
0.000152111
0.000116037
7.8353e-05
2.14424e-05
1.88685e-06
4.10642e-06
2.34475e-05
9.87878e-05
1.16665e-05
8.51131e-06
3.76161e-05
0.000117801
0.000107842
6.10517e-05
3.16859e-05
2.07711e-05
2.19239e-05
3.79365e-05
7.56745e-05
0.000103644
9.70823e-05
9.40941e-05
0.000111669
0.00013834
0.000138375
9.02561e-05
4.74027e-05
3.21338e-05
3.8842e-05
8.21658e-05
0.000173849
0.000203943
0.000207902
0.000210418
0.000188231
0.000156128
0.000121591
8.09864e-05
2.25689e-05
3.31863e-06
4.91353e-06
2.49475e-05
0.000101983
1.20368e-05
8.39125e-06
4.30668e-05
0.000109514
7.45072e-05
3.57397e-05
2.01926e-05
1.95104e-05
3.18212e-05
6.25012e-05
0.00010943
0.000135102
0.000132637
0.000120238
0.00011634
0.000123111
0.000123372
9.67035e-05
5.97776e-05
4.1997e-05
4.89539e-05
9.66222e-05
0.000171901
0.000207863
0.000211186
0.000200458
0.000179419
0.000151441
0.000117571
7.20268e-05
1.99166e-05
4.55419e-06
7.19586e-06
3.10579e-05
9.69781e-05
1.22863e-05
7.73189e-06
4.50661e-05
9.96498e-05
6.35963e-05
3.26199e-05
2.1171e-05
2.55099e-05
4.66779e-05
7.06275e-05
8.65788e-05
9.94693e-05
0.000108181
0.000110435
0.000101909
8.32645e-05
6.57137e-05
6.00474e-05
7.32181e-05
0.000107052
0.000138268
0.000156806
0.000169746
0.000179058
0.000181468
0.000175234
0.000160876
0.00013867
0.00010578
5.76263e-05
1.70485e-05
5.80107e-06
9.88313e-06
4.00023e-05
8.65765e-05
1.23464e-05
7.34206e-06
4.08737e-05
0.000104021
0.000102535
6.47639e-05
3.34641e-05
2.17076e-05
2.34827e-05
3.39202e-05
4.41621e-05
5.09337e-05
5.84905e-05
7.42774e-05
9.90911e-05
0.000118675
0.000121343
0.000114744
0.0001132
0.000122277
0.000137444
0.000153102
0.000166105
0.00017469
0.000177111
0.000171596
0.000156781
0.000130992
9.12511e-05
4.35114e-05
1.46299e-05
7.27425e-06
1.3397e-05
5.27057e-05
7.7453e-05
1.22391e-05
6.96519e-06
3.31406e-05
9.19343e-05
0.000124566
0.000121115
7.82891e-05
4.05926e-05
2.50567e-05
2.0849e-05
2.20707e-05
2.78279e-05
3.92245e-05
5.70376e-05
7.27652e-05
8.11925e-05
9.00884e-05
0.000102451
0.000116911
0.000132658
0.000149401
0.000165624
0.000178994
0.000187279
0.000188649
0.000181622
0.00016489
0.000136502
9.35109e-05
4.38817e-05
1.50101e-05
7.94086e-06
1.6058e-05
6.61546e-05
6.97907e-05
1.19138e-05
6.55019e-06
2.68765e-05
8.11956e-05
0.000125076
0.00012588
0.000120903
0.000115736
9.07261e-05
5.7832e-05
3.78618e-05
2.52096e-05
1.56194e-05
1.1325e-05
1.73182e-05
4.07617e-05
7.47831e-05
0.000103895
0.000131231
0.00015889
0.000184229
0.000203046
0.000212206
0.000211379
0.00020197
0.000186002
0.000165415
0.000140339
0.000106752
6.01001e-05
2.15148e-05
8.79377e-06
1.48916e-05
6.05166e-05
6.88466e-05
1.15939e-05
7.27611e-06
3.06215e-05
9.03599e-05
0.000130974
0.000115909
7.61909e-05
5.01946e-05
4.94479e-05
7.74654e-05
0.000121455
9.79907e-05
4.04652e-05
1.33966e-05
5.60105e-06
1.10473e-05
3.86131e-05
0.000107121
0.000195296
0.000234392
0.000242806
0.000249272
0.000254101
0.000257504
0.000230975
0.000198253
0.000169321
0.000142217
0.000113594
7.68628e-05
3.44798e-05
1.18861e-05
1.27385e-05
4.28488e-05
7.99642e-05
1.15525e-05
8.10153e-06
4.06518e-05
0.000114596
0.000133046
0.000123062
0.000100715
6.93345e-05
4.52995e-05
3.92791e-05
5.3491e-05
9.13253e-05
9.07485e-05
2.59817e-05
6.27141e-06
7.09389e-06
3.01174e-05
0.000107673
0.000211152
0.000223019
0.000233239
0.000241748
0.00024863
0.000250577
0.000217774
0.000185816
0.000158434
0.000134114
0.000110577
8.35088e-05
4.76926e-05
1.72076e-05
1.18527e-05
3.15969e-05
0.000103602
1.17755e-05
8.26132e-06
4.29618e-05
0.000115266
0.000129647
0.000114503
9.43505e-05
8.57933e-05
8.36016e-05
7.06049e-05
5.64053e-05
5.28598e-05
5.37383e-05
3.64534e-05
1.1467e-05
4.72887e-06
1.66874e-05
6.12551e-05
0.000144294
0.000208616
0.000226787
0.000235973
0.00023273
0.000217926
0.000196556
0.000173171
0.000150258
0.000128131
0.000105278
7.88292e-05
4.71922e-05
1.99875e-05
1.25982e-05
2.95539e-05
0.000122536
1.22073e-05
8.13731e-06
4.25027e-05
0.000112045
0.000129572
0.000121503
9.69838e-05
7.03362e-05
5.78338e-05
5.9116e-05
6.64022e-05
6.79688e-05
5.8159e-05
4.05598e-05
1.68713e-05
4.05149e-06
1.01272e-05
4.63793e-05
0.000128264
0.000199854
0.000220926
0.000230913
0.000229313
0.000215547
0.000194933
0.000171643
0.000147729
0.000123028
9.51664e-05
6.30651e-05
3.55443e-05
1.89139e-05
1.5406e-05
3.64767e-05
0.000126279
1.26759e-05
7.75614e-06
3.81218e-05
0.000105679
0.000131082
0.000133226
0.000126691
0.000107767
7.55364e-05
5.10324e-05
4.20721e-05
4.52584e-05
5.6234e-05
5.89319e-05
3.59103e-05
1.09097e-05
1.87659e-06
1.41088e-05
6.45078e-05
0.000153233
0.000210779
0.000222813
0.000232946
0.000226126
0.000203494
0.000176063
0.000146879
0.000114728
7.79297e-05
4.39198e-05
2.54252e-05
1.82819e-05
2.13277e-05
5.46614e-05
0.000111683
1.29251e-05
7.2631e-06
3.25313e-05
9.51065e-05
0.000130135
0.00013209
0.000123137
0.000111021
9.48989e-05
6.9027e-05
4.55096e-05
3.57929e-05
3.81721e-05
4.91091e-05
5.4703e-05
2.87828e-05
7.71512e-06
4.38177e-06
1.71982e-05
7.03664e-05
0.000156148
0.000208579
0.000222009
0.000229756
0.000206138
0.000175355
0.00014114
0.000102523
6.2029e-05
3.24791e-05
2.06941e-05
2.0069e-05
3.16712e-05
8.60853e-05
9.0222e-05
1.27544e-05
7.34015e-06
3.14708e-05
9.45683e-05
0.0001339
0.000132919
0.000118871
0.000101395
8.55685e-05
6.97078e-05
5.07036e-05
3.76544e-05
3.60066e-05
4.49681e-05
5.89457e-05
5.24587e-05
2.25545e-05
6.39373e-06
4.00598e-06
1.2931e-05
5.26136e-05
0.000116057
0.000169655
0.000189044
0.000182523
0.000161618
0.000131589
9.3948e-05
5.48243e-05
2.80245e-05
1.83319e-05
2.1717e-05
4.33754e-05
0.000115406
7.37415e-05
1.23087e-05
7.70323e-06
3.39534e-05
0.000101795
0.000136097
0.000131081
0.000113246
9.15053e-05
7.24036e-05
5.76197e-05
4.49132e-05
3.56066e-05
3.41722e-05
4.25737e-05
5.92526e-05
6.72227e-05
4.0576e-05
1.48826e-05
4.25414e-06
6.17336e-06
1.00712e-05
4.42718e-05
9.6286e-05
0.000137821
0.00015071
0.000142928
0.000122395
9.16992e-05
5.60654e-05
2.8969e-05
1.77681e-05
2.14753e-05
4.8661e-05
0.00012454
6.35633e-05
1.19025e-05
8.10465e-06
3.81123e-05
0.000109798
0.000134292
0.000127142
0.000107837
8.23353e-05
5.89891e-05
4.35588e-05
3.64227e-05
3.58406e-05
4.06159e-05
5.05137e-05
6.29595e-05
6.67373e-05
5.03453e-05
2.59104e-05
9.57632e-06
1.30133e-06
8.48706e-06
1.84423e-05
4.56145e-05
8.09772e-05
0.000107491
0.000116109
0.000109275
8.999e-05
6.12789e-05
3.37744e-05
1.91247e-05
1.97359e-05
4.30437e-05
0.000117918
6.00546e-05
1.17542e-05
8.16095e-06
4.08914e-05
0.000115846
0.000133031
0.000123218
0.000103273
7.92325e-05
5.60051e-05
3.81776e-05
2.89825e-05
2.9462e-05
3.97148e-05
5.56352e-05
6.6539e-05
6.34931e-05
4.75765e-05
2.89222e-05
1.49768e-05
5.78738e-06
2.05409e-06
7.34922e-06
2.75312e-05
5.54375e-05
8.28753e-05
9.87796e-05
0.000100109
8.88548e-05
6.71505e-05
4.10073e-05
2.2772e-05
1.91803e-05
3.61886e-05
0.000105861
6.19277e-05
1.18436e-05
7.95601e-06
3.96452e-05
0.000117079
0.000137328
0.000126292
0.000105171
8.31723e-05
6.33192e-05
4.51259e-05
3.14215e-05
2.63928e-05
3.15131e-05
4.46241e-05
5.62797e-05
5.63852e-05
4.55346e-05
3.16474e-05
2.04198e-05
1.30863e-05
1.01643e-05
1.02279e-05
2.19089e-05
4.11568e-05
6.40759e-05
8.25931e-05
9.00921e-05
8.55285e-05
7.02872e-05
4.75692e-05
2.74997e-05
2.02624e-05
3.23427e-05
9.34848e-05
6.78774e-05
1.20425e-05
7.89194e-06
3.91582e-05
0.000116559
0.000138475
0.000126799
0.000105167
8.45705e-05
6.82795e-05
5.24959e-05
3.58893e-05
2.4764e-05
2.33334e-05
3.14999e-05
4.32919e-05
4.77315e-05
4.28018e-05
3.55066e-05
3.10318e-05
3.08682e-05
2.88021e-05
1.67243e-05
1.9657e-05
3.41394e-05
5.51405e-05
7.48818e-05
8.48817e-05
8.27859e-05
7.0552e-05
5.11254e-05
3.18238e-05
2.29496e-05
3.2878e-05
8.97396e-05
7.45647e-05
1.22158e-05
7.99568e-06
4.00225e-05
0.000116681
0.000138053
0.000126475
0.000104121
8.31682e-05
6.93143e-05
5.9247e-05
4.59491e-05
3.05381e-05
2.19571e-05
2.30714e-05
3.17967e-05
4.03531e-05
4.11024e-05
3.68712e-05
3.47351e-05
3.80028e-05
3.74835e-05
2.21822e-05
1.89749e-05
2.87634e-05
4.65797e-05
6.63033e-05
7.85216e-05
7.84912e-05
6.80128e-05
5.11749e-05
3.43823e-05
2.63399e-05
3.6887e-05
9.51194e-05
7.89533e-05
1.23033e-05
7.96926e-06
3.97056e-05
0.000116984
0.000140555
0.00012865
0.000104983
8.2842e-05
6.87503e-05
6.11947e-05
5.39652e-05
4.05634e-05
2.64357e-05
1.99226e-05
2.18624e-05
2.94572e-05
3.70967e-05
4.15548e-05
4.49492e-05
4.77177e-05
3.97797e-05
2.24501e-05
1.86165e-05
2.68786e-05
4.31321e-05
6.23869e-05
7.48296e-05
7.46322e-05
6.43147e-05
4.95212e-05
3.6063e-05
3.06824e-05
4.44427e-05
0.000107483
7.97769e-05
1.23083e-05
8.03778e-06
3.96577e-05
0.000119113
0.00014353
0.000128621
0.00010317
8.25457e-05
7.11356e-05
6.63448e-05
6.32867e-05
5.49246e-05
3.85119e-05
2.49145e-05
2.00717e-05
2.31281e-05
3.09565e-05
3.93535e-05
4.71278e-05
5.23193e-05
4.35521e-05
2.33518e-05
1.74181e-05
2.41021e-05
3.87777e-05
5.7419e-05
7.04776e-05
7.06764e-05
6.06343e-05
4.75666e-05
3.73688e-05
3.56378e-05
5.43905e-05
0.000121005
7.80154e-05
1.22639e-05
8.11979e-06
3.98481e-05
0.000119429
0.000141468
0.000121667
9.33884e-05
7.41743e-05
6.59605e-05
6.47582e-05
6.6156e-05
6.40678e-05
5.14436e-05
3.31565e-05
2.16494e-05
1.90383e-05
2.41063e-05
3.56634e-05
5.12607e-05
6.17306e-05
4.96855e-05
2.50674e-05
1.74874e-05
2.3394e-05
3.74529e-05
5.58421e-05
6.87856e-05
6.83066e-05
5.78671e-05
4.61473e-05
3.89951e-05
4.14298e-05
6.6228e-05
0.000132208
7.45662e-05
1.22052e-05
8.3137e-06
4.15755e-05
0.000123235
0.000137719
0.000111748
8.30678e-05
6.76406e-05
6.34589e-05
6.53492e-05
6.89117e-05
6.92973e-05
6.0875e-05
4.32583e-05
2.77289e-05
2.06139e-05
2.1434e-05
2.88793e-05
4.13225e-05
5.17003e-05
4.37713e-05
2.23938e-05
1.55937e-05
2.1637e-05
3.55547e-05
5.42027e-05
6.79492e-05
6.76774e-05
5.6911e-05
4.58011e-05
4.08738e-05
4.71999e-05
7.7575e-05
0.00013897
7.12124e-05
1.21605e-05
8.37498e-06
4.30041e-05
0.000127297
0.00013103
9.72353e-05
7.04111e-05
6.03558e-05
6.09203e-05
6.57061e-05
6.96502e-05
6.88454e-05
6.05349e-05
4.54498e-05
3.05551e-05
2.20936e-05
2.13423e-05
2.80025e-05
3.9851e-05
4.69861e-05
3.58386e-05
1.80378e-05
1.41429e-05
2.1565e-05
3.6652e-05
5.63271e-05
7.03408e-05
6.97057e-05
5.84908e-05
4.74161e-05
4.36189e-05
5.25273e-05
8.62571e-05
0.00014245
6.94845e-05
1.21876e-05
8.42104e-06
4.41514e-05
0.000129842
0.00012308
8.41745e-05
6.11174e-05
5.63942e-05
6.23132e-05
7.15205e-05
7.7116e-05
7.49277e-05
6.44222e-05
4.86448e-05
3.36256e-05
2.41979e-05
2.16049e-05
2.56482e-05
3.32649e-05
3.54964e-05
2.47243e-05
1.30747e-05
1.24982e-05
2.14901e-05
3.84765e-05
6.03368e-05
7.52807e-05
7.3935e-05
6.12581e-05
4.93427e-05
4.60661e-05
5.68488e-05
9.26261e-05
0.000144432
6.87499e-05
1.23274e-05
8.47462e-06
4.64862e-05
0.000128937
0.000109615
7.07707e-05
5.25754e-05
5.16991e-05
6.07734e-05
7.20813e-05
7.81228e-05
7.53426e-05
6.45836e-05
4.97906e-05
3.61617e-05
2.73005e-05
2.45019e-05
2.79973e-05
3.30927e-05
2.93639e-05
1.69023e-05
1.00037e-05
1.25546e-05
2.39478e-05
4.44228e-05
6.78162e-05
8.05944e-05
7.71736e-05
6.28909e-05
5.04248e-05
4.8639e-05
6.3295e-05
0.000103632
0.000147953
6.63598e-05
1.25068e-05
8.44757e-06
4.84356e-05
0.000125161
0.000101173
6.57787e-05
5.04654e-05
5.15854e-05
6.30814e-05
7.66885e-05
8.33419e-05
7.94591e-05
6.72761e-05
5.20334e-05
3.87854e-05
3.0167e-05
2.68486e-05
2.84751e-05
3.00902e-05
2.26806e-05
1.16321e-05
8.11555e-06
1.24547e-05
2.61881e-05
5.17998e-05
7.43968e-05
7.75245e-05
7.20302e-05
6.30732e-05
5.47075e-05
5.61401e-05
7.65215e-05
0.00012111
0.000150486
6.12055e-05
1.24576e-05
8.35573e-06
5.00188e-05
0.000120327
9.89771e-05
6.6844e-05
5.03969e-05
4.86443e-05
5.70299e-05
6.9687e-05
7.87421e-05
7.88796e-05
7.01209e-05
5.67951e-05
4.41694e-05
3.56043e-05
3.19528e-05
3.20693e-05
3.06676e-05
2.05059e-05
9.47579e-06
6.73531e-06
1.10553e-05
2.4426e-05
5.43315e-05
8.36546e-05
7.38849e-05
6.1172e-05
5.9651e-05
6.47316e-05
7.61321e-05
0.00010282
0.000141218
0.000145481
5.40179e-05
1.19728e-05
8.13482e-06
4.8567e-05
0.000116464
0.000106693
7.90938e-05
5.73615e-05
4.88294e-05
5.13124e-05
6.07446e-05
7.06572e-05
7.44564e-05
6.99802e-05
6.00223e-05
4.9173e-05
4.08219e-05
3.63286e-05
3.47769e-05
3.2158e-05
2.31913e-05
1.11631e-05
5.74235e-06
7.68051e-06
1.62488e-05
3.6919e-05
7.65879e-05
8.9212e-05
6.62164e-05
5.64663e-05
6.58624e-05
9.16458e-05
0.000125882
0.000150384
0.000131969
4.72032e-05
1.11783e-05
7.95901e-06
4.66034e-05
0.000114268
0.00011651
9.67663e-05
6.97143e-05
5.09011e-05
4.42175e-05
4.71425e-05
5.62027e-05
6.56412e-05
6.90293e-05
6.46406e-05
5.61303e-05
4.80625e-05
4.27362e-05
3.9999e-05
3.73594e-05
3.11678e-05
2.0188e-05
9.40649e-06
5.57862e-06
8.51168e-06
1.76077e-05
3.62901e-05
6.93179e-05
9.1228e-05
8.00845e-05
7.56413e-05
9.28916e-05
0.000125007
0.000146283
0.000122521
4.31779e-05
1.0427e-05
7.79292e-06
4.49164e-05
0.000115457
0.00012564
0.000115132
9.34135e-05
6.75004e-05
4.93903e-05
4.22404e-05
4.37582e-05
5.08631e-05
5.86127e-05
6.16163e-05
5.87452e-05
5.32271e-05
4.85062e-05
4.57758e-05
4.39444e-05
4.06648e-05
3.40932e-05
2.38294e-05
1.28e-05
7.11169e-06
8.20475e-06
1.45774e-05
2.6888e-05
4.97512e-05
8.5892e-05
0.000109819
0.000118896
0.000134355
0.000146669
0.000123202
4.30456e-05
1.00799e-05
7.7192e-06
4.39399e-05
0.000119786
0.000134552
0.000125997
0.000110425
8.9387e-05
6.55748e-05
4.81403e-05
4.04336e-05
4.0879e-05
4.69075e-05
5.41121e-05
5.75415e-05
5.62765e-05
5.3292e-05
5.1219e-05
5.03881e-05
4.93379e-05
4.63561e-05
4.06534e-05
3.19866e-05
2.10206e-05
1.19514e-05
8.8636e-06
1.11992e-05
1.81848e-05
3.33521e-05
6.77357e-05
0.000115958
0.000139879
0.000145685
0.000123862
4.58673e-05
1.02495e-05
7.77606e-06
4.39336e-05
0.000124592
0.000139498
0.000126971
0.000113029
0.000103285
9.02309e-05
6.92399e-05
5.05988e-05
4.12688e-05
4.02629e-05
4.47629e-05
5.07167e-05
5.41505e-05
5.45533e-05
5.41632e-05
5.45993e-05
5.55043e-05
5.52899e-05
5.28483e-05
4.82935e-05
4.17557e-05
3.25926e-05
2.16272e-05
1.32123e-05
1.02913e-05
1.25845e-05
2.35183e-05
5.21521e-05
9.93411e-05
0.000129329
0.000124073
5.13237e-05
1.08197e-05
7.87464e-06
4.29771e-05
0.000124769
0.000138194
0.00011781
9.88859e-05
9.21718e-05
9.2673e-05
8.81322e-05
7.1076e-05
5.28186e-05
4.30475e-05
4.1566e-05
4.5365e-05
5.05279e-05
5.40553e-05
5.59577e-05
5.78034e-05
6.01644e-05
6.19445e-05
6.16256e-05
5.90118e-05
5.50932e-05
5.03891e-05
4.39149e-05
3.38083e-05
2.11872e-05
1.16955e-05
9.78107e-06
2.04698e-05
4.80359e-05
8.77029e-05
0.000117158
5.87802e-05
1.15409e-05
8.06302e-06
4.22381e-05
0.000122846
0.000132531
0.000105142
8.42954e-05
7.96242e-05
8.56239e-05
9.31458e-05
9.00779e-05
7.24639e-05
5.43777e-05
4.52132e-05
4.40725e-05
4.74286e-05
5.18357e-05
5.56907e-05
5.93619e-05
6.33094e-05
6.66349e-05
6.76458e-05
6.59965e-05
6.31754e-05
6.06023e-05
5.81696e-05
5.3656e-05
4.27306e-05
2.40716e-05
9.56825e-06
1.01587e-05
2.58691e-05
6.22924e-05
0.000108632
5.9113e-05
1.19563e-05
8.21498e-06
4.0558e-05
0.000118581
0.000120506
8.66725e-05
6.76895e-05
6.65702e-05
7.60678e-05
8.88096e-05
9.55481e-05
8.7903e-05
6.95042e-05
5.42145e-05
4.7499e-05
4.73054e-05
5.02101e-05
5.40345e-05
5.83468e-05
6.30639e-05
6.69547e-05
6.79357e-05
6.55935e-05
6.21962e-05
6.0044e-05
5.96867e-05
5.96452e-05
5.52409e-05
3.86811e-05
1.6212e-05
8.42781e-06
1.80002e-05
5.74607e-05
0.00011546
5.32018e-05
1.19072e-05
8.41777e-06
3.98587e-05
0.000114519
0.000104207
6.85356e-05
5.44779e-05
5.78757e-05
7.13678e-05
8.7567e-05
9.74939e-05
9.43256e-05
7.92519e-05
6.26833e-05
5.24998e-05
4.8968e-05
4.93253e-05
5.13833e-05
5.43873e-05
5.77952e-05
5.99397e-05
5.85571e-05
5.42035e-05
5.04613e-05
5.00671e-05
5.35401e-05
5.9453e-05
6.39287e-05
5.85794e-05
3.60275e-05
1.57215e-05
1.55342e-05
3.97774e-05
0.00010914
5.62011e-05
1.18145e-05
8.45654e-06
3.86014e-05
0.00010648
8.84909e-05
5.62537e-05
4.54183e-05
5.00668e-05
6.43417e-05
8.19866e-05
9.43463e-05
9.45924e-05
8.30662e-05
6.78917e-05
5.67328e-05
5.11233e-05
4.91167e-05
4.88863e-05
4.96413e-05
5.01239e-05
4.75267e-05
4.10939e-05
3.67937e-05
3.85825e-05
4.64645e-05
5.91223e-05
7.39302e-05
8.74832e-05
9.46016e-05
8.32268e-05
4.42212e-05
2.11637e-05
2.43739e-05
5.99022e-05
7.30444e-05
1.23611e-05
8.38036e-06
3.82418e-05
0.000100371
8.58813e-05
5.71937e-05
4.38815e-05
4.40807e-05
5.36082e-05
6.89534e-05
8.34882e-05
8.90423e-05
8.30482e-05
7.11248e-05
6.04304e-05
5.35214e-05
4.93611e-05
4.6507e-05
4.36836e-05
3.82805e-05
2.95703e-05
2.52364e-05
2.96224e-05
4.19471e-05
6.17004e-05
8.59809e-05
0.000108493
0.000123599
0.000126733
0.000106875
5.65053e-05
2.41257e-05
2.25403e-05
5.69583e-05
8.74832e-05