/*--------------------------------*- C++ -*----------------------------------*\
| =========                 |                                                 |
| \\      /  F ield         | OpenFOAM: The Open Source CFD Toolbox           |
|  \\    /   O peration     | Version:  v2006                                 |
|   \\  /    A nd           | Website:  www.openfoam.com                      |
|    \\/     M anipulation  |                                                 |
\*---------------------------------------------------------------------------*/
FoamFile
{
    version     2.0;
    format      ascii;
    class       volScalarField;
    location    "31";
    object      omega;
}
// * * * * * * * * * * * * * * * * * * * * * * * * * * * * * * * * * * * * * //

dimensions      [0 0 -1 0 0 0 0];


internalField   nonuniform List<scalar> 
78750
(
2283.23
337.747
231.123
128.734
59.7952
18.3541
24.5685
18.5946
23.0901
19.3861
22.53
19.4953
21.6743
20.0951
20.7958
20.3237
20.3455
20.2045
20.1029
19.994
19.8831
19.7679
19.6463
19.5156
19.3729
19.2227
19.0516
18.8481
18.5984
18.2833
17.8743
17.3291
16.5906
15.3216
542.026
521.879
10.2121
21.8281
9.49746
14.886
14.4707
13.7189
14.1218
13.6594
13.8476
13.6326
13.6937
13.6034
13.5994
13.5607
13.5382
13.5128
13.4895
13.467
13.4452
13.4236
13.4019
13.3795
13.3557
13.3297
13.3022
13.2683
13.2226
13.1578
13.0626
12.9183
12.694
12.3034
11.242
804.995
418.52
12.3653
13.0496
13.0709
12.6644
13.1517
13.2379
13.3415
13.4326
13.4881
13.536
13.5693
13.5946
13.6136
13.6281
13.6398
13.6503
13.6606
13.6718
13.685
13.701
13.7207
13.7448
13.7736
13.8066
13.8425
13.8785
13.9093
13.9269
13.9179
13.8595
13.7006
13.2756
12.2984
811.04
412.174
10.7532
11.7618
12.1529
12.3652
12.5523
12.7346
12.8797
12.9817
13.0561
13.1147
13.164
13.2075
13.2476
13.2861
13.3242
13.3629
13.4031
13.4455
13.4909
13.5398
13.5932
13.6515
13.7154
13.7853
13.8615
13.9437
14.031
14.1206
14.2064
14.2752
14.2922
14.1315
13.6536
815.25
412.864
10.3692
11.3132
11.8557
12.1439
12.3043
12.4054
12.4777
12.5353
12.5878
12.6397
12.6913
12.7431
12.796
12.8509
12.9086
12.9698
13.0351
13.1052
13.1805
13.2615
13.3486
13.4416
13.5417
13.649
13.7612
13.8745
13.9842
14.083
14.1595
14.1919
14.1272
13.8568
13.9629
819.064
410.628
9.99853
11.1544
11.7547
12.0321
12.0901
12.0461
11.983
11.9336
11.9155
11.9404
12.0004
12.078
12.1619
12.2472
12.3329
12.4193
12.5075
12.5988
12.6939
12.7927
12.8961
13.0065
13.1279
13.2647
13.4205
13.5975
13.7959
14.0141
14.2454
14.4741
14.6618
14.7631
15.4558
822.068
408.453
8.22023
9.53736
10.2343
10.6296
10.8513
10.9669
11.0154
11.0208
11.0034
10.9817
10.971
10.9786
11.002
11.0369
11.0903
11.1819
11.3336
11.5486
11.7964
12.0295
12.2238
12.3832
12.5227
12.6572
12.7976
12.9499
13.116
13.2956
13.4903
13.7042
13.9419
14.2517
15.5169
823.744
411.389
10.8218
12.0939
12.7604
13.1419
13.3621
13.4764
13.5101
13.4728
13.366
13.1872
12.9307
12.5873
12.1498
11.6282
11.0622
10.5093
10.0115
9.62481
9.55857
9.90617
10.4463
10.9895
11.5058
11.9797
12.3845
12.7226
13.0225
13.3181
13.6278
13.9477
14.2845
14.8576
16.6969
826.013
410.628
12.1917
14.0677
14.9932
15.5208
15.8428
16.0368
16.1373
16.1609
16.1152
16.0024
15.816
15.537
15.1393
14.6104
13.9704
13.2609
12.5471
11.8713
11.2844
10.8566
10.6056
10.4963
10.4922
10.5684
10.7249
11.0178
11.4524
11.9301
12.4344
13.0512
13.8638
15.0598
17.2481
826.995
412.603
12.5561
14.4424
15.3543
15.8258
16.0724
16.1834
16.1986
16.1385
16.018
15.8602
15.6619
15.3722
14.9269
14.2916
13.5284
12.7837
12.1701
11.7205
11.4096
11.2037
11.072
10.9867
10.9266
10.8781
10.8341
10.8126
10.8724
11.0743
11.4318
11.9996
12.9438
14.5572
17.3564
828.476
416.836
14.1021
15.7373
16.4428
16.7466
16.8419
16.7944
16.6246
16.3383
15.9677
15.6314
15.3704
15.0549
14.5509
13.777
12.7933
11.8545
11.1832
10.8042
10.6404
10.6237
10.7066
10.8355
10.95
11.0073
11.0056
10.9756
10.9696
11.0453
11.2528
11.7585
13.0448
15.3194
18.3527
830.33
424.503
16.2023
17.0318
17.2477
17.2623
17.1531
16.9158
16.5336
16.013
15.4485
15.1023
15.0501
15.0343
14.8864
14.5038
13.7399
12.6781
11.6867
11.0029
10.6066
10.4396
10.477
10.6608
10.8676
11.0008
11.0504
11.047
11.0257
11.0206
11.0713
11.3002
12.2693
14.9481
18.541
830.98
431.611
17.0979
17.2881
17.2568
17.1112
16.8216
16.349
15.7398
15.1226
14.6266
14.3738
14.3177
14.2945
14.2294
14.0682
13.7062
13.0243
12.1231
11.3138
10.769
10.4565
10.3377
10.4045
10.5937
10.7933
10.9366
11.0202
11.0651
11.1017
11.1934
11.5746
12.9681
15.9951
19.4613
831.731
430.068
16.3129
16.7135
16.8577
16.84
16.6457
16.2697
15.8224
15.4408
15.1336
14.8715
14.6631
14.5158
14.4066
14.2991
14.1473
13.8781
13.3962
12.69
11.9274
11.3097
10.9043
10.6865
10.6316
10.7018
10.825
10.9408
11.0243
11.0752
11.1171
11.3064
12.5508
16.0864
19.6851
831.545
424.26
15.9936
17.0009
17.4422
17.6695
17.7551
17.6802
17.3849
16.873
16.2441
15.6098
15.0451
14.5906
14.2588
14.0333
13.8761
13.7375
13.5474
13.1999
12.6076
11.8409
11.1356
10.6599
10.4112
10.334
10.3847
10.5114
10.6577
10.7938
10.9541
11.4089
13.2504
17.0726
20.3584
832.051
420.517
15.1047
16.4164
17.0391
17.4274
17.7325
17.9968
18.207
18.2825
18.1044
17.6617
17.0456
16.3402
15.6243
14.9806
14.4744
14.1237
13.888
13.6989
13.4716
13.0919
12.4678
11.6942
11.0134
10.575
10.3678
10.3433
10.4507
10.6262
10.8265
11.1519
12.7992
17.1537
20.5359
832.509
422.876
15.3382
16.3184
16.6981
16.8536
16.906
16.915
16.962
17.1219
17.3729
17.6054
17.7033
17.5671
17.1639
16.5391
15.7811
15.0265
14.412
13.9799
13.6716
13.3951
13.0392
12.492
11.7818
11.0829
10.5251
10.1485
9.94904
9.89619
10.0125
10.6461
13.032
17.6578
21.008
833.786
426.109
16.5478
17.4594
17.7287
17.7852
17.7704
17.7268
17.6413
17.5008
17.3696
17.3506
17.444
17.5557
17.5945
17.4673
17.0714
16.3838
15.5481
14.7854
14.2129
13.7905
13.4078
12.9334
12.264
11.4936
10.8349
10.3944
10.1827
10.1532
10.208
10.5309
12.8736
17.8622
21.3451
835.147
438.811
18.4579
18.013
17.4908
16.9844
16.7281
16.735
16.868
16.9762
17.0046
16.9831
16.9639
16.9641
16.9662
16.9369
16.8077
16.4573
15.8568
15.1675
14.5707
14.1064
13.6972
13.2297
12.5777
11.7185
10.8301
10.0898
9.57403
9.36454
9.52773
10.2924
13.2403
18.4101
21.8977
836.658
444.944
18.5033
17.4125
16.346
15.9459
16.1526
16.5101
16.795
16.9731
17.0604
17.0659
16.9973
16.868
16.6912
16.4674
16.1801
15.8135
15.3905
14.9751
14.6063
14.2651
13.9007
13.4385
12.7798
11.8742
10.8466
9.87807
9.06338
8.52022
8.55072
9.80302
13.5383
18.9377
22.4254
837.81
429.872
16.0421
16.0565
15.9125
15.9938
16.0981
16.24
16.4131
16.5668
16.6714
16.7054
16.6543
16.5145
16.3035
16.0634
15.835
15.6215
15.3989
15.1503
14.8737
14.5674
14.2142
13.7795
13.223
12.5446
11.8259
11.1176
10.3401
9.44729
8.77555
9.80138
14.1022
19.5189
22.8911
838.287
428.426
18.0763
18.3197
18.0061
17.3035
16.3618
15.7951
15.8234
16.0406
16.2251
16.3398
16.3928
16.3997
16.3702
16.3032
16.1905
16.0236
15.7999
15.5208
15.1823
14.7674
14.2412
13.5527
12.6429
11.5348
10.446
9.71891
9.54923
9.57514
9.26696
9.75042
14.2199
19.8342
23.135
838.246
439.623
18.6913
17.9048
17.0089
16.4327
15.7442
14.9681
15.0429
15.5379
15.9034
16.1337
16.3034
16.4345
16.5224
16.5659
16.5645
16.5154
16.4125
16.2483
16.0128
15.6855
15.228
14.5732
13.6161
12.2735
10.542
8.45108
6.35687
5.68669
7.31453
8.80269
13.3222
19.5907
23.0755
838.248
446.517
17.9503
15.8069
13.9472
14.3644
14.8491
15.044
15.4074
15.698
15.8852
16.0466
16.1899
16.3141
16.4179
16.5
16.5593
16.5938
16.5996
16.5703
16.4959
16.3617
16.1451
15.8089
15.296
14.5164
13.3595
11.7659
9.66247
6.74649
4.30565
6.95509
12.1492
19.0694
22.9523
839.233
437.711
16.6797
15.4301
14.8757
15.3405
15.3671
15.4183
15.506
15.6473
15.8142
15.9793
16.125
16.2434
16.3335
16.3983
16.4397
16.4597
16.4595
16.4386
16.3946
16.3218
16.2087
16.0354
15.7696
15.3638
14.7455
13.8107
12.4532
10.4104
6.77853
7.09541
12.1025
19.1662
23.3385
841.478
427.779
17.7763
18.2602
18.1092
17.5247
16.8068
16.0681
15.4441
15.0565
14.9675
15.1293
15.42
15.7233
15.9758
16.1574
16.269
16.319
16.3156
16.2643
16.1672
16.0228
15.8271
15.5739
15.2533
14.8505
14.3314
13.6219
12.6356
11.1325
8.36735
9.13047
14.1885
20.1588
24.0894
843.202
423.487
18.2053
19.4116
19.748
19.7516
19.46
18.8077
17.8066
16.576
15.3178
14.3165
13.8464
13.9767
14.4808
15.0532
15.5311
15.8716
16.0769
16.1626
16.1433
16.0251
15.8035
15.4624
14.9759
14.3192
13.4764
12.4662
11.2959
9.80463
7.85231
9.85291
16.2959
21.1946
24.5917
843.246
423.097
16.8076
18.3581
19.131
19.608
19.9146
20.0509
19.945
19.4679
18.5312
17.1883
15.6067
14.0964
13.133
13.0733
13.6965
14.4689
15.1139
15.5793
15.8633
15.98
15.94
15.7379
15.3476
14.7191
13.7779
12.5003
10.8644
8.60468
5.55215
7.80456
16.8422
21.6371
24.7213
842.779
426.151
17.527
18.9052
19.4394
19.6096
19.6033
19.5187
19.4516
19.4856
19.5772
19.527
19.0729
18.0152
16.3678
14.4428
12.9527
12.6604
13.3188
14.1568
14.8505
15.3391
15.6168
15.6957
15.5756
15.2306
14.6044
13.6116
12.193
10.1649
6.5571
4.03899
14.76
20.9913
24.4897
843.392
431.799
19.7115
20.7471
20.9687
20.8779
20.5886
20.1215
19.53
18.9316
18.4622
18.3849
18.8093
19.2945
19.2948
18.4722
16.744
14.5328
12.9585
12.8731
13.5376
14.2522
14.8349
15.2174
15.3794
15.3162
15.0037
14.3792
13.3761
11.9094
9.22038
4.2323
12.0498
20.0808
24.3523
845.371
443.531
21.062
20.9361
20.569
20.0985
19.4696
18.78
18.417
18.523
18.5385
18.2072
18.0402
18.3894
18.8344
19.0104
18.7391
17.6036
15.4815
13.6347
13.2791
13.7093
14.1962
14.6214
14.9312
15.0672
15.0012
14.6869
14.0501
13.039
11.2149
6.83681
10.9899
19.7136
24.5619
847.826
457.236
21.8562
20.8201
19.9967
18.9544
17.4858
16.2075
16.2761
17.6111
18.7384
19.1862
19.2155
19.15
19.152
19.1408
19.0214
18.6232
17.4246
15.3852
14.0593
13.917
14.1535
14.4258
14.6785
14.8377
14.8542
14.6828
14.2539
13.4973
12.0495
8.56213
12.0185
20.2345
25.1862
849.953
458.583
21.3101
20.4939
19.6426
18.1398
16.1985
15.6807
16.9538
18.3506
19.1633
19.59
19.8076
19.8492
19.7581
19.5897
19.3393
18.9189
18.0608
16.4828
15.1941
14.8606
14.8764
14.9622
15.0532
15.1001
15.0588
14.8847
14.5208
13.8706
12.5852
10.2072
14.1977
21.2673
25.8969
850.919
452.132
20.6835
20.2036
19.2945
17.5514
15.6012
15.5082
16.8741
17.8082
18.4037
18.8316
19.1132
19.2434
19.1865
18.8791
18.2473
17.3501
16.5718
16.151
15.9233
15.8164
15.7731
15.7518
15.7196
15.6476
15.5074
15.2662
14.8763
14.2345
13.0906
11.8775
16.1792
22.2291
26.3902
850.674
446.215
20.9909
21.0631
20.7023
19.7904
18.0311
15.9345
15.2556
15.6543
16.1499
16.5777
16.8747
17.0842
17.2505
17.3502
17.3618
17.2824
17.1474
17.0251
16.934
16.859
16.7826
16.6897
16.5661
16.3966
16.1629
15.8399
15.3824
14.6909
13.6863
13.5594
17.9428
22.9859
26.6164
849.215
439.802
20.6678
21.3065
21.6271
21.752
21.4127
20.0257
17.8025
15.9794
14.9184
14.607
14.8919
15.5414
16.2407
16.7694
17.1123
17.3204
17.4466
17.5205
17.5562
17.5585
17.5262
17.4542
17.3346
17.1567
16.9059
16.5607
16.0793
15.362
14.3685
14.4776
19.1584
23.4287
26.5518
846.889
437.057
19.9408
20.5789
20.833
21.0559
21.4157
21.9141
22.118
21.2776
19.4771
17.1249
14.3367
12.0626
12.3311
13.8818
15.2057
16.1215
16.7421
17.1652
17.4551
17.6496
17.7692
17.8258
17.8188
17.7411
17.5798
17.3166
16.9203
16.3131
15.3884
14.8788
18.9055
23.3166
26.2968
845.325
444.093
21.0623
21.2853
21.209
20.9559
20.4827
19.8708
19.7367
20.2905
20.6533
20.1872
18.213
13.8443
9.62638
10.5644
12.9376
14.6197
15.6706
16.3689
16.8876
17.2876
17.5873
17.7999
17.9404
18.0093
17.9922
17.8722
17.6266
17.2055
16.4976
15.586
17.7012
22.7096
25.9301
845.427
450.708
21.4983
21.3523
21.2783
21.2047
21.049
20.6115
19.6286
18.5704
18.1164
18.0046
17.6775
15.6993
10.0854
9.51368
12.2352
13.9132
14.8989
15.638
16.2756
16.8075
17.2389
17.5731
17.831
18.0258
18.1457
18.1745
18.0926
17.8687
17.4189
16.5296
16.9662
22.0571
25.7043
847.069
451.814
21.2465
21.0303
20.9134
20.7952
20.6754
20.6092
20.5331
20.1088
19.2414
18.2805
17.39
16.2662
12.4736
8.64886
11.1772
13.2621
14.4266
15.217
15.8734
16.4502
16.9363
17.34
17.6762
17.9497
18.1557
18.2828
18.3146
18.2244
17.9425
17.255
17.3678
22.1702
26.1464
850.196
450.585
21.0872
21.0566
21.0436
20.9405
20.6809
20.2499
19.7982
19.4933
19.2016
18.6648
17.7032
16.2035
13.7584
8.05207
9.84288
12.5465
13.9277
14.8045
15.5129
16.139
16.6722
17.1207
17.5011
17.82
18.0755
18.2597
18.3604
18.3568
18.2248
17.9916
18.8697
23.2885
27.2004
853.55
447.39
20.8318
21.0943
21.27
21.3639
21.3493
21.1686
20.7217
20.0029
19.2573
18.7081
18.237
17.4786
15.9032
11.6054
5.84717
9.66423
12.5277
13.9596
14.8926
15.6399
16.2719
16.7958
17.2357
17.608
17.9089
18.1277
18.2529
18.2847
18.4013
19.0059
20.8987
24.7062
28.1619
854.957
444.078
20.803
21.2298
21.4206
21.5046
21.5034
21.4096
21.1869
20.7153
19.878
18.9454
18.2605
17.6828
16.8361
15.0051
9.62166
7.05253
8.94933
11.9825
13.6679
14.7548
15.5865
16.2715
16.8534
17.3515
17.7532
18.0434
18.2119
18.3055
18.7858
20.3374
22.7775
25.7386
28.5066
853.539
445.836
21.2676
21.5566
21.6543
21.6671
21.6006
21.4336
21.1396
20.6813
19.9598
19.0572
18.4065
18.0053
17.5151
16.547
13.8334
8.37349
6.01526
7.15271
10.933
13.0475
14.4136
15.4544
16.2883
16.9705
17.5101
17.8979
18.1293
18.2826
18.9838
21.2635
23.9654
26.2105
28.34
850.893
449.343
21.5195
21.5527
21.537
21.4721
21.3303
21.0756
20.673
20.1026
19.3351
18.4362
17.7947
17.4927
17.1977
16.6075
15.2348
11.3858
6.47257
5.77421
6.08989
10.4434
12.9204
14.5021
15.6971
16.645
17.379
17.9095
18.2409
18.4361
19.0501
21.4573
24.4478
26.307
28.028
848.905
453.335
21.8892
21.7545
21.6765
21.5534
21.3135
20.8823
20.199
19.3096
18.4482
17.8789
17.6257
17.4844
17.2317
16.7062
15.638
13.3057
8.73127
4.38517
5.61024
7.68873
11.087
13.3627
14.9494
16.1736
17.1277
17.8366
18.3177
18.6074
19.0428
20.9642
24.2133
26.0644
27.7227
848.416
453.764
21.7053
21.6174
21.6019
21.5287
21.3089
20.8356
19.9879
18.7353
17.4027
16.6855
16.6642
16.7387
16.601
16.1354
15.1313
13.1795
9.78399
5.86451
4.22826
5.67583
9.98124
12.8206
14.6874
16.0692
17.15
17.9716
18.5638
18.9428
19.2707
20.5208
23.6027
25.6836
27.5586
849.005
451.798
21.5484
21.608
21.6595
21.6432
21.4987
21.1355
20.4326
19.2716
17.7016
16.3568
15.9425
15.9674
15.8731
15.4533
14.5259
12.8511
10.245
7.28759
5.71101
6.33278
9.6057
12.5391
14.5925
16.1033
17.2773
18.1844
18.8683
19.3406
19.6674
20.4707
23.0607
25.4249
27.5976
849.921
450.62
21.5328
21.6068
21.6483
21.6333
21.5212
21.2422
20.6934
19.7273
18.1609
16.1718
14.8936
14.6615
14.6357
14.3406
13.5813
12.2741
10.5372
8.83241
7.72765
7.55952
9.63391
12.5537
14.7531
16.357
17.5875
18.5477
19.3014
19.8618
20.2538
20.8941
23.0173
25.464
27.7793
850.531
451.026
21.6276
21.6814
21.7151
21.6969
21.5884
21.3357
20.8757
20.1296
18.9288
17.051
14.9208
13.8024
13.54
13.3098
12.725
11.6847
10.3499
9.18132
8.47343
8.33986
9.68361
12.4015
14.7529
16.4963
17.8195
18.8556
19.6916
20.3568
20.8703
21.5549
23.4092
25.6979
27.9516
850.67
450.315
21.5649
21.6756
21.7445
21.7585
21.6846
21.4704
21.0613
20.4236
19.5012
18.081
15.9311
13.7674
12.6648
12.2685
11.8474
11.151
10.2646
9.42053
8.79448
8.64818
9.91372
12.5509
14.9652
16.7806
18.1513
19.2292
20.1256
20.8859
21.5388
22.3581
24.0514
26.0217
28.0686
850.481
450.743
21.6589
21.7221
21.7682
21.7822
21.7399
21.602
21.3226
20.8643
20.1901
19.1917
17.5853
15.2384
13.1211
12.0754
11.6082
11.1144
10.4819
9.82325
9.22393
8.87403
9.84087
12.4279
14.9893
16.9385
18.3945
19.5355
20.501
21.3627
22.1658
23.1396
24.7032
26.3361
28.1361
850.254
451.502
21.6842
21.6538
21.6413
21.6039
21.5129
21.3409
21.0708
20.6914
20.1783
19.4672
18.3591
16.4746
13.934
11.9486
11.04
10.6239
10.276
9.91303
9.52949
9.2495
10.121
12.6827
15.2862
17.2815
18.7593
19.9112
20.9069
21.846
22.7805
23.868
25.285
26.6279
28.206
850.168
453.605
21.9038
21.748
21.6704
21.5821
21.4397
21.215
20.8993
20.4954
19.9991
19.373
18.5053
17.1292
14.9659
12.6363
11.1623
10.4708
10.0723
9.73912
9.40075
9.13765
10.0422
12.8237
15.5918
17.6757
19.1836
20.3323
21.324
22.2978
23.3205
24.4604
25.7243
26.8504
28.2654
850.332
454.553
21.812
21.5574
21.426
21.2904
21.1091
20.8733
20.567
20.163
19.6402
18.9667
18.0693
16.779
14.8942
12.6484
10.9825
10.1732
9.77812
9.48894
9.19826
9.04617
10.3123
13.4612
16.3058
18.3603
19.8095
20.8896
21.8212
22.7666
23.8112
24.9438
26.0677
27.0435
28.3645
851.049
455.513
21.8492
21.4908
21.2774
21.0559
20.8072
20.5741
20.3345
20.0207
19.5806
18.9629
18.0881
16.8129
15.0189
12.8359
10.9821
9.95311
9.42834
9.06027
8.72736
8.72643
10.5578
14.1841
17.1513
19.1654
20.5372
21.5271
22.3597
23.2256
24.2546
25.3796
26.4095
27.2948
28.5971
852.543
456.347
21.753
21.2693
20.9582
20.623
20.2721
20.0073
19.7904
19.5118
19.1022
18.5051
17.641
16.39
14.6927
12.6892
10.8853
9.77271
9.13593
8.65986
8.29288
8.70397
11.4342
15.493
18.3798
20.1857
21.4368
22.3648
23.1014
23.8354
24.7824
25.8652
26.8135
27.6526
28.9897
854.085
456.428
21.6269
21.1051
20.7489
20.3417
19.9144
19.6248
19.4518
19.2544
18.9345
18.4194
17.6206
16.4245
14.7869
12.8654
11.0484
9.74391
8.8858
8.20992
7.77227
8.62973
12.154
16.7781
19.7006
21.1922
22.2785
23.2794
24.1386
24.822
25.5852
26.4743
27.2704
28.0381
29.3185
853.525
455.343
21.3854
20.8998
20.5453
20.104
19.5825
19.1584
18.9016
18.698
18.4293
18.0103
17.3536
16.3537
14.9374
13.2262
11.5288
10.1295
9.05017
8.11306
7.42831
8.22978
12.0209
17.3401
20.9889
22.351
23.0248
23.8751
25.0365
26.0445
26.7577
27.3705
27.9056
28.4604
29.3928
849.815
452.838
21.1457
20.84
20.5885
20.2179
19.678
19.0997
18.6882
18.4399
18.2184
17.9016
17.394
16.6065
15.4677
14.0118
12.4597
11.0517
9.83928
8.70917
7.63326
7.39968
10.027
15.4116
20.6826
23.5014
24.2891
24.5098
25.1693
26.3162
27.2659
27.8641
28.2563
28.5833
29.0252
844.519
450.304
21.0801
20.9986
20.8912
20.6459
20.1582
19.4119
18.64
18.1048
17.8068
17.588
17.2958
16.8149
16.0603
15.0087
13.7564
12.495
11.3337
10.2243
9.06056
7.91477
7.88768
11.0011
16.486
21.6379
24.8361
26.0087
26.1361
26.3909
26.9819
27.5177
27.8669
28.0745
28.1917
839.864
447.944
20.9734
21.113
21.1806
21.1404
20.9023
20.3415
19.4379
18.4685
17.7606
17.3611
17.1082
16.8279
16.3982
15.7531
14.9092
13.9668
13.0339
12.1372
11.2204
10.1897
9.08043
8.63949
10.6679
15.2335
20.3587
24.4809
26.7787
27.3751
27.4722
27.5477
27.6213
27.639
27.5395
837.615
446.566
20.9442
21.1899
21.3485
21.4415
21.4121
21.1507
20.5098
19.4577
18.2919
17.4104
16.9154
16.6453
16.4067
16.0738
15.5988
15.0095
14.3821
13.7719
13.1732
12.5313
11.773
10.8651
10.0728
10.4596
13.1616
17.6256
22.4012
25.9296
27.3136
27.7496
27.8305
27.7598
27.5591
838.754
446.432
20.9185
21.1347
21.2954
21.4442
21.5556
21.5546
21.324
20.6963
19.5891
18.2981
17.2699
16.6637
16.3389
16.1051
15.8458
15.523
15.1626
14.8106
14.4859
14.1711
13.8247
13.3813
12.7625
11.9863
11.4205
12.0644
14.9343
19.7672
23.9265
25.9699
26.8867
27.275
27.5131
843.093
447.11
20.9855
21.0945
21.1819
21.2855
21.4063
21.4932
21.4602
21.2043
20.5698
19.4606
18.1383
17.0682
16.4245
16.0792
15.8621
15.6724
15.4826
15.3112
15.1791
15.0866
15.0191
14.9443
14.7889
14.4512
13.8495
13.0314
12.4395
13.6665
18.7866
22.5845
24.7734
26.0898
27.3466
848.861
448.841
21.1742
21.117
21.1038
21.1422
21.2511
21.3859
21.4479
21.3562
21.0296
20.3229
19.1626
17.8536
16.8282
16.2044
15.8615
15.6672
15.5435
15.4703
15.4538
15.4988
15.6093
15.7784
15.9512
16.0153
15.8303
15.2714
14.2379
12.8864
15.029
20.5531
23.7571
25.7444
27.7702
852.472
451.007
21.28
20.9936
20.8449
20.7941
20.8841
21.0607
21.1859
21.1715
20.9742
20.5229
19.6846
18.4735
17.2509
16.3473
15.8001
15.5066
15.3665
15.3283
15.3774
15.5139
15.7579
16.1361
16.6162
17.0729
17.3059
17.126
16.3755
14.8972
14.3452
19.5937
24.0613
26.3548
28.4201
852.463
454.176
21.3872
20.8167
20.5089
20.3535
20.4361
20.6772
20.8696
20.9053
20.755
20.3847
19.7121
18.6746
17.4568
16.3967
15.6548
15.205
14.9704
14.8925
14.9466
15.1371
15.532
16.2171
17.1588
18.1564
18.9079
19.1769
18.8722
17.9477
16.6914
18.3024
22.9144
25.7211
27.8763
852.071
456.476
21.2465
20.4729
20.0385
19.7509
19.743
19.978
20.2161
20.3082
20.2086
19.8878
19.2879
18.3547
17.1922
16.0733
15.1899
14.574
14.1939
14.0111
14.0159
14.3156
15.2176
16.7344
18.4886
20.0356
21.0974
21.6175
21.6381
21.2108
20.262
19.021
20.71
23.8989
27.1061
856.9
457.486
21.1951
20.4638
20.025
19.6071
19.3177
19.2994
19.449
19.5643
19.5147
19.2361
18.6764
17.7976
16.67
15.5035
14.4805
13.6668
13.0773
12.7268
12.7834
13.8643
16.2041
18.7681
20.8912
22.4043
23.3451
23.8206
23.8952
23.5456
22.4925
20.5012
20.9305
24.3806
28.6023
865.639
455.92
21.2028
20.785
20.4754
20.0059
19.3463
18.7567
18.5109
18.5421
18.5762
18.4125
17.9657
17.2009
16.1492
14.9461
13.7594
12.7047
11.8648
11.4285
12.1572
15.0006
18.6912
21.3811
23.0747
24.2044
24.9423
25.2821
25.1963
24.6283
23.5566
22.6614
24.0492
26.9381
30.5538
866.365
453.823
21.5579
21.5255
21.4198
21.0787
20.3651
19.2729
18.2075
17.684
17.6465
17.6333
17.3805
16.8163
15.9401
14.796
13.4995
12.2013
11.0664
10.522
11.804
15.7962
20.5142
23.2819
24.3944
25.0584
25.6396
26.0407
26.0301
25.616
25.168
25.3998
26.7904
28.595
30.8085
855.866
451.528
21.6873
21.9279
22.0449
21.9773
21.5883
20.6349
19.0289
17.4351
16.783
16.8112
16.8118
16.5323
15.9354
15.0216
13.8263
12.464
11.1045
10.0917
10.5855
14.1186
19.6245
23.8585
25.4963
25.8137
25.9175
26.2085
26.5562
26.7046
26.8334
27.2988
28.1025
28.9569
29.7921
844.298
450.977
21.7097
21.9754
22.1842
22.3191
22.2879
21.8888
20.7082
18.5509
16.6358
16.1269
16.2407
16.2441
15.9749
15.4113
14.5425
13.3991
12.1012
10.8416
10.0827
11.2193
15.3785
20.7949
24.8137
26.6107
26.8841
26.7088
26.7641
27.1054
27.5267
27.9673
28.3686
28.6361
28.6036
838.051
451.32
21.5949
21.7028
21.8309
21.9578
22.0456
21.9934
21.5511
20.1073
17.5956
15.983
15.7911
15.9383
15.9367
15.7082
15.2325
14.4942
13.5298
12.4533
11.4144
10.7614
11.6044
14.9697
19.7365
23.9828
26.6546
27.5936
27.5779
27.5154
27.6654
27.8972
28.0577
28.0522
27.7245
836.443
453.198
21.8458
21.7962
21.8043
21.802
21.7568
21.6283
21.3378
20.6025
18.7826
16.6134
15.7927
15.8163
15.9192
15.894
15.6999
15.3134
14.7314
14.0089
13.2419
12.5009
11.9438
12.1834
14.164
17.8406
22.0522
25.532
27.4466
27.9702
28.0105
27.9821
27.9146
27.7545
27.4107
837.605
454.49
21.929
21.8216
21.8187
21.8041
21.7011
21.4278
20.9362
20.1866
18.9558
17.2284
16.1854
16.0123
16.0857
16.1286
16.0752
15.9036
15.6005
15.1809
14.7036
14.2279
13.7677
13.3487
13.2279
14.0425
16.3809
20.0137
23.8526
26.5207
27.6485
27.972
27.9831
27.8432
27.6337
840.493
455.042
21.8069
21.6243
21.6102
21.6332
21.6031
21.373
20.8164
19.9078
18.7176
17.4183
16.5596
16.3201
16.33
16.3662
16.3593
16.288
16.1435
15.9329
15.6886
15.4566
15.2546
15.0511
14.8231
14.645
14.8316
16.0157
18.7416
22.4621
25.3857
26.8794
27.4873
27.7032
27.8828
844.789
454.477
21.4273
21.1187
21.023
21.0186
21.0595
20.9793
20.5871
19.794
18.6812
17.5779
16.8862
16.6452
16.6087
16.618
16.6119
16.5697
16.4851
16.369
16.2542
16.1773
16.1549
16.169
16.1845
16.1669
16.1094
16.1131
16.6336
18.6933
21.9899
24.6631
26.2111
27.0865
28.0115
850.426
454.573
21.244
20.779
20.5553
20.4471
20.4776
20.4905
20.2663
19.6874
18.7671
17.7868
17.1402
16.873
16.7943
16.7725
16.7508
16.709
16.6432
16.5682
16.5271
16.556
16.6591
16.817
17.007
17.2174
17.4188
17.5285
17.5017
17.873
19.9539
22.8645
25.1516
26.7161
28.5056
856.089
455.199
21.0434
20.4093
20.0674
19.871
19.8901
19.947
19.8209
19.4135
18.7178
17.9212
17.3443
17.0623
16.9437
16.8824
16.8283
16.7608
16.6772
16.5978
16.5788
16.6671
16.8567
17.1213
17.4498
17.863
18.3522
18.7728
18.9149
18.9456
20.1628
22.7699
25.2106
27.0569
29.2703
858.341
455.688
20.7234
19.9339
19.4904
19.2394
19.2853
19.3696
19.2814
18.9695
18.4507
17.8608
17.4117
17.1601
17.0248
16.9326
16.8451
16.7442
16.6301
16.5319
16.5217
16.6534
16.9068
17.2476
17.6865
18.2919
19.0733
19.7999
20.205
20.4876
21.6508
23.9006
25.9907
27.6641
29.692
855.451
454.341
20.1853
19.3445
18.8281
18.4825
18.5102
18.6536
18.6548
18.469
18.1322
17.7462
17.4296
17.2178
17.0733
16.9539
16.833
16.6948
16.5423
16.4137
16.3984
16.5625
16.8718
17.276
17.8032
18.5769
19.6475
20.7081
21.414
22.0294
23.2842
25.1185
26.6916
27.993
29.5037
850.046
451.828
19.8796
19.159
18.6259
18.0615
17.7667
17.839
17.9584
17.9422
17.7917
17.5769
17.3707
17.2033
17.0652
16.9354
16.7958
16.6338
16.454
16.299
16.2719
16.4552
16.8092
17.2525
17.8045
18.6288
19.877
21.29
22.3705
23.2555
24.4765
25.8985
27.0422
27.9876
28.9987
845.798
449.397
19.9686
19.4554
18.9939
18.3199
17.4897
17.081
17.17
17.3336
17.3827
17.3272
17.2224
17.1064
16.9895
16.8656
16.7229
16.5513
16.3541
16.1724
16.1205
16.3109
16.7204
17.2198
17.7733
18.5295
19.7388
21.3652
22.8542
24.0028
25.1488
26.2535
27.1075
27.8009
28.5029
843.847
448.46
20.3193
19.9707
19.6285
19.0881
18.0832
16.8888
16.4393
16.5972
16.8221
16.9374
16.9577
16.9215
16.8522
16.7555
16.6277
16.4623
16.2597
16.0527
15.9578
16.1244
16.5822
17.1658
17.7524
18.4197
19.426
20.985
22.7603
24.2196
25.3905
26.3308
27.0252
27.5828
28.1827
843.886
449.215
20.607
20.2991
20.0275
19.6333
18.8684
17.4326
16.2022
15.9932
16.2485
16.4918
16.6267
16.677
16.6672
16.61
16.5085
16.3594
16.16
15.9329
15.7844
15.8998
16.3945
17.0988
17.7911
18.4534
19.2702
20.5511
22.3146
24.0127
25.3127
26.2339
26.8792
27.3988
28.0415
845.061
451.296
20.8565
20.462
20.1606
19.7568
19.0728
17.8526
16.3213
15.6724
15.8191
16.1152
16.3267
16.4434
16.4833
16.4625
16.3878
16.2571
16.065
15.8234
15.6176
15.6551
16.1542
16.986
17.836
18.5927
19.357
20.3957
21.9355
23.6726
25.0924
26.0713
26.7399
27.2905
28.0575
846.638
453.379
21.0481
20.5677
20.2223
19.7521
18.9627
17.788
16.3705
15.5547
15.5921
15.8821
16.1202
16.2632
16.3264
16.3254
16.2667
16.1474
15.959
15.7038
15.447
15.4007
15.8824
16.8438
17.8819
18.7936
19.6221
20.5691
21.895
23.5179
24.9565
25.9734
26.6735
27.2692
28.1592
847.865
454.252
21.064
20.553
20.1975
19.7039
18.8524
17.5897
16.2372
15.432
15.4415
15.73
15.9756
16.1273
16.1987
16.2048
16.1512
16.0341
15.8424
15.5707
15.2674
15.1365
15.5784
16.6619
17.9012
18.9965
19.9519
20.924
22.1407
23.6231
24.9992
26.0021
26.7078
27.3295
28.2889
848.413
454.237
20.9667
20.4198
20.0457
19.5536
18.7546
17.5531
16.2006
15.345
15.308
15.5898
15.8413
16.0002
16.0779
16.0884
16.037
15.9188
15.7201
15.4289
15.0796
14.8625
15.2452
16.4505
17.9166
19.2212
20.3379
21.4007
22.5898
23.9486
25.2091
26.1424
26.8129
27.4194
28.3629
848.067
454.125
20.8337
20.2011
19.7613
19.2293
18.4926
17.4704
16.2166
15.2808
15.1549
15.4277
15.6939
15.867
15.9558
15.975
15.9296
15.8142
15.6134
15.3091
14.9196
14.6068
14.8707
16.1364
17.8355
19.3741
20.6782
21.8691
23.0878
24.3614
25.4969
26.334
26.9415
27.4975
28.3605
847.205
454.333
20.6954
19.9462
19.4129
18.7981
18.0828
17.2398
16.1959
15.2659
15.0279
15.2695
15.5451
15.7321
15.8338
15.8645
15.8295
15.7227
15.5273
15.2208
14.8053
14.4031
14.4946
15.7195
17.638
19.4277
20.9358
22.2596
23.5227
24.7357
25.7598
26.5014
27.038
27.5267
28.278
846.073
454.2
20.4341
19.5795
18.9505
18.227
17.4865
16.7755
15.9767
15.2014
14.9205
15.1278
15.4056
15.6033
15.7171
15.7606
15.739
15.6465
15.4664
15.1735
14.7539
14.28
14.1548
15.1802
17.2632
19.3322
21.0664
22.5405
23.8618
25.0329
25.9646
26.6228
27.0927
27.5134
28.1556
845.047
453.587
20.1778
19.2853
18.5969
17.7689
16.9453
16.2831
15.6606
15.0634
14.795
14.9717
15.252
15.4636
15.5934
15.654
15.6509
15.5792
15.423
15.157
14.7573
14.2493
13.9129
14.5697
16.6582
19.0345
21.0132
22.6479
24.0389
25.1995
26.075
26.6764
27.0968
27.4639
28.0207
844.193
452.249
19.9677
19.1495
18.4795
17.5888
16.5813
15.8052
15.2558
14.8079
14.5866
14.7406
15.0348
15.2753
15.4333
15.5202
15.5438
15.5016
15.3807
15.1576
14.8035
14.3077
13.8186
14.0049
15.7846
18.4562
20.7646
22.5991
24.0754
25.2472
26.0974
26.6679
27.0582
27.3901
27.8897
843.567
450.843
19.9744
19.3357
18.7858
17.9606
16.7742
15.636
14.8894
14.4442
14.2455
14.3839
14.7101
15.0054
15.2128
15.3422
15.4059
15.4063
15.335
15.1722
14.8887
14.4536
13.9117
13.6775
14.8004
17.5088
20.2158
22.3285
23.9572
25.1759
26.0318
26.5982
26.9805
27.2981
27.769
843.152
449.597
20.0661
19.6211
19.2344
18.6032
17.478
15.9937
14.7638
14.0612
13.7808
13.8797
14.2426
14.6201
14.9031
15.0937
15.2111
15.2654
15.2548
15.1649
14.9689
14.6295
14.1323
13.6605
14.0208
16.2631
19.335
21.817
23.6729
25.0059
25.9114
26.4979
26.888
27.2068
27.6753
843.045
449.343
20.2368
19.8982
19.6314
19.203
18.357
16.9066
15.2205
13.9586
13.3413
13.2881
13.6483
14.1209
14.5063
14.7782
14.9626
15.081
15.1405
15.1333
15.0374
14.8159
14.429
13.9136
13.6991
15.004
18.0802
21.0082
23.1625
24.6789
25.6905
26.3395
26.7669
27.112
27.6126
843.188
449.754
20.287
19.9335
19.6981
19.3769
18.786
17.6912
16.0445
14.3387
13.1774
12.7683
13.0022
13.5325
14.0272
14.3919
14.6489
14.8321
14.9604
15.0346
15.0402
14.9463
14.709
14.3024
13.8763
14.2592
16.6816
19.9729
22.5337
24.287
25.4254
26.1538
26.635
27.0225
27.5701
843.362
450.645
20.3052
19.8679
19.5998
19.2916
18.8125
18.0141
16.7226
15.0148
13.4212
12.501
12.4387
12.9375
13.5238
13.9862
14.3196
14.5664
14.7582
14.906
15.0043
15.0291
14.9386
14.685
14.2801
14.1149
15.4724
18.6751
21.6733
23.7643
25.1031
25.9464
26.5014
26.9446
27.5508
843.625
450.921
20.1558
19.6491
19.3536
19.0499
18.634
18.0061
17.0517
15.647
13.959
12.5545
12.0043
12.3206
12.9505
13.5077
13.922
14.2335
14.4854
14.7016
14.8882
15.0321
15.0979
15.0315
14.7863
14.4783
14.9263
17.4038
20.6402
23.1059
24.7067
25.6994
26.3481
26.8619
27.5414
843.916
450.548
19.916
19.377
19.0825
18.8171
18.4881
17.9956
17.2636
16.1851
14.6845
13.0278
11.8696
11.7528
12.3252
12.9692
13.4771
13.863
14.1768
14.4541
14.7144
14.9581
15.1605
15.2675
15.2071
14.9648
14.9294
16.4152
19.5609
22.3559
24.2383
25.4108
26.1751
26.7759
27.5423
844.154
449.399
19.5456
19.0028
18.7218
18.5056
18.288
17.9608
17.4372
16.6445
15.4591
13.845
12.1897
11.299
11.5499
12.2394
12.8652
13.3526
13.7489
14.1018
14.445
14.7952
15.1448
15.4469
15.6117
15.5561
15.3925
16.0008
18.5877
21.6131
23.7584
25.1117
25.9942
26.6822
27.5198
844.09
448.259
19.3002
18.7804
18.5055
18.2905
18.1157
17.9173
17.5892
17.0552
16.2233
14.953
13.2283
11.5309
10.8644
11.3215
12.0462
12.666
13.1683
13.6077
14.0341
14.4835
14.9714
15.468
15.8742
16.0656
16.011
16.1262
17.7803
20.8301
23.2959
24.8525
25.847
26.6071
27.4894
844.005
447.471
19.2233
18.7348
18.4552
18.1998
17.9738
17.8002
17.5988
17.2646
16.7212
15.8546
14.5062
12.6585
10.9132
10.4567
11.0502