/*--------------------------------*- C++ -*----------------------------------*\
| =========                 |                                                 |
| \\      /  F ield         | OpenFOAM: The Open Source CFD Toolbox           |
|  \\    /   O peration     | Version:  v2006                                 |
|   \\  /    A nd           | Website:  www.openfoam.com                      |
|    \\/     M anipulation  |                                                 |
\*---------------------------------------------------------------------------*/
FoamFile
{
    version     2.0;
    format      ascii;
    class       surfaceScalarField;
    location    "31";
    object      phi;
}
// * * * * * * * * * * * * * * * * * * * * * * * * * * * * * * * * * * * * * //

dimensions      [1 0 -1 0 0 0 0];
oriented        oriented;


internalField   nonuniform List<scalar> 
228225
(
-0.000459022
-4.20106e-05
-1.56609e-05
-0.000411813
-3.34461e-05
-1.39243e-05
-0.000366453
-3.21646e-05
-1.3356e-05
-0.000320931
-3.29082e-05
-1.27785e-05
-0.000281074
-2.84362e-05
-1.15943e-05
-0.000246799
-2.36993e-05
-1.07633e-05
-0.000217544
-1.94899e-05
-9.94631e-06
-0.000191948
-1.64813e-05
-9.29758e-06
-0.000169494
-1.38888e-05
-8.75116e-06
-0.000149522
-1.18691e-05
-8.29024e-06
-0.000131702
-1.01377e-05
-7.87237e-06
-0.000115671
-8.70662e-06
-7.51534e-06
-0.000101128
-7.48485e-06
-7.25013e-06
-8.7879e-05
-6.41588e-06
-7.02733e-06
-7.5718e-05
-5.51352e-06
-6.84322e-06
-6.45269e-05
-4.70794e-06
-6.68046e-06
-5.41843e-05
-4.00445e-06
-6.53718e-06
-4.4606e-05
-3.37174e-06
-6.40731e-06
-3.5718e-05
-2.80336e-06
-6.28713e-06
-2.74631e-05
-2.28609e-06
-6.17313e-06
-1.97988e-05
-1.80896e-06
-6.06183e-06
-1.26964e-05
-1.36107e-06
-5.94986e-06
-6.14231e-06
-9.3112e-07
-5.83388e-06
-1.41347e-07
-5.05293e-07
-5.70916e-06
5.25437e-06
-4.13569e-08
-5.57075e-06
1.01402e-05
3.08258e-07
-5.41363e-06
1.44388e-05
7.06332e-07
-5.22806e-06
1.80604e-05
1.154e-06
-5.00258e-06
2.0892e-05
1.65885e-06
-4.72217e-06
2.2786e-05
2.23515e-06
-4.36652e-06
2.35446e-05
2.90466e-06
-3.90774e-06
2.29042e-05
3.70302e-06
-3.31736e-06
2.0501e-05
4.71603e-06
-2.58608e-06
1.51567e-05
6.40672e-06
-1.37945e-06
1.46856e-05
4.8659e-07
-1.67186e-05
-1.71602e-05
-7.92174e-06
-2.83142e-05
-1.23543e-05
-9.74157e-06
-3.66516e-05
-1.35368e-05
-1.03579e-05
-4.48224e-05
-1.46651e-05
-1.00828e-05
-5.07443e-05
-1.27281e-05
-9.82955e-06
-5.48262e-05
-9.96062e-06
-9.71446e-06
-5.6822e-05
-7.7825e-06
-9.78259e-06
-5.73654e-05
-6.15081e-06
-9.86825e-06
-5.66431e-05
-4.77463e-06
-9.92626e-06
-5.5027e-05
-3.63099e-06
-9.95142e-06
-5.26494e-05
-2.67989e-06
-9.93934e-06
-4.96942e-05
-1.86908e-06
-9.90249e-06
-4.62663e-05
-1.18003e-06
-9.84761e-06
-4.24181e-05
-6.00445e-07
-9.78304e-06
-3.82102e-05
-1.35565e-07
-9.7093e-06
-3.39237e-05
5.06046e-07
-9.62803e-06
-2.95766e-05
1.05353e-06
-9.53666e-06
-2.51617e-05
1.51329e-06
-9.43541e-06
-2.06965e-05
1.91684e-06
-9.32443e-06
-1.62036e-05
2.2819e-06
-9.20334e-06
-1.17089e-05
2.6219e-06
-9.07121e-06
-7.2422e-06
2.94936e-06
-8.92615e-06
-2.83648e-06
3.27643e-06
-8.76557e-06
1.47235e-06
3.61588e-06
-8.58576e-06
5.67188e-06
3.98184e-06
-8.38212e-06
9.57472e-06
4.39192e-06
-8.14976e-06
1.31266e-05
4.86591e-06
-7.87893e-06
1.62379e-05
5.42846e-06
-7.55777e-06
1.87804e-05
6.11055e-06
-7.17143e-06
2.0578e-05
6.95422e-06
-6.69965e-06
2.1377e-05
8.02641e-06
-6.11079e-06
2.0754e-05
9.4725e-06
-5.34469e-06
1.77547e-05
1.17703e-05
-4.2615e-06
9.516e-06
1.68296e-05
-2.3719e-06
2.39146e-05
3.51165e-07
-3.07808e-05
1.65776e-05
-3.05537e-06
-4.56638e-05
7.77101e-06
-5.3179e-06
-5.79607e-05
4.03235e-06
-5.33633e-06
-6.89929e-05
1.56781e-06
-5.25943e-06
-7.58476e-05
-7.37756e-07
-5.19196e-06
-7.9124e-05
-1.57746e-06
-5.16624e-06
-8.02581e-05
-1.51658e-06
-5.19479e-06
-8.01141e-05
-1.07733e-06
-5.28472e-06
-7.89683e-05
-5.7901e-07
-5.41303e-06
-7.70787e-05
-3.68205e-08
-5.56021e-06
-7.44611e-05
3.31738e-07
-5.70949e-06
-7.12758e-05
7.1445e-07
-5.85275e-06
-6.76764e-05
1.12012e-06
-5.98721e-06
-6.37856e-05
1.52889e-06
-6.11145e-06
-5.97241e-05
1.93222e-06
-6.22405e-06
-5.53171e-05
2.3252e-06
-6.3244e-06
-5.06638e-05
2.70908e-06
-6.41092e-06
-4.58538e-05
3.08186e-06
-6.48414e-06
-4.09464e-05
3.44447e-06
-6.54415e-06
-3.59874e-05
3.80015e-06
-6.58977e-06
-3.10152e-05
4.15393e-06
-6.62008e-06
-2.60627e-05
4.51324e-06
-6.63555e-06
-2.11608e-05
4.88782e-06
-6.63595e-06
-1.63424e-05
5.29033e-06
-6.61925e-06
-1.16458e-05
5.7369e-06
-6.58194e-06
-7.11787e-06
6.24829e-06
-6.51892e-06
-2.81939e-06
6.85096e-06
-6.423e-06
1.16937e-06
7.57845e-06
-6.28379e-06
4.74102e-06
8.47478e-06
-6.08742e-06
7.74735e-06
9.60273e-06
-5.81408e-06
9.96468e-06
1.10707e-05
-5.43028e-06
1.09754e-05
1.31421e-05
-4.8606e-06
9.79047e-06
1.66652e-05
-3.89907e-06
4.65772e-06
2.38613e-05
-2.01641e-06
2.82441e-05
4.09191e-07
3e-06
1.19073e-05
1.59304e-06
6.1318e-08
9.32596e-06
1.31385e-06
-3.67894e-06
6.53743e-06
1.17569e-06
-7.59567e-06
4.4772e-06
9.54882e-07
-1.21663e-05
3.09912e-06
6.86129e-07
-1.64527e-05
2.2985e-06
3.65173e-07
-1.99442e-05
1.96652e-06
-3.63075e-08
-2.25189e-05
1.811e-06
-3.5975e-07
-2.41838e-05
1.72281e-06
-6.85192e-07
-2.5027e-05
1.73367e-06
-9.79004e-07
-2.5352e-05
1.84392e-06
-1.2412e-06
-2.52408e-05
2.0243e-06
-1.47732e-06
-2.47365e-05
2.24891e-06
-1.6918e-06
-2.3883e-05
2.50279e-06
-1.88865e-06
-2.27215e-05
2.77834e-06
-2.07162e-06
-2.12902e-05
3.07118e-06
-2.24394e-06
-1.9621e-05
3.37881e-06
-2.40829e-06
-1.77452e-05
3.70081e-06
-2.56677e-06
-1.56928e-05
4.03854e-06
-2.72107e-06
-1.34923e-05
4.39459e-06
-2.8724e-06
-1.11701e-05
4.77266e-06
-3.02126e-06
-8.75078e-06
5.17846e-06
-3.16774e-06
-6.26091e-06
5.6226e-06
-3.3109e-06
-3.73345e-06
6.12197e-06
-3.4485e-06
-1.20264e-06
6.68978e-06
-3.57654e-06
1.30083e-06
7.33741e-06
-3.68918e-06
3.74029e-06
8.08932e-06
-3.77856e-06
6.06292e-06
8.98428e-06
-3.83395e-06
8.19048e-06
1.0077e-05
-3.84079e-06
9.99984e-06
1.14546e-05
-3.77884e-06
1.12719e-05
1.3289e-05
-3.61595e-06
1.15507e-05
1.60194e-05
-3.29068e-06
9.76242e-06
2.09645e-05
-2.64621e-06
4.78055e-06
3.00837e-05
-1.29455e-06
3.25658e-05
5.6651e-07
1.41013e-06
8.30046e-06
2.11276e-06
-1.44475e-06
9.3565e-06
2.72834e-06
-6.405e-06
8.79253e-06
2.60805e-06
-1.18388e-05
7.67936e-06
2.13855e-06
-1.67124e-05
6.25784e-06
1.62726e-06
-2.05279e-05
4.83459e-06
1.19654e-06
-2.3129e-05
3.64077e-06
8.47805e-07
-2.47289e-05
2.77775e-06
5.57121e-07
-2.56644e-05
2.27806e-06
3.07249e-07
-2.6195e-05
2.12214e-06
7.10798e-08
-2.65152e-05
2.20197e-06
-1.07994e-07
-2.66636e-05
2.37331e-06
-2.70218e-07
-2.66175e-05
2.55825e-06
-4.24908e-07
-2.63563e-05
2.74011e-06
-5.67861e-07
-2.58686e-05
2.92007e-06
-6.98998e-07
-2.51461e-05
3.09894e-06
-8.20156e-07
-2.41814e-05
3.2778e-06
-9.34218e-07
-2.29678e-05
3.46031e-06
-1.04449e-06
-2.15005e-05
3.65299e-06
-1.15422e-06
-1.97791e-05
3.86566e-06
-1.26642e-06
-1.78111e-05
4.11291e-06
-1.38372e-06
-1.56171e-05
4.41539e-06
-1.5083e-06
-1.32306e-05
4.79777e-06
-1.64112e-06
-1.06946e-05
5.28637e-06
-1.78243e-06
-8.06195e-06
5.90407e-06
-1.93179e-06
-5.39469e-06
6.66795e-06
-2.08636e-06
-2.76032e-06
7.60209e-06
-2.24003e-06
-2.36325e-07
8.74547e-06
-2.38299e-06
2.07742e-06
1.016e-05
-2.50007e-06
4.03462e-06
1.19554e-05
-2.5674e-06
5.39107e-06
1.43619e-05
-2.54501e-06
5.695e-06
1.79552e-05
-2.35936e-06
4.22471e-06
2.41583e-05
-1.82747e-06
1.50074e-06
3.34594e-05
-6.57462e-07
3.34767e-05
7.0428e-07
3.61234e-06
1.73269e-06
2.86773e-06
4.82259e-06
3.97492e-06
4.05967e-06
4.73629e-06
4.36569e-06
4.39841e-06
3.98746e-06
3.87734e-06
4.43973e-06
2.87414e-06
2.92312e-06
4.34532e-06
1.58778e-06
1.87144e-06
4.15925e-06
2.40239e-07
1.00567e-06
3.90459e-06
-1.09471e-06
4.40604e-07
3.60271e-06
-2.34557e-06
1.96057e-07
3.26811e-06
-3.44279e-06
2.36859e-07
2.91903e-06
-4.3614e-06
4.81601e-07
2.57279e-06
-5.1025e-06
8.01151e-07
2.24218e-06
-5.64857e-06
1.08685e-06
1.94151e-06
-5.95138e-06
1.28376e-06
1.67959e-06
-5.94518e-06
1.37949e-06
1.4529e-06
-5.57645e-06
1.39767e-06
1.25056e-06
-4.83303e-06
1.39266e-06
1.0602e-06
-3.76642e-06
1.44243e-06
8.70845e-07
-2.49794e-06
1.62833e-06
6.76989e-07
-1.25773e-06
2.06871e-06
4.77906e-07
-2.62793e-07
2.76286e-06
2.75237e-07
4.67719e-07
3.54155e-06
6.18573e-08
1.01652e-06
4.27039e-06
-1.04424e-07
1.52879e-06
4.95683e-06
-2.67094e-07
2.106e-06
5.68016e-06
-4.39024e-07
2.78995e-06
6.51553e-06
-6.19244e-07
3.59119e-06
7.5173e-06
-8.07126e-07
4.50298e-06
8.7386e-06
-9.99841e-07
5.49224e-06
1.02604e-05
-1.19072e-06
6.47346e-06
1.22308e-05
-1.36662e-06
7.2428e-06
1.49751e-05
-1.50532e-06
7.27651e-06
1.93301e-05
-1.54485e-06
5.42844e-06
2.71786e-05
-1.29177e-06
2.19288e-06
3.71338e-05
-4.37677e-07
3.51313e-05
6.70563e-07
2.20663e-06
-4.23009e-06
3.73065e-06
5.99221e-06
-5.13825e-06
5.32166e-06
1.07529e-05
-5.98817e-06
5.60912e-06
1.60709e-05
-6.98927e-06
5.59263e-06
2.1479e-05
-7.91031e-06
5.49845e-06
2.66969e-05
-8.61995e-06
5.3735e-06
3.16419e-05
-9.04066e-06
5.22498e-06
3.62998e-05
-9.12804e-06
5.05406e-06
4.06554e-05
-8.86217e-06
4.86146e-06
4.46459e-05
-8.24042e-06
4.65581e-06
4.81275e-05
-7.28111e-06
4.45307e-06
5.0857e-05
-6.02838e-06
4.26451e-06
5.25435e-05
-4.53834e-06
4.08233e-06
5.29181e-05
-2.85856e-06
3.8757e-06
5.17574e-05
-1.00524e-06
3.60514e-06
4.91449e-05
7.5559e-07
3.26113e-06
4.52253e-05
2.38135e-06
2.88633e-06
4.02174e-05
3.81523e-06
2.5508e-06
3.44337e-05
5.01467e-06
2.29966e-06
2.83726e-05
5.93003e-06
2.12215e-06
2.27893e-05
6.35083e-06
1.95193e-06
1.83248e-05
6.244e-06
1.73411e-06
1.51873e-05
5.89654e-06
1.47618e-06
1.32092e-05
5.67661e-06
1.20899e-06
1.20535e-05
5.83212e-06
9.43494e-07
1.13954e-05
6.42951e-06
6.76677e-07
1.1003e-05
7.42904e-06
4.07508e-07
1.07331e-05
8.79557e-06
1.33975e-07
1.0448e-05
1.05612e-05
-1.01526e-07
1.0003e-05
1.28713e-05
-2.90569e-07
9.21051e-06
1.6112e-05
-4.52027e-07
7.71965e-06
2.12507e-05
-5.55911e-07
5.08121e-06
3.01753e-05
-4.92229e-07
2.09789e-06
4.01187e-05
-4.4628e-08
3.66095e-05
7.184e-07
-3.65983e-06
-4.99236e-06
4.43533e-06
-1.39044e-06
-1.32502e-05
5.92682e-06
5.17297e-06
-1.8439e-05
6.01042e-06
1.4166e-05
-2.17316e-05
5.90466e-06
2.43674e-05
-2.372e-05
5.79404e-06
3.50151e-05
-2.47612e-05
5.70811e-06
4.56214e-05
-2.50534e-05
5.64855e-06
5.58584e-05
-2.47058e-05
5.61087e-06
6.54857e-05
-2.37771e-05
5.58725e-06
7.42983e-05
-2.22927e-05
5.57235e-06
8.20967e-05
-2.02733e-05
5.56464e-06
8.86808e-05
-1.7761e-05
5.56578e-06
9.38374e-05
-1.47952e-05
5.57923e-06
9.73186e-05
-1.13891e-05
5.60607e-06
9.88843e-05
-7.57485e-06
5.64356e-06
9.81675e-05
-3.47137e-06
5.67433e-06
9.48166e-05
8.53398e-07
5.66761e-06
8.85547e-05
5.25258e-06
5.6055e-06
7.99962e-05
8.90631e-06
5.40334e-06
6.99861e-05
1.15814e-05
4.90382e-06
5.94268e-05
1.29131e-05
4.16041e-06
4.90496e-05
1.30158e-05
3.41714e-06
3.93794e-05
1.24465e-05
2.76994e-06
3.07541e-05
1.17579e-05
2.18736e-06
2.33993e-05
1.12047e-05
1.69e-06
1.75333e-05
1.07728e-05
1.30353e-06
1.32785e-05
1.05309e-05
9.8916e-07
1.04644e-05
1.08023e-05
6.76546e-07
8.77239e-06
1.18192e-05
3.16642e-07
7.90179e-06
1.36959e-05
-7.68059e-08
7.24676e-06
1.69927e-05
-3.81973e-07
5.6879e-06
2.31289e-05
-5.56864e-07
2.60642e-06
3.33588e-05
-4.27422e-07
5.2751e-07
4.19272e-05
7.70333e-08
3.6592e-05
6.25123e-07
9.45221e-07
-8.33825e-06
2.2735e-06
7.32579e-06
-2.21423e-05
2.30584e-06
1.62108e-05
-2.96698e-05
2.13876e-06
2.57822e-05
-3.35688e-05
2.07891e-06
3.53069e-05
-3.54496e-05
2.03871e-06
4.45084e-05
-3.61056e-05
1.99425e-06
5.32656e-05
-3.58867e-05
1.94332e-06
6.14974e-05
-3.49438e-05
1.88824e-06
6.91131e-05
-3.33291e-05
1.83323e-06
7.59858e-05
-3.10355e-05
1.78299e-06
8.19955e-05
-2.80978e-05
1.74544e-06
8.71387e-05
-2.46946e-05
1.74016e-06
9.15151e-05
-2.09972e-05
1.79719e-06
9.51853e-05
-1.70027e-05
1.94562e-06
9.80663e-05
-1.26112e-05
2.20176e-06
9.99874e-05
-7.82967e-06
2.55878e-06
0.000100993
-2.90137e-06
2.98404e-06
0.000101087
2.06468e-06
3.4397e-06
9.99033e-05
6.64463e-06
3.88105e-06
9.73028e-05
1.04084e-05
4.23612e-06
9.28621e-05
1.33047e-05
4.44555e-06
8.62746e-05
1.53722e-05
4.51316e-06
7.76443e-05
1.6775e-05
4.47514e-06
6.74853e-05
1.7634e-05
4.36723e-06
5.65526e-05
1.79445e-05
4.19396e-06
4.56795e-05
1.76513e-05
3.90362e-06
3.5686e-05
1.68813e-05
3.46761e-06
2.72104e-05
1.61269e-05
2.93926e-06
2.05269e-05
1.5927e-05
2.37161e-06
1.56272e-05
1.66476e-05
1.76465e-06
1.23647e-05
1.89866e-05
1.10883e-06
9.9756e-06
2.4934e-05
4.53342e-07
6.62011e-06
3.6548e-05
4.99758e-08
2.84487e-06
4.54332e-05
2.15855e-07
3.89856e-05
5.39261e-07
6.39511e-06
-1.58343e-05
9.31404e-07
1.6232e-05
-3.28225e-05
6.58686e-07
2.57924e-05
-4.01222e-05
7.44908e-07
3.41764e-05
-4.30318e-05
9.74264e-07
4.14371e-05
-4.39126e-05
1.13129e-06
4.77356e-05
-4.36492e-05
1.19915e-06
5.31623e-05
-4.25283e-05
1.18822e-06
5.772e-05
-4.06217e-05
1.10823e-06
6.13331e-05
-3.79087e-05
9.65343e-07
6.38451e-05
-3.42978e-05
7.58173e-07
6.51663e-05
-2.9889e-05
4.87231e-07
6.55473e-05
-2.52585e-05
2.02214e-07
6.54364e-05
-2.08742e-05
-6.6809e-09
6.50902e-05
-1.66207e-05
-5.93124e-08
6.44313e-05
-1.20867e-05
7.34305e-08
6.32504e-05
-7.10331e-06
3.64992e-07
6.15195e-05
-2.00727e-06
7.55644e-07
6.00112e-05
2.3378e-06
1.20393e-06
5.90635e-05
5.94202e-06
1.6774e-06
5.83976e-05
8.98646e-06
2.14497e-06
5.75914e-05
1.15846e-05
2.56984e-06
5.62006e-05
1.3843e-05
2.92361e-06
5.39273e-05
1.58078e-05
3.20619e-06
5.0651e-05
1.74354e-05
3.41658e-06
4.63572e-05
1.86398e-05
3.52924e-06
4.10461e-05
1.9378e-05
3.51526e-06
3.48289e-05
1.96743e-05
3.3628e-06
2.81322e-05
1.96723e-05
3.09077e-06
2.15427e-05
1.97182e-05
2.72416e-06
1.55661e-05
2.02649e-05
2.26434e-06
1.06025e-05
2.21237e-05
1.70091e-06
6.48772e-06
2.78548e-05
1.03732e-06
2.97476e-06
3.94467e-05
4.80464e-07
9.15152e-07
4.7093e-05
3.93309e-07
3.9531e-05
4.94513e-07
8.4313e-06
-2.41936e-05
-8.75979e-08
1.82136e-05
-4.21388e-05
-4.20933e-07
2.64013e-05
-4.79224e-05
-3.40499e-07
3.28563e-05
-4.94241e-05
-2.96519e-08
3.78068e-05
-4.9158e-05
3.19515e-07
4.14003e-05
-4.77706e-05
5.50955e-07
4.35632e-05
-4.53466e-05
6.8187e-07
4.41026e-05
-4.1852e-05
7.21408e-07
4.29193e-05
-3.7372e-05
6.77928e-07
4.01765e-05
-3.20526e-05
5.34071e-07
3.64696e-05
-2.63697e-05
2.48476e-07
3.27599e-05
-2.13712e-05
-8.4806e-08
2.98446e-05
-1.75324e-05
-3.14766e-07
2.7954e-05
-1.43012e-05
-3.10204e-07
2.69662e-05
-1.09302e-05
-5.37012e-08
2.6637e-05
-7.00231e-06
3.21856e-07
2.68368e-05
-2.87621e-06
7.31827e-07
2.7353e-05
7.77405e-07
1.08249e-06
2.81364e-05
3.79549e-06
1.38771e-06
2.90924e-05
6.36444e-06
1.68212e-06
2.98711e-05
8.84173e-06
1.97187e-06
3.00677e-05
1.14127e-05
2.23653e-06
2.94324e-05
1.39959e-05
2.45785e-06
2.79985e-05
1.62565e-05
2.64503e-06
2.59887e-05
1.79331e-05
2.77443e-06
2.35812e-05
1.9047e-05
2.81645e-06
2.08276e-05
1.97425e-05
2.76824e-06
1.77467e-05
2.01781e-05
2.63805e-06
1.44634e-05
2.05925e-05
2.43607e-06
1.12194e-05
2.13424e-05
2.15644e-06
8.26523e-06
2.32648e-05
1.76801e-06
5.39088e-06
2.94364e-05
1.23542e-06
2.16918e-06
4.19704e-05
6.55042e-07
5.27607e-07
4.83945e-05
3.96139e-07
3.98529e-05
3.56025e-07
9.72684e-06
-3.35523e-05
-2.63978e-07
1.69567e-05
-4.90426e-05
-1.56632e-07
2.16029e-05
-5.18769e-05
-5.62352e-07
2.48004e-05
-5.16477e-05
-8.78111e-07
2.68246e-05
-5.01302e-05
-9.68433e-07
2.74832e-05
-4.74193e-05
-9.24829e-07
2.63401e-05
-4.32765e-05
-8.39325e-07
2.3196e-05
-3.78599e-05
-7.76154e-07
1.85554e-05
-3.1961e-05
-7.45172e-07
1.34577e-05
-2.62137e-05
-7.79852e-07
9.08403e-06
-2.11024e-05
-9.82093e-07
6.16496e-06
-1.72873e-05
-1.27124e-06
4.6798e-06
-1.47205e-05
-1.42992e-06
4.3655e-06
-1.26669e-05
-1.41089e-06
5.02483e-06
-1.04502e-05
-1.2106e-06
6.31159e-06
-7.56139e-06
-7.71334e-07
7.60847e-06
-4.02802e-06
-1.62527e-07
8.49101e-06
-4.71253e-07
3.64707e-07
9.17212e-06
2.33771e-06
7.82837e-07
9.78181e-06
4.63802e-06
1.12673e-06
1.04091e-05
6.80553e-06
1.42007e-06
1.10081e-05
9.15439e-06
1.67123e-06
1.14612e-05
1.16805e-05
1.88036e-06
1.1694e-05
1.40165e-05
2.03931e-06
1.17102e-05
1.58123e-05
2.15057e-06
1.154e-05
1.70673e-05
2.20231e-06
1.11681e-05
1.79733e-05
2.18955e-06
1.05374e-05
1.87295e-05
2.11461e-06
9.61159e-06
1.95503e-05
1.98532e-06
8.3619e-06
2.0792e-05
1.79648e-06
6.58969e-06
2.34741e-05
1.53411e-06
4.0234e-06
3.07801e-05
1.20008e-06
1.31758e-06
4.39149e-05
7.70828e-07
2.61613e-07
4.90893e-05
4.54557e-07
3.99885e-05
2.83932e-07
2.65547e-06
-3.66631e-05
6.54942e-07
5.7039e-07
-4.8129e-05
1.33471e-06
-2.69298e-06
-4.94207e-05
8.98536e-07
-5.71868e-06
-4.88306e-05
2.91378e-07
-8.38717e-06
-4.7147e-05
-2.07988e-07
-1.09611e-05
-4.41183e-05
-5.89266e-07
-1.3777e-05
-3.94174e-05
-8.92397e-07
-1.67575e-05
-3.3613e-05
-1.1496e-06
-1.9244e-05
-2.8106e-05
-1.32014e-06
-2.04574e-05
-2.36129e-05
-1.39867e-06
-2.0064e-05
-2.00723e-05
-1.46019e-06
-1.851e-05
-1.73772e-05
-1.50336e-06
-1.649e-05
-1.52879e-05
-1.49449e-06
-1.42868e-05
-1.34745e-05
-1.443e-06
-1.18309e-05
-1.16241e-05
-1.33574e-06
-8.93351e-06
-9.40019e-06
-1.11633e-06
-5.74769e-06
-6.54109e-06
-7.27545e-07
-2.849e-06
-3.16776e-06
-2.45843e-07
-9.44533e-07
2.31676e-07
1.70175e-07
2.65817e-07
2.9155e-06
4.87367e-07
1.0489e-06
5.24667e-06
7.50728e-07
1.80293e-06
7.38546e-06
9.82828e-07
2.70355e-06
9.54044e-06
1.19438e-06
3.63254e-06
1.16398e-05
1.39192e-06
4.40978e-06
1.34236e-05
1.55555e-06
4.98937e-06
1.47722e-05
1.66582e-06
5.39391e-06
1.57954e-05
1.72813e-06
5.64447e-06
1.66932e-05
1.74074e-06
5.75659e-06
1.76985e-05
1.69126e-06
5.69349e-06
1.92394e-05
1.56225e-06
5.1002e-06
2.26595e-05
1.35419e-06
3.00647e-06
3.17544e-05
1.09058e-06
5.37338e-07
4.56625e-05
7.4122e-07
3.3423e-09
4.93076e-05
4.15939e-07
3.99546e-05
2.01805e-07
-6.58706e-06
-3.13744e-05
1.24752e-06
-1.38162e-05
-4.27413e-05
1.65362e-06
-1.96254e-05
-4.53187e-05
1.47624e-06
-2.3928e-05
-4.59314e-05
1.15345e-06
-2.66375e-05
-4.5502e-05
7.96192e-07
-2.74588e-05
-4.39913e-05
4.05524e-07
-2.60191e-05
-4.11388e-05
-2.68147e-08
-2.25597e-05
-3.69889e-05
-3.86285e-07
-1.80601e-05
-3.21551e-05
-7.03483e-07
-1.3592e-05
-2.7368e-05
-8.92412e-07
-9.75373e-06
-2.30432e-05
-9.81772e-07
-6.82672e-06
-1.93465e-05
-1.02838e-06
-4.7791e-06
-1.63219e-05
-1.05968e-06
-3.3119e-06
-1.39006e-05
-1.07559e-06
-2.00999e-06
-1.18896e-05
-1.06673e-06
-4.06499e-07
-1.00181e-05
-1.01488e-06
1.88863e-06
-7.98125e-06
-8.84243e-07
4.82103e-06
-5.49761e-06
-6.30865e-07
7.76863e-06
-2.46857e-06
-2.72193e-07
9.75036e-06
8.17359e-07
9.59204e-08
1.06962e-05
3.85818e-06
4.22275e-07
1.09842e-05
6.41304e-06
6.58118e-07
1.11369e-05
8.50258e-06
8.4589e-07
1.13597e-05
1.03501e-05
1.00757e-06
1.14921e-05
1.20543e-05
1.15547e-06
1.1312e-05
1.35653e-05
1.29017e-06
1.07651e-05
1.48376e-05
1.40166e-06
9.93774e-06
1.59329e-05
1.48377e-06
8.95596e-06
1.70524e-05
1.52521e-06
7.91695e-06
1.86872e-05
1.49038e-06
6.63999e-06
2.2487e-05
1.35538e-06
4.13271e-06
3.30083e-05
1.16827e-06
1.49937e-06
4.73762e-05
8.69925e-07
5.44805e-07
4.98352e-05
4.99258e-07
4.04478e-05
2.26192e-07
-7.66597e-06
-2.49135e-05
9.42118e-07
-1.21573e-05
-3.90135e-05
5.19806e-07
-1.4422e-05
-4.37559e-05
5.22831e-07
-1.55552e-05
-4.55164e-05
5.64654e-07
-1.57568e-05
-4.6045e-05
5.94428e-07
-1.47893e-05
-4.57435e-05
6.24132e-07
-1.21799e-05
-4.45974e-05
6.67977e-07
-7.67429e-06
-4.2407e-05
7.1365e-07
-1.71434e-06
-3.90184e-05
7.0548e-07
4.64765e-06
-3.45269e-05
6.19868e-07
1.03591e-05
-2.93726e-05
4.74142e-07
1.47993e-05
-2.41844e-05
2.90292e-07
1.77079e-05
-1.93876e-05
8.18919e-08
1.90538e-05
-1.52131e-05
-8.39377e-08
1.91269e-05
-1.17731e-05
-2.24382e-07
1.84759e-05
-9.05508e-06
-3.37134e-07
1.77721e-05
-6.89226e-06
-4.03342e-07
1.76337e-05
-4.97181e-06
-3.98008e-07
1.83625e-05
-2.92031e-06
-2.78313e-07
1.97062e-05
-4.88252e-07
-2.877e-08
2.07862e-05
2.42358e-06
3.70737e-07
2.11162e-05
5.39231e-06
7.02985e-07
2.0632e-05
8.06539e-06
9.21155e-07
1.96631e-05
1.02463e-05
1.05684e-06
1.85074e-05
1.20291e-05
1.14738e-06
1.72017e-05
1.35999e-05
1.21703e-06
1.56408e-05
1.5038e-05
1.28711e-06
1.37513e-05
1.63685e-05
1.36659e-06
1.15707e-05
1.76941e-05
1.44248e-06
9.26581e-06
1.94163e-05
1.47226e-06
7.07864e-06
2.31684e-05
1.40395e-06
4.48048e-06
3.427e-05
1.25539e-06
1.92238e-06
4.89337e-05
9.58337e-07
7.27972e-07
5.05465e-05
5.39003e-07
4.10788e-05
2.40336e-07
9.61713e-07
-2.54912e-05
-4.83863e-07
4.3043e-06
-4.10157e-05
-1.47484e-06
7.69527e-06
-4.59217e-05
-1.3023e-06
1.0404e-05
-4.71971e-05
-1.06066e-06
1.23334e-05
-4.70556e-05
-9.17019e-07
1.33723e-05
-4.5887e-05
-8.57027e-07
1.34544e-05
-4.37583e-05
-8.50941e-07
1.29375e-05
-4.09751e-05
-8.38607e-07
1.27186e-05
-3.80119e-05
-7.40841e-07
1.36905e-05
-3.4978e-05
-5.22631e-07
1.61759e-05
-3.1647e-05
-2.51206e-07
1.98574e-05
-2.79276e-05
1.25929e-09
2.39541e-05
-2.37724e-05
2.23552e-07
2.76117e-05
-1.92611e-05
3.33516e-07
3.01349e-05
-1.46756e-05
3.35891e-07
3.11794e-05
-1.03818e-05
2.50995e-07
3.08789e-05
-6.73548e-06
1.19815e-07
2.98268e-05
-3.92881e-06
-1.14365e-08
2.87811e-05
-1.8147e-06
-7.68417e-08
2.83999e-05
-3.12102e-08
-8.53032e-08
2.87755e-05
2.04545e-06
7.18199e-09
2.93249e-05
4.55978e-06
3.04462e-07
2.93081e-05
7.43892e-06
6.72235e-07
2.83881e-05
1.01984e-05
9.87689e-07
2.67508e-05
1.24737e-05
1.19333e-06
2.46866e-05
1.43343e-05
1.31019e-06
2.23042e-05
1.60142e-05
1.3677e-06
1.9573e-05
1.76486e-05
1.39564e-06
1.64893e-05
1.92867e-05
1.42242e-06
1.31672e-05
2.12187e-05
1.44144e-06
9.85941e-06
2.49889e-05
1.40821e-06
6.49914e-06
3.62404e-05
1.34643e-06
3.45594e-06
5.08516e-05
1.12512e-06
1.42878e-06
5.19773e-05
6.69501e-07
4.23321e-05
3.17165e-07
3.25318e-06
-2.79028e-05
-1.03934e-06
8.97576e-06
-4.491e-05
-1.87575e-06
1.45162e-05
-4.96904e-05
-1.69799e-06
1.91389e-05
-5.0275e-05
-1.42104e-06
2.26396e-05
-4.9146e-05
-1.25202e-06
2.49174e-05
-4.67669e-05
-1.2134e-06
2.61071e-05
-4.34403e-05
-1.31514e-06
2.64349e-05
-3.95731e-05
-1.54083e-06
2.6031e-05
-3.56139e-05
-1.8163e-06
2.51519e-05
-3.19209e-05
-2.02792e-06
2.44089e-05
-2.87005e-05
-2.0986e-06
2.45044e-05
-2.59757e-05
-1.99422e-06
2.58526e-05
-2.34106e-05
-1.70352e-06
2.83872e-05
-2.05433e-05
-1.27743e-06
3.15558e-05
-1.70715e-05
-8.12211e-07
3.44384e-05
-1.28988e-05
-4.04683e-07
3.61174e-05
-8.30865e-06
-1.36472e-07
3.62184e-05
-4.02374e-06
-2.94301e-08
3.51078e-05
-7.02086e-07
-2.26371e-08
3.33545e-05
1.74536e-06
-4.31451e-08
3.17855e-05
3.63819e-06
-4.05254e-08
3.08032e-05
5.49833e-06
3.68586e-08
3.02508e-05
7.74604e-06
2.55138e-07
2.94612e-05
1.04255e-05
5.83781e-07
2.79421e-05
1.30891e-05
9.2308e-07
2.5734e-05
1.53526e-05
1.19795e-06
2.30874e-05
1.72657e-05
1.38807e-06
2.01735e-05
1.90369e-05
1.49992e-06
1.7062e-05
2.07927e-05
1.55687e-06
1.38143e-05
2.28252e-05
1.56231e-06
1.0426e-05
2.67774e-05
1.46598e-06
6.51075e-06
3.86564e-05
1.33027e-06
3.38302e-06
5.27961e-05
1.14598e-06
1.28007e-06
5.34256e-05
7.08548e-07
4.34081e-05
3.229e-07
1.03246e-05
-3.62187e-05
-1.79159e-06
1.84553e-05
-4.97554e-05
-2.72824e-06
2.37147e-05
-5.17213e-05
-2.72292e-06
2.67074e-05
-5.02018e-05
-2.61377e-06
2.72867e-05
-4.6664e-05
-2.61132e-06
2.59934e-05
-4.23198e-05
-2.70946e-06
2.38972e-05
-3.81255e-05
-2.82307e-06
2.2075e-05
-3.45454e-05
-2.88754e-06
2.102e-05
-3.14042e-05
-2.91673e-06
2.05405e-05
-2.8294e-05
-2.97217e-06
2.02844e-05
-2.52449e-05
-3.0694e-06
2.01386e-05
-2.25911e-05
-3.14589e-06
2.03311e-05
-2.04044e-05
-3.13884e-06
2.12382e-05
-1.84096e-05
-3.01248e-06
2.3062e-05
-1.61823e-05
-2.71742e-06
2.55909e-05
-1.32442e-05
-2.21658e-06
2.811e-05
-9.28854e-06
-1.58476e-06
2.97766e-05
-4.72385e-06
-1.00765e-06
3.03202e-05
-6.54329e-07
-6.23646e-07
2.9926e-05
2.52856e-06
-4.16167e-07
2.90861e-05
4.7496e-06
-2.96018e-07
2.81488e-05
6.60418e-06
-1.88498e-07
2.73264e-05
8.58964e-06
-2.96816e-08
2.6518e-05
1.10269e-05
2.17055e-07
2.53359e-05
1.37409e-05
5.51009e-07
2.36169e-05
1.62201e-05
8.66553e-07
2.14791e-05
1.82979e-05
1.10657e-06
1.90669e-05
2.01676e-05
1.26597e-06
1.6419e-05
2.20438e-05
1.36331e-06
1.35451e-05
2.4221e-05
1.41959e-06
1.04323e-05
2.83713e-05
1.4012e-06
6.7369e-06
4.08482e-05
1.29105e-06
3.5446e-06
5.47689e-05
1.12191e-06
1.35099e-06
5.4926e-05
6.98784e-07
4.45526e-05
2.90191e-07
1.1776e-05
-4.55162e-05
-1.52402e-06
1.67345e-05
-5.16968e-05
-2.32642e-06
1.81863e-05
-4.98792e-05
-2.81945e-06
1.63289e-05
-4.46979e-05
-3.25354e-06
1.18884e-05
-3.80676e-05
-3.83744e-06
6.79966e-06
-3.2639e-05
-4.40755e-06
2.31974e-06
-2.87589e-05
-4.83595e-06
-1.09009e-06
-2.61394e-05
-5.04952e-06
-3.20731e-06
-2.43611e-05
-5.04138e-06
-3.83189e-06
-2.29164e-05
-4.88853e-06
-3.07826e-06
-2.14401e-05
-4.67912e-06
-1.48046e-06
-1.98129e-05
-4.46547e-06
3.66336e-07
-1.80543e-05
-4.26027e-06
2.11477e-06
-1.61537e-05
-4.05274e-06
3.70495e-06
-1.40024e-05
-3.81215e-06
5.26166e-06
-1.13728e-05
-3.47295e-06
6.89038e-06
-8.01536e-06
-2.95841e-06
8.54393e-06
-4.11156e-06
-2.3288e-06
9.94993e-06
-3.53478e-07
-1.76528e-06
1.14279e-05
2.35385e-06
-1.35407e-06
1.26943e-05
4.4984e-06
-1.0604e-06
1.37158e-05
6.35946e-06
-8.1747e-07
1.45677e-05
8.27221e-06
-5.68647e-07
1.53123e-05
1.05186e-05
-2.57506e-07
1.57951e-05
1.31287e-05
1.24675e-07
1.57925e-05
1.57264e-05
5.00954e-07
1.52396e-05
1.80298e-05
8.26574e-07
1.41992e-05
2.01463e-05
1.06499e-06
1.26944e-05
2.23429e-05
1.20521e-06
1.06334e-05
2.50124e-05
1.25285e-06
7.66734e-06
3.00405e-05
1.21036e-06
4.12469e-06
4.30591e-05
1.11677e-06
1.69968e-06
5.60691e-05
9.89e-07
3.48143e-07
5.5634e-05
5.96693e-07
4.47376e-05
1.91442e-07
-4.51113e-06
-4.11265e-05
3.44215e-07
-1.06532e-05
-4.58161e-05
2.55289e-07
-1.62241e-05
-4.33851e-05
-9.59064e-07
-2.11122e-05
-3.72584e-05
-2.62133e-06
-2.43047e-05
-3.10285e-05
-4.08898e-06
-2.55747e-05
-2.67883e-05
-4.90994e-06
-2.5278e-05
-2.41439e-05
-5.24513e-06
-2.391e-05
-2.25062e-05
-5.31294e-06
-2.20291e-05
-2.12765e-05
-5.24822e-06
-1.99823e-05
-2.01004e-05
-5.1139e-06
-1.79045e-05
-1.8802e-05
-4.93405e-06
-1.59049e-05
-1.7277e-05
-4.71982e-06
-1.4174e-05
-1.54591e-05
-4.47789e-06
-1.29041e-05
-1.33381e-05
-4.20922e-06
-1.21339e-05
-1.09699e-05
-3.90516e-06
-1.16225e-05
-8.42206e-06
-3.55035e-06
-1.08362e-05
-5.7375e-06
-3.14464e-06
-9.2594e-06
-3.03923e-06
-2.72402e-06
-6.82537e-06
-5.19574e-07
-2.33567e-06
-4.07801e-06
1.53937e-06
-1.99404e-06
-1.36932e-06
3.41913e-06
-1.68582e-06
1.06773e-06
5.25855e-06
-1.38876e-06
3.1417e-06
7.2237e-06
-1.07344e-06
4.85485e-06
9.46894e-06
-7.03356e-07
6.22804e-06
1.19858e-05
-2.58718e-07
7.24192e-06
1.44967e-05
1.95047e-07
7.89825e-06
1.67665e-05
5.85473e-07
8.2327e-06
1.88853e-05
9.00466e-07
8.2413e-06
2.11879e-05
1.11646e-06
7.64479e-06
2.4367e-05
1.20353e-06
5.68749e-06
3.07787e-05
1.13936e-06
2.63279e-06
4.49118e-05
1.01874e-06
7.39131e-07
5.69274e-05
9.05333e-07
-1.18904e-07
5.58961e-05
5.36724e-07
4.44904e-05
1.31831e-07
-1.16614e-05
-3.17974e-05
1.71939e-06
-1.76732e-05
-4.27582e-05
2.50641e-06
-2.01068e-05
-4.31723e-05
1.75971e-06
-1.77617e-05
-4.04904e-05
3.90094e-07
-1.23241e-05
-3.61403e-05
-6.66539e-07
-8.02385e-06
-2.97318e-05
-1.53494e-06
-6.7692e-06
-2.32413e-05
-2.26179e-06
-7.38711e-06
-1.91766e-05
-2.79323e-06
-8.64238e-06
-1.6952e-05
-3.14694e-06
-1.01225e-05
-1.53358e-05
-3.36554e-06
-1.17414e-05
-1.3792e-05
-3.47725e-06
-1.34038e-05
-1.22062e-05
-3.49807e-06
-1.49272e-05
-1.05855e-05
-3.43948e-06
-1.60872e-05
-8.94413e-06
-3.31887e-06
-1.66621e-05
-7.30949e-06
-3.16361e-06
-1.64436e-05
-5.71579e-06
-2.99633e-06
-1.52892e-05
-4.13908e-06
-2.8192e-06
-1.32391e-05
-2.52779e-06
-2.62457e-06
-1.05351e-05
-8.73273e-07
-2.41063e-06
-7.65557e-06
7.79645e-07
-2.17748e-06
-4.82869e-06
2.45995e-06
-1.9227e-06
-2.21598e-06
4.23882e-06
-1.645e-06
7.10097e-08
6.22636e-06
-1.33759e-06
1.96332e-06
8.52455e-06
-9.89306e-07
3.40795e-06
1.11103e-05
-6.01316e-07
4.34731e-06
1.37366e-05
-2.03778e-07
4.76793e-06
1.61506e-05
1.73073e-07
4.72159e-06
1.83788e-05
5.30137e-07
4.34229e-06
2.06843e-05
8.6528e-07
3.78295e-06
2.3818e-05
1.12202e-06
2.806e-06
3.06776e-05
1.18026e-06
9.74054e-07
4.57459e-05
1.05613e-06
-1.97589e-07
5.7138e-05
9.28203e-07
-5.84318e-07
5.57156e-05
5.67124e-07
4.38021e-05
1.498e-07
1.0951e-06
-3.50548e-05
1.92246e-06
3.58546e-06
-4.85131e-05
3.05925e-06
6.91533e-06
-4.99995e-05
3.44129e-06
1.07686e-05
-4.78704e-05
3.49982e-06
1.41991e-05
-4.29403e-05
3.27938e-06
1.59204e-05
-3.41552e-05
2.63651e-06
1.37896e-05
-2.25973e-05
1.48105e-06
8.75686e-06
-1.43655e-05
2.34977e-07
3.30183e-06
-1.08809e-05
-6.11834e-07
-1.4643e-06
-9.37096e-06
-1.20697e-06
-5.33147e-06
-8.3154e-06
-1.62772e-06
-8.26644e-06
-7.37326e-06
-1.92373e-06
-1.02444e-05
-6.51374e-06
-2.12465e-06
-1.1276e-05
-5.69851e-06
-2.24847e-06
-1.14653e-05
-4.85099e-06
-2.30675e-06
-1.10037e-05
-3.91026e-06
-2.30728e-06
-1.008e-05
-2.84889e-06
-2.25608e-06
-8.80963e-06
-1.68233e-06
-2.15967e-06
-7.23498e-06
-4.68426e-07
-2.02455e-06
-5.50577e-06
8.59398e-07
-1.85458e-06
-3.69991e-06
2.25766e-06
-1.64912e-06
-1.89264e-06
3.78634e-06
-1.39933e-06
-1.65201e-07
5.54901e-06
-1.09201e-06
1.39909e-06
7.6461e-06
-7.22374e-07
2.69072e-06
1.01001e-05
-3.08492e-07
3.57649e-06
1.27422e-05
9.42492e-08
3.96972e-06
1.53151e-05
4.39504e-07
3.90433e-06
1.77876e-05
6.61722e-07
3.32063e-06
2.0436e-05
8.5e-07
2.31594e-06
2.3833e-05
1.08863e-06
1.86334e-06
3.02545e-05
1.29004e-06
1.45244e-06
4.55685e-05
1.26114e-06
5.60939e-07
5.72267e-05
1.12433e-06
-2.07398e-08
5.57562e-05
7.72398e-07
4.36767e-05
3.15487e-07
1.03278e-05
-4.6129e-05
1.4037e-06
1.28331e-05
-5.23472e-05
1.92158e-06
1.11621e-05
-4.95455e-05
1.80465e-06
4.63086e-06
-4.21687e-05
1.4247e-06
-3.76181e-06
-3.54362e-05
1.35089e-06
-1.08356e-05
-2.85602e-05
1.69591e-06
-1.5663e-05
-1.92628e-05
1.52525e-06
-1.84549e-05
-1.2199e-05
5.7439e-07
-1.96132e-05
-9.544e-06
-2.43919e-07
-1.9915e-05
-8.41211e-06
-7.02608e-07
-1.96335e-05
-7.61817e-06
-1.01254e-06
-1.88878e-05
-6.89296e-06
-1.2567e-06
-1.78179e-05
-6.15967e-06
-1.45443e-06
-1.6563e-05
-5.37824e-06
-1.60673e-06
-1.5204e-05
-4.52752e-06
-1.71537e-06
-1.37643e-05
-3.60254e-06
-1.78168e-06
-1.22393e-05
-2.6025e-06
-1.80621e-06
-1.06419e-05
-1.52627e-06
-1.7888e-06
-9.04227e-06
-3.75514e-07
-1.72968e-06
-7.4047e-06
8.11259e-07
-1.62879e-06
-5.77442e-06
2.06936e-06
-1.48347e-06
-4.16611e-06
3.42176e-06
-1.28721e-06
-2.55782e-06
4.92187e-06
-1.02643e-06
-9.16509e-07
6.64373e-06
-6.85393e-07
7.52462e-07
8.65019e-06
-2.65216e-07
2.29542e-06
1.09233e-05
2.3263e-07