/*--------------------------------*- C++ -*----------------------------------*\
| =========                 |                                                 |
| \\      /  F ield         | OpenFOAM: The Open Source CFD Toolbox           |
|  \\    /   O peration     | Version:  v2006                                 |
|   \\  /    A nd           | Website:  www.openfoam.com                      |
|    \\/     M anipulation  |                                                 |
\*---------------------------------------------------------------------------*/
FoamFile
{
    version     2.0;
    format      ascii;
    class       volScalarField;
    location    "31";
    object      T;
}
// * * * * * * * * * * * * * * * * * * * * * * * * * * * * * * * * * * * * * //

dimensions      [0 0 0 1 0 0 0];


internalField   nonuniform List<scalar> 
78750
(
287.147
286.602
286.344
286.207
286.292
286.489
286.578
286.754
286.86
287.013
287.125
287.262
287.377
287.504
287.627
287.756
287.89
288.031
288.181
288.343
288.519
288.715
288.935
289.186
289.476
289.811
290.211
290.699
291.311
292.095
293.127
294.519
296.347
298.119
425.949
295.976
290.871
288.462
287.48
286.848
286.55
286.375
286.271
286.208
286.164
286.135
286.111
286.089
286.067
286.043
286.015
285.997
285.989
285.989
285.997
286.017
286.049
286.097
286.168
286.267
286.401
286.586
286.842
287.197
287.699
288.43
289.591
292.052
304.399
429.037
297.759
296.196
296.52
296.336
295.925
295.578
295.297
295.044
294.811
294.59
294.377
294.165
293.953
293.74
293.523
293.3
293.081
292.866
292.652
292.438
292.225
292.013
291.806
291.608
291.427
291.275
291.169
291.139
291.231
291.534
292.232
293.895
299.178
325.134
449.095
299.371
299.428
299.847
300.198
300.437
300.582
300.62
300.56
300.451
300.317
300.169
300.006
299.832
299.649
299.457
299.256
299.046
298.827
298.598
298.359
298.109
297.851
297.584
297.315
297.052
296.811
296.614
296.498
296.532
296.838
297.692
299.894
306.821
335.913
454.486
301.223
302.109
302.762
303.374
303.845
304.142
304.272
304.275
304.2
304.078
303.923
303.752
303.574
303.394
303.212
303.03
302.846
302.658
302.464
302.264
302.052
301.828
301.59
301.334
301.059
300.771
300.481
300.205
299.971
299.855
300.073
301.524
309.066
344.818
463.836
303.6
305.88
307.089
308.069
308.863
309.382
309.629
309.69
309.621
309.436
309.154
308.826
308.495
308.172
307.857
307.542
307.226
306.909
306.59
306.278
305.983
305.714
305.47
305.248
305.048
304.879
304.776
304.798
305.063
305.808
307.617
312.232
325.762
365.301
472.605
303.289
306.604
308.325
309.606
310.69
311.625
312.408
313.022
313.455
313.69
313.722
313.563
313.258
312.875
312.492
312.183
311.986
311.941
312.019
312.059
311.829
311.283
310.594
309.921
309.317
308.774
308.284
307.86
307.54
307.425
307.855
310.353
322.313
364.263
473.577
308.689
316.793
320.634
323.326
325.392
327.03
328.343
329.381
330.167
330.7
330.961
330.915
330.5
329.615
328.188
326.129
323.316
319.889
315.769
311.203
307.553
305.948
306.16
307.302
308.599
309.651
310.379
310.89
311.419
312.382
314.667
320.85
339.074
383.504
482.141
308.922
318.795
324.136
327.664
330.232
332.254
333.936
335.384
336.658
337.79
338.781
339.617
340.285
340.763
341.011
340.941
340.291
338.893
336.651
333.549
329.966
326.437
323.18
320.137
317.269
314.758
313.041
312.406
312.597
313.415
315.556
322.217
343.032
388.133
482.041
307.045
315.708
321.686
325.78
328.663
330.855
332.643
334.17
335.512
336.693
337.658
338.333
338.75
339.027
339.291
339.638
340.027
340.214
339.938
339.077
337.683
335.943
334.016
331.927
329.624
327.063
324.244
321.367
318.992
317.673
318.02
323.266
344.949
392.846
485.698
307.342
318.846
326.203
330.635
333.57
335.812
337.723
339.462
341.085
342.55
343.615
343.991
343.712
343.021
342.089
341.079
340.219
339.634
339.265
338.967
338.586
337.936
336.788
335.004
332.665
329.978
327.099
324.278
322.021
320.766
321.515
329.459
355.923
402.436
486.529
310.126
322.771
328.818
331.961
334.148
336.042
337.835
339.489
340.862
341.927
342.725
343.224
343.429
343.435
343.256
342.771
341.932
340.955
340.1
339.395
338.724
337.877
336.539
334.579
332.269
329.903
327.599
325.461
323.668
322.418
322.478
329.112
357.555
406.1
488.309
313.736
327.023
332.303
335.307
337.81
340.216
342.497
344.148
344.713
344.369
343.675
343.094
342.727
342.472
342.239
341.942
341.451
340.681
339.76
338.881
338.025
337.023
335.651
333.789
331.624
329.48
327.531
325.862
324.592
324.077
325.996
337.015
369.763
415.15
488.02
315.379
326.914
331.289
333.991
336.343
338.693
341.029
342.956
344.155
344.702
344.828
344.695
344.423
344.096
343.747
343.365
342.915
342.336
341.566
340.627
339.629
338.614
337.475
336.058
334.334
332.476
330.685
329.064
327.683
326.746
327.635
338.04
373.764
418.511
487.271
312.745
323.093
327.678
330.365
332.398
334.205
336.012
337.942
339.857
341.49
342.702
343.502
343.954
344.135
344.123
343.98
343.733
343.369
342.837
342.067
341.061
339.941
338.85
337.753
336.509
335.047
333.462
331.954
330.725
330.145
332.313
346.387
384.746
425.481
486.722
309.593
320.822
327.179
330.863
333.444
335.59
337.447
339.003
340.31
341.458
342.436
343.213
343.801
344.206
344.432
344.495
344.432
344.282
344.055
343.713
343.16
342.301
341.156
339.914
338.718
337.53
336.25
334.886
333.613
332.755
333.81
346.559
387.347
427.382
486.235
311.242
321.769
327.927
331.647
334.439
337.008
339.411
341.402
342.731
343.415
343.719
343.89
344.054
344.242
344.427
344.559
344.588
344.506
344.349
344.144
343.87
343.449
342.756
341.762
340.613
339.423
338.173
336.834
335.539
334.733
336.578
351.508
392.838
431.17
487.217
309.203
321.95
330.326
335.34
339.035
342.077
344.32
345.777
346.614
346.91
346.724
346.278
345.822
345.465
345.236
345.146
345.136
345.078
344.907
344.666
344.396
344.072
343.593
342.816
341.754
340.616
339.523
338.461
337.466
336.819
338.378
353.338
395.257
432.886
487.574
317.083
332.86
339.336
343.559
347.151
349.462
350.663
350.988
350.674
349.983
349.093
348.149
347.295
346.598
346.05
345.641
345.398
345.266
345.105
344.877
344.623
344.34
343.964
343.371
342.467
341.354
340.2
339.07
338.06
337.656
340.552
358.359
400.683
437.038
489.839
327.34
338.769
344.041
347.91
349.169
348.789
348.242
347.87
347.614
347.405
347.194
346.946
346.642
346.295
345.941
345.62
345.356
345.136
344.932
344.73
344.522
344.278
343.94
343.42
342.636
341.637
340.565
339.502
338.559
338.396
342.554
362.95
405.735
441.16
492.56
322.753
335.002
340.125
343.491
344.979
345.614
345.812
345.802
345.74
345.679
345.627
345.568
345.48
345.35
345.191
345.028
344.879
344.742
344.607
344.463
344.298
344.09
343.802
343.378
342.779
342.039
341.234
340.399
339.649
339.9
345.767
369.144
411.478
445.827
496.166
315.679
330.261
335.694
339.063
342.534
345.568
347.059
347.236
346.922
346.534
346.167
345.844
345.574
345.355
345.167
344.994
344.823
344.654
344.486
344.314
344.126
343.896
343.583
343.128
342.477
341.661
340.836
340.171
339.77
340.234
346.297
372.009
415.2
449.178
499.026
318.798
333.383
340.468
344.719
346.906
348.082
348.891
348.665
347.927
347.357
346.969
346.643
346.335
346.048
345.782
345.532
345.296
345.068
344.848
344.635
344.416
344.173
343.871
343.457
342.858
342.025
340.999
339.93
339.221
339.62
343.989
367.699
413.514
448.465
498.376
329.528
343.054
349.643
353.453
352.596
350.819
349.605
348.785
348.278
347.913
347.577
347.254
346.94
346.64
346.353
346.082
345.827
345.587
345.359
345.141
344.929
344.714
344.479
344.193
343.81
343.271
342.521
341.551
340.42
339.921
342.835
362.552
408.474
444.66
495.498
331.219
345.274
348.568
348.944
348.593
348.886
349.053
349.028
348.847
348.568
348.243
347.905
347.568
347.24
346.922
346.617
346.327
346.052
345.792
345.547
345.316
345.096
344.883
344.666
344.423
344.118
343.709
343.156
342.431
341.992
345.379
362.968
406.934
443.052
493.914
323.727
333.553
336.01
338.455
341.157
343.809
346.129
347.855
348.914
349.354
349.326
349.03
348.631
348.213
347.806
347.416
347.043
346.688
346.345
346.013
345.686
345.364
345.051
344.754
344.479
344.224
343.982
343.764
343.707
345.119
353.75
373.689
412.753
447.278
497.973
312.95
321.573
327.342
331.535
334.88
338.026
341.219
344.314
347.021
349.078
350.304
350.694
350.45
349.898
349.301
348.749
348.242
347.769
347.322
346.89
346.463
346.03
345.581
345.111
344.631
344.165
343.755
343.474
343.627
346.273
359.904
386.847
421.426
453.84
504.91
309.978
322.459
330.562
335.312
338.471
340.872
342.908
344.913
347.111
349.37
351.282
352.512
352.899
352.476
351.52
350.48
349.638
348.983
348.427
347.922
347.444
346.969
346.477
345.949
345.371
344.74
344.076
343.451
343.123
344.915
358.407
393.737
427.654
458.774
509.763
311.359
324.693
332.017
336.422
339.555
342.159
344.529
346.726
348.744
350.641
352.46
354.079
355.246
355.692
355.225
353.856
352.076
350.597
349.603
348.895
348.322
347.816
347.334
346.839
346.305
345.711
345.044
344.317
343.617
343.621
351.239
386.542
425.975
458.807
509.263
310.958
323.249
330.768
335.529
338.988
341.978
344.863
347.735
350.472
352.81
354.54
355.745
356.677
357.45
357.932
357.712
356.338
353.948
351.674
350.203
349.257
348.551
347.972
347.459
346.96
346.437
345.863
345.23
344.563
344.011
347.622
375.64
420.783
456.127
506.186
312.259
327.513
336.165
341.239
345.071
348.73
352.306
355.335
357.487
358.887
359.656
359.804
359.622
359.47
359.415
359.359
358.967
357.414
354.578
351.874
350.266
349.305
348.58
347.966
347.439
346.951
346.458
345.95
345.443
345.016
347.996
370.565
417.343
453.766
503.401
317.673
334.275
340.842
344.79
348.78
353.316
357.419
360.164
361.425
361.663
361.55
361.303
360.935
360.555
360.248
359.969
359.571
358.616
356.344
353.378
351.212
350.016
349.191
348.484
347.881
347.359
346.883
346.448
346.105
346.127
350.657
372.813
418.193
453.944
502.77
320.276
335.497
341.531
345.996
351.203
356.236
358.639
358.923
358.978
359.099
359.255
359.427
359.572
359.617
359.535
359.333
358.946
358.067
356.033
353.178
351.221
350.132
349.365
348.707
348.136
347.647
347.236
346.933
346.86
347.729
355.228
380.672
422.878
457.264
505.745
320.46
335.86
341.975
346.631
351.784
356.039
357.362
356.859
356.656
356.718
356.849
356.999
357.128
357.152
356.917
356.196
354.853
353.262
352.028
351.086
350.315
349.666
349.104
348.613
348.19
347.839
347.586
347.504
347.85
349.972
360.504
389.391
428.634
461.684
510.281
320.463
335.057
340.117
343.44
346.777
350.494
353.564
354.446
354.189
353.813
353.377
352.881
352.423
352.114
351.908
351.694
351.379
350.928
350.426
349.954
349.527
349.141
348.795
348.492
348.244
348.079
348.054
348.331
349.471
353.782
368.211
398.713
434.29
465.863
514.708
317.417
331.147
337.333
341.174
344.42
347.826
351.595
354.465
355.308
354.893
354.023
353.048
352.153
351.529
351.136
350.836
350.557
350.275
349.988
349.704
349.43
349.17
348.929
348.713
348.536
348.43
348.468
348.846
350.266
355.576
373.106
407.895
439.467
469.095
518.342
313.322
327.523
335.556
340.454
344.316
347.837
351.156
354.58
358.076
360.618
361.824
361.626
359.349
355.727
353.033
351.603
350.87
350.448
350.162
349.937
349.743
349.568
349.408
349.264
349.144
349.067
349.078
349.31
350.228
353.927
368.752
407.388
440.816
470.351
518.841
313.596
329.99
338.5
343.453
347.343
351.225
355.261
358.349
359.929
361.095
362.629
364.659
365.77
362.679
357.481
353.858
352.076
351.226
350.751
350.441
350.224
350.069
349.957
349.877
349.828
349.824
349.888
350.082
350.621
352.542
361.283
394.322
435.298
467.093
514.207
317.942
335.003
342.163
346.553
350.464
354.436
358.613
362.559
364.852
365.189
364.842
364.649
365.193
364.209
358.934
354.736
352.906
352.064
351.532
351.14
350.866
350.687
350.58
350.53
350.534
350.606
350.764
351.039
351.518
352.593
356.872
379.553
425.44
459.52
505.845
319.467
334.725
340.842
344.669
348.208
351.982
355.924
359.656
363.028
365.506
366.575
366.621
366.167
365.639
361.303
356.318
353.845
352.783
352.206
351.807
351.521
351.334
351.231
351.204
351.255
351.401
351.667
352.098
352.78
353.975
357.157
374.257
419.105
453.634
499.512
320.469
335.486
341.315
344.824
347.81
350.777
354.066
357.597
360.867
363.603
365.665
366.887
367.188
366.513
363.397
357.491
354.417
353.241
352.671
352.306
352.06
351.917
351.864
351.898
352.034
352.302
352.762
353.528
354.871
357.441
362.767
380.701
421.409
454.54
499.912
319.764
333.838
339.403
342.771
345.559
348.097
350.61
353.509
357.06
360.812
363.974
366.089
367.247
367.561
366.736
361.588
356.207
353.923
353.083
352.69
352.476
352.382
352.388
352.492
352.721
353.13
353.839
355.129
357.772
363.251
372.856
394.248
429.1
460.189
506.35
316.84
330.959
337.435
341.284
344.335
347.079
349.608
351.972
354.472
357.62
361.336
364.621
366.7
367.688
367.776
365.704
359.795
355.015
353.243
352.72
352.57
352.577
352.699
352.936
353.329
353.965
355.048
357.132
361.755
371.499
386.383
409.833
437.895
466.432
514.973
315.598
331.056
338.666
343.193
346.786
350.077
353.148
355.861
358.003
359.659
361.535
364.014
366.269
367.658
368.246
367.824
364.332
358.468
354.109
352.634
352.392
352.493
352.737
353.104
353.632
354.422
355.737
358.33
364.344
377.768
398.462
422.534
445.361
471.287
521.82
316.121
332.269
339.796
344.271
347.961
351.549
355.224
358.911
362.173
364.368
365.392
366.248
367.321
368.14
368.509
368.324
366.583
361.74
356.39
352.896
352.021
352.221
352.671
353.232
353.93
354.864
356.29
358.955
365.068
379.634
405.299
431.375
451.45
475.144
525.657
317.799
333.94
340.839
344.978
348.494
351.954
355.626
359.642
363.696
366.851
368.304
368.621
368.765
368.894
368.87
368.517
367.348
364.166
359.132
354.893
352.736
352.363
352.751
353.384
354.163
355.145
356.524
358.875
363.971
376.615
403.042
433.554
453.837
476.591
525.942
319.299
335.076
341.56
345.594
349.162
352.685
356.317
360.153
364.145
367.708
369.772
370.245
370.048
369.697
369.235
368.496
367.103
364.45
360.451
356.538
353.76
352.908
353.187
353.856
354.696
355.717
357.061
359.135
363.187
373.005
396.114
429.516
452.191
475.708
523.908
318.883
334.825
341.517
345.649
349.256
352.778
356.297
359.772
363.21
366.57
369.193
370.285
370.273
369.815
369.124
368.132
366.615
364.268
361.062
357.841
355.257
353.989
353.975
354.565
355.42
356.471
357.808
359.718
363.074
370.673
389.502
422.25
447.975
473.139
520.593
318.43
334.852
341.807
346.042
349.705
353.294
356.874
360.293
363.415
366.33
368.974
370.539
370.723
370.139
369.173
367.849
366.067
363.818
361.369
359.09
356.95
355.385
355.082
355.592
356.475
357.603
359.046
361.056
364.335
371.071
387.14
417.268
444.351
470.565
517.77
318.733
335.073
341.956
346.154
349.793
353.393
357.07
360.645
363.807
366.471
368.777
370.496
370.956
370.363
369.259
367.837
366.072
363.992
361.896
360.038
358.266
356.716
356.173
356.584
357.511
358.759
360.382
362.652
366.264
373.185
388.39
416.103
442.43
468.631
516.105
318.87
335.383
342.399
346.641
350.259
353.79
357.36
360.846
363.991
366.644
368.868
370.712
371.665
371.3
370.036
368.353
366.48
364.573
362.8
361.171
359.528
358.035
357.384
357.724
358.702
360.105
362
364.721
369.038
376.859
392.367
418.134
442.344
467.741
515.951
318.912
335.84
343.12
347.521
351.293
354.988
358.619
361.924
364.682
366.898
368.742
370.404
371.765
372.119
371.255
369.665
367.796
365.928
364.241
362.702
361.114
359.559
358.693
358.86
359.827
361.37
363.565
366.827
372.037
381.042
397.21
421.248
443.177
467.613
516.851
319.152
336.417
343.869
348.407
352.392
356.434
360.472
364.052
366.831
368.81
370.214
371.328
372.346
372.954
372.442
370.883
368.914
367.045
365.452
364.017
362.518
361.038
360.128
360.172
361.093
362.727
365.209
369.094
375.415
385.847
402.667
424.891
444.79
468.376
518.539
319.984
337.478
344.92
349.546
353.777
358.17
362.458
366.068
368.749
370.582
371.78
372.573
373.151
373.551
373.314
372.078
370.218
368.314
366.66
365.194
363.723
362.367
361.545
361.534
362.395
364.055
366.711
371.065
378.378
390.209
407.633
428.267
446.588
469.433
520.088
320.899
338.743
346.22
351.011
355.643
360.531
365.003
368.417
370.812
372.454
373.549
374.224
374.546
374.518
373.964
372.619
370.748
368.904
367.323
365.905
364.536
363.524
363.069
363.155
363.952
365.528
368.167
372.667
380.451
393.07
410.797
430.405
447.811
470.183
520.969
321.506
339.682
347.282
352.32
357.455
362.854
367.327
370.273
372.105
373.326
374.202
374.814
375.144
375.091
374.494
373.188
371.368
369.529
367.916
366.481
365.283
364.778
364.822
365.091
365.836
367.225
369.607
373.862
381.589
394.453
412.27
431.317
448.321
470.588
521.582
322.571
340.816
348.433
353.752
359.496
365.479
370.073
372.778
374.254
375.119
375.672
376.001
376.067
375.742
374.876
373.408
371.566
369.776
368.21
366.887
366.167
366.577
367.352
367.835
368.607
369.964
372.266
376.439
384.333
397.705
415.548
433.613
449.98
472.266
523.664
323.388
341.461
349.034
354.508
360.527
366.656
371.198
373.743
375.053
375.778
376.223
376.477
376.503
376.164
375.298
373.86
372.06
370.263
368.68
367.511
367.435
369.055
371.013
371.789
372.599
374.299
377.411
382.547
391.124
404.732
421.788
438.251
453.87
476.446
528.231
324.285
342.072
349.46
354.868
360.79
366.95
371.875
374.833
376.333
377.05
377.366
377.432
377.264
376.779
375.853
374.448
372.716
370.936
369.341
368.288
368.712
371.594
375.735
377.922
378.648
380.388
384.708
392.332
402.604
415.401
429.878
444.143
459.14
482.287
533.819
324.126
341.402
348.401
353.323
358.47
364.116
369.512
373.51
375.888
377.135
377.73
377.939
377.854
377.461
376.686
375.484
373.926
372.195
370.514
369.245
369.283
372.132
378.224
384.602
387.845
389.408
392.667
400.37
412.242
425.187
437.689
450.072
464.372
487.631
538.038
323.399
340.489
347.33
351.814
356.093
360.791
366.062
371.069
374.774
376.986
378.108
378.565
378.602
378.31
377.691
376.728
375.44
373.903
372.242
370.673
369.711
370.616
375.203
383.756
393.3
400.354
404.696
409.525
418.095
429.761
441.811
453.763
467.746
490.687
539.875
322.545
339.88
346.857
351.18
354.891
358.495
362.482
367.08
371.624
375.168
377.395
378.558
379.016
379.006
378.635
377.947
376.979
375.771
374.369
372.843
371.361
370.413
371.21
375.692
384.908
397.405
410.096
419.977
427.221
435.161
444.684
455.542
468.815
490.659
538.431
321.982
340.119
347.597
352.144
355.883
359.144
362.124
365.259
368.925
372.754
375.929
378.019
379.126
379.533
379.451
379.003
378.278
377.349
376.26
375.03
373.679
372.306
371.229
371.298
374.181
381.767
394.752
411.647
427.755
438.894
447.927
457.247
468.63
487.663
533.372
322.15
340.964
348.814
353.644
357.73
361.306
364.204
366.48
368.618
371.178
374.094
376.703
378.517
379.512
379.868
379.75
379.283
378.581
377.732
376.78
375.727
374.566
373.329
372.178
371.577
372.631
377.321
388.128
406.265
425.482
440.145
451.562
462.725
479.871
525.591
322.506
341.651
349.634
354.592
358.986
363.128
366.606
369.104
370.809
372.241
373.957
376.037
377.982
379.355
380.079
380.26
380.026
379.501
378.803
378.016
377.172
376.261
375.264
374.175
373.06
372.156
372.11
374.605
383.681
402.991
421.419
437.556
452.05
471.645
520.601
322.998
342.076
350.082
355.155
359.873
364.563
368.552
371.349
373.098
374.217
375.157
376.345
377.827
379.199
380.128
380.544
380.517
380.158
379.59
378.916
378.195
377.44
376.634
375.743
374.742
373.663
372.686
372.406
375.421
390.211
412.552
431.442
448.582
471.24
522.509
323.243
342.2
350.242
355.526
360.799
366.272
370.782
373.758
375.503
376.509
377.165
377.787
378.632
379.628
380.452
380.893
380.928
380.632
380.123
379.51
378.864
378.213
377.558
376.868
376.085
375.162
374.168
373.478
374.838
385.798
413.717
437.433
453.776
474.535
524.52
323.66
342.1
349.981
355.508
361.594
368.083
373.1
376.104
377.695
378.52
378.989
379.351
379.8
380.402
380.974
381.295
381.278
380.96
380.447
379.849
379.244
378.682
378.206
377.802
377.362
376.756
375.981
375.282
375.547
380.693
401.387
430.48
449.203
469.64
519.323
323.468
340.92
348.522
354.237
361.052
368.503
374.248
377.648
379.401
380.257
380.678
380.92
381.151
381.449
381.723
381.8
381.588
381.121
380.513
379.885
379.369
379.147
379.179
379.191
378.975
378.492
377.79
376.974
376.277
376.556
383.179
406.481
433.262
459.957
509.983
322.62
339.028
346.302
351.865
358.491
366.066
372.677
377.173
379.741
381.056
381.689
381.991
382.162
382.297
382.352
382.202
381.773
381.125
380.423
379.94
380.14
380.853
381.302
381.219
380.729
379.974
379.018
377.848
376.376
374.735
377.474
398.224
427.804
457.351
507.18
321.195
337.383
344.419
349.324
354.556
360.933
368.042
374.319
378.66
381.102
382.291
382.809
382.996
383.013
382.878
382.514
381.874
381.077
380.494
380.904
382.755
384.297
384.344
383.78
383.027
382.113
381.025
379.925
379.357
381.15
390.473
412.83
436.773
464.031
517.481
320.253
337.24
344.357
348.634
352.371
356.644
362.434
369.379
375.709
379.978
382.214
383.202
383.559
383.587
383.381
382.915
382.155
381.279
380.928
382.326
385.975
388.995
388.799
387.705
386.992
386.824
387.161
388.134
391.006
398.257
412.257
431.521
450.726
477.152
532.771
319.888
338.496
346.464
350.986
354.357
357.246
360.541
365.449
371.885
377.82
381.546
383.31
383.995
384.14
383.957
383.483
382.7
381.734
381.173
382.348
386.664
392.678
395.557
394.797
393.705
393.897
396.227
400.638
407.043
416.608
429.888
445.009
461.935
488.437
541.516
320.295
340.257
349.117
354.359
358.366
361.437
363.711
365.931
369.645
375.136
380.049
382.866
384.111
384.544
384.534
384.193
383.525
382.563
381.607
381.526
383.928
390.01
397.669
402.551
403.687
403.714
405.428
410.531
418.823
429.131
440.662
453.063
468.117
492.933
542.698
320.858
340.992
349.975
355.572
360.334
364.539
367.845
370.038
371.625
374.422
378.727
382.186
384.003
384.77
384.986
384.846
384.388
383.611
382.603
381.72
381.79
384.299
390.497
399.309
407.608
412.973
415.856
419.251
425.518
434.546
444.908
456.039
469.619
492.234
540.33
321.785
341.623
350.321
355.768
360.572
365.247
369.577
373.003
375.194
376.582
378.924
381.869
383.873
384.874
385.288
385.35
385.123
384.597
383.778
382.796
381.963
381.892
383.723
388.841
397.605
408.508
418.726
425.98
431.541
438.147
446.498
456.407
468.812
489.569
536.823
323.354
343.873
352.669
358.134
362.884
367.355
371.475
375.03
377.794
379.6
380.985
382.776
384.306
385.192
385.619
385.762
385.679
385.361
384.783
383.979
383.084
382.318
382.06
383.087
386.71
394.27
406.025
419.884
431.489
439.857
447.609
456.423
467.566
486.444
532.689
325.404
346.775
355.602
361.232
366.37
371.079
374.839
377.641
379.853
381.65
383.006
384.184
385.157
385.769
386.093
386.218
386.179
385.963
385.538
384.909
384.152
383.388
382.744
382.416
382.884
385.205
391.138
402.474
418.24
432.739
443.744
453.375
464.07
481.615
527.623
326.723
348.096
356.743
362.561
368.442
374.017
378.059
380.513
382.1
383.4
384.543
385.444
386.076
386.458
386.657
386.723
386.669
386.479
386.123
385.595
384.955
384.305
383.729
383.282
383.048
383.3
384.837
389.599
400.643
416.873
432.335
445.242
457.522
475.636
522.816
326.996
348.021
356.688
362.825
369.498
375.776
380.008
382.351
383.681
384.668
385.581
386.335
386.83
387.107
387.234
387.253
387.17
386.965
386.607
386.098
385.505
384.946
384.508
384.233
384.136
384.231
384.65
386.165
391.539
404.173
421.097
437.477
452.31
472.394
521.489
327.368
348.625
357.678
364.455
372.117
378.642
382.451
384.318
385.279
385.941
386.568
387.12
387.492
387.691
387.769
387.754
387.645
387.418
387.038
386.511
385.929
385.44
385.158
385.155
385.478
386.081
386.827
387.976
391.51
401.678
418.508
436.343
452.384
474.198
525.539
328.496
349.84
359.063
366.47
375.2
381.812
385.004
386.287
386.845
387.205
387.566
387.907
388.144
388.266
388.298
388.252
388.117
387.86
387.444
386.885
386.308
385.902
385.826
386.225
387.245
388.812
390.57
392.711
397.153
407.56
424.035
440.988
456.864
479.885
532.454
328.94
349.565
358.491
366.064
375.497
382.925
386.488
387.784
388.212
388.387
388.531
388.675
388.781
388.83
388.821
388.749
388.594
388.318
387.881
387.302
386.729
386.396
386.529
387.388
389.298
392.25
395.625
399.467
405.682
416.937
432.264
447.24
462.461
486.087
537.777
327.487
347.001
355.163
361.892
370.707
379.694
385.442
388.009
388.939
389.237
389.338
389.389
389.415
389.411
389.368
389.276
389.11
388.831
388.395
387.817
387.238
386.916
387.13
388.244
390.801
395.109
400.479
406.35
414.116
425.555
439.181
452.277
466.578
489.756
539.617
324.976
343.735
351.393
356.883
363.604
372.722
381.339
386.566
388.883
389.724
389.981
390.039
390.031
389.994
389.929
389.826
389.662
389.399
388.995
388.442
387.853
387.474
387.602
388.619
391.188
396.078
403.116
411.137
420.302
431.557
443.679
455.383
468.661
490.658
539.067
322.816
341.673
349.755
354.829
359.805
366.555
375.497
383.225
387.687
389.642
390.362
390.582
390.615
390.577
390.501
390.392
390.233
389.994
389.633
389.126
388.549
388.112
388.088
388.805
390.867
395.292
402.774
412.432
423.05
434.424
445.715
456.592
469.003
489.706
537.403
321.893
341.704
350.715
356.363
361.373
366.637
373.233
380.641
386.257
389.254
390.522
390.983
391.116
391.114
391.051
390.947
390.799
390.584
390.262
389.807
389.267
388.817
388.697
389.155
390.637
394.074
400.715
410.726
422.49
434.471
445.717
456.374
468.333
488.178
535.753
322.146
342.848
352.308
358.448
364.238
370.195
375.838
381.362
386.239
389.33
390.798
391.383
391.58
391.613
391.569
391.478
391.343
391.146
390.856
390.445
389.951
389.54
389.432
389.81
390.967
393.607
399.008
408.182
420.186
432.779
444.456
455.357
467.305
486.895
534.73
323.33
344.671
354.157
360.391
366.551
373.213
379.403
384.154
387.773
390.173
391.39
391.895
392.072
392.105
392.068
391.986
391.862
391.679
391.41
391.031
390.582
390.23
390.205
390.655
391.769
394.069
398.649
406.792
418.339
431.139
443.224
454.486
466.668
486.454
534.647
324.801
346.884
356.462
362.804
369.09
375.678
381.78
386.456
389.505
391.289
392.155
392.504
392.616
392.623
392.576
392.492
392.368
392.191
391.935
391.584
391.183
390.918
391.046
391.691
392.966
395.273
399.529
406.976
417.889
430.502
442.704
454.179
466.615
486.783
535.322
326.278
349.052
358.78
365.384
372.033
378.483
383.817
387.945
390.724
392.223
392.879
393.116
393.174
393.155
393.094
393.002
392.875
392.697
392.447
392.115
391.757
391.589
391.916
392.864
394.489
397.111
401.494
408.708
419.123
431.311
443.304
454.767
467.396
487.995
536.631
327.387
350.43
360.28
367.225
374.503
381.203
385.967
389.274
391.642
392.987
393.544
393.717
393.737
393.697
393.623
393.523
393.39
393.21
392.966
392.653
392.341
392.271
392.81
394.114
396.184
399.274
404.031
411.31
421.372
433.008
444.557
455.814
468.495
489.359
537.85
328.367
351.439
361.433
368.802
376.869
384.008
388.443
390.944
392.638
393.709
394.171
394.297
394.293
394.237
394.155
394.048
393.911
393.728
393.485
393.185
392.905
392.906
393.627
395.297
397.86
401.488
406.718
414.196
424.017
435.101
446.138
457.112
469.761
490.762
538.924
329.075
351.991
362.084
369.888
378.798
386.516
390.9
392.882
393.898
394.541
394.831
394.89
394.855
394.785
394.694
394.582
394.441
394.258
394.02
393.737
393.485
393.53
394.372
396.369
399.421
403.585
409.283
416.967
426.567
437.122
447.666
458.346
470.887
491.856
539.605
329.33
351.775
361.792
369.817
379.296
387.766
392.605
394.556
395.2
395.447
395.53
395.505
395.434
395.346
395.245
395.126
394.98
394.793
394.556
394.278
394.031
394.066
394.92
397.134
400.636
405.286
411.395
419.279
428.715
438.842
448.978
459.396
471.797
492.642
539.998
328.674
350.439
360.177
367.98
377.365
386.71
392.878
395.613
396.39
396.423
396.299
396.166
396.045
395.932
395.817
395.691
395.541
395.355
395.122
394.853
394.605
394.592
395.336
397.567
401.44
406.547
412.983
420.989
430.292
440.108
449.947
460.159
472.413
493.09
540.169
327.52
348.755
358.131
365.269
373.634
383.126
391.043
395.515
397.19
397.405
397.158
396.896
396.7
396.547
396.412
396.274
396.117
395.928
395.695
395.425
395.162
395.071
395.601
397.581
401.583
407.141
413.94
422.071
431.291
440.935
450.625
460.726
472.865
493.361
540.184
326.296
347.586
356.908
363.475
370.534
378.882
387.483
393.911
397.229
398.226
398.099
397.723
397.417
397.201
397.033
396.88
396.718
396.53
396.304
396.04
395.77
395.61
395.907
397.439
401.164
406.994
414.155
422.493
431.736
441.299
450.903
460.934
472.968
493.266
539.943
325.885
348.011
357.761
364.308
370.661
377.376
384.623
391.492
396.312
398.569
398.982
398.627
398.203
397.894
397.673
397.492
397.318
397.128
396.904
396.644
396.365
396.149
396.239
397.269
400.359
406.118
413.595
422.159
431.534
441.198
450.872
460.924
472.9
493.044
539.695
326.579
349.903
360.269
367.294
373.944
380.006
385.341
390.584
395.349
398.479
399.647
399.533
399.044
398.628
398.338
398.121
397.932
397.739
397.523
397.275
397.005
396.768
396.731
397.353
399.658
404.865
412.587
421.458
430.975
440.764
450.586
460.757
472.776
492.894
539.559
328.28
352.353
363.027
370.537
377.931
384.299
388.78
392.21
395.559
398.492
400.13
400.364
399.899
399.383
399.008
398.743
398.529
398.327
398.111
397.869
397.605
397.358
397.243
397.583
399.174
403.419
410.968
420.301
430.203
440.226
450.23
460.536
472.598
492.654
539.267
329.986
354.166
364.871
372.724
380.833
387.781
392.244
394.905
396.976
399.03
400.616
401.128
400.761
400.173
399.708
399.385
399.142
398.927
398.712
398.48
398.23
397.99
397.848
398.032
399.122
402.349
409.066
418.548
428.969
439.391
449.634
460.076
472.187
492.227
538.934
331.041
354.955
365.56
373.586
382.159
389.597
394.347
396.97
398.578
399.924
401.163
401.821
401.62
401
400.434
400.033
399.744
399.509
399.288
399.06
398.82
398.584
398.419
398.499
399.261
401.719
407.434
416.647
427.438
438.394
449.035
459.696
471.894
491.974
538.846
330.977
354.441
364.862
372.868
381.683
389.715
395.111
398.122
399.788
400.878
401.789
402.454
402.472
401.894
401.228
400.725
400.373
400.105
399.873
399.652
399.429
399.214
399.051
399.07
399.602
401.458
406.208
414.928
425.862
437.182
448.211
459.173
471.582
491.874
538.948
329.817
352.717
362.897
370.592
379.177
387.73
394.213
398.156
400.332
401.569
402.381
402.993
403.242
402.856
402.125
401.481
401.025
400.699
400.441
400.217
400.01
399.818
399.665
399.64
399.989
401.342
405.144
413.232
424.664
436.555
447.899
458.993
471.445
491.736
538.754
328.07
350.791
361.027
368.46
376.494
384.936
392.2
397.252
400.264
401.95
402.918
403.521
403.873
403.765
403.099
402.308
401.704
401.289
400.988
400.755