/*--------------------------------*- C++ -*----------------------------------*\
| =========                 |                                                 |
| \\      /  F ield         | OpenFOAM: The Open Source CFD Toolbox           |
|  \\    /   O peration     | Version:  v2006                                 |
|   \\  /    A nd           | Website:  www.openfoam.com                      |
|    \\/     M anipulation  |                                                 |
\*---------------------------------------------------------------------------*/
FoamFile
{
    version     2.0;
    format      ascii;
    class       volVectorField;
    location    "92";
    object      U;
}
// * * * * * * * * * * * * * * * * * * * * * * * * * * * * * * * * * * * * * //

dimensions      [0 1 -1 0 0 0 0];


internalField   nonuniform List<vector> 
78750
(
(-0.00258732 -0.000262145 0.00285063)
(-0.00287791 -0.0030025 0.00504692)
(-0.00250541 -0.00491926 0.00597797)
(-0.00126133 -0.00641246 0.00634581)
(1.18824e-06 -0.0075753 0.00647875)
(0.00157911 -0.0084284 0.00651453)
(0.00340569 -0.0089963 0.00650457)
(0.00539095 -0.00930356 0.0064712)
(0.00746126 -0.00937986 0.0064239)
(0.00955485 -0.00925614 0.00636609)
(0.0116184 -0.00896076 0.00629847)
(0.0136061 -0.00851837 0.0062206)
(0.0154782 -0.00795009 0.00613167)
(0.0172015 -0.00727432 0.0060309)
(0.0187476 -0.00650754 0.00591759)
(0.0200941 -0.00566518 0.00579107)
(0.0212214 -0.00475565 0.00565298)
(0.0221152 -0.00379163 0.00550454)
(0.0227636 -0.00278804 0.00534692)
(0.0231587 -0.00176015 0.00518155)
(0.023297 -0.000723023 0.00501017)
(0.0231815 0.000307278 0.00483458)
(0.0228136 0.00131289 0.00465668)
(0.0221846 0.00227804 0.00447856)
(0.0213059 0.0031883 0.00430306)
(0.0201975 0.00402803 0.0041329)
(0.0188793 0.0047812 0.00397039)
(0.0173716 0.005432 0.00381757)
(0.0156952 0.00595855 0.00367307)
(0.013871 0.006361 0.0035324)
(0.0118995 0.00674152 0.0033787)
(0.00970372 0.0074644 0.003163)
(0.00707522 0.00903264 0.00278209)
(0.00396503 0.0106847 0.00208672)
(0.000979068 0.00794991 0.000950737)
(-0.000106776 -0.000165322 0.00215091)
(0.000143558 -0.00557667 0.00408529)
(0.000506206 -0.0107009 0.00497406)
(0.00115248 -0.0152774 0.00528614)
(0.0020468 -0.0190312 0.00530356)
(0.00315034 -0.0218757 0.00519414)
(0.00442277 -0.0238493 0.00504758)
(0.00581955 -0.0250438 0.00490556)
(0.00729092 -0.0255574 0.00478485)
(0.00878978 -0.0254794 0.00469026)
(0.0102758 -0.0248892 0.00462069)
(0.0117145 -0.0238575 0.0045721)
(0.0130753 -0.022447 0.00453906)
(0.0143318 -0.0207154 0.0045154)
(0.01546 -0.0187188 0.0044933)
(0.0164354 -0.0165166 0.00446206)
(0.01725 -0.0141458 0.00442311)
(0.0178952 -0.0116284 0.0043844)
(0.0183537 -0.00900165 0.00434586)
(0.0186169 -0.00630471 0.00430604)
(0.0186789 -0.00357652 0.0042637)
(0.018532 -0.000856069 0.00421811)
(0.0181846 0.00181643 0.00416978)
(0.0176469 0.00440019 0.00411865)
(0.0169218 0.00685755 0.00406536)
(0.0160134 0.00915429 0.00401122)
(0.0149263 0.0112626 0.0039572)
(0.0136825 0.0131671 0.0039014)
(0.0122851 0.0149171 0.00385175)
(0.0107129 0.0166757 0.0038147)
(0.00894044 0.0188396 0.00376729)
(0.00688688 0.0221216 0.00363041)
(0.00454565 0.0266178 0.00323801)
(0.00218969 0.0290699 0.00241158)
(0.000261325 0.0197538 0.00104741)
(3.22968e-05 -0.00235707 0.00157836)
(0.000592766 -0.00902223 0.00314553)
(0.00139427 -0.0153154 0.00391058)
(0.00245306 -0.0209904 0.00422123)
(0.00367386 -0.0257678 0.00428282)
(0.00497407 -0.0294874 0.00421848)
(0.0062948 -0.0321304 0.00410072)
(0.00760059 -0.0337749 0.00397056)
(0.00887088 -0.0345353 0.0038497)
(0.0100906 -0.0345216 0.00374879)
(0.0112456 -0.0338269 0.00367227)
(0.012322 -0.0325298 0.00362085)
(0.0133066 -0.0307003 0.00359305)
(0.0141866 -0.0284044 0.00358626)
(0.0149496 -0.0257065 0.00359758)
(0.0155837 -0.0226705 0.00362393)
(0.0160793 -0.0193599 0.00366164)
(0.0164282 -0.0158311 0.00370827)
(0.0166256 -0.0121349 0.00376217)
(0.0166683 -0.00831904 0.00382086)
(0.016554 -0.0044314 0.00388114)
(0.016281 -0.000521583 0.00393848)
(0.0158481 0.00335636 0.0039869)
(0.0152543 0.00714053 0.00401936)
(0.0145022 0.0107671 0.00402997)
(0.0135966 0.0141802 0.00401672)
(0.0125446 0.0173477 0.00398321)
(0.0113535 0.0202866 0.00393843)
(0.0100291 0.0231076 0.0038949)
(0.00856309 0.0260833 0.00385803)
(0.00691962 0.0297263 0.0038044)
(0.00505015 0.0345229 0.00364169)
(0.00312585 0.0394563 0.0032163)
(0.00137788 0.0400999 0.00236832)
(0.000135941 0.0250414 0.00100208)
(2.41208e-05 -0.00588142 0.0014096)
(0.00063844 -0.0171745 0.00278851)
(0.00161816 -0.0266074 0.00336718)
(0.00286882 -0.0341142 0.00352952)
(0.00423526 -0.0396294 0.00350092)
(0.00560353 -0.0433067 0.00340111)
(0.00691248 -0.0454544 0.00328717)
(0.00814076 -0.0463913 0.00318141)
(0.00928313 -0.0463634 0.0030897)
(0.0103367 -0.0455383 0.0030118)
(0.0112985 -0.0440293 0.00294597)
(0.0121644 -0.0419175 0.00289074)
(0.0129292 -0.0392683 0.0028457)
(0.013586 -0.0361417 0.00281188)
(0.0141281 -0.0325978 0.00279203)
(0.0145496 -0.028698 0.0027906)
(0.0148462 -0.0245033 0.00281343)
(0.015016 -0.0200719 0.00286691)
(0.0150586 -0.0154567 0.00295676)
(0.0149752 -0.0107049 0.00308806)
(0.0147675 -0.00585845 0.00326259)
(0.0144371 -0.000959695 0.00347649)
(0.0139839 0.00394283 0.00371916)
(0.0134048 0.0087901 0.00397042)
(0.0126981 0.0135082 0.00420324)
(0.0118626 0.0180177 0.00438891)
(0.0108988 0.0222613 0.00450599)
(0.0098088 0.026252 0.00454745)
(0.00859302 0.0301357 0.00452013)
(0.00724126 0.0342558 0.00443206)
(0.00572589 0.0391164 0.00426642)
(0.00403141 0.0448113 0.00395502)
(0.0024164 0.0494276 0.00341589)
(0.00102534 0.0481675 0.00250894)
(8.28464e-05 0.0284953 0.00107011)
(5.57397e-05 -0.0084459 0.000970736)
(0.000660733 -0.0230451 0.00181439)
(0.00158011 -0.0344049 0.00209205)
(0.00267763 -0.0426988 0.0021216)
(0.00381069 -0.0481899 0.00205811)
(0.0048976 -0.0514225 0.00196749)
(0.00591629 -0.0529984 0.00187486)
(0.00687348 -0.053366 0.00178538)
(0.00777647 -0.0527956 0.00169675)
(0.00862599 -0.0514401 0.00160524)
(0.00941783 -0.0493889 0.00150784)
(0.0101435 -0.0467026 0.00140299)
(0.010791 -0.043435 0.00129116)
(0.0113472 -0.039648 0.00117541)
(0.0118004 -0.0354156 0.00106191)
(0.0121417 -0.0308213 0.000960076)
(0.0123669 -0.0259504 0.00088249)
(0.0124754 -0.0208827 0.000844289)
(0.0124705 -0.0156849 0.000862776)
(0.0123577 -0.0104079 0.000955859)
(0.0121431 -0.00508603 0.00114019)
(0.0118296 0.000258456 0.00142841)
(0.0114249 0.00560353 0.00182468)
(0.0109344 0.0109188 0.00231653)
(0.0103548 0.0161594 0.00287196)
(0.00967988 0.0212684 0.00343995)
(0.00890244 0.0262026 0.00396014)
(0.00801462 0.0309896 0.00437885)
(0.00700611 0.0358001 0.00465953)
(0.00586069 0.0409813 0.00477539)
(0.00455905 0.046886 0.00468838)
(0.00311961 0.0530919 0.0043451)
(0.00181672 0.0570851 0.00373338)
(0.000734834 0.0540569 0.00273938)
(3.76743e-05 0.0307514 0.00113765)
(4.72344e-05 -0.0110317 0.000664454)
(0.000561096 -0.0289101 0.0012547)
(0.00133039 -0.0420535 0.00149686)
(0.00223632 -0.0510039 0.00158774)
(0.00315871 -0.0564407 0.00160329)
(0.00403913 -0.0593239 0.00157777)
(0.0048744 -0.0604972 0.00152966)
(0.0056767 -0.0604695 0.00146444)
(0.00644887 -0.0594953 0.00138157)
(0.0071863 -0.0576974 0.00127892)
(0.00788082 -0.0551376 0.00115422)
(0.00852078 -0.051858 0.00100588)
(0.00909167 -0.0479102 0.000833641)
(0.00957764 -0.0433714 0.000639476)
(0.00996553 -0.0383413 0.000428298)
(0.0102485 -0.0329375 0.000208669)
(0.0104247 -0.0272814 -6.85868e-06)
(0.0104961 -0.0214844 -0.000201377)
(0.0104683 -0.0156378 -0.000354423)
(0.0103495 -0.00980703 -0.000441964)
(0.0101487 -0.0040307 -0.000437296)
(0.00987443 0.00167527 -0.000313335)
(0.00953199 0.00731028 -4.65225e-05)
(0.00912447 0.0128761 0.000376555)
(0.00865155 0.01837 0.000950254)
(0.00810725 0.0237858 0.0016422)
(0.00747998 0.0291343 0.00239289)
(0.00675373 0.0344931 0.00312603)
(0.00590944 0.0400639 0.00376147)
(0.00492754 0.046159 0.00421574)
(0.00379727 0.0529101 0.0043934)
(0.00256751 0.059396 0.00420859)
(0.0014836 0.0628017 0.00366011)
(0.000593317 0.0583203 0.0026724)
(3.19029e-05 0.0322673 0.0010473)
(5.22695e-05 -0.0129884 0.000427056)
(0.000489611 -0.0331983 0.000835697)
(0.00112837 -0.0474991 0.00104918)
(0.00187046 -0.056807 0.00116525)
(0.0026203 -0.0621556 0.00121372)
(0.00333723 -0.0648057 0.0012166)
(0.00402617 -0.0657284 0.00119062)
(0.00469778 -0.0654394 0.00114204)
(0.00535073 -0.0641684 0.0010719)
(0.00597822 -0.062011 0.000979311)
(0.00657097 -0.0590052 0.0008625)
(0.00711654 -0.0551805 0.000719408)
(0.00759968 -0.0505934 0.000548404)
(0.00800599 -0.0453403 0.000349182)
(0.00832566 -0.0395579 0.000123902)
(0.00855297 -0.0334054 -0.000121977)
(0.00868649 -0.0270434 -0.000378768)
(0.00872904 -0.0206171 -0.00063194)
(0.00868698 -0.0142421 -0.00086177)
(0.00856913 -0.00799718 -0.00104406)
(0.00838525 -0.00192248 -0.00115112)
(0.00814588 0.0039756 -0.00115334)
(0.00785998 0.00971541 -0.00102186)
(0.00753136 0.0153326 -0.000732969)
(0.0071586 0.020872 -0.000274568)
(0.00673384 0.0263859 0.000345547)
(0.00624141 0.0319514 0.00109353)
(0.00565946 0.0377059 0.00190861)
(0.00496371 0.0438754 0.00270482)
(0.00413361 0.0507008 0.00336792)
(0.00316493 0.0580568 0.00375528)
(0.00212831 0.0646001 0.00373904)
(0.00122313 0.0674434 0.00329958)
(0.000480713 0.0616883 0.00239012)
(2.42937e-05 0.0334673 0.00088382)
(3.68961e-05 -0.0146784 0.000293564)
(0.000379378 -0.0369755 0.000654377)
(0.000893232 -0.0523971 0.000915097)
(0.00150545 -0.0621505 0.00109457)
(0.00213458 -0.0675454 0.00119341)
(0.00274498 -0.0700894 0.00123171)
(0.00334144 -0.0708598 0.00123035)
(0.00393081 -0.0703815 0.00119893)
(0.00450826 -0.068866 0.00114049)
(0.00506558 -0.0663867 0.00105529)
(0.00559308 -0.0629627 0.000942096)
(0.00607873 -0.0586146 0.000798706)
(0.0065096 -0.0534051 0.000622455)
(0.00687443 -0.0474545 0.000411188)
(0.00716468 -0.04093 0.000164205)
(0.00737488 -0.0340245 -0.000116495)
(0.00750284 -0.0269344 -0.000424556)
(0.0075498 -0.0198387 -0.000747685)
(0.00752038 -0.012883 -0.00106675)
(0.00742229 -0.00617089 -0.0013557)
(0.00726591 0.000240763 -0.00158288)
(0.00706142 0.00634109 -0.00171371)
(0.0068179 0.0121632 -0.00171422)
(0.00654177 0.0177777 -0.00155516)
(0.00623276 0.0232837 -0.00121672)
(0.00588177 0.0288028 -0.000694086)
(0.00547283 0.0344866 -3.41565e-06)
(0.00498366 0.0405347 0.000811108)
(0.00438741 0.0471907 0.00167029)
(0.00366345 0.0546109 0.00244946)
(0.00281018 0.0624286 0.00297991)
(0.00190655 0.0689787 0.00310367)
(0.00111161 0.0713826 0.00278406)
(0.000446536 0.0645683 0.00199684)
(3.07593e-05 0.0345646 0.000696886)
(3.61493e-05 -0.0159906 0.000239105)
(0.000335863 -0.0399477 0.000605752)
(0.00078851 -0.0563071 0.000900063)
(0.00133019 -0.066484 0.0011066)
(0.00188737 -0.071988 0.00122237)
(0.00242876 -0.0745085 0.00127172)
(0.00295954 -0.0751985 0.00127865)
(0.0034845 -0.0745899 0.00125515)
(0.00399764 -0.0728833 0.00120626)
(0.00449111 -0.0701369 0.00113392)
(0.00495633 -0.0663572 0.00103812)
(0.00538293 -0.0615613 0.000917155)
(0.00576035 -0.0558205 0.000767894)
(0.00607967 -0.0492723 0.00058644)
(0.0063347 -0.0421046 0.000368981)
(0.00652151 -0.0345349 0.000112988)
(0.00663762 -0.0267853 -0.000181169)
(0.00668308 -0.0190626 -0.000508071)
(0.00666075 -0.0115396 -0.000855167)
(0.00657653 -0.00434514 -0.00120122)
(0.00643894 0.00244115 -0.00151622)
(0.00625826 0.0087935 -0.00176351)
(0.0060446 0.014747 -0.00190377)
(0.00580488 0.0203963 -0.00189981)
(0.00553977 0.0258851 -0.00172124)
(0.00524137 0.0313969 -0.00134943)
(0.00489262 0.0371549 -0.00078363)
(0.00447017 0.0434195 -5.04343e-05)
(0.0039492 0.0504501 0.000782082)
(0.00330969 0.0583263 0.00158919)
(0.00254947 0.0664794 0.00219096)
(0.00174738 0.0730084 0.00241208)
(0.00103179 0.0750529 0.00220525)
(0.000420076 0.0673123 0.00156451)
(3.09641e-05 0.0356979 0.000514283)
(2.68067e-05 -0.0171993 0.000228628)
(0.000285367 -0.0427608 0.000623641)
(0.000687926 -0.0600703 0.000951208)
(0.00117826 -0.0707003 0.00118251)
(0.00168667 -0.0763407 0.00131494)
(0.00218334 -0.0788558 0.0013763)
(0.00267285 -0.0794753 0.00139292)
(0.00315808 -0.0787428 0.00137821)
(0.00363179 -0.0768518 0.00133816)
(0.00408592 -0.0738489 0.00127553)
(0.00451231 -0.0697317 0.00119099)
(0.00490174 -0.0645159 0.00108326)
(0.00524545 -0.0582813 0.000949232)
(0.00553638 -0.0511798 0.000784548)
(0.00576915 -0.0434169 0.000584503)
(0.00594087 -0.035225 0.000345171)
(0.00605031 -0.0268463 6.46846e-05)
(0.00609663 -0.0185099 -0.00025491)
(0.00608113 -0.0104143 -0.000605419)
(0.00600785 -0.00271521 -0.000970539)
(0.0058839 0.00448111 -0.00132482)
(0.00571858 0.0111307 -0.00163485)
(0.00552189 0.0172673 -0.00186276)
(0.00530138 0.0230041 -0.00197032)
(0.00505915 0.0285221 -0.00192257)
(0.0047893 0.0340575 -0.00169164)
(0.00447672 0.0398944 -0.00126282)
(0.00409846 0.0463466 -0.000645934)
(0.0036303 0.0536867 0.000106294)
(0.00305357 0.0619285 0.000878246)
(0.00236406 0.0703414 0.00149226)
(0.00163659 0.0768485 0.00176903)
(0.000976734 0.0785885 0.00165731)
(0.000401217 0.0700002 0.00116492)
(3.04895e-05 0.0368487 0.000360725)
(2.64706e-05 -0.0182633 0.000243432)
(0.00027037 -0.0452781 0.000678632)
(0.000649403 -0.0634766 0.00102972)
(0.00110851 -0.0745569 0.00126932)
(0.00158149 -0.0803617 0.00140336)
(0.00204165 -0.0829056 0.00146525)
(0.00249434 -0.0834847 0.00148329)
(0.00294188 -0.0826556 0.001472)
(0.00337697 -0.0806084 0.00143842)
(0.00379208 -0.0773828 0.00138641)
(0.00417983 -0.0729719 0.00131761)
(0.00453219 -0.0673932 0.00123132)
(0.00484196 -0.0607345 0.00112429)
(0.00510377 -0.0531586 0.00099113)
(0.00531391 -0.0448824 0.000825207)
(0.00546974 -0.036151 0.000619837)
(0.00556964 -0.0272157 0.000369868)
(0.00561342 -0.0183184 7.349e-05)
(0.00560231 -0.00967719 -0.000265522)
(0.0055386 -0.00147151 -0.000635262)
(0.00542741 0.00616506 -0.00101378)
(0.00527637 0.013166 -0.00136978)
(0.00509427 0.0195564 -0.00166611)
(0.00488845 0.0254583 -0.00186417)
(0.00466179 0.0310796 -0.00192715)
(0.00441043 0.0366979 -0.00182243)
(0.00412216 0.0426467 -0.0015263)
(0.00377689 0.0492847 -0.00103567)
(0.00335054 0.0568995 -0.000388491)
(0.00282473 0.0654517 0.000313712)
(0.0021948 0.0740816 0.000903704)
(0.00152994 0.0805728 0.00120711)
(0.000918001 0.0820393 0.00117269)
(0.00037664 0.072645 0.000818574)
(2.75635e-05 0.0379913 0.000235905)
(2.24783e-05 -0.0193066 0.000267205)
(0.000251221 -0.0477602 0.000733453)
(0.000609293 -0.0668288 0.00109542)
(0.00104398 -0.0783317 0.00133577)
(0.00149065 -0.0842756 0.0014685)
(0.00192411 -0.0868301 0.00153031)
(0.00234987 -0.0873561 0.00154997)
(0.00276953 -0.0864218 0.0015422)
(0.00317562 -0.0842142 0.00151448)
(0.00356088 -0.0807674 0.00147125)
(0.00391851 -0.0760718 0.00141477)
(0.00424146 -0.0701486 0.00134482)
(0.0045238 -0.0630941 0.00125834)
(0.00476146 -0.0550817 0.0011498)
(0.00495187 -0.0463378 0.00101206)
(0.00509335 -0.0371159 0.000837529)
(0.00518465 -0.027676 0.000619553)
(0.0052248 -0.0182695 0.000354074)
(0.00521462 -0.00912521 4.153e-05)
(0.00515663 -0.000442071 -0.000310823)
(0.00505428 0.00762307 -0.000686208)
(0.00491344 0.0149834 -0.00105776)
(0.0047415 0.0216549 -0.00139129)
(0.00454505 0.0277645 -0.00164961)
(0.00432729 0.0335395 -0.00179577)
(0.00408588 0.0392897 -0.00179472)
(0.00381137 0.045387 -0.00161701)
(0.00348731 0.0522241 -0.00124948)
(0.003093 0.0600969 -0.000716334)
(0.00260951 0.0689227 -0.000103174)
(0.00202992 0.0777324 0.000438943)
(0.00141982 0.0841935 0.000746638)
(0.000852616 0.0853861 0.000770969)
(0.000346964 0.0751974 0.000536585)
(2.3773e-05 0.039082 0.000140066)
(2.20699e-05 -0.0203062 0.000292686)
(0.000243321 -0.0501422 0.000788548)
(0.000586315 -0.0700464 0.00115763)
(0.000999088 -0.0819588 0.00139377)
(0.00141967 -0.0880456 0.0015204)
(0.00182562 -0.0906211 0.00157829)
(0.00222319 -0.0911051 0.00159676)
(0.00261377 -0.0900774 0.00159078)
(0.00299009 -0.087724 0.00156832)
(0.00334541 -0.0840762 0.00153456)
(0.00367356 -0.0791248 0.00149255)
(0.00396846 -0.0728964 0.00144252)
(0.00422533 -0.0654959 0.00138131)
(0.00444119 -0.057105 0.0013026)
(0.00461438 -0.0479563 0.00119776)
(0.00474387 -0.0383074 0.00105724)
(0.00482891 -0.0284219 0.000872276)
(0.0048689 -0.018556 0.000636691)
(0.00486358 -0.00894729 0.00034884)
(0.00481371 0.000192593 1.37135e-05)
(0.00472228 0.00868615 -0.000354746)
(0.00459393 0.0164268 -0.000732805)
(0.00443431 0.0234189 -0.00108915)
(0.00424882 0.0297894 -0.00138889)
(0.00404041 0.0357783 -0.00159652)
(0.00380768 0.0417185 -0.00167714)
(0.00354337 0.0480114 -0.00159888)
(0.00323435 0.0550748 -0.0013421)
(0.00286345 0.0632096 -0.000919397)
(0.00241302 0.0722937 -0.000400036)
(0.00187579 0.0812633 8.35228e-05)
(0.00131404 0.087686 0.000382006)
(0.000788634 0.0886038 0.000449664)
(0.000318139 0.0776354 0.000314552)
(2.07009e-05 0.0401084 6.8107e-05)
(2.01141e-05 -0.0212903 0.000315692)
(0.000232844 -0.052472 0.000828247)
(0.000561473 -0.0731671 0.00119305)
(0.000955269 -0.0854445 0.00141803)
(0.00135406 -0.0916419 0.00153522)
(0.00173726 -0.094219 0.00158759)
(0.00211142 -0.0946498 0.00160392)
(0.00247755 -0.0935224 0.00159883)
(0.00282847 -0.0910211 0.0015805)
(0.00315786 -0.0871753 0.00155466)
(0.00346022 -0.0819779 0.00152499)
(0.0037304 -0.0754623 0.00149237)
(0.00396474 -0.067743 0.001454)
(0.00416126 -0.0590097 0.0014035)
(0.00431911 -0.0495 0.00133162)
(0.00443782 -0.0394741 0.0012275)
(0.00451692 -0.0291965 0.00108037)
(0.00455583 -0.0189252 0.000881565)
(0.0045541 -0.00890253 0.000626691)
(0.00451162 0.00064955 0.000317897)
(0.00442952 0.00953844 -3.37888e-05)
(0.00431139 0.017642 -0.000407461)
(0.0041622 0.0249544 -0.000774476)
(0.00398607 0.0316019 -0.00110187)
(0.00378543 0.0378336 -0.00135539)
(0.00355933 0.0440002 -0.00150075)
(0.00330209 0.0505243 -0.00150527)
(0.00300334 0.0578403 -0.00134534)
(0.00264953 0.066245 -0.00102451)
(0.00222617 0.0755743 -0.0005971)
(0.00172627 0.0846787 -0.000176738)
(0.00120842 0.0910398 0.000103148)
(0.000723237 0.0916691 0.00020058)
(0.000288518 0.0799307 0.000144674)
(1.75758e-05 0.0410584 1.57178e-05)
(1.939e-05 -0.0222572 0.000336149)
(0.000225311 -0.0547533 0.000862903)
(0.000540311 -0.0762134 0.0012228)
(0.000914906 -0.0888405 0.00143631)
(0.00129148 -0.0951444 0.00154361)
(0.0016517 -0.0977252 0.00158996)
(0.00200252 -0.0981069 0.00160375)
(0.00234464 -0.0968859 0.00159934)
(0.00267112 -0.0942463 0.00158519)
(0.00297607 -0.0902177 0.00156755)
(0.0032546 -0.0847977 0.00155077)
(0.00350244 -0.0780275 0.00153621)
(0.00371693 -0.0700302 0.00152126)
(0.00389703 -0.0610018 0.00149926)
(0.00404261 -0.0511824 0.00146014)
(0.00415373 -0.0408311 0.00139165)
(0.00423017 -0.03021 0.00128113)
(0.00427126 -0.0195753 0.00111768)
(0.00427606 -0.0091711 0.00089458)
(0.00424374 0.000773437 0.000611783)
(0.00417444 0.0100519 0.000278159)
(0.00406974 0.0185271 -8.76564e-05)
(0.00393286 0.0261825 -0.000459095)
(0.00376732 0.03314 -0.000805074)
(0.00357513 0.0396539 -0.00109291)
(0.0033555 0.0460884 -0.0012895)
(0.0031039 0.0528813 -0.00136242)
(0.00281229 0.0604772 -0.00128583)
(0.0024704 0.069164 -0.00105632)
(0.00206713 0.0787342 -0.000715024)
(0.00159727 0.0879574 -0.000357548)
(0.00111681 0.0942429 -0.000101506)
(0.000667152 0.0945791 1.49029e-05)
(0.00026421 0.0820914 2.00515e-05)
(1.57663e-05 0.0419411 -2.01894e-05)
(1.81585e-05 -0.0231989 0.00035165)
(0.000217167 -0.0569559 0.000881022)
(0.000519906 -0.0791286 0.00122689)
(0.000877867 -0.0920625 0.00142329)
(0.00123526 -0.0984463 0.00151769)
(0.00157558 -0.101017 0.0015563)
(0.00190602 -0.101342 0.00156623)
(0.00222702 -0.100025 0.00156125)
(0.00253182 -0.0972476 0.0015499)
(0.00281501 -0.0930416 0.0015389)
(0.00307225 -0.0874099 0.00153323)
(0.00330008 -0.0804033 0.00153496)
(0.00349669 -0.0721543 0.00154208)
(0.00366183 -0.0628656 0.00154823)
(0.00379603 -0.0527791 0.00154316)
(0.00389988 -0.0421516 0.00151362)
(0.00397345 -0.0312404 0.00144502)
(0.00401609 -0.0202967 0.00132367)
(0.00402651 -0.00956228 0.00113953)
(0.00400312 0.000730474 0.000889263)
(0.00394501 0.0103652 0.000579015)
(0.00385256 0.0191915 0.000225512)
(0.0037275 0.0271829 -0.000145912)
(0.00357216 0.0344574 -0.000504998)
(0.00338813 0.0412722 -0.000819835)
(0.00317473 0.0480006 -0.00105824)
(0.00292822 0.0550909 -0.00118834)
(0.00264235 0.0629908 -0.00118317)
(0.00230967 0.0719719 -0.00103419)
(0.00192249 0.0817788 -0.000771417)
(0.00147868 0.0911023 -0.000474159)
(0.00103175 0.097294 -0.00024506)
(0.00061459 0.0973303 -0.000118571)
(0.000241388 0.0841153 -6.81373e-05)
(1.39246e-05 0.042759 -4.3407e-05)
(1.7141e-05 -0.0241282 0.000364789)
(0.00020948 -0.0591215 0.000895309)
(0.000500207 -0.0819846 0.00122803)
(0.0008419 -0.0952101 0.00140875)
(0.00118087 -0.101667 0.00149131)
(0.00150242 -0.104227 0.00152274)
(0.00181394 -0.104498 0.0015291)
(0.0021156 -0.103088 0.00152367)
(0.00240083 -0.100181 0.00151502)
(0.00266459 -0.0958103 0.00151026)
(0.00290307 -0.0899866 0.00151483)
(0.00311349 -0.08277 0.00153133)
(0.00329479 -0.0743022 0.0015582)
(0.00344741 -0.0647906 0.00158943)
(0.00357255 -0.0544779 0.00161483)
(0.00367132 -0.0436163 0.00162076)
(0.00374414 -0.0324558 0.00159147)
(0.0037904 -0.0212396 0.0015112)
(0.00380847 -0.0102044 0.00136694)
(0.00379597 0.000417572 0.00115185)
(0.00375073 0.010402 0.000868662)
(0.00367167 0.0195851 0.000531552)
(0.0035592 0.0279279 0.000164399)
(0.00341458 0.0355418 -0.000203186)
(0.00323877 0.0426848 -0.000539619)
(0.00303113 0.0497361 -0.000813108)
(0.00278871 0.0571511 -0.000992166)
(0.00250679 0.0653762 -0.00104909)
(0.00218035 0.0746622 -0.000971338)
(0.00180486 0.084703 -0.0007796)
(0.00138136 0.0941138 -0.000538854)
(0.00096189 0.100201 -0.000338065)
(0.000572047 0.0999378 -0.000208419)
(0.000223649 0.0860218 -0.000125936)
(1.30123e-05 0.0435237 -5.59821e-05)
(1.63904e-05 -0.025028 0.000372757)
(0.0002029 -0.0612002 0.000894826)
(0.000483221 -0.0847042 0.00120729)
(0.0008108 -0.098185 0.00136792)
(0.00113369 -0.104696 0.00143624)
(0.00143879 -0.107234 0.00145905)
(0.00173364 -0.107446 0.00146071)
(0.00201814 -0.105943 0.00145373)
(0.00228595 -0.102908 0.00144666)
(0.00253239 -0.0983784 0.00144692)
(0.00275407 -0.0923729 0.00146044)
(0.00294876 -0.0849623 0.00149046)
(0.00311597 -0.0762983 0.00153607)
(0.00325675 -0.0665944 0.00159189)
(0.00337283 -0.0560938 0.00164806)
(0.00346589 -0.0450438 0.00169078)
(0.00353679 -0.0336853 0.00170333)
(0.00358518 -0.0222503 0.00166787)
(0.00360933 -0.0109659 0.00156829)
(0.00360632 -5.92945e-05 0.00139382)
(0.0035729 0.0102418 0.00114323)
(0.00350662 0.0197627 0.000827578)
(0.00340646 0.0284522 0.000469139)
(0.00327257 0.0364129 9.71612e-05)
(0.00310529 0.0439004 -0.000256539)
(0.0029039 0.0512965 -0.00055997)
(0.00266594 0.0590596 -0.000781581)
(0.00238794 0.0676298 -0.000892915)
(0.00206697 0.0772317 -0.000878204)
(0.00170127 0.0875057 -0.000750362)
(0.00129499 0.0969928 -0.000562008)
(0.000899351 0.102966 -0.000389954)
(0.00053372 0.102406 -0.000262736)
(0.000207492 0.0878163 -0.000159385)
(1.20043e-05 0.0442396 -6.03562e-05)
(1.53997e-05 -0.0259153 0.000378844)
(0.000195772 -0.0632438 0.000891557)
(0.000465872 -0.0873685 0.00118497)
(0.000780204 -0.10109 0.00132723)
(0.00108844 -0.107646 0.00138259)
(0.00137883 -0.110161 0.00139749)
(0.00165898 -0.110315 0.00139477)
(0.00192849 -0.108721 0.00138624)
(0.00218121 -0.105564 0.00138038)
(0.00241276 -0.100886 0.00138476)
(0.00262011 -0.0947139 0.00140567)
(0.0028015 -0.0871287 0.00144675)
(0.00295692 -0.0782918 0.00150771)
(0.00308791 -0.0684223 0.00158382)
(0.00319674 -0.0577633 0.00166593)
(0.00328555 -0.0465569 0.00174071)
(0.00335567 -0.0350335 0.00179126)
(0.00340703 -0.0234125 0.00179859)
(0.00343785 -0.0119084 0.00174403)
(0.00344474 -0.000740162 0.00161297)
(0.00342344 0.00986456 0.00139953)
(0.00337009 0.0197214 0.00111066)
(0.00328221 0.0287657 0.000766092)
(0.0031588 0.037089 0.000394278)
(0.00299956 0.0449413 2.74236e-05)
(0.00280369 0.0527042 -0.000301764)
(0.00256936 0.0608356 -0.000561094)
(0.00229421 0.0697662 -0.000721074)
(0.00197697 0.0796915 -0.000762944)
(0.00161832 0.0901958 -0.000692912)
(0.0012253 0.0997497 -0.000552979)
(0.000848642 0.105605 -0.000409401)
(0.00050283 0.104751 -0.000288767)
(0.000194896 0.0895151 -0.000173537)
(1.15485e-05 0.0449145 -5.82911e-05)
(1.48782e-05 -0.0267735 0.000380074)
(0.000190453 -0.0652052 0.000875577)
(0.000452312 -0.089908 0.00114447)
(0.000755461 -0.10384 0.00126512)
(0.00105096 -0.110427 0.00130583)
(0.00132839 -0.112913 0.00131181)
(0.00159547 -0.113005 0.00130392)
(0.00185163 -0.111321 0.00129309)
(0.00209089 -0.108045 0.00128766)
(0.00230913 -0.103223 0.00129535)
(0.00250353 -0.096892 0.00132277)
(0.00267268 -0.0891449 0.00137408)
(0.00281692 -0.0801533 0.0014496)
(0.00293821 -0.0701429 0.00154534)
(0.00303929 -0.0593577 0.00165284)
(0.00312284 -0.048034 0.00175927)
(0.00319071 -0.036391 0.00184781)
(0.00324328 -0.0246331 0.00189863)
(0.00327899 -0.0129583 0.00189099)
(0.00329422 -0.00157233 0.00180668)
(0.00328391 0.00930277 0.00163507)
(0.00324291 0.0194765 0.00137838)
(0.00316722 0.028871 0.00105302)
(0.00305456 0.0375645 0.000686152)
(0.00290383 0.0457977 0.000310298)
(0.00271403 0.0539477 -4.07718e-05)
(0.00248373 0.0624679 -0.0003337)
(0.00221179 0.0717756 -0.00053754)
(0.00189854 0.0820338 -0.000630662)
(0.00154646 0.0927697 -0.000613352)
(0.00116504 0.102385 -0.000518376)
(0.0008046 0.10812 -0.000402881)
(0.000475664 0.106981 -0.000292225)
(0.000183595 0.0911248 -0.000172578)
(1.10414e-05 0.0455521 -5.14475e-05)
(1.40296e-05 -0.0276189 0.000379447)
(0.000184511 -0.0671319 0.000856708)
(0.000438416 -0.0923937 0.00110203)
(0.000731467 -0.106522 0.00120261)
(0.00101583 -0.113131 0.0012298)
(0.00128212 -0.115582 0.00122743)
(0.00153809 -0.115613 0.00121453)
(0.00178297 -0.11384 0.0012012)
(0.00201096 -0.110449 0.00119555)
(0.00221808 -0.105491 0.00120533)
(0.00240171 -0.0990112 0.00123735)
(0.00256066 -0.0911144 0.00129615)
(0.0026956 -0.0819826 0.00138267)
(0.00280884 -0.0718483 0.0014937)
(0.00290351 -0.0609564 0.00162174)
(0.00298276 -0.0495383 0.00175494)
(0.00304892 -0.037802 0.00187715)
(0.00310278 -0.0259362 0.00196849)
(0.00314302 -0.0141208 0.00200682)
(0.00316595 -0.00254482 0.00197079)
(0.00316584 0.00857953 0.00184494)
(0.00313639 0.0190591 0.00162598)
(0.00307214 0.0288034 0.00132588)
(0.00296953 0.0378756 0.000969572)
(0.00282664 0.0465044 0.000589447)
(0.00264224 0.0550587 0.000220461)
(0.00241526 0.063984 -0.000102401)
(0.00214545 0.0736806 -0.000346226)
(0.00183483 0.0842762 -0.000486275)
(0.00148787 0.0952401 -0.000517417)
(0.001116 0.104911 -0.000464361)
(0.000768928 0.110524 -0.000376363)
(0.000453872 0.109107 -0.000278246)
(0.000174786 0.0926565 -0.000160097)
(1.09035e-05 0.0461574 -4.11072e-05)
(1.3768e-05 -0.028439 0.000374551)
(0.000180611 -0.0689879 0.000827435)
(0.000428432 -0.0947738 0.00104532)
(0.000713255 -0.109075 0.00112377)
(0.000988201 -0.115693 0.00113656)
(0.00124493 -0.118105 0.00112536)
(0.00149128 -0.118072 0.001107)
(0.00172628 -0.116212 0.00109067)
(0.00194422 -0.112709 0.00108424)
(0.00214131 -0.107618 0.0010955)
(0.00231501 -0.100996 0.00113147)
(0.00246431 -0.0929587 0.00119708)
(0.00259014 -0.0837009 0.00129379)
(0.0026951 -0.0734619 0.00141909)
(0.00278269 -0.0624884 0.00156634)
(0.00285654 -0.051007 0.00172461)
(0.00291953 -0.0392145 0.00187861)
(0.00297298 -0.0272823 0.00200878)
(0.00301605 -0.0153698 0.0020923)
(0.00304516 -0.00364507 0.00210542)
(0.00305412 0.00769507 0.00202824)
(0.00303561 0.0184594 0.00185176)
(0.00298272 0.0285462 0.0015827)
(0.00289047 0.0380025 0.00124272)
(0.00275596 0.047041 0.000863413)
(0.00257759 0.0560181 0.000480724)
(0.00235454 0.0653671 0.000131521)
(0.00208736 0.0754678 -0.000148903)
(0.00177923 0.0864101 -0.000332442)
(0.00143644 0.0976045 -0.000408679)
(0.00107288 0.107328 -0.000395055)
(0.000737617 0.112823 -0.000334092)
(0.0004346 0.111137 -0.000250661)
(0.00016687 0.0941168 -0.000138922)
(1.07216e-05 0.0467335 -2.84329e-05)
(1.31562e-05 -0.0292466 0.000367798)
(0.000175992 -0.0708088 0.000795037)
(0.000417923 -0.0970995 0.000986036)
(0.000695491 -0.111559 0.00104356)
(0.000962575 -0.118178 0.00104286)
(0.0012117 -0.120546 0.00102331)
(0.00145063 -0.120448 0.000999491)
(0.00167788 -0.118499 0.000979714)
(0.00188778 -0.114886 0.000971629)
(0.00207669 -0.109666 0.000983024)
(0.00224222 -0.102905 0.00102104)
(0.00238357 -0.0947342 0.0010909)
(0.00250184 -0.0853578 0.00119454)
(0.00259983 -0.0750236 0.00133023)
(0.00268134 -0.0639805 0.0014923)
(0.00275032 -0.0524515 0.00167104)
(0.00281012 -0.0406231 0.00185238)
(0.00286262 -0.0286502 0.00201765)
(0.00290745 -0.0166705 0.00214399)
(0.00294133 -0.00482855 0.00220596)
(0.00295789 0.00669906 0.00217972)
(0.002949 0.0177279 0.00205036)
(0.00290643 0.0281476 0.0018185)
(0.00282384 0.0379888 0.0015014)
(0.00269726 0.0474461 0.00112886)
(0.00252462 0.0568596 0.000737385)
(0.00230531 0.0666457 0.00036581)
(0.0020406 0.0771605 5.21542e-05)
(0.00173479 0.0884536 -0.000171804)
(0.00139541 0.0998771 -0.000290393)
(0.00103809 0.10965 -0.00031424)
(0.000711991 0.115027 -0.000279845)
(0.00041889 0.11308 -0.00021279)
(0.0001605 0.0955124 -0.000111425)
(1.0659e-05 0.0472825 -1.42338e-05)
(1.30708e-05 -0.0300329 0.000357561)
(0.000173175 -0.0725707 0.000754663)
(0.000410731 -0.0993373 0.000916221)
(0.000682432 -0.113937 0.000951621)
(0.000942981 -0.120549 0.000937053)
(0.0011858 -0.122872 0.000908938)
(0.00141854 -0.122707 0.000879489)
(0.00163923 -0.120668 0.00085606)
(0.0018421 -0.116944 0.000846039)
(0.00202363 -0.111597 0.000857255)
(0.00218167 -0.104702 0.000896938)
(0.00231552 -0.0964044 0.000970485)
(0.00242642 -0.0869197 0.00108023)
(0.00251735 -0.0765041 0.00122499)
(0.00259236 -0.0654093 0.00139996)
(0.00265574 -0.0538552 0.00159654)
(0.00271131 -0.0420187 0.00180197)
(0.00276152 -0.0300377 0.00199886)
(0.00280661 -0.0180275 0.00216498)
(0.00284378 -0.00610637 0.00227413)
(0.00286667 0.00557445 0.00229941)
(0.00286656 0.0168425 0.00222035)
(0.00283401 0.0275821 0.002031)
(0.00276124 0.0378075 0.00174314)
(0.00264306 0.047693 0.00138365)
(0.00247676 0.0575576 0.00098886)
(0.00226177 0.0677971 0.000599335)
(0.00200002 0.0787395 0.000255998)
(0.00169679 0.090392 -5.44215e-06)