/*--------------------------------*- C++ -*----------------------------------*\
| =========                 |                                                 |
| \\      /  F ield         | OpenFOAM: The Open Source CFD Toolbox           |
|  \\    /   O peration     | Version:  v2012                                 |
|   \\  /    A nd           | Website:  www.openfoam.com                      |
|    \\/     M anipulation  |                                                 |
\*---------------------------------------------------------------------------*/
FoamFile
{
    version     2.0;
    format      ascii;
    class       volVectorField;
    location    "84";
    object      U;
}
// * * * * * * * * * * * * * * * * * * * * * * * * * * * * * * * * * * * * * //

dimensions      [0 1 -1 0 0 0 0];


internalField   nonuniform List<vector> 
78750
(
(-9.98397e-07 -6.19591e-05 0.000125487)
(-1.81578e-06 -8.95154e-05 0.000219878)
(-6.24896e-06 -9.43358e-05 0.000268336)
(-1.36181e-05 -9.02707e-05 0.000301846)
(-2.43204e-05 -8.10476e-05 0.000323728)
(-3.79189e-05 -6.89453e-05 0.000336655)
(-5.38014e-05 -5.56287e-05 0.0003426)
(-7.12579e-05 -4.21984e-05 0.000343137)
(-8.97319e-05 -2.94287e-05 0.000339436)
(-0.000108621 -1.7782e-05 0.000332482)
(-0.000127419 -7.61416e-06 0.000323011)
(-0.000145658 9.641e-07 0.000311666)
(-0.000162921 7.82852e-06 0.000298926)
(-0.000178842 1.30252e-05 0.000285239)
(-0.000193102 1.65449e-05 0.000270939)
(-0.000205428 1.85011e-05 0.00025637)
(-0.000215592 1.8928e-05 0.000241792)
(-0.000223407 1.79589e-05 0.000227489)
(-0.000228728 1.56461e-05 0.000213685)
(-0.000231451 1.21229e-05 0.000200628)
(-0.000231508 7.44884e-06 0.000188509)
(-0.000228862 1.7634e-06 0.000177537)
(-0.000223503 -4.84745e-06 0.000167855)
(-0.000215458 -1.22187e-05 0.000159605)
(-0.000204788 -2.0222e-05 0.000152842)
(-0.000191581 -2.8635e-05 0.000147579)
(-0.000175968 -3.72339e-05 0.000143705)
(-0.00015809 -4.56617e-05 0.000141001)
(-0.000138135 -5.35177e-05 0.000139079)
(-0.000116346 -6.02056e-05 0.00013733)
(-9.29065e-05 -6.49787e-05 0.000134812)
(-6.7934e-05 -6.67735e-05 0.000130136)
(-4.22571e-05 -6.41611e-05 0.000121309)
(-2.10328e-05 -5.52131e-05 0.000105378)
(-5.62024e-06 -3.19667e-05 6.62065e-05)
(-1.71265e-06 8.44397e-05 -0.000174497)
(-1.49787e-05 0.000178423 -0.000266986)
(-2.97219e-05 0.000230031 -0.000301745)
(-5.16155e-05 0.000272075 -0.000330531)
(-7.50683e-05 0.000304793 -0.000353653)
(-9.84881e-05 0.000328908 -0.000371603)
(-0.00012115 0.000345779 -0.000385596)
(-0.000142568 0.000356094 -0.00039698)
(-0.000162289 0.000361002 -0.000406189)
(-0.000180011 0.000360922 -0.000413838)
(-0.00019552 0.000356779 -0.000419986)
(-0.00020869 0.000348837 -0.000425015)
(-0.000219429 0.000337878 -0.000428856)
(-0.000227745 0.000324008 -0.000431807)
(-0.000233607 0.000307934 -0.000433749)
(-0.000237068 0.000289764 -0.00043491)
(-0.000238174 0.000270092 -0.000435165)
(-0.000237011 0.000248993 -0.000434713)
(-0.000233666 0.000226999 -0.000433426)
(-0.000228275 0.000204172 -0.000431466)
(-0.000220932 0.000180999 -0.000428696)
(-0.000211835 0.000157436 -0.000425281)
(-0.000201099 0.000133919 -0.000421072)
(-0.000188907 0.000110502 -0.000416131)
(-0.000175416 8.75692e-05 -0.000410256)
(-0.000160815 6.51668e-05 -0.000403407)
(-0.000145255 4.36406e-05 -0.000395271)
(-0.000128934 2.3041e-05 -0.000385493)
(-0.00011203 3.69655e-06 -0.000373308)
(-9.4721e-05 -1.43072e-05 -0.000357783)
(-7.70549e-05 -3.05703e-05 -0.000337339)
(-5.88008e-05 -4.47095e-05 -0.000309199)
(-3.99032e-05 -5.54758e-05 -0.000266886)
(-2.43372e-05 -5.99186e-05 -0.000202705)
(-1.35356e-05 -4.26014e-05 -7.27878e-05)
(3.17627e-07 0.000237567 -0.000141693)
(-7.04147e-06 0.000406991 -0.000232403)
(-1.31971e-05 0.000481442 -0.000269163)
(-2.30836e-05 0.000534344 -0.000293655)
(-3.36105e-05 0.000570381 -0.000310757)
(-4.39356e-05 0.000593681 -0.000323023)
(-5.37888e-05 0.0006066 -0.000332322)
(-6.29469e-05 0.000611571 -0.000339459)
(-7.12554e-05 0.000609798 -0.000345269)
(-7.85697e-05 0.000602829 -0.000349945)
(-8.48358e-05 0.000591267 -0.000353918)
(-8.99874e-05 0.000576199 -0.000357122)
(-9.40421e-05 0.000557929 -0.000359831)
(-9.69806e-05 0.000537292 -0.000361896)
(-9.88622e-05 0.000514444 -0.000363522)
(-9.96962e-05 0.000490076 -0.000364544)
(-9.95611e-05 0.000464273 -0.000365139)
(-9.84788e-05 0.000437632 -0.000365151)
(-9.65595e-05 0.000410272 -0.00036468)
(-9.38264e-05 0.000382731 -0.000363568)
(-9.03926e-05 0.000355003 -0.000361978)
(-8.62992e-05 0.000327548 -0.000359779)
(-8.16773e-05 0.000300376 -0.000357071)
(-7.65856e-05 0.000273886 -0.000353681)
(-7.11338e-05 0.000248074 -0.000349646)
(-6.53734e-05 0.000223253 -0.000344732)
(-5.93888e-05 0.000199385 -0.00033883)
(-5.32104e-05 0.000176697 -0.0003315)
(-4.69069e-05 0.000155096 -0.000322281)
(-4.04856e-05 0.000134712 -0.00031024)
(-3.39571e-05 0.000115353 -0.000294065)
(-2.71045e-05 9.70067e-05 -0.000271211)
(-1.96583e-05 7.92674e-05 -0.000237317)
(-1.25621e-05 6.19473e-05 -0.00018718)
(-8.5422e-06 3.37997e-05 -7.62502e-05)
(2.17562e-07 0.000319359 -2.35425e-05)
(-2.91083e-06 0.000526769 -8.55873e-05)
(-3.42203e-06 0.000618986 -0.000119773)
(-5.45079e-06 0.000684618 -0.000143682)
(-7.84682e-06 0.000729966 -0.00015957)
(-1.0415e-05 0.000759367 -0.000171349)
(-1.30052e-05 0.000776529 -0.000180837)
(-1.55728e-05 0.000783765 -0.00018915)
(-1.79919e-05 0.000783376 -0.00019662)
(-2.02214e-05 0.000776583 -0.000203755)
(-2.21815e-05 0.000764904 -0.000210549)
(-2.38714e-05 0.000748983 -0.000217268)
(-2.52385e-05 0.000729899 -0.000223757)
(-2.63065e-05 0.000707994 -0.000230175)
(-2.70609e-05 0.0006841 -0.000236316)
(-2.75411e-05 0.000658398 -0.000242293)
(-2.77379e-05 0.000631566 -0.000247892)
(-2.77139e-05 0.000603695 -0.000253208)
(-2.74684e-05 0.000575362 -0.000258031)
(-2.70627e-05 0.000546579 -0.000262459)
(-2.65008e-05 0.000517873 -0.000266274)
(-2.58406e-05 0.000489398 -0.000269456)
(-2.50986e-05 0.000461533 -0.000271825)
(-2.43366e-05 0.0004342 -0.000273437)
(-2.35533e-05 0.000407682 -0.000274079)
(-2.27783e-05 0.000381745 -0.000273801)
(-2.19858e-05 0.000356531 -0.000272327)
(-2.11762e-05 0.000331772 -0.000269508)
(-2.02765e-05 0.000307385 -0.000264878)
(-1.92383e-05 0.000282864 -0.000257959)
(-1.79024e-05 0.000257758 -0.000247828)
(-1.59776e-05 0.000231138 -0.000233497)
(-1.28956e-05 0.000201891 -0.00021323)
(-8.86506e-06 0.000168377 -0.000182531)
(-6.76524e-06 0.000102799 -9.65615e-05)
(-1.3864e-06 0.000348761 4.7647e-05)
(-3.42964e-06 0.000561393 1.20607e-05)
(-2.0244e-06 0.000657184 -1.55324e-05)
(-6.1557e-07 0.000726835 -3.56933e-05)
(1.1254e-06 0.000776082 -4.91055e-05)
(3.00612e-06 0.000809762 -5.92019e-05)
(4.90952e-06 0.000831011 -6.79262e-05)
(6.7687e-06 0.000842749 -7.58333e-05)
(8.52883e-06 0.000846681 -8.34768e-05)
(1.01694e-05 0.000844656 -9.0923e-05)
(1.16587e-05 0.00083759 -9.84609e-05)
(1.29896e-05 0.000826733 -0.000105989)
(1.41351e-05 0.000812571 -0.000113656)
(1.50981e-05 0.00079601 -0.000121279)
(1.58426e-05 0.000777303 -0.000128945)
(1.6375e-05 0.00075715 -0.000136446)
(1.6658e-05 0.000735675 -0.000143842)
(1.67003e-05 0.000713439 -0.000150926)
(1.6462e-05 0.000690484 -0.000157745)
(1.59471e-05 0.000667283 -0.000164097)
(1.51268e-05 0.000643846 -0.000170011)
(1.40168e-05 0.000620552 -0.000175292)
(1.26016e-05 0.00059731 -0.000179975)
(1.09198e-05 0.000574355 -0.000183885)
(8.96966e-06 0.000551495 -0.000187041)
(6.80308e-06 0.000528796 -0.000189264)
(4.43955e-06 0.00050589 -0.000190533)
(1.968e-06 0.000482584 -0.000190626)
(-5.37245e-07 0.0004582 -0.000189407)
(-2.93123e-06 0.000432107 -0.000186468)
(-5.0629e-06 0.000403062 -0.000181452)
(-6.60811e-06 0.000369673 -0.000174122)
(-6.94217e-06 0.000329582 -0.00016458)
(-5.49581e-06 0.000280057 -0.000148852)
(-4.98286e-06 0.000176553 -8.73442e-05)
(-1.81197e-06 0.000357533 7.97757e-05)
(-3.10112e-06 0.000563206 6.07605e-05)
(-1.44544e-06 0.000657136 3.9566e-05)
(7.03869e-07 0.0007265 2.32177e-05)
(3.43414e-06 0.00077717 1.23878e-05)
(6.43816e-06 0.000813147 3.98359e-06)
(9.53577e-06 0.000837919 -3.48595e-06)
(1.25928e-05 0.000853672 -1.06954e-05)
(1.55309e-05 0.000862525 -1.77482e-05)
(1.82712e-05 0.000865658 -2.49368e-05)
(2.0774e-05 0.000864434 -3.22285e-05)
(2.29847e-05 0.00085948 -3.97291e-05)
(2.48849e-05 0.000851744 -4.73007e-05)
(2.64364e-05 0.000841548 -5.50239e-05)
(2.76316e-05 0.000829593 -6.27241e-05)
(2.84376e-05 0.00081603 -7.04437e-05)
(2.88609e-05 0.000801405 -7.80028e-05)
(2.88744e-05 0.000785764 -8.54284e-05)
(2.84871e-05 0.000769539 -9.2545e-05)
(2.76786e-05 0.000752704 -9.93748e-05)
(2.64709e-05 0.000735586 -0.000105752)
(2.48574e-05 0.000718078 -0.000111701)
(2.28731e-05 0.000700401 -0.000117064)
(2.05239e-05 0.000682352 -0.000121861)
(1.78613e-05 0.00066399 -0.000125943)
(1.49133e-05 0.000644935 -0.000129326)
(1.17595e-05 0.000624973 -0.000131865)
(8.46737e-06 0.00060341 -0.000133561)
(5.16323e-06 0.000579601 -0.000134216)
(1.96224e-06 0.000552316 -0.000133712)
(-9.51297e-07 0.000520152 -0.000131775)
(-3.30694e-06 0.000480918 -0.000128705)
(-4.52013e-06 0.000431848 -0.000125113)
(-3.9908e-06 0.000369027 -0.000117807)
(-3.83973e-06 0.000234694 -7.36014e-05)
(-1.5045e-06 0.000350752 8.26271e-05)
(-2.11245e-06 0.000547476 7.1567e-05)
(-6.46595e-07 0.000638056 5.53844e-05)
(1.40022e-06 0.000706164 4.26847e-05)
(3.9668e-06 0.000756979 3.41149e-05)
(6.78907e-06 0.000794638 2.7367e-05)
(9.7079e-06 0.000821925 2.11812e-05)
(1.26115e-05 0.000841304 1.52615e-05)
(1.54145e-05 0.000854287 9.3535e-06)
(1.80446e-05 0.000862402 3.4545e-06)
(2.04461e-05 0.000866449 -2.58408e-06)
(2.25829e-05 0.000867432 -8.73551e-06)
(2.44062e-05 0.00086575 -1.5056e-05)
(2.58983e-05 0.000862094 -2.1413e-05)
(2.70282e-05 0.000856648 -2.78511e-05)
(2.77875e-05 0.000849922 -3.42276e-05)
(2.81566e-05 0.000841968 -4.05681e-05)
(2.81355e-05 0.000833179 -4.67312e-05)
(2.77116e-05 0.000823516 -5.27356e-05)
(2.68994e-05 0.000813274 -5.84458e-05)
(2.56921e-05 0.000802335 -6.38809e-05)
(2.41163e-05 0.000790886 -6.89137e-05)
(2.21776e-05 0.000778707 -7.35667e-05)
(1.99162e-05 0.000765842 -7.77222e-05)
(1.73583e-05 0.000751911 -8.1405e-05)
(1.45625e-05 0.000736731 -8.45056e-05)
(1.15814e-05 0.000719649 -8.7049e-05)
(8.50637e-06 0.000700104 -8.89275e-05)
(5.42514e-06 0.000676959 -9.01351e-05)
(2.46905e-06 0.000648996 -9.04952e-05)
(-2.2545e-07 0.000614214 -8.99747e-05)
(-2.41369e-06 0.000570235 -8.88562e-05)
(-3.62711e-06 0.000513496 -8.80133e-05)
(-3.33963e-06 0.00043954 -8.48636e-05)
(-3.11138e-06 0.000279332 -5.36162e-05)
(-1.00566e-06 0.000339859 7.13763e-05)
(-1.19343e-06 0.000531383 6.44641e-05)
(-2.34467e-07 0.000620202 5.28543e-05)
(1.12222e-06 0.000687566 4.35452e-05)
(2.80869e-06 0.000738793 3.72468e-05)
(4.67155e-06 0.000777532 3.21864e-05)
(6.60642e-06 0.000806847 2.75769e-05)
(8.54671e-06 0.000828715 2.30797e-05)
(1.04237e-05 0.000844951 1.86521e-05)
(1.21934e-05 0.000856602 1.41567e-05)
(1.38151e-05 0.000864789 9.62458e-06)
(1.52484e-05 0.000870039 4.99554e-06)
(1.64733e-05 0.000873089 3.30761e-07)
(1.74642e-05 0.000874181 -4.41256e-06)
(1.82015e-05 0.00087382 -9.13114e-06)
(1.86695e-05 0.000872081 -1.38553e-05)
(1.88654e-05 0.000869332 -1.84776e-05)
(1.87722e-05 0.000865541 -2.30228e-05)
(1.83989e-05 0.000860975 -2.73854e-05)
(1.77377e-05 0.000855516 -3.15919e-05)
(1.68057e-05 0.000849334 -3.55406e-05)
(1.56054e-05 0.000842216 -3.92616e-05)
(1.41619e-05 0.000834208 -4.2659e-05)
(1.24943e-05 0.00082496 -4.57668e-05)
(1.06392e-05 0.00081433 -4.84951e-05)
(8.62848e-06 0.000801743 -5.08815e-05)
(6.5218e-06 0.000786739 -5.28411e-05)
(4.37179e-06 0.000768347 -5.44115e-05)
(2.2625e-06 0.000745561 -5.54922e-05)
(2.75045e-07 0.000716702 -5.60706e-05)
(-1.47167e-06 0.000679796 -5.60409e-05)
(-2.80738e-06 0.000631906 -5.57452e-05)
(-3.38351e-06 0.000569311 -5.57913e-05)
(-2.92846e-06 0.000486819 -5.43924e-05)
(-2.44293e-06 0.000307377 -3.29942e-05)
(-8.0502e-07 0.00032829 5.81509e-05)
(-9.57844e-07 0.00051826 5.57244e-05)
(-5.88672e-07 0.000606524 4.89131e-05)
(-5.89379e-08 0.000673975 4.3257e-05)
(6.6823e-07 0.000725592 3.92842e-05)
(1.50827e-06 0.000765324 3.60261e-05)
(2.41048e-06 0.000795872 3.29442e-05)
(3.33554e-06 0.000819514 2.99505e-05)
(4.25333e-06 0.000837691 2.69452e-05)
(5.13457e-06 0.000851754 2.39467e-05)
(5.95426e-06 0.000862443 2.0886e-05)
(6.68573e-06 0.000870593 1.78175e-05)
(7.31188e-06 0.00087656 1.46806e-05)
(7.8207e-06 0.000880887 1.15455e-05)
(8.19829e-06 0.000883699 8.37913e-06)
(8.43242e-06 0.000885369 5.28615e-06)
(8.51314e-06 0.000885889 2.2327e-06)
(8.44118e-06 0.000885516 -7.04608e-07)
(8.20738e-06 0.000884148 -3.56057e-06)
(7.81944e-06 0.000881948 -6.25627e-06)
(7.27647e-06 0.000878724 -8.8295e-06)
(6.58927e-06 0.000874532 -1.12038e-05)
(5.76966e-06 0.000869063 -1.34215e-05)
(4.83676e-06 0.000862222 -1.541e-05)
(3.80814e-06 0.000853514 -1.72156e-05)
(2.71327e-06 0.000842597 -1.8771e-05)
(1.58157e-06 0.000828658 -2.01261e-05)
(4.60592e-07 0.000810926 -2.12184e-05)
(-6.0793e-07 0.000788026 -2.20911e-05)
(-1.56651e-06 0.000758433 -2.26595e-05)
(-2.35025e-06 0.000719762 -2.29723e-05)
(-2.84443e-06 0.000669145 -2.3205e-05)
(-2.84993e-06 0.000602379 -2.39033e-05)
(-2.2542e-06 0.00051418 -2.39039e-05)
(-1.67844e-06 0.000321935 -1.20134e-05)
(-9.63151e-07 0.000317727 4.82273e-05)
(-1.34719e-06 0.000507009 5.14927e-05)
(-1.5598e-06 0.000595092 4.95846e-05)
(-1.78352e-06 0.000662458 4.75131e-05)
(-1.86337e-06 0.000714316 4.59043e-05)
(-1.82828e-06 0.000754369 4.43497e-05)
(-1.7196e-06 0.00078558 4.27407e-05)
(-1.55231e-06 0.00080994 4.10233e-05)
(-1.3491e-06 0.000829165 3.9263e-05)
(-1.11955e-06 0.000844297 3.74233e-05)
(-8.84096e-07 0.000856357 3.55605e-05)
(-6.45033e-07 0.00086586 3.36391e-05)
(-4.2577e-07 0.000873426 3.17457e-05)
(-2.31991e-07 0.000879276 2.98545e-05)
(-7.88708e-08 0.000883817 2.80374e-05)
(3.46207e-08 0.000887115 2.62089e-05)
(1.02979e-07 0.000889436 2.44405e-05)
(1.1932e-07 0.00089071 2.27028e-05)
(8.35674e-08 0.000891106 2.106e-05)
(-3.1061e-09 0.000890464 1.94714e-05)
(-1.37022e-07 0.000888857 1.79972e-05)
(-3.17035e-07 0.000886026 1.65919e-05)
(-5.39048e-07 0.000881921 1.53136e-05)
(-7.93495e-07 0.000876136 1.41136e-05)
(-1.06567e-06 0.000868429 1.30457e-05)
(-1.34715e-06 0.00085815 1.20532e-05)
(-1.61692e-06 0.000844732 1.118e-05)
(-1.86291e-06 0.000827097 1.0359e-05)
(-2.05805e-06 0.0008041 9.62418e-06)
(-2.18396e-06 0.00077391 8.9041e-06)
(-2.21547e-06 0.000734348 8.19663e-06)
(-2.10999e-06 0.000682236 7.23209e-06)
(-1.78436e-06 0.000613531 5.62446e-06)
(-1.21731e-06 0.000522635 3.77102e-06)
(-7.75909e-07 0.000324821 6.33882e-06)
(-1.24501e-06 0.000307816 4.18297e-05)
(-1.9111e-06 0.000495195 5.07951e-05)
(-2.53993e-06 0.000582325 5.30334e-05)
(-3.29113e-06 0.00064909 5.40084e-05)
(-3.87273e-06 0.00070045 5.43633e-05)
(-4.31994e-06 0.000740307 5.42786e-05)
(-4.66021e-06 0.000771361 5.3833e-05)
(-4.92102e-06 0.000795831 5.31702e-05)
(-5.10315e-06 0.000815162 5.23298e-05)
(-5.22035e-06 0.00083064 5.14042e-05)
(-5.27638e-06 0.000843009 5.03886e-05)
(-5.28601e-06 0.000853038 4.93509e-05)
(-5.25026e-06 0.000861078 4.82694e-05)
(-5.18122e-06 0.000867603 4.72005e-05)
(-5.08141e-06 0.000872741 4.61105e-05)
(-4.95807e-06 0.000876773 4.50797e-05)
(-4.81481e-06 0.00087969 4.40689e-05)
(-4.65486e-06 0.000881684 4.31276e-05)
(-4.47995e-06 0.000882645 4.22149e-05)
(-4.2934e-06 0.000882671 4.1379e-05)
(-4.09297e-06 0.000881558 4.05749e-05)
(-3.88289e-06 0.0008793 3.98476e-05)
(-3.65932e-06 0.000875575 3.91479e-05)
(-3.42069e-06 0.000870229 3.85154e-05)
(-3.16498e-06 0.000862754 3.7894e-05)
(-2.8908e-06 0.000852754 3.73142e-05)
(-2.59836e-06 0.000839402 3.67077e-05)
(-2.27913e-06 0.000821878 3.60857e-05)
(-1.94058e-06 0.000798796 3.53556e-05)
(-1.5821e-06 0.000768585 3.44939e-05)
(-1.21616e-06 0.000728855 3.33421e-05)
(-8.50093e-07 0.000676693 3.16841e-05)
(-4.90171e-07 0.000607899 2.90159e-05)
(-1.10676e-07 0.000517147 2.52558e-05)
(5.25445e-08 0.000319872 1.97966e-05)
(-1.40433e-06 0.00029832 3.6101e-05)
(-2.23202e-06 0.000481846 4.85926e-05)
(-3.07176e-06 0.000567216 5.34025e-05)
(-4.05734e-06 0.000632562 5.62403e-05)
(-4.86487e-06 0.000682925 5.78556e-05)
(-5.50913e-06 0.000721926 5.86713e-05)
(-6.03976e-06 0.00075242 5.89929e-05)
(-6.46276e-06 0.000776365 5.89623e-05)
(-6.79606e-06 0.000795397 5.87279e-05)
(-7.037e-06 0.000810551 5.8334e-05)
(-7.20157e-06 0.000822781 5.7868e-05)
(-7.28617e-06 0.000832609 5.73327e-05)
(-7.30117e-06 0.000840607 5.67894e-05)
(-7.24534e-06 0.000847005 5.62229e-05)
(-7.13094e-06 0.000852154 5.56835e-05)
(-6.95437e-06 0.000856113 5.51466e-05)
(-6.72289e-06 0.000859098 5.4656e-05)
(-6.44175e-06 0.000861054 5.41807e-05)
(-6.11559e-06 0.000862102 5.37596e-05)
(-5.74536e-06 0.000862098 5.33564e-05)
(-5.33746e-06 0.000861069 5.30051e-05)
(-4.89252e-06 0.000858772 5.26644e-05)
(-4.4151e-06 0.000855119 5.23627e-05)
(-3.90998e-06 0.000849725 5.20519e-05)
(-3.37803e-06 0.000842321 5.17521e-05)
(-2.82489e-06 0.00083229 5.14041e-05)
(-2.25569e-06 0.000819055 5.10109e-05)
(-1.68623e-06 0.000801594 5.04898e-05)
(-1.12255e-06 0.000778789 4.98071e-05)
(-5.83378e-07 0.000748899 4.88282e-05)
(-9.50544e-08 0.000709831 4.74285e-05)
(2.95573e-07 0.000658563 4.52857e-05)
(5.42022e-07 0.000591249 4.1929e-05)
(6.9425e-07 0.000502561 3.68681e-05)
(6.11503e-07 0.000310269 2.63626e-05)
(-1.26738e-06 0.000289785 2.87964e-05)
(-2.0621e-06 0.000468674 4.13683e-05)
(-2.87677e-06 0.000551829 4.67232e-05)
(-3.84696e-06 0.000615534 5.00513e-05)
(-4.64799e-06 0.000664554 5.19891e-05)
(-5.30513e-06 0.000702567 5.30932e-05)
(-5.84308e-06 0.000732182 5.36554e-05)
(-6.28597e-06 0.000755487 5.38836e-05)
(-6.63183e-06 0.00077389 5.38738e-05)
(-6.89113e-06 0.00078859 5.37323e-05)
(-7.05876e-06 0.000800329 5.34902e-05)
(-7.14882e-06 0.000809809 5.32118e-05)
(-7.15472e-06 0.000817394 5.28996e-05)
(-7.09009e-06 0.000823507 5.25992e-05)
(-6.95e-06 0.000828294 5.22999e-05)
(-6.7462e-06 0.000832012 5.20376e-05)
(-6.479e-06 0.000834672 5.17937e-05)
(-6.15379e-06 0.000836421 5.15983e-05)
(-5.77387e-06 0.000837177 5.14264e-05)
(-5.34775e-06 0.000836998 5.13028e-05)
(-4.87895e-06 0.000835711 5.11972e-05)
(-4.37341e-06 0.000833279 5.1129e-05)
(-3.83563e-06 0.000829416 5.10618e-05)
(-3.27278e-06 0.000823948 5.1008e-05)
(-2.69394e-06 0.000816416 5.09226e-05)
(-2.10102e-06 0.000806422 5.08067e-05)
(-1.51152e-06 0.000793214 5.05988e-05)
(-9.31573e-07 0.000776005 5.02751e-05)
(-3.80474e-07 0.000753529 4.9738e-05)
(1.24276e-07 0.000724304 4.8908e-05)
(5.48716e-07 0.000686145 4.75987e-05)
(8.50615e-07 0.000636327 4.55588e-05)
(9.65205e-07 0.000571014 4.22967e-05)
(9.6776e-07 0.000485247 3.72724e-05)
(7.64812e-07 0.000299517 2.57548e-05)
(-8.66369e-07 0.000283318 1.90914e-05)
(-1.46343e-06 0.000458354 2.82713e-05)
(-2.09417e-06 0.000539742 3.23712e-05)
(-2.86805e-06 0.000602021 3.49175e-05)
(-3.5458e-06 0.000649975 3.63758e-05)
(-4.1146e-06 0.000687059 3.71665e-05)
(-4.60352e-06 0.000715964 3.75548e-05)
(-5.00864e-06 0.000738587 3.767e-05)
(-5.33806e-06 0.000756458 3.76209e-05)
(-5.58344e-06 0.000770602 3.7457e-05)
(-5.75534e-06 0.000781901 3.72407e-05)
(-5.8459e-06 0.000790891 3.69888e-05)
(-5.86321e-06 0.000798091 3.67424e-05)
(-5.80783e-06 0.000803758 3.65027e-05)
(-5.68601e-06 0.0008082 3.63004e-05)
(-5.49607e-06 0.000811509 3.6128e-05)
(-5.25063e-06 0.000813863 3.60095e-05)
(-4.951e-06 0.000815245 3.59312e-05)
(-4.60562e-06 0.000815739 3.59111e-05)
(-4.22081e-06 0.000815239 3.59302e-05)
(-3.80222e-06 0.000813744 3.6001e-05)
(-3.35749e-06 0.000811051 3.60989e-05)
(-2.89363e-06 0.00080705 3.62307e-05)
(-2.41722e-06 0.000801404 3.63658e-05)
(-1.93522e-06 0.000793834 3.65037e-05)
(-1.45746e-06 0.000783791 3.66047e-05)
(-9.89593e-07 0.000770709 3.6655e-05)
(-5.45453e-07 0.000753668 3.65979e-05)
(-1.32867e-07 0.000731603 3.63914e-05)
(2.29068e-07 0.000702928 3.5939e-05)
(5.25572e-07 0.00066569 3.51324e-05)
(7.18026e-07 0.000617115 3.37581e-05)
(7.71264e-07 0.000553652 3.14927e-05)
(7.40522e-07 0.000470389 2.78833e-05)
(5.66887e-07 0.000290396 1.92038e-05)
(-3.14241e-07 0.000280184 8.15326e-06)
(-6.50581e-07 0.000453693 1.1761e-05)
(-1.00731e-06 0.000534324 1.34736e-05)
(-1.51852e-06 0.000596028 1.44727e-05)
(-2.01382e-06 0.000643444 1.49179e-05)
(-2.47496e-06 0.000680102 1.50403e-05)
(-2.88869e-06 0.000708558 1.49597e-05)
(-3.25737e-06 0.000730812 1.47566e-05)
(-3.5642e-06 0.000748264 1.44699e-05)
(-3.81221e-06 0.000762057 1.41452e-05)
(-3.99425e-06 0.000772947 1.38012e-05)
(-4.10797e-06 0.000781595 1.34697e-05)
(-4.15562e-06 0.000788396 1.31586e-05)
(-4.14126e-06 0.000793736 1.28921e-05)
(-4.06394e-06 0.000797798 1.26718e-05)
(-3.93522e-06 0.000800806 1.25161e-05)
(-3.75285e-06 0.000802811 1.24212e-05)
(-3.53096e-06 0.000803929 1.24e-05)
(-3.27443e-06 0.000804117 1.24438e-05)
(-2.98894e-06 0.000803402 1.25601e-05)
(-2.68435e-06 0.000801652 1.27347e-05)
(-2.36725e-06 0.000798801 1.29703e-05)
(-2.04614e-06 0.000794609 1.32495e-05)
(-1.72612e-06 0.000788874 1.35783e-05)
(-1.41745e-06 0.000781192 1.39354e-05)
(-1.1196e-06 0.000771151 1.42954e-05)
(-8.41078e-07 0.000758068 1.46252e-05)
(-5.85385e-07 0.000741162 1.492e-05)
(-3.60927e-07 0.000719264 1.51367e-05)
(-1.64937e-07 0.000690939 1.52457e-05)
(-9.30036e-09 0.000654152 1.51812e-05)
(1.02403e-07 0.000606298 1.48703e-05)
(1.61582e-07 0.000543784 1.41699e-05)
(2.06319e-07 0.000461899 1.2899e-05)
(1.51168e-07 0.000284945 9.46623e-06)
(2.10318e-07 0.000280967 -2.09759e-06)
(1.14736e-07 0.000455718 -4.36581e-06)
(2.10019e-08 0.000536913 -5.21927e-06)
(-2.33843e-07 0.000598956 -5.90601e-06)
(-5.69171e-07 0.000646595 -6.55144e-06)
(-9.26318e-07 0.000683313 -7.16912e-06)
(-1.28674e-06 0.000711779 -7.76234e-06)
(-1.6233e-06 0.00073392 -8.34007e-06)
(-1.92998e-06 0.000751248 -8.89826e-06)
(-2.18746e-06 0.000764824 -9.43506e-06)
(-2.39483e-06 0.000775514 -9.93714e-06)
(-2.54544e-06 0.000783892 -1.03981e-05)
(-2.6425e-06 0.000790459 -1.08027e-05)
(-2.68217e-06 0.000795512 -1.11447e-05)
(-2.67064e-06 0.000799339 -1.14111e-05)
(-2.6114e-06 0.000802071 -1.15996e-05)
(-2.51329e-06 0.000803865 -1.17021e-05)
(-2.38249e-06 0.000804741 -1.17198e-05)
(-2.22638e-06 0.000804756 -1.16456e-05)
(-2.05456e-06 0.00080384 -1.14849e-05)
(-1.87344e-06 0.00080196 -1.12366e-05)
(-1.69043e-06 0.000798951 -1.09112e-05)
(-1.51276e-06 0.000794669 -1.05142e-05)
(-1.35017e-06 0.000788814 -1.00671e-05)
(-1.20354e-06 0.000781075 -9.57759e-06)
(-1.07687e-06 0.000770942 -9.04288e-06)
(-9.71254e-07 0.000757825 -8.46556e-06)
(-8.87781e-07 0.000740843 -7.86596e-06)
(-8.1908e-07 0.000718919 -7.23918e-06)
(-7.64376e-07 0.000690521 -6.58485e-06)
(-7.08052e-07 0.000653698 -5.8824e-06)
(-6.40279e-07 0.000605755 -5.09396e-06)
(-5.26792e-07 0.000543173 -4.13766e-06)
(-3.68746e-07 0.000461164 -2.92093e-06)
(-2.89008e-07 0.000284025 -5.90805e-07)
(5.83447e-07 0.000285448 -9.8688e-06)
(6.40136e-07 0.000463897 -1.67786e-05)
(7.49989e-07 0.000546752 -1.97019e-05)
(6.82445e-07 0.000610014 -2.17633e-05)
(4.75534e-07 0.00065848 -2.33141e-05)
(1.93946e-07 0.000695781 -2.45497e-05)
(-1.11269e-07 0.000724586 -2.55849e-05)
(-4.23166e-07 0.000746941 -2.6485e-05)
(-7.14012e-07 0.000764327 -2.72891e-05)
(-9.76947e-07 0.000777906 -2.8015e-05)
(-1.19702e-06 0.000788498 -2.86697e-05)
(-1.36985e-06 0.000796767 -2.92516e-05)
(-1.4956e-06 0.00080316 -2.97561e-05)
(-1.57441e-06 0.000808057 -3.01754e-05)
(-1.60668e-06 0.000811683 -3.05024e-05)
(-1.60095e-06 0.00081425 -3.07288e-05)
(-1.56277e-06 0.000815845 -3.08484e-05)
(-1.49869e-06 0.000816565 -3.08571e-05)
(-1.41765e-06 0.0008164 -3.07574e-05)
(-1.3293e-06 0.000815353 -3.05501e-05)
(-1.242e-06 0.000813323 -3.02411e-05)
(-1.16135e-06 0.000810211 -2.98352e-05)
(-1.09791e-06 0.0008058 -2.93415e-05)
(-1.05352e-06 0.000799855 -2.87668e-05)
(-1.03367e-06 0.00079199 -2.81209e-05)
(-1.03709e-06 0.000781749 -2.74067e-05)
(-1.06408e-06 0.000768459 -2.66252e-05)
(-1.10617e-06 0.000751292 -2.57676e-05)
(-1.15861e-06 0.000729075 -2.4814e-05)
(-1.20334e-06 0.000700316 -2.37228e-05)
(-1.22585e-06 0.000662956 -2.24213e-05)
(-1.18353e-06 0.000614311 -2.07712e-05)
(-1.02796e-06 0.000550729 -1.8529e-05)
(-7.71589e-07 0.000467391 -1.53732e-05)
(-6.16701e-07 0.000287296 -8.50628e-06)
(7.41569e-07 0.000292554 -1.41624e-05)
(8.4258e-07 0.000476055 -2.34228e-05)
(1.04702e-06 0.000561225 -2.74123e-05)
(1.0764e-06 0.000626168 -3.01861e-05)
(9.4274e-07 0.000675856 -3.22063e-05)
(7.21132e-07 0.000714004 -3.37647e-05)
(4.58454e-07 0.000743404 -3.50327e-05)
(1.84669e-07 0.000766126 -3.61063e-05)
(-8.21814e-08 0.000783747 -3.7044e-05)
(-3.20865e-07 0.000797424 -3.78758e-05)
(-5.28382e-07 0.000808053 -3.86168e-05)
(-6.94671e-07 0.000816277 -3.92696e-05)
(-8.16819e-07 0.000822608 -3.98331e-05)
(-8.96824e-07 0.000827395 -4.03005e-05)
(-9.38236e-07 0.000830923 -4.06664e-05)
(-9.44486e-07 0.000833363 -4.09234e-05)
(-9.24627e-07 0.000834861 -4.10676e-05)
(-8.86449e-07 0.000835468 -4.10946e-05)
(-8.37846e-07 0.000835225 -4.10048e-05)
(-7.87954e-07 0.000834085 -4.07986e-05)
(-7.46525e-07 0.000831992 -4.04805e-05)
(-7.20486e-07 0.000828797 -4.00551e-05)
(-7.13374e-07 0.000824324 -3.95299e-05)
(-7.3455e-07 0.000818281 -3.8911e-05)
(-7.83201e-07 0.000810315 -3.82048e-05)
(-8.58175e-07 0.00079991 -3.74127e-05)
(-9.56952e-07 0.000786416 -3.65318e-05)
(-1.07462e-06 0.000768932 -3.55456e-05)
(-1.19353e-06 0.000746297 -3.44233e-05)
(-1.30109e-06 0.000716926 -3.31047e-05)
(-1.36995e-06 0.000678743 -3.14893e-05)
(-1.35811e-06 0.000628946 -2.93902e-05)
(-1.19895e-06 0.000563811 -2.64832e-05)
(-9.10138e-07 0.000478355 -2.23305e-05)
(-7.52139e-07 0.000293648 -1.31085e-05)
(6.92105e-07 0.000300812 -1.49127e-05)
(7.4494e-07 0.000489519 -2.40413e-05)
(9.47004e-07 0.000577065 -2.80033e-05)
(9.82526e-07 0.000643769 -3.07664e-05)
(8.73037e-07 0.000694724 -3.27786e-05)
(6.82264e-07 0.000733789 -3.43345e-05)
(4.60198e-07 0.000763817 -3.56024e-05)
(2.26651e-07 0.000786973 -3.66798e-05)
(3.65616e-09 0.000804858 -3.7622e-05)
(-1.95539e-07 0.000818697 -3.84607e-05)
(-3.61455e-07 0.000829389 -3.92087e-05)
(-4.90971e-07 0.000837631 -3.98706e-05)
(-5.79116e-07 0.000843924 -4.04424e-05)
(-6.28054e-07 0.000848662 -4.09198e-05)
(-6.43212e-07 0.000852113 -4.12947e-05)
(-6.27932e-07 0.000854486 -4.15619e-05)
(-5.87773e-07 0.000855902 -4.17151e-05)
(-5.33334e-07 0.000856447 -4.17521e-05)
(-4.73716e-07 0.000856133 -4.16708e-05)
(-4.16449e-07 0.000854946 -4.14737e-05)
(-3.7026e-07 0.000852795 -4.11631e-05)
(-3.40839e-07 0.000849557 -4.07455e-05)
(-3.36435e-07 0.000845019 -4.02265e-05)
(-3.60713e-07 0.000838909 -3.96143e-05)
(-4.15871e-07 0.000830832 -3.89131e-05)
(-5.01421e-07 0.000820282 -3.81271e-05)
(-6.13705e-07 0.000806561 -3.7251e-05)
(-7.4504e-07 0.000788765 -3.62721e-05)
(-8.84495e-07 0.000765667 -3.51572e-05)
(-1.01322e-06 0.000735663 -3.38506e-05)
(-1.11314e-06 0.000696581 -3.22516e-05)
(-1.13532e-06 0.000645569 -3.01819e-05)
(-1.02472e-06 0.000578759 -2.7325e-05)
(-7.76043e-07 0.000491053 -2.3251e-05)
(-6.93376e-07 0.000301411 -1.41482e-05)
(4.89975e-07 0.000308677 -1.29321e-05)
(4.4275e-07 0.000501656 -1.98991e-05)
(5.62344e-07 0.000591168 -2.29395e-05)
(5.40678e-07 0.000659318 -2.50946e-05)
(4.16026e-07 0.000711331 -2.67052e-05)
(2.44246e-07 0.000751149 -2.79845e-05)
(5.56219e-08 0.000781709 -2.90576e-05)
(-1.31923e-07 0.000805216 -2.99924e-05)
(-2.99893e-07 0.000823331 -3.08297e-05)
(-4.40158e-07 0.000837295 -3.15877e-05)
(-5.4409e-07 0.000848052 -3.22747e-05)
(-6.11745e-07 0.000856301 -3.28884e-05)
(-6.40631e-07 0.000862578 -3.34246e-05)
(-6.30268e-07 0.00086727 -3.38748e-05)
(-5.87822e-07 0.000870674 -3.42323e-05)
(-5.17635e-07 0.000872989 -3.44888e-05)
(-4.28338e-07 0.00087436 -3.46399e-05)
(-3.26858e-07 0.000874857 -3.46809e-05)
(-2.19631e-07 0.000874512 -3.46117e-05)
(-1.16952e-07 0.000873292 -3.44326e-05)
(-2.84024e-08 0.000871122 -3.41483e-05)
(4.14474e-08 0.000867858 -3.37634e-05)
(8.4296e-08 0.000863297 -3.32862e-05)
(9.51792e-08 0.000857141 -3.27232e-05)
(7.46723e-08 0.000849002 -3.20834e-05)
(2.01856e-08 0.000838339 -3.13705e-05)
(-6.54875e-08 0.000824454 -3.05868e-05)
(-1.77612e-07 0.0008064 -2.97234e-05)
(-3.05974e-07 0.000782935 -2.87616e-05)
(-4.38499e-07 0.000752396 -2.766e-05)
(-5.54843e-07 0.000712577 -2.63488e-05)
(-6.25771e-07 0.000660538 -2.46958e-05)
(-6.03745e-07 0.000592335 -2.24725e-05)
(-4.58006e-07 0.000502741 -1.93511e-05)
(-4.90206e-07 0.000308986 -1.23946e-05)
(2.1533e-07 0.000314942 -9.35674e-06)
(4.95489e-08 0.000510595 -1.29342e-05)
(4.32348e-08 0.000601338 -1.45065e-05)
(-7.31727e-08 0.0006704 -1.56882e-05)
(-2.30572e-07 0.000723068 -1.66505e-05)
(-3.99642e-07 0.000763353 -1.74822e-05)
(-5.57705e-07 0.000794225 -1.82334e-05)
(-6.96973e-07 0.000817939 -1.89318e-05)
(-8.08805e-07 0.000836168 -1.95891e-05)
(-8.82525e-07 0.00085019 -2.02084e-05)
(-9.17491e-07 0.000860953 -2.0785e-05)
(-9.15009e-07 0.000869184 -2.13119e-05)
(-8.69988e-07 0.000875417 -2.17787e-05)
(-7.8881e-07 0.000880063 -2.21763e-05)
(-6.77405e-07 0.000883413 -2.24945e-05)
(-5.39034e-07 0.000885683 -2.27259e-05)
(-3.82541e-07 0.000887009 -2.2864e-05)
(-2.14113e-07 0.000887478 -2.29054e-05)
(-4.41765e-08 0.00088711 -2.28482e-05)
(1.19595e-07 0.000885884 -2.26944e-05)
(2.71039e-07 0.000883711 -2.24472e-05)
(4.01669e-07 0.000880455 -2.21132e-05)
(5.04911e-07 0.000875897 -2.17e-05)
(5.76284e-07 0.000869745 -2.12174e-05)
(6.09798e-07 0.000861587 -2.06747e-05)
(6.07111e-07 0.000850889 -2.00819e-05)
(5.69037e-07 0.000836922 -1.94461e-05)
(4.97068e-07 0.000818736 -1.87713e-05)
(3.94067e-07 0.000795056 -1.80543e-05)
(2.73036e-07 0.000764204 -1.72823e-05)
(1.41983e-07 0.000723926 -1.64269e-05)
(1.82333e-08 0.000671252 -1.54322e-05)
(-6.73914e-08 0.000602171 -1.41985e-05)
(-5.67701e-08 0.000511395 -1.25633e-05)
(-2.14074e-07 0.000315064 -8.98541e-06)
(-6.4749e-08 0.000318888 -5.39144e-06)
(-3.311e-07 0.000515381 -5.21528e-06)
(-4.7377e-07 0.000606519 -5.14852e-06)
(-6.86403e-07 0.000675861 -5.23062e-06)
(-8.82992e-07 0.000728723 -5.45471e-06)
(-1.05167e-06 0.000769123 -5.77257e-06)
(-1.18421e-06 0.000800056 -6.15186e-06)
(-1.28191e-06 0.000823778 -6.573e-06)
(-1.33813e-06 0.000841987 -7.01872e-06)
(-1.35194e-06 0.000855958 -7.47215e-06)
(-1.32147e-06 0.000866659 -7.91644e-06)