/*--------------------------------*- C++ -*----------------------------------*\
| =========                 |                                                 |
| \\      /  F ield         | OpenFOAM: The Open Source CFD Toolbox           |
|  \\    /   O peration     | Version:  v2006                                 |
|   \\  /    A nd           | Website:  www.openfoam.com                      |
|    \\/     M anipulation  |                                                 |
\*---------------------------------------------------------------------------*/
FoamFile
{
    version     2.0;
    format      ascii;
    class       volScalarField;
    location    "74";
    object      k;
}
// * * * * * * * * * * * * * * * * * * * * * * * * * * * * * * * * * * * * * //

dimensions      [0 2 -2 0 0 0 0];


internalField   nonuniform List<scalar> 
78750
(
0.00250481
0.00454065
0.0174738
0.00609913
0.00607927
0.00515798
0.00388033
0.00329788
0.00296669
0.00277276
0.00260641
0.00241627
0.00218306
0.00189917
0.00158362
0.00127181
0.000991873
0.000772262
0.000698138
0.000850261
0.00113682
0.00136363
0.00146171
0.00153422
0.00172614
0.00207474
0.00218124
0.00186643
0.000590187
0.000952406
0.00200928
0.00240318
0.00233942
0.00194954
0.000827097
0.0015777
0.00972031
0.0188257
0.0213805
0.0208384
0.0195949
0.0175027
0.0153324
0.0136843
0.0124473
0.0113691
0.0103233
0.00930807
0.00830792
0.00731905
0.00643028
0.00576092
0.00528711
0.00491545
0.00471661
0.00504227
0.00566332
0.00608493
0.00638887
0.00664284
0.00681289
0.00682865
0.00669307
0.00637524
0.00616501
0.0062102
0.00601744
0.00541295
0.00373601
0.000686211
0.00312212
0.0023866
0.00673385
0.00769541
0.00829345
0.008751
0.00905502
0.00912416
0.00902929
0.00885836
0.00865551
0.00844691
0.00824593
0.00805661
0.00787885
0.00771574
0.00757514
0.00747006
0.00741932
0.00743736
0.00751812
0.00761988
0.00772027
0.00781806
0.00791424
0.00800771
0.00809144
0.00814225
0.00811967
0.00792469
0.00748647
0.00683765
0.00600077
0.00456436
0.000732726
0.00255818
0.00690721
0.00691482
0.00700329
0.00718867
0.00743967
0.00772004
0.0080039
0.00826912
0.00850308
0.00870037
0.00886051
0.00898677
0.00908584
0.00916932
0.00924437
0.00931255
0.0093747
0.00943433
0.00949347
0.00954669
0.00958273
0.00959031
0.00955845
0.00947191
0.00931056
0.00905131
0.00867577
0.00818184
0.00759071
0.00693429
0.00623559
0.00549348
0.00442565
0.00145979
0.000851992
0.00272597
0.00408445
0.00506382
0.00580671
0.00639862
0.0068909
0.0073081
0.00766098
0.00797017
0.00825001
0.00850138
0.0087258
0.00892519
0.00910179
0.00925801
0.00939593
0.00951711
0.00962261
0.00971268
0.00978656
0.00984246
0.00987766
0.00988835
0.00986827
0.00980485
0.00968052
0.00947334
0.00915801
0.00870832
0.00810033
0.00732449
0.00641047
0.00526294
0.0025517
0.00281471
0.00461025
0.00559334
0.00637981
0.00692678
0.00730317
0.00761082
0.00789234
0.00814937
0.00838436
0.00859949
0.0087966
0.00897675
0.00914018
0.00928637
0.00941422
0.00952213
0.00960813
0.00967002
0.00970553
0.0097123
0.00968794
0.00962998
0.00953561
0.00940141
0.009223
0.00899405
0.00870533
0.00834327
0.00788964
0.00732151
0.00661111
0.00572321
0.00460657
0.00212578
0.00241129
0.00401503
0.00471376
0.00528775
0.00580727
0.00627737
0.00669442
0.00706749
0.00740608
0.00771339
0.00799282
0.00824769
0.00848086
0.00869456
0.00889033
0.00906886
0.00922992
0.00937231
0.00949387
0.00959165
0.00966203
0.00970093
0.00970401
0.00966682
0.00958467
0.00945243
0.00926371
0.00901025
0.00867963
0.00825295
0.0077026
0.00699279
0.00608048
0.00490838
0.00225566
0.00225191
0.00386443
0.00466768
0.00533105
0.00587582
0.00634773
0.00677735
0.0071657
0.00751366
0.00782392
0.0080999
0.00834523
0.00856331
0.00875751
0.0089303
0.00908327
0.00921715
0.00933165
0.00942553
0.00949678
0.00954249
0.00955902
0.00954202
0.00948648
0.0093867
0.00923628
0.0090279
0.00875305
0.00840131
0.00795886
0.0074052
0.00670715
0.00581044
0.00463481
0.0019341
0.00288999
0.00473073
0.00555424
0.00619397
0.00671566
0.00716345
0.00755684
0.00790044
0.00819943
0.0084587
0.00868249
0.00887412
0.009037
0.00917378
0.00928647
0.00937658
0.00944516
0.00949281
0.0095196
0.00952503
0.00950805
0.00946697
0.0093993
0.00930161
0.00916932
0.00899641
0.00877511
0.00849542
0.00814461
0.00770637
0.00715938
0.00647423
0.00560572
0.00447215
0.00182154
0.00301224
0.00491382
0.00579044
0.00651358
0.00712483
0.00763874
0.00806947
0.00842981
0.00873083
0.00898153
0.00918893
0.00935819
0.00949306
0.00959618
0.00966944
0.00971428
0.00973178
0.00972273
0.00968778
0.00962749
0.00954209
0.00943136
0.00929442
0.00912956
0.00893391
0.00870328
0.00843173
0.00811124
0.0077311
0.00727703
0.00672959
0.00606128
0.00523047
0.00416445
0.00170163
0.00280036
0.00481824
0.00574848
0.0064956
0.00710696
0.00762
0.00805772
0.00842831
0.00874039
0.00900246
0.0092217
0.00940357
0.00955181
0.00966872
0.00975547
0.00981245
0.00983956
0.00983641
0.0098026
0.00973796
0.00964229
0.00951533
0.00935654
0.00916488
0.00893847
0.00867428
0.00836772
0.00801236
0.0075995
0.00711777
0.00654825
0.00585325
0.00498751
0.00386888
0.00130273
0.00245838
0.00453388
0.00549474
0.00625375
0.00687348
0.00739616
0.00784177
0.00821809
0.00853399
0.00879811
0.00901816
0.00920039
0.00934964
0.0094694
0.00956187
0.00962817
0.00966853
0.00968246
0.00966901
0.00962707
0.00955526
0.00945196
0.00931532
0.00914311
0.00893257
0.00868007
0.00838082
0.00802847
0.00761477
0.0071294
0.00655993
0.00588267
0.00505319
0.00396198
0.00148252
0.00230159
0.00448663
0.00548539
0.00625625
0.00686358
0.00735698
0.0077734
0.00812752
0.00842408
0.00866884
0.00886778
0.00902658
0.00915026
0.0092431
0.00930861
0.0093495
0.00936775
0.00936467
0.00934088
0.00929664
0.00923161
0.00914482
0.00903459
0.00889834
0.0087324
0.00853165
0.00828913
0.0079956
0.007639
0.00720382
0.00667015
0.006012
0.00519402
0.00416467
0.00192296
0.00218616
0.00441142
0.00542159
0.00620284
0.00681951
0.00731116
0.00771133
0.00804632
0.00832746
0.00855896
0.00874542
0.00889149
0.00900157
0.00907975
0.00912969
0.00915464
0.00915737
0.00914009
0.00910446
0.00905166
0.00898221
0.00889588
0.00879155
0.00866706
0.00851892
0.00834193
0.00812866
0.00786879
0.00754855
0.00715007
0.00665071
0.00602209
0.00522802
0.00421961
0.00202124
0.00226749
0.00433734
0.00527691
0.00601774
0.00662574
0.00713918
0.00757382
0.00793899
0.00824328
0.00849414
0.00869779
0.00885939
0.00898332
0.00907347
0.00913339
0.00916646
0.00917582
0.00916436
0.00913441
0.0090878
0.00902555
0.00894772
0.00885322
0.00873966
0.00860315
0.00843799
0.00823631
0.00798758
0.0076781
0.00729035
0.00680232
0.00618662
0.00540866
0.00442379
0.00226458
0.00203978
0.00394619
0.00483409
0.00555972
0.00615886
0.00665411
0.00706461
0.0074063
0.00769218
0.00793257
0.00813537
0.00830639
0.00844977
0.00856834
0.00866404
0.00873824
0.00879199
0.00882614
0.00884137
0.00883819
0.00881667
0.00877608
0.00871462
0.00862918
0.0085152
0.00836649
0.00817514
0.00793132
0.00762284
0.00723448
0.0067474
0.00613873
0.00538034
0.00443591
0.00239139
0.00206769
0.0040755
0.00498968
0.00571731
0.00631441
0.00680262
0.00720032
0.00752343
0.00778522
0.00799691
0.00816792
0.00830614
0.00841808
0.00850893
0.00858267
0.00864207
0.00868882
0.00872375
0.00874694
0.00875786
0.00875517
0.00873656
0.00869847
0.00863597
0.00854269
0.00841086
0.00823145
0.00799397
0.00768635
0.00729485
0.00680362
0.00619403
0.00544335
0.00452173
0.00255885
0.0019853
0.00418273
0.00519198
0.00594828
0.00651953
0.00696189
0.00731886
0.00761076
0.00784669
0.00803604
0.00818746
0.00830838
0.00840487
0.00848194
0.00854354
0.00859259
0.00863101
0.00865986
0.00867939
0.0086891
0.00868761
0.00867259
0.00864061
0.00858702
0.00850578
0.00838946
0.00822874
0.00801274
0.0077291
0.0073636
0.00689963
0.0063178
0.00559595
0.00469984
0.00275568
0.00208475
0.0043859
0.0054341
0.00620576
0.00678291
0.00722571
0.00757219
0.00783984
0.00804226
0.00819253
0.00830229
0.00838151
0.00843835
0.00847927
0.00850917
0.00853157
0.00854876
0.00856198
0.00857153
0.00857686
0.00857657
0.00856821
0.00854831
0.00851226
0.00845425
0.00836698
0.00824158
0.00806395
0.00781418
0.00747564
0.00704032
0.00650775
0.00585607
0.00498544
0.00291281
0.00210309
0.00444913
0.00549382
0.0062834
0.00689816
0.00737936
0.00775358
0.00803499
0.00823573
0.00836957
0.00845035
0.0084911
0.00850353
0.00849771
0.00848188
0.00846232
0.00844349
0.0084281
0.0084174
0.0084114
0.00840893
0.00840774
0.00840447
0.00839467
0.0083728
0.00833206
0.0082633
0.00815159
0.00797444
0.00770702
0.00732844
0.00682754
0.00619127
0.00529471
0.00298624
0.00203
0.00448639
0.00554818
0.0063516
0.00700766
0.00754691
0.00797492
0.00829987
0.00853161
0.00868129
0.0087613
0.00878498
0.00876621
0.00871858
0.0086546
0.00858501
0.00851815
0.00845972
0.00841275
0.00837802
0.00835439
0.0083393
0.00832921
0.00831989
0.00830658
0.00828362
0.00824408
0.0081785
0.00806892
0.00788448
0.00758815
0.00714421
0.00651639
0.00556863
0.00307938
0.00190344
0.0046111
0.00572365
0.00650241
0.00711511
0.00761503
0.00801713
0.00832769
0.00855482
0.00870773
0.00879631
0.00883106
0.00882282
0.00878252
0.00872084
0.00864781
0.00857237
0.00850188
0.00844171
0.00839495
0.00836188
0.00833976
0.0083233
0.00830571
0.00827975
0.00823842
0.00817497
0.00808226
0.00794975
0.00775807
0.00747879
0.00707863
0.00651267
0.00563636
0.00323229
0.00201781
0.00487557
0.00592005
0.00664724
0.00726085
0.00777499
0.00819633
0.00853191
0.00878906
0.00897531
0.00909818
0.00916519
0.00918377
0.00916122
0.00910479
0.00902181
0.00891975
0.00880642
0.00868821
0.00857204
0.00846727
0.00838298
0.00832449
0.00828949
0.00826631
0.00823614
0.00817784
0.00807172
0.00790087
0.0076525
0.00731969
0.00689053
0.00633232
0.00550095
0.00321144
0.00221087
0.00513492
0.00615632
0.00685158
0.00744123
0.00793748
0.00835036
0.00868835
0.00895892
0.00916871
0.00932379
0.00942967
0.00949147
0.00951389
0.00950134
0.009458
0.00938799
0.00929548
0.0091849
0.00906087
0.00892661
0.00878683
0.0086504
0.00852672
0.00842326
0.00834103
0.00826963
0.00818572
0.00805805
0.00785579
0.0075546
0.00713677
0.00657957
0.00574735
0.00346744
0.00224229
0.00545257
0.0065164
0.00720145
0.00777576
0.00826471
0.00867468
0.0090129
0.00928662
0.00950262
0.00966701
0.00978511
0.00986152
0.00990019
0.00990451
0.00987743
0.00982161
0.00973951
0.00963362
0.0095067
0.00936199
0.0092003
0.00902365
0.00883923
0.00865613
0.00848374
0.00832812
0.00818571
0.00803716
0.00784746
0.00757625
0.00719213
0.00667067
0.00587121
0.00366294
0.00255259
0.00583605
0.00685819
0.00751777
0.00808992
0.00858415
0.00900548
0.00935957
0.00965227
0.00988925
0.0100758
0.0102166
0.0103157
0.0103765
0.0104021
0.0103947
0.0103563
0.0102887
0.0101932
0.0100711
0.00992333
0.00974794
0.0095427
0.00931
0.00905445
0.00878317
0.00850518
0.00822866
0.00795537
0.00767428
0.00735951
0.00697611
0.00648305
0.00572508
0.00369237
0.00242495
0.00594886
0.00706141
0.0077409
0.00831243
0.0088194
0.0092619
0.00964215
0.00996345
0.0102296
0.0104446
0.0106121
0.0107359
0.0108193
0.0108653
0.0108769
0.0108568
0.0108075
0.0107311
0.0106297
0.0105034
0.0103489
0.0101633
0.00994541
0.00969476
0.00941244
0.00910141
0.00876554
0.00840728
0.00802459
0.00760912
0.00714677
0.00661369
0.00587474
0.00406469
0.00267673
0.00629339
0.00743019
0.0081195
0.00870467
0.00923647
0.00970909
0.0101205
0.0104711
0.0107626
0.0109972
0.0111777
0.0113068
0.0113875
0.011423
0.0114165
0.0113716
0.011292
0.0111813
0.0110436
0.0108827
0.0106968
0.0104821
0.0102387
0.00996857
0.00967641
0.0093708
0.00906184
0.00875521
0.00844528
0.00811279
0.00772911
0.00725713
0.00654269
0.00461454
0.0026975
0.006465
0.00762492
0.00831225
0.0089059
0.009472
0.00999857
0.0104772
0.0109024
0.0112706
0.0115799
0.0118293
0.0120185
0.0121478
0.0122183
0.0122316
0.0121898
0.0120961
0.0119535
0.0117665
0.0115398
0.0112744
0.0109656
0.0106103
0.01021
0.00977094
0.00930699
0.00884053
0.0083973
0.00799588
0.00763596
0.00729261
0.00691574
0.0063255
0.00459322
0.00339036
0.00710608
0.00829211
0.00901954
0.00962237
0.0101802
0.0107117
0.0112089
0.0116646
0.0120735
0.0124314
0.0127351
0.0129822
0.0131712
0.0133011
0.0133719
0.0133844
0.0133407
0.0132433
0.0130946
0.0128958
0.0126486
0.0123525
0.0120052
0.011603
0.011143
0.0106273
0.0100685
0.00948857
0.00891303
0.00836286
0.00784697
0.00734976
0.00672331
0.00518983
0.00454528
0.0083442
0.00959737
0.0104058
0.0110625
0.0116144
0.0120792
0.0124704
0.0128031
0.0130854
0.0133178
0.0135008
0.013635
0.0137212
0.0137603
0.0137533
0.0137019
0.0136083
0.0134737
0.013299
0.0130868
0.0128413
0.0125658
0.0122628
0.0119333
0.0115763
0.0111905
0.0107795
0.0103542
0.00992911
0.00950978
0.00908558
0.00862617
0.00796666
0.00616011
0.00514803
0.00901407
0.0103212
0.0111839
0.0119318
0.0125854
0.0131398
0.0135979
0.0139638
0.0142426
0.0144398
0.0145608
0.0146111
0.0145956
0.0145192
0.0143866
0.0142026
0.0139716
0.0136978
0.0133855
0.0130397
0.0126653
0.0122676
0.0118506
0.0114168
0.0109662
0.010497
0.010009
0.00951316
0.00903484
0.00860163
0.00821461
0.00782754
0.00724206
0.00567302
0.00476636
0.00844495
0.00962083
0.0103555
0.0110063
0.0116305
0.0122261
0.0127862
0.0133023
0.013765
0.0141678
0.0145049
0.0147719
0.0149658
0.0150844
0.0151267
0.0150926
0.0149836
0.0148023
0.0145537
0.0142452
0.0138858
0.0134854
0.0130539
0.0125991
0.0121247
0.0116277
0.0110989
0.0105302
0.00993059
0.00933396
0.0087812
0.00828501
0.0077261
0.00650124
0.00607353
0.00950219
0.0105462
0.0112308
0.0118407
0.0123961
0.0128944
0.0133364
0.0137251
0.0140642
0.0143525
0.014586
0.0147619
0.014878
0.0149329
0.0149263
0.0148587
0.0147319
0.0145489
0.0143124
0.0140241
0.013688
0.0133123
0.0129071
0.012483
0.012051
0.0116193
0.0111888
0.0107486
0.0102811
0.00978534
0.00928568
0.00879936
0.00818846
0.00679668
0.00544444
0.00945752
0.0106794
0.0114232
0.0121203
0.0128158
0.0134766
0.0140747
0.0145924
0.0150206
0.0153583
0.0156081
0.0157728
0.0158555
0.0158586
0.0157842
0.0156345
0.0154112
0.0151162
0.0147511
0.0143174
0.0138174
0.0132555
0.0126386
0.0119774
0.0112854
0.01058
0.00988318
0.00922006
0.0086115
0.00807038
0.0076199
0.00726584
0.00691367
0.00619777
0.00475709
0.0085582
0.00973392
0.0104236
0.0110165
0.0115843
0.0121238
0.0126264
0.0130943
0.0135283
0.0139205
0.0142635
0.0145544
0.0147922
0.0149767
0.0151078
0.0151852
0.015208
0.0151744
0.0150821
0.0149283
0.0147098
0.0144238
0.0140628
0.0136172
0.0130847
0.0124697
0.0117825
0.0110394
0.0102659
0.00950545
0.00883209
0.00831887
0.00790112
0.00701581
0.00577266
0.00979474
0.0106085
0.010952
0.0112511
0.0115957
0.0119811
0.0123903
0.0128062
0.0132145
0.0136032
0.0139628
0.0142856
0.0145658
0.0147981
0.0149781
0.0151017
0.015165
0.0151643
0.0150966
0.0149594
0.0147513
0.0144716
0.0141201
0.0136983
0.0132092
0.0126457
0.0119979
0.0112737
0.0104848
0.00964433
0.00877898
0.00791903
0.00710665
0.00654474
0.00164242
0.00801489
0.0101667
0.011134
0.0118054
0.0123797
0.0129072
0.0134087
0.0138835
0.014318
0.0146981
0.0150144
0.0152621
0.0154394
0.0155455
0.0155805
0.0155454
0.0154424
0.015275
0.0150482
0.0147659
0.0144293
0.01404
0.0136011
0.0131086
0.0125549
0.0119355
0.0112512
0.0105117
0.00973152
0.00893045
0.00814291
0.00741015
0.00671177
0.00530387
0.00161454
0.00631695
0.0100368
0.0113985
0.0120789
0.0125929
0.0130394
0.0134308
0.0137763
0.0140778
0.0143257
0.0145119
0.0146339
0.0146941
0.0146973
0.0146503
0.0145605
0.0144348
0.0142791
0.0140979
0.0138937
0.0136667
0.0134145
0.0131328
0.0128155
0.0124575
0.0120576
0.0116215
0.0111426
0.0106213
0.0101036
0.00959718
0.00884459
0.00682015
0.0023701
0.00396831
0.00706572
0.00965221
0.0115271
0.0121629
0.0124846
0.0127688
0.013041
0.0132834
0.0134897
0.0136641
0.0138064
0.0139114
0.0139745
0.0139922
0.0139621
0.0138833
0.0137555
0.0135801
0.0133593
0.0130968
0.0127967
0.0124631
0.0120989
0.0117056
0.0112838
0.0108286
0.0103307
0.00978057
0.00915409
0.00839153
0.00739744
0.00598547
0.00384725
0.000439261
0.00493199
0.00876778
0.0100244
0.0116919
0.0130441
0.0139144
0.0143932
0.014679
0.0148769
0.0150111
0.0150831
0.0150959
0.0150568
0.0149739
0.0148538
0.0147006
0.0145161
0.0143007
0.014054
0.0137761
0.0134676
0.0131307
0.0127679
0.0123817
0.0119737
0.0115435
0.0110877
0.0105999
0.0100681
0.0094652
0.0087278
0.00771499
0.0064345
0.00573257
0.00243907
0.00474553
0.00861597
0.00920228
0.0100623
0.010931
0.011596
0.0120615
0.0123808
0.0125978
0.012739
0.0128168
0.0128385
0.0128096
0.0127355
0.0126215
0.0124727
0.0122933
0.0120869
0.0118557
0.0116014
0.0113255
0.0110294
0.0107147
0.0103847
0.0100461
0.00970937
0.00938713
0.00909115
0.00883048
0.0086123
0.00844296
0.00834014
0.00840825
0.00858868
0.00263772
0.00531121
0.0126858
0.0116605
0.0119376
0.012453
0.0129096
0.0133077
0.0136513
0.0139461
0.0141981
0.0144126
0.0145944
0.0147472
0.014874
0.0149762
0.0150541
0.015106
0.0151268
0.0151081
0.0150368
0.0148966
0.0146694
0.0143366
0.0138793
0.0132776
0.0125133
0.0115877
0.0105427
0.00946483
0.00844461
0.00754691
0.00675873
0.00592102
0.00447163
0.000477476
0.0147029
0.0196018
0.0188437
0.0174605
0.0162379
0.0152524
0.0144836
0.0139034
0.0134716
0.0131524
0.0129213
0.0127615
0.0126626
0.0126179
0.012623
0.0126739
0.0127653
0.0128904
0.0130407
0.0132054
0.0133755
0.0135384
0.0136786
0.0137735
0.0137961
0.0137256
0.0135162
0.0131488
0.0125989
0.0119057
0.0109864
0.00987974
0.00811992
0.00586428
0.00366311
0.0103035
0.0127278
0.0126294
0.0117717
0.010724
0.00973943
0.0088808
0.00816674
0.00758312
0.00709632
0.00670265
0.00639452
0.00616621
0.00599955
0.00588601
0.00581866
0.00578664
0.00579043
0.0058107
0.00585433
0.0059115
0.00598448
0.00606838
0.00613762
0.00622678
0.00625818
0.00633733
0.00628343
0.00641812
0.00616974
0.00649913
0.00564037
0.00687358
0.00525582
0.00228615
0.00239981
0.00452274
0.00499744
0.00507074
0.00503503
0.00501895
0.00499601
0.00499804
0.00501203
0.00493476
0.0049193
0.00503581
0.00524605
0.00550318
0.00578155
0.00606279
0.0063171
0.00650009
0.00654144
0.00642075
0.00620152
0.00598932
0.00584828
0.0057751
0.00574393
0.00568878
0.00557219
0.00523087
0.00454728
0.00389657
0.00336226
0.00100982
0.000927155
0.000875003
0.00524377
0.00470019
0.00626051
0.00653864
0.00658699
0.00656104
0.00647018
0.00628892
0.0059875
0.00544526
0.00473486
0.00521342
0.00666023
0.0078476
0.00859492
0.00904762
0.00929028
0.0093705
0.0093204
0.009163
0.00891538
0.00862066
0.00835817
0.00818303
0.00811157
0.00816476
0.00839406
0.00869109
0.0088366
0.00839254
0.00680427
0.004654
0.00305699
0.00304594
0.00332783
0.00734969
0.00598543
0.00603717
0.00591282
0.00586142
0.00582215
0.00573571
0.00553157
0.00506932
0.00512385
0.0063077
0.00768511
0.00880647
0.00965682
0.0102845
0.0107337
0.0110313
0.0111917
0.0112178
0.0111023
0.0108407
0.0104372
0.00992272
0.00932814
0.00876842
0.00853204
0.00863337
0.00865946
0.00842997
0.00784594
0.00747567
0.00800907
0.00886942
0.00820553
0.00186492
0.00820866
0.00683144
0.0064979
0.00636438
0.00625861
0.00609315
0.00578326
0.00530101
0.00470679
0.00441237
0.0058209
0.0081288
0.00998281
0.0111504
0.0118887
0.0123729
0.0126683
0.0127948
0.0127575
0.0125519
0.0121715
0.0115959
0.0107823
0.00970646
0.00858268
0.00727422
0.00396508
0.00206673
0.00251357
0.00475811
0.00718056
0.00735418
0.00536964
0.00165855
0.00150511
0.0151456
0.00685067
0.00632516
0.00625497
0.00622694
0.00613371
0.0058636
0.00534159
0.0047789
0.00480364
0.0064536
0.00905995
0.0111272
0.0123693
0.0131187
0.0135839
0.0138373
0.0138945
0.0137522
0.013414
0.0128975
0.012214
0.0113383
0.0102139
0.00868308
0.00334476
0.00136955
0.00277941
0.00732598
0.00840577
0.00546801
0.00170895
0.000333852
0.00294369
0.00787699
0.016885
0.00692816
0.00641019
0.00630306
0.00622464
0.0060797
0.00577362
0.00523228
0.00456423
0.00417091
0.00514934
0.0080647
0.0109578
0.0126344
0.013532
0.0140893
0.0144321
0.0145564
0.014447
0.0140982
0.0135198
0.0127363
0.0117897
0.0104615
0.00771732
0.00153298
0.00123795
0.00357009
0.0100161
0.00959927
0.00600969
0.00353708
0.00462519
0.00707695
0.00947906
0.0082954
0.00682768
0.00640499
0.00633897
0.00628366
0.00615229
0.00584072
0.0052232
0.00426114
0.00338459
0.00373605
0.00644327
0.00993344
0.0121604
0.013317
0.0139961
0.0144542
0.0147296
0.0147965
0.0146367
0.0142449
0.0136342
0.0128317
0.0117165
0.00975704
0.00602002
0.00159911
0.000811028
0.00534721
0.00762687
0.00783085
0.0078349
0.00873164
0.00997115
0.010087
0.00538578
0.00699122
0.00653773
0.00642925
0.00633957
0.00618309
0.00591018
0.00556209
0.00513104
0.00445706
0.00377012
0.00448345
0.00756502
0.0107252
0.0124531
0.0133525
0.0139277
0.0143432
0.0146135
0.0147156
0.0146338
0.0143625
0.0139154
0.0132996
0.0124401
0.0110937
0.00892335
0.00647041
0.00575603
0.00631038
0.00723432
0.00811536
0.00899023
0.00979559
0.0100236
0.00835117
0.00679389
0.00646739
0.00638779
0.00630783
0.0061437
0.00578812
0.00515867
0.00440342
0.0037545
0.00321066
0.00307905
0.00473822
0.00824139
0.0111025
0.012515
0.0132439
0.0137332
0.0140986
0.0143387
0.0144407
0.0143932
0.014192
0.0138434
0.0133685
0.0127656
0.0119506
0.0107738
0.00928935
0.00791665
0.00726721
0.007913
0.00949118
0.0107507
0.01134
0.00959445
0.00722647
0.00667375
0.00649746
0.00636974
0.00620303
0.00599584
0.0057387
0.00528282
0.00458994
0.00380553
0.00315871
0.00334956
0.00560524
0.00907984
0.0115074
0.0126282
0.0132155
0.0136174
0.0139096
0.0140858
0.0141378
0.0140582
0.0138442
0.0135018
0.0130491
0.0124571
0.0115548
0.0100503
0.00811166
0.00706801
0.00826783
0.0100646
0.0110146
0.0107732
0.00659139
0.0069899
0.00651378
0.00635498
0.00620621
0.00595536
0.00555675
0.00510292
0.00471472
0.00434117
0.00389628
0.00338246
0.00301015
0.00361441
0.00612601
0.00935375
0.0115285
0.0125602
0.0131002
0.0134529
0.0136926
0.0138215
0.0138342
0.013725
0.0134915
0.0131387
0.0126358
0.0118631
0.0106321
0.00893098
0.00758331
0.0078139
0.00868569
0.00903825
0.00844667
0.00428763
0.00728073
0.00668884
0.00647474
0.00632413
0.0061601
0.00598835
0.00571865
0.00530585
0.00481585
0.00430137
0.00378356
0.00327787
0.00300828
0.00380205
0.00629365
0.00928355
0.0113707
0.012409
0.0129472
0.013277
0.0134847
0.0135859
0.0135778
0.0134568
0.0132148
0.0128329
0.012275
0.0114712
0.0103505
0.00908374
0.00827
0.00800979
0.00776192
0.00709689
0.00402593
0.00718114
0.0064518
0.00618341
0.00596439
0.00568503
0.00541846
0.00522851
0.00505289
0.00481762
0.00450451
0.00413166
0.00371389
0.00329341
0.00314213
0.00402844
0.00632272
0.00901068
0.0110381
0.0121409
0.0127148
0.0130534
0.0132561
0.0133477
0.0133295
0.013194
0.0129286
0.0125156
0.0119315
0.0111554
0.0102287
0.00933571
0.00862997
0.00799887
0.00709154
0.00439191
0.0071626
0.00653299
0.00629246
0.00611669
0.00593567
0.00577117
0.00556265
0.00531611
0.00504989
0.00476342
0.00445512
0.00412105
0.00375434
0.00340239
0.0033502
0.00424955
0.0062754
0.00866754
0.0106421
0.0118361
0.0124747
0.0128404
0.0130535
0.01315
0.0131346
0.0129994
0.0127312
0.0123171
0.011753
0.0110617
0.0103032
0.00953308
0.00873814
0.00769117
0.00507807
0.00709504
0.00626677
0.00595626
0.00571608
0.00546715
0.00534816
0.00531971
0.00525301
0.00512207
0.00493982
0.00472121
0.0044763
0.00420203
0.00389918
0.00362738
0.00364721
0.00444436
0.00611843
0.00817844
0.0100596
0.0113485
0.0120925
0.0125212
0.0127732
0.0129023
0.0129224
0.0128314
0.0126214
0.0122854
0.011824
0.0112469
0.0105651
0.00978295
0.00876466
0.00627501
0.00682657
0.00628955
0.00608183
0.00590229
0.0056625
0.0054592
0.00536162
0.00528797
0.00519182
0.00506594
0.0049148
0.00474566
0.0045575
0.00434504
0.0041153
0.00393601
0.00402181
0.00470092
0.00607714
0.00787701
0.00965264
0.0109862
0.0118019
0.0122661
0.0125283
0.0126595
0.0126862
0.012617
0.0124531
0.0121877
0.0118005
0.0112773
0.010642
0.00980843
0.00762658
0.00676445
0.00615034
0.00592941
0.00574367
0.00549557
0.00527098
0.00521017
0.00521136
0.00518643
0.00512406
0.00503364
0.00492778
0.00481264
0.00468582
0.00454158
0.00438976
0.00429689
0.00443247
0.00503021
0.00621642
0.00787334
0.00963026
0.0110465
0.0119341
0.012406
0.0126294
0.0126984
0.0126524
0.0125038
0.0122534
0.0119211
0.0115387
0.0110826
0.0103247
0.00793082
0.00640449
0.00617902
0.00610064
0.00599727
0.0057771
0.00542218
0.00518163
0.00513203
0.00513571
0.00512373
0.00508628
0.00503229
0.00497248
0.00491409
0.00485388
0.00478098
0.00470126
0.00467244
0.00482807
0.00534938
0.00638422
0.00792181
0.00969137
0.0112609
0.0123405
0.0129432
0.0132161
0.0132686
0.0131491
0.0128849
0.0125342
0.0121477
0.0116659
0.0106974
0.00717107
0.00635014
0.0061947
0.00617005
0.00612545
0.00599283
0.00568146
0.00528477
0.00508374
0.00505451
0.00506966
0.00507494
0.00506369
0.00504328
0.00502769
0.00502752
0.00503694
0.00503684
0.00502187
0.00502618
0.00513413
0.00547734
0.00620071
0.00737773
0.0089053
0.0105004
0.0118543
0.0128013
0.013341
0.0135409
0.0134699
0.0132065
0.0128218
0.0122912
0.011207
0.00701203
0.00606655
0.00622538
0.00633786
0.00638905
0.00635724
0.00615271
0.00569845
0.00524534
0.0050409
0.00500682
0.00502213
0.00503789
0.00504437
0.00505064
0.00507376
0.00512497
0.00519519
0.00526121
0.00530752
0.00534055
0.00539869
0.00555271
0.00589893
0.0065291
0.00746712
0.00861911
0.0098052
0.0108387
0.0115885
0.0120443
0.0122523
0.0122367
0.0119817
0.0112254
0.00793354
0.00609404
0.00631547
0.00647803
0.00658826
0.00665091
0.00659924
0.00629949
0.00573089
0.00524358
0.00502605
0.00497588
0.00498016
0.00499122
0.00500158
0.00502284
0.00507369
0.00516297
0.00527861
0.0053937
0.00548459
0.00554563
0.00558956
0.00564489
0.0057548
0.00596348
0.0062821
0.00668069
0.00721939
0.00820945
0.00948893
0.0104951
0.0110445
0.0111821
0.0108195
0.0085673
0.00608681
0.00638715
0.00659456
0.00675063
0.00688544
0.00694955
0.0068354
0.00640705
0.0057579
0.00526306
0.00504159
0.00497329
0.00495499
0.00494725
0.0049476
0.00497182
0.00503827
0.00515618
0.00530222
0.00543743
0.00553658
0.0055953
0.0056191
0.00561482
0.00558008
0.00548031
0.00540674
0.00598345
0.00742796
0.00892348
0.00992839
0.0104487
0.0105658
0.0101026
0.00727871
0.00639685
0.00657014
0.00673635
0.00688995
0.00706898
0.00722428
0.0072422
0.00701276
0.00644817
0.00575217
0.00528302
0.0050715
0.00498426
0.0049359
0.0049007
0.00488339
0.00490543
0.00499062
0.00513274
0.00528402
0.00539988
0.00546943
0.00549907
0.00549999
0.005518
0.00579781
0.00664419
0.00793767
0.00922683
0.0101688
0.0107134
0.0109003
0.010677
0.00951466
0.005158
0.0068498
0.00674666
0.00681945
0.00695538
0.0071891
0.00743098
0.00753214
0.00741912
0.00703129
0.00635943
0.00570269
0.00531327
0.00512412
0.00501627
0.00493567
0.00487106
0.00483331
0.0048517
0.00494947
0.00509761
0.00523144
0.00532274
0.00538668
0.00549533
0.00592357
0.00710952
0.00872395
0.0100366
0.0109459
0.0115131
0.0117691
0.0116945
0.0111248
0.00929659
0.00388424
0.00744523
0.0068506
0.00676079
0.00688027
0.00724134
0.0076061
0.00776564
0.00769782
0.00740671
0.00686855
0.0062008
0.0056909
0.00539936
0.00522496
0.0050963
0.00498514
0.0048869
0.00482193
0.00482875
0.00492652
0.00506947
0.00519787
0.00531053
0.0055013
0.00605622
0.00736277
0.00899819
0.0101309
0.0108272
0.011236
0.011379
0.0112103
0.010527
0.00852826
0.00325572
0.00767594
0.00661245
0.00637669
0.00653851
0.00714414
0.0076749
0.00789091
0.00785655
0.00761949
0.00718981
0.006633
0.0061319
0.00579101
0.00556559
0.00539431
0.00524165
0.00509391
0.00495797
0.00486338
0.00485296
0.00493764
0.00507198
0.00521009
0.00538117
0.0057358
0.00652092
0.00762562
0.00848858
0.00901166
0.00930037
0.00938583
0.00923062
0.00865661
0.00697901
0.00283508
0.00727434
0.00606301
0.00577387
0.00598071
0.00676804
0.00746986
0.00780004
0.00786237
0.00772256
0.00741006
0.00699077
0.00657852
0.00625
0.00600133
0.00579847
0.00561291
0.00542901
0.00524454
0.00507385
0.00495186
0.00491798
0.00498139
0.00510202
0.00524161
0.00542767
0.00575364
0.00624114
0.00670382
0.00701326
0.00717409
0.00720028
0.00706907
0.00665585
0.00546964
0.0025737
0.00651495
0.00559585
0.00532379
0.00531897
0.0058429
0.00672829
0.0073447
0.00762935
0.00767562
0.0075398
0.00728439
0.00698915
0.00671156
0.0064691
0.00625294
0.00604728
0.00584009
0.00562623
0.00540998
0.00521026
0.0050616
0.00500376
0.00504439
0.00514244
0.00525526
0.00538308
0.00553889
0.0056908
0.00579253
0.00582586
0.00578377
0.00564685
0.00533199
0.00451012
0.00244065
0.00609423
0.00568593
0.00539213
0.00504325
0.00477312
0.00546863
0.00648491
0.00712413
0.00742896
0.00751292
0.0074471
0.00729092
0.00709633
0.00689341
0.00669082
0.00648535
0.00627141
0.00604509
0.00580668
0.00556416
0.0053372
0.00516224
0.00508137
0.00509942
0.00516883
0.00523869
0.00528754
0.00530713
0.00529075
0.00523469
0.00513439
0.004976
0.00469911
0.00406092
0.00239109
0.00631771
0.00609608
0.0058007
0.00540912
0.00468934
0.0045018
0.00556791
0.00652053
0.00706217
0.00733357
0.00743537
0.00742321
0.00733744
0.00720753
0.00704977
0.0068704
0.00667032
0.00644856
0.00620471
0.00594185
0.00567096
0.00541771
0.00522545
0.00513434
0.00513696
0.00517643
0.00520062
0.00518723
0.00513231
0.0050385
0.00490739
0.00473192
0.00446326
0.00389288
0.00237299
0.00703748
0.00626568
0.00586241
0.00551932
0.00504992
0.00451625
0.00523016
0.00621676
0.00683238
0.00717578
0.00736141
0.00744317
0.00744854
0.00739572
0.0072975
0.00716174
0.00699221
0.00679019
0.00655638
0.00629343
0.00600824
0.00571614
0.0054492
0.00525549
0.00516674
0.00515676
0.00516385
0.00514501
0.00508558
0.00498508
0.00484592
0.00466397
0.00439562
0.00384332
0.00236506
0.00766926
0.00611532
0.00541527
0.00487576
0.00462496
0.00479545
0.00544011
0.00627397
0.00680448
0.00712318
0.00732211
0.00744073
0.0074956
0.00749561
0.00744706
0.00735464
0.00722123
0.00704821
0.00683652
0.00658885
0.00630952
0.00600725
0.00570245
0.00543505
0.00525359
0.00517124
0.00514357
0.00511479
0.00505562
0.00495792
0.00482089
0.00463977
0.00437131
0.00381945
0.00234336
0.00757108
0.0058379
0.00504433
0.0043378
0.00407046
0.00484003
0.00567307
0.00635177
0.00678669
0.00707372
0.00727304
0.0074097
0.00749351
0.00752859
0.00751736
0.00746193
0.00736389
0.00722375
0.00704136
0.0068187
0.00655827
0.00626497
0.00595074
0.00564333
0.00538936
0.00522793
0.00514662
0.00509321
0.00502638
0.00492881
0.00479472
0.00461674
0.00435014
0.00379729
0.00231241
0.00679712
0.00567018
0.00514151
0.00454084
0.00397036
0.00444016
0.00537414
0.00607777
0.00654185