/*--------------------------------*- C++ -*----------------------------------*\
| =========                 |                                                 |
| \\      /  F ield         | OpenFOAM: The Open Source CFD Toolbox           |
|  \\    /   O peration     | Version:  v2006                                 |
|   \\  /    A nd           | Website:  www.openfoam.com                      |
|    \\/     M anipulation  |                                                 |
\*---------------------------------------------------------------------------*/
FoamFile
{
    version     2.0;
    format      ascii;
    class       surfaceScalarField;
    location    "74";
    object      phi;
}
// * * * * * * * * * * * * * * * * * * * * * * * * * * * * * * * * * * * * * //

dimensions      [1 0 -1 0 0 0 0];
oriented        oriented;


internalField   nonuniform List<scalar> 
228225
(
7.99781e-05
-6.80379e-06
0.000556587
-3.40228e-05
-2.62702e-05
0.000140668
-2.74536e-05
-1.45858e-05
8.5713e-06
-1.96842e-05
-1.94822e-05
1.20684e-05
-1.63497e-05
-7.88321e-06
4.78342e-06
-1.38063e-05
-6.55576e-06
4.14799e-06
-1.83334e-05
-8.55783e-07
5.10603e-06
-2.64588e-05
2.22525e-06
5.34497e-06
-3.6396e-05
3.86492e-06
5.45184e-06
-4.64865e-05
4.1821e-06
5.37225e-06
-5.58903e-05
3.73241e-06
5.21432e-06
-6.4253e-05
2.94592e-06
5.0294e-06
-7.15764e-05
2.10915e-06
4.87364e-06
-7.8055e-05
1.41748e-06
4.75172e-06
-8.39477e-05
9.57028e-07
4.64884e-06
-8.93909e-05
6.00247e-07
4.54678e-06
-9.41785e-05
-3.46656e-08
4.4364e-06
-9.80935e-05
-1.00193e-06
4.33085e-06
-0.000100351
-2.86429e-06
4.27163e-06
-9.92221e-05
-6.53885e-06
4.34011e-06
-9.29033e-05
-1.19384e-05
4.60786e-06
-8.33146e-05
-1.53012e-05
4.96943e-06
-7.30077e-05
-1.64994e-05
5.28168e-06
-6.24476e-05
-1.76832e-05
5.65704e-06
-4.98542e-05
-2.02976e-05
6.29035e-06
-3.30104e-05
-2.40536e-05
7.16111e-06
-1.46501e-05
-2.52656e-05
7.62462e-06
2.9684e-07
-2.23364e-05
7.34491e-06
7.04591e-07
-6.86167e-06
5.02469e-06
-1.87399e-06
-3.42029e-06
5.16985e-06
4.04164e-06
-1.29294e-05
7.52824e-06
1.29669e-05
-1.68215e-05
8.94831e-06
1.93915e-05
-1.47676e-05
9.34108e-06
1.70897e-05
-5.98039e-06
8.79051e-06
1.09897e-05
6.3141e-06
3.45036e-05
-1.04619e-05
-2.94701e-05
7.81005e-05
-1.82537e-05
-4.97417e-05
0.000101616
-1.27373e-05
-2.41155e-05
0.00010369
-8.82948e-06
-1.16249e-05
0.00010659
-4.34983e-06
-5.25984e-06
0.000103244
2.72648e-07
-1.93073e-06
9.8273e-05
5.57759e-06
3.10695e-07
9.05453e-05
9.33665e-06
2.00434e-06
8.11222e-05
1.11304e-05
2.97651e-06
7.06789e-05
1.15726e-05
3.52364e-06
5.97538e-05
1.11679e-05
3.81126e-06
4.87844e-05
1.02207e-05
3.90527e-06
3.81148e-05
9.0317e-06
3.84204e-06
2.80482e-05
7.81471e-06
3.66171e-06
1.88663e-05
6.64255e-06
3.4167e-06
1.07511e-05
5.42315e-06
3.1804e-06
3.61765e-06
3.95711e-06
3.00534e-06
-2.51165e-06
2.05606e-06
2.88612e-06
-7.78629e-06
-6.65572e-07
2.83477e-06
-1.22807e-05
-5.28243e-06
3.09516e-06
-1.62132e-05
-1.14114e-05
4.01174e-06
-1.95233e-05
-1.56129e-05
4.96445e-06
-2.20242e-05
-1.79834e-05
5.51201e-06
-2.40981e-05
-1.98601e-05
5.90191e-06
-2.73316e-05
-2.15657e-05
6.25297e-06
-3.30191e-05
-2.3165e-05
6.59147e-06
-3.87329e-05
-2.46869e-05
6.92814e-06
-4.05702e-05
-2.59945e-05
7.28683e-06
-2.64811e-05
-2.69029e-05
7.66442e-06
-9.17173e-06
-2.71542e-05
8.20039e-06
-2.1429e-06
-2.69776e-05
8.94586e-06
-1.04496e-06
-2.54146e-05
9.41908e-06
-1.45025e-06
-2.21957e-05
9.62564e-06
-1.29342e-06
-1.35883e-05
8.83486e-06
5.09223e-06
5.0186e-06
7.14232e-07
-1.67705e-05
5.34885e-06
-2.48472e-05
-1.64233e-05
2.3994e-05
-3.85111e-05
-1.21608e-05
1.32488e-05
-4.16502e-05
-1.05544e-05
4.99584e-06
-3.96388e-05
-9.18986e-06
3.00407e-06
-3.39481e-05
-7.97397e-06
2.78571e-06
-2.40364e-05
-6.75705e-06
2.76262e-06
-1.16697e-05
-5.43628e-06
2.83197e-06
1.14152e-06
-4.14975e-06
2.92602e-06
1.32661e-05
-3.07998e-06
3.00237e-06
2.41732e-05
-2.29905e-06
3.0396e-06
3.36761e-05
-1.83014e-06
3.02573e-06
4.19104e-05
-1.68354e-06
2.9579e-06
4.92286e-05
-1.85883e-06
2.83771e-06
5.6032e-05
-2.33337e-06
2.66861e-06
6.26035e-05
-3.08413e-06
2.45504e-06
6.89859e-05
-4.0817e-06
2.21021e-06
7.4994e-05
-5.3056e-06
1.95737e-06
8.00446e-05
-6.76377e-06
1.72232e-06
8.2474e-05
-8.46231e-06
1.51696e-06
8.0854e-05
-1.02738e-05
1.33873e-06
7.70039e-05
-1.20295e-05
1.18717e-06
7.25949e-05
-1.36615e-05
1.07623e-06
6.79628e-05
-1.51791e-05
1.01502e-06
6.31318e-05
-1.66125e-05
1.02393e-06
5.80269e-05
-1.79499e-05
1.13806e-06
5.24062e-05
-1.90927e-05
1.39075e-06
4.59592e-05
-1.98581e-05
1.77653e-06
3.84342e-05
-2.01005e-05
2.25802e-06
2.97374e-05
-1.97222e-05
2.799e-06
1.95967e-05
-1.87507e-05
3.38689e-06
8.95985e-06
-1.74461e-05
4.06841e-06
-9.10463e-07
-1.58951e-05
4.90771e-06
-5.78395e-06
-1.30671e-05
5.6098e-06
-3.54899e-06
3.75636e-06
-1.21507e-05
-5.29581e-06
1.18767e-06
-1.12936e-05
-1.48642e-05
-2.12974e-06
-5.05843e-06
-1.70013e-05
-1.19914e-06
1.53393e-06
-1.69339e-05
-8.63661e-08
7.93104e-06
-1.61279e-05
6.10506e-07
1.40758e-05
-1.49328e-05
8.50412e-07
1.99609e-05
-1.35385e-05
9.3159e-07
2.56743e-05
-1.20667e-05
9.64301e-07
3.12391e-05
-1.06401e-05
9.90264e-07
3.65473e-05
-9.32822e-06
1.02671e-06
4.14582e-05
-8.17394e-06
1.07763e-06
4.58573e-05
-7.22441e-06
1.13962e-06
4.96658e-05
-6.51823e-06
1.2049e-06
5.28389e-05
-6.07943e-06
1.26714e-06
5.53534e-05
-5.90583e-06
1.33227e-06
5.7186e-05
-5.98102e-06
1.40912e-06
5.83112e-05
-6.27842e-06
1.49931e-06
5.86935e-05
-6.77044e-06
1.6018e-06
5.82736e-05
-7.45291e-06
1.72166e-06
5.6982e-05
-8.33336e-06
1.86707e-06
5.48283e-05
-9.36923e-06
2.03891e-06
5.19011e-05
-1.04724e-05
2.23037e-06
4.82731e-05
-1.15529e-05
2.42713e-06
4.39732e-05
-1.25644e-05
2.6131e-06
3.90108e-05
-1.35006e-05
2.77294e-06
3.34177e-05
-1.43487e-05
2.88882e-06
2.73084e-05
-1.50684e-05
2.94186e-06
2.09488e-05
-1.56038e-05
2.91307e-06
1.47068e-05
-1.58867e-05
2.78458e-06
9.00952e-06
-1.58544e-05
2.54338e-06
4.22771e-06
-1.54723e-05
2.19235e-06
4.05545e-07
-1.47542e-05
1.77746e-06
-2.56683e-06
-1.38141e-05
1.47697e-06
-4.19134e-06
-1.25568e-05
1.6535e-06
-8.97868e-06
1.73179e-06
9.57694e-06
-1.55667e-05
1.28945e-06
1.49112e-05
-1.91334e-05
-5.1387e-07
1.80637e-05
-1.88078e-05
-1.11287e-06
1.93669e-05
-1.7148e-05
-1.00319e-06
1.97062e-05
-1.54819e-05
-9.36931e-07
1.97879e-05
-1.40674e-05
-9.07031e-07
2.00075e-05
-1.28578e-05
-8.63326e-07
2.05957e-05
-1.18169e-05
-8.04932e-07
2.16726e-05
-1.09481e-05
-7.36455e-07
2.32767e-05
-1.023e-05
-6.65052e-07
2.53731e-05
-9.62948e-06
-5.95021e-07
2.78719e-05
-9.13663e-06
-5.2936e-07
3.06467e-05
-8.75129e-06
-4.70754e-07
3.35518e-05
-8.47621e-06
-4.20968e-07
3.64472e-05
-8.31426e-06
-3.80512e-07
3.92028e-05
-8.26e-06
-3.47245e-07
4.1705e-05
-8.30629e-06
-3.17876e-07
4.38562e-05
-8.44513e-06
-2.88419e-07
4.55508e-05
-8.66861e-06
-2.54568e-07
4.66572e-05
-8.96497e-06
-2.10164e-07
4.70676e-05
-9.32171e-06
-1.48625e-07
4.67463e-05
-9.72714e-06
-6.60642e-08
4.57048e-05
-1.01703e-05
6.86629e-08
4.39744e-05
-1.06415e-05
2.7411e-07
4.16153e-05
-1.11352e-05
5.22718e-07
3.86597e-05
-1.16337e-05
8.31701e-07
3.51325e-05
-1.20943e-05
1.19891e-06
3.10667e-05
-1.24623e-05
1.60927e-06
2.65263e-05
-1.2676e-05
2.03165e-06
2.16208e-05
-1.26722e-05
2.416e-06
1.65134e-05
-1.23983e-05
2.69252e-06
1.14291e-05
-1.18312e-05
2.77064e-06
6.6173e-06
-1.10143e-05
2.56999e-06
2.4035e-06
-9.9945e-06
2.18755e-06
-7.7701e-06
1.79686e-06
5.64909e-06
-1.86173e-05
-2.57236e-06
6.73211e-06
-1.80586e-05
-2.20606e-06
6.25221e-06
-1.6624e-05
-1.77127e-06
5.73051e-06
-1.51338e-05
-1.55026e-06
5.48765e-06
-1.39016e-05
-1.38725e-06
5.59546e-06
-1.29527e-05
-1.26744e-06
6.05757e-06
-1.2192e-05
-1.16734e-06
6.83998e-06
-1.15602e-05
-1.07258e-06
7.87269e-06
-1.1025e-05
-9.8247e-07
9.08858e-06
-1.05693e-05
-8.95992e-07
1.04435e-05
-1.0183e-05
-8.13165e-07
1.18994e-05
-9.85912e-06
-7.37035e-07
1.34188e-05
-9.59344e-06
-6.71716e-07
1.49624e-05
-9.38367e-06
-6.20162e-07
1.64878e-05
-9.22855e-06
-5.8291e-07
1.79554e-05
-9.1271e-06
-5.58202e-07
1.93287e-05
-9.07818e-06
-5.42683e-07
2.05737e-05
-9.08017e-06
-5.32123e-07
2.16573e-05
-9.13061e-06
-5.21916e-07
2.255e-05
-9.22573e-06
-5.07413e-07
2.32247e-05
-9.35989e-06
-4.84145e-07
2.36538e-05
-9.52506e-06
-4.47926e-07
2.38061e-05
-9.71043e-06
-3.94927e-07
2.36424e-05
-9.90219e-06
-3.21853e-07
2.31092e-05
-1.00834e-05
-2.26391e-07
2.21506e-05
-1.02343e-05
-1.08665e-07
2.07304e-05
-1.03312e-05
2.88225e-08
1.87712e-05
-1.03481e-05
2.54637e-07
1.63181e-05
-1.0256e-05
4.76695e-07
1.34647e-05
-1.00279e-05
6.80009e-07
1.03859e-05
-9.64333e-06
8.12755e-07
7.32573e-06
-9.09309e-06
8.17778e-07
4.48637e-06
-8.38028e-06
6.95726e-07
1.93985e-06
-7.61471e-06
6.39441e-07
-6.22922e-06
8.19099e-07
-2.09864e-06
-1.6569e-05
-1.54749e-07
-2.60887e-06
-1.75172e-05
-2.17124e-07
-1.94211e-06
-1.72335e-05
-2.37e-07
-3.40659e-07
-1.66822e-05
-2.23906e-07
1.83604e-06
-1.60173e-05
-2.12435e-07
4.25156e-06
-1.52976e-05
-2.02533e-07
6.70147e-06
-1.45644e-05
-1.9394e-07
9.07339e-06
-1.38521e-05
-1.84597e-07
1.13057e-05
-1.31783e-05
-1.71746e-07
1.33646e-05
-1.2555e-05
-1.53572e-07
1.52339e-05
-1.19895e-05
-1.3079e-07
1.69107e-05
-1.1485e-05
-1.07115e-07
1.84021e-05
-1.10415e-05
-8.82473e-08
1.97226e-05
-1.06582e-05
-7.98008e-08
2.08884e-05
-1.03327e-05
-8.42618e-08
2.19133e-05
-1.00614e-05
-1.01503e-07
2.28058e-05
-9.84013e-06
-1.29291e-07
2.3568e-05
-9.66425e-06
-1.63423e-07
2.41944e-05
-9.52894e-06
-1.9832e-07
2.46719e-05
-9.42898e-06
-2.27714e-07
2.49815e-05
-9.3584e-06
-2.45277e-07
2.50992e-05
-9.31012e-06
-2.4504e-07
2.49983e-05
-9.27537e-06
-2.21561e-07
2.46504e-05
-9.24307e-06
-1.70262e-07
2.40279e-05
-9.19922e-06
-8.89505e-08
2.31044e-05
-9.12647e-06
2.31532e-08
2.17904e-05
-9.00414e-06
2.31932e-07
2.00562e-05
-8.80814e-06
4.78713e-07
1.7857e-05
-8.51464e-06
7.82037e-07
1.51572e-05
-8.10377e-06
1.13722e-06
1.19855e-05
-7.5653e-06
1.48719e-06
8.54613e-06
-6.9057e-06
1.66883e-06
5.30491e-06
-6.14816e-06
1.43764e-06
2.63126e-06
-5.35174e-06
8.37408e-07
-3.95914e-06
7.58773e-07
2.7974e-06
-1.92721e-05
-1.66052e-07
4.15115e-06
-1.95448e-05
6.11878e-07
4.75621e-06
-1.89358e-05
1.03814e-06
5.02379e-06
-1.81225e-05
1.11614e-06
5.14932e-06
-1.72533e-05
1.05605e-06
5.25114e-06
-1.63972e-05
9.43116e-07
5.38861e-06
-1.5561e-05
8.05136e-07
5.5938e-06
-1.47618e-05
6.54581e-07
5.88576e-06
-1.40137e-05
4.99563e-07
6.27326e-06
-1.33239e-05
3.44839e-07
6.75887e-06
-1.26951e-05
1.91465e-07
7.34908e-06
-1.21265e-05
3.14299e-08
7.98786e-06
-1.16165e-05
-7.49403e-08
8.6631e-06
-1.11618e-05
-1.74241e-07
9.36804e-06
-1.07578e-05
-2.73795e-07
1.00925e-05
-1.03993e-05
-3.71535e-07
1.08253e-05
-1.00811e-05
-4.67238e-07
1.1554e-05
-9.79774e-06
-5.60451e-07
1.22647e-05
-9.54371e-06
-6.49964e-07
1.29411e-05
-9.31318e-06
-7.33769e-07
1.35643e-05
-9.09981e-06
-8.09217e-07
1.41125e-05
-8.89642e-06
-8.73197e-07
1.45614e-05
-8.69463e-06
-9.22229e-07
1.48838e-05
-8.48441e-06
-9.52402e-07
1.50502e-05
-8.25377e-06
-9.59065e-07
1.50283e-05
-7.98844e-06
-9.36134e-07
1.47808e-05
-7.67188e-06
-8.74772e-07
1.42621e-05
-7.28602e-06
-7.61042e-07
1.34092e-05
-6.81295e-06
-5.72507e-07
1.21326e-05
-6.23863e-06
-2.78249e-07
1.02939e-05
-5.55904e-06
1.74923e-07
7.74529e-06
-4.7894e-06
8.03648e-07
4.73224e-06
-3.97203e-06
1.23078e-06
2.01733e-06
-3.23888e-06
1.00824e-06
-2.18147e-06
6.31978e-07
-1.3604e-06
-1.89765e-05
1.04374e-06
-2.61438e-06
-1.9576e-05
1.2715e-06
-3.48902e-06
-1.91839e-05
1.11414e-06
-4.04317e-06
-1.85524e-05
9.80566e-07
-4.35657e-06
-1.78051e-05
8.655e-07
-4.48798e-06
-1.70119e-05
7.48768e-07
-4.45939e-06
-1.62069e-05
6.23562e-07
-4.28191e-06
-1.54179e-05
4.89429e-07
-3.96404e-06
-1.4663e-05
3.47717e-07
-3.51269e-06
-1.39523e-05
1.9959e-07
-2.92758e-06
-1.32908e-05
3.99054e-08
-2.24227e-06
-1.26795e-05
-9.54925e-08
-1.46744e-06
-1.21173e-05
-2.29667e-07
-6.12314e-07
-1.16011e-05
-3.63587e-07
3.10497e-07
-1.11271e-05
-4.93147e-07
1.28683e-06
-1.06909e-05
-6.16175e-07
2.30128e-06
-1.02877e-05
-7.30954e-07
3.33715e-06
-9.91213e-06
-8.35804e-07
4.37611e-06
-9.55887e-06
-9.28906e-07
5.39784e-06
-9.22189e-06
-1.00825e-06
6.37983e-06
-8.89455e-06
-1.0717e-06
7.29727e-06
-8.56935e-06
-1.11707e-06
8.12335e-06
-8.23766e-06
-1.14234e-06
8.8298e-06
-7.88951e-06
-1.14573e-06
9.38784e-06
-7.51352e-06
-1.12588e-06
9.76933e-06
-7.09688e-06
-1.08188e-06
9.94828e-06
-6.62571e-06
-1.01313e-06
9.90165e-06
-6.08593e-06
-9.18783e-07
9.60854e-06
-5.46487e-06
-7.96094e-07
9.04385e-06
-4.75434e-06
-6.35714e-07
8.15905e-06
-3.95593e-06
-4.09723e-07
6.85123e-06
-3.09058e-06
-5.95678e-08
4.85554e-06
-2.21181e-06
5.8602e-07
2.25268e-06
-1.44617e-06
1.17521e-06
-4.86081e-07
9.21293e-07
-2.00941e-06
-1.76291e-05
6.6423e-07
-3.27792e-06
-1.82157e-05
-6.35104e-08
-4.39089e-06
-1.79128e-05
-1.22768e-07
-5.46386e-06
-1.73739e-05
-6.83791e-08
-6.49047e-06
-1.67096e-05
-2.99182e-08
-7.44286e-06
-1.5994e-05
-2.41128e-08
-8.29123e-06
-1.52631e-05
-5.068e-08
-9.00686e-06
-1.45432e-05
-1.09601e-07
-9.56567e-06
-1.38516e-05
-1.97179e-07
-9.95025e-06
-1.31976e-05
-3.07912e-07
-1.01497e-05
-1.25852e-05
-4.36388e-07
-1.01592e-05
-1.20146e-05
-5.77643e-07
-9.97922e-06
-1.1484e-05
-7.27097e-07
-9.61479e-06
-1.09902e-05
-8.80431e-07
-9.07526e-06
-1.05293e-05
-1.03351e-06
-8.37369e-06
-1.00972e-05
-1.1823e-06
-7.52655e-06
-9.6895e-06
-1.32289e-06
-6.55359e-06
-9.30164e-06
-1.45137e-06
-5.47761e-06
-8.92881e-06
-1.56389e-06
-4.3245e-06
-8.56573e-06
-1.65665e-06
-3.12301e-06
-8.20646e-06
-1.72592e-06
-1.90451e-06
-7.84426e-06
-1.76819e-06
-7.02588e-07
-7.47138e-06
-1.78028e-06
4.47634e-07
-7.07892e-06
-1.75948e-06
1.51041e-06
-6.65689e-06
-1.70374e-06
2.45055e-06
-6.19437e-06
-1.61178e-06
3.23494e-06
-5.68005e-06
-1.48324e-06
3.83398e-06
-5.10326e-06
-1.31857e-06
4.22293e-06
-4.4558e-06
-1.1186e-06
4.38188e-06
-3.73504e-06
-8.83327e-07
4.28906e-06
-2.94568e-06
-6.08592e-07
3.89626e-06
-2.09914e-06
-2.7851e-07
3.08086e-06
-1.23573e-06
1.67168e-07
1.65383e-06
-4.76136e-07
7.88861e-07
4.17067e-07
1.07532e-06
-1.78467e-06
-1.59109e-05
3.76217e-08
-2.92429e-06
-1.65946e-05
-4.7016e-07
-3.99096e-06
-1.63071e-05
-5.0961e-07
-5.06794e-06
-1.57832e-05
-4.72443e-07
-6.13141e-06
-1.51587e-05
-4.39323e-07
-7.15413e-06
-1.44939e-05
-4.27098e-07
-8.11075e-06
-1.38121e-05
-4.42352e-07
-8.97713e-06
-1.31349e-05
-4.86217e-07
-9.73378e-06
-1.24766e-05
-5.57997e-07
-1.03648e-05
-1.18451e-05
-6.56054e-07
-1.08573e-05
-1.12437e-05
-7.78029e-07
-1.12011e-05
-1.06731e-05
-9.20981e-07
-1.13891e-05
-1.01318e-05
-1.08149e-06
-1.14171e-05
-9.61765e-06
-1.25571e-06
-1.12841e-05
-9.12754e-06
-1.43951e-06
-1.09927e-05
-8.65835e-06
-1.62843e-06
-1.0549e-05
-8.20678e-06
-1.81783e-06
-9.96242e-06
-7.76951e-06
-2.00292e-06
-9.24618e-06
-7.34313e-06
-2.17875e-06
-8.41666e-06
-6.92396e-06
-2.34023e-06
-7.49343e-06
-6.50798e-06
-2.48223e-06
-6.49889e-06
-6.09062e-06
-2.59965e-06
-5.45773e-06
-5.66665e-06
-2.68757e-06
-4.3963e-06
-5.23008e-06
-2.74141e-06
-3.34169e-06
-4.77419e-06
-2.75707e-06
-2.32083e-06
-4.29173e-06
-2.73117e-06
-1.35937e-06
-3.77538e-06
-2.6611e-06
-4.80793e-07
-3.21865e-06
-2.5451e-06
2.9376e-07
-2.61742e-06
-2.38179e-06
9.44186e-07
-1.97281e-06
-2.16893e-06
1.44499e-06
-1.29266e-06
-1.89883e-06
1.74296e-06
-5.8397e-07
-1.54797e-06
1.71527e-06
1.26635e-07
-1.05906e-06
1.12584e-06
7.40615e-07
-3.37546e-07
1.42162e-06
4.32334e-07
-1.14458e-06
-1.45628e-05
-2.05855e-07
-2.17944e-06
-1.50414e-05
-4.79795e-07
-3.05952e-06
-1.46821e-05
-6.87433e-07
-3.82611e-06
-1.41148e-05
-8.30098e-07
-4.50748e-06
-1.34648e-05
-9.34047e-07
-5.11371e-06
-1.27899e-05
-1.01789e-06
-5.64589e-06
-1.21054e-05
-1.09289e-06
-6.10889e-06
-1.14221e-05
-1.16642e-06
-6.50582e-06
-1.07508e-05
-1.24397e-06
-6.8371e-06
-1.00979e-05
-1.32966e-06
-7.10077e-06
-9.46623e-06
-1.42646e-06
-7.29309e-06
-8.8561e-06
-1.53621e-06
-7.40935e-06
-8.26639e-06
-1.65966e-06
-7.44471e-06
-7.69495e-06
-1.7966e-06
-7.39507e-06
-7.13913e-06
-1.94598e-06
-7.25774e-06
-6.596e-06
-2.10599e-06
-7.03208e-06
-6.0626e-06
-2.27426e-06
-6.71981e-06
-5.53598e-06
-2.44797e-06
-6.32526e-06
-5.01322e-06
-2.62394e-06
-5.85545e-06
-4.49139e-06
-2.79872e-06
-5.32e-06
-3.96749e-06
-2.96858e-06
-4.73093e-06
-3.43837e-06
-3.12966e-06
-4.10223e-06
-2.90067e-06
-3.27804e-06
-3.44934e-06
-2.35081e-06
-3.40987e-06
-2.78834e-06
-1.7851e-06
-3.52148e-06
-2.13499e-06
-1.19999e-06
-3.60954e-06
-1.50357e-06
-5.92802e-07
-3.67118e-06
-9.05349e-07
3.72227e-08
-3.70401e-06
-3.53134e-07
6.92995e-07
-3.70593e-06
1.45964e-07
1.36426e-06
-3.67428e-06
5.84285e-07
2.03721e-06
-3.60337e-06
9.57702e-07
2.68699e-06
-3.47532e-06
1.22357e-06
3.26909e-06
-3.22865e-06
1.10582e-06
3.68986e-06
-2.62837e-06
3.90574e-06
-1.1216e-06
-1.17241e-06
-1.30573e-05
-3.06846e-07
-2.0373e-06
-1.35309e-05
-5.76683e-07
-2.59266e-06
-1.31568e-05
-8.81357e-07
-2.93941e-06
-1.25548e-05
-1.11054e-06
-3.13769e-06
-1.18663e-05
-1.28628e-06
-3.22166e-06
-1.11607e-05
-1.4273e-06
-3.20818e-06
-1.04579e-05
-1.54424e-06
-3.11068e-06
-9.75902e-06
-1.64458e-06
-2.94364e-06
-9.06863e-06
-1.73383e-06
-2.71783e-06
-8.3932e-06
-1.81591e-06
-2.44093e-06
-7.73578e-06
-1.8937e-06
-2.11842e-06
-7.09694e-06
-1.96928e-06
-1.75428e-06
-6.47548e-06
-2.0441e-06
-1.35168e-06
-5.8691e-06
-2.11904e-06
-9.1372e-07
-5.27476e-06
-2.19446e-06
-4.44087e-07
-4.68901e-06
-2.27023e-06
5.22989e-08
-4.10815e-06
-2.34573e-06
5.68778e-07
-3.52843e-06
-2.41997e-06
1.09651e-06
-2.94603e-06
-2.49155e-06
1.62424e-06
-2.35725e-06
-2.55878e-06
2.13819e-06
-1.75845e-06
-2.61973e-06
2.62225e-06
-1.14613e-06
-2.67234e-06
3.05841e-06
-5.17054e-07
-2.71458e-06
3.42746e-06
1.31718e-07
-2.74456e-06
3.70986e-06
8.02561e-07
-2.76071e-06
3.88737e-06
1.49644e-06
-2.76172e-06
3.94417e-06
2.21306e-06
-2.74713e-06
3.86781e-06
2.94958e-06
-2.71676e-06
3.65514e-06
3.6993e-06
-2.67042e-06
3.30474e-06
4.44944e-06
-2.60739e-06
2.82163e-06
5.17764e-06
-2.52556e-06
2.21952e-06
5.84542e-06
-2.41987e-06
1.51949e-06
6.38721e-06
-2.27655e-06
7.50822e-07
6.66047e-06
-2.05511e-06
6.37783e-06
-1.57157e-06
-1.12138e-06
-1.14929e-05
-3.87143e-07
-2.01789e-06
-1.17538e-05
-7.88546e-07
-2.49298e-06
-1.13871e-05
-1.18725e-06
-2.64541e-06
-1.08279e-05
-1.45713e-06
-2.56837e-06
-1.01738e-05
-1.64519e-06
-2.33305e-06
-9.48025e-06
-1.78655e-06
-1.98762e-06
-8.77386e-06
-1.89868e-06
-1.56329e-06
-8.06399e-06
-1.98934e-06
-1.0822e-06
-7.35699e-06
-2.0637e-06
-5.61275e-07
-6.66059e-06
-2.12569e-06
-1.38145e-08
-5.97922e-06
-2.17762e-06
5.49397e-07
-5.31463e-06
-2.22077e-06
1.11915e-06
-4.66661e-06
-2.25579e-06
1.6871e-06
-4.03344e-06
-2.28288e-06
2.24525e-06
-3.41237e-06
-2.30207e-06
2.7856e-06
-2.79983e-06
-2.31344e-06
3.29989e-06
-2.19159e-06
-2.31715e-06
3.7791e-06
-1.58276e-06
-2.31355e-06
4.21369e-06
-9.68327e-07
-2.30323e-06
4.59252e-06
-3.42056e-07
-2.28705e-06
4.90675e-06
2.98645e-07
-2.2662e-06
5.14495e-06
9.61523e-07
-2.24226e-06
5.29588e-06
1.65162e-06
-2.21714e-06
5.34959e-06
2.37289e-06
-2.19308e-06
5.29807e-06
3.12823e-06
-2.17246e-06
5.13617e-06
3.9185e-06
-2.15795e-06
4.86258e-06
4.74154e-06
-2.15149e-06
4.48073e-06
5.59096e-06
-2.15424e-06
3.99948e-06
6.45444e-06
-2.16599e-06
3.43396e-06
7.31122e-06
-2.18507e-06
2.80651e-06
8.12818e-06
-2.20802e-06
2.14828e-06
8.85233e-06
-2.22933e-06
1.49882e-06
9.39762e-06
-2.23721e-06
8.73764e-07
9.59643e-06
-2.18304e-06
8.99452e-06
-1.61373e-06
-7.75758e-07
-9.82581e-06
-8.46092e-07
-1.10981e-06
-1.00765e-05
-1.26238e-06
-1.10957e-06
-9.73661e-06
-1.5578e-06
-8.75762e-07
-9.20005e-06
-1.7632e-06
-4.66451e-07
-8.55934e-06
-1.92398e-06
7.14185e-08
-7.86032e-06
-2.059e-06
7.02944e-07
-7.13042e-06
-2.17727e-06
1.40696e-06
-6.38836e-06
-2.28294e-06
2.16947e-06
-5.6463e-06
-2.37735e-06
2.97673e-06
-4.9116e-06
-2.4611e-06
3.815e-06
-4.18849e-06
-2.53445e-06
4.67073e-06
-3.47899e-06
-2.59732e-06
5.53047e-06
-2.78359e-06
-2.64911e-06
6.38063e-06
-2.10161e-06
-2.68868e-06
7.20761e-06
-1.43142e-06
-2.71487e-06
7.99842e-06
-7.70969e-07
-2.72678e-06
8.74802e-06
-1.24483e-07
-2.72392e-06
9.42307e-06
5.4104e-07
-2.70606e-06
1.00193e-05
1.20152e-06
-2.67321e-06
1.05243e-05
1.8715e-06
-2.62557e-06
1.09218e-05
2.55811e-06
-2.56357e-06
1.11965e-05
3.26849e-06
-2.48794e-06
1.13327e-05
4.00957e-06
-2.39988e-06
1.13144e-05
4.78746e-06
-2.30123e-06
1.11265e-05
5.60662e-06
-2.19453e-06
1.07565e-05
6.46863e-06
-2.08305e-06
1.01963e-05
7.37089e-06
-1.97051e-06
9.44408e-06
8.30487e-06
-1.86131e-06
8.50625e-06
9.25403e-06
-1.75929e-06
7.39755e-06
1.01908e-05
-1.66597e-06
6.14023e-06
1.10718e-05
-1.57864e-06
4.76149e-06
1.18297e-05
-1.48776e-06
3.28442e-06
1.23595e-05
-1.37036e-06
1.68665e-06
1.24784e-05
-1.16547e-06
1.15726e-05
-7.68283e-07
3.06416e-07
-9.68186e-06
-4.36919e-07
6.95789e-07
-9.73778e-06
-6.86752e-07
1.12027e-06
-9.3203e-06
-7.91814e-07
1.54617e-06
-8.71654e-06
-8.58569e-07
1.95767e-06
-7.99493e-06
-9.2356e-07
2.357e-06
-7.20968e-06
-9.96714e-07
2.75747e-06
-6.39328e-06
-1.08389e-06
3.17651e-06
-5.56587e-06
-1.18757e-06
3.63173e-06
-4.74027e-06
-1.30702e-06
4.13763e-06
-3.92409e-06
-1.43878e-06
4.70351e-06
-3.12132e-06
-1.57777e-06
5.33251e-06
-2.33345e-06
-1.71837e-06
6.02153e-06
-1.5602e-06
-1.85512e-06
6.76168e-06
-8.00188e-07
-1.9829e-06
7.54153e-06
-5.39064e-08
-2.0971e-06
8.33596e-06
6.9021e-07
-2.19353e-06
9.11687e-06
1.42701e-06
-2.26833e-06
9.87856e-06
2.16355e-06
-2.31794e-06
1.05836e-05
2.90433e-06
-2.33933e-06
1.12014e-05
3.65473e-06
-2.32997e-06
1.17003e-05
4.42074e-06
-2.28803e-06
1.20489e-05
5.2088e-06
-2.21289e-06
1.22173e-05
6.02537e-06
-2.10567e-06
1.21791e-05
6.87628e-06
-1.96992e-06
1.19148e-05
7.76571e-06
-1.81193e-06
1.14139e-05
8.6948e-06
-1.64064e-06
1.06774e-05
9.65999e-06
-1.46671e-06
9.7191e-06
1.06508e-05
-1.30086e-06
8.56501e-06
1.16474e-05
-1.15176e-06
7.25144e-06
1.26168e-05
-1.02427e-06
5.82288e-06
1.35078e-05
-9.18537e-07
4.32977e-06
1.42431e-05
-8.30235e-07
2.82607e-06
1.4706e-05
-7.5076e-07
1.35598e-06
1.46988e-05
-6.55314e-07
1.34418e-05
-4.15095e-07
3.66617e-07
-1.03618e-05
3.12939e-07
1.53147e-06
-1.04335e-05
-4.17484e-07
2.79278e-06
-9.91732e-06
-5.98788e-07
3.91993e-06
-9.18903e-06
-5.90028e-07
4.85841e-06
-8.35888e-06
-5.15502e-07
5.60442e-06
-7.48492e-06
-4.16785e-07
6.16208e-06
-6.58511e-06
-3.17261e-07
6.54526e-06
-5.67214e-06
-2.33675e-07
6.78258e-06
-4.76187e-06
-1.77296e-07
6.9108e-06
-3.86332e-06
-1.54578e-07
6.96968e-06
-2.98051e-06
-1.68346e-07
6.99875e-06
-2.11407e-06
-2.19155e-07
7.0333e-06
-1.26171e-06
-3.0477e-07
7.09757e-06
-4.16853e-07
-4.19372e-07
7.21442e-06
4.12888e-07
-5.54514e-07
7.39464e-06
1.24149e-06
-7.00601e-07
7.63056e-06
2.07249e-06
-8.47952e-07
7.90881e-06
2.9094e-06
-9.87345e-07
8.20785e-06
3.75639e-06
-1.11035e-06
8.49975e-06
4.61776e-06
-1.2095e-06
8.75194e-06
5.49796e-06
-1.27866e-06
8.92935e-06
6.40151e-06
-1.31346e-06
8.99699e-06
7.33276e-06
-1.31196e-06
8.92301e-06
8.29527e-06
-1.27513e-06
8.6818e-06
9.29095e-06
-1.20719e-06
8.25713e-06
1.03187e-05
-1.11542e-06
7.64442e-06
1.13726e-05
-1.00952e-06
6.85214e-06
1.24397e-05
-9.00288e-07
5.90172e-06
1.34971e-05
-7.97924e-07
4.82671e-06
1.45074e-05
-7.10421e-07
3.67201e-06
1.54136e-05
-6.43026e-07
2.49549e-06
1.61306e-05
-6.00656e-07
1.38047e-06
1.65322e-05
-5.98728e-07
4.80629e-07
1.64061e-05
-6.92022e-07
1.48119e-05
-7.70928e-07
1.04821e-06
-1.03037e-05
-1.12119e-06
3.08024e-06
-1.03634e-05
-2.05654e-06
4.94738e-06
-9.78388e-06
-1.93372e-06
6.51102e-06
-9.00914e-06
-1.66674e-06
7.78114e-06
-8.17443e-06
-1.37374e-06
8.77196e-06
-7.32279e-06
-1.07736e-06
9.49577e-06
-6.45326e-06
-7.90855e-07
9.97349e-06
-5.56874e-06
-5.26174e-07
1.02322e-05
-4.6802e-06
-2.94284e-07
1.03041e-05
-3.79382e-06
-1.03225e-07
1.02267e-05
-2.91217e-06
4.04673e-08
1.0048e-05
-2.03549e-06
1.25597e-07
9.80522e-06
-1.1627e-06
1.64553e-07
9.54405e-06
-2.97156e-07
1.58807e-07
9.2691e-06
5.88731e-07
1.14224e-07
9.01135e-06
1.47503e-06
3.83877e-08
8.78724e-06
2.37158e-06
-6.04457e-08
8.603e-06
3.28339e-06
-1.73582e-07
8.45704e-06
4.21467e-06
-2.93247e-07
8.3409e-06
5.16922e-06
-4.12109e-07
8.24031e-06
6.15052e-06
-5.23364e-07
8.13634e-06
7.16165e-06
-6.2091e-07
8.00718e-06
8.20458e-06
-6.99552e-07
7.83024e-06
9.27962e-06
-7.55322e-07
7.58458e-06
1.03845e-05
-7.85792e-07
7.25351e-06
1.15129e-05
-7.9033e-07
6.82777e-06
1.26526e-05
-7.70202e-07
6.29182e-06
1.37996e-05
-7.28464e-07
5.62156e-06
1.49429e-05
-6.68914e-07
4.80777e-06
1.60346e-05
-5.96041e-07
3.87075e-06
1.69926e-05
-5.14597e-07
2.85743e-06
1.77096e-05
-4.29287e-07
1.81643e-06
1.80633e-05
-3.46181e-07
7.98046e-07
1.78625e-05
-2.89519e-07
1.6064e-05
-3.08635e-07
8.63052e-07
-9.07748e-06
-2.07417e-06
1.91011e-06
-8.67299e-06
-2.69069e-06
2.9908e-06
-8.02094e-06
-2.78131e-06
4.11086e-06
-7.30356e-06
-2.75222e-06
5.24789e-06
-6.57392e-06
-2.65787e-06
6.36644e-06
-5.84916e-06
-2.51422e-06
7.43835e-06
-5.12325e-06
-2.33037e-06
8.44458e-06
-4.39462e-06
-2.11531e-06
9.36665e-06
-3.66447e-06
-1.87971e-06
1.01898e-05
-2.93182e-06
-1.63446e-06
1.09046e-05
-2.19416e-06
-1.38968e-06
1.1506e-05
-1.4474e-06
-1.15405e-06
1.19918e-05
-6.86373e-07
-9.34134e-07
1.23603e-05
8.97012e-08
-7.34228e-07
1.26527e-05
8.67647e-07
-5.56406e-07
1.28604e-05
1.67805e-06
-4.01049e-07
1.29877e-05
2.51691e-06
-2.671e-07
1.3038e-05
3.38802e-06
-1.52151e-07
1.3011e-05
4.29577e-06
-5.24436e-08
1.29093e-05
5.24454e-06
2.8811e-08
1.27397e-05
6.2381e-06
8.71887e-08
1.24923e-05
7.27895e-06
1.40476e-07
1.21588e-05
8.36767e-06
1.88429e-07
1.17321e-05
9.50179e-06
2.32797e-07
1.12081e-05
1.06738e-05
2.75811e-07
1.05892e-05
1.18686e-05
3.19843e-07
9.87751e-06
1.30709e-05
3.67228e-07
9.05626e-06
1.42946e-05
4.19434e-07
8.08915e-06
1.55458e-05
4.78195e-07
6.94325e-06
1.6767e-05
5.47613e-07
5.60931e-06
1.78445e-05
6.32727e-07
4.11255e-06
1.86335e-05
7.36822e-07
2.50039e-06
1.8995e-05
8.57055e-07
8.69966e-07
1.87291e-05
9.43288e-07
1.65459e-05
5.37543e-07
-1.37962e-06
-5.68943e-06
-2.03978e-06
-1.54653e-06
-5.28751e-06
-3.19982e-06
-1.10167e-06
-4.70882e-06
-3.71425e-06
-2.86283e-07
-4.07404e-06
-3.98692e-06
7.93635e-07
-3.44129e-06
-4.14556e-06
2.06611e-06
-2.82488e-06
-4.22822e-06
3.48401e-06
-2.22936e-06
-4.24567e-06
5.00991e-06
-1.6554e-06
-4.20139e-06
6.60613e-06
-1.10155e-06
-4.09832e-06
8.23752e-06
-5.656e-07
-3.94047e-06
9.88616e-06
-5.69372e-08
-3.73321e-06
1.14596e-05
5.09474e-07
-3.48302e-06
1.29599e-05
1.05181e-06
-3.1971e-06
1.43622e-05
1.60526e-06
-2.88303e-06
1.56275e-05
2.17823e-06
-2.548e-06
1.67464e-05
2.77863e-06
-2.19871e-06
1.77039e-05
3.41408e-06
-1.84089e-06
1.84873e-05
4.09222e-06
-1.4805e-06
1.90856e-05
4.82081e-06
-1.12227e-06
1.94889e-05
5.60743e-06
-7.70112e-07
1.96876e-05
6.45917e-06
-4.27301e-07
1.96697e-05
7.38206e-06
-9.43348e-08
1.94356e-05
8.38007e-06
2.13503e-07
1.89788e-05
9.45321e-06
5.00736e-07
1.82907e-05
1.05954e-05
7.68725e-07
1.73661e-05
1.17913e-05
1.01397e-06
1.62038e-05
1.30235e-05
1.2359e-06
1.4818e-05
1.42922e-05
1.43408e-06
1.32169e-05
1.56111e-05
1.60672e-06
1.13792e-05
1.69489e-05
1.75587e-06
9.27818e-06
1.81842e-05
1.88981e-06
6.91093e-06
1.91311e-05
2.0199e-06
4.32452e-06
1.95958e-05
2.14607e-06
1.68257e-06
1.93758e-05
2.15575e-06
1.71566e-05
1.21225e-06
-1.62086e-06
-3.0186e-06
-1.08816e-06
-2.81966e-06
-1.98733e-06
-2.08602e-06
-3.54158e-06
-1.17605e-06
-2.77042e-06
-3.90501e-06
-4.24659e-07
-3.23627e-06
-3.91757e-06
2.31766e-07
-3.6102e-06
-3.60583e-06
8.47644e-07
-3.93372e-06
-2.99645e-06
1.42631e-06
-4.21472e-06
-2.10813e-06
1.95829e-06
-4.45235e-06
-9.63482e-07
2.44472e-06
-4.64239e-06
4.07025e-07
2.89008e-06
-4.77926e-06
1.95172e-06
3.30063e-06
-4.85736e-06
3.69148e-06
3.68425e-06
-4.87216e-06
5.55507e-06
4.04829e-06
-4.82073e-06
7.49632e-06
4.40136e-06
-4.70155e-06
9.46812e-06
4.75269e-06
-4.51453e-06
1.14218e-05
5.11211e-06
-4.26004e-06
1.33064e-05
5.49024e-06
-3.93882e-06
1.50711e-05
5.8985e-06
-3.55457e-06
1.66662e-05
6.34911e-06
-3.11311e-06
1.80441e-05
6.85629e-06
-2.62252e-06
1.91595e-05
7.43469e-06
-2.09291e-06
1.99712e-05
8.09853e-06
-1.53599e-06
2.04424e-05
8.86043e-06
-9.6456e-07
2.05413e-05
9.72956e-06
-3.9222e-07
2.02427e-05
1.07093e-05
1.65314e-07
1.95202e-05
1.17942e-05
6.99806e-07
1.83646e-05
1.29669e-05
1.19426e-06
1.67974e-05
1.42044e-05
1.64197e-06
1.48658e-05
1.55035e-05
2.03712e-06
1.26098e-05
1.68478e-05
2.37292e-06
1.00536e-05
1.81315e-05
2.64956e-06
7.21891e-06
1.91588e-05
2.87512e-06
4.17977e-06
1.97007e-05
3.02755e-06
1.31886e-06
1.94991e-05
2.8542e-06
1.71332e-05
1.48629e-06
-1.76194e-06
5.72842e-07
-1.85632e-06
-3.13716e-06
2.27233e-06
-2.85505e-06
-4.16013e-06
3.18988e-06
-3.29129e-06
-4.90361e-06
3.95503e-06
-3.57158e-06
-5.45127e-06
4.65596e-06
-3.8096e-06
-5.80501e-06
5.29945e-06
-4.03441e-06
-5.94536e-06
5.88444e-06
-4.25664e-06
-5.85929e-06
6.41072e-06
-4.47965e-06
-5.53805e-06
6.88173e-06
-4.70176e-06
-4.9788e-06
7.30251e-06
-4.91773e-06
-4.18462e-06
7.67886e-06
-5.12118e-06
-3.16293e-06
8.01696e-06
-5.3061e-06
-1.92583e-06
8.32329e-06
-5.46688e-06
-4.89474e-07
8.60454e-06
-5.59753e-06
1.12562e-06
8.86763e-06
-5.69135e-06
2.89367e-06
9.11982e-06
-5.74048e-06
4.78169e-06
9.36888e-06
-5.73489e-06
6.7476e-06
9.62332e-06
-5.66255e-06
8.73806e-06
9.89345e-06
-5.51039e-06
1.06882e-05
1.01924e-05
-5.26582e-06
1.25246e-05
1.05339e-05
-4.91958e-06
1.41691e-05
1.09339e-05
-4.46889e-06
1.55461e-05
1.14081e-05
-3.91922e-06
1.65868e-05
1.19717e-05
-3.28378e-06
1.72314e-05
1.26383e-05
-2.58135e-06
1.74264e-05
1.34182e-05
-1.83392e-06
1.71229e-05
1.43137e-05
-1.06525e-06
1.6285e-05
1.53144e-05
-3.01e-07
1.49145e-05
1.63982e-05
4.40977e-07
1.30551e-05
1.75211e-05
1.14947e-06
1.07777e-05
1.85815e-05
1.79735e-06
8.12509e-06
1.94214e-05
2.37839e-06
5.1123e-06
1.98521e-05
2.87915e-06
1.96363e-06
1.96219e-05
3.082e-06
1.73223e-05
1.89736e-06
-2.32804e-06
3.38638e-06
-4.79506e-07
-4.98822e-06
5.7297e-06
-7.60987e-07
-7.10241e-06
6.82534e-06
-1.47156e-06
-8.72095e-06
7.65032e-06
-2.02052e-06
-9.93216e-06
8.39419e-06
-2.46907e-06
-1.07807e-05
9.06455e-06
-2.85734e-06
-1.12979e-05
9.66473e-06
-3.20338e-06
-1.15118e-05
1.0202e-05
-3.51777e-06
-1.14485e-05
1.0685e-05
-3.80769e-06
-1.11327e-05
1.11225e-05
-4.07837e-06
-1.05878e-05
1.15229e-05
-4.33348e-06
-9.83592e-06
1.18937e-05
-4.57546e-06
-8.89809e-06
1.22417e-05
-4.8058e-06
-7.79381e-06
1.2573e-05
-5.02518e-06
-6.54106e-06
1.28927e-05
-5.23342e-06
-5.15595e-06
1.32057e-05
-5.4298e-06
-3.65255e-06
1.35161e-05