/*--------------------------------*- C++ -*----------------------------------*\
| =========                 |                                                 |
| \\      /  F ield         | OpenFOAM: The Open Source CFD Toolbox           |
|  \\    /   O peration     | Version:  v2006                                 |
|   \\  /    A nd           | Website:  www.openfoam.com                      |
|    \\/     M anipulation  |                                                 |
\*---------------------------------------------------------------------------*/
FoamFile
{
    version     2.0;
    format      ascii;
    class       volScalarField;
    location    "74";
    object      T;
}
// * * * * * * * * * * * * * * * * * * * * * * * * * * * * * * * * * * * * * //

dimensions      [0 0 0 1 0 0 0];


internalField   nonuniform List<scalar> 
78750
(
184.302
260.057
310.762
282.674
275.857
271.227
265.637
263.44
262.673
262.764
263.071
263.405
263.546
263.447
263.206
262.924
262.5
261.613
260.075
257.876
255.319
253.807
253.36
251.656
246.958
242.03
243.677
253.625
276.792
266.091
243.574
235.693
234.549
237.146
290.67
307.809
344.572
341.278
342.157
339.264
335.617
329.438
322.808
317.777
314.1
311.042
308.133
305.228
302.094
298.472
294.446
290.424
286.204
280.194
269.54
257.225
251.895
251.217
251.726
252.688
253.677
254.123
254.115
254.531
257.23
261.189
265.85
272.814
289.91
340.265
299.491
288.212
296.887
300.007
301.531
302.34
302.451
301.75
300.538
299.099
297.589
296.109
294.7
293.35
292.022
290.712
289.439
288.264
287.353
286.941
287.202
287.833
288.418
288.868
289.133
289.152
288.936
288.665
288.583
288.521
288.836
290.179
293.574
303.377
345.478
308.08
316.713
317.554
318.119
318.783
319.463
319.914
319.983
319.655
318.97
317.996
316.824
315.559
314.284
312.977
311.584
310.119
308.609
307.013
305.246
303.294
301.222
299.163
297.25
295.588
294.298
293.525
293.449
294.253
296.069
298.903
302.697
307.513
315.654
342.314
298.592
302.944
309.116
313.564
316.662
318.902
320.507
321.624
322.361
322.821
323.062
323.108
322.985
322.719
322.337
321.853
321.274
320.606
319.856
319.013
318.06
316.978
315.752
314.38
312.84
311.127
309.335
307.642
306.318
305.705
306.174
308.058
311.491
317.111
333.102
317.891
324.104
325.921
326.358
326.253
326.054
325.871
325.702
325.546
325.397
325.239
325.057
324.839
324.571
324.242
323.841
323.357
322.783
322.109
321.331
320.449
319.469
318.406
317.29
316.167
315.103
314.19
313.546
313.332
313.751
315.042
317.486
321.411
327.254
341.775
311.457
314.478
316.047
317.473
318.795
319.953
320.917
321.714
322.374
322.908
323.328
323.643
323.863
323.993
324.037
323.996
323.87
323.657
323.354
322.956
322.46
321.865
321.174
320.397
319.557
318.694
317.87
317.184
316.78
316.856
317.674
319.572
322.955
328.297
342.002
311.304
314.526
316.068
317.325
318.354
319.245
320.05
320.77
321.398
321.936
322.384
322.747
323.027
323.231
323.363
323.425
323.421
323.353
323.222
323.03
322.778
322.473
322.121
321.736
321.339
320.963
320.656
320.487
320.556
321.006
322.037
323.942
327.158
332.303
345.79
311.06
313.955
315.361
316.546
317.576
318.505
319.353
320.116
320.791
321.38
321.885
322.309
322.657
322.935
323.145
323.294
323.383
323.418
323.402
323.339
323.235
323.097
322.936
322.769
322.62
322.523
322.526
322.697
323.126
323.938
325.299
327.439
330.69
335.619
348.609
311.464
314.125
315.446
316.616
317.689
318.674
319.577
320.399
321.145
321.816
322.415
322.946
323.41
323.812
324.155
324.442
324.676
324.861
325.003
325.105
325.175
325.222
325.259
325.303
325.379
325.521
325.777
326.21
326.907
327.983
329.596
331.96
335.381
340.355
353.001
311.067
313.948
315.373
316.599
317.69
318.696
319.649
320.551
321.403
322.207
322.963
323.675
324.342
324.966
325.55
326.094
326.601
327.073
327.515
327.93
328.326
328.711
329.096
329.496
329.934
330.437
331.044
331.807
332.797
334.107
335.877
338.353
341.886
347.09
360.36
310.506
313.503
315.006
316.283
317.412
318.453
319.434
320.363
321.245
322.086
322.893
323.67
324.421
325.148
325.855
326.544
327.218
327.88
328.535
329.188
329.846
330.519
331.219
331.962
332.771
333.673
334.705
335.914
337.361
339.127
341.313
344.091
347.771
353.075
366.254
310.536
313.809
315.438
316.788
317.932
318.934
319.854
320.718
321.531
322.301
323.035
323.74
324.423
325.091
325.749
326.402
327.055
327.714
328.385
329.075
329.791
330.546
331.352
332.226
333.191
334.274
335.514
336.958
338.667
340.724
343.236
346.353
350.29
355.383
366.849
311.281
314.832
316.592
318.043
319.259
320.29
321.188
322.001
322.752
323.449
324.1
324.715
325.302
325.87
326.428
326.983
327.546
328.124
328.727
329.367
330.054
330.804
331.632
332.558
333.605
334.801
336.18
337.786
339.674
341.916
344.605
347.874
351.914
357.024
368.32
313.135
316.702
318.444
319.885
321.122
322.219
323.2
324.077
324.862
325.566
326.201
326.776
327.302
327.789
328.246
328.684
329.113
329.543
329.988
330.459
330.974
331.549
332.205
332.966
333.86
334.92
336.186
337.703
339.53
341.736
344.411
347.674
351.695
356.73
367.777
314.066
317.571
319.278
320.736
322.012
323.14
324.146
325.048
325.86
326.592
327.252
327.848
328.386
328.875
329.323
329.737
330.129
330.509
330.891
331.288
331.719
332.204
332.769
333.442
334.258
335.256
336.482
337.987
339.83
342.081
344.825
348.17
352.268
357.34
368.309
314.985
318.799
320.579
322.032
323.278
324.362
325.318
326.171
326.938
327.633
328.264
328.838
329.361
329.837
330.272
330.67
331.04
331.392
331.736
332.089
332.468
332.896
333.4
334.012
334.77
335.719
336.91
338.399
340.252
342.54
345.344
348.766
352.934
358.042
368.921
316.229
321.095
323.235
324.805
326.004
326.966
327.788
328.516
329.163
329.741
330.26
330.728
331.15
331.531
331.875
332.188
332.475
332.746
333.012
333.287
333.59
333.944
334.373
334.911
335.595
336.466
337.573
338.97
340.719
342.889
345.566
348.853
352.875
357.841
368.541
317.79
323.05
325.39
327.125
328.472
329.569
330.503
331.305
331.991
332.578
333.077
333.5
333.855
334.15
334.392
334.586
334.741
334.866
334.97
335.069
335.18
335.326
335.535
335.84
336.281
336.9
337.749
338.905
340.481
342.557
345.162
348.278
352.021
356.934
368.301
319.143
324.714
327.225
329.128
330.651
331.915
332.994
333.922
334.716
335.391
335.962
336.439
336.83
337.143
337.384
337.557
337.668
337.723
337.728
337.693
337.632
337.563
337.509
337.503
337.582
337.791
338.186
338.855
339.935
341.567
343.856
346.835
350.535
355.591
367.99
319.157
324.741
327.346
329.397
331.151
332.694
334.044
335.221
336.246
337.135
337.904
338.564
339.124
339.592
339.972
340.267
340.48
340.614
340.67
340.654
340.573
340.439
340.271
340.094
339.944
339.868
339.923
340.181
340.759
341.851
343.663
346.343
349.986
355.189
368.107
318.806
325.09
327.854
329.907
331.635
333.168
334.542
335.766
336.854
337.818
338.673
339.429
340.096
340.682
341.191
341.627
341.993
342.29
342.519
342.683
342.785
342.832
342.835
342.81
342.783
342.792
342.887
343.141
343.647
344.545
346.016
348.221
351.314
355.875
367.615
318.436
324.819
327.466
329.471
331.296
332.957
334.457
335.805
337.012
338.09
339.052
339.909
340.672
341.349
341.946
342.47
342.923
343.308
343.631
343.898
344.111
344.279
344.416
344.545
344.695
344.904
345.221
345.709
346.449
347.532
349.038
351.069
353.806
357.938
369.049
318.796
325.197
327.75
329.663
331.44
333.079
334.583
335.957
337.205
338.336
339.357
340.277
341.104
341.844
342.504
343.088
343.6
344.044
344.423
344.74
345.003
345.22
345.398
345.552
345.709
345.91
346.21
346.68
347.407
348.485
350.021
352.128
354.972
359.303
371.092
318.711
325.759
328.394
330.253
331.953
333.541
335.012
336.366
337.609
338.746
339.783
340.73
341.591
342.374
343.085
343.726
344.303
344.818
345.273
345.67
346.012
346.308
346.567
346.796
347.011
347.241
347.536
347.971
348.651
349.7
351.246
353.397
356.288
360.753
373.024
318.56
325.778
328.365
330.198
331.923
333.538
335.034
336.41
337.671
338.821
339.871
340.827
341.7
342.498
343.226
343.893
344.502
345.06
345.571
346.038
346.467
346.873
347.268
347.66
348.063
348.499
349.002
349.626
350.448
351.572
353.129
355.278
358.248
363.088
376.633
317.037
324.918
327.774
329.676
331.403
333.052
334.605
336.05
337.385
338.61
339.73
340.749
341.675
342.515
343.275
343.961
344.579
345.133
345.627
346.067
346.463
346.83
347.18
347.527
347.891
348.303
348.806
349.462
350.352
351.583
353.294
355.671
359.003
364.43
378.945
316.289
324.34
327.298
329.247
331.017
332.74
334.39
335.949
337.408
338.763
340.014
341.165
342.22
343.183
344.06
344.853
345.568
346.205
346.768
347.257
347.675
348.035
348.35
348.626
348.876
349.127
349.429
349.856
350.514
351.545
353.124
355.461
358.846
364.485
379.564
316.352
324.45
327.206
328.918
330.461
332.01
333.542
335.041
336.492
337.885
339.215
340.477
341.67
342.796
343.855
344.85
345.782
346.653
347.463
348.212
348.9
349.537
350.141
350.723
351.29
351.86
352.469
353.174
354.062
355.247
356.87
359.081
362.112
367.339
382.476
319.069
326.904
329.433
330.92
332.124
333.248
334.358
335.453
336.53
337.584
338.614
339.615
340.586
341.527
342.436
343.313
344.157
344.969
345.748
346.5
347.232
347.943
348.634
349.312
349.986
350.674
351.412
352.256
353.291
354.622
356.368
358.655
361.683
366.651
380.565
320.259
328.722
331.965
334.104
335.825
337.252
338.45
339.479
340.399
341.249
342.039
342.782
343.482
344.148
344.782
345.387
345.967
346.52
347.053
347.571
348.072
348.549
348.996
349.41
349.789
350.137
350.476
350.853
351.362
352.152
353.424
355.415
358.438
363.848
379.288
319.408
328.687
332.32
334.801
336.973
338.904
340.607
342.109
343.439
344.623
345.688
346.656
347.546
348.372
349.146
349.878
350.577
351.249
351.902
352.538
353.159
353.765
354.353
354.922
355.467
355.987
356.49
357.003
357.59
358.373
359.535
361.304
364.022
369.293
385.113
317.989
327.325
330.494
332.414
334.062
335.616
337.094
338.497
339.822
341.067
342.233
343.323
344.343
345.304
346.213
347.082
347.919
348.732
349.529
350.315
351.093
351.865
352.635
353.405
354.176
354.95
355.733
356.541
357.413
358.436
359.764
361.633
364.383
369.331
383.31
321.379
330.303
333.288
335.127
336.616
337.878
338.974
339.953
340.855
341.712
342.541
343.347
344.134
344.907
345.669
346.421
347.165
347.902
348.63
349.354
350.084
350.826
351.584
352.362
353.168
354.013
354.915
355.897
357.001
358.303
359.938
362.131
365.276
371.116
387.477
316.997
328.649
333.08
335.836
338.294
340.615
342.738
344.636
346.314
347.789
349.093
350.257
351.31
352.275
353.173
354.017
354.823
355.602
356.367
357.131
357.908
358.71
359.547
360.431
361.37
362.38
363.489
364.729
366.144
367.783
369.689
371.912
374.69
379.476
392.145
316.881
326.464
330.161
332.344
334.076
335.616
337.02
338.31
339.521
340.679
341.779
342.814
343.786
344.703
345.574
346.411
347.225
348.025
348.822
349.623
350.438
351.273
352.137
353.057
354.068
355.195
356.46
357.897
359.558
361.521
363.89
366.754
370.203
375.431
388.846
320.14
330.427
334.027
335.895
337.394
338.829
340.153
341.339
342.383
343.299
344.108
344.83
345.487
346.098
346.681
347.257
347.843
348.462
349.131
349.868
350.688
351.604
352.63
353.783
355.076
356.527
358.187
360.135
362.413
365.074
368.204
371.935
376.639
383.751
396.979
312.434
326.72
331.584
334.203
336.391
338.461
340.449
342.379
344.244
346.014
347.668
349.205
350.643
352.007
353.32
354.597
355.848
357.077
358.286
359.477
360.661
361.852
363.06
364.289
365.564
366.909
368.34
369.868
371.5
373.26
375.245
377.607
380.591
385.357
397.123
312.194
323.169
333.324
336.348
337.441
338.092
338.608
339.114
339.681
340.333
341.055
341.826
342.623
343.429
344.232
345.024
345.806
346.579
347.349
348.125
348.918
349.742
350.615
351.562
352.616
353.829
355.263
356.996
359.213
362.176
365.866
370.166
376.579
389.153
403.815
322.908
328.432
332.828
340.691
344.801
347.424
349.776
351.799
353.365
354.55
355.511
356.355
357.143
357.915
358.694
359.488
360.297
361.123
361.97
362.852
363.793
364.823
365.983
367.309
368.838
370.593
372.612
374.94
377.601
380.628
384.068
387.751
391.522
395.387
400.606
329.341
338.729
336.128
335.588
337.643
340.412
342.838
344.823
346.632
348.367
350.008
351.54
352.972
354.329
355.641
356.932
358.219
359.507
360.793
362.066
363.311
364.51
365.649
366.725
367.742
368.712
369.65
370.57
371.483
372.407
373.383
374.464
375.362
375.688
386.366
331.53
344.237
344.55
342.845
342.479
343.112
344.136
345.28
346.467
347.673
348.873
350.044
351.167
352.231
353.232
354.169
355.048
355.878
356.67
357.441
358.214
359.017
359.89
360.877
362.03
363.396
365.026
366.961
369.227
371.798
374.554
377.189
379.012
379.091
386.502
329.181
339.439
341.712
343.106
343.951
344.639
345.295
345.955
346.631
347.329
348.059
348.827
349.647
350.532
351.499
352.563
353.738
355.029
356.434
357.94
359.519
361.134
362.741
364.29
365.708
366.878
367.616
367.683
366.925
365.331
363.028
360.229
357.392
356.724
372.274
316.837
318.255
317.69
317.282
317.35
317.808
318.518
319.333
320.142
320.891
321.561
322.151
322.667
323.124
323.539
323.939
324.354
324.816
325.361
326.002
326.723
327.49
328.248
328.949
329.497
329.827
329.79
329.365
328.418
327.077
325.076
322.758
320.771
316.312
341.651
308.929
310.887
312.159
314.186
316.792
319.666
322.629
325.519
328.268
330.834
333.139
335.149
336.892
338.354
339.541
340.424
341.037
341.481
341.641
341.539
341.285
340.94
340.709
340.455
340.411
340.208
340.309
339.912
340.278
338.951
340.701
336.452
345.007
341.182
345.413
309.787
319.997
327.527
333.693
338.964
343.528
347.669
351.422
354.87
358.205
361.072
363.389
365.3
366.876
368.114
368.969
369.542
369.984
370.125
369.708
368.47
366.542
364.383
362.342
360.582
359.026
357.809
356.569
355.792
354.245
354.458
348.234
344.891
332.595
351.746
316.914
332.221
340.886
346.354
350.412
353.966
357.581
361.375
365.357
369.356
370.258
368.22
366.073
364.535
363.447
362.668
362.103
361.679
361.324
360.958
360.545
360.11
359.704
359.372
359.158
359.039
358.962
358.835
358.552
357.334
355.269
352.223
350.937
348.1
363.312
318.754
334.383
341.778
346.601
351.002
355.778
361.243
366.75
369.611
369.188
367.881
366.648
365.559
364.598
363.734
362.935
362.177
361.438
360.697
359.939
359.166
358.391
357.638
356.933
356.286
356.222
356.566
356.922
357.082
357.181
358.066
359.774
361.133
352.575
368.595
320.137
336.621
343.943
348.699
353.309
358.604
364.166
368.952
372.062
371.763
369.498
367.467
366.065
365.035
364.176
363.396
362.655
361.93
361.203
360.461
359.686
358.847
357.913
357.046
356.877
354.96
353.183
352.769
353.394
354.672
355.078
351.418
346.537
344.539
367.877
320.708
337.327
344.476
349.307
354.254
360.057
366.174
370.728
372.442
371.24
368.792
366.917
365.719
364.85
364.104
363.388
362.661
361.915
361.163
360.416
359.675
358.913
358.1
357.14
354.717
346.946
349.009
352.693
353.74
352.186
347.297
345.663
348.059
355.216
378.905
321.01
337.727
344.766
349.556
354.554
360.365
366.57
371.862
374.586
373.82
370.647
367.983
366.485
365.561
364.797
364.022
363.2
362.325
361.398
360.427
359.422
358.399
357.1
354.422
347.393
338.803
342.493
349.608
351.377
350.229
348.507
350.918
356.789
368.601
390.446
320.863
337.862
345.017
349.915
355.089
360.902
366.626
371.78
375.28
375.4
372.315
369.11
367.382
366.446
365.755
365.071
364.304
363.442
362.483
361.434
360.302
359.093
357.595
355.014
349.653
341.48
336.97
339.403
342.32
344.342
345.722
348.87
355.672
367.098
385.663
321.912
338.932
346.056
351.172
356.925
363.416
369.005
372.756
375.188
376.257
374.74
371.196
368.664
367.493
366.836
366.299
365.726
365.059
364.283
363.394
362.399
361.315
360.113
358.611
356.331
352.443
347.087
343.093
341.702
343.825
348.183
353.01
358.034
363.528
374.887
320.794
337.863
345.178
350.349
356.013
362.309
368.402
373.484
376.777
378.171
377.514
374.4
370.667
368.679
367.844
367.369
366.953
366.486
365.932
365.272
364.494
363.592
362.565
361.42
360.085
358.277
355.444
351.067
345.408
340.623
340.431
343.706
347.587
353.201
371.381
323.063
340.561
347.894
353.512
360.289
367.082
371.583
374.298
376.403
377.951
378.323
376.697
373.078
369.913
368.572
368.06
367.755
367.464
367.115
366.681
366.14
365.471
364.658
363.68
362.52
360.994
358.416
353.074
342.867
329.347
322.125
324.805
330.842
343.147
375.39
321.987
339.364
346.977
352.845
359.861
367.221
373.059
376.643
378.489
379.371
379.557
378.712
376.165
372.418
369.768
368.766
368.407
368.201
368.008
367.771
367.465
367.066
366.549
365.888
365.051
363.889
361.937
358.107
350.586
339.388
331.384
332.384
337.3
348.99
380.426
324.208
341.726
349.221
355.329
362.903
369.537
373.682
376.344
378.227
379.46
380.031
379.849
378.529
375.603
371.985
369.678
368.868
368.629
368.521
368.432
368.323
368.172
367.965
367.684
367.298
366.748
365.907
364.495
361.998
358.244
355.369
355.958
358.604
364.834
385.451
323.647
341.541
349.565
356.249
364.61
372.056
376.499
378.676
379.787
380.424
380.728
380.642
379.951
378.198
375.099
371.74
369.689
368.963
368.787
368.744
368.728
368.714
368.693
368.659
368.613
368.549
368.458
368.324
368.139
368.007
368.319
369.417
371.352
375.473
389.383
325.338
342.597
350.217
356.777
365.11
372.152
376.377
378.727
380.084
380.87
381.248
381.264
380.861
379.823
377.749
374.586
371.437
369.506
368.806
368.688
368.714
368.764
368.82
368.886
368.973
369.103
369.306
369.626
370.117
370.848
371.897
373.352
375.417
379.207
390.52
324.685
342.864
350.897
357.69
366.336
373.82
377.95
379.908
380.922
381.506
381.815
381.868
381.627
380.99
379.725
377.518
374.455
371.452
369.445
368.596
368.452
368.531
368.639
368.743
368.852
368.983
369.167
369.448
369.888
370.556
371.536
372.948
375.044
378.848
389.693
325.306
342.52
350.006
356.339
364.617
372.701
377.74
380.225
381.443
382.08
382.4
382.483
382.331
381.896
381.066
379.631
377.376
374.421
371.43
369.159
367.972
367.687
367.823
368.049
368.268
368.474
368.68
368.91
369.203
369.638
370.389
371.802
374.31
378.77
389.892
324.614
342.834
350.359
356.174
363.459
371.514
377.284
380.307
381.774
382.522
382.909
383.064
383.018
382.754
382.213
381.282
379.779
377.536
374.611
371.402
368.523
366.551
365.678
365.595
365.852
366.21
366.604
367.043
367.585
368.385
369.74
371.911
374.955
379.801
391.214
324.648
342.09
349.298
354.646
361.029
368.871
375.78
379.901
381.929
382.911
383.4
383.623
383.66
383.527
383.203
382.631
381.706
380.27
378.153
375.282
371.785
368.075
364.812
362.573
361.466
361.169
361.337
361.827
362.685
364.096
366.173
368.758
371.788
376.603
389.227
324.206
342.292
349.437
354.201
359.263
365.675
372.843
378.32
381.414
382.954
383.712
384.082
384.228
384.216
384.063
383.76
383.272
382.526
381.406
379.744
377.364
374.165
370.258
366.082
362.291
359.439
357.727
357.057
357.3
358.383
360.161
362.374
364.987
369.298
382.653
324.009
341.809
349.045
353.793
358.368
363.548
369.821
375.963
380.255
382.634
383.833
384.427
384.708
384.802
384.762
384.61
384.352
383.985
383.478
382.768
381.743
380.249
378.116
375.249
371.765
368.058
364.659
362.026
360.389
359.688
359.797
360.631
362.194
365.399
376.946
323.706
341.948
349.289
353.996
358.335
362.768
367.676
373.228
378.274
381.698
383.603
384.579
385.066
385.288
385.348
385.29
385.139
384.917
384.64
384.307
383.894
383.347
382.585
381.517
380.108
378.442
376.586
374.133
370.37
366.418
363.967
363.266
364.049
366.957
378.398
323.615
342.069
349.748
354.811
359.549
364.055
368.156
372.261
376.693
380.578
383.154
384.58
385.315
385.68
385.836
385.855
385.77
385.606
385.394
385.157
384.901
384.614
384.274
383.867
383.406
382.829
381.364
377.555
372.253
368.082
366.003
365.663
366.857
370.907
386.339
323.97
342.954
350.945
356.364
361.677
366.598
370.422
373.397
376.412
379.778
382.655
384.491
385.489
386.001
386.249
386.336
386.306
386.182
385.989
385.754
385.483
385.153
384.692
383.916
382.297
378.92
374.021
369.183
365.698
363.879
363.477
364.323
366.818
373.438
392.762
325.416
344.781
353.216
359.338
365.628
370.957
374.433
376.548
378.217
380.258
382.631
384.528
385.675
386.294
386.613
386.758
386.783
386.708
386.548
386.315
385.996
385.517
384.653
382.759
378.48
371.46
364.938
361.072
359.228
358.759
359.432
361.33
365.249
374.292
395.814
328.168
347.452
356.4
363.676
371.22
376.389
379.037
380.315
381.114
382.035
383.428
384.912
385.976
386.603
386.954
387.139
387.214
387.198
387.103
386.932
386.66
386.185
385.245
383.166
378.688
371.555
365.186
361.933
360.619
360.52
361.516
363.781
368.245
378.092
398.86
330.94
349.568
359.367
368.501
377.16
381.53
383.119
383.672
383.941
384.279
384.91
385.764
386.511
387.015
387.329
387.518
387.62
387.652
387.624
387.545
387.406
387.142
386.579
385.342
382.733
378.34
373.77
371.12
370.092
370.097
371.002
372.97
376.852
385.454
402.382
331.323
349.799
360.128
370.535
379.86
384.041
385.396
385.808
385.949
386.09
386.37
386.787
387.209
387.542
387.777
387.937
388.039
388.093
388.108
388.093
388.063
388.007
387.852
387.432
386.486
384.79
382.749
381.325
380.794
380.972
381.773
383.311
386.233
392.68
405.126
328.604
347.546
356.801
365.822
376.44
383.109
385.825
386.811
387.18
387.354
387.515
387.718
387.938
388.136
388.294
388.413
388.499
388.554
388.585
388.6
388.62
388.666
388.738
388.783
388.708
388.44
388.059
387.835
387.952
388.433
389.286
390.609
392.857
397.559
406.75
324.963
344.267
351.865
358.17
368.403
378.921
384.614
386.901
387.793
388.171
388.364
388.505
388.633
388.751
388.853
388.936
389
389.047
389.079
389.104
389.137
389.21
389.357
389.591
389.883
390.197
390.545
390.986
391.58
392.355
393.342
394.621
396.534
400.241
407.593
323.629
344.029
352.407
358.247
365.556
375.454
383.073
386.673
388.116
388.728
389.02
389.182
389.288
389.37
389.437
389.492
389.537
389.572
389.598
389.622
389.655
389.725
389.876
390.154
390.574
391.11
391.739
392.464
393.299
394.251
395.343
396.632
398.403
401.636
408.052
325.875
347.725
357.423
364.844
372.749
378.47
383.957
387.242
388.662
389.292
389.61
389.79
389.901
389.975
390.028
390.068
390.1
390.124
390.144
390.164
390.193
390.254
390.388
390.653
391.098
391.715
392.463
393.311
394.251
395.285
396.426
397.722
399.427
402.431
408.341
328.833
349.806
360.003
369.49
380.558
384.922
387.082
388.76
389.598
390.02
390.259
390.409
390.507
390.575
390.622
390.656
390.68
390.699
390.713
390.728
390.752
390.802
390.915
391.149
391.571
392.205
393.011
393.927
394.922
395.991
397.148
398.436
400.099
402.975
408.559
329.686
349.885
360.494
371.313
383.805
388.884
389.75
390.277
390.614
390.827
390.97
391.07
391.143
391.195
391.234
391.261
391.28
391.294
391.305
391.316
391.336
391.378
391.473
391.671
392.047
392.654
393.473
394.427
395.455
396.54
397.695
398.965
400.588
403.37
408.72
329.468
349.887
359.55
368.946
380.914
388.918
390.964
391.397
391.55
391.641
391.709
391.762
391.805
391.838
391.863
391.881
391.894
391.903
391.91
391.919
391.936
391.972
392.052
392.218
392.54
393.09
393.881
394.842
395.885
396.972
398.113
399.357
400.941
403.652
408.846
327.866
347.516
354.831
360.603
369.53
381.744
389.224
391.656
392.251
392.396
392.441
392.461
392.476
392.488
392.497
392.505
392.511
392.517
392.522
392.531
392.548
392.582
392.653
392.795
393.07
393.554
394.29
395.227
396.264
397.34
398.458
399.67
401.213
403.865
408.952
324.864
344.029
351.728
356.439
361.448
370.679
382.793
389.763
392.225
392.901
393.077
393.121
393.128
393.125
393.121
393.117
393.116
393.117
393.121
393.13
393.149
393.184
393.252
393.381
393.623
394.05
394.724
395.622
396.642
397.702
398.794
399.972
401.475
404.068
409.06
324.518
344.995
353.974
359.865
365.343
371.124
380.033
388.182
392.018
393.274
393.622
393.717
393.74
393.738
393.728
393.717
393.71
393.707
393.709
393.718
393.739
393.778
393.848
393.974
394.198
394.586
395.206
396.065
397.07
398.12
399.192
400.343
401.806
404.333
409.194
327.031
347.849
356.366
362.347
368.873
376.25
383.206
389.671
392.97
394.023
394.296
394.357
394.362
394.349
394.329
394.31
394.294
394.284
394.283
394.291
394.313
394.355
394.428
394.554
394.77
395.133
395.714
396.537
397.532
398.583
399.65
400.781
402.205
404.652
409.34
327.655
347.854
355.777
361.107
366.657
373.441
381.373
388.921
393.455
394.827
395.072
395.073
395.032
394.988
394.948
394.913
394.885
394.866
394.857
394.861
394.881
394.924
394.999
395.126
395.336
395.681
396.23
397.02
398.004
399.063
400.134
401.252
402.638
404.993
409.486
326.146
346.814
355.203
360.517
365.262
370.093
375.928
383.279
390.569
394.514
395.643
395.788
395.734
395.657
395.587
395.528
395.482
395.449
395.429
395.426
395.441
395.481
395.554
395.679
395.883
396.214
396.734
397.491
398.456
399.517
400.589
401.691
403.034
405.293
409.604
326.431
348.059
357.134
363.01
368.422
373.449
377.586
381.439
386.715
392.336
395.374
396.262
396.373
396.314
396.233
396.157
396.093
396.044
396.012
395.998
396.005
396.04
396.11
396.232
396.431
396.75
397.248
397.972
398.905
399.946
401.001
402.077
403.373
405.541
409.702
328.937
350.874
359.989
366.111
372.225
378.542
383.859
387.208
389.329
392.282
395.272
396.632
396.929
396.912
396.839
396.763
396.695
396.638
396.597
396.576
396.577
396.608
396.675
396.796
396.993
397.307
397.789
398.482
399.369
400.361
401.372
402.406
403.653
405.748
409.798
331.202
353.031
361.979
368.289
374.946
381.777
387.651
391.857
394.242
395.475
396.741
397.485
397.604
397.531
397.439
397.357
397.286
397.228
397.186
397.165
397.168
397.201
397.273
397.398
397.601
397.918
398.391
399.051
399.879
400.799
401.747
402.729
403.933
405.98
409.933
332.042
353.85
362.903
369.814
377.761
385.265
390.632
394.239
396.679
397.991
398.477
398.532
398.364
398.19
398.057
397.955
397.877
397.818
397.779
397.764
397.775
397.817
397.9
398.037
398.251
398.574
399.038
399.661
400.421
401.261
402.14
403.073
404.243
406.265
410.12
332.33
353.97
363.228
370.89
380.479
388.929
394.035
396.779
398.432
399.459
399.757
399.504
399.14
398.872
398.691
398.566
398.478
398.419
398.388
398.385
398.412
398.473
398.576
398.732
398.963
399.292
399.745
400.328
401.021
401.788
402.606
403.497
404.646
406.658
410.376
331.931
353.123
362.561
370.944
382.105
391.516
396.737
399.165
400.276
400.778
400.821
400.42
399.928
399.569
399.335
399.18
399.079
399.02
398.998
399.013
399.064
399.154
399.287
399.473
399.727
400.068
400.511
401.059
401.698
402.407
403.177
404.036
405.17
407.166
410.68
330.381
351.088
360.474
369.144
381.449
392.239
398.219
400.893
401.944
402.169
401.916
401.355
400.745
400.29
399.991
399.799
399.679
399.617
399.605
399.641
399.724
399.853
400.029
400.258
400.549
400.912
401.356
401.884
402.487
403.156
403.892
404.727
405.846
407.803
411.02
328.134
348.489
357.497
365.591
377.702
390.178
397.893
401.521
403.012
403.381
403.063
402.372
401.631
401.056
400.669
400.42
400.27
400.196
400.19
400.247
400.364
400.539
400.77
401.057
401.399
401.801
402.265
402.791
403.378
404.024
404.735
405.547
406.639
408.51
411.347
326.261
346.566
355.314
362.495
372.973
386.251
396.134
401.258
403.507
404.281
404.162
403.486
402.636
401.913
401.401
401.067
400.864
400.763
400.748
400.814
400.957
401.175
401.463
401.814
402.221
402.679
403.182
403.73
404.321
404.959
405.653
406.44
407.485
409.22
411.63
325.43
346.422
355.474
362.212
370.961
383.137
394.109
400.621
403.685
404.91
405.096
404.584
403.716
402.862
402.204
401.755
401.474
401.323
401.281
401.34
401.494
401.739
402.071
402.478
402.948
403.464
404.016
404.596
405.204
405.842
406.521
407.275
408.257
409.826
411.836
325.916
348.079
357.717
364.638
372.864
383.297
393.51
400.4
403.913
405.435
405.867
405.568
404.788
403.869
403.077
402.498
402.117
401.895
401.808
401.839
401.984
402.237
402.591
403.034
403.549
404.113
404.709
405.322
405.948
406.588
407.253
407.971
408.879
410.275
411.962
327.63
350.754
360.834
368.259
377.003
386.608
395.197
401.273
404.562
406.057
406.561
406.409
405.762
404.859
403.979
403.28
402.789
402.484
402.334
402.32
402.432
402.665
403.011
403.458
403.986
404.57
405.186
405.817
406.452
407.09
407.737
408.421
409.264
410.525
412.018
330.162
353.81
364.151
372.134
381.676
391.073
398.295
403.09
405.691
406.889
407.301
407.185
406.638
405.796
404.885
404.095
403.501
403.107
402.887
402.82
402.891
403.091
403.412
403.84
404.356
404.933
405.547
406.175
406.805
407.432
408.061
408.716
409.51
410.679
412.051
333.045
356.98
367.634
376.26
386.456
395.38
401.477
405.125
407.002
407.842
408.1
407.953
407.453
406.669
405.761
404.911
404.23
403.75
403.455
403.326
403.343
403.495
403.773
404.163
404.644
405.193
405.783
406.391
407.004
407.614
408.223
408.852
409.607
410.718
412.053
335.84
359.814
370.924
380.399
391.158
399.297
404.246
406.957
408.262
408.809
408.929
408.736
408.255
407.515
406.622
405.733
404.979
404.418
404.053
403.863
403.827
403.929
404.159
404.503
404.941
405.449
406.004
406.583
407.172
407.762
408.353
408.965
409.703
410.791
412.098
338.073
361.856
373.508
384.028
395.385
402.803
406.677
408.602
409.465
409.785
409.789
409.548
409.066
408.35
407.469
406.555
405.742
405.106
404.669
404.416
404.327
404.381
404.564
404.861
405.255
405.723
406.241
406.789
407.352
407.919
408.492
409.088
409.809
410.874
412.142
339.294
362.834
374.986
386.521
398.477
405.537
408.678
410.044
410.604
410.766
410.688
410.409
409.92
409.214
408.336
407.399
406.536
405.838
405.337
405.023
404.876
404.877
405.01
405.258
405.605
406.03
406.511
407.027
407.564
408.112
408.667
409.248
409.952
410.992
412.209
339.448
362.787
375.273
387.517
400.034
407.267
410.217
411.312
411.692
411.751
411.614
411.307
410.809
410.1
409.205
408.224
407.297
406.53
405.97
405.609
405.422
405.384
405.476
405.682
405.986
406.369
406.811
407.294
407.803
408.327
408.864
409.43
410.122
411.145
412.298
338.971
362.075
374.854
387.654
400.491
408.067
411.257
412.381
412.721
412.738
412.575
412.259
411.767
411.065
410.158
409.133
408.137
407.294
406.659
406.236
406.002
405.928
405.987
406.161
406.433
406.784
407.196
407.651
408.134
408.636
409.154
409.703
410.377
411.365
412.405
338.582
361.446
374.934
388.946
401.736
408.948
412.126
413.294
413.644
413.659
413.498
413.196
412.729
412.048
411.131
410.049
408.971
408.058
407.371
406.902
406.621
406.5
406.516
406.649
406.881
407.195
407.573
407.998
408.455
408.933
409.429
409.957
410.604
411.547
412.495
338.783
361.527
376.26
392.656
405.136
410.951
413.373
414.285
414.555
414.546
414.387
414.105
413.676
413.039
412.136
410.993
409.781
408.729
407.962
407.468
407.189