/*--------------------------------*- C++ -*----------------------------------*\
| =========                 |                                                 |
| \\      /  F ield         | OpenFOAM: The Open Source CFD Toolbox           |
|  \\    /   O peration     | Version:  v2006                                 |
|   \\  /    A nd           | Website:  www.openfoam.com                      |
|    \\/     M anipulation  |                                                 |
\*---------------------------------------------------------------------------*/
FoamFile
{
    version     2.0;
    format      ascii;
    class       volScalarField;
    location    "95";
    object      alphat;
}
// * * * * * * * * * * * * * * * * * * * * * * * * * * * * * * * * * * * * * //

dimensions      [1 -1 -1 0 0 0 0];


internalField   nonuniform List<scalar> 
78750
(
1.42075e-09
2.66213e-07
5.05944e-07
7.47725e-07
9.85364e-07
1.21573e-06
1.43673e-06
1.64653e-06
1.84339e-06
2.02586e-06
2.19275e-06
2.34319e-06
2.47657e-06
2.59262e-06
2.69082e-06
2.77014e-06
2.83042e-06
2.87142e-06
2.8928e-06
2.89406e-06
2.87462e-06
2.83296e-06
2.7679e-06
2.67789e-06
2.56129e-06
2.41659e-06
2.24203e-06
2.03682e-06
1.80218e-06
1.5402e-06
1.25257e-06
9.4341e-07
6.31386e-07
3.545e-07
5.27684e-09
4.22733e-09
2.47681e-06
5.41743e-06
8.13175e-06
1.01477e-05
1.16501e-05
1.28881e-05
1.40022e-05
1.50702e-05
1.61413e-05
1.7248e-05
1.84105e-05
1.96633e-05
2.1061e-05
2.21296e-05
2.22087e-05
2.21951e-05
2.2098e-05
2.19257e-05
2.16846e-05
2.13792e-05
2.10096e-05
2.05744e-05
2.00679e-05
1.94804e-05
1.88014e-05
1.74072e-05
1.52224e-05
1.30491e-05
1.08053e-05
8.37117e-06
5.99988e-06
4.43157e-06
2.61521e-06
2.17352e-08
7.44018e-09
2.45047e-06
5.47389e-06
9.20038e-06
1.30583e-05
1.63735e-05
1.89246e-05
2.08394e-05
2.23007e-05
2.34442e-05
2.43568e-05
2.50891e-05
2.56695e-05
2.61257e-05
2.64909e-05
2.67612e-05
2.68496e-05
2.6421e-05
2.59191e-05
2.53673e-05
2.47765e-05
2.37838e-05
2.26299e-05
2.1379e-05
2.00789e-05
1.87484e-05
1.73685e-05
1.58721e-05
1.41262e-05
1.19897e-05
9.58413e-06
7.66867e-06
7.02322e-06
2.64958e-06
3.89146e-08
1.14867e-08
2.33618e-06
5.38152e-06
9.71643e-06
1.49602e-05
1.97755e-05
2.32981e-05
2.56392e-05
2.71258e-05
2.79807e-05
2.83445e-05
2.83174e-05
2.79785e-05
2.7394e-05
2.66235e-05
2.57209e-05
2.47264e-05
2.36627e-05
2.2546e-05
2.13989e-05
2.02492e-05
1.91326e-05
1.80874e-05
1.71461e-05
1.63282e-05
1.56219e-05
1.49541e-05
1.41602e-05
1.30086e-05
1.13858e-05
9.65388e-06
8.79104e-06
9.01187e-06
2.39974e-06
5.15611e-08
1.65133e-08
2.28309e-06
5.44942e-06
1.04504e-05
1.70537e-05
2.31951e-05
2.74308e-05
2.99482e-05
3.11727e-05
3.13929e-05
3.08498e-05
2.97686e-05
2.83525e-05
2.67708e-05
2.51494e-05
2.35687e-05
2.20684e-05
2.06588e-05
1.93333e-05
1.80821e-05
1.69042e-05
1.58154e-05
1.48441e-05
1.40211e-05
1.33699e-05
1.28854e-05
1.2496e-05
1.20311e-05
1.12765e-05
1.02066e-05
9.29589e-06
9.53609e-06
9.56557e-06
2.23162e-06
5.99854e-08
2.13967e-08
2.30978e-06
5.6644e-06
1.13373e-05
1.92702e-05
2.66032e-05
3.12332e-05
3.34899e-05
3.40141e-05
3.32713e-05
3.16635e-05
2.95581e-05
2.72681e-05
2.5025e-05
2.29669e-05
2.1151e-05
1.95777e-05
1.82144e-05
1.70152e-05
1.59367e-05
1.49522e-05
1.40559e-05
1.32498e-05
1.25392e-05
1.19375e-05
1.14471e-05
1.10208e-05
1.05419e-05
9.89679e-06
9.1777e-06
8.90842e-06
1.00702e-05
9.26445e-06
2.1179e-06
6.5685e-08
2.64098e-08
2.33637e-06
5.81523e-06
1.19437e-05
2.07537e-05
2.87023e-05
3.33397e-05
3.52091e-05
3.5069e-05
3.349e-05
3.10197e-05
2.81663e-05
2.53306e-05
2.27616e-05
2.05634e-05
1.8737e-05
1.72336e-05
1.59897e-05
1.49431e-05
1.40454e-05
1.32715e-05
1.26095e-05
1.20296e-05
1.14966e-05
1.09904e-05
1.04999e-05
9.99916e-06
9.44285e-06
8.83025e-06
8.34292e-06
8.51308e-06
1.02962e-05
8.65228e-06
2.03922e-06
7.02309e-08
3.05817e-08
2.37358e-06
5.94567e-06
1.23894e-05
2.18694e-05
3.03488e-05
3.49806e-05
3.64379e-05
3.56303e-05
3.32926e-05
3.01398e-05
2.67961e-05
2.36908e-05
2.10275e-05
1.88413e-05
1.70847e-05
1.56839e-05
1.45634e-05
1.36575e-05
1.29221e-05
1.23384e-05
1.18791e-05
1.14761e-05
1.10569e-05
1.05742e-05
1.0013e-05
9.37834e-06
8.69689e-06
8.05733e-06
7.69133e-06
8.11975e-06
1.02651e-05
8.12517e-06
1.98854e-06
7.49217e-08
3.46746e-08
2.39761e-06
6.0101e-06
1.26231e-05
2.24729e-05
3.11523e-05
3.56242e-05
3.67114e-05
3.54263e-05
3.26135e-05
2.90886e-05
2.55244e-05
2.23311e-05
1.96594e-05
1.74994e-05
1.57785e-05
1.44182e-05
1.33497e-05
1.2519e-05
1.18999e-05
1.14906e-05
1.12463e-05
1.10615e-05
1.08158e-05
1.04124e-05
9.81368e-06
9.05681e-06
8.24609e-06
7.54916e-06
7.23053e-06
7.79458e-06
1.01204e-05
7.68427e-06
1.95239e-06
8.02536e-08
3.84125e-08
2.42357e-06
6.06753e-06
1.27987e-05
2.29264e-05
3.17977e-05
3.61765e-05
3.69701e-05
3.52982e-05
3.21228e-05
2.83477e-05
2.46651e-05
2.14469e-05
1.87936e-05
1.66617e-05
1.49643e-05
1.36177e-05
1.25607e-05
1.17534e-05
1.11867e-05
1.08757e-05
1.07665e-05
1.07363e-05
1.06332e-05
1.03147e-05
9.71051e-06
8.86978e-06
7.95705e-06
7.20367e-06
6.89792e-06
7.53222e-06
9.95036e-06
7.33176e-06
1.92681e-06
8.61083e-08
4.21833e-08
2.44111e-06
6.09749e-06
1.29003e-05
2.31949e-05
3.21174e-05
3.6343e-05
3.68835e-05
3.49387e-05
3.15436e-05
2.76454e-05
2.39281e-05
2.07241e-05
1.80975e-05
1.59856e-05
1.42963e-05
1.29496e-05
1.18883e-05
1.10845e-05
1.05496e-05
1.03121e-05
1.03109e-05
1.0414e-05
1.04448e-05
1.02214e-05
9.64106e-06
8.75708e-06
7.77634e-06
6.97988e-06
6.67788e-06
7.35842e-06
9.83444e-06
7.03282e-06
1.90782e-06
9.22493e-08
4.60507e-08
2.46289e-06
6.14189e-06
1.30307e-05
2.34912e-05
3.24595e-05
3.65498e-05
3.68673e-05
3.469e-05
3.11234e-05
2.71459e-05
2.34224e-05
2.02453e-05
1.76471e-05
1.55499e-05
1.38587e-05
1.24962e-05
1.14118e-05
1.05861e-05
1.00455e-05
9.83294e-06
9.8861e-06
1.00715e-05
1.02001e-05
1.00621e-05
9.52592e-06
8.63999e-06
7.63492e-06
6.82301e-06
6.5324e-06
7.25676e-06
9.78454e-06
6.78317e-06
1.89503e-06
9.84428e-08
4.99348e-08
2.48009e-06
6.17557e-06
1.31349e-05
2.37188e-05
3.26783e-05
3.66148e-05
3.67314e-05
3.43712e-05
3.06906e-05
2.66802e-05
2.2978e-05
1.98396e-05
1.72731e-05
1.51915e-05
1.34987e-05
1.21211e-05
1.10134e-05
1.01645e-05
9.61248e-06
9.40934e-06
9.49341e-06
9.73271e-06
9.93161e-06
9.86306e-06
9.37617e-06
8.51332e-06
7.51673e-06
6.71556e-06
6.45127e-06
7.22939e-06
9.80936e-06
6.56866e-06
1.88708e-06
1.04529e-07
5.40569e-08
2.50183e-06
6.22567e-06
1.32817e-05
2.40102e-05
3.29481e-05
3.67221e-05
3.66464e-05
3.41271e-05
3.03626e-05
2.63437e-05
2.26755e-05
1.95786e-05
1.70409e-05
1.49689e-05
1.32674e-05
1.18663e-05
1.07258e-05
9.84133e-06
9.26013e-06
9.04379e-06
9.13034e-06
9.39132e-06
9.63065e-06
9.61388e-06
9.17827e-06
8.35887e-06
7.39895e-06
6.63302e-06
6.4108e-06
7.25383e-06
9.88846e-06
6.39263e-06
1.8842e-06
1.10461e-07
5.81328e-08
2.52078e-06
6.27024e-06
1.34137e-05
2.42615e-05
3.31562e-05
3.67702e-05
3.65215e-05
3.38713e-05
3.00509e-05
2.60432e-05
2.24192e-05
1.93681e-05
1.68616e-05
1.48014e-05
1.30931e-05
1.16703e-05
1.0498e-05
9.57706e-06
8.96256e-06
8.72492e-06
8.80282e-06
9.06862e-06
9.32897e-06
9.34834e-06
8.9595e-06
8.19265e-06
7.28676e-06
6.57365e-06
6.4079e-06
7.32893e-06
1.00155e-05
6.24464e-06
1.88513e-06
1.16195e-07
6.24439e-08
2.54324e-06
6.32673e-06
1.35777e-05
2.45628e-05
3.3403e-05
3.68502e-05
3.64389e-05
3.36807e-05
2.98278e-05
2.58461e-05
2.22712e-05
1.92645e-05
1.67851e-05
1.47317e-05
1.30114e-05
1.1561e-05
1.03496e-05
9.38341e-06
8.72201e-06
8.44564e-06
8.49606e-06
8.7481e-06
9.01212e-06
9.05658e-06
8.71402e-06
8.00914e-06
7.17133e-06
6.52438e-06
6.42612e-06
7.43507e-06
1.0171e-05
6.12857e-06
1.89011e-06
1.21764e-07
6.66822e-08
2.56398e-06
6.38069e-06
1.37343e-05
2.48397e-05
3.3615e-05
3.69038e-05
3.63464e-05
3.34981e-05
2.96271e-05
2.56794e-05
2.21571e-05
1.91974e-05
1.67481e-05
1.47051e-05
1.29761e-05
1.15003e-05
1.02509e-05
9.23876e-06
8.52717e-06
8.20565e-06
8.21995e-06
8.44754e-06
8.70381e-06
8.76339e-06
8.4626e-06
7.82218e-06
7.05961e-06
6.48739e-06
6.46538e-06
7.57119e-06
1.03474e-05
6.03322e-06
1.89765e-06
1.27152e-07
7.11231e-08
2.58726e-06
6.44284e-06
1.39134e-05
2.51519e-05
3.38565e-05
3.69878e-05
3.62984e-05
3.33799e-05
2.95061e-05
2.55989e-05
2.21288e-05
1.92128e-05
1.67901e-05
1.47543e-05
1.30134e-05
1.15084e-05
1.02159e-05
9.15025e-06
8.37791e-06
7.99709e-06
7.96084e-06
8.15021e-06
8.38743e-06
8.45594e-06
8.19684e-06
7.62553e-06
6.94489e-06
6.45416e-06
6.51496e-06
7.72421e-06
1.0535e-05
5.96249e-06
1.9082e-06
1.32396e-07
7.5491e-08
2.60943e-06
6.50435e-06
1.40913e-05
2.54536e-05
3.40814e-05
3.7063e-05
3.62527e-05
3.32733e-05
2.94021e-05
2.55374e-05
2.21214e-05
1.92523e-05
1.68611e-05
1.48382e-05
1.30907e-05
1.15608e-05
1.02274e-05
9.10818e-06
8.27269e-06
7.82653e-06
7.73225e-06
7.87477e-06
8.08391e-06
8.15379e-06
7.93222e-06
7.42948e-06
6.83262e-06
6.42669e-06
6.57507e-06
7.89324e-06
1.07276e-05
5.90602e-06
1.92024e-06
1.37475e-07
8.00288e-08
2.63331e-06
6.5717e-06
1.42866e-05
2.5784e-05
3.43338e-05
3.71709e-05
3.62528e-05
3.32261e-05
2.93649e-05
2.55434e-05
2.21785e-05
1.9353e-05
1.69913e-05
1.49804e-05
1.32259e-05
1.16701e-05
1.02933e-05
9.11567e-06
8.20921e-06
7.68633e-06
7.52292e-06
7.60853e-06
7.78154e-06
7.84786e-06
7.66232e-06
7.2291e-06
6.71814e-06
6.39949e-06
6.63824e-06
8.06865e-06
1.09201e-05
5.86623e-06
1.93414e-06
1.42417e-07
8.45008e-08
2.65619e-06
6.63891e-06
1.44848e-05
2.61152e-05
3.45845e-05
3.72824e-05
3.62611e-05
3.31883e-05
2.93362e-05
2.55575e-05
2.22457e-05
1.94687e-05
1.7143e-05
1.51517e-05
1.33977e-05
1.18218e-05
1.04048e-05
9.16896e-06
8.18929e-06
7.5838e-06
7.34444e-06
7.36598e-06
7.49581e-06
7.55241e-06
7.3984e-06
7.03202e-06
6.60589e-06
6.37539e-06
6.70762e-06
8.2539e-06
1.11122e-05
5.83708e-06
1.94906e-06
1.472e-07
8.9115e-08
2.67995e-06
6.70994e-06
1.46973e-05
2.64747e-05
3.48687e-05
3.74328e-05
3.63135e-05
3.31984e-05
2.9356e-05
2.56182e-05
2.23568e-05
1.96264e-05
1.73367e-05
1.53663e-05
1.3615e-05
1.2021e-05
1.05643e-05
9.26829e-06
8.21042e-06
7.51319e-06
7.18918e-06
7.13901e-06
7.21941e-06
7.26167e-06
7.13606e-06
6.83444e-06
6.49183e-06
6.34901e-06
6.77527e-06
8.43843e-06
1.12964e-05
5.81638e-06
1.96447e-06
1.51828e-07
9.36728e-08
2.70263e-06
6.78013e-06
1.49117e-05
2.68368e-05
3.51492e-05
3.75835e-05
3.63708e-05
3.32099e-05
2.93751e-05
2.56791e-05
2.24717e-05
1.97933e-05
1.75467e-05
1.56054e-05
1.38652e-05
1.22602e-05
1.07682e-05
9.41309e-06
8.27484e-06
7.48038e-06
7.06556e-06
6.93759e-06
6.9628e-06
6.98536e-06
6.88329e-06
6.64238e-06
6.38064e-06
6.32489e-06
6.84709e-06
8.63069e-06
1.14799e-05
5.80414e-06
1.98067e-06
1.56283e-07
9.83451e-08
2.72577e-06
6.85246e-06
1.51323e-05
2.72027e-05
3.54237e-05
3.7732e-05
3.64403e-05
3.32452e-05
2.9423e-05
2.57691e-05
2.2614e-05
1.99868e-05
1.77838e-05
1.58746e-05
1.41499e-05
1.25388e-05
1.10151e-05
9.60186e-06
8.38066e-06
7.48267e-06
6.97011e-06
6.75795e-06
6.72245e-06
6.72044e-06
6.63746e-06
6.45322e-06
6.26917e-06
6.29853e-06
6.91587e-06
8.81901e-06
1.16511e-05
5.79496e-06
1.99648e-06
1.60551e-07
1.0297e-07
2.74822e-06
6.9251e-06
1.53549e-05
2.75584e-05
3.56822e-05
3.78656e-05
3.64969e-05
3.32806e-05
2.947e-05
2.58568e-05
2.27566e-05
2.01856e-05
1.8033e-05
1.61636e-05
1.44627e-05
1.28534e-05
1.13043e-05
9.83582e-06
8.53093e-06
7.52552e-06
6.90945e-06
6.60755e-06
6.50595e-06
6.47392e-06
6.40432e-06
6.27136e-06
6.16092e-06
6.2735e-06
6.98671e-06
9.01179e-06
1.18193e-05
5.79062e-06
2.01244e-06
1.6462e-07
1.07671e-07
2.7706e-06
6.99942e-06
1.55869e-05
2.79128e-05
3.59338e-05
3.79936e-05
3.65517e-05
3.3318e-05
2.95244e-05
2.59558e-05
2.2912e-05
2.0398e-05
1.82977e-05
1.64716e-05
1.48002e-05
1.31997e-05
1.16318e-05
1.01124e-05
8.72464e-06
7.60899e-06
6.88364e-06
6.48618e-06
6.31294e-06
6.24535e-06
6.18335e-06
6.09607e-06
6.05471e-06
6.24774e-06
7.05614e-06
9.20504e-06
1.19869e-05
5.79064e-06
2.02815e-06
1.68478e-07
1.12313e-07
2.79182e-06
7.07096e-06
1.5812e-05
2.82532e-05
3.61676e-05
3.81054e-05
3.65923e-05
3.33447e-05
2.95737e-05
2.60522e-05
2.30667e-05
2.06133e-05
1.85704e-05
1.67945e-05
1.51602e-05
1.35764e-05
1.19972e-05
1.04324e-05
8.96418e-06
7.73789e-06
6.89842e-06
6.39999e-06
6.14949e-06
6.04019e-06
5.97896e-06
5.93049e-06
5.95255e-06
6.2227e-06
7.12638e-06
9.40269e-06
1.21502e-05
5.79407e-06
2.04364e-06
1.72115e-07
1.16998e-07
2.81316e-06
7.14367e-06
1.60406e-05
2.85925e-05
3.63946e-05
3.821e-05
3.66266e-05
3.33667e-05
2.96283e-05
2.6152e-05
2.3223e-05
2.08314e-05
1.88492e-05
1.71281e-05
1.55371e-05
1.3978e-05
1.23958e-05
1.07928e-05
9.24868e-06
7.91339e-06
6.9551e-06
6.35011e-06
6.01659e-06
5.85926e-06
5.79177e-06
5.77517e-06
5.85521e-06
6.19983e-06
7.20032e-06
9.61006e-06
1.23159e-05
5.80599e-06
2.05986e-06
1.75544e-07
1.21618e-07
2.83367e-06
7.21462e-06
1.62649e-05
2.89188e-05
3.66041e-05
3.82969e-05
3.66428e-05
3.337e-05
2.96635e-05
2.62371e-05
2.33712e-05
2.10475e-05
1.91319e-05
1.74716e-05
1.59309e-05
1.44042e-05
1.28271e-05
1.11932e-05
9.57865e-06
8.13743e-06
7.05692e-06
6.34058e-06
5.91852e-06
5.70658e-06
5.62515e-06
5.63255e-06
5.76405e-06
6.17937e-06
7.27667e-06
9.82286e-06
1.24813e-05
5.8232e-06
2.07661e-06
1.7876e-07
1.2625e-07
2.85431e-06
7.28648e-06
1.64915e-05
2.92426e-05
3.68058e-05
3.83745e-05
3.66491e-05
3.33638e-05
2.96906e-05
2.63159e-05
2.35145e-05
2.12606e-05
1.94144e-05
1.78194e-05
1.63351e-05
1.48487e-05
1.32857e-05
1.16296e-05
9.95132e-06
8.40804e-06
7.20323e-06
6.37172e-06
5.85615e-06
5.58322e-06
5.48023e-06
5.50376e-06
5.68028e-06
6.16253e-06
7.35599e-06
1.00396e-05
1.26463e-05
5.84508e-06
2.09374e-06
1.81772e-07
1.30823e-07
2.87458e-06
7.35773e-06
1.6715e-05
2.95542e-05
3.69899e-05
3.84329e-05
3.66349e-05
3.33368e-05
2.96985e-05
2.63796e-05
2.36474e-05
2.14679e-05
1.96956e-05
1.81709e-05
1.67492e-05
1.53105e-05
1.37701e-05
1.21001e-05
1.03647e-05
8.72346e-06
7.39385e-06
6.44464e-06
5.83146e-06
5.49164e-06
5.35944e-06
5.39082e-06
5.60501e-06
6.14903e-06
7.43631e-06
1.02578e-05
1.28093e-05
5.87049e-06
2.11108e-06
1.84584e-07
1.35387e-07
2.89513e-06
7.43062e-06
1.69398e-05
2.98608e-05
3.71631e-05
3.84777e-05
3.66054e-05
3.3294e-05
2.96916e-05
2.64311e-05
2.37701e-05
2.16668e-05
1.99711e-05
1.85206e-05
1.7167e-05
1.57833e-05
1.42744e-05
1.25998e-05
1.08152e-05
9.08075e-06
7.62713e-06
6.55851e-06
5.84417e-06
5.43208e-06
5.26339e-06
5.29439e-06
5.53877e-06
6.13933e-06
7.51828e-06
1.04753e-05
1.29691e-05
5.89867e-06
2.12845e-06
1.87208e-07
1.399e-07
2.91559e-06
7.50536e-06
1.7161e-05
3.01543e-05
3.73178e-05
3.8502e-05
3.65539e-05
3.32292e-05
2.96649e-05
2.64681e-05
2.38815e-05
2.18568e-05
2.02406e-05
1.88681e-05
1.75874e-05
1.62652e-05
1.47957e-05
1.31253e-05
1.12994e-05
9.47734e-06
7.90191e-06
6.71321e-06
5.89491e-06
5.40566e-06
5.19361e-06
5.21625e-06
5.48346e-06
6.13565e-06
7.60476e-06
1.06925e-05
1.31269e-05
5.92931e-06
2.14576e-06
1.89652e-07
1.44355e-07
2.93501e-06
7.57771e-06
1.73805e-05
3.04395e-05
3.74579e-05
3.85102e-05
3.64855e-05
3.31468e-05
2.96209e-05
2.6492e-05
2.39802e-05
2.20351e-05
2.05007e-05
1.92094e-05
1.80061e-05
1.67513e-05
1.53289e-05
1.36716e-05
1.18129e-05
9.90972e-06
8.21596e-06
6.90745e-06
5.98303e-06
5.41229e-06
5.15053e-06
5.15729e-06
5.44011e-06
6.13841e-06
7.69414e-06
1.09091e-05
1.3283e-05
5.96214e-06
2.16296e-06
1.91926e-07
1.48723e-07
2.95395e-06
7.64841e-06
1.75944e-05
3.07124e-05
3.75817e-05
3.8497e-05
3.63927e-05
3.30404e-05
2.95557e-05
2.64972e-05
2.40639e-05
2.2202e-05
2.07525e-05
1.95453e-05
1.84227e-05
1.72397e-05
1.58705e-05
1.42341e-05
1.23511e-05
1.0374e-05
8.56687e-06
7.14004e-06
6.1082e-06
5.45225e-06
5.13494e-06
5.11863e-06
5.40984e-06
6.14819e-06
7.78588e-06
1.11243e-05
1.34379e-05
5.99704e-06
2.18001e-06
1.9404e-07
1.53015e-07
2.97184e-06
7.71743e-06
1.78081e-05
3.09786e-05
3.76919e-05
3.84692e-05
3.62849e-05
3.29178e-05
2.94703e-05
2.64809e-05
2.41303e-05
2.23555e-05
2.09933e-05
1.98726e-05
1.88336e-05
1.77265e-05
1.64162e-05
1.48078e-05
1.29086e-05
1.08653e-05
8.95083e-06
7.40829e-06
6.26877e-06
5.52479e-06
5.14689e-06
5.10099e-06
5.39369e-06
6.16586e-06
7.88044e-06
1.13382e-05
1.35918e-05
6.03374e-06
2.19689e-06
1.96002e-07
1.57246e-07
2.98945e-06
7.7858e-06
1.80193e-05
3.12332e-05
3.77858e-05
3.84228e-05
3.6157e-05
3.27767e-05
2.93713e-05
2.64538e-05
2.4183e-05
2.24946e-05
2.12227e-05
2.01917e-05
1.92388e-05
1.82107e-05
1.69637e-05
1.53896e-05
1.34816e-05
1.13797e-05
9.36458e-06
7.70975e-06
6.46308e-06
5.62907e-06
5.18632e-06
5.10486e-06
5.39242e-06
6.19213e-06
7.97813e-06
1.15506e-05
1.37451e-05
6.07214e-06
2.2136e-06
1.97825e-07
1.61383e-07
3.00608e-06
7.85186e-06
1.82256e-05
3.14748e-05
3.78624e-05
3.83571e-05
3.60085e-05
3.26137e-05
2.925e-05
2.64068e-05
2.42221e-05
2.2623e-05
2.14411e-05
2.0501e-05
1.96368e-05
1.86902e-05
1.75101e-05
1.59756e-05
1.40659e-05
1.19131e-05
9.80451e-06
8.04145e-06
6.68886e-06
5.7636e-06
5.25263e-06
5.13049e-06
5.40689e-06
6.22813e-06
8.0801e-06
1.17625e-05
1.38984e-05
6.11215e-06
2.23014e-06
1.9952e-07
1.65436e-07
3.02213e-06
7.9165e-06
1.84284e-05
3.17047e-05
3.7923e-05
3.82737e-05
3.58418e-05
3.24338e-05
2.91138e-05
2.63458e-05
2.42482e-05
2.27405e-05
2.16504e-05
2.08007e-05
2.00265e-05
1.9164e-05
1.80536e-05
1.6563e-05
1.46577e-05
1.24615e-05
1.02671e-05
8.4005e-06
6.94386e-06
5.92675e-06
5.34486e-06
5.17765e-06
5.43744e-06
6.27451e-06
8.18695e-06
1.19742e-05
1.40522e-05
6.15372e-06
2.24651e-06
2.01103e-07
1.69401e-07
3.03738e-06
7.97911e-06
1.86262e-05
3.19209e-05
3.79653e-05
3.81692e-05
3.56522e-05
3.2231e-05
2.89558e-05
2.62654e-05
2.4258e-05
2.28446e-05
2.18489e-05
2.1092e-05
2.04073e-05
1.96303e-05
1.85926e-05
1.71499e-05
1.52545e-05
1.3022e-05
1.07493e-05
8.78426e-06
7.22588e-06
6.11686e-06
5.46201e-06
5.24606e-06
5.48449e-06
6.33221e-06
8.29989e-06
1.21869e-05
1.42075e-05
6.197e-06
2.26278e-06
2.02588e-07
1.73268e-07
3.0519e-06
8.03973e-06
1.88192e-05
3.21245e-05
3.79911e-05
3.80462e-05
3.54436e-05
3.20106e-05
2.87819e-05
2.61705e-05
2.42547e-05
2.29368e-05
2.20367e-05
2.13738e-05
2.07799e-05
2.00875e-05
1.91237e-05
1.77319e-05
1.58515e-05
1.359e-05
1.12473e-05
9.18978e-06
7.53267e-06
6.33225e-06
5.60294e-06
5.33517e-06
5.54805e-06
6.40168e-06
8.41955e-06
1.24009e-05
1.43647e-05
6.24194e-06
2.27896e-06
2.03991e-07
1.77032e-07
3.06559e-06
8.09815e-06
1.90071e-05
3.23143e-05
3.79981e-05
3.79013e-05
3.52118e-05
3.17677e-05
2.85876e-05
2.60572e-05
2.42355e-05
2.30152e-05
2.22124e-05
2.16452e-05
2.11437e-05
2.05372e-05
1.96473e-05
1.83085e-05
1.64472e-05
1.4163e-05
1.17583e-05
9.61458e-06
7.86218e-06
6.57128e-06
5.7665e-06
5.44442e-06
5.62818e-06
6.48352e-06
8.54694e-06
1.26175e-05
1.4525e-05
6.28884e-06
2.29515e-06
2.05326e-07
1.807e-07
3.07863e-06
8.15483e-06
1.91905e-05
3.24914e-05
3.7988e-05
3.7737e-05
3.49606e-05
3.15076e-05
2.83779e-05
2.59301e-05
2.42035e-05
2.30812e-05
2.2376e-05
2.19045e-05
2.14955e-05
2.09753e-05
2.01596e-05
1.88747e-05
1.70366e-05
1.47364e-05
1.22785e-05
1.00559e-05
8.21248e-06
6.8326e-06
5.95173e-06
5.5732e-06
5.72468e-06
6.57791e-06
8.68253e-06
1.28372e-05
1.46888e-05
6.33772e-06
2.31137e-06
2.0661e-07
1.84257e-07
3.09081e-06
8.20913e-06
1.9368e-05
3.26537e-05
3.79584e-05
3.75508e-05
3.46874e-05
3.12274e-05
2.81509e-05
2.57874e-05
2.41577e-05
2.31347e-05
2.25277e-05
2.21525e-05
2.18363e-05
2.14023e-05
2.06606e-05
1.94296e-05
1.76173e-05
1.53072e-05
1.28045e-05
1.05106e-05
8.5813e-06
7.11467e-06
6.15765e-06
5.72103e-06
5.83754e-06
6.6853e-06
8.82714e-06
1.3061e-05
1.48572e-05
6.38884e-06
2.32772e-06
2.07857e-07
1.87717e-07
3.10235e-06
8.26168e-06
1.95411e-05
3.28027e-05
3.7911e-05
3.73448e-05
3.43953e-05
3.09312e-05
2.79103e-05
2.56328e-05
2.41006e-05
2.31767e-05
2.26673e-05
2.23874e-05
2.21632e-05
2.18146e-05
2.11464e-05
1.99692e-05
1.81834e-05
1.58696e-05
1.33318e-05
1.09755e-05
8.96632e-06
7.41605e-06
6.38344e-06
5.8875e-06
5.96669e-06
6.80602e-06
8.98151e-06
1.32898e-05
1.50308e-05
6.44227e-06
2.34424e-06
2.09083e-07
1.91061e-07
3.11298e-06
8.31153e-06
1.97072e-05
3.29359e-05
3.78439e-05
3.71173e-05
3.40828e-05
3.06179e-05
2.76559e-05
2.54665e-05
2.40332e-05
2.32088e-05
2.27967e-05
2.26113e-05
2.24776e-05
2.22128e-05
2.16164e-05
2.04923e-05
1.87346e-05
1.64205e-05
1.38562e-05
1.14462e-05
9.36414e-06
7.73451e-06
6.62792e-06
6.0722e-06
6.11228e-06
6.94064e-06
9.14656e-06
1.35246e-05
1.52101e-05
6.49817e-06
2.36099e-06
2.10299e-07
1.94304e-07
3.12289e-06
8.35933e-06
1.9868e-05
3.30552e-05
3.77583e-05
3.68696e-05
3.37515e-05
3.02895e-05
2.73898e-05
2.52904e-05
2.39571e-05
2.32321e-05
2.29162e-05
2.28236e-05
2.27784e-05
2.25949e-05
2.20681e-05
2.09956e-05
1.92667e-05
1.69572e-05
1.43746e-05
1.19193e-05
9.7716e-06
8.06768e-06
6.88969e-06
6.27459e-06
6.27444e-06
7.08984e-06
9.32361e-06
1.37672e-05
1.53956e-05
6.55654e-06
2.37803e-06
2.11515e-07
1.97434e-07
3.13187e-06
8.4044e-06
2.00219e-05
3.31585e-05
3.76526e-05
3.66e-05
3.34005e-05
2.99458e-05
2.71122e-05
2.51056e-05
2.38739e-05
2.32489e-05
2.30287e-05
2.30273e-05
2.3068e-05
2.29627e-05
2.25017e-05
2.1478e-05
1.97774e-05
1.74758e-05
1.48826e-05
1.23906e-05
1.0185e-05
8.41267e-06
7.16678e-06
6.4937e-06
6.45315e-06
7.25448e-06
9.51415e-06
1.40192e-05
1.55877e-05
6.61753e-06
2.39542e-06
2.12743e-07
2.00468e-07
3.14009e-06
8.44732e-06
2.01704e-05
3.32476e-05
3.75276e-05
3.63089e-05
3.30301e-05
2.95872e-05
2.68238e-05
2.49127e-05
2.37844e-05
2.326e-05
2.3135e-05
2.32232e-05
2.33471e-05
2.33164e-05
2.29173e-05
2.19387e-05
2.0265e-05
1.79741e-05
1.53772e-05
1.28561e-05
1.06006e-05
8.76636e-06
7.45709e-06
6.72835e-06
6.64797e-06
7.43484e-06
9.71951e-06
1.42824e-05
1.57865e-05
6.68107e-06
2.41318e-06
2.13985e-07
2.03407e-07
3.14749e-06
8.48793e-06
2.03132e-05
3.33216e-05
3.73816e-05
3.59948e-05
3.26394e-05
2.92136e-05
2.65252e-05
2.47127e-05
2.36901e-05
2.32675e-05
2.32377e-05
2.34142e-05
2.36187e-05
2.36584e-05
2.33161e-05
2.23779e-05
2.07286e-05
1.84499e-05
1.58555e-05
1.33128e-05
1.10149e-05
9.12562e-06
7.75809e-06
6.97701e-06
6.85881e-06
7.63268e-06
9.94144e-06
1.45588e-05
1.5992e-05
6.74727e-06
2.4314e-06
2.1525e-07
2.06266e-07
3.15422e-06
8.52676e-06
2.04517e-05
3.33818e-05
3.72152e-05
3.56575e-05
3.22284e-05
2.88252e-05
2.62164e-05
2.45059e-05
2.35912e-05
2.32719e-05
2.33376e-05
2.36016e-05
2.38843e-05
2.39904e-05
2.36997e-05
2.27967e-05
2.11684e-05
1.89025e-05
1.63157e-05
1.37581e-05
1.14253e-05
9.48793e-06
8.06775e-06
7.23834e-06
7.08502e-06
7.84774e-06
1.01813e-05
1.48499e-05
1.62042e-05
6.81613e-06
2.45012e-06
2.16537e-07
2.09051e-07
3.16028e-06
8.56387e-06
2.05859e-05
3.34272e-05
3.70267e-05
3.52957e-05
3.17966e-05
2.84222e-05
2.58981e-05
2.42931e-05
2.34889e-05
2.32744e-05
2.34364e-05
2.37874e-05
2.41462e-05
2.43147e-05
2.40702e-05
2.31964e-05
2.15849e-05
1.93313e-05
1.67559e-05
1.41896e-05
1.1829e-05
9.85072e-06
8.38409e-06
7.51103e-06
7.32589e-06
8.07997e-06
1.04402e-05
1.51574e-05
1.64231e-05
6.88775e-06
2.46941e-06
2.17851e-07
2.11773e-07
3.16578e-06
8.59963e-06
2.07166e-05
3.34585e-05
3.68162e-05
3.49095e-05
3.13445e-05
2.80052e-05
2.55709e-05
2.40746e-05
2.33832e-05
2.3275e-05
2.35341e-05
2.3972e-05
2.44052e-05
2.46328e-05
2.44292e-05
2.35788e-05
2.19795e-05
1.9737e-05
1.71762e-05
1.46063e-05
1.22246e-05
1.02122e-05
8.70516e-06
7.79335e-06
7.58024e-06
8.32912e-06
1.07189e-05
1.54821e-05
1.66482e-05
6.96213e-06
2.48932e-06
2.19194e-07
2.14432e-07
3.17072e-06
8.634e-06
2.08438e-05
3.34749e-05
3.65827e-05
3.44983e-05
3.08723e-05
2.7575e-05
2.52359e-05
2.38518e-05
2.32755e-05
2.32748e-05
2.36317e-05
2.41563e-05
2.46627e-05
2.49462e-05
2.47783e-05
2.39453e-05
2.23534e-05
2.01204e-05
1.75759e-05
1.50068e-05
1.26099e-05
1.05703e-05
9.02928e-06
8.08423e-06
7.84761e-06
8.59527e-06
1.1018e-05
1.58249e-05
1.68791e-05
7.03916e-06
2.50987e-06
2.20567e-07
2.17035e-07
3.17513e-06
8.66714e-06
2.09677e-05
3.34766e-05
3.63261e-05
3.40623e-05
3.03808e-05
2.71324e-05
2.48937e-05
2.36259e-05
2.31661e-05
2.32735e-05
2.37285e-05
2.43399e-05
2.49185e-05
2.52553e-05
2.5119e-05
2.4298e-05
2.27089e-05
2.04836e-05
1.79564e-05
1.53912e-05
1.29844e-05
1.09235e-05
9.35472e-06
8.38178e-06
8.12669e-06
8.87815e-06
1.13382e-05
1.61868e-05
1.71156e-05
7.11884e-06
2.53112e-06
2.21971e-07
2.19582e-07
3.17903e-06
8.69914e-06
2.10885e-05
3.3463e-05
3.60459e-05
3.36019e-05
2.98712e-05
2.66788e-05
2.45455e-05
2.33995e-05
2.30565e-05
2.32716e-05
2.38248e-05
2.4523e-05
2.5173e-05
2.55606e-05
2.54517e-05
2.46379e-05
2.30476e-05
2.08283e-05
1.83186e-05
1.57597e-05
1.33473e-05
1.12709e-05
9.68028e-06
8.68513e-06
8.41685e-06
9.17736e-06
1.16795e-05
1.65674e-05
1.73571e-05
7.20107e-06
2.55306e-06
2.23411e-07
2.22075e-07
3.18245e-06
8.73012e-06
2.12065e-05
3.34341e-05
3.57421e-05
3.31179e-05
2.93451e-05
2.62155e-05
2.41911e-05
2.31679e-05
2.2943e-05
2.32673e-05
2.39199e-05
2.47055e-05
2.54261e-05
2.58624e-05
2.57774e-05
2.49668e-05
2.33723e-05
2.11579e-05
1.86648e-05
1.61133e-05
1.36985e-05
1.16116e-05
1.00048e-05
8.9931e-06
8.71679e-06
9.49226e-06
1.20418e-05
1.6967e-05
1.76032e-05
7.28563e-06
2.57569e-06
2.24887e-07
2.2452e-07
3.18548e-06
8.76034e-06
2.1322e-05
3.33897e-05
3.5415e-05
3.26119e-05
2.88051e-05
2.57455e-05
2.38335e-05
2.29348e-05
2.28285e-05
2.32621e-05
2.40144e-05
2.48871e-05
2.56774e-05
2.61602e-05
2.60957e-05
2.52848e-05
2.36843e-05
2.14752e-05
1.89971e-05
1.6453e-05
1.40381e-05
1.19447e-05
1.03268e-05
9.30429e-06
9.02599e-06
9.82259e-06
1.2425e-05
1.73849e-05
1.7853e-05
7.37237e-06
2.599e-06
2.26402e-07
2.26912e-07
3.18809e-06
8.78973e-06
2.14346e-05
3.33291e-05
3.50647e-05
3.20854e-05
2.82534e-05
2.52702e-05
2.34731e-05
2.26993e-05
2.27114e-05
2.32546e-05
2.41069e-05
2.50668e-05
2.5926e-05
2.64534e-05
2.64066e-05
2.55931e-05
2.39863e-05
2.1784e-05
1.93183e-05
1.67808e-05
1.43673e-05
1.22706e-05
1.06462e-05
9.61789e-06
9.34295e-06
1.01664e-05
1.28276e-05
1.78193e-05
1.81051e-05
7.46074e-06
2.6229e-06
2.27957e-07
2.29249e-07
3.1903e-06
8.8182e-06
2.15437e-05
3.32521e-05
3.46926e-05
3.15416e-05
2.76939e-05
2.47932e-05
2.31127e-05
2.24631e-05
2.25926e-05
2.32443e-05
2.4196e-05
2.52428e-05
2.617e-05
2.674e-05
2.67084e-05
2.58905e-05
2.42776e-05
2.20844e-05
1.96291e-05
1.70973e-05
1.46861e-05
1.2589e-05
1.09622e-05
9.93312e-06
9.66751e-06
1.05245e-05
1.32491e-05
1.82693e-05
1.83594e-05
7.55079e-06
2.6474e-06
2.29556e-07
2.31516e-07
3.19197e-06
8.84522e-06
2.16478e-05
3.31577e-05
3.42991e-05
3.09823e-05
2.71289e-05
2.43166e-05
2.27536e-05
2.22271e-05
2.2472e-05
2.32306e-05
2.42806e-05
2.54135e-05
2.64077e-05
2.70186e-05
2.7e-05
2.6176e-05
2.45576e-05
2.23753e-05
1.99294e-05
1.74029e-05
1.49952e-05
1.29001e-05
1.12744e-05
1.02489e-05
9.99804e-06
1.0895e-05
1.36884e-05
1.87324e-05
1.86135e-05
7.64162e-06
2.67234e-06
2.31199e-07
2.33705e-07
3.19304e-06
8.8704e-06
2.1746e-05
3.30461e-05
3.38862e-05
3.04106e-05
2.65618e-05
2.38432e-05
2.23984e-05
2.1993e-05
2.23506e-05
2.32135e-05
2.43597e-05
2.55771e-05
2.66368e-05
2.7287e-05
2.72794e-05
2.64482e-05
2.48245e-05
2.26546e-05
2.02178e-05
1.76972e-05
1.52947e-05
1.32042e-05
1.1583e-05
1.05654e-05
1.03343e-05
1.12774e-05
1.41444e-05
1.92069e-05
1.88673e-05
7.73293e-06
2.69763e-06
2.32884e-07
2.35803e-07
3.19333e-06
8.89301e-06
2.18367e-05
3.29167e-05
3.34535e-05
2.9827e-05
2.59933e-05
2.33739e-05
2.20483e-05
2.17625e-05
2.223e-05
2.31942e-05
2.44339e-05
2.57334e-05
2.68567e-05
2.75443e-05
2.75462e-05
2.67069e-05
2.50783e-05
2.29212e-05
2.04932e-05
1.7979e-05
1.55834e-05
1.35003e-05
1.18871e-05
1.08815e-05
1.06752e-05
1.16706e-05
1.4616e-05
1.9692e-05
1.91191e-05
7.82395e-06
2.72311e-06
2.34606e-07
2.37808e-07
3.19279e-06
8.91291e-06
2.19198e-05
3.27699e-05
3.30017e-05
2.92322e-05
2.54241e-05
2.29098e-05
2.17046e-05
2.15374e-05
2.21125e-05
2.31748e-05
2.45044e-05
2.58826e-05
2.70666e-05
2.77893e-05
2.77992e-05
2.69515e-05
2.53189e-05
2.31749e-05
2.07552e-05
1.82476e-05
1.58604e-05
1.37875e-05
1.21861e-05
1.1197e-05
1.10209e-05
1.20747e-05
1.5103e-05
2.01865e-05
1.93669e-05
7.91413e-06
2.74868e-06
2.3637e-07
2.39726e-07
3.19139e-06
8.92997e-06
2.19954e-05
3.26052e-05
3.25287e-05
2.86243e-05
2.48527e-05
2.24497e-05
2.13675e-05
2.1319e-05
2.20005e-05
2.31584e-05
2.45746e-05
2.60279e-05
2.72689e-05
2.80236e-05
2.80397e-05
2.71837e-05
2.55486e-05
2.34173e-05
2.10051e-05
1.85042e-05
1.61263e-05
1.40655e-05
1.24789e-05
1.15103e-05
1.13695e-05
1.24879e-05
1.56028e-05
2.06871e-05
1.96099e-05
8.00291e-06
2.77417e-06
2.3817e-07
2.41573e-07
3.18929e-06
8.94478e-06
2.2065e-05
3.24227e-05
3.20337e-05
2.80025e-05
2.42783e-05
2.19932e-05
2.10371e-05
2.11085e-05
2.1896e-05
2.3148e-05
2.4648e-05
2.61724e-05
2.74663e-05
2.82493e-05
2.82697e-05
2.7406e-05
2.57705e-05
2.36505e-05
2.12443e-05
1.87496e-05
1.63818e-05
1.43349e-05
1.27661e-05
1.18218e-05
1.1721e-05
1.29096e-05
1.61143e-05
2.11917e-05
1.98477e-05
8.09018e-06
2.79955e-06
2.40003e-07
2.4337e-07
3.18662e-06
8.95793e-06
2.21297e-05
3.22212e-05
3.15145e-05
2.73653e-05
2.36995e-05
2.15387e-05
2.07129e-05
2.09058e-05
2.18001e-05
2.31461e-05
2.47285e-05
2.63211e-05
2.76634e-05
2.84707e-05
2.8493e-05
2.76224e-05
2.59894e-05
2.38777e-05
2.14752e-05
1.89856e-05
1.6628e-05
1.45964e-05
1.30477e-05
1.21312e-05
1.20749e-05
1.33389e-05
1.66352e-05
2.16975e-05
2.00792e-05
8.17542e-06
2.82468e-06
2.41864e-07
2.45135e-07
3.18364e-06
8.97023e-06
2.21906e-05
3.2e-05
3.09713e-05
2.67145e-05
2.31172e-05
2.10858e-05
2.03958e-05
2.07099e-05
2.1711e-05
2.31523e-05
2.48175e-05
2.64766e-05
2.78637e-05
2.86909e-05
2.87126e-05
2.78359e-05
2.6208e-05
2.41013e-05
2.16993e-05
1.92132e-05
1.68655e-05
1.485e-05
1.33229e-05
1.24366e-05
1.24286e-05
1.37737e-05
1.71639e-05
2.22029e-05
2.03042e-05
8.25864e-06
2.84958e-06
2.43747e-07
2.46875e-07
3.18044e-06
8.98188e-06
2.22474e-05
3.17577e-05
3.0405e-05
2.6053e-05
2.25338e-05
2.06337e-05
2.00791e-05
2.05148e-05
2.16251e-05
2.31647e-05
2.4915e-05
2.66407e-05
2.80703e-05
2.89135e-05
2.89316e-05
2.80485e-05
2.64272e-05
2.43223e-05
2.19183e-05
1.94341e-05
1.70958e-05
1.50969e-05
1.35933e-05
1.27409e-05
1.27868e-05
1.42136e-05
1.76974e-05
2.27045e-05
2.05213e-05
8.33923e-06
2.87407e-06
2.45641e-07
2.48583e-07
3.17713e-06
8.99272e-06
2.22985e-05
3.14943e-05
2.98192e-05
2.53863e-05
2.19538e-05
2.01857e-05
1.97642e-05
2.032e-05
2.15399e-05
2.318e-05
2.50179e-05
2.68115e-05
2.82827e-05
2.91394e-05
2.91513e-05
2.82611e-05
2.66464e-05
2.45406e-05
2.21323e-05
1.9649e-05
1.73199e-05
1.53381e-05
1.38597e-05
1.30445e-05
1.31485e-05
1.46591e-05
1.82354e-05
2.32019e-05
2.07309e-05
8.41718e-06