/*--------------------------------*- C++ -*----------------------------------*\
| =========                 |                                                 |
| \\      /  F ield         | OpenFOAM: The Open Source CFD Toolbox           |
|  \\    /   O peration     | Version:  v2006                                 |
|   \\  /    A nd           | Website:  www.openfoam.com                      |
|    \\/     M anipulation  |                                                 |
\*---------------------------------------------------------------------------*/
FoamFile
{
    version     2.0;
    format      ascii;
    class       volScalarField;
    location    "95";
    object      k;
}
// * * * * * * * * * * * * * * * * * * * * * * * * * * * * * * * * * * * * * //

dimensions      [0 2 -2 0 0 0 0];


internalField   nonuniform List<scalar> 
78750
(
4.14927e-07
2.98917e-06
5.69196e-06
8.42831e-06
1.1128e-05
1.37547e-05
1.62837e-05
1.86927e-05
2.09605e-05
2.3069e-05
2.5003e-05
2.67511e-05
2.83048e-05
2.96599e-05
3.08091e-05
3.17395e-05
3.24484e-05
3.29325e-05
3.31871e-05
3.32062e-05
3.29829e-05
3.24995e-05
3.17426e-05
3.06949e-05
2.93379e-05
2.76556e-05
2.56294e-05
2.32525e-05
2.05422e-05
1.75268e-05
1.4231e-05
1.07065e-05
7.16627e-06
4.03245e-06
1.57297e-06
1.81182e-06
1.45469e-05
2.61907e-05
3.66037e-05
4.58178e-05
5.39096e-05
6.09362e-05
6.69557e-05
7.20339e-05
7.62402e-05
7.96441e-05
8.2313e-05
8.43111e-05
8.56976e-05
8.65391e-05
8.69093e-05
8.68611e-05
8.64366e-05
8.56735e-05
8.46032e-05
8.32482e-05
8.16122e-05
7.96926e-05
7.74694e-05
7.49064e-05
7.19661e-05
6.85948e-05
6.46685e-05
6.00066e-05
5.43786e-05
4.74393e-05
3.88248e-05
2.87802e-05
1.85691e-05
9.51642e-06
3.18912e-06
2.3074e-05
4.12105e-05
5.70358e-05
7.02599e-05
8.1059e-05
8.97803e-05
9.67339e-05
0.000102158
0.000106239
0.000109134
0.000110979
0.000111899
0.000112008
0.000111418
0.000110239
0.000108575
0.000106518
0.000104154
0.000101567
9.88417e-05
9.604e-05
9.31953e-05
9.03106e-05
8.735e-05
8.42354e-05
8.08426e-05
7.69903e-05
7.24194e-05
6.67539e-05
5.94682e-05
5.01304e-05
3.92529e-05
2.77614e-05
1.70585e-05
4.92396e-06
3.05121e-05
5.36109e-05
7.31736e-05
8.8669e-05
0.000100524
0.000109513
0.00011626
0.000121173
0.000124532
0.000126546
0.000127379
0.000127169
0.000126039
0.000124107
0.000121491
0.000118315
0.000114715
0.000110831
0.000106817
0.000102826
9.90049e-05
9.54628e-05
9.22436e-05
8.93077e-05
8.65263e-05
8.3684e-05
8.04867e-05
7.65575e-05
7.14112e-05
6.44797e-05
5.549e-05
4.51931e-05
3.39321e-05
2.26306e-05
7.07925e-06
3.76596e-05
6.48512e-05
8.71326e-05
0.000103912
0.00011607
0.000124861
0.000131164
0.000135494
0.000138168
0.000139394
0.000139315
0.000138044
0.000135684
0.000132348
0.000128169
0.000123302
0.000117933
0.00011227
0.000106547
0.000101027
9.59807e-05
9.16257e-05
8.8067e-05
8.52768e-05
8.30938e-05
8.12198e-05
7.92259e-05
7.65688e-05
7.26077e-05
6.67079e-05
5.87059e-05
4.9277e-05
3.83173e-05
2.63608e-05
9.17339e-06
4.38265e-05
7.43229e-05
9.87575e-05
0.000116532
0.000128976
0.000137747
0.000143897
0.000147975
0.000150279
0.000150976
0.000150172
0.000147945
0.000144387
0.000139623
0.000133825
0.00012721
0.000120037
0.000112601
0.000105232
9.83019e-05
9.21828e-05
8.7125e-05
8.32069e-05
8.03829e-05
7.84948e-05
7.72442e-05
7.61678e-05
7.46366e-05
7.18919e-05
6.72092e-05
6.04149e-05
5.19156e-05
4.12807e-05
2.89002e-05
1.13234e-05
4.96138e-05
8.29785e-05
0.00010921
0.00012779
0.000140479
0.000149251
0.000155264
0.00015908
0.00016098
0.000161102
0.000159512
0.000156271
0.000151471
0.000145271
0.0001379
0.000129647
0.000120849
0.000111886
0.000103182
9.52181e-05
8.84256e-05
8.2981e-05
7.88772e-05
7.60356e-05
7.43108e-05
7.34445e-05
7.30082e-05
7.23658e-05
7.06928e-05
6.71632e-05
6.1493e-05
5.38063e-05
4.34706e-05
3.09364e-05
1.31128e-05
5.44311e-05
9.02546e-05
0.00011814
0.00013758
0.000150645
0.000159563
0.000165587
0.000169288
0.000170924
0.000170598
0.000168348
0.000164223
0.00015834
0.000150903
0.000142204
0.000132601
0.0001225
0.000112349
0.000102662
9.40081e-05
8.6781e-05
8.10167e-05
7.6637e-05
7.35537e-05
7.166e-05
7.07737e-05
7.05562e-05
7.0431e-05
6.95578e-05
6.70054e-05
6.23078e-05
5.53504e-05
4.53944e-05
3.30378e-05
1.48684e-05
5.90649e-05
9.7198e-05
0.000126609
0.000146841
0.00016026
0.000169309
0.000175317
0.000178862
0.000180186
0.000179369
0.000176431
0.000171429
0.000164509
0.000155927
0.000146036
0.000135257
0.000124062
0.000112973
0.000102603
9.36055e-05
8.62403e-05
8.03894e-05
7.58964e-05
7.26426e-05
7.05376e-05
6.94677e-05
6.92038e-05
6.92793e-05
6.89034e-05
6.70816e-05
6.3168e-05
5.6853e-05
4.73519e-05
3.54241e-05
1.6472e-05
6.33318e-05
0.000103612
0.000134482
0.000155518
0.000169327
0.00017855
0.000184587
0.000188028
0.000189099
0.000187854
0.000184302
0.000178507
0.000170648
0.00016103
0.00015006
0.00013822
0.000126048
0.000114138
0.000103204
9.39712e-05
8.65437e-05
8.06831e-05
7.61633e-05
7.28214e-05
7.0557e-05
6.92895e-05
6.88729e-05
6.8956e-05
6.88379e-05
6.75186e-05
6.4216e-05
5.84635e-05
4.945e-05
3.80431e-05
1.80897e-05
6.74778e-05
0.000109786
0.000142007
0.000163768
0.000177926
0.000187295
0.000193336
0.000196645
0.000197433
0.000195737
0.000191562
0.000184987
0.000176224
0.000165625
0.000153652
0.000140841
0.00012779
0.000115171
0.000103805
9.44688e-05
8.71027e-05
8.13628e-05
7.69521e-05
7.36588e-05
7.13579e-05
6.99777e-05
6.94229e-05
6.94347e-05
6.94142e-05
6.84034e-05
6.55467e-05
6.0259e-05
5.16997e-05
4.07911e-05
1.97491e-05
7.16584e-05
0.000115949
0.000149463
0.000171908
0.000186393
0.000195901
0.00020195
0.000205138
0.000205659
0.000203534
0.000198762
0.000191437
0.000181804
0.000170258
0.000157309
0.00014355
0.000129638
0.000116317
0.000104511
9.50577e-05
8.77623e-05
8.21877e-05
7.79637e-05
7.48213e-05
7.26008e-05
7.12189e-05
7.06013e-05
7.0549e-05
7.05523e-05
6.97199e-05
6.71772e-05
6.22571e-05
5.40783e-05
4.35646e-05
2.14158e-05
7.56476e-05
0.000121765
0.000156462
0.000179528
0.000194315
0.000203956
0.000210012
0.000213079
0.000213337
0.000210794
0.000205448
0.000197412
0.000186961
0.000174529
0.00016067
0.000146024
0.000131306
0.000117327
0.000105117
9.55632e-05
8.83657e-05
8.30019e-05
7.90307e-05
7.61278e-05
7.40935e-05
7.28226e-05
7.22401e-05
7.21764e-05
7.21846e-05
7.14465e-05
6.91078e-05
6.44523e-05
5.65488e-05
4.62935e-05
2.31847e-05
7.98002e-05
0.000127752
0.000163595
0.000187237
0.000202297
0.000212058
0.000218115
0.000221063
0.000221064
0.000218112
0.000212209
0.000203483
0.000192242
0.000178951
0.000164206
0.00014869
0.000133166
0.000118507
0.000105837
9.61246e-05
8.89797e-05
8.38105e-05
8.01029e-05
7.74793e-05
7.56973e-05
7.46221e-05
7.41636e-05
7.41577e-05
7.41938e-05
7.35148e-05
7.13071e-05
6.68295e-05
5.90949e-05
4.89561e-05
2.49339e-05
8.37123e-05
0.000133331
0.000170218
0.000194395
0.000209723
0.000219612
0.000225687
0.000228535
0.000228303
0.000224975
0.000218557
0.000209199
0.000197231
0.000183152
0.000167587
0.000151255
0.000134965
0.000119644
0.000106504
9.66107e-05
8.95119e-05
8.45388e-05
8.11195e-05
7.88196e-05
7.73522e-05
7.65492e-05
7.62958e-05
7.64159e-05
7.65124e-05
7.58742e-05
7.37388e-05
6.93578e-05
6.16861e-05
5.15332e-05
2.67842e-05
8.77968e-05
0.000139112
0.00017703
0.000201716
0.000217294
0.000227305
0.000233396
0.000236146
0.000235686
0.000231994
0.000225082
0.000215119
0.00020246
0.000187629
0.000171276
0.000154148
0.000137086
0.000121072
0.000107377
9.71977e-05
9.00596e-05
8.52329e-05
8.20793e-05
8.01101e-05
7.89913e-05
7.8516e-05
7.85367e-05
7.88515e-05
7.90569e-05
7.84687e-05
7.63739e-05
7.2027e-05
6.43245e-05
5.40391e-05
2.86034e-05
9.16496e-05
0.000144509
0.000183372
0.000208538
0.000224371
0.000234518
0.000240646
0.000243319
0.000242659
0.000238638
0.000231278
0.000220765
0.000207479
0.000191961
0.000174882
0.000157008
0.000139212
0.00012252
0.000108256
9.77495e-05
9.0535e-05
8.58322e-05
8.29444e-05
8.13249e-05
8.05914e-05
8.04956e-05
8.08504e-05
8.14173e-05
8.1771e-05
8.12402e-05
7.91592e-05
7.47922e-05
6.69793e-05
5.64668e-05
3.05097e-05
9.56502e-05
0.000150088
0.000189901
0.000215542
0.000231626
0.000241911
0.000248075
0.000250675
0.000249821
0.000245483
0.000237698
0.00022667
0.000212796
0.000196635
0.000178866
0.000160267
0.000141736
0.000124325
0.000109404
9.84457e-05
9.10467e-05
8.63881e-05
8.372e-05
8.24384e-05
8.21075e-05
8.24311e-05
8.31759e-05
8.40567e-05
8.46115e-05
8.4165e-05
8.20894e-05
7.76618e-05
6.96658e-05
5.88326e-05
3.23849e-05
9.94485e-05
0.000155338
0.000196037
0.00022214
0.000238486
0.000248924
0.00025514
0.000257681
0.000256651
0.000252026
0.000243854
0.00023236
0.000217958
0.000201217
0.000182821
0.000163558
0.000144336
0.000126229
0.000110645
9.91795e-05
9.1537e-05
8.68746e-05
8.43978e-05
8.34488e-05
8.35372e-05
8.43141e-05
8.54927e-05
8.67329e-05
8.75271e-05
8.71835e-05
8.51053e-05
8.05837e-05
7.2348e-05
6.11266e-05
3.43331e-05
0.00010336
0.000160732
0.000202337
0.000228917
0.000245538
0.000256134
0.000262398
0.000264875
0.000263668
0.000258764
0.000250229
0.000238305
0.000223419
0.000206145
0.000187165
0.000167268
0.000147364
0.000128534
0.000112211
0.000100111
9.21057e-05
8.73435e-05
8.49936e-05
8.43468e-05
8.48551e-05
8.61109e-05
8.77664e-05
8.94169e-05
9.04928e-05
9.02788e-05
8.82012e-05
8.35639e-05
7.50393e-05
6.33618e-05
3.62533e-05
0.000107091
0.000165842
0.000208316
0.000235388
0.000252316
0.000263084
0.000269391
0.000271796
0.000270416
0.00026525
0.000256385
0.000244078
0.000228765
0.000211023
0.000191529
0.000171065
0.000150532
0.000131011
0.000113952
0.000101159
9.27189e-05
8.77897e-05
8.55168e-05
8.51464e-05
8.60736e-05
8.78279e-05
8.99933e-05
9.20924e-05
9.349e-05
9.34296e-05
9.13548e-05
8.65791e-05
7.77183e-05
6.55275e-05
3.82346e-05
0.000110893
0.000171038
0.000214412
0.00024203
0.000259328
0.000270269
0.000276573
0.00027887
0.000277301
0.000271881
0.000262711
0.00025006
0.000234369
0.000216209
0.00019625
0.000175258
0.000154118
0.000133898
0.000116054
0.000102453
9.34624e-05
8.82631e-05
8.59894e-05
8.58489e-05
8.71797e-05
8.94425e-05
9.21447e-05
9.47259e-05
9.64731e-05
9.65835e-05
9.45146e-05
8.95901e-05
8.03674e-05
6.76258e-05
4.01919e-05
0.000114524
0.000175962
0.000220203
0.000248421
0.000266097
0.000277232
0.000283542
0.000285696
0.000283938
0.000278286
0.000268848
0.000255901
0.00023989
0.000221378
0.000201024
0.000179574
0.000157887
0.000137009
0.000118389
0.000103932
9.43189e-05
8.8772e-05
8.64316e-05
8.64781e-05
8.81958e-05
9.09738e-05
9.4236e-05
9.73326e-05
9.94653e-05
9.97756e-05
9.77231e-05
9.26313e-05
8.29998e-05
6.96489e-05
4.21986e-05
0.00011819
0.000180906
0.000225996
0.000254801
0.000272808
0.000284148
0.00029053
0.000292566
0.000290636
0.000284773
0.000275096
0.000261892
0.000245605
0.000226792
0.000206095
0.000184233
0.000162035
0.000140515
0.000121099
0.000105707
9.53685e-05
8.93696e-05
8.68731e-05
8.70441e-05
8.91173e-05
9.24063e-05
9.62427e-05
9.9875e-05
0.000102408
0.000102922
0.000100882
9.56213e-05
8.55696e-05
7.15899e-05
4.4185e-05
0.00012171
0.000185627
0.000231536
0.000260873
0.000279201
0.000290758
0.000297251
0.000299264
0.000297136
0.00029107
0.000281186
0.000267771
0.000251263
0.000232212
0.000211241
0.00018904
0.0001664
0.000144291
0.000124105
0.000107756
9.66232e-05
9.00881e-05
8.73529e-05
8.75839e-05
8.99744e-05
9.37624e-05
9.8181e-05
0.000102369
0.000105328
0.000106067
0.000104054
9.8602e-05
8.80963e-05
7.34435e-05
4.62046e-05
0.00012522
0.000190322
0.000237097
0.000266872
0.000285491
0.000297258
0.000303868
0.000305877
0.000303589
0.000297364
0.000287316
0.000273732
0.00025705
0.000237811
0.000216618
0.000194133
0.000171103
0.000148448
0.00012751
0.000110176
9.81665e-05
9.09938e-05
8.79184e-05
8.81266e-05
9.07809e-05
9.50442e-05
0.000100044
0.000104799
0.000108196
0.000109179
0.000107255
0.000101555
9.05592e-05
7.52037e-05
4.81985e-05
0.000128573
0.000194751
0.000242318
0.000272533
0.000291459
0.000303462
0.000310222
0.00031227
0.000309873
0.00030351
0.000293321
0.000279603
0.000262795
0.000243425
0.000222077
0.000199378
0.000176032
0.000152901
0.000131269
0.000112979
0.000100039
9.21438e-05
8.86295e-05
8.87244e-05
9.15751e-05
9.62741e-05
0.000101839
0.000107162
0.000111014
0.000112284
0.000110443
0.00010448
9.29564e-05
7.68668e-05
5.02112e-05
0.000131903
0.000199127
0.000247459
0.000278082
0.000297296
0.000309526
0.000316443
0.000318562
0.000316138
0.000309615
0.0002993
0.000285487
0.0002686
0.000249152
0.000227704
0.000204852
0.000181256
0.000157715
0.000135449
0.000116243
0.000102316
9.36078e-05
8.9547e-05
8.94242e-05
9.23898e-05
9.74748e-05
0.000103587
0.000109485
0.000113826
0.000115447
0.000113668
0.000107454
9.53231e-05
7.84368e-05
5.21967e-05
0.000135097
0.000203282
0.000252324
0.000283335
0.000302836
0.000315299
0.00032238
0.000324581
0.000322142
0.000315508
0.000305122
0.000291267
0.000274356
0.000254888
0.000233403
0.000210466
0.000186694
0.000162825
0.000140008
0.000119962
0.000105029
9.54414e-05
9.07356e-05
9.02864e-05
9.32711e-05
9.86738e-05
0.000105295
0.000111761
0.000116606
0.000118609
0.0001169
0.000110432
9.76504e-05
7.99127e-05
5.41871e-05
0.000138257
0.000207367
0.000257078
0.000288447
0.000308219
0.00032091
0.000328162
0.000330459
0.000328031
0.000321311
0.000310881
0.000297015
0.000280119
0.000260676
0.000239206
0.000216243
0.000192362
0.00016824
0.000144953
0.000124145
0.000108203
9.76885e-05
9.2249e-05
9.13634e-05
9.42626e-05
9.99045e-05
0.000106992
0.000114014
0.000119374
0.000121767
0.000120129
0.000113397
9.9931e-05
8.12971e-05
5.61521e-05
0.000141312
0.000211279
0.000261598
0.000293294
0.000313325
0.000326243
0.000333673
0.000336081
0.000333686
0.000326915
0.00031648
0.000302646
0.000285809
0.000266441
0.00024504
0.000222115
0.000198195
0.000173901
0.000150232
0.000128749
0.000111831
0.000100373
9.41342e-05
9.27106e-05
9.54143e-05
0.000101202
0.000108692
0.000116236
0.000122098
0.000124891
0.000123328
0.000116328
0.000102157
8.25927e-05
5.81137e-05
0.000144331
0.00021513
0.000265992
0.000297976
0.000318246
0.000331385
0.000338995
0.000341524
0.000339181
0.000332388
0.00032197
0.000308192
0.000291446
0.000272191
0.000250906
0.000228072
0.000204178
0.000179787
0.00015582
0.000133748
0.000115907
0.000103509
9.64213e-05
9.43689e-05
9.67667e-05
0.000102597
0.000110413
0.000118438
0.000124798
0.000127969
0.00012648
0.000119208
0.00010432
8.38036e-05
6.00534e-05
0.000147262
0.000218892
0.000270176
0.000302409
0.000322907
0.000336264
0.000344057
0.00034672
0.000344455
0.000337681
0.000327298
0.000313601
0.000296977
0.000277874
0.000256752
0.000234062
0.000210258
0.000185844
0.000161666
0.0001391
0.00012041
0.000107102
9.91396e-05
9.63818e-05
9.83672e-05
0.000104133
0.000112193
0.000120655
0.000127519
0.000131015
0.00012958
0.00012203
0.000106416
8.49341e-05
6.19685e-05
0.000150085
0.000222476
0.000274169
0.000306642
0.000327359
0.000340928
0.000348902
0.000351702
0.000349531
0.000342818
0.00033247
0.000318871
0.000302398
0.000283481
0.00026256
0.000240061
0.000216402
0.000192034
0.00016773
0.000144766
0.000125318
0.000111148
0.000102306
9.87821e-05
0.000100256
0.000105849
0.00011406
0.000122903
0.00013024
0.000134025
0.000132625
0.000124787
0.000108443
8.59881e-05
6.38461e-05
0.00015281
0.000225912
0.000277974
0.000310658
0.000331575
0.000345345
0.000353497
0.000356435
0.000354363
0.000347722
0.000337442
0.000323976
0.000307687
0.00028899
0.000268307
0.00024604
0.000222575
0.000198315
0.000173964
0.000150699
0.000130596
0.000115634
0.000105929
0.000101599
0.000102473
0.000107784
0.000116047
0.000125195
0.000132954
0.000136993
0.000135608
0.000127476
0.0001104
8.69705e-05
6.56917e-05
0.00015543
0.000229197
0.000281583
0.000314455
0.000335566
0.000349534
0.000357862
0.000360939
0.000358971
0.000352421
0.000342238
0.000328928
0.000312848
0.000294397
0.00027398
0.000251979
0.000228749
0.000204651
0.000180324
0.000156852
0.000136204
0.000120532
0.000110004
0.000104848
0.000105049
0.000109973
0.000118183
0.000127549
0.000135667
0.00013992
0.00013853
0.000130095
0.000112288
8.78843e-05
6.75106e-05
0.000157967
0.000232334
0.000285001
0.000318041
0.000339333
0.000353494
0.000361998
0.00036522
0.000363363
0.00035691
0.000346831
0.000333706
0.000317867
0.000299693
0.000279572
0.000257868
0.00023491
0.000211021
0.000186781
0.000163188
0.000142104
0.000125813
0.000114515
0.000108534
0.000108006
0.000112448
0.000120495
0.000129983
0.000138385
0.000142806
0.000141387
0.000132641
0.000114106
8.87357e-05
6.92898e-05
0.000160388
0.000235298
0.000288213
0.000321404
0.000342869
0.000357217
0.000365894
0.000369261
0.000367526
0.00036119
0.000351246
0.000338318
0.000322734
0.000304864
0.000285063
0.000263682
0.000241028
0.00021739
0.000193295
0.000169662
0.000148251
0.000131435
0.000119436
0.000112649
0.000111355
0.000115231
0.000123011
0.000132519
0.000141122
0.000145658
0.000144183
0.000135117
0.000115858
8.95296e-05
7.1033e-05
0.000162713
0.000238117
0.000291245
0.000324567
0.000346192
0.000360719
0.000369565
0.000373076
0.000371465
0.000365256
0.000355467
0.000342763
0.000327455
0.000309901
0.000290453
0.000269421
0.000247099
0.000223747
0.000199847
0.000176246
0.000154609
0.000137365
0.000124736
0.000117178
0.000115098
0.000118336
0.000125749
0.000135174
0.00014389
0.000148481
0.00014692
0.000137524
0.000117547
9.02733e-05
7.27384e-05
0.000164932
0.000240773
0.000294079
0.000327513
0.000349286
0.000363984
0.000372993
0.000376646
0.000375163
0.000369091
0.000359478
0.000347016
0.000332006
0.000314788
0.000295701
0.00027505
0.000253089
0.000230058
0.000206401
0.000182901
0.000161137
0.000143559
0.000130382
0.000122097
0.000119227
0.000121772
0.000128726
0.000137966
0.000146704
0.000151288
0.000149607
0.000139868
0.000119178
9.09729e-05
7.44015e-05
0.00016705
0.000243283
0.000296736
0.000330266
0.000352175
0.000367034
0.0003762
0.000379992
0.000378637
0.00037271
0.00036329
0.000351089
0.000336396
0.000319535
0.000300828
0.000280566
0.000258994
0.000236314
0.000212939
0.000189602
0.000167803
0.000149985
0.000136341
0.000127383
0.000123731
0.000125541
0.000131952
0.000140908
0.000149574
0.000154087
0.00015225
0.000142154
0.000120756
9.16352e-05
7.60209e-05
0.000169062
0.000245636
0.000299203
0.000332808
0.00035484
0.000369851
0.000379165
0.00038309
0.000381862
0.000376086
0.000366873
0.000354949
0.000340589
0.000324104
0.000305799
0.000285949
0.000264783
0.000242485
0.000219434
0.000196318
0.00017457
0.000156605
0.000142577
0.000133005
0.000128592
0.000129637
0.000135435
0.000144014
0.000152517
0.000156892
0.000154861
0.000144392
0.000122291
9.22672e-05
7.75988e-05
0.00017098
0.000247851
0.000301502
0.000335164
0.000357306
0.000372459
0.000381914
0.000385966
0.000384863
0.000379241
0.000370247
0.000358611
0.000344596
0.000328499
0.00031061
0.000291187
0.000270445
0.000248553
0.000225863
0.000203022
0.000181408
0.000163386
0.000149059
0.00013894
0.000133793
0.000134054
0.000139175
0.000147289
0.000155539
0.000159711
0.000157447
0.00014659
0.000123789
9.2876e-05
7.91294e-05
0.000172791
0.000249909
0.000303611
0.000337313
0.000359554
0.000374839
0.000384427
0.0003886
0.00038762
0.000382156
0.000373393
0.000362055
0.000348395
0.000332698
0.000315238
0.000296259
0.000275959
0.000254494
0.000232202
0.000209686
0.000188285
0.000170295
0.000155753
0.000145156
0.000139314
0.000138784
0.000143176
0.000150744
0.000158656
0.000162559
0.000160022
0.000148758
0.000125258
9.34684e-05
8.06183e-05
0.000174511
0.000251832
0.000305556
0.000339281
0.000361609
0.000377017
0.00038673
0.00039102
0.000390159
0.000384856
0.000376331
0.000365296
0.000351996
0.000336703
0.000319679
0.000301152
0.000281307
0.000260285
0.00023841
0.000216275
0.000195167
0.000177295
0.000162625
0.000151626
0.000145136
0.000143816
0.000147437
0.000154383
0.000161875
0.000165445
0.000162596
0.000150906
0.000126708
9.40508e-05
8.20573e-05
0.00017612
0.000253596
0.000307313
0.000341046
0.000363452
0.000378976
0.000388809
0.00039321
0.00039247
0.000387331
0.000379055
0.00036833
0.000355395
0.00034051
0.000323925
0.000305857
0.000286478
0.000265917
0.000244485
0.000222763
0.00020202
0.000184345
0.000169634
0.000158314
0.000151233
0.000149141
0.000151957
0.000158216
0.000165209
0.000168383
0.000165182
0.000153046
0.000128146
9.46291e-05
8.34529e-05
0.000177637
0.000255225
0.000308909
0.000342635
0.000365108
0.000380741
0.000390687
0.000395196
0.000394573
0.000389602
0.000381582
0.000371171
0.000358601
0.000344123
0.000327977
0.000310368
0.000291459
0.00027137
0.000250406
0.000229136
0.000208825
0.000191418
0.000176743
0.000165182
0.000157577
0.000154742
0.000156735
0.000162247
0.000168667
0.000171384
0.00016779
0.000155186
0.00012958
9.52076e-05
8.48002e-05
0.000179048
0.000256702
0.000310326
0.00034403
0.000366563
0.000382297
0.000392353
0.000396967
0.000396463
0.000391666
0.000383913
0.000373823
0.000361619
0.000347547
0.000331836
0.000314685
0.000296246
0.000276635
0.000256153
0.000235369
0.000215547
0.000198474
0.000183909
0.00017219
0.000164132
0.000160597
0.000161767
0.000166487
0.000172266
0.000174464
0.000170437
0.000157339
0.000131017
9.57912e-05
8.61064e-05
0.000180369
0.00025805
0.000311588
0.000345257
0.000367838
0.000383666
0.000393824
0.000398539
0.000398155
0.000393537
0.000386061
0.000376297
0.000364461
0.000350791
0.000335511
0.000318811
0.000300839
0.000281707
0.000261716
0.000241444
0.000222164
0.000205478
0.000191093
0.000179294
0.000170861
0.000166678
0.000167033
0.000170926
0.000176008
0.000177634
0.000173131
0.000159514
0.000132463
9.63818e-05
8.73715e-05
0.000181597
0.00025926
0.000312684
0.000346302
0.000368922
0.000384836
0.000395092
0.000399907
0.000399644
0.000395213
0.000388027
0.000378596
0.000367131
0.000353862
0.000339007
0.000322752
0.000305241
0.000286585
0.000267092
0.000247352
0.000228657
0.000212406
0.000198262
0.000186453
0.000177721
0.000172955
0.000172526
0.000175593
0.000179911
0.000180907
0.000175889
0.000161723
0.000133927
9.69824e-05
8.86026e-05
0.000182745
0.000260351
0.000313634
0.000347185
0.000369831
0.000385823
0.00039617
0.000401079
0.000400939
0.000396702
0.000389818
0.000380729
0.000369638
0.000356769
0.000342335
0.000326517
0.000309459
0.000291274
0.00027228
0.000253087
0.000235015
0.00021924
0.000205387
0.000193636
0.00018468
0.000179396
0.000178224
0.000180465
0.000183977
0.000184293
0.000178719
0.000163974
0.000135413
9.75938e-05
8.98018e-05
0.000183812
0.000261319
0.000314431
0.000347896
0.000370557
0.000386617
0.000397048
0.00040205
0.000402036
0.000398003
0.000391435
0.000382697
0.000371984
0.000359516
0.000345499
0.000330112
0.0003135
0.00029578
0.000277284
0.000258648
0.000241227
0.000225963
0.000212447
0.000200815
0.000191707
0.000185977
0.000184107
0.000185529
0.000188208
0.000187803
0.000181634
0.000166279
0.000136929
9.82175e-05
9.09737e-05
0.000184807
0.000262174
0.000315087
0.000348446
0.000371108
0.000387227
0.000397735
0.000402826
0.000402942
0.000399122
0.000392883
0.000384503
0.000374174
0.000362107
0.000348506
0.000333545
0.000317372
0.000300111
0.000282111
0.00026404
0.000247293
0.000232566
0.000219427
0.000207967
0.000198772
0.000192662
0.000190144
0.000190767
0.000192598
0.000191439
0.000184643
0.000168645
0.00013848
9.88545e-05
9.21192e-05
0.000185729
0.000262914
0.000315596
0.00034883
0.00037148
0.000387646
0.000398224
0.000403404
0.000403656
0.000400063
0.000394165
0.000386151
0.000376209
0.000364546
0.000351359
0.000336822
0.000321082
0.000304275
0.000286769
0.000269269
0.000253212
0.000239044
0.000226314
0.000215073
0.000205852
0.00019943
0.00019632
0.000196169
0.000197143
0.000195203
0.000187749
0.000171079
0.000140071
9.95058e-05
9.32399e-05
0.000186581
0.000263544
0.000315964
0.000349054
0.000371676
0.000387879
0.000398519
0.000403785
0.000404185
0.00040084
0.000395288
0.000387641
0.000378088
0.00036683
0.000354059
0.000339946
0.000324638
0.000308283
0.00029127
0.000274348
0.000258994
0.000245399
0.0002331
0.000222117
0.000212924
0.000206248
0.000202604
0.000201717
0.000201837
0.000199099
0.000190962
0.000173588
0.000141704
0.000100172
9.43371e-05
0.000187364
0.000264065
0.000316193
0.000349117
0.000371697
0.000387923
0.000398614
0.000403966
0.000404529
0.000401479
0.000396254
0.000388971
0.000379809
0.000368961
0.000356609
0.000342921
0.000328046
0.000312142
0.000295627
0.000279293
0.000264648
0.000251634
0.000239784
0.000229088
0.00021997
0.000213098
0.000208978
0.000207396
0.000206671
0.000203124
0.000194281
0.000176175
0.000143386
0.000100855
9.54113e-05
0.00018808
0.000264479
0.000316285
0.000349023
0.000371544
0.000387779
0.000398509
0.000403935
0.000404655
0.000401902
0.000397022
0.000390119
0.000381362
0.000370932
0.000359007
0.000345749
0.000331312
0.000315865
0.000299855
0.000284127
0.000270189
0.000257758
0.000246365
0.000235979
0.000226975
0.000219962
0.000215414
0.000213185
0.000211634
0.000207276
0.000197711
0.000178845
0.000145117
0.000101554
9.64646e-05
0.000188735
0.000264792
0.000316244
0.000348776
0.000371224
0.000387455
0.000398213
0.000403707
0.000404588
0.000402145
0.000397617
0.000391101
0.000382754
0.000372749
0.000361256
0.000348434
0.000334442
0.000319462
0.000303974
0.000288879
0.000275639
0.000263783
0.000252848
0.000242784
0.000233923
0.000226816
0.000221899
0.000219071
0.000216718
0.000211551
0.000201251
0.0001816
0.000146901
0.000102272
9.74955e-05
0.000189324
0.000264998
0.000316068
0.000348373
0.000370733
0.000386947
0.00039772
0.000403275
0.000404316
0.000402191
0.000398024
0.000391903
0.000383975
0.000374404
0.000363351
0.000350975
0.000337439
0.000322942
0.000308003
0.00029358
0.000281022
0.000269728
0.000259244
0.000249508
0.000240811
0.000233647
0.000228409
0.000225017
0.000221899
0.000215934
0.000204893
0.000184435
0.000148735
0.000103009
9.85023e-05
0.000189846
0.0002651
0.000315759
0.000347822
0.000370082
0.000386269
0.000397046
0.000402654
0.000403856
0.000402054
0.000398252
0.000392529
0.000385024
0.000375892
0.000365286
0.000353365
0.000340297
0.000326303
0.00031194
0.000298233
0.000286342
0.000275597
0.000265556
0.000256149
0.00024763
0.000240442
0.000234931
0.000231036
0.000227172
0.000220426
0.000208641
0.000187358
0.000150625
0.000103766
9.94793e-05
0.000190293
0.000265085
0.00031531
0.000347118
0.000369268
0.000385419
0.000396193
0.000401851
0.000403213
0.000401739
0.000398303
0.000392979
0.0003859
0.000377209
0.000367057
0.000355598
0.000343009
0.000329534
0.000315773
0.000302819
0.000291591
0.000281388
0.000271786
0.000262707
0.000254376
0.000247186
0.000241441
0.000237089
0.000232515
0.000225002
0.000212475
0.000190354
0.000152563
0.000104544
0.000100423
0.000190662
0.000264956
0.000314726
0.000346269
0.000368304
0.000384414
0.000395181
0.000400886
0.000402409
0.000401266
0.000398193
0.000393264
0.000386606
0.000378356
0.000368658
0.000357666
0.000345566
0.000332624
0.000319487
0.000307311
0.000296747
0.000287088
0.000277925
0.000269179
0.000261047
0.000253878
0.000247934
0.000243169
0.000237926
0.000229665
0.000216397
0.000193423
0.000154549
0.000105342
0.000101327
0.000190943
0.000264703
0.000314001
0.000345271
0.000367188
0.000383254
0.000394015
0.000399771
0.000401462
0.000400653
0.000397939
0.000393398
0.000387154
0.000379339
0.000370093
0.00035957
0.000347965
0.000335567
0.000323072
0.000311691
0.000301791
0.000292677
0.000283957
0.000275549
0.000267627
0.000260497
0.000254384
0.000249248
0.000243373
0.000234395
0.000220395
0.000196559
0.000156579
0.000106157
0.000102192
0.000191142
0.000264336
0.000313148
0.000344138
0.000365932
0.000381954
0.000392711
0.000398525
0.000400393
0.000399925
0.000397568
0.000393405
0.000387563
0.000380173
0.000371372
0.000361316
0.000350208
0.000338364
0.000326528
0.000315952
0.000306717
0.000298147
0.000289871
0.000281808
0.00027411
0.000267044
0.000260795
0.000255327
0.000248855
0.000239183
0.000224456
0.000199746
0.00015864
0.000106991
0.000103019
0.000191261
0.00026386
0.000312168
0.000342868
0.000364533
0.00038051
0.000391268
0.000397154
0.000399217
0.000399101
0.000397102
0.000393309
0.000387857
0.000380879
0.000372514
0.00036292
0.000352311
0.00034103
0.000329873
0.0003201
0.000311523
0.000303492
0.000295657
0.000287939
0.000280474
0.000273489
0.000267133
0.000261375
0.000254343
0.000244006
0.000228564
0.000202975
0.000160728
0.000107843
0.000103816
0.000191315
0.000263291
0.000311075
0.000341472
0.000363
0.000378928
0.000389691
0.000395666
0.000397946
0.000398197
0.000396558
0.000393131
0.000388059
0.000381483
0.000373543
0.000364405
0.000354297
0.000343592
0.000333136
0.000324154
0.000316222
0.00030872
0.00030132
0.000293948
0.000286722
0.000279833
0.000273394
0.000267384
0.00025983
0.000248856
0.000232714
0.000206243
0.000162846
0.00010871
0.000104591
0.000191316
0.000262638
0.000309874
0.00033995
0.000361327
0.000377196
0.000387967
0.000394053
0.000396586
0.000397216
0.000395942
0.000392882
0.000388188
0.000382006
0.000374485
0.000365799
0.000356196
0.000346083
0.00033636
0.000328139
0.000320829
0.000313839
0.000306863
0.000299831
0.000292847
0.000286068
0.000279572
0.000273345
0.000265301
0.000253716
0.000236887
0.000209537
0.000164982
0.00010959
0.000105352
0.000191277
0.000261914
0.000308575
0.000338309
0.000359518
0.000375314
0.000386088
0.000392308
0.000395165
0.000396149
0.00039524
0.000392558
0.000388249
0.000382464
0.000375361
0.000367128
0.000358035
0.000348531
0.000339574
0.000332081
0.000325363
0.000318861
0.000312289
0.000305585
0.000298835
0.000292163
0.000285617
0.00027922
0.000270735
0.000258576
0.000241081
0.000212856
0.000167138
0.000110481
0.000106103
0.000191199
0.000261115
0.000307172
0.000336545
0.00035757
0.000373274
0.000384034
0.000390379
0.000393573
0.000394931
0.000394418
0.000392139
0.000388235
0.000382859
0.00037618
0.000368403
0.00035983
0.000350951
0.000342783
0.000335987
0.000329835
0.000323798
0.000317612
0.000311221
0.000304702
0.000298158
0.000291632
0.000285033
0.00027612
0.000263415
0.000245272
0.000216181
0.000169302
0.000111377
0.00010684
0.000191082
0.000260237
0.000305666
0.000334664
0.000355491
0.000371089
0.000381824
0.000388293
0.000391831
0.000393574
0.000393474
0.000391618
0.000388139
0.000383189
0.000376945
0.000369634
0.000361588
0.000353348
0.00034598
0.000339858
0.000334249
0.000328658
0.000322843
0.000316755
0.000310465
0.000304065
0.000297592
0.000290792
0.000281465
0.000268235
0.00024946
0.000219511
0.000171468