/*--------------------------------*- C++ -*----------------------------------*\
| =========                 |                                                 |
| \\      /  F ield         | OpenFOAM: The Open Source CFD Toolbox           |
|  \\    /   O peration     | Version:  v2006                                 |
|   \\  /    A nd           | Website:  www.openfoam.com                      |
|    \\/     M anipulation  |                                                 |
\*---------------------------------------------------------------------------*/
FoamFile
{
    version     2.0;
    format      ascii;
    class       volScalarField;
    location    "95";
    object      omega;
}
// * * * * * * * * * * * * * * * * * * * * * * * * * * * * * * * * * * * * * //

dimensions      [0 0 -1 0 0 0 0];


internalField   nonuniform List<scalar> 
78750
(
352.331
13.544
13.5681
13.5922
13.6159
13.6389
13.661
13.6821
13.7019
13.7203
13.7372
13.7526
13.7663
13.7784
13.7887
13.7972
13.8039
13.8088
13.8117
13.8128
13.8119
13.8088
13.8036
13.7959
13.7858
13.7729
13.7572
13.7386
13.7172
13.6938
13.6696
13.6478
13.6342
13.6363
356.288
517.011
4.16012
4.25257
4.33352
4.40392
4.46489
4.51722
4.56164
4.59886
4.62953
4.65429
4.67369
4.68827
4.69847
4.7048
4.70778
4.70779
4.70513
4.70006
4.69279
4.68346
4.67209
4.65863
4.64293
4.6247
4.60364
4.57932
4.55079
4.5167
4.47535
4.42433
4.36129
4.28871
4.21692
523.099
517.023
4.228
4.36884
4.4881
4.58542
4.66346
4.72562
4.77469
4.81271
4.84121
4.86144
4.87443
4.88107
4.88219
4.87853
4.87083
4.85979
4.84601
4.83004
4.81245
4.7938
4.77451
4.7548
4.73469
4.71391
4.69192
4.66781
4.64029
4.6075
4.56677
4.51445
4.44763
4.37037
4.29009
523.441
517.038
4.28626
4.46247
4.60647
4.71748
4.80076
4.86306
4.90941
4.943
4.96598
4.97987
4.98585
4.98487
4.97775
4.96524
4.94809
4.92709
4.9031
4.87702
4.84987
4.82267
4.79643
4.77193
4.74949
4.72887
4.70918
4.68895
4.66611
4.63806
4.60144
4.55234
4.48899
4.41695
4.33933
523.792
517.057
4.34142
4.54554
4.70625
4.82382
4.90736
4.96702
5.00948
5.03859
5.05666
5.06517
5.06512
5.05723
5.04217
5.02059
4.99329
4.96122
4.92552
4.88752
4.84878
4.81106
4.77627
4.746
4.72106
4.70133
4.68576
4.67229
4.65797
4.63903
4.6111
4.56986
4.51429
4.4493
4.37465
524.132
517.074
4.38837
4.61429
4.78769
4.9101
4.99414
5.05268
5.09347
5.12051
5.13595
5.14097
5.13628
5.12238
5.09977
5.06916
5.0315
4.9881
4.94052
4.89063
4.84064
4.7931
4.75067
4.71526
4.68757
4.66743
4.65382
4.64472
4.63691
4.62609
4.60705
4.57488
4.52847
4.47076
4.39909
524.457
517.093
4.43195
4.67617
4.85966
4.98568
5.07009
5.12779
5.16713
5.19214
5.20483
5.20616
5.19657
5.17639
5.14607
5.10645
5.05881
5.00482
4.94654
4.88637
4.82718
4.77232
4.72498
4.68663
4.65744
4.63704
4.62452
4.61816
4.615
4.61067
4.59952
4.57593
4.53798
4.48658
4.41761
524.77
517.108
4.4679
4.72757
4.92035
5.05055
5.13636
5.19428
5.23322
5.25723
5.26814
5.26669
5.2531
5.22758
5.1907
5.1435
5.08759
5.02503
4.95827
4.89019
4.82426
4.76452
4.71399
4.67323
4.64195
4.61974
4.60599
4.59952
4.59803
4.59757
4.59238
4.57609
4.54545
4.49969
4.43394
525.057
517.123
4.50216
4.77604
4.97712
5.11104
5.19812
5.25622
5.29463
5.31742
5.3263
5.32185
5.30415
5.27342
5.23034
5.17622
5.11297
5.04303
4.96924
4.89497
4.8244
4.76223
4.71066
4.66922
4.63708
4.61362
4.59836
4.59061
4.58889
4.59003
4.58863
4.57784
4.55312
4.51234
4.45032
525.327
517.137
4.53353
4.82044
5.02941
5.16715
5.2558
5.31437
5.35257
5.37451
5.38177
5.37477
5.35348
5.31814
5.26956
5.20929
5.13953
5.06303
4.98305
4.90342
4.82908
4.7653
4.71327
4.67174
4.6394
4.6153
4.59891
4.5898
4.58707
4.58841
4.58905
4.58209
4.56202
4.5256
4.46752
525.576
517.151
4.56374
4.86271
5.07878
5.21985
5.30982
5.36872
5.40659
5.42753
5.43303
5.42338
5.39851
5.35868
5.30487
5.23885
5.16308
5.08064
4.99512
4.91092
4.83371
4.76925
4.71766
4.67698
4.64542
4.6217
4.60508
4.59521
4.59157
4.59252
4.59403
4.5895
4.57285
4.54007
4.48565
525.811
517.165
4.59406
4.90463
5.12732
5.27141
5.36255
5.42176
5.45934
5.47937
5.48324
5.4711
5.44285
5.39879
5.34002
5.26851
5.18697
5.09877
5.00789
4.91917
4.83908
4.77384
4.72276
4.68326
4.65305
4.63043
4.61442
4.60459
4.60058
4.60118
4.60301
4.59993
4.58575
4.55587
4.50455
526.033
517.179
4.62275
4.94378
5.17239
5.31915
5.41136
5.47086
5.50817
5.52732
5.52962
5.51511
5.48366
5.43563
5.37226
5.29568
5.20881
5.11527
5.01938
4.92646
4.84371
4.77782
4.72745
4.68945
4.66105
4.64017
4.62554
4.61657
4.61288
4.6135
4.61549
4.61326
4.60071
4.57298
4.52397
526.244
517.194
4.65247
4.98382
5.21798
5.36707
5.46015
5.51986
5.55687
5.57518
5.57595
5.55915
5.52464
5.47283
5.40508
5.32366
5.23168
5.13296
5.03212
4.93488
4.84912
4.7822
4.73222
4.69561
4.6691
4.65023
4.63744
4.62992
4.62719
4.62831
4.63062
4.62895
4.61751
4.59126
4.54378
526.445
517.209
4.68026
5.0208
5.25991
5.41114
5.50509
5.56511
5.60195
5.61954
5.61896
5.60011
5.56281
5.50759
5.43588
5.35008
5.25342
5.14989
5.04438
4.94296
4.85415
4.78603
4.7364
4.70119
4.67674
4.6602
4.64968
4.64415
4.64295
4.64505
4.6479
4.64665
4.63587
4.61052
4.56378
526.638
517.225
4.70912
5.05886
5.30272
5.45586
5.55058
5.61084
5.64749
5.6644
5.66251
5.64169
5.60179
5.54336
5.46797
5.37807
5.277
5.16887
5.05872
4.95297
4.86057
4.79056
4.74069
4.70653
4.68398
4.6698
4.66179
4.65863
4.65943
4.66299
4.6667
4.66592
4.65557
4.63066
4.58398
526.823
517.24
4.73617
5.09411
5.34223
5.49719
5.59273
5.65336
5.68997
5.70633
5.70332
5.68075
5.63852
5.57725
5.49856
5.405
5.29993
5.18754
5.07303
4.96308
4.867
4.79484
4.74448
4.71121
4.69054
4.67886
4.67361
4.67317
4.67639
4.68179
4.68663
4.68636
4.67622
4.65136
4.60418
527.003
517.256
4.7641
5.13031
5.38263
5.53931
5.63562
5.69661
5.73317
5.749
5.74492
5.72072
5.67632
5.61245
5.53077
5.43386
5.3251
5.20867
5.08987
4.97553
4.87526
4.80011
4.74851
4.71558
4.69647
4.68719
4.68481
4.68736
4.69337
4.70104
4.70736
4.70776
4.69778
4.67267
4.62446
527.177
517.272
4.79045
5.16413
5.42031
5.57868
5.67587
5.73733
5.77394
5.78935
5.78431
5.75864
5.71232
5.64615
5.56185
5.462
5.34995
5.2299
5.10714
4.9886
4.88412
4.80563
4.7524
4.71946
4.70172
4.6948
4.69538
4.70115
4.71024
4.72046
4.72851
4.72971
4.71982
4.69422
4.6446
527.346
517.288
4.81745
5.19866
5.45873
5.61884
5.71695
5.77889
5.81553
5.83048
5.82449
5.79743
5.74936
5.68113
5.59451
5.49207
5.37707
5.25367
5.1271
5.00427
4.89516
4.81249
4.75683
4.72323
4.7064
4.70161
4.70516
4.71431
4.72675
4.73987
4.74992
4.75209
4.7423
4.71606
4.66469
527.51
517.304
4.84306
5.23116
5.49494
5.65692
5.75615
5.81866
5.85532
5.86978
5.86287
5.83452
5.78489
5.71489
5.6263
5.52166
5.40417
5.27787
5.14787
5.02102
4.90733
4.82015
4.76157
4.72684
4.71057
4.70773
4.71424
4.72688
4.74289
4.75914
4.77145
4.77473
4.76505
4.73802
4.68457
527.671
517.321
4.86901
5.26399
5.53161
5.69573
5.79642
5.8595
5.89589
5.90966
5.90176
5.87219
5.82116
5.74964
5.6594
5.55291
5.43329
5.3044
5.17121
5.04039
4.9219
4.82947
4.76721
4.73064
4.71438
4.71318
4.72252
4.73871
4.75846
4.77805
4.79279
4.79729
4.78773
4.75984
4.70414
527.828
517.337
4.89368
5.29493
5.56623
5.73284
5.83503
5.8988
5.935
5.94791
5.93902
5.90835
5.85614
5.78338
5.69183
5.58389
5.46258
5.33157
5.19561
5.06114
4.93799
4.84004
4.77362
4.73469
4.71799
4.71811
4.73016
4.74995
4.77357
4.79671
4.8141
4.82
4.81063
4.78175
4.72349
527.982
517.353
4.91845
5.32581
5.60065
5.76963
5.87307
5.93758
5.97396
5.98614
5.97638
5.94474
5.89153
5.81776
5.72519
5.61613
5.49347
5.3607
5.22229
5.08437
4.95651
4.85259
4.78135
4.73936
4.72159
4.7226
4.73714
4.76048
4.78806
4.81486
4.83497
4.84227
4.83305
4.80318
4.7423
528.132
517.37
4.94212
5.35513
5.63338
5.80446
5.90909
5.97442
6.0112
6.0232
6.01242
5.97987
5.92583
5.85132
5.75802
5.64823
5.52465
5.39059
5.25019
5.10924
4.97692
4.86697
4.79049
4.74486
4.72546
4.72691
4.74367
4.77046
4.80203
4.83261
4.8556
4.86445
4.85549
4.82446
4.76073
528.28
517.387
4.96561
5.38414
5.66604
5.83865
5.94431
6.01043
6.04765
6.05956
6.04799
6.01477
5.96015
5.88513
5.7914
5.68117
5.55702
5.42204
5.28006
5.13642
4.99988
4.88382
4.8016
4.75166
4.72993
4.73123
4.74984
4.77992
4.81546
4.84986
4.87579
4.88629
4.87799
4.84543
4.77862
528.424
517.403
4.98795
5.41137
5.69655
5.87075
5.97756
6.04462
6.08245
6.09452
6.08244
6.04866
5.99359
5.91826
5.82436
5.71401
5.58969
5.45423
5.31116
5.16537
5.02507
4.90318
4.81493
4.76014
4.73541
4.73594
4.75591
4.78899
4.82838
4.8666
4.89556
4.90799
4.90031
4.86613
4.79599
528.565
517.42
5.01004
5.43814
5.72642
5.90205
6.0099
6.07785
6.11634
6.12874
6.11659
6.08215
6.0267
5.95127
5.85746
5.74731
5.62315
5.48761
5.3439
5.19644
5.05288
4.92556
4.831
4.77078
4.74232
4.74135
4.76212
4.79785
4.84094
4.88301
4.91521
4.92998
4.92277
4.88707
4.81307
528.702
517.436
5.03115
5.46345
5.75457
5.93154
6.04045
6.10933
6.14852
6.16131
6.14916
6.11431
6.05878
5.98353
5.89011
5.78047
5.65683
5.52162
5.37775
5.22919
5.083
4.95088
4.84998
4.78395
4.75111
4.74788
4.76878
4.80668
4.8532
4.89904
4.93456
4.95186
4.94515
4.90792
4.8298
528.835
517.452
5.05194
5.48821
5.78194
5.96011
6.06999
6.13978
6.17971
6.19296
6.18094
6.14582
6.09035
6.01545
5.92262
5.81375
5.69092
5.55639
5.4128
5.26366
5.11543
4.97914
4.87202
4.79993
4.76213
4.7559
4.77619
4.8157
4.86534
4.91485
4.95375
4.9736
4.9674
4.92857
4.84613
528.964
517.469
5.07196
5.51184
5.80786
5.98708
6.09789
6.1686
6.2093
6.22309
6.21132
6.17612
6.12091
6.04656
5.95455
5.8467
5.72499
5.59152
5.44863
5.29944
5.14981
5.01002
4.89701
4.81886
4.77569
4.76577
4.78469
4.82516
4.87746
4.9304
4.97255
4.99499
4.98934
4.9489
4.86202
529.089
517.485
5.09166
5.53499
5.83294
6.01302
6.12467
6.19627
6.23776
6.25214
6.24071
6.20557
6.15072
6.07705
5.98602
5.87939
5.75904
5.62692
5.48512
5.33636
5.18592
5.0433
4.92489
4.8408
4.792
4.77778
4.79456
4.83526
4.88969
4.94575
4.99112
5.01598
5.01084
4.96878
4.87741
529.211
517.501
5.11073
5.55752
5.85674
6.03749
6.14994
6.22242
6.26472
6.27976
6.26881
6.23394
6.17954
6.10666
6.01676
5.91154
5.79279
5.6623
5.52195
5.37409
5.22342
5.07865
4.95545
4.86574
4.8112
4.7922
4.80612
4.8463
4.90228
4.96115
5.00974
5.03666
5.0319
4.98818
4.89228
529.328
517.516
5.12903
5.57891
5.87937
6.06077
6.17399
6.24732
6.29043
6.30614
6.29574
6.26135
6.20739
6.13538
6.04673
5.94308
5.82612
5.69751
5.55893
5.41237
5.26201
5.11579
4.98851
4.89361
4.8334
4.80924
4.81962
4.85853
4.91543
4.9767
5.02828
5.05701
5.05249
5.00706
4.90662
529.442
517.532
5.14664
5.59935
5.90087
6.08279
6.19669
6.27084
6.31472
6.33111
6.32129
6.28743
6.23406
6.16308
6.07584
5.97392
5.85892
5.73239
5.59583
5.45093
5.30139
5.15438
5.02379
4.92427
4.8586
4.82907
4.83533
4.87222
4.92933
4.99248
5.04669
5.07699
5.07259
5.02541
4.92043
529.552
517.547
5.16351
5.61883
5.92119
6.10355
6.21811
6.29306
6.33773
6.3548
6.34556
6.31233
6.25969
6.18984
6.10412
6.00404
5.89113
5.76683
5.63249
5.48954
5.34125
5.19407
5.06098
4.95749
4.88672
4.85176
4.85342
4.88759
4.94418
5.00862
5.06502
5.0966
5.09219
5.04321
4.93373
529.659
517.562
5.17981
5.63737
5.94039
6.1231
6.23828
6.31402
6.35947
6.37724
6.36863
6.33603
6.28415
6.21556
6.13151
6.03339
5.9227
5.80078
5.66884
5.52809
5.38142
5.23462
5.09978
4.99303
4.91762
4.87731
4.87404
4.90483
4.96017
5.02522
5.08331
5.11587
5.11129
5.06047
4.94651
529.764
517.576
5.19532
5.65485
5.95838
6.14139
6.25716
6.33366
6.37988
6.39836
6.39043
6.35855
6.30757
6.2403
6.15795
6.06193
5.95355
5.83411
5.70471
5.56637
5.42163
5.27572
5.13988
5.03055
4.95106
4.90562
4.89723
4.92409
4.97746
5.04244
5.10165
5.13484
5.12991
5.07719
4.95881
529.866
517.59
5.21018
5.67142
5.97532
6.15855
6.27486
6.3521
6.39908
6.41826
6.411
6.3799
6.32991
6.26406
6.18351
6.0896
5.98368
5.86682
5.74008
5.60431
5.46177
5.31718
5.18101
5.0698
4.98679
4.93653
4.92294
4.94542
4.99615
5.06037
5.12011
5.15355
5.14808
5.09341
4.97064
529.966
517.604
5.22432
5.687
5.99112
6.17451
6.29132
6.36926
6.41697
6.43684
6.43028
6.39999
6.35108
6.28673
6.20805
6.11635
6.01287
5.89874
5.77477
5.64172
5.50162
5.35876
5.22289
5.11046
5.02453
4.96985
4.95109
4.96886
5.01635
5.07913
5.13881
5.17208
5.16586
5.10916
4.98206
530.064
517.618
5.23779
5.7017
6.00592
6.18939
6.30665
6.38526
6.43367
6.45423
6.44834
6.4189
6.37114
6.30837
6.23165
6.14222
6.04127
5.92986
5.80876
5.67857
5.5411
5.40029
5.26529
5.15228
5.06404
5.00537
4.98158
4.99439
5.0381
5.09879
5.15779
5.19049
5.18329
5.12448
4.99309
530.16
517.631
5.25055
5.71545
6.01963
6.20312
6.32079
6.40002
6.4491
6.4703
6.4651
6.43651
6.38997
6.32883
6.25412
6.16703
6.06869
5.96007
5.84191
5.71469
5.58004
5.4416
5.30799
5.19499
5.10503
5.04284
5.01423
5.02195
5.06143
5.11943
5.17716
5.20887
5.20046
5.13945
5.00381
530.255
517.644
5.2627
5.72838
6.03239
6.21583
6.33385
6.41367
6.46338
6.4852
6.48066
6.45295
6.40766
6.34819
6.27554
6.19082
6.09512
5.98933
5.87415
5.74998
5.61832
5.48251
5.35078
5.23837
5.14727
5.08207
5.0489
5.05146
5.08633
5.14107
5.19697
5.22727
5.21741
5.15411
5.01426
530.348
517.657
5.27415
5.74037
6.04409
6.22741
6.34575
6.42612
6.47644
6.49884
6.49495
6.46812
6.42413
6.36637
6.29579
6.21348
6.12044
6.01755
5.90539
5.78434
5.65581
5.52289
5.39346
5.28218
5.19052
5.12281
5.08542
5.08283
5.1128
5.16377
5.2173
5.24578
5.23423
5.16853
5.0245
530.44
517.669
5.28501
5.75157
6.05488
6.23802
6.35664
6.43752
6.4884
6.51137
6.50811
6.48216
6.43949
6.38344
6.31494
6.23502
6.14466
6.04464
5.93554
5.81764
5.69229
5.56252
5.43583
5.3262
5.23453
5.16485
5.12361
5.11596
5.14079
5.18754
5.23819
5.26447
5.25099
5.18278
5.03458
530.531
517.681
5.29516
5.76183
6.06462
6.24754
6.3664
6.44777
6.49919
6.52271
6.52007
6.49502
6.45371
6.3994
6.33297
6.25544
6.16773
6.0706
5.96455
5.84984
5.72777
5.60126
5.4777
5.37016
5.27902
5.20793
5.16328
5.15076
5.1703
5.21244
5.25972
5.28341
5.26777
5.19694
5.04456
530.62
517.692
5.30472
5.77131
6.07347
6.25611
6.37518
6.45701
6.50896
6.533
6.53097
6.50682
6.4669
6.41432
6.34995
6.27477
6.18968
6.09539
5.99237
5.88087
5.76213
5.63907
5.51895
5.41389
5.32375
5.25179
5.20422
5.18709
5.20129
5.23847
5.28194
5.30268
5.28463
5.21106
5.05449
530.709
517.703
5.3136
5.7799
6.08133
6.26366
6.3829
6.46518
6.51763
6.54218
6.54078
6.51755
6.47907
6.42823
6.3659
6.29304
6.21052
6.11902
6.019
5.91067
5.7953
5.6758
5.5594
5.45716
5.36846
5.29615
5.24617
5.22478
5.23369
5.26569
5.30495
5.32238
5.30168
5.22522
5.06441
530.797
517.714
5.32192
5.78774
6.08835
6.2703
6.38969
6.47238
6.52531
6.55036
6.54957
6.52729
6.49027
6.44119
6.3809
6.31032
6.23031
6.14153
6.04444
5.93925
5.82724
5.71138
5.59893
5.49977
5.41289
5.34072
5.28886
5.26361
5.26736
5.29402
5.32874
5.34255
5.31897
5.23947
5.07438
530.885
517.725
5.32964
5.79478
6.09446
6.27599
6.39549
6.47856
6.53196
6.5575
6.55734
6.53603
6.50054
6.45324
6.39497
6.32664
6.24909
6.16297
6.06873
5.96661
5.85794
5.74576
5.63745
5.54159
5.45686
5.38526
5.33202
5.30337
5.30224
5.32361
5.35343
5.36329
5.33659
5.2539
5.08444
530.972
517.735
5.33685
5.80114
6.09977
6.28081
6.40039
6.48381
6.53764
6.56366
6.56412
6.54383
6.50991
6.46443
6.40818
6.34207
6.26692
6.18339
6.09192
5.9928
5.88742
5.77895
5.67491
5.58254
5.50022
5.42958
5.37542
5.34385
5.33816
5.35431
5.37901
5.38464
5.3546
5.26856
5.09462
531.059
517.745
5.34355
5.80679
6.10425
6.28473
6.40433
6.48807
6.54232
6.5688
6.56991
6.55066
6.51839
6.47475
6.42054
6.35663
6.28384
6.20283
6.11406
6.01786
5.91572
5.81096
5.71128
5.62253
5.54284
5.4735
5.4189
5.38488
5.37498
5.38601
5.40548
5.40667
5.37309
5.28351
5.10497
531.146
517.754
5.3498
5.8118
6.10797
6.28781
6.40738
6.4914
6.54603
6.57296
6.57474
6.55659
6.526
6.48424
6.43207
6.37035
6.29989
6.22135
6.13522
6.04186
5.9429
5.84183
5.74657
5.66153
5.58466
5.51691
5.46226
5.42623
5.41249
5.41859
5.43279
5.42937
5.39207
5.29881
5.11553
531.234
517.764
5.35559
5.81614
6.11089
6.29002
6.4095
6.49377
6.54875
6.57613
6.57861
6.56161
6.53278
6.49291
6.44279
6.38326
6.31511
6.23899
6.15543
6.06486
5.96901
5.87161
5.78081
5.69954
5.62561
5.5597
5.50536
5.46778
5.45058
5.45197
5.46091
5.45277
5.4116
5.31448
5.12633
531.322
517.773
5.36095
5.81986
6.11305
6.29138
6.41073
6.49518
6.55049
6.57832
6.58155
6.56581
6.53874
6.50078
6.4527
6.39534
6.32949
6.25578
6.17475
6.08692
5.99415
5.90041
5.81406
5.73658
5.66568
5.60179
5.54807
5.5093
5.48905
5.48604
5.48978
5.47686
5.4317
5.33057
5.13738
531.41
517.783
5.36588
5.82297
6.11446
6.29191
6.41105
6.49564
6.55123
6.57951
6.58357
6.56932
6.54392
6.50782
6.46179
6.40662
6.34305
6.27174
6.19322
6.10809
6.01838
5.92831
5.84639
5.77269
5.70487
5.64314
5.5903
5.5507
5.5278
5.52068
5.51935
5.50163
5.45238
5.34711
5.14872
531.499
517.792
5.37039
5.82546
6.11513
6.29161
6.41048
6.49515
6.55097
6.57964
6.5845
6.57175
6.5481
6.51395
6.47001
6.41706
6.35581
6.28689
6.21088
6.12846
6.04182
5.95546
5.87791
5.80795
5.74319
5.68371
5.63196
5.59187
5.56664
5.55575
5.54954
5.52705
5.47365
5.36411
5.16035
531.589
517.8
5.37452
5.82738
6.11509
6.29051
6.40904
6.49375
6.54974
6.57879
6.58447
6.57329
6.55141
6.51923
6.47742
6.4267
6.36777
6.30125
6.22778
6.14809
6.06457
5.98204
5.90875
5.84242
5.7807
5.7235
5.67298
5.63268
5.60551
5.59118
5.58027
5.55308
5.49551
5.38158
5.17231
531.679
517.809
5.37824
5.82871
6.11431
6.28859
6.40673
6.49141
6.54752
6.57691
6.58341
6.57383
6.55378
6.52361
6.48395
6.43549
6.37891
6.31484
6.24393
6.16703
6.08674
6.00822
5.93905
5.87624
5.81746
5.76254
5.71335
5.67305
5.64424
5.62674
5.6114
5.57964
5.51789
5.39948
5.18455
531.77
517.817
5.38157
5.82944
6.11282
6.2859
6.4036
6.4882
6.54439
6.57408
6.58141
6.57346
6.55525
6.52709
6.4896
6.44343
6.38922
6.32761
6.25931
6.18528
6.10834
6.03402
5.96886
5.90945
5.85353
5.80085
5.75305
5.71292
5.68277
5.66249
5.6429
5.60671
5.54081
5.41787
5.19713
531.862
517.826
5.38442
5.82952
6.11058
6.28239
6.39962
6.48412
6.54036
6.57034
6.57849
6.5722
6.55582
6.52969
6.49437
6.45048
6.39866
6.33955
6.27389
6.20279
6.12932
6.05935
5.99812
5.94204
5.8889
5.83843
5.79205
5.75222
5.72097
5.69821
5.67463
5.63414
5.56416
5.43663
5.20997
531.954
517.834
5.38681
5.82895
6.10761
6.27813
6.39487
6.47924
6.53552
6.56577
6.57475
6.57013
6.55558
6.53144
6.49827
6.45666
6.40723
6.35061
6.28762
6.21951
6.14958
6.08407
6.02674
5.97394
5.92356
5.87528
5.83036
5.79095
5.75881
5.73386
5.70656
5.66194
5.58791
5.45577
5.2231
532.047
517.841
5.38865
5.82768
6.10387
6.27308
6.38932
6.47358
6.52989
6.56044
6.57029
6.56735
6.55462
6.53244
6.50137
6.462
6.41492
6.36081
6.3005
6.2354
6.16909
6.10809
6.05461
6.00506
5.95742
5.91133
5.86789
5.82901
5.79615
5.76927
5.73853
5.68999
5.61201
5.47524
5.23645
532.14
517.849
5.38999
5.82576
6.09944
6.26731
6.38304
6.46719
6.52356
6.55446
6.56521
6.56399
6.55305
6.53277
6.50375
6.46656
6.42181
6.37016
6.31255
6.25049
6.18786
6.13138
6.08171
6.03537
5.99043
5.94654
5.90465
5.86641
5.83303
5.80447
5.7705
5.71822
5.63637
5.49495
5.24997
532.234
517.856
5.39083
5.82321
6.0943
6.26081
6.37603
6.46006
6.51652
6.54784
6.55959
6.56014
6.55099
6.53258
6.50554
6.47047
6.42798
6.37877
6.32384
6.26487
6.20598
6.15397
6.10806
6.06486
6.02257
5.98084
5.94051
5.90299
5.86926
5.83926
5.80233
5.74651
5.66089
5.51483
5.26363
532.327
517.863
5.39127
5.82014
6.08856
6.25365
6.36831
6.45222
6.50881
6.54062
6.55349
6.55589
6.54855
6.53197
6.50685
6.47383
6.43355
6.38675
6.3345
6.27865
6.22362
6.17599
6.13371
6.09357
6.05387
6.01427
5.97552
5.93878
5.90483
5.87362
5.83397
5.77481
5.68554
5.53487
5.27742
532.421
517.869
5.39137
5.81658
6.08221
6.2458
6.35985
6.44361
6.50035
6.53278
6.54695
6.55126
6.54574
6.53101
6.5078
6.47679
6.43867
6.39424
6.34468
6.29203
6.24099
6.19756
6.15877
6.12156
6.08435
6.04683
6.00963
5.97375
5.93971
5.9075
5.86533
5.80302
5.71021
5.55498
5.29129
532.515
517.876
5.39124
5.81261
6.07533
6.23732
6.35069
6.43423
6.49109
6.52428
6.54011
6.54621
6.54252
6.52968
6.5084
6.47941
6.44345
6.40139
6.35454
6.30516
6.25827
6.21883
6.18334
6.1489
6.11405
6.07851
6.04281
6.00774
5.97365
5.94071
5.89631
5.83108
5.73489
5.57517
5.30525
532.608
517.882
5.39086
5.80823
6.06789
6.22819
6.34078
6.42402
6.48094
6.51484
6.53241
6.5404
6.5387
6.52788
6.50863
6.48172
6.44793
6.40825
6.36415
6.31812
6.27548
6.23984
6.20748
6.17568
6.14306
6.10939
6.07515
6.041
6.00724
5.97338
5.92685
5.85888
5.75943
5.5953
5.31921
532.7
517.889
5.39026
5.80339
6.05987
6.21841
6.33019
6.41305
6.46998
6.50459
6.52394
6.5339
6.53428
6.52557
6.50847
6.48371
6.45215
6.41488
6.37355
6.33092
6.29257
6.2606
6.23124
6.20193
6.17145
6.13958
6.10677
6.07359
6.04034
6.00557
5.957
5.88642
5.78385
5.61538
5.33314
532.792
517.895
5.38932
5.798
6.05122
6.20798
6.31889
6.40133
6.45819
6.49348
6.51462
6.52657
6.5291
6.52262
6.50777
6.48527
6.45604
6.42127
6.38278
6.34362
6.30955
6.28111
6.25462
6.22771
6.19926
6.1691
6.13767
6.10547
6.07277
6.03715
5.98665
5.9136
5.80802
5.63531
5.34699
532.883
517.901
5.38788
5.79198
6.04194
6.19692
6.30698
6.38897
6.44576
6.4817
6.50461
6.51853
6.52321
6.51901
6.50649
6.48637
6.45957
6.4274
6.39185
6.35627
6.32642
6.30139
6.27766
6.25305
6.22654
6.19803
6.16793
6.1367
6.1046
6.0682
6.01588
5.9405
5.83202
5.6552
5.36096
532.973
517.906
5.38585
5.78528
6.03198
6.1852
6.29443
6.37601
6.43273
6.46935
6.49402
6.50986
6.51666
6.51473
6.50459
6.48692
6.46268
6.43324
6.4008
6.36896
6.34323
6.32149
6.30041
6.27798
6.25331
6.22637
6.19754
6.16725
6.13574
6.09861
6.04456
5.96698
5.85573
5.67489
5.37485
533.062
517.911
5.38329
5.77797
6.0214
6.17288
6.28131
6.36252
6.41927
6.45664
6.48309
6.50081
6.50965
6.50994
6.50216
6.48698
6.46538
6.43882
6.40967
6.38178
6.36005
6.34145
6.3229
6.30256
6.27966
6.25421
6.22659
6.1972
6.1663
6.12847
6.07281
5.99315
5.87923
5.69447
5.38869
533.15
517.916
5.38025
5.77009
6.01019
6.15991
6.26754
6.34844
6.40533
6.44362
6.47195
6.49157
6.5024
6.50483
6.49936
6.48666
6.46774
6.44416
6.41848
6.39478
6.37687
6.36128
6.34513
6.32678
6.30556
6.28153
6.25506
6.22653
6.19621
6.15771
6.1005
6.01884
5.90235
5.71376
5.40235
533.236
517.921
5.37693
5.7618
5.99844
6.1463
6.25309
6.33372
6.39091
6.43034
6.46074
6.48233
6.49515
6.49965
6.4964
6.48612
6.46988
6.44934
6.42725
6.40789
6.39367
6.38096
6.36712
6.35067
6.33107
6.3084
6.28304
6.25533
6.22559
6.18646
6.12778
6.04423
5.92525
5.7329
5.41592
533.322
517.925
5.37348
5.75317
5.98613
6.13196
6.2378
6.31814
6.3758
6.41668
6.44937
6.4731
6.48799
6.49459
6.49352
6.4856
6.47199
6.45449
6.43605
6.42106
6.41039
6.40044
6.38881
6.3742
6.35615
6.33479
6.31049
6.28357
6.25437
6.21459
6.15449
6.06911
5.94772
5.75169
5.42926
533.405
517.93
5.37002
5.7443
5.9733
6.11685
6.22155
6.30152
6.3598
6.4026
6.43771
6.46377
6.48092
6.48971
6.49086
6.48529
6.47429
6.45983
6.44506
6.43438
6.42709
6.41979
6.41028
6.39742
6.38085
6.36075
6.33747
6.31131
6.28267
6.24229
6.18084
6.09372
5.96997
5.77034
5.4425
533.488
517.935
5.36659
5.73517
5.95988
6.10087
6.20418
6.2836
6.34253
6.38765
6.42532
6.45404
6.47375
6.48496
6.48847
6.48531
6.47695
6.46556
6.45452
6.44793
6.44383
6.43901
6.43149
6.42028
6.40514
6.38624
6.36394
6.33852
6.31039
6.2694
6.20664
6.11782
5.99177
5.78859
5.45547
533.569
517.94
5.36316
5.72576
5.94587
6.08402
6.18566
6.26429
6.32377
6.37129
6.41186
6.44362
6.46625
6.48019
6.48627
6.48569
6.48009
6.47189
6.4647
6.46195
6.46078
6.45824
6.45257
6.44292
6.42909
6.41131
6.38991
6.36517
6.33761
6.2961
6.2321
6.14166
6.01338
5.80672
5.46834
533.648
517.945
5.35965
5.716
5.93124
6.06627
6.16594
6.24352
6.30347
6.3535
6.39716
6.43223
6.4581
6.47507
6.48402
6.48625
6.48362
6.47879
6.47561
6.47643
6.47795
6.47749
6.4735
6.46526
6.45265
6.43594
6.41549
6.39169
6.36433
6.32219
6.25698
6.16498
6.03453
5.82444
5.48091
533.726
517.951
5.35605
5.70591
5.916
6.04763
6.14503
6.22129
6.2816
6.33418
6.3811
6.41972
6.44911
6.46943
6.48152
6.48684
6.48742
6.48619
6.48716
6.49134
6.49536
6.49683
6.49439
6.48746
6.476
6.46033
6.44085
6.41806
6.3908
6.34797
6.28159
6.18807
6.0555
5.84204
5.49338
533.803
517.956
5.35237
5.69551
5.90018
6.02812
6.12291
6.19758
6.25815
6.31335
6.36364
6.40597
6.43911
6.46301
6.47852
6.48718
6.49123
6.49381
6.49904
6.50644
6.51284
6.51612
6.51513
6.50941
6.49903
6.48434
6.4658
6.44398
6.41674
6.37319
6.30563
6.21063
6.07598
5.85921
5.50551
533.877
517.961
5.34875
5.68495
5.88387
6.00775
6.09956
6.17235
6.23311
6.29105
6.34487
6.39109
6.42814
6.45583
6.47498
6.48723
6.49498
6.50162
6.51111
6.52166
6.53036
6.53538
6.53577
6.53122
6.52186
6.50812
6.49051
6.46964
6.4424
6.39812
6.32941
6.23299
6.09631
5.87626
5.51753
533.952
517.967
5.34533
5.6743
5.86711
5.98652
6.07487
6.14543
6.20632
6.26712
6.32468
6.375
6.41617
6.44783
6.47083
6.48689
6.4986
6.50955
6.52322
6.53681
6.54773
6.55444
6.55616
6.55272
6.54434
6.5315
6.51476
6.49478
6.4675
6.42246
6.35262
6.25479
6.11612
5.89285
5.52918
534.023
517.973
5.34226
5.66368
5.84999
5.96445
6.04882
6.11673
6.17764
6.24143
6.30296
6.35765
6.40318
6.43904
6.46609
6.4862
6.50214
6.51767
6.53537
6.55188
6.56496
6.57331
6.57634
6.57399
6.56657
6.55461
6.53872
6.51963
6.49228
6.44651
6.37557
6.27639
6.13576
5.90931
5.54068
534.095
517.98
5.3395
5.65306
5.83249
5.94155
6.02133
6.08609
6.14684
6.21358
6.27929
6.33865
6.38885
6.42919
6.46056
6.48497
6.5054
6.52575
6.54734
6.56669
6.58188
6.59184
6.59616
6.59487
6.58837
6.57725
6.56217
6.5439
6.51645
6.46992
6.39789
6.29738
6.15483
5.92524
5.55174
534.165
517.987
5.33694
5.64241
5.8147
5.91794
5.99251
6.05358
6.11407
6.18335
6.25327
6.31759
6.3728
6.41795
6.45394
6.48294
6.50814
6.53347
6.55889
6.58105
6.59836
6.60996
6.61558
6.61538
6.60982
6.59955
6.58528
6.56782
6.54026
6.49301
6.41994
6.31815
6.17372
5.94103
5.56264
534.234
517.995
5.33434
5.63159
5.79662
5.89369
5.96244
6.01915
6.07898
6.15035
6.22446
6.29395
6.35451
6.40482
6.44578
6.47969
6.50995
6.54036
6.56961
6.59463
6.61411
6.62742
6.63442
6.63534
6.63073
6.6213
6.6078
6.59109
6.56339
6.51539
6.4413
6.33824
6.19197
5.95622
5.57303
534.301
518.002
5.3316
5.62061
5.77837
5.86902
5.93144
5.98313
6.04163
6.11469
6.19285
6.26759
6.33372
6.3895
6.43574
6.47489
6.51054
6.54607
6.57918
6.60713
6.62891
6.64405
6.65254
6.65468
6.65111
6.64257
6.62987
6.61394
6.58612
6.53743
6.46237
6.3581
6.21004
5.97126
5.58326
534.369
518.009
5.32875
5.60958
5.76002
5.84401
5.89962
5.9458
6.0025
6.07679
6.15867
6.23857
6.31035
6.37179
6.42359
6.4683
6.50967
6.5503
6.58729
6.61827
6.64247
6.6596
6.66971
6.67321
6.67075
6.66315
6.65123
6.63601
6.60805
6.55865
6.48264
6.37719
6.22736
5.98562
5.59292
534.435
518.016
5.32603
5.59868
5.74166
5.81867
5.86698
5.90723
5.96178
6.03701
6.12236
6.20722
6.28457
6.35173
6.40926
6.45979
6.50714
6.55281
6.5937
6.62782
6.65461
6.6739
6.68582
6.69083
6.68963
6.68308
6.67212
6.6576
6.62956
6.57953
6.50263
6.39606
6.24451
5.99984
5.60242
534.502
518.023
5.32374
5.58808
5.7233
5.79285
5.83329
5.86726
5.91952
5.9957
6.08439
6.17399
6.25674
6.32954
6.39284
6.44932
6.5028
6.55344
6.59828
6.63564
6.66516
6.68676
6.70066
6.70734
6.70754
6.70219
6.69237
6.67832
6.65011
6.59944
6.52169
6.41402
6.2608
6.01328
5.61128
534.566
518.031
5.32224
5.57803
5.70503
5.7665
5.79834
5.82551
5.87552
5.95286
6.045
6.13926
6.22724
6.30553
6.37451
6.43693
6.4965
6.55201
6.60083
6.64155
6.67397
6.69811
6.71421
6.72279
6.72463
6.72071
6.71221
6.69866
6.67027
6.61901
6.54045
6.43174
6.27689
6.02655
5.61996
534.633
518.04
5.32156
5.56851
5.68685
5.7395
5.76176
5.7815
5.82917
5.908
6.00396
6.10309
6.19632
6.28002
6.35459
6.4229
6.48833
6.54857
6.60133
6.64546
6.68092
6.70775
6.72622
6.73687
6.7405
6.73813
6.73101
6.71794
6.68937
6.6375
6.55817
6.44845
6.29201
6.03891
5.62789
534.696
518.051
5.32173
5.55965
5.66897
5.71211
5.7237
5.73509
5.77992
5.86042
5.96065
6.06501
6.16367
6.25284
6.33301
6.40723
6.47821
6.543
6.59967
6.6473
6.68592
6.71564
6.73672
6.7497
6.75536
6.75475
6.74918
6.73669
6.708
6.6556
6.57554
6.46486
6.30687
6.05107
5.63557
534.763
518.061
5.32245
5.5513
5.6515
5.6846
5.68442
5.6862
5.72741
5.80946
5.91431
6.02437
6.12883
6.22369
6.3096
6.38978
6.46603
6.5352
6.59573
6.64688
6.68877
6.72152
6.74537
6.76083
6.76868
6.76996
6.766
6.75415
6.72538
6.67249
6.59176
6.48017
6.32068
6.06223
5.64241
534.825
518.072
5.32347
5.54347
5.63469
5.65749
5.64466
5.63545
5.67175
5.75459
5.86403
5.98014
6.0908
6.19169
6.28358
6.36987
6.45128
6.52483
6.58928
6.64409
6.68941
6.72539
6.75225
6.77046
6.78076
6.78416
6.782
6.77093
6.74218
6.68889
6.60755
6.49511
6.33418
6.07313
5.64896
534.892
518.083
5.32455
5.53609
5.6187
5.63121
5.60509
5.58352
5.61324
5.6958
5.80948
5.93175
6.04892
6.15616
6.25429
6.34684
6.43344
6.51145
6.57995
6.63854
6.68747
6.72686
6.7569
6.77803
6.79095
6.79661
6.79635
6.78616
6.75754
6.70394
6.6221
6.50887
6.34657
6.08302
5.65465
534.954
518.093
5.32557
5.52914
5.60362
5.60609
5.56643
5.53135
5.55281
5.63361
5.7506
5.87878
6.00259
6.11643
6.22107
6.32008
6.41203
6.49471
6.5675
6.63015
6.68295
6.72601
6.75953
6.78387
6.79967
6.80785
6.80969
6.80054
6.77218
6.71839
6.63612
6.52219
6.35858
6.09257
5.66003
535.021
518.103
5.32657
5.5226
5.5894
5.58219
5.52903
5.47975
5.49138
5.56866
5.68785
5.82143
5.95178
6.07235
6.18366
6.28924
6.3867
6.47426
6.55157
6.61851
6.6754
6.72237
6.75957
6.78731
6.80618
6.81703
6.82111
6.81314
6.7852
6.73136
6.6488
6.53427
6.36944
6.1011
5.66456
535.083
518.113
5.32771
5.51645
5.57588
5.55928
5.49278
5.42902
5.42975
5.50208
5.62217
5.76036
5.8969
6.02409
6.14215
6.25429
6.35739
6.45006
6.53218
6.60372
6.66502
6.71621
6.75739
6.78884
6.81105
6.82483
6.83134
6.82474
6.79736
6.7436
6.66086
6.54581
6.37984
6.10924
5.66876
535.152
518.123
5.32915
5.51069
5.56292
5.53709
5.45743
5.37916
5.36835
5.43459
5.55443
5.69637
5.83858
5.97214
6.09684
6.21537
6.32412
6.42202
6.50912
6.58545
6.65138
6.70699
6.75236
6.78771
6.81346
6.83033
6.83943
6.83437
6.80773
6.75424
6.67146
6.55602
6.38903
6.11629
5.67208
535.214
518.133
5.33101
5.50526
5.55034
5.51532
5.42255
5.32983
5.30714
5.36656
5.48523
5.63009
5.77741
5.91699
6.04814
6.17284
6.28722
6.39047
6.48275
6.56411
6.63493
6.69525
6.74509
6.78461
6.81414
6.83433
6.84621
6.84287
6.81713
6.76404
6.68134
6.56561
6.39769
6.12289
5.67501
535.284
518.145
5.33315
5.50008
5.53811
5.49402
5.38823
5.28111
5.24604
5.29802
5.41481
5.5619
5.71374
5.8589
5.99617
6.12673
6.24665
6.35527
6.45281
6.53934
6.61518
6.68037
6.73485
6.7787
6.8122
6.83587
6.85067
6.84921
6.82456
6.77205
6.6896
6.57372
6.40499
6.12829
5.67694
535.347
518.156
5.33536
5.49501
5.52624
5.47331
5.35464
5.23301
5.18484
5.22862
5.34284
5.49158
5.64747
5.79787
5.94097
6.07724