/*--------------------------------*- C++ -*----------------------------------*\
| =========                 |                                                 |
| \\      /  F ield         | OpenFOAM: The Open Source CFD Toolbox           |
|  \\    /   O peration     | Version:  v2006                                 |
|   \\  /    A nd           | Website:  www.openfoam.com                      |
|    \\/     M anipulation  |                                                 |
\*---------------------------------------------------------------------------*/
FoamFile
{
    version     2.0;
    format      ascii;
    class       surfaceScalarField;
    location    "95";
    object      phi;
}
// * * * * * * * * * * * * * * * * * * * * * * * * * * * * * * * * * * * * * //

dimensions      [1 0 -1 0 0 0 0];
oriented        oriented;


internalField   nonuniform List<scalar> 
228225
(
2.15151e-07
-2.22503e-07
4.85116e-09
7.37555e-07
-5.33085e-07
1.07002e-08
1.45713e-06
-7.40369e-07
2.0822e-08
2.30034e-06
-8.78048e-07
3.48689e-08
3.21706e-06
-9.67261e-07
5.05424e-08
4.17224e-06
-1.02112e-06
6.59159e-08
5.13977e-06
-1.04749e-06
7.98869e-08
6.09892e-06
-1.05128e-06
9.20143e-08
7.03224e-06
-1.03573e-06
1.02237e-07
7.92445e-06
-1.0031e-06
1.10663e-07
8.76189e-06
-9.55173e-07
1.17457e-07
9.53223e-06
-8.93458e-07
1.22784e-07
1.02245e-05
-8.19418e-07
1.26789e-07
1.08293e-05
-7.34777e-07
1.29588e-07
1.13389e-05
-6.41312e-07
1.31273e-07
1.17464e-05
-5.39975e-07
1.31919e-07
1.2046e-05
-4.31696e-07
1.31588e-07
1.2233e-05
-3.17887e-07
1.30354e-07
1.23042e-05
-2e-07
1.28302e-07
1.22579e-05
-7.97566e-08
1.25457e-07
1.20938e-05
4.1729e-08
1.21829e-07
1.18108e-05
1.6502e-07
1.17416e-07
1.14126e-05
2.85417e-07
1.12231e-07
1.09039e-05
4.01923e-07
1.06292e-07
1.02912e-05
5.12607e-07
9.96435e-08
9.58362e-06
6.14755e-07
9.23858e-08
8.7931e-06
7.05484e-07
8.46745e-08
7.93312e-06
7.82931e-07
7.67613e-08
7.01694e-06
8.47009e-07
6.89834e-08
6.05171e-06
9.03604e-07
6.15418e-08
5.02351e-06
9.74271e-07
5.39871e-08
3.87712e-06
1.1018e-06
4.48464e-08
2.53305e-06
1.31215e-06
3.2501e-08
1.05033e-06
1.46602e-06
1.78353e-08
1.04733e-06
4.93552e-09
1.32378e-07
-3.81481e-07
2.65862e-08
5.241e-07
-9.88955e-07
6.4166e-08
1.13261e-06
-1.442e-06
9.31638e-08
1.90589e-06
-1.76769e-06
1.16444e-07
2.79537e-06
-1.99174e-06
1.35107e-07
3.76009e-06
-2.13573e-06
1.50015e-07
4.7663e-06
-2.21553e-06
1.61975e-07
5.78571e-06
-2.24227e-06
1.71711e-07
6.79432e-06
-2.22401e-06
1.79798e-07
7.77158e-06
-2.1669e-06
1.86659e-07
8.69982e-06
-2.0759e-06
1.92584e-07
9.56382e-06
-1.95515e-06
1.97771e-07
1.03504e-05
-1.80829e-06
2.02327e-07
1.10484e-05
-1.63897e-06
2.0621e-07
1.16488e-05
-1.45099e-06
2.09304e-07
1.21443e-05
-1.2473e-06
2.11724e-07
1.2529e-05
-1.03015e-06
2.13643e-07
1.27975e-05
-8.0157e-07
2.15111e-07
1.29447e-05
-5.63589e-07
2.16148e-07
1.29668e-05
-3.18859e-07
2.16728e-07
1.28636e-05
-7.20796e-08
2.16799e-07
1.26305e-05
1.81528e-07
2.16266e-07
1.22662e-05
4.3436e-07
2.14996e-07
1.17717e-05
6.83198e-07
2.12815e-07
1.11487e-05
9.25598e-07
2.09486e-07
1.04004e-05
1.15794e-06
2.047e-07
9.53027e-06
1.37694e-06
1.98276e-07
8.54187e-06
1.5807e-06
1.90238e-07
7.4384e-06
1.76966e-06
1.80491e-07
6.22056e-06
1.95259e-06
1.68608e-07
4.88667e-06
2.15448e-06
1.53587e-07
3.44799e-06
2.40704e-06
1.3356e-07
1.98091e-06
2.67294e-06
1.06747e-07
6.80958e-07
2.69401e-06
7.29489e-08
1.69972e-06
3.03076e-08
1.47465e-07
-5.65268e-07
3.63177e-08
5.55401e-07
-1.47967e-06
8.28011e-08
1.17276e-06
-2.17215e-06
1.12825e-07
1.93639e-06
-2.66407e-06
1.32811e-07
2.78458e-06
-2.98642e-06
1.46557e-07
3.67124e-06
-3.17897e-06
1.56654e-07
4.56566e-06
-3.27458e-06
1.64725e-07
5.44671e-06
-3.29492e-06
1.71686e-07
6.29874e-06
-3.25396e-06
1.78013e-07
7.10933e-06
-3.16133e-06
1.83933e-07
7.86821e-06
-3.02424e-06
1.89539e-07
8.5666e-06
-2.84832e-06
1.94858e-07
9.19679e-06
-2.6383e-06
1.99897e-07
9.75154e-06
-2.39831e-06
2.04653e-07
1.02238e-05
-2.1323e-06
2.09105e-07
1.06075e-05
-1.84419e-06
2.13205e-07
1.08981e-05
-1.53761e-06
2.16938e-07
1.10917e-05
-1.2155e-06
2.20391e-07
1.11849e-05
-8.8045e-07
2.23613e-07
1.11748e-05
-5.35347e-07
2.26585e-07
1.10569e-05
-1.83488e-07
2.29226e-07
1.08335e-05
1.73354e-07
2.31476e-07
1.05013e-05
5.3316e-07
2.33263e-07
1.00581e-05
8.91861e-07
2.34424e-07
9.50244e-06
1.24636e-06
2.34705e-07
8.83397e-06
1.59245e-06
2.33748e-07
8.05396e-06
1.92561e-06
2.31112e-07
7.16544e-06
2.24272e-06
2.26268e-07
6.17099e-06
2.54538e-06
2.18542e-07
5.07156e-06
2.84495e-06
2.06925e-07
3.87422e-06
3.1621e-06
1.89677e-07
2.61978e-06
3.49704e-06
1.64587e-07
1.41728e-06
3.74472e-06
1.31168e-07
4.37992e-07
3.58449e-06
8.97091e-08
2.10283e-06
3.64631e-08
1.72943e-07
-7.77426e-07
3.92028e-08
6.20767e-07
-2.00909e-06
8.15772e-08
1.25456e-06
-2.91062e-06
1.04651e-07
1.98972e-06
-3.5178e-06
1.18547e-07
2.76019e-06
-3.88506e-06
1.28148e-07
3.52733e-06
-4.08194e-06
1.35791e-07
4.2723e-06
-4.16201e-06
1.42431e-07
4.98557e-06
-4.15661e-06
1.48377e-07
5.66125e-06
-4.08341e-06
1.53734e-07
6.29456e-06
-3.9533e-06
1.5861e-07
6.88077e-06
-3.77363e-06
1.63146e-07
7.41469e-06
-3.54981e-06
1.67515e-07
7.89074e-06
-3.28629e-06
1.71893e-07
8.30316e-06
-2.98722e-06
1.76451e-07
8.64625e-06
-2.65678e-06
1.81343e-07
8.91469e-06
-2.29937e-06
1.86694e-07
9.10403e-06
-1.91958e-06
1.92585e-07
9.21138e-06
-1.52193e-06
1.99037e-07
9.23542e-06
-1.11059e-06
2.06046e-07
9.17562e-06
-6.89141e-07
2.1355e-07
9.03119e-06
-2.60533e-07
2.2141e-07
8.80199e-06
1.73082e-07
2.29405e-07
8.48781e-06
6.10049e-07
2.37222e-07
8.08731e-06
1.04782e-06
2.44442e-07
7.59944e-06
1.48362e-06
2.50519e-07
7.02372e-06
1.91326e-06
2.54783e-07
6.36087e-06
2.33187e-06
2.56471e-07
5.61237e-06
2.73633e-06
2.54785e-07
4.77913e-06
3.12967e-06
2.4885e-07
3.86296e-06
3.52371e-06
2.37368e-07
2.87846e-06
3.92852e-06
2.18124e-07
1.8796e-06
4.30715e-06
1.88945e-07
9.6543e-07
4.50868e-06
1.50657e-07
2.68181e-07
4.17891e-06
1.03668e-07
2.33052e-06
4.19976e-08
1.70927e-07
-9.79701e-07
3.13297e-08
5.87224e-07
-2.48787e-06
6.24596e-08
1.15006e-06
-3.55234e-06
7.88546e-08
1.77732e-06
-4.23436e-06
8.92675e-08
2.41528e-06
-4.61976e-06
9.67241e-08
3.03986e-06
-4.80848e-06
1.01936e-07
3.64349e-06
-4.87055e-06
1.04891e-07
4.22375e-06
-4.84256e-06
1.05664e-07
4.77859e-06
-4.74294e-06
1.04675e-07
5.30462e-06
-4.58188e-06
1.02527e-07
5.79665e-06
-4.36553e-06
9.98321e-08
6.24781e-06
-4.09814e-06
9.71512e-08
6.65002e-06
-3.78352e-06
9.49959e-08
6.99488e-06
-3.42596e-06
9.38593e-08
7.27468e-06
-3.03079e-06
9.41834e-08
7.48335e-06
-2.60442e-06
9.63542e-08
7.61701e-06
-2.15394e-06
1.00677e-07
7.6742e-06
-1.68652e-06
1.07375e-07
7.65569e-06
-1.20868e-06
1.16572e-07
7.56392e-06
-7.25665e-07
1.28263e-07
7.40221e-06
-2.41139e-07
1.42287e-07
7.17404e-06
2.42922e-07
1.58304e-07
6.88247e-06
7.25813e-07
1.75765e-07
6.52897e-06
1.2074e-06
1.93881e-07
6.11358e-06
1.68735e-06
2.11614e-07
5.63488e-06
2.16423e-06
2.2768e-07
5.09028e-06
2.6358e-06
2.4062e-07
4.4762e-06
3.10144e-06
2.48921e-07
3.78903e-06
3.56578e-06
2.51032e-07
3.03023e-06
4.03746e-06
2.45037e-07
2.22087e-06
4.50951e-06
2.28435e-07
1.42019e-06
4.90841e-06
1.99605e-07
7.07495e-07
5.06177e-06
1.60009e-07
1.86671e-07
4.59079e-06
1.09699e-07
2.4758e-06
4.27912e-08
1.57484e-07
-1.1587e-06
2.14929e-08
5.20344e-07
-2.89476e-06
4.40107e-08
9.93021e-07
-4.08308e-06
5.80345e-08
1.50761e-06
-4.81729e-06
6.83186e-08
2.02501e-06
-5.21261e-06
7.54241e-08
2.53139e-06
-5.39391e-06
7.90214e-08
3.02427e-06
-5.4425e-06
7.90565e-08
3.50296e-06
-5.39725e-06
7.59737e-08
3.96546e-06
-5.27594e-06
7.04698e-08
4.40759e-06
-5.08728e-06
6.32316e-08
4.82292e-06
-4.83577e-06
5.48809e-08
5.20297e-06
-4.52429e-06
4.60463e-08
5.53813e-06
-4.15609e-06
3.73682e-08
5.81888e-06
-3.73624e-06
2.94817e-08
6.03722e-06
-3.27217e-06
2.30035e-08
6.1877e-06
-2.77347e-06
1.85316e-08
6.26795e-06
-2.25085e-06
1.66264e-08
6.27864e-06
-1.71503e-06
1.77878e-08
6.22307e-06
-1.17553e-06
2.24013e-08
6.10637e-06
-6.39733e-07
3.07489e-08
5.93428e-06
-1.12093e-07
4.30245e-08
5.71364e-06
4.04255e-07
5.92828e-08
5.44964e-06
9.10496e-07
7.93034e-08
5.14591e-06
1.40869e-06
1.02427e-07
4.8037e-06
1.90203e-06
1.27514e-07
4.4211e-06
2.39384e-06
1.52964e-07
3.99262e-06
2.88744e-06
1.76817e-07
3.5097e-06
3.38748e-06
1.96868e-07
2.9638e-06
3.90107e-06
2.10604e-07
2.35472e-06
4.4316e-06
2.14976e-07
1.70539e-06
4.95241e-06
2.06525e-07
1.07217e-06
5.35858e-06
1.83262e-07
5.18763e-07
5.46893e-06
1.46633e-07
1.31225e-07
4.88149e-06
9.756e-08
2.57373e-06
3.46569e-08
1.27525e-07
-1.30183e-06
1.55881e-08
4.22031e-07
-3.22418e-06
3.48982e-08
8.08063e-07
-4.51861e-06
4.94772e-08
1.23154e-06
-5.30196e-06
6.1164e-08
1.66137e-06
-5.71187e-06
6.94038e-08
2.08627e-06
-5.89253e-06
7.37016e-08
2.50354e-06
-5.93387e-06
7.40721e-08
2.91166e-06
-5.87638e-06
7.0985e-08
3.30781e-06
-5.73719e-06
6.50833e-08
3.68716e-06
-5.52362e-06
5.69591e-08
4.04281e-06
-5.23851e-06
4.70512e-08
4.36623e-06
-4.88353e-06
3.5803e-08
4.64813e-06
-4.46187e-06
2.38532e-08
4.87988e-06
-3.97997e-06
1.19532e-08
5.05512e-06
-3.44794e-06
5.00493e-10
5.16876e-06
-2.87877e-06
-8.3636e-09
5.22046e-06
-2.28686e-06
-1.57245e-08
5.21245e-06
-1.68644e-06
-2.06056e-08
5.14917e-06
-1.08998e-06
-2.23042e-08
5.0366e-06
-5.06958e-07
-2.02296e-08
4.88149e-06
5.68878e-08
-1.38913e-08
4.6905e-06
5.97979e-07
-2.74178e-09
4.46952e-06
1.11856e-06
1.28988e-08
4.22208e-06
1.62269e-06
3.34247e-08
3.94871e-06
2.11721e-06
5.81853e-08
3.6462e-06
2.61048e-06
8.58605e-08
3.30709e-06
3.11205e-06
1.14495e-07
2.92041e-06
3.63264e-06
1.41512e-07
2.47571e-06
4.18214e-06
1.63648e-07
1.97207e-06
4.75841e-06
1.76867e-07
1.43144e-06
5.31654e-06
1.76589e-07
9.03292e-07
5.72713e-06
1.59779e-07
4.40599e-07
5.80435e-06
1.27628e-07
1.16258e-07
5.12425e-06
8.2266e-08
2.66453e-06
2.67584e-08
1.08536e-07
-1.42151e-06
1.1135e-08
3.56944e-07
-3.50147e-06
2.88644e-08
6.83048e-07
-4.88908e-06
4.43548e-08
1.04316e-06
-5.71928e-06
5.71853e-08
1.41125e-06
-6.14618e-06
6.621e-08
1.77726e-06
-6.32955e-06
7.09992e-08
2.13819e-06
-6.36659e-06
7.17733e-08
2.49197e-06
-6.2993e-06
6.91116e-08
2.83539e-06
-6.14426e-06
6.362e-08
3.16357e-06
-5.90756e-06
5.57434e-08
3.46997e-06
-5.59069e-06
4.57434e-08
3.74701e-06
-5.19452e-06
3.39104e-08
3.98694e-06
-4.7226e-06
2.07696e-08
4.18292e-06
-4.18293e-06
6.94749e-09
4.32972e-06
-3.58797e-06
-6.79447e-09
4.42424e-06
-2.95347e-06
-1.98424e-08
4.46558e-06
-2.29677e-06
-3.14531e-08
4.45539e-06
-1.63517e-06
-4.11099e-08
4.39761e-06
-9.83963e-07
-4.82545e-08
4.2979e-06
-3.55084e-07
-5.21815e-08
4.16349e-06
2.43443e-07
-5.217e-08
4.001e-06
8.08032e-07
-4.75732e-08
3.81709e-06
1.34029e-06
-3.78345e-08
3.6156e-06
1.84662e-06
-2.24516e-08
3.39567e-06
2.33752e-06
-3.9751e-10
3.15516e-06
2.82655e-06
2.44383e-08
2.8839e-06
3.32942e-06
5.38916e-08
2.56901e-06
3.86284e-06
8.46964e-08
2.19841e-06
4.43963e-06
1.13116e-07
1.76961e-06
5.0531e-06
1.34154e-07
1.30099e-06
5.64311e-06
1.42135e-07
8.34728e-07
6.06091e-06
1.32666e-07
4.18199e-07
6.11486e-06
1.06363e-07
1.1724e-07
5.3594e-06
6.64651e-08
2.76345e-06
1.96099e-08
9.13001e-08
-1.52366e-06
1.0835e-08
3.07371e-07
-3.74766e-06
3.01018e-08
5.97103e-07
-5.22595e-06
4.7115e-08
9.21443e-07
-6.10464e-06
6.10077e-08
1.25576e-06
-6.55143e-06
7.0914e-08
1.58949e-06
-6.73999e-06
7.67082e-08
1.91865e-06
-6.7745e-06
7.87338e-08
2.24045e-06
-6.69869e-06
7.75684e-08
2.55137e-06
-6.52896e-06
7.37617e-08
2.84666e-06
-6.27053e-06
6.76531e-08
3.12054e-06
-5.92398e-06
5.93902e-08
3.36675e-06
-5.48989e-06
4.91399e-08
3.57935e-06
-4.97244e-06
3.72257e-08
3.75332e-06
-4.381e-06
2.40704e-08
3.88491e-06
-3.72983e-06
1.02474e-08
3.97163e-06
-3.03658e-06
-3.6344e-09
4.01336e-06
-2.32059e-06
-1.79425e-08
4.01042e-06
-1.60118e-06
-3.10667e-08
3.96527e-06
-8.96078e-07
-4.27594e-08
3.88216e-06
-2.19629e-07
-5.23723e-08
3.76686e-06
4.17754e-07
-5.90296e-08
3.62595e-06
1.01073e-06
-6.18151e-08
3.46577e-06
1.56033e-06
-5.98765e-08
3.29072e-06
2.07413e-06
-5.24743e-08
3.10164e-06
2.56549e-06
-3.89015e-08
2.89437e-06
3.05245e-06
-1.86479e-08
2.65949e-06
3.55648e-06
7.81676e-09
2.38494e-06
4.09998e-06
3.74101e-08
2.05739e-06
4.69889e-06
6.83002e-08
1.67252e-06
5.34342e-06
9.45897e-08
1.24484e-06
5.96138e-06
1.0948e-07
8.10654e-07
6.38807e-06
1.07177e-07
4.1462e-07
6.42385e-06
8.73478e-08
1.20468e-07
5.60033e-06
5.38634e-08
2.87015e-06
1.50163e-08
8.40069e-08
-1.61834e-06
1.06584e-08
2.82613e-07
-3.977e-06
3.07231e-08
5.49076e-07
-5.54093e-06
4.85092e-08
8.47496e-07
-6.46602e-06
6.29438e-08
1.155e-06
-6.93222e-06
7.32724e-08
1.46165e-06
-7.12615e-06
7.94846e-08
1.76355e-06
-7.15847e-06
8.20642e-08
2.05779e-06
-7.07465e-06
8.17007e-08
2.34083e-06
-6.89101e-06
7.89823e-08
2.60818e-06
-6.61213e-06
7.42413e-08
2.85463e-06
-6.23805e-06
6.76046e-08
3.07493e-06
-5.76939e-06
5.91739e-08
3.26445e-06
-5.21111e-06
4.91262e-08
3.41959e-06
-4.57385e-06
3.76908e-08
3.53782e-06
-3.87326e-06
2.51736e-08
3.61757e-06
-3.12836e-06
1.20088e-08
3.65763e-06
-2.35984e-06
-8.31837e-10
3.66009e-06
-1.58836e-06
-1.53054e-08
3.62588e-06
-8.33266e-07
-2.86232e-08
3.55814e-06
-1.10984e-07
-4.09266e-08
3.46151e-06
5.65825e-07
-5.14666e-08
3.34159e-06
1.18993e-06
-5.93028e-08
3.2038e-06
1.76153e-06
-6.3428e-08
3.05202e-06
2.28878e-06
-6.28887e-08
2.88715e-06
2.7871e-06
-5.67584e-08
2.70559e-06
3.27803e-06
-4.40366e-08
2.49848e-06
3.78762e-06
-2.4053e-08
2.2521e-06
4.34313e-06
3.22776e-09
1.95534e-06
4.96346e-06
3.21984e-08
1.60178e-06
5.63647e-06
6.052e-08
1.20281e-06
6.2802e-06
8.02028e-08
7.90687e-07
6.71614e-06
8.41761e-08
4.0864e-07
6.73537e-06
7.08032e-08
1.20156e-07
5.84558e-06
4.38322e-08
2.9796e-06
1.19279e-08
7.85149e-08
-1.70872e-06
1.18541e-08
2.67208e-07
-4.19939e-06
3.36903e-08
5.21494e-07
-5.84761e-06
5.23802e-08
8.06019e-07
-6.8177e-06
6.71497e-08
1.0985e-06
-7.30238e-06
7.76771e-08
1.38932e-06
-7.5012e-06
8.42186e-08
1.67455e-06
-7.53105e-06
8.73492e-08
1.95117e-06
-7.43905e-06
8.77679e-08
2.21566e-06
-7.24157e-06
8.60566e-08
2.46374e-06
-6.94279e-06
8.25586e-08
2.69075e-06
-6.54248e-06
7.74002e-08
2.89228e-06
-6.0416e-06
7.06482e-08
3.06477e-06
-5.44601e-06
6.23933e-08
3.20566e-06
-4.76751e-06
5.2737e-08
3.31338e-06
-4.02282e-06
4.18163e-08
3.38704e-06
-3.23188e-06
2.98328e-08
3.42623e-06
-2.41615e-06
1.70963e-08
3.43092e-06
-1.59725e-06
4.18158e-09
3.40275e-06
-7.95514e-07
-9.61038e-09
3.34409e-06
-2.90928e-08
-2.325e-08
3.25834e-06
6.87517e-07
-3.59687e-08
3.15032e-06
1.34491e-06
-4.69887e-08
3.0248e-06
1.94236e-06
-5.53309e-08
2.8853e-06
2.48822e-06
-5.99711e-08
2.73278e-06
2.99949e-06
-5.99029e-08
2.56427e-06
3.50048e-06
-5.39667e-08
2.37193e-06
4.02092e-06
-4.09798e-08
2.14348e-06
4.5919e-06
-2.03417e-08
1.86566e-06
5.23464e-06
6.62423e-09
1.53362e-06
5.93493e-06
3.35811e-08
1.15631e-06
6.60209e-06
5.54472e-08
7.62987e-07
7.04546e-06
6.4087e-08
3.95233e-07
7.0469e-06
5.64651e-08
1.16164e-07
6.08965e-06
3.55684e-08
3.08729e-06
9.64783e-09
7.66288e-08
-1.79838e-06
1.30146e-08
2.58744e-07
-4.4175e-06
3.59834e-08
5.02012e-07
-6.14589e-06
5.50006e-08
7.72017e-07
-7.15748e-06
6.97642e-08
1.04783e-06
-7.65844e-06
8.02363e-08
1.32085e-06
-7.86103e-06
8.6796e-08
1.58757e-06
-7.88789e-06
9.01046e-08
1.84517e-06
-7.78759e-06
9.09216e-08
2.09024e-06
-7.57652e-06
8.98505e-08
2.31876e-06
-7.25857e-06
8.72489e-08
2.52652e-06
-6.83352e-06
8.32619e-08
2.70978e-06
-6.30284e-06
7.79527e-08
2.86579e-06
-5.6734e-06
7.13708e-08
2.99285e-06
-4.95814e-06
6.35468e-08
3.09017e-06
-4.17467e-06
5.4508e-08
3.15749e-06
-3.34353e-06
4.43086e-08
3.19483e-06
-2.48659e-06
3.30663e-08
3.20242e-06
-1.62585e-06
2.09868e-08
3.18079e-06
-7.82287e-07
8.3817e-09
3.13138e-06
2.49792e-08
-4.68135e-09
3.05758e-06
7.79549e-07
-1.82606e-08
2.96271e-06
1.47058e-06
-3.08287e-08
2.85046e-06
2.09623e-06
-4.16484e-08
2.7236e-06
2.66478e-06
-4.97286e-08
2.5828e-06
3.19435e-06
-5.40751e-08
2.42539e-06
3.71138e-06
-5.35227e-08
2.2445e-06
4.24847e-06
-4.66811e-08
2.02923e-06
4.83954e-06
-3.24095e-08
1.76738e-06
5.50721e-06
-1.07418e-08
1.45345e-06
6.23479e-06
1.40472e-08
1.09654e-06
6.92331e-06
3.56835e-08
7.23547e-07
7.37138e-06
4.71273e-08
3.73822e-07
7.35271e-06
4.4122e-08
1.09044e-07
6.32642e-06
2.85346e-08
3.18972e-06
7.76624e-09
7.41894e-08
-1.88683e-06
1.42457e-08
2.50809e-07
-4.6324e-06
3.82674e-08
4.85784e-07
-6.43835e-06
5.74758e-08
7.44991e-07
-7.48876e-06
7.20607e-08
1.00836e-06
-8.00414e-06
8.23245e-08
1.268e-06
-8.2095e-06
8.88224e-08
1.52064e-06
-8.23282e-06
9.22654e-08
1.76354e-06
-8.12392e-06
9.34109e-08
1.9934e-06
-7.89924e-06
9.28503e-08
2.20642e-06
-7.56256e-06
9.09451e-08
2.39883e-06
-7.11381e-06
8.78575e-08
2.56751e-06
-6.55519e-06
8.36562e-08
2.71037e-06
-5.89467e-06
7.8374e-08
2.82639e-06
-5.14619e-06
7.2006e-08
2.91529e-06
-4.32811e-06
6.45221e-08
2.97718e-06
-3.46133e-06
5.58951e-08
3.01232e-06
-2.56789e-06
4.61359e-08
3.02097e-06
-1.66985e-06
3.53218e-08
3.00356e-06
-7.88478e-07
2.35875e-08
2.961e-06
5.63279e-08
1.11899e-08
2.89484e-06
8.46926e-07
-1.24697e-09
2.80896e-06
1.57106e-06
-1.46147e-08
2.70581e-06
2.22595e-06
-2.65944e-08
2.58745e-06
2.81977e-06
-3.6657e-08
2.45418e-06
3.37148e-06
-4.38987e-08
2.30349e-06
3.90926e-06
-4.72249e-08
2.12927e-06
4.4679e-06
-4.52407e-08
1.92202e-06
5.08329e-06
-3.65368e-08
1.67135e-06
5.77842e-06
-2.05778e-08
1.37135e-06
6.53339e-06
1.35292e-09
1.03288e-06
7.24109e-06
2.06473e-08
6.80324e-07
7.69079e-06
3.31779e-08
3.50142e-07
7.64953e-06
3.35357e-08
1.01407e-07
6.55324e-06
2.24074e-08
3.28611e-06
6.12431e-09
7.28781e-08
-1.97513e-06
1.54132e-08
2.44351e-07
-4.84414e-06
4.02572e-08
4.70306e-07
-6.72378e-06
5.94611e-08
7.17356e-07
-7.80958e-06
7.37544e-08
9.66684e-07
-8.33721e-06
8.3723e-08
1.21135e-06
-8.54422e-06
9.00401e-08
1.44854e-06
-8.56349e-06
9.34717e-08
1.67566e-06
-8.44586e-06
9.47983e-08
1.88959e-06
-8.20781e-06
9.46127e-08
2.08681e-06
-7.85307e-06
9.32797e-08
2.26397e-06
-7.38196e-06
9.09746e-08
2.41853e-06
-6.79755e-06
8.77712e-08
2.54902e-06
-6.10887e-06
8.36896e-08
2.65499e-06
-5.33087e-06
7.86962e-08
2.73661e-06
-4.48247e-06
7.27126e-08
2.79437e-06
-3.58475e-06
6.56405e-08
2.82866e-06
-2.6596e-06
5.73988e-08
2.83974e-06
-1.72891e-06
4.79597e-08
2.82777e-06
-8.13887e-07
3.73596e-08
2.79315e-06
6.51888e-08
2.57434e-08
2.73701e-06
8.89611e-07
1.34316e-08
2.66087e-06
1.64599e-06
1.19407e-09
2.56756e-06
2.33073e-06
-1.14878e-08
2.45813e-06
2.95184e-06
-2.26787e-08
2.33246e-06
3.52892e-06
-3.17932e-08
2.18803e-06
4.09149e-06
-3.78377e-08
2.01937e-06
4.67603e-06
-3.95146e-08
1.81831e-06
5.31966e-06
-3.53659e-08
1.57637e-06
6.04477e-06
-2.44699e-08
1.28997e-06
6.82739e-06
-7.66858e-09
9.68731e-07
7.5523e-06
9.96974e-09
6.36428e-07
8.00085e-06
2.22268e-08
3.26278e-07
7.93506e-06
2.47601e-08
9.39266e-08
6.76885e-06
1.72039e-08
3.37638e-06
4.72728e-09
7.05678e-08
-2.062e-06
1.62894e-08
2.36309e-07
-5.05144e-06
4.15471e-08
4.53645e-07
-7.00162e-06
6.04966e-08
6.89879e-07
-8.12016e-06
7.43414e-08
9.27172e-07
-8.65844e-06
8.39335e-08
1.15923e-06
-8.86635e-06
9.00539e-08
1.38347e-06
-8.88123e-06
9.34845e-08
1.59739e-06
-8.75479e-06
9.49885e-08
1.79802e-06
-8.50359e-06
9.51399e-08
1.98208e-06
-8.13146e-06
9.43015e-08
2.14667e-06
-7.63923e-06
9.26586e-08
2.28972e-06
-7.03091e-06
9.02913e-08
2.41027e-06
-6.31667e-06
8.72207e-08
2.50831e-06
-5.51233e-06
8.34041e-08
2.58436e-06
-4.63729e-06
7.87415e-08
2.63913e-06
-3.71263e-06
7.30953e-08
2.67313e-06
-2.75994e-06
6.63216e-08
2.68653e-06
-1.80064e-06
5.83093e-08
2.67925e-06
-8.55639e-07
4.90053e-08
2.65127e-06
5.46878e-08
3.84657e-08
2.603e-06
9.10951e-07
2.69138e-08
2.53549e-06
1.69871e-06
1.47625e-08
2.44987e-06
2.41361e-06
2.70802e-09
2.34729e-06
3.06346e-06
-9.06107e-09
2.22717e-06
3.66834e-06
-1.93431e-08
2.08701e-06
4.25886e-06
-2.72508e-08
1.92187e-06
4.87275e-06
-3.16248e-08
1.72484e-06
5.54769e-06
-3.10665e-08
1.48931e-06
6.30469e-06
-2.44698e-08
1.2138e-06
7.11498e-06
-1.21557e-08
9.07941e-07
7.85515e-06
2.90678e-09
5.94639e-07
8.30019e-06
1.3921e-08
3.03718e-07
8.20843e-06
1.76529e-08
8.70302e-08
6.97311e-06
1.28607e-08
3.46089e-06
3.56379e-09
6.90048e-08
-2.14815e-06
1.71272e-08
2.29716e-07
-5.25493e-06
4.27689e-08
4.38864e-07
-7.27224e-06
6.14529e-08
6.64499e-07
-8.42065e-06
7.48398e-08
8.89862e-07
-8.96785e-06
8.40259e-08
1.10942e-06
-9.1758e-06
8.9889e-08
1.32087e-06
-9.18594e-06
9.32427e-08
1.52189e-06
-9.05068e-06
9.48492e-08
1.70966e-06
-8.78664e-06
9.52707e-08
1.88118e-06
-8.39788e-06
9.48672e-08
2.03394e-06
-7.88583e-06
9.38306e-08
2.16631e-06
-7.25555e-06
9.22417e-08
2.27781e-06
-6.5183e-06
9.01139e-08
2.36881e-06
-5.69074e-06
8.73929e-08
2.44019e-06
-4.79264e-06
8.39583e-08
2.49289e-06
-3.84499e-06
7.96385e-08
2.52754e-06
-2.86884e-06
7.42407e-08
2.54424e-06
-1.88495e-06
6.75876e-08
2.54265e-06
-9.13621e-07
5.95529e-08
2.5222e-06
2.50131e-08
5.01152e-08
2.48254e-06
9.1117e-07
3.94201e-08
2.42387e-06
1.72955e-06
2.78036e-08
2.34668e-06
2.47499e-06
1.57731e-08
2.25111e-06
3.155e-06
4.00215e-09
2.13644e-06
3.78994e-06
-6.96949e-09
2.0002e-06
4.41125e-06
-1.61981e-08
1.83796e-06
5.05751e-06
-2.25807e-08
1.64397e-06
5.76645e-06
-2.4838e-08
1.41342e-06
6.55696e-06
-2.18136e-08
1.14682e-06
7.3949e-06
-1.34377e-08
8.54637e-07
8.14875e-06
-1.53418e-09
5.58228e-07
8.58854e-06
7.99724e-09
2.84486e-07
8.47008e-06
1.21737e-08
8.14037e-08
7.16717e-06
9.42303e-09
3.54063e-06
2.67244e-09
6.68406e-08
-2.23269e-06
1.76849e-08
2.22097e-07
-5.45347e-06
4.32723e-08
4.23173e-07
-7.53472e-06
6.14012e-08
6.38927e-07
-8.71059e-06
7.41689e-08
8.53539e-07
-9.26536e-06
8.28896e-08
1.06201e-06
-9.47279e-06
8.84998e-08
1.26225e-06
-9.478e-06
9.18009e-08
1.45203e-06
-9.33399e-06
9.35243e-08
1.62867e-06
-9.05752e-06
9.42072e-08
1.78946e-06
-8.6529e-06
9.42035e-08
1.9322e-06
-8.1223e-06
9.37117e-08
2.05564e-06
-7.47183e-06
9.2819e-08
2.15962e-06
-6.71384e-06
9.15412e-08
2.24483e-06
-5.86579e-06
8.98228e-08
2.31242e-06
-4.94779e-06
8.75358e-08
2.36352e-06
-3.98061e-06
8.44907e-08
2.39888e-06
-2.98468e-06
8.04589e-08
2.41857e-06
-1.97986e-06
7.52048e-08
2.42203e-06
-9.85626e-07
6.85272e-08
2.40824e-06
-2.15302e-08
6.03184e-08
2.37619e-06
8.92569e-07
5.06346e-08
2.32529e-06
1.7407e-06
3.97358e-08
2.25529e-06
2.5169e-06
2.807e-08
2.16581e-06
3.22822e-06
1.62174e-08
2.05573e-06
3.89513e-06
4.86024e-09
1.9226e-06
4.54959e-06
-5.24737e-09
1.76249e-06
5.2307e-06
-1.31446e-08
1.57074e-06
5.97573e-06
-1.76109e-08
1.3442e-06
6.80091e-06
-1.75125e-08
1.08524e-06
7.66626e-06
-1.2528e-08
8.05588e-07
8.43231e-06
-4.04997e-09
5.24505e-07
8.86547e-06
4.04953e-09
2.66567e-07
8.71993e-06
8.13575e-09
7.61057e-08
7.35118e-06
6.82499e-09
3.61568e-06
2.04249e-09
6.5219e-08
-2.31611e-06
1.81864e-08
2.15892e-07
-5.64786e-06
4.37037e-08
4.09924e-07
-7.79007e-06
6.12973e-08
6.16844e-07
-8.99098e-06
7.34594e-08
8.21709e-07
-9.55194e-06
8.17032e-08
1.02009e-06
-9.75821e-06
8.70267e-08
1.21009e-06
-9.75825e-06
9.02334e-08
1.3896e-06
-9.60556e-06
9.20322e-08
1.55613e-06
-9.317e-06
9.29377e-08
1.70717e-06
-8.89726e-06
9.32944e-08
1.84082e-06
-8.34928e-06
9.33016e-08
1.95614e-06
-7.68023e-06
9.30474e-08
2.0533e-06
-6.90356e-06
9.25456e-08
2.13327e-06
-6.03752e-06
9.17383e-08
2.19748e-06
-5.10251e-06
9.04928e-08
2.24731e-06
-4.11906e-06
8.86081e-08
2.28364e-06
-3.10686e-06
8.5832e-08
2.30658e-06
-2.08471e-06
8.18895e-08
2.31536e-06
-1.07095e-06
7.65204e-08
2.30853e-06
-8.42527e-08
6.95398e-08
2.28436e-06
8.55804e-07
6.0915e-08
2.24143e-06
1.73279e-06
5.08235e-08
2.1787e-06
2.53996e-06
3.96516e-08
2.0952e-06
3.28375e-06
2.79387e-08
1.98948e-06
3.98448e-06
1.63225e-08
1.85912e-06
4.67435e-06
5.53717e-09
1.70067e-06
5.3926e-06
-3.51705e-09
1.51047e-06
6.17559e-06
-9.75288e-09
1.28693e-06
7.0364e-06
-1.20684e-08
1.03411e-06
7.92892e-06
-9.98569e-09
7.64735e-07
8.70598e-06
-4.45921e-09
4.96675e-07
9.13162e-06
1.79689e-09
2.52133e-07
8.95905e-06
5.43998e-09
7.2045e-08
7.52655e-06
5.06123e-09
3.68698e-06
1.6893e-09
6.35027e-08
-2.39806e-06
1.8438e-08
2.09696e-07
-5.83755e-06
4.34896e-08
3.9703e-07
-8.0377e-06
6.02814e-08
5.95732e-07
-9.26139e-06
7.16941e-08
7.91671e-07
-9.82731e-06
7.9413e-08
9.80878e-07
-1.00319e-05
8.44523e-08
1.16164e-06
-1.00266e-05
8.75779e-08
1.33196e-06
-9.86536e-06
8.94567e-08
1.48948e-06
-9.56513e-06
9.05736e-08
1.63193e-06
-9.13099e-06
9.1263e-08
1.7576e-06
-8.5667e-06
9.17267e-08
1.86581e-06
-7.88051e-06
9.20571e-08
1.95691e-06
-7.08696e-06
9.22715e-08
2.03214e-06
-6.20508e-06
9.23161e-08
2.09313e-06
-5.25559e-06
9.20604e-08
2.14148e-06
-4.25874e-06
9.12988e-08
2.17828e-06
-3.23343e-06
8.97625e-08
2.2037e-06
-2.19728e-06
8.7142e-08
2.2169e-06
-1.16728e-06
8.3122e-08
2.2161e-06
-1.60909e-07
7.74411e-08
2.19899e-06
8.02931e-07
6.99741e-08
2.16334e-06
1.70761e-06
6.0809e-08
2.10737e-06
2.54564e-06
5.02636e-08
2.02951e-06
3.32275e-06
3.88363e-08
1.92796e-06
4.05885e-06
2.71398e-08
1.80032e-06
4.78605e-06
1.5878e-08
1.64358e-06
5.54338e-06
5.88163e-09
1.45502e-06
6.36585e-06
-1.80391e-09
1.23434e-06
7.26298e-06
-6.02941e-09
9.87117e-07
8.18234e-06
-6.3768e-09
7.26949e-07
8.9694e-06
-3.44618e-09
4.70709e-07
9.38688e-06
8.27787e-10
2.38416e-07
9.18748e-06
3.85621e-09
6.80353e-08
7.69321e-06
4.03022e-09
3.75434e-06
1.60186e-09
6.20498e-08
-2.47873e-06
1.85971e-08
2.04431e-07
-6.02308e-06
4.31281e-08
3.86099e-07
-8.27851e-06
5.91237e-08
5.77795e-07
-9.52291e-06
6.98006e-08
7.6605e-07
-1.00926e-05
7.69939e-08
9.47311e-07
-1.02949e-05
8.17353e-08
1.12004e-06
-1.02841e-05
8.47611e-08
1.28235e-06
-1.01144e-05
8.66985e-08
1.43204e-06
-9.80284e-06
8.80025e-08
1.56695e-06
-9.35493e-06
8.89942e-08
1.6856e-06
-8.77525e-06
8.98729e-08
1.78748e-06
-8.07315e-06
9.07316e-08
1.87315e-06
-7.26425e-06
9.15878e-08
1.94407e-06
-6.36841e-06
9.23913e-08
2.00211e-06
-5.40667e-06
9.30166e-08
2.04912e-06
-4.39902e-06
9.32614e-08
2.08637e-06
-3.36355e-06
9.28529e-08
2.11417e-06
-2.31656e-06
9.14627e-08
2.13162e-06
-1.27348e-06
8.87356e-08
2.13666e-06
-2.50298e-07
8.43438e-08
2.12637e-06
7.35136e-07
7.80714e-08
2.09777e-06
1.66629e-06
6.99084e-08
2.04828e-06
2.53501e-06
6.00914e-08
1.97573e-06
3.34621e-06
4.90669e-08
1.87797e-06
4.11914e-06
3.74203e-08
1.75262e-06
4.88551e-06
2.5836e-08
1.59708e-06
5.68371e-06
1.5119e-08
1.40956e-06
6.54704e-06
6.21606e-09
1.19137e-06
7.48107e-06
-5.58517e-11
9.48777e-07
8.42692e-06
-2.18052e-09
6.96258e-07
9.2231e-06
-1.39514e-09
4.49885e-07
9.63202e-06
1.05257e-09
2.27747e-07
9.40623e-06
3.34803e-09
6.51292e-08
7.85237e-06
3.73921e-09
3.81854e-06
1.81972e-09
6.09286e-08
-2.55819e-06
1.85203e-08
2.00072e-07
-6.20443e-06
4.21932e-08
3.76695e-07
-8.51232e-06
5.71756e-08
5.62046e-07
-9.77528e-06
6.70025e-08
7.43284e-07
-1.03475e-05
7.363e-08
9.17233e-07
-1.05469e-05
7.80668e-08
1.08258e-06
-1.05305e-05
8.09913e-08
1.23759e-06
-1.03524e-05
8.29795e-08
1.38015e-06
-1.00299e-05
8.44534e-08
1.50824e-06
-9.56877e-06
8.57204e-08
1.62047e-06
-8.97449e-06
8.69793e-08
1.71647e-06
-8.2575e-06
8.83256e-08
1.79696e-06
-7.43455e-06
8.97797e-08
1.86356e-06
-6.52633e-06
9.12969e-08
1.91835e-06
-5.55424e-06
9.27585e-08
1.96341e-06
-4.53807e-06
9.39686e-08
2.00027e-06
-3.49508e-06
9.46544e-08
2.02943e-06
-2.44021e-06
9.44753e-08
2.05007e-06
-1.38718e-06
9.30443e-08
2.05995e-06
-3.50161e-07
8.99745e-08
2.05569e-06
6.54423e-07
8.49617e-08
2.03358e-06
1.6105e-06
7.78934e-08
1.99027e-06
2.50938e-06
6.89157e-08
1.92294e-06
3.35509e-06
5.84141e-08
1.82907e-06
4.16602e-06
4.6944e-08
1.70621e-06
4.97312e-06
3.51761e-08
1.55215e-06
5.81377e-06
2.39001e-08
1.3659e-06
6.71911e-06
1.40461e-08
1.14971e-06
7.69049e-06
6.59951e-09
9.11661e-07
8.66246e-06
2.29072e-09
6.6642e-07
9.46698e-06
1.12356e-09
4.2918e-07
9.86704e-06
2.01401e-09
2.16714e-07
9.61525e-06
3.38141e-09
6.18858e-08
8.00373e-06
3.71586e-09
3.87923e-06
2.05503e-09
5.98624e-08
-2.6364e-06
1.83342e-08
1.96141e-07
-6.3818e-06
4.10724e-08
3.68477e-07
-8.73971e-06
5.50306e-08
5.48513e-07
-1.00193e-05
6.40144e-08
7.23876e-07
-1.05929e-05
7.00812e-08
8.91734e-07
-1.0789e-05
7.42131e-08
1.0509e-06
-1.07667e-05
7.70297e-08
1.19974e-06
-1.05803e-05
7.90561e-08
1.33627e-06
-1.02471e-05
8.0681e-08
1.4585e-06
-9.77324e-06
8.21958e-08
1.56517e-06
-9.16498e-06
8.37959e-08
1.65602e-06
-8.43395e-06
8.55766e-08
1.73192e-06
-7.59804e-06
8.75589e-08
1.79464e-06
-6.67877e-06
8.97026e-08
1.84645e-06
-5.69796e-06
9.18985e-08
1.88963e-06
-4.67524e-06
9.39622e-08
1.92596e-06
-3.62705e-06
9.56314e-08
1.95615e-06
-2.56698e-06
9.65663e-08
1.97949e-06
-1.50689e-06
9.63622e-08
1.99365e-06
-4.58913e-07
9.45853e-08
1.99484e-06
5.62376e-07
9.08496e-08
1.97867e-06
1.54173e-06
8.4936e-08
1.94104e-06
2.4701e-06
7.68867e-08
1.87848e-06
3.35061e-06
6.70117e-08
1.78807e-06
4.20056e-06
5.58265e-08
1.66731e-06
5.04982e-06
4.39882e-08
1.51434e-06
5.93435e-06
3.22797e-08
1.32893e-06
6.88275e-06
2.16219e-08
1.1144e-06
7.89182e-06
1.30042e-08
8.79903e-07
8.8895e-06
7.21817e-09
6.40654e-07
9.7016e-06
4.35634e-09
4.1129e-07
1.00926e-05
3.61856e-09
2.07268e-07
9.81522e-06
3.95794e-09
5.91798e-08
8.14802e-06
4.01992e-09
3.93687e-06
2.3687e-09
5.92774e-08
-2.71363e-06
1.79336e-08
1.93335e-07
-6.55532e-06
3.94526e-08
3.61914e-07
-8.96051e-06
5.22099e-08
5.3715e-07
-1.02549e-05
6.02607e-08
7.07234e-07
-1.08288e-05
6.5736e-08
8.69717e-07
-1.10211e-05
6.95543e-08
1.02338e-06
-1.09926e-05
7.22539e-08
1.16659e-06
-1.07979e-05
7.43031e-08
1.29748e-06
-1.04541e-05
7.60583e-08
1.41417e-06
-9.96776e-06
7.77963e-08
1.51548e-06
-9.34603e-06
7.97101e-08
1.60127e-06
-8.60166e-06
8.18952e-08
1.6725e-06
-7.75367e-06
8.43734e-08
1.73104e-06
-6.82445e-06
8.71081e-08
1.77933e-06
-5.83627e-06
8.99979e-08
1.81986e-06
-4.80866e-06
9.28701e-08
1.85467e-06
-3.75735e-06
9.54742e-08
1.88475e-06
-2.69455e-06
9.74773e-08
1.90962e-06
-1.63023e-06
9.84667e-08
1.92697e-06
-5.74247e-07
9.79739e-08
1.93275e-06
4.6105e-07
9.55419e-08
1.92196e-06
1.46166e-06
9.0847e-08
1.88977e-06
2.41846e-06
8.38206e-08
1.832e-06
3.33367e-06
7.46843e-08
1.74525e-06
4.22335e-06
6.39025e-08
1.62692e-06
5.11596e-06
5.21143e-08
1.47545e-06
6.04561e-06
4.0101e-08
1.2913e-06
7.03796e-06
2.87852e-08
1.0788e-06
8.08493e-06
1.91672e-08
8.48079e-07
9.10786e-06
1.20908e-08
6.14797e-07
9.92682e-06
7.76366e-09
3.93047e-07
1.03084e-05
5.60381e-09
1.97304e-07
1.00059e-05
4.90701e-09
5.61356e-08
8.28484e-06
4.54103e-09
3.9911e-06
2.71589e-09
5.85083e-08
-2.78958e-06
1.74253e-08
1.90353e-07
-6.72482e-06
3.76393e-08