/*--------------------------------*- C++ -*----------------------------------*\
| =========                 |                                                 |
| \\      /  F ield         | OpenFOAM: The Open Source CFD Toolbox           |
|  \\    /   O peration     | Version:  v2006                                 |
|   \\  /    A nd           | Website:  www.openfoam.com                      |
|    \\/     M anipulation  |                                                 |
\*---------------------------------------------------------------------------*/
FoamFile
{
    version     2.0;
    format      ascii;
    class       volVectorField;
    location    "95";
    object      U;
}
// * * * * * * * * * * * * * * * * * * * * * * * * * * * * * * * * * * * * * //

dimensions      [0 1 -1 0 0 0 0];


internalField   nonuniform List<vector> 
78750
(
(0.000112009 -0.0012273 0.000286759)
(0.00070885 -0.0028826 0.000706207)
(0.00174584 -0.00390647 0.00113605)
(0.00305419 -0.00448529 0.00159836)
(0.00451919 -0.00477103 0.00206578)
(0.00607098 -0.00487027 0.00250918)
(0.00766213 -0.0048494 0.00291005)
(0.00925537 -0.00474535 0.00326017)
(0.0108197 -0.00457642 0.00355818)
(0.0123287 -0.00435075 0.00380635)
(0.0137589 -0.00407193 0.00400848)
(0.015089 -0.00374201 0.0041688)
(0.0162998 -0.00336329 0.0042913)
(0.0173746 -0.00293933 0.00437928)
(0.0182987 -0.00247184 0.00443564)
(0.0190593 -0.00196097 0.00446322)
(0.0196471 -0.00141285 0.00446434)
(0.0200532 -0.000835375 0.00444104)
(0.0202707 -0.000237222 0.00439526)
(0.0202953 0.000372421 0.00432896)
(0.0201251 0.000983773 0.00424416)
(0.0197595 0.00158697 0.00414259)
(0.0192003 0.0021715 0.00402651)
(0.0184533 0.00272619 0.00389855)
(0.0175278 0.00323894 0.00376202)
(0.0164369 0.00369567 0.00362125)
(0.0151971 0.0040748 0.00348055)
(0.0138296 0.00435022 0.00334553)
(0.0123597 0.0045075 0.00322395)
(0.0108098 0.00457732 0.00311875)
(0.00918158 0.00471385 0.00300822)
(0.0074091 0.00526254 0.00281184)
(0.00533811 0.00652681 0.00238317)
(0.00296304 0.00778151 0.00160926)
(0.000727119 0.00581099 0.000570891)
(1.00346e-05 -0.00342334 0.000866814)
(0.000465899 -0.00855057 0.00218544)
(0.00130762 -0.0121459 0.00314511)
(0.00245812 -0.0146515 0.00384001)
(0.00383692 -0.0163793 0.00434761)
(0.00537663 -0.0175119 0.00472568)
(0.00701325 -0.0181549 0.00501415)
(0.00869339 -0.0183792 0.00524049)
(0.0103741 -0.0182382 0.00542345)
(0.0120194 -0.0177747 0.00557542)
(0.013598 -0.0170242 0.00570438)
(0.0150831 -0.0160179 0.00581522)
(0.0164528 -0.0147852 0.00590981)
(0.0176843 -0.0133607 0.00598327)
(0.0187563 -0.0117832 0.00602792)
(0.0196632 -0.0100733 0.00604907)
(0.0203962 -0.00824295 0.00605524)
(0.02094 -0.00631303 0.00604762)
(0.0212868 -0.00430537 0.00602683)
(0.0214299 -0.00224236 0.0059929)
(0.0213658 -0.000147213 0.00594548)
(0.0210907 0.00195611 0.00588367)
(0.0205999 0.00404215 0.00580651)
(0.0198924 0.00608322 0.00571283)
(0.0189681 0.0080469 0.00560119)
(0.0178349 0.00988997 0.00546803)
(0.0165044 0.0115755 0.0053161)
(0.0149728 0.0130899 0.00515973)
(0.0132426 0.0144401 0.00501055)
(0.0113294 0.0157113 0.00486746)
(0.00923236 0.0171896 0.00470354)
(0.00692493 0.0193727 0.0044259)
(0.00446782 0.0222717 0.00384961)
(0.00212474 0.0235253 0.00277863)
(0.00028 0.0157141 0.00111823)
(2.21356e-05 -0.00515173 0.00101188)
(0.000501375 -0.013508 0.00242602)
(0.00136868 -0.0199051 0.00333418)
(0.00253276 -0.0245839 0.00390593)
(0.00387605 -0.0278032 0.00426576)
(0.00531393 -0.0298572 0.00450096)
(0.00678966 -0.0309885 0.00466693)
(0.0082615 -0.0313694 0.0047952)
(0.00969797 -0.031122 0.00490229)
(0.0110756 -0.0303382 0.00499609)
(0.0123758 -0.0290908 0.00507978)
(0.0135833 -0.0274397 0.00515427)
(0.0146843 -0.0254361 0.00521976)
(0.0156668 -0.0231257 0.00527638)
(0.0165191 -0.020554 0.00532336)
(0.0172297 -0.0177666 0.00535856)
(0.0177891 -0.0148022 0.00538153)
(0.0181919 -0.0116846 0.0053972)
(0.0184321 -0.00843499 0.00541051)
(0.0185031 -0.0050833 0.0054221)
(0.0183993 -0.00166616 0.00542959)
(0.0181196 0.00178414 0.00543206)
(0.0176627 0.00524196 0.00543037)
(0.0170245 0.00867603 0.0054228)
(0.0162013 0.0120495 0.00540618)
(0.0151912 0.0153201 0.00537665)
(0.013995 0.0184459 0.00533196)
(0.0126167 0.0213952 0.00527265)
(0.0110634 0.0241754 0.00520037)
(0.00934128 0.0268987 0.00511126)
(0.0074412 0.0298357 0.00497425)
(0.00535863 0.0332035 0.00469101)
(0.00329591 0.0361807 0.0040937)
(0.0014454 0.0354359 0.00297077)
(0.000137117 0.0215059 0.00117743)
(3.38488e-05 -0.00736827 0.00105326)
(0.000583618 -0.0192132 0.00233975)
(0.00150299 -0.0280963 0.00305157)
(0.00266358 -0.034287 0.0034473)
(0.00392084 -0.0382031 0.00367555)
(0.00519087 -0.0404231 0.0038175)
(0.00643895 -0.0414268 0.00391633)
(0.00764599 -0.0415182 0.00399244)
(0.00879683 -0.0408812 0.00405393)
(0.00988122 -0.0396361 0.00410328)
(0.0108915 -0.0378683 0.00414092)
(0.0118199 -0.0356429 0.00416694)
(0.0126575 -0.0330129 0.00418202)
(0.0133949 -0.0300247 0.00418796)
(0.0140225 -0.0267212 0.00418789)
(0.0145309 -0.0231439 0.00418597)
(0.0149119 -0.0193348 0.0041869)
(0.0151596 -0.0153341 0.00419574)
(0.0152701 -0.0111788 0.0042183)
(0.0152421 -0.0069017 0.00426008)
(0.0150745 -0.00253213 0.0043252)
(0.0147673 0.00190324 0.00441562)
(0.0143199 0.00637712 0.00453014)
(0.0137309 0.0108579 0.00466317)
(0.0129983 0.0153052 0.0048041)
(0.01212 0.019667 0.0049379)
(0.0110962 0.0238859 0.00504776)
(0.00992991 0.0279242 0.00511937)
(0.0086266 0.03181 0.00514313)
(0.00718692 0.0356838 0.00510751)
(0.00560087 0.039741 0.00497667)
(0.00389618 0.0437912 0.00466291)
(0.00231005 0.0463481 0.0040496)
(0.000943213 0.0436347 0.00294892)
(4.96006e-05 0.0249286 0.00116723)
(4.2087e-05 -0.00978958 0.000871238)
(0.00056908 -0.0251191 0.00183178)
(0.0014013 -0.0361517 0.00230264)
(0.002412 -0.0433931 0.00253954)
(0.00346773 -0.0476147 0.00266273)
(0.00450656 -0.0497685 0.00272699)
(0.00551766 -0.0505562 0.00275885)
(0.00649712 -0.0503654 0.00276908)
(0.00743768 -0.0494026 0.00276089)
(0.00833337 -0.0477881 0.00273481)
(0.00917749 -0.045599 0.00269096)
(0.00996037 -0.0428897 0.00263017)
(0.0106696 -0.0397057 0.00255464)
(0.0112911 -0.0360919 0.00246841)
(0.0118113 -0.0320978 0.00237755)
(0.0122185 -0.0277791 0.0022902)
(0.012504 -0.0231955 0.00221634)
(0.0126634 -0.0184068 0.00216758)
(0.0126962 -0.0134684 0.00215655)
(0.0126053 -0.00842645 0.00219608)
(0.0123956 -0.00331552 0.002298)
(0.0120731 0.00184127 0.00247166)
(0.0116435 0.00702833 0.00272158)
(0.0111108 0.0122304 0.00304448)
(0.0104761 0.0174232 0.00342614)
(0.00973801 0.0225662 0.00383935)
(0.00889308 0.0276081 0.0042458)
(0.00793746 0.0325183 0.00460347)
(0.0068669 0.0373372 0.00487444)
(0.0056741 0.0421898 0.00502236)
(0.00435297 0.0471144 0.00499445)
(0.00296957 0.0515023 0.00471188)
(0.00172416 0.053525 0.00409787)
(0.000671328 0.0491127 0.0029907)
(2.87547e-05 0.0269342 0.00116888)
(4.85116e-05 -0.0118121 0.000598306)
(0.000515511 -0.029762 0.00125239)
(0.00122341 -0.0422391 0.00159649)
(0.00206335 -0.0500834 0.00179446)
(0.00292495 -0.0544026 0.00190541)
(0.00376507 -0.0564446 0.00195853)
(0.00458602 -0.0570528 0.00197213)
(0.00538976 -0.0566474 0.00195452)
(0.00617019 -0.0554286 0.00190867)
(0.00692056 -0.0535005 0.00183564)
(0.00763239 -0.050922 0.00173595)
(0.00829364 -0.0477325 0.00161034)
(0.00888919 -0.0439706 0.00146026)
(0.00940277 -0.0396862 0.00128864)
(0.00981936 -0.0349478 0.00110048)
(0.0101274 -0.0298417 0.000903553)
(0.01032 -0.0244657 0.000708985)
(0.0103959 -0.0189187 0.000531412)
(0.0103585 -0.0132901 0.000388962)
(0.0102149 -0.00765033 0.000302826)
(0.00997458 -0.00204564 0.000296023)
(0.00964817 0.00350239 0.000391174)
(0.00924607 0.00899318 0.00060734)
(0.00877605 0.0144404 0.000955293)
(0.0082423 0.0198611 0.00143177)
(0.00764436 0.0252645 0.00201359)
(0.00697633 0.0306524 0.00265532)
(0.00622731 0.0360431 0.00329432)
(0.00538292 0.0415013 0.00386)
(0.00442762 0.0470997 0.004276)
(0.00335712 0.0526587 0.00445266)
(0.0022618 0.0571804 0.00429986)
(0.00129025 0.0586954 0.00376109)
(0.000477898 0.0528712 0.00271066)
(1.62284e-05 0.0282213 0.00100147)
(3.86421e-05 -0.013646 0.000440252)
(0.000416019 -0.0339689 0.000969163)
(0.000991057 -0.0477671 0.00129564)
(0.00168226 -0.0561948 0.00150819)
(0.00239601 -0.0606631 0.00163332)
(0.0030966 -0.0626721 0.00169497)
(0.00378823 -0.0631745 0.00171339)
(0.00447157 -0.06261 0.00169872)
(0.0051389 -0.0611723 0.00165516)
(0.00578251 -0.0589502 0.00158431)
(0.00639322 -0.055984 0.00148655)
(0.00695844 -0.0522975 0.00136158)
(0.00746312 -0.0479243 0.0012091)
(0.00789199 -0.0429261 0.00102963)
(0.00823195 -0.0373995 0.00082505)
(0.00847332 -0.0314707 0.000599182)
(0.00861141 -0.0252798 0.000358799)
(0.00864757 -0.018966 0.00011495)
(0.0085876 -0.0126518 -0.000116097)
(0.00844042 -0.00643126 -0.000312512)
(0.0082169 -0.000364469 -0.000447489)
(0.00792846 0.0055228 -0.000491141)
(0.00758593 0.0112373 -0.000413731)
(0.00719761 0.016814 -0.000190541)
(0.00676725 0.0223078 0.000191873)
(0.00629287 0.0277835 0.000728204)
(0.00576586 0.0333134 0.001388)
(0.00517137 0.0389844 0.00211369)
(0.00449036 0.0448935 0.00282257)
(0.0037039 0.0510512 0.00340764)
(0.00280868 0.0570615 0.00374133)
(0.0019026 0.0616222 0.00371172)
(0.00109493 0.0627105 0.00327122)
(0.000411189 0.0557347 0.00232396)
(2.32039e-05 0.0292331 0.000814933)
(3.50953e-05 -0.0150136 0.000294595)
(0.000349997 -0.0370942 0.000716963)
(0.000835166 -0.051907 0.00102931)
(0.00142379 -0.0608316 0.00125265)
(0.00203424 -0.0654704 0.00138838)
(0.00263537 -0.0674973 0.00145614)
(0.00323188 -0.0679456 0.00147693)
(0.00382372 -0.0672708 0.00146188)
(0.0044025 -0.065658 0.00141594)
(0.00496024 -0.0631797 0.00134143)
(0.00548793 -0.0598585 0.00123914)
(0.00597397 -0.0557068 0.00110898)
(0.00640524 -0.0507612 0.000950618)
(0.0067692 -0.0451027 0.000763934)
(0.0070555 -0.0388587 0.000549296)
(0.00725704 -0.0321913 0.000308337)
(0.00737043 -0.0252804 4.51491e-05)
(0.00739624 -0.0183031 -0.000232121)
(0.00733896 -0.0114135 -0.000509433)
(0.0072067 -0.00472905 -0.000765961)
(0.00701042 0.00167595 -0.000974528)
(0.00676212 0.00777251 -0.00110363)
(0.00647345 0.0135786 -0.00112064)
(0.00615349 0.0191567 -0.000995873)
(0.0058055 0.024604 -0.000707492)
(0.00542695 0.0300418 -0.000247729)
(0.00500802 0.0356097 0.000369091)
(0.00452992 0.0414604 0.00109986)
(0.00396999 0.047721 0.00186591)
(0.00330641 0.0543442 0.00254758)
(0.00253322 0.060748 0.00299234)
(0.00174493 0.0653903 0.00306805)
(0.00102807 0.0661914 0.0027329)
(0.000403353 0.0583214 0.00191704)
(3.0939e-05 0.030274 0.000639036)
(2.63448e-05 -0.0162556 0.000266346)
(0.000295288 -0.0400464 0.000708737)
(0.000723132 -0.0559172 0.00105875)
(0.0012524 -0.0653975 0.00130866)
(0.00180566 -0.0702564 0.00145782)
(0.00235231 -0.0723361 0.00153196)
(0.00289607 -0.0727513 0.0015566)
(0.00343539 -0.0719761 0.0015454)
(0.00396094 -0.0701931 0.00150485)
(0.00446467 -0.0674638 0.00143834)
(0.00493824 -0.0637986 0.00134732)
(0.00537165 -0.0592039 0.00123178)
(0.00575433 -0.053721 0.00109055)
(0.00607681 -0.047446 0.000921386)
(0.00633168 -0.0405275 0.000721329)
(0.00651385 -0.0331523 0.000487715)
(0.00662096 -0.0255261 0.000219761)
(0.00665312 -0.0178558 -7.92766e-05)
(0.00661274 -0.0103276 -0.000399511)
(0.00650501 -0.00308967 -0.000722406)
(0.0063384 0.00375445 -0.00102029)
(0.00612357 0.0101554 -0.00125838)
(0.00587198 0.0161282 -0.00139907)
(0.00559331 0.0217533 -0.00140669)
(0.0052924 0.0271664 -0.00125175)
(0.00496685 0.0325468 -0.000915526)
(0.00460578 0.0381048 -0.000397025)
(0.00419128 0.0440606 0.000276636)
(0.00370055 0.0505774 0.00103618)
(0.00310943 0.0575666 0.00175864)
(0.00240781 0.0642977 0.00227595)
(0.0016842 0.0690359 0.00243857)
(0.0010113 0.0696211 0.00220721)
(0.000409029 0.0609722 0.00153591)
(3.44285e-05 0.0314325 0.000490414)
(2.4387e-05 -0.0173093 0.000243393)
(0.000270082 -0.0425856 0.000678285)
(0.000664337 -0.0593981 0.0010303)
(0.00115262 -0.0693921 0.0012816)
(0.001662 -0.0744689 0.00143156)
(0.00216414 -0.0766108 0.00150682)
(0.00266304 -0.0770046 0.00153329)
(0.00315701 -0.0761436 0.00152504)
(0.00363674 -0.0742086 0.00148909)
(0.00409439 -0.0712526 0.0014294)
(0.00452217 -0.0672779 0.00134822)
(0.00491127 -0.06229 0.00124634)
(0.005253 -0.056339 0.00112308)
(0.00554026 -0.0495362 0.000976181)
(0.005768 -0.0420486 0.000801995)
(0.00593286 -0.034081 0.000596148)
(0.00603274 -0.0258571 0.000354896)
(0.00606791 -0.0175989 7.7037e-05)
(0.00604105 -0.00951433 -0.000233613)
(0.00595545 -0.0017743 -0.000565146)
(0.00581738 0.00549346 -0.000895352)
(0.00563562 0.0122197 -0.00119231)
(0.00542001 0.0184116 -0.00141799)
(0.00517908 0.0241572 -0.00153336)
(0.00491745 0.0296169 -0.00150281)
(0.00463325 0.0350121 -0.00129767)
(0.00431629 0.0406092 -0.000902219)
(0.00394812 0.0466879 -0.00032559)
(0.00350632 0.0534459 0.000378873)
(0.0029671 0.060769 0.00109445)
(0.00231668 0.0678094 0.00164755)
(0.00163757 0.0726679 0.00187584)
(0.000993736 0.073081 0.00173864)
(0.000406624 0.0637043 0.00120848)
(3.41067e-05 0.0326581 0.000373108)
(2.08886e-05 -0.0183295 0.000263634)
(0.000253306 -0.0450899 0.000738209)
(0.000629743 -0.0628608 0.00111527)
(0.00109651 -0.073377 0.00137635)
(0.00158179 -0.0786745 0.00152754)
(0.00205832 -0.0808799 0.00160156)
(0.00253039 -0.081252 0.00162692)
(0.00299609 -0.0803037 0.00161887)
(0.00344599 -0.078216 0.00158521)
(0.00387244 -0.0750368 0.00153059)
(0.0042682 -0.070764 0.00145771)
(0.0046255 -0.0654047 0.00136748)
(0.00493726 -0.0590177 0.00125882)
(0.00519822 -0.051727 0.00112857)
(0.00540508 -0.0437124 0.000971902)
(0.00555599 -0.0351909 0.000783083)
(0.00564989 -0.0263986 0.0005568)
(0.00568636 -0.0175727 0.00028987)
(0.00566654 -0.00893546 -1.65554e-05)
(0.00559359 -0.000680898 -0.000354255)
(0.00547226 0.00703702 -0.000705261)
(0.00530958 0.014127 -0.00104142)
(0.00511405 0.0205865 -0.00132717)
(0.00489337 0.0265085 -0.00152398)
(0.00465198 0.0320749 -0.0015944)
(0.00438862 0.0375425 -0.00150448)
(0.00409459 0.0432243 -0.00122817)
(0.00375319 0.0494485 -0.000759185)
(0.00334189 0.0564442 -0.000133623)
(0.00283668 0.064074 0.000544956)
(0.00222331 0.0713905 0.0011062)
(0.00157957 0.0763502 0.00138093)
(0.000961797 0.076583 0.0013255)
(0.000393081 0.0664682 0.000925874)
(3.1627e-05 0.0338915 0.000276759)
(2.06405e-05 -0.0193239 0.000282937)
(0.000246427 -0.0475231 0.000775845)
(0.000608504 -0.0662007 0.00115347)
(0.00105346 -0.0771929 0.0014076)
(0.00151232 -0.0826812 0.00155217)
(0.0019603 -0.0849341 0.00162242)
(0.0024025 -0.0852763 0.00164689)
(0.0028372 -0.0842378 0.00164079)
(0.00325533 -0.0819998 0.0016122)
(0.00364958 -0.0786062 0.00156625)
(0.00401317 -0.0740536 0.00150621)
(0.00433922 -0.0683543 0.00143345)
(0.0046219 -0.0615781 0.00134698)
(0.00485744 -0.0538621 0.00124324)
(0.00504394 -0.045397 0.00111638)
(0.00518073 -0.0364078 0.00095901)
(0.00526773 -0.0271359 0.000763555)
(0.00530507 -0.0178242 0.00052401)
(0.00529324 -0.00870344 0.00023812)
(0.00523369 1.92503e-05 -8.97769e-05)
(0.00513024 0.00816965 -0.000445672)
(0.00498862 0.0156359 -0.00080474)
(0.00481526 0.0224028 -0.00113349)
(0.00461613 0.0285629 -0.00139409)
(0.00439485 0.0343115 -0.00154833)
(0.00415016 0.0399318 -0.00155935)
(0.00387445 0.0457722 -0.00139452)
(0.0035531 0.0521981 -0.00103593)
(0.00316553 0.0594605 -0.000503763)
(0.00268857 0.0673991 0.000114636)
(0.00210839 0.0749748 0.000659169)
(0.00149982 0.0800153 0.000960151)
(0.000912255 0.0800499 0.00097092)
(0.000369637 0.0691826 0.00068609)
(2.79162e-05 0.0350836 0.000197783)
(1.91675e-05 -0.0202953 0.000306941)
(0.000239059 -0.0498907 0.000824935)
(0.000589901 -0.0694404 0.00120977)
(0.00101861 -0.0808833 0.001461)
(0.00145778 -0.0865486 0.00159983)
(0.00188437 -0.0888433 0.00166539)
(0.002304 -0.0891536 0.00168705)
(0.00271498 -0.0880246 0.00168027)
(0.00310842 -0.0856383 0.0016535)
(0.00347728 -0.0820363 0.00161232)
(0.00381528 -0.0772157 0.00156051)
(0.00411636 -0.0711957 0.00149971)
(0.00437585 -0.0640574 0.00142897)
(0.00459113 -0.0559498 0.00134445)
(0.00476132 -0.0470728 0.00123973)
(0.00488651 -0.0376573 0.00110663)
(0.00496709 -0.0279485 0.0009365)
(0.00500348 -0.0181928 0.000721877)
(0.00499615 -0.00862637 0.000458467)
(0.00494589 0.00053278 0.000147617)
(0.00485476 0.00909396 -0.000200648)
(0.00472721 0.0169292 -0.000565523)
(0.00456896 0.0240125 -0.000916912)
(0.00438455 0.0304361 -0.00121909)
(0.00417655 0.0364069 -0.00143451)
(0.00394348 0.04223 -0.00152537)
(0.00367852 0.0482817 -0.00145533)
(0.00336888 0.054954 -0.00119839)
(0.00299659 0.0625077 -0.00076146)
(0.0025401 0.0707519 -0.000215171)
(0.00198772 0.0785559 0.000295196)
(0.00141277 0.0836359 0.000605333)
(0.000857012 0.0834381 0.000667262)
(0.00034388 0.0717974 0.000481222)
(2.46702e-05 0.0362096 0.000131661)
(1.897e-05 -0.0212828 0.000331447)
(0.000234348 -0.0522785 0.000868258)
(0.000573509 -0.0726758 0.00125079)
(0.000983901 -0.0845328 0.00149153)
(0.00140072 -0.0903455 0.00162065)
(0.00180332 -0.0926639 0.00168018)
(0.002198 -0.0929317 0.00169935)
(0.00258321 -0.0917066 0.00169345)
(0.00295043 -0.0891709 0.00167112)
(0.003293 -0.0853653 0.00163836)
(0.00360519 -0.0802902 0.00159941)
(0.00388175 -0.0739737 0.00155625)
(0.00411906 -0.0665094 0.00150782)
(0.00431556 -0.0580571 0.00144974)
(0.00447125 -0.0488237 0.00137452)
(0.00458689 -0.0390428 0.00127239)
(0.0046633 -0.0289589 0.00113277)
(0.00470102 -0.0188174 0.00094612)
(0.00470032 -0.00885541 0.000706201)
(0.00466143 0.000703062 0.000412487)
(0.00458541 0.00965469 7.28294e-05)
(0.0044746 0.0178569 -0.000294662)
(0.00433287 0.025274 -0.000662291)
(0.00416412 0.0319959 -0.000996392)
(0.00396982 0.0382372 -0.00126062)
(0.00374809 0.0443193 -0.00141739)
(0.00349254 0.0506402 -0.00142889)
(0.00319201 0.0576099 -0.00126427)
(0.00283139 0.0654888 -0.00092028)
(0.00239274 0.0740465 -0.000452182)
(0.00186672 0.0820629 1.14216e-05)
(0.0013243 0.0871563 0.000316269)
(0.000800844 0.086706 0.000414963)
(0.000318353 0.0742915 0.000311198)
(2.18772e-05 0.037267 7.82107e-05)
(1.78639e-05 -0.0222344 0.000350008)
(0.000227123 -0.0545557 0.000897675)
(0.000554388 -0.0757413 0.00127502)
(0.00094807 -0.0879755 0.00150489)
(0.00134546 -0.0939192 0.00162429)
(0.00172772 -0.096256 0.00167734)
(0.00210147 -0.0964806 0.00169296)
(0.00246514 -0.0951614 0.0016862)
(0.00281044 -0.0924811 0.00166588)
(0.0031311 -0.0884807 0.00163847)
(0.00342188 -0.0831654 0.00160871)
(0.00367831 -0.0765731 0.00157907)
(0.00389766 -0.0688097 0.0015488)
(0.0040792 -0.0600455 0.00151361)
(0.00422359 -0.0504938 0.00146572)
(0.00433206 -0.0403894 0.00139458)
(0.00440572 -0.0299749 0.00128812)
(0.00444513 -0.0194925 0.00113465)
(0.00445035 -0.00917776 0.000925301)
(0.00442101 0.000742216 0.000656829)
(0.00435731 0.0100547 0.000334515)
(0.00426043 0.018605 -2.60014e-05)
(0.00413252 0.0263497 -0.000399506)
(0.003976 0.0333776 -0.00075416)
(0.00379194 0.0399103 -0.00105483)
(0.00357822 0.0462831 -0.00126441)
(0.00332879 0.0529101 -0.00134448)
(0.00303389 0.0602113 -0.00126123)
(0.00268106 0.0684356 -0.00100389)
(0.00225596 0.0773029 -0.000614314)
(0.0017525 0.0855025 -0.000204198)
(0.00123993 0.0905728 8.50632e-05)
(0.000747328 0.0898449 0.000208405)
(0.000294592 0.0766562 0.000171779)
(1.95727e-05 0.0382557 3.55246e-05)
(1.73757e-05 -0.023202 0.000370364)
(0.000221769 -0.0568602 0.00092994)
(0.000538126 -0.0788234 0.00130049)
(0.000915575 -0.0914119 0.00151725)
(0.00129371 -0.0974662 0.00162543)
(0.00165577 -0.0998091 0.00167144)
(0.00200885 -0.0999838 0.00168372)
(0.00235135 -0.0985674 0.00167699)
(0.00267533 -0.0957438 0.0016602)
(0.00297492 -0.0915557 0.00164015)
(0.0032454 -0.0860147 0.00162202)
(0.00348301 -0.0791698 0.0016085)
(0.00368583 -0.0711393 0.00159894)
(0.00385388 -0.0621025 0.00158883)
(0.00398845 -0.0522771 0.00156993)
(0.00409126 -0.0418968 0.00153083)
(0.00416371 -0.0311994 0.0014581)
(0.00420645 -0.0204204 0.00133818)
(0.00421923 -0.00979039 0.00115984)
(0.00420107 0.000464356 0.000917238)
(0.00415103 0.0101249 0.000613175)
(0.00406896 0.0190255 0.000261207)
(0.00395563 0.0271134 -0.000115225)
(0.00381206 0.0344743 -0.00048579)
(0.00363836 0.0413336 -0.000816412)
(0.00343225 0.0480374 -0.00107073)
(0.00318814 0.0550119 -0.00121047)
(0.00289756 0.0626808 -0.00120021)
(0.00255048 0.0712745 -0.00102361)
(0.00213609 0.0804573 -0.000711063)
(0.00165202 0.0888277 -0.000357983)
(0.00116598 0.0938588 -9.17018e-05)
(0.000701091 0.0928466 4.60199e-05)
(0.000274816 0.0789019 6.24444e-05)
(1.80565e-05 0.039187 3.73709e-06)
(1.64626e-05 -0.0241294 0.000383339)
(0.000214875 -0.0590438 0.000942796)
(0.000519985 -0.0817205 0.00129941)
(0.000881957 -0.0946238 0.00149993)
(0.00124253 -0.100772 0.00159584)
(0.00158659 -0.103115 0.00163421)
(0.00192146 -0.103238 0.00164236)
(0.00224544 -0.101727 0.0016345)
(0.00255092 -0.0987647 0.00161964)
(0.00283237 -0.0943975 0.00160493)
(0.00308555 -0.088644 0.00159603)
(0.00330731 -0.081565 0.00159616)
(0.00349636 -0.0732908 0.00160509)
(0.00365327 -0.0640104 0.00161868)
(0.00377981 -0.0539456 0.00162877)
(0.00387807 -0.0433287 0.0016236)
(0.00394975 -0.0323916 0.00158869)
(0.00399556 -0.0213612 0.00150854)
(0.00401511 -0.01046 0.00136909)
(0.00400685 8.97353e-05 0.0011611)
(0.00396891 0.0100668 0.000883881)
(0.00389988 0.0192971 0.000548176)
(0.00379921 0.0277198 0.000175625)
(0.00366683 0.0354167 -0.000204407)
(0.00350202 0.0426163 -0.000558348)
(0.00330218 0.0496724 -0.000850158)
(0.0030621 0.0570191 -0.00104169)
(0.00277455 0.0650776 -0.00109646)
(0.00243174 0.0740518 -0.000993932)
(0.00202618 0.0835433 -0.00075471)
(0.00155948 0.0920605 -0.000459216)
(0.00109765 0.0970287 -0.000220522)
(0.000658158 0.0957204 -7.66219e-05)
(0.000256411 0.0810326 -1.96585e-05)
(1.65418e-05 0.0400637 -1.82206e-05)
(1.58298e-05 -0.0250671 0.000397362)
(0.000209465 -0.0612457 0.000958896)
(0.000505 -0.0846298 0.00130283)
(0.000853278 -0.0978332 0.00148748)
(0.00119795 -0.104061 0.00157109)
(0.00152564 -0.106397 0.00160184)
(0.00184391 -0.106467 0.00160607)
(0.00215102 -0.10486 0.00159746)
(0.00243962 -0.101764 0.00158504)
(0.00270457 -0.097227 0.00157622)
(0.00294204 -0.0912765 0.00157692)
(0.00314941 -0.0839849 0.00159064)
(0.00332595 -0.0754944 0.00161743)
(0.00347274 -0.0660025 0.00165335)
(0.00359203 -0.0557337 0.00169042)
(0.00368635 -0.044918 0.00171679)
(0.00375772 -0.0337789 0.00171751)
(0.00380704 -0.0225328 0.00167582)
(0.00383379 -0.0113913 0.00157551)
(0.00383592 -0.000568543 0.00140417)
(0.00381058 0.00971474 0.00115741)
(0.00375503 0.0192777 0.000842514)
(0.00366728 0.0280499 0.000478672)
(0.00354605 0.0361069 9.39886e-05)
(0.00338983 0.0436766 -0.000278405)
(0.0031958 0.0511175 -0.000602598)
(0.0029591 0.0588678 -0.000840423)
(0.00267366 0.067342 -0.000954543)
(0.00233377 0.0767122 -0.000920855)
(0.00193493 0.0865145 -0.000751448)
(0.00148246 0.0951699 -0.000512996)
(0.00104097 0.100068 -0.000304883)
(0.000623055 0.098467 -0.000161631)
(0.000241918 0.0830617 -7.56671e-05)
(1.57616e-05 0.0408953 -3.06697e-05)
(1.52122e-05 -0.0259673 0.000404138)
(0.000203908 -0.0633353 0.000955605)
(0.000490176 -0.0873667 0.00127898)
(0.000825578 -0.100832 0.00144388)
(0.00115561 -0.107123 0.0015137)
(0.00146838 -0.109445 0.00153607)
(0.00177164 -0.109458 0.00153566)
(0.00206356 -0.107758 0.00152542)
(0.0023371 -0.104531 0.00151431)
(0.00258743 -0.0998302 0.00150995)
(0.00281109 -0.0936926 0.00151865)
(0.00300585 -0.0862021 0.00154437)
(0.00317138 -0.0775135 0.00158765)
(0.00330914 -0.0678331 0.00164508)
(0.00342174 -0.0573894 0.0017091)
(0.00351208 -0.0464096 0.00176806)
(0.00358254 -0.0351091 0.00180665)
(0.00363427 -0.0236914 0.00180701)
(0.00366678 -0.0123546 0.00175075)
(0.00367775 -0.00130105 0.00162222)
(0.00366352 0.00925398 0.00141295)
(0.00362018 0.0191262 0.00112618)
(0.00354438 0.0282371 0.000778159)
(0.00343361 0.0366555 0.000395425)
(0.00328558 0.0446063 1.06965e-05)
(0.00309715 0.0524492 -0.000339997)
(0.00286385 0.0606219 -0.00061821)
(0.00258071 0.0695268 -0.000785715)
(0.00224376 0.0792988 -0.000815267)
(0.0018511 0.0894042 -0.000711344)
(0.00141149 0.0981799 -0.000528085)
(0.000988321 0.102994 -0.000352018)
(0.000590021 0.101097 -0.000214731)
(0.00022797 0.0849923 -0.00010967)
(1.47989e-05 0.0416822 -3.53434e-05)
(1.46054e-05 -0.0268734 0.000410695)
(0.000199142 -0.0654341 0.000953475)
(0.000477641 -0.0901067 0.0012582)
(0.000802137 -0.103822 0.00140479)
(0.00111958 -0.110166 0.00146152)
(0.00141945 -0.11247 0.00147584)
(0.0017097 -0.112425 0.00147098)
(0.00198842 -0.110632 0.0014592)
(0.00224884 -0.10728 0.00144931)
(0.0024864 -0.102426 0.00144904)
(0.00269793 -0.0961151 0.00146489)
(0.00288153 -0.0884439 0.0015011)
(0.00303722 -0.0795786 0.00155859)
(0.00316682 -0.0697341 0.00163446)
(0.00327331 -0.0591421 0.00172175)
(0.00335999 -0.0480267 0.00180934)
(0.00342964 -0.0365942 0.00188218)
(0.00348369 -0.0250343 0.00192197)
(0.00352174 -0.0135292 0.00190885)
(0.00354123 -0.00226654 0.00182431)
(0.00353775 0.00854744 0.00165579)
(0.00350624 0.0187274 0.00140199)
(0.00344195 0.0281863 0.00107537)
(0.00334117 0.0369841 0.000700251)
(0.00320073 0.04534 0.000308558)
(0.00301723 0.0536111 -6.35615e-05)
(0.00278653 0.0622312 -0.000377187)
(0.00250479 0.0715861 -0.000593036)
(0.00217008 0.0817701 -0.000680908)
(0.0017826 0.0921795 -0.000638441)
(0.00135371 0.10107 -0.000508229)
(0.000945835 0.1058 -0.000364996)
(0.000563857 0.103613 -0.000238169)
(0.00021743 0.0868358 -0.000123067)
(1.4539e-05 0.0424314 -3.26746e-05)
(1.43482e-05 -0.0277467 0.000410279)
(0.000195391 -0.0674344 0.000933452)
(0.000467081 -0.0926952 0.00121256)
(0.000781735 -0.106626 0.00133735)
(0.0010877 -0.113006 0.0013796)
(0.00137575 -0.115283 0.00138518)
(0.00165404 -0.115178 0.00137526)
(0.00192067 -0.113292 0.00136124)
(0.00216915 -0.109817 0.00135171)
(0.00239513 -0.104814 0.00135448)
(0.00259563 -0.0983361 0.0013763)
(0.00276898 -0.0904933 0.00142177)
(0.00291544 -0.0814641 0.00149234)
(0.00303709 -0.0714732 0.0015857)
(0.00313722 -0.0607564 0.00169556)
(0.0032195 -0.0495352 0.00181145)
(0.0032871 -0.0380067 0.0019187)
(0.00334188 -0.0263459 0.00199884)
(0.00338369 -0.0147161 0.00203082)
(0.00340995 -0.0032867 0.00199358)
(0.00341571 0.00775018 0.00187052)
(0.0033949 0.0182123 0.00165551)
(0.00334144 0.0280062 0.00135672)
(0.00325034 0.0371825 0.000995643)
(0.00311754 0.0459521 0.000603102)
(0.00293924 0.0546658 0.000215309)
(0.00271158 0.0637484 -0.000128171)
(0.00243163 0.0735646 -0.000386822)
(0.00209898 0.0841634 -0.000527556)
(0.00171628 0.0948683 -0.000541669)
(0.00129774 0.10386 -0.000461413)
(0.000904163 0.108497 -0.00035081)
(0.000537454 0.106022 -0.000237784)
(0.000206168 0.0885919 -0.00012024)
(1.38278e-05 0.0431419 -2.47481e-05)
(1.39673e-05 -0.0286237 0.000408746)
(0.000191877 -0.0694374 0.000912894)
(0.00045772 -0.0952781 0.00116824)
(0.000764104 -0.109413 0.00127293)
(0.00106042 -0.115819 0.00130171)
(0.0013386 -0.118063 0.00129902)
(0.00160695 -0.117897 0.00128419)
(0.00186345 -0.115922 0.00126778)
(0.00210181 -0.112329 0.00125815)
(0.00231792 -0.107184 0.00126311)
(0.00250891 -0.100551 0.0012895)
(0.00267333 -0.0925496 0.00134219)
(0.00281165 -0.0833719 0.00142299)
(0.00292622 -0.0732515 0.0015302)
(0.00302059 -0.0624281 0.00165832)
(0.00309875 -0.0511212 0.00179782)
(0.00316426 -0.039519 0.00193491)
(0.00321937 -0.0277812 0.00205157)
(0.00326425 -0.0160519 0.00212625)
(0.00329638 -0.00447904 0.00213594)
(0.0033104 0.00676303 0.00206027)
(0.00329935 0.0174987 0.00188801)
(0.00325585 0.0276293 0.00162229)
(0.00317365 0.0371949 0.00128099)
(0.00304777 0.0463958 0.000893197)
(0.002874 0.0555728 0.000494964)
(0.00264875 0.0651379 0.000126587)
(0.00236999 0.0754303 -0.000169984)
(0.00203877 0.0864513 -0.000358741)
(0.00165973 0.0974515 -0.000425056)
(0.00124965 0.10654 -0.000391698)
(0.000868151 0.111085 -0.000313207)
(0.000514639 0.108329 -0.000216817)
(0.000196601 0.090268 -0.000103656)
(1.34862e-05 0.0438173 -1.25842e-05)
(1.40896e-05 -0.0294732 0.000400946)
(0.000189721 -0.0713553 0.000876915)
(0.00045063 -0.0977292 0.0011028)
(0.000749596 -0.112037 0.00118463)
(0.00103721 -0.118453 0.00119893)
(0.00130662 -0.120659 0.00118753)
(0.00156619 -0.120428 0.00116732)
(0.00181356 -0.118362 0.00114793)
(0.00204259 -0.114652 0.00113751)
(0.00224941 -0.109368 0.00114386)
(0.00243133 -0.102581 0.00117402)
(0.00258706 -0.094428 0.00123306)
(0.00271727 -0.085111 0.00132317)
(0.00282445 -0.0748743 0.00144317)
(0.00291238 -0.0639625 0.00158829)
(0.00298534 -0.0525938 0.00174992)
(0.00304728 -0.0409479 0.00191522)
(0.00310093 -0.029169 0.00206693)
(0.00314692 -0.0173797 0.00218348)
(0.00318298 -0.00570405 0.00224051)
(0.00320362 0.00570662 0.00221438)
(0.00320112 0.0166882 0.00208882)
(0.00316694 0.0271392 0.00186152)
(0.00309349 0.03709 0.00154604)
(0.00297474 0.0467278 0.00116912)
(0.00280597 0.0563795 0.000766282)
(0.00258375 0.0664395 0.000378562)
(0.00230688 0.0772169 4.94822e-05)
(0.00197782 0.0886608 -0.000182005)
(0.00160299 0.0999483 -0.000295721)
(0.0012015 0.109122 -0.000305806)
(0.00083172 0.113567 -0.000258411)
(0.000491027 0.110533 -0.000180679)
(0.000186233 0.0918615 -7.73571e-05)
(1.28014e-05 0.0444556 2.11248e-06)
(1.39508e-05 -0.0303238 0.000391768)
(0.00018714 -0.0732673 0.000839631)
(0.000443399 -0.100162 0.00103752)
(0.000735797 -0.11463 0.00109796)
(0.00101602 -0.12105 0.00109869)
(0.00127823 -0.123215 0.00107899)
(0.00153069 -0.122917 0.00105352)
(0.0017706 -0.120759 0.00103097)
(0.00199182 -0.116934 0.00101926)
(0.00219067 -0.111515 0.00102619)
(0.00236478 -0.104584 0.00105878)
(0.00251301 -0.0962867 0.00112226)
(0.00263614 -0.0868404 0.00121906)
(0.0027368 -0.076498 0.0013485)
(0.00281893 -0.0655092 0.00150655)
(0.00288702 -0.0540915 0.00168566)
(0.00294532 -0.0424173 0.00187425)
(0.00299698 -0.0306162 0.00205623)
(0.00304306 -0.0187898 0.00221071)
(0.0030817 -0.00703597 0.00231267)
(0.00310742 0.0045203 0.00233585)
(0.00311202 0.0157309 0.00225914)
(0.00308591 0.0264948 0.00207436)
(0.00302027 0.0368329 0.00178998)
(0.00290798 0.0469178 0.00142957)
(0.00274373 0.0570593 0.00102764)
(0.0025242 0.0676293 0.000625781)
(0.00224898 0.0789026 0.000269187)
(0.00192185 0.0907735 -2.15982e-07)
(0.00155091 0.102346 -0.000156976)
(0.00115742 0.111599 -0.000207306)