/*--------------------------------*- C++ -*----------------------------------*\
| =========                 |                                                 |
| \\      /  F ield         | OpenFOAM: The Open Source CFD Toolbox           |
|  \\    /   O peration     | Version:  v2006                                 |
|   \\  /    A nd           | Website:  www.openfoam.com                      |
|    \\/     M anipulation  |                                                 |
\*---------------------------------------------------------------------------*/
FoamFile
{
    version     2.0;
    format      ascii;
    class       volScalarField;
    location    "93";
    object      k;
}
// * * * * * * * * * * * * * * * * * * * * * * * * * * * * * * * * * * * * * //

dimensions      [0 2 -2 0 0 0 0];


internalField   nonuniform List<scalar> 
78750
(
6.89477e-07
4.91228e-06
9.25754e-06
1.36539e-05
1.80015e-05
2.22019e-05
2.61683e-05
2.98339e-05
3.31552e-05
3.61077e-05
3.8681e-05
4.08734e-05
4.26882e-05
4.4132e-05
4.52048e-05
4.5914e-05
4.62678e-05
4.6274e-05
4.594e-05
4.52732e-05
4.42811e-05
4.29762e-05
4.13605e-05
3.94317e-05
3.7205e-05
3.46939e-05
3.19128e-05
2.88741e-05
2.55934e-05
2.20741e-05
1.82903e-05
1.42048e-05
9.90959e-06
5.79762e-06
2.37752e-06
1.71755e-06
1.533e-05
2.78708e-05
3.96465e-05
5.06705e-05
6.07758e-05
6.98028e-05
7.76732e-05
8.43805e-05
8.99604e-05
9.44685e-05
9.79682e-05
0.000100524
0.000102197
0.000103071
0.000103208
0.00010266
0.000101471
9.96844e-05
9.7342e-05
9.44803e-05
9.11309e-05
8.73089e-05
8.30236e-05
7.82923e-05
7.31371e-05
6.75938e-05
6.16626e-05
5.53155e-05
4.85119e-05
4.11018e-05
3.29212e-05
2.44219e-05
1.69456e-05
1.1657e-05
2.6728e-06
2.03091e-05
3.68844e-05
5.22259e-05
6.59364e-05
7.7725e-05
8.75317e-05
9.54771e-05
0.000101756
0.000106569
0.000110096
0.000112491
0.000113885
0.000114393
0.000114116
0.000113145
0.000111564
0.000109453
0.000106894
0.000103961
0.000100728
9.72612e-05
9.36032e-05
8.97609e-05
8.56958e-05
8.13315e-05
7.65732e-05
7.13231e-05
6.54677e-05
5.88297e-05
5.11334e-05
4.22833e-05
3.31901e-05
2.51266e-05
1.91778e-05
4.51611e-06
2.86626e-05
5.11964e-05
7.12816e-05
8.8059e-05
0.000101327
0.000111479
0.000119081
0.000124615
0.000128432
0.000130783
0.000131856
0.000131793
0.000130713
0.000128724
0.000125933
0.000122459
0.00011843
0.000113993
0.000109306
0.000104535
9.98516e-05
9.54001e-05
9.12539e-05
8.73751e-05
8.36157e-05
7.9753e-05
7.55325e-05
7.06774e-05
6.48505e-05
5.76736e-05
4.91239e-05
4.03763e-05
3.23055e-05
2.56283e-05
6.61817e-06
3.60544e-05
6.29297e-05
8.57864e-05
0.00010359
0.000116651
0.000126037
0.000132707
0.000137276
0.000140118
0.000141466
0.000141463
0.000140211
0.000137796
0.000134319
0.000129911
0.00012474
0.000119005
0.000112932
0.000106768
0.000100781
9.52507e-05
9.04138e-05
8.63775e-05
8.30911e-05
8.03595e-05
7.78675e-05
7.52176e-05
7.196e-05
6.75918e-05
6.16355e-05
5.40947e-05
4.61348e-05
3.81673e-05
3.03956e-05
8.99788e-06
4.31974e-05
7.38632e-05
9.90787e-05
0.000117832
0.000131026
0.000140261
0.000146696
0.000150957
0.000153379
0.000154138
0.000153329
0.000151018
0.000147286
0.000142266
0.000136149
0.000129182
0.000121648
0.00011385
0.000106109
9.87714e-05
9.22e-05
8.66709e-05
8.22834e-05
7.89912e-05
7.66278e-05
7.48972e-05
7.33718e-05
7.15059e-05
6.86531e-05
6.41835e-05
5.79609e-05
5.0878e-05
4.29688e-05
3.40793e-05
1.1109e-05
4.89925e-05
8.24984e-05
0.000109385
0.000128747
0.000142002
0.000151106
0.000157315
0.00016125
0.000163214
0.000163342
0.000161688
0.000158299
0.000153273
0.000146795
0.000139133
0.000130618
0.000121612
0.000112495
0.000103664
9.55472e-05
8.85418e-05
8.28337e-05
7.84238e-05
7.5242e-05
7.31585e-05
7.19443e-05
7.12272e-05
7.04634e-05
6.89341e-05
6.58702e-05
6.09435e-05
5.46801e-05
4.68562e-05
3.72394e-05
1.31833e-05
5.45716e-05
9.08089e-05
0.000119407
0.000139554
0.000153081
0.000162246
0.000168393
0.000172142
0.000173765
0.000173359
0.000170947
0.000166573
0.000160367
0.000152572
0.000143526
0.000133628
0.000123304
0.000112997
0.000103181
9.43684e-05
8.69504e-05
8.09851e-05
7.63915e-05
7.30798e-05
7.09544e-05
6.98663e-05
6.95411e-05
6.95011e-05
6.9011e-05
6.71699e-05
6.34035e-05
5.78788e-05
5.02047e-05
4.02484e-05
1.48919e-05
5.90083e-05
9.74139e-05
0.000127425
0.000148292
0.000162145
0.000171447
0.000177599
0.000181218
0.000182553
0.00018167
0.000178574
0.000173318
0.00016607
0.000157128
0.000146897
0.000135839
0.000124445
0.000113229
0.000102753
9.36171e-05
8.61093e-05
8.01284e-05
7.5514e-05
7.21489e-05
6.99549e-05
6.88497e-05
6.86651e-05
6.9028e-05
6.92453e-05
6.83378e-05
6.55151e-05
6.0642e-05
5.32267e-05
4.33445e-05
1.6731e-05
6.37976e-05
0.000104515
0.000135997
0.000157587
0.000171744
0.000181149
0.00018727
0.000190726
0.000191744
0.000190367
0.000186587
0.000180468
0.000172213
0.000162171
0.000150805
0.000138641
0.000126232
0.000114163
0.000103097
9.37106e-05
8.61582e-05
8.02054e-05
7.56177e-05
7.22359e-05
6.99758e-05
6.87921e-05
6.86006e-05
6.91378e-05
6.97879e-05
6.95482e-05
6.74631e-05
6.31613e-05
5.60841e-05
4.65049e-05
1.83461e-05
6.78174e-05
0.000110447
0.0001432
0.000165479
0.000179988
0.000189564
0.00019572
0.000199076
0.00019984
0.000198034
0.000193645
0.000186748
0.000177582
0.000166546
0.000154155
0.000140995
0.000127692
0.0001149
0.000103392
9.3916e-05
8.64551e-05
8.06595e-05
7.62234e-05
7.29405e-05
7.0707e-05
6.94909e-05
6.92615e-05
6.98458e-05
7.07216e-05
7.09116e-05
6.93668e-05
6.55476e-05
5.8842e-05
4.96764e-05
2.0158e-05
7.22515e-05
0.000116918
0.000150941
0.000173839
0.000188619
0.000198297
0.000204433
0.00020764
0.000208112
0.00020585
0.000200836
0.000193162
0.000183097
0.000171083
0.000157687
0.00014355
0.000129356
0.000115844
0.000103893
9.43193e-05
8.69569e-05
8.13535e-05
7.71283e-05
7.40218e-05
7.18987e-05
7.07199e-05
7.04792e-05
7.10646e-05
7.20377e-05
7.24804e-05
7.13117e-05
6.78832e-05
6.15332e-05
5.27813e-05
2.18663e-05
7.62288e-05
0.000122662
0.000157813
0.000181303
0.000196382
0.000206206
0.000212367
0.000215474
0.000215701
0.000213035
0.000207456
0.000199071
0.00018818
0.000175265
0.000160937
0.000145892
0.000130876
0.000116699
0.000104349
9.47076e-05
8.74755e-05
8.21084e-05
7.81525e-05
7.5296e-05
7.33671e-05
7.23076e-05
7.21133e-05
7.27037e-05
7.37057e-05
7.42749e-05
7.3348e-05
7.02173e-05
6.41712e-05
5.57713e-05
2.37193e-05
8.04413e-05
0.000128683
0.000164934
0.000188949
0.000204272
0.000214202
0.000220361
0.000223348
0.000223319
0.000220247
0.000214113
0.00020504
0.000193355
0.00017957
0.000164338
0.000148399
0.000132558
0.000117699
0.000104912
9.51527e-05
8.80208e-05
8.28833e-05
7.92165e-05
7.66539e-05
7.49825e-05
7.41153e-05
7.40331e-05
7.46624e-05
7.56718e-05
7.62882e-05
7.54998e-05
7.25777e-05
6.67598e-05
5.86144e-05
2.55313e-05
8.44015e-05
0.000134284
0.000171542
0.000196063
0.000211645
0.000221708
0.000227894
0.000230794
0.000230544
0.000227109
0.000220471
0.00021077
0.000198358
0.000183774
0.000167705
0.00015093
0.000134304
0.000118773
0.000105526
9.5612e-05
8.85467e-05
8.36267e-05
8.02601e-05
7.80239e-05
7.66608e-05
7.60498e-05
7.61451e-05
7.68607e-05
7.78848e-05
7.85051e-05
7.77791e-05
7.49843e-05
6.93089e-05
6.1306e-05
2.74197e-05
8.84355e-05
0.000139944
0.00017817
0.000203156
0.00021897
0.000229153
0.000235364
0.000238178
0.000237718
0.000233939
0.000226828
0.000216541
0.000203449
0.000188115
0.000171249
0.000153662
0.000136249
0.000120025
0.000106258
9.61144e-05
8.90637e-05
8.4328e-05
8.12535e-05
7.93592e-05
7.83406e-05
7.8038e-05
7.83703e-05
7.92245e-05
8.02878e-05
8.08939e-05
8.01771e-05
7.74381e-05
7.18168e-05
6.38424e-05
2.9294e-05
9.2333e-05
0.000145369
0.00018451
0.000209951
0.000226009
0.000236331
0.000242585
0.000245337
0.000244694
0.000240606
0.000233068
0.000222251
0.000208545
0.00019253
0.000174931
0.000156579
0.000138408
0.000121486
0.000107145
9.66914e-05
8.95861e-05
8.49913e-05
8.21889e-05
8.06399e-05
7.99907e-05
8.00384e-05
8.06602e-05
8.17044e-05
8.2841e-05
8.34332e-05
8.26903e-05
7.99463e-05
7.42954e-05
6.62398e-05
3.11967e-05
9.62089e-05
0.000150732
0.000190754
0.000216629
0.000232925
0.000243387
0.000249692
0.000252391
0.000251582
0.000247211
0.000239283
0.000227985
0.00021372
0.000197082
0.000178802
0.000159723
0.000140809
0.000123169
0.000108201
9.73507e-05
9.01133e-05
8.56035e-05
8.3044e-05
8.18365e-05
8.15742e-05
8.20069e-05
8.29654e-05
8.42502e-05
8.55e-05
8.60915e-05
8.53011e-05
8.25026e-05
7.67431e-05
6.85017e-05
3.30973e-05
0.00010001
0.000155964
0.000196843
0.000223156
0.000239705
0.000250323
0.00025669
0.000259348
0.00025839
0.000253762
0.000245482
0.000233754
0.000218992
0.000201796
0.000182897
0.000163146
0.000143518
0.000125154
0.000109504
9.81536e-05
9.06882e-05
8.61893e-05
8.38271e-05
8.29444e-05
8.30781e-05
8.39241e-05
8.52582e-05
8.68297e-05
8.82335e-05
8.88449e-05
8.79977e-05
8.51048e-05
7.91681e-05
7.06483e-05
3.49997e-05
0.000103741
0.000161079
0.000202793
0.000229545
0.000246358
0.000257139
0.000263571
0.000266193
0.000265094
0.000260231
0.000251635
0.000239525
0.000224326
0.000206637
0.000187183
0.000166813
0.000146506
0.00012742
0.000111047
9.91038e-05
9.1317e-05
8.67512e-05
8.45338e-05
8.39515e-05
8.44821e-05
8.5764e-05
8.7513e-05
8.94125e-05
9.10116e-05
9.16696e-05
9.07659e-05
8.77473e-05
8.15701e-05
7.26847e-05
3.69065e-05
0.000107424
0.000166112
0.000208664
0.000235883
0.000252992
0.000263947
0.000270437
0.000273011
0.000271773
0.000266691
0.000257811
0.000245367
0.000229787
0.000211667
0.000191723
0.000170791
0.000149842
0.000130039
0.000112902
0.000100262
9.20454e-05
8.73195e-05
8.518e-05
8.48617e-05
8.57812e-05
8.75134e-05
8.97088e-05
9.19809e-05
9.38111e-05
9.45395e-05
9.35819e-05
9.04164e-05
8.39497e-05
7.46275e-05
3.88023e-05
0.000111008
0.000170993
0.000214374
0.000242101
0.000259569
0.000270704
0.000277209
0.00027971
0.00027833
0.000273047
0.000263922
0.000251194
0.000235296
0.000216813
0.000196449
0.000175019
0.000153478
0.000132978
0.000115058
0.000101633
9.2888e-05
8.79091e-05
8.57748e-05
8.56759e-05
8.69681e-05
8.91583e-05
9.1825e-05
9.45077e-05
9.66174e-05
9.74513e-05
9.64537e-05
9.31214e-05
8.63133e-05
7.64811e-05
4.07052e-05
0.000114548
0.000175792
0.000220001
0.000248291
0.000266117
0.000277448
0.00028398
0.000286375
0.000284852
0.000279389
0.000270053
0.00025709
0.000240929
0.000222146
0.000201425
0.000179557
0.000157468
0.00013629
0.000117566
0.000103265
9.38877e-05
8.85537e-05
8.63419e-05
8.6408e-05
8.80484e-05
9.06975e-05
9.38548e-05
9.69772e-05
9.93975e-05
0.000100361
9.93275e-05
9.58257e-05
8.86476e-05
7.82547e-05
4.25896e-05
0.000117975
0.000180408
0.000225401
0.000254239
0.000272384
0.000283923
0.000290548
0.000292867
0.000291227
0.000285615
0.000276109
0.000262959
0.000246596
0.000227579
0.000206574
0.00018434
0.000161766
0.000139951
0.000120423
0.000105183
9.50789e-05
8.92873e-05
8.69071e-05
8.70731e-05
8.90271e-05
9.21281e-05
9.57894e-05
9.93773e-05
0.000102141
0.000103276
0.000102273
9.85379e-05
9.09538e-05
7.99523e-05
4.44821e-05
0.000121368
0.000184967
0.000230735
0.000260088
0.000278544
0.000290298
0.000297042
0.000299358
0.000297575
0.00029182
0.00028217
0.000268875
0.000252359
0.000233168
0.000211941
0.000189404
0.000166402
0.00014399
0.000123663
0.000107432
9.65089e-05
9.01557e-05
8.7509e-05
8.76991e-05
8.99214e-05
9.34588e-05
9.76326e-05
0.000101712
0.000104854
0.000106198
0.00010527
0.000101316
9.32502e-05
8.15801e-05
4.63527e-05
0.000124642
0.000189356
0.000235928
0.000265695
0.000284432
0.000296399
0.000303276
0.000305621
0.000303733
0.00029788
0.000288135
0.000274749
0.000258138
0.000238837
0.00021746
0.000194694
0.000171337
0.000148388
0.000127293
0.000110047
9.82248e-05
9.12076e-05
8.81888e-05
8.83155e-05
9.07482e-05
9.46952e-05
9.93803e-05
0.000103967
0.000107518
0.000109132
0.000108289
0.000104135
9.55367e-05
8.31413e-05
4.82242e-05
0.00012785
0.00019362
0.000240957
0.000271143
0.000290175
0.000302372
0.000309403
0.000311804
0.000309841
0.000303907
0.000294087
0.000280638
0.000263974
0.000244614
0.000223145
0.000200217
0.000176575
0.000153151
0.000131332
0.000113074
0.000100286
9.25052e-05
8.90034e-05
8.89673e-05
9.15389e-05
9.58568e-05
0.000101044
0.000106152
0.00011015
0.000112097
0.000111333
0.000106975
9.78101e-05
8.46419e-05
5.00743e-05
0.000130955
0.000197718
0.000245777
0.000276355
0.000295669
0.000308095
0.000315294
0.000317784
0.000315812
0.000309799
0.000299928
0.000286458
0.000269795
0.000250438
0.000228948
0.000205934
0.000182087
0.000158271
0.000135797
0.000116565
0.000102754
9.41133e-05
9.00126e-05
8.97019e-05
9.23255e-05
9.69622e-05
0.000102632
0.000108272
0.000112749
0.000115069
0.000114393
0.000109827
0.000100069
8.60845e-05
5.19234e-05
0.000134002
0.000201713
0.000250465
0.00028142
0.00030101
0.000313666
0.000321037
0.000323627
0.000321675
0.000315591
0.000305694
0.000292239
0.000275617
0.000256312
0.000234857
0.000211824
0.00018785
0.000163727
0.000140686
0.000120553
0.000105684
9.61022e-05
9.12882e-05
9.05816e-05
9.3155e-05
9.8043e-05
0.000104167
0.000110341
0.000115319
0.000118039
0.000117461
0.000112684
0.000102309
8.74728e-05
5.3753e-05
0.000136959
0.000205559
0.000254957
0.000286264
0.000306121
0.000319004
0.000326552
0.000329254
0.000327338
0.000321215
0.00031133
0.000297929
0.000281395
0.000262195
0.000240835
0.000217852
0.000193833
0.000169497
0.000145988
0.000125048
0.000109117
9.85325e-05
9.28996e-05
9.167e-05
9.40751e-05
9.91272e-05
0.000105656
0.00011235
0.000117841
0.000120979
0.000120514
0.000115529
0.000104525
8.88104e-05
5.55803e-05
0.00013987
0.00020932
0.000259326
0.00029096
0.000311071
0.000324176
0.000331901
0.00033472
0.000332854
0.000326709
0.000316856
0.000303535
0.000287121
0.000268063
0.000246847
0.000223974
0.000199983
0.000175523
0.000151649
0.000130009
0.000113048
0.000101438
9.49064e-05
9.30353e-05
9.51481e-05
0.000100265
0.000107139
0.000114332
0.000120338
0.000123901
0.000123554
0.00011836
0.000106715
9.01015e-05
5.73943e-05
0.000142714
0.000212965
0.000263523
0.000295452
0.000315802
0.000329126
0.000337031
0.000339977
0.000338176
0.000332034
0.00032224
0.000309029
0.000292767
0.000273893
0.000252869
0.000230164
0.000206271
0.000181774
0.000157637
0.000135402
0.000117472
0.000104843
9.73557e-05
9.47359e-05
9.64277e-05
0.000101491
0.000108627
0.000116272
0.000122785
0.000126775
0.000126559
0.000121164
0.000108875
9.13504e-05
5.9206e-05
0.00014552
0.000216558
0.000267592
0.000299781
0.000320355
0.000333889
0.000341974
0.000345051
0.000343327
0.000337203
0.000327482
0.000314398
0.000298311
0.000279647
0.000258851
0.000236362
0.00021263
0.000188175
0.000163875
0.00014116
0.000122355
0.000108749
0.000100284
9.68314e-05
9.79809e-05
0.00010287
0.000110173
0.000118224
0.000125251
0.000129628
0.000129533
0.000123938
0.000111003
9.25602e-05
6.10015e-05
0.000148248
0.000220055
0.000271486
0.000303909
0.000324697
0.00033844
0.000346705
0.000349921
0.000348289
0.00034221
0.000332577
0.000319635
0.000303744
0.00028532
0.000264785
0.000242555
0.000219039
0.000194699
0.000170328
0.000147246
0.000127672
0.000113156
0.000103717
9.93693e-05
9.98629e-05
0.000104448
0.000111812
0.000120204
0.000127721
0.000132457
0.000132474
0.00012668
0.0001131
9.3736e-05
6.27711e-05
0.000150872
0.000223389
0.000275204
0.000307852
0.000328844
0.000342786
0.000351227
0.000354583
0.000353058
0.000347063
0.000337503
0.000324708
0.000309029
0.000290865
0.000270621
0.000248683
0.00022543
0.000201267
0.000176913
0.000153575
0.00013336
0.000118031
0.000107662
0.000102391
0.000102138
0.000106296
0.000113604
0.000122252
0.000130208
0.000135271
0.000135384
0.000129388
0.000115163
9.48786e-05
6.45323e-05
0.000153439
0.000226624
0.000278779
0.00031162
0.0003328
0.000346934
0.000355543
0.000359031
0.000357602
0.000351694
0.000342236
0.000329617
0.000314177
0.000296299
0.000276371
0.000254757
0.000231803
0.00020787
0.000183605
0.000160113
0.00013938
0.000123342
0.000112108
0.000105915
0.000104845
0.000108461
0.000115589
0.000124394
0.000132724
0.000138075
0.000138268
0.000132065
0.000117196
9.59926e-05
6.62784e-05
0.000155913
0.000229715
0.000282171
0.000315191
0.000336552
0.000350872
0.000359648
0.000363269
0.000361943
0.000356124
0.000346766
0.00033433
0.000319148
0.000301572
0.000281978
0.000260712
0.00023809
0.000214433
0.000190324
0.000166776
0.000145656
0.000129031
0.000117023
0.000109943
0.000108023
0.000111001
0.000117827
0.000126676
0.000135294
0.000140881
0.000141127
0.000134708
0.000119195
9.70766e-05
6.80219e-05
0.000158341
0.000232707
0.000285425
0.000318596
0.000340122
0.000354616
0.00036355
0.000367298
0.000366072
0.000360349
0.000351108
0.000338866
0.000323942
0.000306697
0.000287459
0.000266562
0.0002443
0.000220955
0.000197057
0.000173534
0.000152143
0.000135046
0.000122363
0.000114454
0.000111678
0.000113948
0.000120362
0.000129139
0.00013795
0.000143708
0.000143973
0.000137323
0.000121163
9.81334e-05
6.97496e-05
0.000160671
0.000235543
0.000288488
0.000321796
0.000343476
0.000358138
0.000367222
0.000371092
0.000369964
0.00036434
0.000355228
0.000343192
0.000328541
0.000311617
0.000292757
0.000272249
0.000250369
0.00022737
0.000203733
0.000180314
0.000158771
0.000141322
0.000128074
0.000119414
0.000115805
0.000117325
0.000123233
0.000131824
0.000140722
0.000146575
0.000146814
0.000139912
0.000123099
9.91599e-05
7.14759e-05
0.000162951
0.000238286
0.00029142
0.000324838
0.000346657
0.000361472
0.000370696
0.000374678
0.000373644
0.00036812
0.000359145
0.000347327
0.000332961
0.000316375
0.000297888
0.000277789
0.00025631
0.00023368
0.000210345
0.000187095
0.000165501
0.00014781
0.000134106
0.000124781
0.000120379
0.000121129
0.000126456
0.000134758
0.000143641
0.000149505
0.000149667
0.000142483
0.000125006
0.000100155
7.31881e-05
0.000165139
0.000240875
0.00029416
0.00032767
0.000349614
0.000364573
0.000373928
0.000378016
0.00037707
0.000371645
0.000362817
0.000351224
0.000337151
0.000320913
0.000302812
0.000283119
0.000262064
0.00023983
0.000216834
0.000193816
0.000172271
0.000154452
0.000140408
0.00013052
0.000125385
0.000125365
0.000130052
0.000137966
0.000146724
0.000152513
0.00015254
0.000145041
0.000126882
0.000101114
7.48933e-05
0.000167267
0.000243363
0.000296765
0.000330343
0.000352397
0.000367488
0.000376963
0.000381147
0.000380283
0.000374957
0.000366282
0.000354919
0.000341144
0.000325258
0.000307549
0.000288271
0.000267635
0.000245821
0.000223191
0.000200451
0.000179041
0.000161193
0.000146918
0.000136573
0.000130787
0.000130025
0.000134035
0.000141471
0.000149998
0.000155619
0.000155448
0.000147593
0.000128731
0.000102038
7.65751e-05
0.000169296
0.000245693
0.000299174
0.000332801
0.000354953
0.000370165
0.000379751
0.000384023
0.000383236
0.00037801
0.000369495
0.000358368
0.000344896
0.000329367
0.000312056
0.000293199
0.000272994
0.000251599
0.000229373
0.00020696
0.000185762
0.000167979
0.000153576
0.000142879
0.000136531
0.000135073
0.000138393
0.000145285
0.00015348
0.00015884
0.000158401
0.000150144
0.000130554
0.000102928
7.82404e-05
0.000171256
0.000247912
0.000301441
0.000335096
0.000357332
0.000372655
0.000382343
0.000386694
0.000385979
0.000380852
0.000372503
0.000361614
0.000348445
0.000333272
0.000316357
0.000297922
0.00027815
0.000257182
0.000235359
0.000213315
0.000192401
0.000174767
0.000160327
0.000149377
0.000142556
0.000140465
0.000143104
0.000149402
0.000157181
0.000162187
0.000161412
0.000152705
0.000132359
0.000103791
7.9873e-05
0.000173111
0.000249969
0.00030351
0.000337175
0.000359483
0.000374907
0.00038469
0.000389115
0.000388469
0.000383443
0.000375267
0.000364623
0.000351758
0.000336942
0.000320422
0.000302411
0.000283076
0.000262547
0.000241148
0.000219497
0.000198928
0.000181516
0.000167121
0.000156005
0.000148801
0.000146143
0.000148127
0.000153806
0.0001611
0.000165671
0.000164491
0.000155282
0.00013415
0.000104629
8.14781e-05
0.000174887
0.000251905
0.000305429
0.000339087
0.000361455
0.000376972
0.000386841
0.000391335
0.000390755
0.000385833
0.000377837
0.000367437
0.000354876
0.00034041
0.00032428
0.000306685
0.000287784
0.000267695
0.000246733
0.000225505
0.000205335
0.000188205
0.000173924
0.000162721
0.000155211
0.000152051
0.000153411
0.000158457
0.000165215
0.000169284
0.000167641
0.000157883
0.000135934
0.000105448
8.30404e-05
0.000176551
0.000253674
0.000307149
0.000340783
0.000363201
0.000378803
0.000388754
0.000393313
0.000392801
0.000387987
0.000380183
0.000370035
0.000357777
0.000343661
0.000327915
0.000310733
0.000292263
0.000272615
0.000252099
0.000231319
0.000211601
0.000194813
0.000180706
0.000169484
0.00016174
0.000158144
0.000158924
0.00016334
0.000169522
0.000173025
0.000170861
0.000160509
0.000137714
0.00010625
8.45658e-05
0.000178128
0.000255319
0.000308717
0.000342312
0.00036477
0.000380448
0.000390474
0.000395095
0.000394649
0.00038995
0.000382347
0.000372454
0.000360499
0.000346725
0.000331356
0.000314576
0.000296527
0.000277316
0.00025725
0.000236938
0.000217714
0.000201308
0.000187432
0.000176255
0.000168346
0.000164373
0.000164607
0.000168394
0.000173982
0.000176881
0.000174152
0.000163165
0.000139494
0.00010704
8.60422e-05
0.000179594
0.000256801
0.000310094
0.000343633
0.00036612
0.000381868
0.000391963
0.000396644
0.000396269
0.000391693
0.000384306
0.000374678
0.00036303
0.000349598
0.0003346
0.000318214
0.00030058
0.000281801
0.000262188
0.000242359
0.000223669
0.000207683
0.00019408
0.000182999
0.000174983
0.000170692
0.000170428
0.000173623
0.000178578
0.000180832
0.000177503
0.000165845
0.000141273
0.000107818
8.74784e-05
0.000180975
0.000258164
0.000311324
0.000344791
0.000367295
0.000383103
0.000393261
0.000397998
0.000397694
0.000393248
0.00038609
0.000376734
0.000365394
0.000352301
0.000337668
0.000321669
0.00030444
0.000286086
0.000266925
0.000247592
0.000229469
0.000213936
0.000200639
0.000189694
0.000181622
0.00017707
0.000176361
0.000179003
0.0001833
0.000184875
0.000180912
0.000168554
0.000143057
0.00010859
8.88652e-05
0.000182252
0.000259376
0.000312374
0.000345751
0.000368261
0.000384121
0.000394337
0.000399127
0.000398898
0.000394594
0.00038768
0.000378608
0.000367583
0.000354833
0.000340563
0.000324945
0.000308115
0.000290181
0.000271472
0.000252644
0.000235116
0.000220058
0.000207096
0.000196325
0.00018824
0.000183475
0.000182369
0.000184489
0.000188119
0.00018899
0.000184367
0.000171283
0.000144843
0.000109357
9.02122e-05
0.00018345
0.000260472
0.000313282
0.000346552
0.000369056
0.000384958
0.000395224
0.000400065
0.000399912
0.000395756
0.000389099
0.000380316
0.000369612
0.000357204
0.000343295
0.000328055
0.000311619
0.000294102
0.000275844
0.000257532
0.000240623
0.000226059
0.000213451
0.000202874
0.000194804
0.00018987
0.00018841
0.000190041
0.00019301
0.000193166
0.000187866
0.000174036
0.000146636
0.000110121
9.15107e-05
0.000184547
0.000261423
0.000314015
0.000347163
0.000369651
0.000385589
0.000395901
0.000400791
0.00040072
0.000396723
0.000390335
0.000381852
0.000371471
0.000359409
0.000345863
0.000331
0.000314956
0.000297853
0.000280049
0.000262263
0.000245993
0.000231942
0.000219705
0.000209348
0.000201325
0.000196245
0.00019446
0.000195627
0.000197941
0.000197378
0.000191392
0.000176801
0.000148428
0.000110879
9.27665e-05
0.000185562
0.000262253
0.000314603
0.000347614
0.000370077
0.000386044
0.000396397
0.000401336
0.000401353
0.000397524
0.000391413
0.00038323
0.000373174
0.000361458
0.000348275
0.000333789
0.000318136
0.000301448
0.000284103
0.000266854
0.000251243
0.000237716
0.000225864
0.00021574
0.000207783
0.000202582
0.000200502
0.00020123
0.0002029
0.000201622
0.000194945
0.000179584
0.000150227
0.000111633
9.39695e-05
0.000186471
0.000262935
0.000315017
0.000347881
0.000370312
0.000386304
0.000396699
0.000401693
0.000401809
0.000398167
0.000392335
0.00038445
0.000374717
0.000363346
0.000350527
0.000336419
0.00032116
0.000304889
0.000288009
0.000271311
0.000256374
0.000243384
0.000231927
0.000222049
0.000214172
0.000208872
0.000206505
0.000206814
0.000207854
0.000205867
0.000198501
0.000182363
0.000152014
0.000112376
9.51222e-05
0.000187287
0.000263486
0.000315282
0.000347988
0.000370384
0.000386398
0.000396833
0.000401886
0.00040212
0.000398707
0.00039313
0.000385531
0.000376115
0.000365088
0.000352632
0.000338903
0.000324039
0.000308192
0.000291786
0.000275657
0.000261405
0.000248957
0.000237902
0.00022828
0.000220499
0.000215117
0.00021249
0.000212389
0.000212806
0.000210116
0.000202064
0.000185149
0.000153812
0.000113115
9.62154e-05
0.000187992
0.000263887
0.000315376
0.000347919
0.000370276
0.000386314
0.000396791
0.000401906
0.000402263
0.000399087
0.000393776
0.000386471
0.000377375
0.00036669
0.000354596
0.000341246
0.000326782
0.000311366
0.000295449
0.000279914
0.000266347
0.000254441
0.000243788
0.000234427
0.000226748
0.000221297
0.000218425
0.000217926
0.000217733
0.000214353
0.000205619
0.000187931
0.000155611
0.000113842
9.72523e-05
0.000188598
0.000264156
0.000315324
0.000347696
0.000370012
0.000386073
0.000396599
0.000401786
0.000402281
0.00039936
0.000394322
0.000387309
0.000378526
0.000368177
0.000356439
0.000343466
0.000329405
0.000314431
0.000299026
0.000284122
0.000271231
0.000259855
0.0002496
0.000240497
0.000232926
0.000227416
0.000224312
0.000223433
0.000222631
0.000218573
0.000209169
0.00019071
0.000157408
0.000114561
9.82303e-05
0.000189101
0.000264286
0.000315115
0.00034731
0.000369581
0.000385667
0.000396244
0.000401515
0.000402165
0.00039952
0.000394769
0.000388054
0.000379585
0.000369565
0.000358177
0.000345578
0.000331922
0.000317402
0.000302534
0.000288306
0.000276074
0.000265214
0.000255343
0.000246492
0.000239027
0.00023346
0.000230134
0.00022889
0.000227497
0.000222767
0.000212701
0.000193478
0.000159197
0.000115272
9.91578e-05
0.000189518
0.000264303
0.000314774
0.000346779
0.000369
0.000385109
0.000395742
0.000401107
0.000401932
0.000399587
0.000395139
0.000388731
0.000380575
0.00037088
0.000359834
0.000347601
0.000334347
0.000320288
0.000305979
0.000292468
0.00028088
0.000270526
0.000261032
0.000252426
0.000245063
0.000239439
0.000235895
0.000234295
0.000232326
0.000226941
0.000216221
0.000196237
0.000160979
0.00011598
0.000100039
0.000189854
0.000264205
0.000314296
0.000346098
0.000368261
0.00038439
0.000395081
0.000400551
0.000401572
0.000399556
0.000395434
0.000389348
0.000381512
0.000372142
0.000361431
0.000349555
0.000336697
0.000323098
0.000309359
0.000296589
0.000285635
0.000275781
0.00026666
0.000258299
0.000251037
0.000245357
0.000241594
0.000239642
0.000237107
0.000231083
0.00021972
0.000198982
0.000162754
0.000116687
0.000100883
0.000190125
0.000264013
0.000313699
0.000345281
0.000367374
0.000383516
0.000394265
0.000399849
0.000401085
0.000399425
0.000395654
0.00038991
0.000382407
0.000373365
0.000362988
0.000351464
0.000338994
0.000325852
0.000312686
0.000300667
0.000290338
0.000280978
0.000272231
0.000264118
0.000256963
0.000251229
0.000247248
0.000244943
0.000241848
0.000235197
0.000223202
0.000201717
0.000164525
0.000117391
0.000101692
0.000190332
0.000263723
0.000312976
0.00034432
0.000366332
0.00038248
0.000393285
0.000398992
0.000400463
0.00039919
0.000395796
0.000390415
0.000383262
0.000374559
0.00036452
0.000353345
0.000341259
0.000328568
0.000315976
0.000304704
0.000294987
0.000286112
0.000277735
0.000269873
0.000262831
0.000257051
0.000252856
0.000250201
0.000246554
0.000239286
0.000226668
0.000204443
0.000166293
0.000118092
0.000102471
0.000190482
0.000263343
0.000312137
0.000343222
0.00036514
0.000381286
0.000392145
0.000397982
0.000399707
0.000398845
0.000395852
0.000390857
0.000384074
0.000375727
0.000366036
0.000355217
0.000343515
0.000331277
0.00031926
0.000308723
0.000299599
0.000291194
0.000283178
0.000275564
0.00026864
0.000262822
0.000258424
0.000255427
0.000251237
0.000243361
0.000230128
0.000207168
0.000168063
0.000118793
0.000103219
0.000190571
0.00026287
0.000311177
0.000341986
0.000363795
0.00037993
0.000390842
0.000396819
0.000398818
0.00039839
0.000395818
0.00039123
0.000384837
0.000376865
0.000367538
0.000357086
0.000345779
0.000334001
0.000322569
0.000312745
0.000304188
0.000296231
0.00028856
0.000281188
0.000274381
0.000268532
0.00026394
0.000260613
0.000255891
0.000247422
0.000233582
0.000209891
0.000169834
0.000119494
0.000103939
0.000190606
0.000262312
0.000310105
0.000340617
0.000362303
0.000378417
0.000389379
0.000395507
0.000397802
0.000397828
0.000395694
0.00039153
0.000385546
0.000377969
0.000369027
0.000358962
0.000348068
0.000336771
0.000325948
0.000316804
0.000308782
0.000301244
0.000293898
0.000286753
0.000280061
0.000274187
0.000269412
0.00026577
0.000260529
0.000251477
0.000237039
0.000212622
0.000171612
0.000120194
0.000104633
0.00019059
0.000261672
0.000308924
0.000339118
0.000360663
0.000376742
0.000387754
0.000394051
0.000396674
0.000397163
0.000395475
0.000391748
0.000386192
0.00037903
0.000370495
0.000360841
0.000350387
0.000339601
0.000329424
0.000320922
0.000313395
0.000306245
0.000299197
0.000292263
0.000285674
0.000279771
0.000274829
0.000270878
0.000265138
0.000255521
0.000240495
0.000215355
0.000173394
0.000120895
0.000105309
0.000190534
0.000260962
0.000307643
0.000337495
0.000358879
0.000374906
0.000385958
0.000392448
0.000395474
0.000396393
0.000395151
0.000391877
0.000386769
0.000380046
0.00037194
0.000362721
0.000352734
0.000342493
0.000333001
0.000325104
0.00031804
0.000311246
0.00030447
0.000297727
0.000291234
0.000285314
0.000280246
0.000275963
0.000269729
0.000259561
0.000243956
0.0002181
0.000175186
0.000121596
0.000105972
0.000190441
0.000260183
0.000306264
0.00033575
0.000356952
0.000372904
0.000383977
0.000390646
0.000394082
0.000395454
0.00039469
0.000391899
0.000387266
0.000381004
0.000373352
0.000364591
0.000355095
0.000345427
0.000336649
0.000329334
0.000322708
0.000316246
0.000309721
0.000303152
0.000296749
0.000290819
0.000285642
0.000281026
0.000274302
0.000263594
0.00024742
0.000220851
0.000176984
0.000122297
0.000106627
0.000190321
0.00025934
0.000304789
0.000333887
0.000354888
0.000370747
0.000381828
0.000388677
0.000392537
0.000394376
0.000394105
0.000391818
0.000387682
0.000381906
0.00037473
0.000366451
0.00035747
0.000348401
0.00034035
0.000333602
0.000327395
0.000321247
0.000314953
0.000308542
0.00030222
0.000296281
0.000291006
0.000286064
0.000278861
0.000267627
0.000250894
0.000223616
0.000178793
0.000122997