/*--------------------------------*- C++ -*----------------------------------*\
| =========                 |                                                 |
| \\      /  F ield         | OpenFOAM: The Open Source CFD Toolbox           |
|  \\    /   O peration     | Version:  v2006                                 |
|   \\  /    A nd           | Website:  www.openfoam.com                      |
|    \\/     M anipulation  |                                                 |
\*---------------------------------------------------------------------------*/
FoamFile
{
    version     2.0;
    format      ascii;
    class       volScalarField;
    location    "93";
    object      nut;
}
// * * * * * * * * * * * * * * * * * * * * * * * * * * * * * * * * * * * * * //

dimensions      [0 2 -1 0 0 0 0];


internalField   nonuniform List<scalar> 
78750
(
1.95715e-09
3.62241e-07
6.80709e-07
1.00111e-06
1.31622e-06
1.61907e-06
1.90363e-06
2.16541e-06
2.4016e-06
2.6108e-06
2.79254e-06
2.94692e-06
3.07442e-06
3.17563e-06
3.25072e-06
3.30027e-06
3.32493e-06
3.32529e-06
3.30185e-06
3.25511e-06
3.18554e-06
3.09396e-06
2.98039e-06
2.84456e-06
2.68739e-06
2.50969e-06
2.31228e-06
2.09586e-06
1.86134e-06
1.60872e-06
1.33581e-06
1.03952e-06
7.26235e-07
4.25e-07
6.67797e-09
3.32255e-09
2.61887e-06
5.13514e-06
7.12714e-06
8.81984e-06
1.04269e-05
1.19926e-05
1.34957e-05
1.49175e-05
1.62571e-05
1.75246e-05
1.87318e-05
1.9914e-05
2.1085e-05
2.138e-05
2.14039e-05
2.13064e-05
2.10953e-05
2.07772e-05
2.03579e-05
1.98421e-05
1.92335e-05
1.85322e-05
1.77371e-05
1.6848e-05
1.58654e-05
1.44865e-05
1.25752e-05
1.06113e-05
8.50302e-06
6.17839e-06
4.10237e-06
3.03659e-06
1.87296e-06
2.22885e-08
5.17035e-09
1.99521e-06
4.10021e-06
6.35113e-06
8.76848e-06
1.13085e-05
1.38115e-05
1.61005e-05
1.80704e-05
1.96897e-05
2.0962e-05
2.18995e-05
2.25166e-05
2.2833e-05
2.28618e-05
2.26031e-05
2.20703e-05
2.13002e-05
2.03503e-05
1.92925e-05
1.82034e-05
1.71522e-05
1.61876e-05
1.53466e-05
1.46357e-05
1.3997e-05
1.33015e-05
1.23604e-05
1.0959e-05
8.95939e-06
6.63223e-06
4.92701e-06
4.77159e-06
1.97917e-06
3.66305e-08
8.73585e-09
1.83749e-06
4.02226e-06
6.93e-06
1.06144e-05
1.4652e-05
1.83038e-05
2.11355e-05
2.31232e-05
2.43765e-05
2.5e-05
2.50839e-05
2.47168e-05
2.39919e-05
2.30061e-05
2.18505e-05
2.06025e-05
1.93209e-05
1.80446e-05
1.68009e-05
1.56158e-05
1.45278e-05
1.35837e-05
1.2824e-05
1.22704e-05
1.18962e-05
1.1579e-05
1.10629e-05
1.00193e-05
8.32597e-06
6.46543e-06
5.46811e-06
6.35223e-06
1.89491e-06
4.89089e-08
1.28016e-08
1.83346e-06
4.23789e-06
7.89886e-06
1.29727e-05
1.841e-05
2.27347e-05
2.55505e-05
2.70657e-05
2.75071e-05
2.70806e-05
2.60064e-05
2.45191e-05
2.28414e-05
2.11509e-05
1.956e-05
1.81171e-05
1.68233e-05
1.56539e-05
1.45778e-05
1.35741e-05
1.26474e-05
1.183e-05
1.11624e-05
1.06747e-05
1.0357e-05
1.01065e-05
9.68633e-06
8.8125e-06
7.47153e-06
6.20514e-06
5.97563e-06
7.4309e-06
1.82598e-06
5.79598e-08
1.7404e-08
1.85491e-06
4.44342e-06
8.72803e-06
1.49645e-05
2.13667e-05
2.58105e-05
2.81317e-05
2.88129e-05
2.82522e-05
2.68065e-05
2.48373e-05
2.26862e-05
2.06213e-05
1.87878e-05
1.72258e-05
1.59186e-05
1.48171e-05
1.3862e-05
1.29998e-05
1.21973e-05
1.14467e-05
1.07614e-05
1.0165e-05
9.6791e-06
9.29889e-06
8.94798e-06
8.45575e-06
7.65336e-06
6.62572e-06
5.877e-06
6.30955e-06
7.84179e-06
1.798e-06
6.49392e-08
2.14866e-08
1.89879e-06
4.65207e-06
9.42887e-06
1.65187e-05
2.34625e-05
2.7805e-05
2.96567e-05
2.96361e-05
2.82418e-05
2.59796e-05
2.33657e-05
2.08212e-05
1.85889e-05
1.67483e-05
1.52792e-05
1.41166e-05
1.31861e-05
1.24172e-05
1.17522e-05
1.1155e-05
1.06108e-05
1.01028e-05
9.61648e-06
9.15038e-06
8.69608e-06
8.2047e-06
7.58682e-06
6.80109e-06
6.00759e-06
5.65877e-06
6.62569e-06
7.73673e-06
1.76925e-06
7.09141e-08
2.54978e-08
1.93368e-06
4.78046e-06
9.8628e-06
1.75329e-05
2.48273e-05
2.90095e-05
3.04032e-05
2.97749e-05
2.7754e-05
2.49816e-05
2.20502e-05
1.93713e-05
1.71283e-05
1.53376e-05
1.39396e-05
1.28546e-05
1.20064e-05
1.13316e-05
1.07844e-05
1.03381e-05
9.96799e-06
9.62272e-06
9.24684e-06
8.80519e-06
8.2809e-06
7.65922e-06
6.93243e-06
6.1564e-06
5.52656e-06
5.45226e-06
6.79489e-06
7.47895e-06
1.75149e-06
7.6598e-08
2.88016e-08
1.9609e-06
4.86866e-06
1.01455e-05
1.8168e-05
2.56176e-05
2.96255e-05
3.06694e-05
2.96043e-05
2.71592e-05
2.40768e-05
2.09884e-05
1.82723e-05
1.60527e-05
1.43044e-05
1.29496e-05
1.19065e-05
1.11047e-05
1.04902e-05
1.00317e-05
9.71776e-06
9.51198e-06
9.32904e-06
9.07236e-06
8.6676e-06
8.08494e-06
7.34502e-06
6.51907e-06
5.73811e-06
5.21424e-06
5.32816e-06
6.93851e-06
7.14783e-06
1.73384e-06
8.24437e-08
3.23575e-08
1.98651e-06
4.93698e-06
1.03589e-05
1.86477e-05
2.61875e-05
3.0024e-05
3.07783e-05
2.93915e-05
2.66727e-05
2.34187e-05
2.02606e-05
1.75374e-05
1.53329e-05
1.35971e-05
1.22444e-05
1.11971e-05
1.03935e-05
9.79065e-06
9.37352e-06
9.14631e-06
9.0642e-06
9.02057e-06
8.8843e-06
8.54e-06
7.93737e-06
7.12258e-06
6.23041e-06
5.44739e-06
4.99472e-06
5.23638e-06
7.02852e-06
6.83559e-06
1.71904e-06
8.84082e-08
3.54801e-08
2.00544e-06
4.98334e-06
1.04986e-05
1.89498e-05
2.65182e-05
3.02093e-05
3.07427e-05
2.91221e-05
2.62205e-05
2.28721e-05
1.96958e-05
1.69916e-05
1.48106e-05
1.30881e-05
1.1735e-05
1.0675e-05
9.85622e-06
9.24759e-06
8.84847e-06
8.6779e-06
8.68408e-06
8.74803e-06
8.71368e-06
8.43107e-06
7.82946e-06
6.97199e-06
6.0396e-06
5.25855e-06
4.85747e-06
5.19391e-06
7.12276e-06
6.54189e-06
1.70534e-06
9.43904e-08
3.8983e-08
2.02635e-06
5.03594e-06
1.06587e-05
1.92782e-05
2.68406e-05
3.0364e-05
3.06909e-05
2.88826e-05
2.5856e-05
2.2458e-05
1.92842e-05
1.66001e-05
1.4434e-05
1.27124e-05
1.13467e-05
1.0265e-05
9.41923e-06
8.78823e-06
8.38627e-06
8.24381e-06
8.30595e-06
8.44878e-06
8.49993e-06
8.28231e-06
7.70572e-06
6.84127e-06
5.8998e-06
5.13192e-06
4.7735e-06
5.18563e-06
7.2219e-06
6.27951e-06
1.69366e-06
1.00243e-07
4.22855e-08
2.04462e-06
5.08157e-06
1.07908e-05
1.95312e-05
2.70671e-05
3.04461e-05
3.06037e-05
2.86487e-05
2.55366e-05
2.21203e-05
1.89687e-05
1.63151e-05
1.41687e-05
1.24498e-05
1.10712e-05
9.96531e-06
9.09002e-06
8.43096e-06
8.01375e-06
7.87908e-06
7.96988e-06
8.16101e-06
8.27177e-06
8.10844e-06
7.56662e-06
6.71924e-06
5.79222e-06
5.04913e-06
4.7322e-06
5.21264e-06
7.34217e-06
6.04617e-06
1.68407e-06
1.05875e-07
4.58675e-08
2.06463e-06
5.13489e-06
1.09497e-05
1.98295e-05
2.73191e-05
3.05339e-05
3.05246e-05
2.84439e-05
2.52731e-05
2.18575e-05
1.87355e-05
1.61121e-05
1.39816e-05
1.22615e-05
1.08664e-05
9.73319e-06
8.82481e-06
8.13338e-06
7.69311e-06
7.55247e-06
7.65415e-06
7.87333e-06
8.02599e-06
7.90909e-06
7.4086e-06
6.59595e-06
5.70206e-06
4.99512e-06
4.72218e-06
5.26876e-06
7.48161e-06
5.84303e-06
1.6769e-06
1.11226e-07
4.937e-08
2.08412e-06
5.1873e-06
1.10992e-05
2.00935e-05
2.75278e-05
3.05956e-05
3.04439e-05
2.82636e-05
2.50571e-05
2.16586e-05
1.85754e-05
1.59864e-05
1.3874e-05
1.21533e-05
1.07413e-05
9.57893e-06
8.63432e-06
7.90518e-06
7.43277e-06
7.27298e-06
7.36789e-06
7.59521e-06
7.77195e-06
7.69198e-06
7.2357e-06
6.47022e-06
5.62344e-06
4.96175e-06
4.73664e-06
5.35104e-06
7.64069e-06
5.66911e-06
1.67231e-06
1.16288e-07
5.30199e-08
2.10449e-06
5.24422e-06
1.12649e-05
2.03856e-05
2.77561e-05
3.06705e-05
3.03819e-05
2.81158e-05
2.48875e-05
2.15139e-05
1.84714e-05
1.59161e-05
1.38206e-05
1.20987e-05
1.06693e-05
9.47714e-06
8.49461e-06
7.72493e-06
7.21452e-06
7.02682e-06
7.10494e-06
7.32808e-06
7.5166e-06
7.4656e-06
7.05343e-06
6.34202e-06
5.55147e-06
4.94231e-06
4.76979e-06
5.45538e-06
7.81506e-06
5.52239e-06
1.67021e-06
1.21054e-07
5.66425e-08
2.12503e-06
5.30191e-06
1.14281e-05
2.06616e-05
2.7964e-05
3.07383e-05
3.03314e-05
2.79985e-05
2.47635e-05
2.14237e-05
1.84261e-05
1.59065e-05
1.38292e-05
1.21069e-05
1.06602e-05
9.43668e-06
8.41327e-06
7.59803e-06
7.04126e-06
6.81441e-06
6.86352e-06
7.0705e-06
7.26031e-06
7.23238e-06
6.86492e-06
6.21293e-06
5.48508e-06
4.93363e-06
4.81757e-06
5.57796e-06
8.0009e-06
5.40141e-06
1.67063e-06
1.25555e-07
6.03196e-08
2.14581e-06
5.36179e-06
1.16002e-05
2.09532e-05
2.81859e-05
3.08222e-05
3.03042e-05
2.79133e-05
2.46774e-05
2.13731e-05
1.84198e-05
1.59356e-05
1.38777e-05
1.2157e-05
1.06952e-05
9.44192e-06
8.37773e-06
7.51473e-06
6.90721e-06
6.63375e-06
6.64517e-06
6.82662e-06
7.00901e-06
6.99818e-06
6.67373e-06
6.08319e-06
5.42182e-06
4.932e-06
4.87627e-06
5.71555e-06
8.19443e-06
5.30301e-06
1.67332e-06
1.298e-07
6.39925e-08
2.16686e-06
5.42279e-06
1.17732e-05
2.12392e-05
2.84008e-05
3.09097e-05
3.02948e-05
2.7859e-05
2.46311e-05
2.13662e-05
1.84587e-05
1.60111e-05
1.39739e-05
1.22566e-05
1.07807e-05
9.49772e-06
8.39118e-06
7.47669e-06
6.81212e-06
6.48276e-06
6.44691e-06
6.59371e-06
6.76132e-06
6.76349e-06
6.48161e-06
5.95416e-06
5.36134e-06
4.93552e-06
4.94293e-06
5.86429e-06
8.3915e-06
5.22509e-06
1.67812e-06
1.33825e-07
6.76686e-08
2.18772e-06
5.48478e-06
1.19523e-05
2.15367e-05
2.86286e-05
3.10144e-05
3.0308e-05
2.78311e-05
2.46116e-05
2.13849e-05
1.85227e-05
1.61128e-05
1.40997e-05
1.23901e-05
1.09047e-05
9.59557e-06
8.4482e-06
7.48126e-06
6.75591e-06
6.36385e-06
6.27307e-06
6.37731e-06
6.52277e-06
6.53248e-06
6.29041e-06
5.82577e-06
5.30247e-06
4.94204e-06
5.01515e-06
6.02181e-06
8.5899e-06
5.16499e-06
1.68481e-06
1.37642e-07
7.13531e-08
2.20867e-06
5.54775e-06
1.21346e-05
2.18371e-05
2.88601e-05
3.1131e-05
3.0342e-05
2.78307e-05
2.46228e-05
2.14352e-05
1.86186e-05
1.62478e-05
1.42608e-05
1.25616e-05
1.10694e-05
9.73599e-06
8.54795e-06
7.52659e-06
6.73622e-06
6.27396e-06
6.12057e-06
6.17503e-06
6.29228e-06
6.30525e-06
6.10066e-06
5.69793e-06
5.24446e-06
4.95059e-06
5.09086e-06
6.18478e-06
8.78615e-06
5.11994e-06
1.69307e-06
1.41281e-07
7.5016e-08
2.22904e-06
5.61061e-06
1.23213e-05
2.21492e-05
2.91095e-05
3.12692e-05
3.03966e-05
2.78477e-05
2.46484e-05
2.14984e-05
1.87284e-05
1.63999e-05
1.44441e-05
1.27614e-05
1.12687e-05
9.91599e-06
8.69004e-06
7.61418e-06
6.75587e-06
6.21693e-06
5.99407e-06
5.99186e-06
6.07433e-06
6.08498e-06
5.91377e-06
5.57033e-06
5.18554e-06
4.9589e-06
5.16866e-06
6.35242e-06
8.9812e-06
5.08874e-06
1.70287e-06
1.44751e-07
7.86924e-08
2.24922e-06
5.6735e-06
1.25099e-05
2.24645e-05
2.93586e-05
3.14132e-05
3.04656e-05
2.78813e-05
2.46917e-05
2.15804e-05
1.8858e-05
1.65734e-05
1.46517e-05
1.29894e-05
1.15005e-05
1.01325e-05
8.87115e-06
7.74079e-06
6.81173e-06
6.19006e-06
5.8915e-06
5.82662e-06
5.86884e-06
5.87241e-06
5.73071e-06
5.44374e-06
5.12585e-06
4.96585e-06
5.24599e-06
6.52072e-06
9.16989e-06
5.06749e-06
1.71365e-06
1.48069e-07
8.2333e-08
2.26868e-06
5.73513e-06
1.26962e-05
2.27724e-05
2.95947e-05
3.15465e-05
3.0531e-05
2.79158e-05
2.47379e-05
2.16667e-05
1.89943e-05
1.67575e-05
1.48753e-05
1.32402e-05
1.17623e-05
1.03856e-05
9.09321e-06
7.90968e-06
6.90785e-06
6.19815e-06
5.81769e-06
5.6838e-06
5.67945e-06
5.66989e-06
5.55241e-06
5.3179e-06
5.06449e-06
4.97023e-06
5.32138e-06
6.69007e-06
9.3596e-06
5.05597e-06
1.72533e-06
1.51244e-07
8.59889e-08
2.28805e-06
5.79734e-06
1.28844e-05
2.30753e-05
2.98227e-05
3.16744e-05
3.05952e-05
2.79607e-05
2.47949e-05
2.17621e-05
1.91398e-05
1.69527e-05
1.51132e-05
1.35098e-05
1.20487e-05
1.06692e-05
9.35082e-06
8.11672e-06
7.04146e-06
6.23985e-06
5.77223e-06
5.56399e-06
5.50759e-06
5.47927e-06
5.38062e-06
5.19414e-06
5.00235e-06
4.9727e-06
5.39533e-06
6.85961e-06
9.54849e-06
5.05568e-06
1.73811e-06
1.54286e-07
8.96023e-08
2.30656e-06
5.85867e-06
1.3074e-05
2.33671e-05
3.00365e-05
3.17888e-05
3.06464e-05
2.79943e-05
2.48439e-05
2.18535e-05
1.92855e-05
1.71527e-05
1.53615e-05
1.37966e-05
1.23596e-05
1.09848e-05
9.64647e-06
8.36517e-06
7.21642e-06
6.31959e-06
5.75941e-06
5.47099e-06
5.35632e-06
5.30266e-06
5.21636e-06
5.07254e-06
4.93876e-06
4.97202e-06
5.46648e-06
7.02936e-06
9.73467e-06
5.06423e-06
1.7519e-06
1.57201e-07
9.32172e-08
2.32432e-06
5.91788e-06
1.32593e-05
2.36509e-05
3.02395e-05
3.18938e-05
3.06912e-05
2.80249e-05
2.48932e-05
2.19463e-05
1.94326e-05
1.73553e-05
1.56154e-05
1.40937e-05
1.26873e-05
1.13245e-05
9.97349e-06
8.65037e-06
7.43041e-06
6.43746e-06
5.78045e-06
5.40672e-06
5.22796e-06
5.14239e-06
5.06166e-06
4.95454e-06
4.87468e-06
4.96901e-06
5.53604e-06
7.20088e-06
9.91892e-06
5.07962e-06
1.76649e-06
1.60003e-07
9.67905e-08
2.34146e-06
5.97572e-06
1.34411e-05
2.39242e-05
3.04288e-05
3.1985e-05
3.07217e-05
2.8042e-05
2.49353e-05
2.20329e-05
1.95752e-05
1.75571e-05
1.58739e-05
1.44018e-05
1.30333e-05
1.16903e-05
1.03341e-05
8.97499e-06
7.68687e-06
6.5979e-06
5.83934e-06
5.37454e-06
5.12526e-06
5.00055e-06
4.91777e-06
4.84068e-06
4.81015e-06
4.96339e-06
5.6032e-06
7.37182e-06
1.01012e-05
5.10089e-06
1.78177e-06
1.62694e-07
1.00362e-07
2.35807e-06
6.03236e-06
1.36208e-05
2.41907e-05
3.06069e-05
3.2064e-05
3.074e-05
2.80471e-05
2.49676e-05
2.21102e-05
1.97098e-05
1.77535e-05
1.61304e-05
1.47128e-05
1.33886e-05
1.20735e-05
1.07208e-05
9.33377e-06
7.98337e-06
6.80145e-06
5.93805e-06
5.37716e-06
5.05123e-06
4.88006e-06
4.78731e-06
4.73304e-06
4.7467e-06
4.95628e-06
5.66855e-06
7.54195e-06
1.02814e-05
5.12686e-06
1.79757e-06
1.65282e-07
1.03895e-07
2.37418e-06
6.08774e-06
1.37968e-05
2.44467e-05
3.07708e-05
3.21281e-05
3.07426e-05
2.80362e-05
2.49847e-05
2.21752e-05
1.98356e-05
1.7945e-05
1.63865e-05
1.50287e-05
1.37553e-05
1.24756e-05
1.11346e-05
9.72736e-06
8.3208e-06
7.04951e-06
6.07863e-06
5.41704e-06
5.00838e-06
4.78316e-06
4.67193e-06
4.63249e-06
4.68433e-06
4.9467e-06
5.73009e-06
7.70846e-06
1.04579e-05
5.15651e-06
1.81372e-06
1.67774e-07
1.07424e-07
2.39004e-06
6.14263e-06
1.39716e-05
2.46958e-05
3.09227e-05
3.21779e-05
3.07295e-05
2.80093e-05
2.49862e-05
2.22259e-05
1.99488e-05
1.81259e-05
1.66349e-05
1.53411e-05
1.41242e-05
1.28875e-05
1.15673e-05
1.01492e-05
8.6943e-06
7.33883e-06
6.26025e-06
5.49515e-06
4.99884e-06
4.71264e-06
4.57455e-06
4.54173e-06
4.62538e-06
4.93676e-06
5.78963e-06
7.87251e-06
1.06314e-05
5.18917e-06
1.83011e-06
1.70178e-07
1.10927e-07
2.40568e-06
6.19703e-06
1.41431e-05
2.49342e-05
3.10596e-05
3.2211e-05
3.06987e-05
2.79646e-05
2.49713e-05
2.22629e-05
2.00512e-05
1.82989e-05
1.68785e-05
1.56525e-05
1.44972e-05
1.331e-05
1.20184e-05
1.05978e-05
9.10207e-06
7.66756e-06
6.48219e-06
5.61178e-06
5.02369e-06
4.67005e-06
4.4968e-06
4.46187e-06
4.56995e-06
4.92521e-06
5.84483e-06
8.0309e-06
1.08005e-05
5.2242e-06
1.84664e-06
1.72502e-07
1.14425e-07
2.4213e-06
6.25208e-06
1.43125e-05
2.51636e-05
3.11824e-05
3.22273e-05
3.06491e-05
2.79005e-05
2.49376e-05
2.2283e-05
2.01383e-05
1.84581e-05
1.71104e-05
1.59553e-05
1.48661e-05
1.37348e-05
1.24798e-05
1.10658e-05
9.53793e-06
8.031e-06
6.74202e-06
5.76635e-06
5.08378e-06
4.65737e-06
4.44136e-06
4.39586e-06
4.52099e-06
4.91539e-06
5.90002e-06
8.18564e-06
1.0966e-05
5.26101e-06
1.8632e-06
1.74752e-07
1.17892e-07
2.43648e-06
6.30683e-06
1.44774e-05
2.53811e-05
3.12886e-05
3.22255e-05
3.0581e-05
2.78186e-05
2.48881e-05
2.22902e-05
2.02146e-05
1.8608e-05
1.73348e-05
1.62531e-05
1.52334e-05
1.41625e-05
1.29504e-05
1.15505e-05
9.99852e-06
8.42598e-06
7.03761e-06
5.95786e-06
5.17915e-06
4.6754e-06
4.40953e-06
4.34511e-06
4.47956e-06
4.90744e-06
5.95349e-06
8.33565e-06
1.11285e-05
5.2997e-06
1.87978e-06
1.76937e-07
1.21308e-07
2.45052e-06
6.35847e-06
1.46369e-05
2.55874e-05
3.13791e-05
3.2204e-05
3.04903e-05
2.77136e-05
2.48176e-05
2.22817e-05
2.02752e-05
1.87425e-05
1.75454e-05
1.65396e-05
1.55926e-05
1.45865e-05
1.34231e-05
1.20448e-05
1.04767e-05
8.84621e-06
7.36457e-06
6.18387e-06
5.30916e-06
4.72513e-06
4.40356e-06
4.31256e-06
4.44873e-06
4.90397e-06
6.0071e-06
8.48276e-06
1.12884e-05
5.33971e-06
1.89631e-06
1.79059e-07
1.24708e-07
2.46424e-06
6.40951e-06
1.47957e-05
2.57877e-05
3.14566e-05
3.21676e-05
3.03854e-05
2.75949e-05
2.47304e-05
2.22542e-05
2.03196e-05
1.88645e-05
1.77465e-05
1.68187e-05
1.59466e-05
1.50082e-05
1.38976e-05
1.25464e-05
1.0969e-05
9.28754e-06
7.71889e-06
6.4411e-06
5.47166e-06
4.80564e-06
4.42368e-06
4.29921e-06
4.42964e-06
4.90575e-06
6.06094e-06
8.62663e-06
1.14467e-05
5.38133e-06
1.91282e-06
1.81127e-07
1.28079e-07
2.47701e-06
6.45852e-06
1.4951e-05
2.59772e-05
3.15181e-05
3.21116e-05
3.02577e-05
2.74528e-05
2.46234e-05
2.22103e-05
2.03475e-05
1.89694e-05
1.79324e-05
1.70852e-05
1.62904e-05
1.54225e-05
1.43685e-05
1.30495e-05
1.1469e-05
9.74379e-06
8.09538e-06
6.72559e-06
5.66415e-06
4.91614e-06
4.47073e-06
4.3072e-06
4.42507e-06
4.91557e-06
6.11754e-06
8.76945e-06
1.16034e-05
5.42388e-06
1.9292e-06
1.83137e-07
1.31445e-07
2.48964e-06
6.50763e-06
1.51067e-05
2.61598e-05
3.15657e-05
3.20394e-05
3.01141e-05
2.72957e-05
2.45014e-05
2.21517e-05
2.03632e-05
1.90638e-05
1.81063e-05
1.73409e-05
1.6626e-05
1.58306e-05
1.48357e-05
1.35522e-05
1.19735e-05
1.02106e-05
8.48922e-06
7.0327e-06
5.88267e-06
5.05376e-06
4.54335e-06
4.33664e-06
4.43622e-06
4.93513e-06
6.1786e-06
8.91272e-06
1.17606e-05
5.46781e-06
1.94554e-06
1.85096e-07
1.3478e-07
2.50144e-06
6.55485e-06
1.52588e-05
2.63314e-05
3.15967e-05
3.19471e-05
2.99482e-05
2.71165e-05
2.43587e-05
2.2074e-05
2.03614e-05
1.9143e-05
1.8268e-05
1.75837e-05
1.69494e-05
1.6229e-05
1.52955e-05
1.40505e-05
1.24778e-05
1.0683e-05
8.8957e-06
7.35826e-06
6.12384e-06
5.21618e-06
4.64049e-06
4.38789e-06
4.4647e-06
4.96689e-06
6.24716e-06
9.05949e-06
1.19183e-05
5.51263e-06
1.96176e-06
1.86997e-07
1.38112e-07
2.51309e-06
6.60227e-06
1.54115e-05
2.64963e-05
3.16143e-05
3.18388e-05
2.97663e-05
2.69224e-05
2.42025e-05
2.19836e-05
2.03479e-05
1.9211e-05
1.84191e-05
1.78176e-05
1.72632e-05
1.66179e-05
1.57471e-05
1.45426e-05
1.29788e-05
1.11569e-05
9.31022e-06
7.69778e-06
6.3836e-06
5.40003e-06
4.75973e-06
4.45967e-06
4.51042e-06
5.01188e-06
6.32507e-06
9.21201e-06
1.2078e-05
5.55859e-06
1.97793e-06
1.88838e-07
1.41416e-07
2.52412e-06
6.64847e-06
1.55617e-05
2.66505e-05
3.16153e-05
3.17109e-05
2.95636e-05
2.67084e-05
2.40275e-05
2.18758e-05
2.03183e-05
1.9264e-05
1.85562e-05
1.80386e-05
1.75655e-05
1.69951e-05
1.61879e-05
1.50254e-05
1.34731e-05
1.16282e-05
9.72867e-06
8.04752e-06
6.65888e-06
5.60318e-06
4.89998e-06
4.55195e-06
4.5743e-06
5.07179e-06
6.41479e-06
9.37313e-06
1.22399e-05
5.60531e-06
1.994e-06
1.9061e-07
1.44707e-07
2.53498e-06
6.69473e-06
1.57123e-05
2.67979e-05
3.16035e-05
3.15678e-05
2.93457e-05
2.64808e-05
2.38407e-05
2.17571e-05
2.02784e-05
1.93067e-05
1.86828e-05
1.82486e-05
1.78567e-05
1.73611e-05
1.66158e-05
1.5496e-05
1.3957e-05
1.20927e-05
1.01461e-05
8.40248e-06
6.94511e-06
5.8219e-06
5.05874e-06
4.66356e-06
4.6564e-06
5.1477e-06
6.51823e-06
9.54531e-06
1.24054e-05
5.6532e-06
2.01005e-06
1.92315e-07
1.47953e-07
2.54525e-06
6.73983e-06
1.58603e-05
2.69346e-05
3.15756e-05
3.1406e-05
2.9109e-05
2.62359e-05
2.36383e-05
2.16239e-05
2.02249e-05
1.93364e-05
1.87963e-05
1.84457e-05
1.81349e-05
1.77142e-05
1.7031e-05
1.5952e-05
1.44278e-05
1.25476e-05
1.05595e-05
8.75929e-06
7.2388e-06
6.05297e-06
5.23345e-06
4.79301e-06
4.75647e-06
5.24059e-06
6.63759e-06
9.73141e-06
1.25751e-05
5.70223e-06
2.02614e-06
1.93955e-07
1.51166e-07
2.55531e-06
6.78484e-06
1.60082e-05
2.7064e-05
3.15354e-05
3.12302e-05
2.88589e-05
2.59801e-05
2.34269e-05
2.14825e-05
2.01634e-05
1.93574e-05
1.89001e-05
1.86315e-05
1.84005e-05
1.80533e-05
1.74311e-05
1.63924e-05
1.48815e-05
1.29882e-05
1.09646e-05
9.11414e-06
7.53619e-06
6.29276e-06
5.42092e-06
4.93793e-06
4.87322e-06
5.35034e-06
6.77375e-06
9.93277e-06
1.27496e-05
5.75276e-06
2.04233e-06
1.95542e-07
1.54317e-07
2.5648e-06
6.82866e-06
1.61533e-05
2.71824e-05
3.14795e-05
3.10369e-05
2.85923e-05
2.57101e-05
2.32035e-05
2.13304e-05
2.00918e-05
1.93683e-05
1.8993e-05
1.88056e-05
1.86531e-05
1.83782e-05
1.78157e-05
1.68166e-05
1.53194e-05
1.34144e-05
1.13599e-05
9.46468e-06
7.8347e-06
6.53854e-06
5.61851e-06
5.09608e-06
5.00525e-06
5.47663e-06
6.92752e-06
1.01508e-05
1.2929e-05
5.80479e-06
2.05866e-06
1.97083e-07
1.57414e-07
2.57401e-06
6.87205e-06
1.62972e-05
2.72925e-05
3.14116e-05
3.08306e-05
2.83141e-05
2.54313e-05
2.29735e-05
2.11727e-05
2.00148e-05
1.93727e-05
1.90779e-05
1.89693e-05
1.88929e-05
1.86876e-05
1.81824e-05
1.72214e-05
1.57382e-05
1.3824e-05
1.17436e-05
9.80891e-06
8.13201e-06
6.78788e-06
5.82375e-06
5.2651e-06
5.15045e-06
5.61788e-06
7.09813e-06
1.03852e-05
1.3113e-05
5.85838e-06
2.07518e-06
1.98586e-07
1.60428e-07
2.58261e-06
6.91399e-06
1.64375e-05
2.73912e-05
3.13285e-05
3.06078e-05
2.80208e-05
2.51406e-05
2.27344e-05
2.10074e-05
1.9931e-05
1.93703e-05
1.91549e-05
1.91238e-05
1.91213e-05
1.89832e-05
1.85328e-05
1.76075e-05
1.61376e-05
1.42162e-05
1.21147e-05
1.01459e-05
8.42685e-06
7.03911e-06
6.03483e-06
5.44338e-06
5.30779e-06
5.77377e-06
7.2857e-06
1.06363e-05
1.33012e-05
5.91327e-06
2.09185e-06
2.00056e-07
1.63371e-07
2.59084e-06
6.95515e-06
1.65757e-05
2.7481e-05
3.12331e-05
3.03718e-05
2.77163e-05
2.48421e-05
2.24901e-05
2.08383e-05
1.98438e-05
1.93638e-05
1.92263e-05
1.927e-05
1.93385e-05
1.92643e-05
1.88654e-05
1.79736e-05
1.65162e-05
1.45898e-05
1.24718e-05
1.04733e-05
8.71715e-06
7.29047e-06
6.25002e-06
5.629e-06
5.47502e-06
5.94193e-06
7.48876e-06
1.09031e-05
1.34933e-05
5.96954e-06
2.10873e-06
2.01503e-07
1.66219e-07
2.59845e-06
6.99475e-06
1.671e-05
2.75594e-05
3.11225e-05
3.01193e-05
2.73973e-05
2.45329e-05
2.22383e-05
2.06638e-05
1.97525e-05
1.93537e-05
1.92934e-05
1.94104e-05
1.95474e-05
1.95337e-05
1.91827e-05
1.83211e-05
1.68751e-05
1.4945e-05
1.2815e-05
1.07914e-05
9.00217e-06
7.54053e-06
6.46768e-06
5.8205e-06
5.65137e-06
6.12276e-06
7.70655e-06
1.11845e-05
1.3688e-05
6.02675e-06
2.12573e-06
2.02928e-07
1.6899e-07
2.60569e-06
7.03358e-06
1.68424e-05
2.76286e-05
3.09988e-05
2.98526e-05
2.70666e-05
2.42159e-05
2.19817e-05
2.04862e-05
1.9659e-05
1.93411e-05
1.93571e-05
1.95455e-05
1.97481e-05
1.97915e-05
1.94846e-05
1.86502e-05
1.72142e-05
1.52821e-05
1.31443e-05
1.10997e-05
9.28133e-06
7.78835e-06
6.68661e-06
6.01668e-06
5.83586e-06
6.31543e-06
7.9386e-06
1.14798e-05
1.38852e-05
6.08495e-06
2.14288e-06
2.04341e-07
1.71665e-07
2.61238e-06
7.07105e-06
1.69712e-05
2.76863e-05
3.08594e-05
2.9569e-05
2.67219e-05
2.38893e-05
2.17191e-05
2.03047e-05
1.95629e-05
1.93267e-05
1.94186e-05
1.96774e-05
1.99434e-05
2.00406e-05
1.97738e-05
1.89631e-05
1.75353e-05
1.56023e-05
1.34604e-05
1.13986e-05
9.55465e-06
8.03378e-06
6.90637e-06
6.21675e-06
6.02731e-06
6.51826e-06
8.18348e-06
1.1787e-05
1.40839e-05
6.14387e-06
2.16014e-06
2.05743e-07
1.74264e-07
2.61875e-06
7.10792e-06
1.70983e-05
2.77343e-05
3.07057e-05
2.92706e-05
2.63659e-05
2.3556e-05
2.14526e-05
2.01207e-05
1.9465e-05
1.93104e-05
1.94778e-05
1.98057e-05
2.0133e-05
2.02809e-05
2.00507e-05
1.92604e-05
1.78395e-05
1.59068e-05
1.37643e-05
1.16889e-05
9.82235e-06
8.2762e-06
7.12551e-06
6.41915e-06
6.2242e-06
6.72984e-06
8.44014e-06
1.21053e-05
1.42837e-05
6.20345e-06
2.17752e-06
2.07139e-07
1.76768e-07
2.62462e-06
7.14359e-06
1.7222e-05
2.77701e-05
3.05357e-05
2.89559e-05
2.59978e-05
2.32155e-05
2.11824e-05
1.99346e-05
1.93657e-05
1.92927e-05
1.95352e-05
1.99312e-05
2.03181e-05
2.0514e-05
2.03169e-05
1.95438e-05
1.81281e-05
1.61967e-05
1.40569e-05
1.19709e-05
1.0085e-05
8.51654e-06
7.34529e-06
6.62407e-06
6.42584e-06
6.94879e-06
8.70668e-06
1.24321e-05
1.44832e-05
6.26329e-06
2.1949e-06
2.08525e-07
1.7919e-07
2.63014e-06
7.17849e-06
1.73431e-05
2.77948e-05
3.03511e-05
2.86273e-05
2.56204e-05
2.28708e-05
2.09108e-05
1.97481e-05
1.92657e-05
1.92734e-05
1.95898e-05
2.00527e-05
2.04976e-05
2.07393e-05
2.05725e-05
1.98139e-05
1.84022e-05
1.64735e-05
1.43393e-05
1.22459e-05
1.03432e-05
8.75467e-06
7.56487e-06
6.83091e-06
6.63171e-06
7.17462e-06
8.98252e-06
1.27667e-05
1.46826e-05
6.3235e-06
2.21238e-06
2.09902e-07
1.81511e-07
2.63512e-06
7.21191e-06
1.74597e-05
2.78065e-05
3.01504e-05
2.82842e-05
2.52341e-05
2.25223e-05
2.06386e-05
1.95627e-05
1.91663e-05
1.92533e-05
1.96422e-05
2.01705e-05
2.06717e-05
2.09569e-05
2.08176e-05
2.00712e-05
1.86628e-05
1.67382e-05
1.46124e-05
1.25143e-05
1.05974e-05
8.991e-06
7.78458e-06
7.03959e-06
6.8408e-06
7.40595e-06
9.26594e-06
1.3107e-05
1.48801e-05
6.3833e-06
2.22967e-06
2.1126e-07
1.83734e-07
2.63961e-06
7.24396e-06
1.7572e-05
2.78059e-05
2.99353e-05
2.79286e-05
2.4841e-05
2.21721e-05
2.03674e-05
1.9381e-05
1.90689e-05
1.92326e-05
1.96918e-05
2.02837e-05
2.08394e-05
2.1166e-05
2.10521e-05
2.03163e-05
1.89111e-05
1.69925e-05
1.48773e-05
1.27768e-05
1.08481e-05
9.22589e-06
8.00474e-06
7.25063e-06
7.05433e-06
7.64338e-06
9.55704e-06
1.34523e-05
1.50763e-05
6.44321e-06
2.24715e-06
2.12608e-07
1.85842e-07
2.64342e-06
7.27392e-06
1.76784e-05
2.77918e-05
2.97047e-05
2.75599e-05
2.4441e-05
2.18204e-05
2.00973e-05
1.92009e-05
1.89727e-05
1.92122e-05
1.974e-05
2.03935e-05
2.10012e-05
2.13668e-05
2.12761e-05
2.05499e-05
1.91488e-05
1.72388e-05
1.51357e-05
1.30345e-05
1.10957e-05
9.4595e-06
8.22519e-06
7.4634e-06
7.27115e-06
7.88592e-06
9.85473e-06
1.38015e-05
1.52702e-05
6.50271e-06
2.26468e-06
2.13935e-07
1.87842e-07
2.64658e-06
7.30189e-06
1.77794e-05
2.77652e-05
2.94593e-05
2.71784e-05
2.40345e-05
2.14679e-05
1.98298e-05
1.90248e-05
1.88804e-05
1.91943e-05
1.97886e-05
2.05008e-05
2.11576e-05
2.15594e-05
2.149e-05
2.07729e-05
1.93778e-05
1.748e-05
1.53897e-05
1.32885e-05
1.13408e-05
9.6921e-06
8.44611e-06
7.67812e-06
7.49157e-06
8.13393e-06
1.01587e-05
1.41543e-05
1.54622e-05
6.56207e-06
2.28225e-06
2.15248e-07
1.89728e-07
2.649e-06
7.32756e-06
1.78743e-05
2.77253e-05
2.91974e-05
2.67824e-05
2.362e-05
2.11135e-05
1.95642e-05
1.8853e-05
1.87932e-05
1.91812e-05
1.98404e-05
2.06086e-05
2.13112e-05
2.17458e-05
2.16951e-05
2.09866e-05
1.96e-05
1.7719e-05
1.56413e-05
1.35404e-05
1.15846e-05
9.92431e-06
8.66763e-06
7.89454e-06
7.71507e-06
8.38683e-06
1.04687e-05
1.45087e-05
1.56515e-05
6.62106e-06
2.29974e-06
2.16545e-07
1.91517e-07
2.6508e-06
7.35136e-06
1.79646e-05
2.7673e-05
2.89184e-05
2.63708e-05
2.31966e-05
2.07565e-05
1.93003e-05
1.86855e-05
1.87122e-05
1.91746e-05
1.98979e-05
2.07199e-05
2.14648e-05
2.19282e-05
2.1893e-05
2.1192e-05
1.98157e-05
1.79554e-05
1.58906e-05
1.37904e-05
1.18276e-05
1.01568e-05
8.8904e-06
8.11308e-06
7.94178e-06
8.64446e-06
1.07845e-05
1.48657e-05
1.58389e-05
6.6801e-06
2.31723e-06
2.17838e-07
1.93215e-07
2.652e-06
7.37344e-06
1.80507e-05
2.76075e-05
2.86204e-05
2.59415e-05
2.27628e-05
2.03957e-05
1.90371e-05
1.85223e-05
1.8638e-05
1.91767e-05
1.9964e-05
2.08382e-05
2.16221e-05
2.21101e-05
2.20864e-05
2.13908e-05
2.00254e-05
1.81883e-05
1.6137e-05
1.40385e-05
1.20699e-05
1.03899e-05
9.11478e-06
8.33406e-06
8.17178e-06
8.90636e-06
1.11049e-05
1.52236e-05
1.60246e-05
6.73905e-06
2.33466e-06
2.19127e-07
1.94842e-07
2.65277e-06
7.39432e-06
1.81336e-05
2.75288e-05
2.83023e-05
2.54938e-05
2.2318e-05
2.00305e-05
1.87738e-05
1.83624e-05
1.85701e-05
1.91874e-05
2.00402e-05
2.09659e-05
2.17862e-05
2.22949e-05
2.22784e-05
2.15851e-05
2.023e-05
1.84171e-05
1.63798e-05
1.42841e-05
1.23114e-05
1.06239e-05
9.34146e-06
8.55835e-06
8.40588e-06
9.17321e-06
1.14304e-05
1.55827e-05
1.62091e-05
6.79805e-06
2.35209e-06
2.20413e-07
1.96403e-07
2.6531e-06
7.41399e-06
1.82131e-05
2.74357e-05
2.79627e-05
2.50271e-05
2.18623e-05
1.96608e-05
1.85102e-05
1.82053e-05
1.8508e-05
1.92068e-05
2.01271e-05
2.11049e-05
2.196e-05
2.24857e-05
2.24722e-05
2.17779e-05
2.04318e-05
1.86428e-05
1.66192e-05
1.45272e-05
1.25517e-05
1.08583e-05
9.57003e-06
8.78576e-06
8.64414e-06
9.44514e-06
1.17608e-05
1.59421e-05
1.63922e-05
6.85713e-06
2.36951e-06
2.21694e-07
1.97905e-07
2.65304e-06
7.43254e-06
1.82893e-05
2.73276e-05
2.76011e-05
2.45416e-05
2.13964e-05
1.92871e-05
1.82459e-05
1.80501e-05
1.84505e-05
1.92336e-05
2.02239e-05
2.12552e-05
2.21447e-05
2.26851e-05
2.2671e-05
2.19727e-05
2.06336e-05
1.88669e-05
1.68562e-05
1.47679e-05
1.27907e-05
1.10928e-05
9.80022e-06
9.0162e-06
8.88676e-06
9.72265e-06
1.20967e-05
1.63025e-05
1.65742e-05
6.91639e-06
2.38698e-06
2.22974e-07
1.99347e-07
2.65253e-06
7.44972e-06
1.83615e-05
2.72037e-05
2.72168e-05
2.4038e-05
2.09215e-05
1.89104e-05
1.79818e-05
1.78972e-05
1.83972e-05
1.9267e-05
2.03299e-05
2.14165e-05
2.23407e-05
2.28943e-05
2.28773e-05
2.21727e-05
2.08393e-05
1.90919e-05
1.70919e-05
1.50068e-05
1.30283e-05
1.1327e-05
1.00314e-05
9.249e-06
9.13318e-06
1.00054e-05
1.24378e-05
1.66633e-05
1.67548e-05
6.97576e-06
2.40447e-06
2.24253e-07
2.00735e-07
2.65157e-06
7.46555e-06
1.84298e-05
2.70635e-05
2.68095e-05
2.3517e-05
2.04384e-05
1.85314e-05
1.77185e-05
1.77466e-05
1.83478e-05
1.93063e-05
2.04441e-05
2.1588e-05
2.25478e-05
2.31142e-05
2.3093e-05
2.23812e-05
2.10529e-05
1.93207e-05
1.73282e-05
1.52448e-05
1.3265e-05
1.1561e-05
1.02636e-05
9.48432e-06
9.38368e-06
1.02937e-05
1.27844e-05
1.70251e-05
1.69344e-05
7.03534e-06
2.42204e-06
2.25533e-07
2.02073e-07
2.65018e-06
7.48003e-06
1.8494e-05
2.69062e-05
2.6379e-05
2.29797e-05
1.99486e-05
1.81514e-05
1.74573e-05
1.75992e-05
1.83024e-05
1.93511e-05
2.05659e-05
2.17691e-05
2.27656e-05
2.33449e-05
2.33191e-05
2.26004e-05
2.12778e-05
1.95555e-05
1.75662e-05
1.54824e-05
1.35008e-05
1.17947e-05
1.04964e-05
9.72134e-06
9.63761e-06
1.05868e-05
1.31361e-05
1.73874e-05
1.71125e-05
7.09492e-06
2.43964e-06
2.26813e-07
2.03376e-07
2.64845e-06
7.4936e-06
1.85551e-05
2.67313e-05
2.5925e-05
2.2427e-05
1.94529e-05
1.77704e-05
1.72005e-05
1.74556e-05
1.82606e-05
1.94013e-05
2.06953e-05
2.19598e-05
2.29942e-05
2.35863e-05
2.35558e-05
2.28307e-05
2.15143e-05
1.97969e-05
1.78068e-05
1.57204e-05
1.37363e-05
1.20283e-05
1.07301e-05
9.96123e-06
9.89696e-06
1.08852e-05
1.34929e-05
1.77503e-05
1.72893e-05
7.15461e-06
2.45732e-06
2.28095e-07
2.04654e-07
2.64647e-06
7.50654e-06
1.86131e-05
2.6538e-05
2.54486e-05
2.18621e-05
1.8954e-05
1.73888e-05
1.69429e-05
1.73117e-05
1.82207e-05
1.94559e-05
2.0832e-05
2.21598e-05
2.32329e-05
2.3838e-05
2.38023e-05
2.30709e-05
2.17605e-05
2.0044e-05
1.80497e-05
1.59587e-05
1.39714e-05
1.22617e-05
1.09648e-05
1.02038e-05
1.01609e-05
1.11892e-05
1.38547e-05
1.81136e-05
1.74646e-05
7.21418e-06
2.47502e-06
2.29376e-07
2.05918e-07
2.64436e-06
7.51918e-06
1.86682e-05
2.63259e-05
2.4951e-05
2.1288e-05
1.8455e-05
1.70094e-05
1.66871e-05
1.71693e-05
1.8183e-05
1.95147e-05
2.09752e-05
2.23685e-05
2.34815e-05
2.40996e-05
2.40585e-05
2.33204e-05
2.20149e-05
2.02959e-05
1.82946e-05
1.61974e-05
1.42062e-05
1.24951e-05
1.12003e-05
1.04487e-05
1.0429e-05
1.14985e-05
1.42216e-05
1.84771e-05
1.76384e-05
7.27375e-06
2.4928e-06
2.30655e-07
2.07165e-07
2.64219e-06