/*--------------------------------*- C++ -*----------------------------------*\
| =========                 |                                                 |
| \\      /  F ield         | OpenFOAM: The Open Source CFD Toolbox           |
|  \\    /   O peration     | Version:  v2006                                 |
|   \\  /    A nd           | Website:  www.openfoam.com                      |
|    \\/     M anipulation  |                                                 |
\*---------------------------------------------------------------------------*/
FoamFile
{
    version     2.0;
    format      ascii;
    class       surfaceScalarField;
    location    "93";
    object      phi;
}
// * * * * * * * * * * * * * * * * * * * * * * * * * * * * * * * * * * * * * //

dimensions      [1 0 -1 0 0 0 0];
oriented        oriented;


internalField   nonuniform List<scalar> 
228225
(
1.38238e-07
-1.62647e-07
5.07031e-08
3.83494e-07
-3.73838e-07
1.28619e-07
7.45057e-07
-5.45592e-07
1.84019e-07
1.2308e-06
-7.06369e-07
2.2057e-07
1.84527e-06
-8.57567e-07
2.43035e-07
2.58167e-06
-9.92611e-07
2.56141e-07
3.42314e-06
-1.10496e-06
2.63445e-07
4.34655e-06
-1.19066e-06
2.67231e-07
5.32602e-06
-1.24828e-06
2.6882e-07
6.33516e-06
-1.27801e-06
2.68913e-07
7.34841e-06
-1.28102e-06
2.67847e-07
8.34169e-06
-1.25893e-06
2.65762e-07
9.29279e-06
-1.21364e-06
2.62693e-07
1.01817e-05
-1.14737e-06
2.58624e-07
1.09903e-05
-1.06194e-06
2.53546e-07
1.17021e-05
-9.58949e-07
2.47439e-07
1.23024e-05
-8.40364e-07
2.40301e-07
1.27789e-05
-7.08267e-07
2.32153e-07
1.3121e-05
-5.64838e-07
2.2306e-07
1.33208e-05
-4.12493e-07
2.13123e-07
1.33728e-05
-2.54097e-07
2.02488e-07
1.32758e-05
-9.39109e-08
1.9134e-07
1.3026e-05
7.04576e-08
1.7991e-07
1.26199e-05
2.38163e-07
1.6848e-07
1.20659e-05
3.97114e-07
1.57378e-07
1.13733e-05
5.46235e-07
1.46937e-07
1.05535e-05
6.82844e-07
1.37479e-07
9.61944e-06
8.05339e-07
1.29279e-07
8.58305e-06
9.14356e-07
1.22541e-07
7.44996e-06
1.01626e-06
1.17278e-07
6.20395e-06
1.13335e-06
1.13039e-07
4.78278e-06
1.31332e-06
1.08086e-07
3.1035e-06
1.58139e-06
9.77988e-08
1.26531e-06
1.76307e-06
7.43542e-08
1.23182e-06
3.16791e-08
1.10625e-07
-3.25194e-07
5.20886e-08
4.2931e-07
-8.1954e-07
1.26951e-07
9.3098e-07
-1.22431e-06
1.76945e-07
1.58789e-06
-1.57274e-06
2.09308e-07
2.36665e-06
-1.86595e-06
2.29456e-07
3.23128e-06
-2.09911e-06
2.41657e-07
4.14781e-06
-2.27069e-06
2.4898e-07
5.0867e-06
-2.38322e-06
2.53431e-07
6.02319e-06
-2.44123e-06
2.56224e-07
6.93663e-06
-2.44973e-06
2.58043e-07
7.80964e-06
-2.41351e-06
2.59245e-07
8.62742e-06
-2.33693e-06
2.59983e-07
9.37723e-06
-2.22393e-06
2.60267e-07
1.00482e-05
-2.0785e-06
2.59954e-07
1.06313e-05
-1.9042e-06
2.58959e-07
1.11186e-05
-1.70365e-06
2.57277e-07
1.15028e-05
-1.47948e-06
2.5482e-07
1.17774e-05
-1.23441e-06
2.51471e-07
1.19367e-05
-9.71278e-07
2.47134e-07
1.19757e-05
-6.93108e-07
2.41667e-07
1.18901e-05
-4.03301e-07
2.34948e-07
1.16754e-05
-1.05935e-07
2.26885e-07
1.13337e-05
1.94949e-07
2.17465e-07
1.0872e-05
4.93417e-07
2.06753e-07
1.02917e-05
7.82892e-07
1.94904e-07
9.59947e-06
1.05665e-06
1.82218e-07
8.80455e-06
1.30903e-06
1.69189e-07
7.9158e-06
1.53798e-06
1.5658e-07
6.93781e-06
1.74764e-06
1.45159e-07
5.86442e-06
1.95475e-06
1.35305e-07
4.67346e-06
2.19803e-06
1.26579e-07
3.34378e-06
2.52642e-06
1.16669e-07
1.93167e-06
2.89261e-06
1.00556e-07
6.57207e-07
2.96413e-06
7.23806e-08
1.85803e-06
2.90274e-08
1.31651e-07
-5.08391e-07
5.17068e-08
5.41205e-07
-1.34648e-06
1.17389e-07
1.18722e-06
-2.02639e-06
1.56073e-07
2.00126e-06
-2.56464e-06
1.77874e-07
2.91078e-06
-2.96512e-06
1.8965e-07
3.85558e-06
-3.23993e-06
1.96018e-07
4.79366e-06
-3.40853e-06
1.99767e-07
5.69819e-06
-3.49018e-06
2.02421e-07
6.55232e-06
-3.50011e-06
2.0474e-07
7.34507e-06
-3.44958e-06
2.07082e-07
8.06884e-06
-3.3469e-06
2.09606e-07
8.71787e-06
-3.19837e-06
2.12377e-07
9.28742e-06
-3.00893e-06
2.15416e-07
9.77292e-06
-2.78274e-06
2.18713e-07
1.01701e-05
-2.52363e-06
2.22228e-07
1.04756e-05
-2.23512e-06
2.25904e-07
1.06871e-05
-1.92063e-06
2.29651e-07
1.08028e-05
-1.58354e-06
2.33323e-07
1.08218e-05
-1.22713e-06
2.3679e-07
1.07437e-05
-8.54676e-07
2.39717e-07
1.05683e-05
-4.69651e-07
2.41734e-07
1.02984e-05
-7.84199e-08
2.42398e-07
9.92691e-06
3.25267e-07
2.41205e-07
9.45626e-06
7.26499e-07
2.37667e-07
8.88868e-06
1.11926e-06
2.31372e-07
8.22818e-06
1.49524e-06
2.22113e-07
7.48102e-06
1.84642e-06
2.10032e-07
6.65398e-06
2.16958e-06
1.95715e-07
5.74977e-06
2.47206e-06
1.80074e-07
4.76215e-06
2.77867e-06
1.63936e-07
3.68e-06
3.13304e-06
1.47253e-07
2.51882e-06
3.55911e-06
1.28385e-07
1.37951e-06
3.92676e-06
1.04618e-07
4.35201e-07
3.83444e-06
7.28155e-08
2.26172e-06
2.94602e-08
1.85437e-07
-7.41763e-07
4.79352e-08
6.72258e-07
-1.93381e-06
1.00641e-07
1.37005e-06
-2.85077e-06
1.26714e-07
2.18326e-06
-3.51662e-06
1.38897e-07
3.03028e-06
-3.9564e-06
1.44372e-07
3.86005e-06
-4.21643e-06
1.4684e-07
4.64869e-06
-4.34498e-06
1.47898e-07
5.3872e-06
-4.37673e-06
1.48133e-07
6.07227e-06
-4.3329e-06
1.47807e-07
6.70201e-06
-4.22639e-06
1.47159e-07
7.27406e-06
-4.06534e-06
1.4648e-07
7.78491e-06
-3.85523e-06
1.46105e-07
8.22988e-06
-3.60018e-06
1.46383e-07
8.60356e-06
-3.30397e-06
1.47649e-07
8.90051e-06
-2.97069e-06
1.50202e-07
9.11622e-06
-2.60502e-06
1.54279e-07
9.24787e-06
-2.21221e-06
1.60027e-07
9.29465e-06
-1.79772e-06
1.67481e-07
9.25771e-06
-1.36666e-06
1.76555e-07
9.13954e-06
-9.23421e-07
1.86998e-07
8.943e-06
-4.71398e-07
1.9837e-07
8.66861e-06
-1.39777e-08
2.10029e-07
8.32381e-06
4.49014e-07
2.21135e-07
7.9082e-06
9.11579e-07
2.30624e-07
7.42112e-06
1.36915e-06
2.37307e-07
6.8622e-06
1.81425e-06
2.40047e-07
6.23151e-06
2.23922e-06
2.38035e-07
5.52862e-06
2.64156e-06
2.31073e-07
4.74984e-06
3.03142e-06
2.1957e-07
3.88753e-06
3.4371e-06
2.03988e-07
2.94097e-06
3.89561e-06
1.84006e-07
1.95068e-06
4.39065e-06
1.58526e-07
1.02469e-06
4.72484e-06
1.27302e-07
2.99061e-07
4.47011e-06
8.87526e-08
2.52197e-06
3.67609e-08
1.80865e-07
-9.57192e-07
3.4584e-08
6.29362e-07
-2.45062e-06
6.84093e-08
1.23623e-06
-3.54162e-06
8.40835e-08
1.90609e-06
-4.27819e-06
9.18034e-08
2.57414e-06
-4.71998e-06
9.56076e-08
3.21273e-06
-4.95156e-06
9.65942e-08
3.81686e-06
-5.04394e-06
9.48761e-08
4.38818e-06
-5.03864e-06
9.0634e-08
4.92785e-06
-4.95696e-06
8.44222e-08
5.43459e-06
-4.81008e-06
7.69808e-08
5.90435e-06
-4.6041e-06
6.90374e-08
6.33054e-06
-4.34268e-06
6.13004e-08
6.70482e-06
-4.02887e-06
5.44397e-08
7.01847e-06
-3.66668e-06
4.91007e-08
7.26392e-06
-3.26199e-06
4.58928e-08
7.43595e-06
-2.82236e-06
4.53577e-08
7.53232e-06
-2.35647e-06
4.79279e-08
7.55387e-06
-1.87309e-06
5.38682e-08
7.50389e-06
-1.37996e-06
6.33401e-08
7.38723e-06
-8.83023e-07
7.63135e-08
7.20933e-06
-3.85986e-07
9.25451e-08
6.97428e-06
1.09535e-07
1.11602e-07
6.68848e-06
6.02128e-07
1.32751e-07
6.35298e-06
1.09228e-06
1.54879e-07
5.96762e-06
1.57811e-06
1.76476e-07
5.52991e-06
2.05634e-06
1.95704e-07
5.03495e-06
2.52364e-06
2.10645e-07
4.47517e-06
2.98173e-06
2.19708e-07
3.8403e-06
3.44454e-06
2.21832e-07
3.12103e-06
3.94032e-06
2.16105e-07
2.32472e-06
4.49065e-06
2.01215e-07
1.50605e-06
5.0329e-06
1.76141e-07
7.63873e-07
5.32422e-06
1.42152e-07
2.08271e-07
4.92595e-06
9.85724e-08
2.689e-06
3.92379e-08
1.63286e-07
-1.14576e-06
2.53945e-08
5.45736e-07
-2.88527e-06
5.22447e-08
1.04515e-06
-4.1086e-06
6.76199e-08
1.58385e-06
-4.89423e-06
7.74099e-08
2.11736e-06
-5.33636e-06
8.29266e-08
2.63214e-06
-5.55048e-06
8.42056e-08
3.12825e-06
-5.62137e-06
8.13911e-08
3.60706e-06
-5.59242e-06
7.5042e-08
4.0676e-06
-5.48336e-06
6.59268e-08
4.50602e-06
-5.30322e-06
5.47877e-08
4.91565e-06
-5.05595e-06
4.22984e-08
5.28754e-06
-4.7436e-06
2.91071e-08
5.61177e-06
-4.3689e-06
1.58762e-08
5.87966e-06
-3.93736e-06
2.86209e-09
6.08252e-06
-3.45803e-06
-6.75249e-09
6.21719e-06
-2.94261e-06
-1.43497e-08
6.28416e-06
-2.40405e-06
-1.9313e-08
6.28678e-06
-1.85482e-06
-2.08242e-08
6.23055e-06
-1.30535e-06
-1.83241e-08
6.1221e-06
-7.63057e-07
-1.14527e-08
5.96861e-06
-2.32003e-07
-4.28496e-10
5.77496e-06
2.86703e-07
1.65395e-08
5.54524e-06
7.94343e-07
3.7559e-08
5.28169e-06
1.29345e-06
6.24352e-08
4.98318e-06
1.78671e-06
8.99716e-08
4.64481e-06
2.27641e-06
1.18372e-07
4.25733e-06
2.76577e-06
1.45419e-07
3.80734e-06
3.26305e-06
1.68726e-07
3.27963e-06
3.78645e-06
1.85847e-07
2.66462e-06
4.36123e-06
1.9409e-07
1.97659e-06
4.98821e-06
1.90358e-07
1.27637e-06
5.56061e-06
1.72179e-07
6.46702e-07
5.8127e-06
1.40513e-07
1.79008e-07
5.29656e-06
9.5914e-08
2.83058e-06
3.54597e-08
1.38288e-07
-1.30108e-06
1.71472e-08
4.54458e-07
-3.23857e-06
3.71897e-08
8.62289e-07
-4.5672e-06
5.08252e-08
1.30154e-06
-5.39406e-06
6.06504e-08
1.73959e-06
-5.84086e-06
6.64971e-08
2.16724e-06
-6.04613e-06
6.80411e-08
2.5842e-06
-6.10377e-06
6.54819e-08
2.9903e-06
-6.05792e-06
5.94456e-08
3.38333e-06
-5.92698e-06
5.06408e-08
3.75866e-06
-5.71814e-06
3.96502e-08
4.10931e-06
-5.43349e-06
2.69423e-08
4.42668e-06
-5.07378e-06
1.28674e-08
4.70188e-06
-4.64191e-06
-2.13014e-09
4.9258e-06
-4.14533e-06
-1.5897e-08
5.09344e-06
-3.59614e-06
-2.94644e-08
5.20252e-06
-3.00994e-06
-4.16789e-08
5.25383e-06
-2.40352e-06
-5.17871e-08
5.25076e-06
-1.79266e-06
-5.90231e-08
5.19851e-06
-1.19041e-06
-6.2629e-08
5.10338e-06
-6.05936e-07
-6.19308e-08
4.97086e-06
-4.30557e-08
-5.63728e-08
4.80973e-06
4.93407e-07
-4.55155e-08
4.62356e-06
1.00957e-06
-2.90133e-08
4.41421e-06
1.50962e-06
-6.76743e-09
4.18021e-06
2.00053e-06
2.02253e-08
3.91515e-06
2.49059e-06
5.09164e-08
3.6074e-06
2.9903e-06
8.32728e-08
3.24064e-06
3.51514e-06
1.14706e-07
2.79759e-06
4.08747e-06
1.42058e-07
2.26981e-06
4.72766e-06
1.61317e-07
1.67559e-06
5.41457e-06
1.67718e-07
1.07473e-06
6.00395e-06
1.57166e-07
5.37424e-07
6.21971e-06
1.2963e-07
1.46926e-07
5.59916e-06
8.67599e-08
2.94583e-06
2.97581e-08
1.09498e-07
-1.42406e-06
1.35308e-08
3.64853e-07
-3.52751e-06
3.36612e-08
7.00341e-07
-4.95259e-06
4.99783e-08
1.0681e-06
-5.82436e-06
6.25984e-08
1.44122e-06
-6.28448e-06
7.05608e-08
1.81082e-06
-6.48923e-06
7.35438e-08
2.17517e-06
-6.54005e-06
7.19797e-08
2.53282e-06
-6.48223e-06
6.66951e-08
2.88075e-06
-6.33333e-06
5.84772e-08
3.21393e-06
-6.09918e-06
4.79068e-08
3.52562e-06
-5.78043e-06
3.52955e-08
3.8081e-06
-5.37713e-06
2.09317e-08
4.0538e-06
-4.89285e-06
5.28286e-09
4.25637e-06
-4.33689e-06
-1.09567e-08
4.41155e-06
-3.72404e-06
-2.72138e-08
4.51717e-06
-3.07277e-06
-4.27343e-08
4.57337e-06
-2.40274e-06
-5.69128e-08
4.58252e-06
-1.73257e-06
-6.91744e-08
4.5487e-06
-1.07775e-06
-7.87814e-08
4.47729e-06
-4.49588e-07
-8.48747e-08
4.37561e-06
1.45284e-07
-8.65942e-08
4.2472e-06
7.05043e-07
-8.3167e-08
4.09808e-06
1.23264e-06
-7.38858e-08
3.93034e-06
1.73551e-06
-5.80912e-08
3.74183e-06
2.22465e-06
-3.55482e-08
3.52486e-06
2.71407e-06
-6.47398e-09
3.26752e-06
3.22133e-06
2.63499e-08
2.95217e-06
3.76879e-06
6.1731e-08
2.56128e-06
4.38236e-06
9.60044e-08
2.08776e-06
5.07707e-06
1.24052e-07
1.55107e-06
5.81151e-06
1.39577e-07
1.00603e-06
6.41179e-06
1.36826e-07
5.12823e-07
6.59764e-06
1.14597e-07
1.47541e-07
5.88791e-06
7.53952e-08
3.06734e-06
2.41153e-08
1.00895e-07
-1.53641e-06
1.15068e-08
3.32336e-07
-3.78977e-06
3.08848e-08
6.35207e-07
-5.30264e-06
4.72378e-08
9.67575e-07
-6.21671e-06
6.00358e-08
1.3053e-06
-6.6907e-06
6.85371e-08
1.63988e-06
-6.89643e-06
7.26605e-08
1.96895e-06
-6.94192e-06
7.28391e-08
2.29058e-06
-6.87355e-06
6.97422e-08
2.60168e-06
-6.70835e-06
6.39745e-08
2.89769e-06
-6.4511e-06
5.59588e-08
3.1729e-06
-6.10145e-06
4.586e-08
3.42113e-06
-5.65913e-06
3.38171e-08
3.63658e-06
-5.12841e-06
2.01625e-08
3.81439e-06
-4.5201e-06
5.46194e-09
3.95157e-06
-3.85085e-06
-1.03136e-08
4.0463e-06
-3.14104e-06
-2.63929e-08
4.09806e-06
-2.41241e-06
-4.20347e-08
4.10815e-06
-1.68578e-06
-5.68115e-08
4.07966e-06
-9.7903e-07
-7.01625e-08
4.01709e-06
-3.05703e-07
-8.12509e-08
3.92614e-06
3.25407e-07
-8.91063e-08
3.81293e-06
9.11028e-07
-9.27173e-08
3.68262e-06
1.45415e-06
-9.11379e-08
3.53776e-06
1.96386e-06
-8.34404e-08
3.37651e-06
2.45461e-06
-6.8658e-08
3.19139e-06
2.9455e-06
-4.62562e-08
2.96877e-06
3.46036e-06
-1.63683e-08
2.69134e-06
4.02771e-06
1.85244e-08
2.34228e-06
4.67631e-06
5.50915e-08
1.91494e-06
5.41592e-06
8.84079e-08
1.42789e-06
6.18762e-06
1.10747e-07
9.3012e-07
6.79435e-06
1.14817e-07
4.75813e-07
6.95301e-06
9.82569e-08
1.38215e-07
6.1603e-06
6.40766e-08
3.18414e-06
1.95025e-08
8.62564e-08
-1.6341e-06
1.1514e-08
2.91299e-07
-4.02713e-06
3.23703e-08
5.64798e-07
-5.62642e-06
5.03273e-08
8.68188e-07
-6.58444e-06
6.43866e-08
1.17872e-06
-7.07496e-06
7.37735e-08
1.48773e-06
-7.28394e-06
7.85374e-08
1.79223e-06
-7.32573e-06
7.9356e-08
2.08976e-06
-7.24814e-06
7.7114e-08
2.37696e-06
-7.06802e-06
7.25137e-08
2.64939e-06
-6.78946e-06
6.5979e-08
2.90188e-06
-6.41154e-06
5.76543e-08
3.12926e-06
-5.93404e-06
4.75944e-08
3.32696e-06
-5.36202e-06
3.59631e-08
3.49143e-06
-4.7075e-06
2.29872e-08
3.62007e-06
-3.98848e-06
9.04943e-09
3.71141e-06
-3.22657e-06
-5.75126e-09
3.76525e-06
-2.44477e-06
-2.14164e-08
3.78175e-06
-1.66538e-06
-3.68365e-08
3.76279e-06
-9.0823e-07
-5.17767e-08
3.71183e-06
-1.89077e-07
-6.55911e-08
3.63359e-06
4.81072e-07
-7.73569e-08
3.53363e-06
1.09708e-06
-8.60263e-08
3.41694e-06
1.66141e-06
-9.05191e-08
3.28635e-06
2.1843e-06
-8.9787e-08
3.14072e-06
2.68294e-06
-8.26503e-08
2.97343e-06
3.18072e-06
-6.78809e-08
2.77182e-06
3.70672e-06
-4.47159e-08
2.51827e-06
4.29456e-06
-1.32989e-08
2.19694e-06
4.97524e-06
2.23801e-08
1.802e-06
5.75337e-06
5.73951e-08
1.35021e-06
6.55519e-06
8.40103e-08
8.85162e-07
7.16541e-06
9.35816e-08
4.56462e-07
7.29846e-06
8.25595e-08
1.34585e-07
6.42709e-06
5.3941e-08
3.30081e-06
1.60111e-08
8.60773e-08
-1.73171e-06
1.16059e-08
2.8508e-07
-4.25907e-06
3.29843e-08
5.46612e-07
-5.93904e-06
5.11335e-08
8.33868e-07
-6.93685e-06
6.51949e-08
1.12565e-06
-7.4415e-06
7.48026e-08
1.41422e-06
-7.65265e-06
8.01858e-08
1.69693e-06
-7.69037e-06
8.19785e-08
1.97149e-06
-7.60362e-06
8.09683e-08
2.23478e-06
-7.40907e-06
7.78037e-08
2.48279e-06
-7.11031e-06
7.28965e-08
2.71103e-06
-6.70613e-06
6.64031e-08
2.91525e-06
-6.19658e-06
5.83725e-08
3.09193e-06
-5.58754e-06
4.89013e-08
3.23851e-06
-4.89211e-06
3.80914e-08
3.35325e-06
-4.12924e-06
2.60785e-08
3.43502e-06
-3.32138e-06
1.31027e-08
3.48255e-06
-2.49233e-06
1.02522e-10
3.49791e-06
-1.66526e-06
-1.54079e-08
3.48146e-06
-8.61362e-07
-3.03581e-08
3.43573e-06
-9.82077e-08
-4.50631e-08
3.3647e-06
6.10949e-07
-5.87802e-08
3.27319e-06
1.25919e-06
-7.05366e-08
3.16569e-06
1.84823e-06
-7.92443e-08
3.04485e-06
2.389e-06
-8.38084e-08
2.90999e-06
2.90089e-06
-8.30255e-08
2.75544e-06
3.41073e-06
-7.54171e-08
2.56981e-06
3.95191e-06
-5.95346e-08
2.33701e-06
4.56205e-06
-3.46831e-08
2.03974e-06
5.27348e-06
-1.00247e-09
1.67529e-06
6.08598e-06
3.17403e-08
1.25756e-06
6.9127e-06
5.99894e-08
8.25521e-07
7.52357e-06
7.34649e-08
4.25236e-07
7.63061e-06
6.74389e-08
1.24926e-07
6.68184e-06
4.4412e-08
3.41088e-06
1.29345e-08
7.97861e-08
-1.82404e-06
1.26152e-08
2.67809e-07
-4.48215e-06
3.51214e-08
5.16108e-07
-6.24104e-06
5.37587e-08
7.88498e-07
-7.27717e-06
6.79849e-08
1.06461e-06
-7.79522e-06
7.76575e-08
1.33712e-06
-8.00829e-06
8.31725e-08
1.60333e-06
-8.04184e-06
8.52989e-08
1.86086e-06
-7.94598e-06
8.48907e-08
2.10658e-06
-7.73735e-06
8.26005e-08
2.33671e-06
-7.41921e-06
7.88244e-08
2.54725e-06
-6.99034e-06
7.37176e-08
2.73465e-06
-6.45124e-06
6.73186e-08
2.89621e-06
-5.80872e-06
5.96708e-08
3.03014e-06
-5.07679e-06
5.07963e-08
3.13535e-06
-4.2751e-06
4.07136e-08
3.21112e-06
-3.42657e-06
2.94781e-08
3.25699e-06
-2.55538e-06
1.72383e-08
3.27271e-06
-1.68532e-06
4.39855e-09
3.25945e-06
-8.38293e-07
-9.74273e-09
3.21904e-06
-3.34459e-08
-2.42763e-08
3.15433e-06
7.14245e-07
-3.85177e-08
3.06941e-06
1.39588e-06
-5.17039e-08
2.96814e-06
2.01242e-06
-6.28518e-08
2.85295e-06
2.57518e-06
-7.09262e-08
2.72345e-06
3.10525e-06
-7.47973e-08
2.57498e-06
3.63225e-06
-7.30008e-08
2.39779e-06
4.19294e-06
-6.38043e-08
2.17772e-06
4.82793e-06
-4.58094e-08
1.90028e-06
5.56998e-06
-1.91077e-08
1.55995e-06
6.41401e-06
1.21821e-08
1.17132e-06
7.26146e-06
3.96323e-08
7.69061e-07
7.8701e-06
5.53107e-08
3.95533e-07
7.95001e-06
5.34264e-08
1.15837e-07
6.92472e-06
3.56562e-08
3.51458e-06
1.02213e-08
7.99448e-08
-1.91725e-06
1.33301e-08
2.6346e-07
-4.70198e-06
3.63714e-08
5.01978e-07
-6.53443e-06
5.49309e-08
7.6059e-07
-7.60463e-06
6.88958e-08
1.02052e-06
-8.13354e-06
7.84398e-08
1.27553e-06
-8.34734e-06
8.40757e-08
1.52342e-06
-8.37625e-06
8.65599e-08
1.76202e-06
-8.27125e-06
8.67122e-08
1.98844e-06
-8.04888e-06
8.51649e-08
2.1992e-06
-7.71224e-06
8.23174e-08
2.39081e-06
-7.26024e-06
7.83476e-08
2.56037e-06
-6.69407e-06
7.33131e-08
2.7059e-06
-6.02143e-06
6.7245e-08
2.82625e-06
-5.25722e-06
6.01269e-08
2.9209e-06
-4.42159e-06
5.1907e-08
2.98951e-06
-3.53766e-06
4.25335e-08
3.03185e-06
-2.62966e-06
3.20016e-08
3.04773e-06
-1.72153e-06
2.03956e-08
3.03729e-06
-8.35719e-07
7.93623e-09
3.00162e-06
7.70726e-09
-5.40919e-09
2.9435e-06
7.91927e-07
-1.94995e-08
2.86585e-06
1.50669e-06
-3.30823e-08
2.77168e-06
2.15206e-06
-4.54119e-08
2.66294e-06
2.73957e-06
-5.55848e-08
2.53923e-06
3.29162e-06
-6.25938e-08
2.39661e-06
3.84002e-06
-6.50969e-08
2.22677e-06
4.42418e-06
-6.13649e-08
2.01763e-06
5.08673e-06
-4.96559e-08
1.75687e-06
5.86002e-06
-2.93103e-08
1.43884e-06
6.73374e-06
-1.81225e-09
1.07848e-06
7.59863e-06
2.2952e-08
7.06556e-07
8.20231e-06
3.92885e-08
3.61612e-07
8.25368e-06
4.05774e-08
1.05012e-07
7.15262e-06
2.7541e-08
3.60998e-06
7.7094e-09
7.61155e-08
-2.00759e-06
1.42879e-08
2.52005e-07
-4.9157e-06
3.7882e-08
4.80346e-07
-6.81902e-06
5.629e-08
7.26779e-07
-7.92092e-06
6.99019e-08
9.73395e-07
-8.45928e-06
7.9167e-08
1.21447e-06
-8.67311e-06
8.47372e-08
1.44791e-06
-8.69705e-06
8.74077e-08
1.67154e-06
-8.58282e-06
8.79811e-08
1.8826e-06
-8.34694e-06
8.70571e-08
2.07787e-06
-7.99247e-06
8.50143e-08
2.25432e-06
-7.51868e-06
8.20371e-08
2.40964e-06
-6.92751e-06
7.8186e-08
2.54247e-06
-6.22769e-06
7.34786e-08
2.65226e-06
-5.43483e-06
6.78745e-08
2.73891e-06
-4.56946e-06
6.12829e-08
2.80238e-06
-3.65466e-06
5.35912e-08
2.8425e-06
-2.71443e-06
4.47065e-08
2.85899e-06
-1.77255e-06
3.45973e-08
2.85167e-06
-8.51653e-07
2.33117e-08
2.82099e-06
2.74124e-08
1.1048e-08
2.7681e-06
8.46566e-07
-1.6847e-09
2.69609e-06
1.59411e-06
-1.5334e-08
2.60704e-06
2.26929e-06
-2.81024e-08
2.50244e-06
2.8837e-06
-3.9462e-08
2.38191e-06
3.46074e-06
-4.85295e-08
2.24207e-06
4.03403e-06
-5.41201e-08
2.07597e-06
4.64497e-06
-5.46471e-08
1.87358e-06
5.33742e-06
-4.83021e-08
1.62496e-06
6.14253e-06
-3.39291e-08
1.32679e-06
7.04439e-06
-1.2593e-08
9.91418e-07
7.92373e-06
1.00443e-08
6.47697e-07
8.51988e-06
2.57398e-08
3.30015e-07
8.54145e-06
2.92247e-08
9.52668e-08
7.36595e-06
2.02819e-08
3.69787e-06
5.49406e-09
7.50064e-08
-2.09748e-06
1.49552e-08
2.45099e-07
-5.12454e-06
3.88004e-08
4.63206e-07
-7.09398e-06
5.69008e-08
6.96347e-07
-8.22409e-06
7.00741e-08
9.28082e-07
-8.76998e-06
7.90144e-08
1.15357e-06
-8.98302e-06
8.44627e-08
1.37107e-06
-9.00172e-06
8.72244e-08
1.57857e-06
-8.87836e-06
8.80879e-08
1.77347e-06
-8.62942e-06
8.76362e-08
1.95284e-06
-8.25803e-06
8.62417e-08
2.11407e-06
-7.76395e-06
8.40968e-08
2.25537e-06
-7.15003e-06
8.12744e-08
2.37591e-06
-6.42595e-06
7.77875e-08
2.47563e-06
-5.60807e-06
7.35788e-08
2.55484e-06
-4.71713e-06
6.85258e-08
2.61378e-06
-3.77601e-06
6.24646e-08
2.65241e-06
-2.80822e-06
5.52286e-08
2.67032e-06
-1.83709e-06
4.66942e-08
2.66699e-06
-8.85072e-07
3.68129e-08
2.64221e-06
2.65899e-08
2.56668e-08
2.59664e-06
8.7867e-07
1.35352e-08
2.53143e-06
1.65828e-06
1.10795e-09
2.44884e-06
2.36383e-06
-1.18716e-08
2.34964e-06
3.00679e-06
-2.3838e-08
2.23332e-06
3.61133e-06
-3.41945e-08
2.0969e-06
4.21243e-06
-4.19299e-08
1.93456e-06
4.853e-06
-4.56521e-08
1.7382e-06
5.57744e-06
-4.36502e-08
1.50026e-06
6.41497e-06
-3.45311e-08
1.21945e-06
7.34375e-06
-1.86424e-08
9.07142e-07
8.23498e-06
8.42491e-10
5.90417e-07
8.8215e-06
1.47168e-08
2.99269e-07
8.81241e-06
1.95172e-08
8.58132e-08
7.56431e-06
1.3978e-08
3.77825e-06
3.59208e-09
7.16854e-08
-2.18471e-06
1.56094e-08
2.3461e-07
-5.32695e-06
3.95434e-08
4.43003e-07
-7.35949e-06
5.71762e-08
6.64746e-07
-8.51556e-06
6.97801e-08
8.84273e-07
-9.06777e-06
7.83042e-08
1.09718e-06
-9.27946e-06
8.3586e-08
1.30181e-06
-9.29273e-06
8.64259e-08
1.49621e-06
-9.16028e-06
8.75723e-08
1.6779e-06
-8.89862e-06
8.75732e-08
1.84421e-06
-8.51107e-06
8.67853e-08
1.99291e-06
-7.998e-06
8.54051e-08
2.12266e-06
-7.36322e-06
8.35085e-08
2.23309e-06
-6.61743e-06
8.11045e-08
2.32457e-06
-5.77762e-06
7.81307e-08
2.39775e-06
-4.8647e-06
7.44508e-08
2.45312e-06
-3.9012e-06
6.9873e-08
2.49074e-06
-2.90996e-06
6.41827e-08
2.51008e-06
-1.91355e-06
5.71854e-08
2.51029e-06
-9.33968e-07
4.87476e-08
2.49062e-06
7.46913e-09
3.88581e-08
2.45088e-06
8.90783e-07
2.76925e-08
2.39174e-06
1.70186e-06
1.56308e-08
2.31417e-06
2.43821e-06
3.26081e-09
2.21892e-06
3.11107e-06
-8.94931e-09
2.10534e-06
3.7451e-06
-2.01209e-08
1.97085e-06
4.37635e-06
-2.93657e-08
1.81061e-06
5.04877e-06
-3.54887e-08
1.61828e-06
5.80675e-06
-3.6947e-08
1.38855e-06
6.67698e-06
-3.22887e-08
1.12212e-06
7.63142e-06
-2.1326e-08
8.31271e-07
8.53221e-06
-6.56567e-09
5.38913e-07
9.10733e-06
6.16882e-09
2.71985e-07
9.06717e-06
1.15376e-08
7.76668e-08
7.74884e-06
8.72052e-09
3.85206e-06
2.04614e-09
6.97414e-08
-2.27046e-06
1.60833e-08
2.26386e-07
-5.52349e-06
3.99495e-08
4.25056e-07
-7.61518e-06
5.70704e-08
6.3494e-07
-8.79449e-06
6.9102e-08
8.41667e-07
-9.35164e-06
7.71927e-08
1.04146e-06
-9.56145e-06
8.22443e-08
1.23287e-06
-9.56915e-06
8.50627e-08
1.41405e-06
-9.42779e-06
8.63775e-08
1.58266e-06
-9.15389e-06
8.67149e-08
1.73629e-06
-8.75106e-06
8.64215e-08
1.87301e-06
-8.22036e-06
8.56978e-08
1.99185e-06
-7.56663e-06
8.46256e-08
2.09282e-06
-6.80155e-06
8.32112e-08
2.17666e-06
-5.94278e-06
8.13836e-08
2.24436e-06
-5.01133e-06
7.8993e-08
2.2967e-06
-4.02931e-06
7.58237e-08
2.33388e-06
-3.0187e-06
7.16213e-08
2.35536e-06
-2.0011e-06
6.61315e-08
2.35998e-06
-9.97676e-07
5.91455e-08
2.34638e-06
-2.94272e-08
5.0566e-08
2.31358e-06
8.83165e-07
4.04781e-08
2.26135e-06
1.72498e-06
2.91815e-08
2.18995e-06
2.49251e-06
1.71573e-08
2.09957e-06
3.19653e-06
5.00097e-09
1.98947e-06
3.86189e-06
-6.62126e-09
1.85742e-06
4.52538e-06
-1.69137e-08
1.6995e-06
5.23159e-06
-2.48311e-08
1.51093e-06
6.02437e-06
-2.90115e-08
1.28851e-06
6.92746e-06
-2.80477e-08
1.03487e-06
7.90641e-06
-2.14017e-08
7.6282e-07
8.81484e-06
-1.0732e-08
4.92398e-07
9.3773e-06
1.25195e-10
2.47528e-07
9.30614e-06
5.30681e-09
7.04444e-08
7.92033e-06
4.55594e-09
3.91988e-06
8.68287e-10
6.67436e-08
-2.35361e-06
1.64679e-08
2.168e-07
-5.71356e-06
4.00626e-08
4.06672e-07
-7.8615e-06
5.65e-08
6.06473e-07
-9.06209e-06
6.78401e-08
8.02601e-07
-9.62316e-06
7.54455e-08
9.91618e-07
-9.83069e-06
8.02694e-08
1.17215e-06
-9.83272e-06
8.30866e-08
1.34242e-06
-9.68258e-06
8.45796e-08
1.5002e-06
-9.39686e-06
8.52407e-08
1.64329e-06
-8.97949e-06
8.54028e-08
1.77004e-06
-8.43232e-06
8.52692e-08
1.87977e-06
-7.76123e-06
8.49284e-08
1.9728e-06
-6.97891e-06
8.43882e-08
2.05016e-06
-6.10366e-06
8.35796e-08
2.11312e-06
-5.15659e-06
8.23515e-08
2.16272e-06
-4.15933e-06
8.04778e-08
2.19933e-06
-3.13293e-06
7.76778e-08
2.22243e-06
-2.09779e-06
7.36496e-08
2.23069e-06
-1.07399e-06
6.81148e-08
2.22226e-06
-8.18298e-08
6.08879e-08
2.19544e-06
8.58094e-07
5.1958e-08
2.14916e-06
1.72978e-06
4.15412e-08
2.08301e-06
2.52867e-06
3.00598e-08
1.9967e-06
3.26484e-06
1.80671e-08
1.88943e-06
3.96306e-06
6.17915e-09
1.75926e-06
4.66049e-06
-4.8588e-09
1.60303e-06
5.40198e-06
-1.41013e-08
1.4174e-06
6.23048e-06
-2.04108e-08
1.20101e-06
7.16634e-06
-2.24572e-08
9.5821e-07
8.16868e-06
-1.94963e-08
7.02321e-07
9.08309e-06
-1.24798e-08
4.51792e-07
9.63205e-06
-4.50981e-09
2.26363e-07
9.53029e-06
7.32872e-10
6.43016e-08
8.07995e-06
1.45569e-09
3.98243e-06
4.98069e-11
6.46049e-08
-2.43487e-06
1.67252e-08
2.08907e-07
-5.89774e-06
3.99382e-08
3.90497e-07
-8.0987e-06
5.56625e-08
5.80551e-07
-9.3184e-06
6.63125e-08
7.66348e-07
-9.88233e-06
7.34218e-08
9.44877e-07
-1.00871e-05
7.79768e-08
1.1149e-06
-1.00834e-05
8.07324e-08
1.27472e-06
-9.92468e-06
8.23363e-08
1.42225e-06
-9.62758e-06
8.32531e-08
1.55544e-06
-9.19643e-06
8.38023e-08
1.67288e-06
-8.63389e-06
8.41878e-08
1.77412e-06
-7.9469e-06
8.4502e-08
1.85973e-06
-7.14921e-06
8.47535e-08
1.93102e-06
-6.25976e-06
8.48743e-08
1.98955e-06
-5.29977e-06
8.47127e-08
2.03665e-06
-4.2904e-06
8.40377e-08
2.0729e-06
-3.25168e-06
8.2552e-08
2.09788e-06
-2.20264e-06
7.99185e-08
2.11012e-06
-1.16196e-06
7.58017e-08
2.10733e-06
-1.48918e-07
6.99352e-08
2.08706e-06
8.16209e-07
6.22125e-08
2.04739e-06
1.71677e-06
5.27594e-08
1.9871e-06
2.54709e-06
4.19326e-08
1.90544e-06
3.31633e-06
3.02461e-08
1.80144e-06
4.04884e-06
1.82907e-08
1.67352e-06
4.78179e-06
6.69743e-09
1.51936e-06
5.5599e-06
-3.66894e-09
1.33666e-06
6.42481e-06
-1.15586e-08
1.12575e-06
7.39332e-06
-1.60204e-08
8.92511e-07
8.41807e-06
-1.61298e-08
6.50647e-07
9.33716e-06
-1.22871e-08
4.16937e-07
9.87223e-06
-6.70567e-09
2.08395e-07
9.74064e-06
-2.30264e-09
5.91766e-08
8.22889e-06
-6.58525e-10
4.04039e-06
-4.348e-10
6.21074e-08
-2.51377e-06
1.68626e-08
2.00948e-07
-6.07601e-06
3.94841e-08
3.75318e-07
-8.32735e-06
5.43366e-08
5.57166e-07
-9.5644e-06
6.41971e-08
7.34371e-07
-1.01303e-05
7.0775e-08
9.04184e-07
-1.0332e-05
7.50679e-08
1.06546e-06
-1.03224e-05
7.77773e-08
1.21656e-06
-1.01552e-05
7.9497e-08
1.35551e-06
-9.84712e-06
8.06565e-08
1.4804e-06
-9.40283e-06
8.15602e-08
1.58997e-06
-8.82581e-06
8.24124e-08
1.68396e-06
-8.12413e-06
8.33107e-08
1.76312e-06
-7.31258e-06
8.42681e-08
1.82898e-06
-6.41078e-06
8.52223e-08
1.88335e-06
-5.44012e-06
8.6029e-08
1.92782e-06
-4.42127e-06
8.64603e-08
1.96322e-06
-3.37323e-06
8.62124e-08
1.9893e-06
-2.31358e-06
8.49238e-08
2.00455e-06
-1.25937e-06
8.22101e-08
2.00643e-06
-2.28467e-07
7.77287e-08
1.99186e-06
7.59568e-07
7.12739e-08
1.95809e-06
1.68773e-06
6.28723e-08
1.90319e-06
2.54926e-06
5.28054e-08
1.82584e-06
3.35221e-06
4.15446e-08
1.72491e-06
4.12019e-06
2.96595e-08
1.59904e-06
4.88999e-06
1.77733e-08
1.44664e-06
5.70582e-06
6.57615e-09
1.26678e-06
6.60769e-06
-2.91348e-09
1.0608e-06
7.60857e-06
-9.18942e-09
8.35937e-07
8.65481e-06
-1.18301e-08
6.06249e-07
9.57756e-06
-1.07451e-08
3.87068e-07
1.00986e-05
-7.40733e-09
1.93065e-07
9.93817e-06
-3.96872e-09
5.48224e-08
8.3681e-06
-1.84939e-09
4.09423e-06
-6.27227e-10
6.02004e-08
-2.5908e-06
1.68935e-08
1.94334e-07
-6.24891e-06
3.88267e-08
3.62209e-07
-8.54795e-06
5.27742e-08
5.36554e-07
-9.80053e-06
6.18394e-08
7.05839e-07
-1.03674e-05
6.78759e-08
8.67578e-07
-1.05655e-05
7.1881e-08
1.02077e-06
-1.05501e-05
7.45093e-08
1.1639e-06
-1.03746e-05
7.63067e-08
1.29503e-06
-1.00559e-05
7.76691e-08
1.41236e-06
-9.59898e-06
7.88842e-08
1.51473e-06
-9.00827e-06
8.01538e-08
1.60203e-06
-8.29294e-06
8.15781e-08
1.6752e-06
-7.46886e-06
8.31714e-08
1.73598e-06
-6.55638e-06
8.48764e-08
1.78643e-06
-5.57706e-06
8.65561e-08
1.82838e-06
-4.55115e-06
8.79907e-08
1.86297e-06
-3.49664e-06
8.88795e-08
1.89013e-06
-2.42953e-06
8.88508e-08
1.9084e-06
-1.36507e-06
8.7487e-08
1.915e-06
-3.1939e-07
8.43809e-08
1.90628e-06
6.8912e-07
7.92319e-08
1.87867e-06
1.64343e-06
7.19593e-08
1.82946e-06
2.53579e-06
6.2756e-08
1.75676e-06
3.37295e-06
5.20395e-08
1.65923e-06
4.17745e-06
4.03558e-08
1.53565e-06
4.98535e-06
2.83158e-08
1.38503e-06
5.83994e-06
1.66096e-08
1.20751e-06
6.77929e-06
6.0332e-09
1.0061e-06
7.81237e-06
-2.28217e-09
7.88517e-07
8.87932e-06
-6.84535e-09
5.69199e-07
9.80497e-06
-8.0847e-09
3.62278e-07
1.03122e-05
-6.79321e-09
1.80481e-07
1.0124e-05
-4.43638e-09
5.13032e-08
8.49868e-06
-2.24579e-09
4.14453e-06
-5.70011e-10
5.8322e-08
-2.66584e-06
1.6791e-08
1.88282e-07
-6.41665e-06
3.78332e-08
3.50635e-07
-8.76098e-06
5.07367e-08
5.18742e-07
-1.00275e-05
5.8928e-08
6.81484e-07
-1.05945e-05
6.43961e-08
8.36594e-07
-1.07887e-05
6.81124e-08
9.83129e-07
-1.07672e-05
7.06597e-08
1.11962e-06
-1.05836e-05
7.25254e-08
1.24423e-06
-1.02545e-05
7.40698e-08
1.35516e-06
-9.78541e-06
7.55641e-08
1.45135e-06
-9.18159e-06
7.72081e-08
1.53278e-06
-8.45342e-06
7.91056e-08
1.60054e-06
-7.61783e-06
8.12735e-08
1.65653e-06
-6.69597e-06
8.36603e-08
1.70301e-06
-5.70961e-06
8.6139e-08
1.74208e-06
-4.67866e-06
8.85014e-08
1.77515e-06
-3.62011e-06
9.04563e-08
1.80246e-06
-2.54842e-06
9.16306e-08
1.82273e-06
-1.47686e-06
9.15848e-08
1.83307e-06
-4.19537e-07
8.98575e-08
1.82941e-06
6.06781e-07
8.60569e-08
1.80745e-06
1.58546e-06
7.99904e-08
1.76369e-06
2.50787e-06
7.17499e-08
1.69562e-06
3.3794e-06
6.16879e-08
1.60161e-06
4.22123e-06
5.03236e-08
1.48055e-06
5.06825e-06
3.82614e-08
1.33192e-06
5.9625e-06
2.6182e-08
1.15666e-06
6.9398e-06
1.48879e-08
9.58922e-07
8.00497e-06
5.27214e-09
7.47935e-07
9.09203e-06
-1.60729e-09
5.37563e-07
1.002e-05
-4.62375e-09
3.41054e-07
1.05137e-05
-5.12916e-09
1.69642e-07
1.0299e-05
-3.91516e-09
4.82202e-08
8.62128e-06
-1.9892e-09
4.19154e-06
-3.35889e-10
5.67382e-08
-2.73911e-06
1.65926e-08
1.82971e-07
-6.57948e-06
3.66541e-08
3.40343e-07
-8.96678e-06
4.84808e-08
5.02892e-07
-1.02458e-05
5.57917e-08
6.59938e-07
-1.08121e-05
6.06862e-08
8.09442e-07
-1.10023e-05
6.40974e-08
9.50346e-07
-1.09746e-05
6.65361e-08
1.08111e-06
-1.07827e-05
6.84351e-08
1.19998e-06
-1.04434e-05
7.01226e-08
1.30524e-06
-9.96245e-06
7.18533e-08
1.39588e-06
-9.346e-06
7.38238e-08
1.47203e-06
-8.60563e-06
7.61388e-08
1.53487e-06
-7.75943e-06
7.88157e-08
1.58645e-06
-6.82929e-06
8.1807e-08
1.6292e-06
-5.8373e-06
8.49942e-08
1.66546e-06
-4.80304e-06
8.81834e-08
1.69692e-06
-3.74262e-06
9.1099e-08
1.72413e-06
-2.66895e-06
9.33787e-08
1.74602e-06
-1.59327e-06
9.45767e-08
1.75974e-06
-5.27398e-07
9.41936e-08
1.76087e-06
5.13952e-07
9.17574e-08
1.74445e-06
1.51498e-06
8.69614e-08
1.70619e-06
2.46642e-06
7.97826e-08
1.64293e-06
3.37225e-06
7.04912e-08
1.55266e-06
4.25201e-06
5.95684e-08
1.43431e-06
5.1391e-06
4.76116e-08
1.28779e-06
6.07385e-06
3.53016e-08
1.11476e-06
7.08955e-06
2.34323e-08
9.20189e-07
8.18678e-06
1.29186e-08
7.14141e-07
9.29357e-06
4.64912e-09
5.11451e-07
1.02236e-05
-7.99914e-10
3.23682e-07
1.07041e-05
-2.70574e-09
1.60864e-07
1.04641e-05
-2.63197e-09
4.58072e-08
8.7368e-06
-1.24287e-09
4.23571e-06
1.29577e-10