/*--------------------------------*- C++ -*----------------------------------*\
| =========                 |                                                 |
| \\      /  F ield         | OpenFOAM: The Open Source CFD Toolbox           |
|  \\    /   O peration     | Version:  v2006                                 |
|   \\  /    A nd           | Website:  www.openfoam.com                      |
|    \\/     M anipulation  |                                                 |
\*---------------------------------------------------------------------------*/
FoamFile
{
    version     2.0;
    format      ascii;
    class       volScalarField;
    location    "93";
    object      T;
}
// * * * * * * * * * * * * * * * * * * * * * * * * * * * * * * * * * * * * * //

dimensions      [0 0 0 1 0 0 0];


internalField   nonuniform List<scalar> 
78750
(
300.045
300.133
300.215
300.289
300.356
300.414
300.466
300.511
300.551
300.587
300.619
300.647
300.672
300.693
300.712
300.728
300.741
300.751
300.758
300.762
300.764
300.762
300.758
300.75
300.74
300.727
300.71
300.692
300.673
300.661
300.679
300.794
301.125
301.779
302.705
300.064
300.186
300.294
300.391
300.479
300.559
300.631
300.697
300.755
300.808
300.856
300.898
300.935
300.968
300.996
301.02
301.04
301.056
301.068
301.074
301.076
301.073
301.064
301.049
301.027
301
300.967
300.932
300.899
300.883
300.917
301.07
301.441
302.094
302.996
300.071
300.207
300.332
300.445
300.546
300.637
300.716
300.786
300.848
300.902
300.95
300.993
301.031
301.065
301.094
301.12
301.142
301.16
301.175
301.186
301.193
301.195
301.192
301.182
301.165
301.141
301.111
301.078
301.051
301.048
301.111
301.307
301.711
302.37
303.275
300.085
300.249
300.401
300.538
300.658
300.76
300.846
300.919
300.983
301.038
301.087
301.129
301.166
301.199
301.226
301.249
301.268
301.283
301.294
301.301
301.304
301.303
301.297
301.286
301.269
301.246
301.217
301.189
301.17
301.185
301.276
301.509
301.933
302.594
303.508
300.098
300.287
300.461
300.615
300.743
300.848
300.934
301.007
301.07
301.125
301.173
301.216
301.254
301.286
301.314
301.336
301.354
301.367
301.375
301.379
301.38
301.376
301.369
301.357
301.34
301.319
301.296
301.276
301.273
301.311
301.437
301.707
302.149
302.812
303.732
300.108
300.317
300.508
300.673
300.807
300.914
301.001
301.075
301.139
301.196
301.246
301.291
301.33
301.363
301.391
301.411
301.426
301.435
301.439
301.439
301.435
301.428
301.418
301.404
301.389
301.371
301.354
301.344
301.358
301.421
301.578
301.877
302.333
303.001
303.925
300.117
300.342
300.547
300.721
300.86
300.97
301.058
301.134
301.201
301.26
301.313
301.36
301.401
301.435
301.462
301.481
301.493
301.499
301.498
301.493
301.483
301.471
301.457
301.442
301.426
301.411
301.401
301.404
301.436
301.525
301.713
302.038
302.508
303.185
304.112
300.124
300.362
300.577
300.759
300.903
301.014
301.105
301.182
301.251
301.313
301.369
301.418
301.461
301.497
301.524
301.542
301.552
301.554
301.55
301.54
301.526
301.509
301.492
301.474
301.458
301.446
301.442
301.456
301.505
301.617
301.832
302.178
302.663
303.351
304.281
300.129
300.378
300.602
300.791
300.939
301.054
301.147
301.227
301.299
301.364
301.422
301.475
301.52
301.556
301.584
301.602
301.611
301.61
301.603
301.588
301.57
301.549
301.527
301.507
301.489
301.479
301.481
301.505
301.57
301.704
301.942
302.307
302.806
303.506
304.439
300.135
300.394
300.627
300.822
300.973
301.09
301.186
301.269
301.343
301.41
301.471
301.526
301.572
301.611
301.639
301.657
301.665
301.663
301.653
301.636
301.614
301.589
301.564
301.541
301.522
301.513
301.519
301.552
301.631
301.783
302.042
302.423
302.936
303.649
304.585
300.139
300.407
300.647
300.848
301.004
301.124
301.222
301.307
301.384
301.454
301.518
301.575
301.623
301.663
301.692
301.711
301.718
301.715
301.703
301.684
301.659
301.631
301.602
301.577
301.557
301.549
301.559
301.599
301.69
301.859
302.135
302.532
303.058
303.783
304.723
300.144
300.421
300.668
300.875
301.034
301.157
301.257
301.345
301.424
301.496
301.562
301.621
301.671
301.712
301.742
301.761
301.769
301.765
301.752
301.73
301.703
301.672
301.642
301.614
301.594
301.586
301.6
301.647
301.749
301.932
302.225
302.635
303.173
303.909
304.851
300.149
300.433
300.687
300.899
301.062
301.187
301.29
301.381
301.462
301.537
301.605
301.666
301.718
301.76
301.791
301.81
301.817
301.813
301.799
301.776
301.747
301.714
301.681
301.653
301.632
301.626
301.642
301.696
301.808
302.004
302.311
302.733
303.282
304.028
304.973
300.153
300.446
300.707
300.923
301.09
301.218
301.323
301.415
301.499
301.575
301.646
301.708
301.762
301.805
301.837
301.857
301.864
301.86
301.845
301.82
301.79
301.755
301.721
301.692
301.671
301.666
301.687
301.747
301.867
302.076
302.395
302.827
303.386
304.141
305.088
300.157
300.457
300.725
300.946
301.116
301.246
301.354
301.448
301.534
301.613
301.685
301.75
301.805
301.849
301.882
301.902
301.91
301.905
301.889
301.864
301.832
301.797
301.762
301.731
301.711
301.708
301.732
301.798
301.927
302.147
302.478
302.918
303.485
304.248
305.196
300.161
300.469
300.743
300.969
301.142
301.274
301.384
301.48
301.568
301.649
301.723
301.789
301.846
301.892
301.925
301.946
301.954
301.949
301.933
301.907
301.874
301.838
301.802
301.771
301.752
301.751
301.778
301.85
301.988
302.217
302.559
303.006
303.58
304.349
305.298
300.165
300.481
300.761
300.991
301.166
301.301
301.412
301.511
301.601
301.684
301.76
301.828
301.886
301.933
301.967
301.989
301.997
301.993
301.976
301.95
301.916
301.879
301.843
301.812
301.793
301.794
301.825
301.902
302.048
302.287
302.637
303.091
303.671
304.445
305.395
300.169
300.492
300.778
301.013
301.19
301.327
301.441
301.541
301.633
301.718
301.796
301.865
301.925
301.973
302.008
302.031
302.039
302.035
302.019
301.993
301.958
301.92
301.883
301.853
301.834
301.837
301.872
301.955
302.108
302.356
302.714
303.173
303.757
304.536
305.486
300.173
300.503
300.795
301.033
301.214
301.352
301.468
301.57
301.664
301.751
301.83
301.901
301.962
302.011
302.048
302.071
302.081
302.077
302.061
302.035
302
301.962
301.925
301.894
301.876
301.881
301.919
302.008
302.168
302.423
302.788
303.252
303.839
304.622
305.572
300.177
300.513
300.811
301.054
301.236
301.377
301.494
301.599
301.694
301.783
301.864
301.937
301.999
302.049
302.087
302.111
302.122
302.119
302.103
302.077
302.042
302.004
301.966
301.935
301.919
301.925
301.967
302.06
302.227
302.489
302.86
303.327
303.918
304.704
305.654
300.18
300.524
300.827
301.074
301.259
301.401
301.52
301.627
301.724
301.814
301.897
301.971
302.035
302.086
302.125
302.15
302.161
302.159
302.145
302.119
302.085
302.046
302.008
301.978
301.962
301.97
302.014
302.112
302.285
302.554
302.93
303.4
303.993
304.782
305.732
300.184
300.534
300.843
301.093
301.281
301.425
301.546
301.654
301.753
301.845
301.93
302.005
302.07
302.122
302.162
302.188
302.201
302.2
302.186
302.161
302.127
302.088
302.051
302.02
302.005
302.014
302.062
302.164
302.342
302.617
302.998
303.47
304.065
304.857
305.806
300.188
300.544
300.859
301.112
301.302
301.448
301.571
301.681
301.782
301.875
301.961
302.038
302.104
302.158
302.199
302.226
302.24
302.24
302.227
302.202
302.169
302.131
302.093
302.063
302.048
302.059
302.109
302.216
302.399
302.679
303.064
303.538
304.134
304.928
305.877
300.191
300.555
300.874
301.131
301.323
301.471
301.595
301.707
301.81
301.905
301.993
302.071
302.138
302.193
302.235
302.263
302.278
302.279
302.267
302.244
302.212
302.174
302.137
302.107
302.093
302.105
302.157
302.267
302.455
302.74
303.128
303.603
304.201
304.997
305.946
300.195
300.564
300.889
301.15
301.344
301.494
301.62
301.733
301.838
301.935
302.024
302.103
302.171
302.227
302.27
302.3
302.315
302.318
302.307
302.285
302.254
302.217
302.18
302.151
302.137
302.151
302.205
302.318
302.51
302.799
303.191
303.667
304.266
305.063
306.012
300.198
300.574
300.904
301.168
301.365
301.516
301.644
301.759
301.865
301.964
302.054
302.135
302.204
302.262
302.305
302.336
302.353
302.356
302.347
302.327
302.296
302.26
302.224
302.195
302.182
302.196
302.253
302.369
302.565
302.858
303.252
303.729
304.329
305.127
306.077
300.202
300.584
300.919
301.187
301.385
301.538
301.668
301.785
301.893
301.993
302.085
302.167
302.237
302.295
302.34
302.371
302.389
302.394
302.387
302.367
302.339
302.304
302.268
302.24
302.227
302.243
302.301
302.42
302.619
302.916
303.313
303.789
304.39
305.189
306.139
300.205
300.594
300.934
301.205
301.405
301.56
301.691
301.81
301.92
302.022
302.115
302.198
302.27
302.329
302.374
302.407
302.426
302.432
302.426
302.408
302.381
302.347
302.312
302.284
302.273
302.289
302.349
302.471
302.673
302.973
303.372
303.849
304.45
305.25
306.2
300.208
300.603
300.948
301.223
301.425
301.582
301.715
301.835
301.947
302.05
302.145
302.229
302.302
302.362
302.409
302.442
302.462
302.469
302.464
302.448
302.422
302.39
302.357
302.33
302.318
302.336
302.398
302.522
302.727
303.03
303.43
303.907
304.508
305.31
306.26
300.212
300.613
300.963
301.24
301.445
301.603
301.738
301.861
301.974
302.079
302.175
302.26
302.334
302.395
302.442
302.477
302.498
302.506
302.503
302.488
302.464
302.433
302.401
302.375
302.365
302.383
302.446
302.572
302.78
303.086
303.488
303.965
304.566
305.368
306.318
300.215
300.622
300.977
301.258
301.465
301.625
301.762
301.886
302.001
302.107
302.205
302.292
302.366
302.428
302.476
302.511
302.533
302.543
302.541
302.528
302.505
302.476
302.445
302.42
302.411
302.43
302.495
302.623
302.834
303.142
303.545
304.021
304.622
305.425
306.376
300.218
300.632
300.992
301.276
301.485
301.646
301.785
301.911
302.028
302.136
302.235
302.323
302.398
302.461
302.51
302.546
302.568
302.579
302.578
302.567
302.546
302.519
302.49
302.466
302.457
302.478
302.544
302.673
302.887
303.197
303.601
304.077
304.678
305.481
306.432
300.222
300.641
301.006
301.293
301.504
301.668
301.808
301.936
302.054
302.164
302.265
302.354
302.43
302.494
302.543
302.58
302.603
302.615
302.616
302.606
302.587
302.561
302.534
302.511
302.504
302.525
302.592
302.724
302.939
303.252
303.656
304.133
304.732
305.536
306.488
300.225
300.65
301.02
301.311
301.524
301.689
301.831
301.961
302.081
302.193
302.295
302.385
302.462
302.526
302.577
302.614
302.638
302.651
302.653
302.644
302.627
302.604
302.578
302.557
302.55
302.573
302.641
302.774
302.992
303.306
303.712
304.187
304.786
305.591
306.542
300.228
300.66
301.034
301.328
301.543
301.71
301.855
301.986
302.108
302.221
302.324
302.416
302.494
302.559
302.61
302.648
302.673
302.687
302.69
302.683
302.667
302.645
302.621
302.602
302.597
302.621
302.69
302.825
303.044
303.36
303.766
304.241
304.84
305.645
306.596
300.232
300.669
301.048
301.346
301.563
301.732
301.878
302.011
302.135
302.25
302.355
302.447
302.527
302.592
302.644
302.682
302.708
302.722
302.726
302.721
302.707
302.687
302.665
302.647
302.644
302.669
302.739
302.876
303.096
303.414
303.82
304.295
304.893
305.698
306.65
300.235
300.678
301.063
301.363
301.582
301.753
301.901
302.036
302.162
302.279
302.385
302.479
302.559
302.625
302.677
302.716
302.742
302.758
302.763
302.759
302.746
302.728
302.708
302.692
302.69
302.717
302.789
302.926
303.149
303.467
303.874
304.348
304.946
305.751
306.703
300.238
300.688
301.077
301.38
301.601
301.774
301.924
302.061
302.189
302.308
302.415
302.51
302.591
302.658
302.71
302.75
302.777
302.793
302.799
302.796
302.786
302.769
302.751
302.737
302.737
302.765
302.838
302.977
303.201
303.521
303.928
304.401
304.998
305.804
306.756
300.242
300.697
301.091
301.398
301.621
301.796
301.947
302.087
302.216
302.337
302.446
302.542
302.623
302.691
302.744
302.784
302.811
302.828
302.835
302.834
302.825
302.81
302.794
302.782
302.784
302.813
302.888
303.028
303.253
303.575
303.982
304.454
305.051
305.857
306.81
300.245
300.706
301.105
301.415
301.64
301.817
301.971
302.112
302.244
302.366
302.476
302.573
302.656
302.724
302.777
302.818
302.846
302.863
302.871
302.871
302.863
302.851
302.837
302.827
302.83
302.862
302.938
303.08
303.306
303.629
304.036
304.507
305.103
305.91
306.863
300.248
300.716
301.12
301.432
301.66
301.838
301.994
302.138
302.272
302.395
302.507
302.605
302.689
302.757
302.811
302.852
302.88
302.898
302.907
302.908
302.902
302.891
302.879
302.871
302.877
302.91
302.988
303.132
303.36
303.683
304.091
304.561
305.156
305.963
306.918
300.251
300.725
301.134
301.45
301.679
301.86
302.018
302.164
302.299
302.425
302.538
302.637
302.721
302.79
302.845
302.886
302.915
302.933
302.943
302.945
302.94
302.931
302.921
302.916
302.924
302.959
303.039
303.184
303.414
303.738
304.146
304.615
305.21
306.017
306.972
300.255
300.735
301.148
301.467
301.699
301.882
302.042
302.189
302.327
302.455
302.569
302.67
302.754
302.824
302.878
302.92
302.949
302.968
302.979
302.982
302.978
302.971
302.963
302.96
302.971
303.009
303.091
303.238
303.469
303.794
304.202
304.67
305.264
306.072
307.028
300.258
300.744
301.163
301.485
301.719
301.903
302.066
302.216
302.356
302.485
302.601
302.702
302.787
302.857
302.912
302.954
302.984
303.003
303.014
303.018
303.016
303.011
303.005
303.004
303.018
303.058
303.143
303.292
303.525
303.851
304.258
304.726
305.319
306.127
307.084
300.262
300.754
301.177
301.503
301.739
301.925
302.09
302.242
302.384
302.515
302.632
302.734
302.821
302.891
302.946
302.988
303.018
303.038
303.05
303.055
303.054
303.05
303.047
303.049
303.065
303.108
303.195
303.346
303.581
303.909
304.316
304.782
305.375
306.183
307.141
300.265
300.763
301.192
301.52
301.758
301.947
302.114
302.268
302.412
302.545
302.664
302.767
302.854
302.924
302.98
303.022
303.052
303.073
303.085
303.091
303.092
303.09
303.088
303.093
303.111
303.157
303.248
303.402
303.639
303.967
304.374
304.839
305.431
306.24
307.198
300.268
300.773
301.207
301.538
301.778
301.969
302.138
302.295
302.441
302.576
302.696
302.8
302.887
302.958
303.014
303.056
303.087
303.108
303.121
303.127
303.13
303.129
303.13
303.137
303.158
303.207
303.301
303.458
303.697
304.026
304.433
304.897
305.488
306.297
307.255
300.272
300.783
301.221
301.556
301.798
301.991
302.162
302.321
302.47
302.606
302.728
302.833
302.921
302.992
303.047
303.09
303.121
303.142
303.156
303.164
303.167
303.168
303.171
303.18
303.205
303.257
303.354
303.514
303.755
304.086
304.492
304.955
305.545
306.354
307.313
300.275
300.792
301.236
301.574
301.818
302.013
302.187
302.348
302.499
302.637
302.76
302.866
302.954
303.025
303.081
303.124
303.155
303.177
303.191
303.2
303.204
303.207
303.212
303.224
303.252
303.307
303.407
303.57
303.814
304.146
304.552
305.013
305.603
306.412
307.371
300.279
300.802
301.251
301.592
301.839
302.036
302.212
302.376
302.529
302.669
302.793
302.899
302.988
303.059
303.115
303.158
303.189
303.211
303.226
303.236
303.241
303.246
303.253
303.268
303.298
303.357
303.461
303.627
303.874
304.207
304.612
305.072
305.661
306.469
307.428
300.282
300.812
301.266
301.61
301.859
302.058
302.237
302.403
302.558
302.7
302.825
302.933
303.021
303.093
303.149
303.192
303.223
303.246
303.261
303.271
303.279
303.285
303.294
303.311
303.345
303.407
303.514
303.684
303.933
304.268
304.672
305.131
305.718
306.527
307.485
300.286
300.822
301.281
301.628
301.879
302.081
302.262
302.431
302.588
302.732
302.858
302.966
303.055
303.127
303.183
303.225
303.257
303.28
303.296
303.307
303.315
303.323
303.334
303.354
303.391
303.457
303.568
303.741
303.993
304.328
304.732
305.189
305.776
306.584
307.542
300.289
300.832
301.296
301.646
301.9
302.104
302.287
302.459
302.619
302.764
302.892
303
303.089
303.161
303.217
303.259
303.291
303.314
303.331
303.343
303.352
303.362
303.375
303.397
303.437
303.506
303.621
303.797
304.052
304.389
304.791
305.247
305.833
306.64
307.598
300.293
300.842
301.311
301.665
301.921
302.127
302.313
302.487
302.649
302.796
302.925
303.034
303.123
303.195
303.251
303.293
303.325
303.349
303.366
303.378
303.389
303.4
303.415
303.44
303.483
303.556
303.674
303.854
304.111
304.449
304.851
305.305
305.89
306.696
307.654
300.296
300.852
301.326
301.683
301.941
302.15
302.339
302.516
302.68
302.829
302.959
303.068
303.158
303.229
303.285
303.327
303.359
303.383
303.4
303.414
303.425
303.438
303.455
303.482
303.528
303.605
303.726
303.91
304.17
304.509
304.91
305.362
305.946
306.752
307.709
300.3
300.862
301.341
301.702
301.962
302.174
302.365
302.545
302.711
302.862
302.992
303.102
303.192
303.263
303.319
303.361
303.393
303.417
303.435
303.449
303.462
303.476
303.495
303.525
303.574
303.653
303.779
303.965
304.228
304.568
304.968
305.419
306.001
306.807
307.763
300.303
300.872
301.357
301.72
301.983
302.197
302.392
302.574
302.743
302.895
303.026
303.137
303.226
303.297
303.353
303.395
303.427
303.451
303.47
303.485
303.498
303.514
303.535
303.567
303.619
303.702
303.83
304.021
304.285
304.627
305.025
305.475
306.056
306.86
307.816
300.307
300.882
301.372
301.739
302.005
302.221
302.418
302.603
302.775
302.928
303.061
303.171
303.261
303.332
303.387
303.429
303.461
303.485
303.504
303.52
303.534
303.551
303.574
303.609
303.664
303.75
303.882
304.075
304.343
304.684
305.082
305.53
306.11
306.913
307.869
300.31
300.893
301.388
301.758
302.026
302.245
302.445
302.633
302.807
302.962
303.095
303.206
303.295
303.366
303.421
303.463
303.495
303.519
303.538
303.555
303.571
303.589
303.613
303.65
303.708
303.798
303.933
304.13
304.399
304.742
305.138
305.584
306.163
306.966
307.92
300.314
300.903
301.403
301.777
302.048
302.269
302.473
302.663
302.839
302.996
303.13
303.241
303.33
303.4
303.455
303.496
303.528
303.553
303.573
303.59
303.607
303.626
303.653
303.692
303.752
303.845
303.984
304.183
304.455
304.798
305.193
305.638
306.215
307.017
307.971
300.318
300.913
301.419
301.796
302.069
302.294
302.5
302.694
302.873
303.03
303.165
303.276
303.365
303.434
303.489
303.53
303.562
303.587
303.607
303.625
303.642
303.663
303.691
303.733
303.796
303.892
304.034
304.236
304.51
304.853
305.247
305.69
306.266
307.067
308.02
300.321
300.924
301.435
301.816
302.092
302.32
302.529
302.726
302.906
303.066
303.201
303.311
303.4
303.469
303.523
303.564
303.596
303.621
303.641
303.66
303.678
303.7
303.73
303.774
303.84
303.938
304.083
304.289
304.564
304.908
305.301
305.742
306.317
307.116
308.068
300.325
300.934
301.452
301.835
302.114
302.345
302.558
302.758
302.941
303.101
303.237
303.347
303.435
303.504
303.557
303.598
303.63
303.655
303.675
303.694
303.714
303.737
303.769
303.814
303.883
303.984
304.132
304.34
304.618
304.962
305.353
305.792
306.366
307.164
308.116
300.329
300.945
301.468
301.856
302.137
302.371
302.588
302.791
302.976
303.138
303.274
303.384
303.471
303.539
303.592
303.632
303.663
303.689
303.71
303.729
303.749
303.774
303.807
303.855
303.925
304.03
304.181
304.391
304.67
305.014
305.404
305.842
306.414
307.212
308.162
300.333
300.956
301.485
301.876
302.161
302.398
302.618
302.824
303.012
303.175
303.311
303.421
303.507
303.574
303.626
303.666
303.697
303.722
303.744
303.764
303.785
303.811
303.845
303.895
303.968
304.075
304.229
304.441
304.722
305.066
305.454
305.891
306.461
307.258
308.208
300.337
300.968
301.502
301.897
302.185
302.425
302.649
302.859
303.048
303.212
303.348
303.458
303.544
303.61
303.661
303.701
303.732
303.757
303.778
303.798
303.82
303.847
303.883
303.935
304.01
304.12
304.276
304.491
304.773
305.117
305.504
305.938
306.508
307.303
308.252
300.341
300.979
301.519
301.918
302.209
302.453
302.681
302.894
303.086
303.251
303.387
303.495
303.58
303.646
303.696
303.735
303.766
303.791
303.812
303.833
303.856
303.884
303.921
303.975
304.052
304.164
304.322
304.54
304.823
305.167
305.552
305.985
306.553
307.347
308.296
300.345
300.991
301.537
301.94
302.234
302.482
302.713
302.929
303.124
303.29
303.425
303.533
303.617
303.682
303.732
303.77
303.8
303.825
303.847
303.868
303.891
303.92
303.959
304.014
304.093
304.208
304.369
304.588
304.872
305.216
305.599
306.03
306.598
307.391
308.338
300.349
301.002
301.555
301.962
302.259
302.511
302.746
302.966
303.163
303.329
303.465
303.572
303.655
303.718
303.767
303.805
303.835
303.859
303.881
303.903
303.927
303.957
303.997
304.053
304.135
304.251
304.414
304.635
304.921
305.263
305.645
306.075
306.641
307.433
308.38
300.353
301.014
301.574
301.984
302.285
302.54
302.78
303.004
303.202
303.369
303.505
303.611
303.692
303.755
303.803
303.84
303.869
303.894
303.916
303.938
303.963
303.993
304.035
304.093
304.176
304.294
304.46
304.682
304.968
305.311
305.691
306.119
306.684
307.475
308.421
300.357
301.027
301.592
302.007
302.311
302.571
302.815
303.042
303.242
303.41
303.545
303.65
303.731
303.792
303.839
303.875
303.904
303.928
303.951
303.973
303.998
304.03
304.072
304.132
304.217
304.337
304.504
304.729
305.015
305.357
305.736
306.162
306.726
307.516
308.462
300.362
301.039
301.611
302.03
302.338
302.602
302.85
303.08
303.283
303.451
303.585
303.689
303.769
303.829
303.875
303.91
303.939
303.963
303.985
304.008
304.034
304.066
304.11
304.171
304.258
304.38
304.549
304.775
305.062
305.403
305.78
306.204
306.767
307.557
308.502
300.366
301.052
301.63
302.053
302.365
302.633
302.886
303.12
303.324
303.492
303.626
303.729
303.807
303.866
303.911
303.946
303.974
303.998
304.02
304.043
304.07
304.103
304.148
304.21
304.298
304.422
304.593
304.82
305.108
305.448
305.823
306.246
306.807
307.596
308.541
300.371
301.065
301.65
302.077
302.392
302.665
302.922
303.159
303.365
303.534
303.667
303.769
303.846
303.904
303.948
303.982
304.009
304.033
304.056
304.079
304.106
304.14
304.186
304.249
304.339
304.465
304.637
304.865
305.153
305.492
305.865
306.287
306.847
307.636
308.58
300.375
301.078
301.67
302.101
302.42
302.698
302.959
303.2
303.407
303.576
303.708
303.809
303.884
303.941
303.984
304.018
304.045
304.068
304.091
304.114
304.142
304.177
304.223
304.289
304.38
304.507
304.681
304.91
305.198
305.536
305.907
306.327
306.886
307.674
308.618
300.38
301.091
301.69
302.125
302.449
302.731
302.998
303.241
303.45
303.618
303.75
303.849
303.923
303.979
304.021
304.054
304.08
304.104
304.126
304.15
304.178
304.214
304.261
304.328
304.421
304.549
304.724
304.955
305.242
305.579
305.949
306.367
306.926
307.713
308.657
300.384
301.104
301.71
302.151
302.479
302.766
303.037
303.284
303.494
303.662
303.792
303.889
303.962
304.017
304.058
304.09
304.116
304.139
304.162
304.186
304.214
304.251
304.3
304.367
304.461
304.591
304.768
304.999
305.286
305.622
305.989
306.406
306.964
307.75
308.694
300.389
301.118
301.731
302.177
302.509
302.802
303.078
303.328
303.539
303.706
303.835
303.931
304.002
304.055
304.095
304.126
304.152
304.175
304.198
304.222
304.251
304.288
304.338
304.407
304.502
304.634
304.811
305.043
305.33
305.664
306.03
306.446
307.002
307.789
308.732
300.394
301.132
301.753
302.204
302.541
302.839
303.121
303.374
303.585
303.752
303.878
303.973
304.042
304.093
304.132
304.163
304.188
304.211
304.233
304.258
304.288
304.325
304.376
304.446
304.543
304.676
304.855
305.087
305.374
305.707
306.07
306.485
307.04
307.826
308.77
300.399
301.147
301.776
302.231
302.574
302.878
303.165
303.421
303.633
303.798
303.923
304.015
304.083
304.132
304.17
304.2
304.225
304.247
304.27
304.294
304.324
304.363
304.415
304.486
304.584
304.719
304.898
305.131
305.418
305.749
306.111
306.524
307.079
307.864
308.808
300.405
301.162
301.799
302.259
302.607
302.917
303.209
303.468
303.681
303.845
303.968
304.058
304.124
304.172
304.208
304.237
304.261
304.283
304.306
304.331
304.362
304.401
304.454
304.526
304.626
304.761
304.942
305.175
305.461
305.791
306.151
306.562
307.117
307.902
308.846
300.41
301.178
301.822
302.288
302.64
302.956
303.254
303.516
303.729
303.892
304.014
304.102
304.165
304.212
304.247
304.274
304.298
304.32
304.343
304.368
304.399
304.439
304.493
304.567
304.667
304.804
304.986
305.22
305.505
305.833
306.192
306.602
307.155
307.94
308.885
300.415
301.193
301.845
302.317
302.675
302.997
303.299
303.563
303.777
303.939
304.059
304.145
304.207
304.252
304.285
304.312
304.335
304.357
304.379
304.405
304.436
304.477
304.532
304.607
304.709
304.847
305.03
305.264
305.549
305.875
306.232
306.64
307.193
307.978
308.923
300.421
301.209
301.869
302.346
302.709
303.038
303.345
303.612
303.825
303.987
304.104
304.188
304.248
304.292
304.324
304.35
304.373
304.394
304.416
304.442
304.474
304.516
304.572
304.648
304.751
304.891
305.074
305.309
305.593
305.918
306.272
306.68
307.232
308.017
308.961
300.426
301.224
301.893
302.375
302.745
303.08
303.392
303.661
303.874
304.034
304.15
304.232
304.29
304.332
304.363
304.388
304.41
304.431
304.454
304.48
304.512
304.555
304.612
304.689
304.793
304.934
305.119
305.353
305.637
305.96
306.312
306.719
307.271
308.055
309
300.432
301.24
301.917
302.406
302.782
303.123
303.44
303.711
303.924
304.082
304.195
304.275
304.332
304.372
304.403
304.427
304.448
304.469
304.491
304.518
304.551
304.594
304.652
304.73
304.836
304.978
305.164
305.398
305.681
306.003
306.353
306.758
307.31
308.094
309.039
300.437
301.256
301.942
302.438
302.82
303.169
303.491
303.763
303.975
304.131
304.242
304.32
304.374
304.413
304.442
304.465
304.486
304.507
304.529
304.555
304.589
304.633
304.692
304.771
304.879
305.022
305.208
305.443
305.725
306.045
306.394
306.798
307.348
308.132
309.078
300.443
301.273
301.969
302.472
302.861
303.217
303.544
303.818
304.028
304.182
304.29
304.365
304.417
304.454
304.482
304.504
304.525
304.545
304.567
304.594
304.628
304.672
304.732
304.813
304.922
305.066
305.253
305.488
305.77
306.088
306.435
306.838
307.388
308.172
309.117
300.449
301.291
301.997
302.507
302.903
303.268
303.6
303.875
304.084
304.234
304.339
304.411
304.46
304.496
304.522
304.544
304.563
304.583
304.605
304.632
304.667
304.712
304.773
304.855
304.965
305.111
305.299
305.534
305.814
306.13
306.476
306.877
307.427
308.211
309.157
300.456
301.31
302.026
302.543
302.948
303.32
303.658
303.933
304.141
304.288
304.389
304.458
304.505
304.538
304.563
304.583
304.602
304.622
304.644
304.671
304.706
304.752
304.814
304.898
305.009
305.156
305.345
305.58
305.859
306.174
306.517
306.918
307.467
308.251
309.197
300.462
301.329
302.056
302.581
302.994
303.374
303.717
303.993
304.199
304.343
304.44
304.506
304.55
304.581
304.604
304.623
304.642
304.661
304.683
304.71
304.746
304.793
304.856
304.94
305.053
305.201
305.39
305.625
305.904
306.217
306.559
306.958
307.507
308.291
309.237
300.469
301.349
302.086
302.619
303.041
303.43
303.777
304.054
304.258
304.398
304.492
304.554
304.595
304.624
304.646
304.664
304.682
304.7
304.722
304.75
304.786
304.834
304.898
304.984
305.098
305.247
305.437
305.672
305.949
306.261
306.601
306.999
307.548
308.331
309.278
300.477
301.37
302.117
302.659
303.089
303.487
303.839
304.116
304.317
304.454
304.544
304.603
304.641
304.668
304.688
304.705
304.722
304.74
304.762
304.79
304.826
304.875
304.94
305.027
305.142
305.292
305.483
305.718
305.994
306.304
306.642
307.04
307.588
308.372
309.318
300.484
301.391
302.15
302.701
303.14
303.546
303.903
304.18
304.378
304.511
304.597
304.652
304.688
304.712
304.731
304.747
304.763
304.78
304.802
304.83
304.867
304.917
304.983
305.071
305.188
305.339
305.531
305.766
306.041
306.348
306.685
307.082
307.63
308.413
309.359
300.491
301.413
302.184
302.744
303.193
303.608
303.969
304.246
304.441
304.569
304.651
304.702
304.735
304.757
304.774
304.789
304.804
304.821
304.843
304.871
304.908
304.958
305.026
305.115
305.233
305.385
305.578
305.812
306.086
306.392
306.728
307.123
307.671
308.454
309.4
300.499
301.436
302.22
302.79
303.248
303.673
304.038
304.314
304.505
304.629
304.706
304.754
304.783
304.803
304.818
304.831
304.845
304.862
304.884
304.912
304.95
305.001
305.069
305.16
305.279
305.433
305.626
305.86
306.133
306.437
306.771
307.166
307.714
308.496
309.442
300.508
301.46
302.257
302.837
303.306
303.741
304.109
304.384
304.571
304.69
304.762
304.805
304.832
304.849
304.862
304.874
304.887
304.904
304.925
304.953
304.992
305.043
305.113
305.205
305.325
305.48
305.673
305.907
306.179
306.482
306.814
307.208
307.755
308.537
309.483
300.517
301.486
302.296
302.886
303.365
303.809
304.182
304.456
304.639
304.752
304.82
304.858
304.881
304.896
304.907
304.918
304.93
304.946
304.967
304.995
305.034
305.087
305.157
305.251
305.372
305.528
305.722
305.956
306.226
306.527
306.858
307.251
307.798
308.58
309.526
300.526
301.512
302.335
302.936
303.426
303.879
304.255
304.528
304.707
304.815
304.877
304.912
304.931
304.943
304.952
304.962
304.973
304.988
305.009
305.037
305.077
305.13
305.202
305.296
305.419
305.576
305.77
306.003
306.273
306.572
306.901
307.293
307.84
308.622
309.567
300.536
301.539
302.376
302.987
303.487
303.948
304.328
304.6
304.775
304.879
304.936
304.966
304.982
304.991
304.999
305.006
305.017
305.031
305.052
305.08
305.12
305.174
305.247
305.343
305.467
305.624
305.819
306.052
306.32
306.618
306.945
307.337
307.884
308.665
309.61
300.545
301.566
302.416
303.038
303.549
304.019
304.402
304.673
304.844
304.943
304.995
305.021
305.033
305.04
305.045
305.052
305.061
305.075
305.095
305.123
305.163
305.218
305.292
305.388
305.513
305.672
305.867
306.1
306.366
306.662
306.988
307.379
307.926
308.706
309.651
300.555
301.594
302.458
303.091
303.612
304.091
304.477
304.746
304.914
305.007
305.055
305.077
305.086
305.09
305.093
305.098
305.106
305.119
305.138
305.167
305.208
305.263
305.337
305.435
305.562
305.721
305.917
306.149
306.414
306.708
307.033
307.423
307.97
308.75
309.695
300.565
301.622
302.501
303.146
303.678
304.165
304.554
304.822
304.985
305.073
305.116
305.133
305.138
305.14
305.141
305.144
305.151
305.163
305.182
305.211
305.251
305.307
305.382
305.481
305.609
305.768
305.964
306.196
306.46
306.752
307.076
307.465
308.011
308.791
309.736
300.575
301.652
302.546
303.203
303.746
304.243
304.634
304.9
305.058
305.141
305.178
305.19
305.192
305.191
305.19
305.191
305.197
305.208
305.227
305.255
305.296
305.353
305.429
305.529
305.657
305.818
306.014
306.245
306.508
306.799
307.121
307.51
308.056
308.836
309.779
300.586
301.683
302.592
303.262
303.817
304.323
304.717
304.981
305.134
305.21
305.241
305.249
305.247
305.243
305.239
305.239
305.243
305.253
305.271
305.3
305.341
305.398
305.474
305.575
305.704
305.865
306.061
306.292
306.553
306.843
307.163
307.552
308.098
308.877
309.82
300.598
301.715
302.64
303.323
303.891
304.406
304.804
305.065
305.212
305.282
305.307
305.309
305.303
305.296
305.29
305.287