/*--------------------------------*- C++ -*----------------------------------*\
| =========                 |                                                 |
| \\      /  F ield         | OpenFOAM: The Open Source CFD Toolbox           |
|  \\    /   O peration     | Version:  v2006                                 |
|   \\  /    A nd           | Website:  www.openfoam.com                      |
|    \\/     M anipulation  |                                                 |
\*---------------------------------------------------------------------------*/
FoamFile
{
    version     2.0;
    format      ascii;
    class       volScalarField;
    location    "68";
    object      nut;
}
// * * * * * * * * * * * * * * * * * * * * * * * * * * * * * * * * * * * * * //

dimensions      [0 2 -1 0 0 0 0];


internalField   nonuniform List<scalar> 
78750
(
1.82748e-07
1.32416e-07
9.48829e-07
7.7026e-07
1.75862e-06
2.6407e-07
1.26922e-06
6.75461e-07
6.25081e-07
7.17951e-07
9.74284e-07
1.18226e-06
3.6649e-06
4.41713e-06
1.19194e-05
1.70483e-05
2.16081e-05
2.38492e-05
2.67046e-05
2.76263e-05
2.85197e-05
2.94418e-05
3.12791e-05
3.26354e-05
3.44629e-05
3.4928e-05
3.55096e-05
3.0577e-05
3.16852e-05
2.57664e-05
1.4464e-05
4.72915e-07
6.8978e-07
1.28151e-06
4.07897e-07
9.25437e-06
5.0577e-06
1.00916e-05
3.7442e-05
3.43186e-05
2.69785e-05
2.56641e-05
2.27616e-05
3.49543e-05
4.87902e-05
6.81323e-05
2.8221e-05
9.20837e-05
7.09266e-05
3.77336e-05
5.46567e-05
5.4419e-05
5.66186e-05
4.41978e-05
4.94355e-05
6.86618e-05
0.000105834
0.000153533
0.000114142
8.63695e-05
7.84481e-05
7.61049e-05
7.15494e-05
5.88364e-05
4.98092e-05
3.11231e-05
2.18976e-05
1.24447e-05
1.28951e-05
9.79768e-06
9.98146e-06
1.0736e-05
2.20976e-05
4.70769e-05
3.50527e-06
1.34156e-05
4.1007e-05
0.000107891
8.08782e-05
2.1515e-05
9.41727e-06
4.11012e-05
3.17841e-05
6.27899e-06
4.84145e-05
6.85161e-05
1.79649e-05
8.97758e-05
7.01203e-05
8.47963e-05
8.06876e-05
7.59156e-05
6.39648e-05
5.33837e-05
4.95397e-05
5.11827e-05
6.17321e-05
6.0579e-05
4.24911e-05
2.87117e-05
1.67982e-05
1.05993e-05
1.23507e-05
8.67543e-05
1.05341e-05
1.00222e-05
4.16493e-05
1.48766e-05
3.28963e-05
5.65853e-05
1.90792e-05
5.86947e-07
7.84037e-07
3.61308e-06
1.66409e-06
5.48372e-06
1.53907e-05
3.75119e-05
1.9895e-05
2.65169e-05
4.44635e-05
4.06564e-05
4.64231e-05
5.43352e-05
6.51339e-05
7.18579e-05
8.34388e-05
8.12287e-05
6.54459e-05
4.0645e-05
2.09888e-05
1.79544e-05
2.50459e-05
3.05792e-05
3.28983e-05
3.48644e-05
4.18462e-05
6.67859e-05
4.95856e-05
1.0385e-05
1.01057e-05
4.68931e-05
9.78527e-05
0.000108913
0.000158222
0.000340476
0.000258354
9.0855e-05
7.64288e-05
0.000149716
0.000247475
0.000225385
0.000178464
0.000149712
0.000122783
0.000118528
0.000103769
0.000100882
9.33036e-05
9.21621e-05
9.54805e-05
0.000103976
0.00011502
3.92521e-05
1.83588e-05
2.3756e-05
1.6879e-05
7.3147e-06
6.78737e-06
8.55927e-06
1.00463e-05
1.12518e-05
2.06547e-05
7.52644e-05
8.8674e-06
9.16953e-06
6.11333e-05
0.000153564
0.000180738
0.000151769
0.000146102
0.000150837
0.000153436
0.000149928
0.000139679
0.000126478
0.000112859
9.90832e-05
8.65777e-05
7.35732e-05
6.09855e-05
5.21895e-05
4.89614e-05
5.35627e-05
6.99783e-05
7.49569e-05
5.20906e-05
3.99266e-05
5.46508e-06
2.46417e-06
4.47523e-06
7.33329e-06
8.88301e-06
1.6266e-05
2.51118e-05
2.56525e-05
2.87902e-05
5.31591e-05
5.58721e-05
7.74876e-06
1.17394e-06
1.22832e-05
1.34872e-05
5.57176e-05
8.40597e-05
7.83514e-05
4.934e-05
4.14179e-05
4.01866e-05
3.75375e-05
3.39745e-05
3.14697e-05
3.03466e-05
3.08191e-05
3.40198e-05
4.34584e-05
5.91883e-05
4.45911e-05
3.357e-05
3.22268e-05
3.41252e-05
3.31628e-05
2.87341e-05
3.28373e-05
6.85093e-05
2.49082e-05
2.43442e-05
4.61192e-05
6.03416e-05
3.8334e-05
2.68397e-05
2.10297e-05
2.77873e-05
7.15626e-05
6.61973e-06
8.3777e-06
1.97811e-05
2.88129e-05
4.39795e-05
4.09441e-05
4.91123e-05
9.03228e-05
0.000156027
0.000148764
0.000130613
0.000120709
0.000115125
0.000114507
0.000116008
8.80004e-05
4.90039e-05
3.30713e-05
3.22869e-05
3.44729e-05
3.05102e-05
2.73011e-05
2.78349e-05
2.9006e-05
2.98944e-05
3.26439e-05
3.98433e-05
5.50247e-05
7.60906e-05
8.90571e-05
7.71384e-05
4.43889e-05
2.04811e-05
2.06697e-05
6.6745e-05
6.98008e-06
1.11193e-05
8.23562e-05
7.6755e-05
5.6976e-05
5.41154e-05
6.24149e-05
8.57733e-05
0.000126188
0.000174749
0.000211991
0.000233146
0.000198168
9.63948e-05
5.46277e-05
4.85189e-05
7.23301e-05
3.68721e-05
1.17686e-05
9.89955e-06
1.51199e-05
2.31602e-05
2.91461e-05
3.20976e-05
3.34243e-05
3.40117e-05
3.41948e-05
3.49105e-05
3.84204e-05
4.6543e-05
5.16586e-05
3.76664e-05
2.54425e-05
3.34952e-05
7.8721e-05
7.34062e-06
5.02185e-06
3.93952e-05
8.54307e-05
0.000117735
0.000138904
0.000175595
0.000226321
0.000256715
0.000246688
0.000210527
0.000169719
0.000123672
8.29462e-05
6.68759e-05
8.5337e-05
6.1899e-05
3.56872e-05
4.55369e-05
6.14296e-05
5.56836e-05
3.64423e-05
2.74565e-05
2.90341e-05
3.44755e-05
3.86562e-05
3.87618e-05
3.45761e-05
3.0096e-05
2.95807e-05
3.55778e-05
4.2517e-05
3.57552e-05
4.2727e-05
7.70013e-05
6.638e-06
8.03656e-06
0.000128215
0.00016135
0.00020616
0.000188777
0.00017635
0.000167686
0.000145102
0.000109803
8.20833e-05
7.1922e-05
8.14544e-05
0.000109699
8.28635e-05
6.21654e-05
6.87231e-05
9.32638e-05
0.000103025
8.74179e-05
7.09405e-05
6.62018e-05
7.49065e-05
8.4762e-05
8.12192e-05
7.32147e-05
6.46891e-05
5.15915e-05
3.42718e-05
2.23998e-05
1.90629e-05
2.2006e-05
3.10343e-05
5.14505e-05
5.90946e-05
6.69771e-06
5.7037e-06
6.63e-05
3.80532e-05
4.73162e-05
6.70634e-05
0.000241451
0.000258356
0.000253992
0.000247314
0.000238699
9.27835e-05
5.06616e-05
4.03461e-05
3.91877e-05
4.24963e-05
4.90349e-05
5.57068e-05
5.71279e-05
5.27591e-05
4.64017e-05
4.14869e-05
4.06313e-05
4.29696e-05
4.47542e-05
4.53825e-05
4.58325e-05
3.71216e-05
1.97556e-05
1.31607e-05
1.36118e-05
1.98011e-05
3.70952e-05
6.24859e-05
3.21623e-05
6.13245e-06
2.84349e-06
4.19432e-05
1.56257e-05
4.83489e-05
2.2361e-05
3.50962e-05
4.62199e-05
4.70547e-05
5.79149e-05
6.00553e-05
6.21713e-05
6.60282e-05
6.91642e-05
7.22946e-05
7.34951e-05
6.84243e-05
5.71842e-05
4.48105e-05
3.52713e-05
2.88889e-05
2.50885e-05
2.23819e-05
2.00221e-05
1.84255e-05
1.82831e-05
1.98262e-05
2.13843e-05
1.97298e-05
1.59806e-05
1.42438e-05
1.59409e-05
1.97817e-05
2.28782e-05
3.1319e-05
3.5704e-06
7.29049e-06
1.13741e-05
2.9238e-05
1.66635e-05
1.5487e-05
4.10965e-05
0.000101167
0.000117556
0.000129402
0.000139488
0.000147252
0.000145366
0.000115788
7.4301e-05
5.48847e-05
5.47664e-05
6.84649e-05
8.42789e-05
7.96386e-05
6.33377e-05
5.31751e-05
4.87164e-05
4.3028e-05
3.49216e-05
2.67133e-05
2.02822e-05
1.55273e-05
1.18499e-05
9.70345e-06
9.60983e-06
1.13297e-05
1.66447e-05
7.44355e-06
4.43605e-06
2.6375e-06
5.68863e-06
1.66248e-05
1.54706e-05
2.89153e-05
2.88286e-05
3.33434e-05
5.58456e-05
9.60593e-05
0.000139102
0.000159399
0.000159991
0.000155922
0.000154863
0.000160725
0.000169008
0.000166244
0.000154226
0.000138306
0.000109528
8.59526e-05
9.11942e-05
0.0001255
0.000130726
6.5941e-05
4.39938e-05
3.78519e-05
3.08271e-05
2.61728e-05
2.32283e-05
1.98923e-05
5.77294e-06
4.07247e-06
7.10991e-06
1.41008e-05
4.53828e-06
6.6427e-06
1.75026e-05
1.65969e-05
2.38383e-05
2.86712e-05
3.22415e-05
3.69829e-05
4.24704e-05
4.78348e-05
5.24899e-05
5.63762e-05
5.94675e-05
6.16784e-05
6.40194e-05
6.64762e-05
6.585e-05
6.12105e-05
6.00334e-05
5.3114e-05
2.91485e-05
1.60884e-05
1.40456e-05
5.99246e-06
5.40166e-06
1.10958e-05
2.35694e-05
3.01232e-05
2.70914e-05
2.09106e-05
1.21157e-05
3.706e-06
5.25662e-06
1.66467e-05
4.68931e-05
5.50847e-06
3.62827e-06
2.09508e-05
3.12755e-05
2.60914e-05
2.4438e-05
2.48212e-05
2.65889e-05
2.99661e-05
3.56634e-05
4.47877e-05
5.94912e-05
8.58948e-05
0.000132312
0.000173267
0.000140777
9.3257e-05
6.18663e-05
4.5015e-05
4.01932e-05
4.29831e-05
4.26109e-05
3.45806e-05
3.57024e-05
5.63474e-05
0.000111017
0.000130496
9.83294e-05
6.94538e-05
5.25211e-05
3.62762e-05
1.79352e-05
3.73916e-06
6.60572e-06
2.69931e-05
5.25647e-06
6.68032e-06
3.0212e-05
6.62618e-05
7.33567e-05
6.70563e-05
5.7019e-05
4.85221e-05
4.49911e-05
4.73661e-05
5.59558e-05
7.08968e-05
9.09456e-05
0.000112132
0.000128519
0.000136507
0.000141024
0.000158707
0.000218177
0.000226773
0.000223971
0.000220451
0.000216045
0.000207554
0.000164421
0.000133394
0.000111758
9.07557e-05
6.97877e-05
4.2654e-05
1.85518e-05
8.46826e-06
2.59538e-06
3.46326e-06
2.44557e-05
5.91526e-06
6.62506e-06
3.61827e-05
9.84736e-05
0.000114234
0.000107917
8.96046e-05
6.77722e-05
5.15041e-05
4.27508e-05
4.00658e-05
4.22034e-05
4.86396e-05
5.90893e-05
7.2933e-05
8.8623e-05
0.000103751
0.000116194
0.000125918
0.00013511
0.000145449
0.00015539
0.000160937
0.000158998
0.000150537
0.000137969
0.000122336
0.000105149
8.63523e-05
5.75576e-05
2.14023e-05
9.77821e-06
8.11973e-06
8.45305e-06
3.81297e-05
5.70213e-06
6.04629e-06
3.36784e-05
9.75241e-05
0.000142104
0.000155472
0.000149517
0.00012208
8.48822e-05
5.79167e-05
4.26085e-05
3.44578e-05
3.11353e-05
3.21557e-05
3.80272e-05
4.96335e-05
6.72576e-05
8.92581e-05
0.00011204
0.000132157
0.000147648
0.000157436
0.000161103
0.000159262
0.000153262
0.000144408
0.000133711
0.000122408
0.000112127
9.80316e-05
5.26654e-05
2.10412e-05
1.06956e-05
1.03171e-05
4.00795e-05
5.8623e-06
5.87125e-06
3.06783e-05
0.000101302
0.000163685
0.000177098
0.000173401
0.000164977
0.000152919
0.00013146
0.000101218
7.27598e-05
5.19019e-05
3.8382e-05
3.12532e-05
3.04373e-05
3.68991e-05
5.22118e-05
7.69036e-05
0.000108388
0.000141012
0.00016903
0.000188661
0.00019832
0.000198184
0.000189519
0.000173941
0.000152064
0.000120402
7.19389e-05
2.8177e-05
1.30677e-05
1.09475e-05
1.72731e-05
5.98416e-05
6.91227e-06
6.26566e-06
3.10283e-05
9.54061e-05
0.000139466
0.000145387
0.000135793
0.00011935
0.000105585
0.000101559
0.000109661
0.000125534
0.000128968
9.93898e-05
6.3106e-05
4.09354e-05
3.1608e-05
3.29621e-05
4.56751e-05
7.14437e-05
0.000109408
0.000152509
0.000189078
0.000210423
0.000214537
0.00020343
0.000180628
0.000148819
0.000104677
4.74155e-05
1.36928e-05
6.47661e-06
1.22819e-05
3.33126e-05
4.70377e-05
7.14521e-06
7.43527e-06
4.09273e-05
0.000116154
0.000148793
0.000149977
0.000139712
0.000122064
0.0001003
8.20589e-05
7.62057e-05
8.80116e-05
0.000121427
0.000168031
0.000173934
0.000107509
5.68731e-05
3.69928e-05
3.46152e-05
4.5679e-05
6.98492e-05
0.000104155
0.000139506
0.000165372
0.000177393
0.000176899
0.000166468
0.000147567
0.000117172
6.75706e-05
2.25699e-05
8.14701e-06
1.08244e-05
3.21949e-05
3.87763e-05
6.99499e-06
8.22835e-06
5.65284e-05
0.00015303
0.000163051
0.000152465
0.000137757
0.000126218
0.000117806
0.000107524
9.68102e-05
9.59272e-05
0.000113499
0.000153
0.00020093
0.000205657
0.000131613
6.81036e-05
4.35239e-05
4.09562e-05
5.24482e-05
7.39133e-05
9.94077e-05
0.000122935
0.000141663
0.000154281
0.000158353
0.000150981
0.000130212
9.28759e-05
4.40866e-05
1.55801e-05
1.04684e-05
2.18369e-05
4.7852e-05
7.28912e-06
7.86043e-06
5.23071e-05
0.000150205
0.000157226
0.000138179
0.000115124
0.000102019
0.000100839
0.000107639
0.000116239
0.000123441
0.000134225
0.000155595
0.000186596
0.000209695
0.000190814
0.000124923
7.18776e-05
5.06626e-05
5.07138e-05
6.41526e-05
8.32029e-05
0.000100487
0.000113556
0.000122494
0.000126118
0.000123112
0.000111049
8.44531e-05
4.47697e-05
1.74057e-05
1.11633e-05
2.38053e-05
4.91403e-05
7.72426e-06
7.06674e-06
4.18689e-05
0.000136771
0.00015288
0.000133541
0.000108032
9.21359e-05
8.67406e-05
8.90948e-05
9.73519e-05
0.000110098
0.000127031
0.000150132
0.000181191
0.000214849
0.00023138
0.000202221
0.000132872
8.01045e-05
5.97738e-05
6.18908e-05
7.46532e-05
8.29097e-05
8.44849e-05
8.92586e-05
0.00010065
0.000110812
0.000106534
7.99e-05
4.09822e-05
1.70182e-05
1.24958e-05
3.17001e-05
3.66681e-05
7.49592e-06
7.16209e-06
4.11004e-05
0.000141456
0.000161215
0.000129273
0.00010286
9.47498e-05
9.42811e-05
9.2684e-05
9.10962e-05
9.36848e-05
0.000102666
0.000119536
0.000146552
0.000184913
0.00022825
0.000254828
0.000231802
0.00015636
9.23642e-05
6.56454e-05
6.39648e-05
7.02204e-05
6.92249e-05
6.9437e-05
8.10813e-05
0.0001018
0.000112461
9.57427e-05
5.64845e-05
2.49947e-05
1.58882e-05
3.09213e-05
3.39085e-05
7.11031e-06
8.08061e-06
4.85428e-05
0.000150885
0.000142143
9.20219e-05
7.16185e-05
7.91138e-05
0.000103615
0.000124101
0.000123667
0.00011396
0.000109307
0.000113682
0.000127365
0.000151143
0.000185075
0.000223337
0.000247924
0.000232454
0.000171126
0.000107452
7.42206e-05
6.50493e-05
6.45024e-05
6.18332e-05
6.40221e-05
7.80711e-05
0.000100754
0.000110125
8.54021e-05
4.31252e-05
2.35937e-05
3.19548e-05
4.59537e-05
7.37969e-06
8.49562e-06
5.2652e-05
0.000127648
0.000100658
6.28775e-05
5.10946e-05
6.13869e-05
9.21819e-05
0.000136638
0.000165618
0.000161132
0.000142281
0.000130368
0.000130285
0.000140241
0.000158297
0.0001812
0.000200157
0.000200252
0.000172369
0.000128676
9.26745e-05
7.4307e-05
6.95991e-05
6.81594e-05
6.50167e-05
6.57979e-05
7.44859e-05
8.70773e-05
8.46684e-05
5.57071e-05
3.57304e-05
4.65618e-05
6.30882e-05
7.91938e-06
7.91029e-06
4.23522e-05
0.000104825
9.14985e-05
6.44152e-05
4.89046e-05
4.73436e-05
5.95501e-05
8.75853e-05
0.00012736
0.00015857
0.000162841
0.000148631
0.000135559
0.000131898
0.000136005
0.000143255
0.000148322
0.000146159
0.000134765
0.000117204
9.98427e-05
8.79504e-05
8.21459e-05
7.7926e-05
7.09528e-05
6.31611e-05
5.8685e-05
5.86561e-05
5.87294e-05
5.2033e-05
4.88597e-05
7.26311e-05
5.89441e-05
8.03092e-06
7.10636e-06
3.14941e-05
8.94247e-05
9.93354e-05
8.11317e-05
5.17703e-05
3.14631e-05
2.68108e-05
3.56048e-05
5.825e-05
9.55576e-05
0.000137405
0.000158997
0.000150828
0.000132278
0.000121389
0.000122096
0.000130679
0.000139866
0.000143719
0.000140013
0.000129621
0.000116372
0.000103722
9.17725e-05
7.85643e-05
6.36327e-05
4.99137e-05
4.17375e-05
4.10202e-05
4.54614e-05
5.68156e-05
8.87176e-05
4.93499e-05
7.82955e-06
7.13959e-06
2.98993e-05
8.3874e-05
0.000108643
9.96804e-05
7.33675e-05
3.81851e-05
1.73675e-05
1.36138e-05
2.21673e-05
4.1997e-05
7.57319e-05
0.000126042
0.000183821
0.000212164
0.000181433
0.00013226
0.000106805
0.000107106
0.00012213
0.000136693
0.000144757
0.000147429
0.00014443
0.000134684
0.000118009
9.49857e-05
6.82152e-05
4.49646e-05
3.3226e-05
3.48793e-05
5.15954e-05
8.7319e-05
4.42484e-05
7.70031e-06
7.69803e-06
3.56539e-05
0.000104913
0.000131637
0.000120604
9.57263e-05
6.08248e-05
2.96553e-05
1.44537e-05
1.43888e-05
2.55094e-05
4.45933e-05
6.91846e-05
9.94607e-05
0.000136174
0.000167521
0.000166568
0.000133131
0.000107502
0.000108368
0.000131893
0.000162264
0.000182473
0.000187703
0.00018024
0.000162605
0.000136302
0.000102606
6.67431e-05
4.09653e-05
3.28564e-05
4.28681e-05
7.90304e-05
4.66855e-05
7.99882e-06
8.1017e-06
4.23252e-05
0.000121154
0.000139311
0.000130235
0.000106604
7.40569e-05
4.36002e-05
2.42117e-05
1.79166e-05
2.42528e-05
3.93693e-05
5.3915e-05
6.13494e-05
6.71333e-05
7.9502e-05
0.00010198
0.000130168
0.000155106
0.000172967
0.000185318
0.000194094
0.000198706
0.000197223
0.000188135
0.000170846
0.000144996
0.000110563
7.21793e-05
4.29547e-05
3.23316e-05
4.20853e-05
8.31952e-05
4.80273e-05
8.41824e-06
7.98736e-06
4.24507e-05
0.000120515
0.000145077
0.000140462
0.000123117
9.77463e-05
6.64881e-05
3.6234e-05
1.70598e-05
1.15568e-05
1.96511e-05
3.79621e-05
5.67985e-05
7.06703e-05
8.432e-05
0.00010302
0.000124905
0.000143297
0.000155351
0.00016303
0.000169016
0.000174414
0.000177963
0.000176597
0.000166995
0.000146434
0.000113311
7.27039e-05
4.13674e-05
3.02153e-05
4.15497e-05
8.90912e-05
4.27254e-05
8.39674e-06
7.93222e-06
4.42823e-05
0.000127976
0.000159899
0.000155956
0.000135599
0.000106981
8.15598e-05
5.91603e-05
3.24917e-05
9.38882e-06
1.47473e-06
1.13852e-05
3.07962e-05
5.24061e-05
6.79071e-05
8.29443e-05
0.000105682
0.000135015
0.000160815
0.000175211
0.000179959
0.000180817
0.000180828
0.000178745
0.0001705
0.000151227
0.000117321
7.41135e-05
4.10205e-05
2.9024e-05
4.04463e-05
8.98925e-05
3.52244e-05
8.01229e-06
8.57369e-06
5.53428e-05
0.000153819
0.00018133
0.000176635
0.000159727
0.00013103
9.6441e-05
7.11625e-05
5.46581e-05
3.21848e-05
7.76884e-06
1.7012e-06
7.78261e-06
2.8541e-05
5.53903e-05
8.27724e-05
0.000111221
0.000141781
0.000168022
0.000181832
0.00018325
0.000178385
0.000172317
0.000166105
0.00015704
0.000140084
0.000110743
7.27987e-05
4.25907e-05
3.10453e-05
4.29664e-05
8.99868e-05
3.13549e-05
7.70025e-06
8.94881e-06
6.21611e-05
0.000165552
0.000183287
0.000176875
0.000164163
0.000147467
0.000120567
8.66243e-05
6.5701e-05
6.03236e-05
4.84815e-05
1.78262e-05
2.5338e-06
6.84706e-06
2.51868e-05
5.54707e-05
9.16958e-05
0.000122324
0.000145323
0.000160554
0.00016675
0.000165206
0.000159564
0.00015239
0.000143281
0.000128875
0.000105275
7.43393e-05
4.79424e-05
3.72134e-05
4.98029e-05
9.34407e-05
3.21026e-05
7.61333e-06
8.73735e-06
5.3639e-05
0.000146185
0.000170077
0.000165341
0.00015184
0.00013633
0.000119876
9.58119e-05
6.65413e-05
5.18129e-05
5.80473e-05
7.38054e-05
4.46646e-05
9.6798e-06
2.85098e-06
1.02897e-05
3.79157e-05
8.89323e-05
0.00014111
0.000167823
0.00017292
0.000166939
0.000156067
0.000143721
0.0001314
0.000118231
0.000101209
7.88044e-05
5.71519e-05
4.78034e-05
6.16961e-05
0.000103525
3.72493e-05
7.7674e-06
8.92053e-06
5.77944e-05
0.000152913
0.000170913
0.000163163
0.000148458
0.000132181
0.000117632
0.000105065
8.76761e-05
6.32114e-05
5.02607e-05
5.9612e-05
9.32684e-05
9.25419e-05
2.93696e-05
5.52432e-06
1.34676e-06
2.1201e-05
6.22774e-05
0.000113741
0.000149874
0.000163154
0.000160802
0.000150022
0.000135443
0.000119246
0.00010148
8.20031e-05
6.47418e-05
5.88051e-05
7.53822e-05
0.000114075
4.25861e-05
7.91521e-06
8.95886e-06
6.1234e-05
0.000159397
0.000172302
0.000165482
0.000152654
0.000135483
0.000113624
9.15381e-05
7.69265e-05
7.05383e-05
6.43108e-05
5.85121e-05
6.2714e-05
7.74772e-05
7.49619e-05
2.81391e-05
2.04874e-06
3.02247e-06
2.94772e-05
7.8875e-05
0.000127904
0.000150052
0.000150849
0.000140447
0.000125089
0.000108574
9.29473e-05
7.90178e-05
6.85904e-05
6.78552e-05
8.72674e-05
0.000122099
4.70492e-05
8.11712e-06
8.64611e-06
5.5276e-05
0.000152145
0.00017228
0.000167723
0.000157027
0.00014512
0.000129992
0.000106165
7.86068e-05
6.3005e-05
6.3948e-05
7.45228e-05
8.57811e-05
9.74005e-05
0.000107306
9.20871e-05
4.09007e-05
8.27696e-06
2.82566e-06
1.91493e-05
5.99529e-05
0.000108113
0.00013376
0.000137766
0.000128032
0.000110155
8.9998e-05
7.33729e-05
6.48446e-05
6.92276e-05
9.35937e-05
0.00012558
4.79881e-05
8.17719e-06
8.60093e-06
5.44819e-05
0.000148014
0.000165238
0.000156175
0.00014064
0.000127836
0.00012086
0.000115347
0.00010082
7.55656e-05
5.74684e-05
5.56475e-05
6.66158e-05
8.56102e-05
0.000110184
0.000136009
0.000141113
9.11397e-05
3.31127e-05
5.97759e-06
7.77952e-06
4.12042e-05
8.85285e-05
0.000113169
0.000113854
0.000102669
8.62677e-05
7.10166e-05
6.31333e-05
6.80888e-05
9.23912e-05
0.000124066
4.82153e-05
8.20234e-06
8.48162e-06
4.95051e-05
0.000136361
0.000161621
0.000158339
0.000144144
0.000127272
0.000115475
0.000111709
0.000112174
0.000105126
8.17052e-05
5.75523e-05
4.75927e-05
5.13823e-05
6.54084e-05
8.58737e-05
0.000107317
0.000119576
0.000101284
5.07715e-05
1.62929e-05
7.08102e-06
2.69375e-05
7.02816e-05
0.000106721
0.000110666
9.21564e-05
7.00562e-05
5.81509e-05
6.23803e-05
8.83239e-05
0.000121312
4.69859e-05
8.2286e-06
8.25192e-06
4.36914e-05
0.000122643
0.000155432
0.000156202
0.000144218
0.000126222
0.000110528
0.000103676
0.000106967
0.000115974
0.000117278
9.42639e-05
5.98406e-05
4.03503e-05
4.00517e-05
5.48216e-05
7.84346e-05
0.000101587
0.000113398
0.000101267
6.26335e-05
3.00156e-05
1.92541e-05
2.91226e-05
5.4451e-05
8.10297e-05
8.86407e-05
7.63881e-05
6.23972e-05
6.23262e-05
8.42471e-05
0.000118415
4.71228e-05
8.28343e-06
8.07858e-06
4.07063e-05
0.000116949
0.00015295
0.000156781
0.000147121
0.000128238
0.000107672
9.55927e-05
9.68609e-05
0.000110755
0.000129898
0.000134021
0.000100449
5.09226e-05
2.32531e-05
2.23999e-05
3.99541e-05
6.48307e-05
7.96501e-05
7.47222e-05
5.66228e-05
3.64852e-05
2.48464e-05
2.82677e-05
4.52653e-05
6.6979e-05
7.92397e-05
7.446e-05
6.25551e-05
6.05994e-05
8.02599e-05
0.000119201
4.97738e-05
8.62581e-06
8.14676e-06
4.19221e-05
0.000122235
0.000163577
0.000168657
0.000158928
0.000139533
0.000115207
9.58099e-05
9.02075e-05
0.000101765
0.000129943
0.000162568
0.000164561
0.000105044
3.94335e-05
1.05677e-05
1.16296e-05
2.91072e-05
4.84043e-05
5.20944e-05
4.11235e-05
2.87246e-05
2.36264e-05
2.99793e-05
4.67182e-05
6.594e-05
7.66616e-05
7.44683e-05
6.54049e-05
6.45799e-05
8.60876e-05
0.000127455
5.10419e-05
8.9366e-06
8.27694e-06
4.56142e-05
0.000142092
0.000182167
0.000179092
0.000162803
0.000144052
0.000124879
0.000106537
9.49971e-05
9.66308e-05
0.000116105
0.000156019
0.000206105
0.0002268
0.000153196
5.07315e-05
1.17229e-05
1.11066e-05
2.74017e-05
4.39865e-05
4.41233e-05
3.28578e-05
2.41464e-05
2.52499e-05
3.72249e-05
5.40112e-05
6.25553e-05
6.12869e-05
5.85831e-05
6.49192e-05
9.30136e-05
0.000133648
4.86583e-05
8.90718e-06
8.5501e-06
5.0832e-05
0.000166036
0.000196813
0.000174433
0.000150124
0.000137398
0.000131381
0.00012653
0.000122569
0.000122181
0.000128133
0.000143059
0.000168778
0.000202435
0.000224172
0.000175877
6.56144e-05
1.69089e-05
1.03895e-05
2.3954e-05
4.06751e-05
4.0182e-05
2.94231e-05
2.33777e-05
2.7943e-05
4.34124e-05
5.82613e-05
5.81749e-05
5.6454e-05
6.83545e-05
0.000103679
0.000129604
4.14289e-05
8.47287e-06
9.42238e-06
6.76886e-05
0.000193321
0.000178592
0.000136002
0.000118193
0.000120233
0.00012994
0.000140651
0.000154755
0.000176346
0.000202338
0.000224739
0.000240654
0.000254133
0.000267977
0.000268166
0.000205904
8.31027e-05
2.18423e-05
7.4487e-06
1.8322e-05
3.60138e-05
3.78113e-05
2.8255e-05
2.28197e-05
2.70209e-05
4.00226e-05
5.13765e-05
5.6519e-05
7.18049e-05
0.000108072
0.000119954
3.61938e-05
7.99917e-06
1.00582e-05
9.43267e-05
0.000184331
0.000126501
9.68656e-05
0.000100782
0.000126094
0.000160215
0.000189671
0.00021029
0.000227813
0.000248514
0.000272547
0.000295036
0.000310566
0.000315873
0.000307696
0.000273526
0.000190177
8.03757e-05
2.15169e-05
5.87846e-06
1.67832e-05
3.21329e-05
3.3166e-05
2.60627e-05
2.26753e-05
2.77709e-05
4.1179e-05
5.73587e-05
7.87719e-05
0.000112252
0.000112699
3.35254e-05
7.6929e-06
1.02228e-05
0.000111743
0.000150597
9.43743e-05
8.56377e-05
0.000111621
0.000161969
0.000215391
0.000253412
0.000273397
0.000280679
0.000282984
0.000287354
0.000297279
0.000312209
0.000328474
0.000338843
0.000329268
0.000277552
0.00017691
7.58332e-05
2.40382e-05
1.02371e-05
2.07972e-05
3.28602e-05
3.03553e-05
2.31675e-05
2.10057e-05
2.77605e-05
4.66184e-05
7.86453e-05
0.000112914
0.000106995
3.26269e-05
7.60376e-06
1.03812e-05
0.000135408
0.000119742
8.0195e-05
9.03819e-05
0.000137901
0.000197294
0.000241839
0.00027191
0.000294918
0.00031423
0.000329857
0.000341258
0.000349017
0.000354787
0.000360039
0.00036431
0.000362478
0.000340459
0.000275999
0.000168317
7.15557e-05
2.51582e-05
1.4248e-05
2.49793e-05
3.53105e-05
3.11149e-05
2.3353e-05
2.19745e-05
3.21295e-05
6.21575e-05
0.000104292
0.000102321
3.28423e-05
7.68759e-06
1.00183e-05
0.000131178
0.000105581
7.54893e-05
9.52861e-05
0.000152838
0.000212728
0.000253394
0.000279463
0.000298281
0.000314021
0.000328771
0.000343379
0.000357732
0.000371047
0.000382188
0.000389563
0.000390033
0.000376815
0.000337847
0.000260529
0.000154372
6.68187e-05
2.66171e-05
1.93564e-05
3.10575e-05
3.87544e-05
3.23525e-05
2.46989e-05
2.55351e-05
4.14059e-05
8.11486e-05
0.000103965
3.52222e-05
8.00266e-06
9.52956e-06
9.10664e-05
0.000122752
7.62908e-05
7.61584e-05
0.000106251
0.000150986
0.000195425
0.000233859
0.00026643
0.000294078
0.000317318
0.000336669
0.000352852
0.000366516
0.000377814
0.000385907
0.00038829
0.000380139
0.000354583
0.000304608
0.000227113
0.000133865
5.98129e-05
2.69391e-05
2.33262e-05
3.55403e-05
4.20349e-05
3.42857e-05
2.77048e-05
3.31017e-05
6.10738e-05
0.00010516
3.87198e-05
8.33931e-06
9.20024e-06
6.46754e-05
0.000113095
6.90771e-05
5.87507e-05
7.32606e-05
0.000102806
0.000139639
0.000178575
0.000216913
0.000253412
0.000287403
0.000318403
0.000345963
0.000369559
0.000388536
0.000401766
0.000407145
0.000401342
0.000380391
0.000341014
0.000281354
0.000202176
0.000115929
5.35425e-05
2.87652e-05
2.8738e-05
3.83538e-05
3.93068e-05
3.20272e-05
3.24235e-05
5.38466e-05
0.000106877
4.12413e-05
8.47675e-06
8.62251e-06
4.70174e-05
9.88452e-05
7.24761e-05
5.68228e-05
5.76028e-05
6.89479e-05
8.80525e-05
0.000114206
0.000146365
0.000182461
0.000220058
0.000257207
0.000292606
0.000325165
0.000353674
0.000376212
0.000389376
0.000388327
0.000368447
0.000328345
0.000271424
0.000203953
0.000133493
7.27977e-05
3.80645e-05
2.86181e-05
3.40544e-05
3.85757e-05
3.49524e-05
3.61718e-05
5.88936e-05
0.000114324
4.12333e-05
8.4241e-06
8.27573e-06
3.94447e-05
9.76367e-05
9.72385e-05
7.58947e-05
5.74435e-05
5.02545e-05
5.16099e-05
5.98442e-05
7.48872e-05
9.72715e-05
0.00012791
0.000166756
0.00021085
0.000255732
0.000297682
0.000333309
0.000357841
0.000364948
0.00034957
0.000312182
0.000259262
0.000198766
0.000136956
8.15151e-05
4.44132e-05
2.98392e-05
3.09869e-05
3.58785e-05
3.6563e-05
4.19561e-05
6.98169e-05
0.00012009
3.92935e-05
8.22621e-06
8.03202e-06
3.86674e-05
0.000106603
0.000128324
0.000120636
9.66888e-05
7.07376e-05
5.41352e-05
4.64261e-05
4.50009e-05
4.8541e-05
5.85808e-05
8.06086e-05
0.00011936
0.00017163
0.000227614
0.00027823
0.000315536
0.000331271
0.000319989
0.000284277
0.000234533
0.000181281
0.000129521
8.23044e-05
4.75081e-05
3.13784e-05
2.99835e-05
3.41708e-05
3.83044e-05
4.95275e-05
8.40975e-05
0.000120562
3.67303e-05
8.00652e-06
7.87114e-06
3.86062e-05
0.000117325
0.000167612
0.000174176
0.000161056
0.000133373
0.000101216
7.62799e-05
5.91568e-05
4.53207e-05
3.46255e-05
3.38015e-05
4.98562e-05
8.89167e-05
0.00014902
0.000213751
0.000266031
0.000295978
0.000297643
0.000271439
0.000226999
0.000177014
0.000128538
8.41061e-05
4.99503e-05
3.27214e-05
3.01229e-05
3.43284e-05
4.12339e-05
5.81029e-05
9.70373e-05
0.000115164
3.39189e-05
7.73756e-06
8.10639e-06
3.76364e-05
0.000112587
0.000173903
0.000179017
0.000164964
0.000146262
0.000131079
0.000124179
0.000119663
9.83745e-05
5.45955e-05
2.79449e-05
2.51594e-05
4.48435e-05
9.51503e-05
0.000174627
0.000255377
0.000309775
0.000326551
0.000304501
0.000254338
0.000195322
0.000140634
9.29061e-05
5.53817e-05
3.45788e-05
2.99278e-05
3.49404e-05
4.53185e-05
6.73758e-05
0.000106612
0.00010968
3.21648e-05
7.5681e-06
8.85853e-06
3.83702e-05
0.000101758
0.000147191
0.000143872
0.000120327
9.02316e-05
7.13725e-05
7.33313e-05
9.49278e-05
0.00012153
9.54129e-05
4.20331e-05
2.66478e-05
4.09437e-05
9.70447e-05
0.00022227
0.000358797
0.000367158
0.000372142
0.000373684
0.000308404
0.000222081
0.00015629
0.000104995
6.45179e-05
3.91389e-05
3.05486e-05
3.49626e-05
4.92557e-05
7.64672e-05
0.000112616
0.000105121
3.12433e-05
7.50347e-06
9.86957e-06
5.16281e-05
0.000134341
0.000156287
0.000132677
9.42863e-05
5.92094e-05
4.13218e-05
4.24869e-05
5.75796e-05
7.32604e-05
6.5386e-05
4.72074e-05
5.30818e-05
0.000111211
0.00024588
0.000361134
0.000367738
0.000372668
0.000375445
0.000371367
0.000295365
0.000217465
0.000157855
0.000111709
7.33804e-05
4.57379e-05
3.28977e-05
3.43776e-05
4.97416e-05
8.08172e-05
0.000115054
0.000104179
3.1651e-05
7.65869e-06
1.00075e-05
7.91964e-05
0.000147523
0.000119334
8.29435e-05
5.25286e-05
3.66036e-05
3.62962e-05
4.85064e-05
6.1862e-05
6.97399e-05
9.09638e-05
0.000151798
0.000206802
0.00020764
0.000212428
0.000227965
0.000245748
0.000257563
0.000257766
0.000242063
0.000212102
0.000176722
0.000142966
0.000111254
8.03318e-05
5.36631e-05
3.74671e-05
3.46921e-05
4.71402e-05
7.84628e-05
0.000114495
0.000105564
3.25872e-05
7.85311e-06
9.13554e-06
7.30135e-05
0.000113462
8.80252e-05
5.9189e-05
4.18157e-05
4.02343e-05
5.74302e-05
8.98047e-05
0.000123312
0.000150471
0.000155357
0.00014661
0.00014447
0.000153612
0.000168881
0.000183807
0.000195206
0.000201509
0.000200814
0.000191595
0.000175216
0.000155289
0.000134359
0.000112177
8.77107e-05
6.3128e-05
4.45481e-05
3.73066e-05
4.47115e-05
7.2379e-05
0.000112983
0.000111096
3.43985e-05
8.04581e-06
8.70893e-06
6.10869e-05
0.000138948
0.000131668
0.000109608
8.73923e-05
7.12091e-05
6.44872e-05
6.54608e-05
6.77756e-05
7.01116e-05
7.73508e-05
9.2344e-05
0.00011358
0.000136557
0.000156861
0.00017237
0.000182512
0.000186963
0.000185458
0.000178418
0.000167273
0.000153831
0.000138856
0.000121395
0.00010008
7.59499e-05
5.44906e-05
4.25122e-05
4.45449e-05
6.67512e-05
0.000110328
0.000117652
3.63592e-05
8.08755e-06
8.80757e-06
5.27767e-05
0.000142991
0.000165289
0.000166187
0.000157678
0.000135774
0.000102735
7.19676e-05
5.06275e-05
3.8354e-05
3.5599e-05
4.44203e-05
6.65893e-05
9.90848e-05
0.00013302
0.000159916
0.000175789
0.000181083
0.000178973
0.000173048
0.000165404
0.000156435
0.000145484
0.000131103
0.000111842
8.8304e-05
6.52017e-05
4.98668e-05
4.81873e-05
6.6758e-05
0.000110648
0.000124456
3.84275e-05
8.07734e-06
8.84351e-06
5.20226e-05
0.000149664
0.0001795
0.00016987
0.000153014
0.000145201
0.000147633
0.000142602
0.000110815
7.02133e-05
4.34921e-05
3.14716e-05
3.25748e-05
4.86672e-05
8.01166e-05
0.000116812
0.000143204
0.000153863
0.000154328
0.000152065
0.000150565
0.00014918
0.000145298
0.00013606
0.000119679
9.71197e-05
7.34159e-05
5.62978e-05
5.24635e-05
6.8937e-05
0.000112322
0.000130097
3.99846e-05
8.06296e-06
8.98602e-06
5.6968e-05
0.000162912
0.000190428
0.000177384
0.000146982
0.000120444
0.0001137
0.000129991
0.000158746
0.000159708
0.00011039
6.29998e-05
3.92645e-05
3.19743e-05
3.85511e-05
5.91352e-05
8.62814e-05
0.000105343
0.000112773
0.000115777
0.000119935
0.000125398
0.000128829
0.000126256
0.000115267
9.68362e-05
7.61677e-05
6.09688e-05
5.8311e-05
7.60672e-05
0.000119712
0.000135399
4.10016e-05
8.10082e-06
9.0877e-06
5.75391e-05
0.000161391
0.000191572
0.000186942
0.000169619
0.000145524
0.000121477
0.000108315
0.000112762
0.000135244
0.000161559
0.000150792
9.83937e-05
5.76194e-05
3.85802e-05
3.44164e-05
4.36385e-05
6.16768e-05
7.6087e-05
8.3971e-05
9.13667e-05
0.000100879
0.000109762
0.000112663
0.000106331
9.21725e-05
7.55808e-05
6.3751e-05
6.38594e-05
8.43337e-05
0.00012798
0.000139377
4.15931e-05
8.12667e-06
9.12386e-06