/*--------------------------------*- C++ -*----------------------------------*\
| =========                 |                                                 |
| \\      /  F ield         | OpenFOAM: The Open Source CFD Toolbox           |
|  \\    /   O peration     | Version:  v2012                                 |
|   \\  /    A nd           | Website:  www.openfoam.com                      |
|    \\/     M anipulation  |                                                 |
\*---------------------------------------------------------------------------*/
FoamFile
{
    version     2.0;
    format      ascii;
    class       surfaceScalarField;
    location    "43";
    object      phi;
}
// * * * * * * * * * * * * * * * * * * * * * * * * * * * * * * * * * * * * * //

dimensions      [1 0 -1 0 0 0 0];
oriented        oriented;


internalField   nonuniform List<scalar> 
228225
(
-4.11805e-09
5.20921e-09
-1.32999e-09
-1.47837e-08
1.66182e-08
-5.95325e-09
-3.08367e-08
2.34065e-08
-7.35132e-09
-5.17987e-08
2.89794e-08
-8.01969e-09
-7.67871e-08
3.34838e-08
-8.49167e-09
-1.04772e-07
3.69097e-08
-8.92991e-09
-1.34732e-07
3.93424e-08
-9.37813e-09
-1.65677e-07
4.0809e-08
-9.86851e-09
-1.9671e-07
4.14367e-08
-1.03998e-08
-2.2699e-07
4.12719e-08
-1.09932e-08
-2.558e-07
4.04573e-08
-1.16467e-08
-2.82481e-07
3.90568e-08
-1.23787e-08
-3.06491e-07
3.71979e-08
-1.31835e-08
-3.2736e-07
3.49398e-08
-1.40717e-08
-3.44703e-07
3.23714e-08
-1.50289e-08
-3.58203e-07
2.95587e-08
-1.60583e-08
-3.67662e-07
2.65975e-08
-1.71402e-08
-3.72954e-07
2.35296e-08
-1.82349e-08
-3.74017e-07
2.04151e-08
-1.93538e-08
-3.70831e-07
1.72938e-08
-2.04766e-08
-3.63481e-07
1.42129e-08
-2.15661e-08
-3.52069e-07
1.11938e-08
-2.26029e-08
-3.36781e-07
8.27031e-09
-2.35591e-08
-3.17828e-07
5.459e-09
-2.44135e-08
-2.9547e-07
2.78565e-09
-2.51413e-08
-2.70022e-07
2.76001e-10
-2.57221e-08
-2.4182e-07
-2.07156e-09
-2.61342e-08
-2.11253e-07
-4.20653e-09
-2.63582e-08
-1.7878e-07
-6.1024e-09
-2.63721e-08
-1.44911e-07
-7.71647e-09
-2.61488e-08
-1.10287e-07
-8.98968e-09
-2.5636e-08
-7.5751e-08
-9.82953e-09
-2.47064e-08
-4.27003e-08
-1.00578e-08
-2.29941e-08
-1.39229e-08
-9.37359e-09
-1.94006e-08
-5.85646e-09
-8.06807e-09
-1.21625e-08
3.53745e-08
-1.8002e-08
-4.06627e-08
6.4532e-08
-1.94144e-08
-7.47868e-08
7.7726e-08
-2.01956e-08
-1.11522e-07
8.69806e-08
-2.12649e-08
-1.48702e-07
9.29333e-08
-2.22707e-08
-1.84829e-07
9.61941e-08
-2.31568e-08
-2.18741e-07
9.7232e-08
-2.39787e-08
-2.49648e-07
9.64677e-08
-2.47508e-08
-2.7697e-07
9.42479e-08
-2.54892e-08
-3.00375e-07
9.08656e-08
-2.61895e-08
-3.19643e-07
8.65859e-08
-2.68607e-08
-3.34731e-07
8.16387e-08
-2.74946e-08
-3.45659e-07
7.62238e-08
-2.80978e-08
-3.52569e-07
7.05129e-08
-2.86612e-08
-3.55634e-07
6.46289e-08
-2.91952e-08
-3.55082e-07
5.86948e-08
-2.96871e-08
-3.51146e-07
5.28023e-08
-3.01404e-08
-3.44093e-07
4.70242e-08
-3.0548e-08
-3.34184e-07
4.14172e-08
-3.09106e-08
-3.21706e-07
3.60373e-08
-3.12224e-08
-3.06922e-07
3.0916e-08
-3.14872e-08
-2.90107e-07
2.60763e-08
-3.16978e-08
-2.71516e-07
2.15335e-08
-3.18536e-08
-2.51406e-07
1.72974e-08
-3.19494e-08
-2.30013e-07
1.3375e-08
-3.19829e-08
-2.07565e-07
9.77554e-09
-3.19468e-08
-1.84305e-07
6.50215e-09
-3.18337e-08
-1.60442e-07
3.55953e-09
-3.16298e-08
-1.36181e-07
9.54273e-10
-3.13154e-08
-1.11748e-07
-1.29392e-09
-3.08587e-08
-8.73538e-08
-3.16067e-09
-3.02236e-08
-6.32344e-08
-4.59317e-09
-2.93539e-08
-3.97435e-08
-5.49695e-09
-2.80529e-08
-1.77897e-08
-5.58423e-09
-2.57432e-08
-3.17574e-09
-2.04698e-08
-1.04969e-08
5.28593e-08
-6.98702e-09
-2.68262e-08
8.93232e-08
-8.46139e-09
-4.48786e-08
1.04976e-07
-9.20072e-09
-6.33947e-08
1.15456e-07
-9.9574e-09
-8.15329e-08
1.21807e-07
-1.07365e-08
-9.86717e-08
1.24916e-07
-1.15827e-08
-1.14374e-07
1.2542e-07
-1.24839e-08
-1.28314e-07
1.23865e-07
-1.34582e-08
-1.40269e-07
1.20678e-07
-1.44754e-08
-1.50107e-07
1.1624e-07
-1.55354e-08
-1.57796e-07
1.10875e-07
-1.66006e-08
-1.6336e-07
1.04866e-07
-1.76637e-08
-1.66885e-07
9.844e-08
-1.86892e-08
-1.68484e-07
9.17816e-08
-1.9672e-08
-1.68321e-07
8.50557e-08
-2.05899e-08
-1.66561e-07
7.83785e-08
-2.14426e-08
-1.63379e-07
7.18317e-08
-2.22134e-08
-1.58926e-07
6.54796e-08
-2.29072e-08
-1.53363e-07
5.93694e-08
-2.35156e-08
-1.46832e-07
5.35481e-08
-2.40419e-08
-1.39473e-07
4.80396e-08
-2.44826e-08
-1.31412e-07
4.28596e-08
-2.48444e-08
-1.22761e-07
3.8008e-08
-2.51258e-08
-1.13615e-07
3.34833e-08
-2.53324e-08
-1.04061e-07
2.92841e-08
-2.5463e-08
-9.41798e-08
2.54137e-08
-2.55193e-08
-8.40481e-08
2.18688e-08
-2.54978e-08
-7.37328e-08
1.86386e-08
-2.53948e-08
-6.32954e-08
1.57153e-08
-2.51988e-08
-5.2784e-08
1.30884e-08
-2.48927e-08
-4.2248e-08
1.07491e-08
-2.44473e-08
-3.17251e-08
8.69086e-09
-2.3806e-08
-2.12851e-08
6.90291e-09
-2.28407e-08
-1.09962e-08
5.36968e-09
-2.12419e-08
3.32744e-09
-1.74993e-08
-1.17845e-08
5.67367e-08
7.90921e-09
-2.09511e-08
9.15676e-08
6.91972e-09
-2.86561e-08
1.06745e-07
5.937e-09
-3.54356e-08
1.17086e-07
5.14861e-09
-4.15794e-08
1.23621e-07
4.32951e-09
-4.7151e-08
1.27119e-07
3.36935e-09
-5.21438e-08
1.28192e-07
2.22032e-09
-5.65222e-08
1.27326e-07
9.16958e-10
-6.02116e-08
1.24911e-07
-5.44699e-10
-6.31116e-08
1.21244e-07
-2.10426e-09
-6.51301e-08
1.16636e-07
-3.74238e-09
-6.62662e-08
1.11389e-07
-5.38742e-09
-6.65851e-08
1.05772e-07
-7.01418e-09
-6.61708e-08
9.99484e-08
-8.58121e-09
-6.51156e-08
9.4071e-08
-1.00693e-08
-6.35315e-08
8.82417e-08
-1.14487e-08
-6.1514e-08
8.2539e-08
-1.27248e-08
-5.91614e-08
7.70132e-08
-1.38855e-08
-5.65608e-08
7.1708e-08
-1.494e-08
-5.37804e-08
6.6649e-08
-1.58813e-08
-5.08813e-08
6.18579e-08
-1.67178e-08
-4.79192e-08
5.73441e-08
-1.74458e-08
-4.49396e-08
5.31024e-08
-1.80746e-08
-4.19834e-08
4.91306e-08
-1.86037e-08
-3.90801e-08
4.54205e-08
-1.90394e-08
-3.62495e-08
4.19631e-08
-1.93804e-08
-3.34852e-08
3.87339e-08
-1.963e-08
-3.07571e-08
3.56982e-08
-1.97869e-08
-2.8005e-08
3.28135e-08
-1.98508e-08
-2.51351e-08
3.00319e-08
-1.98142e-08
-2.19994e-08
2.72807e-08
-1.96655e-08
-1.83826e-08
2.44742e-08
-1.94008e-08
-1.38973e-08
2.14776e-08
-1.90606e-08
-8.10712e-09
1.8164e-08
-1.85824e-08
1.18637e-08
-1.66455e-08
-1.14261e-08
5.33908e-08
1.47717e-08
-1.54072e-08
8.1558e-08
1.39914e-08
-1.5761e-08
9.41936e-08
1.29058e-08
-1.40292e-08
1.03222e-07
1.21314e-08
-1.11488e-08
1.09321e-07
1.14193e-08
-7.65587e-09
1.13067e-07
1.05613e-08
-3.91619e-09
1.14907e-07
9.54245e-09
-1.52394e-10
1.15198e-07
8.36537e-09
3.49237e-09
1.14234e-07
7.03192e-09
6.96021e-09
1.12264e-07
5.51185e-09
1.02204e-08
1.09502e-07
3.87595e-09
1.32072e-08
1.06183e-07
2.21848e-09
1.58469e-08
1.02517e-07
6.14928e-10
1.80805e-08
9.86461e-08
-9.30772e-10
1.98811e-08
9.46691e-08
-2.39811e-09
2.1245e-08
9.06719e-08
-3.79548e-09
2.21779e-08
8.67131e-08
-5.10613e-09
2.26764e-08
8.28435e-08
-6.32985e-09
2.27447e-08
7.90973e-08
-7.45661e-09
2.23829e-08
7.55019e-08
-8.48994e-09
2.15888e-08
7.20719e-08
-9.4235e-09
2.03826e-08
6.88148e-08
-1.02619e-08
1.87597e-08
6.57284e-08
-1.10026e-08
1.67329e-08
6.28056e-08
-1.16497e-08
1.43242e-08
6.00316e-08
-1.22017e-08
1.15707e-08
5.73801e-08
-1.2664e-08
8.53235e-09
5.48108e-08
-1.30386e-08
5.30107e-09
5.22621e-08
-1.33337e-08
2.00668e-09
4.96613e-08
-1.35523e-08
-1.1746e-09
4.6911e-08
-1.36976e-08
-4.00445e-09
4.38782e-08
-1.37679e-08
-6.12231e-09
4.03867e-08
-1.37968e-08
-6.91072e-09
3.61898e-08
-1.39217e-08
-5.49931e-09
3.09683e-08
-1.42167e-08
1.99678e-08
-1.36032e-08
-6.33246e-09
4.60508e-08
1.36727e-08
-6.52711e-09
6.89752e-08
1.27767e-08
-3.47929e-09
7.94898e-08
1.16567e-08
1.50439e-09
8.72718e-08
1.09671e-08
7.56566e-09
9.28789e-08
1.03795e-08
1.41886e-08
9.67304e-08
9.71526e-09
2.09957e-08
9.91856e-08
8.91127e-09
2.77163e-08
1.0049e-07
7.98892e-09
3.40986e-08
1.00882e-07
6.97067e-09
3.99027e-08
1.00557e-07
5.90295e-09
4.49335e-08
9.96779e-08
4.79184e-09
4.91004e-08
9.83601e-08
3.65583e-09
5.23918e-08
9.67202e-08
2.50529e-09
5.48247e-08
9.4848e-08
1.36586e-09
5.64293e-08
9.28237e-08
2.4079e-10
5.72306e-08
9.07046e-08
-8.35627e-10
5.72696e-08
8.85456e-08
-1.86998e-09
5.65784e-08
8.63834e-08
-2.85002e-09
5.51992e-08
8.42491e-08
-3.77135e-09
5.3162e-08
8.2163e-08
-4.62476e-09
5.05071e-08
8.01369e-08
-5.40994e-09
4.72703e-08
7.81736e-08
-6.12172e-09
4.3493e-08
7.6267e-08
-6.76177e-09
3.92239e-08
7.44027e-08
-7.32818e-09
3.45259e-08
7.25539e-08
-7.8242e-09
2.94738e-08
7.06834e-08
-8.25077e-09
2.41619e-08
6.87355e-08
-8.61304e-09
1.87023e-08
6.66368e-08
-8.91541e-09
1.32458e-08
6.42833e-08
-9.16519e-09
7.98231e-09
6.15399e-08
-9.36642e-09
3.16764e-09
5.8217e-08
-9.52406e-09
-8.35347e-10
5.40693e-08
-9.67873e-09
-3.4078e-09
4.87512e-08
-9.98887e-09
-3.71355e-09
4.18378e-08
-1.05649e-08
2.68151e-08
-1.05603e-08
-2.09283e-09
3.89649e-08
9.17706e-09
-7.44875e-10
5.94577e-08
8.17159e-09
2.60609e-09
6.89632e-08
7.17512e-09
7.15285e-09
7.6152e-08
6.57208e-09
1.23556e-08
8.15569e-08
6.12124e-09
1.78712e-08
8.55632e-08
5.65093e-09
2.34501e-08
8.84723e-08
5.13326e-09
2.88621e-08
9.05139e-08
4.56503e-09
3.39245e-08
9.18619e-08
3.95764e-09
3.85141e-08
9.26592e-08
3.30914e-09
4.25424e-08
9.3015e-08
2.63273e-09
4.59465e-08
9.30257e-08
1.93155e-09
4.86828e-08
9.27652e-08
1.22022e-09
5.07259e-08
9.22991e-08
5.03306e-10
5.20797e-08
9.16775e-08
-2.05997e-10
5.27326e-08
9.09438e-08
-8.91983e-10
5.27011e-08
9.01307e-08
-1.55429e-09
5.20068e-08
8.92661e-08
-2.18789e-09
5.06713e-08
8.83676e-08
-2.78319e-09
4.87266e-08
8.74465e-08
-3.33855e-09
4.62038e-08
8.65068e-08
-3.84825e-09
4.31475e-08
8.5544e-08
-4.31272e-09
3.9596e-08
8.45463e-08
-4.7289e-09
3.56089e-08
8.34901e-08
-5.09907e-09
3.12426e-08
8.23425e-08
-5.42259e-09
2.65751e-08
8.10533e-08
-5.70336e-09
2.16971e-08
7.95562e-08
-5.94302e-09
1.67266e-08
7.77577e-08
-6.14777e-09
1.17972e-08
7.55337e-08
-6.32171e-09
7.09194e-09
7.27154e-08
-6.47044e-09
2.83043e-09
6.90761e-08
-6.59672e-09
-6.7972e-10
6.43129e-08
-6.73547e-09
-2.92576e-09
5.80127e-08
-7.01294e-09
-3.20906e-09
4.96356e-08
-7.51714e-09
3.12057e-08
-7.59823e-09
-5.35994e-10
3.42205e-08
5.27945e-09
3.44951e-10
5.41205e-08
4.45805e-09
2.16464e-09
6.33966e-08
3.74614e-09
4.50575e-09
7.04893e-08
3.32136e-09
7.13113e-09
7.59296e-08
3.00143e-09
9.9139e-09
8.0097e-08
2.68473e-09
1.27578e-08
8.3285e-08
2.34216e-09
1.55825e-08
8.571e-08
1.9795e-09
1.83072e-08
8.75414e-08
1.59542e-09
2.08648e-08
8.89061e-08
1.19661e-09
2.31899e-08
8.99058e-08
7.82927e-10
2.52367e-08
9.06174e-08
3.62107e-10
2.69604e-08
9.11036e-08
-6.29542e-11
2.83258e-08
9.1412e-08
-4.76667e-10
2.93054e-08
9.15811e-08
-8.84308e-10
2.98838e-08
9.16421e-08
-1.27621e-09
3.00491e-08
9.16175e-08
-1.65135e-09
2.97936e-08
9.15218e-08
-2.00227e-09
2.91275e-08
9.13639e-08
-2.32847e-09
2.80515e-08
9.11468e-08
-2.62531e-09
2.65871e-08
9.0866e-08
-2.89403e-09
2.47507e-08
9.05115e-08
-3.13187e-09
2.25761e-08
9.00629e-08
-3.34156e-09
2.00965e-08
8.94919e-08
-3.52202e-09
1.73614e-08
8.87553e-08
-3.67727e-09
1.44236e-08
8.77971e-08
-3.80769e-09
1.13626e-08
8.65376e-08
-3.91849e-09
8.25665e-09
8.48739e-08
-4.01173e-09
5.22122e-09
8.26634e-08
-4.09369e-09
2.38203e-09
7.97207e-08
-4.16577e-09
-9.90212e-11
7.57907e-08
-4.23259e-09
-2.01464e-09
7.05412e-08
-4.31429e-09
-3.01803e-09
6.35129e-08
-4.49649e-09
-2.66639e-09
5.41079e-08
-4.82448e-09
3.33806e-08
-4.84066e-09
-5.18668e-10
3.1435e-08
3.30482e-09
-5.40105e-10
5.13017e-08
2.83882e-09
-1.50046e-10
6.05555e-08
2.45252e-09
4.6809e-10
6.76525e-08
2.21739e-09
1.24006e-09
7.31265e-08
2.03231e-09
2.12519e-09
7.73709e-08
1.84049e-09
3.09925e-09
8.06771e-08
1.6345e-09
4.13027e-09
8.32659e-08
1.41323e-09
5.18544e-09
8.53019e-08
1.18296e-09
6.23868e-09
8.69115e-08
9.43221e-10
7.25292e-09
8.81896e-08
7.00497e-10
8.20529e-09
8.92098e-08
4.55365e-10
9.06814e-09
9.00276e-08
2.13687e-10
9.8159e-09
9.06861e-08
-2.06005e-11
1.04191e-08
9.12172e-08
-2.40487e-10
1.08647e-08
9.16443e-08
-4.46902e-10
1.11326e-08
9.1984e-08
-6.36559e-10
1.12194e-08
9.22463e-08
-8.09089e-10
1.11074e-08
9.2435e-08
-9.60371e-10
1.07984e-08
9.25492e-08
-1.09245e-09
1.02847e-08
9.25812e-08
-1.20217e-09
9.57624e-09
9.25144e-08
-1.293e-09
8.67887e-09
9.23245e-08
-1.36387e-09
7.61184e-09
9.19772e-08
-1.41947e-09
6.40227e-09
9.14258e-08
-1.45975e-09
5.08109e-09
9.06075e-08
-1.49036e-09
3.69112e-09
8.94388e-08
-1.51212e-09
2.29037e-09
8.78089e-08
-1.5316e-09
9.32741e-10
8.557e-08
-1.55031e-09
-2.97158e-10
8.25269e-08
-1.57426e-09
-1.32165e-09
7.84171e-08
-1.60402e-09
-2.01663e-09
7.28947e-08
-1.65668e-09
-2.21164e-09
6.5488e-08
-1.78095e-09
-1.67649e-09
5.55729e-08
-2.00138e-09
3.37621e-08
-2.05672e-09
-1.20846e-09
2.98043e-08
2.83858e-09
-2.2285e-09
4.95293e-08
2.79187e-09
-3.06142e-09
5.86957e-08
2.69486e-09
-3.75915e-09
6.57152e-08
2.63457e-09
-4.32038e-09
7.1124e-08
2.56372e-09
-4.7425e-09
7.53178e-08
2.47256e-09
-5.01264e-09
7.85908e-08
2.35924e-09
-5.14321e-09
8.11636e-08
2.23155e-09
-5.13535e-09
8.32024e-08
2.0912e-09
-4.99929e-09
8.48319e-08
1.94521e-09
-4.75289e-09
8.61475e-08
1.79469e-09
-4.4103e-09
8.72203e-08
1.64657e-09
-3.98827e-09
8.81055e-08
1.50168e-09
-3.5122e-09
8.88433e-08
1.36645e-09
-3.00041e-09
8.9465e-08
1.24077e-09
-2.48e-09
8.99904e-08
1.13105e-09
-1.96269e-09
9.04344e-08
1.03617e-09
-1.48171e-09
9.08039e-08
9.60451e-10
-1.05023e-09
9.1101e-08
9.01675e-10
-6.81623e-10
9.13202e-08
8.62728e-10
-3.92304e-10
9.14513e-08
8.38379e-10
-1.82759e-10
9.14754e-08
8.30461e-10
-5.92614e-11
9.13669e-08
8.33913e-10
-1.89757e-11
9.10887e-08
8.49115e-10
-5.7568e-11
9.05928e-08
8.69843e-10
-1.57481e-10
8.98145e-08
8.95582e-10
-3.08965e-10
8.86697e-08
9.19244e-10
-4.87074e-10
8.7047e-08
9.39543e-10
-6.67019e-10
8.48002e-08
9.48707e-10
-8.2019e-10
8.17354e-08
9.45292e-10
-9.19215e-10
7.75954e-08
9.21414e-10
-9.32565e-10
7.20392e-08
8.68297e-10
-8.01829e-10
6.46078e-08
7.49286e-10
-4.70598e-10
5.46898e-08
5.52603e-10
3.29486e-08
3.42024e-10
-1.86033e-09
2.86762e-08
2.98785e-09
-3.51351e-09
4.78938e-08
3.28933e-09
-5.02692e-09
5.68046e-08
3.40485e-09
-6.39394e-09
6.36139e-08
3.46824e-09
-7.59473e-09
6.88432e-08
3.48139e-09
-8.61285e-09
7.28812e-08
3.45459e-09
-9.43762e-09
7.60163e-08
3.40017e-09
-1.00651e-08
7.84672e-08
3.3228e-09
-1.04907e-08
8.03964e-08
3.23178e-09
-1.07181e-08
8.1929e-08
3.12987e-09
-1.07549e-08
8.31574e-08
3.0251e-09
-1.06061e-08
8.41546e-08
2.91923e-09
-1.02926e-08
8.49732e-08
2.81946e-09
-9.83285e-09
8.56552e-08
2.72658e-09
-9.24394e-09
8.62295e-08
2.64681e-09
-8.5534e-09
8.67185e-08
2.57971e-09
-7.7806e-09
8.71347e-08
2.53017e-09
-6.96216e-09
8.74865e-08
2.49615e-09
-6.11599e-09
8.77734e-08
2.48092e-09
-5.26578e-09
8.79901e-08
2.48129e-09
-4.436e-09
8.81218e-08
2.4994e-09
-3.64357e-09
8.81515e-08
2.52994e-09
-2.89925e-09
8.80503e-08
2.57334e-09
-2.21607e-09
8.77832e-08
2.62309e-09
-1.60341e-09
8.73e-08
2.67854e-09
-1.05987e-09
8.6539e-08
2.73224e-09
-5.87638e-10
8.54158e-08
2.78266e-09
-1.87787e-10
8.38246e-08
2.82149e-09
1.4303e-10
8.16226e-08
2.84626e-09
4.051e-10
7.86264e-08
2.84784e-09
5.87744e-10
7.45895e-08
2.82252e-09
6.81473e-10
6.91893e-08
2.75495e-09
6.7893e-10
6.19914e-08
2.62072e-09
5.5207e-10
5.24183e-08
2.39703e-09
3.14956e-08
2.00583e-09
-2.06761e-09
2.78324e-08
2.91036e-09
-3.94658e-09
4.63696e-08
3.40495e-09
-5.72066e-09
5.49484e-08
3.62865e-09
-7.3444e-09
6.14851e-08
3.75473e-09
-8.79255e-09
6.64839e-08
3.80475e-09
-1.0035e-08
7.03173e-08
3.80733e-09
-1.10608e-08
7.32683e-08
3.77356e-09
-1.18564e-08
7.55475e-08
3.71501e-09
-1.24112e-08
7.73169e-08
3.63675e-09
-1.273e-08
7.86972e-08
3.54812e-09
-1.2808e-08
7.97832e-08
3.45265e-09
-1.26555e-08
8.06449e-08
3.35838e-09
-1.22892e-08
8.13383e-08
3.26761e-09
-1.17237e-08
8.19037e-08
3.18734e-09
-1.09876e-08
8.23734e-08
3.11856e-09
-1.01036e-08
8.27677e-08
3.06693e-09
-9.10289e-09
8.31027e-08
3.03184e-09
-8.0167e-09
8.33838e-08
3.01729e-09
-6.87987e-09
8.36136e-08
3.02083e-09
-5.71588e-09
8.37846e-08
3.04468e-09
-4.56554e-09
8.3886e-08
3.08453e-09
-3.45134e-09
8.38964e-08
3.14086e-09
-2.39837e-09
8.37901e-08
3.20769e-09
-1.42801e-09
8.35283e-08
3.28401e-09
-5.53672e-10
8.30647e-08
3.36255e-09
2.07691e-10
8.23349e-08
3.44117e-09
8.51701e-10
8.12608e-08
3.51159e-09
1.36971e-09
7.97367e-08
3.57069e-09
1.75268e-09
7.76301e-08
3.60912e-09
1.99303e-09
7.47633e-08
3.62262e-09
2.07591e-09
7.09078e-08
3.60004e-09
1.97563e-09
6.57561e-08
3.53135e-09
1.67566e-09
5.89064e-08
3.38746e-09
1.13339e-09
4.98157e-08
3.14454e-09
2.99885e-08
2.63984e-09
-1.78059e-09
2.73622e-08
2.25018e-09
-3.53456e-09
4.53728e-08
2.75162e-09
-5.26402e-09
5.36887e-08
2.98879e-09
-6.89359e-09
6.00023e-08
3.11221e-09
-8.3672e-09
6.48011e-08
3.1574e-09
-9.65121e-09
6.84492e-08
3.15115e-09
-1.07138e-08
7.12219e-08
3.10955e-09
-1.15342e-08
7.33287e-08
3.03951e-09
-1.20961e-08
7.49279e-08
2.95103e-09
-1.23922e-08
7.61431e-08
2.8493e-09
-1.24178e-08
7.70672e-08
2.74323e-09
-1.21855e-08
7.77749e-08
2.63677e-09
-1.17061e-08
7.83213e-08
2.53773e-09
-1.10028e-08
7.87516e-08
2.44888e-09
-1.01029e-08
7.90971e-08
2.37671e-09
-9.0397e-09
7.93832e-08
2.32242e-09
-7.85406e-09
7.96242e-08
2.29077e-09
-6.58002e-09
7.98301e-08
2.28095e-09
-5.26259e-09
8.00006e-08
2.29566e-09
-3.94186e-09
8.01317e-08
2.33194e-09
-2.65516e-09
8.02093e-08
2.39038e-09
-1.44045e-09
8.02149e-08
2.46595e-09
-3.24259e-10
8.01184e-08
2.55737e-09
6.61296e-10
7.9884e-08
2.65789e-09
1.49936e-09
7.94612e-08
2.76473e-09
2.17606e-09
7.87895e-08
2.86988e-09
2.67945e-09
7.77874e-08
2.96952e-09
3.00578e-09
7.63555e-08
3.05474e-09
3.15478e-09
7.4361e-08
3.12078e-09
3.12144e-09
7.16365e-08
3.15787e-09
2.9132e-09
6.79596e-08
3.15986e-09
2.51524e-09
6.30401e-08
3.11213e-09
1.93507e-09
5.64939e-08
2.99276e-09
1.16859e-09
4.78093e-08
2.77002e-09
2.88735e-08
2.2867e-09
-1.16788e-09
2.74656e-08
1.06502e-09
-2.59977e-09
4.53755e-08
1.42746e-09
-4.13796e-09
5.3623e-08
1.60366e-09
-5.66634e-09
5.9853e-08
1.67925e-09
-7.1033e-09
6.45536e-08
1.68363e-09
-8.38474e-09
6.80867e-08
1.64351e-09
-9.46302e-09
7.07316e-08
1.56894e-09
-1.0302e-08
7.2698e-08
1.46949e-09
-1.08746e-08
7.41497e-08
1.35086e-09
-1.11657e-08
7.52111e-08
1.22257e-09
-1.11694e-08
7.59812e-08
1.09006e-09
-1.08908e-08
7.65354e-08
9.60887e-10
-1.03442e-08
7.69359e-08
8.39464e-10
-9.5552e-09
7.72286e-08
7.33588e-10
-8.55715e-09
7.74515e-08
6.4627e-10
-7.38518e-09
7.76297e-08
5.83286e-10
-6.09125e-09
7.77827e-08
5.4576e-10
-4.71476e-09
7.79192e-08
5.37238e-10
-3.31499e-09
7.80428e-08
5.56493e-10
-1.93454e-09
7.81467e-08
6.04603e-10
-6.22761e-10
7.82194e-08
6.77851e-10
5.7804e-10
7.8238e-08
7.74922e-10
1.6337e-09
7.81743e-08
8.89906e-10
2.5111e-09
7.79869e-08
1.01952e-09
3.18933e-09
7.76266e-08
1.15626e-09
3.6559e-09
7.70272e-08
1.29559e-09
3.90643e-09
7.61089e-08
1.42903e-09
3.94216e-09
7.47671e-08
1.55127e-09
3.7783e-09
7.28721e-08
1.6534e-09
3.43212e-09
7.02534e-08
1.73001e-09
2.92445e-09
6.66941e-08
1.77196e-09
2.28856e-09
6.19054e-08
1.77093e-09
1.56601e-09
5.55135e-08
1.70571e-09
8.06286e-10
4.70147e-08
1.55249e-09
2.84672e-08
1.21246e-09
-4.96415e-10
2.82608e-08
-2.98683e-10
-1.56358e-09
4.65906e-08
-1.49087e-10
-2.87815e-09
5.50051e-08
-6.62131e-11
-4.29021e-09
6.13264e-08
-6.09976e-11
-5.68255e-09
6.6055e-08
-1.10301e-10
-6.96592e-09
6.95678e-08
-1.97403e-10
-8.07258e-09
7.21514e-08
-3.12935e-10
-8.94793e-09
7.40268e-08
-4.52279e-10
-9.55601e-09
7.53634e-08
-6.07837e-10
-9.86617e-09
7.62957e-08
-7.74151e-10
-9.87013e-09
7.69273e-08
-9.42284e-10
-9.5718e-09
7.73428e-08
-1.105e-09
-8.99074e-09
7.76074e-08
-1.25415e-09
-8.14941e-09
7.77747e-08
-1.3852e-09
-7.09133e-09
7.78839e-08
-1.49126e-09
-5.85871e-09
7.79667e-08
-1.56928e-09
-4.50286e-09
7.80426e-08
-1.61461e-09
-3.08374e-09
7.81247e-08
-1.6266e-09
-1.65244e-09
7.82148e-08
-1.60334e-09
-2.66797e-10
7.8309e-08
-1.54693e-09
1.01908e-09
7.83917e-08
-1.45822e-09
2.15948e-09
7.84415e-08
-1.34197e-09
3.10807e-09
7.84244e-08
-1.2015e-09
3.84055e-09
7.8299e-08
-1.04369e-09
4.33358e-09
7.8009e-08
-8.73699e-10
4.5722e-09
7.74869e-08
-6.99756e-10
4.56446e-09
7.66452e-08
-5.27824e-10
4.32096e-09
7.53773e-08
-3.66436e-10
3.86874e-09
7.3545e-08
-2.21431e-10
3.24617e-09
7.09754e-08
-1.00339e-10
2.50739e-09
6.74427e-08
-7.40203e-12
1.70917e-09
6.26546e-08
4.81157e-11
9.39566e-10
5.62276e-08
5.55777e-11
3.0391e-10
4.76521e-08
-2.25935e-12
2.88983e-08
-1.27058e-10
3.64204e-11
2.97075e-08
-1.4831e-09
-7.20794e-10
4.88833e-08
-1.5355e-09
-1.83046e-09
5.76629e-08
-1.54692e-09
-3.11957e-09
6.42229e-08
-1.60994e-09
-4.4416e-09
6.90924e-08
-1.71295e-09
-5.69932e-09
7.26681e-08
-1.84439e-09
-6.80182e-09
7.52555e-08
-2.00036e-09
-7.68728e-09
7.70877e-08
-2.17558e-09
-8.30747e-09
7.83481e-08
-2.36512e-09
-8.62864e-09
7.91795e-08
-2.56107e-09
-8.64279e-09
7.96974e-08
-2.75722e-09
-8.34739e-09
7.99929e-08
-2.9454e-09
-7.76054e-09
8.014e-08
-3.11901e-09
-6.91139e-09
8.01959e-08
-3.27022e-09
-5.84178e-09
8.02072e-08
-3.39392e-09
-4.59676e-09
8.0207e-08
-3.48422e-09
-3.23617e-09
8.02202e-08
-3.5384e-09
-1.81792e-09
8.02595e-08
-3.5533e-09
-4.02419e-10
8.03299e-08
-3.52912e-09
9.45254e-10
8.04249e-08
-3.46574e-09
2.17427e-09
8.05302e-08
-3.36637e-09
3.23009e-09
8.06196e-08
-3.23385e-09
4.07153e-09
8.06582e-08
-3.07407e-09
4.66364e-09
8.05978e-08
-2.89221e-09
4.98967e-09
8.03796e-08
-2.69606e-09
5.03988e-09
7.99278e-08
-2.49217e-09
4.82611e-09
7.91503e-08
-2.28904e-09
4.36506e-09
7.79303e-08
-2.09328e-09
3.70053e-09
7.6123e-08
-1.9126e-09
2.88373e-09
7.35428e-08
-1.7518e-09
1.98885e-09
6.9954e-08
-1.61593e-09
1.10394e-09
6.50475e-08
-1.50794e-09
3.43563e-10
5.84231e-08
-1.43556e-09
-1.43441e-10
4.95465e-08
-1.4063e-09
3.00921e-08
-1.33798e-09
3.18151e-10
3.16139e-08
-2.2234e-09
-2.49478e-10
5.18676e-08
-2.41678e-09
-1.21537e-09
6.11209e-08
-2.49426e-09
-2.39148e-09
6.80062e-08
-2.60572e-09
-3.63666e-09
7.30833e-08
-2.74557e-09
-4.83903e-09
7.67774e-08
-2.90899e-09
-5.90182e-09
7.94125e-08
-3.09298e-09
-6.75885e-09
8.12406e-08
-3.2949e-09
-7.36025e-09
8.24573e-08
-3.50906e-09
-7.66998e-09
8.32187e-08
-3.72928e-09
-7.67417e-09
8.36483e-08
-3.94742e-09
-7.37079e-09
8.3847e-08
-4.15623e-09
-6.77855e-09
8.38948e-08
-4.34742e-09
-5.92574e-09
8.38573e-08
-4.51443e-09
-4.85354e-09
8.37845e-08
-4.65037e-09
-3.61144e-09
8.3716e-08
-4.75068e-09
-2.25769e-09
8.36777e-08
-4.81092e-09
-8.54945e-10
8.36863e-08
-4.82934e-09
5.29942e-10
8.37459e-08
-4.80455e-09
1.84589e-09
8.38516e-08
-4.73798e-09
3.02004e-09
8.39855e-08
-4.63142e-09
4.01008e-09
8.41207e-08
-4.48934e-09
4.76471e-09
8.42169e-08
-4.31635e-09
5.26021e-09
8.4223e-08
-4.11939e-09
5.47226e-09
8.40724e-08
-3.90507e-09
5.39672e-09
8.36842e-08
-3.68171e-09
5.04823e-09
8.29565e-08
-3.45663e-09
4.45138e-09
8.17648e-08
-3.23795e-09
3.65435e-09
7.99518e-08
-3.03186e-09
2.72052e-09
7.73207e-08
-2.84395e-09
1.73323e-09
7.36181e-08
-2.67689e-09
7.95096e-10
6.85182e-08
-2.53291e-09
3.88091e-11
6.1594e-08
-2.41432e-09
-3.73739e-10
5.22827e-08
-2.32374e-09
3.18371e-08
-2.11838e-09
3.46696e-10
3.37328e-08
-2.46408e-09
-1.72629e-10
5.50963e-08
-2.71029e-09
-1.08022e-09
6.48428e-08
-2.81542e-09
-2.1975e-09
7.20716e-08
-2.94683e-09
-3.38806e-09
7.73753e-08
-3.10276e-09
-4.53507e-09
8.12045e-08
-3.27977e-09
-5.54918e-09
8.39049e-08
-3.4767e-09
-6.3643e-09
8.57441e-08
-3.69037e-09
-6.92364e-09
8.69327e-08
-3.91619e-09
-7.1943e-09
8.76376e-08
-4.14705e-09
-7.16385e-09
8.79931e-08
-4.37569e-09
-6.83059e-09
8.81077e-08
-4.59369e-09
-6.212e-09
8.80701e-08
-4.79358e-09
-5.33939e-09
8.79509e-08
-4.96772e-09
-4.25076e-09
8.78068e-08
-5.11006e-09
-2.99985e-09
8.76799e-08
-5.215e-09
-1.64317e-09
8.76009e-08
-5.27901e-09
-2.4509e-10
8.75868e-08
-5.29934e-09
1.13327e-09
8.76439e-08
-5.27553e-09
2.42679e-09
8.77654e-08
-5.20804e-09
3.57967e-09
8.79334e-08
-5.09963e-09
4.53637e-09
8.81169e-08
-4.95384e-09
5.25751e-09
8.8273e-08
-4.77628e-09
5.70839e-09
8.83446e-08
-4.57301e-09
5.87194e-09
8.82602e-08
-4.3517e-09
5.74695e-09
8.79307e-08
-4.11987e-09
5.34182e-09
8.7247e-08
-3.88591e-09
4.6889e-09
8.60741e-08
-3.65715e-09
3.83676e-09
8.42445e-08
-3.44062e-09
2.85181e-09
8.1547e-08
-3.24094e-09
1.81886e-09
7.77131e-08
-3.06123e-09
8.42015e-10
7.23962e-08
-2.90223e-09
5.65119e-11
6.51447e-08
-2.76567e-09
-3.72616e-10
5.53646e-08
-2.65144e-09
3.38604e-08
-2.39635e-09
1.97089e-10
3.58076e-08
-2.27281e-09
-3.77254e-10
5.81622e-08
-2.49036e-09
-1.29828e-09
6.83495e-08
-2.586e-09
-2.4021e-09
7.58863e-08
-2.7117e-09
-3.55532e-09
8.13923e-08
-2.8637e-09
-4.65274e-09
8.53422e-08
-3.03838e-09
-5.61375e-09
8.80987e-08
-3.23361e-09
-6.36947e-09
8.99456e-08
-3.4464e-09
-6.86923e-09
9.11051e-08
-3.67144e-09
-7.08655e-09
9.17557e-08
-3.90204e-09
-7.00319e-09
9.20402e-08
-4.13028e-09
-6.62213e-09
9.20761e-08
-4.34823e-09
-5.96375e-09
9.1958e-08
-4.5479e-09
-5.05238e-09
9.17636e-08
-4.7222e-09
-3.93551e-09
9.15535e-08
-4.8646e-09
-2.66121e-09
9.13749e-08
-4.97009e-09
-1.28448e-09
9.12602e-08
-5.03461e-09
1.27841e-10
9.12292e-08
-5.05598e-09
1.51766e-09
9.12881e-08
-5.0332e-09
2.82125e-09
9.14304e-08
-4.96724e-09
3.9764e-09
9.16358e-08
-4.8603e-09
4.94089e-09
9.18715e-08
-4.7164e-09
5.66436e-09
9.209e-08
-4.54058e-09
6.11711e-09
9.22302e-08
-4.33933e-09
6.28328e-09
9.22141e-08
-4.11976e-09
6.15653e-09
9.19467e-08
-3.88988e-09
5.75192e-09
9.13102e-08
-3.65762e-09
5.09598e-09
9.01613e-08
-3.4309e-09
4.23476e-09
8.83212e-08
-3.2164e-09
3.23426e-09
8.55672e-08
-3.0194e-09
2.17547e-09
8.16153e-08
-2.84287e-09
1.15773e-09
7.6102e-08
-2.68864e-09
3.09862e-10
6.85523e-08
-2.55922e-09
-2.16302e-10
5.83455e-08
-2.45707e-09
3.58787e-08
-2.23251e-09
-5.74325e-11
3.76519e-08
-1.78749e-09
-7.58441e-10
6.07807e-08
-1.91693e-09
-1.74453e-09
7.13115e-08
-1.97628e-09
-2.86759e-09
7.90849e-08
-2.07715e-09
-4.00491e-09
8.47418e-08
-2.21101e-09
-5.06527e-09
8.87745e-08
-2.37125e-09
-5.97177e-09
9.15606e-08
-2.55447e-09
-6.668e-09
9.33959e-08
-2.75664e-09
-7.10279e-09
9.45135e-08
-2.97221e-09
-7.25506e-09
9.51007e-08
-3.19406e-09
-7.10895e-09
9.5309e-08
-3.4144e-09
-6.67027e-09
9.52625e-08
-3.62514e-09
-5.95604e-09
9.50627e-08
-3.8186e-09
-4.99849e-09
9.47925e-08
-3.9876e-09
-3.83606e-09
9.45176e-08
-4.12597e-09
-2.52067e-09
9.42884e-08
-4.22858e-09
-1.11042e-09
9.41405e-08
-4.29171e-09
3.36864e-10
9.40951e-08
-4.31295e-09
1.75793e-09
9.41592e-08
-4.2916e-09
3.09071e-09
9.43256e-08
-4.22834e-09
4.2786e-09
9.45727e-08
-4.12556e-09
5.27205e-09
9.48649e-08
-3.98696e-09
6.02912e-09
9.51514e-08
-3.81766e-09
6.51472e-09
9.5366e-08
-3.62381e-09
6.71767e-09
9.5426e-08
-3.41259e-09
6.62858e-09
9.52295e-08
-3.1917e-09
6.25252e-09
9.4652e-08
-2.96921e-09
5.62666e-09
9.3542e-08
-2.75288e-09
4.78491e-09
9.17119e-08
-2.54983e-09
3.78911e-09
8.89282e-08
-2.36557e-09
2.71285e-09
8.48952e-08
-2.2041e-09
1.64959e-09
7.92348e-08
-2.0686e-09
7.10986e-10
7.14545e-08
-1.96487e-09
4.63845e-11
6.09131e-08
-1.90052e-09
3.76889e-08
-1.7651e-09
-3.41416e-10
3.91597e-08
-1.16694e-09
-1.19204e-09
6.28125e-08
-1.17912e-09
-2.2651e-09
7.35721e-08
-1.18845e-09
-3.42265e-09
8.14967e-08
-1.25475e-09
-4.55725e-09
8.72406e-08
-1.36273e-09
-5.58982e-09
9.13086e-08
-1.50198e-09
-6.45041e-09
9.40885e-08
-1.66711e-09
-7.08815e-09
9.58855e-08
-1.85312e-09
-7.45974e-09
9.69408e-08
-2.05386e-09
-7.54619e-09
9.74493e-08
-2.26202e-09
-7.33706e-09
9.75695e-08
-2.46973e-09
-6.8387e-09
9.7432e-08
-2.66909e-09
-6.06608e-09
9.71442e-08
-2.85251e-09
-5.05465e-09
9.67937e-08
-3.01303e-09
-3.84272e-09
9.6451e-08
-3.14466e-09
-2.48173e-09
9.61698e-08
-3.24244e-09
-1.02667e-09
9.59884e-08
-3.30273e-09
4.61152e-10
9.59297e-08
-3.32327e-09
1.92337e-09
9.60011e-08
-3.3033e-09
3.29759e-09
9.61951e-08
-3.24355e-09
4.52953e-09
9.64885e-08
-3.14628e-09
5.56464e-09
9.6843e-08
-3.0151e-09
6.3662e-09
9.72045e-08
-2.85494e-09
6.90141e-09
9.75027e-08
-2.6718e-09
7.15146e-09
9.76496e-08
-2.47262e-09
7.10822e-09
9.75376e-08
-2.26497e-09
6.78119e-09
9.70361e-08
-2.05676e-09
6.19341e-09
9.59863e-08
-1.85581e-09
5.37915e-09
9.41935e-08
-1.66945e-09
4.39636e-09
9.1416e-08
-1.50374e-09
3.30581e-09
8.73488e-08
-1.36369e-09
2.192e-09
8.16038e-08
-1.25447e-09
1.15641e-09
7.36762e-08
-1.18588e-09
3.30676e-10
6.29116e-08
-1.1725e-09
3.91745e-08
-1.15517e-09
-5.91798e-10
4.03089e-08
-5.59005e-10
-1.57768e-09
6.42564e-08
-4.54578e-10
-2.73387e-09
7.5139e-08
-4.132e-10
-3.92898e-09
8.31349e-08
-4.43978e-10
-5.06649e-09
8.89053e-08
-5.24783e-10
-6.08125e-09
9.29619e-08
-6.41464e-10
-6.903e-09
9.56995e-08
-7.86668e-10
-7.49276e-09
9.74297e-08
-9.54511e-10
-7.81383e-09
9.84e-08
-1.1383e-09
-7.84563e-09
9.88117e-08
-1.3306e-09
-7.58227e-09
9.88291e-08
-1.52357e-09
-7.02894e-09
9.85888e-08
-1.70952e-09
-6.20618e-09
9.8203e-08
-1.88103e-09
-5.14656e-09
9.77648e-08
-2.03148e-09
-3.8885e-09
9.73485e-08
-2.15499e-09
-2.48425e-09
9.70117e-08
-2.2469e-09
-9.85914e-10
9.6795e-08
-2.30363e-09
5.43009e-10
9.6723e-08
-2.32309e-09
2.04641e-09
9.68035e-08
-2.30447e-09
3.4609e-09
9.70287e-08
-2.24857e-09
4.73311e-09
9.73738e-08
-2.15744e-09
5.81264e-09
9.7798e-08
-2.03466e-09
6.65861e-09
9.82437e-08
-1.88487e-09
7.2378e-09
9.86366e-08
-1.71394e-09
7.5327e-09
9.88834e-08
-1.52846e-09
7.53652e-09
9.88718e-08
-1.33587e-09
7.24917e-09
9.84651e-08
-1.14381e-09
6.69711e-09
9.7499e-08
-9.60126e-10
5.91126e-09
9.5772e-08
-7.92202e-10
4.93818e-09
9.30369e-08
-6.46714e-10
3.83293e-09
8.89817e-08
-5.295e-10
2.67361e-09
8.3212e-08
-4.47746e-10
1.54887e-09
7.52159e-08
-4.15108e-10
5.82274e-10
6.43323e-08
-4.53161e-10
4.03087e-08
-5.53299e-10
-7.62794e-10
4.11363e-08
-6.51696e-11
-1.84478e-09
6.521e-08
1.29853e-10
-3.05659e-09
7.61371e-08
2.12601e-10
-4.27642e-09
8.41432e-08
2.11856e-10
-5.4186e-09
8.98923e-08
1.54771e-10
-6.41651e-09
9.38997e-08
5.89436e-11
-7.21301e-09
9.65645e-08
-6.7642e-11
-7.76689e-09
9.82027e-08
-2.18295e-10
-8.04893e-09
9.90674e-08
-3.85363e-10
-8.04121e-09
9.93645e-08
-5.61548e-10
-7.73655e-09
9.92645e-08
-7.39308e-10
-7.14436e-09
9.89089e-08
-9.10917e-10
-6.28942e-09
9.84156e-08
-1.06989e-09
-5.19702e-09
9.78817e-08
-1.20961e-09
-3.91009e-09
9.73863e-08
-1.32458e-09
-2.47601e-09
9.69898e-08
-1.41017e-09
-9.56036e-10
9.67357e-08
-1.46311e-09
6.00111e-10
9.66499e-08
-1.48125e-09
2.12503e-09
9.67412e-08
-1.46399e-09
3.56518e-09
9.70007e-08
-1.41192e-09
4.86401e-09
9.74026e-08
-1.32717e-09
5.97042e-09
9.79032e-08
-1.21299e-09
6.84687e-09
9.8442e-08
-1.074e-09
7.45866e-09
9.894e-08
-9.15695e-10
7.78781e-09
9.92998e-08
-7.44664e-10
7.82271e-09