/*--------------------------------*- C++ -*----------------------------------*\
| =========                 |                                                 |
| \\      /  F ield         | OpenFOAM: The Open Source CFD Toolbox           |
|  \\    /   O peration     | Version:  v2012                                 |
|   \\  /    A nd           | Website:  www.openfoam.com                      |
|    \\/     M anipulation  |                                                 |
\*---------------------------------------------------------------------------*/
FoamFile
{
    version     2.0;
    format      ascii;
    class       volVectorField;
    location    "43";
    object      U;
}
// * * * * * * * * * * * * * * * * * * * * * * * * * * * * * * * * * * * * * //

dimensions      [0 1 -1 0 0 0 0];


internalField   nonuniform List<vector> 
78750
(
(-3.31488e-06 -9.24234e-05 9.06076e-05)
(-1.29784e-05 -0.000113 0.000156566)
(-3.55947e-05 -0.000101796 0.00019295)
(-6.71636e-05 -7.7272e-05 0.000221456)
(-0.000106013 -4.65281e-05 0.00024434)
(-0.000150604 -1.34837e-05 0.000263139)
(-0.000199374 1.88781e-05 0.000278466)
(-0.000250591 4.88444e-05 0.000290485)
(-0.000302683 7.50163e-05 0.000298864)
(-0.000354182 9.68934e-05 0.000303159)
(-0.000403783 0.000114018 0.000302747)
(-0.000450349 0.000126501 0.000297122)
(-0.000492857 0.000134331 0.00028586)
(-0.000530496 0.000137872 0.000268754)
(-0.000562503 0.000137369 0.000245895)
(-0.000588397 0.000133329 0.000217509)
(-0.00060762 0.000126196 0.000184502)
(-0.000619917 0.000116524 0.000147698)
(-0.000625254 0.000104431 0.000107148)
(-0.000623476 9.05415e-05 6.44939e-05)
(-0.000614628 7.51991e-05 2.10073e-05)
(-0.000598909 5.87863e-05 -2.21076e-05)
(-0.000576534 4.161e-05 -6.35501e-05)
(-0.000547854 2.40196e-05 -0.000102075)
(-0.000513251 6.32581e-06 -0.000136449)
(-0.000473213 -1.10996e-05 -0.000165501)
(-0.00042827 -2.78651e-05 -0.000188131)
(-0.000379043 -4.34873e-05 -0.0002033)
(-0.00032625 -5.73803e-05 -0.000210088)
(-0.000270703 -6.8782e-05 -0.000207762)
(-0.000213109 -7.67166e-05 -0.000195794)
(-0.000154008 -7.98738e-05 -0.000174074)
(-9.53181e-05 -7.64516e-05 -0.000142934)
(-4.81174e-05 -6.4252e-05 -0.000103821)
(-1.47369e-05 -3.47016e-05 -4.30996e-05)
(-1.26974e-05 0.000260928 -0.000336583)
(-4.89431e-05 0.000521306 -0.00045633)
(-9.26528e-05 0.000650493 -0.000491707)
(-0.000153827 0.000746842 -0.000525174)
(-0.000217293 0.000814037 -0.000553454)
(-0.000279233 0.00085511 -0.000574175)
(-0.000338014 0.000874901 -0.000588403)
(-0.000392462 0.000875735 -0.000598293)
(-0.00044112 0.000861858 -0.000604438)
(-0.00048366 0.000834773 -0.000608166)
(-0.000519318 0.000798095 -0.000609698)
(-0.000548007 0.000753117 -0.000609932)
(-0.00056971 0.0007027 -0.000608964)
(-0.000584453 0.00064783 -0.000607445)
(-0.000592691 0.000590245 -0.000605682)
(-0.000594709 0.000530861 -0.000603877)
(-0.000590855 0.000471353 -0.000601932)
(-0.000581566 0.000412156 -0.0006001)
(-0.00056729 0.000354445 -0.0005982)
(-0.000548484 0.000298443 -0.00059636)
(-0.000525614 0.000244892 -0.000594426)
(-0.000499125 0.000193883 -0.00059235)
(-0.000469466 0.000145862 -0.000589842)
(-0.000437058 0.000100844 -0.000586758)
(-0.000402317 5.90948e-05 -0.000582746)
(-0.000365626 2.06211e-05 -0.000577456)
(-0.000327381 -1.43994e-05 -0.000570299)
(-0.000287957 -4.59053e-05 -0.000560497)
(-0.000247727 -7.37065e-05 -0.000546848)
(-0.000207071 -9.75956e-05 -0.000527638)
(-0.000166152 -0.000117174 -0.000500491)
(-0.000124604 -0.000131624 -0.000460816)
(-8.27792e-05 -0.000139014 -0.000397378)
(-4.98013e-05 -0.000134203 -0.000295841)
(-2.54232e-05 -8.27744e-05 -9.29174e-05)
(-1.1337e-05 0.000531585 -0.000145899)
(-3.49724e-05 0.00092532 -0.00022201)
(-5.77876e-05 0.00109303 -0.000253226)
(-8.96472e-05 0.00120515 -0.000276031)
(-0.000121275 0.00127204 -0.000294902)
(-0.000151099 0.00130458 -0.000311235)
(-0.000178614 0.00130846 -0.000326725)
(-0.000203474 0.0012908 -0.000341458)
(-0.000225172 0.00125509 -0.000356193)
(-0.000243395 0.00120642 -0.00037033)
(-0.000258026 0.00114711 -0.000384161)
(-0.000269039 0.00108105 -0.000396877)
(-0.000276558 0.00100984 -0.000408592)
(-0.000280776 0.000936322 -0.000418611)
(-0.000281884 0.000861547 -0.000427373)
(-0.000280186 0.000787389 -0.000434403)
(-0.000275987 0.000714256 -0.000439967)
(-0.000269542 0.000643367 -0.000443845)
(-0.000261091 0.00057483 -0.000446389)
(-0.000250936 0.000509688 -0.000447315)
(-0.000239291 0.000447897 -0.000446939)
(-0.000226365 0.000389895 -0.00044521)
(-0.000212369 0.000335577 -0.000442343)
(-0.000197468 0.000285148 -0.000438279)
(-0.000181839 0.000238493 -0.000433103)
(-0.000165576 0.000195815 -0.000426578)
(-0.00014884 0.000157015 -0.000418563)
(-0.000131743 0.000122134 -0.0004086)
(-0.000114411 9.11592e-05 -0.000396033)
(-9.69411e-05 6.4219e-05 -0.000379686)
(-7.93672e-05 4.1479e-05 -0.000357704)
(-6.14107e-05 2.32878e-05 -0.000326559)
(-4.28681e-05 1.00234e-05 -0.000279938)
(-2.68839e-05 2.56234e-06 -0.000210825)
(-1.58178e-05 2.93093e-06 -6.07045e-05)
(-1.46814e-05 0.000647215 0.000171103)
(-3.05765e-05 0.00106905 0.000173195)
(-4.04052e-05 0.0012513 0.000147718)
(-5.33819e-05 0.00137325 0.000124195)
(-6.46041e-05 0.00144817 0.000105547)
(-7.4439e-05 0.00148502 8.62792e-05)
(-8.32471e-05 0.00149229 6.48074e-05)
(-9.11384e-05 0.00147512 3.99626e-05)
(-9.79478e-05 0.00143952 1.24691e-05)
(-0.00010353 0.00138892 -1.77881e-05)
(-0.000107628 0.00132822 -4.92591e-05)
(-0.000110199 0.00125996 -8.13773e-05)
(-0.00011127 0.00118762 -0.000112666)
(-0.00011116 0.00111251 -0.000143004)
(-0.000109866 0.00103724 -0.000171001)
(-0.000107591 0.000962525 -0.000196448)
(-0.000104528 0.000889767 -0.000219037)
(-0.000100838 0.000819161 -0.000239085)
(-9.66717e-05 0.000751624 -0.000256436)
(-9.21451e-05 0.000687147 -0.000271408)
(-8.73726e-05 0.00062631 -0.000283891)
(-8.24817e-05 0.000569006 -0.000294152)
(-7.74959e-05 0.000515339 -0.000302224)
(-7.25253e-05 0.000465072 -0.000308372)
(-6.75971e-05 0.0004183 -0.000312562)
(-6.28246e-05 0.00037488 -0.000314866)
(-5.81664e-05 0.000334823 -0.000315131)
(-5.36001e-05 0.000297847 -0.000313348)
(-4.90587e-05 0.000263788 -0.0003092)
(-4.44472e-05 0.000232285 -0.000302328)
(-3.9535e-05 0.000202991 -0.000292066)
(-3.38102e-05 0.00017541 -0.000278287)
(-2.63816e-05 0.000148852 -0.000261053)
(-1.82561e-05 0.000122791 -0.000234163)
(-1.22264e-05 7.93547e-05 -0.00013229)
(-1.50777e-05 0.000623377 0.000314163)
(-2.49232e-05 0.000978959 0.000351806)
(-2.59548e-05 0.00113572 0.000327347)
(-2.53286e-05 0.001245 0.000304273)
(-2.14645e-05 0.00131622 0.000288024)
(-1.59323e-05 0.0013576 0.000272923)
(-9.8162e-06 0.00137432 0.000255662)
(-3.68296e-06 0.00137202 0.000236208)
(2.5888e-06 0.00135352 0.00021326)
(8.62931e-06 0.00132203 0.000185752)
(1.42624e-05 0.00127968 0.000153418)
(1.95234e-05 0.00123061 0.000119099)
(2.44084e-05 0.00117738 8.52454e-05)
(2.84632e-05 0.00112232 5.32001e-05)
(3.18822e-05 0.00106619 2.30474e-05)
(3.45096e-05 0.00101057 -5.20035e-06)
(3.64049e-05 0.000955746 -3.14587e-05)
(3.76198e-05 0.000902677 -5.54246e-05)
(3.80917e-05 0.000851444 -7.7202e-05)
(3.78553e-05 0.000802634 -9.66454e-05)
(3.68883e-05 0.000756163 -0.000113893)
(3.52278e-05 0.000712358 -0.000128873)
(3.28561e-05 0.000670996 -0.000141766)
(2.98022e-05 0.000632261 -0.000152494)
(2.60905e-05 0.000595867 -0.000161194)
(2.17679e-05 0.00056177 -0.000167866)
(1.68935e-05 0.000529426 -0.000172742)
(1.16185e-05 0.000498345 -0.000175986)
(6.11402e-06 0.000467743 -0.000177812)
(6.04679e-07 0.000436913 -0.000178226)
(-4.58563e-06 0.000404576 -0.000177626)
(-8.89651e-06 0.000369312 -0.000177898)
(-1.10768e-05 0.000328837 -0.00018315)
(-9.94733e-06 0.000280454 -0.000188065)
(-8.43284e-06 0.000181676 -0.000131789)
(-9.23948e-06 0.000553761 0.000324591)
(-1.18612e-05 0.000833981 0.000357309)
(-8.77884e-06 0.000961261 0.000330742)
(-2.26387e-06 0.00105365 0.000307822)
(7.1069e-06 0.00111871 0.000293114)
(1.78929e-05 0.00116113 0.00028012)
(2.92323e-05 0.00118575 0.000265261)
(4.06005e-05 0.001195 0.000247764)
(5.16361e-05 0.00119253 0.000228063)
(6.19727e-05 0.00118064 0.000206766)
(7.11311e-05 0.00116194 0.000184321)
(7.88084e-05 0.00113754 0.000160849)
(8.50488e-05 0.00110942 0.000136939)
(8.98223e-05 0.00107848 0.000112993)
(9.31591e-05 0.00104613 8.95034e-05)
(9.51769e-05 0.00101278 6.68368e-05)
(9.58784e-05 0.000979478 4.52739e-05)
(9.53099e-05 0.000946395 2.49146e-05)
(9.3583e-05 0.000914214 6.03217e-06)
(9.07113e-05 0.000882956 -1.13345e-05)
(8.6792e-05 0.000853035 -2.70241e-05)
(8.18527e-05 0.000824286 -4.10843e-05)
(7.59894e-05 0.00079689 -5.3433e-05)
(6.92451e-05 0.000770516 -6.41907e-05)
(6.17404e-05 0.000745113 -7.33428e-05)
(5.35621e-05 0.000720136 -8.10893e-05)
(4.48745e-05 0.000695223 -8.75062e-05)
(3.58247e-05 0.000669488 -9.29129e-05)
(2.66508e-05 0.000642086 -9.7481e-05)
(1.75966e-05 0.000611549 -0.000101586)
(9.01063e-06 0.000576183 -0.000105779)
(1.41385e-06 0.000533469 -0.000112651)
(-3.99643e-06 0.000480162 -0.000127084)
(-5.59648e-06 0.000411831 -0.000144715)
(-5.80065e-06 0.000264756 -0.000113906)
(-3.95442e-06 0.000466495 0.000253871)
(-2.54984e-06 0.000702069 0.000266289)
(1.06355e-06 0.000810677 0.000239004)
(7.66495e-06 0.000892181 0.000216058)
(1.60122e-05 0.000952508 0.000201484)
(2.50992e-05 0.000996306 0.00018984)
(3.44713e-05 0.00102676 0.000178406)
(4.37253e-05 0.00104684 0.000166569)
(5.25453e-05 0.00105825 0.000154053)
(6.06502e-05 0.00106302 0.00014086)
(6.78713e-05 0.00106215 0.000126939)
(7.41014e-05 0.00105717 0.000112486)
(7.92413e-05 0.00104871 9.76313e-05)
(8.32446e-05 0.0010379 8.27056e-05)
(8.60828e-05 0.00102512 6.78512e-05)
(8.77499e-05 0.00101124 5.33714e-05)
(8.82758e-05 0.000996395 3.94136e-05)
(8.76687e-05 0.000981264 2.62168e-05)
(8.59598e-05 0.000965851 1.38299e-05)
(8.32179e-05 0.000950585 2.44442e-06)
(7.94717e-05 0.000935315 -7.96077e-06)
(7.48055e-05 0.000920274 -1.72618e-05)
(6.92677e-05 0.000905138 -2.55455e-05)
(6.29565e-05 0.000889915 -3.27518e-05)
(5.59546e-05 0.000874058 -3.90348e-05)
(4.83818e-05 0.000857284 -4.43994e-05)
(4.03709e-05 0.000838707 -4.90789e-05)
(3.20987e-05 0.000817576 -5.31787e-05)
(2.37721e-05 0.000792412 -5.70223e-05)
(1.56393e-05 0.000761666 -6.07703e-05)
(8.00564e-06 0.000722795 -6.50628e-05)
(1.32247e-06 0.000672838 -7.18585e-05)
(-3.43445e-06 0.000607313 -8.52803e-05)
(-4.9602e-06 0.000520685 -0.000101715)
(-4.84037e-06 0.000330337 -8.16203e-05)
(-1.72197e-06 0.000403837 0.000170772)
(-4.43164e-08 0.000626323 0.000172133)
(1.83524e-06 0.000730134 0.000151554)
(5.34433e-06 0.000809254 0.000134256)
(9.58158e-06 0.000869681 0.000122758)
(1.41682e-05 0.000915357 0.000113416)
(1.88949e-05 0.000949828 0.000104565)
(2.36607e-05 0.000975264 9.57039e-05)
(2.83212e-05 0.000993853 8.68041e-05)
(3.27575e-05 0.00100679 7.77298e-05)
(3.68594e-05 0.00101551 6.85743e-05)
(4.05268e-05 0.00102068 5.93077e-05)
(4.36981e-05 0.00102328 5.01184e-05)
(4.62868e-05 0.00102366 4.10201e-05)
(4.82437e-05 0.00102254 3.2247e-05)
(4.95818e-05 0.00102005 2.38114e-05)
(5.01941e-05 0.00101676 1.58592e-05)
(5.0117e-05 0.00101261 8.43008e-06)
(4.93565e-05 0.001008 1.69168e-06)
(4.78955e-05 0.00100273 -4.42703e-06)
(4.57744e-05 0.000997059 -9.79842e-06)
(4.30076e-05 0.000990639 -1.45403e-05)
(3.96503e-05 0.000983535 -1.85684e-05)
(3.57479e-05 0.00097521 -2.20469e-05)
(3.13756e-05 0.000965472 -2.49328e-05)
(2.66133e-05 0.000953483 -2.74376e-05)
(2.15731e-05 0.000938647 -2.9568e-05)
(1.63857e-05 0.000919621 -3.15975e-05)
(1.12097e-05 0.000895118 -3.3579e-05)
(6.24008e-06 0.000862906 -3.58028e-05)
(1.69609e-06 0.000820466 -3.85082e-05)
(-2.07756e-06 0.000763988 -4.31345e-05)
(-4.44508e-06 0.000688714 -5.21735e-05)
(-4.78966e-06 0.000587973 -6.31342e-05)
(-3.90142e-06 0.000365942 -4.87945e-05)
(-1.40344e-06 0.000363695 0.000111433)
(-8.32645e-07 0.000584773 0.000113834)
(-6.30003e-07 0.000687929 0.000103252)
(1.71784e-07 0.000767283 9.38638e-05)
(1.34875e-06 0.000828389 8.70866e-05)
(2.75582e-06 0.000875786 8.12528e-05)
(4.31783e-06 0.000912489 7.5468e-05)
(6.00434e-06 0.000941172 6.96689e-05)
(7.75596e-06 0.000963436 6.37653e-05)
(9.53046e-06 0.000980927 5.78789e-05)
(1.12667e-05 0.000994474 5.19555e-05)
(1.29235e-05 0.00100515 4.61708e-05)
(1.44478e-05 0.00101334 4.04983e-05)
(1.58083e-05 0.0010198 3.51331e-05)
(1.69511e-05 0.00102464 3.00463e-05)
(1.78273e-05 0.00102843 2.53932e-05)
(1.84316e-05 0.00103111 2.11257e-05)
(1.87382e-05 0.00103307 1.74105e-05)
(1.87183e-05 0.0010341 1.41428e-05)
(1.83798e-05 0.00103447 1.14418e-05)
(1.76909e-05 0.00103383 9.21496e-06)
(1.66693e-05 0.00103229 7.54525e-06)
(1.53242e-05 0.00102934 6.24826e-06)
(1.36769e-05 0.00102487 5.37786e-06)
(1.17655e-05 0.00101812 4.71994e-06)
(9.63661e-06 0.00100866 4.29587e-06)
(7.35451e-06 0.000995325 3.85787e-06)
(4.9993e-06 0.000977149 3.38835e-06)
(2.6687e-06 0.000952229 2.60929e-06)
(4.6794e-07 0.000918658 1.48953e-06)
(-1.46671e-06 0.000873251 -3.65722e-07)
(-2.95239e-06 0.0008124 -3.68563e-06)
(-3.6417e-06 0.000730593 -1.02191e-05)
(-3.33321e-06 0.000621142 -1.84033e-05)
(-2.36564e-06 0.000379947 -1.39007e-05)
(-2.12621e-06 0.000341712 7.75148e-05)
(-2.95673e-06 0.000563417 8.8578e-05)
(-4.30194e-06 0.000666742 8.82456e-05)
(-5.71474e-06 0.000745998 8.64653e-05)
(-6.81789e-06 0.000807226 8.44835e-05)
(-7.63856e-06 0.000854675 8.19506e-05)
(-8.21525e-06 0.000891844 7.89102e-05)
(-8.54664e-06 0.000920996 7.5394e-05)
(-8.64779e-06 0.000944209 7.16425e-05)
(-8.52158e-06 0.000962661 6.76789e-05)
(-8.19683e-06 0.000977645 6.37174e-05)
(-7.69519e-06 0.000989734 5.97617e-05)
(-7.05036e-06 0.00099978 5.60174e-05)
(-6.2909e-06 0.001008 5.24658e-05)
(-5.44855e-06 0.00101499 4.92913e-05)
(-4.57637e-06 0.00102071 4.64808e-05)
(-3.7012e-06 0.0010256 4.41958e-05)
(-2.8532e-06 0.00102947 4.23565e-05)
(-2.08231e-06 0.00103263 4.11003e-05)
(-1.41296e-06 0.00103477 4.029e-05)
(-8.55223e-07 0.00103609 3.99487e-05)
(-4.3219e-07 0.00103609 3.99227e-05)
(-1.53495e-07 0.00103477 4.02668e-05)
(-1.71122e-08 0.00103144 4.0781e-05)
(-1.99569e-08 0.00102584 4.14801e-05)
(-1.40286e-07 0.00101697 4.21312e-05)
(-3.59445e-07 0.00100416 4.27111e-05)
(-6.44207e-07 0.000985889 4.29505e-05)
(-9.56394e-07 0.00096075 4.27846e-05)
(-1.2482e-06 0.000926292 4.19069e-05)
(-1.47666e-06 0.000879833 4.01344e-05)
(-1.58861e-06 0.000817248 3.6696e-05)
(-1.49099e-06 0.000733515 3.0507e-05)
(-1.12201e-06 0.00062151 2.18157e-05)
(-5.84603e-07 0.000375777 1.41079e-05)
(-2.87188e-06 0.000326696 5.90987e-05)
(-4.67571e-06 0.000544853 7.9661e-05)
(-6.92321e-06 0.000646128 8.71221e-05)
(-9.53416e-06 0.00072375 9.11077e-05)
(-1.17616e-05 0.000783401 9.2715e-05)
(-1.36266e-05 0.00082967 9.27403e-05)
(-1.51593e-05 0.000865636 9.15776e-05)
(-1.63762e-05 0.000893966 8.96485e-05)
(-1.72532e-05 0.000916297 8.71343e-05)
(-1.78003e-05 0.000934239 8.43286e-05)
(-1.80137e-05 0.000948628 8.13247e-05)
(-1.79173e-05 0.000960485 7.83588e-05)
(-1.75195e-05 0.000970191 7.54773e-05)
(-1.68673e-05 0.000978426 7.28785e-05)
(-1.59767e-05 0.000985296 7.05694e-05)
(-1.48986e-05 0.00099127 6.87099e-05)
(-1.36613e-05 0.000996266 6.72629e-05)
(-1.23221e-05 0.0010006 6.63408e-05)
(-1.0916e-05 0.00100405 6.58556e-05)
(-9.48875e-06 0.00100677 6.58974e-05)
(-8.07546e-06 0.00100836 6.63503e-05)
(-6.71364e-06 0.00100886 6.72346e-05)
(-5.42301e-06 0.00100773 6.8374e-05)
(-4.2273e-06 0.00100481 6.97544e-05)
(-3.14252e-06 0.000999303 7.11622e-05)
(-2.17687e-06 0.000990748 7.25481e-05)
(-1.32994e-06 0.000977952 7.36599e-05)
(-6.03977e-07 0.000959941 7.4402e-05)
(4.1033e-09 0.000934848 7.44655e-05)
(5.00919e-07 0.000900796 7.36813e-05)
(8.7388e-07 0.00085472 7.15927e-05)
(1.08739e-06 0.000793123 6.76249e-05)
(1.09724e-06 0.000710772 6.05545e-05)
(1.02559e-06 0.000601245 4.99885e-05)
(9.06282e-07 0.000361534 3.14625e-05)
(-3.0586e-06 0.0003153 4.41984e-05)
(-5.22095e-06 0.000526152 6.92527e-05)
(-7.83478e-06 0.000623892 8.06192e-05)
(-1.08953e-05 0.000698448 8.74335e-05)
(-1.35667e-05 0.000755662 9.08518e-05)
(-1.58211e-05 0.000799635 9.20285e-05)
(-1.77196e-05 0.000833729 9.17399e-05)
(-1.92385e-05 0.000860168 9.03809e-05)
(-2.03744e-05 0.000880944 8.83368e-05)
(-2.10998e-05 0.000897244 8.58133e-05)
(-2.14327e-05 0.0009103 8.30909e-05)
(-2.13607e-05 0.000920718 8.02943e-05)
(-2.09231e-05 0.000929295 7.76439e-05)
(-2.01306e-05 0.000936292 7.52142e-05)
(-1.90341e-05 0.000942245 7.31789e-05)
(-1.76636e-05 0.00094719 7.15644e-05)
(-1.60775e-05 0.000951486 7.04955e-05)
(-1.43157e-05 0.000955003 6.99461e-05)
(-1.24461e-05 0.000957955 6.99873e-05)
(-1.05068e-05 0.000960069 7.0539e-05)
(-8.56177e-06 0.000961414 7.16176e-05)
(-6.6565e-06 0.000961562 7.309e-05)
(-4.83728e-06 0.000960419 7.49225e-05)
(-3.13857e-06 0.000957359 7.69344e-05)
(-1.59252e-06 0.000952057 7.90477e-05)
(-2.22834e-07 0.000943598 8.10391e-05)
(9.53153e-07 0.000931286 8.27842e-05)
(1.92321e-06 0.000913732 8.4008e-05)
(2.6787e-06 0.000889609 8.45176e-05)
(3.20392e-06 0.0008567 8.39507e-05)
(3.48285e-06 0.000812556 8.19418e-05)
(3.43638e-06 0.000753471 7.77473e-05)
(2.99057e-06 0.000674967 7.02527e-05)
(2.37176e-06 0.00057065 5.85591e-05)
(1.72288e-06 0.000343126 3.4732e-05)
(-2.56034e-06 0.000306986 2.65224e-05)
(-4.59401e-06 0.000510279 4.89673e-05)
(-7.11354e-06 0.000604223 6.00905e-05)
(-1.01348e-05 0.000675742 6.68867e-05)
(-1.28237e-05 0.000730233 7.01445e-05)
(-1.51499e-05 0.00077192 7.11547e-05)
(-1.71102e-05 0.000803768 7.06168e-05)
(-1.86944e-05 0.000828257 6.90215e-05)
(-1.98505e-05 0.000847016 6.66567e-05)
(-2.0574e-05 0.000861554 6.3841e-05)
(-2.08368e-05 0.000872758 6.07723e-05)
(-2.06626e-05 0.000881588 5.76959e-05)
(-2.00554e-05 0.000888501 5.47523e-05)
(-1.90585e-05 0.000894131 5.21359e-05)
(-1.77015e-05 0.000898666 4.99378e-05)
(-1.60467e-05 0.000902524 4.83003e-05)
(-1.41473e-05 0.000905706 4.72591e-05)
(-1.20754e-05 0.000908464 4.68965e-05)
(-9.8891e-06 0.000910641 4.71867e-05)
(-7.66836e-06 0.000912343 4.81481e-05)
(-5.47137e-06 0.00091326 4.96923e-05)
(-3.36766e-06 0.000913343 5.17757e-05)
(-1.40693e-06 0.00091211 5.42528e-05)
(3.58793e-07 0.000909318 5.70263e-05)
(1.88915e-06 0.000904259 5.99016e-05)
(3.15898e-06 0.000896412 6.27355e-05)
(4.14514e-06 0.000884723 6.52887e-05)
(4.838e-06 0.000868222 6.73684e-05)
(5.23281e-06 0.000845272 6.86752e-05)
(5.33213e-06 0.000814121 6.89393e-05)
(5.12931e-06 0.00077211 6.77161e-05)
(4.57971e-06 0.000716076 6.43988e-05)
(3.62976e-06 0.000641514 5.78821e-05)
(2.61624e-06 0.000542705 4.74172e-05)
(1.72451e-06 0.000327222 2.55624e-05)
(-1.59873e-06 0.000304351 5.46135e-06)
(-3.22859e-06 0.000503612 1.92682e-05)
(-5.42306e-06 0.00059552 2.70418e-05)
(-8.15239e-06 0.000665086 3.15808e-05)
(-1.07285e-05 0.000717826 3.3219e-05)
(-1.30227e-05 0.000757654 3.29379e-05)
(-1.5012e-05 0.000787758 3.13512e-05)
(-1.66226e-05 0.000810342 2.88069e-05)
(-1.78149e-05 0.000827312 2.56097e-05)
(-1.85375e-05 0.000839919 2.20173e-05)
(-1.87871e-05 0.000849358 1.82898e-05)
(-1.85489e-05 0.000856335 1.45703e-05)
(-1.78525e-05 0.000861627 1.1069e-05)
(-1.67199e-05 0.000865609 7.95734e-06)
(-1.52116e-05 0.000868793 5.3969e-06)
(-1.33769e-05 0.000871328 3.49019e-06)
(-1.12962e-05 0.000873532 2.34466e-06)
(-9.04088e-06 0.000875376 1.99229e-06)
(-6.69878e-06 0.000877009 2.47059e-06)
(-4.35308e-06 0.000878242 3.73918e-06)
(-2.08328e-06 0.000879061 5.76163e-06)
(3.44147e-08 0.000879109 8.42776e-06)
(1.93445e-06 0.000878193 1.16352e-05)
(3.56064e-06 0.000875755 1.52149e-05)
(4.86772e-06 0.000871372 1.9012e-05)
(5.82693e-06 0.000864216 2.28148e-05)
(6.42591e-06 0.000853522 2.64287e-05)
(6.65767e-06 0.000838033 2.96082e-05)
(6.5453e-06 0.000816424 3.21228e-05)
(6.10805e-06 0.000786701 3.36926e-05)
(5.38487e-06 0.000746554 3.40039e-05)
(4.37214e-06 0.000692662 3.25521e-05)
(3.12083e-06 0.000620946 2.85474e-05)
(1.97424e-06 0.000525675 2.16167e-05)
(1.12495e-06 0.000317957 7.94078e-06)
(-5.36973e-07 0.000309272 -1.52964e-05)
(-1.7524e-06 0.000510323 -1.26407e-05)
(-3.5321e-06 0.000602737 -9.59694e-06)
(-5.93769e-06 0.000672384 -8.24429e-06)
(-8.36516e-06 0.000724679 -8.87136e-06)
(-1.06416e-05 0.000763796 -1.08646e-05)
(-1.26597e-05 0.000792791 -1.38693e-05)
(-1.43367e-05 0.00081414 -1.76442e-05)
(-1.55885e-05 0.000829604 -2.19952e-05)
(-1.63651e-05 0.00084071 -2.67101e-05)
(-1.66262e-05 0.000848477 -3.15545e-05)
(-1.63763e-05 0.000853879 -3.62322e-05)
(-1.56294e-05 0.000857531 -4.0548e-05)
(-1.44265e-05 0.000860087 -4.43332e-05)
(-1.2818e-05 0.000861879 -4.74299e-05)
(-1.08821e-05 0.000863323 -4.97068e-05)
(-8.69293e-06 0.000864539 -5.10752e-05)
(-6.34842e-06 0.000865744 -5.14712e-05)
(-3.93987e-06 0.000866876 -5.08845e-05)
(-1.56064e-06 0.000867969 -4.93312e-05)
(6.94682e-07 0.000868779 -4.68802e-05)
(2.74319e-06 0.000869154 -4.36254e-05)
(4.50463e-06 0.000868655 -3.97071e-05)
(5.92237e-06 0.000866916 -3.52828e-05)
(6.95224e-06 0.000863257 -3.05457e-05)
(7.56594e-06 0.00085703 -2.56951e-05)
(7.75322e-06 0.000847214 -2.09515e-05)
(7.53438e-06 0.00083273 -1.65286e-05)
(6.93673e-06 0.000812003 -1.26482e-05)
(6.02145e-06 0.000783217 -9.50426e-06)
(4.85444e-06 0.000743836 -7.31654e-06)
(3.51287e-06 0.000690722 -6.36117e-06)
(2.10822e-06 0.000619608 -7.08381e-06)
(1.01563e-06 0.000524952 -9.2776e-06)
(2.99335e-07 0.000318151 -1.18751e-05)
(3.27716e-07 0.000322364 -3.19357e-05)
(-5.80224e-07 0.00053091 -3.95867e-05)
(-1.9834e-06 0.000626529 -4.11184e-05)
(-4.06941e-06 0.000698141 -4.29245e-05)
(-6.33324e-06 0.000751514 -4.57854e-05)
(-8.53303e-06 0.000790892 -4.94784e-05)
(-1.05389e-05 0.000819627 -5.38474e-05)
(-1.22216e-05 0.000840182 -5.87646e-05)
(-1.34983e-05 0.00085458 -6.40764e-05)
(-1.42922e-05 0.0008643 -6.95908e-05)
(-1.45761e-05 0.000870638 -7.51161e-05)
(-1.43339e-05 0.000874516 -8.04532e-05)
(-1.35866e-05 0.000876769 -8.53817e-05)
(-1.23686e-05 0.000877947 -8.97003e-05)
(-1.07447e-05 0.000878593 -9.32336e-05)
(-8.78474e-06 0.000878999 -9.58378e-05)
(-6.58068e-06 0.000879477 -9.74073e-05)
(-4.22944e-06 0.000880105 -9.78767e-05)
(-1.83298e-06 0.000880989 -9.72254e-05)
(5.03613e-07 0.000882001 -9.5475e-05)
(2.68262e-06 0.000883044 -9.26925e-05)
(4.61305e-06 0.000883786 -8.89833e-05)
(6.21724e-06 0.000883909 -8.44924e-05)
(7.4262e-06 0.000882851 -7.93923e-05)
(8.20133e-06 0.000880035 -7.38824e-05)
(8.51401e-06 0.000874602 -6.81737e-05)
(8.3722e-06 0.000865616 -6.24848e-05)
(7.79192e-06 0.000851773 -5.70219e-05)
(6.83342e-06 0.000831563 -5.19726e-05)
(5.56514e-06 0.000802933 -4.74745e-05)
(4.09855e-06 0.000763376 -4.36348e-05)
(2.5463e-06 0.000709497 -4.05415e-05)
(1.10967e-06 0.000636991 -3.82927e-05)
(1.45607e-07 0.000540022 -3.61758e-05)
(-4.42613e-07 0.00032776 -2.86698e-05)
(8.04927e-07 0.00034183 -4.15824e-05)
(2.1606e-08 0.0005617 -5.59609e-05)
(-1.09372e-06 0.000662249 -6.06044e-05)
(-2.94358e-06 0.000737235 -6.45843e-05)
(-5.03983e-06 0.000792681 -6.8984e-05)
(-7.13775e-06 0.000833208 -7.38534e-05)
(-9.06342e-06 0.000862292 -7.91851e-05)
(-1.06947e-05 0.00088268 -8.49393e-05)
(-1.19303e-05 0.000896447 -9.10102e-05)
(-1.27029e-05 0.000905304 -9.72343e-05)
(-1.29664e-05 0.000910539 -0.000103406)
(-1.27127e-05 0.000913264 -0.000109313)
(-1.19515e-05 0.000914296 -0.000114732)
(-1.07276e-05 0.000914367 -0.000119467)
(-9.09601e-06 0.000913973 -0.000123333)
(-7.1364e-06 0.000913563 -0.000126187)
(-4.93877e-06 0.000913379 -0.000127915)
(-2.6053e-06 0.000913629 -0.000128454)
(-2.46163e-07 0.00091432 -0.000127777)
(2.03987e-06 0.000915432 -0.000125911)
(4.1465e-06 0.000916744 -0.000122921)
(5.97854e-06 0.000918 -0.000118921)
(7.45376e-06 0.00091874 -0.000114053)
(8.51195e-06 0.000918452 -0.000108503)
(9.10814e-06 0.000916394 -0.00010247)
(9.22244e-06 0.000911732 -9.61762e-05)
(8.85776e-06 0.000903345 -8.98337e-05)
(8.05303e-06 0.000889925 -8.36478e-05)
(6.86243e-06 0.000869749 -7.77784e-05)
(5.38558e-06 0.000840721 -7.23272e-05)
(3.73198e-06 0.000800077 -6.73218e-05)
(2.06034e-06 0.000744311 -6.27272e-05)
(5.9419e-07 0.000668778 -5.84079e-05)
(-2.6669e-07 0.000567412 -5.33388e-05)
(-8.60681e-07 0.000345039 -3.90541e-05)
(8.95176e-07 0.000365063 -4.41469e-05)
(7.29968e-08 0.000597658 -6.08229e-05)
(-9.26953e-07 0.000703856 -6.66608e-05)
(-2.66731e-06 0.000782743 -7.15091e-05)
(-4.67036e-06 0.000840763 -7.65384e-05)
(-6.6738e-06 0.000882793 -8.18962e-05)
(-8.51581e-06 0.000912601 -8.7642e-05)
(-1.00689e-05 0.000933072 -9.37573e-05)
(-1.1237e-05 0.000946497 -0.000100161)
(-1.19401e-05 0.000954661 -0.000106687)
(-1.21437e-05 0.00095903 -0.000113142)
(-1.18338e-05 0.000960749 -0.000119299)
(-1.1027e-05 0.000960787 -0.000124945)
(-9.76245e-06 0.00095988 -0.00012987)
(-8.10176e-06 0.00095865 -0.000133897)
(-6.12022e-06 0.00095753 -0.000136871)
(-3.91278e-06 0.000956859 -0.000138688)
(-1.5807e-06 0.000956803 -0.000139273)
(7.69563e-07 0.000957444 -0.000138608)
(3.03079e-06 0.000958693 -0.000136712)
(5.10197e-06 0.000960374 -0.000133657)
(6.88704e-06 0.000962139 -0.000129549)
(8.30831e-06 0.000963548 -0.000124542)
(9.29904e-06 0.000963972 -0.000118814)
(9.81991e-06 0.000962662 -0.000112575)
(9.8495e-06 0.000958647 -0.000106038)
(9.39823e-06 0.000950769 -9.94295e-05)
(8.49561e-06 0.000937556 -9.29428e-05)
(7.21423e-06 0.000917213 -8.67417e-05)
(5.64479e-06 0.00088744 -8.09045e-05)
(3.91104e-06 0.000845338 -7.54426e-05)
(2.1632e-06 0.00078713 -7.02688e-05)
(6.47065e-07 0.000707921 -6.51804e-05)
(-2.03848e-07 0.000601248 -5.90476e-05)
(-9.17412e-07 0.000366883 -4.24039e-05)
(6.97458e-07 0.000389081 -4.09889e-05)
(-2.64646e-07 0.000633796 -5.59921e-05)
(-1.27992e-06 0.00074538 -6.12482e-05)
(-3.02732e-06 0.000828044 -6.57557e-05)
(-4.98616e-06 0.000888553 -7.05618e-05)
(-6.91718e-06 0.000932101 -7.57778e-05)
(-8.6685e-06 0.000962644 -8.14254e-05)
(-1.01284e-05 0.000983281 -8.74777e-05)
(-1.11947e-05 0.000996422 -9.3832e-05)
(-1.18043e-05 0.00100401 -0.000100327)
(-1.19173e-05 0.00100759 -0.000106753)
(-1.15237e-05 0.00100844 -0.000112891)
(-1.06424e-05 0.00100756 -0.000118519)
(-9.31354e-06 0.00100581 -0.000123436)
(-7.59597e-06 0.00100382 -0.000127457)
(-5.57235e-06 0.00100211 -0.000130437)
(-3.32854e-06 0.00100101 -0.000132261)
(-9.68407e-07 0.00100076 -0.000132867)
(1.40288e-06 0.00100139 -0.000132225)
(3.682e-06 0.00100286 -0.000130364)
(5.76251e-06 0.00100493 -0.000127346)
(7.55658e-06 0.00100726 -0.000123287)
(8.98468e-06 0.00100934 -0.000118329)
(9.98068e-06 0.00101051 -0.000112657)
(1.05039e-05 0.00100993 -0.000106473)
(1.05365e-05 0.00100658 -0.0001)
(1.00823e-05 0.000999178 -9.34558e-05)
(9.18006e-06 0.000986176 -8.70483e-05)
(7.88707e-06 0.000965627 -8.09384e-05)
(6.30151e-06 0.000935113 -7.52265e-05)
(4.53172e-06 0.00089153 -6.99346e-05)
(2.72723e-06 0.000830914 -6.50222e-05)
(1.11702e-06 0.000748065 -6.03416e-05)
(1.88736e-07 0.000636204 -5.4872e-05)
(-7.12361e-07 0.000390121 -3.98411e-05)
(3.22907e-07 0.000411329 -3.41854e-05)
(-8.25988e-07 0.000666112 -4.47197e-05)
(-1.96591e-06 0.000782175 -4.81261e-05)
(-3.79781e-06 0.000867947 -5.141e-05)
(-5.76238e-06 0.000930489 -5.53809e-05)
(-7.64427e-06 0.000975215 -5.99876e-05)
(-9.31611e-06 0.00100628 -6.51691e-05)
(-1.06778e-05 0.00102692 -7.08395e-05)
(-1.16393e-05 0.0010397 -7.68735e-05)
(-1.21386e-05 0.00104665 -8.30853e-05)
(-1.21447e-05 0.00104943 -8.92641e-05)
(-1.16492e-05 0.00104939 -9.51831e-05)
(-1.06737e-05 0.00104763 -0.000100626)
(-9.25901e-06 0.00104504 -0.000105387)
(-7.46581e-06 0.00104234 -0.00010929)
(-5.36982e-06 0.00104006 -0.000112186)
(-3.06455e-06 0.00103859 -0.000113968)
(-6.47591e-07 0.00103816 -0.000114567)
(1.77823e-06 0.00103884 -0.000113963)
(4.10723e-06 0.00104056 -0.000112174)
(6.2391e-06 0.00104307 -0.000109271)
(8.08384e-06 0.00104601 -0.000105359)
(9.56458e-06 0.00104881 -0.000100586)
(1.06153e-05 0.00105077 -9.51289e-05)
(1.11979e-05 0.00105099 -8.91924e-05)
(1.12923e-05 0.00104836 -8.29935e-05)
(1.08955e-05 0.00104153 -7.67577e-05)
(1.0042e-05 0.00102885 -7.06949e-05)
(8.79428e-06 0.00100828 -6.49898e-05)
(7.2305e-06 0.000977242 -5.9766e-05)
(5.45498e-06 0.000932504 -5.51046e-05)
(3.59356e-06 0.000869906 -5.1053e-05)
(1.8541e-06 0.000784031 -4.76349e-05)
(7.76366e-07 0.000667811 -4.40579e-05)
(-3.32274e-07 0.000411892 -3.34506e-05)
(-1.25593e-07 0.000430166 -2.59127e-05)
(-1.45255e-06 0.00069224 -3.06578e-05)
(-2.75478e-06 0.000811514 -3.15876e-05)
(-4.70638e-06 0.000899463 -3.32063e-05)
(-6.70015e-06 0.000963344 -3.60176e-05)
(-8.55233e-06 0.00100874 -3.97665e-05)
(-1.01584e-05 0.00103995 -4.42696e-05)
(-1.14303e-05 0.00106032 -4.93782e-05)
(-1.2288e-05 0.00107253 -5.49255e-05)
(-1.26789e-05 0.0010787 -6.0708e-05)
(-1.25759e-05 0.00108057 -6.65024e-05)
(-1.19779e-05 0.00107958 -7.20839e-05)
(-1.09033e-05 0.00107688 -7.72332e-05)
(-9.3954e-06 0.00107343 -8.17499e-05)
(-7.51598e-06 0.00106999 -8.5459e-05)
(-5.34121e-06 0.00106715 -8.82173e-05)
(-2.96086e-06 0.00106531 -8.99184e-05)
(-4.73497e-07 0.00106473 -9.04969e-05)
(2.01988e-06 0.00106548 -8.99302e-05)
(4.41739e-06 0.00106748 -8.82402e-05)
(6.6201e-06 0.00107049 -8.54917e-05)
(8.53598e-06 0.00107409 -8.17906e-05)
(1.00882e-05 0.00107768 -7.72795e-05)
(1.12178e-05 0.00108052 -7.21331e-05)
(1.18811e-05 0.00108164 -6.65515e-05)
(1.20547e-05 0.00107987 -6.07537e-05)
(1.17373e-05 0.00107379 -5.49636e-05)
(1.09591e-05 0.00106166 -4.94036e-05)
(9.76762e-06 0.00104133 -4.42758e-05)
(8.24278e-06 0.00101016 -3.97449e-05)
(6.46928e-06 0.00096476 -3.5956e-05)
(4.55075e-06 0.000900857 -3.30809e-05)
(2.66929e-06 0.000812856 -3.13533e-05)
(1.41478e-06 0.000693501 -3.02789e-05)
(1.14292e-07 0.000430433 -2.5441e-05)
(-5.297e-07 0.000444908 -1.81387e-05)
(-1.9945e-06 0.000711448 -1.71822e-05)
(-3.46075e-06 0.000832637 -1.56356e-05)
(-5.53037e-06 0.000921788 -1.55639e-05)
(-7.55969e-06 0.000986276 -1.71798e-05)
(-9.39589e-06 0.00103179 -2.00238e-05)
(-1.09503e-05 0.00106271 -2.37947e-05)
(-1.2148e-05 0.0010825 -2.82813e-05)
(-1.29214e-05 0.00109388 -3.32795e-05)
(-1.32236e-05 0.00109907 -3.85682e-05)
(-1.30288e-05 0.00109989 -4.39161e-05)
(-1.23394e-05 0.00109781 -4.90994e-05)
(-1.11768e-05 0.00109408 -5.39001e-05)
(-9.58715e-06 0.0010897 -5.81248e-05)
(-7.62921e-06 0.00108548 -6.16002e-05)
(-5.38008e-06 0.00108204 -6.41903e-05)
(-2.92818e-06 0.00107983 -6.57894e-05)
(-3.70821e-07 0.0010791 -6.63371e-05)