/*--------------------------------*- C++ -*----------------------------------*\
| =========                 |                                                 |
| \\      /  F ield         | OpenFOAM: The Open Source CFD Toolbox           |
|  \\    /   O peration     | Version:  v2006                                 |
|   \\  /    A nd           | Website:  www.openfoam.com                      |
|    \\/     M anipulation  |                                                 |
\*---------------------------------------------------------------------------*/
FoamFile
{
    version     2.0;
    format      ascii;
    class       volScalarField;
    location    "36";
    object      k;
}
// * * * * * * * * * * * * * * * * * * * * * * * * * * * * * * * * * * * * * //

dimensions      [0 2 -2 0 0 0 0];


internalField   nonuniform List<scalar> 
78750
(
2.02363
0.654035
0.305493
0.0956712
0.0129571
0.0014905
0.00333276
0.002086
0.00228597
0.00209188
0.00231311
0.00200353
0.0021771
0.0019863
0.00201746
0.00194557
0.00191741
0.00186947
0.00182786
0.00178423
0.00173958
0.00169349
0.00164546
0.00159483
0.00154088
0.00148274
0.00141937
0.00134946
0.0012721
0.00118757
0.00109484
0.000994971
0.000889475
0.000735939
0.000300674
0.0632308
0.00393299
0.00611279
0.000796978
0.00439285
0.00425692
0.00412214
0.00410985
0.00403616
0.00403888
0.00398755
0.00398939
0.00396322
0.00395813
0.00394517
0.00393542
0.00392348
0.00391077
0.00389632
0.00387997
0.00386073
0.00383796
0.00381103
0.00377908
0.00374105
0.00369548
0.00364032
0.00357244
0.00348741
0.00337797
0.0032318
0.00303194
0.00273625
0.00212428
0.00116009
0.00161066
0.00148675
0.00256464
0.00259327
0.00257327
0.00283266
0.00291489
0.003027
0.00311071
0.00318186
0.00324085
0.00329023
0.00333068
0.00336173
0.00338361
0.00339638
0.00340006
0.00339498
0.0033824
0.00336478
0.0033449
0.00332612
0.00331061
0.00329881
0.00328988
0.0032824
0.00327458
0.00326407
0.00324735
0.00321869
0.00316781
0.00307374
0.00287524
0.00245579
0.00266594
0.000528341
0.000584926
0.000889723
0.00112485
0.00131114
0.00145855
0.00156706
0.0016478
0.00170598
0.00174813
0.00177545
0.00179584
0.00181472
0.00184158
0.00188114
0.00193532
0.002009
0.00210815
0.00223564
0.0023869
0.00254691
0.00269383
0.00281019
0.00289103
0.00294258
0.00297407
0.00299211
0.00299973
0.00299689
0.00298064
0.00294365
0.00286626
0.00268091
0.00235114
0.00354322
0.000278693
0.00148386
0.0020372
0.00230422
0.00244605
0.00252617
0.00256831
0.00257939
0.00255944
0.00250938
0.00243174
0.00233115
0.00222045
0.00213515
0.00209925
0.00210542
0.0021335
0.00217159
0.00220535
0.00223024
0.00225903
0.00230167
0.00236026
0.00242995
0.00250125
0.00256555
0.00261866
0.00265981
0.00268914
0.00270537
0.00270366
0.0026714
0.00258998
0.00265348
0.00474191
0.000437697
0.00195372
0.00228656
0.00241631
0.00249023
0.0025363
0.00256233
0.00256513
0.00253812
0.00247681
0.00237935
0.00224455
0.00206824
0.00185471
0.00163646
0.00149175
0.0014531
0.00148091
0.00159207
0.00181124
0.00204095
0.00220057
0.0022865
0.00232244
0.00233781
0.00235098
0.00236728
0.00238644
0.00240596
0.00242177
0.00242707
0.00240484
0.00231918
0.00255167
0.00552054
0.000136819
0.00118982
0.00182076
0.00226804
0.00255204
0.00272099
0.00282832
0.00290084
0.00294888
0.00297656
0.00298375
0.00296589
0.00291195
0.00280792
0.00264745
0.00244479
0.00223374
0.00203463
0.00183283
0.00165075
0.00154486
0.00153678
0.00163845
0.00180158
0.00194025
0.00202583
0.00207634
0.00211124
0.00214025
0.0021673
0.0021939
0.00222729
0.00234763
0.00304621
0.00649389
0.000558502
0.00173525
0.002351
0.00266766
0.00281394
0.00287174
0.0028766
0.00284077
0.00277452
0.00269194
0.00260804
0.00253855
0.00249661
0.00248345
0.00248513
0.00247816
0.00244441
0.00237328
0.00224721
0.00203567
0.00179622
0.0016731
0.00163193
0.00164366
0.00169401
0.00175145
0.00179857
0.00183269
0.00185733
0.00187658
0.00189426
0.00192365
0.00210578
0.00310518
0.00699477
0.00220752
0.00297572
0.0031604
0.00317904
0.00314624
0.00307475
0.00295703
0.00281116
0.00268515
0.00260795
0.0025667
0.00253614
0.00250211
0.00246686
0.0024404
0.00243083
0.00242363
0.00238108
0.00225728
0.00206639
0.00191011
0.00182255
0.00177194
0.00174134
0.00172733
0.0017264
0.00173374
0.00174304
0.00174982
0.00175332
0.00175673
0.00178566
0.00207288
0.00337127
0.00759189
0.00284704
0.00289315
0.00286398
0.00282795
0.00274837
0.00257309
0.00230206
0.00204106
0.00190261
0.0018925
0.0019346
0.00197805
0.00201024
0.00203482
0.00205334
0.00205696
0.00203969
0.00199856
0.00193479
0.00186459
0.00180818
0.00176808
0.00173936
0.00171953
0.00170783
0.00170272
0.00170085
0.00169822
0.00169175
0.00167996
0.00166591
0.00169272
0.00211459
0.00371334
0.00801102
0.00231568
0.00289542
0.00304813
0.00307952
0.00301945
0.00284579
0.00259528
0.0023364
0.00212065
0.00197448
0.001893
0.00184464
0.00181028
0.00179392
0.00179829
0.00180303
0.00179768
0.00178338
0.00176337
0.00174317
0.00172702
0.0017158
0.0017091
0.00170636
0.00170656
0.00170766
0.00170648
0.00170058
0.00168777
0.0016667
0.00164296
0.0016889
0.00228465
0.00405897
0.00815382
0.00168757
0.00269707
0.00295556
0.00305153
0.00309881
0.00309843
0.00300056
0.0027756
0.00247346
0.0021784
0.0019559
0.00182072
0.00174871
0.00170315
0.00167498
0.00166727
0.00166778
0.0016702
0.00167304
0.00167648
0.00168117
0.00168745
0.00169524
0.00170399
0.00171254
0.00171892
0.00172021
0.00171386
0.00169649
0.00166509
0.00162269
0.00165326
0.0023527
0.00426256
0.00823327
0.00173805
0.00287238
0.00320856
0.00334011
0.00340583
0.00343016
0.00340543
0.0033039
0.0030992
0.00279946
0.00245386
0.00212835
0.001881
0.0017235
0.0016377
0.00160489
0.00160395
0.0016127
0.00162462
0.00163879
0.00165458
0.0016718
0.00169013
0.0017085
0.00172543
0.00173953
0.00174887
0.00175043
0.0017395
0.0017108
0.00166607
0.00171274
0.00254364
0.00451779
0.00841055
0.00154042
0.00267969
0.00310235
0.00327521
0.00335649
0.00338705
0.00337722
0.00333951
0.00328816
0.00321182
0.00307093
0.00283899
0.00253475
0.00221336
0.00194169
0.00175205
0.00164547
0.00160252
0.00159138
0.00159445
0.0016063
0.00162436
0.00164623
0.00166949
0.00169219
0.00171291
0.00172986
0.00174084
0.00174142
0.00172448
0.00168459
0.00171779
0.00260282
0.00465423
0.00864965
0.00215247
0.00323875
0.00357597
0.00369917
0.00374115
0.00372486
0.00364194
0.00348763
0.00329566
0.00312702
0.0030118
0.00291809
0.00279009
0.00258732
0.00232586
0.00206183
0.00184684
0.00170742
0.00164024
0.00161055
0.00159974
0.00160291
0.00161742
0.00163953
0.00166442
0.00168803
0.00170793
0.001723
0.00173138
0.00172964
0.00172102
0.00183848
0.00288391
0.00496593
0.00897421
0.00277036
0.00349352
0.00367038
0.00372057
0.00371767
0.00366093
0.00354025
0.0033881
0.00324778
0.00311945
0.00300551
0.002912
0.00282335
0.00270358
0.00252291
0.00229295
0.00205995
0.00186732
0.00174293
0.00167759
0.00164059
0.00162057
0.00161415
0.00161884
0.00163219
0.00164994
0.00166769
0.00168217
0.00169119
0.00169283
0.00169635
0.00187742
0.00311963
0.00525428
0.0092454
0.00319458
0.00369656
0.00381311
0.00383358
0.00379558
0.00367098
0.00343952
0.00318683
0.0030198
0.00292678
0.00286054
0.00280122
0.00273824
0.00265849
0.00254237
0.00237662
0.0021784
0.00198887
0.00184727
0.00176459
0.00171247
0.00167616
0.00165321
0.00164205
0.00164049
0.00164666
0.00165753
0.00166941
0.00167968
0.00168886
0.00172155
0.0020224
0.00350709
0.00564411
0.00948616
0.00319706
0.00366137
0.00379892
0.00383628
0.00380786
0.00368325
0.0034464
0.00318471
0.0030256
0.00296161
0.00292191
0.00287364
0.00280754
0.0027197
0.00260538
0.00245943
0.00228599
0.00210968
0.00196103
0.00185862
0.00179289
0.00174525
0.00170865
0.00168269
0.0016669
0.00165948
0.00165875
0.00166261
0.00166863
0.00167832
0.0017249
0.0021106
0.00382493
0.00596378
0.00966447
0.00298326
0.0036106
0.00380524
0.00387561
0.0038822
0.00380486
0.00359805
0.00326768
0.00296597
0.00282836
0.00279976
0.00279191
0.00276841
0.00271603
0.00262891
0.00250847
0.00236437
0.00221466
0.00208067
0.00197776
0.00190326
0.00184459
0.001795
0.00175409
0.00172238
0.00169913
0.00168369
0.00167573
0.00167474
0.00168623
0.00176377
0.00227027
0.00417764
0.00628962
0.00986224
0.00301858
0.00365416
0.00385133
0.00393104
0.00395864
0.00392811
0.00380662
0.00354792
0.00318054
0.00289378
0.0027826
0.00275989
0.00274773
0.00271674
0.00265482
0.00255887
0.00243809
0.00231067
0.00219339
0.00209817
0.00202422
0.00196138
0.00190403
0.00185236
0.0018075
0.00176955
0.00173815
0.00171387
0.00169857
0.00170071
0.00179387
0.00241296
0.0044864
0.0065791
0.0100835
0.00310808
0.00370319
0.00386319
0.00391279
0.00390945
0.00385208
0.0037389
0.00354951
0.00324316
0.0028901
0.00268511
0.0026385
0.00264722
0.00265156
0.00262988
0.00257591
0.00249559
0.00240366
0.00231464
0.00223737
0.00217048
0.00210757
0.00204622
0.00198771
0.00193352
0.00188421
0.00183947
0.00180025
0.00176898
0.00175828
0.00187025
0.00262177
0.00482338
0.00689164
0.010355
0.00354642
0.00399352
0.00405973
0.00404633
0.00398347
0.00387394
0.00374941
0.00360405
0.00338394
0.00305783
0.0027512
0.00260989
0.0025847
0.0025914
0.00258885
0.00256426
0.00251854
0.00246132
0.00240296
0.00234889
0.00229657
0.00224252
0.00218643
0.00212962
0.00207384
0.00201971
0.00196722
0.00191787
0.00187456
0.00185077
0.00196816
0.00281703
0.0051151
0.00717438
0.010635
0.00372999
0.00405103
0.00406025
0.00399585
0.0038655
0.00368626
0.00353399
0.00341267
0.00327113
0.00306288
0.00280511
0.00262823
0.00257559
0.00257662
0.00257987
0.00256888
0.00254315
0.00250871
0.00247206
0.00243485
0.00239469
0.00235038
0.00230258
0.00225231
0.0022011
0.00214886
0.0020958
0.00204407
0.00199645
0.00196787
0.00209651
0.00302161
0.00538079
0.0074443
0.010936
0.0039241
0.00425266
0.00424347
0.00414053
0.00394598
0.00370091
0.00351966
0.00339595
0.00326424
0.00308114
0.00284509
0.0026402
0.00255108
0.00254058
0.00254828
0.00254972
0.0025406
0.0025238
0.00250302
0.00247845
0.00244916
0.00241516
0.00237712
0.00233593
0.00229239
0.00224636
0.00219877
0.00215224
0.00211039
0.00209285
0.00225563
0.00324435
0.00562106
0.00770066
0.0112555
0.00369116
0.00434576
0.00438943
0.00426226
0.00399665
0.00365474
0.00339405
0.00324694
0.00315219
0.00304214
0.00288006
0.00268982
0.00256731
0.00253408
0.00253707
0.00254291
0.00254237
0.00253529
0.00252333
0.00250622
0.0024841
0.00245755
0.00242712
0.0023934
0.00235672
0.00231682
0.002275
0.00223453
0.00220137
0.00220649
0.00244235
0.00354672
0.00590486
0.00798119
0.0115664
0.00384868
0.00489237
0.00493075
0.00472687
0.00435622
0.00395786
0.00364339
0.00340093
0.00322923
0.00309476
0.0029476
0.00276307
0.00259433
0.00251245
0.00249911
0.0025096
0.00252069
0.0025256
0.00252359
0.00251565
0.00250242
0.00248462
0.0024628
0.00243733
0.00240837
0.00237551
0.00234034
0.00230684
0.00228376
0.00231425
0.00262834
0.00387192
0.00618959
0.00823114
0.011795
0.00482693
0.00546516
0.00522494
0.00475737
0.00408389
0.00367485
0.00355089
0.00345103
0.00332218
0.00319778
0.00306873
0.00290414
0.00271692
0.00257277
0.00250876
0.00249868
0.00250617
0.00251345
0.00251686
0.00251581
0.00251033
0.00250083
0.00248771
0.00247114
0.00245117
0.00242725
0.00240093
0.00237639
0.00236287
0.00240402
0.00273713
0.00405674
0.00637828
0.00840576
0.0119726
0.00681063
0.00603444
0.00528212
0.00437039
0.00331836
0.00307703
0.00325048
0.00334633
0.00332286
0.00324227
0.00313558
0.00299698
0.00283187
0.00267472
0.00257324
0.0025318
0.00252069
0.00251718
0.00251489
0.00251222
0.00250828
0.00250262
0.00249502
0.00248524
0.00247266
0.00245734
0.00244158
0.00243051
0.00243591
0.00250188
0.00284128
0.00414146
0.00647814
0.00853867
0.0122226
0.00712029
0.00564066
0.00478627
0.00369412
0.00271867
0.00263953
0.00291648
0.00311873
0.00320641
0.00320259
0.00313794
0.00302993
0.00289411
0.00275677
0.00265169
0.00259084
0.00256029
0.00254291
0.00252999
0.00251861
0.00250815
0.0024986
0.00248954
0.00248001
0.00246934
0.0024579
0.00244807
0.00244562
0.00246566
0.00256097
0.00292938
0.0042022
0.00658653
0.00875254
0.0126871
0.0055138
0.00536568
0.00526658
0.00480265
0.00385176
0.00275364
0.00234002
0.00249384
0.00273975
0.00289517
0.00294565
0.00291665
0.00283992
0.00274754
0.00266564
0.00260695
0.00256809
0.0025412
0.00252056
0.00250345
0.00248869
0.0024755
0.00246323
0.00245144
0.00243993
0.00243014
0.00242645
0.00244074
0.00251032
0.00273954
0.00331036
0.00465613
0.00696423
0.0091649
0.0131733
0.00453946
0.00571945
0.00607032
0.00601972
0.00551033
0.00414733
0.00258926
0.00190359
0.0019568
0.0022418
0.00248464
0.00261699
0.00265588
0.00264015
0.00260234
0.00256303
0.00252856
0.00249848
0.00247132
0.00244651
0.0024239
0.0024037
0.00238594
0.00237037
0.00235705
0.00234746
0.00234716
0.0023755
0.00250418
0.00294035
0.0039672
0.00558865
0.00759589
0.00955952
0.0130814
0.00427392
0.00509781
0.00547635
0.00568225
0.00576007
0.00551819
0.00446744
0.00303764
0.00205834
0.00169965
0.0017696
0.00200872
0.00223285
0.00237388
0.00244059
0.00246231
0.00246028
0.00244517
0.00242171
0.00239256
0.00235966
0.00232551
0.00229305
0.0022653
0.00224492
0.00223481
0.00223968
0.00227237
0.00238663
0.00279845
0.00402895
0.00612373
0.00794148
0.00960654
0.0125649
0.00392465
0.00472399
0.00511879
0.00537059
0.00560311
0.00585152
0.0060367
0.00570833
0.00463401
0.00336398
0.00230403
0.00169438
0.00159021
0.00180439
0.00205402
0.00222276
0.00231672
0.00236065
0.00237225
0.00236167
0.00233434
0.00229423
0.00224568
0.00219435
0.00214731
0.00211329
0.0021034
0.00213233
0.00221593
0.0024149
0.00317644
0.00527527
0.00735044
0.00911391
0.0124713
0.00419626
0.00545188
0.00576252
0.00579152
0.00571227
0.00559468
0.00559353
0.00588675
0.00618869
0.00600011
0.0051046
0.0037651
0.00236365
0.00149936
0.00144686
0.00173291
0.00199508
0.00216975
0.0022736
0.00232445
0.00233614
0.00231735
0.00227335
0.0022088
0.00213093
0.00205178
0.00198821
0.00196561
0.00205118
0.00226315
0.00261218
0.00426245
0.0067986
0.00910298
0.0137037
0.00555044
0.00605735
0.00603394
0.00592595
0.00577071
0.00553097
0.00513968
0.0047888
0.0049059
0.0052563
0.00546131
0.00531811
0.00431968
0.00252607
0.00141824
0.00134117
0.00165744
0.00191949
0.0021001
0.0022301
0.00230613
0.00233206
0.00231553
0.00226509
0.00218329
0.00207299
0.00195071
0.00184977
0.00197319
0.00247485
0.00293623
0.00454897
0.00736733
0.0101316
0.0156158
0.00715198
0.00618885
0.0057416
0.00547293
0.00527184
0.00513361
0.00497149
0.00465514
0.00429353
0.00411332
0.0040496
0.00399354
0.00378472
0.00259396
0.00140955
0.00128856
0.00164537
0.00190686
0.00209266
0.00223996
0.00233792
0.00238423
0.00238063
0.002332
0.0022453
0.00211839
0.00195119
0.00185688
0.00227817
0.00346344
0.00441231
0.00582352
0.00820262
0.0107493
0.0156049
0.00673975
0.00566517
0.00539398
0.0052271
0.00506305
0.00491345
0.00477081
0.00458868
0.00428795
0.00384859
0.0033471
0.00279355
0.00214183
0.00139955
0.00109535
0.0014867
0.00182441
0.00203303
0.00219879
0.00233733
0.00243806
0.00249486
0.0025047
0.00246686
0.00237756
0.00222778
0.00205171
0.00206809
0.00283435
0.00484496
0.00706782
0.00817866
0.00945057
0.0109737
0.013358
0.00517152
0.00532371
0.00553089
0.00561692
0.00559249
0.00543491
0.00514979
0.00477642
0.00436082
0.00388136
0.00324562
0.00238351
0.00134717
0.000647272
0.000980395
0.00149116
0.00181505
0.00205118
0.00224032
0.00239652
0.00252192
0.00261515
0.00267239
0.00268612
0.00264627
0.00254284
0.00238419
0.00226646
0.00254729
0.00390498
0.00661325
0.00915374
0.0101443
0.010895
0.0115093
0.0047466
0.00554663
0.00584259
0.00598248
0.00605482
0.00604324
0.00588535
0.00551899
0.00497679
0.00437747
0.00376933
0.00306719
0.0021109
0.000919442
0.000562505
0.00112347
0.00155957
0.00185488
0.00208625
0.00228082
0.00244687
0.00258587
0.00269746
0.0027812
0.00283486
0.00285232
0.00282165
0.00272375
0.0025809
0.0026515
0.00343445
0.00546061
0.00735983
0.00865975
0.0111075
0.00502838
0.00548115
0.00567421
0.00579263
0.0058918
0.00596671
0.00598082
0.00586976
0.00555529
0.0050461
0.00448489
0.00397226
0.0034393
0.00264745
0.00122009
0.000446835
0.000736233
0.00121869
0.00157591
0.00184558
0.00207162
0.00226821
0.00243723
0.0025798
0.00269817
0.00279468
0.00286654
0.00288821
0.00284281
0.00276976
0.00251052
0.00274905
0.00505196
0.00781016
0.0139111
0.0053302
0.00548375
0.00563973
0.00575236
0.00584503
0.00591679
0.00595795
0.0059473
0.00583715
0.00554549
0.00504446
0.0044709
0.00398232
0.00357688
0.00305753
0.00183741
0.00068502
0.000359967
0.000768884
0.00120957
0.0015502
0.00183626
0.00207818
0.00227914
0.00244629
0.00259147
0.00271305
0.00292188
0.00320656
0.00322989
0.00305449
0.00399752
0.00707344
0.0107419
0.018207
0.0052939
0.00556775
0.00576598
0.00588888
0.00597824
0.00604323
0.00608464
0.00609758
0.00606702
0.00595455
0.00567812
0.00516045
0.00449869
0.0039228
0.00353183
0.00318193
0.00241166
0.000848988
8.8417e-05
0.000328884
0.000923079
0.00140403
0.00174622
0.00201158
0.00226028
0.00255275
0.00301805
0.00385379
0.00459705
0.00458059
0.00477514
0.00664253
0.00928494
0.0122382
0.017675
0.0052725
0.00562287
0.00583684
0.00597039
0.00607063
0.00614543
0.00619155
0.00620461
0.00618496
0.00613245
0.00602506
0.00579476
0.00531947
0.00458161
0.00386794
0.00341918
0.00312097
0.00264814
0.00153471
0.000283863
0.000359247
0.000702543
0.00129555
0.00173153
0.00212611
0.00262936
0.00348005
0.00491061
0.00648414
0.00711302
0.00733172
0.00839787
0.00985666
0.0114128
0.0130719
0.00539647
0.00563058
0.00579438
0.00590663
0.00600001
0.00608111
0.00614434
0.00617526
0.00615742
0.00609048
0.00598873
0.00585211
0.00563773
0.00522856
0.00452701
0.00380163
0.00334045
0.00304073
0.00263643
0.00175634
0.000375603
0.00024882
0.000527128
0.00119085
0.00172578
0.00229796
0.003135
0.00450258
0.00640915
0.00821645
0.00946808
0.0102177
0.0107895
0.0112146
0.0103186
0.00577732
0.00580644
0.00587639
0.00593635
0.00599115
0.00604407
0.00609637
0.00614015
0.00614925
0.00609669
0.00597873
0.00580984
0.00559793
0.0053155
0.00487552
0.00425828
0.00372897
0.00340402
0.00315711
0.00281639
0.00211297
0.00083137
3.20137e-05
0.000312355
0.000858473
0.00138643
0.00198513
0.00283914
0.00410436
0.00571998
0.00750635
0.00922697
0.0100654
0.0103669
0.0100721
0.00599343
0.00586278
0.00588248
0.00591599
0.00594631
0.00597123
0.00599547
0.00602541
0.00604652
0.00602626
0.00594247
0.00579042
0.00557047
0.00527319
0.00486462
0.00433303
0.00387925
0.00363373
0.00348435
0.00332555
0.00306839
0.00248325
0.00128957
0.000568008
0.000643777
0.00095894
0.00128338
0.00165924
0.00225724
0.00315433
0.00423589
0.00546797
0.00691199
0.00817955
0.0113301
0.00622108
0.00595453
0.00593258
0.00594279
0.00595307
0.0059562
0.00595654
0.00596221
0.00595996
0.00592347
0.0058348
0.00568543
0.00546503
0.00514959
0.00469319
0.00409376
0.00365523
0.00355399
0.00356254
0.00351989
0.00338451
0.00310262
0.00225196
0.00085475
0.000310806
0.000576513
0.00106562
0.00162572
0.00223151
0.0028596
0.00332212
0.00369165
0.00572185
0.00847745
0.0147879
0.00638561
0.00595533
0.0058803
0.00585894
0.00584132
0.00581884
0.00580812
0.005825
0.00583422
0.00579434
0.00569146
0.00552172
0.00527274
0.00491059
0.00436635
0.00361515
0.00309333
0.00317032
0.00343463
0.00359287
0.00360195
0.00344636
0.00299259
0.00203967
0.00122053
0.00109765
0.00154624
0.00243442
0.00331676
0.00388378
0.00415437
0.00488855
0.00752446
0.0109462
0.0179204
0.00650678
0.00601094
0.00591448
0.00586983
0.00581836
0.00574733
0.00568914
0.00569434
0.00572087
0.00569455
0.00558866
0.00539983
0.00511499
0.00469051
0.00403206
0.00309248
0.00227364
0.00236935
0.00288733
0.00328652
0.00347492
0.00346608
0.00319728
0.00251755
0.00166683
0.0014375
0.0021577
0.00356333
0.00468701
0.00516811
0.00573417
0.00723169
0.0096027
0.0124589
0.0179691
0.00642075
0.00601072
0.00593681
0.00589336
0.00582788
0.00572157
0.0056086
0.00558289
0.00563768
0.00566939
0.00561769
0.00547114
0.00521926
0.00482308
0.0041834
0.00316423
0.00186837
0.00140769
0.00195961
0.00256174
0.00292063
0.00301987
0.00279691
0.0021796
0.00152972
0.00158557
0.0026414
0.00452628
0.00614958
0.00667938
0.00731728
0.00881663
0.010475
0.0123707
0.0155924
0.0064058
0.00609209
0.00602426
0.00597375
0.00589412
0.00575944
0.00558985
0.00550013
0.00555366
0.00565638
0.00570811
0.0056767
0.00555849
0.00534136
0.00497842
0.00433289
0.00315812
0.0015582
0.00113212
0.00179798
0.00237785
0.00263873
0.00254169
0.00212503
0.00170211
0.00176212
0.00259404
0.00440517
0.00673887
0.00814998
0.00875648
0.00966174
0.0106381
0.0117519
0.0132669
0.00632367
0.00611774
0.00607391
0.00602671
0.00594008
0.00578406
0.00556365
0.0053864
0.005379
0.00549867
0.00561911
0.00567276
0.00564621
0.00553646
0.00532722
0.0049641
0.00429559
0.00303786
0.00135003
0.00116751
0.00194742
0.00249407
0.00268331
0.00256971
0.00233705
0.00225094
0.00254012
0.00353257
0.00552399
0.00792507
0.00947087
0.0102073
0.0107786
0.0114095
0.012288
0.00630381
0.00623127
0.00621393
0.00617158
0.00608163
0.00591327
0.00565839
0.00539176
0.00527131
0.00534429
0.00549089
0.00560323
0.00564761
0.00562438
0.00553466
0.00536515
0.00506109
0.00443796
0.00306348
0.00121293
0.00124825
0.00210272
0.00271844
0.00301293
0.00308104
0.00305999
0.00307293
0.00329614
0.00408462
0.00580697
0.0081049
0.00960694
0.010345
0.0109894
0.0126284
0.00643445
0.00634676
0.00630006
0.00623728
0.00612805
0.00594227
0.00568723
0.00541082
0.00522809
0.00524917
0.00539277
0.00551763
0.0055664
0.00553849
0.0054434
0.00528274
0.00503963
0.00464567
0.00389948
0.00234825
0.00119828
0.00170996
0.00251625
0.0031139
0.00348616
0.00368824
0.00378466
0.00383352
0.0039495
0.00444415
0.00591009
0.00788958
0.00925467
0.0105221
0.0140052
0.00681427
0.00653957
0.00640222
0.00628737
0.00613002
0.00589485
0.00562976
0.00538209
0.00519502
0.0051999
0.00539479
0.00561139
0.00574331
0.00577807
0.00573013
0.00560884
0.00540939
0.00509463
0.00452894
0.00332691
0.00164497
0.00165661
0.00250763
0.00327003
0.0038079
0.00416647
0.0043997
0.00453367
0.00457543
0.0045615
0.00500862
0.00668953
0.00862851
0.0107572
0.0160252
0.00723592
0.00665147
0.00641332
0.00624318
0.00602642
0.00572218
0.00544104
0.00525129
0.00510582
0.00506787
0.00522147
0.00546599
0.00566298
0.00576614
0.00578068
0.00571794
0.00558031
0.00534775
0.00493174
0.00406206
0.00227176
0.00191237
0.00268086
0.00347896
0.00407909
0.00450759
0.00482234
0.00505265
0.00518193
0.00513751
0.00533619
0.00692331
0.00913822
0.0117754
0.0178556
0.00750715
0.00667784
0.0063901
0.00618964
0.00592366
0.00554479
0.00521507
0.00506084
0.00500069
0.00501084
0.00514341
0.00535878
0.00555116
0.00566827
0.00570457
0.00566541
0.00555104
0.00534362
0.00497149
0.00422263
0.00257649
0.00199574
0.00296645
0.00386231
0.00448667
0.0049342
0.00528954
0.00560232
0.00586786
0.00599533
0.00646125
0.00818467
0.0102149
0.0126933
0.0182251
0.00745837
0.00659017
0.00632977
0.00614176
0.0058675
0.00544449
0.00502897
0.00482812
0.00478456
0.00483398
0.00499359
0.00523328
0.00545704
0.00560909
0.00568018
0.0056743
0.00559249
0.00542302
0.00511971
0.0045387
0.00335409
0.00213542
0.00300271
0.00399013
0.00466805
0.00516491
0.00559925
0.00607516
0.00665394
0.00717933
0.00796129
0.00951116
0.0110537
0.0129634
0.0170065
0.00717451
0.00650829
0.00631691
0.00615892
0.00590764
0.00548689
0.00497621
0.0046442
0.00452821
0.0045339
0.00465372
0.00487999
0.00512163
0.00530452
0.00540943
0.00543853
0.00539235
0.00526021
0.00500362
0.00451759
0.00361444
0.00253596
0.00322133
0.00427971
0.0049847
0.00547075
0.00589947
0.00644303
0.00729945
0.00831372
0.00931742
0.0104854
0.0115433
0.0128575
0.0155238
0.00710529
0.00655588
0.0063327
0.00614486
0.00589201
0.00551983
0.00501813
0.00458419
0.00437199
0.00430523
0.00434458
0.00450371
0.00471174
0.00487518
0.00496099
0.00496654
0.00488846
0.00470555
0.00436186
0.00376611
0.00292406
0.00245906
0.00331135
0.00446421
0.00526549
0.00579207
0.0062061
0.006689
0.00751664
0.0087385
0.00988474
0.0108067
0.0115542
0.012499
0.0149219
0.00743003
0.00661513
0.0062295
0.00591871
0.00557478
0.0052275
0.00483674
0.00445305
0.00423153
0.00414855
0.00414211
0.00422939
0.00438903
0.00452752
0.00459406
0.00457967
0.00447677
0.00425447
0.0038311
0.00309091
0.00211738
0.00217771
0.00368414
0.00481664
0.00558238
0.00610419
0.00649656
0.0068805
0.00749215
0.00856562
0.009747
0.0106394
0.0113217
0.0122818
0.0156035
0.0077793
0.0066031
0.00602356
0.00554177
0.00508252
0.00478866
0.00453618
0.00426406
0.00408259
0.00403485
0.00405526
0.00411989
0.00424216
0.00437518
0.00445636
0.00446358
0.00438725
0.00420211
0.00383768
0.00317503
0.00222943
0.00215127
0.00414678
0.00540059
0.00608402
0.00653884
0.00688203
0.00716927
0.00758674
0.00850536
0.00974709
0.0107303
0.0115131
0.0127265
0.0167679
0.00801948
0.00651226
0.00572739
0.00504282
0.0044999
0.00428891
0.00415754
0.00398306
0.0038215
0.00378105
0.00386774
0.00401718
0.00418396
0.00434058
0.00445171
0.00449356
0.00445337
0.00431132
0.00401802
0.00347935
0.00268559
0.00240363
0.00424004
0.00600754
0.00670901
0.00710897
0.00742672
0.00768883
0.00798702
0.00876657
0.0100068
0.0110154
0.0118641
0.0131641
0.0166465
0.00798217
0.00627394
0.00535207
0.00452077
0.00397461
0.0038388
0.00379206
0.00371295
0.00359063
0.00349746
0.00353745
0.0037245
0.00398178
0.00423575
0.00444503
0.00458336
0.00463133
0.00456998
0.00436644
0.00395689
0.00329163
0.00271231
0.00362813
0.0059274
0.00717899
0.00767358
0.00803294
0.00846868
0.00891625
0.00951157
0.0104216
0.0112147
0.0119263
0.0129437
0.0150168
0.00775402
0.00601499
0.00508108
0.00420893
0.00359808
0.00341948
0.00336664
0.00333432
0.00329151
0.00323918
0.00322758
0.00333683
0.00358474
0.00390852
0.0042395
0.00452633
0.00472734
0.00481022
0.004748
0.00450445
0.00402269
0.00334434
0.00313706
0.00465724
0.00678213
0.00781844
0.00825838
0.00880138
0.00967393
0.0105276
0.0112149
0.0117237
0.0121535
0.0126892
0.0136454
0.00748181
0.00589464
0.0050958
0.00428018
0.00344041
0.00300448
0.00283648
0.00276237
0.00271611
0.00269705
0.00273627
0.00288305
0.00317079
0.00357644
0.0040375
0.00448213
0.00484202
0.00506632
0.00513138
0.00502339
0.00470781
0.00413833
0.0034583
0.00356233
0.00537655
0.00741272
0.00829023
0.00865157
0.00933159
0.0103947
0.0112483
0.0117617
0.0120968
0.012422
0.0132423
0.00700848
0.00599605
0.00552319
0.00495411
0.0040276
0.00307102
0.00248337
0.00224051
0.00214453
0.00207898
0.00206379
0.00219358
0.00254757
0.00311229
0.00379637
0.00446802
0.00501383
0.00537352
0.00554546
0.00554147
0.00534829
0.00491266
0.0041996
0.00353542
0.00404661
0.00625587
0.00836272
0.00922157
0.00945791
0.00984339
0.010406
0.0108743
0.01123
0.0116064
0.0124537
0.00667593
0.00630697
0.00610489
0.00581239
0.00521507
0.00407985
0.00281808
0.00199739
0.00168689
0.00158816
0.00151572
0.00151535
0.00177574
0.00240548
0.00329862
0.00425388
0.00504987
0.00559083
0.00590812
0.0060364
0.00597924
0.00570187
0.00514025
0.00435009
0.00390173
0.00487596
0.0071997
0.00936401
0.0104852
0.0107731
0.0108224
0.0109036
0.0110213
0.0111245
0.0109413
0.00664908
0.00639984
0.00626017
0.00610601
0.00583982
0.00518518
0.00384742
0.00235165
0.0014452
0.00112623
0.00100782
0.000918875
0.00097269
0.00145126
0.00246202
0.00369675
0.00479861
0.00559254
0.00610604
0.0064222
0.00656801
0.00652968
0.00626609
0.00574328
0.00509056
0.00483464
0.00561608
0.00729932
0.00919514
0.0106871
0.0114218
0.011645
0.0116418
0.0113477
0.0102235
0.00679694
0.00631408
0.00613594
0.00601487
0.00586356
0.0055721
0.00480191
0.00328055
0.00176616
0.000999635
0.000730403
0.000566993
0.00041874
0.000509119
0.00126081
0.00267433
0.00409964
0.00521127
0.00597449
0.00649078
0.0068483
0.00707124
0.00714573
0.00704139
0.00674541
0.006335
0.00606461
0.00622121
0.00689716
0.0080254
0.00936799
0.0103074
0.0106526
0.0105759
0.0112257
0.00693639
0.00630589
0.00611257
0.00599753
0.00586943
0.00566302
0.00524058
0.00420652
0.00249578
0.00111952
0.000543914
0.00031759
0.000112156
0.000235893
0.000139851
0.00141159
0.00321099
0.00466025
0.00565605
0.00633579
0.00682854
0.00720852
0.00749458
0.00767677
0.00773396
0.00765118
0.0074454
0.00717921
0.00693126
0.00677197
0.006913
0.00764923
0.00866911
0.00989988
0.014417
0.00710299
0.00643568
0.00626088
0.00616149
0.00604762
0.00586583
0.00554687
0.00491734
0.00357257
0.00177462
0.000614188
0.00017144
0.000282403
0.000204115
5.29191e-05
0.000218153
0.00217151
0.00405867
0.00535313
0.00618146
0.00674979
0.00719064
0.00755128
0.00783853
0.00804247
0.00814612
0.00812546
0.00794204
0.00753976
0.00682662
0.00612157
0.00672316
0.00848709
0.0110855
0.0179002
0.00714525
0.00646545
0.0063408
0.00628204
0.00620068
0.0060505
0.00578763
0.00534231
0.00449359
0.00289791
0.00113888
0.000180269
9.37978e-05
7.54282e-05
0.000270289
2.81465e-05
0.000966102
0.00348563
0.00513345
0.00609859
0.00672223
0.00718562
0.00755892
0.00785555
0.00806674
0.00816863
0.00812867
0.00797372
0.0076984
0.00716745
0.00686625
0.00791014
0.00974823
0.0123533
0.0180221
0.0071441
0.00651232
0.00643175
0.00640848
0.00636449
0.00625735
0.00604585
0.00569982
0.00513736
0.00407472
0.00229721
0.000649753
0.000118379
9.94601e-05
0.000264055
0.000189343
0.000491479
0.00219748
0.00460558
0.00590768
0.00666211
0.00718134
0.00758132
0.00788327
0.00807231
0.00810518
0.00796148
0.00783508
0.00792975
0.00800763
0.0083304
0.00939373
0.0107315
0.0124963
0.0154646
0.00715961
0.00651309
0.0064234
0.00639975
0.00636676
0.00628999
0.00613607
0.00587991
0.00549357
0.00485571
0.0036363
0.00176903
0.000222321
2.273e-05
7.83083e-05
0.000249367
0.000194132
0.000477975
0.00327513
0.00529654
0.00636233
0.00704363
0.0075427
0.00791422
0.0081501
0.00820988
0.00807071
0.00792773
0.00817454
0.00868936
0.00930775
0.0101209
0.0109574
0.0119824
0.0137209
0.00732069
0.00661612
0.00650452
0.00646928
0.00642857
0.00635132
0.00621734
0.00601286
0.00572043
0.00529336
0.00457646
0.00322267
0.00133865
0.000217497
3.76303e-05
8.65311e-05
0.000274757
0.000221577
0.0013737
0.00424103
0.00583903
0.00673871
0.00736401
0.00784866
0.0082035
0.00839799
0.00839666
0.00827202
0.00836056
0.00885811
0.00951012
0.0101583
0.010753
0.0115581
0.013976
0.00754777
0.00669455
0.00653744
0.00648406
0.00643409
0.00635468
0.00623628
0.00607258
0.00583896
0.00551022
0.0050188
0.00418027
0.00266896
0.000784663
0.000156432
0.000161465
0.000221937
5.5227e-05
0.000319257
0.00246981
0.00508666