/*--------------------------------*- C++ -*----------------------------------*\
| =========                 |                                                 |
| \\      /  F ield         | OpenFOAM: The Open Source CFD Toolbox           |
|  \\    /   O peration     | Version:  v2006                                 |
|   \\  /    A nd           | Website:  www.openfoam.com                      |
|    \\/     M anipulation  |                                                 |
\*---------------------------------------------------------------------------*/
FoamFile
{
    version     2.0;
    format      ascii;
    class       volScalarField;
    location    "36";
    object      T;
}
// * * * * * * * * * * * * * * * * * * * * * * * * * * * * * * * * * * * * * //

dimensions      [0 0 0 1 0 0 0];


internalField   nonuniform List<scalar> 
78750
(
306.726
306.743
306.703
306.722
306.888
307.103
307.281
307.483
307.682
307.894
308.096
308.308
308.517
308.736
308.957
309.184
309.418
309.662
309.918
310.188
310.476
310.786
311.121
311.487
311.891
312.342
312.851
313.433
314.106
314.894
315.838
317.021
318.733
324.648
442.747
310.669
309.992
307.23
304.853
303.398
302.916
302.641
302.545
302.548
302.616
302.729
302.869
303.032
303.209
303.4
303.6
303.809
304.026
304.25
304.483
304.73
304.996
305.289
305.615
305.984
306.408
306.902
307.483
308.179
309.03
310.12
311.657
314.596
327.498
443.835
315.044
317.316
314.287
313.679
312.55
311.767
311.035
310.343
309.699
309.116
308.628
308.214
307.894
307.683
307.584
307.6
307.731
307.968
308.294
308.674
309.072
309.453
309.802
310.127
310.452
310.803
311.214
311.726
312.398
313.335
314.759
317.322
323.78
349.297
460.203
306.813
310.838
313.923
316.756
319.206
321.212
322.829
324.102
325.072
325.723
326.095
326.175
325.91
325.343
324.51
323.45
322.188
320.736
319.111
317.392
315.747
314.403
313.523
313.106
313.033
313.183
313.487
313.924
314.518
315.339
316.562
318.759
324.806
352.389
465.819
308.949
319.71
325.271
328.347
330.123
331.257
332.093
332.794
333.424
333.977
334.416
334.664
334.524
333.874
332.724
331.141
329.201
327.118
325.14
323.371
321.77
320.292
318.964
317.878
317.112
316.683
316.553
316.683
317.073
317.811
319.204
322.38
332.386
367.946
475.805
311.625
319.852
322.546
324.486
326.084
327.468
328.813
330.187
331.54
332.787
333.876
334.777
335.44
335.711
335.144
333.556
331.733
329.946
327.879
325.783
324.31
323.446
322.835
322.207
321.554
320.968
320.499
320.178
320.042
320.163
320.745
322.608
330.638
367.779
478.038
305.346
311.769
316.978
321.582
324.995
327.377
329.182
330.682
331.96
333.028
333.893
334.584
335.151
335.635
335.995
336.075
335.828
335.393
334.623
333.122
330.943
328.067
324.832
322.474
321.493
321.296
321.355
321.504
321.763
322.277
323.487
327.111
340.685
382.448
484.599
305.049
314.445
321.32
325.974
329.094
331.389
333.319
335.056
336.564
337.748
338.551
338.957
338.996
338.749
338.33
337.827
337.308
336.799
336.306
335.341
333.14
330.991
329.142
327.236
325.581
324.513
323.923
323.628
323.53
323.663
324.324
327.058
340.639
385.226
486.494
311.136
324.316
330.337
333.281
335.307
337.204
339.119
340.73
341.65
341.881
341.739
341.502
341.279
341.042
340.711
340.285
339.788
339.111
337.964
336.19
334.341
332.909
331.685
330.4
329.007
327.636
326.499
325.745
325.36
325.319
325.905
329.002
344.912
391.729
489.516
315.609
327.377
331.011
333.286
335.78
338.704
341.326
342.657
342.518
341.586
340.589
339.765
339.123
338.567
337.995
337.426
336.831
336.108
335.198
334.156
333.108
332.092
331.061
329.982
328.884
327.873
327.087
326.581
326.338
326.408
327.235
331.325
350.578
399.422
492.78
316.023
327.763
331.739
334.417
337.196
339.864
341.81
342.815
342.916
342.206
340.875
339.203
337.516
336.147
335.228
334.566
333.954
333.304
332.607
331.884
331.158
330.434
329.716
329.021
328.384
327.853
327.467
327.245
327.224
327.554
328.888
334.495
357.498
406.432
494.176
312.383
323.492
327.462
329.635
331.497
333.656
336.343
339.079
341.21
342.358
342.403
341.399
339.549
337.268
335.252
333.913
332.976
332.192
331.488
330.846
330.254
329.706
329.207
328.765
328.394
328.105
327.91
327.828
327.913
328.335
329.817
336.09
361.684
411.183
495.314
312.368
323.678
328.254
330.781
332.752
334.602
336.476
338.432
340.372
342.042
343.151
343.466
342.87
341.307
338.824
336.091
334.22
333.058
332.195
331.479
330.867
330.332
329.864
329.472
329.163
328.933
328.784
328.748
328.9
329.464
331.32
338.86
367.307
416.107
495.733
309.336
320.513
326.168
329.323
331.631
333.694
335.665
337.497
339.106
340.532
341.863
343.052
343.876
344.022
343.227
341.399
338.937
336.754
335.146
333.887
332.832
331.957
331.257
330.717
330.31
330.012
329.809
329.716
329.802
330.281
332.027
339.648
369.383
418.243
495.984
311.002
323.432
329.192
332.371
334.738
336.895
339.045
341.09
342.689
343.607
343.972
344.128
344.309
344.509
344.479
343.853
342.328
340.176
338.302
336.815
335.49
334.259
333.166
332.277
331.619
331.175
330.903
330.789
330.892
331.476
333.712
343.164
375.468
422.7
495.971
312.232
324.826
330.194
333.218
335.669
338.091
340.556
342.741
344.384
345.469
346.016
346.133
346.011
345.792
345.498
344.99
343.982
342.313
340.471
338.989
337.712
336.498
335.368
334.316
333.402
332.7
332.226
331.967
331.957
332.439
334.683
345.264
380.394
426.406
495.667
314.144
327.442
332.615
335.636
338.354
341.252
344.15
346.291
347.307
347.569
347.514
347.331
347.071
346.737
346.303
345.694
344.749
343.317
341.671
340.308
339.135
337.984
336.864
335.815
334.855
334.037
333.433
333.08
333.043
333.639
336.545
349.552
387.927
431.525
495.195
314.674
327.65
332.724
335.817
338.682
341.702
344.664
346.966
348.169
348.475
348.367
348.105
347.765
347.351
346.84
346.18
345.285
344.059
342.602
341.244
340.116
339.081
338.047
337.042
336.113
335.294
334.629
334.182
334.054
334.592
337.666
352.193
393.526
435.206
494.496
314.444
327.717
332.973
336.078
338.772
341.441
344.091
346.519
348.294
349.074
349.122
348.852
348.449
347.938
347.301
346.507
345.522
344.335
343.035
341.817
340.77
339.809
338.858
337.926
337.056
336.282
335.637
335.194
335.087
335.763
339.504
356.03
399.214
438.734
494.177
314.026
327.619
333.271
336.633
339.533
342.305
344.761
346.783
348.454
349.568
349.902
349.684
349.212
348.605
347.871
346.993
345.957
344.78
343.554
342.426
341.453
340.554
339.663
338.789
337.97
337.233
336.609
336.164
336.049
336.774
340.978
359.199
403.547
441.349
494.078
314.145
328.36
334.272
337.819
341.021
344.191
346.759
348.386
349.4
350.166
350.562
350.445
349.973
349.296
348.455
347.46
346.354
345.201
344.091
343.1
342.217
341.37
340.522
339.696
338.921
338.226
337.634
337.213
337.137
338.038
343.116
363.446
408.063
444.289
494.984
315.712
330.301
336.065
339.613
343.037
346.531
349.222
350.671
351.219
351.349
351.326
351.072
350.557
349.859
349.01
348.01
346.9
345.78
344.753
343.864
343.055
342.261
341.471
340.704
339.985
339.336
338.778
338.382
338.336
339.346
345.009
366.951
411.684
446.914
496.373
316.797
331.313
336.88
340.468
344.208
348.079
350.886
352.282
352.729
352.683
352.402
351.948
351.288
350.462
349.507
348.44
347.315
346.242
345.302
344.484
343.715
342.957
342.217
341.512
340.863
340.282
339.791
339.47
339.525
340.757
347.101
370.279
414.768
449.34
498.05
317.578
331.775
337.135
340.751
344.746
348.977
352.032
353.493
353.858
353.647
353.152
352.525
351.779
350.903
349.905
348.807
347.681
346.642
345.751
344.959
344.204
343.472
342.773
342.121
341.535
341.02
340.609
340.394
340.611
342.196
349.387
373.44
417.232
451.351
499.637
316.454
330.078
335.48
339.11
343.052
347.389
351.061
353.472
354.586
354.752
354.314
353.516
352.549
351.499
350.377
349.204
348.054
347.032
346.16
345.366
344.601
343.875
343.195
342.578
342.036
341.576
341.238
341.135
341.574
343.756
352.433
377.862
420.218
453.716
501.728
314.631
328.617
334.95
339.126
343.239
346.93
349.729
352.076
353.865
354.798
354.916
354.399
353.446
352.275
351.021
349.751
348.559
347.553
346.676
345.849
345.068
344.337
343.664
343.062
342.542
342.11
341.809
341.771
342.374
345.072
355.187
382.448
423.386
456.248
504.12
314.231
329.163
336.519
341.929
347.799
351.674
352.902
353.435
354.245
355.046
355.394
355.18
354.43
353.264
351.886
350.497
349.312
348.316
347.396
346.521
345.7
344.942
344.257
343.655
343.147
342.732
342.445
342.421
343.037
345.761
356.102
384.46
425.192
457.858
505.618
317.936
333.113
340.488
347.048
354.815
358.146
357.662
356.526
355.908
355.773
355.692
355.38
354.712
353.661
352.353
351.06
349.995
349.075
348.183
347.306
346.47
345.692
344.99
344.384
343.875
343.464
343.195
343.195
343.835
346.476
356.267
384.111
425.051
457.862
505.575
321.453
334.91
341.978
349.291
356.603
359.327
358.974
358.054
357.237
356.647
356.167
355.612
354.855
353.856
352.708
351.591
350.617
349.76
348.949
348.149
347.356
346.598
345.905
345.293
344.772
344.362
344.114
344.154
344.864
347.578
356.863
383.319
424.116
457.003
504.621
319.804
332.916
337.944
342.199
347.832
353.993
357.462
358.176
357.755
357.085
356.413
355.727
354.959
354.084
353.147
352.223
351.358
350.549
349.774
349.021
348.286
347.578
346.91
346.301
345.78
345.393
345.236
345.549
347.091
351.876
363.395
388.877
426.715
458.989
506.825
315.866
329.571
334.812
337.783
341.105
346.847
353.231
356.927
358.046
357.827
357.147
356.355
355.54
354.721
353.916
353.141
352.397
351.67
350.945
350.214
349.481
348.756
348.051
347.386
346.794
346.34
346.164
346.675
349.258
357.556
375.599
402.927
434.351
464.117
512.629
315.208
330.975
338.572
342.743
345.32
347.204
350.195
353.885
356.456
357.604
357.666
357.126
356.367
355.584
354.846
354.162
353.524
352.906
352.284
351.638
350.959
350.25
349.523
348.799
348.107
347.5
347.084
347.171
348.952
356.586
378.079
411.864
440.163
467.519
516.057
315.536
331.061
338.287
342.698
346.158
348.855
350.689
352.316
354.259
355.99
357.206
357.727
357.517
356.836
356.048
355.32
354.672
354.084
353.53
352.978
352.404
351.792
351.138
350.452
349.761
349.107
348.552
348.195
348.331
350.846
364.409
399.194
433.642
463.721
512.382
313.809
328.221
335.778
340.496
344.549
348.782
352.772
355.239
356.141
356.469
356.869
357.419
357.889
357.887
357.281
356.455
355.711
355.079
354.52
354.006
353.508
352.998
352.455
351.868
351.248
350.633
350.096
349.76
349.858
350.155
355.168
382.954
423.805
457.293
505.787
315.091
331.945
340.715
346.17
350.701
354.772
358.35
361.137
362.16
361.787
361.031
360.172
359.332
358.83
358.33
357.452
356.494
355.81
355.265
354.738
354.23
353.735
353.252
352.775
352.283
351.772
351.335
351.259
352.902
355.485
359.383
384.056
424.122
457.217
504.801
322.025
339.215
346.249
351.237
356.372
360.687
363.235
364.551
365.167
365.049
364.49
363.692
362.383
360.427
358.998
357.699
356.627
356.003
355.521
355.049
354.593
354.153
353.724
353.318
352.954
352.663
352.683
354.317
360.976
371.537
379.275
400.55
432.503
464.166
515.185
325.281
338.955
344.128
348.176
352.548
356.532
359.546
361.759
363.448
364.64
365.137
364.823
363.494
361.151
358.988
357.395
356.597
356.122
355.708
355.3
354.906
354.53
354.172
353.846
353.577
353.524
354.459
358.887
371.847
395.508
418.236
433.777
452.751
478.132
529.228
320.492
333.693
338.631
341.777
344.705
348.003
351.907
356.052
359.795
362.691
364.545
365.151
364.163
361.583
358.976
357.611
356.898
356.407
355.998
355.629
355.287
354.963
354.646
354.327
354.019
353.817
354.141
356.47
364.817
385.603
420.184
451.95
466.676
484.512
529.931
316.324
330.267
336.281
339.844
342.768
345.589
348.697
352.416
356.569
360.497
363.541
365.38
365.784
364.207
360.832
358.485
357.435
356.864
356.441
356.083
355.774
355.509
355.283
355.085
354.9
354.698
354.45
354.282
355.18
360.151
374.234
404.839
436.303
463.908
512.578
315.499
330.881
338.055
342.43
345.995
349.036
351.524
353.698
356.043
358.836
361.764
364.242
365.966
366.835
366.092
362.993
359.824
358.073
357.25
356.765
356.406
356.125
355.921
355.799
355.764
355.8
355.809
355.745
355.648
355.184
353.365
364.842
406.248
444.08
496.37
316.877
333.094
339.952
344.098
347.609
350.831
353.682
355.99
357.77
359.345
361.121
363.131
365.002
366.432
367.428
367.608
365.609
361.901
359.05
357.658
356.963
356.556
356.333
356.287
356.457
356.956
358.424
361.251
361.254
356.992
355.597
373.616
413.961
448.379
495.931
317.431
332.437
338.63
342.341
345.506
348.674
352.003
355.289
358.071
360.105
361.588
362.933
364.392
365.805
366.892
367.645
368.059
367.107
363.399
359.552
357.5
356.672
356.467
356.677
357.583
360.573
367.893
376.845
376.575
370.151
374.636
400.53
430.913
461.181
513.954
316.394
330.964
337.578
341.569
344.845
347.948
351.11
354.422
357.66
360.354
362.258
363.552
364.587
365.647
366.71
367.531
368.02
368.222
367.625
364.726
360.177
357.482
356.665
356.943
358.715
364.092
376.262
393.898
405.384
406.049
409.712
426.328
447.715
476.333
533.009
315.835
331.516
338.764
343.116
346.707
350.108
353.408
356.508
359.3
361.712
363.607
364.921
365.791
366.431
367.028
367.629
368.119
368.402
368.445
367.89
365.357
360.991
357.999
357.129
357.915
361.415
370.644
388.362
411.288
431.41
446.864
458.372
470.942
491.688
538.489
316.738
332.726
339.732
343.938
347.548
351.224
355.103
358.839
361.91
364.151
365.723
366.807
367.526
367.982
368.252
368.403
368.533
368.661
368.729
368.666
368.179
366.172
362.386
359.226
357.75
357.873
360.347
367.406
381.497
402.297
427.76
452.521
467.492
484.139
527.258
317.25
332.697
339.426
343.548
347.189
351.029
355.243
359.443
362.98
365.534
367.211
368.279
368.956
369.373
369.583
369.57
369.395
369.223
369.103
369
368.852
368.448
366.643
363.554
361.055
359.51
358.679
358.969
361.899
369.156
381.222
400.271
427.838
455.601
504.933
317.286
332.908
339.788
344.064
347.943
352.134
356.708
361.042
364.482
366.872
368.41
369.377
369.986
370.362
370.542
370.478
370.169
369.817
369.533
369.3
369.07
368.757
367.992
365.132
361.726
359.785
359.264
359.911
360.78
361.501
362.146
370.6
405.592
439.677
489.753
317.688
333.685
340.543
344.831
348.856
353.385
358.394
362.966
366.345
368.51
369.813
370.587
371.046
371.293
371.342
371.104
370.574
370.079
369.739
369.468
369.176
368.758
367.943
365.884
362.94
361.123
361.784
364.78
366.414
365.77
365.779
378.136
412.418
444.706
491.896
318.347
334.071
340.632
344.791
348.807
353.454
358.717
363.602
367.217
369.495
370.824
371.584
372.005
372.189
372.126
371.668
370.751
369.96
369.616
369.468
369.318
369.043
368.425
366.954
364.5
363.309
366.308
372.267
374.933
375.776
382.033
401.232
427.624
455.953
506.609
318.15
333.675
340.267
344.464
348.473
353.034
358.211
363.191
367.057
369.585
371.095
371.974
372.472
372.707
372.673
372.193
370.949
369.322
368.436
368.199
368.129
367.972
367.463
366.189
364.458
364.947
370.867
381.258
388.206
391.458
401.213
420.727
440.922
466.293
520.883
318.057
333.736
340.425
344.647
348.586
352.945
357.858
362.755
366.793
369.577
371.284
372.29
372.879
373.212
373.35
373.246
372.597
370.812
368.529
367.363
366.977
366.713
366.183
365.145
364.088
365.097
371.244
384.366
399.876
410.19
419.804
434.345
450.462
474.067
528.155
317.967
333.502
340.239
344.497
348.422
352.674
357.363
362.122
366.329
369.451
371.444
372.62
373.302
373.692
373.887
373.912
373.677
372.79
370.495
367.756
366.404
365.83
365.337
364.629
363.906
364.217
367.631
377.321
395.11
416.33
432.681
444.664
457.208
477.518
527.853
317.284
332.783
339.911
344.434
348.522
352.802
357.196
361.412
365.35
368.685
371.093
372.623
373.535
374.07
374.374
374.521
374.528
374.29
373.301
370.565
367.605
366.099
365.38
364.865
364.399
364.231
365.132
368.877
378.807
398.084
423.304
441.961
455.141
473.17
521.911
316.798
332.775
340.393
345.286
349.802
354.607
359.213
362.934
365.999
368.709
370.911
372.471
373.485
374.121
374.509
374.724
374.8
374.716
374.29
372.772
369.647
367.167
365.919
365.317
364.997
364.848
364.973
365.836
368.847
377.588
397.623
423.405
443.117
464.658
514.046
317.083
333.567
341.408
346.516
351.421
356.843
361.919
365.552
368.015
370.003
371.685
372.936
373.77
374.305
374.644
374.848
374.944
374.929
374.711
373.877
371.322
368.424
366.791
366.106
365.889
365.913
366.103
366.473
367.322
370.171
381.461
406.837
433.153
459.591
509.152
318.169
335.154
342.989
348.213
353.491
359.455
364.853
368.346
370.323
371.693
372.883
373.84
374.496
374.909
375.158
375.296
375.348
375.315
375.143
374.579
372.577
369.605
367.766
367.064
366.989
367.261
367.781
368.482
369.317
371.291
380.64
405.334
432.476
460.164
510.113
319.685
337.028
344.724
349.982
355.504
361.747
367.299
370.715
372.381
373.283
373.999
374.627
375.1
375.412
375.6
375.698
375.719
375.662
375.475
374.947
373.27
370.285
368.483
368.034
368.324
369.162
370.662
372.89
375.314
379.075
391.026
415.639
438.944
464.972
517.08
320.95
338.352
345.88
351.055
356.491
362.599
368.316
372.113
373.948
374.704
375.076
375.37
375.622
375.812
375.936
376.002
376.012
375.958
375.804
375.416
374.313
371.699
369.561
369
369.475
370.889
373.798
378.878
385.132
392.252
406.185
427.923
447.264
471.566
525.19
321.23
338.97
346.596
351.711
356.809
362.248
367.65
371.975
374.515
375.69
376.136
376.284
376.339
376.361
376.361
376.335
376.28
376.181
376.004
375.646
374.809
372.926
370.943
370.242
370.694
372.316
376.05
383.539
394.648
406.571
420.939
437.843
453.82
476.472
529.047
321.15
339.694
347.873
353.353
358.61
363.497
367.831
371.661
374.35
375.814
376.477
376.718
376.769
376.741
376.674
376.577
376.445
376.256
375.959
375.453
374.578
373.25
371.882
371.292
371.654
373.07
376.402
383.634
396.478
412.524
428.189
442.501
456.211
476.906
527.968
322.685
341.982
350.585
356.774
363.006
367.903
371.146
373.75
375.753
376.863
377.292
377.359
377.284
377.167
377.036
376.888
376.71
376.469
376.105
375.513
374.67
373.939
373.236
372.664
372.659
373.412
375.522
380.563
391.15
407.705
425.598
441.106
454.968
474.996
525.226
325.053
344.505
353.464
360.504
367.637
372.092
374.199
375.631
376.955
377.826
378.157
378.137
377.971
377.78
377.597
377.418
377.224
376.989
376.664
376.184
375.603
375.463
375.629
375.23
374.977
375.106
376.088
379.236
387.485
403.307
422.783
439.788
454.408
474.951
525.358
327.585
346.746
356.288
364.477
372.168
375.931
377.207
377.739
378.264
378.736
378.931
378.867
378.671
378.447
378.234
378.034
377.836
377.622
377.369
377.073
376.879
377.376
378.774
379.317
379.341
379.54
380.401
383.131
390.675
406.154
425.751
442.357
457.137
478.909
530.617
329.068
347.791
357.871
367.144
374.906
378.015
379.017
379.344
379.471
379.578
379.616
379.519
379.33
379.11
378.887
378.668
378.454
378.24
378.026
377.838
377.84
378.61
380.935
383.606
384.982
386.288
388.623
393.127
401.217
414.957
432.121
447.336
462.245
485.291
536.565
328.367
346.573
356.503
366.111
374.747
378.439
379.738
380.243
380.401
380.379
380.275
380.118
379.917
379.696
379.468
379.24
379.015
378.798
378.6
378.447
378.449
378.995
380.999
384.853
388.462
391.156
395.071
402.363
413.586
426.957
440.586
453.238
466.992
489.03
537.308
326.363
343.644
352.4
361.068
371.142
377.417
380.133
381.125
381.405
381.365
381.152
380.856
380.541
380.236
379.949
379.68
379.432
379.215
379.039
378.924
378.94
379.323
380.731
384.207
389.314
393.378
396.895
403.343
415.353
430.565
443.891
455.177
467.484
487.836
535.877
323.429
339.701
346.764
352.967
361.812
371.166
377.632
380.856
382.009
382.201
381.998
381.627
381.2
380.777
380.386
380.043
379.764
379.551
379.404
379.337
379.406
379.798
381.045
384.28
390.484
397.909
403.237
407.478
414.492
426.113
439.395
451.997
465.817
488.393
539.377
320.622
336.922
343.617
347.969
353.095
361.23
370.53
377.664
381.421
382.727
382.843
382.484
381.963
381.416
380.894
380.448
380.113
379.885
379.743
379.686
379.763
380.128
381.217
384.089
390.432
400.861
412.708
422.587
429.984
436.952
445.7
456.698
471.049
495.069
543.263
319.986
338.157
346.025
350.439
353.843
357.812
364.443
372.574
379.012
382.372
383.46
383.411
382.903
382.27
381.626
381.035
380.595
380.319
380.158
380.077
380.086
380.263
380.839
382.404
386.239
394.1
406.571
421.905
437.572
450.908
460.456
468.701
478.96
496.88
538.239
321.137
340.339
348.699
353.761
357.779
361.073
364.51
369.897
376.314
381.07
383.37
383.993
383.759
383.186
382.544
381.872
381.286
380.912
380.711
380.614
380.586
380.629
380.797
381.256
382.423
385.151
390.659
399.844
412.771
428.668
444.891
457.486
467.392
481.5
523.684
321.466
339.446
347.23
352.367
357.164
361.773
365.844
369.798
374.835
379.875
383.067
384.35
384.462
384.001
383.409
382.813
382.15
381.654
381.395
381.287
381.268
381.311
381.411
381.582
381.87
382.413
383.527
385.775
389.941
396.909
408.379
425.053
442.965
463.412
509.905
320.727
337.498
344.956
349.992
354.922
360.155
365.229
369.638
373.855
378.541
382.398
384.419
384.967
384.67
384.099
383.638
383.102
382.5
382.168
382.053
382.062
382.16
382.344
382.616
382.969
383.367
383.71
383.84
383.803
384.519
391.278
410.486
433.922
459.832
510.151
320.099
337.033
344.597
349.545
354.258
359.374
364.673
369.382
373.33
377.274
381.313
384.126
385.264
385.24
384.69
384.226
384.019
383.498
383.047
382.893
382.919
383.079
383.394
383.913
384.722
385.947
387.584
388.742
388.438
389.338
398.702
420
442.038
468.812
523.636
319.78
337.512
345.4
350.357
354.843
359.613
364.733
369.448
373.214
376.425
379.897
383.221
385.185
385.676
385.289
384.732
384.624
384.67
384.16
383.855
383.81
383.961
384.343
385.08
386.432
388.914
393.067
397.942
401.298
405.655
417.04
435.452
454.156
479.893
534.244
320.002
338.182
346.288
351.423
356.095
360.996
366.101
370.704
374.172
376.728
379.118
381.977
384.575
385.834
385.855
385.313
385.014
385.465
385.684
385.177
384.913
384.895
385.136
385.771
387.107
389.806
394.933
402.828
411.454
420.08
431.524
445.658
460.796
483.587
534.255
320.091
338.235
346.436
351.742
356.718
362.05
367.529
372.286
375.701
377.912
379.544
381.318
383.617
385.52
386.187
385.888
385.408
385.678
386.837
387.11
386.615
386.332
386.267
386.495
387.231
388.946
392.587
399.45
409.637
421.375
433.888
446.695
460.018
480.352
529.517
320.522
339.325
347.831
353.4
358.749
364.486
370.122
374.702
377.822
379.715
380.908
381.903
383.231
385.007
386.236
386.371
385.906
385.799
387.015
388.887
389.09
388.623
388.313
388.175
388.328
389.06
390.991
395.392
403.872
416.332
430.499
444.225
457.812
478.244
528.429
322.083
341.818
350.447
356.204
361.945
368.04
373.597
377.701
380.284
381.769
382.627
383.213
383.819
384.818
386.081
386.663
386.411
386.087
386.865
389.474
391.931
392.004
391.521
391.178
391.034
391.341
392.635
396.104
403.822
416.698
431.816
445.928
459.99
481.736
533.293
323.981
344.116
352.69
358.618
364.802
371.23
376.596
380.194
382.316
383.508
384.18
384.582
384.88
385.262
385.99
386.744
386.827
386.471
386.73
388.936
393.121
396.133
396.318
395.858
395.64
396.077
397.925
402.141
410.23
422.906
437.33
450.784
465.123
488.276
539.682
325.544
345.698
354.18
360.233
366.754
373.426
378.684
381.957
383.794
384.821
385.409
385.747
385.941
386.071
386.284
386.74
387.085
386.913
386.703
387.722
391.359
397.14
401.493
402.58
402.523
403.079
405.644
411.256
419.84
430.974
443.149
455.344
469.652
493.479
543.315
326.486
346.757
355.222
361.288
367.823
374.479
379.738
382.981
384.766
385.762
386.344
386.689
386.882
386.967
386.987
387.052
387.248
387.312
387.04
386.985
388.479
392.971
400.097
406.77
410.328
411.821
414.119
419.612
428.529
438.786
449.081
459.83
473.305
496.265
543.86
327.238
347.826
356.311
362.308
368.645
375.07
380.288
383.603
385.435
386.449
387.047
387.414
387.634
387.748
387.772
387.73
387.69
387.689
387.571
387.246
387.179
388.605
393.025
400.755
409.834
417.139
421.68
426.226
433.61
443.31
453.253
463.347
475.708
496.713
542.255
327.702
348.488
356.949
362.841
368.976
375.227
380.49
383.993
385.956
387.023
387.641
388.021
388.26
388.401
388.46
388.445
388.371
388.273
388.153
387.925
387.55
387.352
388.345
392.051
399.63
410.412
421.363
429.364
435.66
443.517
452.917
462.982
474.761
494.209
539.34
327.559
348.359
356.836
362.674
368.666
374.777
380.132
383.998
386.272
387.487
388.156
388.556
388.806
388.962
389.046
389.068
389.032
388.948
388.826
388.649
388.368
387.962
387.645
388.214
391.168
398.221
409.947
423.945
434.741
441.724
449.442
458.902
470.599
489.969
536.789
326.945
347.803
356.482
362.487
368.616
374.625
379.744
383.746
386.392
387.854
388.629
389.065
389.328
389.491
389.588
389.632
389.63
389.589
389.509
389.384
389.191
388.893
388.48
388.112
388.446
390.998
398.022
411.188
428.141
441.06
448.409
456.649
467.96
488.105
536.289
326.433
347.317
356.256
362.657
369.437
375.762
380.403
383.837
386.46
388.12
389.027
389.523
389.813
389.991
390.1
390.162
390.189
390.187
390.155
390.091
389.981
389.8
389.517
389.128
388.773
389.042
391.552
399.213
414.684
435.609
451.601
460.433
470.903
490.194
536.597
326.273
346.849
355.867
362.703
370.547
377.941
382.618
385.188
387.07
388.527
389.439
389.961
390.268
390.46
390.585
390.667
390.719
390.748
390.757
390.745
390.708
390.631
390.495
390.272
389.956
389.654
389.879
392.241
400.14
417.308
442.193
461.142
473.224
490.061
534.096
325.976
345.699
354.481
361.453
370.005
378.763
384.545
387.172
388.371
389.269
389.962
390.418
390.709
390.903
391.039
391.138
391.212
391.267
391.308
391.336
391.351
391.353
391.334
391.283
391.176
390.991
390.771
390.871
392.599
399.186
415.849
443.729
462.631
481.925
526.656
324.752
343.488
351.872
358.477
366.606
375.992
383.697
387.937
389.622
390.285
390.694
390.998
391.221
391.385
391.511
391.61
391.692
391.76
391.82
391.873
391.925
391.978
392.039
392.114
392.203
392.286
392.306
392.221
392.19
393.065
397.792
417.382
444.419
470.054
516.347
322.868
341.121
349.235
355.078
361.66
369.994
378.957
385.789
389.462
390.941
391.467
391.697
391.84
391.949
392.04
392.118
392.188
392.252
392.315
392.379
392.451
392.539
392.659
392.837
393.1
393.447
393.822
394.107
394.158
393.949
393.967
403.871
433.249
462.984
510.091
321.514
340.378
348.872
354.41
359.73
365.962
373.691
381.562
387.388
390.536
391.837
392.293
392.459
392.541
392.598
392.649
392.698
392.748
392.803
392.866
392.947
393.06
393.237
393.533
394.01
394.682
395.471
396.221
396.719
396.753
396.62
405.055
433.304
464.637
512.854
321.954
342.386
351.725
357.683
362.941
368.052
373.491
379.61
385.442
389.588
391.772
392.663
392.975
393.085
393.135
393.169
393.201
393.239
393.283
393.339
393.421
393.555
393.796
394.247
395.024
396.134
397.443
398.754
399.872
400.782
403.057
415.054
440.517
471.062
521.434
324.217
346.123
355.894
362.204
367.806
372.933
377.444
381.664
385.896
389.537
391.896
393.029
393.455
393.595
393.644
393.668
393.689
393.714
393.748
393.798
393.881
394.038
394.362
395.025
396.218
397.927
399.917
401.978
404.084
406.8
412.899
428.401
449.996
477.595
529.973
327.326
350.014
359.753
366.069
371.676
376.723
381.002
384.538
387.665
390.418
392.435
393.535
393.973
394.108
394.144
394.155
394.163
394.176
394.199
394.242
394.328
394.514
394.932
395.84
397.528
399.983
402.869
405.968
409.528
414.679
424.184
440.406
458.59
483.412
535.916
330.451
353.583
363.299
369.677
375.292
380.093
383.906
386.9
389.395
391.527
393.155
394.123
394.524
394.631
394.643
394.635
394.629
394.629
394.642
394.678
394.765
394.975
395.475
396.596
398.748
402.006
405.985
410.406
415.658
423.03
434.345
449.276
465.114
488.279
539.284
333.031
356.255
365.886
372.363
378.153
382.989
386.586
389.145
391.094
392.701
393.959
394.756
395.099
395.17
395.15
395.118
395.094
395.081
395.082
395.109
395.193
395.409
395.942
397.168
399.6
403.481
408.519
414.36
421.252
430.182
441.912
455.255
469.6
491.724
540.887
333.991
357.027
366.469
372.917
378.822
383.879
387.743
390.473
392.374
393.754
394.767
395.414
395.697
395.73
395.673
395.61
395.564
395.536
395.525
395.542
395.616
395.824
396.352
397.592
400.127
404.35
410.13
417.159
425.433
435.342
446.859
459.021
472.43
493.778
541.507
333.127
355.862
365.204
371.663
377.742
383.082
387.3
390.438
392.7
394.288
395.362
396.015
396.299
396.318
396.224
396.123
396.047
395.998
395.971
395.975
396.034
396.219
396.707
397.896
400.438
404.86
411.081
418.825
428.012
438.523
449.807
461.291
474.174
495.033
541.896
331.206
353.296
362.629
369.314
375.943
381.907
386.55
389.956
392.471
394.326
395.632
396.452
396.846
396.911
396.803
396.661
396.549
396.471
396.425
396.411
396.449
396.596
397.008
398.06
400.479
405.056
411.809
420.157
429.851
440.607
451.717
462.864
475.474
496.034
542.278
328.521
349.403
358.643
365.569
372.938
379.957
385.467
389.369
392.129
394.161
395.663
396.695
397.276
397.467
397.396
397.23
397.076
396.965
396.894
396.86
396.874
396.977
397.276
398.068
400.038
404.274
411.361
420.552
430.938
441.934
452.932
463.875
476.257
496.447
542.124
325.339
344.992
354.169
361.172
368.942
376.91
383.546
388.313
391.587
393.894
395.578
396.788
397.563
397.926
397.958
397.809
397.626
397.479
397.382
397.329
397.328
397.403
397.622
398.169
399.53
402.781
409.224
418.801
430.118
441.847
453.099
463.992
476.109
495.772
541.155
322.894
342.486
351.893
358.759
366.106
374.014
381.23
386.794
390.722
393.465
395.424
396.825
397.769
398.297
398.461
398.371
398.182
398.006
397.881
397.812
397.801
397.87
398.071
398.516
399.467
401.646
406.582
415.347
426.922
439.492
451.575
462.932
475.08
494.442
539.984
322.906
344.284
354.263
360.856
367.014
373.406
379.812
385.394
389.691
392.832
395.121
396.774
397.911
398.597
398.894
398.889
398.721
398.526
398.377
398.293
398.281
398.369
398.627
399.184
400.212
401.979
405.655
413.152
424.336
437.206
449.927
461.836
474.288
493.885
539.938
326.41
350.346
360.844
367.148
372
376.205
380.523
384.972
388.978
392.216
394.725
396.622
397.978
398.84
399.272
399.363
399.234
399.031
398.858
398.756
398.745
398.868
399.238
400.096
401.729
404.062
407.373
413.921
424.792
437.769
450.484
462.38
475.076
495.366
541.872
332.296
357.837
368.461
374.602
378.663
381.258
383.391
385.943
388.922
391.811
394.302
396.334
397.894
398.962
399.568
399.789
399.734
399.541
399.344
399.215
399.195
399.349
399.853
401.119
403.763
407.786
412.152
417.976
427.848
440.493
452.869
464.422
477.26
498.33
544.712
337.7
363.536
374.075
380.364
384.407
386.467
387.432
388.334
389.89
391.994
394.157
396.099
397.72
398.947
399.74
400.131
400.204
400.071
399.866