/*--------------------------------*- C++ -*----------------------------------*\
| =========                 |                                                 |
| \\      /  F ield         | OpenFOAM: The Open Source CFD Toolbox           |
|  \\    /   O peration     | Version:  v2006                                 |
|   \\  /    A nd           | Website:  www.openfoam.com                      |
|    \\/     M anipulation  |                                                 |
\*---------------------------------------------------------------------------*/
FoamFile
{
    version     2.0;
    format      ascii;
    class       surfaceScalarField;
    location    "83";
    object      phi;
}
// * * * * * * * * * * * * * * * * * * * * * * * * * * * * * * * * * * * * * //

dimensions      [1 0 -1 0 0 0 0];
oriented        oriented;


internalField   nonuniform List<scalar> 
228225
(
0.000825831
1.346e-05
-2.84592e-05
0.000894918
3.51386e-05
-2.4237e-05
0.000935116
3.92492e-05
-2.39498e-05
0.000968545
3.48819e-05
3.17104e-05
0.00105288
2.65676e-05
2.63828e-05
0.00106194
1.8744e-05
-2.8997e-07
0.000906024
1.68154e-05
2.20425e-06
0.000715905
1.95633e-05
-9.92695e-06
0.000555324
2.58174e-05
-9.84463e-06
0.000457183
2.87357e-05
-1.94594e-05
0.000393192
3.09692e-05
-1.78007e-05
0.000359208
3.12191e-05
-2.36804e-05
0.000337053
3.1308e-05
-2.13001e-05
0.000327492
2.99622e-05
-2.4832e-05
0.000319458
2.97201e-05
-2.22327e-05
0.000317889
2.73364e-05
-2.52355e-05
0.000313684
2.67725e-05
-2.20012e-05
0.000315223
2.40009e-05
-2.52603e-05
0.000311615
2.44149e-05
-2.1022e-05
0.000313585
2.32153e-05
-2.52632e-05
0.000307914
2.4894e-05
-1.97847e-05
0.000307344
2.45624e-05
-2.41199e-05
0.000300753
2.52429e-05
-1.92478e-05
0.000296488
2.5299e-05
-2.12535e-05
0.000290223
2.50037e-05
-1.93349e-05
0.00028176
2.60008e-05
-1.78324e-05
0.000273672
2.61566e-05
-1.85035e-05
0.000261158
2.79083e-05
-1.53535e-05
0.00024658
2.95941e-05
-1.58334e-05
0.000228911
3.12862e-05
-1.35947e-05
0.000207051
3.50266e-05
-1.26674e-05
0.000175939
3.85192e-05
-8.91119e-06
0.000144414
3.91225e-05
-9.66298e-06
9.47469e-05
5.18233e-05
-4.17936e-06
6.08437e-05
2.7186e-05
-8.55232e-06
2.00357e-05
-1.37938e-06
-3.40302e-05
5.03893e-05
-1.55887e-06
-5.28101e-05
5.22579e-05
-5.94303e-06
-8.11686e-05
5.41159e-05
-1.58328e-06
-0.000107376
5.00246e-05
-5.85955e-06
-0.000126649
4.43862e-05
-1.22676e-05
-0.000135103
3.8423e-05
-1.75637e-05
-0.000132084
3.27634e-05
-2.13876e-05
-0.000116591
2.98932e-05
-2.36427e-05
-9.70551e-05
2.91246e-05
-2.44085e-05
-7.11941e-05
2.63691e-05
-2.50954e-05
-4.36629e-05
2.47622e-05
-2.4513e-05
-1.3095e-05
2.17881e-05
-2.39626e-05
1.53931e-05
2.1036e-05
-2.25207e-05
4.34292e-05
2.01848e-05
-2.14358e-05
6.86598e-05
1.86425e-05
-1.9686e-05
9.52628e-05
1.48215e-05
-1.78146e-05
0.000121456
1.07477e-05
-1.59332e-05
0.00014851
8.93512e-06
-1.41229e-05
0.000172075
1.13661e-05
-1.36514e-05
0.00019126
1.69488e-05
-1.27738e-05
0.000204552
2.3403e-05
-1.33785e-05
0.000212549
2.88506e-05
-1.28267e-05
0.000217185
3.24998e-05
-1.30291e-05
0.000218598
3.46241e-05
-1.23183e-05
0.000218326
3.60208e-05
-1.11519e-05
0.000215922
3.73434e-05
-1.04186e-05
0.000210307
3.9431e-05
-7.80219e-06
0.000201932
4.26495e-05
-6.82581e-06
0.00018804
4.72109e-05
-3.8809e-06
0.000169333
5.28232e-05
-1.8424e-06
0.00013913
5.92286e-05
3.3657e-06
9.88677e-05
6.65915e-05
7.22889e-06
4.49666e-05
7.89708e-05
2.04547e-05
7.12744e-05
2.72282e-05
-5.68508e-06
3.89948e-05
-1.45034e-05
1.02857e-05
4.55316e-05
-1.40321e-05
2.61633e-05
4.6307e-05
-1.32703e-05
3.99921e-05
4.7676e-05
-1.1474e-05
4.81522e-05
4.67559e-05
-8.71222e-06
5.0883e-05
4.18193e-05
-4.1119e-06
5.16337e-05
3.62392e-05
-1.13995e-06
4.92638e-05
3.04613e-05
1.98438e-06
4.73559e-05
2.68526e-05
2.64419e-06
4.72038e-05
2.30416e-05
3.53767e-06
5.2235e-05
1.35093e-05
4.84569e-06
6.77472e-05
2.15185e-07
6.37291e-06
8.82093e-05
-8.63542e-06
7.95056e-06
0.00010992
-1.07917e-05
8.83505e-06
0.000125763
-5.78957e-06
9.37558e-06
0.0001337
-5.09756e-07
1.0349e-05
0.000135025
-3.68349e-07
1.24247e-05
0.000133215
-3.55627e-06
1.42928e-05
0.000131436
-5.62912e-06
1.50046e-05
0.000131878
-3.55402e-06
1.42576e-05
0.000134844
2.44016e-06
1.24093e-05
0.000138691
1.04054e-05
1.05582e-05
0.000142297
1.77703e-05
8.77175e-06
0.000144228
2.36238e-05
7.73412e-06
0.000143853
2.80054e-05
7.20517e-06
0.000141216
3.14119e-05
6.90951e-06
0.000135999
3.46124e-05
7.1782e-06
0.000128621
3.82315e-05
7.4101e-06
0.000118665
4.28519e-05
8.16297e-06
0.000105892
4.83133e-05
9.41902e-06
8.97837e-05
5.4551e-05
1.11602e-05
7.00369e-05
6.12318e-05
1.4169e-05
4.72574e-05
6.8446e-05
1.84243e-05
1.93874e-05
7.47828e-05
2.63254e-05
6.33373e-05
2.20074e-05
4.89209e-06
4.86718e-05
-1.13032e-05
1.55588e-05
5.08254e-05
-1.32559e-05
3.39958e-05
4.72662e-05
-1.72205e-05
5.49838e-05
4.39264e-05
-1.56333e-05
7.14552e-05
4.371e-05
-1.21223e-05
8.19759e-05
4.49636e-05
-1.28701e-05
8.60633e-05
4.53217e-05
-1.28875e-05
8.48716e-05
4.3884e-05
-1.26481e-05
8.18615e-05
4.09319e-05
-1.27561e-05
7.76927e-05
3.56392e-05
-1.15619e-05
7.05322e-05
2.59976e-05
-8.0304e-06
5.93662e-05
1.22125e-05
-2.21591e-06
4.67544e-05
-5.50758e-07
4.11174e-06
3.76717e-05
-8.62169e-06
6.94105e-06
3.58221e-05
-9.9068e-06
6.59628e-06
3.76055e-05
-6.29528e-06
5.11119e-06
3.52164e-05
-1.00028e-06
4.16299e-06
2.60578e-05
2.04912e-06
4.21845e-06
1.11312e-05
4.13208e-06
5.20786e-06
-4.4413e-06
5.62998e-06
6.35389e-06
-1.5643e-05
6.60115e-06
7.21012e-06
-2.00889e-05
7.44825e-06
7.7189e-06
-1.89946e-05
8.91407e-06
8.06437e-06
-1.49824e-05
1.14912e-05
8.28826e-06
-1.07047e-05
1.52434e-05
8.47117e-06
-8.00878e-06
1.98448e-05
8.66572e-06
-7.51139e-06
2.48706e-05
8.86091e-06
-8.98599e-06
2.99292e-05
9.20796e-06
-1.14798e-05
3.48168e-05
9.76565e-06
-1.41698e-05
3.92938e-05
1.07554e-05
-1.61463e-05
4.32002e-05
1.22986e-05
-1.65151e-05
4.6143e-05
1.45779e-05
-1.36826e-05
4.76054e-05
1.7169e-05
-6.81485e-06
4.70047e-05
1.8929e-05
4.02501e-05
1.38791e-05
1.23095e-05
4.97091e-05
-1.37202e-05
2.79241e-05
5.17498e-05
-1.51954e-05
5.37655e-05
4.59416e-05
-2.27286e-05
8.45656e-05
4.02451e-05
-2.5476e-05
0.000112694
3.56439e-05
-1.92647e-05
0.000136039
3.30436e-05
-1.13003e-05
0.000159118
3.0314e-05
-8.43304e-06
0.000183163
2.64994e-05
-7.60332e-06
0.000206722
2.17466e-05
-6.06096e-06
0.000227797
1.63951e-05
-4.25819e-06
0.000243166
9.77881e-06
-1.94745e-06
0.000249267
1.96805e-06
2.2401e-06
0.0002465
-4.85055e-06
7.69345e-06
0.000236206
-1.13416e-05
1.40089e-05
0.000222982
-1.7117e-05
1.87238e-05
0.000211608
-1.866e-05
2.01347e-05
0.000203228
-1.5174e-05
1.91654e-05
0.000194568
-8.76876e-06
1.73963e-05
0.000184691
-2.32309e-06
1.58545e-05
0.00017257
3.95522e-06
1.48089e-05
0.000158842
8.22426e-06
1.38524e-05
0.000143398
1.17803e-05
1.2535e-05
0.000126524
1.54535e-05
1.10247e-05
0.000109367
1.91165e-05
9.80315e-06
9.31198e-05
2.26448e-05
9.09112e-06
7.82162e-05
2.62711e-05
8.80099e-06
6.44727e-05
3.01579e-05
8.7886e-06
5.16349e-05
3.41011e-05
8.93203e-06
3.97498e-05
3.76914e-05
9.18104e-06
2.90816e-05
4.04591e-05
9.56071e-06
1.99339e-05
4.21068e-05
1.01436e-05
1.24007e-05
4.24338e-05
1.1014e-05
8.25861e-06
4.00956e-05
1.19642e-05
5.76732e-06
3.83426e-05
1.27635e-05
3.59668e-05
9.6233e-06
9.73184e-06
3.90949e-05
-7.87918e-07
2.7644e-05
3.98043e-05
-6.8405e-06
5.09693e-05
3.07975e-05
-9.27579e-06
7.68893e-05
2.06071e-05
-7.97874e-06
0.000107448
9.41983e-06
-6.33603e-06
0.000141791
-4.73997e-07
-2.85433e-06
0.000176124
-8.26885e-06
2.04034e-06
0.000210102
-1.46241e-05
4.76626e-06
0.000242165
-1.97134e-05
6.90785e-06
0.000270957
-2.34775e-05
8.5582e-06
0.00029442
-2.61736e-05
1.00564e-05
0.000310861
-2.79887e-05
1.12805e-05
0.00032021
-2.8206e-05
1.18179e-05
0.000321799
-2.67188e-05
1.15032e-05
0.000316484
-2.41596e-05
1.04194e-05
0.000307501
-1.98933e-05
9.15884e-06
0.000296884
-1.31491e-05
8.33894e-06
0.000285084
-4.98266e-06
8.16308e-06
0.000270169
4.02921e-06
8.46391e-06
0.000251376
1.2728e-05
8.88058e-06
0.000227702
2.09061e-05
9.43814e-06
0.000200943
2.84196e-05
1.03789e-05
0.000173545
3.46437e-05
1.10974e-05
0.000146994
3.88092e-05
1.07017e-05
0.000122296
4.09137e-05
9.35119e-06
0.000100356
4.18959e-05
7.95027e-06
8.16585e-05
4.26767e-05
7.04015e-06
6.61419e-05
4.35586e-05
6.59888e-06
5.34476e-05
4.43607e-05
6.4291e-06
4.31107e-05
4.46965e-05
6.39572e-06
3.46785e-05
4.42384e-05
6.51471e-06
2.77706e-05
4.26414e-05
6.99221e-06
2.13576e-05
3.969e-05
7.76541e-06
1.00691e-05
4.07278e-05
9.4741e-06
3.7938e-05
7.5947e-06
1.47948e-05
1.88939e-05
4.64977e-06
4.86832e-05
4.43171e-06
2.8e-07
8.57279e-05
-1.0868e-05
3.16146e-06
0.000123902
-2.39098e-05
4.74044e-06
0.000161086
-3.36148e-05
4.25651e-06
0.000194581
-3.94521e-05
4.03716e-06
0.000222595
-4.20433e-05
4.47415e-06
0.000244262
-4.22405e-05
4.8557e-06
0.000259199
-4.05073e-05
5.00581e-06
0.000267589
-3.72664e-05
4.8042e-06
0.000269652
-3.29538e-05
4.37351e-06
0.000265384
-2.76584e-05
3.83437e-06
0.000255015
-2.12053e-05
3.51564e-06
0.000239366
-1.44547e-05
3.52158e-06
0.000220441
-8.94257e-06
3.66722e-06
0.000200925
-4.10083e-06
4.0158e-06
0.000181165
2.61817e-06
4.38854e-06
0.000160155
1.10555e-05
4.41384e-06
0.000139464
1.91383e-05
4.51043e-06
0.000120863
2.59891e-05
5.29319e-06
0.000105132
3.16939e-05
6.43502e-06
9.26689e-05
3.6121e-05
7.24288e-06
8.3306e-05
3.93886e-05
7.40351e-06
7.59313e-05
4.169e-05
6.93504e-06
6.91658e-05
4.32609e-05
6.12864e-06
6.23742e-05
4.44351e-05
5.37262e-06
5.56205e-05
4.53979e-05
4.84337e-06
4.92424e-05
4.61127e-05
4.51419e-06
4.35443e-05
4.6448e-05
4.27128e-06
3.86841e-05
4.6258e-05
3.98906e-06
3.46724e-05
4.54138e-05
3.64244e-06
3.09736e-05
4.39641e-05
3.44322e-06
2.28711e-05
4.38047e-05
4.07112e-06
9.03312e-06
4.64684e-05
6.11291e-06
4.11907e-05
5.18965e-06
3.64314e-05
-1.95414e-05
1.76918e-06
7.81153e-05
-4.09865e-05
3.47618e-06
0.000114627
-5.05866e-05
2.8664e-06
0.000141101
-5.31374e-05
2.32971e-06
0.000156684
-5.13865e-05
1.8299e-06
0.000163244
-4.68163e-05
5.55633e-07
0.000162711
-4.09581e-05
-7.16926e-07
0.000157214
-3.51283e-05
-1.69296e-06
0.000148732
-2.9714e-05
-2.26874e-06
0.000138343
-2.42659e-05
-2.44009e-06
0.000126435
-1.8482e-05
-2.29233e-06
0.00011295
-1.20094e-05
-1.85215e-06
9.80829e-05
-5.02301e-06
-1.03804e-06
8.18638e-05
1.77637e-06
2.16167e-07
6.42072e-05
7.42682e-06
1.47387e-06
4.57401e-05
1.2176e-05
2.33811e-06
2.88399e-05
1.66988e-05
2.98787e-06
1.43327e-05
2.18963e-05
4.05998e-06
3.00913e-06
2.60157e-05
5.12997e-06
-3.79801e-06
2.82155e-05
5.55687e-06
-5.8996e-06
2.95369e-05
5.54458e-06
-4.46619e-06
3.07357e-05
5.31024e-06
-1.1052e-06
3.22651e-05
4.96497e-06
2.9513e-06
3.40559e-05
4.55428e-06
6.89072e-06
3.59677e-05
4.12899e-06
1.03098e-05
3.79219e-05
3.74237e-06
1.30428e-05
3.98431e-05
3.41619e-06
1.50229e-05
4.15874e-05
3.14075e-06
1.62868e-05
4.29208e-05
2.87192e-06
1.70146e-05
4.35587e-05
2.54867e-06
1.71276e-05
4.3551e-05
2.17779e-06
1.53083e-05
4.37356e-05
1.98006e-06
9.2261e-06
4.5704e-05
2.52316e-06
2.87937e-06
4.68411e-05
3.65509e-06
4.0146e-05
3.40279e-06
3.96745e-05
-6.00977e-05
1.91762e-06
6.38088e-05
-6.5656e-05
1.97145e-06
6.61794e-05
-5.24461e-05
5.91024e-07
5.0235e-05
-3.56719e-05
-7.29831e-07
3.06642e-05
-2.92998e-05
-1.81802e-06
1.30843e-05
-2.59194e-05
-2.84027e-06
-1.49e-06
-2.24386e-05
-3.77441e-06
-1.3055e-05
-1.9296e-05
-4.32884e-06
-2.16872e-05
-1.68606e-05
-4.37984e-06
-2.76187e-05
-1.44167e-05
-4.07278e-06
-3.14965e-05
-1.1172e-05
-3.53229e-06
-3.39192e-05
-6.7856e-06
-2.83624e-06
-3.51606e-05
-1.74789e-06
-2.02623e-06
-3.49798e-05
2.73569e-06
-1.12202e-06
-3.44828e-05
7.05897e-06
-1.35674e-07
-3.47884e-05
1.16142e-05
7.80956e-07
-3.65452e-05
1.63146e-05
1.90073e-06
-3.88486e-05
2.06078e-05
3.23433e-06
-4.02046e-05
2.29636e-05
4.15945e-06
-4.00213e-05
2.3509e-05
4.45875e-06
-3.8264e-05
2.34e-05
4.4494e-06
-3.48966e-05
2.32537e-05
4.26749e-06
-3.00594e-05
2.35653e-05
4.0291e-06
-2.41165e-05
2.446e-05
3.7806e-06
-1.74786e-05
2.58707e-05
3.52914e-06
-1.05426e-05
2.77172e-05
3.27615e-06
-3.78039e-06
2.99978e-05
3.02094e-06
2.13492e-06
3.27678e-05
2.7615e-06
6.33289e-06
3.59942e-05
2.49495e-06
8.0523e-06
3.92844e-05
2.21126e-06
7.2154e-06
4.19173e-05
1.88951e-06
4.4153e-06
4.38197e-05
1.61123e-06
1.46968e-06
4.55926e-05
1.53713e-06
6.16262e-11
4.508e-05
1.73574e-06
3.73272e-05
1.87239e-06
-7.28811e-06
-5.59347e-05
3.85169e-06
-2.42695e-05
-5.30326e-05
5.58537e-06
-4.60243e-05
-3.46701e-05
4.28798e-06
-6.42323e-05
-1.95659e-05
8.52356e-07
-7.57497e-05
-1.79945e-05
-5.00776e-07
-8.17025e-05
-1.94918e-05
-6.84991e-07
-8.33195e-05
-1.98401e-05
-1.04267e-06
-8.2614e-05
-1.84888e-05
-1.52369e-06
-8.12549e-05
-1.63465e-05
-1.87296e-06
-7.95649e-05
-1.40825e-05
-2.02249e-06
-7.7162e-05
-1.16201e-05
-1.96223e-06
-7.37614e-05
-8.53136e-06
-1.68781e-06
-6.94924e-05
-4.87203e-06
-1.22362e-06
-6.54147e-05
-8.92715e-07
-6.02065e-07
-6.15066e-05
2.76149e-06
1.19683e-07
-5.79526e-05
6.52601e-06
1.0933e-06
-5.47775e-05
1.03788e-05
2.10297e-06
-5.19225e-05
1.38627e-05
3.06824e-06
-4.97258e-05
1.62977e-05
3.72202e-06
-4.82956e-05
1.75399e-05
3.98204e-06
-4.71956e-05
1.78289e-05
4.0254e-06
-4.57313e-05
1.74938e-05
3.94097e-06
-4.32609e-05
1.70327e-05
3.78689e-06
-3.94548e-05
1.6788e-05
3.61423e-06
-3.43116e-05
1.70022e-05
3.44335e-06
-2.80089e-05
1.77968e-05
3.27092e-06
-2.0823e-05
1.92847e-05
3.08729e-06
-1.32782e-05
2.17713e-05
2.88421e-06
-6.41487e-06
2.57398e-05
2.65183e-06
-1.8636e-06
3.14107e-05
2.37781e-06
-8.48136e-07
3.76916e-05
2.04498e-06
-2.07984e-06
4.2073e-05
1.62843e-06
-2.55834e-06
4.36957e-05
1.13596e-06
-1.87252e-06
4.25153e-05
8.40076e-07
3.36e-05
9.84792e-07
-2.2623e-05
-3.9017e-05
4.81524e-06
-3.37118e-05
-4.83027e-05
5.09607e-06
-2.8468e-05
-4.45714e-05
3.67773e-06
-1.52708e-05
-3.60235e-05
3.12037e-06
-9.44617e-06
-2.6392e-05
2.69832e-06
-8.99017e-06
-2.19454e-05
2.11209e-06
-1.08938e-05
-1.93101e-05
1.46054e-06
-1.3391e-05
-1.66998e-05
7.68132e-07
-1.57632e-05
-1.40449e-05
1.11026e-07
-1.80077e-05
-1.15852e-05
-2.24702e-07
-1.9876e-05
-9.29825e-06
-4.34525e-07
-2.08375e-05
-7.04629e-06
-5.11849e-07
-2.05185e-05
-4.73342e-06
-4.54186e-07
-1.88206e-05
-2.33061e-06
-2.70511e-07
-1.61028e-05
2.72635e-09
4.37541e-09
-1.35537e-05
3.35073e-06
5.41609e-07
-1.10612e-05
6.57241e-06
1.14351e-06
-9.01169e-06
9.71006e-06
1.80898e-06
-8.1855e-06
1.25648e-05
2.48913e-06
-9.04993e-06
1.48526e-05
3.07343e-06
-1.1293e-05
1.62033e-05
3.4369e-06
-1.42538e-05
1.65199e-05
3.56624e-06
-1.72382e-05
1.61278e-05
3.56184e-06
-1.95725e-05
1.53649e-05
3.4747e-06
-2.06797e-05
1.45202e-05
3.3436e-06
-2.02597e-05
1.39345e-05
3.20331e-06
-1.82499e-05
1.39564e-05
3.06007e-06
-1.45863e-05
1.48988e-05
2.90283e-06
-9.38522e-06
1.7415e-05
2.72361e-06
-3.68939e-06
2.26392e-05
2.51178e-06
8.0784e-08
3.0927e-05
2.22771e-06
4.96668e-07
3.89288e-05
1.79604e-06
5.32749e-08
4.19599e-05
1.19687e-06
-8.79475e-08
4.10734e-05
6.78266e-07
3.21716e-05
7.20822e-07
2.41816e-06
-4.69084e-05
4.95368e-06
6.37467e-06
-6.03042e-05
7.47983e-06
1.30612e-05
-5.9902e-05
8.07146e-06
1.77043e-05
-4.86198e-05
7.46887e-06
1.54352e-05
-2.96459e-05
5.56774e-06
1.0328e-05
-2.06793e-05
3.97083e-06
4.8044e-06
-1.64977e-05
2.80816e-06
-1.72516e-07
-1.35672e-05
1.913e-06
-4.06518e-06
-1.13265e-05
1.22433e-06
-6.89331e-06
-9.42497e-06
7.05364e-07
-8.83151e-06
-7.65947e-06
3.27825e-07
-9.99837e-06
-5.92864e-06
7.00885e-08
-1.05268e-05
-4.17067e-06
-1.96491e-08
-1.05172e-05
-2.33192e-06
-3.28725e-11
-1.03084e-05
-3.55403e-07
1.49572e-07
-9.10361e-06
1.72063e-06
4.12853e-07
-7.22904e-06
3.91799e-06
7.44147e-07
-4.90643e-06
6.16811e-06
1.14343e-06
-2.52642e-06
8.44202e-06
1.60819e-06
-6.80312e-07
1.06891e-05
2.11796e-06
-2.66409e-08
1.27039e-05
2.60712e-06
-7.59388e-07
1.40649e-05
2.96346e-06
-2.50332e-06
1.4525e-05
3.14836e-06
-4.79501e-06
1.42581e-05
3.21494e-06
-7.12229e-06
1.34911e-05
3.19334e-06
-8.94307e-06
1.25271e-05
3.09825e-06
-9.91609e-06
1.18537e-05
2.96709e-06
-9.72156e-06
1.17759e-05
2.82464e-06
-7.74412e-06
1.26699e-05
2.66297e-06
-3.54658e-06
1.58354e-05
2.47e-06
1.36392e-06
2.3523e-05
2.23493e-06
3.28635e-06
3.46753e-05
1.87572e-06
2.43116e-06
4.07736e-05
1.31843e-06
1.30586e-06
4.06594e-05
7.87084e-07
3.22634e-05
7.58574e-07
-5.94846e-06
-4.60517e-05
5.11894e-06
-1.50456e-05
-5.72318e-05
6.12887e-06
-2.44188e-05
-5.66962e-05
6.16618e-06
-2.77936e-05
-5.20236e-05
6.58477e-06
-2.47892e-05
-3.89622e-05
6.16334e-06
-2.16342e-05
-2.88032e-05
4.90984e-06
-1.80181e-05
-2.40535e-05
3.94831e-06
-1.50359e-05
-1.96428e-05
3.13164e-06
-1.27869e-05
-1.59769e-05
2.44681e-06
-1.10834e-05
-1.29679e-05
1.88344e-06
-9.72656e-06
-1.04099e-05
1.43325e-06
-8.55568e-06
-8.15742e-06
1.09213e-06
-7.44774e-06
-6.10623e-06
8.56501e-07
-6.30869e-06
-4.1696e-06
7.22485e-07
-5.05441e-06
-2.27679e-06
6.86211e-07
-3.70297e-06
-3.57894e-07
7.41284e-07
-2.10522e-06
1.45238e-06
8.76145e-07
-2.84008e-07
3.26563e-06
1.08069e-06
1.71375e-06
5.07833e-06
1.3512e-06
3.75713e-06
6.92407e-06
1.68627e-06
5.52774e-06
8.80268e-06
2.07243e-06
6.56726e-06
1.05108e-05
2.44473e-06
6.68527e-06
1.16402e-05
2.70045e-06
6.04541e-06
1.20136e-05
2.82089e-06
4.85301e-06
1.17779e-05
2.84375e-06
3.37662e-06
1.11641e-05
2.78464e-06
1.9721e-06
1.05496e-05
2.66281e-06
8.93423e-07
1.02921e-05
2.51742e-06
5.05467e-07
1.06455e-05
2.36125e-06
1.4523e-06
1.26385e-05
2.18234e-06
3.44267e-06
1.93731e-05
1.98945e-06
4.14247e-06
3.18184e-05
1.77078e-06
2.77944e-06
4.01754e-05
1.35999e-06
1.34607e-06
4.05705e-05
9.21462e-07
3.23576e-05
8.42941e-07
-1.21201e-05
-3.91002e-05
5.14004e-06
-2.28297e-05
-5.2494e-05
5.93576e-06
-3.06069e-05
-5.49869e-05
5.94992e-06
-3.4253e-05
-5.46806e-05
6.05458e-06
-2.9492e-05
-5.06049e-05
6.48382e-06
-2.19894e-05
-4.26835e-05
6.17924e-06
-1.44656e-05
-3.72644e-05
5.61911e-06
-7.69395e-06
-3.13644e-05
4.97346e-06
-2.2456e-06
-2.56523e-05
4.30216e-06
1.77634e-06
-2.0563e-05
3.66778e-06
4.48505e-06
-1.61225e-05
3.09786e-06
6.11686e-06
-1.23143e-05
2.60847e-06
6.96747e-06
-9.09596e-06
2.20898e-06
7.34067e-06
-6.38858e-06
1.90284e-06
7.5028e-06
-4.08163e-06
1.68934e-06
7.67542e-06
-2.05707e-06
1.56541e-06
7.83096e-06
-1.95055e-07
1.52536e-06
8.18364e-06
1.38033e-06
1.56219e-06
8.75315e-06
2.86714e-06
1.66789e-06
9.55463e-06
4.30707e-06
1.83788e-06
1.05523e-05
5.75256e-06
2.06946e-06
1.15125e-05
7.21816e-06
2.34251e-06
1.20125e-05
8.55624e-06
2.589e-06
1.17886e-05
9.50463e-06
2.73552e-06
1.08557e-05
9.92832e-06
2.78292e-06
9.37403e-06
9.8905e-06
2.75479e-06
7.63859e-06
9.62441e-06
2.66271e-06
5.97025e-06
9.44012e-06
2.52548e-06
4.5943e-06
9.66701e-06
2.35873e-06
3.83204e-06
1.12491e-05
2.14341e-06
3.88737e-06
1.73493e-05
1.86284e-06
3.36644e-06
3.03176e-05
1.57468e-06
1.93584e-06
3.97208e-05
1.23398e-06
7.49123e-07
4.02474e-05
9.01133e-07
3.18471e-05
8.26782e-07
-1.13352e-05
-3.2083e-05
4.29627e-06
-2.13317e-05
-4.73742e-05
4.76591e-06
-2.8734e-05
-5.24713e-05
4.73004e-06
-3.34411e-05
-5.4957e-05
4.74206e-06
-3.33424e-05
-5.59817e-05
4.88855e-06
-2.74099e-05
-5.43302e-05
5.22231e-06
-1.90141e-05
-5.12519e-05
5.26304e-06
-9.08531e-06
-4.67034e-05
5.22455e-06
1.07273e-06
-4.09465e-05
5.09106e-06
1.04156e-05
-3.47176e-05
4.8777e-06
1.82717e-05
-2.84316e-05
4.59258e-06
2.42926e-05
-2.24043e-05
4.24398e-06
2.83887e-05
-1.68671e-05
3.85239e-06
3.06729e-05
-1.19643e-05
3.44983e-06
3.14206e-05
-7.77157e-06
3.07246e-06
3.10215e-05
-4.30644e-06
2.75136e-06
2.9929e-05
-1.52741e-06
2.50633e-06
2.83799e-05
6.51869e-07
2.34503e-06
2.67076e-05
2.33357e-06
2.26543e-06
2.50906e-05
3.71934e-06
2.2607e-06
2.36509e-05
4.92341e-06
2.3243e-06
2.24283e-05
6.04548e-06
2.45257e-06
2.12661e-05
7.14296e-06
2.63446e-06
1.98263e-05
8.17348e-06
2.8268e-06
1.78321e-05
9.00143e-06
2.96604e-06
1.51917e-05
9.53508e-06
3.02564e-06
1.203e-05
9.78884e-06
3.01352e-06
8.6389e-06
9.90279e-06
2.94002e-06
5.36727e-06
1.01479e-05
2.81526e-06
2.89619e-06
1.11844e-05
2.61958e-06
2.74182e-06
1.5456e-05
2.28756e-06
4.00829e-06
2.74235e-05
1.81544e-06
3.08975e-06
3.9077e-05
1.30512e-06
1.68018e-06
4.03636e-05
9.5336e-07
3.23419e-05
9.20902e-07
-7.11735e-06
-2.82971e-05
3.04355e-06
-1.04811e-05
-4.78584e-05
3.435e-06
-1.20172e-05
-5.44939e-05
3.26094e-06
-1.33416e-05
-5.68714e-05
3.044e-06
-1.44467e-05
-5.78621e-05
2.85818e-06
-1.3677e-05
-5.79715e-05
2.741e-06
-1.09476e-05
-5.69173e-05
2.72593e-06
-6.08987e-06
-5.45891e-05
2.79085e-06
8.41971e-07
-5.09868e-05
2.94014e-06
9.18955e-06
-4.6307e-05
3.16578e-06
1.81292e-05
-4.08046e-05
3.45591e-06
2.69108e-05
-3.48337e-05
3.76452e-06
3.49085e-05
-2.86939e-05
4.02365e-06
4.15988e-05
-2.25773e-05
4.16923e-06
4.65852e-05
-1.66534e-05
4.16121e-06
4.9643e-05
-1.11123e-05
3.99933e-06
5.07407e-05
-6.13979e-06
3.72701e-06
5.00664e-05
-1.92091e-06
3.41241e-06
4.79057e-05
1.49715e-06
3.12153e-06
4.47956e-05
4.02737e-06
2.89869e-06
4.1299e-05
5.74023e-06
2.76082e-06
3.78194e-05
6.89487e-06
2.70419e-06
3.4582e-05
7.73547e-06
2.7179e-06
3.16099e-05
8.43077e-06
2.79143e-06
2.87218e-05
9.06515e-06
2.90528e-06
2.5677e-05
9.64143e-06
3.01255e-06
2.23115e-05
1.01445e-05
3.06207e-06
1.85838e-05
1.06141e-05
3.04033e-06
1.46013e-05
1.11653e-05
2.9641e-06
1.07373e-05
1.21959e-05
2.84024e-06
8.04934e-06
1.55642e-05
2.63223e-06
7.4365e-06
2.60338e-05
2.30072e-06
5.6103e-06
3.92455e-05
1.80304e-06
3.10332e-06
4.14962e-05
1.3999e-06
3.41507e-05
1.23848e-06
1.62469e-06
-3.21032e-05
1.75832e-06
6.46206e-06
-5.54094e-05
2.47714e-06
1.15379e-05
-6.22916e-05
2.74579e-06
1.56048e-05
-6.3596e-05
2.79503e-06
1.83225e-05
-6.30904e-05
2.71563e-06
1.96516e-05
-6.15247e-05
2.49978e-06
2.00045e-05
-5.90881e-05
2.14986e-06
1.98241e-05
-5.57728e-05
1.7014e-06
1.9569e-05
-5.1678e-05
1.2242e-06
1.96802e-05
-4.70711e-05
8.3169e-07
2.06649e-05
-4.23481e-05
6.61794e-07
2.29723e-05
-3.78568e-05
7.97364e-07
2.67779e-05
-3.36157e-05
1.21465e-06
3.18732e-05
-2.93621e-05
1.82742e-06
3.77246e-05
-2.48367e-05
2.52345e-06
4.36277e-05
-1.99471e-05
3.17832e-06
4.88282e-05
-1.4728e-05
3.67444e-06
5.26201e-05
-9.3415e-06
3.92519e-06
5.45866e-05
-4.11249e-06
3.91084e-06
5.45115e-05
6.15956e-07
3.69943e-06
5.22945e-05
4.69983e-06
3.41378e-06
4.87015e-05
7.44092e-06
3.16256e-06
4.44816e-05
9.05186e-06
2.99597e-06
4.01372e-05
9.93615e-06
2.92121e-06
3.59308e-05
1.04245e-05
2.92932e-06
3.19518e-05
1.07041e-05
3.00806e-06
2.81861e-05
1.0884e-05
3.12801e-06
2.46389e-05
1.1044e-05
3.20852e-06
2.13571e-05
1.13363e-05
3.16139e-06
1.82499e-05
1.23167e-05
2.95285e-06
1.42901e-05
1.67135e-05
2.58284e-06
9.55597e-06
2.82321e-05
2.18908e-06
6.03046e-06
4.07542e-05
1.86444e-06
2.829e-06
4.30303e-05
1.56602e-06
3.55475e-05
1.29042e-06
1.02189e-05
-4.22292e-05
9.30481e-08
1.54373e-05
-6.07561e-05
6.18562e-07
1.74849e-05
-6.51434e-05
1.26582e-06
1.84591e-05
-6.58172e-05
1.67643e-06
1.90924e-05
-6.52618e-05
1.94311e-06
1.96583e-05
-6.3826e-05
2.10295e-06
2.01482e-05
-6.1379e-05
2.14343e-06
2.0464e-05
-5.7722e-05
2.00398e-06
2.03855e-05
-5.27998e-05
1.62947e-06
1.96304e-05
-4.68996e-05
1.03968e-06
1.81514e-05
-4.08229e-05
3.68089e-07
1.62806e-05
-3.54743e-05
-1.84005e-07
1.4749e-05
-3.13491e-05
-4.99345e-07
1.44152e-05
-2.83171e-05
-5.53535e-07
1.5854e-05
-2.58597e-05
-3.03967e-07
1.91604e-05
-2.34396e-05
2.95915e-07
2.40663e-05
-2.06279e-05
1.13122e-06
2.99341e-05
-1.70816e-05
2.05243e-06
3.58255e-05
-1.26769e-05
2.89806e-06
4.06823e-05
-7.4848e-06
3.49641e-06
4.38069e-05
-1.91246e-06
3.72663e-06
4.43152e-05
3.49145e-06
3.62985e-06
4.24913e-05
7.61581e-06
3.39563e-06
3.92017e-05
1.01412e-05
3.18434e-06
3.5199e-05
1.14512e-05
3.05594e-06
3.08977e-05
1.20535e-05
3.0238e-06
2.65344e-05
1.22285e-05
3.09266e-06
2.23013e-05
1.20997e-05
3.25883e-06
1.84402e-05
1.18318e-05
3.44681e-06
1.52342e-05
1.20858e-05
3.4643e-06
1.24558e-05
1.63854e-05
2.94243e-06
7.77448e-06
3.02911e-05
2.08611e-06
4.21531e-06
4.22846e-05
1.61687e-06
1.58359e-06
4.39926e-05
1.35257e-06
3.57539e-05
1.06587e-06
1.09547e-05
-5.13692e-05
-1.03036e-06
1.52816e-05
-6.32958e-05
-1.18813e-06
1.57336e-05
-6.48022e-05
-5.34329e-07
1.45461e-05
-6.44902e-05
-4.31548e-08
1.238e-05
-6.33596e-05
2.97543e-07
9.5484e-06
-6.14943e-05
5.12674e-07
6.40878e-06
-5.88941e-05
6.57346e-07
3.54443e-06
-5.56511e-05
7.69701e-07
1.68707e-06
-5.18343e-05
8.45967e-07
1.28334e-06
-4.73144e-05
8.11867e-07
2.07219e-06
-4.21142e-05
5.74296e-07
3.17905e-06
-3.66073e-05
1.57494e-07
3.78274e-06
-3.15321e-05
-2.72984e-07
3.69516e-06
-2.75031e-05
-5.90513e-07
3.34214e-06
-2.46136e-05
-7.74604e-07
3.42204e-06
-2.25804e-05
-8.35845e-07
4.61816e-06
-2.10205e-05
-7.16421e-07
7.35441e-06
-1.94732e-05
-2.6586e-07
1.17176e-05
-1.75053e-05
5.61294e-07
1.74182e-05
-1.46333e-05
1.58097e-06
2.35088e-05
-1.04147e-05
2.58738e-06
2.86441e-05
-4.75565e-06
3.30994e-06
3.13317e-05
1.5556e-06
3.54701e-06
3.12549e-05
6.91201e-06
3.43187e-06
2.9125e-05
1.0426e-05
3.24152e-06
2.5798e-05
1.23338e-05
3.10981e-06
2.17529e-05
1.32559e-05
3.06786e-06
1.71945e-05
1.35691e-05
3.13159e-06
1.22991e-05
1.34523e-05
3.31343e-06
7.56115e-06
1.33309e-05
3.53704e-06
4.8372e-06
1.57765e-05
3.43837e-06
3.94078e-06
2.87844e-05
2.39689e-06
1.98173e-06
4.23404e-05
1.54973e-06
5.65548e-07
4.38481e-05
1.19403e-06
3.5083e-05
9.13349e-07
2.36471e-06
-5.21065e-05
-1.27405e-06
3.26452e-06
-6.22376e-05
-1.93967e-06
3.05654e-06
-6.32124e-05
-1.47893e-06
2.16982e-06
-6.27661e-05
-9.84532e-07
8.07858e-07
-6.15748e-05
-6.11197e-07
-8.99567e-07
-5.96406e-05
-3.75235e-07
-2.91538e-06
-5.68714e-05
-2.67692e-07
-5.24726e-06
-5.33568e-05
-2.41523e-07
-7.59001e-06
-4.95682e-05
-2.17876e-07
-9.13718e-06
-4.59219e-05
-1.55273e-07
-9.10358e-06
-4.23633e-05
-7.77522e-08
-7.29883e-06
-3.85717e-05
-5.27034e-08
-4.32984e-06
-3.44717e-05
-1.32441e-07
-1.24921e-06
-3.03107e-05
-2.91222e-07
1.09909e-06
-2.64774e-05
-4.57535e-07
2.44687e-06
-2.32971e-05
-5.88407e-07
3.0143e-06
-2.08713e-05
-6.6951e-07
3.3877e-06
-1.91073e-05
-6.89916e-07
4.32208e-06
-1.77845e-05
-6.01505e-07
6.5193e-06
-1.65181e-05
-2.47423e-07
1.03551e-05
-1.47375e-05
5.76478e-07
1.56887e-05
-1.16688e-05
1.71404e-06
2.09934e-05
-6.38137e-06
2.80746e-06
2.40478e-05
6.40214e-07
3.37962e-06
2.44001e-05
6.77126e-06
3.41579e-06
2.25457e-05
1.09858e-05
3.27334e-06
1.93163e-05
1.33636e-05
3.1653e-06
1.51786e-05
1.45916e-05
3.14129e-06
1.03079e-05
1.51302e-05
3.20909e-06
5e-06
1.53171e-05
3.35435e-06
1.07222e-06
1.64063e-05
3.48768e-06
2.27898e-06
2.51219e-05
3.05588e-06
1.65352e-06
4.11762e-05
1.86e-06
7.73612e-07
4.3324e-05
1.27499e-06
3.47138e-05
9.68928e-07
-4.58902e-06
-4.6783e-05
-1.10313e-06
-5.55715e-06
-5.96469e-05
-1.89421e-06
-5.48569e-06
-6.17001e-05
-1.7946e-06
-5.06927e-06
-6.19103e-05
-1.46387e-06
-4.39322e-06
-6.13644e-05
-1.08822e-06
-3.32244e-06
-6.02285e-05
-7.26146e-07
-1.62843e-06
-5.84703e-05
-4.13011e-07
7.58323e-07
-5.59468e-05
-1.93802e-07
3.47261e-06
-5.26247e-05
-8.98441e-08
5.86965e-06
-4.86675e-05
-6.61243e-08
7.58345e-06
-4.43695e-05
-7.95176e-08
8.82521e-06
-4.00305e-05
-1.07235e-07
1.00444e-05
-3.58141e-05
-1.44385e-07
1.1514e-05
-3.17702e-05
-1.98463e-07
1.31741e-05
-2.79613e-05
-2.75829e-07
1.4695e-05
-2.44828e-05
-3.66374e-07
1.56879e-05
-2.14049e-05
-4.5154e-07
1.5939e-05
-1.88168e-05
-5.17255e-07
1.55358e-05
-1.67963e-05
-5.55364e-07
1.49233e-05
-1.53169e-05
-5.55908e-07
1.48885e-05
-1.41842e-05
-4.78336e-07
1.63842e-05
-1.29466e-05
-1.50096e-07
1.98522e-05
-1.05811e-05
8.65927e-07
2.40028e-05
-5.51432e-06
2.21128e-06
2.60908e-05
1.82713e-06
3.05176e-06
2.55176e-05
8.47062e-06
3.21749e-06
2.27631e-05
1.30826e-05
3.11024e-06
1.85864e-05
1.58021e-05
3.00734e-06
1.34181e-05
1.73344e-05
2.98471e-06
7.56946e-06
1.81426e-05
3.04362e-06
2.13611e-06
1.88088e-05
3.16515e-06
1.93499e-06
2.28005e-05
3.25502e-06
2.69797e-06
3.86963e-05
2.57748e-06
1.72459e-06
4.2918e-05
1.86687e-06
3.52127e-05
1.35777e-06
-2.0664e-06
-4.40122e-05
-1.11484e-06
1.10037e-07
-6.02487e-05
-1.8892e-06
3.5213e-06
-6.32742e-05
-2.06136e-06
7.12763e-06
-6.3724e-05
-1.97502e-06
1.0569e-05
-6.32012e-05
-1.76117e-06
1.3681e-05
-6.20051e-05
-1.47042e-06
1.64802e-05
-6.02672e-05
-1.12597e-06
1.92112e-05
-5.80704e-05
-7.48746e-07
2.21726e-05
-5.54064e-05
-3.81961e-07
2.54453e-05
-5.21264e-05
-9.56273e-08
2.87711e-05
-4.81119e-05
8.3183e-08
3.16342e-05
-4.33601e-05
1.26826e-07
3.3493e-05
-3.80303e-05
4.9438e-08
3.41293e-05
-3.25944e-05
-6.61233e-08
3.38602e-05
-2.76843e-05
-2.02155e-07
3.32425e-05
-2.36687e-05
-3.32155e-07
3.26721e-05
-2.04788e-05
-4.36463e-07
3.22162e-05
-1.78866e-05
-5.09447e-07
3.17177e-05
-1.57485e-05
-5.54418e-07
3.10036e-05
-1.40153e-05
-5.77625e-07
3.00601e-05
-1.26421e-05
-5.8221e-07
2.91773e-05
-1.14807e-05
-5.60429e-07
2.92265e-05
-1.01375e-05
-4.51127e-07
3.10346e-05
-7.42675e-06
2.5469e-07
3.35158e-05
-1.99436e-06
1.61651e-06
3.40118e-05
5.68139e-06
2.56153e-06
3.23122e-05
1.21338e-05
2.82859e-06
2.92096e-05
1.62403e-05
2.7718e-06
2.53529e-05
1.85942e-05
2.66754e-06
2.11241e-05
1.98285e-05
2.6112e-06
1.75388e-05
1.99457e-05
2.61093e-06
1.49591e-05
2.31076e-05
2.74105e-06
1.19001e-05
4.00237e-05
2.69973e-06
6.41003e-06
4.6917e-05
2.23526e-06
4.03183e-05
1.57196e-06
2.94158e-06
-4.58842e-05
-1.2163e-06
8.25432e-06
-6.37293e-05
-1.83534e-06
1.41938e-05
-6.69933e-05
-2.10138e-06
2.00731e-05
-6.72271e-05
-2.19581e-06
2.55779e-05
-6.62865e-05
-2.20201e-06
3.03972e-05
-6.44226e-05
-2.15156e-06
3.41612e-05
-6.16921e-05
-2.05478e-06
3.65693e-05
-5.82537e-05
-1.91011e-06
3.76907e-05
-5.45006e-05
-1.70537e-06
3.81332e-05
-5.0857e-05
-1.43126e-06
3.87003e-05
-4.73968e-05
-1.10203e-06
3.98686e-05
-4.37271e-05
-7.64792e-07
4.15242e-05
-3.9284e-05
-5.00424e-07
4.29954e-05
-3.38537e-05
-3.85541e-07
4.35611e-05
-2.80018e-05
-4.25871e-07
4.31265e-05
-2.28255e-05
-5.49792e-07
4.22468e-05
-1.90196e-05
-6.80998e-07
4.15856e-05
-1.65134e-05
-7.84945e-07
4.14165e-05
-1.47757e-05
-8.56342e-07
4.16771e-05
-1.3413e-05
-8.98081e-07
4.21902e-05
-1.22605e-05
-9.14423e-07
4.28103e-05
-1.11974e-05
-9.09589e-07
4.34358e-05
-9.87947e-06
-8.72058e-07
4.36301e-05
-6.84454e-06
-7.13612e-07
4.30459e-05
-1.19583e-06
1.3574e-08
4.23648e-05
5.70921e-06
1.02847e-06
4.23154e-05
1.09001e-05
1.64594e-06
4.27344e-05
1.42723e-05
1.79593e-06
4.28447e-05
1.6834e-05
1.74937e-06
4.09008e-05
2.00103e-05
1.6756e-06
3.34893e-05
2.51184e-05
1.69929e-06
1.84446e-05
3.41452e-05
2.10367e-06
7.95529e-06