/*--------------------------------*- C++ -*----------------------------------*\
| =========                 |                                                 |
| \\      /  F ield         | OpenFOAM: The Open Source CFD Toolbox           |
|  \\    /   O peration     | Version:  v2006                                 |
|   \\  /    A nd           | Website:  www.openfoam.com                      |
|    \\/     M anipulation  |                                                 |
\*---------------------------------------------------------------------------*/
FoamFile
{
    version     2.0;
    format      ascii;
    class       volVectorField;
    location    "83";
    object      U;
}
// * * * * * * * * * * * * * * * * * * * * * * * * * * * * * * * * * * * * * //

dimensions      [0 1 -1 0 0 0 0];


internalField   nonuniform List<vector> 
78750
(
(0.667149 -0.0734893 -0.45515)
(0.527367 -0.120729 -0.39094)
(0.423055 -0.109854 -0.387462)
(0.408894 -0.124552 -0.386777)
(0.460805 -0.117487 -0.416828)
(0.395122 -0.136642 -0.330525)
(0.358699 -0.146481 -0.387461)
(0.352494 -0.162128 -0.503448)
(0.387371 -0.148264 -0.744942)
(0.37544 -0.143281 -0.980106)
(0.380365 -0.112629 -1.19998)
(0.353804 -0.10722 -1.31707)
(0.367625 -0.0827983 -1.38619)
(0.333006 -0.0879298 -1.38452)
(0.361039 -0.068001 -1.37975)
(0.315672 -0.0789887 -1.34311)
(0.360346 -0.0573791 -1.32772)
(0.303957 -0.0678963 -1.29146)
(0.366264 -0.0447348 -1.27793)
(0.297293 -0.0572686 -1.24693)
(0.371923 -0.0404901 -1.23352)
(0.290927 -0.050504 -1.20683)
(0.365609 -0.043442 -1.18622)
(0.287811 -0.04032 -1.16027)
(0.346676 -0.0420823 -1.13086)
(0.288256 -0.0304342 -1.10352)
(0.318886 -0.034825 -1.07505)
(0.281252 -0.024339 -1.03956)
(0.286088 -0.0211157 -1.00895)
(0.257325 -0.0280426 -0.979001)
(0.24548 -0.0146503 -0.945825)
(0.213004 -0.00772942 -0.819359)
(0.183476 -0.0488386 -0.924428)
(0.160978 0.00850982 -0.638708)
(0.0838358 0.176373 0.398071)
(0.0372379 0.324509 -0.869366)
(-0.0398385 0.630647 -0.868175)
(-0.0399262 0.641849 -0.81891)
(-0.0745709 0.666159 -0.918175)
(-0.110608 0.645048 -0.990939)
(-0.132061 0.638112 -0.995361)
(-0.148941 0.622616 -0.983082)
(-0.156536 0.59796 -0.964368)
(-0.134644 0.566788 -0.928613)
(-0.141019 0.551167 -0.867762)
(-0.0819954 0.523123 -0.836838)
(-0.0849735 0.517719 -0.78718)
(-0.0202316 0.495167 -0.756194)
(-0.00907996 0.489027 -0.698361)
(0.0415886 0.470639 -0.659427)
(0.0628952 0.456649 -0.590572)
(0.101499 0.431546 -0.528267)
(0.131594 0.409268 -0.455165)
(0.164823 0.393755 -0.409684)
(0.200965 0.391896 -0.392315)
(0.223146 0.397826 -0.400947)
(0.248879 0.401114 -0.425917)
(0.252043 0.400162 -0.448131)
(0.262856 0.393017 -0.465012)
(0.258055 0.386707 -0.465865)
(0.260808 0.383703 -0.448995)
(0.255973 0.386712 -0.420281)
(0.251137 0.395855 -0.366815)
(0.243645 0.412764 -0.32333)
(0.227246 0.43741 -0.246316)
(0.210455 0.469214 -0.179133)
(0.179644 0.505264 -0.0674556)
(0.145458 0.561394 -0.00986896)
(0.0886251 0.656176 0.3448)
(0.0340079 0.726042 0.723136)
(-0.00497831 0.0618566 -0.796124)
(-0.00132335 0.204373 -0.825868)
(0.0228956 0.234197 -0.801678)
(0.0367966 0.25101 -0.773467)
(0.0703083 0.225574 -0.657441)
(0.0499117 0.153577 -0.438724)
(0.0816618 0.0767244 -0.27791)
(0.0539726 0.0129868 -0.147482)
(0.0739367 -0.00229851 -0.118477)
(0.0551235 0.00944085 -0.0843398)
(0.0731636 -0.0171355 -0.0339195)
(0.0841013 -0.0485139 0.0337954)
(0.109781 -0.0927024 0.113449)
(0.140862 -0.11029 0.175171)
(0.167535 -0.116784 0.219512)
(0.195222 -0.139141 0.29069)
(0.193813 -0.192005 0.403952)
(0.198937 -0.251809 0.524937)
(0.187716 -0.274149 0.598902)
(0.19844 -0.224131 0.599459)
(0.192359 -0.119035 0.540697)
(0.203877 0.0024688 0.455872)
(0.198356 0.10538 0.377634)
(0.202898 0.176618 0.318905)
(0.196999 0.219795 0.280654)
(0.194162 0.244807 0.255509)
(0.185666 0.265446 0.237664)
(0.17607 0.291262 0.227836)
(0.163636 0.332099 0.222766)
(0.147319 0.384112 0.237046)
(0.129706 0.448989 0.261738)
(0.105017 0.524514 0.329611)
(0.0784339 0.608986 0.436894)
(0.0386 0.665632 0.651177)
(0.0169801 0.672264 0.665351)
(0.00925109 0.485293 -0.988999)
(0.0113592 0.488021 -0.992062)
(0.0278672 0.484165 -0.981771)
(0.0546409 0.487237 -0.962761)
(0.0818162 0.491089 -0.93145)
(0.0989809 0.483563 -0.883334)
(0.111181 0.468239 -0.834087)
(0.113343 0.443574 -0.791306)
(0.113648 0.4109 -0.752769)
(0.109609 0.352188 -0.679698)
(0.109901 0.231505 -0.493286)
(0.103532 0.042914 -0.174634)
(0.0869123 -0.11405 0.127253)
(0.0645009 -0.126994 0.278898)
(0.0534056 -0.0049197 0.281754)
(0.0526345 0.128733 0.224347)
(0.0520519 0.184331 0.186146)
(0.042661 0.178979 0.185435)
(0.0242653 0.149849 0.219051)
(0.00189825 0.136333 0.258143)
(-0.0157898 0.147311 0.283207)
(-0.0254157 0.174906 0.294533)
(-0.0269044 0.209672 0.299777)
(-0.0229831 0.245113 0.304288)
(-0.0171543 0.279195 0.310439)
(-0.0125401 0.311472 0.31823)
(-0.0103208 0.343193 0.327363)
(-0.011061 0.375065 0.338825)
(-0.0134538 0.408688 0.3542)
(-0.0169123 0.443303 0.377685)
(-0.0195479 0.479605 0.411107)
(-0.0213893 0.513735 0.459847)
(-0.0187606 0.54458 0.514698)
(-0.01585 0.560347 0.557186)
(-0.000381998 0.538688 0.45896)
(0.0149304 0.363805 -0.860631)
(0.0236878 0.372786 -0.955448)
(0.0487893 0.325751 -0.972618)
(0.0844232 0.280889 -0.97421)
(0.121364 0.283271 -0.95727)
(0.157974 0.321997 -0.930851)
(0.19114 0.353312 -0.889989)
(0.221058 0.365955 -0.82759)
(0.25233 0.361378 -0.748717)
(0.28452 0.340029 -0.652698)
(0.317116 0.289569 -0.524613)
(0.344177 0.206246 -0.352411)
(0.354636 0.114709 -0.118105)
(0.339038 -0.00208145 0.164624)
(0.309374 -0.132008 0.392158)
(0.288641 -0.203659 0.498885)
(0.282974 -0.189211 0.510704)
(0.281896 -0.119588 0.481726)
(0.27493 -0.0425075 0.453956)
(0.25886 0.00582579 0.439301)
(0.236421 0.0163625 0.41844)
(0.212356 0.00630791 0.37421)
(0.187879 0.000905094 0.317419)
(0.163221 0.0156624 0.270958)
(0.139388 0.0528948 0.246013)
(0.117344 0.106096 0.240778)
(0.0971927 0.165794 0.249686)
(0.0785331 0.223662 0.267523)
(0.0612041 0.274273 0.290094)
(0.0453053 0.313478 0.314368)
(0.0317332 0.33832 0.337537)
(0.020482 0.346136 0.356631)
(0.0131328 0.331775 0.362064)
(0.00857779 0.314377 0.359122)
(0.00883538 0.34931 0.30053)
(0.00707585 0.419276 -0.329451)
(0.0228495 0.457034 -0.450499)
(0.0479733 0.423852 -0.449177)
(0.0779675 0.384463 -0.393184)
(0.117569 0.315375 -0.295321)
(0.162648 0.242638 -0.19531)
(0.211827 0.173378 -0.104904)
(0.260877 0.103178 -0.021327)
(0.308308 0.0317105 0.0548892)
(0.353263 -0.0377196 0.12347)
(0.394421 -0.105919 0.189335)
(0.427764 -0.170246 0.24545)
(0.450063 -0.217766 0.277289)
(0.462594 -0.237725 0.276836)
(0.464839 -0.226085 0.245743)
(0.456539 -0.1893 0.207937)
(0.442651 -0.138245 0.189838)
(0.426505 -0.0786389 0.199862)
(0.407838 -0.0166515 0.229984)
(0.386236 0.0423396 0.262848)
(0.359139 0.106023 0.29915)
(0.321947 0.182853 0.350422)
(0.276997 0.257839 0.386732)
(0.230588 0.307763 0.366934)
(0.18817 0.329817 0.304725)
(0.152521 0.338646 0.245031)
(0.123412 0.347276 0.21182)
(0.0995056 0.359128 0.203685)
(0.0797346 0.371126 0.211032)
(0.0634968 0.378287 0.22448)
(0.0508139 0.377946 0.236824)
(0.0402153 0.368173 0.244439)
(0.0321565 0.327014 0.232852)
(0.0202469 0.314039 0.249174)
(0.00824193 0.369428 0.229563)
(0.0052036 0.257259 0.153674)
(0.0392884 0.234542 0.116873)
(0.0863102 0.12423 0.13942)
(0.141631 -0.0097305 0.178809)
(0.194809 -0.144442 0.213)
(0.244463 -0.257897 0.231028)
(0.29038 -0.342558 0.23295)
(0.329758 -0.401166 0.221635)
(0.360337 -0.434775 0.199605)
(0.380552 -0.443943 0.169671)
(0.390455 -0.431635 0.134967)
(0.390713 -0.403551 0.0992703)
(0.382391 -0.358581 0.0742854)
(0.364399 -0.306827 0.0647306)
(0.337556 -0.266725 0.0659016)
(0.308135 -0.218324 0.0820253)
(0.279006 -0.132863 0.103595)
(0.250458 -0.0274983 0.111439)
(0.223032 0.0787868 0.123598)
(0.194693 0.185784 0.167823)
(0.167614 0.280727 0.227731)
(0.145059 0.348135 0.268833)
(0.127331 0.387656 0.276241)
(0.113106 0.406495 0.252938)
(0.10135 0.413052 0.214955)
(0.0908561 0.415301 0.180956)
(0.0807732 0.416929 0.159014)
(0.0712462 0.41786 0.148523)
(0.0626072 0.416335 0.145852)
(0.0549415 0.409752 0.147308)
(0.0480632 0.395096 0.149713)
(0.0425032 0.367931 0.149944)
(0.0351037 0.338108 0.154749)
(0.0197867 0.367521 0.195002)
(0.00667697 0.411056 0.183589)
(0.0178381 0.0550799 0.133941)
(0.0798389 -0.164546 0.135716)
(0.132828 -0.345772 0.127885)
(0.180029 -0.464996 0.10862)
(0.214474 -0.524915 0.0777171)
(0.232543 -0.533064 0.0405789)
(0.238699 -0.505888 0.00247927)
(0.235958 -0.455452 -0.0324129)
(0.226472 -0.389686 -0.0601966)
(0.212635 -0.317171 -0.0794537)
(0.196275 -0.243917 -0.0904551)
(0.178803 -0.1656 -0.0898232)
(0.159585 -0.0798013 -0.0695923)
(0.13629 0.00588468 -0.0277241)
(0.108903 0.0787803 0.0198359)
(0.0810587 0.131807 0.0543722)
(0.0550787 0.176 0.081685)
(0.032046 0.231497 0.129392)
(0.0117442 0.280428 0.176797)
(-0.0017949 0.307925 0.19635)
(-0.00779915 0.32486 0.197562)
(-0.00793331 0.339608 0.188797)
(-0.00416153 0.35499 0.174291)
(0.00120819 0.369961 0.156523)
(0.00681762 0.383723 0.138517)
(0.0118916 0.39599 0.123262)
(0.016051 0.405951 0.112308)
(0.0190712 0.41196 0.105975)
(0.0209887 0.41241 0.103574)
(0.022144 0.406522 0.104074)
(0.0226129 0.394876 0.107212)
(0.0220067 0.3829 0.115453)
(0.0159768 0.395462 0.138512)
(0.00692526 0.431798 0.16446)
(0.00293268 0.43592 0.148813)
(0.0286669 -0.44706 0.0715823)
(0.0761345 -0.654845 0.0947118)
(0.0945659 -0.676817 0.0896541)
(0.0906695 -0.621275 0.0641147)
(0.0651193 -0.530792 0.0297822)
(0.032655 -0.428307 -0.0119053)
(0.00702361 -0.334306 -0.0550389)
(-0.0125699 -0.263955 -0.0818173)
(-0.0273478 -0.216187 -0.086402)
(-0.0377576 -0.173514 -0.0774383)
(-0.0446437 -0.123852 -0.0624199)
(-0.0483976 -0.0676408 -0.04572)
(-0.0502582 -0.0133095 -0.0291567)
(-0.0508518 0.0361773 -0.0118985)
(-0.0505631 0.0826028 0.00741598)
(-0.0506225 0.128718 0.0316208)
(-0.0518563 0.177294 0.0672566)
(-0.0537052 0.222622 0.114578)
(-0.0557562 0.245384 0.145556)
(-0.0561729 0.250161 0.152572)
(-0.0545592 0.250152 0.149363)
(-0.0507049 0.251538 0.141147)
(-0.0447526 0.259105 0.132109)
(-0.037097 0.271999 0.123382)
(-0.0282865 0.288082 0.114944)
(-0.0189084 0.305912 0.106954)
(-0.00950766 0.324709 0.0997359)
(-0.000726373 0.343515 0.0937689)
(0.00628821 0.359976 0.0899389)
(0.0100417 0.370152 0.0894962)
(0.0105952 0.375152 0.0934157)
(0.00821488 0.386848 0.104297)
(0.0036905 0.419595 0.122318)
(-0.000178572 0.444143 0.130799)
(0.000501472 0.421571 0.113789)
(-0.00226276 -0.645568 0.146144)
(-0.0228541 -0.605023 0.142081)
(-0.0523987 -0.342817 0.0476313)
(-0.089885 -0.0649247 -0.0955826)
(-0.108821 -0.0340413 -0.123764)
(-0.116825 -0.0720499 -0.0901758)
(-0.12187 -0.0963603 -0.0657314)
(-0.121949 -0.102167 -0.0548821)
(-0.120819 -0.0997357 -0.0481328)
(-0.11895 -0.0924085 -0.0420895)
(-0.116266 -0.0772457 -0.0351421)
(-0.111559 -0.0490423 -0.0257636)
(-0.10539 -0.0113805 -0.0138195)
(-0.0992118 0.0288437 0.000864473)
(-0.0930166 0.0701893 0.0195578)
(-0.0870788 0.112524 0.0438809)
(-0.0812058 0.152532 0.0741397)
(-0.0754017 0.183069 0.105322)
(-0.070811 0.195572 0.124923)
(-0.0679469 0.193718 0.130245)
(-0.0660149 0.186742 0.12922)
(-0.0639865 0.179388 0.12512)
(-0.0611332 0.175556 0.119848)
(-0.0567158 0.177693 0.114916)
(-0.0504986 0.18617 0.110714)
(-0.0425806 0.200595 0.10687)
(-0.0332965 0.221419 0.103011)
(-0.0231488 0.250296 0.0991354)
(-0.0129854 0.288869 0.0956955)
(-0.00459537 0.334851 0.0938743)
(-0.000838356 0.376764 0.0955574)
(-0.00190971 0.407039 0.101299)
(-0.00345383 0.432457 0.107103)
(-0.0041761 0.442783 0.105755)
(-0.00113515 0.392919 0.0844472)
(-0.025302 -0.351682 0.0926435)
(-0.0472008 -0.391841 0.0573077)
(-0.0474636 -0.303012 0.0202632)
(-0.0315492 -0.282729 0.018725)
(-0.0173632 -0.286866 0.0197896)
(-0.013336 -0.281475 0.0130347)
(-0.0143725 -0.267915 0.00399583)
(-0.0176907 -0.240328 -0.00602512)
(-0.0215469 -0.204135 -0.0138226)
(-0.0251663 -0.168749 -0.0178962)
(-0.0281418 -0.136435 -0.0191177)
(-0.0302571 -0.105432 -0.018154)
(-0.0307639 -0.0740731 -0.0150944)
(-0.0292738 -0.041585 -0.00977642)
(-0.0258556 -0.00804415 -0.00184135)
(-0.0219062 0.0271064 0.00963199)
(-0.0180704 0.0634242 0.0258141)
(-0.014547 0.0985971 0.0468474)
(-0.0121281 0.128601 0.0700467)
(-0.0118297 0.149225 0.0905393)
(-0.0141292 0.157055 0.103418)
(-0.0178273 0.154596 0.108333)
(-0.0219245 0.147621 0.109098)
(-0.0257983 0.13951 0.107502)
(-0.0282261 0.133916 0.104944)
(-0.0286515 0.133421 0.102561)
(-0.0270515 0.13961 0.10048)
(-0.0232038 0.156255 0.0984356)
(-0.0169577 0.190455 0.0965656)
(-0.00883086 0.249137 0.0956017)
(-0.00117185 0.326849 0.0961746)
(0.0011965 0.391066 0.0974728)
(0.000532968 0.422402 0.0969997)
(-0.000483298 0.42949 0.0915722)
(0.000406853 0.366987 0.0685143)
(0.000190134 -0.407379 0.0829363)
(0.00669571 -0.573372 0.118178)
(0.0127943 -0.605167 0.151152)
(0.0212412 -0.472896 0.153816)
(0.0291393 -0.277444 0.100609)
(0.0198545 -0.189291 0.0600512)
(0.0110615 -0.146964 0.0358813)
(0.00305948 -0.11962 0.0194719)
(-0.00357385 -0.0996541 0.00819636)
(-0.00845346 -0.0830231 0.000628318)
(-0.0118848 -0.0673419 -0.00431337)
(-0.0141246 -0.0513513 -0.00722287)
(-0.0153526 -0.0342708 -0.00831739)
(-0.0157666 -0.0154961 -0.0075666)
(-0.0155943 0.00531763 -0.0047456)
(-0.0145345 0.0279357 0.000507309)
(-0.0121971 0.0517736 0.00860341)
(-0.00899147 0.0760417 0.0200274)
(-0.00539067 0.0999874 0.0350934)
(-0.00208321 0.122345 0.0532521)
(-4.83818e-05 0.140006 0.0718222)
(-0.000180351 0.148678 0.0860733)
(-0.00211495 0.148307 0.094288)
(-0.0050167 0.142061 0.0984131)
(-0.00843667 0.132012 0.0995747)
(-0.0115421 0.1219 0.098473)
(-0.0134682 0.116496 0.0966066)
(-0.0140418 0.117843 0.0948404)
(-0.0127889 0.131314 0.0931162)
(-0.00851366 0.172413 0.0920488)
(-0.0011071 0.257361 0.0929237)
(0.00465483 0.363575 0.0938952)
(0.00461047 0.419791 0.0908481)
(0.0028935 0.4324 0.0839203)
(0.00196137 0.367658 0.0619513)
(-0.00365943 -0.454182 0.0492121)
(-0.0152488 -0.575891 0.0398691)
(-0.0301061 -0.564775 0.0529277)
(-0.0428026 -0.500823 0.0920029)
(-0.0396183 -0.323853 0.0991591)
(-0.0334323 -0.227981 0.070865)
(-0.0292732 -0.183331 0.0556654)
(-0.0242958 -0.150122 0.043896)
(-0.0204589 -0.12424 0.0341794)
(-0.0175877 -0.10244 0.0260246)
(-0.0153623 -0.082748 0.0192221)
(-0.01352 -0.0642014 0.0138007)
(-0.0118553 -0.0462765 0.00983957)
(-0.0102097 -0.0285168 0.00741161)
(-0.0084591 -0.0104796 0.00663093)
(-0.00654355 0.00811857 0.00770303)
(-0.00436546 0.0271508 0.010902)
(-0.0018454 0.0463689 0.0165038)
(0.000985537 0.0657887 0.0249071)
(0.00399847 0.0855896 0.0365829)
(0.00689163 0.105035 0.0513077)
(0.00902587 0.120766 0.0664463)
(0.00978117 0.128392 0.0776232)
(0.00927297 0.128194 0.0839325)
(0.00789074 0.12259 0.0867671)
(0.00588965 0.113759 0.0867986)
(0.00370134 0.106042 0.0849923)
(0.00190729 0.102918 0.0829536)
(0.000771432 0.106171 0.0811734)
(0.000904734 0.125919 0.0799464)
(0.00328692 0.192826 0.0813117)
(0.00634696 0.320084 0.0856763)
(0.00553072 0.417067 0.0846878)
(0.00320081 0.439394 0.0779379)
(0.00191406 0.3763 0.0581299)
(-0.00969738 -0.366129 0.0322697)
(-0.0275606 -0.493105 0.0214559)
(-0.0395961 -0.512205 0.0296799)
(-0.0481523 -0.498392 0.047852)
(-0.0498153 -0.43072 0.0850353)
(-0.0371551 -0.328053 0.0940394)
(-0.0267263 -0.280686 0.0941913)
(-0.0161145 -0.228564 0.0900895)
(-0.00690518 -0.183461 0.0823118)
(8.70673e-05 -0.146989 0.0729451)
(0.00502337 -0.117141 0.0630948)
(0.00812235 -0.0920595 0.0536225)
(0.00983495 -0.070223 0.0451963)
(0.0106567 -0.0504021 0.0382635)
(0.0109968 -0.0317222 0.0330983)
(0.0111913 -0.0137342 0.0298866)
(0.0113932 0.00361725 0.0287883)
(0.0117483 0.0202174 0.0299396)
(0.0123896 0.0361638 0.0334415)
(0.0133618 0.0519894 0.0395544)
(0.0146662 0.0682932 0.0485918)
(0.0161472 0.084455 0.0600166)
(0.0172483 0.0972085 0.0710704)
(0.0173682 0.103182 0.078619)
(0.0164473 0.103071 0.0825734)
(0.0146367 0.0992708 0.0838776)
(0.0121878 0.0946905 0.0831563)
(0.0096914 0.0926036 0.0813347)
(0.00751688 0.0960325 0.0791523)
(0.00584305 0.115084 0.0766653)
(0.00542464 0.182738 0.0749112)
(0.00594151 0.318124 0.0764551)
(0.00408213 0.425549 0.0763533)
(0.00187092 0.448661 0.0704352)
(0.00112657 0.379362 0.0527242)
(-0.0091958 -0.33866 0.00955047)
(-0.025186 -0.495071 -0.0142256)
(-0.0372788 -0.539245 -0.0142613)
(-0.0452529 -0.557291 -0.00656655)
(-0.049958 -0.555664 0.00894055)
(-0.045936 -0.510491 0.0366793)
(-0.0342858 -0.454254 0.0557925)
(-0.0209758 -0.391082 0.074004)
(-0.00574361 -0.323058 0.0880467)
(0.00896903 -0.25803 0.0970202)
(0.0219327 -0.199013 0.100536)
(0.0323163 -0.147908 0.0987102)
(0.0397684 -0.105625 0.0924772)
(0.0443463 -0.0718718 0.0834573)
(0.0464062 -0.045297 0.073496)
(0.0464926 -0.0240059 0.0641952)
(0.0452218 -0.00621093 0.0566748)
(0.0431463 0.00932473 0.0515987)
(0.0406725 0.0232583 0.0491943)
(0.0381562 0.0359662 0.0494582)
(0.0358244 0.0480211 0.0524138)
(0.033771 0.0602534 0.0582197)
(0.0319446 0.0729634 0.0666779)
(0.0299966 0.0845081 0.0760696)
(0.0274245 0.0918504 0.0836474)
(0.0239975 0.0941387 0.0882403)
(0.0197087 0.0931393 0.0902626)
(0.0148367 0.0916406 0.0903487)
(0.0100506 0.0932173 0.0891287)
(0.00568658 0.106577 0.0866524)
(0.00320354 0.163531 0.0824392)
(0.00557672 0.306798 0.0776745)
(0.00591676 0.431057 0.0725208)
(0.00399527 0.455357 0.0665432)
(0.00239086 0.380769 0.0510643)
(-0.00775101 -0.251817 -0.00309108)
(-0.0134478 -0.403375 -0.0336395)
(-0.0163875 -0.46682 -0.0479724)
(-0.0183341 -0.503934 -0.0567211)
(-0.0197313 -0.532724 -0.0617604)
(-0.0203525 -0.554218 -0.0619104)
(-0.0187823 -0.557054 -0.0549575)
(-0.0132863 -0.536839 -0.0411842)
(-0.00440991 -0.494852 -0.0210643)
(0.00702982 -0.437821 0.003511)
(0.0200981 -0.371856 0.030767)
(0.0336381 -0.302087 0.0578827)
(0.0465307 -0.232765 0.0813525)
(0.0577861 -0.167478 0.0980535)
(0.0666174 -0.10942 0.106107)
(0.0725243 -0.0610743 0.105544)
(0.075364 -0.0235226 0.0984277)
(0.0753616 0.00394662 0.0881254)
(0.0729807 0.0235825 0.0779689)
(0.0688271 0.0380546 0.0701731)
(0.0637022 0.0494099 0.0656679)
(0.0583659 0.0588147 0.0644827)
(0.0532761 0.067115 0.0663282)
(0.0485509 0.0751873 0.0709053)
(0.0440926 0.0834313 0.0774763)
(0.0396525 0.0909109 0.0840671)
(0.0349107 0.0962522 0.0885374)
(0.0296583 0.0996202 0.0904165)
(0.0240957 0.102912 0.090523)
(0.0186121 0.110782 0.0896843)
(0.0136927 0.141926 0.0878794)
(0.0111662 0.255439 0.0857788)
(0.0100472 0.414655 0.0808894)
(0.00748213 0.456685 0.0742373)
(0.00426607 0.391361 0.0575033)
(-0.00225228 -0.264638 -0.00628493)
(0.00623062 -0.491014 -0.0198377)
(0.0135335 -0.56587 -0.0248932)
(0.0198254 -0.584082 -0.0298106)
(0.0247176 -0.58315 -0.0368646)
(0.0280929 -0.572493 -0.0478484)
(0.0294786 -0.558048 -0.0627865)
(0.0295511 -0.541285 -0.0792913)
(0.0291111 -0.520063 -0.0940491)
(0.0288553 -0.490816 -0.102628)
(0.0295689 -0.451938 -0.0999193)
(0.0320482 -0.405205 -0.0832651)
(0.0367609 -0.352782 -0.0542432)
(0.0436607 -0.295459 -0.0169767)
(0.0522417 -0.233799 0.0232133)
(0.0614902 -0.169448 0.0604559)
(0.0701447 -0.105394 0.0892647)
(0.0769747 -0.0460612 0.105659)
(0.0810554 0.00330902 0.108805)
(0.0820416 0.0391216 0.102145)
(0.0799076 0.061779 0.0916665)
(0.0752412 0.0750792 0.0824313)
(0.0691283 0.0830877 0.0767882)
(0.0625313 0.0882388 0.0751812)
(0.0560352 0.0917955 0.0773447)
(0.0497902 0.0947679 0.0828905)
(0.0438197 0.0982336 0.0906957)
(0.0382686 0.102853 0.0974048)
(0.0333398 0.109056 0.0996235)
(0.0288085 0.120171 0.0966203)
(0.0245303 0.155888 0.0888723)
(0.017946 0.263384 0.0821788)
(0.011304 0.422225 0.0802266)
(0.0071214 0.471429 0.0748374)
(0.00383992 0.41345 0.0578216)
(0.00606431 -0.314031 -0.0112635)
(0.0200455 -0.539475 -0.0157784)
(0.0246129 -0.617516 -0.0168881)
(0.026207 -0.639883 -0.0171045)
(0.0272582 -0.643234 -0.0176136)
(0.0283818 -0.634449 -0.0190646)
(0.0296301 -0.611365 -0.0232337)
(0.0306337 -0.571728 -0.0332739)
(0.0309558 -0.518885 -0.0515076)
(0.0303567 -0.461435 -0.0768724)
(0.0285681 -0.409085 -0.103296)
(0.0259154 -0.367568 -0.12243)
(0.0233506 -0.335796 -0.129891)
(0.0217616 -0.308215 -0.124835)
(0.0222185 -0.279155 -0.105539)
(0.0257013 -0.244838 -0.0717217)
(0.0321294 -0.202654 -0.0277008)
(0.0407227 -0.151416 0.0197293)
(0.0501092 -0.092451 0.0627761)
(0.0585875 -0.0301852 0.0934528)
(0.0645737 0.0264134 0.106263)
(0.0668045 0.0677436 0.103491)
(0.0652012 0.0918082 0.0942658)
(0.0610094 0.10406 0.0860426)
(0.0553666 0.109828 0.0815696)
(0.049043 0.11181 0.0815686)
(0.0424256 0.111143 0.0864855)
(0.035646 0.108821 0.0964469)
(0.0294801 0.107434 0.108713)
(0.0239872 0.114604 0.116473)
(0.0198322 0.165909 0.105511)
(0.0163615 0.302064 0.0824282)
(0.00874004 0.448478 0.0738649)
(0.00422537 0.492382 0.0676648)
(0.00220202 0.4264 0.0509388)
(0.00957859 -0.432622 -0.0116562)
(0.020016 -0.590387 -0.0184872)
(0.0230637 -0.626485 -0.024127)
(0.022446 -0.635373 -0.0288619)
(0.0200537 -0.634263 -0.0340667)
(0.0163652 -0.626061 -0.0398997)
(0.0119136 -0.6111 -0.0456746)
(0.00733473 -0.587362 -0.0503901)
(0.00353231 -0.549194 -0.054137)
(0.00176156 -0.492298 -0.0601134)
(0.00236739 -0.42294 -0.0727972)
(0.00412596 -0.355384 -0.0913097)
(0.00542215 -0.302639 -0.108539)
(0.00567249 -0.268302 -0.118954)
(0.00537736 -0.247341 -0.122548)
(0.00514179 -0.232426 -0.120658)
(0.00559934 -0.217639 -0.110823)
(0.00819031 -0.197225 -0.0853893)
(0.0137313 -0.166851 -0.0435441)
(0.0217873 -0.123251 0.00696454)
(0.0313382 -0.0656233 0.0561438)
(0.0405205 0.000334185 0.0911139)
(0.0463978 0.0586047 0.102744)
(0.0475855 0.0964161 0.0979153)
(0.045292 0.116128 0.0898181)
(0.0410407 0.12534 0.0845859)
(0.0355868 0.128562 0.0836327)
(0.0291125 0.127361 0.0879312)
(0.0217553 0.122651 0.0986747)
(0.0141917 0.120272 0.114046)
(0.00727574 0.155838 0.121414)
(0.00752632 0.316045 0.0940633)
(0.00452863 0.466596 0.0717416)
(0.00161804 0.503048 0.0624532)
(0.000942167 0.426147 0.046115)
(0.00324878 -0.494637 -0.00578408)
(0.00392234 -0.606903 -0.0138781)
(0.00450719 -0.621312 -0.0178427)
(0.00389342 -0.618908 -0.0215964)
(0.00237915 -0.60804 -0.0270253)
(0.000151428 -0.588893 -0.0352598)
(-0.00271088 -0.561395 -0.0469868)
(-0.00620688 -0.529108 -0.0605247)
(-0.00986859 -0.498219 -0.071749)
(-0.0129096 -0.46926 -0.0781727)
(-0.0143978 -0.435752 -0.0806525)
(-0.0130886 -0.391557 -0.0827123)
(-0.00905424 -0.340093 -0.0876211)
(-0.0040609 -0.291594 -0.0942737)
(0.000194886 -0.253345 -0.0997966)
(0.00292701 -0.226665 -0.102855)
(0.00428844 -0.209334 -0.103452)
(0.0049275 -0.197486 -0.101632)
(0.00558258 -0.186543 -0.0953071)
(0.00748647 -0.170364 -0.0763075)
(0.0120889 -0.141442 -0.0361458)
(0.0195702 -0.0930242 0.0185713)
(0.0286751 -0.0242593 0.0705605)
(0.035344 0.0458326 0.0970926)
(0.0372274 0.0953397 0.0983484)
(0.0353741 0.122948 0.0916114)
(0.0313206 0.136967 0.0867757)
(0.0258689 0.143408 0.0860829)
(0.0191523 0.145007 0.0902035)
(0.011622 0.144818 0.0997263)
(0.00254451 0.160224 0.11405)
(0.00155231 0.280337 0.113433)
(0.00424445 0.463191 0.0817255)
(0.00176023 0.50288 0.0660617)
(0.0013898 0.421125 0.0475812)
(-0.00488045 -0.453878 -0.00397724)
(-0.00806309 -0.573437 -0.0161194)
(-0.0082426 -0.594988 -0.01969)
(-0.00782082 -0.598883 -0.020963)
(-0.00704617 -0.594745 -0.0213774)
(-0.00582371 -0.5834 -0.0218357)
(-0.00384261 -0.563287 -0.0237189)
(-0.000771289 -0.532318 -0.0289253)
(0.00325455 -0.493309 -0.0379543)
(0.00728936 -0.453991 -0.0487529)
(0.0104317 -0.419662 -0.0588738)
(0.0126169 -0.389727 -0.0669994)
(0.0143387 -0.359341 -0.0729979)
(0.016324 -0.323953 -0.0775428)
(0.0188524 -0.284628 -0.0813796)
(0.0214634 -0.246806 -0.084532)
(0.0234573 -0.214918 -0.0866393)
(0.0243317 -0.190946 -0.087513)
(0.0241265 -0.1748 -0.0871909)
(0.0233801 -0.164355 -0.0855864)
(0.0226382 -0.15513 -0.0808838)
(0.0230337 -0.138934 -0.0636681)
(0.0270704 -0.100121 -0.0158336)
(0.0339515 -0.0301446 0.0480328)
(0.0389337 0.0467558 0.0871114)
(0.0394208 0.10241 0.0941191)
(0.0363315 0.134153 0.0886424)
(0.0308998 0.150703 0.0835269)
(0.0238115 0.158709 0.0821669)
(0.0159422 0.162188 0.0850398)
(0.00678766 0.170079 0.0932925)
(0.0013821 0.238511 0.107985)
(0.00344207 0.444043 0.100252)
(0.00409801 0.495693 0.08429)
(0.00277649 0.42054 0.0605109)
(-0.00390079 -0.400454 -0.01693)
(-0.00178711 -0.558227 -0.0370058)
(0.00256206 -0.592209 -0.0424078)
(0.00759891 -0.602383 -0.0440943)
(0.0128887 -0.604024 -0.043912)
(0.0178835 -0.600143 -0.0421364)
(0.0223603 -0.591916 -0.0388284)
(0.0264632 -0.578786 -0.034263)
(0.0306815 -0.557217 -0.0295691)
(0.035543 -0.522463 -0.0270683)
(0.0408915 -0.47488 -0.0288088)
(0.045938 -0.420982 -0.0349555)
(0.0497792 -0.368924 -0.0441776)
(0.0517902 -0.324213 -0.0543975)
(0.0520808 -0.287065 -0.0636791)
(0.051368 -0.254259 -0.0708819)
(0.0504421 -0.223145 -0.0756184)
(0.0497123 -0.193865 -0.0780827)
(0.0490282 -0.168366 -0.0788447)
(0.0480531 -0.148373 -0.0785342)
(0.0468167 -0.134139 -0.0775744)
(0.0455463 -0.123794 -0.0758253)
(0.0443983 -0.111776 -0.0702222)
(0.0453947 -0.0772762 -0.0355836)
(0.0492956 -0.00502524 0.0291637)
(0.0515995 0.0755571 0.0737038)
(0.0502065 0.135195 0.08585)
(0.046092 0.171541 0.0830426)
(0.0404685 0.193028 0.0780985)
(0.03432 0.205114 0.0752604)
(0.0290007 0.211039 0.0750945)
(0.0254489 0.228671 0.0832719)
(0.0196213 0.396569 0.0950153)
(0.0158146 0.485097 0.0900974)
(0.00830822 0.43178 0.0663924)
(0.000503747 -0.399664 -0.0321591)
(0.00829437 -0.579611 -0.0508427)
(0.0164907 -0.621838 -0.0563438)
(0.0246912 -0.632173 -0.0596275)
(0.0332257 -0.630094 -0.062654)
(0.0413097 -0.619058 -0.0658564)
(0.048093 -0.600493 -0.0690513)
(0.0529929 -0.576637 -0.0714127)
(0.0557834 -0.551019 -0.0715114)
(0.0569582 -0.525645 -0.0681463)
(0.0576068 -0.497729 -0.0613898)
(0.0588994 -0.460459 -0.053055)
(0.0613739 -0.408585 -0.0467709)
(0.0643169 -0.345906 -0.0461643)
(0.0662614 -0.285027 -0.0515734)
(0.0664299 -0.236902 -0.0596752)
(0.0653918 -0.203084 -0.0669648)
(0.0642248 -0.179096 -0.0720122)
(0.0635657 -0.160374 -0.0748224)
(0.0636245 -0.144429 -0.0757817)
(0.0642541 -0.13046 -0.0753073)
(0.0651329 -0.118084 -0.0737072)
(0.0660468 -0.105464 -0.0704423)
(0.0666038 -0.0863761 -0.0612737)
(0.0664315 -0.0425286 -0.0249779)
(0.0653567 0.0262162 0.0262107)
(0.0638802 0.0916603 0.0566273)
(0.0633766 0.135684 0.0645045)
(0.0631152 0.160252 0.0632376)
(0.0614638 0.171164 0.0604508)
(0.0571846 0.164649 0.0607248)
(0.0406512 0.205558 0.0763686)
(0.0167916 0.409973 0.0952999)
(0.00590102 0.526483 0.0902261)
(0.00123401 0.494685 0.0610676)
(0.00283021 -0.426856 -0.0374212)
(0.0112365 -0.621836 -0.0476632)
(0.0185769 -0.666794 -0.0511072)
(0.0253816 -0.675832 -0.0543084)
(0.0323632 -0.671012 -0.0585437)
(0.039145 -0.655303 -0.0645662)
(0.0450594 -0.628425 -0.0727153)
(0.0496252 -0.590823 -0.0823642)
(0.0524059 -0.546414 -0.0914654)
(0.0531965 -0.50196 -0.0974376)
(0.0522509 -0.462535 -0.0986031)
(0.0502135 -0.427798 -0.0944822)
(0.0479134 -0.391955 -0.0855213)
(0.0463693 -0.346695 -0.0744452)
(0.0460493 -0.290349 -0.0668006)
(0.0461392 -0.233937 -0.0653925)
(0.0457385 -0.190287 -0.067498)
(0.0449888 -0.162989 -0.0696426)
(0.0442427 -0.146186 -0.0707624)
(0.0435436 -0.134407 -0.070656)
(0.0430512 -0.12507 -0.0688722)
(0.0428556 -0.11641 -0.0647441)
(0.0422732 -0.103511 -0.0540682)
(0.0394042 -0.0618099 -0.0195251)
(0.0325309 0.0130078 0.0298841)
(0.0228146 0.0801457 0.0582415)
(0.0143304 0.117585 0.0610779)
(0.00846924 0.14 0.0565589)
(0.00417117 0.166647 0.0522451)
(0.000195997 0.221992 0.049446)
(-0.00407476 0.341728 0.0461479)
(-0.0108555 0.499628 0.040189)
(-0.0209734 0.568498 0.0399482)
(-0.0210375 0.577046 0.03378)
(-0.00910498 0.454603 0.0137286)
(0.00520884 -0.468138 -0.0361525)
(0.0130522 -0.650986 -0.0369865)
(0.0183343 -0.688272 -0.0377951)
(0.0224278 -0.692918 -0.0402588)
(0.0262612 -0.683661 -0.0450658)
(0.0293538 -0.661352 -0.0533592)
(0.0310304 -0.624912 -0.0657094)
(0.0310824 -0.577165 -0.0806222)
(0.0299961 -0.524974 -0.0947553)
(0.0284391 -0.474158 -0.105165)
(0.026693 -0.426908 -0.110649)
(0.0246103 -0.382647 -0.111177)
(0.0219228 -0.339378 -0.107031)
(0.0186773 -0.294891 -0.0990717)
(0.0155162 -0.248507 -0.0899143)
(0.0132277 -0.203449 -0.0827777)
(0.0119227 -0.165542 -0.0783826)
(0.0110801 -0.137934 -0.0754065)
(0.0102738 -0.119204 -0.0726877)
(0.00919435 -0.105552 -0.0694496)
(0.00771416 -0.0938951 -0.0646964)
(0.00531612 -0.0799806 -0.055456)
(0.000730734 -0.0523207 -0.0315066)
(-0.0056365 0.00548631 0.0103884)
(-0.0117399 0.0836109 0.0486591)
(-0.0177036 0.151133 0.0694883)
(-0.024327 0.195318 0.0743524)
(-0.0317548 0.220737 0.0744527)
(-0.0382968 0.233758 0.075487)
(-0.0419583 0.247203 0.0784903)
(-0.0399792 0.282645 0.0827777)
(-0.0179084 0.37088 0.0797066)
(-0.00100851 0.506432 0.0530689)
(0.00490327 0.497399 0.0326309)
(0.00601334 0.361069 0.0205159)
(0.00491452 -0.511483 -0.0227738)
(0.0107082 -0.673388 -0.0161509)
(0.0146337 -0.701014 -0.01591)
(0.0173339 -0.700541 -0.0186396)
(0.0194727 -0.684338 -0.025126)
(0.0202231 -0.64943 -0.0372395)
(0.0189578 -0.596121 -0.0546846)
(0.0162921 -0.534194 -0.0738578)
(0.0133658 -0.475427 -0.0906059)
(0.010809 -0.425671 -0.10248)
(0.00880419 -0.383566 -0.109343)
(0.00731165 -0.344347 -0.112009)
(0.00622107 -0.30345 -0.11103)
(0.00544 -0.259396 -0.106961)
(0.0050014 -0.215888 -0.101188)
(0.00519979 -0.178463 -0.0953279)
(0.00631589 -0.14929 -0.0901189)
(0.00823614 -0.127214 -0.0854992)
(0.0105757 -0.110132 -0.0811111)
(0.0130203 -0.0961135 -0.0764486)
(0.0152688 -0.0831425 -0.0704532)
(0.0174785 -0.0677599 -0.0599379)
(0.019723 -0.0424186 -0.0358926)
(0.0216901 -0.0007086 -0.0019411)
(0.024377 0.0461852 0.0183602)
(0.0302349 0.0889464 0.0261924)
(0.0377371 0.125373 0.0289522)
(0.0432953 0.152537 0.0318095)
(0.044111 0.160208 0.0385022)
(0.040619 0.153646 0.0481735)
(0.0354213 0.143174 0.0501115)
(0.0282572 0.127875 0.0476875)
(0.0246027 0.336062 0.0812768)
(0.0220347 0.495321 0.088076)
(0.0104328 0.453929 0.0634515)
(0.00240931 -0.533375 -0.00556823)
(0.00559926 -0.684731 -7.41424e-05)
(0.00792438 -0.706271 -0.00194915)
(0.0093556 -0.700893 -0.00684193)
(0.00992728 -0.674794 -0.0172749)
(0.00842421 -0.622391 -0.035445)