/*--------------------------------*- C++ -*----------------------------------*\
| =========                 |                                                 |
| \\      /  F ield         | OpenFOAM: The Open Source CFD Toolbox           |
|  \\    /   O peration     | Version:  v2006                                 |
|   \\  /    A nd           | Website:  www.openfoam.com                      |
|    \\/     M anipulation  |                                                 |
\*---------------------------------------------------------------------------*/
FoamFile
{
    version     2.0;
    format      ascii;
    class       volScalarField;
    location    "89";
    object      alphat;
}
// * * * * * * * * * * * * * * * * * * * * * * * * * * * * * * * * * * * * * //

dimensions      [1 -1 -1 0 0 0 0];


internalField   nonuniform List<scalar> 
78750
(
1.55697e-05
1.89956e-05
7.04624e-05
5.83165e-05
5.94386e-05
6.54581e-05
8.79881e-05
7.66243e-05
7.47701e-05
7.39621e-05
7.46497e-05
7.77455e-05
8.13862e-05
8.46223e-05
8.70957e-05
8.88e-05
9.01014e-05
9.10193e-05
9.15485e-05
9.16333e-05
9.02914e-05
8.81026e-05
8.49922e-05
7.96218e-05
7.3409e-05
6.75581e-05
6.1331e-05
5.53284e-05
4.99659e-05
4.55822e-05
4.4808e-05
4.47344e-05
4.09654e-05
5.45903e-05
7.44162e-06
7.37832e-06
5.30428e-06
3.36831e-05
9.40996e-05
0.000112767
0.00011104
0.000180631
0.000181319
0.000160198
9.71272e-05
7.11944e-05
9.26118e-05
0.000143751
0.000204302
0.000230372
0.000228161
0.000222596
0.000204047
0.000160192
0.000121204
9.9795e-05
8.44923e-05
6.36914e-05
4.56108e-05
3.58678e-05
3.21079e-05
3.30335e-05
3.28073e-05
1.92855e-05
1.72906e-05
2.5335e-05
3.98722e-05
5.07631e-05
5.40782e-05
8.88479e-06
5.79549e-05
3.50266e-05
2.5813e-05
1.60012e-05
3.30025e-05
0.000101287
0.000165115
0.000322066
9.97118e-05
2.18556e-05
1.69247e-05
5.95512e-05
0.000113532
0.000186941
0.000311167
0.000396677
0.000240233
9.39724e-05
6.55684e-05
0.000102514
0.000198265
0.000186718
0.000185092
0.000203303
0.000231564
0.000203192
0.000139888
0.000108176
0.000100368
0.000108681
0.000128657
0.000144941
0.000142796
0.000148628
1.20968e-05
8.52327e-05
9.78605e-05
5.5438e-05
2.30191e-05
3.45604e-05
7.49201e-05
0.00014778
0.000272155
0.000261608
5.22477e-05
1.48619e-05
1.8758e-05
7.93406e-05
8.87857e-05
9.45561e-05
9.74193e-05
0.000118796
0.000142658
0.000148559
0.000143432
0.000145723
0.000149943
0.000153409
0.000155824
0.00015579
0.000152367
0.000146207
0.000138871
0.000131782
0.000125681
0.000120689
0.000117617
0.000117537
9.55239e-05
1.07819e-05
9.95972e-05
9.59285e-05
1.77018e-05
2.60423e-05
0.000111242
0.000353883
0.000377742
0.000410001
0.000584325
0.000479037
7.7571e-05
2.39509e-05
3.35896e-05
7.10037e-05
0.000129839
0.000158892
0.00014346
0.000126806
0.000124414
0.000132674
0.000142897
0.000151331
0.000158203
0.000163938
0.000167871
0.000169635
0.000169218
0.000166996
0.000163413
0.00015871
0.000153296
0.000149272
0.000146469
0.000107075
5.56287e-06
8.20167e-05
0.000292227
0.00013035
8.62892e-05
4.59845e-05
5.47596e-05
0.000114097
0.000199918
0.000293191
0.000459485
0.000274058
3.91853e-05
1.63843e-05
2.44793e-05
4.03999e-05
6.81335e-05
0.000106769
0.000135505
0.000152896
0.000165769
0.000173632
0.000175991
0.000174065
0.000169285
0.000162975
0.000156088
0.000149101
0.000142035
0.000134537
0.000126032
0.000116267
0.000105937
9.30289e-05
5.55246e-05
3.91163e-06
9.09464e-05
0.000362855
0.000292794
0.000244055
0.000277858
0.000341542
0.000227919
0.000192827
0.000214527
0.000255619
0.000186195
6.51467e-05
1.45635e-05
1.58319e-05
4.0373e-05
8.45728e-05
0.000117531
0.000137957
0.000156504
0.00017484
0.000193608
0.000212425
0.000227642
0.0002346
0.000231662
0.000219449
0.000200445
0.000178774
0.000158677
0.000141847
0.000126393
0.000109474
8.91828e-05
5.28864e-05
1.47388e-06
3.67297e-05
0.000185339
0.000204168
0.000193008
0.000210875
0.000258871
0.000158996
0.000133073
0.000227254
9.02748e-05
4.14325e-05
3.86747e-05
5.29106e-05
2.48728e-05
6.05016e-06
2.18729e-05
8.53775e-05
0.000138622
0.000157247
0.000159292
0.000155677
0.000158199
0.000171235
0.000191735
0.000215477
0.000241341
0.000271398
0.000308153
0.000342552
0.000350162
0.00031697
0.000258477
0.00019523
0.00010563
3.73853e-06
4.5799e-06
2.82789e-05
3.85858e-05
3.4329e-05
4.69296e-05
4.87745e-05
2.34035e-05
3.67821e-05
3.98993e-07
1.06416e-06
1.1409e-05
3.44382e-05
9.14281e-05
0.000103514
6.33137e-05
5.29921e-05
5.87947e-05
8.96453e-05
0.000169899
0.000295058
0.000382171
0.000321119
0.000251608
0.000256948
0.000340104
0.000365459
0.000277764
0.000197884
0.000155394
0.000137947
0.000129815
0.000124253
0.000123165
0.000106913
5.21054e-06
7.06562e-06
2.16834e-05
3.40309e-05
1.66932e-05
9.50503e-06
2.24823e-05
0.000112307
4.07328e-05
6.48045e-05
5.64264e-05
6.52335e-05
6.45016e-05
5.51037e-05
5.97129e-05
8.19697e-05
5.50695e-05
1.80563e-05
9.51071e-06
1.19345e-05
1.97879e-05
2.87471e-05
3.91572e-05
5.34528e-05
8.0304e-05
0.000122467
0.000133324
0.000117104
0.000111555
0.000117084
0.000109021
8.37646e-05
5.82264e-05
3.74668e-05
1.90638e-05
1.6882e-06
1.23007e-05
0.000101424
0.000123759
6.5973e-05
5.70415e-05
6.08863e-05
4.85225e-05
5.47428e-05
5.83781e-05
5.79345e-05
6.60731e-05
7.37867e-05
7.95253e-05
8.04763e-05
7.91381e-05
8.02618e-05
8.79493e-05
9.77857e-05
9.72845e-05
8.818e-05
7.67035e-05
6.74593e-05
6.07688e-05
5.74502e-05
5.83673e-05
6.34644e-05
7.25973e-05
8.63972e-05
0.000104665
0.000120725
0.000131556
0.000135751
8.71334e-05
4.69562e-05
1.17017e-06
6.3041e-06
3.57512e-05
9.23622e-05
0.000138957
0.000119539
0.000138032
0.000211919
0.000232907
0.000225136
0.000217151
0.000202937
0.000182431
0.000163184
0.000151122
0.000146736
0.000143274
0.000130113
0.000107838
8.44336e-05
5.94611e-05
3.64679e-05
2.23733e-05
1.48365e-05
1.10796e-05
1.06925e-05
1.32597e-05
1.79973e-05
2.529e-05
3.78277e-05
5.55119e-05
5.38309e-05
4.34003e-05
3.6726e-05
4.04787e-05
7.35304e-06
1.04079e-05
0.000104173
0.000251586
0.000267703
0.000262727
0.000215867
0.000173275
0.000153341
0.000148641
0.000150747
0.000152758
0.00015278
0.000156706
0.000176215
0.000223586
0.000298292
0.000360581
0.000350759
0.000338435
0.000323064
0.000304331
0.000282814
0.000220649
7.14821e-05
3.63147e-05
2.67086e-05
2.28269e-05
2.14577e-05
2.1831e-05
2.62373e-05
4.54206e-05
0.000104655
0.000127929
5.03272e-05
6.7236e-06
9.25029e-06
6.21832e-05
0.000163109
0.00020261
0.000214861
0.000220306
0.000221485
0.000215063
0.000201517
0.000187531
0.000178865
0.000176034
0.000176159
0.00017664
0.000178163
0.000184199
0.000195834
0.0002041
0.000189537
0.000144388
9.79772e-05
7.00543e-05
5.55962e-05
4.58999e-05
3.6453e-05
2.95323e-05
2.62069e-05
2.49896e-05
2.41939e-05
2.52495e-05
3.69713e-05
3.99508e-05
3.30547e-05
5.55677e-05
5.45877e-06
1.04556e-05
9.82124e-05
0.000242492
0.000262444
0.000254507
0.000234369
0.000209384
0.00018617
0.000167741
0.000154487
0.000146135
0.000143334
0.000148552
0.000166164
0.000200818
0.000249352
0.00028511
0.000270792
0.00021524
0.00016005
0.000123976
0.000101765
8.41341e-05
4.78913e-05
2.37342e-05
1.68078e-05
1.34819e-05
1.09596e-05
8.36955e-06
7.40658e-06
1.04263e-05
2.06602e-05
5.2437e-05
7.07907e-05
8.89277e-06
9.19543e-06
6.14014e-05
0.000187998
0.000227615
0.00023512
0.000230005
0.000215084
0.000195259
0.000178648
0.000171186
0.000173265
0.000180824
0.000188632
0.000196173
0.000212442
0.000253325
0.000324594
0.000341638
0.000277357
0.000143466
8.00576e-05
6.05918e-05
3.37635e-05
3.0538e-06
6.37762e-06
1.46149e-05
3.12266e-05
5.03169e-05
5.35193e-05
6.14793e-05
7.47951e-05
9.00202e-05
5.75066e-05
1.88002e-05
3.19742e-06
1.02556e-05
7.76621e-05
0.000210756
0.000239327
0.000233984
0.000213228
0.000181649
0.000148354
0.000123047
0.000109417
0.000106682
0.000113314
0.000127684
0.000146195
0.000162583
0.000171942
0.000174413
0.00017288
0.000167832
0.000151082
0.000108501
6.06803e-05
3.3564e-05
1.86532e-05
5.75306e-06
2.84531e-06
9.15291e-06
1.91862e-05
2.81861e-05
4.13706e-05
6.24465e-05
4.35535e-05
1.34476e-05
6.32108e-06
3.63108e-07
9.74595e-06
6.29074e-05
0.000185443
0.000211676
0.000207537
0.000190432
0.00016364
0.000134782
0.000114058
0.000105399
0.000107144
0.000116029
0.000128964
0.000143494
0.000157491
0.000168567
0.000174239
0.000173348
0.000167242
0.000159188
0.000151609
0.000141694
0.000120298
8.90884e-05
6.37103e-05
5.02061e-05
4.57436e-05
3.99934e-05
2.3265e-05
1.44237e-05
1.21233e-05
1.15981e-05
1.89186e-06
1.28969e-06
3.72038e-07
1.00222e-05
6.28405e-05
0.00017691
0.000206837
0.0002015
0.000182489
0.000153546
0.000122122
9.90113e-05
8.85661e-05
8.95397e-05
9.98278e-05
0.000117669
0.000141036
0.000167138
0.000192769
0.000215248
0.000232561
0.000242805
0.000244332
0.000236439
0.000218832
0.000190851
0.000156043
0.000123354
9.79287e-05
7.66994e-05
4.14257e-05
1.86585e-05
1.37426e-05
1.55424e-05
7.1775e-06
7.16449e-06
1.19016e-05
4.83098e-06
1.00116e-05
6.03646e-05
0.000174274
0.000199604
0.000192085
0.000171311
0.000141635
0.000111446
9.07475e-05
8.28471e-05
8.64619e-05
9.96697e-05
0.000120599
0.000147231
0.000177888
0.000212481
0.00025214
0.000292091
0.000312498
0.000305008
0.000296875
0.000284946
0.000214701
0.000138752
9.13606e-05
6.01242e-05
2.30808e-05
6.49787e-06
9.33692e-06
7.41057e-06
1.41809e-05
2.51563e-05
4.32433e-05
0.000102039
4.66243e-06
1.02111e-05
6.18971e-05
0.000178796
0.000209501
0.000200342
0.000175372
0.000142075
0.000110046
8.78073e-05
7.78336e-05
7.92791e-05
9.12532e-05
0.000113251
0.000144084
0.000181319
0.000223404
0.000272135
0.000320972
0.000315218
0.000307369
0.000298706
0.000289243
0.00027897
0.000217299
0.000145902
0.000105013
7.17773e-05
2.56683e-05
1.06153e-05
5.81069e-06
9.19352e-06
2.19051e-05
7.26227e-05
5.8233e-05
3.83745e-06
1.04183e-05
6.27419e-05
0.000183822
0.00020785
0.000191622
0.000160067
0.00012511
9.77432e-05
8.16647e-05
7.55365e-05
7.79744e-05
8.89238e-05
0.000109244
0.000140117
0.000182641
0.000237229
0.000297103
0.000323303
0.000316366
0.000308247
0.000298931
0.000288408
0.000233479
0.00016398
0.000115833
8.81921e-05
6.65614e-05
3.70629e-05
1.69937e-05
1.13443e-05
8.2771e-06
1.45809e-05
3.9368e-05
3.22533e-05
2.88056e-06
1.06694e-05
6.47077e-05
0.000187326
0.000207815
0.000185509
0.000146799
0.000109209
8.48767e-05
7.40722e-05
7.3098e-05
7.94435e-05
9.22536e-05
0.000111503
0.000137471
0.000170334
0.000208904
0.000248808
0.000282627
0.000303807
0.00030936
0.000299013
0.000274336
0.00023933
0.00019862
0.000156782
0.000120443
9.49612e-05
8.01051e-05
6.83014e-05
6.40689e-05
9.70604e-05
6.87516e-05
3.49366e-05
3.00451e-05
6.30746e-07
1.07999e-05
6.54223e-05
0.000183676
0.000197181
0.000170336
0.000128964
9.33651e-05
7.35902e-05
6.75236e-05
7.10912e-05
8.17677e-05
9.84649e-05
0.000120795
0.000148737
0.000182358
0.000220342
0.000257963
0.000287749
0.000304627
0.000309095
0.000304291
0.000292812
0.000276528
0.000258394
0.000244131
0.000242436
0.000257318
0.000261499
0.000251574
0.000241392
0.000232261
0.000186077
9.00939e-05
3.37649e-05
1.83343e-06
1.08966e-05
6.76331e-05
0.00018638
0.000193279
0.000161084
0.000116691
8.23566e-05
6.52231e-05
6.19973e-05
6.90835e-05
8.40342e-05
0.000105064
0.000131393
0.000163939
0.000205298
0.000257042
0.000309584
0.000326166
0.000320726
0.000314123
0.000306361
0.000297473
0.000287572
0.000271492
0.00021652
0.000149121
9.51934e-05
7.36366e-05
7.52146e-05
8.25617e-05
7.61932e-05
5.58384e-05
4.22545e-05
4.03085e-05
2.61086e-06
1.07967e-05
6.64183e-05
0.000183893
0.00019178
0.00016002
0.000116841
8.23738e-05
6.35727e-05
5.8373e-05
6.40198e-05
7.84179e-05
9.92737e-05
0.00012445
0.00015286
0.000184307
0.000218508
0.000253571
0.000285101
0.000307199
0.000315422
0.000309816
0.0002933
0.000266696
0.000228088
0.000179703
0.000130718
9.21126e-05
6.93534e-05
6.07196e-05
5.92955e-05
5.6238e-05
4.7837e-05
3.57285e-05
1.95493e-05
9.78238e-07
1.08547e-05
6.62571e-05
0.000183105
0.000191232
0.00016115
0.000119981
8.52824e-05
6.40062e-05
5.54682e-05
5.80709e-05
7.099e-05
9.28906e-05
0.000121116
0.000152879
0.000186323
0.000219652
0.000250743
0.000280309
0.000311638
0.00032934
0.000326127
0.000321828
0.000316205
0.000309134
0.000297673
0.0002308
0.000154113
9.66904e-05
6.709e-05
5.7918e-05
6.18276e-05
6.9245e-05
6.57236e-05
3.5542e-05
1.66289e-06
1.06614e-05
6.2976e-05
0.000177929
0.000190709
0.000163163
0.000124137
9.03393e-05
6.74051e-05
5.49978e-05
5.26645e-05
6.0792e-05
8.00819e-05
0.000110332
0.000149572
0.000194922
0.000242691
0.00028422
0.000302578
0.000282028
0.000229735
0.000180184
0.000162098
0.00018012
0.000218188
0.000236521
0.000219568
0.000182422
0.000141871
0.000110248
9.34279e-05
9.20807e-05
0.000100076
9.56804e-05
4.0135e-05
1.98939e-06
1.08927e-05
6.28126e-05
0.000175939
0.000189586
0.000162528
0.000125246
9.42136e-05
7.30376e-05
5.92371e-05
5.23409e-05
5.3864e-05
6.50673e-05
8.63217e-05
0.000116618
0.00015339
0.00019247
0.000227184
0.000248469
0.000249151
0.000228707
0.00019605
0.0001686
0.000160307
0.00017344
0.00019867
0.000217966
0.000219061
0.000202812
0.000176962
0.00015011
0.000127973
0.000112103
9.86319e-05
5.34825e-05
2.22856e-06
1.09098e-05
6.37436e-05
0.000178409
0.000189946
0.000160315
0.000121253
9.11936e-05
7.32296e-05
6.25915e-05
5.59593e-05
5.45956e-05
6.1415e-05
7.81503e-05
0.000104594
0.000138423
0.000175897
0.000212353
0.000241114
0.000253837
0.000245529
0.000219685
0.000188082
0.000164084
0.000154645
0.000158786
0.000170264
0.000180946
0.000184355
0.000177107
0.000158843
0.00013288
0.000106651
8.64222e-05
5.12711e-05
2.72956e-06
1.12153e-05
6.74174e-05
0.000184962
0.000195281
0.000165022
0.000125343
9.46324e-05
7.64803e-05
6.61238e-05
5.90248e-05
5.51049e-05
5.74812e-05
6.87052e-05
8.95715e-05
0.000119021
0.000154459
0.000191804
0.000224499
0.000243686
0.000242447
0.00022145
0.000189868
0.000160735
0.000143667
0.000140876
0.00014816
0.00015756
0.000162276
0.0001593
0.000147763
0.000128506
0.000105689
8.44298e-05
4.31075e-05
3.0327e-06
1.13372e-05
7.32702e-05
0.000192378
0.000193989
0.000158896
0.000118359
8.97388e-05
7.47402e-05
6.84118e-05
6.53009e-05
6.28033e-05
6.33044e-05
7.07237e-05
8.68445e-05
0.000110838
0.000140324
0.000172992
0.000206922
0.000238423
0.000259642
0.000260827
0.000238602
0.000201515
0.000165384
0.000141985
0.000133332
0.000134623
0.000138192
0.000137354
0.000129075
0.000114115
9.68464e-05
8.21574e-05
4.21702e-05
3.70582e-06
1.1408e-05
7.71852e-05
0.000197749
0.000197238
0.000162892
0.000123584
9.48402e-05
7.83978e-05
7.00752e-05
6.53639e-05
6.20427e-05
6.15885e-05
6.72303e-05
8.11408e-05
0.000103156
0.000130623
0.000158836
0.000182692
0.000198493
0.000204787
0.000201849
0.000191236
0.000175921
0.000159905
0.000146737
0.000137779
0.000131776
0.000126229
0.000119204
0.000110063
9.96047e-05
9.00959e-05
8.13512e-05
3.32913e-05
3.95347e-06
1.13419e-05
8.01414e-05
0.00020027
0.000196487
0.000160478
0.000122079
9.53714e-05
8.10262e-05
7.49971e-05
7.24133e-05
6.93424e-05
6.61559e-05
6.68983e-05
7.47553e-05
9.033e-05
0.000112292
0.000138087
0.000163228
0.000181421
0.00018802
0.000183341
0.000171846
0.000158534
0.00014655
0.00013685
0.000128705
0.000120814
0.000112621
0.000104655
9.76873e-05
9.21379e-05
8.78756e-05
7.88631e-05
2.62767e-05
3.79685e-06
1.12255e-05
7.97077e-05
0.000202658
0.000199721
0.000164869
0.000128041
0.000101745
8.61221e-05
7.80426e-05
7.40988e-05
7.09657e-05
6.74502e-05
6.59711e-05
7.00355e-05
8.1047e-05
9.7505e-05
0.000116112
0.000133784
0.000148458
0.000159216
0.000165528
0.000166814
0.000163015
0.000155121
0.000144665
0.000132869
0.000120549
0.000108684
9.86381e-05
9.16195e-05
8.80309e-05
8.65213e-05
7.75427e-05
2.50986e-05
3.88139e-06
1.11514e-05
7.95607e-05
0.000204136
0.000198487
0.000159728
0.000123901
0.000101857
9.02553e-05
8.47273e-05
8.19391e-05
7.8284e-05
7.16606e-05
6.43906e-05
6.13426e-05
6.60504e-05
7.9643e-05
0.000100973
0.000124926
0.000143883
0.000154555
0.000159581
0.000162432
0.000163964
0.000162564
0.000156114
0.000144135
0.000128437
0.000112237
9.882e-05
9.05069e-05
8.79546e-05
8.86685e-05
7.89868e-05
2.52257e-05
3.88807e-06
1.11319e-05
7.83226e-05
0.00020548
0.000194138
0.000150397
0.000117299
0.000101148
9.41839e-05
9.09281e-05
8.98822e-05
8.93986e-05
8.57304e-05
7.68158e-05
6.59035e-05
5.85669e-05
5.88054e-05
6.86972e-05
8.88209e-05
0.00011532
0.000137505
0.000147526
0.000148189
0.000145944
0.000144718
0.000144808
0.000143654
0.000137978
0.000127091
0.000114214
0.000104255
0.000100449
0.000101084
9.01633e-05
2.78694e-05
3.89399e-06
1.11242e-05
7.64614e-05
0.000203008
0.000181912
0.000131878
0.000102873
9.46079e-05
9.60766e-05
9.91919e-05
0.000100905
0.000101507
0.000100252
9.4446e-05
8.34718e-05
7.09267e-05
6.11771e-05
5.74083e-05
6.27293e-05
7.98815e-05
0.000108765
0.000139492
0.000155629
0.000154228
0.000144561
0.000134952
0.000129064
0.000126754
0.000125251
0.000121713
0.000116601
0.000113171
0.000112001
0.00010019
3.11345e-05
4.08851e-06
1.11259e-05
7.29712e-05
0.000194959
0.000161984
0.00011016
8.80749e-05
8.74711e-05
9.64288e-05
0.000106422
0.000113364
0.000117278
0.000118897
0.000116787
0.000108444
9.43495e-05
7.87358e-05
6.55833e-05
5.73647e-05
5.67385e-05
6.65896e-05
8.94706e-05
0.000123347
0.000152099
0.000158266
0.000145515
0.000127171
0.000112349
0.000104077
0.000101491
0.000102207
0.00010423
0.000104869
9.03636e-05
2.74689e-05
3.97182e-06
1.11305e-05
6.85104e-05
0.000180712
0.000137285
8.88702e-05
7.3995e-05
7.9996e-05
9.63615e-05
0.000114109
0.000126957
0.000133912
0.000137037
0.00013747
0.000133809
0.000123907
0.00010823
9.0435e-05
7.43927e-05
6.23019e-05
5.58054e-05
5.68015e-05
6.6839e-05
8.62428e-05
0.000110428
0.000126557
0.000125322
0.000112624
9.94906e-05
9.21876e-05
9.16319e-05
9.53589e-05
9.74233e-05
7.95888e-05
2.31942e-05
3.63195e-06
1.11043e-05
6.42936e-05
0.000164233
0.000117173
7.46937e-05
6.40807e-05
7.27342e-05
9.24574e-05
0.000115645
0.000135339
0.000148371
0.000155293
0.00015786
0.00015681
0.000151223
0.000139775
0.000122938
0.000103801
8.60447e-05
7.1843e-05
6.20205e-05
5.71623e-05
5.78775e-05
6.43198e-05
7.53803e-05
8.74166e-05
9.48561e-05
9.54055e-05
9.30793e-05
9.3445e-05
9.80887e-05
0.000101585
8.3622e-05
2.39169e-05
3.61885e-06
1.10237e-05
6.09671e-05
0.000152391
0.000112034
7.18992e-05
5.96831e-05
6.58942e-05
8.42139e-05
0.000109052
0.000133545
0.000152672
0.000165276
0.000172525
0.000175631
0.00017453
0.000167752
0.000153733
0.000133515
0.000111597
9.28155e-05
7.9142e-05
6.96302e-05
6.29303e-05
5.89844e-05
5.8456e-05
6.15146e-05
6.72594e-05
7.43366e-05
8.20491e-05
9.07475e-05
0.00010002
0.000105006
8.88976e-05
2.62762e-05
3.98178e-06
1.09407e-05
6.02512e-05
0.000150729
0.000126323
8.42262e-05
6.16329e-05
5.81459e-05
6.82044e-05
8.88206e-05
0.000116256
0.000144572
0.000168341
0.000185375
0.000196135
0.00020132
0.00019962
0.000187156
0.000161501
0.000128149
9.87369e-05
8.06811e-05
7.24672e-05
6.85396e-05
6.50497e-05
6.17713e-05
6.02716e-05
6.13077e-05
6.46543e-05
7.06814e-05
8.00488e-05
9.12635e-05
9.84622e-05
8.63949e-05
2.68113e-05
4.49532e-06
1.08569e-05
6.12237e-05
0.000157691
0.000156186
0.000119553
7.92615e-05
5.85875e-05
5.56555e-05
6.56191e-05
8.6505e-05
0.000115908
0.000148629
0.000178614
0.000202344
0.000218906
0.000226746
0.000219634
0.000188806
0.000138379
9.18683e-05
6.7148e-05
6.28091e-05
6.86771e-05
7.26016e-05
6.96883e-05
6.48902e-05
6.33651e-05
6.54466e-05
6.94201e-05
7.60567e-05
8.66772e-05
9.68257e-05
8.67411e-05
2.60629e-05
4.67417e-06
1.0851e-05
6.32434e-05
0.000169001
0.000184649
0.000164823
0.000121704
7.8493e-05
5.66143e-05
5.26306e-05
6.15414e-05
8.21226e-05
0.000113319
0.000150669
0.000186906
0.000215924
0.000233863
0.000235672
0.000212352
0.000159914
9.85682e-05
5.88415e-05
4.73037e-05
5.66581e-05
7.47069e-05
7.88032e-05
6.82673e-05
5.93806e-05
5.93606e-05
6.71662e-05
7.89844e-05
9.28384e-05
0.000103772
8.55482e-05
2.3625e-05
4.23202e-06
1.08123e-05
6.39013e-05
0.000179818
0.00020325
0.000192339
0.000167639
0.000126451
8.2922e-05
5.83769e-05
5.1863e-05
5.85721e-05
7.7491e-05
0.000108574
0.000148181
0.000187542
0.00021694
0.00022966
0.00022149
0.00018866
0.000132814
7.52577e-05
4.20963e-05
3.49249e-05
4.75067e-05
7.15504e-05
7.82511e-05
6.44183e-05
5.43372e-05
5.67905e-05
7.13993e-05
9.11197e-05
0.000101249
7.26684e-05
2.00379e-05
3.59464e-06
1.07366e-05
6.04519e-05
0.000174938
0.000199661
0.000187095
0.000168214
0.000150788
0.000126156
9.1132e-05
6.45432e-05
5.42699e-05
5.7767e-05
7.40386e-05
0.000103503
0.000143089
0.000182836
0.000210481
0.000218987
0.00020724
0.000175356
0.000124499
7.02537e-05
3.66676e-05
2.64556e-05
3.30344e-05
5.31224e-05
7.10385e-05
6.80935e-05
6.22082e-05
6.78272e-05
8.39986e-05
9.39144e-05
6.48044e-05
1.82498e-05
3.22733e-06
1.0651e-05
5.5509e-05
0.000159998
0.0001864
0.000171486
0.000146595
0.000129501
0.000125001
0.00012216
0.000103164
7.60828e-05
6.05616e-05
5.9957e-05
7.34413e-05
0.000101445
0.000141254
0.00018206
0.0002099
0.000217702
0.000205997
0.000176784
0.00013084
7.77775e-05
3.95921e-05
2.3271e-05
2.24896e-05
3.43061e-05
5.78912e-05
7.77788e-05
8.59752e-05
9.50691e-05
9.99121e-05
7.00043e-05
1.96383e-05
3.23612e-06
1.07399e-05
5.44174e-05
0.000157637
0.000189395
0.000176042
0.000145699
0.000117688
0.000105493
0.000109963
0.000121594
0.000117748
9.20094e-05
7.05106e-05
6.55305e-05
7.70123e-05
0.000104958
0.00014666
0.000190804
0.000221795
0.000231322
0.00022021
0.000191857
0.000147845
9.40654e-05
4.92784e-05
2.54431e-05
1.82128e-05
2.33298e-05
4.42309e-05
8.02702e-05
0.000102089
0.000104817
7.60112e-05
2.22228e-05
3.48389e-06
1.10677e-05
5.85354e-05
0.000172267
0.00020425
0.000187427
0.000154574
0.000123408
0.000104689
0.000101584
0.000113379
0.000132046
0.000134532
0.000108544
8.23424e-05
7.47945e-05
8.68761e-05
0.000118102
0.000165071
0.000214942
0.00024972
0.000259711
0.000246421
0.000215065
0.000168983
0.000112838
6.17283e-05
3.05582e-05
1.80007e-05
1.87756e-05
3.56498e-05
7.22336e-05
9.16445e-05
7.31909e-05
2.2665e-05
3.77459e-06
1.15096e-05
6.51294e-05
0.000188684
0.000207334
0.000177629
0.000141337
0.00011853
0.000109551
0.000109919
0.000119051
0.000136716
0.00015329
0.000148187
0.000118376
9.28218e-05
8.81806e-05
0.000105992
0.000145729
0.000201783
0.000257096
0.000290798
0.000294725
0.000274095
0.000236469
0.000185838
0.000126054
7.01851e-05
3.41591e-05
1.85722e-05
1.75113e-05
3.26384e-05
6.43588e-05
6.51517e-05
2.01074e-05
3.89281e-06
1.18333e-05
7.21029e-05
0.000195174
0.000193233
0.000151242
0.000115437
0.00010179
0.000106166
0.00012109
0.000139681
0.000158146
0.000172328
0.000172224
0.000150656
0.000120789
0.000104452
0.000110662
0.000141524
0.000195595
0.000260445
0.00031126
0.000330275
0.000319685
0.000289193
0.000244734
0.000188264
0.000123864
6.6385e-05
3.14499e-05
1.75008e-05
1.84003e-05
3.81314e-05
5.65858e-05
1.68345e-05
3.73556e-06
1.19414e-05
8.01516e-05
0.000198321
0.000176444
0.000128768
9.90858e-05
9.30921e-05
0.000105523
0.000130752
0.00015993
0.000183108
0.000194006
0.000189313
0.000169447
0.000143569
0.000126324
0.000128017
0.000153766
0.000204336
0.000268679
0.000321219
0.000342877
0.000337619
0.00031542
0.000279143
0.00022929
0.000167484
0.000102088
5.16968e-05
2.57526e-05
1.84842e-05
2.91336e-05
5.40237e-05
1.55226e-05
3.39176e-06
1.18226e-05
8.65081e-05
0.000198801
0.000160584
0.000112429
9.03261e-05
9.1226e-05
0.000109251
0.000138775
0.000170543
0.000194267
0.000203523
0.000197201
0.000179747
0.000160388
0.000149385
0.000154526
0.000180558
0.000227007
0.00028217
0.000325422
0.000343822
0.00033987
0.000320784
0.000289866
0.000247373
0.000193193
0.000131332
7.56979e-05
4.08146e-05
2.74772e-05
3.45803e-05
6.26231e-05
1.74307e-05
3.03957e-06
1.15414e-05
8.4975e-05
0.000191749
0.000147433
0.000100658
8.19406e-05
8.51932e-05
0.000104635
0.000134673
0.000166237
0.000189879
0.000200308
0.000197865
0.000187947
0.000178665
0.000177695
0.000190431
0.000219073
0.000260089
0.000302314
0.000332105
0.000342936
0.000337067
0.000319142
0.00029158
0.000254543
0.000207653
0.000153075
0.0001
6.18692e-05
4.51857e-05
5.26439e-05
8.30392e-05
2.28466e-05
2.77454e-06
1.12317e-05
7.8421e-05
0.000180076
0.000139487
9.35206e-05
7.32905e-05
7.3751e-05
9.00026e-05
0.000118152
0.000150375
0.000177119
0.000193139
0.000199389
0.000200963
0.000204131
0.000214056
0.000233633
0.000262431
0.000295611
0.00032488
0.000342684
0.000346328
0.000337573
0.000319262
0.000293011
0.000259028
0.000217161
0.00016911
0.000121565
8.56212e-05
7.00639e-05
8.07756e-05
0.00010877
3.0524e-05
2.60291e-06
1.10468e-05
7.42789e-05
0.000173902
0.000136992
9.11191e-05
6.84366e-05
6.45329e-05
7.49425e-05
9.79583e-05
0.000129143
0.000160356
0.000185309
0.000203251
0.000217352
0.000231724
0.00024961
0.000272379
0.000298707
0.000324446
0.000344138
0.000353699
0.000352099
0.000340689
0.000321336
0.000295207
0.000262641
0.000223895
0.000180861
0.000139289
0.000108535
9.73246e-05
0.000110824
0.000129479
3.7885e-05
2.50396e-06
1.09358e-05
7.09686e-05
0.000170231
0.000134505
8.95183e-05
6.70607e-05
6.07229e-05
6.52846e-05
8.06663e-05
0.000106722
0.000139368
0.000172112
0.000200883
0.000225703
0.000248844
0.000272624
0.00029786
0.000323033
0.000344657
0.000358921
0.000363531
0.000358385
0.000344795
0.00032427
0.000297817
0.000265945
0.000229328
0.000190232
0.00015409
0.000129026
0.000122422
0.000135675
0.000143012
4.38277e-05
2.48188e-06
1.08317e-05
6.57987e-05
0.000160715
0.000127847
8.49595e-05
6.48074e-05
5.9751e-05
6.19329e-05
7.03807e-05
8.77808e-05
0.000115078
0.000149218
0.000185083
0.000219253
0.000251321
0.000282203
0.000311956
0.000338693
0.000359213
0.000370741
0.000372262
0.000364532
0.000349135
0.000327562
0.000300806
0.000269512
0.000234673
0.000198825
0.000167153
0.000146712
0.00014303
0.00015363
0.000151866
4.83629e-05
2.53266e-06
1.07651e-05
6.1581e-05
0.000150476
0.000123482
8.1734e-05
6.11473e-05
5.73254e-05
6.13578e-05
6.79422e-05
7.82628e-05
9.64672e-05
0.0001244
0.000160283
0.00020012
0.000240498
0.000279549
0.000315585
0.00034584
0.00036712
0.000377465
0.00037702
0.000367451
0.000350783
0.000328626
0.000301992
0.000271604
0.000238626
0.000205687
0.000177646
0.000160549
0.00015816
0.000165592
0.000157809
5.17003e-05
2.65413e-06
1.08008e-05
6.14422e-05
0.000149005
0.000129126
8.72567e-05
6.153e-05
5.42496e-05
5.83859e-05
6.71096e-05
7.62803e-05
8.81218e-05
0.000107394
0.00013656
0.000174705
0.000218524
0.000263879
0.000306319
0.000341127
0.000364472
0.000374926
0.00037368
0.000363276
0.000346198
0.000324195
0.000298297
0.000269285
0.000238389
0.00020822
0.00018327
0.000168693
0.000166903
0.000171882
0.000160272
5.2813e-05
2.785e-06
1.09254e-05
6.5035e-05
0.000156385
0.000143251
0.000102445
6.95161e-05
5.52105e-05
5.50989e-05
6.34916e-05
7.44179e-05
8.51435e-05
9.87288e-05
0.000119922
0.0001512
0.000192012
0.00023886
0.000285636
0.00032507
0.000351534
0.000363293
0.000362221
0.000351662
0.000334596
0.000312993
0.00028801
0.000260537
0.000231893
0.000204653
0.000182924
0.000171048
0.000170404
0.000174366
0.000160395
5.20343e-05
2.91796e-06
1.10853e-05
7.13778e-05
0.000168386
0.000159625
0.000121888
8.38609e-05
6.19711e-05
5.58207e-05
6.07898e-05
7.14885e-05
8.29142e-05
9.45039e-05
0.000110179
0.000134184
0.000168547
0.000212133
0.000259604
0.000302332
0.000332354
0.000346478
0.000346497
0.000336306
0.000319371
0.00029796
0.000273465
0.000247002
0.000220132
0.000195555
0.000177132
0.000168463
0.00016989
0.000173917
0.000157603
4.91691e-05
2.9948e-06
1.12211e-05
7.97814e-05
0.000180984
0.000173452
0.000139538
0.000100919
7.34781e-05
6.14734e-05
6.212e-05
7.08062e-05
8.20271e-05
9.27878e-05
0.000105051
0.000123142
0.000150527
0.000188101
0.000232532
0.000275775
0.000308419
0.000325258
0.000327056
0.000317723
0.000301081
0.000279745
0.000255463
0.000229759
0.000204617
0.000182948
0.000168287
0.000163357
0.000167352
0.000171778
0.000152929
4.56038e-05
3.05016e-06
1.12704e-05
8.80285e-05
0.000191034
0.000182905
0.000152261
0.000116805
8.76185e-05
7.10136e-05
6.72659e-05
7.32115e-05
8.35193e-05
9.36175e-05
0.000103508
0.000116918
0.000137898
0.000168624
0.000207679
0.000248758
0.000282592
0.000302311
0.000306938
0.000299623
0.000284151
0.000263342
0.000239218
0.000213703
0.000189316
0.000169416
0.000157536
0.000155804
0.000162324
0.000167365
0.000145859
4.16091e-05
3.05378e-06
1.12129e-05
9.35445e-05
0.00019675
0.000186383
0.00015756
0.00012752
0.000101513
8.33264e-05
7.58585e-05
7.85794e-05
8.73985e-05
9.69482e-05
0.000105224
0.000114914
0.00013032
0.000154488
0.000187434
0.00022459
0.000257645
0.000278961
0.000286019
0.000280907
0.000267107
0.000247516
0.000224343
0.000199765
0.000176602
0.000158417
0.000148681
0.000149163
0.000157281
0.000162481
0.000138586
3.82364e-05
3.05569e-06
1.10656e-05
9.58366e-05
0.000198055
0.000182134
0.000153059
0.000129625
0.000111384
9.65776e-05
8.79008e-05
8.77649e-05
9.45656e-05
0.000103408
0.000110637
0.000117374
0.000127813
0.000145774
0.000172511
0.000205055
0.000236389
0.000258749
0.000268285
0.000265819
0.000254235
0.000236298
0.000214261
0.00019044
0.000167892
0.000150442
0.000141725
0.000143486
0.000152764
0.000158204
0.000132222
3.56292e-05
3.04156e-06
1.08534e-05
9.50876e-05
0.000194715
0.00016781
0.000137495
0.000122115
0.000114579
0.000107782
0.000101912
0.000100796
0.000105647
0.000113336
0.000119666
0.000124105
0.000130206
0.000142326
0.000162725
0.00018977
0.000217734
0.000239255
0.000249795
0.000249243
0.000239928
0.000224423
0.000204878
0.000183479
0.000163106
0.000147424
0.000140016
0.000142629
0.000152133
0.00015692
0.000128597
3.41882e-05
3.04786e-06
1.05861e-05
9.0123e-05
0.000182333
0.000139673
0.000111375
0.000106493
0.000111407
0.000115495
0.000116192
0.000116995
0.000121038
0.000127376
0.000132475
0.000134777
0.000136926
0.000143499
0.00015763
0.000178917
0.000202955
0.000223067
0.000234254
0.000235419
0.000228194
0.000214868
0.000197506
0.000178256
0.000159951
0.000146177
0.000140418
0.000144269
0.000154235
0.000158376
0.000127636
3.37347e-05
3.06227e-06
1.02971e-05
8.02381e-05
0.000155256
0.000102123
8.17423e-05
8.72476e-05
0.000103601
0.000119033
0.000128503
0.000133962
0.000138981
0.000144307
0.000147783
0.000147797
0.000146247
0.000147576
0.000155477
0.000170486
0.000189327
0.000206251
0.0002164
0.000218189
0.000212765
0.000202159
0.000188234
0.000172837
0.000158383
0.000148018
0.00014486
0.000150105
0.000159774
0.000162106
0.000128085
3.382e-05
3.078e-06