/*--------------------------------*- C++ -*----------------------------------*\
| =========                 |                                                 |
| \\      /  F ield         | OpenFOAM: The Open Source CFD Toolbox           |
|  \\    /   O peration     | Version:  v2006                                 |
|   \\  /    A nd           | Website:  www.openfoam.com                      |
|    \\/     M anipulation  |                                                 |
\*---------------------------------------------------------------------------*/
FoamFile
{
    version     2.0;
    format      ascii;
    class       surfaceScalarField;
    location    "89";
    object      phi;
}
// * * * * * * * * * * * * * * * * * * * * * * * * * * * * * * * * * * * * * //

dimensions      [1 0 -1 0 0 0 0];
oriented        oriented;


internalField   nonuniform List<scalar> 
228225
(
0.000180459
0.000588054
2.00416e-05
4.69527e-05
4.85804e-05
2.79165e-05
4.89869e-05
-4.78251e-05
2.33672e-05
9.43288e-05
-7.80416e-05
2.00421e-05
0.000171499
-0.00012497
2.10682e-05
0.000296892
-0.000169455
1.97141e-05
0.000419998
-0.000167895
1.96886e-05
0.000532138
-0.000154715
1.94247e-05
0.000628348
-0.000136354
1.88365e-05
0.000702543
-0.000110963
1.79994e-05
0.000755732
-8.57442e-05
1.69647e-05
0.000797074
-7.01279e-05
1.58236e-05
0.000830827
-5.97508e-05
1.46395e-05
0.000858702
-5.1841e-05
1.3443e-05
0.000881203
-4.50167e-05
1.2284e-05
0.000898267
-3.85984e-05
1.12259e-05
0.000909612
-3.22187e-05
1.03515e-05
0.000914576
-2.58074e-05
9.75323e-06
0.000912409
-1.91048e-05
9.46344e-06
0.000902888
-1.24895e-05
9.4925e-06
0.000885568
-6.33544e-06
9.76585e-06
0.000861
-8.39867e-07
1.01852e-05
0.000827533
6.13906e-06
1.06648e-05
0.000787231
1.06541e-05
1.11631e-05
0.000741745
1.33689e-05
1.16116e-05
0.000691707
1.53967e-05
1.19839e-05
0.000636846
1.81371e-05
1.23383e-05
0.0005754
2.35297e-05
1.26764e-05
0.000504705
3.22363e-05
1.32753e-05
0.000423952
4.34252e-05
1.38933e-05
0.000334011
5.37919e-05
1.46992e-05
0.000241382
5.89049e-05
1.50223e-05
0.000154768
5.99275e-05
1.52893e-05
7.04715e-05
5.71996e-05
1.62047e-05
5.05742e-05
1.24867e-05
2.37094e-05
0.000591907
5.37405e-07
-7.45192e-05
0.00015723
4.65272e-07
-0.00012488
6.93408e-06
-8.1467e-06
-0.000109767
-8.7157e-05
-6.6989e-06
-4.30276e-05
-0.00018409
-5.21397e-06
2.86923e-05
-0.00023805
-3.33207e-06
9.6559e-05
-0.000237135
-1.33483e-06
0.000148616
-0.000208247
-2.74778e-07
0.000178101
-0.000166236
4.83015e-07
0.000181261
-0.000109808
8.89792e-07
0.000174796
-7.021e-05
4.3588e-07
0.000176644
-6.00903e-05
-2.8684e-07
0.000184432
-5.48123e-05
-7.6786e-07
0.000194951
-4.95993e-05
-1.28267e-06
0.000206586
-4.42405e-05
-1.79622e-06
0.000217935
-3.83086e-05
-2.22265e-06
0.000227491
-3.14496e-05
-2.5072e-06
0.000232677
-2.24057e-05
-2.62705e-06
0.000229473
-9.54159e-06
-2.54434e-06
0.000218708
2.34927e-06
-2.2815e-06
0.000205431
9.19169e-06
-1.90069e-06
0.000190087
1.54093e-05
-1.44944e-06
0.000175419
2.00933e-05
-9.97703e-07
0.000160832
2.29176e-05
-6.87971e-07
0.000146152
2.4034e-05
-5.63326e-07
0.000131654
2.4235e-05
-4.97961e-07
0.000117856
2.51075e-05
-2.34691e-07
0.000105608
2.82693e-05
3.80453e-07
9.50504e-05
3.47093e-05
1.59566e-06
8.52619e-05
4.39135e-05
3.33314e-06
7.45083e-05
5.34477e-05
5.15545e-06
5.9862e-05
6.09897e-05
6.84584e-06
4.04043e-05
6.58403e-05
7.91233e-06
1.62692e-05
6.72978e-05
7.17569e-06
5.78714e-05
5.32572e-06
0.000131118
0.000545446
-3.78945e-06
8.76521e-05
0.000227299
-1.46841e-06
9.17109e-06
9.75766e-05
-4.59834e-06
-5.66233e-05
-1.22556e-05
-6.33054e-06
-8.44274e-05
-0.000148961
-4.51891e-06
-9.26772e-05
-0.000226879
-1.58397e-06
-7.89154e-05
-0.000259792
1.26101e-06
-5.93544e-05
-0.000239325
2.67622e-06
-4.47449e-05
-0.000187724
3.35288e-06
-3.92987e-05
-0.000114971
3.22353e-06
-5.20897e-05
-5.73408e-05
2.01737e-06
-7.5141e-05
-3.83865e-05
6.70461e-07
-9.30526e-05
-3.58509e-05
-2.95098e-07
-0.000102883
-3.61021e-05
-6.78965e-07
-0.000106346
-3.52331e-05
-8.63604e-07
-0.000106224
-3.18976e-05
-1.09253e-06
-0.000102885
-2.76614e-05
-1.29571e-06
-9.6296e-05
-2.15573e-05
-1.33618e-06
-8.91464e-05
-1.19171e-05
-1.02121e-06
-8.31503e-05
-2.56985e-06
-8.50206e-07
-7.60238e-05
2.46099e-06
-1.12347e-06
-6.70748e-05
6.83135e-06
-1.48158e-06
-5.75717e-05
1.10548e-05
-1.86333e-06
-4.90695e-05
1.50418e-05
-2.21471e-06
-4.30642e-05
1.88331e-05
-2.48421e-06
-4.05189e-05
2.2618e-05
-2.59979e-06
-4.12842e-05
2.67549e-05
-2.46283e-06
-4.39474e-05
3.14052e-05
-2.0331e-06
-4.60307e-05
3.64281e-05
-1.35171e-06
-4.52515e-05
4.15347e-05
-4.77585e-07
-4.09992e-05
4.61793e-05
4.89412e-07
-3.4046e-05
4.97603e-05
1.36024e-06
-2.50334e-05
5.1694e-05
1.9002e-06
-1.35597e-05
5.06732e-05
2.06457e-06
4.17653e-05
1.33965e-06
0.000111442
0.000496415
-4.66378e-06
8.63951e-05
0.000264018
-2.20074e-06
8.04307e-05
9.67776e-05
-2.29228e-06
0.000100834
-3.7367e-05
-2.98278e-06
0.000104834
-0.000147304
-3.13044e-06
7.48394e-05
-0.00019583
-2.76782e-06
2.43779e-05
-0.000239718
-1.19377e-06
-1.55785e-05
-0.000251248
9.97416e-07
-3.65876e-05
-0.000226858
2.73252e-06
-3.45985e-05
-0.00017615
4.03857e-06
-1.90366e-05
-0.000101692
4.52822e-06
-2.94948e-05
-3.34995e-05
3.87962e-06
-4.99584e-05
-1.67953e-05
3.00168e-06
-7.4162e-05
-1.38447e-05
2.74016e-06
-9.83541e-05
-1.32501e-05
2.39073e-06
-0.000119791
-1.21848e-05
1.74105e-06
-0.000137745
-1.10292e-05
1.13544e-06
-0.000150937
-9.38035e-06
5.6645e-07
-0.000156341
-6.81734e-06
-4.24843e-08
-0.000155262
-3.501e-06
-4.10298e-07
-0.000152155
-1.56358e-07
-7.70121e-07
-0.000147788
3.31483e-06
-1.11733e-06
-0.000142208
6.64648e-06
-1.42629e-06
-0.000135718
9.98992e-06
-1.68279e-06
-0.0001286
1.33453e-05
-1.86822e-06
-0.000120985
1.67313e-05
-1.9714e-06
-0.000112669
2.01531e-05
-1.98872e-06
-0.000103244
2.35555e-05
-1.92408e-06
-9.23271e-05
2.6829e-05
-1.79279e-06
-7.96491e-05
2.98282e-05
-1.61927e-06
-6.52486e-05
3.2369e-05
-1.42405e-06
-4.94464e-05
3.41929e-05
-1.21452e-06
-3.26422e-05
3.48572e-05
-9.79308e-07
-1.56136e-05
3.34914e-05
-6.8303e-07
2.65077e-05
-6.97557e-07
8.76832e-05
0.00041032
-1.44133e-06
5.63316e-05
0.000290489
-8.49896e-07
7.42386e-06
0.000149495
-1.93677e-06
-3.0054e-05
6.62e-06
-3.99877e-06
-0.000110058
-6.63776e-05
-4.18019e-06
-0.000205599
-0.000114282
-3.58751e-06
-0.000263714
-0.000209776
-2.7548e-06
-0.000270847
-0.000281084
-1.30597e-06
-0.000242137
-0.000287718
-2.8859e-09
-0.000180266
-0.000263766
1.09976e-06
-9.9691e-05
-0.000208465
2.42439e-06
-3.94886e-05
-0.000103783
3.31733e-06
-2.24014e-05
-3.90724e-05
3.32007e-06
-2.07283e-05
-1.9165e-05
2.9866e-06
-2.61772e-05
-1.05828e-05
2.59048e-06
-3.43351e-05
-6.25958e-06
2.16409e-06
-4.32895e-05
-3.79611e-06
1.66254e-06
-5.19861e-05
-1.85268e-06
1.06462e-06
-5.94007e-05
8.20079e-09
4.04744e-07
-6.54181e-05
2.46855e-06
-2.21916e-07
-6.99169e-05
4.72087e-06
-7.08286e-07
-7.27289e-05
6.94116e-06
-1.17853e-06
-7.40407e-05
9.18939e-06
-1.601e-06
-7.39098e-05
1.14655e-05
-1.95975e-06
-7.23944e-05
1.37554e-05
-2.2459e-06
-6.95209e-05
1.60354e-05
-2.45661e-06
-6.52824e-05
1.82726e-05
-2.59492e-06
-5.96829e-05
2.04253e-05
-2.6698e-06
-5.2778e-05
2.24453e-05
-2.69538e-06
-4.46955e-05
2.42755e-05
-2.68791e-06
-3.56485e-05
2.58339e-05
-2.65945e-06
-2.59517e-05
2.69703e-05
-2.60933e-06
-1.61077e-05
2.74052e-05
-2.51192e-06
-7.00067e-06
2.65447e-05
-2.28844e-06
2.11293e-05
-1.80866e-06
0.000185895
0.000223335
-8.43008e-06
0.000277245
0.000200905
-7.5553e-06
0.000286162
0.000147224
-8.23811e-06
0.000211691
7.39592e-05
-9.72231e-06
0.000126433
3.62474e-05
-1.16833e-05
7.79232e-05
-2.05975e-05
-1.27168e-05
2.67276e-05
-0.00012899
-1.00452e-05
-2.55698e-05
-0.000229568
-4.64748e-06
-5.97838e-05
-0.00025785
-3.30744e-07
-7.60875e-05
-0.000241055
1.3083e-06
-6.36565e-05
-0.000209335
2.35338e-06
-3.93979e-05
-0.000147797
3.20743e-06
-1.8834e-05
-6.55545e-05
3.75816e-06
-1.7247e-05
-2.44267e-05
3.66783e-06
-2.33553e-05
-8.11724e-06
3.62568e-06
-3.28637e-05
-2.97945e-07
3.4444e-06
-4.25232e-05
2.69574e-06
3.02688e-06
-5.18123e-05
4.78348e-06
2.46555e-06
-6.02207e-05
6.35259e-06
1.82256e-06
-6.68426e-05
7.65017e-06
1.13453e-06
-7.1736e-05
8.8289e-06
4.16977e-07
-7.49066e-05
9.95627e-06
-2.74407e-07
-7.63876e-05
1.1064e-05
-8.80596e-07
-7.61537e-05
1.21836e-05
-1.48854e-06
-7.42432e-05
1.3336e-05
-2.06842e-06
-7.07427e-05
1.4534e-05
-2.6083e-06
-6.57844e-05
1.57817e-05
-3.10168e-06
-5.95389e-05
1.70708e-05
-3.54531e-06
-5.21951e-05
1.83673e-05
-3.93725e-06
-4.39292e-05
1.95984e-05
-4.27436e-06
-3.49057e-05
2.06626e-05
-4.54611e-06
-2.53367e-05
2.14321e-05
-4.72037e-06
-1.56046e-05
2.17073e-05
-4.69992e-06
-6.549e-06
2.09956e-05
-4.1264e-06
1.63186e-05
-2.1989e-06
0.000139875
9.16116e-05
-3.49208e-07
0.000269692
7.97347e-05
-5.88273e-07
0.000376213
4.81148e-05
-1.71932e-06
0.000446337
4.32336e-06
-2.79846e-06
0.000522134
-4.03754e-05
-3.65351e-06
0.000565609
-6.09162e-05
-4.34207e-06
0.000556831
-8.31441e-05
-4.38987e-06
0.000526017
-0.00016449
-2.29018e-06
0.000422926
-0.000173916
4.54383e-07
0.000294988
-0.000153901
2.69364e-06
0.000194988
-0.000124689
3.88969e-06
0.000117713
-0.000101398
3.94145e-06
6.74214e-05
-5.82732e-05
5.10882e-06
4.33902e-05
-1.96196e-05
5.46486e-06
2.85439e-05
-1.02164e-06
4.87097e-06
1.76261e-05
6.14644e-06
4.12047e-06
7.95245e-06
9.03602e-06
3.39991e-06
-2.61909e-07
1.03873e-05
2.71011e-06
-7.01677e-06
1.1114e-05
2.05453e-06
-1.24147e-05
1.16124e-05
1.44656e-06
-1.66566e-05
1.21422e-05
8.94812e-07
-1.99949e-05
1.28348e-05
3.92344e-07
-2.26247e-05
1.36648e-05
-5.98421e-08
-2.47634e-05
1.45525e-05
-3.29687e-07
-2.63655e-05
1.54335e-05
-5.96545e-07
-2.73697e-05
1.62847e-05
-8.423e-07
-2.77064e-05
1.71043e-05
-1.07055e-06
-2.72784e-05
1.787e-05
-1.29637e-06
-2.59611e-05
1.85398e-05
-1.53724e-06
-2.36273e-05
1.90591e-05
-1.80779e-06
-2.0172e-05
1.93655e-05
-2.11734e-06
-1.55439e-05
1.93883e-05
-2.46332e-06
-9.8432e-06
1.9021e-05
-2.79337e-06
-3.72587e-06
1.79308e-05
-2.74731e-06
1.40482e-05
-1.17569e-06
0.000103525
9.20741e-07
1.21588e-06
0.000223797
-2.65385e-05
8.59688e-07
0.000335226
-4.75972e-05
2.13028e-06
0.000425916
-6.66831e-05
3.31428e-06
0.000484388
-8.27061e-05
4.80629e-06
0.000518277
-8.11765e-05
5.46497e-06
0.000576686
-8.9497e-05
4.97125e-06
0.00058004
-0.000145659
7.59584e-06
0.000496851
-8.37527e-05
7.95822e-06
0.00036301
-4.75682e-05
6.82676e-06
0.000262078
-4.07409e-05
6.99195e-06
0.000205547
-2.78337e-05
6.61211e-06
0.00014947
-1.53296e-05
4.71793e-06
9.92013e-05
-2.80839e-06
4.4154e-06
6.85124e-05
8.23656e-06
5.29897e-06
4.97571e-05
1.38484e-05
5.47714e-06
3.56433e-05
1.64174e-05
4.86212e-06
2.36032e-05
1.77619e-05
3.91158e-06
1.37673e-05
1.78748e-05
2.74341e-06
6.40795e-06
1.7464e-05
1.37566e-06
1.53603e-06
1.71073e-05
-1.2879e-07
-1.16309e-06
1.68945e-05
-1.35141e-06
-1.70105e-06
1.66737e-05
-2.42504e-06
-3.11447e-07
1.64375e-05
-3.18769e-06
2.33348e-06
1.65629e-05
-3.63721e-06
5.49852e-06
1.71441e-05
-3.83028e-06
8.65035e-06
1.80305e-05
-3.81769e-06
1.13249e-05
1.91728e-05
-3.64157e-06
1.31397e-05
2.05193e-05
-3.38185e-06
1.38643e-05
2.19466e-05
-3.12274e-06
1.33997e-05
2.33047e-05
-2.90231e-06
1.17444e-05
2.44517e-05
-2.74617e-06
9.02847e-06
2.51571e-05
-2.67893e-06
5.32847e-06
2.49462e-05
-2.56194e-06
2.11195e-05
-1.29592e-06
5.40174e-05
-3.34146e-05
5.12612e-06
0.000114756
-5.40098e-05
4.78613e-06
0.000166064
-5.882e-05
3.89052e-06
0.000197967
-5.75743e-05
3.75077e-06
0.000190398
-4.9669e-05
4.2497e-06
0.000167987
-3.19435e-05
4.38601e-06
0.000159086
-3.19128e-05
5.1675e-06
7.04865e-05
-5.31513e-05
7.85192e-06
-3.19599e-06
-1.38336e-05
4.2631e-06
-5.60959e-05
1.1348e-05
2.21232e-06
-0.000101813
1.00376e-06
3.14553e-06
-0.000127548
-3.83409e-06
3.77762e-06
-0.000138851
-7.4582e-06
4.18494e-06
-0.000135513
-1.05611e-05
4.39312e-06
-0.000119902
-1.20763e-05
4.36156e-06
-9.89031e-05
-1.12385e-05
3.97279e-06
-7.83943e-05
-7.42164e-06
3.2786e-06
-6.37316e-05
5.69844e-07
2.44589e-06
-5.36346e-05
5.83365e-06
1.83122e-06
-4.7158e-05
9.53777e-06
1.32987e-06
-4.33967e-05
1.24348e-05
7.84646e-07
-4.14343e-05
1.46769e-05
1.27823e-07
-4.06059e-05
1.63627e-05
-6.45196e-07
-4.03465e-05
1.75714e-05
-1.59661e-06
-3.9743e-05
1.84371e-05
-2.83218e-06
-3.78501e-05
1.90611e-05
-4.2941e-06
-3.42679e-05
1.96037e-05
-5.74522e-06
-2.91834e-05
2.03315e-05
-6.93647e-06
-2.32425e-05
2.14533e-05
-7.66584e-06
-1.72255e-05
2.28331e-05
-7.78023e-06
-1.17912e-05
2.42355e-05
-7.31427e-06
-7.36079e-06
2.5408e-05
-6.38182e-06
-4.10917e-06
2.59248e-05
-5.00029e-06
-1.88818e-06
2.49613e-05
-3.14248e-06
1.93547e-05
-8.31422e-07
1.48325e-05
-2.95023e-05
-1.10264e-06
1.14699e-05
-3.06699e-05
-2.04175e-06
-1.25334e-07
-2.97555e-05
-1.65709e-06
-1.54341e-05
-2.98329e-05
-1.13218e-06
-3.33928e-05
-2.84765e-05
-8.25332e-07
-5.26698e-05
-1.568e-05
-5.33638e-07
-7.42733e-05
-8.57229e-06
-4.65719e-09
-0.000106706
-1.31367e-05
8.33356e-07
-9.70691e-05
-2.32887e-05
2.33293e-06
-6.44382e-05
-1.88564e-05
3.32649e-06
-4.81704e-05
-1.85134e-05
5.12365e-06
-3.98045e-05
-1.78051e-05
6.93492e-06
-3.69321e-05
-1.83815e-05
9.0108e-06
-3.81382e-05
-1.94667e-05
1.10029e-05
-4.21308e-05
-1.95815e-05
1.23274e-05
-4.72729e-05
-1.80717e-05
1.28095e-05
-5.16436e-05
-1.44379e-05
1.22938e-05
-5.28163e-05
-8.11962e-06
1.04609e-05
-5.32598e-05
-1.95855e-06
8.40434e-06
-5.32107e-05
2.70853e-06
6.8233e-06
-5.26816e-05
6.5572e-06
5.43506e-06
-5.22323e-05
1.02102e-05
4.25746e-06
-5.24047e-05
1.37295e-05
3.31888e-06
-5.36645e-05
1.69242e-05
2.71263e-06
-5.61248e-05
1.93532e-05
2.44509e-06
-5.93652e-05
2.09657e-05
2.21015e-06
-6.24949e-05
2.19717e-05
1.61335e-06
-6.42053e-05
2.24677e-05
3.44858e-07
-6.3214e-05
2.2493e-05
-1.40253e-06
-5.87347e-05
2.20647e-05
-3.21607e-06
-5.08441e-05
2.12581e-05
-4.5217e-06
-4.01224e-05
2.0083e-05
-5.08834e-06
-2.72549e-05
1.80219e-05
-4.73754e-06
-1.27386e-05
1.37777e-05
-3.22738e-06
7.15093e-06
-5.874e-07
-1.10316e-05
-2.07094e-05
1.32493e-06
-2.16967e-05
-2.76182e-05
2.34783e-06
-3.12446e-05
-3.04848e-05
2.93024e-06
-3.84562e-05
-3.40686e-05
2.99815e-06
-3.65618e-05
-3.82393e-05
3.15941e-06
-1.90139e-05
-3.70274e-05
3.43677e-06
3.69153e-06
-3.39672e-05
3.46777e-06
2.16239e-05
-3.2777e-05
3.41676e-06
2.91971e-05
-3.10678e-05
3.3629e-06
3.90812e-05
-2.89782e-05
3.41475e-06
4.73185e-05
-2.68837e-05
3.45813e-06
5.40518e-05
-2.48339e-05
3.51629e-06
5.78635e-05
-2.27323e-05
3.55106e-06
5.8054e-05
-2.04714e-05
3.54462e-06
5.52883e-05
-1.79983e-05
3.55251e-06
5.08757e-05
-1.53904e-05
3.66539e-06
4.67806e-05
-1.28438e-05
3.96187e-06
4.59307e-05
-1.07053e-05
4.5082e-06
4.8464e-05
-8.83201e-06
5.11909e-06
5.30216e-05
-6.96916e-06
5.66134e-06
5.87231e-05
-4.91591e-06
6.12248e-06
6.51682e-05
-2.54847e-06
6.51399e-06
7.22558e-05
-1.03891e-07
6.8483e-06
7.80106e-05
4.01483e-06
7.16025e-06
8.15741e-05
8.28286e-06
7.4691e-06
8.2159e-05
1.25942e-05
7.71565e-06
7.95634e-05
1.66949e-05
7.77688e-06
7.39514e-05
2.03298e-05
7.64732e-06
6.58868e-05
2.3178e-05
7.30994e-06
5.64011e-05
2.4826e-05
6.74934e-06
4.6832e-05
2.50062e-05
5.99146e-06
3.80268e-05
2.39908e-05
5.20714e-06
2.85304e-05
2.32947e-05
4.62193e-06
1.57345e-05
2.28183e-05
4.43745e-06
1.95319e-05
3.99789e-06
8.2005e-06
-3.09969e-05
-1.40808e-06
2.1149e-05
-4.12896e-05
-2.68537e-06
3.3194e-05
-4.24208e-05
-2.68873e-06
4.08095e-05
-4.13617e-05
-2.36828e-06
4.17218e-05
-3.90888e-05
-2.02586e-06
4.048e-05
-3.63798e-05
-1.72301e-06
3.96327e-05
-3.41153e-05
-1.41968e-06
3.75316e-05
-3.18851e-05
-1.16809e-06
3.5026e-05
-2.97531e-05
-9.4143e-07
3.28023e-05
-2.76829e-05
-7.2688e-07
3.08298e-05
-2.55657e-05
-5.17892e-07
2.89045e-05
-2.33585e-05
-3.07813e-07
2.69292e-05
-2.11138e-05
-9.4772e-08
2.50507e-05
-1.90229e-05
1.69336e-07
2.37668e-05
-1.73074e-05
4.25107e-07
2.36117e-05
-1.60206e-05
6.41216e-07
2.48408e-05
-1.50521e-05
8.18865e-07
2.72488e-05
-1.42701e-05
9.67451e-07
3.0676e-05
-1.35898e-05
1.10419e-06
3.51184e-05
-1.29042e-05
1.24085e-06
4.05854e-05
-1.19926e-05
1.37707e-06
4.69608e-05
-1.06334e-05
1.52363e-06
5.38471e-05
-8.83444e-06
1.70458e-06
6.19299e-05
-6.15197e-06
1.95738e-06
6.96239e-05
-1.80614e-06
2.33492e-06
7.64032e-05
2.97992e-06
2.87341e-06
8.15386e-05
8.16146e-06
3.52796e-06
8.39432e-05
1.39344e-05
4.18971e-06
8.24835e-05
2.01074e-05
4.74773e-06
7.59627e-05
2.63867e-05
5.14916e-06
6.4129e-05
3.15619e-05
5.42611e-06
4.89446e-05
3.36072e-05
5.66428e-06
3.18064e-05
3.43985e-05
5.85205e-06
1.33408e-05
3.5059e-05
5.58122e-06
2.8936e-05
3.55219e-06
3.29729e-06
-3.1811e-05
-3.8146e-07
3.3504e-06
-3.87687e-05
3.09783e-07
2.76733e-06
-3.96543e-05
5.05123e-07
2.83207e-06
-3.94795e-05
4.29404e-07
4.38514e-06
-3.88937e-05
2.99824e-07
7.54214e-06
-3.79516e-05
1.55722e-07
1.13098e-05
-3.64859e-05
-1.05227e-08
1.50633e-05
-3.45109e-05
-1.39515e-07
1.83358e-05
-3.21762e-05
-2.73892e-07
2.08903e-05
-2.96453e-05
-3.87066e-07
2.27377e-05
-2.70249e-05
-4.60542e-07
2.3996e-05
-2.43802e-05
-4.74906e-07
2.47996e-05
-2.17955e-05
-4.13158e-07
2.52384e-05
-1.944e-05
-2.79378e-07
2.5377e-05
-1.75161e-05
-1.13451e-07
2.5262e-05
-1.60759e-05
6.45133e-08
2.49271e-05
-1.50247e-05
2.62083e-07
2.44424e-05
-1.42647e-05
4.69158e-07
2.38655e-05
-1.37116e-05
7.00818e-07
2.32132e-05
-1.32124e-05
9.4606e-07
2.24889e-05
-1.251e-05
1.18679e-06
2.1708e-05
-1.13464e-05
1.39926e-06
2.0781e-05
-9.66009e-06
1.56794e-06
1.98943e-05
-7.29032e-06
1.63921e-06
1.98804e-05
-3.76443e-06
1.68935e-06
2.01634e-05
6.1999e-07
1.98605e-06
2.07896e-05
5.05173e-06
2.54044e-06
2.13702e-05
1.02694e-05
3.22761e-06
2.15449e-05
1.61824e-05
3.88941e-06
2.05037e-05
2.30313e-05
4.40223e-06
1.73849e-05
2.97487e-05
4.68654e-06
1.26925e-05
3.30191e-05
4.7888e-06
6.29036e-06
3.53319e-05
4.75712e-06
6.21335e-07
3.56681e-05
4.2133e-06
2.69113e-05
2.1152e-06
2.92878e-06
-3.36467e-05
-1.20527e-06
6.19049e-06
-4.0727e-05
-1.73407e-06
8.82077e-06
-4.13531e-05
-1.31722e-06
1.09681e-05
-4.09334e-05
-9.6279e-07
1.27222e-05
-4.00321e-05
-7.29081e-07
1.42045e-05
-3.87762e-05
-5.90635e-07
1.5727e-05
-3.72372e-05
-5.20901e-07
1.75555e-05
-3.54221e-05
-5.05007e-07
1.97686e-05
-3.33192e-05
-5.36136e-07
2.22822e-05
-3.09493e-05
-6.08224e-07
2.49707e-05
-2.83898e-05
-7.12219e-07
2.77602e-05
-2.57603e-05
-8.35308e-07
3.06285e-05
-2.31972e-05
-9.61406e-07
3.35124e-05
-2.08326e-05
-1.071e-06
3.62362e-05
-1.87649e-05
-1.14305e-06
3.85949e-05
-1.70254e-05
-1.1612e-06
4.04504e-05
-1.5586e-05
-1.1211e-06
4.17035e-05
-1.43809e-05
-1.02335e-06
4.22454e-05
-1.33274e-05
-8.57229e-07
4.20287e-05
-1.23561e-05
-5.89012e-07
4.11367e-05
-1.13444e-05
-1.69805e-07
3.97226e-05
-1.011e-05
4.30121e-07
3.80574e-05
-8.59512e-06
1.02261e-06
3.6699e-05
-6.85615e-06
1.43579e-06
3.63449e-05
-4.6091e-06
1.63008e-06
3.73619e-05
-1.85682e-06
1.73932e-06
3.8597e-05
2.00961e-06
1.97594e-06
3.92158e-05
7.30416e-06
2.47297e-06
3.92274e-05
1.3175e-05
3.1313e-06
3.86863e-05
2.00687e-05
3.68616e-06
3.65358e-05
2.81627e-05
3.97369e-06
3.07619e-05
3.49295e-05
4.18335e-06
2.16594e-05
4.06323e-05
4.30913e-06
1.05113e-05
4.32032e-05
4.21441e-06
3.54235e-05
2.49429e-06
2.23481e-06
-3.49199e-05
-1.40705e-06
5.53576e-06
-4.27577e-05
-1.76596e-06
8.60909e-06
-4.34082e-05
-1.55177e-06
1.1416e-05
-4.3001e-05
-1.3262e-06
1.39771e-05
-4.20884e-05
-1.15075e-06
1.62973e-05
-4.0761e-05
-1.03362e-06
1.8345e-05
-3.90395e-05
-9.76267e-07
2.00844e-05
-3.69201e-05
-9.72796e-07
2.15061e-05
-3.44249e-05
-1.01066e-06
2.26486e-05
-3.16422e-05
-1.07293e-06
2.35892e-05
-2.87159e-05
-1.14248e-06
2.43968e-05
-2.57856e-05
-1.20499e-06
2.50847e-05
-2.29579e-05
-1.24928e-06
2.56107e-05
-2.03285e-05
-1.26689e-06
2.59349e-05
-1.80078e-05
-1.25244e-06
2.60976e-05
-1.611e-05
-1.20245e-06
2.62189e-05
-1.46901e-05
-1.10894e-06
2.64017e-05
-1.36783e-05
-9.53373e-07
2.67179e-05
-1.29787e-05
-7.1144e-07
2.72304e-05
-1.25223e-05
-3.77363e-07
2.80595e-05
-1.22064e-05
7.73781e-09
2.9698e-05
-1.20642e-05
2.89682e-07
3.2609e-05
-1.19922e-05
4.65701e-07
3.59556e-05
-1.06561e-05
4.43206e-07
3.67215e-05
-5.56521e-06
1.66915e-07
3.31136e-05
1.86845e-06
-1.96017e-07
2.69487e-05
8.48148e-06
-4.45515e-07
2.04196e-05
1.39236e-05
-2.47594e-07
1.41131e-05
1.8748e-05
5.65765e-07
7.88669e-06
2.42642e-05
1.8164e-06
1.65775e-06
3.13381e-05
2.74886e-06
-4.8217e-06
3.80159e-05
2.99134e-06
-8.96562e-06
4.13689e-05
2.99524e-06
-7.97464e-06
3.90948e-05
2.75224e-06
2.61183e-05
9.93406e-07
5.04633e-07
-3.44163e-05
-7.4885e-07
2.59626e-06
-4.33578e-05
-1.02845e-06
4.9014e-06
-4.43955e-05
-8.14078e-07
7.08077e-06
-4.41004e-05
-5.70693e-07
9.08722e-06
-4.32219e-05
-3.71003e-07
1.09242e-05
-4.18853e-05
-2.26641e-07
1.25847e-05
-4.00942e-05
-1.45503e-07
1.40088e-05
-3.77868e-05
-1.33306e-07
1.50816e-05
-3.49325e-05
-1.86772e-07
1.57133e-05
-3.16589e-05
-2.89448e-07
1.59366e-05
-2.82526e-05
-4.16662e-07
1.59194e-05
-2.5007e-05
-5.44467e-07
1.58761e-05
-2.20887e-05
-6.54292e-07
1.59331e-05
-1.95185e-05
-7.301e-07
1.60456e-05
-1.72533e-05
-7.53833e-07
1.60346e-05
-1.52928e-05
-7.08634e-07
1.56905e-05
-1.36748e-05
-5.85553e-07
1.48329e-05
-1.23702e-05
-3.72241e-07
1.32483e-05
-1.13139e-05
-9.14814e-09
1.0706e-05
-1.04434e-05
5.38391e-07
6.79103e-06
-9.67441e-06
1.50428e-06
1.29633e-06
-9.01292e-06
2.63886e-06
-5.39059e-06
-8.40856e-06
3.35282e-06
-1.16242e-05
-7.11962e-06
2.94319e-06
-1.57876e-05
-2.66251e-06
1.54352e-06
-1.94093e-05
5.19963e-06
5.42105e-07
-2.51776e-05
1.39599e-05
3.35478e-07
-3.26895e-05
2.04457e-05
7.68634e-07
-4.06896e-05
2.47971e-05
1.51741e-06
-4.75548e-05
2.83281e-05
2.24827e-06
-5.04116e-05
3.10286e-05
2.65121e-06
-4.7355e-05
3.19337e-05
2.68396e-06
-3.7448e-05
2.89023e-05
2.39965e-06
-1.8308e-05
1.80561e-05
1.75793e-06
7.11762e-06
6.17209e-07
3.03216e-06
-3.66288e-05
-9.87604e-07
6.51561e-06
-4.56622e-05
-1.44648e-06
9.74886e-06
-4.64831e-05
-1.42909e-06
1.26787e-05
-4.60313e-05
-1.28628e-06
1.52553e-05
-4.49619e-05
-1.12064e-06
1.74151e-05
-4.33556e-05
-9.61459e-07
1.90848e-05
-4.11848e-05
-8.30066e-07
2.01576e-05
-3.83323e-05
-7.4661e-07
2.04941e-05
-3.47239e-05
-7.22209e-07
2.00001e-05
-3.05445e-05
-7.49982e-07
1.86914e-05
-2.62251e-05
-8.04944e-07
1.6673e-05
-2.21835e-05
-8.59104e-07
1.41003e-05
-1.8655e-05
-8.95565e-07
1.11504e-05
-1.5684e-05
-9.09115e-07
7.96272e-06
-1.31867e-05
-8.98492e-07
4.54829e-06
-1.10351e-05
-8.58869e-07
7.67465e-07
-9.1251e-06
-7.78935e-07
-3.56229e-06
-7.40217e-06
-6.40962e-07
-8.59536e-06
-5.85691e-06
-4.18587e-07
-1.44737e-05
-4.49607e-06
-5.97106e-08
-2.1384e-05
-3.28588e-06
5.18374e-07
-2.9873e-05
-2.13097e-06
1.53553e-06
-4.06373e-05
-1.00429e-06
3.11392e-06
-5.27439e-05
-9.93054e-08
4.69521e-06
-6.14388e-05
7.54083e-07
5.19939e-06
-6.38545e-05
3.72442e-06
4.52289e-06
-6.14516e-05
8.62236e-06
3.8905e-06
-5.69146e-05
1.29594e-05
3.78124e-06
-5.11928e-05
1.59108e-05
3.85837e-06
-4.48389e-05
1.86191e-05
3.93694e-06
-3.83239e-05
2.09477e-05
4.0424e-06
-3.11967e-05
2.10731e-05
4.16369e-06
-1.94849e-05
1.31354e-05
4.43941e-06
-4.30228e-06
-9.16371e-07
4.83188e-06
5.45748e-07
3.08353e-06
-7.78552e-07
-3.57391e-05
-1.59658e-07
2.80099e-07
-4.63302e-05
-3.55229e-07
2.03046e-06
-4.76964e-05
-4.74376e-07
3.97139e-06
-4.74014e-05
-5.03308e-07
5.90745e-06
-4.63446e-05
-4.90066e-07
7.72905e-06
-4.46676e-05
-4.55012e-07
9.34231e-06
-4.23386e-05
-4.1748e-07
1.06472e-05
-3.92071e-05
-4.0243e-07
1.15502e-05
-3.51778e-05
-4.32916e-07
1.2039e-05
-3.05092e-05
-5.12001e-07
1.22213e-05
-2.57777e-05
-6.1579e-07
1.22408e-05
-2.14724e-05
-7.13189e-07
1.21802e-05
-1.77894e-05
-7.84956e-07
1.20528e-05
-1.47112e-05
-8.2489e-07
1.18558e-05
-1.21355e-05
-8.34739e-07
1.16027e-05
-9.94632e-06
-8.18679e-07
1.13108e-05
-8.04023e-06
-7.78651e-07
1.09678e-05
-6.3346e-06
-7.12634e-07
1.05065e-05
-4.77027e-06
-6.14564e-07
9.81137e-06
-3.31495e-06
-4.7491e-07
8.78481e-06
-1.96511e-06
-2.81389e-07
7.44146e-06
-7.46318e-07
-2.61225e-08
5.68776e-06
4.00099e-07
3.65374e-07
2.81492e-06
1.87905e-06
9.0609e-07
-1.5842e-06
3.5194e-06
1.63222e-06
-5.67244e-06
5.28805e-06
2.50627e-06
-7.1404e-06
6.79827e-06
3.30681e-06
-5.07154e-06
7.08928e-06
3.9094e-06
1.82835e-06
4.87445e-06
4.39147e-06
1.33045e-05
2.83361e-06
4.69092e-06
2.64654e-05
3.52561e-06
4.7807e-06
3.57395e-05
7.44761e-06
5.06854e-06
3.49119e-05
9.25042e-06
5.56163e-06
1.89216e-05
9.01535e-06
6.90664e-06
1.47155e-05
5.0945e-06
2.20071e-06
-3.75415e-05
-4.69392e-07
5.02252e-06
-4.83893e-05
-8.15653e-07
7.87117e-06
-4.96776e-05
-8.95202e-07
1.06711e-05
-4.93171e-05
-9.01315e-07
1.33772e-05
-4.81855e-05
-8.78347e-07
1.59201e-05
-4.63879e-05
-8.35449e-07
1.82087e-05
-4.38658e-05
-7.79662e-07
2.0117e-05
-4.04192e-05
-7.26345e-07
2.14925e-05
-3.58958e-05
-7.01924e-07
2.2245e-05
-3.05843e-05
-7.30052e-07
2.24392e-05
-2.52163e-05
-8.07019e-07
2.22627e-05
-2.04357e-05
-9.0364e-07
2.1918e-05
-1.64875e-05
-9.90313e-07
2.15544e-05
-1.33189e-05
-1.05281e-06
2.12651e-05
-1.07732e-05
-1.09024e-06
2.11126e-05
-8.69967e-06
-1.10679e-06
2.11584e-05
-6.98904e-06
-1.10678e-06
2.14713e-05
-5.56249e-06
-1.09301e-06
2.20987e-05
-4.33864e-06
-1.06626e-06
2.30468e-05
-3.24517e-06
-1.02448e-06
2.42814e-05
-2.24385e-06
-9.62051e-07
2.57142e-05
-1.3157e-06
-8.68934e-07
2.72303e-05
-3.90886e-07
-7.29121e-07
2.8973e-05
6.53643e-07
-5.18471e-07
3.09847e-05
1.72679e-06
-2.13835e-07
3.3392e-05
2.70972e-06
1.87994e-07
3.65721e-05
2.99179e-06
6.7426e-07
4.3402e-05
-8.25416e-07
1.3132e-06
5.17873e-05
-4.9444e-06
1.8886e-06
5.60137e-05
-3.13476e-06
2.20704e-06
5.38894e-05
3.48839e-06
2.33171e-06
4.80031e-05
1.09352e-05
2.32724e-06
3.47734e-05
1.98673e-05
2.48848e-06
1.31781e-05
2.67413e-05
3.16045e-06
2.49138e-05
2.65053e-06
6.39162e-07
-3.7982e-05
-1.89911e-07
2.14266e-06
-4.93906e-05
-4.44387e-07
3.97901e-06
-5.08419e-05
-6.00421e-07
5.92996e-06
-5.05038e-05
-6.90959e-07
7.90087e-06
-4.93363e-05
-7.47771e-07
9.81723e-06
-4.74532e-05
-7.798e-07
1.15898e-05
-4.47789e-05
-7.91961e-07
1.31277e-05
-4.11047e-05
-7.94263e-07
1.43758e-05
-3.62916e-05
-8.07697e-07
1.53226e-05
-3.06442e-05
-8.5557e-07
1.59999e-05
-2.49354e-05
-9.37392e-07
1.649e-05
-1.98872e-05
-1.02673e-06
1.6892e-05
-1.57863e-05
-1.09827e-06
1.72829e-05
-1.25666e-05
-1.14319e-06
1.77062e-05
-1.00355e-05
-1.164e-06
1.81849e-05
-8.01675e-06
-1.16629e-06
1.87439e-05
-6.39779e-06
-1.15561e-06
1.94177e-05
-5.10471e-06
-1.13699e-06
2.02119e-05
-4.02572e-06
-1.11248e-06
2.1111e-05
-3.07081e-06
-1.07842e-06
2.21051e-05
-2.21404e-06
-1.02836e-06
2.31899e-05
-1.44841e-06
-9.55654e-07
2.43683e-05
-7.33581e-07
-8.36589e-07
2.55991e-05
4.28947e-08
-6.11583e-07
2.66506e-05
9.24367e-07
-2.13777e-07
2.74991e-05
1.62633e-06
3.31989e-07
2.81986e-05
1.49108e-06
1.07232e-06
2.87099e-05
-2.64537e-06
1.67617e-06
2.93396e-05
-7.14941e-06
1.64879e-06
2.79465e-05
-3.23667e-06
1.26637e-06
1.92107e-05
1.11479e-05
7.69558e-07
7.11735e-06
2.21682e-05
6.26738e-07
-3.6489e-07
2.63608e-05
8.14478e-07
-2.06237e-06
2.71555e-05
1.05863e-06
2.16353e-05
7.39455e-07
1.93706e-06
-3.94658e-05
-4.26193e-07
4.09357e-06
-5.07557e-05
-7.36877e-07
6.201e-06
-5.20744e-05
-8.13241e-07
8.25799e-06
-5.16568e-05
-8.4438e-07
1.02354e-05
-5.03949e-05
-8.62354e-07
1.2056e-05
-4.83471e-05
-8.71297e-07
1.35974e-05
-4.53965e-05
-8.69896e-07
1.47491e-05
-4.13531e-05
-8.57209e-07
1.55207e-05
-3.61895e-05
-8.43094e-07
1.6017e-05
-3.02692e-05
-8.56265e-07
1.63056e-05
-2.42995e-05
-9.185e-07
1.641e-05
-1.8976e-05
-1.01308e-06
1.63737e-05
-1.46447e-05
-1.10462e-06
1.62703e-05
-1.12933e-05
-1.17113e-06
1.61769e-05
-8.73721e-06
-1.20861e-06
1.61533e-05
-6.77729e-06
-1.22159e-06
1.62292e-05
-5.26407e-06
-1.21652e-06
1.639e-05
-4.07271e-06
-1.19978e-06
1.66008e-05
-3.06936e-06
-1.17376e-06
1.68364e-05
-2.17709e-06
-1.13522e-06
1.70736e-05
-1.37661e-06
-1.07966e-06
1.72726e-05
-6.51138e-07
-9.9987e-07
1.73684e-05
5.45563e-08
-8.8532e-07
1.73459e-05
7.75859e-07
-7.06604e-07
1.71142e-05
1.57863e-06
-4.06171e-07
1.64315e-05
2.30263e-06
4.0792e-08
1.48182e-05
2.56209e-06
5.93426e-07
9.19302e-06
1.77403e-06
1.27608e-06
1.80887e-06
-1.77065e-06
2.17813e-06
-9.69578e-07
-2.84721e-06
2.57379e-06
4.04071e-07
7.41392e-06
2.29759e-06
-6.332e-07
2.09357e-05
1.8665e-06
-1.96709e-06
2.56222e-05
1.6204e-06
-1.84239e-06
2.53272e-05
1.30847e-06
1.88799e-05
6.75801e-07
1.63721e-06
-4.06307e-05
-3.86054e-07
3.59378e-06
-5.20161e-05
-5.82867e-07
5.58392e-06
-5.32757e-05
-6.80094e-07
7.52396e-06
-5.27533e-05
-7.40657e-07
9.33884e-06
-5.13161e-05
-7.91869e-07
1.09097e-05
-4.89677e-05
-8.42307e-07
1.20418e-05
-4.5517e-05
-8.9375e-07
1.25605e-05
-4.08088e-05
-9.41368e-07
1.25353e-05
-3.50782e-05
-9.76015e-07
1.22826e-05
-2.89319e-05
-1.00022e-06
1.20841e-05
-2.30102e-05
-1.03537e-06
1.20157e-05
-1.77819e-05
-1.09308e-06
1.20132e-05
-1.34648e-05
-1.16018e-06
1.19932e-05
-1.00487e-05
-1.21714e-06
1.19139e-05
-7.40305e-06
-1.25389e-06
1.17726e-05
-5.36891e-06
-1.27004e-06
1.1572e-05
-3.79829e-06
-1.27003e-06
1.12963e-05
-2.54433e-06
-1.25843e-06
1.09415e-05
-1.48483e-06
-1.23581e-06
1.05056e-05
-5.47012e-07
-1.20009e-06
9.95073e-06
3.21324e-07
-1.14839e-06
9.27853e-06
1.09279e-06
-1.07557e-06
8.42782e-06
1.87068e-06
-9.65489e-07
7.26972e-06
2.72373e-06
-7.83174e-07
5.68339e-06
3.67313e-06
-4.9403e-07
3.47655e-06
4.62836e-06
-9.62095e-08
2.82695e-07
5.38682e-06
4.02465e-07
-4.54344e-06
5.6792e-06
9.85024e-07
-1.29184e-05
5.16348e-06
1.64624e-06
-2.23129e-05
4.73462e-06
2.32543e-06
-2.48641e-05
7.70003e-06
2.90807e-06
-2.08639e-05
1.40877e-05
3.20388e-06
-1.4529e-05
1.61088e-05
3.19356e-06
-6.41833e-06
1.45524e-05
2.56914e-06
1.11591e-05
1.21406e-06
1.74081e-06
-4.20134e-05
-3.03871e-07
3.4348e-06
-5.32472e-05
-4.13681e-07
5.07719e-06
-5.43881e-05
-4.84077e-07
6.64407e-06
-5.37379e-05
-5.37852e-07
8.05942e-06
-5.20925e-05
-5.90574e-07
9.17713e-06
-4.9373e-05
-6.51401e-07
9.76196e-06
-4.52933e-05
-7.28742e-07
9.63679e-06
-3.97636e-05
-8.256e-07
8.93883e-06
-3.33564e-05
-9.29379e-07
8.07583e-06
-2.69709e-05
-1.01821e-06
7.4288e-06
-2.12201e-05
-1.08534e-06
7.1633e-06
-1.63409e-05
-1.1393e-06
7.24508e-06
-1.23414e-05
-1.1856e-06
7.5478e-06
-9.12132e-06
-1.22222e-06
7.943e-06
-6.55199e-06
-1.24595e-06
8.33215e-06
-4.5068e-06
-1.25574e-06
8.64261e-06
-2.8634e-06
-1.2526e-06
8.83522e-06
-1.50749e-06
-1.23794e-06
8.90224e-06
-3.47983e-07
-1.21252e-06
8.84225e-06
6.80951e-07
-1.17592e-06
8.63608e-06
1.64694e-06
-1.12599e-06
8.22399e-06
2.55855e-06