/*--------------------------------*- C++ -*----------------------------------*\
| =========                 |                                                 |
| \\      /  F ield         | OpenFOAM: The Open Source CFD Toolbox           |
|  \\    /   O peration     | Version:  v2006                                 |
|   \\  /    A nd           | Website:  www.openfoam.com                      |
|    \\/     M anipulation  |                                                 |
\*---------------------------------------------------------------------------*/
FoamFile
{
    version     2.0;
    format      ascii;
    class       volVectorField;
    location    "89";
    object      U;
}
// * * * * * * * * * * * * * * * * * * * * * * * * * * * * * * * * * * * * * //

dimensions      [0 1 -1 0 0 0 0];


internalField   nonuniform List<vector> 
78750
(
(-0.0483901 0.99406 0.0305196)
(0.245868 0.0613886 0.223438)
(-0.142417 -0.117662 0.138811)
(0.14771 -0.07918 0.0595699)
(-0.022048 -0.305341 0.0627591)
(0.165543 -0.429586 0.0373738)
(0.178784 -0.471423 0.0356525)
(0.248911 -0.48592 0.0359978)
(0.322045 -0.486186 0.036151)
(0.388878 -0.475598 0.0364642)
(0.450598 -0.450109 0.0363327)
(0.503079 -0.42076 0.0356177)
(0.546696 -0.391859 0.0346328)
(0.582795 -0.364612 0.0336035)
(0.612819 -0.338962 0.0328383)
(0.637767 -0.314226 0.0324571)
(0.658276 -0.289975 0.0324984)
(0.674192 -0.26637 0.0332071)
(0.68408 -0.242261 0.0343318)
(0.688226 -0.218556 0.0362285)
(0.685153 -0.194939 0.0386528)
(0.67614 -0.170024 0.0416762)
(0.663589 -0.14552 0.0452739)
(0.643828 -0.119523 0.0498864)
(0.616533 -0.0900718 0.0554278)
(0.587169 -0.0542475 0.06201)
(0.556565 -0.0128022 0.0706953)
(0.524454 0.037451 0.0787098)
(0.486892 0.0928751 0.0895818)
(0.437321 0.150596 0.0933515)
(0.366002 0.198128 0.094452)
(0.284414 0.203336 0.0763908)
(0.196874 0.180224 0.0604163)
(0.113314 0.123354 0.050184)
(0.0428605 0.126324 0.0752229)
(-0.0458347 0.990432 0.0147804)
(0.114667 0.223976 0.0314963)
(-0.14904 -0.342584 -0.170927)
(-0.0198924 -0.56035 -0.160747)
(-0.0559793 -0.631256 -0.145572)
(-0.000102726 -0.814707 -0.131298)
(0.0338074 -0.868707 -0.114162)
(0.0759501 -0.875583 -0.107197)
(0.115549 -0.85248 -0.106423)
(0.153979 -0.777314 -0.115219)
(0.189311 -0.633201 -0.140143)
(0.201642 -0.503074 -0.162709)
(0.207734 -0.403217 -0.177906)
(0.215956 -0.325026 -0.1859)
(0.226433 -0.25826 -0.188524)
(0.237464 -0.196069 -0.187291)
(0.247496 -0.133518 -0.182313)
(0.253582 -0.0686717 -0.173975)
(0.255276 0.00191695 -0.16185)
(0.251758 0.0755472 -0.146259)
(0.239646 0.147021 -0.129288)
(0.223352 0.208938 -0.11194)
(0.204614 0.249165 -0.0963015)
(0.184013 0.263262 -0.08669)
(0.166245 0.253622 -0.0842126)
(0.152898 0.230438 -0.0855086)
(0.141842 0.212445 -0.0833744)
(0.132287 0.222041 -0.0673203)
(0.122751 0.276792 -0.0309835)
(0.113379 0.3691 0.0168336)
(0.0991088 0.464804 0.0603446)
(0.083103 0.534774 0.0931853)
(0.0593004 0.573761 0.10461)
(0.0323577 0.600094 0.0623387)
(0.00959967 0.627621 0.0114642)
(-0.0337269 1.01005 -0.0274982)
(0.125594 0.646333 -0.0287709)
(-0.0250573 0.322639 -0.0869903)
(0.0275486 -0.0982873 -0.143112)
(-0.064459 -0.631621 -0.117571)
(-0.0303193 -0.779543 -0.0763219)
(-0.0518156 -0.888958 -0.0474244)
(-0.0453159 -0.9171 -0.0306871)
(-0.045768 -0.892026 -0.0240343)
(-0.0509968 -0.749161 -0.0422981)
(-0.0603411 -0.521303 -0.113403)
(-0.0873894 -0.47026 -0.160056)
(-0.104717 -0.444387 -0.182201)
(-0.115764 -0.41074 -0.185649)
(-0.120331 -0.377198 -0.185613)
(-0.120534 -0.34263 -0.188399)
(-0.120747 -0.30094 -0.190309)
(-0.121182 -0.235424 -0.187486)
(-0.11514 -0.124664 -0.172726)
(-0.105492 -0.0235514 -0.155247)
(-0.0994261 0.0271236 -0.147279)
(-0.0895035 0.0710683 -0.140876)
(-0.0777697 0.109381 -0.13518)
(-0.0665156 0.143392 -0.129919)
(-0.0579404 0.175846 -0.124354)
(-0.0530045 0.210876 -0.116724)
(-0.0523261 0.253352 -0.104635)
(-0.0546519 0.303993 -0.0882908)
(-0.0568056 0.359419 -0.0704351)
(-0.0564578 0.415387 -0.0547492)
(-0.0528448 0.4661 -0.0455466)
(-0.0454379 0.507043 -0.0463763)
(-0.0353239 0.537378 -0.0613352)
(-0.0253296 0.55608 -0.0888285)
(-0.0144853 0.540409 -0.11183)
(-0.0260609 0.863486 -0.0447911)
(0.0910799 0.609354 -0.0478982)
(-0.00820746 0.323403 -0.0680599)
(0.0622609 0.0458031 -0.0972469)
(0.0574144 -0.237127 -0.0975032)
(0.0385583 -0.495757 -0.0859058)
(0.0230058 -0.663628 -0.0594209)
(-0.00273131 -0.74245 -0.0325966)
(-0.019642 -0.748 -0.00965759)
(-0.0334566 -0.667657 0.0202807)
(-0.0232957 -0.414276 0.0501111)
(-0.0305834 -0.122355 0.0316448)
(-0.0595296 -0.0624279 -0.00554823)
(-0.0897859 -0.0930651 -0.013203)
(-0.12269 -0.114996 -0.0224181)
(-0.15302 -0.101406 -0.0418053)
(-0.177905 -0.0838334 -0.0568215)
(-0.194567 -0.0653614 -0.0684093)
(-0.202206 -0.0394693 -0.0785699)
(-0.203155 -0.00493714 -0.0845116)
(-0.200598 0.0310811 -0.0876311)
(-0.195127 0.0659425 -0.0898243)
(-0.188439 0.100227 -0.0912305)
(-0.180429 0.133714 -0.0921583)
(-0.171612 0.166691 -0.092573)
(-0.162075 0.199647 -0.092579)
(-0.151765 0.23298 -0.0924243)
(-0.140327 0.266424 -0.0924605)
(-0.127285 0.299243 -0.0932586)
(-0.112255 0.330313 -0.0956014)
(-0.0949964 0.358041 -0.100283)
(-0.0754021 0.380421 -0.107567)
(-0.0545646 0.394364 -0.116467)
(-0.0348565 0.392909 -0.122974)
(-0.0149474 0.339924 -0.111607)
(-0.0191663 0.738987 -0.0422988)
(0.0645127 0.565766 -0.057387)
(-0.0245948 0.203398 -0.0839536)
(0.0282192 -0.279597 -0.110827)
(-0.0448964 -0.661824 -0.111432)
(-0.0680811 -0.664534 -0.0922467)
(-0.0983364 -0.683336 -0.0729555)
(-0.108309 -0.742493 -0.0551684)
(-0.111266 -0.782272 -0.0430496)
(-0.104783 -0.794637 -0.0333813)
(-0.090677 -0.742723 -0.0185662)
(-0.0689121 -0.467129 0.00299886)
(-0.0338436 -0.284507 0.0104808)
(-0.0279839 -0.205449 0.00551064)
(-0.0309947 -0.167413 -0.0013404)
(-0.040563 -0.152335 -0.00891072)
(-0.0520785 -0.140258 -0.0190513)
(-0.0644854 -0.120503 -0.0322)
(-0.0756002 -0.0933385 -0.0460764)
(-0.0842519 -0.0645678 -0.0584524)
(-0.0907224 -0.0364637 -0.06875)
(-0.0950455 -0.00866112 -0.077214)
(-0.0973437 0.0189976 -0.084076)
(-0.0977413 0.0462492 -0.089466)
(-0.0963703 0.0729532 -0.0935876)
(-0.0933141 0.0990501 -0.0967101)
(-0.0886042 0.124482 -0.099137)
(-0.0822478 0.14911 -0.101176)
(-0.0742889 0.172689 -0.103104)
(-0.0648095 0.194861 -0.105107)
(-0.0538568 0.215085 -0.107155)
(-0.0415262 0.232278 -0.108779)
(-0.0288158 0.244095 -0.108765)
(-0.017063 0.246168 -0.104255)
(-0.00619691 0.21589 -0.0806106)
(-0.00719788 0.627419 -0.0557663)
(0.106417 0.56321 -0.0750411)
(0.0891464 0.453914 -0.0951582)
(0.110232 0.263527 -0.124122)
(0.0869123 0.201714 -0.178499)
(0.02755 -0.0568136 -0.159595)
(0.0170281 -0.36607 -0.0977679)
(0.00223476 -0.582771 -0.0533181)
(-0.0155568 -0.714019 -0.027787)
(-0.0269439 -0.781878 -0.0156295)
(-0.0308124 -0.808875 -0.00979596)
(-0.046149 -0.714399 -0.000257951)
(-0.0293367 -0.37476 0.0242527)
(-0.0245171 -0.162971 0.035832)
(-0.0275399 -0.0442928 0.049364)
(-0.0399275 0.0247345 0.0570802)
(-0.0532676 0.0610544 0.0554287)
(-0.0661896 0.080733 0.0483592)
(-0.0783189 0.092992 0.0382639)
(-0.0885069 0.102244 0.0265814)
(-0.0961681 0.111123 0.0143264)
(-0.101469 0.120799 0.00184327)
(-0.104468 0.131736 -0.0107075)
(-0.10515 0.144092 -0.0230928)
(-0.103552 0.157748 -0.0350396)
(-0.0997844 0.172402 -0.0462864)
(-0.0940275 0.187662 -0.0566058)
(-0.0865165 0.203139 -0.0658003)
(-0.077501 0.218513 -0.0736658)
(-0.0671653 0.233534 -0.0799334)
(-0.0555686 0.247879 -0.0841655)
(-0.042849 0.260719 -0.0855366)
(-0.0299326 0.269937 -0.082456)
(-0.0173825 0.270015 -0.0709259)
(-0.00490868 0.22538 -0.0351681)
(0.00209654 0.39793 -0.075033)
(0.0793421 0.355323 -0.0898225)
(0.0991527 0.280352 -0.0990105)
(0.132217 0.155261 -0.105052)
(0.162631 0.0558973 -0.111405)
(0.184098 -0.0217844 -0.114937)
(0.200148 -0.115332 -0.112587)
(0.205903 -0.298623 -0.0852358)
(0.192502 -0.453896 -0.0621652)
(0.177529 -0.558775 -0.0463283)
(0.155739 -0.605147 -0.0334628)
(0.103479 -0.614597 -0.0292872)
(0.0673243 -0.471421 0.00981923)
(0.0623985 -0.216317 0.0492013)
(0.0466684 -0.0794198 0.0523648)
(0.0313898 -0.0250244 0.04494)
(0.0176696 0.00446542 0.0381126)
(0.00493913 0.0261093 0.0321636)
(-0.0057434 0.0434727 0.0269367)
(-0.0143372 0.0578839 0.0227575)
(-0.0211406 0.0700615 0.0198619)
(-0.0265132 0.0802881 0.018184)
(-0.030788 0.0887625 0.0174731)
(-0.034265 0.0960087 0.0175102)
(-0.0370768 0.102679 0.0182057)
(-0.0391505 0.10942 0.0195026)
(-0.0403895 0.116809 0.0212892)
(-0.0406603 0.125258 0.0233386)
(-0.0397657 0.134755 0.0253278)
(-0.0374716 0.144612 0.0269854)
(-0.0335293 0.153713 0.0282812)
(-0.0277005 0.16098 0.0295023)
(-0.0201772 0.165123 0.0312381)
(-0.0115678 0.163028 0.0345801)
(-0.00196263 0.134521 0.0384142)
(0.0140182 0.091681 -0.0361759)
(0.0696271 0.019275 -0.0390446)
(0.1043 -0.0583883 -0.0369415)
(0.142389 -0.146116 -0.0316664)
(0.180181 -0.242265 -0.019315)
(0.211951 -0.286196 -0.0146)
(0.241655 -0.300749 -0.0219878)
(0.258779 -0.494035 0.0156359)
(0.272853 -0.556046 0.0336667)
(0.297654 -0.550934 0.0264)
(0.257962 -0.54862 0.0475652)
(0.177707 -0.359981 0.0493198)
(0.126383 -0.199421 0.0169804)
(0.104336 -0.076421 0.0320344)
(0.0908716 0.0468746 0.0989036)
(0.072907 0.125975 0.152091)
(0.0551285 0.155418 0.171013)
(0.0394648 0.162594 0.172782)
(0.0251397 0.162023 0.163641)
(0.0132244 0.159949 0.144218)
(0.00464558 0.160265 0.116495)
(-0.000629387 0.164896 0.0850165)
(-0.00274228 0.173295 0.0553359)
(-0.00190771 0.18363 0.03049)
(0.00110323 0.194158 0.0109476)
(0.0054348 0.203935 -0.00373184)
(0.0101575 0.212611 -0.0141961)
(0.0144564 0.219602 -0.0209285)
(0.0176749 0.224268 -0.0246407)
(0.0194791 0.226412 -0.02641)
(0.0197613 0.226215 -0.0271241)
(0.0184225 0.223901 -0.0271051)
(0.0155967 0.219793 -0.0259403)
(0.0117729 0.213071 -0.0217335)
(0.0059064 0.184421 -0.00519277)
(0.0131058 -0.138256 0.00594802)
(0.0588901 -0.285194 0.0172453)
(0.0962865 -0.378591 0.0287503)
(0.137256 -0.448756 0.0381909)
(0.165534 -0.530724 0.0585974)
(0.175256 -0.543888 0.0596597)
(0.161757 -0.517069 0.0521816)
(0.103782 -0.703743 0.10472)
(0.0422559 -0.343954 0.0109639)
(-0.0605873 0.325983 -0.135884)
(-0.136844 0.0982101 -0.0550692)
(-0.168696 0.0485102 -0.0246593)
(-0.18723 0.0406297 -0.00497634)
(-0.188688 0.04614 0.00645895)
(-0.175209 0.0578814 0.0090967)
(-0.150252 0.0770708 -0.00174298)
(-0.123279 0.102714 -0.0231858)
(-0.0994771 0.128583 -0.0471339)
(-0.081717 0.13942 -0.0569223)
(-0.0709528 0.141021 -0.056671)
(-0.0643795 0.138688 -0.0528415)
(-0.0603381 0.132271 -0.0459623)
(-0.0584218 0.120931 -0.0344037)
(-0.0582833 0.108264 -0.0185671)
(-0.0580377 0.103468 -0.00560834)
(-0.056224 0.108039 8.11725e-05)
(-0.0524898 0.118856 -0.000189518)
(-0.0463388 0.13618 -0.00575355)
(-0.0380881 0.160306 -0.0142763)
(-0.0290796 0.189143 -0.0210496)
(-0.0205754 0.219795 -0.0227873)
(-0.0132914 0.250057 -0.0191231)
(-0.00777897 0.276237 -0.0109396)
(-0.00442221 0.291172 0.00059643)
(-0.0022487 0.266305 0.0180916)
(0.0107972 -0.297668 0.0274475)
(0.0257312 -0.42975 0.0414871)
(0.0154302 -0.492673 0.0551153)
(-0.0162788 -0.490686 0.069462)
(-0.0588759 -0.252296 0.0577894)
(-0.0557371 0.135746 0.0322536)
(-0.0890521 0.225366 0.0292104)
(-0.127346 0.140529 0.0385232)
(-0.117463 -0.036384 0.0661348)
(-0.10157 -0.0124899 0.0760876)
(-0.0718188 -0.0551912 0.116606)
(-0.0566149 -0.0886125 0.162314)
(-0.0493868 -0.137914 0.2201)
(-0.0481184 -0.192736 0.276327)
(-0.0528054 -0.230903 0.309329)
(-0.060105 -0.240302 0.313255)
(-0.0687534 -0.207703 0.281619)
(-0.0769761 -0.110689 0.196358)
(-0.0786706 -0.00490295 0.100519)
(-0.0778848 0.0673998 0.026504)
(-0.0768813 0.125849 -0.0385408)
(-0.0757548 0.176505 -0.0944051)
(-0.0756575 0.222106 -0.139599)
(-0.0778832 0.258998 -0.167862)
(-0.0823736 0.279689 -0.17355)
(-0.0880759 0.285726 -0.161719)
(-0.0945039 0.284018 -0.139132)
(-0.0997248 0.278292 -0.110769)
(-0.100772 0.271675 -0.0849632)
(-0.0967415 0.266288 -0.0654866)
(-0.087674 0.26158 -0.0491641)
(-0.0736931 0.255342 -0.0319198)
(-0.0555067 0.243814 -0.0113296)
(-0.0333978 0.217304 0.0129887)
(-0.00822265 0.144498 0.0317613)
(-0.0116642 -0.283654 0.0354191)
(-0.0332364 -0.266134 0.00678217)
(-0.0455578 -0.255258 -0.0137766)
(-0.0566619 -0.296784 -0.0236495)
(-0.0563411 -0.397552 -0.0160474)
(-0.041059 -0.454099 0.00029148)
(-0.0118622 -0.421755 0.00744655)
(0.021269 -0.414723 0.0118886)
(0.0404538 -0.381906 0.0160575)
(0.0500416 -0.332929 0.0235726)
(0.0621581 -0.290508 0.0293971)
(0.0725652 -0.253128 0.0344562)
(0.0799837 -0.218654 0.0370177)
(0.0830248 -0.183776 0.036273)
(0.0814767 -0.146777 0.0348049)
(0.0759925 -0.109023 0.036629)
(0.0693873 -0.0740568 0.044945)
(0.065156 -0.0483334 0.0622691)
(0.065353 -0.0284375 0.080421)
(0.0699041 -0.00900812 0.0935572)
(0.0775532 0.0122613 0.100778)
(0.0867765 0.0366012 0.102098)
(0.0966015 0.0635567 0.0976388)
(0.105765 0.093527 0.0888155)
(0.112594 0.125137 0.0776834)
(0.116077 0.155345 0.0664916)
(0.115322 0.18144 0.057051)
(0.10976 0.200908 0.050356)
(0.100095 0.211069 0.0464233)
(0.0879087 0.211132 0.0449116)
(0.0744612 0.203989 0.0457227)
(0.0619223 0.192271 0.0479316)
(0.0502242 0.169018 0.0515236)
(0.0381098 0.113727 0.0552869)
(0.0150806 0.0458304 0.059503)
(0.00351627 -0.192021 -0.030556)
(0.0188686 -0.316403 -0.0525714)
(0.0368819 -0.357036 -0.0579688)
(0.0514774 -0.365055 -0.0612713)
(0.0609682 -0.346241 -0.0673491)
(0.0628153 -0.314936 -0.074434)
(0.0613834 -0.301534 -0.0774447)
(0.0597455 -0.295179 -0.07799)
(0.0574295 -0.294445 -0.0762126)
(0.0546927 -0.295075 -0.0722024)
(0.0517886 -0.292805 -0.0658523)
(0.0489353 -0.286554 -0.0571907)
(0.045896 -0.277058 -0.0462716)
(0.0427343 -0.265616 -0.0337773)
(0.0400493 -0.252799 -0.021347)
(0.0387891 -0.238581 -0.0107878)
(0.0395392 -0.223047 -0.00288082)
(0.0423005 -0.206281 0.00229566)
(0.0467519 -0.18849 0.00513666)
(0.0527433 -0.169262 0.00586899)
(0.0604516 -0.145883 0.00427632)
(0.06989 -0.115679 0.000711563)
(0.080262 -0.0810974 -0.0043012)
(0.0911973 -0.0414096 -0.0100873)
(0.104496 0.00515514 -0.0151165)
(0.115997 0.0562036 -0.0178269)
(0.124078 0.108445 -0.0182986)
(0.129157 0.159183 -0.0171078)
(0.12905 0.204952 -0.0142086)
(0.122344 0.238232 -0.0101262)
(0.108219 0.25069 -0.00544299)
(0.0878959 0.244331 0.00311003)
(0.0587521 0.254393 0.0179115)
(0.0323531 0.301241 0.0353369)
(0.0096723 0.330065 0.0457205)
(0.00399737 -0.325153 -0.0191947)
(0.00531147 -0.393214 -0.0171553)
(0.00412724 -0.395355 -0.0164197)
(0.00350547 -0.388646 -0.0164452)
(0.00453548 -0.379041 -0.0169973)
(0.00782366 -0.365301 -0.0183558)
(0.0129112 -0.343136 -0.0210814)
(0.0184185 -0.313759 -0.0248508)
(0.0233799 -0.280529 -0.0287404)
(0.0274646 -0.246418 -0.0318241)
(0.0306241 -0.212599 -0.0332229)
(0.0329529 -0.179069 -0.0319479)
(0.0345936 -0.146473 -0.0271335)
(0.0356439 -0.117738 -0.0189357)
(0.0361719 -0.0968497 -0.0091603)
(0.0362878 -0.0847478 0.000198232)
(0.0360946 -0.0789881 0.00874204)
(0.0356407 -0.0771416 0.0171812)
(0.035005 -0.0780982 0.0256816)
(0.0342587 -0.0806567 0.0335067)
(0.0334067 -0.0831824 0.0395969)
(0.0324639 -0.0837739 0.0425111)
(0.0313122 -0.080447 0.0408126)
(0.0296383 -0.0667549 0.030785)
(0.02928 -0.0317334 0.0141033)
(0.0300447 0.0182614 0.00195563)
(0.0313038 0.0799478 -0.00451706)
(0.0326984 0.151938 -0.00812442)
(0.0336953 0.233518 -0.0110911)
(0.0339189 0.325785 -0.013445)
(0.0306528 0.412672 -0.0165613)
(0.0228889 0.453486 -0.0208019)
(0.0145579 0.45627 -0.0221114)
(0.00502882 0.431728 -0.0193042)
(-0.00262684 0.319153 -0.00737035)
(0.00209235 -0.287739 -0.0143756)
(0.0072687 -0.379569 -0.0234416)
(0.0117395 -0.398677 -0.0270563)
(0.0154004 -0.403115 -0.0295686)
(0.0186291 -0.402 -0.0319329)
(0.0212905 -0.397685 -0.03426)
(0.0236842 -0.391422 -0.0364459)
(0.0263109 -0.383051 -0.0386087)
(0.0294906 -0.371872 -0.0410268)
(0.0332395 -0.357615 -0.043909)
(0.0373643 -0.340946 -0.0472662)
(0.0416739 -0.323077 -0.0508851)
(0.0460896 -0.304936 -0.0543377)
(0.0505697 -0.286791 -0.0569929)
(0.0549786 -0.268611 -0.0581032)
(0.0590347 -0.250822 -0.0570804)
(0.0624092 -0.234557 -0.0538401)
(0.0648798 -0.220567 -0.048569)
(0.0663859 -0.208091 -0.0408863)
(0.066905 -0.194845 -0.0291406)
(0.0661961 -0.176565 -0.0105312)
(0.0640278 -0.149076 0.0140496)
(0.0609336 -0.113161 0.0361044)
(0.0578323 -0.0743279 0.046381)
(0.055512 -0.0370535 0.0425738)
(0.0551352 -0.00185137 0.0307272)
(0.0567069 0.0343385 0.0200281)
(0.0586417 0.0736659 0.0162793)
(0.0594954 0.11557 0.0162104)
(0.0592611 0.163577 0.0113387)
(0.0577225 0.212857 -0.00151918)
(0.0544399 0.240154 -0.0134314)
(0.0430876 0.291048 -0.0254362)
(0.0267097 0.340247 -0.0332244)
(0.00945288 0.310359 -0.0154195)
(0.00142436 -0.329373 -0.0259729)
(0.0056806 -0.399818 -0.0307189)
(0.0100494 -0.407156 -0.0319695)
(0.0140695 -0.403543 -0.0332329)
(0.0181427 -0.394288 -0.0350276)
(0.0218576 -0.380263 -0.0374602)
(0.0252117 -0.361628 -0.0405491)
(0.0281809 -0.338461 -0.0441799)
(0.0307139 -0.311113 -0.0480342)
(0.0328114 -0.280297 -0.0516014)
(0.0345517 -0.247059 -0.0543146)
(0.0360404 -0.212831 -0.05572)
(0.0373234 -0.17964 -0.0555554)
(0.038346 -0.15003 -0.0537492)
(0.0390362 -0.126151 -0.0504428)
(0.03944 -0.108465 -0.0459181)
(0.0397061 -0.0956467 -0.04026)
(0.0399452 -0.0859669 -0.0329959)
(0.0402435 -0.0786879 -0.0232644)
(0.0407286 -0.0744161 -0.0109604)
(0.041684 -0.0739534 0.00186472)
(0.0436193 -0.076813 0.011606)
(0.0467603 -0.0811821 0.0154388)
(0.0507078 -0.0831958 0.00941802)
(0.0543672 -0.0722881 -0.0102144)
(0.054163 -0.0462336 -0.0347855)
(0.0470273 -0.00401862 -0.0554428)
(0.0368501 0.0543386 -0.0594466)
(0.026155 0.124108 -0.0356972)
(0.0162402 0.20839 0.00559148)
(0.00705283 0.31626 0.0281291)
(-0.00237173 0.423376 0.0175402)
(-0.0101175 0.492963 -0.00251194)
(-0.0138184 0.513085 -0.013724)
(-0.0110664 0.42797 -0.0103613)
(-0.000815079 -0.31217 0.00152195)
(0.00247386 -0.415802 0.0061603)
(0.005688 -0.432557 0.00629208)
(0.00887361 -0.43467 0.00525982)
(0.012164 -0.431174 0.00321166)
(0.0152062 -0.423555 4.54161e-05)
(0.0179522 -0.412166 -0.00435741)
(0.0203924 -0.396835 -0.0101395)
(0.0223965 -0.377531 -0.0172845)
(0.0237669 -0.355169 -0.0253326)
(0.0244362 -0.331491 -0.0334035)
(0.0245813 -0.307883 -0.0406219)
(0.0245268 -0.28462 -0.0464191)
(0.0245644 -0.261372 -0.0504282)
(0.024778 -0.23851 -0.0522704)
(0.0249216 -0.217995 -0.0516806)
(0.0246222 -0.20208 -0.0488889)
(0.0237447 -0.190674 -0.0440952)
(0.0221887 -0.182119 -0.0360004)
(0.0193836 -0.17443 -0.0196229)
(0.0141861 -0.165569 0.0134581)
(0.00653967 -0.15683 0.0524323)
(-0.0021346 -0.147512 0.0706877)
(-0.0141568 -0.117034 0.0368585)
(-0.0245855 -0.0289689 -0.0439807)
(-0.0281311 0.0916637 -0.106154)
(-0.0337307 0.195028 -0.124764)
(-0.0437084 0.252277 -0.10515)
(-0.0572922 0.281291 -0.0681805)
(-0.0703887 0.307787 -0.0332874)
(-0.0781619 0.343148 -0.0159507)
(-0.0788114 0.376063 -0.0152555)
(-0.0707629 0.386506 -0.0217423)
(-0.0479651 0.339457 -0.0239134)
(-0.0121914 0.179599 -0.007696)
(0.00208794 -0.336031 -0.00532389)
(0.0073889 -0.42786 -0.0043277)
(0.0120545 -0.441636 -0.00433694)
(0.0163354 -0.440721 -0.00512988)
(0.0206422 -0.432877 -0.00675141)
(0.0244085 -0.419224 -0.00932594)
(0.0274855 -0.399535 -0.0130694)
(0.0297896 -0.372685 -0.0183002)
(0.0311159 -0.337812 -0.0252037)
(0.0312056 -0.296252 -0.0333302)
(0.0299356 -0.252034 -0.0414808)
(0.0273901 -0.210044 -0.0483829)
(0.0238136 -0.173788 -0.0533808)
(0.0195342 -0.144266 -0.0565053)
(0.0148277 -0.120317 -0.0580891)
(0.00978187 -0.100045 -0.0584003)
(0.00427037 -0.0821454 -0.0575063)
(-0.00197609 -0.0663374 -0.0553068)
(-0.00926714 -0.0530887 -0.051373)
(-0.0175428 -0.0429234 -0.0443971)
(-0.0268807 -0.0351699 -0.0307963)
(-0.0383812 -0.0276614 -0.00204561)
(-0.0534851 -0.0203592 0.0479054)
(-0.0714068 -0.0204086 0.0933897)
(-0.088708 -0.0187719 0.0879007)
(-0.0983576 0.0245137 0.0317116)
(-0.0970723 0.110299 -0.0183334)
(-0.0903391 0.192685 -0.0390339)
(-0.0829766 0.256293 -0.0457002)
(-0.0751029 0.304039 -0.0482313)
(-0.0669877 0.325129 -0.0460601)
(-0.0590942 0.312761 -0.0391342)
(-0.0443334 0.244102 -0.0177134)
(-0.0117481 0.0658394 0.0270102)
(-0.00159531 -0.00958736 0.0424894)
(-0.00179328 -0.336235 0.013776)
(-0.000511184 -0.447575 0.0207978)
(0.00163114 -0.464181 0.0212977)
(0.0042953 -0.464202 0.0205313)
(0.00729793 -0.456925 0.0188888)
(0.0102317 -0.443672 0.0162459)
(0.0129187 -0.424252 0.012272)
(0.0152586 -0.397444 0.00638208)
(0.0170877 -0.362518 -0.00198547)
(0.0182459 -0.32167 -0.0125335)
(0.0187854 -0.279541 -0.0237331)
(0.0189393 -0.239933 -0.0337839)
(0.0189065 -0.204449 -0.041625)
(0.01876 -0.173279 -0.0470422)
(0.0185063 -0.146027 -0.0502948)
(0.0181557 -0.122048 -0.0517821)
(0.0177363 -0.100562 -0.0518623)
(0.0172564 -0.0807701 -0.0507801)
(0.0166556 -0.0620429 -0.0486747)
(0.0157819 -0.0440794 -0.0456126)
(0.0144779 -0.0269901 -0.0415692)
(0.0127147 -0.011085 -0.0362488)
(0.0103831 0.00394029 -0.0286176)
(0.00690867 0.0198181 -0.0166129)
(0.00142018 0.0389785 0.0020876)
(-0.00569264 0.060791 0.0265509)
(-0.0111386 0.079523 0.0473219)
(-0.0116007 0.0897548 0.0596537)
(-0.00410484 0.090181 0.0679995)
(0.0106059 0.10208 0.0700622)
(0.0294117 0.132559 0.0645137)
(0.0453723 0.148331 0.0693466)
(0.0569399 0.0506158 0.0846832)
(0.0517463 -0.0720703 0.129863)
(0.0108069 0.0256755 0.104831)
(0.00112187 -0.338175 0.00455625)
(0.0056342 -0.454155 0.00534616)
(0.00962052 -0.475148 0.00559397)
(0.0135616 -0.476892 0.00559641)
(0.0178149 -0.470048 0.00542605)
(0.021942 -0.45613 0.00498757)
(0.0257522 -0.434756 0.00402311)
(0.0291609 -0.404036 0.00197272)
(0.0319523 -0.362234 -0.00212731)
(0.0338108 -0.311652 -0.00903107)
(0.0346319 -0.259146 -0.018146)
(0.0346468 -0.211325 -0.0277534)
(0.0342229 -0.171219 -0.0362871)
(0.0336615 -0.138771 -0.0429836)
(0.0331463 -0.112583 -0.0477451)
(0.0327925 -0.0910773 -0.0507814)
(0.0327001 -0.0729741 -0.0523661)
(0.0329741 -0.0573562 -0.0527464)
(0.0336964 -0.0435659 -0.0521195)
(0.0349193 -0.0311181 -0.0506046)
(0.0366224 -0.0196466 -0.0482165)
(0.0386903 -0.00880942 -0.0448243)
(0.0409764 0.00183152 -0.0400325)
(0.0435454 0.0127955 -0.0329884)
(0.0465406 0.0243309 -0.0226992)
(0.0500244 0.0359053 -0.00881979)
(0.0540671 0.0457517 0.00865812)
(0.0605394 0.0405364 0.0334562)
(0.0705599 -0.00243383 0.0552778)
(0.0812231 -0.0517675 0.0650273)
(0.0855679 -0.0698885 0.0654498)
(0.0825625 -0.0123673 0.0586027)
(0.0664681 0.120965 0.0574014)
(0.0358667 0.240051 0.0738634)
(0.00591425 0.268329 0.06121)
(-0.00019643 -0.353621 0.00685248)
(0.00214891 -0.477991 0.00677735)
(0.00457656 -0.498381 0.00600153)
(0.00724196 -0.498951 0.00537629)
(0.0102753 -0.490647 0.00478033)
(0.0133225 -0.474838 0.00411874)
(0.016212 -0.450857 0.00318304)
(0.0188634 -0.416498 0.00150725)
(0.02117 -0.370114 -0.00179343)
(0.023014 -0.314907 -0.007581)
(0.0243509 -0.258957 -0.0154479)
(0.0252652 -0.209272 -0.0237605)
(0.0259375 -0.168345 -0.0310891)
(0.0265322 -0.135499 -0.0368496)
(0.0271467 -0.109102 -0.0410298)
(0.0278366 -0.0877194 -0.0438219)
(0.0286474 -0.0704228 -0.0454628)
(0.0296042 -0.0565027 -0.0461971)
(0.0307087 -0.0449304 -0.04616)
(0.0320214 -0.0347082 -0.0452643)
(0.0335275 -0.0254186 -0.0433628)
(0.0351108 -0.0170146 -0.0403696)
(0.0368093 -0.00867943 -0.0354483)
(0.0387254 0.00120377 -0.0261441)
(0.0406311 0.0128161 -0.00995649)
(0.0420581 0.0221843 0.012093)
(0.0441849 0.0180137 0.0416968)
(0.0447407 -0.0537138 0.0626082)
(0.0420545 -0.0921818 0.0534166)
(0.042792 -0.00918089 0.0284854)
(0.0393808 0.144665 -0.00108065)
(0.0194494 0.238759 -0.0112747)
(0.00348609 0.286365 -0.00370261)
(-0.00352479 0.305917 0.00476588)
(-0.00394256 0.274218 0.00412704)
(0.00112331 -0.357265 -0.000472392)
(0.00473357 -0.482041 -0.0026258)
(0.00774585 -0.504543 -0.00304228)
(0.0106768 -0.50646 -0.00310037)
(0.0138208 -0.499165 -0.00298598)
(0.016844 -0.483926 -0.0027306)
(0.0195363 -0.459897 -0.0023656)
(0.0217504 -0.424845 -0.00201446)
(0.023375 -0.377065 -0.00226832)
(0.0244663 -0.319075 -0.00451856)
(0.0251631 -0.258766 -0.00969874)
(0.0255103 -0.204619 -0.0168134)
(0.025557 -0.160697 -0.0239686)
(0.0254224 -0.126688 -0.0299314)
(0.025245 -0.10041 -0.0343713)
(0.0251401 -0.0797127 -0.0374137)
(0.0251778 -0.0632317 -0.0393093)
(0.0253471 -0.0501792 -0.0403294)
(0.0256273 -0.0392629 -0.0405878)
(0.0259826 -0.0295769 -0.0399791)
(0.0263527 -0.020982 -0.0384014)
(0.026687 -0.013366 -0.0357109)
(0.0269231 -0.00664692 -0.0317406)
(0.0270156 -0.000253351 -0.0255786)
(0.0268655 0.00656854 -0.0150655)
(0.0263018 0.0126016 0.000265018)
(0.025451 0.0139789 0.0174819)
(0.0213918 0.00378873 0.0362587)
(0.00778879 -0.0470554 0.057769)
(-0.00329156 -0.0531898 0.0536234)
(-0.000104262 0.0955614 0.0237832)
(0.00150929 0.237553 -0.00401902)
(-0.00256473 0.280886 -0.00948307)
(-0.00362078 0.287161 -0.00614806)
(-0.0022279 0.228231 0.00192836)
(0.000907331 -0.374348 -0.000992887)
(0.00412122 -0.502013 -0.000296021)
(0.00695703 -0.522841 -0.000349044)
(0.00971415 -0.522989 -0.000784597)
(0.0126735 -0.513372 -0.0015914)
(0.0154189 -0.494652 -0.00279895)
(0.0176491 -0.465303 -0.00442548)
(0.0190666 -0.423338 -0.00632053)
(0.0195105 -0.369362 -0.00811967)
(0.0192866 -0.308025 -0.00995656)
(0.0189518 -0.246233 -0.0128158)
(0.0187954 -0.190471 -0.0171556)
(0.0187774 -0.144455 -0.0222077)
(0.0187664 -0.108653 -0.0268999)
(0.0186765 -0.0816101 -0.0306272)
(0.0184844 -0.0614103 -0.0332811)
(0.0182016 -0.0463195 -0.03501)
(0.0178265 -0.0345085 -0.0359902)
(0.0173469 -0.0244633 -0.0362294)
(0.0167192 -0.0154965 -0.0356298)
(0.0159287 -0.00735774 -0.0340875)
(0.0149947 0.000196723 -0.0314615)
(0.0138607 0.00788202 -0.0271709)
(0.0123377 0.0167902 -0.0198492)
(0.0102233 0.0268879 -0.00832233)
(0.0072773 0.0357715 0.00689665)
(0.00316617 0.0393275 0.0233061)
(-0.00193101 0.0331124 0.0392808)
(-0.0115473 0.0120977 0.0530205)
(-0.0303512 -0.00386597 0.0596231)
(-0.043232 0.0600126 0.0553802)
(-0.0376987 0.204109 0.0405433)
(-0.028642 0.267444 0.0312205)
(-0.0181237 0.26465 0.0285385)
(-0.00561444 0.201101 0.0224771)
(0.00123872 -0.386933 0.00173478)
(0.0041222 -0.513713 0.0055285)
(0.00648238 -0.5342 0.00651522)
(0.0087202 -0.533897 0.00658977)
(0.011085 -0.523263 0.00604418)
(0.0131862 -0.502195 0.00472912)
(0.0146813 -0.468065 0.00229488)
(0.0151927 -0.418861 -0.00150718)
(0.0145805 -0.35801 -0.00616986)
(0.0132867 -0.293547 -0.0106205)
(0.0120406 -0.232724 -0.0144509)
(0.0113242 -0.179615 -0.0179874)
(0.0112136 -0.135511 -0.0214182)
(0.011551 -0.0999469 -0.0245786)
(0.0121243 -0.071728 -0.0272365)
(0.0127495 -0.0494685 -0.0292841)
(0.0132913 -0.0317849 -0.0307295)
(0.0136822 -0.0174074 -0.0316205)
(0.0138864 -0.00531172 -0.0319881)
(0.0138879 0.00523925 -0.0318249)
(0.0136734 0.0147996 -0.0310604)
(0.0131816 0.0238504 -0.029545)
(0.0123825 0.032867 -0.0270181)
(0.0112805 0.042303 -0.0231178)
(0.0098965 0.0526786 -0.0173454)
(0.00818545 0.0644419 -0.00921741)
(0.00594809 0.0774244 0.00117165)
(0.00264828 0.0903008 0.0126198)
(-0.00270634 0.100993 0.0233223)
(-0.0118547 0.108074 0.0320706)
(-0.0195194 0.10946 0.0381038)
(-0.0207232 0.110039 0.0419035)
(-0.0136834 0.0969695 0.0444312)
(-0.00325993 0.0698167 0.0479208)
(0.00112657 0.0685645 0.0418032)
(0.00128738 -0.401149 0.00541558)
(0.0036309 -0.528247 0.00923436)
(0.00544884 -0.547712 0.0101075)
(0.00710278 -0.546073 0.0102622)
(0.00884863 -0.533243 0.00996241)
(0.0103864 -0.508302 0.00901857)
(0.011441 -0.46762 0.00687605)
(0.0117249 -0.409896 0.00279229)
(0.0111839 -0.342081 -0.00319938)
(0.0102145 -0.275038 -0.00979097)
(0.00941948 -0.215661 -0.0156719)
(0.00920171 -0.166023 -0.0204066)
(0.00965366 -0.125639 -0.0240957)
(0.0106976 -0.0931078 -0.0269353)
(0.0122161 -0.0669993 -0.0290857)
(0.0141067 -0.0460466 -0.0306934)
(0.0162815 -0.0290562 -0.0319019)
(0.018649 -0.014892 -0.0328319)
(0.0211615 -0.00260459 -0.0335459)
(0.0237676 0.00846982 -0.0340562)
(0.0264174 0.018737 -0.0343562)
(0.0290801 0.0284375 -0.0344327)
(0.0317607 0.0377474 -0.0342627)
(0.0344961 0.0468092 -0.0337993)
(0.0373057 0.055618 -0.032966)
(0.0400723 0.063738 -0.0316025)
(0.0423394 0.0702362 -0.0295668)
(0.0437519 0.0746124 -0.0266123)
(0.0440152 0.0768856 -0.0227059)
(0.0427281 0.0770388 -0.0186747)
(0.0397727 0.0750109 -0.0157672)
(0.0355528 0.0712343 -0.014634)
(0.029301 0.0677744 -0.0154247)
(0.0185281 0.0888977 -0.00991417)
(0.00361299 0.135046 0.0136232)
(-1.13645e-05 -0.410631 0.00756417)
(9.6016e-05 -0.535231 0.0107624)
(0.000342822 -0.552916 0.0115895)
(0.000643884 -0.550303 0.0119717)
(0.00103321 -0.536098 0.0121896)
(0.0014426 -0.508396 0.0121147)
(0.00180812 -0.462703 0.0111999)
(0.00208725 -0.398384 0.00836645)
(0.0022133 -0.325148 0.00306111)
(0.00221927 -0.256493 -0.00351005)
(0.00236119 -0.199188 -0.00969011)
(0.00285857 -0.153346 -0.0147654)
(0.00375284 -0.116891 -0.0187122)
(0.00498132 -0.0878402 -0.0216883)
(0.00644876 -0.0648145 -0.0238519)
(0.00804682 -0.0467862 -0.0253582)
(0.00966044 -0.0326323 -0.0263632)
(0.0112964 -0.0207657 -0.026962)
(0.0129742 -0.0100694 -0.0271438)
(0.0146587 -0.000241418 -0.0268754)
(0.0163882 0.00882076 -0.0261628)
(0.0182057 0.0172845 -0.0250616)
(0.0200945 0.0253805 -0.0237002)
(0.0219615 0.0334034 -0.0223052)
(0.0237746 0.0422319 -0.0210301)
(0.0255259 0.0539764 -0.0203244)
(0.0269593 0.0720586 -0.0225267)
(0.0274099 0.0965871 -0.0323054)
(0.026249 0.119143 -0.0472209)
(0.023729 0.13594 -0.0595931)
(0.0200438 0.150345 -0.0661808)
(0.0146084 0.16775 -0.0655615)
(0.00679873 0.190443 -0.0557014)
(-0.000253218 0.209463 -0.0364368)
(-0.00273654 0.194774 -0.00821058)
(-0.000250852 -0.405768 0.00837325)
(-0.000617361 -0.532081 0.0115335)
(-0.000752282 -0.55092 0.0124369)
(-0.00070248 -0.548936 0.0129765)
(-0.000525775 -0.535233 0.0135469)
(-0.000242938 -0.508253 0.0142113)
(0.00017359 -0.463986 0.014675)
(0.000868555 -0.401024 0.0137399)
(0.00175502 -0.327009 0.00983852)
(0.00246757 -0.255883 0.00338393)
(0.00297034 -0.196453 -0.00340441)
(0.0034885 -0.149373 -0.00906058)
(0.00417832 -0.112065 -0.0133628)
(0.00506439 -0.0819987 -0.0165673)
(0.00607948 -0.0574143 -0.0189458)
(0.00710553 -0.0371164 -0.020678)
(0.00802466 -0.0202055 -0.0218579)
(0.00879374 -0.00590262 -0.0225119)