/*--------------------------------*- C++ -*----------------------------------*\
| =========                 |                                                 |
| \\      /  F ield         | OpenFOAM: The Open Source CFD Toolbox           |
|  \\    /   O peration     | Version:  v2012                                 |
|   \\  /    A nd           | Website:  www.openfoam.com                      |
|    \\/     M anipulation  |                                                 |
\*---------------------------------------------------------------------------*/
FoamFile
{
    version     2.0;
    format      ascii;
    class       volVectorField;
    location    "28";
    object      U;
}
// * * * * * * * * * * * * * * * * * * * * * * * * * * * * * * * * * * * * * //

dimensions      [0 1 -1 0 0 0 0];


internalField   nonuniform List<vector> 
78750
(
(-5.16657e-06 -0.000101762 2.93255e-05)
(-2.23706e-05 -0.000104997 5.21061e-05)
(-6.04455e-05 -7.62425e-05 7.26787e-05)
(-0.000112887 -3.48654e-05 9.83836e-05)
(-0.000175173 9.68378e-06 0.000129446)
(-0.00024443 5.34709e-05 0.000165057)
(-0.000317962 9.44365e-05 0.000202695)
(-0.000393122 0.000131411 0.000239494)
(-0.000467639 0.000162928 0.000272436)
(-0.000539547 0.000188504 0.000298747)
(-0.000607237 0.00020757 0.000316008)
(-0.000669456 0.000220196 0.000322548)
(-0.000725104 0.000226341 0.000317266)
(-0.000773246 0.000226439 0.000299902)
(-0.000813047 0.000220938 0.000270841)
(-0.000844073 0.000210574 0.000231113)
(-0.000865358 0.000196307 0.000183294)
(-0.00087742 0.00017825 0.000126861)
(-0.000879637 0.000157427 6.49444e-05)
(-0.000872202 0.000134524 -3.99955e-07)
(-0.000855312 0.000110105 -6.71037e-05)
(-0.000829308 8.47448e-05 -0.000133111)
(-0.000794611 5.89289e-05 -0.000196442)
(-0.000751763 3.31319e-05 -0.000255201)
(-0.000701378 7.8009e-06 -0.000307582)
(-0.000644156 -1.6612e-05 -0.000351881)
(-0.00058086 -3.96051e-05 -0.000386446)
(-0.000512369 -6.06176e-05 -0.000409707)
(-0.000439669 -7.89236e-05 -0.000420136)
(-0.000363856 -9.36338e-05 -0.000416325)
(-0.000285886 -0.000103543 -0.000396906)
(-0.000206483 -0.000107065 -0.000360782)
(-0.000128158 -0.00010197 -0.000307066)
(-6.54885e-05 -8.55305e-05 -0.000235802)
(-2.10608e-05 -4.62053e-05 -0.000114145)
(-2.58089e-05 0.000404928 -0.000425714)
(-8.33999e-05 0.000792992 -0.000549135)
(-0.00015681 0.000991708 -0.000578026)
(-0.000254709 0.00112864 -0.000609342)
(-0.000353919 0.0012141 -0.000638657)
(-0.000447532 0.00125372 -0.000660865)
(-0.000532489 0.0012569 -0.000677097)
(-0.000606104 0.00123017 -0.000689951)
(-0.000668253 0.00118192 -0.000700087)
(-0.000718428 0.00111739 -0.000707401)
(-0.000757278 0.00104376 -0.000710927)
(-0.000785393 0.000963896 -0.000710975)
(-0.000803423 0.000881651 -0.000707763)
(-0.000812311 0.000797238 -0.000703208)
(-0.000812438 0.000712636 -0.00069803)
(-0.000804736 0.000628907 -0.000692662)
(-0.000789889 0.000547556 -0.000687293)
(-0.000768669 0.000468974 -0.000682351)
(-0.000741845 0.000394082 -0.000677825)
(-0.000710105 0.000323082 -0.00067382)
(-0.000674166 0.00025647 -0.000670142)
(-0.000634629 0.000194289 -0.000666703)
(-0.000592115 0.000136711 -0.000663241)
(-0.000547144 8.37083e-05 -0.00065949)
(-0.00050023 3.52607e-05 -0.000655074)
(-0.000451812 -8.65748e-06 -0.000649475)
(-0.000402316 -4.81264e-05 -0.000642053)
(-0.000352108 -8.30853e-05 -0.000631783)
(-0.000301579 -0.000113547 -0.000617296)
(-0.000251092 -0.000139244 -0.000596498)
(-0.000200753 -0.000159858 -0.000566697)
(-0.000150025 -0.000174306 -0.000522459)
(-9.92847e-05 -0.000180315 -0.000450427)
(-5.95629e-05 -0.000171596 -0.000333159)
(-3.00154e-05 -0.000104417 -9.92281e-05)
(-2.85495e-05 0.000810725 -3.05857e-05)
(-7.26227e-05 0.00140826 -3.77193e-05)
(-0.000118533 0.00164794 -3.62283e-05)
(-0.0001793 0.00178958 -4.02647e-05)
(-0.000238293 0.00184821 -5.36426e-05)
(-0.000290955 0.00183826 -7.59183e-05)
(-0.000337274 0.00178149 -0.000111043)
(-0.000376676 0.00169911 -0.000158834)
(-0.000408653 0.00160282 -0.000218324)
(-0.000432868 0.00150124 -0.000284337)
(-0.000449587 0.00139744 -0.000351688)
(-0.000459102 0.00129339 -0.00041271)
(-0.000462178 0.00118776 -0.000462219)
(-0.000459143 0.00108217 -0.000496392)
(-0.000452103 0.000978578 -0.000518142)
(-0.000441056 0.000878564 -0.000530216)
(-0.000426722 0.000782535 -0.0005358)
(-0.000409671 0.000691287 -0.000536861)
(-0.000390517 0.000605444 -0.000534679)
(-0.000369645 0.000525462 -0.00052999)
(-0.000347417 0.000451269 -0.000523614)
(-0.000324154 0.000382982 -0.000515877)
(-0.000300122 0.000320428 -0.000507191)
(-0.000275572 0.000263494 -0.000497658)
(-0.000250715 0.000211974 -0.000487406)
(-0.000225722 0.000165625 -0.000476324)
(-0.000200739 0.000124279 -0.000464203)
(-0.000175879 8.77067e-05 -0.000450537)
(-0.000151255 5.58953e-05 -0.000434503)
(-0.000126945 2.88185e-05 -0.000414764)
(-0.000102943 6.80756e-06 -0.000389124)
(-7.88779e-05 -9.71617e-06 -0.00035352)
(-5.45208e-05 -1.98889e-05 -0.000300578)
(-3.3995e-05 -2.22252e-05 -0.00022232)
(-1.9494e-05 -7.46366e-06 -5.44806e-05)
(-2.59369e-05 0.000925876 0.000345958)
(-4.93685e-05 0.00152711 0.000448208)
(-6.299e-05 0.00177256 0.000459693)
(-8.135e-05 0.00191943 0.000462636)
(-9.92534e-05 0.00198557 0.00046788)
(-0.000116697 0.00198634 0.000469461)
(-0.000136238 0.00194602 0.00046049)
(-0.000157488 0.0018792 0.000431998)
(-0.000178158 0.00179577 0.000382345)
(-0.000196486 0.0016999 0.000312174)
(-0.000210948 0.00159594 0.000226339)
(-0.000220834 0.00148578 0.000130509)
(-0.000225742 0.00137318 3.41752e-05)
(-0.000226239 0.00126061 -5.38953e-05)
(-0.00022276 0.00115122 -0.000126281)
(-0.000216244 0.00104638 -0.000181926)
(-0.000207862 0.00094749 -0.000224589)
(-0.000197569 0.000854843 -0.00025728)
(-0.000186052 0.000769024 -0.000282084)
(-0.000173903 0.000689739 -0.000301055)
(-0.000161425 0.00061668 -0.000315484)
(-0.000148845 0.000549506 -0.000326227)
(-0.000136532 0.000488431 -0.000333598)
(-0.000124613 0.000433035 -0.000338168)
(-0.000113189 0.000382973 -0.000340164)
(-0.000102378 0.000337817 -0.00033993)
(-9.21821e-05 0.000297135 -0.000337541)
(-8.26085e-05 0.000260516 -0.000333156)
(-7.35505e-05 0.000227499 -0.000326604)
(-6.48922e-05 0.000197702 -0.00031767)
(-5.62971e-05 0.00017065 -0.000305878)
(-4.70768e-05 0.000146012 -0.000291751)
(-3.60649e-05 0.000123232 -0.000276661)
(-2.49384e-05 0.000102169 -0.00025391)
(-1.59586e-05 7.11321e-05 -0.000148771)
(-1.8539e-05 0.000759205 0.000441324)
(-2.58261e-05 0.00118494 0.000569181)
(-2.14466e-05 0.00137466 0.000582823)
(-1.27912e-05 0.00150756 0.000596693)
(-2.18545e-06 0.00159251 0.000611054)
(7.77218e-06 0.0016382 0.000617359)
(1.53473e-05 0.00165211 0.000613488)
(2.04565e-05 0.00164078 0.000598993)
(2.35707e-05 0.00160823 0.000573023)
(2.54795e-05 0.00155865 0.000535179)
(2.67005e-05 0.00149449 0.000486001)
(2.77692e-05 0.00141919 0.00042716)
(2.87839e-05 0.00133542 0.000361472)
(3.00858e-05 0.00124714 0.00029315)
(3.15183e-05 0.00115776 0.000226345)
(3.30777e-05 0.00107085 0.000164615)
(3.45844e-05 0.000988546 0.000110276)
(3.59425e-05 0.000912525 6.42029e-05)
(3.68282e-05 0.000843306 2.6148e-05)
(3.7285e-05 0.000781236 -4.34729e-06)
(3.69917e-05 0.000725644 -2.86592e-05)
(3.58289e-05 0.000676083 -4.7925e-05)
(3.38089e-05 0.00063179 -6.28875e-05)
(3.0867e-05 0.000592282 -7.41711e-05)
(2.69694e-05 0.000556872 -8.2455e-05)
(2.22085e-05 0.000524992 -8.81776e-05)
(1.66825e-05 0.000495838 -9.18914e-05)
(1.05607e-05 0.000468674 -9.41856e-05)
(4.10565e-06 0.000442375 -9.58402e-05)
(-2.35348e-06 0.000415833 -9.72947e-05)
(-8.42407e-06 0.000387524 -9.91597e-05)
(-1.34272e-05 0.000355692 -0.000104863)
(-1.56176e-05 0.000317776 -0.000123089)
(-1.38602e-05 0.000271803 -0.000148697)
(-1.07562e-05 0.000178217 -0.000114622)
(-9.27486e-06 0.000588734 0.000404339)
(-8.21004e-06 0.000881486 0.000503297)
(-6.96357e-07 0.00102471 0.000509385)
(1.31959e-05 0.00113354 0.000514551)
(3.05829e-05 0.00121118 0.000520402)
(4.96542e-05 0.00126194 0.000521172)
(6.91513e-05 0.00129135 0.000516026)
(8.82887e-05 0.00130228 0.000505835)
(0.000106384 0.00129838 0.000490814)
(0.00012295 0.0012817 0.000471102)
(0.000137566 0.00125498 0.000446886)
(0.000149854 0.00121984 0.000418676)
(0.000159554 0.00117868 0.000387077)
(0.000166426 0.00113309 0.000353091)
(0.000170553 0.00108523 0.000317922)
(0.000171885 0.00103669 0.000282837)
(0.000170754 0.000989351 0.00024932)
(0.000167332 0.000944133 0.000218318)
(0.000161936 0.000902044 0.000190514)
(0.000154767 0.000863385 0.000166131)
(0.000146061 0.000828443 0.00014525)
(0.000135996 0.000796841 0.00012764)
(0.000124781 0.000768343 0.000113035)
(0.000112573 0.000742296 0.000101009)
(9.95598e-05 0.000718208 9.12068e-05)
(8.59211e-05 0.00069521 8.31016e-05)
(7.18829e-05 0.000672563 7.62367e-05)
(5.76865e-05 0.000649102 6.98761e-05)
(4.3641e-05 0.0006237 6.32227e-05)
(3.00944e-05 0.000594736 5.53997e-05)
(1.74097e-05 0.000560435 4.5487e-05)
(6.11523e-06 0.000518278 2.9778e-05)
(-2.2878e-06 0.00046529 -1.09274e-06)
(-5.49399e-06 0.00039756 -4.42419e-05)
(-5.80182e-06 0.000252042 -5.00032e-05)
(-5.20502e-06 0.000437812 0.000317533)
(-3.30306e-06 0.000652169 0.000347893)
(1.29663e-06 0.000758145 0.000326947)
(1.09094e-05 0.000842105 0.000313543)
(2.33674e-05 0.000906353 0.000306781)
(3.73951e-05 0.000954872 0.000300233)
(5.22244e-05 0.000990713 0.000292467)
(6.72598e-05 0.00101607 0.000283629)
(8.19168e-05 0.00103229 0.000273537)
(9.57504e-05 0.00104093 0.000261859)
(0.000108321 0.00104284 0.000248416)
(0.000119327 0.00103934 0.000233222)
(0.000128508 0.00103118 0.000216424)
(0.000135701 0.00101966 0.00019848)
(0.000140772 0.0010056 0.000179965)
(0.00014373 0.000990229 0.000161551)
(0.000144513 0.000974041 0.000143542)
(0.000143328 0.000957978 0.000126703)
(0.000140275 0.000942332 0.000111436)
(0.000135464 0.00092764 9.80584e-05)
(0.000129082 0.000913607 8.6426e-05)
(0.00012133 0.000900286 7.6516e-05)
(0.000112381 0.000887196 6.81698e-05)
(0.000102392 0.000874184 6.13253e-05)
(9.15291e-05 0.000860535 5.56539e-05)
(7.99559e-05 0.000845832 5.09686e-05)
(6.78727e-05 0.000829054 4.67928e-05)
(5.54622e-05 0.000809371 4.27666e-05)
(4.30182e-05 0.000785225 3.8239e-05)
(3.0776e-05 0.000755038 3.26678e-05)
(1.91478e-05 0.000716241 2.4806e-05)
(8.56014e-06 0.000665848 1.13397e-05)
(3.37385e-07 0.000599398 -1.44904e-05)
(-3.47604e-06 0.000511321 -4.95063e-05)
(-4.38668e-06 0.000316668 -5.37935e-05)
(-2.37886e-06 0.000371321 0.00021293)
(-1.19829e-06 0.000583783 0.000215731)
(-1.05839e-06 0.000683287 0.0001901)
(8.65963e-07 0.000760275 0.000169147)
(4.08652e-06 0.0008203 0.00015573)
(8.14294e-06 0.000866921 0.000144881)
(1.28929e-05 0.000903306 0.000134488)
(1.8212e-05 0.000931346 0.00012399)
(2.39439e-05 0.000952941 0.000113449)
(2.9876e-05 0.00096908 0.000102734)
(3.58222e-05 0.000981026 9.19825e-05)
(4.15525e-05 0.000989303 8.1141e-05)
(4.68793e-05 0.000994852 7.04147e-05)
(5.15966e-05 0.000997963 5.9817e-05)
(5.55681e-05 0.000999414 4.96369e-05)
(5.86734e-05 0.000999344 3.99524e-05)
(6.0896e-05 0.0009984 3.10562e-05)
(6.21086e-05 0.000996619 2.2788e-05)
(6.23154e-05 0.000994531 1.54422e-05)
(6.16061e-05 0.00099186 9.22383e-06)
(5.99655e-05 0.000988898 4.30641e-06)
(5.74199e-05 0.000985219 5.17223e-07)
(5.40133e-05 0.000980882 -2.08825e-06)
(4.97912e-05 0.000975216 -3.81572e-06)
(4.4825e-05 0.000968011 -4.69637e-06)
(3.91954e-05 0.000958275 -5.14435e-06)
(3.30153e-05 0.0009454 -5.2864e-06)
(2.64376e-05 0.000927888 -5.65245e-06)
(1.96486e-05 0.00090444 -6.47336e-06)
(1.2891e-05 0.000872658 -8.3576e-06)
(6.43673e-06 0.000829966 -1.18749e-05)
(7.37169e-07 0.000772315 -1.93311e-05)
(-3.38071e-06 0.000694738 -3.46275e-05)
(-4.79119e-06 0.000590085 -5.52085e-05)
(-4.28858e-06 0.000357146 -5.14552e-05)
(-2.50745e-06 0.000323967 0.000129106)
(-2.88025e-06 0.00054305 0.000134292)
(-4.4289e-06 0.000644925 0.000122664)
(-5.73201e-06 0.00072352 0.000111802)
(-6.57488e-06 0.000784272 0.000103324)
(-6.96586e-06 0.000831722 9.54034e-05)
(-6.90594e-06 0.000868785 8.70491e-05)
(-6.33355e-06 0.000898124 7.83586e-05)
(-5.27081e-06 0.000921258 6.93271e-05)
(-3.72694e-06 0.00093985 6.02773e-05)
(-1.77582e-06 0.000954668 5.1255e-05)
(5.20382e-07 0.000966837 4.26229e-05)
(3.05254e-06 0.000976702 3.44315e-05)
(5.72453e-06 0.000985086 2.70335e-05)
(8.41507e-06 0.000992072 2.04551e-05)
(1.10254e-05 0.000998284 1.49948e-05)
(1.3426e-05 0.00100361 1.05999e-05)
(1.55552e-05 0.00100852 7.43366e-06)
(1.73177e-05 0.00101274 5.35366e-06)
(1.86482e-05 0.00101654 4.4927e-06)
(1.94875e-05 0.00101946 4.61467e-06)
(1.97992e-05 0.00102163 5.76975e-06)
(1.9558e-05 0.00102237 7.6318e-06)
(1.87598e-05 0.00102159 1.01771e-05)
(1.74179e-05 0.00101833 1.30029e-05)
(1.55722e-05 0.00101219 1.60027e-05)
(1.32902e-05 0.00100176 1.87023e-05)
(1.06483e-05 0.000986091 2.0989e-05)
(7.77523e-06 0.000963025 2.23326e-05)
(4.81635e-06 0.000930607 2.25336e-05)
(1.95275e-06 0.000885334 2.0857e-05)
(-5.76892e-07 0.000823434 1.60445e-05)
(-2.3148e-06 0.000738913 5.40906e-06)
(-2.75188e-06 0.000624622 -9.36062e-06)
(-2.1932e-06 0.000370038 -1.38369e-05)
(-3.49143e-06 0.000304498 8.79655e-05)
(-5.66038e-06 0.000527083 0.000107234)
(-8.87005e-06 0.000630109 0.000110413)
(-1.26227e-05 0.000708864 0.000110105)
(-1.59234e-05 0.000769514 0.000107913)
(-1.87226e-05 0.000816352 0.000103924)
(-2.10148e-05 0.000852962 9.85446e-05)
(-2.27559e-05 0.000881602 9.2019e-05)
(-2.3908e-05 0.000904439 8.48488e-05)
(-2.44537e-05 0.000922631 7.72292e-05)
(-2.44114e-05 0.000937575 6.96093e-05)
(-2.38057e-05 0.000949817 6.21364e-05)
(-2.26908e-05 0.00096032 5.52152e-05)
(-2.11286e-05 0.000969268 4.89337e-05)
(-1.9201e-05 0.000977361 4.36287e-05)
(-1.69923e-05 0.000984539 3.9303e-05)
(-1.45825e-05 0.000991316 3.61999e-05)
(-1.20878e-05 0.00099742 3.42715e-05)
(-9.59196e-06 0.00100321 3.36651e-05)
(-7.17521e-06 0.00100826 3.41833e-05)
(-4.92437e-06 0.00101276 3.58815e-05)
(-2.90747e-06 0.00101609 3.84697e-05)
(-1.18274e-06 0.00101825 4.19192e-05)
(2.10583e-07 0.00101838 4.58556e-05)
(1.24505e-06 0.00101623 5.01702e-05)
(1.91848e-06 0.00101061 5.44247e-05)
(2.24119e-06 0.00100086 5.84472e-05)
(2.25987e-06 0.000985219 6.16736e-05)
(2.01983e-06 0.000962259 6.38639e-05)
(1.5943e-06 0.000929246 6.44451e-05)
(1.05118e-06 0.000883413 6.29955e-05)
(4.68258e-07 0.000820272 5.83406e-05)
(-4.80069e-08 0.000734571 4.87617e-05)
(-2.45283e-07 0.000618594 3.43492e-05)
(-7.74681e-08 0.000361725 1.65545e-05)
(-4.50546e-06 0.000290918 6.57519e-05)
(-7.86815e-06 0.000508925 9.82921e-05)
(-1.20926e-05 0.000609258 0.000111795)
(-1.71417e-05 0.000685679 0.000118941)
(-2.16222e-05 0.000743925 0.000121177)
(-2.54989e-05 0.000788693 0.000120103)
(-2.87674e-05 0.000823066 0.000116587)
(-3.1409e-05 0.000849813 0.000111403)
(-3.33434e-05 0.00087057 0.000104997)
(-3.45605e-05 0.000887065 9.79459e-05)
(-3.50323e-05 0.000900138 9.05762e-05)
(-3.47951e-05 0.000910937 8.33702e-05)
(-3.38664e-05 0.000919845 7.65612e-05)
(-3.23208e-05 0.000927667 7.05397e-05)
(-3.02159e-05 0.000934493 6.544e-05)
(-2.76564e-05 0.000940902 6.15509e-05)
(-2.47259e-05 0.000946765 5.88974e-05)
(-2.15451e-05 0.00095248 5.76575e-05)
(-1.82127e-05 0.000957726 5.77378e-05)
(-1.485e-05 0.000962734 5.92e-05)
(-1.15467e-05 0.000966997 6.18322e-05)
(-8.4104e-06 0.000970573 6.55826e-05)
(-5.51017e-06 0.00097275 7.01282e-05)
(-2.92596e-06 0.000973366 7.53188e-05)
(-6.96214e-07 0.000971422 8.07477e-05)
(1.14216e-06 0.000966417 8.61919e-05)
(2.5789e-06 0.00095695 9.11602e-05)
(3.61645e-06 0.000942005 9.53489e-05)
(4.27391e-06 0.000919507 9.81774e-05)
(4.57835e-06 0.000887535 9.92439e-05)
(4.54161e-06 0.000842797 9.77683e-05)
(4.13449e-06 0.000781704 9.27613e-05)
(3.31326e-06 0.000698778 8.22609e-05)
(2.4312e-06 0.000587372 6.55887e-05)
(1.74774e-06 0.000341255 3.5031e-05)
(-4.52794e-06 0.00028099 4.77112e-05)
(-8.17467e-06 0.000489531 8.59043e-05)
(-1.27499e-05 0.000585257 0.000104212)
(-1.82389e-05 0.000657595 0.000114732)
(-2.3167e-05 0.000712484 0.000118987)
(-2.7422e-05 0.000753984 0.000119018)
(-3.10375e-05 0.000785533 0.000116158)
(-3.39369e-05 0.000809349 0.000111155)
(-3.60623e-05 0.000827522 0.000104703)
(-3.73418e-05 0.000841264 9.72968e-05)
(-3.77779e-05 0.00085193 8.95098e-05)
(-3.73547e-05 0.000860165 8.1732e-05)
(-3.61344e-05 0.000866903 7.44366e-05)
(-3.41537e-05 0.000872444 6.79038e-05)
(-3.15189e-05 0.000877447 6.24894e-05)
(-2.83151e-05 0.000881964 5.83535e-05)
(-2.46807e-05 0.000886448 5.57251e-05)
(-2.07283e-05 0.00089074 5.46328e-05)
(-1.66122e-05 0.000895106 5.51682e-05)
(-1.24541e-05 0.000899192 5.72211e-05)
(-8.40388e-06 0.000903072 6.07443e-05)
(-4.56746e-06 0.000906193 6.54935e-05)
(-1.06169e-06 0.000908423 7.1293e-05)
(2.03489e-06 0.000908976 7.77775e-05)
(4.64366e-06 0.000907468 8.46583e-05)
(6.72632e-06 0.000902806 9.14657e-05)
(8.25028e-06 0.000894233 9.78147e-05)
(9.21388e-06 0.000880183 0.000103152)
(9.63029e-06 0.000859279 0.000107011)
(9.52582e-06 0.000829137 0.000108746)
(8.91129e-06 0.000787274 0.000107665)
(7.73287e-06 0.000729815 0.000102528)
(5.94857e-06 0.000652255 9.14209e-05)
(4.13948e-06 0.000547965 7.31192e-05)
(2.6837e-06 0.000318294 3.65026e-05)
(-3.79163e-06 0.000274281 2.42546e-05)
(-7.2856e-06 0.000474004 5.84969e-05)
(-1.18132e-05 0.000565216 7.63152e-05)
(-1.73816e-05 0.000633797 8.66165e-05)
(-2.24931e-05 0.000685139 9.04152e-05)
(-2.69999e-05 0.000723468 8.99181e-05)
(-3.08365e-05 0.000751744 8.6366e-05)
(-3.39187e-05 0.00077252 8.06001e-05)
(-3.612e-05 0.000787461 7.31948e-05)
(-3.73834e-05 0.000798201 6.47712e-05)
(-3.76482e-05 0.0008057 5.58232e-05)
(-3.69345e-05 0.000811079 4.69047e-05)
(-3.52623e-05 0.000814886 3.84449e-05)
(-3.27187e-05 0.000817922 3.09125e-05)
(-2.93923e-05 0.000820455 2.46294e-05)
(-2.54266e-05 0.000823042 1.99307e-05)
(-2.09621e-05 0.000825716 1.69882e-05)
(-1.6179e-05 0.000828813 1.59712e-05)
(-1.12398e-05 0.000832145 1.68809e-05)
(-6.33737e-06 0.000835829 1.97064e-05)
(-1.63106e-06 0.000839454 2.42724e-05)
(2.71331e-06 0.000842918 3.03918e-05)
(6.56742e-06 0.00084558 3.77248e-05)
(9.80992e-06 0.000847098 4.5933e-05)
(1.23646e-05 0.000846577 5.45498e-05)
(1.41734e-05 0.000843382 6.31349e-05)
(1.52195e-05 0.000836275 7.11577e-05)
(1.55057e-05 0.000824186 7.81276e-05)
(1.50773e-05 0.000805326 8.34637e-05)
(1.39957e-05 0.000777871 8.66157e-05)
(1.23133e-05 0.000739049 8.68171e-05)
(1.00385e-05 0.000685649 8.29495e-05)
(7.20616e-06 0.000613109 7.30653e-05)
(4.65006e-06 0.000515625 5.61852e-05)
(2.69033e-06 0.000300549 2.27256e-05)
(-2.55811e-06 0.000276248 -2.87261e-06)
(-5.68183e-06 0.000473236 2.01212e-05)
(-9.97717e-06 0.000562819 3.37639e-05)
(-1.54745e-05 0.000629425 4.11789e-05)
(-2.0759e-05 0.000678653 4.2767e-05)
(-2.55361e-05 0.000714405 4.03755e-05)
(-2.96834e-05 0.000739966 3.51362e-05)
(-3.30271e-05 0.000757602 2.76912e-05)
(-3.54348e-05 0.000769366 1.86054e-05)
(-3.67836e-05 0.000776626 8.38689e-06)
(-3.7024e-05 0.000780771 -2.41137e-06)
(-3.61265e-05 0.000782665 -1.3278e-05)
(-3.41381e-05 0.000783312 -2.3624e-05)
(-3.11261e-05 0.000783254 -3.29256e-05)
(-2.72228e-05 0.000783218 -4.06333e-05)
(-2.25825e-05 0.000783477 -4.63596e-05)
(-1.74001e-05 0.000784481 -4.9873e-05)
(-1.18769e-05 0.000786243 -5.10313e-05)
(-6.23814e-06 0.000788963 -4.97297e-05)
(-7.00604e-07 0.000792388 -4.60448e-05)
(4.51743e-06 0.000796453 -4.01132e-05)
(9.22506e-06 0.000800644 -3.22375e-05)
(1.32505e-05 0.000804627 -2.28164e-05)
(1.64587e-05 0.000807627 -1.23785e-05)
(1.87607e-05 0.000809036 -1.49921e-06)
(2.01092e-05 0.000807793 9.2326e-06)
(2.05034e-05 0.000802965 1.93768e-05)
(1.99746e-05 0.000793083 2.83934e-05)
(1.8609e-05 0.000776678 3.57641e-05)
(1.65049e-05 0.000751589 4.09664e-05)
(1.37914e-05 0.000715409 4.33907e-05)
(1.05565e-05 0.00066469 4.20558e-05)
(6.98748e-06 0.000595315 3.53565e-05)
(4.04673e-06 0.000501424 2.28443e-05)
(1.94315e-06 0.000293828 3.75026e-08)
(-1.32238e-06 0.000288875 -2.83314e-05)
(-4.13339e-06 0.000491434 -1.91436e-05)
(-8.10138e-06 0.000582969 -1.12883e-05)
(-1.3474e-05 0.000650373 -7.866e-06)
(-1.88628e-05 0.000699201 -9.25896e-06)
(-2.38859e-05 0.000733782 -1.40616e-05)
(-2.83137e-05 0.000757314 -2.14529e-05)
(-3.19438e-05 0.000772474 -3.09505e-05)
(-3.4583e-05 0.000781204 -4.21491e-05)
(-3.60943e-05 0.000785281 -5.46298e-05)
(-3.63781e-05 0.000785965 -6.79494e-05)
(-3.54109e-05 0.000784524 -8.15164e-05)
(-3.32117e-05 0.000781818 -9.45453e-05)
(-2.98689e-05 0.000778795 -0.000106208)
(-2.55173e-05 0.000776013 -0.000115859)
(-2.03562e-05 0.000774117 -0.000123047)
(-1.46113e-05 0.000773373 -0.000127443)
(-8.51986e-06 0.000774126 -0.000128917)
(-2.33993e-06 0.000776323 -0.000127449)
(3.68228e-06 0.000779983 -0.000123067)
(9.3012e-06 0.000784734 -0.000115897)
(1.42805e-05 0.000790273 -0.00010617)
(1.84167e-05 0.000795908 -9.42978e-05)
(2.15573e-05 0.000801023 -8.09605e-05)
(2.35946e-05 0.000804633 -6.70158e-05)
(2.44907e-05 0.00080582 -5.33019e-05)
(2.42645e-05 0.000803278 -4.05229e-05)
(2.29869e-05 0.000795695 -2.91118e-05)
(2.07758e-05 0.000781261 -1.94517e-05)
(1.77972e-05 0.000757958 -1.19248e-05)
(1.4226e-05 0.000723037 -6.94131e-06)
(1.02601e-05 0.00067318 -5.20334e-06)
(6.20448e-06 0.00060395 -7.87538e-06)
(3.14404e-06 0.000509623 -1.4672e-05)
(1.00311e-06 0.000300064 -2.38761e-05)
(-4.07473e-07 0.000312549 -4.60961e-05)
(-3.02737e-06 0.00052808 -4.89715e-05)
(-6.65545e-06 0.000625076 -4.66459e-05)
(-1.18177e-05 0.000695729 -4.71442e-05)
(-1.71813e-05 0.000746129 -5.14337e-05)
(-2.22668e-05 0.000780799 -5.8593e-05)
(-2.68127e-05 0.000803386 -6.81012e-05)
(-3.05645e-05 0.000816651 -7.96698e-05)
(-3.33157e-05 0.000822937 -9.30648e-05)
(-3.48768e-05 0.000824043 -0.000108017)
(-3.51422e-05 0.000821599 -0.000124053)
(-3.4066e-05 0.000816855 -0.000140285)
(-3.16855e-05 0.000811023 -0.000155577)
(-2.8103e-05 0.000805001 -0.000168907)
(-2.3486e-05 0.000799688 -0.000179618)
(-1.8045e-05 0.000795664 -0.0001874)
(-1.203e-05 0.000793465 -0.000192114)
(-5.68985e-06 0.000793279 -0.00019368)
(7.13585e-07 0.000795264 -0.000192065)
(6.91906e-06 0.000799238 -0.000187277)
(1.26733e-05 0.000804979 -0.000179374)
(1.77203e-05 0.000811935 -0.000168478)
(2.18457e-05 0.00081951 -0.000154917)
(2.48714e-05 0.000826794 -0.000139365)
(2.66812e-05 0.000832855 -0.000122854)
(2.72254e-05 0.000836461 -0.000106558)
(2.65397e-05 0.000836323 -9.14001e-05)
(2.47134e-05 0.000830779 -7.78504e-05)
(2.1919e-05 0.000817971 -6.61411e-05)
(1.83424e-05 0.000795523 -5.64761e-05)
(1.42234e-05 0.000760626 -4.91217e-05)
(9.79809e-06 0.000709591 -4.45099e-05)
(5.48669e-06 0.000637824 -4.33966e-05)
(2.43354e-06 0.000539166 -4.4898e-05)
(2.37938e-07 0.000319217 -4.20937e-05)
(2.13347e-08 0.000343844 -5.41109e-05)
(-2.58227e-06 0.000576401 -6.42485e-05)
(-5.91275e-06 0.000680715 -6.55309e-05)
(-1.08508e-05 0.000756182 -6.86098e-05)
(-1.60466e-05 0.000809297 -7.47521e-05)
(-2.10262e-05 0.000845113 -8.34022e-05)
(-2.5487e-05 0.000867513 -9.42619e-05)
(-2.91901e-05 0.000879664 -0.000107222)
(-3.18817e-05 0.000884046 -0.000122201)
(-3.33695e-05 0.000882805 -0.000138982)
(-3.35311e-05 0.000877653 -0.000156917)
(-3.2337e-05 0.000870154 -0.000174853)
(-2.98268e-05 0.000861574 -0.000191443)
(-2.61194e-05 0.00085309 -0.000205643)
(-2.13943e-05 0.0008456 -0.000216864)
(-1.58802e-05 0.000839896 -0.000224916)
(-9.81764e-06 0.000836462 -0.000229756)
(-3.4583e-06 0.000835662 -0.000231382)
(2.93942e-06 0.000837549 -0.000229771)
(9.12136e-06 0.000842057 -0.000224936)
(1.48324e-05 0.000848807 -0.00021686)
(1.98275e-05 0.000857302 -0.000205573)
(2.38715e-05 0.000866737 -0.000191253)
(2.67801e-05 0.000876194 -0.000174488)
(2.84248e-05 0.000884486 -0.000156335)
(2.87596e-05 0.000890322 -0.000138166)
(2.78054e-05 0.000892126 -0.000121162)
(2.56802e-05 0.000888161 -0.000106)
(2.25635e-05 0.000876267 -9.28815e-05)
(1.8693e-05 0.000853936 -8.18701e-05)
(1.42945e-05 0.000817982 -7.30504e-05)
(9.66105e-06 0.000764486 -6.66595e-05)
(5.23345e-06 0.000688368 -6.31425e-05)
(2.24047e-06 0.000583089 -6.12961e-05)
(-1.11144e-07 0.00034767 -5.11966e-05)
(3.7066e-08 0.000379099 -5.35411e-05)
(-2.65818e-06 0.00062972 -6.55536e-05)
(-5.84749e-06 0.000741947 -6.80361e-05)
(-1.06524e-05 0.00082269 -7.2004e-05)
(-1.57205e-05 0.000879018 -7.87694e-05)
(-2.05639e-05 0.000916363 -8.7917e-05)
(-2.4903e-05 0.000939019 -9.92674e-05)
(-2.84852e-05 0.000950389 -0.000112794)
(-3.10567e-05 0.000953279 -0.000128529)
(-3.24136e-05 0.000949992 -0.000146236)
(-3.24488e-05 0.000942515 -0.000165085)
(-3.1129e-05 0.000932535 -0.000183683)
(-2.85103e-05 0.000921555 -0.000200608)
(-2.472e-05 0.000910835 -0.000214837)
(-1.99478e-05 0.00090146 -0.000225936)
(-1.44192e-05 0.000894253 -0.000233822)
(-8.37475e-06 0.000889829 -0.000238552)
(-2.05792e-06 0.000888529 -0.000240138)
(4.28347e-06 0.000890484 -0.000238597)
(1.04009e-05 0.000895557 -0.000233904)
(1.60521e-05 0.000903396 -0.000226037)
(2.09892e-05 0.000913381 -0.000214926)
(2.49887e-05 0.000924677 -0.000200646)
(2.78531e-05 0.000936192 -0.000183628)
(2.94494e-05 0.000946656 -0.000164901)
(2.97171e-05 0.000954554 -0.000145904)
(2.86838e-05 0.000958188 -0.000128052)
(2.64508e-05 0.000955561 -0.000112187)
(2.32149e-05 0.000944355 -9.85477e-05)
(1.92212e-05 0.000921752 -8.70871e-05)
(1.47183e-05 0.000884333 -7.78139e-05)
(9.97627e-06 0.000827792 -7.08709e-05)
(5.46451e-06 0.000746671 -6.66023e-05)
(2.46849e-06 0.000633887 -6.37389e-05)
(-8.73113e-08 0.000381253 -5.16881e-05)
(-2.43927e-07 0.000414514 -4.6849e-05)
(-3.10869e-06 0.000682145 -5.62201e-05)
(-6.31135e-06 0.000801818 -5.77677e-05)
(-1.11189e-05 0.000887563 -6.11403e-05)
(-1.61311e-05 0.000946909 -6.74599e-05)
(-2.08877e-05 0.000985716 -7.62913e-05)
(-2.51145e-05 0.00100858 -8.74299e-05)
(-2.85724e-05 0.00101922 -0.000100898)
(-3.1001e-05 0.00102065 -0.000116732)
(-3.22123e-05 0.00101542 -0.000134635)
(-3.21013e-05 0.0010057 -0.000153605)
(-3.06454e-05 0.000993391 -0.000172127)
(-2.79039e-05 0.000980118 -0.000188747)
(-2.40229e-05 0.000967317 -0.00020255)
(-1.91912e-05 0.000956164 -0.000213211)
(-1.36319e-05 0.000947599 -0.000220752)
(-7.57677e-06 0.000942274 -0.000225258)
(-1.2665e-06 0.000940599 -0.000226776)
(5.06053e-06 0.00094269 -0.000225315)
(1.11603e-05 0.000948426 -0.000220861)
(1.67938e-05 0.000957394 -0.000213361)
(2.17298e-05 0.000968937 -0.000202722)
(2.57373e-05 0.000982109 -0.000188914)
(2.86274e-05 0.000995727 -0.000172262)
(3.02545e-05 0.00100836 -0.000153684)
(3.05535e-05 0.00101835 -0.000134642)
(2.95396e-05 0.00102381 -0.000116665)
(2.73201e-05 0.00102256 -0.000100759)
(2.40737e-05 0.00101204 -8.72243e-05)
(2.00584e-05 0.000989224 -7.60166e-05)
(1.55119e-05 0.000950388 -6.71007e-05)
(1.07e-05 0.000890924 -6.06533e-05)
(6.07017e-06 0.000804959 -5.70628e-05)
(2.98867e-06 0.000684953 -5.52304e-05)
(2.11529e-07 0.00041575 -4.57427e-05)
(-7.11674e-07 0.000447299 -3.64606e-05)
(-3.77939e-06 0.000729503 -4.00883e-05)
(-7.12626e-06 0.000855523 -3.92224e-05)
(-1.20431e-05 0.000945442 -4.09588e-05)
(-1.70785e-05 0.0010072 -4.61145e-05)
(-2.17953e-05 0.00104701 -5.4064e-05)
(-2.59485e-05 0.00106974 -6.45293e-05)
(-2.92974e-05 0.00107936 -7.74923e-05)
(-3.15981e-05 0.00107912 -9.29667e-05)
(-3.26669e-05 0.00107178 -0.00011054)
(-3.24104e-05 0.0010597 -0.000129116)
(-3.08118e-05 0.00104493 -0.00014711)
(-2.79421e-05 0.0010293 -0.00016311)
(-2.39428e-05 0.00101435 -0.000176281)
(-1.90104e-05 0.0010014 -0.000186403)
(-1.33673e-05 0.000991454 -0.000193538)
(-7.23976e-06 0.000985253 -0.000197801)
(-8.646e-07 0.00098323 -0.000199235)
(5.52141e-06 0.000985527 -0.000197861)
(1.16772e-05 0.000992001 -0.000193654)
(1.73704e-05 0.00100221 -0.000186568)
(2.23709e-05 0.00101543 -0.000176485)
(2.64537e-05 0.00103062 -0.000163336)
(2.9426e-05 0.00104649 -0.000147341)
(3.11394e-05 0.00106147 -0.000129337)
(3.15185e-05 0.00107375 -0.000110739)
(3.05835e-05 0.00108126 -9.31384e-05)
(2.84253e-05 0.00108162 -7.76351e-05)
(2.52193e-05 0.00107209 -6.46408e-05)
(2.12132e-05 0.00104941 -5.41361e-05)
(1.66425e-05 0.0010096 -4.61286e-05)
(1.17439e-05 0.00094778 -4.08758e-05)
(6.95217e-06 0.000857734 -3.89667e-05)
(3.69504e-06 0.000731517 -3.95974e-05)
(6.86185e-07 0.000447986 -3.58083e-05)
(-1.2579e-06 0.000475717 -2.48569e-05)
(-4.52899e-06 0.000769298 -2.13701e-05)
(-8.08473e-06 0.000900187 -1.74037e-05)
(-1.31729e-05 0.000993161 -1.70304e-05)
(-1.82804e-05 0.00105648 -2.06896e-05)
(-2.29986e-05 0.0010966 -2.75101e-05)
(-2.71096e-05 0.00111866 -3.70713e-05)
(-3.03799e-05 0.00112682 -4.92973e-05)
(-3.25744e-05 0.00112454 -6.41376e-05)
(-3.35237e-05 0.00111476 -8.10935e-05)
(-3.31368e-05 0.00110002 -9.89973e-05)
(-3.14018e-05 0.00108257 -0.000116264)
(-2.83921e-05 0.00106435 -0.000131528)
(-2.42594e-05 0.00104708 -0.000144041)
(-1.91938e-05 0.00103218 -0.000153631)
(-1.34135e-05 0.00102077 -0.00016039)
(-7.15343e-06 0.00101364 -0.000164427)
(-6.46194e-07 0.00101127 -0.000165785)
(5.87119e-06 0.00101383 -0.000164482)
(1.21541e-05 0.00102114 -0.000160499)
(1.79662e-05 0.00103274 -0.00015379)
(2.3081e-05 0.00104781 -0.000144243)
(2.72761e-05 0.00106525 -0.000131764)
(3.03553e-05 0.00108363 -0.000116523)
(3.21714e-05 0.00110124 -9.92697e-05)
(3.26508e-05 0.00111612 -8.13709e-05)
(3.18007e-05 0.00112602 -6.44142e-05)
(2.97099e-05 0.00112839 -4.95683e-05)
(2.65482e-05 0.00112031 -3.73307e-05)
(2.25479e-05 0.00109829 -2.77473e-05)
(1.79394e-05 0.00105818 -2.08857e-05)
(1.29361e-05 0.000994838 -1.715e-05)
(7.94609e-06 0.000901798 -1.73817e-05)
(4.46305e-06 0.000770799 -2.11477e-05)
(1.23218e-06 0.000476054 -2.44691e-05)
(-1.74582e-06 0.000499284 -1.43956e-05)
(-5.18056e-06 0.000801096 -4.11986e-06)
(-8.95689e-06 0.000935388 2.8558e-06)
(-1.4226e-05 0.00103029 5.28144e-06)
(-1.94321e-05 0.00109429 3.07021e-06)
(-2.41863e-05 0.00113403 -2.65548e-06)
(-2.82924e-05 0.00115483 -1.13287e-05)
(-3.15253e-05 0.00116103 -2.28e-05)
(-3.36568e-05 0.00115626 -3.69457e-05)
(-3.45252e-05 0.00114364 -5.32023e-05)
(-3.40386e-05 0.00112587 -7.03637e-05)
(-3.21905e-05 0.00110536 -8.68748e-05)
(-2.90567e-05 0.00108425 -0.000101429)
(-2.47822e-05 0.00106438 -0.000113337)
(-1.95633e-05 0.0010473 -0.000122445)
(-1.36217e-05 0.00103424 -0.000128882)
(-7.18765e-06 0.00102608 -0.000132731)
(-5.02408e-07 0.00102334 -0.000134027)
(6.18739e-06 0.0010262 -0.000132779)