/*--------------------------------*- C++ -*----------------------------------*\
| =========                 |                                                 |
| \\      /  F ield         | OpenFOAM: The Open Source CFD Toolbox           |
|  \\    /   O peration     | Version:  v2006                                 |
|   \\  /    A nd           | Website:  www.openfoam.com                      |
|    \\/     M anipulation  |                                                 |
\*---------------------------------------------------------------------------*/
FoamFile
{
    version     2.0;
    format      ascii;
    class       volScalarField;
    location    "2";
    object      k;
}
// * * * * * * * * * * * * * * * * * * * * * * * * * * * * * * * * * * * * * //

dimensions      [0 2 -2 0 0 0 0];


internalField   nonuniform List<scalar> 
78750
(
0.00110337
0.000168359
0.000360103
0.000298977
0.000292442
0.000278883
0.000268212
0.000259069
0.000251068
0.000243945
0.000237645
0.000232081
0.000227189
0.000222871
0.000218986
0.0002154
0.000212002
0.000208706
0.000205414
0.000201999
0.000198295
0.000194159
0.000189479
0.000184167
0.00017814
0.0001713
0.000163532
0.000154792
0.000144831
0.000133641
0.000121688
0.000109981
9.58845e-05
6.8168e-05
2.1554e-05
0.000190178
0.000561902
0.000666981
0.000654761
0.000606867
0.000559934
0.000523661
0.00049748
0.000477274
0.000461024
0.000448145
0.000438235
0.000430772
0.000424792
0.000419518
0.000414536
0.000409329
0.000404
0.000398521
0.000392352
0.000384633
0.000375019
0.000363598
0.000350543
0.000336003
0.000320003
0.000302279
0.000282084
0.000257935
0.000228212
0.000192034
0.00015293
0.00012022
9.1985e-05
5.31548e-05
0.000185016
0.000294247
0.000315157
0.000290212
0.000254103
0.000229272
0.000217005
0.000212573
0.000211413
0.000211614
0.000212336
0.000213144
0.000213726
0.000213982
0.000214036
0.000213945
0.000213713
0.000213329
0.000212794
0.000212122
0.000211325
0.000210363
0.000209135
0.000207488
0.000205226
0.000202099
0.000197781
0.000191809
0.000183242
0.000170531
0.000152023
0.000128497
0.000107291
8.95105e-05
6.23808e-05
0.000161101
0.000215095
0.000229387
0.000226496
0.000222289
0.000225276
0.000232904
0.000241983
0.000250339
0.000256897
0.000261173
0.000263434
0.000264251
0.000264183
0.000263453
0.000262163
0.000260371
0.000258074
0.000255213
0.000251701
0.000247463
0.000242431
0.000236514
0.000229567
0.000221414
0.000211917
0.000201012
0.000188428
0.00017422
0.000158216
0.000140279
0.00012207
0.0001083
9.48865e-05
7.16503e-05
0.000168746
0.000191702
0.000195854
0.000193679
0.000192871
0.000194551
0.000196709
0.000198503
0.000200248
0.000202658
0.000205518
0.000208386
0.000210881
0.000212785
0.000214087
0.000214806
0.000214923
0.00021446
0.000213445
0.000211873
0.000209665
0.000206693
0.000202768
0.000197648
0.000191102
0.000182977
0.000173045
0.000161651
0.000149477
0.000136993
0.000124893
0.000114684
0.000107729
9.68454e-05
7.43915e-05
0.000162968
0.000176963
0.00017294
0.000164604
0.0001617
0.000164461
0.000170265
0.000177635
0.000185767
0.000193643
0.000200604
0.000206185
0.00021032
0.000213177
0.00021502
0.000216072
0.000216386
0.000215949
0.000214734
0.000212782
0.000210063
0.000206476
0.000201854
0.000195965
0.000188578
0.0001795
0.000168491
0.000156096
0.000143488
0.000131983
0.00012257
0.00011565
0.000109217
9.53678e-05
6.80797e-05
0.000162913
0.00017177
0.000163963
0.000152473
0.000148902
0.000153176
0.000160872
0.00016941
0.000177764
0.000185169
0.000191252
0.00019586
0.000199139
0.00020134
0.000202724
0.000203465
0.000203593
0.000203223
0.000202317
0.000200724
0.000198394
0.000195222
0.000191033
0.00018559
0.000178652
0.00017004
0.000159617
0.00014805
0.000136818
0.000127286
0.000119835
0.00011352
0.000105042
8.84949e-05
6.00547e-05
0.000161213
0.000171132
0.000163816
0.000150929
0.000144841
0.000146976
0.000153188
0.000161036
0.000169495
0.000177398
0.000183894
0.000188936
0.000192643
0.000195242
0.000196982
0.000198037
0.000198437
0.000198297
0.000197601
0.000196231
0.000194111
0.00019117
0.000187288
0.000182286
0.000175941
0.000168045
0.0001584
0.000147419
0.000136217
0.00012656
0.000118469
0.000110216
9.8509e-05
7.95145e-05
5.06266e-05
0.000154838
0.000170052
0.000166959
0.000155533
0.000147126
0.000145966
0.000149729
0.00015627
0.000164309
0.000172162
0.000178669
0.000183635
0.000187197
0.000189626
0.000191199
0.000192102
0.000192426
0.000192276
0.000191638
0.000190399
0.000188434
0.000185681
0.00018203
0.000177324
0.000171358
0.000163935
0.000154887
0.000144439
0.00013342
0.000123468
0.00011431
0.000103998
9.00608e-05
7.03543e-05
4.30072e-05
0.000144908
0.00016556
0.000167677
0.000159389
0.000150074
0.000146092
0.000147287
0.000152168
0.000159482
0.000167106
0.000173551
0.00017854
0.000182178
0.000184723
0.000186435
0.000187484
0.000187966
0.000187974
0.000187506
0.000186467
0.000184711
0.000182208
0.000178876
0.000174596
0.000169187
0.000162421
0.000154086
0.000144159
0.000133088
0.000122088
0.000111447
9.91432e-05
8.33254e-05
6.30751e-05
3.65456e-05
0.000134291
0.000157848
0.000164315
0.000159891
0.000151618
0.000146392
0.000145789
0.000149148
0.000155541
0.000162866
0.00016928
0.000174295
0.000177957
0.000180512
0.000182229
0.00018328
0.000183779
0.000183818
0.0001834
0.000182444
0.000180807
0.000178447
0.000175287
0.000171233
0.000166126
0.000159737
0.000151843
0.00014228
0.000131302
0.000119709
0.000108092
9.45221e-05
7.76889e-05
5.74486e-05
3.18372e-05
0.000124944
0.000148717
0.000157908
0.000156876
0.000150767
0.000145802
0.000144498
0.000146931
0.0001526
0.000159555
0.000165781
0.000170696
0.000174311
0.000176862
0.000178605
0.0001797
0.000180259
0.000180364
0.000180023
0.000179169
0.00017768
0.00017549
0.000172535
0.000168744
0.000163989
0.000158033
0.000150598
0.00014145
0.000130606
0.000118493
0.000106027
9.14743e-05
7.38034e-05
5.34578e-05
2.81567e-05
0.000117503
0.000139889
0.000150455
0.00015209
0.000148503
0.000144634
0.000143288
0.000145112
0.000150055
0.000156618
0.000162664
0.000167492
0.000171068
0.00017361
0.000175364
0.000176484
0.000177081
0.000177231
0.00017694
0.000176154
0.000174761
0.000172674
0.000169832
0.000166185
0.000161634
0.000155947
0.000148816
0.000139967
0.000129285
0.000116997
0.000103995
8.88722e-05
7.07657e-05
5.04755e-05
2.54779e-05
0.000111803
0.000132395
0.000143513
0.000147051
0.000145714
0.000143154
0.000142122
0.00014367
0.000148115
0.000154367
0.000160212
0.000164911
0.000168412
0.000170921
0.000172675
0.000173817
0.000174453
0.000174648
0.000174408
0.000173686
0.000172382
0.000170392
0.000167658
0.000164144
0.000159782
0.00015435
0.000147511
0.000138941
0.000128428
0.000116072
0.000102607
8.7069e-05
6.86159e-05
4.83159e-05
2.34001e-05
0.000107504
0.000126472
0.000137748
0.000142605
0.000143069
0.000141702
0.000141058
0.000142439
0.000146429
0.000152387
0.000158041
0.000162621
0.000166053
0.000168533
0.000170286
0.000171444
0.000172111
0.00017234
0.000172135
0.000171454
0.000170209
0.000168282
0.00016562
0.000162184
0.000157938
0.000152688
0.000146068
0.000137718
0.000127365
0.000115026
0.000101312
8.55505e-05
6.69285e-05
4.66695e-05
2.18487e-05
0.000104228
0.000121957
0.000133243
0.000138995
0.000140794
0.000140385
0.000140102
0.000141401
0.000145062
0.000150772
0.000156248
0.000160709
0.000164069
0.000166516
0.000168263
0.000169435
0.000170127
0.00017038
0.000170198
0.000169545
0.00016834
0.000166468
0.000163873
0.000160506
0.000156355
0.000151259
0.000144836
0.000136683
0.000126488
0.000114192
0.000100309
8.44051e-05
6.56688e-05
4.54255e-05
2.06293e-05
0.000101705
0.00011854
0.000129796
0.000136161
0.000138929
0.000139251
0.000139259
0.000140495
0.000143865
0.000149347
0.000154659
0.00015901
0.000162306
0.000164723
0.000166468
0.000167654
0.000168368
0.000168641
0.000168477
0.000167843
0.000166666
0.00016484
0.000162297
0.000158985
0.0001549
0.000149915
0.000143649
0.000135662
0.000125608
0.000113377
9.9413e-05
8.34415e-05
6.46635e-05
4.44481e-05
1.96799e-05
9.97105e-05
0.00011593
0.000127163
0.000133957
0.00013742
0.000138287
0.000138523
0.000139713
0.000142853
0.000148141
0.000153307
0.000157558
0.000160791
0.000163177
0.000164919
0.000166122
0.000166857
0.00016715
0.000167004
0.000166387
0.000165233
0.000163445
0.000160945
0.00015768
0.000153645
0.000148742
0.00014261
0.000134768
0.00012484
0.000112678
9.86722e-05
8.26668e-05
6.38758e-05
4.36781e-05
1.89155e-05
9.80887e-05
0.000113891
0.000125116
0.000132219
0.000136191
0.000137467
0.00013788
0.000139033
0.000141973
0.000147087
0.000152121
0.00015628
0.000159456
0.000161813
0.000163553
0.000164773
0.000165529
0.000165841
0.000165711
0.000165109
0.000163975
0.000162217
0.00015975
0.000156521
0.00015252
0.000147679
0.000141656
0.000133938
0.000124126
0.00011204
9.80277e-05
8.20169e-05
6.32396e-05
4.30594e-05
1.82997e-05
9.67386e-05
0.000112255
0.000123485
0.000130819
0.000135172
0.000136764
0.00013732
0.000138442
0.000141216
0.000146176
0.000151095
0.000155173
0.0001583
0.000160633
0.00016237
0.000163603
0.000164375
0.000164701
0.000164582
0.00016399
0.000162869
0.000161134
0.000158693
0.000155494
0.00015152
0.000146728
0.000140797
0.000133189
0.000123484
0.000111474
9.74757e-05
8.14748e-05
6.27278e-05
4.25584e-05
1.77889e-05
9.55934e-05
0.000110911
0.000122154
0.000129665
0.000134313
0.000136155
0.000136825
0.000137921
0.000140551
0.000145373
0.000150188
0.000154193
0.000157277
0.00015959
0.000161325
0.000162571
0.000163357
0.000163695
0.000163584
0.000163001
0.00016189
0.000160173
0.000157752
0.000154578
0.000150627
0.000145876
0.000140021
0.00013251
0.000122903
0.00011097
9.7e-05
8.10188e-05
6.23051e-05
4.21467e-05
1.73665e-05
9.46121e-05
0.000109785
0.000121044
0.000128698
0.000133579
0.000135623
0.000136387
0.000137459
0.000139973
0.000144666
0.000149388
0.000153329
0.000156374
0.000158671
0.000160406
0.000161662
0.000162459
0.000162807
0.000162703
0.000162124
0.000161019
0.000159313
0.000156912
0.00015376
0.000149831
0.000145113
0.000139323
0.0001319
0.000122384
0.000110526
9.65928e-05
8.0637e-05
6.19566e-05
4.18075e-05
1.70133e-05
9.37634e-05
0.00010883
0.000120107
0.000127875
0.000132946
0.000135154
0.000135997
0.000137049
0.000139463
0.000144037
0.000148676
0.00015256
0.000155571
0.000157853
0.000159589
0.000160856
0.000161664
0.00016202
0.000161923
0.000161349
0.000160249
0.000158552
0.000156168
0.000153036
0.000149124
0.000144432
0.000138695
0.000131351
0.000121919
0.000110133
9.62417e-05
8.03156e-05
6.16686e-05
4.15273e-05
1.67162e-05
9.30186e-05
0.000108006
0.000119302
0.000127165
0.000132391
0.000134736
0.000135646
0.000136682
0.000139012
0.000143477
0.00014804
0.000151873
0.000154853
0.000157125
0.000158863
0.000160139
0.000160956
0.00016132
0.000161229
0.000160659
0.000159563
0.000157874
0.000155504
0.000152387
0.000148489
0.000143817
0.000138124
0.000130847
0.000121489
0.000109771
9.59247e-05
8.00313e-05
6.14189e-05
4.12873e-05
1.64622e-05
9.23538e-05
0.000107285
0.0001186
0.000126543
0.000131899
0.00013436
0.000135328
0.000136351
0.00013861
0.000142974
0.000147469
0.000151256
0.000154209
0.000156472
0.000158213
0.000159497
0.000160322
0.000160694
0.000160608
0.000160041
0.00015895
0.000157267
0.000154909
0.000151805
0.000147919
0.000143261
0.000137602
0.000130386
0.000121095
0.000109439
9.56366e-05
7.97759e-05
6.11975e-05
4.10765e-05
1.62406e-05
9.17529e-05
0.000106644
0.000117979
0.00012599
0.000131457
0.00013402
0.000135039
0.000136054
0.000138251
0.000142523
0.000146955
0.000150701
0.000153628
0.000155885
0.000157629
0.00015892
0.000159753
0.000160132
0.00016005
0.000159486
0.000158398
0.00015672
0.000154372
0.000151279
0.000147402
0.000142755
0.000137125
0.000129962
0.000120732
0.000109134
9.53734e-05
7.95442e-05
6.09983e-05
4.08882e-05
1.60438e-05
9.12024e-05
0.000106066
0.000117421
0.000125491
0.000131056
0.000133708
0.000134774
0.000135782
0.000137927
0.000142115
0.00014649
0.000150197
0.000153102
0.000155352
0.0001571
0.000158398
0.000159239
0.000159623
0.000159546
0.000158985
0.000157899
0.000156226
0.000153886
0.000150802
0.000146935
0.000142295
0.000136688
0.000129574
0.000120399
0.000108854
9.51339e-05
7.93348e-05
6.08191e-05
4.07189e-05
1.58667e-05
9.06973e-05
0.000105543
0.000116916
0.000125041
0.000130691
0.000133422
0.00013453
0.000135535
0.000137635
0.000141746
0.000146069
0.000149741
0.000152625
0.00015487
0.00015662
0.000157925
0.000158772
0.000159162
0.000159088
0.00015853
0.000157446
0.000155775
0.000153442
0.000150366
0.000146507
0.000141873
0.000136286
0.000129217
0.000120092
0.000108597
9.49146e-05
7.91438e-05
6.06563e-05
4.05651e-05
1.57058e-05
9.02256e-05
0.000105059
0.000116453
0.000124625
0.000130352
0.000133155
0.000134304
0.000135308
0.000137368
0.000141409
0.000145684
0.000149325
0.00015219
0.000154429
0.000156183
0.000157493
0.000158347
0.000158742
0.000158671
0.000158115
0.000157032
0.000155365
0.000153037
0.000149968
0.000146116
0.000141487
0.000135916
0.000128886
0.000119807
0.000108358
9.47115e-05
7.89674e-05
6.0506e-05
4.04231e-05
1.55569e-05
8.97888e-05
0.000104614
0.000116027
0.000124244
0.00013004
0.000132908
0.000134094
0.000135099
0.000137125
0.000141103
0.000145333
0.000148945
0.000151792
0.000154026
0.000155783
0.000157099
0.000157958
0.000158357
0.00015829
0.000157735
0.000156654
0.000154989
0.000152665
0.000149602
0.000145756
0.00014113
0.000135573
0.000128579
0.000119543
0.000108136
9.45229e-05
7.88037e-05
6.03666e-05
4.02909e-05
1.54184e-05
8.93767e-05
0.000104198
0.000115631
0.000123888
0.000129748
0.000132677
0.000133898
0.000134905
0.000136902
0.000140822
0.000145011
0.000148595
0.000151425
0.000153655
0.000155416
0.000156737
0.000157601
0.000158005
0.000157941
0.000157388
0.000156309
0.000154645
0.000152325
0.000149269
0.000145429
0.000140805
0.00013526
0.000128298
0.000119301
0.000107935
9.4352e-05
7.86554e-05
6.02398e-05
4.01694e-05
1.52896e-05
8.89913e-05
0.00010381
0.000115263
0.000123559
0.000129477
0.00013246
0.000133715
0.000134726
0.000136698
0.000140564
0.000144715
0.000148274
0.000151089
0.000153313
0.000155078
0.000156403
0.000157272
0.000157679
0.000157618
0.000157067
0.000155989
0.000154328
0.000152011
0.00014896
0.000145125
0.000140503
0.000134969
0.000128036
0.000119076
0.000107748
9.41937e-05
7.85183e-05
6.01224e-05
4.00567e-05
1.51701e-05
8.86319e-05
0.000103449
0.00011492
0.000123251
0.000129224
0.000132258
0.000133544
0.00013456
0.000136511
0.000140329
0.000144445
0.000147979
0.00015078
0.000153
0.000154767
0.000156096
0.000156969
0.000157379
0.00015732
0.000156771
0.000155695
0.000154035
0.000151721
0.000148676
0.000144845
0.000140224
0.0001347
0.000127795
0.000118869
0.000107576
9.40499e-05
7.83941e-05
6.00158e-05
3.99533e-05
1.50588e-05
8.82915e-05
0.00010311
0.000114599
0.000122964
0.000128986
0.000132067
0.000133384
0.000134405
0.000136337
0.000140111
0.000144193
0.000147705
0.000150492
0.000152708
0.000154478
0.000155811
0.000156687
0.000157101
0.000157044
0.000156497
0.000155422
0.000153764
0.000151454
0.000148413
0.000144585
0.000139966
0.000134451
0.00012757
0.000118678
0.000107419
9.39187e-05
7.82813e-05
5.99188e-05
3.98579e-05
1.49544e-05
8.7969e-05
0.000102791
0.000114298
0.000122694
0.000128762
0.000131888
0.000133232
0.00013426
0.000136175
0.000139907
0.000143959
0.00014745
0.000150224
0.000152437
0.00015421
0.000155546
0.000156426
0.000156843
0.000156789
0.000156243
0.00015517
0.000153514
0.000151206
0.00014817
0.000144346
0.000139727
0.00013422
0.000127362
0.000118501
0.000107275
9.37988e-05
7.81785e-05
5.98301e-05
3.97698e-05
1.48563e-05
8.76641e-05
0.000102491
0.000114015
0.000122441
0.000128553
0.00013172
0.000133091
0.000134125
0.000136024
0.000139719
0.000143741
0.000147212
0.000149976
0.000152185
0.00015396
0.0001553
0.000156183
0.000156603
0.000156551
0.000156007
0.000154935
0.000153281
0.000150977
0.000147945
0.000144124
0.000139506
0.000134007
0.000127171
0.000118338
0.000107143
9.36903e-05
7.80861e-05
5.97504e-05
3.96896e-05
1.47651e-05
8.73718e-05
0.000102208
0.000113751
0.000122204
0.000128356
0.000131561
0.000132957
0.000133997
0.000135884
0.000139543
0.000143539
0.000146992
0.000149745
0.000151951
0.000153728
0.000155071
0.000155957
0.000156379
0.000156329
0.000155787
0.000154717
0.000153066
0.000150763
0.000147735
0.000143918
0.000139301
0.000133809
0.000126993
0.000118189
0.000107023
9.35922e-05
7.80032e-05
5.96791e-05
3.96171e-05
1.46805e-05
8.70914e-05
0.000101938
0.000113498
0.000121979
0.000128169
0.00013141
0.00013283
0.000133877
0.000135752
0.000139379
0.000143349
0.000146784
0.000149527
0.00015173
0.00015351
0.000154855
0.000155744
0.000156168
0.00015612
0.00015558
0.000154511
0.000152861
0.000150561
0.000147537
0.000143723
0.000139107
0.00013362
0.000126824
0.000118046
0.000106908
9.3499e-05
7.79244e-05
5.96114e-05
3.95481e-05
1.45996e-05
8.68264e-05
0.000101686
0.000113264
0.00012177
0.000127995
0.000131269
0.000132711
0.000133765
0.00013563
0.000139227
0.000143173
0.000146592
0.000149324
0.000151525
0.000153306
0.000154654
0.000155545
0.000155971
0.000155925
0.000155385
0.000154318
0.00015267
0.000150372
0.000147351
0.00014354
0.000138924
0.000133443
0.000126664
0.000117911
0.0001068
9.34114e-05
7.7851e-05
5.95484e-05
3.94834e-05
1.45222e-05
8.65637e-05
0.00010144
0.000113036
0.000121566
0.000127825
0.000131132
0.000132597
0.000133658
0.000135512
0.000139081
0.000143004
0.000146407
0.000149131
0.000151329
0.000153113
0.000154463
0.000155356
0.000155785
0.00015574
0.000155202
0.000154136
0.00015249
0.000150195
0.000147176
0.000143368
0.000138753
0.000133277
0.000126514
0.000117785
0.0001067
9.33298e-05
7.77824e-05
5.94891e-05
3.94216e-05
1.44467e-05
8.63152e-05
0.000101209
0.000112824
0.000121378
0.00012767
0.000131006
0.000132491
0.000133558
0.000135404
0.000138946
0.000142848
0.000146235
0.00014895
0.000151146
0.000152931
0.000154283
0.000155178
0.000155609
0.000155565
0.000155029
0.000153964
0.000152319
0.000150026
0.000147009
0.000143204
0.000138589
0.000133117
0.000126369
0.000117662
0.000106601
9.32501e-05
7.77156e-05
5.94319e-05
3.93623e-05
1.43749e-05
8.60754e-05
0.000100989
0.000112622
0.000121198
0.00012752
0.000130885
0.000132389
0.000133463
0.000135301
0.000138819
0.000142701
0.000146073
0.00014878
0.000150974
0.000152761
0.000154114
0.000155011
0.000155444
0.000155402
0.000154866
0.000153803
0.000152159
0.000149868
0.000146854
0.000143051
0.000138436
0.000132967
0.000126234
0.000117548
0.000106509
9.31753e-05
7.76524e-05
5.93771e-05
3.93049e-05
1.43044e-05
8.58448e-05
0.000100779
0.00011243
0.000121029
0.00012738
0.000130771
0.000132294
0.000133374
0.000135205
0.000138699
0.00014256
0.000145919
0.000148618
0.00015081
0.000152598
0.000153953
0.000154852
0.000155286
0.000155245
0.000154711
0.000153649
0.000152006
0.000149716
0.000146705
0.000142904
0.000138289
0.000132823
0.000126103
0.000117438
0.000106422
9.31041e-05
7.75922e-05
5.93245e-05
3.92496e-05
1.42364e-05
8.56217e-05
0.000100579
0.000112249
0.000120869
0.000127246
0.000130663
0.000132202
0.000133289
0.000135113
0.000138586
0.000142429
0.000145774
0.000148466
0.000150655
0.000152445
0.000153802
0.000154702
0.000155137
0.000155098
0.000154565
0.000153504
0.000151862
0.000149575
0.000146565
0.000142766
0.000138151
0.000132688
0.00012598
0.000117335
0.00010634
9.30386e-05
7.7537e-05
5.92763e-05
3.91978e-05
1.41705e-05
8.54008e-05
0.000100384
0.000112075
0.000120716
0.00012712
0.00013056
0.000132116
0.000133208
0.000135026
0.000138478
0.000142303
0.000145635
0.000148319
0.000150507
0.000152298
0.000153657
0.000154559
0.000154995
0.000154957
0.000154425
0.000153365
0.000151725
0.000149439
0.000146431
0.000142635
0.00013802
0.00013256
0.000125863
0.000117238
0.000106264
9.29773e-05
7.74856e-05
5.92311e-05
3.91485e-05
1.41072e-05
8.51892e-05
0.000100201
0.000111911
0.000120572
0.000127001
0.000130463
0.000132034
0.000133132
0.000134946
0.000138379
0.000142186
0.000145505
0.000148182
0.000150369
0.000152161
0.00015352
0.000154423
0.000154861
0.000154823
0.000154292
0.000153233
0.000151594
0.00014931
0.000146304
0.000142509
0.000137894
0.000132436
0.00012575
0.000117142
0.000106189
9.29165e-05
7.74344e-05
5.91862e-05
3.91001e-05
1.40457e-05
8.49841e-05
0.000100022
0.000111753
0.000120435
0.000126887
0.000130371
0.000131956
0.00013306
0.000134868
0.000138283
0.000142074
0.00014538
0.000148051
0.000150235
0.000152028
0.000153389
0.000154293
0.000154732
0.000154695
0.000154165
0.000153107
0.00015147
0.000149187
0.000146184
0.000142391
0.000137776
0.00013232
0.000125645
0.000117056
0.000106122
9.28636e-05
7.73904e-05
5.9147e-05
3.90556e-05
1.39861e-05
8.47827e-05
9.98522e-05
0.000111603
0.000120304
0.000126779
0.000130282
0.000131881
0.000132991
0.000134795
0.000138192
0.000141968
0.000145262
0.000147926
0.000150109
0.000151903
0.000153265
0.00015417
0.00015461
0.000154574
0.000154045
0.000152988
0.000151352
0.000149071
0.000146069
0.000142278
0.000137663
0.000132209
0.000125544
0.000116971
0.000106057
9.28125e-05
7.73483e-05
5.91101e-05
3.90138e-05
1.39294e-05
8.45833e-05
9.96838e-05
0.000111455
0.000120175
0.000126673
0.000130196
0.000131809
0.000132925
0.000134724
0.000138105
0.000141865
0.000145147
0.000147805
0.000149988
0.000151783
0.000153146
0.000154052
0.000154493
0.000154458
0.00015393
0.000152874
0.000151239
0.00014896
0.00014596
0.000142171
0.000137556
0.000132104
0.000125449
0.000116894
0.000105998
9.27675e-05
7.73114e-05
5.90775e-05
3.89755e-05
1.38756e-05
8.43879e-05
9.95234e-05
0.000111316
0.000120055
0.000126574
0.000130116
0.000131742
0.000132863
0.00013466
0.000138025
0.00014177
0.000145041
0.000147693
0.000149874
0.00015167
0.000153033
0.00015394
0.000154381
0.000154347
0.00015382
0.000152764
0.000151131
0.000148852
0.000145854
0.000142066
0.000137451
0.000132001
0.000125354
0.000116815
0.000105937
9.27191e-05
7.72714e-05
5.90425e-05
3.89363e-05
1.38228e-05
8.42014e-05
9.93682e-05
0.000111181
0.000119939
0.000126479
0.000130038
0.000131677
0.000132803
0.000134596
0.000137947
0.000141677
0.000144937
0.000147583
0.000149763
0.000151559
0.000152924
0.000153831
0.000154273
0.00015424
0.000153713
0.000152658
0.000151026
0.000148749
0.000145752
0.000141966
0.000137351
0.000131901
0.000125263
0.00011674
0.000105879
9.26734e-05
7.72331e-05
5.90084e-05
3.88975e-05
1.37697e-05
8.4018e-05
9.92185e-05
0.000111053
0.000119829
0.000126389
0.000129965
0.000131615
0.000132747
0.000134537
0.000137874
0.000141591
0.00014484
0.00014748
0.000149659
0.000151455
0.00015282
0.000153728
0.000154171
0.000154138
0.000153611
0.000152557
0.000150925
0.000148649
0.000145654
0.000141869
0.000137254
0.000131806
0.000125175
0.000116667
0.000105822
9.26284e-05
7.71952e-05
5.89744e-05
3.88582e-05
1.3716e-05
8.38428e-05
9.90733e-05
0.000110927
0.00011972
0.0001263
0.000129893
0.000131555
0.000132693
0.00013448
0.000137803
0.000141506
0.000144744
0.000147378
0.000149556
0.000151353
0.000152718
0.000153627
0.00015407
0.000154038
0.000153512
0.000152459
0.000150828
0.000148554
0.000145561
0.000141778
0.000137163
0.000131716
0.000125094
0.000116602
0.000105775
9.25918e-05
7.71648e-05
5.8946e-05
3.88222e-05
1.36615e-05
8.36781e-05
9.89382e-05
0.00011081
0.00011962
0.000126218
0.000129826
0.000131499
0.000132641
0.000134426
0.000137735
0.000141425
0.000144653
0.000147281
0.000149459
0.000151256
0.000152622
0.000153532
0.000153975
0.000153943
0.000153418
0.000152366
0.000150736
0.000148464
0.000145472
0.000141691
0.000137077
0.000131631
0.000125017
0.000116541
0.00010573
9.25588e-05
7.7138e-05
5.89209e-05
3.87891e-05
1.36095e-05
8.35031e-05
9.87959e-05
0.000110687
0.000119514
0.000126131
0.000129755
0.00013144
0.000132588
0.00013437
0.000137666
0.000141344
0.000144562
0.000147186
0.000149363
0.000151161
0.000152528
0.000153438
0.000153882
0.000153852
0.000153327
0.000152276
0.000150648
0.000148378
0.000145389
0.00014161
0.000136996
0.000131552
0.000124946
0.000116485
0.000105691
9.25302e-05
7.71147e-05
5.88981e-05
3.87572e-05
1.35574e-05
8.33408e-05
9.86647e-05
0.000110576
0.000119419
0.000126054
0.000129693
0.000131389
0.000132541
0.000134321
0.000137604
0.000141268
0.000144477
0.000147095
0.000149271
0.00015107
0.000152437
0.000153348
0.000153793
0.000153762
0.000153238
0.000152188
0.000150562
0.000148292
0.000145305
0.000141528
0.000136915
0.000131472
0.000124873
0.000116428
0.000105651
9.25008e-05
7.70911e-05
5.88756e-05
3.87259e-05
1.35058e-05
8.31813e-05
9.85343e-05
0.000110463
0.000119323
0.000125975
0.000129629
0.000131336
0.000132493
0.000134271
0.000137543
0.000141196
0.000144395
0.000147009
0.000149184
0.000150984
0.000152351
0.000153263
0.000153708
0.000153679
0.000153156
0.000152107
0.000150482
0.000148214
0.000145229
0.000141454
0.000136843
0.000131401
0.000124808
0.000116379
0.000105617
9.24776e-05
7.70727e-05
5.8857e-05
3.86972e-05
1.34555e-05
8.3013e-05
9.84015e-05
0.000110351
0.000119228
0.000125899
0.000129569
0.000131286
0.000132448
0.000134223
0.000137482
0.000141123
0.000144312
0.000146922
0.000149097
0.000150897
0.000152266
0.000153178
0.000153625
0.000153597
0.000153075
0.000152027
0.000150404
0.000148138
0.000145156
0.000141383
0.000136773
0.000131332
0.000124747
0.000116333
0.000105588
9.24583e-05
7.70583e-05
5.88421e-05
3.86717e-05
1.34072e-05
8.28564e-05
9.82756e-05
0.000110245
0.000119138
0.000125827
0.000129512
0.000131239
0.000132406
0.00013418
0.000137429
0.000141058
0.000144237
0.000146843
0.000149017
0.000150817
0.000152186
0.000153099
0.000153547
0.000153519
0.000152998
0.000151951
0.000150329
0.000148065
0.000145084
0.000141313
0.000136704
0.000131264
0.000124685
0.000116285
0.000105555
9.24353e-05
7.70401e-05
5.88242e-05
3.86449e-05
1.33606e-05
8.26997e-05
9.81547e-05
0.000110145
0.000119056
0.000125761
0.000129459
0.000131195
0.000132366
0.000134136
0.000137374
0.000140991
0.000144162
0.000146763
0.000148937
0.000150738
0.000152108
0.000153022
0.00015347
0.000153443
0.000152923
0.000151878
0.000150257
0.000147996
0.000145017
0.000141249
0.000136641
0.000131202
0.000124631
0.000116245
0.00010553
9.242e-05
7.70292e-05
5.88124e-05
3.86227e-05
1.33161e-05
8.25357e-05
9.80306e-05
0.000110044
0.000118971
0.000125693
0.000129404
0.000131149
0.000132325
0.000134094
0.000137322
0.000140928
0.00014409
0.000146688
0.000148862
0.000150663
0.000152033
0.000152948
0.000153396
0.00015337
0.000152851
0.000151807
0.000150188
0.000147928
0.000144951
0.000141184
0.000136578
0.00013114
0.000124574
0.000116202
0.000105501
9.24012e-05
7.70152e-05
5.87985e-05
3.85998e-05
1.3273e-05
8.23825e-05
9.79129e-05
0.000109948
0.000118893
0.000125633
0.000129356
0.00013111
0.000132289
0.000134056
0.000137273
0.000140868
0.000144021
0.000146614
0.000148787
0.000150589
0.000151959
0.000152874
0.000153323
0.000153298
0.000152779
0.000151736
0.000150118
0.00014786
0.000144886
0.000141121
0.000136516
0.000131078
0.000124518
0.000116159
0.000105474
9.23837e-05
7.70031e-05
5.87867e-05
3.85794e-05
1.32327e-05
8.22295e-05
9.77989e-05
0.000109857
0.00011882
0.000125575
0.00012931
0.000131071
0.000132254
0.00013402
0.00013723
0.000140814
0.000143957
0.000146546
0.000148719
0.000150521
0.000151891
0.000152806
0.000153256
0.000153231
0.000152714
0.000151671
0.000150055
0.000147798
0.000144825
0.000141062
0.000136458
0.00013102
0.000124463
0.000116117
0.000105444
9.23625e-05
7.69863e-05
5.87707e-05
3.85559e-05
1.31917e-05
8.20857e-05
9.76922e-05
0.000109773
0.000118752
0.000125522
0.000129267
0.000131035
0.00013222
0.000133983
0.000137182
0.000140755
0.00014389
0.000146475
0.000148648
0.000150449
0.00015182
0.000152736
0.000153186
0.000153162
0.000152645
0.000151604
0.000149989
0.000147734
0.000144763
0.000141002
0.0001364
0.000130962
0.00012441
0.000116077
0.000105418
9.23456e-05
7.6974e-05
5.87586e-05
3.85358e-05
1.31533e-05
8.19386e-05
9.75864e-05
0.00010969
0.000118686
0.000125471
0.000129225
0.000130998
0.000132186
0.000133949
0.000137141
0.000140704
0.00014383
0.000146411
0.000148584
0.000150385
0.000151756
0.000152672
0.000153123
0.000153099
0.000152583
0.000151542
0.000149928
0.000147675
0.000144705
0.000140946
0.000136344
0.000130906
0.000124358
0.000116036
0.000105389
9.23246e-05
7.69572e-05
5.87427e-05
3.85131e-05
1.3114e-05
8.17948e-05
9.74852e-05
0.000109612
0.000118625
0.000125423
0.000129186
0.000130963
0.000132153
0.000133913
0.000137096
0.000140649
0.000143766
0.000146344
0.000148516
0.000150317
0.000151689
0.000152605
0.000153056
0.000153033
0.000152518
0.000151479
0.000149866
0.000147614
0.000144647
0.000140889
0.000136289
0.000130851
0.000124308
0.000115998
0.000105364
9.23087e-05
7.69457e-05
5.8731e-05
3.84929e-05
1.30748e-05
8.16589e-05
9.73921e-05
0.000109542
0.000118569
0.000125378
0.000129147
0.000130928
0.00013212
0.00013388
0.000137057
0.000140601
0.00014371
0.000146284
0.000148455
0.000150256
0.000151628
0.000152544
0.000152995
0.000152972
0.000152457
0.000151418
0.000149805
0.000147554
0.000144588
0.000140831
0.000136231
0.000130792
0.000124251
0.000115952
0.000105329
9.22818e-05
7.69235e-05
5.8711e-05
3.84673e-05
1.30348e-05
8.15069e-05
9.72854e-05
0.000109459
0.000118502
0.000125324
0.000129102
0.000130889
0.000132084
0.000133841
0.00013701
0.000140545
0.000143647
0.000146218
0.000148389
0.000150191
0.000151563
0.00015248
0.000152931
0.000152909
0.000152395
0.000151357
0.000149746
0.000147497
0.000144532
0.000140777
0.000136179
0.000130741
0.000124204
0.000115917
0.000105307
9.22668e-05
7.69119e-05
5.86983e-05
3.84454e-05
1.29938e-05
8.13768e-05
9.71956e-05
0.00010939
0.000118447
0.00012528
0.000129064
0.000130856
0.000132053
0.00013381
0.000136973
0.000140498
0.000143592
0.000146159
0.00014833
0.000150131
0.000151502
0.000152419
0.00015287
0.000152847
0.000152333
0.000151295
0.000149684
0.000147435
0.000144471
0.000140717
0.000136119
0.00013068
0.000124146
0.00011587
0.000105271
9.22395e-05
7.68902e-05
5.86792e-05
3.84208e-05
1.29541e-05
8.1238e-05
9.70934e-05
0.000109308
0.00011838
0.000125224
0.000129017
0.000130815
0.000132016
0.000133772
0.000136927
0.000140444
0.000143531
0.000146096
0.000148266
0.000150067
0.00015144
0.000152357
0.000152809
0.000152787
0.000152273
0.000151236
0.000149626
0.000147379
0.000144417
0.000140665
0.000136068
0.000130629
0.000124099
0.000115834
0.000105247
9.22221e-05
7.68761e-05
5.86643e-05
3.83972e-05
1.29126e-05
8.11095e-05