/*--------------------------------*- C++ -*----------------------------------*\
| =========                 |                                                 |
| \\      /  F ield         | OpenFOAM: The Open Source CFD Toolbox           |
|  \\    /   O peration     | Version:  v2006                                 |
|   \\  /    A nd           | Website:  www.openfoam.com                      |
|    \\/     M anipulation  |                                                 |
\*---------------------------------------------------------------------------*/
FoamFile
{
    version     2.0;
    format      ascii;
    class       volScalarField;
    location    "2";
    object      nut;
}
// * * * * * * * * * * * * * * * * * * * * * * * * * * * * * * * * * * * * * //

dimensions      [0 2 -1 0 0 0 0];


internalField   nonuniform List<scalar> 
78750
(
2.96974e-06
3.44893e-06
1.85e-05
1.51765e-05
1.4398e-05
1.53846e-05
1.48548e-05
1.50153e-05
1.52712e-05
1.54695e-05
1.54395e-05
1.51141e-05
1.48269e-05
1.45727e-05
1.43431e-05
1.41308e-05
1.3929e-05
1.37329e-05
1.35364e-05
1.3332e-05
1.31097e-05
1.28606e-05
1.25776e-05
1.22549e-05
1.18868e-05
1.14666e-05
1.09862e-05
1.04417e-05
9.81557e-06
9.10536e-06
7.8423e-06
6.18443e-06
4.57995e-06
3.0651e-06
6.00792e-08
3.54803e-07
7.67317e-06
1.63635e-05
2.70513e-05
2.96213e-05
3.05059e-05
3.36398e-05
3.67957e-05
3.89489e-05
3.99141e-05
3.97084e-05
3.88367e-05
3.79966e-05
3.74852e-05
3.7214e-05
3.70842e-05
3.70521e-05
3.71185e-05
3.72777e-05
3.75021e-05
3.77548e-05
3.80669e-05
3.85025e-05
3.90391e-05
3.93577e-05
3.86131e-05
3.56919e-05
3.02295e-05
2.35947e-05
1.73715e-05
1.21771e-05
8.51429e-06
7.12196e-06
6.2032e-06
1.00783e-07
3.4519e-07
1.52941e-05
1.42834e-05
1.26284e-05
1.121e-05
1.03915e-05
1.03801e-05
1.13568e-05
1.32569e-05
1.58453e-05
1.94258e-05
2.48311e-05
2.98357e-05
3.09391e-05
3.11794e-05
3.15296e-05
3.1675e-05
3.18504e-05
3.20744e-05
3.23259e-05
3.25824e-05
3.2684e-05
3.22937e-05
3.10124e-05
2.86549e-05
2.53926e-05
2.16222e-05
1.77663e-05
1.40987e-05
1.08018e-05
8.11874e-06
6.54201e-06
7.20203e-06
6.50259e-06
1.18093e-07
3.0066e-07
2.17711e-05
1.49865e-05
1.18127e-05
1.0442e-05
1.08874e-05
1.25426e-05
1.50819e-05
1.81174e-05
2.15076e-05
2.58538e-05
3.31094e-05
4.12795e-05
3.98655e-05
3.63015e-05
3.48352e-05
3.42207e-05
3.40768e-05
3.42467e-05
3.45141e-05
3.46059e-05
3.40436e-05
3.22709e-05
2.9185e-05
2.53108e-05
2.12918e-05
1.75104e-05
1.4098e-05
1.10823e-05
8.50552e-06
6.57101e-06
5.75497e-06
7.31592e-06
6.1125e-06
1.35537e-07
3.14895e-07
1.2514e-05
1.3578e-05
1.00287e-05
9.08364e-06
9.44681e-06
1.04346e-05
1.16493e-05
1.29484e-05
1.44657e-05
1.62327e-05
1.82588e-05
2.10253e-05
2.49961e-05
2.96852e-05
3.29673e-05
3.3832e-05
3.38996e-05
3.42e-05
3.47049e-05
3.47595e-05
3.31752e-05
2.95278e-05
2.49536e-05
2.05729e-05
1.67244e-05
1.3397e-05
1.05874e-05
8.3255e-06
6.65063e-06
5.71704e-06
5.98537e-06
9.26453e-06
5.28294e-06
1.40593e-07
3.04132e-07
8.71686e-06
1.05808e-05
6.55695e-06
5.85461e-06
6.40583e-06
7.56423e-06
9.10951e-06
1.10159e-05
1.32936e-05
1.60062e-05
1.92732e-05
2.32023e-05
2.75881e-05
3.14425e-05
3.36244e-05
3.42898e-05
3.4417e-05
3.46588e-05
3.51035e-05
3.51462e-05
3.3624e-05
2.99221e-05
2.50235e-05
2.02491e-05
1.61074e-05
1.26051e-05
9.72214e-06
7.49026e-06
5.97283e-06
5.31038e-06
5.94132e-06
9.69247e-06
5.41873e-06
1.28612e-07
3.0403e-07
6.81293e-06
9.97605e-06
5.51776e-06
4.85436e-06
5.52197e-06
6.86476e-06
8.62839e-06
1.07288e-05
1.31232e-05
1.58064e-05
1.88012e-05
2.20978e-05
2.55294e-05
2.86527e-05
3.10288e-05
3.24947e-05
3.32738e-05
3.38031e-05
3.43655e-05
3.4608e-05
3.3286e-05
2.95619e-05
2.44499e-05
1.9512e-05
1.53491e-05
1.19391e-05
9.22061e-06
7.20736e-06
5.93809e-06
5.53076e-06
6.42858e-06
1.04385e-05
5.27334e-06
1.13398e-07
3.00866e-07
5.8851e-06
9.9911e-06
4.98054e-06
4.18718e-06
4.72751e-06
5.96172e-06
7.6861e-06
9.85166e-06
1.24381e-05
1.54363e-05
1.88619e-05
2.26058e-05
2.62307e-05
2.90783e-05
3.09092e-05
3.19248e-05
3.24658e-05
3.28373e-05
3.32157e-05
3.34382e-05
3.26953e-05
2.99798e-05
2.54405e-05
2.04251e-05
1.59624e-05
1.23011e-05
9.4185e-06
7.29606e-06
5.96887e-06
5.49585e-06
6.20964e-06
9.67495e-06
5.54641e-06
9.55806e-08
2.88995e-07
5.18499e-06
1.13639e-05
5.18557e-06
4.05429e-06
4.37058e-06
5.43819e-06
7.09259e-06
9.30877e-06
1.20494e-05
1.52723e-05
1.89406e-05
2.28436e-05
2.64341e-05
2.90984e-05
3.07176e-05
3.15632e-05
3.1984e-05
3.22411e-05
3.24786e-05
3.26335e-05
3.21288e-05
2.99569e-05
2.58841e-05
2.09747e-05
1.64246e-05
1.26738e-05
9.73022e-06
7.55603e-06
6.17753e-06
5.62328e-06
6.16077e-06
9.20754e-06
5.63682e-06
8.11834e-08
2.70496e-07
4.68643e-06
1.27544e-05
5.50884e-06
4.03845e-06
4.13487e-06
5.01066e-06
6.52108e-06
8.68392e-06
1.14884e-05
1.49055e-05
1.88891e-05
2.31345e-05
2.69043e-05
2.95034e-05
3.09225e-05
3.15655e-05
3.18292e-05
3.19502e-05
3.20482e-05
3.21439e-05
3.18941e-05
3.03688e-05
2.69565e-05
2.22086e-05
1.74209e-05
1.33749e-05
1.02048e-05
7.85699e-06
6.31547e-06
5.59732e-06
5.88481e-06
8.40037e-06
6.07053e-06
6.8987e-08
2.50715e-07
4.27586e-06
1.38249e-05
5.93741e-06
4.16115e-06
4.07736e-06
4.79055e-06
6.14762e-06
8.1963e-06
1.09656e-05
1.4439e-05
1.85655e-05
2.29979e-05
2.69145e-05
2.95827e-05
3.10071e-05
3.16212e-05
3.18451e-05
3.19183e-05
3.19525e-05
3.1995e-05
3.18279e-05
3.06632e-05
2.77288e-05
2.31854e-05
1.8272e-05
1.40144e-05
1.06705e-05
8.18715e-06
6.51471e-06
5.66712e-06
5.77998e-06
7.95807e-06
6.39994e-06
6.00987e-08
2.33292e-07
3.96197e-06
1.40259e-05
6.17249e-06
4.24225e-06
4.0531e-06
4.65848e-06
5.89879e-06
7.84195e-06
1.05549e-05
1.40503e-05
1.82907e-05
2.28983e-05
2.69667e-05
2.97167e-05
3.11689e-05
3.17866e-05
3.20042e-05
3.20635e-05
3.20675e-05
3.20663e-05
3.19404e-05
3.10894e-05
2.86458e-05
2.43594e-05
1.92989e-05
1.47458e-05
1.11585e-05
8.50004e-06
6.67715e-06
5.69194e-06
5.63957e-06
7.50353e-06
6.94404e-06
5.31538e-08
2.1942e-07
3.70755e-06
1.38215e-05
6.32269e-06
4.32666e-06
4.07935e-06
4.61411e-06
5.76454e-06
7.60698e-06
1.02448e-05
1.37145e-05
1.79946e-05
2.27067e-05
2.69111e-05
2.97875e-05
3.13302e-05
3.20038e-05
3.22549e-05
3.23327e-05
3.23331e-05
3.22975e-05
3.21736e-05
3.15199e-05
2.94397e-05
2.5385e-05
2.02269e-05
1.5422e-05
1.16175e-05
8.8055e-06
6.86193e-06
5.76558e-06
5.59362e-06
7.25407e-06
7.3734e-06
4.80981e-08
2.08791e-07
3.51602e-06
1.34296e-05
6.3547e-06
4.36717e-06
4.09812e-06
4.59098e-06
5.68168e-06
7.45419e-06
1.00429e-05
1.35062e-05
1.78371e-05
2.26502e-05
2.69716e-05
2.99564e-05
3.1582e-05
3.23129e-05
3.26061e-05
3.27141e-05
3.26868e-05
3.24905e-05
3.21897e-05
3.17748e-05
3.02192e-05
2.6409e-05
2.11748e-05
1.6108e-05
1.20654e-05
9.08876e-06
7.02699e-06
5.82328e-06
5.54554e-06
7.02984e-06
7.86482e-06
4.41772e-08
2.00773e-07
3.36941e-06
1.30554e-05
6.3646e-06
4.4021e-06
4.12583e-06
4.59309e-06
5.64249e-06
7.36164e-06
9.91247e-06
1.33707e-05
1.77439e-05
2.26485e-05
2.70889e-05
3.01939e-05
3.19059e-05
3.24495e-05
3.24843e-05
3.24535e-05
3.23509e-05
3.21625e-05
3.187e-05
3.14642e-05
3.08906e-05
2.73272e-05
2.20476e-05
1.67421e-05
1.24815e-05
9.35481e-06
7.19016e-06
5.89919e-06
5.53983e-06
6.90031e-06
8.23802e-06
4.12495e-08
1.94663e-07
3.26115e-06
1.27399e-05
6.35091e-06
4.42039e-06
4.14469e-06
4.59636e-06
5.61831e-06
7.30248e-06
9.83226e-06
1.32993e-05
1.77239e-05
2.27174e-05
2.72671e-05
3.04715e-05
3.20443e-05
3.21496e-05
3.21883e-05
3.21611e-05
3.20622e-05
3.18792e-05
3.15941e-05
3.11968e-05
3.06786e-05
2.81172e-05
2.28495e-05
1.73394e-05
1.28677e-05
9.59558e-06
7.33463e-06
5.9663e-06
5.5373e-06
6.79407e-06
8.59047e-06
3.89481e-08
1.89958e-07
3.17932e-06
1.24971e-05
6.34195e-06
4.4366e-06
4.1633e-06
4.60554e-06
5.60933e-06
7.26941e-06
9.78762e-06
1.32701e-05
1.77488e-05
2.28346e-05
2.74875e-05
3.07716e-05
3.17735e-05
3.18827e-05
3.19248e-05
3.19002e-05
3.18038e-05
3.16244e-05
3.13453e-05
3.09548e-05
3.04431e-05
2.87849e-05
2.35689e-05
1.78921e-05
1.32255e-05
9.81934e-06
7.47147e-06
6.0374e-06
5.55169e-06
6.72975e-06
8.86651e-06
3.71562e-08
1.86237e-07
3.1174e-06
1.23176e-05
6.33343e-06
4.44767e-06
4.17747e-06
4.61407e-06
5.60622e-06
7.25135e-06
9.7668e-06
1.32721e-05
1.78096e-05
2.29926e-05
2.77455e-05
3.10807e-05
3.15398e-05
3.16527e-05
3.1698e-05
3.1676e-05
3.15821e-05
3.14058e-05
3.11316e-05
3.07465e-05
3.02406e-05
2.93367e-05
2.42118e-05
1.8403e-05
1.35552e-05
1.00245e-05
7.596e-06
6.10353e-06
5.56926e-06
6.6814e-06
9.10709e-06
3.57135e-08
1.83211e-07
3.06934e-06
1.21891e-05
6.3309e-06
4.45822e-06
4.19088e-06
4.62453e-06
5.60973e-06
7.24592e-06
9.76418e-06
1.32967e-05
1.78958e-05
2.31808e-05
2.80339e-05
3.11454e-05
3.13333e-05
3.14498e-05
3.14982e-05
3.14786e-05
3.13868e-05
3.1213e-05
3.09427e-05
3.05617e-05
3.00602e-05
2.94341e-05
2.47879e-05
1.88731e-05
1.38616e-05
1.02158e-05
7.71312e-06
6.16903e-06
5.59358e-06
6.65275e-06
9.29907e-06
3.45511e-08
1.80693e-07
3.03125e-06
1.20981e-05
6.33064e-06
4.4671e-06
4.2026e-06
4.63511e-06
5.61661e-06
7.24846e-06
9.77373e-06
1.33365e-05
1.7997e-05
2.33746e-05
2.83153e-05
3.09633e-05
3.11539e-05
3.12731e-05
3.13237e-05
3.13058e-05
3.12153e-05
3.10432e-05
3.07758e-05
3.03978e-05
2.98997e-05
2.92766e-05
2.52936e-05
1.92993e-05
1.41445e-05
1.03921e-05
7.82084e-06
6.23063e-06
5.61972e-06
6.63368e-06
9.45855e-06
3.35869e-08
1.78556e-07
3.00032e-06
1.20327e-05
6.33257e-06
4.47532e-06
4.21358e-06
4.64617e-06
5.62614e-06
7.2568e-06
9.79163e-06
1.33864e-05
1.81097e-05
2.35759e-05
2.85929e-05
3.08021e-05
3.09951e-05
3.11167e-05
3.11693e-05
3.11528e-05
3.10633e-05
3.08924e-05
3.06272e-05
3.02516e-05
2.97564e-05
2.91356e-05
2.57418e-05
1.96893e-05
1.44084e-05
1.05569e-05
7.92167e-06
6.28952e-06
5.64775e-06
6.62614e-06
9.48014e-06
3.27896e-08
1.76725e-07
2.97458e-06
1.19851e-05
6.33494e-06
4.48245e-06
4.22355e-06
4.65713e-06
5.63713e-06
7.26911e-06
9.81507e-06
1.34421e-05
1.82263e-05
2.37726e-05
2.88537e-05
3.06599e-05
3.08549e-05
3.09786e-05
3.10327e-05
3.10172e-05
3.09283e-05
3.0758e-05
3.0494e-05
3.01208e-05
2.96282e-05
2.90096e-05
2.61369e-05
2.00452e-05
1.46538e-05
1.071e-05
8.01527e-06
6.34495e-06
5.67616e-06
6.62625e-06
9.40906e-06
3.21228e-08
1.75142e-07
2.95287e-06
1.19499e-05
6.33759e-06
4.48874e-06
4.23268e-06
4.66784e-06
5.64902e-06
7.28391e-06
9.84163e-06
1.35006e-05
1.83443e-05
2.39661e-05
2.91036e-05
3.05333e-05
3.07303e-05
3.08559e-05
3.09116e-05
3.08971e-05
3.08088e-05
3.0639e-05
3.03759e-05
3.00048e-05
2.95144e-05
2.88975e-05
2.64848e-05
2.03715e-05
1.48824e-05
1.08521e-05
8.10223e-06
6.39705e-06
5.70437e-06
6.63174e-06
9.35028e-06
3.1562e-08
1.73752e-07
2.93419e-06
1.19236e-05
6.34043e-06
4.49431e-06
4.24093e-06
4.67796e-06
5.66098e-06
7.29983e-06
9.86973e-06
1.35603e-05
1.84635e-05
2.41549e-05
2.93352e-05
3.04205e-05
3.06193e-05
3.07465e-05
3.08036e-05
3.07899e-05
3.07021e-05
3.05328e-05
3.02706e-05
2.99011e-05
2.94124e-05
2.87967e-05
2.67922e-05
2.06667e-05
1.50929e-05
1.09833e-05
8.18245e-06
6.44537e-06
5.7314e-06
6.64014e-06
9.29989e-06
3.10826e-08
1.72511e-07
2.91797e-06
1.19045e-05
6.34359e-06
4.49939e-06
4.2485e-06
4.68758e-06
5.67296e-06
7.31648e-06
9.89861e-06
1.36193e-05
1.85792e-05
2.43355e-05
2.95518e-05
3.03195e-05
3.05198e-05
3.06486e-05
3.07068e-05
3.0694e-05
3.06066e-05
3.04376e-05
3.0176e-05
2.98079e-05
2.93206e-05
2.8706e-05
2.70633e-05
2.09393e-05
1.52899e-05
1.1105e-05
8.25669e-06
6.49023e-06
5.75693e-06
6.64973e-06
9.25561e-06
3.06642e-08
1.7139e-07
2.90382e-06
1.1891e-05
6.34669e-06
4.50398e-06
4.25555e-06
4.69689e-06
5.68508e-06
7.33387e-06
9.92845e-06
1.36788e-05
1.86949e-05
2.45112e-05
2.97525e-05
3.02285e-05
3.04302e-05
3.05604e-05
3.06197e-05
3.06076e-05
3.05206e-05
3.03519e-05
3.00908e-05
2.97238e-05
2.92376e-05
2.86237e-05
2.73063e-05
2.11894e-05
1.54739e-05
1.12194e-05
8.32648e-06
6.53236e-06
5.78119e-06
6.65997e-06
9.21602e-06
3.02927e-08
1.70363e-07
2.8913e-06
1.18814e-05
6.35e-06
4.50836e-06
4.26223e-06
4.70586e-06
5.69702e-06
7.3513e-06
9.958e-06
1.37365e-05
1.88055e-05
2.46783e-05
2.98721e-05
3.01461e-05
3.03491e-05
3.04806e-05
3.0541e-05
3.05295e-05
3.04429e-05
3.02743e-05
3.00137e-05
2.96475e-05
2.91622e-05
2.85492e-05
2.75229e-05
2.1424e-05
1.56488e-05
1.13273e-05
8.39254e-06
6.57233e-06
5.80438e-06
6.67039e-06
9.18041e-06
2.99582e-08
1.6942e-07
2.88023e-06
1.18751e-05
6.35266e-06
4.51214e-06
4.26838e-06
4.71451e-06
5.70907e-06
7.36952e-06
9.98898e-06
1.37954e-05
1.89148e-05
2.48398e-05
2.97965e-05
3.00713e-05
3.02755e-05
3.04081e-05
3.04694e-05
3.04585e-05
3.03721e-05
3.02038e-05
2.99433e-05
2.95779e-05
2.90933e-05
2.8481e-05
2.77244e-05
2.16432e-05
1.58143e-05
1.14302e-05
8.45545e-06
6.61032e-06
5.82645e-06
6.68056e-06
9.14806e-06
2.96545e-08
1.6854e-07
2.87029e-06
1.18704e-05
6.35534e-06
4.51576e-06
4.27424e-06
4.72286e-06
5.72092e-06
7.38766e-06
1.00196e-05
1.38529e-05
1.90194e-05
2.49927e-05
2.97274e-05
3.0003e-05
3.02083e-05
3.0342e-05
3.04041e-05
3.03938e-05
3.03076e-05
3.01393e-05
2.98791e-05
2.95141e-05
2.90303e-05
2.84185e-05
2.76767e-05
2.18474e-05
1.59707e-05
1.15284e-05
8.51571e-06
6.64667e-06
5.84755e-06
6.6902e-06
9.11815e-06
2.93733e-08
1.67724e-07
2.86148e-06
1.18679e-05
6.35703e-06
4.51877e-06
4.27971e-06
4.73112e-06
5.73317e-06
7.40686e-06
1.00519e-05
1.39117e-05
1.91239e-05
2.51435e-05
2.9664e-05
2.99404e-05
3.01468e-05
3.02815e-05
3.03444e-05
3.03345e-05
3.02486e-05
3.00804e-05
2.98202e-05
2.94556e-05
2.89723e-05
2.83611e-05
2.76191e-05
2.20413e-05
1.61206e-05
1.16233e-05
8.57398e-06
6.68171e-06
5.86778e-06
6.69939e-06
9.09031e-06
2.9112e-08
1.66955e-07
2.85361e-06
1.18665e-05
6.35842e-06
4.52159e-06
4.28501e-06
4.73926e-06
5.74541e-06
7.4261e-06
1.00841e-05
1.39694e-05
1.92249e-05
2.52888e-05
2.96057e-05
2.98829e-05
3.00903e-05
3.02259e-05
3.02895e-05
3.02801e-05
3.01945e-05
3.00264e-05
2.97664e-05
2.94021e-05
2.89195e-05
2.83087e-05
2.75666e-05
2.22252e-05
1.62651e-05
1.17155e-05
8.63046e-06
6.71551e-06
5.88714e-06
6.70784e-06
9.06472e-06
2.88688e-08
1.66236e-07
2.84655e-06
1.18664e-05
6.35891e-06
4.52395e-06
4.29003e-06
4.74733e-06
5.75789e-06
7.44609e-06
1.01175e-05
1.40287e-05
1.93251e-05
2.54278e-05
2.9552e-05
2.983e-05
3.00382e-05
3.01746e-05
3.02389e-05
3.02298e-05
3.01444e-05
2.99765e-05
2.97166e-05
2.93526e-05
2.88705e-05
2.826e-05
2.75177e-05
2.24004e-05
1.64036e-05
1.18046e-05
8.68518e-06
6.74829e-06
5.90591e-06
6.716e-06
9.04097e-06
2.86433e-08
1.65565e-07
2.84019e-06
1.18675e-05
6.35867e-06
4.52585e-06
4.29474e-06
4.75525e-06
5.77044e-06
7.46635e-06
1.01513e-05
1.40877e-05
1.94238e-05
2.55643e-05
2.95027e-05
2.97813e-05
2.99903e-05
3.01274e-05
3.01922e-05
3.01835e-05
3.00983e-05
2.99305e-05
2.96707e-05
2.93069e-05
2.88254e-05
2.82151e-05
2.74726e-05
2.25663e-05
1.65358e-05
1.18901e-05
8.73795e-06
6.77989e-06
5.924e-06
6.72384e-06
9.01917e-06
2.84331e-08
1.6493e-07
2.83437e-06
1.1869e-05
6.35823e-06
4.52763e-06
4.29932e-06
4.76301e-06
5.78277e-06
7.48631e-06
1.01846e-05
1.41455e-05
1.95198e-05
2.56963e-05
2.94567e-05
2.97359e-05
2.99456e-05
3.00834e-05
3.01488e-05
3.01405e-05
3.00555e-05
2.98878e-05
2.96282e-05
2.92647e-05
2.87835e-05
2.81735e-05
2.74308e-05
2.27246e-05
1.66636e-05
1.19734e-05
8.78918e-06
6.81045e-06
5.94136e-06
6.73107e-06
8.99905e-06
2.82359e-08
1.64328e-07
2.82906e-06
1.18707e-05
6.35741e-06
4.52918e-06
4.30368e-06
4.77057e-06
5.79494e-06
7.50612e-06
1.02177e-05
1.42026e-05
1.96131e-05
2.58214e-05
2.94139e-05
2.96938e-05
2.99042e-05
3.00426e-05
3.01085e-05
3.01006e-05
3.00158e-05
2.98483e-05
2.95889e-05
2.92256e-05
2.87449e-05
2.81352e-05
2.73921e-05
2.28753e-05
1.67867e-05
1.20542e-05
8.83892e-06
6.8401e-06
5.95829e-06
6.73832e-06
8.98047e-06
2.80508e-08
1.63759e-07
2.82415e-06
1.18732e-05
6.35626e-06
4.53051e-06
4.30781e-06
4.77788e-06
5.80688e-06
7.52576e-06
1.02506e-05
1.42596e-05
1.97052e-05
2.5943e-05
2.93742e-05
2.96546e-05
2.98656e-05
3.00047e-05
3.0071e-05
3.00634e-05
2.99789e-05
2.98116e-05
2.95523e-05
2.91893e-05
2.87091e-05
2.80996e-05
2.73563e-05
2.30188e-05
1.69044e-05
1.21318e-05
8.88685e-06
6.86874e-06
5.97467e-06
6.74552e-06
8.96355e-06
2.78786e-08
1.63213e-07
2.81974e-06
1.18761e-05
6.35506e-06
4.53175e-06
4.31183e-06
4.78508e-06
5.81874e-06
7.54532e-06
1.02833e-05
1.43155e-05
1.97944e-05
2.60602e-05
2.93373e-05
2.96182e-05
2.98298e-05
2.99694e-05
3.00361e-05
3.00289e-05
2.99446e-05
2.97774e-05
2.95184e-05
2.91556e-05
2.86758e-05
2.80665e-05
2.7323e-05
2.31574e-05
1.70177e-05
1.22065e-05
8.93286e-06
6.89611e-06
5.99028e-06
6.75239e-06
8.94824e-06
2.77188e-08
1.6269e-07
2.81552e-06
1.18792e-05
6.35397e-06
4.53297e-06
4.3157e-06
4.79201e-06
5.83017e-06
7.56421e-06
1.03149e-05
1.43692e-05
1.98794e-05
2.61707e-05
2.93025e-05
2.95838e-05
2.97959e-05
2.9936e-05
3.00031e-05
2.99962e-05
2.99121e-05
2.97451e-05
2.94862e-05
2.91237e-05
2.86442e-05
2.80351e-05
2.72915e-05
2.32879e-05
1.71262e-05
1.22785e-05
8.9771e-06
6.92244e-06
6.0054e-06
6.75932e-06
8.93367e-06
2.75662e-08
1.62195e-07
2.81179e-06
1.18837e-05
6.35224e-06
4.5338e-06
4.31933e-06
4.79886e-06
5.84174e-06
7.58356e-06
1.03474e-05
1.44245e-05
1.99668e-05
2.62835e-05
2.927e-05
2.95518e-05
2.97644e-05
2.99048e-05
2.99723e-05
2.99656e-05
2.98817e-05
2.97148e-05
2.9456e-05
2.90937e-05
2.86145e-05
2.80056e-05
2.72618e-05
2.34118e-05
1.72307e-05
1.23482e-05
9.0198e-06
6.94773e-06
6.0199e-06
6.76611e-06
8.92001e-06
2.742e-08
1.61705e-07
2.80823e-06
1.18876e-05
6.35129e-06
4.535e-06
4.32304e-06
4.8055e-06
5.8527e-06
7.60169e-06
1.03779e-05
1.44765e-05
2.0048e-05
2.63859e-05
2.92391e-05
2.95213e-05
2.97344e-05
2.98753e-05
2.99431e-05
2.99367e-05
2.98531e-05
2.96863e-05
2.94277e-05
2.90656e-05
2.85867e-05
2.7978e-05
2.7234e-05
2.35332e-05
1.7333e-05
1.24165e-05
9.06165e-06
6.97245e-06
6.03393e-06
6.77222e-06
8.90696e-06
2.72776e-08
1.61241e-07
2.80499e-06
1.18927e-05
6.34956e-06
4.53579e-06
4.32654e-06
4.81211e-06
5.86395e-06
7.62064e-06
1.04099e-05
1.4531e-05
2.01317e-05
2.64887e-05
2.92101e-05
2.94927e-05
2.97062e-05
2.98474e-05
2.99156e-05
2.99094e-05
2.98259e-05
2.96593e-05
2.94008e-05
2.90388e-05
2.85601e-05
2.79516e-05
2.72073e-05
2.36497e-05
1.74319e-05
1.2483e-05
9.10262e-06
6.99678e-06
6.04791e-06
6.77894e-06
8.89444e-06
2.71419e-08
1.60793e-07
2.80201e-06
1.18971e-05
6.34773e-06
4.53647e-06
4.32984e-06
4.81845e-06
5.8748e-06
7.63896e-06
1.0441e-05
1.45839e-05
2.02135e-05
2.65906e-05
2.91829e-05
2.94659e-05
2.96797e-05
2.98213e-05
2.98898e-05
2.98838e-05
2.98004e-05
2.9634e-05
2.93756e-05
2.90138e-05
2.85352e-05
2.7927e-05
2.71823e-05
2.37626e-05
1.75278e-05
1.25476e-05
9.14234e-06
7.02014e-06
6.06104e-06
6.7844e-06
8.88231e-06
2.70088e-08
1.60362e-07
2.79912e-06
1.19019e-05
6.34618e-06
4.53726e-06
4.33316e-06
4.82474e-06
5.88557e-06
7.65724e-06
1.0472e-05
1.46366e-05
2.02938e-05
2.66883e-05
2.91569e-05
2.94402e-05
2.96544e-05
2.97963e-05
2.9865e-05
2.98593e-05
2.9776e-05
2.96097e-05
2.93515e-05
2.89898e-05
2.85114e-05
2.79033e-05
2.71584e-05
2.38716e-05
1.7623e-05
1.26124e-05
9.18213e-06
7.04366e-06
6.07441e-06
6.79042e-06
8.8706e-06
2.68804e-08
1.59946e-07
2.79658e-06
1.19069e-05
6.34396e-06
4.53762e-06
4.33615e-06
4.83081e-06
5.89629e-06
7.67573e-06
1.05037e-05
1.469e-05
2.03749e-05
2.67875e-05
2.91325e-05
2.94161e-05
2.96306e-05
2.97728e-05
2.98418e-05
2.98362e-05
2.97531e-05
2.95869e-05
2.93288e-05
2.89673e-05
2.84891e-05
2.78811e-05
2.7136e-05
2.39758e-05
1.77148e-05
1.26753e-05
9.22073e-06
7.06639e-06
6.08728e-06
6.79605e-06
8.85965e-06
2.6756e-08
1.59533e-07
2.79413e-06
1.19126e-05
6.34262e-06
4.53843e-06
4.33936e-06
4.83691e-06
5.90683e-06
7.69377e-06
1.05345e-05
1.47421e-05
2.04532e-05
2.68801e-05
2.9109e-05
2.9393e-05
2.96078e-05
2.97503e-05
2.98195e-05
2.98141e-05
2.97312e-05
2.95651e-05
2.93071e-05
2.89458e-05
2.84678e-05
2.786e-05
2.71146e-05
2.40804e-05
1.78066e-05
1.2738e-05
9.25916e-06
7.089e-06
6.10003e-06
6.80155e-06
8.84923e-06
2.66366e-08
1.59138e-07
2.79209e-06
1.19193e-05
6.34028e-06
4.5387e-06
4.34231e-06
4.84303e-06
5.91776e-06
7.71273e-06
1.05669e-05
1.47967e-05
2.05338e-05
2.69736e-05
2.90871e-05
2.93713e-05
2.95863e-05
2.9729e-05
2.97984e-05
2.97932e-05
2.97103e-05
2.95443e-05
2.92865e-05
2.89253e-05
2.84474e-05
2.78397e-05
2.70941e-05
2.41788e-05
1.78936e-05
1.27981e-05
9.29629e-06
7.11102e-06
6.11264e-06
6.80725e-06
8.83901e-06
2.65205e-08
1.58755e-07
2.79001e-06
1.1926e-05
6.33865e-06
4.53932e-06
4.34537e-06
4.84903e-06
5.92826e-06
7.73079e-06
1.05978e-05
1.48492e-05
2.06122e-05
2.70648e-05
2.90659e-05
2.93504e-05
2.95657e-05
2.97086e-05
2.97782e-05
2.97731e-05
2.96904e-05
2.95245e-05
2.92668e-05
2.89059e-05
2.84282e-05
2.78206e-05
2.70748e-05
2.42767e-05
1.79804e-05
1.28583e-05
9.33357e-06
7.13311e-06
6.12522e-06
6.81276e-06
8.82958e-06
2.6408e-08
1.58379e-07
2.78822e-06
1.19325e-05
6.33646e-06
4.53964e-06
4.34828e-06
4.85503e-06
5.939e-06
7.74948e-06
1.063e-05
1.49034e-05
2.06923e-05
2.71571e-05
2.90459e-05
2.93306e-05
2.95462e-05
2.96893e-05
2.97591e-05
2.97541e-05
2.96716e-05
2.95058e-05
2.92482e-05
2.88874e-05
2.84099e-05
2.78024e-05
2.70563e-05
2.43691e-05
1.80639e-05
1.29167e-05
9.36977e-06
7.15463e-06
6.1377e-06
6.81877e-06
8.82074e-06
2.63009e-08
1.58007e-07
2.78629e-06
1.19395e-05
6.335e-06
4.54023e-06
4.35117e-06
4.86075e-06
5.94914e-06
7.76713e-06
1.06604e-05
1.49548e-05
2.07681e-05
2.72433e-05
2.90266e-05
2.93116e-05
2.95273e-05
2.96707e-05
2.97407e-05
2.97359e-05
2.96535e-05
2.94878e-05
2.92304e-05
2.88697e-05
2.83925e-05
2.77852e-05
2.7039e-05
2.44605e-05
1.81472e-05
1.29749e-05
9.40539e-06
7.17561e-06
6.14974e-06
6.82448e-06
8.81265e-06
2.61993e-08
1.57642e-07
2.78485e-06
1.19471e-05
6.33239e-06
4.54037e-06
4.35402e-06
4.86681e-06
5.96016e-06
7.7864e-06
1.06934e-05
1.50096e-05
2.08475e-05
2.73323e-05
2.90086e-05
2.92937e-05
2.95096e-05
2.96532e-05
2.97232e-05
2.97185e-05
2.96361e-05
2.94705e-05
2.92132e-05
2.88526e-05
2.83755e-05
2.77683e-05
2.70219e-05
2.45487e-05
1.82275e-05
1.3031e-05
9.43977e-06
7.19595e-06
6.16152e-06
6.83021e-06
8.80435e-06
2.60996e-08
1.57294e-07
2.78321e-06
1.1955e-05
6.33067e-06
4.54084e-06
4.35689e-06
4.87259e-06
5.97045e-06
7.80432e-06
1.07241e-05
1.50611e-05
2.09221e-05
2.74148e-05
2.89909e-05
2.92763e-05
2.94924e-05
2.96361e-05
2.97062e-05
2.97016e-05
2.96193e-05
2.94538e-05
2.91966e-05
2.88362e-05
2.83592e-05
2.77521e-05
2.70055e-05
2.46364e-05
1.83073e-05
1.30869e-05
9.47413e-06
7.21632e-06
6.17339e-06
6.83612e-06
8.79613e-06
2.59995e-08
1.56951e-07
2.78191e-06
1.19635e-05
6.32832e-06
4.54098e-06
4.35959e-06
4.87841e-06
5.98115e-06
7.82318e-06
1.07566e-05
1.51158e-05
2.10008e-05
2.75002e-05
2.89744e-05
2.92598e-05
2.94761e-05
2.96199e-05
2.96901e-05
2.96855e-05
2.96033e-05
2.94379e-05
2.91807e-05
2.88204e-05
2.83435e-05
2.77364e-05
2.69896e-05
2.47217e-05
1.83864e-05
1.31428e-05
9.50854e-06
7.23667e-06
6.18509e-06
6.84162e-06
8.78782e-06
2.5898e-08
1.56624e-07
2.78067e-06
1.19712e-05
6.3263e-06
4.54136e-06
4.36246e-06
4.8843e-06
5.99163e-06
7.84128e-06
1.07873e-05
1.51667e-05
2.10733e-05
2.75782e-05
2.89581e-05
2.92436e-05
2.946e-05
2.96039e-05
2.96743e-05
2.96698e-05
2.95877e-05
2.94224e-05
2.91654e-05
2.88052e-05
2.83285e-05
2.77217e-05
2.69748e-05
2.48076e-05
1.84662e-05
1.31997e-05
9.54397e-06
7.25769e-06
6.19724e-06
6.84725e-06
8.78019e-06
2.57951e-08
1.56317e-07
2.77944e-06
1.19799e-05
6.3241e-06
4.54154e-06
4.36512e-06
4.88995e-06
6.00191e-06
7.85937e-06
1.08186e-05
1.52198e-05
2.11501e-05
2.76607e-05
2.89426e-05
2.92283e-05
2.94448e-05
2.95889e-05
2.96593e-05
2.9655e-05
2.95729e-05
2.94077e-05
2.91508e-05
2.87909e-05
2.83144e-05
2.77076e-05
2.69606e-05
2.48923e-05
1.85462e-05
1.3257e-05
9.5794e-06
7.27861e-06
6.20931e-06
6.85327e-06
8.77318e-06
2.5697e-08
1.5599e-07
2.7783e-06
1.19871e-05
6.32312e-06
4.54232e-06
4.36795e-06
4.89539e-06
6.01149e-06
7.87596e-06
1.0847e-05
1.52676e-05
2.1219e-05
2.77365e-05
2.89273e-05
2.92133e-05
2.943e-05
2.95742e-05
2.96448e-05
2.96406e-05
2.95587e-05
2.93936e-05
2.91369e-05
2.87772e-05
2.83009e-05
2.76945e-05
2.69475e-05
2.49738e-05
1.86255e-05
1.33143e-05
9.61442e-06
7.29908e-06
6.22084e-06
6.85819e-06
8.76642e-06
2.55986e-08
1.55687e-07
2.77726e-06
1.19957e-05
6.32127e-06
4.54266e-06
4.37063e-06
4.90097e-06
6.02164e-06
7.89382e-06
1.08777e-05
1.53185e-05
2.12906e-05
2.78117e-05
2.89128e-05
2.91988e-05
2.94156e-05
2.956e-05
2.96306e-05
2.96265e-05
2.95447e-05
2.93797e-05
2.91231e-05
2.87636e-05
2.82875e-05
2.76812e-05
2.69342e-05
2.50544e-05
1.87042e-05
1.33714e-05
9.6497e-06
7.32004e-06
6.23306e-06
6.86425e-06
8.75978e-06
2.55011e-08
1.55389e-07
2.77616e-06
1.20039e-05
6.31947e-06
4.5429e-06
4.37312e-06
4.90624e-06
6.0313e-06
7.91098e-06
1.09077e-05
1.53698e-05
2.13651e-05
2.78928e-05
2.88989e-05
2.91852e-05
2.94021e-05
2.95466e-05
2.96174e-05
2.96134e-05
2.95317e-05
2.93669e-05
2.91105e-05
2.87512e-05
2.82754e-05
2.76693e-05
2.69223e-05
2.51328e-05
1.87818e-05
1.34281e-05
9.68464e-06
7.34055e-06
6.24472e-06
6.86955e-06
8.7537e-06
2.54062e-08
1.55075e-07
2.77513e-06
1.20117e-05
6.3191e-06
4.54389e-06
4.37596e-06
4.91158e-06
6.04073e-06
7.92744e-06
1.0936e-05
1.54173e-05
2.14323e-05
2.79635e-05
2.88851e-05
2.91715e-05
2.93886e-05
2.95333e-05
2.96043e-05
2.96005e-05
2.95189e-05
2.93543e-05
2.90981e-05
2.87391e-05
2.82636e-05
2.76578e-05
2.69108e-05
2.5213e-05
1.88601e-05
1.3485e-05
9.71964e-06
7.36114e-06
6.25651e-06
6.87512e-06
8.74831e-06
2.53151e-08
1.54782e-07
2.77427e-06
1.20195e-05
6.31629e-06
4.54375e-06
4.37835e-06
4.91705e-06
6.05105e-06
7.94599e-06
1.09683e-05
1.54716e-05
2.15073e-05
2.80375e-05
2.88724e-05
2.91589e-05
2.93761e-05
2.95208e-05
2.9592e-05
2.95882e-05
2.95068e-05
2.93422e-05
2.90862e-05
2.87274e-05
2.82521e-05
2.76465e-05
2.68996e-05
2.52892e-05
1.89352e-05
1.35397e-05
9.75342e-06
7.38108e-06
6.268e-06
6.88086e-06
8.74263e-06
2.52271e-08
1.54489e-07
2.77341e-06
1.20278e-05
6.31518e-06
4.54438e-06
4.38103e-06
4.9224e-06
6.06073e-06
7.96314e-06
1.09981e-05
1.55222e-05
2.15778e-05
2.81082e-05
2.88597e-05
2.91463e-05
2.93637e-05
2.95086e-05
2.95799e-05
2.95763e-05
2.9495e-05
2.93307e-05
2.90749e-05
2.87164e-05
2.82414e-05
2.76361e-05
2.68893e-05
2.53637e-05
1.90086e-05
1.35936e-05
9.78688e-06
7.40092e-06
6.2795e-06
6.88661e-06
8.73793e-06
2.51431e-08
1.54183e-07
2.77271e-06
1.20352e-05
6.31316e-06
4.54458e-06
4.38349e-06
4.92773e-06
6.07073e-06
7.98121e-06
1.10297e-05
1.55752e-05
2.16505e-05
2.818e-05
2.88477e-05
2.91344e-05
2.93519e-05
2.94969e-05
2.95683e-05
2.95648e-05
2.94836e-05
2.93194e-05
2.90638e-05
2.87055e-05
2.82308e-05
2.76257e-05
2.68789e-05
2.54358e-05
1.90801e-05
1.36463e-05
9.8196e-06
7.42037e-06
6.29081e-06
6.89234e-06
8.73307e-06
2.50618e-08
1.53897e-07
2.77192e-06
1.20436e-05
6.31114e-06
4.54472e-06
4.38591e-06
4.93306e-06
6.08079e-06
7.99937e-06
1.10614e-05
1.56278e-05
2.17215e-05
2.82482e-05
2.88359e-05
2.91226e-05
2.93402e-05
2.94853e-05
2.95568e-05
2.95534e-05
2.94723e-05
2.93083e-05
2.90529e-05
2.86947e-05
2.82203e-05
2.76154e-05
2.68688e-05
2.55021e-05
1.91493e-05
1.3698e-05
9.85141e-06
7.43933e-06
6.30199e-06
6.89866e-06
8.72875e-06
2.49857e-08
1.53611e-07
2.77162e-06
1.20511e-05
6.30779e-06
4.54438e-06
4.38821e-06
4.93858e-06
6.0914e-06
8.01862e-06
1.10949e-05
1.56832e-05
2.17962e-05
2.83209e-05
2.8825e-05
2.91118e-05
2.93295e-05
2.94746e-05
2.95462e-05
2.95429e-05
2.9462e-05
2.9298e-05
2.90428e-05
2.86848e-05
2.82105e-05
2.76058e-05
2.68593e-05
2.55663e-05
1.92155e-05
1.37474e-05
9.88176e-06
7.45726e-06
6.31226e-06
6.90349e-06
8.72377e-06
2.49082e-08
1.53343e-07
2.77093e-06
1.20588e-05
6.3056e-06
4.54453e-06
4.39068e-06
4.94391e-06
6.10134e-06
8.03646e-06
1.11259e-05
1.57349e-05
2.18656e-05
2.83868e-05
2.88136e-05
2.91004e-05
2.93182e-05
2.94635e-05
2.95351e-05
2.9532e-05
2.94512e-05
2.92874e-05
2.90323e-05
2.86746e-05
2.82006e-05
2.75962e-05
2.68498e-05
2.5631e-05
1.92825e-05
1.37976e-05
9.91281e-06
7.4759e-06
6.32341e-06
6.90997e-06
8.7195e-06
2.48356e-08
1.53068e-07
2.77063e-06
1.20658e-05
6.30192e-06
4.54391e-06
4.39265e-06
4.94898e-06
6.11137e-06
8.05503e-06
1.11588e-05
1.57898e-05
2.19396e-05
2.84561e-05
2.88034e-05
2.90903e-05
2.93081e-05
2.94534e-05
2.95251e-05
2.9522e-05
2.94413e-05
2.92776e-05
2.90227e-05
2.86651e-05
2.81913e-05
2.7587e-05
2.68407e-05
2.56899e-05
1.93445e-05
1.38444e-05
9.94175e-06
7.49307e-06
6.33331e-06
6.91479e-06
8.71467e-06
2.47615e-08
1.52799e-07
2.77027e-06
1.20735e-05
6.29967e-06
4.5441e-06
4.39515e-06
4.95435e-06
6.12133e-06
8.07276e-06
1.11893e-05
1.58395e-05
2.20048e-05
2.84453e-05
2.87926e-05
2.90795e-05
2.92974e-05
2.94428e-05
2.95147e-05
2.95117e-05
2.94311e-05
2.92675e-05
2.90128e-05
2.86554e-05
2.81819e-05
2.75778e-05
2.68316e-05
2.57516e-05
1.94089e-05
1.38931e-05
9.97206e-06
7.51125e-06
6.34406e-06
6.92045e-06
8.71039e-06
2.46876e-08
1.52545e-07
2.77e-06
1.20818e-05
6.29563e-06
4.54318e-06
4.3969e-06
4.95926e-06
6.13127e-06
8.09139e-06
1.12227e-05
1.58956e-05
2.20804e-05
2.84356e-05
2.87829e-05
2.90699e-05
2.92878e-05
2.94332e-05
2.9505e-05
2.9502e-05
2.94214e-05
2.92579e-05
2.90031e-05
2.86459e-05
2.81724e-05
2.75683e-05
2.68221e-05
2.58076e-05
1.94688e-05
1.39388e-05
1.00005e-05
7.52824e-06
6.35398e-06
6.92554e-06
8.70497e-06
2.4612e-08
1.52262e-07
2.76956e-06
1.20888e-05
6.2945e-06
4.54382e-06
4.39944e-06
4.96427e-06
6.14035e-06
8.10744e-06
1.12503e-05
1.59409e-05
2.21407e-05
2.84251e-05
2.87724e-05
2.90595e-05
2.92775e-05
2.94231e-05
2.9495e-05
2.94921e-05
2.94116e-05
2.92483e-05
2.89937e-05
2.86367e-05
2.81635e-05
2.75597e-05
2.68136e-05
2.58693e-05
1.95335e-05
1.3988e-05
1.0031e-05
7.5463e-06
6.36428e-06
6.93001e-06
8.70033e-06
2.45346e-08
1.52019e-07
2.76951e-06
1.20979e-05
6.29027e-06
4.54285e-06
4.40125e-06
4.96942e-06
6.15074e-06
8.1266e-06
1.12837e-05
1.59954e-05
2.22118e-05
2.84157e-05
2.8763e-05
2.905e-05
2.92679e-05
2.94134e-05
2.94853e-05
2.94824e-05
2.94018e-05
2.92384e-05
2.89839e-05
2.86269e-05
2.81537e-05
2.75499e-05
2.68037e-05
2.59112e-05
1.95922e-05
1.40333e-05
1.00596e-05
7.5636e-06
6.3746e-06
6.9355e-06
8.6951e-06
2.44596e-08
1.51759e-07
2.76904e-06
1.21047e-05
6.28874e-06
4.54336e-06
4.40377e-06
4.9744e-06
6.15958e-06
8.142e-06
1.13102e-05
1.60392e-05
2.22705e-05
2.84055e-05
2.87528e-05
2.90399e-05
2.9258e-05
2.94037e-05
2.94757e-05
2.94728e-05
2.93924e-05
2.92291e-05
2.89747e-05
2.86179e-05
2.8145e-05
2.75415e-05
2.67954e-05
2.59028e-05
1.96562e-05
1.40822e-05
1.00901e-05
7.58138e-06
6.38435e-06
6.93877e-06
8.69008e-06