/*--------------------------------*- C++ -*----------------------------------*\
| =========                 |                                                 |
| \\      /  F ield         | OpenFOAM: The Open Source CFD Toolbox           |
|  \\    /   O peration     | Version:  v2006                                 |
|   \\  /    A nd           | Website:  www.openfoam.com                      |
|    \\/     M anipulation  |                                                 |
\*---------------------------------------------------------------------------*/
FoamFile
{
    version     2.0;
    format      ascii;
    class       volVectorField;
    location    "2";
    object      U;
}
// * * * * * * * * * * * * * * * * * * * * * * * * * * * * * * * * * * * * * //

dimensions      [0 1 -1 0 0 0 0];


internalField   nonuniform List<vector> 
78750
(
(-0.0806547 -0.036221 -0.00306723)
(-0.0320877 -0.044422 -0.000812139)
(-0.0369272 -0.0472968 -0.00809071)
(-0.0359815 -0.0467651 -0.00861562)
(-0.0284233 -0.0426086 -0.00728542)
(-0.0248072 -0.0400161 -0.00688595)
(-0.0199422 -0.037498 -0.00640518)
(-0.0150901 -0.0352419 -0.0059691)
(-0.0106365 -0.0333317 -0.00565937)
(-0.00627879 -0.0316287 -0.00533297)
(-0.00206297 -0.0300609 -0.00492172)
(0.00205201 -0.0285722 -0.00438815)
(0.00598712 -0.0271688 -0.0037782)
(0.00970939 -0.0258504 -0.00312736)
(0.0132553 -0.0245966 -0.00242745)
(0.0166294 -0.0233914 -0.00166799)
(0.0198315 -0.0222191 -0.00084068)
(0.0228515 -0.0210631 6.06147e-05)
(0.0256745 -0.0199047 0.0010416)
(0.0282801 -0.0187231 0.00210778)
(0.0306422 -0.017495 0.00326396)
(0.0327272 -0.0161949 0.00451205)
(0.0344944 -0.0147934 0.0058506)
(0.0358959 -0.0132569 0.00727588)
(0.036876 -0.0115475 0.00878403)
(0.0373717 -0.00962718 0.0103742)
(0.0373104 -0.00746461 0.0120482)
(0.0366181 -0.00504336 0.013797)
(0.0351566 -0.002369 0.0156175)
(0.0327492 0.000536511 0.0174859)
(0.0292607 0.003662 0.0192967)
(0.024555 0.00699806 0.0207615)
(0.0183001 0.0111103 0.020845)
(0.0105381 0.0162485 0.0182352)
(0.00249931 0.014643 0.0109393)
(-0.00913653 0.0516207 -0.0033456)
(-0.00976422 -0.00305229 -0.0358001)
(-0.0171856 -0.0317066 -0.0543512)
(-0.0226448 -0.0422248 -0.0608618)
(-0.026605 -0.0421375 -0.0611052)
(-0.0290418 -0.0383859 -0.0587605)
(-0.0304551 -0.0357642 -0.0559831)
(-0.0308293 -0.0342784 -0.0533771)
(-0.0302494 -0.0329397 -0.0507849)
(-0.0288928 -0.0315867 -0.0482338)
(-0.026867 -0.0302677 -0.0458293)
(-0.024313 -0.0290284 -0.0436427)
(-0.0214121 -0.0278961 -0.0416765)
(-0.0183327 -0.0268635 -0.0398522)
(-0.0151751 -0.0258967 -0.0380605)
(-0.0119816 -0.0249508 -0.0362263)
(-0.00878303 -0.0239921 -0.034315)
(-0.00560536 -0.0229907 -0.0323107)
(-0.00246857 -0.0219087 -0.0302022)
(0.000607427 -0.0207041 -0.0279815)
(0.00359801 -0.0193333 -0.0256459)
(0.00647003 -0.0177552 -0.0232035)
(0.00917832 -0.0159226 -0.020671)
(0.0116668 -0.0137651 -0.018064)
(0.013873 -0.0111734 -0.0153836)
(0.015738 -0.007995 -0.0125952)
(0.0171985 -0.00404709 -0.00961007)
(0.0181416 0.000860587 -0.00628995)
(0.0184683 0.00689547 -0.00247639)
(0.0180796 0.0141801 0.00188885)
(0.0167642 0.022858 0.00664467)
(0.0141927 0.0330136 0.0111859)
(0.010064 0.0434961 0.0140845)
(0.00535631 0.0493429 0.0142509)
(0.000834724 0.0363747 0.0100595)
(-0.000318734 0.0690805 0.00162062)
(-0.00179418 0.0743019 -0.00732894)
(-0.00669931 0.0718984 -0.00957975)
(-0.0122085 0.0680289 -0.00728819)
(-0.0168576 0.0596793 -0.00405121)
(-0.020147 0.047785 -0.00222965)
(-0.0223707 0.0343552 -0.00216612)
(-0.0237114 0.0210946 -0.00326052)
(-0.024003 0.00917521 -0.00474644)
(-0.0233248 -0.00102864 -0.00634503)
(-0.0218981 -0.00943527 -0.00789401)
(-0.0199841 -0.0157343 -0.0091732)
(-0.0176396 -0.019587 -0.00996033)
(-0.0149271 -0.0214 -0.0102586)
(-0.0121271 -0.0221988 -0.0102687)
(-0.00939503 -0.0226227 -0.0101011)
(-0.00669917 -0.0228126 -0.00978117)
(-0.00404571 -0.0228254 -0.00933709)
(-0.0014524 -0.0226733 -0.00879154)
(0.00106759 -0.0223233 -0.00815676)
(0.00349153 -0.021711 -0.00743605)
(0.00578782 -0.02073 -0.00661726)
(0.0079162 -0.0192389 -0.00567035)
(0.00982812 -0.0170864 -0.00455227)
(0.0114654 -0.0141385 -0.00321708)
(0.0127607 -0.0102834 -0.0016264)
(0.0136489 -0.00540831 0.000243929)
(0.0140959 0.000635973 0.0024001)
(0.0140337 0.00808183 0.00482997)
(0.0133755 0.0172521 0.00748241)
(0.0120619 0.0284971 0.0101617)
(0.00991901 0.0415552 0.0123149)
(0.00690107 0.0535523 0.0130643)
(0.00374515 0.0582293 0.0121321)
(0.000773196 0.0410343 0.00835123)
(-0.00118106 0.0652297 0.00604768)
(-0.00328161 0.0710563 0.00493993)
(-0.00588453 0.0647327 0.00536518)
(-0.0083209 0.0540335 0.00683021)
(-0.00982327 0.0396932 0.00707284)
(-0.0107277 0.0247345 0.00551519)
(-0.0112777 0.0109424 0.00290736)
(-0.0115199 -0.0010583 4.89592e-05)
(-0.0114087 -0.0113113 -0.00264854)
(-0.0111604 -0.0200509 -0.00508453)
(-0.0108094 -0.0273703 -0.00717638)
(-0.0102164 -0.0330436 -0.00879422)
(-0.00925458 -0.0363834 -0.00977267)
(-0.00773337 -0.0373794 -0.0101649)
(-0.00575486 -0.0371116 -0.0101939)
(-0.00359703 -0.0366094 -0.00997953)
(-0.00135943 -0.0360804 -0.00953341)
(0.00090384 -0.0354916 -0.00888881)
(0.00313524 -0.0347969 -0.00809133)
(0.00529575 -0.0339051 -0.00717182)
(0.00734967 -0.0326764 -0.00614096)
(0.00925647 -0.0309208 -0.00498475)
(0.010971 -0.0284273 -0.00366751)
(0.0124404 -0.025017 -0.00214767)
(0.0136011 -0.0205735 -0.000396831)
(0.0143885 -0.0150295 0.00158965)
(0.0147506 -0.00832703 0.00379437)
(0.0146314 -0.000371331 0.00619241)
(0.0139741 0.00900506 0.00872218)
(0.0127339 0.020107 0.0112586)
(0.0109011 0.0332642 0.0134889)
(0.0084396 0.0479141 0.0147572)
(0.0055717 0.0603706 0.0144498)
(0.00291712 0.0642878 0.01275)
(0.000584122 0.0446273 0.00835336)
(-0.000162055 0.068882 0.0070858)
(-0.00154733 0.087755 0.00942517)
(-0.0038661 0.0837622 0.0104681)
(-0.00609471 0.0734252 0.0109548)
(-0.0077844 0.0599732 0.0101281)
(-0.00893775 0.0461237 0.00829565)
(-0.00973042 0.0332215 0.00625425)
(-0.0102607 0.0214955 0.00435538)
(-0.0106198 0.0108395 0.00262651)
(-0.0107159 0.0011176 0.00101737)
(-0.0104703 -0.00760794 -0.000497958)
(-0.00997039 -0.0154227 -0.0019334)
(-0.00924208 -0.0222447 -0.00325488)
(-0.00823564 -0.0277765 -0.00436387)
(-0.00693746 -0.0317558 -0.00513399)
(-0.00539453 -0.0341699 -0.00550392)
(-0.00367679 -0.0353579 -0.00549057)
(-0.00189133 -0.0358016 -0.00517582)
(-0.000126466 -0.035814 -0.00465632)
(0.00157361 -0.0354501 -0.00400013)
(0.00317993 -0.0345648 -0.00322433)
(0.00467549 -0.032891 -0.00229848)
(0.00604816 -0.0301626 -0.00116837)
(0.00726508 -0.0262162 0.000205247)
(0.00827455 -0.020986 0.00182464)
(0.00903204 -0.0144303 0.00366294)
(0.00948152 -0.00645858 0.00568418)
(0.00953983 0.00307908 0.00782992)
(0.00917649 0.0143655 0.00999922)
(0.00837335 0.027523 0.0120074)
(0.00708675 0.0422415 0.0135102)
(0.00528296 0.0567376 0.013992)
(0.00333935 0.0670045 0.0132967)
(0.00161915 0.0685743 0.01169)
(0.000248121 0.0457475 0.00745834)
(-0.000370845 0.0675967 0.00756865)
(-0.00205476 0.0940577 0.0120951)
(-0.00451729 0.0904109 0.0139104)
(-0.00694254 0.0766672 0.0144371)
(-0.00875488 0.0584227 0.0135114)
(-0.00975032 0.040495 0.0116934)
(-0.0101612 0.0245968 0.00963217)
(-0.0101003 0.0108269 0.0075607)
(-0.00965381 -0.00101171 0.00555231)
(-0.00895235 -0.011127 0.00366429)
(-0.00811909 -0.0196738 0.00192508)
(-0.00719057 -0.0267384 0.000382646)
(-0.00619072 -0.0323715 -0.000922972)
(-0.00513921 -0.0366078 -0.00196234)
(-0.00403494 -0.0395241 -0.00272302)
(-0.00286273 -0.0413027 -0.00320415)
(-0.00161952 -0.0422149 -0.00339684)
(-0.000340158 -0.0425294 -0.00330455)
(0.000923533 -0.0424156 -0.00296593)
(0.00212858 -0.0419165 -0.00245414)
(0.0032449 -0.04093 -0.00181339)
(0.00425803 -0.0392355 -0.00103824)
(0.0051653 -0.0365722 -8.93172e-05)
(0.00595496 -0.0327276 0.00107402)
(0.00659868 -0.0275684 0.00246563)
(0.0070609 -0.0209968 0.00406884)
(0.00729596 -0.0128755 0.00585069)
(0.00726421 -0.00299326 0.00774443)
(0.00692911 0.00891925 0.00963957)
(0.00626315 0.0230233 0.0113414)
(0.00526326 0.038815 0.0125262)
(0.00391199 0.0539396 0.0127964)
(0.00248625 0.0640338 0.0121642)
(0.00122389 0.065388 0.0108395)
(0.000249193 0.0434361 0.00686591)
(-0.000244778 0.0679713 0.00723317)
(-0.00178889 0.100524 0.0125409)
(-0.00405273 0.0980099 0.0144147)
(-0.00637139 0.0830279 0.0144967)
(-0.0082579 0.0624255 0.0129351)
(-0.0093626 0.0426298 0.0105597)
(-0.00992298 0.0257341 0.00813125)
(-0.0100666 0.0116371 0.00591149)
(-0.00989076 -0.000132987 0.00395334)
(-0.00948317 -0.00997522 0.00225783)
(-0.00891081 -0.0181923 0.000804738)
(-0.00821647 -0.0249746 -0.000418725)
(-0.00742783 -0.0304474 -0.00142089)
(-0.00656362 -0.034702 -0.00220671)
(-0.00563453 -0.0378344 -0.00277813)
(-0.00464831 -0.0399741 -0.00312762)
(-0.00361711 -0.0412776 -0.0032391)
(-0.00257052 -0.0419242 -0.0031407)
(-0.00153415 -0.0420445 -0.00285891)
(-0.000545677 -0.0416847 -0.00241856)
(0.000366651 -0.0407899 -0.00186356)
(0.0011905 -0.039176 -0.00120142)
(0.00193105 -0.0365909 -0.000400324)
(0.00259243 -0.032807 0.000579526)
(0.00316359 -0.0276695 0.0017553)
(0.00361975 -0.0210724 0.00311199)
(0.00391974 -0.0128854 0.00461461)
(0.00402046 -0.00292253 0.00619956)
(0.00389491 0.00901601 0.00776898)
(0.00353918 0.0229194 0.00916173)
(0.00296326 0.0380194 0.010139)
(0.00215595 0.0518741 0.0104463)
(0.00130662 0.0607078 0.0101442)
(0.000571528 0.0615898 0.00926971)
(9.8667e-05 0.0407471 0.00586616)
(-0.000149874 0.0678845 0.00640253)
(-0.00145467 0.105035 0.0115947)
(-0.00348177 0.103695 0.0133078)
(-0.0056885 0.0877142 0.0132185)
(-0.00767686 0.0643976 0.0116671)
(-0.0089393 0.0418701 0.00953634)
(-0.00964382 0.0229445 0.00748232)
(-0.00990069 0.0075319 0.00565805)
(-0.00980934 -0.00501293 0.00405413)
(-0.00946088 -0.015242 0.00264732)
(-0.00893251 -0.0235457 0.00142562)
(-0.00827803 -0.0301894 0.000384151)
(-0.00753287 -0.0353562 -0.000476016)
(-0.00672382 -0.0392092 -0.00115836)
(-0.00586868 -0.041933 -0.00167233)
(-0.00498175 -0.0437318 -0.00202039)
(-0.00407807 -0.0447911 -0.00218833)
(-0.0031823 -0.045274 -0.00219104)
(-0.00230997 -0.045281 -0.00204131)
(-0.00148352 -0.0448508 -0.00175408)
(-0.000724964 -0.0439569 -0.00136078)
(-4.36165e-05 -0.0424775 -0.000879165)
(0.00056369 -0.0402008 -0.000295181)
(0.00110772 -0.0368775 0.000423424)
(0.00159211 -0.0322781 0.00130183)
(0.00200459 -0.0262151 0.00234045)
(0.00231299 -0.0185103 0.0035162)
(0.00248518 -0.00895588 0.00477864)
(0.00250753 0.00265171 0.0060492)
(0.00236657 0.0162938 0.00720293)
(0.00205047 0.031194 0.00806549)
(0.00153852 0.0449929 0.00845409)
(0.000945299 0.0540266 0.00837354)
(0.000419028 0.0554354 0.00775251)
(0.000106139 0.0372265 0.00490201)
(-2.83921e-05 0.0666934 0.00532454)
(-0.000951517 0.107456 0.00985104)
(-0.0025571 0.108088 0.0112405)
(-0.00443987 0.0932772 0.0111035)
(-0.00635627 0.069262 0.00972859)
(-0.00769499 0.0450419 0.00781967)
(-0.00853255 0.0245077 0.00593978)
(-0.00894468 0.00798427 0.00425032)
(-0.00901959 -0.00518563 0.00276954)
(-0.00884706 -0.0156934 0.00149)
(-0.00850092 -0.0240631 0.000401595)
(-0.00803013 -0.03065 -0.000503256)
(-0.00746672 -0.0357038 -0.0012315)
(-0.00683384 -0.0394384 -0.00179574)
(-0.00614786 -0.0420687 -0.00221175)
(-0.00542208 -0.0438043 -0.00248667)
(-0.00467344 -0.0448249 -0.00261832)
(-0.00392248 -0.0452761 -0.00261898)
(-0.00318359 -0.045247 -0.00249775)
(-0.00247441 -0.0447773 -0.00226417)
(-0.00181723 -0.0438565 -0.00193711)
(-0.00122372 -0.0424055 -0.00153893)
(-0.000695314 -0.0402514 -0.00106554)
(-0.000222279 -0.0371557 -0.000492626)
(0.000202774 -0.0328703 0.000205463)
(0.000580126 -0.0271799 0.00103696)
(0.00088955 -0.0199019 0.00198685)
(0.0011023 -0.0108536 0.00301947)
(0.00120414 0.000129308 0.00407878)
(0.00118938 0.0129941 0.00507836)
(0.00105492 0.027003 0.00589373)
(0.000781223 0.0400392 0.00638041)
(0.000435491 0.0487601 0.00648554)
(0.000140334 0.0503957 0.00608647)
(3.13079e-05 0.0342457 0.0038676)
(1.15232e-05 0.0645889 0.00431299)
(-0.000619279 0.10742 0.00802899)
(-0.00181862 0.109789 0.00909719)
(-0.00330494 0.096524 0.00900673)
(-0.00494962 0.072522 0.00795526)
(-0.00618389 0.0470602 0.00643476)
(-0.00702212 0.0250337 0.00490893)
(-0.00749828 0.00732081 0.0035339)
(-0.00767311 -0.00662368 0.00233036)
(-0.00762022 -0.0175615 0.00128784)
(-0.00740411 -0.0261131 0.000396224)
(-0.00706919 -0.0327148 -0.000349179)
(-0.00664495 -0.0376823 -0.000951883)
(-0.00615327 -0.0412879 -0.00142281)
(-0.00560984 -0.0437919 -0.00177782)
(-0.00502715 -0.0454288 -0.00202486)
(-0.00442101 -0.0463858 -0.00216414)
(-0.00380825 -0.0468019 -0.00220339)
(-0.00320023 -0.0467579 -0.00214671)
(-0.0026092 -0.0462928 -0.00199825)
(-0.0020554 -0.0454052 -0.00176669)
(-0.00155007 -0.0440553 -0.00147781)
(-0.00109742 -0.0421141 -0.0011348)
(-0.000690238 -0.0393671 -0.000720759)
(-0.00031904 -0.0355472 -0.000211906)
(1.94213e-05 -0.0303863 0.000405622)
(0.000313718 -0.0236527 0.00112571)
(0.000542204 -0.0151433 0.00192381)
(0.000689171 -0.00469261 0.00276036)
(0.000745054 0.00766212 0.00357708)
(0.000699477 0.0212574 0.00428737)
(0.00053473 0.0341572 0.00477459)
(0.000296116 0.0431033 0.00494717)
(9.29834e-05 0.0452327 0.00467673)
(3.31121e-05 0.0313559 0.00300489)
(3.2848e-05 0.0622103 0.0034396)
(-0.000372722 0.105957 0.00638745)
(-0.00122534 0.109816 0.00717193)
(-0.00232102 0.0983925 0.00710573)
(-0.00360454 0.0755207 0.00630244)
(-0.00463155 0.0499857 0.00507292)
(-0.00538464 0.0272838 0.00379154)
(-0.00586464 0.00883677 0.00261293)
(-0.00610067 -0.00566423 0.0015707)
(-0.00614477 -0.0169474 0.000663478)
(-0.00604729 -0.0256801 -0.000113572)
(-0.00584263 -0.0323528 -0.000761348)
(-0.0055549 -0.0373289 -0.00128216)
(-0.00520255 -0.0409183 -0.00168666)
(-0.00479936 -0.0434055 -0.00199038)
(-0.00435609 -0.0450341 -0.00220168)
(-0.00388696 -0.0459936 -0.00232404)
(-0.00340573 -0.0464183 -0.00236421)
(-0.00292239 -0.0463857 -0.00232546)
(-0.00244735 -0.0459337 -0.00221088)
(-0.00199763 -0.0450674 -0.00202646)
(-0.00158509 -0.043768 -0.001794)
(-0.00121637 -0.0419426 -0.00151997)
(-0.000888625 -0.039408 -0.00119399)
(-0.000593934 -0.0359019 -0.000795365)
(-0.000326312 -0.0311364 -0.000307709)
(-8.53946e-05 -0.0248572 0.000268505)
(0.000111936 -0.0168592 0.000915433)
(0.00024664 -0.00698776 0.00160358)
(0.000313829 0.00472586 0.00229169)
(0.000310222 0.0176859 0.00291743)
(0.000227432 0.0301354 0.00338698)
(9.22223e-05 0.0389793 0.00360146)
(-1.09598e-05 0.0413385 0.00345059)
(5.6027e-07 0.0290714 0.0022639)
(1.22158e-05 0.0600404 0.00272571)
(-0.000290929 0.103845 0.00502811)
(-0.00092468 0.108641 0.0055934)
(-0.00173794 0.0984489 0.00552639)
(-0.00270175 0.07663 0.00489852)
(-0.00349848 0.0513567 0.00392143)
(-0.00410992 0.0283646 0.00289415)
(-0.00452423 0.00946161 0.00194818)
(-0.00475145 -0.00543348 0.0011102)
(-0.00482665 -0.0169751 0.000376834)
(-0.00478681 -0.0258369 -0.000255628)
(-0.00465669 -0.0325435 -0.000785407)
(-0.00445516 -0.0374988 -0.00121199)
(-0.00419749 -0.0410503 -0.00154316)
(-0.00389538 -0.0435082 -0.00179221)
(-0.00355769 -0.0451275 -0.00196696)
(-0.00319634 -0.0460993 -0.00207232)
(-0.0028219 -0.0465532 -0.00211412)
(-0.00244213 -0.0465621 -0.00209482)
(-0.00206514 -0.0461608 -0.00201637)
(-0.00170359 -0.0453561 -0.00188263)
(-0.00136857 -0.0441389 -0.00170886)
(-0.00106719 -0.0424489 -0.00150332)
(-0.000799638 -0.0401378 -0.00126065)
(-0.000559934 -0.0369548 -0.000962973)
(-0.000342011 -0.0325916 -0.000593119)
(-0.000144522 -0.0267569 -0.000147437)
(2.08566e-05 -0.0192192 0.00036158)
(0.000139487 -0.00981613 0.000911065)
(0.00020796 0.00143685 0.00147027)
(0.000219389 0.0140076 0.00199358)
(0.000164285 0.0262741 0.00240788)
(6.49939e-05 0.0352138 0.00262009)
(-1.00533e-05 0.0378599 0.00254281)
(2.83604e-06 0.0270661 0.00171242)
(9.32661e-06 0.0582679 0.00212999)
(-0.000210847 0.10179 0.00389543)
(-0.000680473 0.10723 0.00429381)
(-0.00127892 0.0979753 0.00421084)
(-0.00198652 0.0772662 0.00369897)
(-0.00258477 0.0526309 0.00291361)
(-0.00306192 0.0297774 0.00208541)
(-0.00340211 0.0107525 0.00131603)
(-0.00360218 -0.00432446 0.000625808)
(-0.00368592 -0.0160079 1.41505e-05)
(-0.00368083 -0.0249469 -0.000517829)
(-0.0036022 -0.0316772 -0.000964957)
(-0.003464 -0.0366259 -0.00132467)
(-0.00327831 -0.0401626 -0.00160281)
(-0.00305475 -0.0426128 -0.00181087)
(-0.00280049 -0.0442383 -0.00195632)
(-0.00252541 -0.0452317 -0.00204532)
(-0.00223762 -0.0457201 -0.00208353)
(-0.00194332 -0.0457732 -0.00207298)
(-0.00164901 -0.0454225 -0.00201495)
(-0.00136415 -0.0446739 -0.00191166)
(-0.00109917 -0.0435211 -0.00177307)
(-0.000861688 -0.0419278 -0.00160856)
(-0.000654501 -0.0397791 -0.00141717)
(-0.000473501 -0.0368401 -0.00118364)
(-0.000312783 -0.032795 -0.000890548)
(-0.00017042 -0.0273332 -0.000531375)
(-5.09056e-05 -0.020206 -0.000114315)
(3.64772e-05 -0.0112493 0.000342062)
(8.54565e-05 -0.00046856 0.0008133)
(9.42891e-05 0.0116519 0.00126414)
(6.0641e-05 0.0236078 0.001636)
(-9.90044e-07 0.0324843 0.0018477)
(-3.78596e-05 0.0352747 0.00183324)
(-6.65908e-06 0.0255082 0.00127752)
(-1.28914e-06 0.0568759 0.00164299)
(-0.000178958 0.0999861 0.00296525)
(-0.000543042 0.105799 0.00323629)
(-0.000998873 0.097117 0.00314142)
(-0.0015301 0.0772171 0.00272233)
(-0.00198162 0.0531492 0.00209916)
(-0.00234759 0.0305025 0.00144553)
(-0.00261418 0.0114628 0.000835343)
(-0.00277517 -0.00369866 0.000282472)
(-0.00284703 -0.0154492 -0.000212684)
(-0.00284955 -0.0244076 -0.000646557)
(-0.00279302 -0.0311171 -0.0010125)
(-0.00268822 -0.0360253 -0.00130658)
(-0.0025448 -0.0395231 -0.00153266)
(-0.00237069 -0.0419495 -0.00170013)
(-0.00217162 -0.0435706 -0.00181554)
(-0.00195564 -0.0445803 -0.0018863)
(-0.00172855 -0.045102 -0.00191826)
(-0.0014949 -0.0452012 -0.00191267)
(-0.00125979 -0.0449063 -0.00187014)
(-0.00103002 -0.0442216 -0.0017919)
(-0.000814991 -0.0431372 -0.00168308)
(-0.000621941 -0.0416319 -0.00155301)
(-0.000456253 -0.0396228 -0.00140374)
(-0.000314796 -0.0368972 -0.00122403)
(-0.000192316 -0.0331352 -0.000995601)
(-8.6215e-05 -0.0280062 -0.000710679)
(1.78367e-06 -0.0212385 -0.00037453)
(6.46704e-05 -0.0126557 -2.09134e-06)
(9.59238e-05 -0.00225041 0.00038741)
(9.50968e-05 0.0095339 0.000767066)
(6.18915e-05 0.0212856 0.00109123)
(8.10157e-06 0.0301684 0.00129157)
(-2.51672e-05 0.0331098 0.00131814)
(-4.34147e-06 0.0242006 0.000957599)
(-1.04522e-06 0.0558024 0.00125135)
(-0.000135784 0.0985314 0.0022161)
(-0.000413327 0.104606 0.00238935)
(-0.000758668 0.0963499 0.00228877)
(-0.00115788 0.0771273 0.00194583)
(-0.00149879 0.0536159 0.00145248)
(-0.00177839 0.031256 0.000936466)
(-0.00198551 0.0123081 0.000450022)
(-0.00211481 -0.00284547 2.82397e-06)
(-0.00217601 -0.0145981 -0.000402962)
(-0.00218182 -0.0235375 -0.000761591)
(-0.00214045 -0.030208 -0.00106517)
(-0.00206028 -0.0350697 -0.00130872)
(-0.00194889 -0.0385271 -0.00149461)
(-0.00181289 -0.040927 -0.00163032)
(-0.00165672 -0.0425383 -0.00172145)
(-0.00148667 -0.0435592 -0.00177762)
(-0.00130657 -0.044112 -0.00180339)
(-0.00112069 -0.0442544 -0.00179909)
(-0.000933239 -0.0440095 -0.00176498)
(-0.000749196 -0.0433819 -0.00170212)
(-0.000577029 -0.0423582 -0.0016126)
(-0.000423335 -0.0409202 -0.00150519)
(-0.000294671 -0.0390076 -0.00138296)
(-0.000189299 -0.0364458 -0.00123992)
(-0.000102819 -0.0329178 -0.00105764)
(-3.10949e-05 -0.0280686 -0.000826675)
(2.66972e-05 -0.0216145 -0.000550504)
(6.53411e-05 -0.0133683 -0.000241506)
(7.88474e-05 -0.00331484 8.44359e-05)
(6.90103e-05 0.00813365 0.000406239)
(3.7868e-05 0.0196437 0.000688699)
(-4.87395e-06 0.0284659 0.000876739)
(-2.86558e-05 0.0314932 0.000933015)
(-7.95056e-06 0.0231849 0.000714642)
(-3.38415e-06 0.0549672 0.000945647)
(-0.000111304 0.0973688 0.00162862)
(-0.000328167 0.103614 0.00172722)
(-0.000596388 0.095647 0.00162837)
(-0.00090455 0.0769166 0.00135318)
(-0.0011682 0.0538401 0.000969145)
(-0.00138507 0.0317279 0.00056792)
(-0.00154637 0.0128823 0.00018486)
(-0.00164797 -0.00223407 -0.000173654)
(-0.00169631 -0.0139579 -0.000504148)
(-0.00170001 -0.0228536 -0.000799235)
(-0.00166553 -0.0294665 -0.00105005)
(-0.0015996 -0.0342687 -0.00125082)
(-0.0015084 -0.0376774 -0.0014027)
(-0.00139758 -0.0400429 -0.00151139)
(-0.00126999 -0.0416425 -0.00158271)
(-0.0011307 -0.0426789 -0.00162726)
(-0.000982771 -0.0432616 -0.00164711)
(-0.00082999 -0.0434399 -0.00164244)
(-0.000676115 -0.0432371 -0.00161377)
(-0.000525085 -0.042658 -0.00156213)
(-0.000383741 -0.0416886 -0.00148895)
(-0.000257907 -0.0403085 -0.00140119)
(-0.000153659 -0.0384703 -0.00130167)
(-7.16614e-05 -0.0360358 -0.00118701)
(-7.79182e-06 -0.0327012 -0.00104149)
(4.16905e-05 -0.0280936 -0.000854135)
(7.7688e-05 -0.0219111 -0.000626873)
(9.75129e-05 -0.0139525 -0.000369993)
(9.78226e-05 -0.00419377 -9.72064e-05)
(7.97776e-05 0.00697893 0.00017449)
(4.59852e-05 0.0182942 0.000417957)
(4.90057e-06 0.0270761 0.000589692)
(-1.92353e-05 0.0301837 0.000662122)
(-6.37282e-06 0.0223496 0.00053924)
(-2.45267e-06 0.0543134 0.000715861)
(-8.58645e-05 0.0964553 0.00118916)
(-0.000254055 0.10283 0.00123468)
(-0.000462036 0.0950894 0.00114286)
(-0.000701064 0.076752 0.00092568)
(-0.000906375 0.0540436 0.000628917)
(-0.00107574 0.032166 0.000315759)
(-0.00120206 0.0134432 9.79361e-06)
(-0.00128217 -0.00160587 -0.000283418)
(-0.00132037 -0.0132752 -0.000558251)
(-0.00132252 -0.0221102 -0.000805714)
(-0.00129385 -0.0286566 -0.00101638)
(-0.0012398 -0.0333954 -0.00118433)
(-0.00116557 -0.036752 -0.00131011)
(-0.00107546 -0.0390837 -0.00139867)
(-0.000971387 -0.0406742 -0.00145674)
(-0.00085707 -0.0417247 -0.00149312)
(-0.000735626 -0.0423315 -0.0015092)
(-0.000610217 -0.0425388 -0.00150516)
(-0.000484099 -0.0423705 -0.0014816)
(-0.000360603 -0.0418317 -0.00143952)
(-0.000245036 -0.0409089 -0.00138017)
(-0.000142574 -0.0395789 -0.00130831)
(-5.85683e-05 -0.0378004 -0.00122646)
(4.12648e-06 -0.0354622 -0.00113248)
(4.97762e-05 -0.032283 -0.00101463)
(8.12168e-05 -0.0278825 -0.000860531)
(0.000100226 -0.0219363 -0.000670612)
(0.000105782 -0.014233 -0.000453501)
(9.6436e-05 -0.00474069 -0.000221165)
(7.33831e-05 0.0061757 1.21112e-05)
(3.98591e-05 0.0172961 0.000224734)
(3.39997e-06 0.0260148 0.000382198)
(-1.74684e-05 0.0291764 0.000464098)
(-7.0755e-06 0.0216855 0.000407197)
(-2.37594e-06 0.0537893 0.000546276)
(-6.85343e-05 0.0957235 0.000868537)
(-0.000201016 0.102194 0.000878281)
(-0.000365199 0.0946238 0.000796023)
(-0.000554516 0.0765853 0.000625564)
(-0.000717945 0.0541674 0.000394344)
(-0.00085287 0.0324871 0.000145378)
(-0.000953304 0.0138802 -0.000104336)
(-0.00101682 -0.00109433 -0.000348562)
(-0.00104659 -0.0126989 -0.000580067)
(-0.00104678 -0.0214649 -0.000789298)
(-0.00102171 -0.0279397 -0.00096708)
(-0.000975944 -0.0326124 -0.00110788)
(-0.000914143 -0.0359134 -0.00121193)
(-0.000839155 -0.0382123 -0.001284)
(-0.000752549 -0.0397985 -0.0013321)
(-0.000656773 -0.0408617 -0.00136229)
(-0.000554998 -0.0414878 -0.00137574)
(-0.000449955 -0.0417189 -0.0013727)
(-0.000344407 -0.0415794 -0.00135374)
(-0.000241185 -0.0410747 -0.00131972)
(-0.000144442 -0.0401914 -0.00127158)
(-5.88674e-05 -0.0389041 -0.00121237)
(1.07281e-05 -0.0371736 -0.00114444)
(6.03287e-05 -0.0349062 -0.00106643)
(9.39828e-05 -0.031852 -0.000970217)
(0.000113691 -0.0276306 -0.000842829)
(0.000121814 -0.0218889 -0.000683321)
(0.000118178 -0.0144089 -0.000499026)
(0.000102462 -0.00514834 -0.000300245)
(7.59236e-05 0.00554589 -9.90149e-05)
(4.20448e-05 0.0164958 8.73268e-05)
(7.63578e-06 0.0251565 0.000231356)
(-1.25297e-05 0.0283659 0.000318089)
(-6.21346e-06 0.021139 0.000307305)
(-1.33682e-06 0.0533573 0.000422282)
(-5.23247e-05 0.0951222 0.000641496)
(-0.000156441 0.101668 0.000629477)
(-0.00028622 0.0942381 0.000556257)
(-0.000436836 0.0764432 0.000419472)
(-0.000567489 0.0542699 0.000233952)
(-0.000675325 0.0327678 2.99909e-05)
(-0.000755295 0.0142774 -0.000178813)
(-0.000805644 -0.000614227 -0.000385683)
(-0.000828791 -0.0121458 -0.000582886)
(-0.000827733 -0.0208381 -0.000761185)
(-0.000806056 -0.0272396 -0.000912102)
(-0.00076756 -0.0318467 -0.00103067)
(-0.000716299 -0.0350921 -0.00111692)
(-0.000653936 -0.0373601 -0.00117571)
(-0.000581786 -0.0389446 -0.00121543)
(-0.000501706 -0.0400188 -0.0012403)
(-0.000416525 -0.0406604 -0.00125125)
(-0.000328682 -0.0409113 -0.00124857)
(-0.00024056 -0.040796 -0.0012328)
(-0.000154574 -0.0403199 -0.00120469)
(-7.39238e-05 -0.03947 -0.00116502)
(-2.89491e-06 -0.0382191 -0.00111555)
(5.41913e-05 -0.0365283 -0.00105846)
(9.32099e-05 -0.0343158 -0.000993033)
(0.000117248 -0.0313638 -0.000913365)
(0.000128117 -0.0272956 -0.000807175)
(0.000128283 -0.021733 -0.000672371)
(0.000118346 -0.0144517 -0.000515175)
(9.87473e-05 -0.00539922 -0.000344462)
(7.08406e-05 0.00509319 -0.000170441)
(3.82127e-05 0.015883 -7.09446e-06)
(7.11948e-06 0.0244796 0.000123898)
(-1.08921e-05 0.0277246 0.000211679)
(-6.18706e-06 0.0206935 0.000232183)
(-8.32836e-07 0.0529937 0.000329163)
(-4.08447e-05 0.0946177 0.000476086)
(-0.000123788 0.101222 0.000450533)
(-0.000227757 0.0939058 0.000384757)
(-0.000349104 0.076308 0.000271991)
(-0.00045477 0.0543386 0.000119262)
(-0.000541879 0.0329933 -5.1042e-05)
(-0.000606116 0.0146133 -0.000227668)
(-0.000646286 -0.000193983 -0.000404087)
(-0.000664366 -0.0116497 -0.000572875)
(-0.000662463 -0.020267 -0.00072548)
(-0.000643548 -0.0265958 -0.000854165)
(-0.000610802 -0.0311397 -0.000954425)
(-0.000567613 -0.0343345 -0.00102617)
(-0.000514965 -0.0365757 -0.00107424)
(-0.000453875 -0.0381587 -0.0011065)
(-0.000386129 -0.0392415 -0.00112639)
(-0.000314118 -0.0398953 -0.00113464)
(-0.00023999 -0.0401621 -0.00113161)
(-0.000165812 -0.0400665 -0.00111784)
(-9.36389e-05 -0.0396143 -0.00109402)
(-2.59109e-05 -0.0387926 -0.00106082)
(3.34697e-05 -0.0375726 -0.00101905)
(8.07065e-05 -0.0359152 -0.000970742)
(0.000111923 -0.033748 -0.000915619)
(0.000129114 -0.0308801 -0.000849006)
(0.000134123 -0.0269417 -0.000759856)
(0.000129213 -0.0215367 -0.000645281)
(0.000115562 -0.0144313 -0.000510462)
(9.40577e-05 -0.00556348 -0.000363116)
(6.60614e-05 0.00474976 -0.000212027)
(3.50778e-05 0.0153954 -6.86212e-05)
(6.8145e-06 0.0239301 4.99685e-05)
(-9.41868e-06 0.0272074 0.000136206)
(-5.87976e-06 0.0203207 0.000176603)
(-1.83035e-07 0.0526822 0.000258892)
(-3.13542e-05 0.0941858 0.000355546)
(-9.77935e-05 0.100836 0.000322363)
(-0.000181567 0.0936157 0.000263195)
(-0.000279811 0.0761827 0.000168666)
(-0.000365536 0.0543889 4.1167e-05)
(-0.0004361 0.0331854 -0.000102375)
(-0.000487666 0.0149113 -0.000252725)
(-0.000519869 0.000188534 -0.000403936)
(-0.000534216 -0.0111906 -0.000549059)
(-0.000531799 -0.0197334 -0.000680264)
(-0.00051537 -0.0259916 -0.00079051)
(-0.000487641 -0.0304742 -0.000875703)
(-0.000451333 -0.0336225 -0.000935732)
(-0.000406966 -0.0358408 -0.000975392)
(-0.000355251 -0.0374227 -0.00100186)
(-0.000297884 -0.0385125 -0.00101795)
(-0.000236906 -0.0391762 -0.00102423)
(-0.000174214 -0.0394563 -0.00102108)
(-0.000111644 -0.0393774 -0.00100895)
(-5.09968e-05 -0.0389454 -0.000988483)
(5.83652e-06 -0.038148 -0.000960332)
(5.53785e-05 -0.0369547 -0.000924828)
(9.43699e-05 -0.0353263 -0.000883999)
(0.000119226 -0.0331971 -0.000837593)
(0.00013112 -0.0303995 -0.000781737)
(0.000131897 -0.0265723 -0.000706609)
(0.000123611 -0.0213071 -0.00060887)
(0.000107869 -0.0143597 -0.000492771)
(8.58169e-05 -0.00565797 -0.000365041)
(5.87895e-05 0.00449382 -0.0002333)
(3.01006e-05 0.0150082 -0.000107045)
(4.88295e-06 0.0234819 1.90049e-08)
(-9.15465e-06 0.0267804 8.29278e-05)
(-5.63004e-06 0.0200081 0.000135098)
(1.34343e-07 0.0524138 0.000205106)
(-2.4699e-05 0.0938153 0.000265821)
(-7.88695e-05 0.100503 0.000228453)
(-0.00014738 0.0933618 0.00017518)
(-0.000227913 0.076066 9.51115e-05)
(-0.000298186 0.0544231 -1.24745e-05)
(-0.000356 0.0333468 -0.000134735)
(-0.000398309 0.0151726 -0.000263944)
(-0.000424164 0.000532098 -0.00039454)
(-0.000435073 -0.0107716 -0.000520113)
(-0.000432456 -0.019242 -0.000633501)
(-0.000418211 -0.0254327 -0.000728362)
(-0.000394605 -0.0298576 -0.000801039)
(-0.000363808 -0.0329646 -0.000851491)
(-0.000326055 -0.0351641 -0.000884361)
(-0.000281873 -0.0367455 -0.000906138)
(-0.00023286 -0.037841 -0.000919168)
(-0.00018077 -0.038513 -0.000923896)
(-0.00012728 -0.0388041 -0.000920672)
(-7.40134e-05 -0.0387389 -0.000909906)
(-2.25678e-05 -0.0383238 -0.000892133)
(2.54048e-05 -0.0375466 -0.000867983)
(6.70616e-05 -0.0363768 -0.000837891)
(9.95739e-05 -0.0347741 -0.000803444)
(0.000119724 -0.0326776 -0.000764291)
(0.00012794 -0.0299386 -0.000717166)
(0.0001261 -0.0262073 -0.000653533)
(0.000115946 -0.0210667 -0.000569724)
(9.94018e-05 -0.0142608 -0.000469192)
(7.77006e-05 -0.00570786 -0.000357838)
(5.2115e-05 0.00429937 -0.00024234)
(2.57903e-05 0.0146956 -0.000130719)
(3.29765e-06 0.0231117 -3.40826e-05)
(-8.84107e-06 0.0264239 4.44804e-05)
(-5.334e-06 0.0197432 0.000103292)
(4.86693e-07 0.0521806 0.000164576)
(-1.92789e-05 0.0934943 0.000200737)
(-6.37005e-05 0.100212 0.000162031)
(-0.000120169 0.0931379 0.000114335)
(-0.000186698 0.0759581 4.59158e-05)
(-0.000244736 0.0544461 -4.59188e-05)
(-0.000292477 0.0334845 -0.00015106)
(-0.000327565 0.0154035 -0.000262835)
(-0.00034911 0.000841888 -0.000376119)
(-0.000357944 -0.0103895 -0.000485134)
(-0.000355221 -0.0187912 -0.000583478)
(-0.000342787 -0.0249184 -0.000665472)
(-0.000322649 -0.0292895 -0.000727817)
(-0.000296418 -0.0323593 -0.000770474)
(-0.000264231 -0.0345427 -0.000798065)
(-0.000226324 -0.0361238 -0.00081627)
(-0.000184276 -0.0372241 -0.000827102)
(-0.000139594 -0.037903 -0.000830914)
(-9.37443e-05 -0.0382036 -0.000828034)
(-4.8145e-05 -0.0381504 -0.00081882)
(-4.20012e-06 -0.03775 -0.000803739)
(3.66509e-05 -0.0369904 -0.000783344)
(7.20981e-05 -0.0358414 -0.000758022)
(9.95863e-05 -0.0342614 -0.000728837)
(0.000116216 -0.0321927 -0.000695525)
(0.000121866 -0.0295025 -0.000655398)
(0.000118378 -0.0258538 -0.00060112)
(0.000107226 -0.0208249 -0.000528891)
(9.05507e-05 -0.0141456 -0.00044147)
(6.96257e-05 -0.00572619 -0.000344053)
(4.56573e-05 0.00415132 -0.000242498)
(2.16631e-05 0.0144412 -0.000143638)
(1.73506e-06 0.0228035 -5.65731e-05)
(-8.63654e-06 0.0261242 1.69965e-05)
(-5.07749e-06 0.0195178 7.88617e-05)