/*--------------------------------*- C++ -*----------------------------------*\
| =========                 |                                                 |
| \\      /  F ield         | OpenFOAM: The Open Source CFD Toolbox           |
|  \\    /   O peration     | Version:  v2006                                 |
|   \\  /    A nd           | Website:  www.openfoam.com                      |
|    \\/     M anipulation  |                                                 |
\*---------------------------------------------------------------------------*/
FoamFile
{
    version     2.0;
    format      ascii;
    class       volScalarField;
    location    "90";
    object      alphat;
}
// * * * * * * * * * * * * * * * * * * * * * * * * * * * * * * * * * * * * * //

dimensions      [1 -1 -1 0 0 0 0];


internalField   nonuniform List<scalar> 
78750
(
1.43083e-09
2.68881e-07
5.11963e-07
7.58721e-07
1.0029e-06
1.2409e-06
1.47008e-06
1.68808e-06
1.89282e-06
2.08258e-06
2.25603e-06
2.41223e-06
2.55056e-06
2.67076e-06
2.77226e-06
2.85416e-06
2.91637e-06
2.95872e-06
2.98094e-06
2.98259e-06
2.96363e-06
2.92168e-06
2.85618e-06
2.76571e-06
2.64859e-06
2.50327e-06
2.32784e-06
2.12115e-06
1.88388e-06
1.6175e-06
1.3231e-06
1.00409e-06
6.78183e-07
3.82832e-07
5.52673e-09
4.18422e-09
2.49159e-06
5.42211e-06
8.10521e-06
1.01114e-05
1.16299e-05
1.28971e-05
1.40458e-05
1.51501e-05
1.62575e-05
1.73999e-05
1.8598e-05
1.98907e-05
2.13303e-05
2.23338e-05
2.24214e-05
2.24137e-05
2.232e-05
2.21488e-05
2.19066e-05
2.15988e-05
2.12242e-05
2.07825e-05
2.02686e-05
1.96732e-05
1.89863e-05
1.75856e-05
1.53724e-05
1.31733e-05
1.09017e-05
8.44337e-06
6.07147e-06
4.51492e-06
2.64637e-06
2.21062e-08
7.34116e-09
2.4413e-06
5.42558e-06
9.07877e-06
1.2881e-05
1.6204e-05
1.88106e-05
2.07955e-05
2.23236e-05
2.35238e-05
2.44807e-05
2.52446e-05
2.58455e-05
2.6316e-05
2.66968e-05
2.69642e-05
2.68659e-05
2.64265e-05
2.59192e-05
2.53612e-05
2.477e-05
2.37569e-05
2.257e-05
2.12933e-05
1.99768e-05
1.86391e-05
1.72613e-05
1.57759e-05
1.40478e-05
1.19336e-05
9.56002e-06
7.6937e-06
7.1125e-06
2.65978e-06
3.92762e-08
1.14353e-08
2.33035e-06
5.35564e-06
9.65377e-06
1.48817e-05
1.97434e-05
2.33449e-05
2.57579e-05
2.72983e-05
2.81876e-05
2.85667e-05
2.85367e-05
2.81788e-05
2.75634e-05
2.67559e-05
2.58156e-05
2.47836e-05
2.36833e-05
2.25353e-05
2.13639e-05
2.01969e-05
1.90679e-05
1.80137e-05
1.70659e-05
1.62417e-05
1.55272e-05
1.48485e-05
1.40429e-05
1.28857e-05
1.12741e-05
9.57879e-06
8.7775e-06
9.08644e-06
2.40215e-06
5.18446e-08
1.64715e-08
2.2825e-06
5.44386e-06
1.04343e-05
1.70472e-05
2.32419e-05
2.754e-05
3.01032e-05
3.13533e-05
3.15777e-05
3.10177e-05
2.99015e-05
2.84382e-05
2.68048e-05
2.51343e-05
2.35115e-05
2.19791e-05
2.05479e-05
1.92109e-05
1.79565e-05
1.67817e-05
1.57004e-05
1.47396e-05
1.39281e-05
1.32865e-05
1.28064e-05
1.24128e-05
1.19358e-05
1.11696e-05
1.01038e-05
9.22128e-06
9.5148e-06
9.5933e-06
2.22794e-06
6.01455e-08
2.13814e-08
2.31079e-06
5.66584e-06
1.13397e-05
1.92938e-05
2.66801e-05
3.13606e-05
3.36477e-05
3.41798e-05
3.34216e-05
3.17771e-05
2.96204e-05
2.72749e-05
2.49811e-05
2.28832e-05
2.10399e-05
1.94508e-05
1.80816e-05
1.68844e-05
1.58138e-05
1.48413e-05
1.39593e-05
1.31674e-05
1.24686e-05
1.18739e-05
1.13836e-05
1.09485e-05
1.04539e-05
9.79494e-06
9.07516e-06
8.8222e-06
1.00199e-05
9.25444e-06
2.11266e-06
6.57596e-08
2.6349e-08
2.33878e-06
5.82173e-06
1.19565e-05
2.07894e-05
2.87836e-05
3.346e-05
3.53497e-05
3.52086e-05
3.36064e-05
3.10944e-05
2.81909e-05
2.53073e-05
2.26992e-05
2.04719e-05
1.86261e-05
1.71117e-05
1.58634e-05
1.48182e-05
1.39273e-05
1.31659e-05
1.25207e-05
1.19587e-05
1.14406e-05
1.09429e-05
1.04525e-05
9.94306e-06
9.37264e-06
8.74792e-06
8.25728e-06
8.43288e-06
1.02315e-05
8.61927e-06
2.03273e-06
7.0298e-08
3.04957e-08
2.37559e-06
5.95053e-06
1.23973e-05
2.18936e-05
3.04125e-05
3.5081e-05
3.65607e-05
3.57585e-05
3.34071e-05
3.02252e-05
2.68454e-05
2.3705e-05
2.10118e-05
1.88018e-05
1.70268e-05
1.56125e-05
1.44827e-05
1.35718e-05
1.28363e-05
1.22577e-05
1.18079e-05
1.14166e-05
1.10081e-05
1.05316e-05
9.96915e-06
9.32631e-06
8.63339e-06
7.98411e-06
7.61291e-06
8.03801e-06
1.01831e-05
8.09165e-06
1.9823e-06
7.50411e-08
3.45175e-08
2.39927e-06
6.0142e-06
1.26281e-05
2.24893e-05
3.12056e-05
3.57161e-05
3.68304e-05
3.55579e-05
3.27402e-05
2.91955e-05
2.56032e-05
2.23803e-05
1.96814e-05
1.74979e-05
1.57558e-05
1.43776e-05
1.32956e-05
1.24552e-05
1.18313e-05
1.1423e-05
1.1185e-05
1.10099e-05
1.07743e-05
1.03773e-05
9.77818e-06
9.01459e-06
8.1946e-06
7.48961e-06
7.1649e-06
7.72138e-06
1.00392e-05
7.64987e-06
1.9462e-06
8.04436e-08
3.82186e-08
2.42451e-06
6.06929e-06
1.27977e-05
2.29307e-05
3.18366e-05
3.62576e-05
3.70874e-05
3.54409e-05
3.22744e-05
2.8491e-05
2.47879e-05
2.15439e-05
1.88639e-05
1.67066e-05
1.49859e-05
1.36185e-05
1.25428e-05
1.17187e-05
1.11387e-05
1.08191e-05
1.07071e-05
1.06798e-05
1.0583e-05
1.02711e-05
9.66965e-06
8.82676e-06
7.90896e-06
7.15016e-06
6.83847e-06
7.46321e-06
9.87134e-06
7.30216e-06
1.92123e-06
8.63646e-08
4.19225e-08
2.44143e-06
6.09777e-06
1.28955e-05
2.31921e-05
3.21503e-05
3.64225e-05
3.70047e-05
3.50912e-05
3.17107e-05
2.78089e-05
2.40747e-05
2.08472e-05
1.81954e-05
1.60586e-05
1.43454e-05
1.2976e-05
1.18936e-05
1.10702e-05
1.05175e-05
1.0266e-05
1.02563e-05
1.03569e-05
1.03907e-05
1.01731e-05
9.59766e-06
8.71522e-06
7.73294e-06
6.9333e-06
6.62633e-06
7.29765e-06
9.76497e-06
7.00623e-06
1.90283e-06
9.25615e-08
4.5755e-08
2.46272e-06
6.14075e-06
1.30226e-05
2.34827e-05
3.24865e-05
3.66262e-05
3.69908e-05
3.48519e-05
3.13067e-05
2.73308e-05
2.35939e-05
2.03955e-05
1.77732e-05
1.56515e-05
1.39358e-05
1.25492e-05
1.14412e-05
1.05924e-05
1.00286e-05
9.79511e-06
9.83246e-06
1.00087e-05
1.01358e-05
1.00024e-05
9.47347e-06
8.59352e-06
7.59146e-06
6.77948e-06
6.4854e-06
7.20158e-06
9.72354e-06
6.76094e-06
1.89079e-06
9.88024e-08
4.95809e-08
2.47943e-06
6.17323e-06
1.31239e-05
2.37059e-05
3.27029e-05
3.66916e-05
3.68574e-05
3.45369e-05
3.08785e-05
2.6871e-05
2.31574e-05
2.00003e-05
1.74123e-05
1.53083e-05
1.35927e-05
1.21918e-05
1.10605e-05
1.01872e-05
9.60952e-06
9.38167e-06
9.44507e-06
9.67001e-06
9.86303e-06
9.79717e-06
9.31837e-06
8.46432e-06
7.47399e-06
6.67526e-06
6.40922e-06
7.18097e-06
9.75843e-06
6.54964e-06
1.88355e-06
1.04929e-07
5.36705e-08
2.50088e-06
6.22249e-06
1.32688e-05
2.39946e-05
3.29705e-05
3.67976e-05
3.67725e-05
3.42945e-05
3.05538e-05
2.65395e-05
2.28621e-05
1.97488e-05
1.71921e-05
1.50998e-05
1.33769e-05
1.19533e-05
1.0789e-05
9.87891e-06
9.26956e-06
9.02512e-06
9.08696e-06
9.32872e-06
9.55773e-06
9.54125e-06
9.11407e-06
8.30582e-06
7.35502e-06
6.59393e-06
6.37159e-06
7.20981e-06
9.84518e-06
6.37685e-06
1.88137e-06
1.10899e-07
5.76962e-08
2.51947e-06
6.26608e-06
1.33982e-05
2.42422e-05
3.31768e-05
3.68451e-05
3.66465e-05
3.40359e-05
3.02375e-05
2.62342e-05
2.26024e-05
1.95376e-05
1.70152e-05
1.49377e-05
1.32109e-05
1.17677e-05
1.05729e-05
9.6268e-06
8.98333e-06
8.71569e-06
8.76611e-06
9.00951e-06
9.25621e-06
9.27354e-06
8.89261e-06
8.13797e-06
7.24291e-06
6.53624e-06
6.37178e-06
7.28972e-06
9.97995e-06
6.23141e-06
1.88295e-06
1.16671e-07
6.19777e-08
2.54177e-06
6.32189e-06
1.35602e-05
2.45407e-05
3.34215e-05
3.69229e-05
3.6561e-05
3.38412e-05
3.00096e-05
2.60325e-05
2.24511e-05
1.9433e-05
1.69402e-05
1.48721e-05
1.31356e-05
1.16667e-05
1.04342e-05
9.44342e-06
8.7527e-06
8.44488e-06
8.46561e-06
8.69243e-06
8.93996e-06
8.98015e-06
8.64468e-06
7.95251e-06
7.12669e-06
6.48742e-06
6.39159e-06
7.39887e-06
1.01409e-05
6.11737e-06
1.88846e-06
1.22278e-07
6.61713e-08
2.5622e-06
6.37471e-06
1.37136e-05
2.4813e-05
3.36306e-05
3.69741e-05
3.64648e-05
3.36522e-05
2.98e-05
2.58561e-05
2.23283e-05
1.93593e-05
1.68994e-05
1.48446e-05
1.31022e-05
1.16105e-05
1.0342e-05
9.30675e-06
8.56665e-06
8.21349e-06
8.19715e-06
8.39783e-06
8.63535e-06
8.68853e-06
8.39343e-06
7.76535e-06
7.01517e-06
6.45136e-06
6.43272e-06
7.53827e-06
1.03226e-05
6.02355e-06
1.89647e-06
1.27705e-07
7.05848e-08
2.5853e-06
6.43598e-06
1.38898e-05
2.51212e-05
3.38691e-05
3.7055e-05
3.64125e-05
3.3528e-05
2.96717e-05
2.57677e-05
2.22929e-05
1.93689e-05
1.69375e-05
1.48921e-05
1.31401e-05
1.16214e-05
1.03118e-05
9.22467e-06
8.42502e-06
8.0127e-06
7.94543e-06
8.10683e-06
8.3236e-06
8.38375e-06
8.12875e-06
7.56892e-06
6.9005e-06
6.41846e-06
6.48322e-06
7.69329e-06
1.05139e-05
5.95413e-06
1.90742e-06
1.32991e-07
7.49137e-08
2.60717e-06
6.49621e-06
1.40638e-05
2.54173e-05
3.40902e-05
3.71269e-05
3.63623e-05
3.34147e-05
2.95588e-05
2.56965e-05
2.2276e-05
1.94001e-05
1.70018e-05
1.49715e-05
1.32152e-05
1.16738e-05
1.03255e-05
9.18676e-06
8.32579e-06
7.84908e-06
7.72429e-06
7.83871e-06
8.02646e-06
8.08634e-06
7.86707e-06
7.37445e-06
6.78912e-06
6.39174e-06
6.54436e-06
7.86416e-06
1.07092e-05
5.89815e-06
1.91974e-06
1.38111e-07
7.94283e-08
2.63088e-06
6.56255e-06
1.42558e-05
2.57428e-05
3.43389e-05
3.72315e-05
3.63584e-05
3.33622e-05
2.95153e-05
2.56955e-05
2.23259e-05
1.94941e-05
1.71262e-05
1.51092e-05
1.33476e-05
1.17821e-05
1.03923e-05
9.19696e-06
8.26685e-06
7.71449e-06
7.52139e-06
7.57926e-06
7.73047e-06
7.78552e-06
7.60057e-06
7.17594e-06
6.67559e-06
6.36527e-06
6.60858e-06
8.04154e-06
1.09046e-05
5.85944e-06
1.934e-06
1.43098e-07
8.38692e-08
2.65351e-06
6.62855e-06
1.44499e-05
2.60682e-05
3.45854e-05
3.73394e-05
3.63628e-05
3.33195e-05
2.94804e-05
2.57024e-05
2.23855e-05
1.96022e-05
1.7271e-05
1.52746e-05
1.35148e-05
1.1931e-05
1.05028e-05
9.25109e-06
8.2497e-06
7.61624e-06
7.34853e-06
7.34335e-06
7.45161e-06
7.49614e-06
7.34112e-06
6.98162e-06
6.56479e-06
6.3419e-06
6.67851e-06
8.22766e-06
1.10975e-05
5.8301e-06
1.94901e-06
1.47921e-07
8.84669e-08
2.67715e-06
6.69867e-06
1.46592e-05
2.64228e-05
3.48654e-05
3.7486e-05
3.64123e-05
3.33268e-05
2.94968e-05
2.57587e-05
2.24914e-05
1.97543e-05
1.74589e-05
1.54839e-05
1.37277e-05
1.21269e-05
1.06603e-05
9.34997e-06
8.27201e-06
7.54827e-06
7.19738e-06
7.12178e-06
7.18128e-06
7.21111e-06
7.08322e-06
6.78693e-06
6.4524e-06
6.31656e-06
6.74715e-06
8.41371e-06
1.12833e-05
5.80991e-06
1.96467e-06
1.52591e-07
9.30034e-08
2.69962e-06
6.76788e-06
1.48705e-05
2.67815e-05
3.51466e-05
3.76384e-05
3.64695e-05
3.3337e-05
2.9513e-05
2.58154e-05
2.26011e-05
1.99155e-05
1.76631e-05
1.57174e-05
1.39729e-05
1.23621e-05
1.08613e-05
9.49319e-06
8.33632e-06
7.51688e-06
7.07678e-06
6.92493e-06
6.9303e-06
6.9405e-06
6.83522e-06
6.59821e-06
6.34328e-06
6.29371e-06
6.82001e-06
8.6074e-06
1.14679e-05
5.79777e-06
1.98099e-06
1.57084e-07
9.76675e-08
2.72266e-06
6.83946e-06
1.50889e-05
2.71463e-05
3.5422e-05
3.77881e-05
3.65403e-05
3.33725e-05
2.95597e-05
2.59031e-05
2.27401e-05
2.01048e-05
1.78955e-05
1.59817e-05
1.42528e-05
1.26365e-05
1.1105e-05
9.67975e-06
8.44116e-06
7.51959e-06
6.98318e-06
6.74868e-06
6.69452e-06
6.68051e-06
6.59367e-06
6.41213e-06
6.23371e-06
6.26844e-06
6.88945e-06
8.79619e-06
1.16384e-05
5.78813e-06
1.99684e-06
1.61385e-07
1.02281e-07
2.74497e-06
6.91124e-06
1.53087e-05
2.7501e-05
3.56817e-05
3.79237e-05
3.65986e-05
3.34079e-05
2.96058e-05
2.5989e-05
2.28798e-05
2.02998e-05
1.81403e-05
1.62659e-05
1.45609e-05
1.29468e-05
1.13905e-05
9.91095e-06
8.58983e-06
7.56224e-06
6.92369e-06
6.60097e-06
6.48202e-06
6.43855e-06
6.36475e-06
6.23356e-06
6.12778e-06
6.2451e-06
6.96194e-06
8.99153e-06
1.18094e-05
5.7845e-06
2.01299e-06
1.65484e-07
1.06984e-07
2.7674e-06
6.98553e-06
1.55403e-05
2.78564e-05
3.5936e-05
3.80547e-05
3.66563e-05
3.3448e-05
2.96618e-05
2.6088e-05
2.30339e-05
2.05097e-05
1.84014e-05
1.65697e-05
1.48939e-05
1.32887e-05
1.17141e-05
1.01844e-05
8.78151e-06
7.64511e-06
6.8984e-06
6.48148e-06
6.29215e-06
6.21379e-06
6.14742e-06
6.06113e-06
6.02349e-06
6.22049e-06
7.03204e-06
9.18534e-06
1.19769e-05
5.78403e-06
2.02866e-06
1.69366e-07
1.11623e-07
2.7885e-06
7.05653e-06
1.5764e-05
2.81967e-05
3.61715e-05
3.81687e-05
3.66995e-05
3.34768e-05
2.97122e-05
2.61845e-05
2.31877e-05
2.0723e-05
1.86711e-05
1.68886e-05
1.52494e-05
1.36609e-05
1.20753e-05
1.05009e-05
9.01867e-06
7.7732e-06
6.91334e-06
6.39667e-06
6.13127e-06
6.01195e-06
5.94638e-06
5.8984e-06
5.92355e-06
6.19732e-06
7.10453e-06
9.38687e-06
1.21425e-05
5.78887e-06
2.04444e-06
1.73027e-07
1.16315e-07
2.80992e-06
7.12929e-06
1.59926e-05
2.85377e-05
3.64018e-05
3.82773e-05
3.6738e-05
3.3503e-05
2.97702e-05
2.62866e-05
2.33448e-05
2.09403e-05
1.89477e-05
1.72188e-05
1.56222e-05
1.40579e-05
1.24694e-05
1.08574e-05
9.30037e-06
7.9475e-06
6.96967e-06
6.34752e-06
6.00024e-06
5.83364e-06
5.76195e-06
5.74547e-06
5.82809e-06
6.17608e-06
7.18048e-06
9.59746e-06
1.23105e-05
5.80191e-06
2.06097e-06
1.76476e-07
1.20937e-07
2.83034e-06
7.19984e-06
1.62159e-05
2.88645e-05
3.66136e-05
3.83674e-05
3.67581e-05
3.35103e-05
2.9809e-05
2.63744e-05
2.34943e-05
2.11564e-05
1.92289e-05
1.75596e-05
1.60121e-05
1.44795e-05
1.2896e-05
1.12535e-05
9.62685e-06
8.1695e-06
7.07034e-06
6.33802e-06
5.9034e-06
5.68302e-06
5.59769e-06
5.60504e-06
5.7388e-06
6.15732e-06
7.25883e-06
9.8132e-06
1.24776e-05
5.81997e-06
2.07797e-06
1.79708e-07
1.25577e-07
2.85102e-06
7.27164e-06
1.64422e-05
2.91898e-05
3.68188e-05
3.84497e-05
3.677e-05
3.35098e-05
2.98414e-05
2.64573e-05
2.36404e-05
2.13708e-05
1.95111e-05
1.79055e-05
1.64131e-05
1.49198e-05
1.33499e-05
1.16852e-05
9.99541e-06
8.43708e-06
7.2145e-06
6.36823e-06
5.84138e-06
5.561e-06
5.45455e-06
5.47805e-06
5.65672e-06
6.14226e-06
7.34042e-06
1.0033e-05
1.26445e-05
5.84272e-06
2.09535e-06
1.82734e-07
1.3015e-07
2.8712e-06
7.34241e-06
1.66644e-05
2.95017e-05
3.70056e-05
3.85124e-05
3.67612e-05
3.34886e-05
2.98547e-05
2.65255e-05
2.37766e-05
2.158e-05
1.97929e-05
1.8256e-05
1.68246e-05
1.53778e-05
1.38296e-05
1.21507e-05
1.04041e-05
8.74856e-06
7.40203e-06
6.43928e-06
5.81618e-06
5.47001e-06
5.33496e-06
5.36645e-06
5.58268e-06
6.12978e-06
7.42182e-06
1.02533e-05
1.28084e-05
5.86876e-06
2.11289e-06
1.8556e-07
1.34717e-07
2.89173e-06
7.4149e-06
1.68884e-05
2.98094e-05
3.71825e-05
3.85628e-05
3.67385e-05
3.34529e-05
2.98545e-05
2.65827e-05
2.39037e-05
2.17819e-05
2.00698e-05
1.86056e-05
1.72408e-05
1.58476e-05
1.43298e-05
1.26457e-05
1.08497e-05
9.10139e-06
7.63149e-06
6.55044e-06
5.82752e-06
5.41024e-06
5.23945e-06
5.2709e-06
5.51747e-06
6.12153e-06
7.50636e-06
1.04732e-05
1.29695e-05
5.89759e-06
2.13046e-06
1.88196e-07
1.39228e-07
2.9121e-06
7.4889e-06
1.71081e-05
3.01032e-05
3.73405e-05
3.85923e-05
3.66936e-05
3.33949e-05
2.9834e-05
2.66257e-05
2.40196e-05
2.1975e-05
2.03412e-05
1.89539e-05
1.76606e-05
1.63275e-05
1.48477e-05
1.31668e-05
1.13292e-05
9.49323e-06
7.90198e-06
6.70182e-06
5.87619e-06
5.38293e-06
5.16961e-06
5.19321e-06
5.46297e-06
6.11915e-06
7.59492e-06
1.06929e-05
1.31286e-05
5.92894e-06
2.14796e-06
1.90652e-07
1.4369e-07
2.93151e-06
7.56094e-06
1.73263e-05
3.03894e-05
3.7485e-05
3.86064e-05
3.66317e-05
3.33191e-05
2.97957e-05
2.66538e-05
2.41216e-05
2.21559e-05
2.06033e-05
1.92964e-05
1.80795e-05
1.68124e-05
1.53784e-05
1.37094e-05
1.18383e-05
9.921e-06
8.21161e-06
6.89236e-06
5.96172e-06
5.38807e-06
5.12591e-06
5.1342e-06
5.41998e-06
6.12273e-06
7.68579e-06
1.09117e-05
1.3286e-05
5.96247e-06
2.16534e-06
1.92938e-07
1.4807e-07
2.95052e-06
7.63176e-06
1.75401e-05
3.06635e-05
3.76127e-05
3.85999e-05
3.65471e-05
3.32212e-05
2.97376e-05
2.6664e-05
2.4209e-05
2.23257e-05
2.08574e-05
1.9634e-05
1.84969e-05
1.73006e-05
1.59185e-05
1.42692e-05
1.23728e-05
1.03811e-05
8.55823e-06
7.12112e-06
6.08397e-06
5.42613e-06
5.10927e-06
5.09511e-06
5.38976e-06
6.13303e-06
7.77875e-06
1.11289e-05
1.34422e-05
5.99803e-06
2.18256e-06
1.95063e-07
1.52366e-07
2.9684e-06
7.70022e-06
1.77514e-05
3.09296e-05
3.77261e-05
3.8577e-05
3.64446e-05
3.31024e-05
2.96559e-05
2.66526e-05
2.42798e-05
2.24824e-05
2.11006e-05
1.99631e-05
1.89091e-05
1.77878e-05
1.64635e-05
1.48411e-05
1.29274e-05
1.08687e-05
8.93831e-06
7.38569e-06
6.24153e-06
5.49651e-06
5.11982e-06
5.07663e-06
5.37321e-06
6.15074e-06
7.87397e-06
1.13442e-05
1.3597e-05
6.03524e-06
2.19959e-06
1.97033e-07
1.56605e-07
2.98602e-06
7.76852e-06
1.79625e-05
3.11866e-05
3.78249e-05
3.85373e-05
3.63248e-05
3.2969e-05
2.95627e-05
2.66287e-05
2.43346e-05
2.2624e-05
2.13324e-05
2.02838e-05
1.93155e-05
1.82726e-05
1.70107e-05
1.54215e-05
1.3498e-05
1.13801e-05
9.34862e-06
7.68369e-06
6.43288e-06
5.59853e-06
5.15766e-06
5.07947e-06
5.37138e-06
6.17691e-06
7.97222e-06
1.1558e-05
1.3751e-05
6.07409e-06
2.21643e-06
1.9886e-07
1.60757e-07
3.00276e-06
7.83461e-06
1.81685e-05
3.14304e-05
3.79061e-05
3.84778e-05
3.61827e-05
3.28117e-05
2.94463e-05
2.65858e-05
2.43764e-05
2.27535e-05
2.15518e-05
2.05944e-05
1.97145e-05
1.8753e-05
1.75576e-05
1.60071e-05
1.40808e-05
1.19112e-05
9.78574e-06
8.01237e-06
6.65593e-06
5.73082e-06
5.22224e-06
5.10382e-06
5.38494e-06
6.21241e-06
8.07432e-06
1.1771e-05
1.39048e-05
6.11442e-06
2.23307e-06
2.00556e-07
1.64821e-07
3.01888e-06
7.89935e-06
1.83713e-05
3.16629e-05
3.79716e-05
3.84009e-05
3.60232e-05
3.26384e-05
2.93148e-05
2.65278e-05
2.44042e-05
2.28721e-05
2.17617e-05
2.08951e-05
2.01051e-05
1.92273e-05
1.81013e-05
1.65942e-05
1.46715e-05
1.24577e-05
1.02459e-05
8.36872e-06
6.90842e-06
5.89189e-06
5.31284e-06
5.14973e-06
5.4146e-06
6.25831e-06
8.18131e-06
1.19837e-05
1.40591e-05
6.15626e-06
2.24953e-06
2.02134e-07
1.68801e-07
3.03427e-06
7.96221e-06
1.85696e-05
3.18822e-05
3.80193e-05
3.83034e-05
3.5841e-05
3.24421e-05
2.9162e-05
2.64512e-05
2.44164e-05
2.29775e-05
2.19608e-05
2.11865e-05
2.04865e-05
1.96943e-05
1.86408e-05
1.7181e-05
1.52677e-05
1.30169e-05
1.07264e-05
8.75025e-06
7.18824e-06
6.08007e-06
5.42836e-06
5.21676e-06
5.46051e-06
6.3152e-06
8.294e-06
1.2197e-05
1.42146e-05
6.19971e-06
2.26586e-06
2.0361e-07
1.72683e-07
3.04896e-06
8.02321e-06
1.87632e-05
3.20891e-05
3.80507e-05
3.81876e-05
3.564e-05
3.2228e-05
2.89927e-05
2.63592e-05
2.44147e-05
2.30704e-05
2.21487e-05
2.14681e-05
2.08588e-05
2.01517e-05
1.91721e-05
1.77632e-05
1.58645e-05
1.35841e-05
1.12231e-05
9.15399e-06
7.49321e-06
6.29384e-06
5.56791e-06
5.30469e-06
5.52307e-06
6.38391e-06
8.41339e-06
1.24116e-05
1.4372e-05
6.2448e-06
2.28209e-06
2.05e-07
1.76458e-07
3.06278e-06
8.08191e-06
1.89516e-05
3.22824e-05
3.80637e-05
3.80503e-05
3.54161e-05
3.1992e-05
2.88035e-05
2.62495e-05
2.43978e-05
2.315e-05
2.23247e-05
2.17392e-05
2.12221e-05
2.06009e-05
1.96957e-05
1.83398e-05
1.646e-05
1.41566e-05
1.17331e-05
9.57738e-06
7.82127e-06
6.53153e-06
5.73024e-06
5.41277e-06
5.6021e-06
6.46478e-06
8.54018e-06
1.26284e-05
1.45324e-05
6.29184e-06
2.29832e-06
2.0632e-07
1.80136e-07
3.07599e-06
8.13902e-06
1.9136e-05
3.24635e-05
3.80599e-05
3.78938e-05
3.51727e-05
3.1738e-05
2.85982e-05
2.61252e-05
2.43674e-05
2.32169e-05
2.24886e-05
2.19984e-05
2.15735e-05
2.10384e-05
2.02074e-05
1.8906e-05
1.70493e-05
1.47296e-05
1.22524e-05
1.00175e-05
8.17043e-06
6.79186e-06
5.91459e-06
5.5407e-06
5.69772e-06
6.55831e-06
8.67512e-06
1.28481e-05
1.46963e-05
6.34084e-06
2.31458e-06
2.07587e-07
1.83702e-07
3.08834e-06
8.19376e-06
1.93147e-05
3.26303e-05
3.8037e-05
3.77157e-05
3.49074e-05
3.14642e-05
2.83756e-05
2.59855e-05
2.43234e-05
2.32713e-05
2.26406e-05
2.22462e-05
2.19138e-05
2.14647e-05
2.07078e-05
1.94604e-05
1.76302e-05
1.53004e-05
1.27778e-05
1.04714e-05
8.53845e-06
7.07322e-06
6.11984e-06
5.68782e-06
5.80979e-06
6.66484e-06
8.81897e-06
1.30716e-05
1.48651e-05
6.39217e-06
2.33096e-06
2.08817e-07
1.87172e-07
3.10009e-06
8.24696e-06
1.94895e-05
3.27843e-05
3.79965e-05
3.75176e-05
3.46227e-05
3.11736e-05
2.81388e-05
2.58332e-05
2.42676e-05
2.33139e-05
2.27805e-05
2.24811e-05
2.22404e-05
2.18768e-05
2.11932e-05
1.99994e-05
1.81952e-05
1.58613e-05
1.33036e-05
1.09352e-05
8.92279e-06
7.37418e-06
6.34532e-06
5.85392e-06
5.9384e-06
6.78484e-06
8.97256e-06
1.33001e-05
1.5039e-05
6.44583e-06
2.34752e-06
2.10026e-07
1.90526e-07
3.11098e-06
8.29766e-06
1.96578e-05
3.2923e-05
3.79365e-05
3.72983e-05
3.43178e-05
3.08662e-05
2.78882e-05
2.56691e-05
2.42013e-05
2.33464e-05
2.29097e-05
2.27046e-05
2.25543e-05
2.22744e-05
2.16629e-05
2.05223e-05
1.87462e-05
1.6412e-05
1.3827e-05
1.1405e-05
9.32002e-06
7.69232e-06
6.58964e-06
6.03846e-06
6.08368e-06
6.91891e-06
9.13694e-06
1.35347e-05
1.52191e-05
6.50204e-06
2.36433e-06
2.11225e-07
1.93778e-07
3.12117e-06
8.34646e-06
1.98213e-05
3.30479e-05
3.7858e-05
3.70586e-05
3.3994e-05
3.05433e-05
2.76255e-05
2.54948e-05
2.41257e-05
2.33694e-05
2.30284e-05
2.29159e-05
2.28541e-05
2.26557e-05
2.21138e-05
2.1025e-05
1.92778e-05
1.6948e-05
1.43445e-05
1.18775e-05
9.72717e-06
8.02539e-06
6.85141e-06
6.24086e-06
6.24576e-06
7.0679e-06
9.31357e-06
1.37772e-05
1.54056e-05
6.56081e-06
2.38143e-06
2.12425e-07
1.96917e-07
3.13047e-06
8.39267e-06
1.99782e-05
3.31571e-05
3.77597e-05
3.67975e-05
3.3651e-05
3.02057e-05
2.73519e-05
2.5312e-05
2.4043e-05
2.33855e-05
2.31394e-05
2.31177e-05
2.31419e-05
2.30219e-05
2.25463e-05
2.15065e-05
1.97878e-05
1.74658e-05
1.48513e-05
1.23481e-05
1.01403e-05
8.37043e-06
7.12869e-06
6.4601e-06
6.42436e-06
7.23204e-06
9.50355e-06
1.4029e-05
1.55989e-05
6.6223e-06
2.3989e-06
2.13639e-07
1.99955e-07
3.13899e-06
8.43668e-06
2.01296e-05
3.3252e-05
3.76419e-05
3.65151e-05
3.32889e-05
2.98535e-05
2.70677e-05
2.51213e-05
2.39539e-05
2.33955e-05
2.32435e-05
2.33107e-05
2.3418e-05
2.33728e-05
2.29596e-05
2.19656e-05
2.02742e-05
1.79631e-05
1.53449e-05
1.28131e-05
1.05557e-05
8.72433e-06
7.41938e-06
6.69518e-06
6.61967e-06
7.4131e-06
9.70882e-06
1.42923e-05
1.57992e-05
6.68645e-06
2.41677e-06
2.14871e-07
2.02893e-07
3.14668e-06
8.47838e-06
2.02753e-05
3.33317e-05
3.75037e-05
3.62104e-05
3.29073e-05
2.94869e-05
2.67739e-05
2.49241e-05
2.38605e-05
2.34021e-05
2.33437e-05
2.34982e-05
2.36855e-05
2.37108e-05
2.33549e-05
2.24021e-05
2.07358e-05
1.84373e-05
1.58219e-05
1.3269e-05
1.09699e-05
9.08383e-06
7.72084e-06
6.9444e-06
6.83109e-06
7.61147e-06
9.93089e-06
1.45689e-05
1.60064e-05
6.75334e-06
2.43511e-06
2.16128e-07
2.05745e-07
3.15364e-06
8.51813e-06
2.04162e-05
3.33971e-05
3.73449e-05
3.58827e-05
3.25055e-05
2.91057e-05
2.64701e-05
2.47203e-05
2.37628e-05
2.34056e-05
2.34409e-05
2.36813e-05
2.39459e-05
2.40374e-05
2.37336e-05
2.28169e-05
2.11726e-05
1.88876e-05
1.62803e-05
1.37133e-05
1.13798e-05
9.44619e-06
8.03093e-06
7.20636e-06
7.05801e-06
7.82718e-06
1.01712e-05
1.48607e-05
1.62206e-05
6.82298e-06
2.45397e-06
2.1741e-07
2.08517e-07
3.15991e-06
8.55612e-06
2.05528e-05
3.3448e-05
3.71645e-05
3.55309e-05
3.20832e-05
2.87102e-05
2.61572e-05
2.45111e-05
2.36623e-05
2.3408e-05
2.35376e-05
2.3863e-05
2.42021e-05
2.43555e-05
2.40979e-05
2.32112e-05
2.15848e-05
1.93131e-05
1.67182e-05
1.41432e-05
1.17827e-05
9.80869e-06
8.34746e-06
7.47959e-06
7.2996e-06
8.06017e-06
1.04309e-05
1.51691e-05
1.64414e-05
6.89534e-06
2.47341e-06
2.18721e-07
2.11221e-07
3.16557e-06
8.59263e-06
2.06858e-05
3.34846e-05
3.69619e-05
3.51544e-05
3.16401e-05
2.83e-05
2.58349e-05
2.42959e-05
2.35585e-05
2.34089e-05
2.36336e-05
2.40437e-05
2.44556e-05
2.46668e-05
2.44499e-05
2.35871e-05
2.1974e-05
1.97147e-05
1.71353e-05
1.45579e-05
1.2177e-05
1.01696e-05
8.66853e-06
7.76233e-06
7.55469e-06
8.31025e-06
1.07107e-05
1.54952e-05
1.66684e-05
6.97049e-06
2.49348e-06
2.20062e-07
2.13861e-07
3.17067e-06
8.62782e-06
2.08153e-05
3.35063e-05
3.67362e-05
3.47528e-05
3.11765e-05
2.78764e-05
2.55045e-05
2.40763e-05
2.34527e-05
2.34094e-05
2.37301e-05
2.4225e-05
2.47079e-05
2.49733e-05
2.47915e-05
2.39463e-05
2.23414e-05
2.00927e-05
1.75311e-05
1.49556e-05
1.25608e-05
1.05269e-05
8.99238e-06
8.05342e-06
7.82263e-06
8.57727e-06
1.10109e-05
1.58395e-05
1.6901e-05
7.04828e-06
2.51419e-06
2.21437e-07
2.16442e-07
3.17522e-06
8.66175e-06
2.09416e-05
3.3513e-05
3.64871e-05
3.43257e-05
3.06928e-05
2.74396e-05
2.51662e-05
2.38524e-05
2.33448e-05
2.3409e-05
2.38265e-05
2.44062e-05
2.49592e-05
2.5276e-05
2.51245e-05
2.42912e-05
2.26896e-05
2.04496e-05
1.79068e-05
1.53368e-05
1.29331e-05
1.0879e-05
9.31743e-06
8.35114e-06
8.10232e-06
8.86118e-06
1.13327e-05
1.62034e-05
1.71393e-05
7.12875e-06
2.53561e-06
2.22843e-07
2.18967e-07
3.17928e-06
8.69458e-06
2.10648e-05
3.35042e-05
3.62141e-05
3.3874e-05
3.01906e-05
2.69914e-05
2.48218e-05
2.3627e-05
2.32363e-05
2.34082e-05
2.39228e-05
2.45875e-05
2.52095e-05
2.55751e-05
2.54496e-05
2.46228e-05
2.30202e-05
2.07869e-05
1.82633e-05
1.57013e-05
1.32933e-05
1.12248e-05
9.64219e-06
8.6543e-06
8.39283e-06
9.16126e-06
1.16754e-05
1.65859e-05
1.73823e-05
7.21165e-06
2.55771e-06
2.24287e-07
2.21434e-07
3.18282e-06
8.72625e-06
2.11847e-05
3.34794e-05
3.59171e-05
3.33981e-05
2.9671e-05
2.65326e-05
2.44711e-05
2.33993e-05
2.31259e-05
2.34054e-05
2.40177e-05
2.47677e-05
2.54583e-05
2.58708e-05
2.57677e-05
2.49431e-05
2.3336e-05
2.1108e-05
1.8603e-05
1.60502e-05
1.36414e-05
1.15635e-05
9.96565e-06
8.96201e-06
8.69316e-06
9.47715e-06
1.20394e-05
1.69877e-05
1.76298e-05
7.29689e-06
2.5805e-06
2.25768e-07
2.23847e-07
3.18589e-06
8.75689e-06
2.13013e-05
3.34387e-05
3.55967e-05
3.29e-05
2.91371e-05
2.60664e-05
2.41158e-05
2.31675e-05
2.3012e-05
2.33999e-05
2.41106e-05
2.49462e-05
2.57048e-05
2.6162e-05
2.6078e-05
2.52521e-05
2.36383e-05
2.14153e-05
1.89276e-05
1.63845e-05
1.39774e-05
1.18942e-05
1.02863e-05
9.27256e-06
9.00238e-06
9.80824e-06
1.24243e-05
1.74076e-05
1.78807e-05
7.38418e-06
2.60396e-06
2.27288e-07
2.26199e-07
3.18846e-06
8.78634e-06
2.14141e-05
3.33811e-05
3.52528e-05
3.23809e-05
2.85907e-05
2.55945e-05
2.37581e-05
2.29343e-05
2.28965e-05
2.33926e-05
2.42013e-05
2.51222e-05
2.59479e-05
2.64481e-05
2.63806e-05
2.55511e-05
2.39299e-05
2.17132e-05
1.92404e-05
1.67063e-05
1.43025e-05
1.22174e-05
1.06041e-05
9.58541e-06
9.31935e-06
1.01528e-05
1.28286e-05
1.78442e-05
1.8134e-05
7.47312e-06
2.628e-06
2.28852e-07
2.28487e-07
3.19052e-06
8.81448e-06
2.15226e-05
3.33067e-05
3.48868e-05
3.18437e-05
2.80353e-05
2.51197e-05
2.33994e-05
2.26998e-05
2.27787e-05
2.3382e-05
2.42883e-05
2.52938e-05
2.61855e-05
2.67268e-05
2.66734e-05
2.58386e-05
2.42108e-05
2.20028e-05
1.95427e-05
1.70165e-05
1.46168e-05
1.25328e-05
1.09182e-05
9.89954e-06
9.64354e-06
1.05114e-05
1.32516e-05
1.82962e-05
1.83892e-05
7.56363e-06
2.65263e-06
2.30462e-07
2.30701e-07
3.19197e-06
8.84084e-06
2.16254e-05
3.32146e-05
3.4499e-05
3.12897e-05
2.74728e-05
2.4644e-05
2.30414e-05
2.24654e-05
2.26596e-05
2.33687e-05
2.43713e-05
2.54605e-05
2.64168e-05
2.69972e-05
2.69556e-05
2.61144e-05
2.44806e-05
2.22838e-05
1.98348e-05
1.73158e-05
1.49213e-05
1.28406e-05
1.12281e-05
1.02141e-05
9.9737e-06
1.08824e-05
1.36922e-05
1.87611e-05
1.86441e-05
7.65488e-06
2.67768e-06
2.32117e-07
2.32835e-07
3.19274e-06
8.86507e-06
2.17217e-05
3.31051e-05
3.40909e-05
3.07215e-05
2.69059e-05
2.41697e-05
2.2686e-05
2.22325e-05
2.254e-05
2.33527e-05
2.44496e-05
2.56205e-05
2.66396e-05
2.72571e-05
2.72254e-05
2.63765e-05
2.47376e-05
2.25538e-05
2.01156e-05
1.76042e-05
1.52161e-05
1.31411e-05
1.15342e-05
1.0529e-05
1.03092e-05
1.1265e-05
1.41494e-05
1.92373e-05
1.88985e-05
7.74649e-06
2.70305e-06
2.33817e-07
2.34878e-07
3.19269e-06
8.88663e-06
2.18105e-05
3.29777e-05
3.3662e-05
3.01391e-05
2.6335e-05
2.36972e-05
2.23343e-05
2.20026e-05
2.24217e-05
2.33357e-05
2.45246e-05
2.5775e-05
2.68546e-05
2.75068e-05
2.74829e-05
2.66252e-05
2.49816e-05
2.28116e-05
2.03838e-05
1.78802e-05
1.55002e-05
1.34337e-05
1.18358e-05
1.08434e-05
1.06492e-05
1.16582e-05
1.46221e-05
1.97238e-05
1.91506e-05
7.83772e-06
2.72861e-06
2.35554e-07
2.36834e-07
3.19181e-06
8.90543e-06
2.18918e-05
3.28328e-05
3.32127e-05
2.9543e-05
2.57607e-05
2.32275e-05
2.19873e-05
2.17772e-05
2.23063e-05
2.33194e-05
2.45973e-05
2.59242e-05
2.70613e-05
2.77456e-05
2.77274e-05
2.68602e-05
2.52124e-05
2.30568e-05
2.06389e-05
1.81433e-05
1.57728e-05
1.37172e-05
1.21319e-05
1.11569e-05
1.09938e-05
1.20621e-05
1.511e-05
2.02197e-05
1.93987e-05
7.92805e-06
2.75423e-06
2.37335e-07
2.3871e-07
3.1901e-06
8.9215e-06
2.1966e-05
3.26699e-05
3.27409e-05
2.89314e-05
2.51815e-05
2.27595e-05
2.16449e-05
2.15573e-05
2.21961e-05
2.33068e-05
2.46715e-05
2.60716e-05
2.72628e-05
2.79757e-05
2.79608e-05
2.70834e-05
2.54324e-05
2.32908e-05
2.08822e-05
1.83945e-05
1.60342e-05
1.39915e-05
1.24217e-05
1.14679e-05
1.13409e-05
1.24747e-05
1.56104e-05
2.07212e-05
1.96417e-05
8.01685e-06
2.77974e-06
2.39152e-07
2.40525e-07
3.18771e-06
8.93544e-06
2.20345e-05
3.2489e-05
3.22461e-05
2.83042e-05
2.45974e-05
2.22931e-05
2.13071e-05
2.13435e-05
2.20923e-05
2.33001e-05
2.47496e-05
2.62199e-05
2.74612e-05
2.8199e-05
2.81851e-05
2.72973e-05
2.56445e-05
2.35157e-05
2.1115e-05
1.86349e-05
1.62854e-05
1.42573e-05
1.27059e-05
1.17772e-05
1.16909e-05
1.28959e-05
1.61223e-05
2.12265e-05
1.98792e-05
8.10403e-06
2.80512e-06
2.41002e-07
2.42296e-07
3.18479e-06
8.94788e-06
2.20984e-05
3.22891e-05
3.17264e-05
2.76605e-05
2.40077e-05
2.18273e-05
2.09737e-05
2.11356e-05
2.19957e-05
2.33011e-05
2.4835e-05
2.63735e-05
2.76613e-05
2.842e-05
2.84042e-05
2.75061e-05
2.58536e-05
2.37349e-05
2.13398e-05
1.88661e-05
1.65277e-05
1.45153e-05
1.29843e-05
1.20837e-05
1.20426e-05
1.3324e-05
1.66432e-05
2.17327e-05
2.01102e-05
8.18909e-06
2.83024e-06
2.42877e-07
2.44042e-07
3.18158e-06
8.95954e-06
2.21586e-05
3.20696e-05
3.11827e-05
2.70029e-05
2.34143e-05
2.13627e-05
2.06454e-05
2.09328e-05
2.19043e-05
2.33087e-05
2.49278e-05
2.65335e-05
2.7865e-05
2.8641e-05
2.8621e-05
2.77132e-05
2.60633e-05
2.39509e-05
2.15582e-05
1.90893e-05
1.67615e-05
1.47656e-05
1.32566e-05
1.23867e-05
1.23946e-05
1.37575e-05
1.71715e-05
2.22379e-05
2.03344e-05
8.27204e-06
2.8551e-06
2.44775e-07
2.45764e-07
3.17816e-06
8.97067e-06
2.22148e-05
3.18295e-05
3.06165e-05
2.6335e-05
2.28201e-05
2.08995e-05
2.03198e-05
2.07313e-05
2.18148e-05
2.33206e-05
2.50274e-05
2.6701e-05
2.80747e-05
2.88648e-05
2.88383e-05
2.79209e-05
2.62754e-05
2.41655e-05
2.1772e-05
1.93062e-05
1.69886e-05
1.50096e-05
1.35244e-05
1.26889e-05
1.27513e-05
1.41961e-05
1.77042e-05
2.2739e-05
2.05502e-05
8.35211e-06
2.87947e-06
2.46679e-07
2.47454e-07
3.17457e-06
8.981e-06
2.22654e-05
3.15685e-05
3.00318e-05
2.56631e-05
2.22302e-05
2.04403e-05
1.99942e-05
2.05275e-05
2.17231e-05
2.33323e-05
2.51295e-05
2.68731e-05
2.82889e-05
2.90914e-05
2.90565e-05
2.81294e-05
2.64888e-05
2.43784e-05
2.19814e-05
1.95172e-05
1.72094e-05
1.5248e-05
1.37883e-05
1.29903e-05
1.31113e-05
1.46403e-05
1.82417e-05
2.32358e-05
2.07585e-05
8.42949e-06
2.90336e-06
2.48587e-07