/*--------------------------------*- C++ -*----------------------------------*\
| =========                 |                                                 |
| \\      /  F ield         | OpenFOAM: The Open Source CFD Toolbox           |
|  \\    /   O peration     | Version:  v2006                                 |
|   \\  /    A nd           | Website:  www.openfoam.com                      |
|    \\/     M anipulation  |                                                 |
\*---------------------------------------------------------------------------*/
FoamFile
{
    version     2.0;
    format      ascii;
    class       volScalarField;
    location    "90";
    object      nut;
}
// * * * * * * * * * * * * * * * * * * * * * * * * * * * * * * * * * * * * * //

dimensions      [0 2 -1 0 0 0 0];


internalField   nonuniform List<scalar> 
78750
(
1.18612e-09
2.22932e-07
4.24544e-07
6.29268e-07
8.31918e-07
1.02949e-06
1.21979e-06
1.40087e-06
1.57097e-06
1.72868e-06
1.87287e-06
2.00275e-06
2.11781e-06
2.21783e-06
2.30232e-06
2.37053e-06
2.42238e-06
2.45774e-06
2.47637e-06
2.47789e-06
2.46228e-06
2.42756e-06
2.37326e-06
2.29818e-06
2.20095e-06
2.08026e-06
1.93452e-06
1.76279e-06
1.56564e-06
1.34432e-06
1.09982e-06
8.35039e-07
5.64621e-07
3.19373e-07
4.62432e-09
3.46894e-09
2.0664e-06
4.49825e-06
6.72609e-06
8.39309e-06
9.65566e-06
1.07099e-05
1.1666e-05
1.25852e-05
1.35072e-05
1.44582e-05
1.54555e-05
1.65315e-05
1.77296e-05
1.85652e-05
1.86393e-05
1.86339e-05
1.8557e-05
1.84155e-05
1.82147e-05
1.79593e-05
1.76482e-05
1.72812e-05
1.6854e-05
1.6359e-05
1.57878e-05
1.4623e-05
1.27825e-05
1.09539e-05
9.0654e-06
7.02238e-06
5.05216e-06
3.76106e-06
2.2088e-06
1.85044e-08
6.08659e-09
2.02505e-06
4.50244e-06
7.53694e-06
1.0697e-05
1.34605e-05
1.56296e-05
1.72826e-05
1.85562e-05
1.95572e-05
2.03558e-05
2.09937e-05
2.14959e-05
2.18895e-05
2.22081e-05
2.24321e-05
2.23515e-05
2.1987e-05
2.15655e-05
2.11017e-05
2.061e-05
1.97669e-05
1.87791e-05
1.77165e-05
1.66206e-05
1.5507e-05
1.43601e-05
1.31237e-05
1.16859e-05
9.92757e-06
7.9547e-06
6.40539e-06
5.92821e-06
2.22118e-06
3.28948e-08
9.48152e-09
1.93328e-06
4.44536e-06
8.01655e-06
1.23626e-05
1.64064e-05
1.94044e-05
2.1415e-05
2.27003e-05
2.3444e-05
2.3763e-05
2.37413e-05
2.34464e-05
2.29368e-05
2.22669e-05
2.14859e-05
2.06283e-05
1.97134e-05
1.87585e-05
1.77838e-05
1.68125e-05
1.58726e-05
1.49948e-05
1.42054e-05
1.35187e-05
1.29233e-05
1.23576e-05
1.16864e-05
1.07231e-05
9.38258e-06
7.97392e-06
7.3116e-06
7.57777e-06
2.00716e-06
4.34468e-08
1.36578e-08
1.8938e-06
4.51938e-06
8.66666e-06
1.41651e-05
1.93188e-05
2.28977e-05
2.50347e-05
2.60796e-05
2.62711e-05
2.58093e-05
2.4884e-05
2.36692e-05
2.23122e-05
2.09235e-05
1.9574e-05
1.82993e-05
1.71085e-05
1.59957e-05
1.49515e-05
1.39733e-05
1.30729e-05
1.22726e-05
1.15966e-05
1.10619e-05
1.06615e-05
1.03332e-05
9.93566e-06
9.29783e-06
8.41159e-06
7.67958e-06
7.92977e-06
8.00486e-06
1.86266e-06
5.04333e-08
1.77295e-08
1.91745e-06
4.70436e-06
9.4204e-06
1.60352e-05
2.21815e-05
2.60802e-05
2.79889e-05
2.84376e-05
2.7812e-05
2.64479e-05
2.46566e-05
2.27071e-05
2.07998e-05
1.90548e-05
1.75211e-05
1.61986e-05
1.50588e-05
1.4062e-05
1.31704e-05
1.23603e-05
1.16254e-05
1.09656e-05
1.03832e-05
9.88742e-06
9.4786e-06
9.11589e-06
8.70388e-06
8.15554e-06
7.55762e-06
7.35015e-06
8.35467e-06
7.72613e-06
1.76729e-06
5.5173e-08
2.18493e-08
1.94082e-06
4.83436e-06
9.9343e-06
1.72809e-05
2.39344e-05
2.7831e-05
2.941e-05
2.92991e-05
2.79713e-05
2.5885e-05
2.34716e-05
2.10736e-05
1.8904e-05
1.70506e-05
1.55144e-05
1.42536e-05
1.32141e-05
1.23435e-05
1.16012e-05
1.09666e-05
1.04289e-05
9.96032e-06
9.52826e-06
9.11331e-06
8.70446e-06
8.27993e-06
7.80497e-06
7.28541e-06
6.87853e-06
7.02843e-06
8.53485e-06
7.19945e-06
1.70136e-06
5.90143e-08
2.52884e-08
1.97149e-06
4.94179e-06
1.03018e-05
1.82014e-05
2.52927e-05
2.91839e-05
3.04226e-05
2.97619e-05
2.78105e-05
2.51663e-05
2.23559e-05
1.97435e-05
1.75025e-05
1.56631e-05
1.41853e-05
1.30075e-05
1.20664e-05
1.13073e-05
1.06942e-05
1.02116e-05
9.83639e-06
9.50988e-06
9.16901e-06
8.77162e-06
8.30282e-06
7.7673e-06
7.19049e-06
6.65065e-06
6.34344e-06
6.70159e-06
8.49787e-06
6.7618e-06
1.65998e-06
6.30286e-08
2.86241e-08
1.99125e-06
4.99508e-06
1.04947e-05
1.86988e-05
2.59556e-05
2.97163e-05
3.06515e-05
2.95994e-05
2.72597e-05
2.43132e-05
2.13253e-05
1.86436e-05
1.63974e-05
1.45796e-05
1.3129e-05
1.19809e-05
1.10793e-05
1.03788e-05
9.85848e-06
9.51767e-06
9.31871e-06
9.1722e-06
8.97527e-06
8.64401e-06
8.14464e-06
7.50859e-06
6.82604e-06
6.23992e-06
5.97161e-06
6.43959e-06
8.38089e-06
6.3953e-06
1.6305e-06
6.75985e-08
3.16938e-08
2.0123e-06
5.04121e-06
1.06366e-05
1.90679e-05
2.64837e-05
3.01708e-05
3.08697e-05
2.95065e-05
2.68762e-05
2.37304e-05
2.06498e-05
1.79502e-05
1.57193e-05
1.3923e-05
1.24897e-05
1.13505e-05
1.04539e-05
9.7668e-06
9.28285e-06
9.01587e-06
8.92181e-06
8.89825e-06
8.81692e-06
8.55647e-06
8.05514e-06
7.35304e-06
6.58904e-06
5.95816e-06
5.70083e-06
6.22602e-06
8.24349e-06
6.10693e-06
1.61026e-06
7.26057e-08
3.47659e-08
2.02643e-06
5.06522e-06
1.07189e-05
1.92873e-05
2.67477e-05
3.03117e-05
3.08049e-05
2.92194e-05
2.64106e-05
2.31658e-05
2.00588e-05
1.73726e-05
1.51648e-05
1.33852e-05
1.1958e-05
1.08168e-05
9.91454e-06
9.22786e-06
8.76658e-06
8.55624e-06
8.54736e-06
8.63039e-06
8.65776e-06
8.4759e-06
7.99611e-06
7.26103e-06
6.44332e-06
5.77846e-06
5.52517e-06
6.08952e-06
8.1572e-06
5.86151e-06
1.59547e-06
7.78469e-08
3.79448e-08
2.04419e-06
5.10127e-06
1.08255e-05
1.95309e-05
2.70304e-05
3.04849e-05
3.07972e-05
2.9024e-05
2.60778e-05
2.2771e-05
1.96614e-05
1.6999e-05
1.48154e-05
1.30481e-05
1.16186e-05
1.04629e-05
9.53901e-06
8.83097e-06
8.36041e-06
8.16503e-06
8.19533e-06
8.34139e-06
8.44644e-06
8.33466e-06
7.89363e-06
7.16058e-06
6.32637e-06
5.65124e-06
5.40879e-06
6.01088e-06
8.12498e-06
5.65818e-06
1.58595e-06
8.31271e-08
4.11183e-08
2.05815e-06
5.12859e-06
1.09106e-05
1.97184e-05
2.72132e-05
3.05427e-05
3.06898e-05
2.87653e-05
2.57246e-05
2.2391e-05
1.93005e-05
1.66721e-05
1.45168e-05
1.27641e-05
1.13344e-05
1.01666e-05
9.22307e-06
8.49449e-06
8.01227e-06
7.82156e-06
7.87356e-06
8.06019e-06
8.22025e-06
8.16472e-06
7.76541e-06
7.0539e-06
6.22942e-06
5.56534e-06
5.34638e-06
5.99516e-06
8.15645e-06
5.4831e-06
1.58044e-06
8.83137e-08
4.45106e-08
2.07604e-06
5.16985e-06
1.10319e-05
1.99604e-05
2.74388e-05
3.06343e-05
3.06227e-05
2.8567e-05
2.54574e-05
2.21179e-05
1.90572e-05
1.6465e-05
1.43354e-05
1.25922e-05
1.11562e-05
9.96923e-06
8.99812e-06
8.23874e-06
7.72998e-06
7.5254e-06
7.57611e-06
7.77678e-06
7.96686e-06
7.95249e-06
7.59618e-06
6.92278e-06
6.13122e-06
5.49852e-06
5.3161e-06
6.02071e-06
8.23122e-06
5.34008e-06
1.57913e-06
9.33704e-08
4.785e-08
2.09156e-06
5.20638e-06
1.11404e-05
2.01682e-05
2.7613e-05
3.0677e-05
3.05211e-05
2.83549e-05
2.51971e-05
2.18663e-05
1.88433e-05
1.62912e-05
1.419e-05
1.24589e-05
1.10194e-05
9.81596e-06
8.81922e-06
8.02969e-06
7.4924e-06
7.26844e-06
7.30963e-06
7.5117e-06
7.71656e-06
7.73039e-06
7.41262e-06
6.78387e-06
6.03873e-06
5.45141e-06
5.31739e-06
6.08892e-06
8.34615e-06
5.21983e-06
1.58096e-06
9.82621e-08
5.14016e-08
2.11015e-06
5.25308e-06
1.1276e-05
2.04183e-05
2.78194e-05
3.07449e-05
3.04533e-05
2.8196e-05
2.50103e-05
2.1701e-05
1.87197e-05
1.62062e-05
1.41295e-05
1.2406e-05
1.09582e-05
9.73317e-06
8.70483e-06
7.8779e-06
7.3011e-06
7.0436e-06
7.06005e-06
7.24833e-06
7.45393e-06
7.48684e-06
7.20696e-06
6.63026e-06
5.94281e-06
5.41169e-06
5.33505e-06
6.18158e-06
8.483e-06
5.12577e-06
1.58608e-06
1.03017e-07
5.48803e-08
2.1272e-06
5.29728e-06
1.14043e-05
2.06466e-05
2.79959e-05
3.07905e-05
3.03762e-05
2.80417e-05
2.48385e-05
2.15566e-05
1.86197e-05
1.61469e-05
1.40974e-05
1.23848e-05
1.09319e-05
9.68764e-06
8.62917e-06
7.76501e-06
7.14694e-06
6.85158e-06
6.83712e-06
7.00363e-06
7.20094e-06
7.24472e-06
6.99849e-06
6.4752e-06
5.85078e-06
5.38262e-06
5.37053e-06
6.29955e-06
8.63721e-06
5.04857e-06
1.59329e-06
1.07622e-07
5.85416e-08
2.14646e-06
5.3485e-06
1.15517e-05
2.09048e-05
2.8197e-05
3.08609e-05
3.03358e-05
2.79412e-05
2.47344e-05
2.14856e-05
1.85925e-05
1.61571e-05
1.41311e-05
1.24261e-05
1.09651e-05
9.69813e-06
8.6052e-06
7.69763e-06
7.02979e-06
6.68503e-06
6.62809e-06
6.76189e-06
6.94193e-06
6.99157e-06
6.77878e-06
6.31238e-06
5.75612e-06
5.35618e-06
5.41384e-06
6.43062e-06
8.79954e-06
4.99174e-06
1.60295e-06
1.1211e-07
6.21328e-08
2.1647e-06
5.39886e-06
1.16973e-05
2.11528e-05
2.83834e-05
3.09236e-05
3.0297e-05
2.78496e-05
2.4643e-05
2.14287e-05
1.85807e-05
1.61851e-05
1.41867e-05
1.2494e-05
1.10292e-05
9.74323e-06
8.61787e-06
7.66708e-06
6.94797e-06
6.54945e-06
6.44452e-06
6.53916e-06
6.69505e-06
6.7445e-06
6.56152e-06
6.15115e-06
5.66417e-06
5.3349e-06
5.46607e-06
6.57499e-06
8.96523e-06
4.94613e-06
1.61375e-06
1.16459e-07
6.58781e-08
2.18447e-06
5.4543e-06
1.18578e-05
2.14254e-05
2.8593e-05
3.10134e-05
3.02966e-05
2.78088e-05
2.46094e-05
2.14303e-05
1.86245e-05
1.62656e-05
1.42923e-05
1.26106e-05
1.11412e-05
9.83497e-06
8.6748e-06
7.67667e-06
6.89976e-06
6.43805e-06
6.27611e-06
6.32361e-06
6.44906e-06
6.49453e-06
6.34019e-06
5.98652e-06
5.57042e-06
5.31383e-06
5.52088e-06
6.72486e-06
9.13108e-06
4.91494e-06
1.62619e-06
1.20698e-07
6.95624e-08
2.20333e-06
5.50945e-06
1.202e-05
2.16977e-05
2.88005e-05
3.11061e-05
3.03031e-05
2.7776e-05
2.45829e-05
2.14384e-05
1.86764e-05
1.63577e-05
1.44149e-05
1.27503e-05
1.12823e-05
9.96058e-06
8.7682e-06
7.72293e-06
6.88641e-06
6.35695e-06
6.13275e-06
6.12765e-06
6.21732e-06
6.25403e-06
6.12469e-06
5.82534e-06
5.47892e-06
5.29534e-06
5.58049e-06
6.8821e-06
9.29489e-06
4.89158e-06
1.63925e-06
1.24801e-07
7.33768e-08
2.22304e-06
5.56803e-06
1.2195e-05
2.19946e-05
2.9036e-05
3.12309e-05
3.03471e-05
2.77848e-05
2.45991e-05
2.14877e-05
1.87669e-05
1.64866e-05
1.45735e-05
1.29266e-05
1.14615e-05
1.01255e-05
8.90092e-06
7.80654e-06
6.90599e-06
6.30111e-06
6.00746e-06
5.94361e-06
5.99263e-06
6.01712e-06
5.91043e-06
5.66381e-06
5.38607e-06
5.2752e-06
5.63905e-06
7.03934e-06
9.45273e-06
4.87587e-06
1.65286e-06
1.28775e-07
7.71405e-08
2.24178e-06
5.62586e-06
1.23715e-05
2.22948e-05
2.92725e-05
3.13605e-05
3.03976e-05
2.77959e-05
2.46151e-05
2.15373e-05
1.88605e-05
1.66231e-05
1.47457e-05
1.31232e-05
1.16677e-05
1.03232e-05
9.06998e-06
7.9272e-06
6.96065e-06
6.27579e-06
5.90764e-06
5.78016e-06
5.78404e-06
5.79218e-06
5.70437e-06
5.50722e-06
5.29592e-06
5.25714e-06
5.70116e-06
7.20304e-06
9.60968e-06
4.8669e-06
1.66702e-06
1.32601e-07
8.10102e-08
2.26099e-06
5.68565e-06
1.2554e-05
2.26001e-05
2.95041e-05
3.14879e-05
3.04593e-05
2.78281e-05
2.46566e-05
2.16128e-05
1.89786e-05
1.6783e-05
1.49415e-05
1.33455e-05
1.19029e-05
1.05536e-05
9.27468e-06
8.08407e-06
7.04917e-06
6.27894e-06
5.83034e-06
5.63387e-06
5.58808e-06
5.57604e-06
5.50364e-06
5.3528e-06
5.20537e-06
5.23706e-06
5.76044e-06
7.3627e-06
9.7549e-06
4.86e-06
1.68079e-06
1.36267e-07
8.48377e-08
2.27959e-06
5.74562e-06
1.27377e-05
2.2897e-05
2.97227e-05
3.16034e-05
3.05106e-05
2.78603e-05
2.46975e-05
2.16867e-05
1.90973e-05
1.69477e-05
1.51476e-05
1.35844e-05
1.21617e-05
1.08141e-05
9.51438e-06
8.27826e-06
7.1743e-06
6.31545e-06
5.7815e-06
5.51136e-06
5.4115e-06
5.37491e-06
5.31341e-06
5.20461e-06
5.11784e-06
5.21859e-06
5.8223e-06
7.52792e-06
9.90058e-06
4.85813e-06
1.69481e-06
1.39764e-07
8.87404e-08
2.2983e-06
5.80768e-06
1.29312e-05
2.31945e-05
2.99368e-05
3.17152e-05
3.05614e-05
2.78963e-05
2.47466e-05
2.17716e-05
1.9228e-05
1.71248e-05
1.53674e-05
1.38398e-05
1.24413e-05
1.11011e-05
9.78589e-06
8.50782e-06
7.3354e-06
6.38555e-06
5.76121e-06
5.41239e-06
5.25377e-06
5.18807e-06
5.1328e-06
5.06149e-06
5.03166e-06
5.19906e-06
5.88218e-06
7.69192e-06
1.00433e-05
4.8589e-06
1.70842e-06
1.43078e-07
9.25891e-08
2.3159e-06
5.867e-06
1.31182e-05
2.34795e-05
3.01353e-05
3.18128e-05
3.06e-05
2.79229e-05
2.47911e-05
2.18544e-05
1.93585e-05
1.73048e-05
1.55944e-05
1.41078e-05
1.27398e-05
1.14134e-05
1.00889e-05
8.77336e-06
7.53452e-06
6.49344e-06
5.77452e-06
5.34235e-06
5.12021e-06
5.02033e-06
4.96574e-06
4.92644e-06
4.94908e-06
5.18073e-06
5.9441e-06
7.86246e-06
1.01845e-05
4.86412e-06
1.72212e-06
1.46206e-07
9.64823e-08
2.33377e-06
5.9278e-06
1.33092e-05
2.37651e-05
3.03294e-05
3.19059e-05
3.06348e-05
2.79473e-05
2.48419e-05
2.19418e-05
1.94917e-05
1.74882e-05
1.58272e-05
1.43853e-05
1.30528e-05
1.17466e-05
1.04195e-05
9.07237e-06
7.77091e-06
6.63997e-06
5.8224e-06
5.30209e-06
5.01155e-06
4.87219e-06
4.81251e-06
4.79953e-06
4.87023e-06
5.164e-06
6.00893e-06
8.04065e-06
1.03278e-05
4.87621e-06
1.73646e-06
1.49155e-07
1.00318e-07
2.35081e-06
5.98676e-06
1.34959e-05
2.40388e-05
3.05081e-05
3.19835e-05
3.06542e-05
2.7956e-05
2.48767e-05
2.20173e-05
1.96186e-05
1.76706e-05
1.60639e-05
1.46716e-05
1.33802e-05
1.21003e-05
1.07773e-05
9.40451e-06
8.04478e-06
6.82638e-06
5.90735e-06
5.29493e-06
4.93141e-06
4.74714e-06
4.67608e-06
4.68303e-06
4.7965e-06
5.14934e-06
6.07579e-06
8.22323e-06
1.04704e-05
4.89251e-06
1.75119e-06
1.51923e-07
1.04167e-07
2.36807e-06
6.04677e-06
1.3685e-05
2.43114e-05
3.06814e-05
3.20547e-05
3.06667e-05
2.79582e-05
2.49062e-05
2.20888e-05
1.97426e-05
1.78516e-05
1.63015e-05
1.49624e-05
1.37168e-05
1.24698e-05
1.1158e-05
9.76654e-06
8.35387e-06
7.05095e-06
6.02866e-06
5.32096e-06
4.88035e-06
4.64595e-06
4.55725e-06
4.57773e-06
4.72878e-06
5.13777e-06
6.14539e-06
8.40931e-06
1.06128e-05
4.91274e-06
1.76624e-06
1.54515e-07
1.07962e-07
2.3849e-06
6.10592e-06
1.38709e-05
2.45729e-05
3.08393e-05
3.21095e-05
3.06621e-05
2.7943e-05
2.49197e-05
2.2148e-05
1.98585e-05
1.80283e-05
1.65387e-05
1.5257e-05
1.40624e-05
1.28541e-05
1.15603e-05
1.01569e-05
8.6966e-06
7.31225e-06
6.18624e-06
5.38112e-06
4.86004e-06
4.57066e-06
4.45807e-06
4.48525e-06
4.66774e-06
5.12835e-06
6.21485e-06
8.59581e-06
1.07527e-05
4.93572e-06
1.78142e-06
1.56939e-07
1.11752e-07
2.40203e-06
6.16651e-06
1.40582e-05
2.48308e-05
3.09891e-05
3.21541e-05
3.06458e-05
2.79158e-05
2.49219e-05
2.2198e-05
1.99667e-05
1.81989e-05
1.67719e-05
1.55509e-05
1.44119e-05
1.32484e-05
1.19799e-05
1.0572e-05
9.07026e-06
7.60819e-06
6.37892e-06
5.47482e-06
4.87026e-06
4.52142e-06
4.37898e-06
4.40616e-06
4.61408e-06
5.12245e-06
6.28695e-06
8.78198e-06
1.08903e-05
4.96104e-06
1.79661e-06
1.59202e-07
1.15496e-07
2.41904e-06
6.22837e-06
1.42419e-05
2.50772e-05
3.1123e-05
3.21813e-05
3.06109e-05
2.78699e-05
2.49072e-05
2.22361e-05
2.00656e-05
1.83622e-05
1.70007e-05
1.58438e-05
1.47645e-05
1.36511e-05
1.24144e-05
1.1009e-05
9.47226e-06
7.93681e-06
6.60594e-06
5.60216e-06
4.91169e-06
4.49931e-06
4.32133e-06
4.34197e-06
4.56934e-06
5.12146e-06
6.36243e-06
8.96812e-06
1.10262e-05
4.98846e-06
1.81175e-06
1.61313e-07
1.19199e-07
2.43524e-06
6.2886e-06
1.44244e-05
2.53174e-05
3.12458e-05
3.21956e-05
3.05619e-05
2.78092e-05
2.48776e-05
2.22619e-05
2.0153e-05
1.85154e-05
1.72216e-05
1.61319e-05
1.51164e-05
1.40582e-05
1.28597e-05
1.14642e-05
9.89924e-06
8.29555e-06
6.86574e-06
5.76228e-06
4.98393e-06
4.50432e-06
4.2855e-06
4.29337e-06
4.53421e-06
5.12546e-06
6.43986e-06
9.15349e-06
1.11607e-05
5.01769e-06
1.82678e-06
1.6328e-07
1.22834e-07
2.45112e-06
6.34781e-06
1.46033e-05
2.55475e-05
3.13545e-05
3.21928e-05
3.04939e-05
2.77301e-05
2.48315e-05
2.22726e-05
2.02281e-05
1.86593e-05
1.74359e-05
1.6416e-05
1.54672e-05
1.44681e-05
1.33129e-05
1.19337e-05
1.03475e-05
8.68138e-06
7.15655e-06
5.95439e-06
5.08691e-06
4.53686e-06
4.2723e-06
4.26142e-06
4.50975e-06
5.13506e-06
6.51906e-06
9.3376e-06
1.12942e-05
5.04863e-06
1.84168e-06
1.65111e-07
1.26399e-07
2.46606e-06
6.40508e-06
1.47802e-05
2.57709e-05
3.14514e-05
3.21762e-05
3.0411e-05
2.76334e-05
2.47658e-05
2.22654e-05
2.02893e-05
1.87923e-05
1.76411e-05
1.6693e-05
1.58137e-05
1.48773e-05
1.37703e-05
1.24135e-05
1.08127e-05
9.09042e-06
7.47541e-06
6.17651e-06
5.21944e-06
4.59643e-06
4.28183e-06
4.2467e-06
4.49671e-06
5.15087e-06
6.60016e-06
9.52017e-06
1.14265e-05
5.08093e-06
1.8564e-06
1.6681e-07
1.29918e-07
2.48077e-06
6.46222e-06
1.49568e-05
2.59868e-05
3.1536e-05
3.21457e-05
3.03136e-05
2.75246e-05
2.46903e-05
2.22477e-05
2.03373e-05
1.89127e-05
1.78369e-05
1.69631e-05
1.61553e-05
1.52845e-05
1.42297e-05
1.29005e-05
1.12914e-05
9.51934e-06
7.81963e-06
6.42665e-06
5.38026e-06
4.68248e-06
4.31418e-06
4.2498e-06
4.49599e-06
5.17375e-06
6.68381e-06
9.70153e-06
1.15582e-05
5.11462e-06
1.87096e-06
1.68388e-07
1.33363e-07
2.49477e-06
6.51752e-06
1.51292e-05
2.61917e-05
3.16061e-05
3.20986e-05
3.01976e-05
2.73958e-05
2.45955e-05
2.22141e-05
2.03743e-05
1.9023e-05
1.80223e-05
1.72247e-05
1.6491e-05
1.56881e-05
1.46889e-05
1.3392e-05
1.17804e-05
9.96488e-06
8.18638e-06
6.70251e-06
5.56764e-06
4.79388e-06
4.36891e-06
4.2709e-06
4.50814e-06
5.20446e-06
6.77071e-06
9.88217e-06
1.16897e-05
5.14954e-06
1.88536e-06
1.69854e-07
1.36737e-07
2.50825e-06
6.5717e-06
1.52991e-05
2.63872e-05
3.1663e-05
3.2037e-05
3.00671e-05
2.72536e-05
2.4488e-05
2.21679e-05
2.03997e-05
1.91243e-05
1.81998e-05
1.74782e-05
1.68196e-05
1.60868e-05
1.51455e-05
1.38848e-05
1.2276e-05
1.04235e-05
8.57252e-06
7.0016e-06
5.77971e-06
4.92938e-06
4.44543e-06
4.31005e-06
4.53378e-06
5.24388e-06
6.86173e-06
1.00627e-05
1.18215e-05
5.18573e-06
1.8996e-06
1.71222e-07
1.40041e-07
2.52111e-06
6.62433e-06
1.54651e-05
2.65718e-05
3.17051e-05
3.19582e-05
2.99176e-05
2.70922e-05
2.43627e-05
2.21061e-05
2.04121e-05
1.92145e-05
1.83684e-05
1.77239e-05
1.71406e-05
1.64793e-05
1.55987e-05
1.43776e-05
1.27765e-05
1.08927e-05
8.97568e-06
7.32184e-06
6.0147e-06
5.08761e-06
4.54283e-06
4.36689e-06
4.57303e-06
5.29252e-06
6.95755e-06
1.02437e-05
1.19545e-05
5.22327e-06
1.91373e-06
1.72502e-07
1.43263e-07
2.53341e-06
6.67542e-06
1.56273e-05
2.6746e-05
3.17336e-05
3.18641e-05
2.97524e-05
2.69159e-05
2.42237e-05
2.20315e-05
2.04129e-05
1.92942e-05
1.85276e-05
1.79615e-05
1.74541e-05
1.6864e-05
1.60452e-05
1.48666e-05
1.32775e-05
1.13688e-05
9.39256e-06
7.66074e-06
6.27081e-06
5.2673e-06
4.66037e-06
4.44125e-06
4.62623e-06
5.35107e-06
7.059e-06
1.04258e-05
1.20891e-05
5.2622e-06
1.92778e-06
1.73709e-07
1.46397e-07
2.54497e-06
6.72459e-06
1.57851e-05
2.6909e-05
3.17468e-05
3.17521e-05
2.95681e-05
2.67213e-05
2.4068e-05
2.19421e-05
2.04009e-05
1.93629e-05
1.86769e-05
1.81904e-05
1.776e-05
1.72419e-05
1.64853e-05
1.53509e-05
1.37776e-05
1.18495e-05
9.8207e-06
8.01618e-06
6.5463e-06
5.46706e-06
4.79701e-06
4.5325e-06
4.69325e-06
5.41984e-06
7.1667e-06
1.06099e-05
1.22262e-05
5.30276e-06
1.94182e-06
1.74858e-07
1.49451e-07
2.55603e-06
6.77245e-06
1.59397e-05
2.70618e-05
3.17459e-05
3.16241e-05
2.93674e-05
2.65116e-05
2.38989e-05
2.18405e-05
2.03777e-05
1.9421e-05
1.88161e-05
1.84093e-05
1.80562e-05
1.76101e-05
1.69156e-05
1.58267e-05
1.42727e-05
1.23307e-05
1.02567e-05
8.38571e-06
6.83954e-06
5.68583e-06
4.95213e-06
4.6404e-06
4.77419e-06
5.49923e-06
7.28126e-06
1.07964e-05
1.23663e-05
5.34498e-06
1.95589e-06
1.75961e-07
1.52411e-07
2.56638e-06
6.81834e-06
1.60895e-05
2.72026e-05
3.17292e-05
3.14779e-05
2.91484e-05
2.62854e-05
2.37152e-05
2.1726e-05
2.03431e-05
1.94686e-05
1.89454e-05
1.86187e-05
1.83431e-05
1.7969e-05
1.73365e-05
1.62928e-05
1.47608e-05
1.28101e-05
1.06979e-05
8.76692e-06
7.14865e-06
5.92227e-06
5.12479e-06
4.7644e-06
4.86892e-06
5.58955e-06
7.40332e-06
1.09862e-05
1.25104e-05
5.38917e-06
1.97006e-06
1.77033e-07
1.55292e-07
2.57624e-06
6.86295e-06
1.62361e-05
2.73328e-05
3.16978e-05
3.13152e-05
2.89133e-05
2.60451e-05
2.35197e-05
2.16009e-05
2.02986e-05
1.95064e-05
1.90645e-05
1.88175e-05
1.86186e-05
1.8316e-05
1.77449e-05
1.6746e-05
1.52356e-05
1.32814e-05
1.11396e-05
9.15644e-06
7.47149e-06
6.17519e-06
5.31445e-06
4.90434e-06
4.97756e-06
5.69118e-06
7.5336e-06
1.11802e-05
1.2659e-05
5.43532e-06
1.98438e-06
1.78086e-07
1.58077e-07
2.58537e-06
6.90549e-06
1.63773e-05
2.74503e-05
3.16501e-05
3.11346e-05
2.86612e-05
2.57907e-05
2.33126e-05
2.14659e-05
2.02453e-05
1.95358e-05
1.91748e-05
1.90066e-05
1.88835e-05
1.86511e-05
1.81403e-05
1.71859e-05
1.56989e-05
1.37442e-05
1.15794e-05
9.55114e-06
7.80523e-06
6.44256e-06
5.51994e-06
5.05977e-06
5.10019e-06
5.80465e-06
7.67296e-06
1.13794e-05
1.28128e-05
5.48362e-06
1.99892e-06
1.79132e-07
1.60777e-07
2.59393e-06
6.94644e-06
1.65146e-05
2.75563e-05
3.15869e-05
3.0937e-05
2.83933e-05
2.55234e-05
2.30953e-05
2.13224e-05
2.01843e-05
1.95572e-05
1.92764e-05
1.91857e-05
1.91367e-05
1.89725e-05
1.852e-05
1.76089e-05
1.6146e-05
1.41948e-05
1.20143e-05
9.94816e-06
8.14735e-06
6.72252e-06
5.74011e-06
5.23021e-06
5.23695e-06
5.93066e-06
7.82265e-06
1.15852e-05
1.2972e-05
5.53409e-06
2.01369e-06
1.80179e-07
1.63383e-07
2.60175e-06
6.98525e-06
1.66463e-05
2.76492e-05
3.15072e-05
3.07216e-05
2.81094e-05
2.52437e-05
2.28689e-05
2.11718e-05
2.01173e-05
1.95728e-05
1.93714e-05
1.93569e-05
1.93799e-05
1.92814e-05
1.88844e-05
1.80144e-05
1.65752e-05
1.46304e-05
1.24404e-05
1.03437e-05
8.49461e-06
7.01257e-06
5.97334e-06
5.41483e-06
5.3876e-06
6.06943e-06
7.9836e-06
1.1799e-05
1.31369e-05
5.58685e-06
2.02879e-06
1.81236e-07
1.65906e-07
2.60891e-06
7.02223e-06
1.67734e-05
2.77302e-05
3.14113e-05
3.04884e-05
2.78094e-05
2.49518e-05
2.26336e-05
2.10146e-05
2.0045e-05
1.95834e-05
1.94607e-05
1.95207e-05
1.96133e-05
1.95775e-05
1.92328e-05
1.8401e-05
1.69847e-05
1.50488e-05
1.28555e-05
1.07346e-05
8.84385e-06
7.31014e-06
6.21787e-06
5.61276e-06
5.55231e-06
6.22243e-06
8.15742e-06
1.20225e-05
1.33077e-05
5.64187e-06
2.04422e-06
1.8231e-07
1.68346e-07
2.6154e-06
7.0573e-06
1.68958e-05
2.77986e-05
3.12983e-05
3.02365e-05
2.74931e-05
2.46478e-05
2.23903e-05
2.08519e-05
1.99691e-05
1.95911e-05
1.95469e-05
1.96799e-05
1.98396e-05
1.98628e-05
1.95662e-05
1.87689e-05
1.73734e-05
1.5448e-05
1.32568e-05
1.11181e-05
9.19212e-06
7.61248e-06
6.47151e-06
5.82262e-06
5.73059e-06
6.39002e-06
8.34542e-06
1.22572e-05
1.34845e-05
5.69922e-06
2.06006e-06
1.83405e-07
1.70714e-07
2.62127e-06
7.09074e-06
1.70143e-05
2.78551e-05
3.11682e-05
2.99653e-05
2.71599e-05
2.43316e-05
2.21386e-05
2.06837e-05
1.98895e-05
1.95963e-05
1.96305e-05
1.98355e-05
2.00599e-05
2.01387e-05
1.98858e-05
1.91187e-05
1.77415e-05
1.58272e-05
1.36427e-05
1.14919e-05
9.53694e-06
7.91731e-06
6.73245e-06
6.04323e-06
5.92192e-06
6.57222e-06
8.54881e-06
1.25048e-05
1.36671e-05
5.75889e-06
2.07634e-06
1.84522e-07
1.73017e-07
2.62657e-06
7.12273e-06
1.71292e-05
2.78994e-05
3.102e-05
2.96741e-05
2.68095e-05
2.40033e-05
2.18792e-05
2.05108e-05
1.98076e-05
1.96005e-05
1.97137e-05
1.99899e-05
2.02769e-05
2.04075e-05
2.01933e-05
1.94513e-05
1.80891e-05
1.61857e-05
1.40113e-05
1.18537e-05
9.87594e-06
8.22234e-06
6.99887e-06
6.27336e-06
6.12563e-06
6.76898e-06
8.76852e-06
1.27663e-05
1.38554e-05
5.82087e-06
2.09311e-06
1.85663e-07
1.75262e-07
2.63136e-06
7.15348e-06
1.72411e-05
2.79319e-05
3.08532e-05
2.93622e-05
2.64417e-05
2.36629e-05
2.1612e-05
2.0333e-05
1.9723e-05
1.96035e-05
1.97963e-05
2.01436e-05
2.04916e-05
2.06708e-05
2.04906e-05
1.97687e-05
1.84174e-05
1.65243e-05
1.43628e-05
1.22029e-05
1.02079e-05
8.52615e-06
7.26918e-06
6.51154e-06
6.34074e-06
6.98017e-06
9.00526e-06
1.3043e-05
1.40489e-05
5.88524e-06
2.11042e-06
1.86831e-07
1.77456e-07
2.63569e-06
7.18314e-06
1.73501e-05
2.7952e-05
3.06673e-05
2.90292e-05
2.60568e-05
2.3311e-05
2.13379e-05
2.01515e-05
1.96367e-05
1.96062e-05
1.98795e-05
2.02978e-05
2.07053e-05
2.093e-05
2.07793e-05
2.00721e-05
1.87276e-05
1.68432e-05
1.46964e-05
1.2538e-05
1.0531e-05
8.82696e-06
7.54191e-06
6.7568e-06
6.5667e-06
7.20567e-06
9.25926e-06
1.3335e-05
1.42473e-05
5.95185e-06
2.12829e-06
1.88027e-07
1.79599e-07
2.63957e-06
7.21178e-06
1.74565e-05
2.79595e-05
3.04617e-05
2.8675e-05
2.56551e-05
2.29482e-05
2.10572e-05
1.99664e-05
1.95485e-05
1.96081e-05
1.99625e-05
2.0452e-05
2.09183e-05
2.11861e-05
2.10609e-05
2.03635e-05
1.90218e-05
1.71445e-05
1.50133e-05
1.28592e-05
1.08447e-05
9.12353e-06
7.81572e-06
7.00771e-06
6.80261e-06
7.44543e-06
9.53145e-06
1.36435e-05
1.44505e-05
6.02074e-06
2.14675e-06
1.89252e-07
1.81697e-07
2.64303e-06
7.23949e-06
1.75603e-05
2.79542e-05
3.02362e-05
2.83002e-05
2.52377e-05
2.25757e-05
2.07713e-05
1.978e-05
1.946e-05
1.96097e-05
2.00455e-05
2.06062e-05
2.11305e-05
2.14393e-05
2.13358e-05
2.06439e-05
1.93012e-05
1.74294e-05
1.53141e-05
1.31666e-05
1.11483e-05
9.41489e-06
8.08938e-06
7.26326e-06
7.0477e-06
7.69887e-06
9.82135e-06
1.3968e-05
1.46577e-05
6.09172e-06
2.1658e-06
1.90508e-07
1.83747e-07
2.64607e-06
7.26624e-06
1.76613e-05
2.79356e-05
2.99907e-05
2.79051e-05
2.48059e-05
2.21944e-05
2.04802e-05
1.95916e-05
1.93698e-05
1.96096e-05
2.01273e-05
2.07597e-05
2.13416e-05
2.16897e-05
2.1605e-05
2.09149e-05
1.95683e-05
1.77008e-05
1.56009e-05
1.34609e-05
1.14418e-05
9.70038e-06
8.36203e-06
7.52272e-06
7.30111e-06
7.96569e-06
1.01293e-05
1.43087e-05
1.48688e-05
6.16469e-06
2.18545e-06
1.91796e-07
1.85751e-07
2.64872e-06
7.29215e-06
1.77597e-05
2.79036e-05
2.97255e-05
2.74915e-05
2.4362e-05
2.18068e-05
2.01852e-05
1.93999e-05
1.92766e-05
1.96074e-05
2.02076e-05
2.09117e-05
2.15507e-05
2.19363e-05
2.18677e-05
2.11765e-05
1.98242e-05
1.79608e-05
1.58751e-05
1.37431e-05
1.17252e-05
9.97926e-06
8.63242e-06
7.78466e-06
7.56209e-06
8.24539e-06
1.04548e-05
1.46649e-05
1.50829e-05
6.23944e-06
2.20567e-06
1.93119e-07
1.87706e-07
2.65095e-06
7.31706e-06
1.78549e-05
2.78576e-05
2.94408e-05
2.70602e-05
2.39076e-05
2.14144e-05
1.9888e-05
1.92069e-05
1.91822e-05
1.96035e-05
2.0286e-05
2.10617e-05
2.1757e-05
2.21788e-05
2.2124e-05
2.14297e-05
2.00711e-05
1.82128e-05
1.61395e-05
1.40149e-05
1.19996e-05
1.0252e-05
8.90051e-06
8.04862e-06
7.82966e-06
8.53655e-06
1.07969e-05
1.50352e-05
1.5299e-05
6.3156e-06
2.22638e-06
1.94479e-07
1.89607e-07
2.65276e-06
7.34089e-06
1.79465e-05
2.77975e-05
2.91375e-05
2.66137e-05
2.34455e-05
2.10195e-05
1.959e-05
1.90127e-05
1.90857e-05
1.9597e-05
2.03613e-05
2.12081e-05
2.19588e-05
2.24151e-05
2.23721e-05
2.16734e-05
2.03091e-05
1.8458e-05
1.63952e-05
1.4277e-05
1.22651e-05
1.05182e-05
9.16552e-06
8.31374e-06
8.1034e-06
8.83954e-06
1.11548e-05
1.54186e-05
1.55169e-05
6.39312e-06
2.24761e-06
1.95879e-07
1.91447e-07
2.65406e-06
7.36324e-06
1.80334e-05
2.77227e-05
2.88161e-05
2.61531e-05
2.29775e-05
2.06237e-05
1.92925e-05
1.88186e-05
1.89882e-05
1.95882e-05
2.04333e-05
2.13503e-05
2.21552e-05
2.26444e-05
2.26115e-05
2.19073e-05
2.05379e-05
1.8696e-05
1.66424e-05
1.45301e-05
1.25223e-05
1.0778e-05
9.42721e-06
8.57935e-06
8.38226e-06
9.15314e-06
1.15278e-05
1.58131e-05
1.57345e-05
6.4713e-06
2.26921e-06
1.97318e-07
1.9322e-07
2.6548e-06
7.38383e-06
1.8115e-05
2.76334e-05
2.84776e-05
2.56807e-05
2.25057e-05
2.0229e-05
1.89973e-05
1.86258e-05
1.88903e-05
1.95771e-05
2.05013e-05
2.1487e-05
2.23447e-05
2.28651e-05
2.28404e-05
2.21297e-05
2.0756e-05
1.89248e-05
1.68801e-05
1.47739e-05
1.27714e-05
1.10319e-05
9.68571e-06
8.84524e-06
8.6657e-06
9.47657e-06
1.19147e-05
1.62172e-05
1.59519e-05
6.54982e-06
2.29108e-06
1.98795e-07
1.94919e-07
2.65485e-06
7.40219e-06
1.81902e-05
2.75291e-05
2.81217e-05
2.51962e-05
2.20305e-05
1.98359e-05
1.87049e-05
1.84354e-05
1.87934e-05
1.95652e-05
2.05666e-05
2.1619e-05
2.25276e-05
2.30772e-05
2.30591e-05
2.2341e-05
2.09632e-05
1.91435e-05
1.71073e-05
1.50076e-05
1.30117e-05
1.12792e-05
9.94047e-06
9.11086e-06
8.95307e-06
9.80907e-06
1.23149e-05
1.66301e-05
1.61674e-05
6.62803e-06
2.31312e-06
2.00305e-07
1.96545e-07
2.65422e-06
7.41825e-06
1.82592e-05
2.74102e-05
2.77487e-05
2.47003e-05
2.15524e-05
1.94449e-05
1.84165e-05
1.82487e-05
1.86989e-05
1.95538e-05
2.063e-05
2.17467e-05
2.27037e-05
2.32802e-05
2.32669e-05
2.25408e-05
2.11594e-05
1.93516e-05
1.73236e-05
1.52304e-05
1.32423e-05
1.1519e-05
1.01908e-05
9.37583e-06
9.24434e-06
1.01508e-05
1.27281e-05
1.70511e-05
1.63795e-05
6.70552e-06
2.33522e-06
2.01853e-07
1.98105e-07
2.65289e-06
7.43205e-06
1.83223e-05
2.72762e-05
2.73569e-05
2.41913e-05
2.10701e-05
1.90554e-05
1.81319e-05
1.80666e-05
1.86088e-05
1.95456e-05
2.06947e-05
2.18729e-05
2.28753e-05
2.34759e-05
2.34655e-05
2.27308e-05
2.13465e-05
1.95504e-05
1.753e-05
1.54433e-05
1.34637e-05
1.1751e-05
1.04358e-05
9.63878e-06
9.53784e-06
1.04998e-05
1.3152e-05
1.74771e-05
1.65874e-05
6.78175e-06
2.35724e-06
2.03432e-07
1.99613e-07
2.651e-06
7.44408e-06
1.83807e-05
2.71273e-05
2.69458e-05
2.36692e-05
2.05836e-05
1.8667e-05
1.78511e-05
1.78896e-05
1.8524e-05
1.95423e-05
2.07626e-05
2.19999e-05
2.30445e-05
2.36661e-05
2.36564e-05
2.29129e-05
2.15272e-05
1.97416e-05
1.77277e-05
1.56472e-05
1.36765e-05
1.1976e-05
1.06762e-05
9.90032e-06
9.83393e-06
1.08562e-05
1.35856e-05
1.79063e-05
1.67908e-05
6.85663e-06
2.37915e-06
2.05039e-07
2.01086e-07
2.64868e-06
7.45487e-06
1.84353e-05
2.69625e-05
2.65139e-05
2.31333e-05
2.00924e-05
1.82792e-05
1.7574e-05
1.77177e-05
1.84453e-05
1.95455e-05
2.08368e-05
2.21313e-05
2.3215e-05
2.38542e-05
2.38431e-05
2.30909e-05
2.17052e-05
1.9928e-05
1.79187e-05
1.58434e-05
1.38819e-05
1.21945e-05
1.09119e-05
1.01597e-05
1.01315e-05
1.12186e-05
1.4027e-05
1.83364e-05
1.69888e-05
6.92974e-06
2.40085e-06
2.06668e-07
2.02538e-07
2.64611e-06
7.46501e-06
1.84868e-05
2.67814e-05
2.60619e-05
2.25857e-05
1.95981e-05
1.78923e-05
1.73011e-05
1.75498e-05
1.83709e-05
1.95542e-05
2.09172e-05
2.22682e-05
2.33887e-05
2.40425e-05
2.40278e-05
2.32674e-05
2.18838e-05
2.01118e-05
1.81043e-05
1.6033e-05
1.40803e-05
1.24066e-05
1.11424e-05
1.04161e-05
1.04294e-05
1.15856e-05
1.44748e-05
1.87659e-05
1.7181e-05
7.00108e-06
2.42234e-06
2.08317e-07
2.0397e-07
2.64336e-06
7.47471e-06
1.8535e-05
2.6583e-05
2.55911e-05
2.20294e-05
1.91029e-05
1.75066e-05
1.70303e-05
1.73831e-05
1.82982e-05
1.95666e-05
2.10032e-05
2.24114e-05
2.35674e-05
2.42332e-05
2.4213e-05
2.34445e-05
2.20645e-05
2.02945e-05
1.82862e-05
1.62173e-05
1.4273e-05
1.26135e-05
1.13693e-05
1.0672e-05
1.07314e-05
1.19571e-05
1.49265e-05
1.9192e-05
1.73662e-05
7.07001e-06
2.44341e-06
2.09972e-07
2.05376e-07
2.64048e-06
7.48376e-06
1.85785e-05
2.63672e-05
2.51047e-05
2.14696e-05
1.86114e-05
1.71241e-05
1.67597e-05
1.72144e-05
1.82236e-05
1.95789e-05
2.10915e-05
2.25585e-05
2.375e-05
2.44262e-05
2.4399e-05
2.36224e-05
2.22463e-05
2.04757e-05
1.84644e-05
1.63967e-05
1.44604e-05
1.28157e-05
1.15929e-05
1.09273e-05
1.10362e-05
1.23334e-05
1.53822e-05
1.96146e-05
1.75451e-05
7.13667e-06
2.46408e-06
2.11629e-07
2.06731e-07