/*--------------------------------*- C++ -*----------------------------------*\
| =========                 |                                                 |
| \\      /  F ield         | OpenFOAM: The Open Source CFD Toolbox           |
|  \\    /   O peration     | Version:  v2006                                 |
|   \\  /    A nd           | Website:  www.openfoam.com                      |
|    \\/     M anipulation  |                                                 |
\*---------------------------------------------------------------------------*/
FoamFile
{
    version     2.0;
    format      ascii;
    class       volScalarField;
    location    "90";
    object      omega;
}
// * * * * * * * * * * * * * * * * * * * * * * * * * * * * * * * * * * * * * //

dimensions      [0 0 -1 0 0 0 0];


internalField   nonuniform List<scalar> 
78750
(
352.358
13.5455
13.5699
13.5946
13.6191
13.6429
13.6658
13.6877
13.7083
13.7274
13.745
13.7609
13.7751
13.7875
13.7981
13.8069
13.8137
13.8187
13.8217
13.8228
13.8219
13.8188
13.8135
13.8058
13.7956
13.7827
13.7669
13.7481
13.7265
13.7026
13.6777
13.6548
13.6398
13.6401
356.316
517.049
4.15979
4.25204
4.33321
4.40416
4.46587
4.51904
4.56432
4.60236
4.63381
4.65927
4.6793
4.69441
4.70504
4.71172
4.71496
4.71516
4.7126
4.70755
4.70022
4.69079
4.67923
4.66555
4.64959
4.63109
4.60976
4.58519
4.55643
4.52215
4.48066
4.42951
4.36627
4.29319
4.22031
523.145
517.061
4.22653
4.36664
4.48591
4.58371
4.66235
4.72506
4.77457
4.81292
4.84167
4.86208
4.87519
4.8819
4.88303
4.87936
4.87161
4.86048
4.84655
4.8304
4.81261
4.79376
4.77428
4.75441
4.73418
4.71336
4.6914
4.66744
4.64018
4.60778
4.56758
4.51588
4.44969
4.37289
4.29253
523.49
517.076
4.28586
4.46207
4.60652
4.71812
4.80189
4.8645
4.91099
4.94462
4.96756
4.98136
4.98719
4.98602
4.97864
4.96583
4.94833
4.92693
4.9025
4.87597
4.84834
4.82069
4.79404
4.76919
4.7465
4.72574
4.70607
4.686
4.6635
4.63598
4.60006
4.55181
4.48936
4.41815
4.34093
523.84
517.095
4.34132
4.54551
4.7065
4.82436
4.90805
4.96772
5.01011
5.0391
5.05702
5.06535
5.06508
5.05693
5.04153
5.01955
4.99178
4.95917
4.92289
4.8843
4.84498
4.80675
4.77156
4.74101
4.71594
4.69622
4.68078
4.6676
4.65371
4.6354
4.60827
4.56798
4.51344
4.4494
4.37541
524.183
517.113
4.38863
4.61471
4.78835
4.91094
4.99505
5.05356
5.09428
5.12121
5.13651
5.14137
5.13647
5.12228
5.09931
5.06823
5.03003
4.98601
4.93781
4.88731
4.83677
4.78878
4.74603
4.71042
4.68262
4.66243
4.64886
4.63988
4.63235
4.62198
4.60362
4.57234
4.52691
4.47012
4.39924
524.507
517.131
4.43188
4.67607
4.85962
4.98568
5.07009
5.12774
5.16702
5.19196
5.20456
5.20577
5.19603
5.17561
5.14496
5.10492
5.05676
5.00221
4.94336
4.88266
4.82302
4.76789
4.72043
4.68206
4.6529
4.63253
4.62005
4.61375
4.61074
4.6067
4.59605
4.57318
4.53606
4.48552
4.41742
524.821
517.146
4.46769
4.72727
4.92006
5.05031
5.13615
5.19409
5.23304
5.25706
5.268
5.26656
5.25295
5.22736
5.19031
5.14286
5.08661
5.02363
4.95642
4.88789
4.82156
4.76153
4.71083
4.66996
4.6386
4.6163
4.60245
4.59588
4.59436
4.59401
4.58913
4.57339
4.54344
4.49848
4.43367
525.108
517.161
4.50142
4.77499
4.97598
5.10992
5.19705
5.2552
5.29368
5.31657
5.32558
5.32125
5.30368
5.27303
5.22996
5.17576
5.11232
5.04209
4.96794
4.89329
4.82238
4.75999
4.70829
4.66677
4.63458
4.61104
4.59567
4.58779
4.58595
4.58705
4.58579
4.57538
4.55121
4.51115
4.45011
525.377
517.175
4.53256
4.81909
5.02795
5.16573
5.25447
5.31315
5.3515
5.37362
5.38111
5.37438
5.35339
5.31833
5.26998
5.20984
5.14008
5.06344
4.98317
4.90317
4.82839
4.76422
4.7119
4.67017
4.63768
4.61346
4.59694
4.58766
4.58477
4.58599
4.58665
4.57994
4.56032
4.52457
4.46747
525.625
517.188
4.56229
4.86072
5.07661
5.21773
5.30781
5.36687
5.40493
5.42613
5.43195
5.4227
5.39827
5.3589
5.3055
5.23979
5.1642
5.08175
4.99605
4.91149
4.83381
4.76887
4.71692
4.67597
4.64423
4.62038
4.60364
4.59363
4.58984
4.59064
4.59211
4.58771
4.57143
4.53925
4.48579
525.859
517.202
4.59241
4.9024
5.12492
5.26907
5.36035
5.41974
5.45755
5.47789
5.48217
5.47054
5.44287
5.39943
5.34127
5.27026
5.18907
5.10099
5.00999
4.92091
4.8402
4.7743
4.72268
4.68278
4.65229
4.62948
4.61334
4.6034
4.59926
4.59973
4.60149
4.5985
4.58462
4.5553
4.50489
526.08
517.216
4.62073
4.94109
5.16949
5.31632
5.40868
5.46839
5.50596
5.52548
5.52824
5.51433
5.48357
5.4363
5.37368
5.29778
5.21141
5.11814
5.02223
4.92897
4.84554
4.77888
4.72784
4.68934
4.66059
4.63949
4.62472
4.61564
4.61186
4.6124
4.61434
4.61218
4.5999
4.57267
4.52452
526.29
517.231
4.65032
4.981
5.21496
5.36412
5.45736
5.51728
5.55458
5.57327
5.57456
5.55842
5.52469
5.47376
5.4069
5.3263
5.23497
5.13665
5.03587
4.9383
4.85177
4.78393
4.73314
4.69589
4.66892
4.64975
4.63679
4.62916
4.62637
4.62745
4.62975
4.62816
4.61697
4.59121
4.54453
526.49
517.246
4.67784
5.01768
5.25658
5.40788
5.502
5.56223
5.59937
5.61737
5.61734
5.59919
5.56275
5.50848
5.43777
5.35292
5.25705
5.15406
5.04871
4.94702
4.85741
4.78828
4.73773
4.70178
4.67678
4.65989
4.64917
4.64354
4.6423
4.64441
4.64729
4.64615
4.63562
4.61072
4.56473
526.683
517.262
4.70664
5.0557
5.29937
5.45259
5.54746
5.60793
5.64488
5.66219
5.66087
5.64078
5.60178
5.54438
5.47006
5.38121
5.28104
5.17357
5.06369
4.95771
4.86449
4.79336
4.74245
4.70742
4.68423
4.66962
4.66137
4.6581
4.65889
4.66249
4.66628
4.66564
4.65555
4.63108
4.58512
526.867
517.277
4.7335
5.09075
5.33869
5.49374
5.58943
5.65027
5.68716
5.70394
5.70151
5.67969
5.63838
5.57818
5.50063
5.4082
5.30415
5.19253
5.0784
4.96831
4.87145
4.79812
4.74663
4.7124
4.691
4.67883
4.67329
4.67273
4.67595
4.68142
4.68639
4.6863
4.67644
4.65201
4.6055
527.047
517.293
4.76139
5.12696
5.37913
5.53591
5.63237
5.69355
5.73039
5.74663
5.74312
5.71967
5.67622
5.61343
5.53292
5.4372
5.32953
5.21397
5.09565
4.98127
4.88027
4.80391
4.7511
4.71711
4.69718
4.68732
4.6846
4.687
4.69301
4.70077
4.70726
4.70789
4.69821
4.67352
4.62596
527.22
517.308
4.78762
5.16067
5.41672
5.57519
5.67252
5.73417
5.77106
5.78688
5.78242
5.75751
5.71213
5.64705
5.56394
5.46531
5.35441
5.23531
5.11314
4.99467
4.88956
4.80986
4.75539
4.72133
4.70268
4.69512
4.69531
4.7009
4.70997
4.72031
4.72855
4.73
4.72042
4.69525
4.64626
527.389
517.325
4.81462
5.19527
5.45523
5.61545
5.71369
5.77581
5.81272
5.82808
5.82267
5.79636
5.74921
5.68207
5.59663
5.49542
5.38161
5.25921
5.13332
5.01066
4.90102
4.81717
4.76024
4.72545
4.70764
4.70214
4.70524
4.71416
4.72659
4.73983
4.75011
4.75257
4.74312
4.71731
4.66653
527.553
517.34
4.84017
5.22773
5.49143
5.65351
5.75286
5.81555
5.8525
5.86738
5.86105
5.83345
5.78473
5.71578
5.62837
5.52495
5.40866
5.28339
5.15414
5.02756
4.91347
4.82515
4.76532
4.72939
4.71209
4.70849
4.71448
4.72687
4.74283
4.7592
4.77174
4.77533
4.76599
4.7394
4.68654
527.713
517.357
4.86617
5.26068
5.52825
5.69245
5.7932
5.85646
5.89319
5.90741
5.90009
5.87125
5.8211
5.75061
5.6615
5.55621
5.43777
5.30994
5.17753
5.04705
4.92826
4.83475
4.77126
4.73349
4.71618
4.71416
4.72294
4.73885
4.75853
4.77824
4.79323
4.79805
4.78886
4.7614
4.70628
527.87
517.373
4.89083
5.29167
5.56296
5.72965
5.83199
5.89594
5.93242
5.94577
5.93746
5.90749
5.85614
5.78436
5.69391
5.58714
5.46698
5.33703
5.20189
5.06782
4.94444
4.8455
4.77791
4.73779
4.72003
4.71931
4.73078
4.75024
4.77378
4.79703
4.81467
4.82091
4.81192
4.78347
4.72576
528.023
517.39
4.91568
5.3227
5.59758
5.7667
5.87029
5.93498
5.97163
5.98423
5.97501
5.94405
5.89167
5.81885
5.72732
5.61939
5.49785
5.36612
5.22853
5.09105
4.96304
4.8582
4.78583
4.74267
4.72385
4.72399
4.73793
4.76092
4.78839
4.81529
4.83565
4.84328
4.83442
4.805
4.74468
528.174
517.406
4.9394
5.35211
5.63039
5.8017
5.90652
5.97203
6.00906
6.02143
6.0112
5.97931
5.92607
5.85246
5.76018
5.65145
5.52897
5.39591
5.25634
5.11586
4.98346
4.87267
4.79511
4.74835
4.72791
4.72849
4.74463
4.77107
4.80252
4.8332
4.85645
4.86566
4.85714
4.82648
4.76325
528.321
517.423
4.96303
5.38136
5.66336
5.83622
5.94206
6.00835
6.04581
6.05808
6.04702
6.01442
5.96055
5.8864
5.79363
5.68441
5.56131
5.4273
5.28613
5.14299
5.00642
4.88961
4.80634
4.7553
4.73253
4.73297
4.75095
4.78065
4.81607
4.85055
4.87673
4.88758
4.87975
4.84752
4.78121
528.465
517.439
4.98543
5.4087
5.69404
5.86852
5.97553
6.04276
6.08083
6.09325
6.08165
6.04848
5.99412
5.91962
5.82662
5.71725
5.59391
5.45939
5.31712
5.17184
5.03158
4.90905
4.81978
4.76391
4.73816
4.73782
4.75717
4.78988
4.82914
4.86746
4.8967
4.90959
4.90232
4.86851
4.79874
528.606
517.456
5.00766
5.4357
5.7242
5.90013
6.00818
6.07631
6.11503
6.12777
6.11608
6.08222
6.02745
5.95278
5.85982
5.75058
5.62735
5.4927
5.34976
5.20281
5.05934
4.93149
4.83594
4.77466
4.74519
4.74336
4.7635
4.79886
4.84183
4.88402
4.91655
4.93183
4.92504
4.88969
4.81597
528.742
517.472
5.02883
5.46113
5.75252
5.92983
6.03896
6.10803
6.14747
6.16059
6.1489
6.11461
6.05972
5.98519
5.89257
5.78378
5.661
5.52663
5.38349
5.23544
5.08937
4.95681
4.85495
4.7879
4.75406
4.74999
4.77027
4.80781
4.85423
4.9002
4.93608
4.95392
4.94765
4.91075
4.83284
528.875
517.489
5.04974
5.48609
5.78014
5.95868
6.0688
6.1388
6.17897
6.19256
6.18099
6.1464
6.09155
6.01733
5.92524
5.81715
5.69512
5.56136
5.41844
5.26978
5.12169
4.98502
4.87695
4.80388
4.76512
4.75808
4.77777
4.81694
4.8665
4.9162
4.95549
4.9759
4.97013
4.9316
4.84931
529.004
517.505
5.06982
5.50982
5.80623
5.98586
6.09694
6.16787
6.20884
6.22298
6.21167
6.17699
6.12237
6.04867
5.95736
5.85023
5.72925
5.59647
5.45418
5.30542
5.15591
5.01577
4.90185
4.82275
4.77867
4.76797
4.78632
4.82646
4.87872
4.93184
4.97439
4.99746
4.99225
4.9521
4.86531
529.128
517.521
5.08962
5.53312
5.83154
6.01207
6.12401
6.19585
6.23762
6.25237
6.24141
6.20678
6.15251
6.07946
5.98908
5.88311
5.76342
5.63192
5.49065
5.34225
5.19189
5.04891
4.92958
4.84457
4.79489
4.77993
4.79619
4.83661
4.89104
4.94735
4.99323
5.01866
5.01395
4.97215
4.88081
529.249
517.537
5.10875
5.55573
5.85552
6.03676
6.14953
6.22227
6.26487
6.2803
6.26983
6.23551
6.18165
6.10936
6.02007
5.91548
5.79733
5.66739
5.5275
5.37992
5.22928
5.08412
4.95999
4.86935
4.81397
4.79427
4.8077
4.84766
4.9037
4.9629
5.01208
5.03956
5.03521
4.99171
4.89579
529.366
517.553
5.12715
5.5773
5.87837
6.06031
6.17387
6.24748
6.2909
6.30701
6.2971
6.26326
6.20982
6.13839
6.05034
5.94728
5.83088
5.70276
5.56456
5.41822
5.26782
5.12115
4.99289
4.89705
4.83601
4.81118
4.82112
4.85986
4.91688
4.97855
5.0308
5.0601
5.05598
5.01075
4.91023
529.479
517.568
5.14487
5.5979
5.90006
6.08256
6.19683
6.27129
6.31551
6.33232
6.32299
6.28968
6.23682
6.16641
6.07975
5.9784
5.86392
5.73783
5.60159
5.45683
5.30718
5.15966
5.02805
4.92755
4.86104
4.83085
4.83671
4.87349
4.93079
4.99442
5.04937
5.08026
5.07626
5.02925
4.92414
529.589
517.583
5.16182
5.61751
5.92061
6.10358
6.21854
6.29381
6.33882
6.35632
6.34761
6.31493
6.26278
6.19348
6.10832
6.00878
5.89637
5.77247
5.63841
5.49555
5.34708
5.19933
5.06515
4.96064
4.889
4.85338
4.85467
4.88877
4.94562
5.01061
5.06781
5.10003
5.09602
5.04719
4.93752
529.696
517.598
5.17821
5.63624
5.94003
6.12339
6.23898
6.31505
6.36086
6.37908
6.37099
6.33894
6.28756
6.21952
6.136
6.03841
5.92819
5.80664
5.67493
5.53422
5.38731
5.2399
5.10392
4.99607
4.91976
4.87878
4.87514
4.90591
4.96157
5.02725
5.0862
5.11943
5.11526
5.06457
4.95038
529.8
517.613
5.19386
5.65391
5.95827
6.14194
6.25814
6.335
6.38159
6.40052
6.39311
6.36179
6.31127
6.24452
6.16272
6.06719
5.95927
5.84018
5.71099
5.57265
5.42764
5.28106
5.14403
5.03355
4.95309
4.90696
4.89819
4.92505
4.97879
5.04447
5.1046
5.1385
5.134
5.08141
4.96274
529.902
517.627
5.20883
5.67066
5.97543
6.15935
6.27611
6.35371
6.40107
6.42072
6.414
6.38344
6.3339
6.26855
6.18852
6.09512
5.98961
5.8731
5.74654
5.61075
5.4679
5.32262
5.18522
5.07279
4.98877
4.93778
4.92379
4.94629
4.99743
5.0624
5.12313
5.15731
5.15228
5.09772
4.97462
530.002
517.641
5.2231
5.68643
5.99146
6.17555
6.29283
6.37115
6.41926
6.43961
6.43359
6.40384
6.35535
6.29149
6.21332
6.1221
6.01906
5.90523
5.78143
5.64835
5.50792
5.36433
5.2272
5.11349
5.0265
4.97104
4.95186
4.96963
5.01755
5.08114
5.14185
5.17591
5.17015
5.11355
4.98607
530.099
517.655
5.23669
5.7013
6.00646
6.19066
6.30842
6.38742
6.43624
6.45728
6.45195
6.42304
6.37569
6.31338
6.23715
6.14819
6.04765
5.93655
5.81561
5.68536
5.54756
5.40601
5.26974
5.15539
5.06604
5.00655
4.9823
4.9951
5.03925
5.10078
5.16086
5.19438
5.18764
5.12893
4.99713
530.195
517.668
5.24956
5.7152
6.02037
6.20462
6.32279
6.40244
6.45195
6.47365
6.46901
6.44096
6.39481
6.33412
6.25988
6.17323
6.07528
5.96695
5.84894
5.72166
5.58666
5.44747
5.31258
5.19821
5.1071
5.04406
5.01494
5.02261
5.06253
5.12138
5.18024
5.21279
5.20486
5.14394
5.00786
530.289
517.681
5.26182
5.72829
6.03332
6.21754
6.33609
6.41634
6.4665
6.48883
6.48486
6.45768
6.41277
6.35373
6.28153
6.19724
6.1019
5.9964
5.88135
5.75713
5.6251
5.48854
5.35551
5.24171
5.14945
5.08336
5.04965
5.05212
5.08741
5.143
5.20005
5.23121
5.22184
5.15862
5.01831
530.382
517.693
5.27337
5.74044
6.04521
6.22934
6.34822
6.42903
6.4798
6.50274
6.49943
6.47313
6.42951
6.37216
6.30202
6.22011
6.12744
6.0248
5.91277
5.79165
5.66277
5.52908
5.39834
5.28567
5.19283
5.1242
5.08624
5.08352
5.11387
5.16569
5.22037
5.24974
5.23868
5.17306
5.02854
530.474
517.706
5.28434
5.7518
6.05619
6.24015
6.35931
6.44065
6.492
6.51551
6.51283
6.48741
6.4451
6.38945
6.32137
6.24185
6.15183
6.05207
5.94307
5.82507
5.69934
5.56879
5.44078
5.32979
5.23697
5.16638
5.12454
5.11673
5.1419
5.18947
5.24125
5.26842
5.25545
5.18732
5.0386
530.564
517.717
5.29461
5.76223
6.06612
6.24986
6.36928
6.45111
6.50301
6.52708
6.52503
6.5005
6.45953
6.40561
6.33959
6.26245
6.17508
6.07819
5.97223
5.85743
5.73496
5.60767
5.48275
5.37387
5.2816
5.20961
5.16436
5.15164
5.17148
5.2144
5.26279
5.28737
5.27223
5.20148
5.04857
530.653
517.729
5.30429
5.77187
6.07515
6.25861
6.37824
6.46054
6.51297
6.53756
6.53612
6.51248
6.47288
6.42068
6.3567
6.28191
6.19715
6.1031
6.00018
5.88857
5.76945
5.64558
5.5241
5.41773
5.32648
5.25363
5.20545
5.1881
5.20256
5.2405
5.28505
5.30666
5.2891
5.2156
5.05848
530.741
517.74
5.31329
5.78061
6.08317
6.26632
6.38614
6.46889
6.52183
6.54694
6.54612
6.52339
6.48519
6.43471
6.37277
6.30029
6.21809
6.12683
6.02691
5.91848
5.80272
5.68241
5.56462
5.46112
5.37135
5.29817
5.24758
5.22594
5.23506
5.26776
5.30808
5.32636
5.30615
5.22976
5.0684
530.828
517.751
5.32169
5.78856
6.0903
6.27309
6.39306
6.47624
6.52967
6.55529
6.55508
6.53327
6.49652
6.44777
6.38783
6.31761
6.23792
6.14939
6.05241
5.94712
5.83473
5.71807
5.60425
5.50386
5.41596
5.34294
5.29048
5.26497
5.26892
5.29628
5.33196
5.34658
5.32346
5.24403
5.07837
530.915
517.761
5.32947
5.7957
6.09651
6.27889
6.39899
6.48257
6.53648
6.5626
6.56302
6.54217
6.50691
6.4599
6.40195
6.33396
6.25671
6.17083
6.07671
5.9745
5.86547
5.75251
5.64284
5.54581
5.46009
5.38768
5.33385
5.30494
5.30399
5.32604
5.35676
5.36737
5.34112
5.25849
5.08843
531.002
517.772
5.33671
5.80209
6.10188
6.28378
6.40397
6.48792
6.5423
6.56891
6.56996
6.5501
6.51638
6.47115
6.41519
6.34938
6.27451
6.19121
6.09986
6.00066
5.89494
5.78572
5.68035
5.58685
5.50359
5.43218
5.37748
5.34566
5.34013
5.35693
5.38247
5.38881
5.35919
5.27319
5.09863
531.088
517.782
5.34342
5.80777
6.10639
6.28776
6.408
6.49229
6.54711
6.5742
6.57591
6.55709
6.52498
6.48155
6.42758
6.36393
6.2914
6.21059
6.12193
6.02566
5.92318
5.81769
5.71672
5.6269
5.54633
5.47627
5.42116
5.38691
5.37717
5.38882
5.40909
5.41093
5.37774
5.28819
5.10901
531.175
517.791
5.34965
5.81276
6.11011
6.29086
6.41109
6.4957
6.55092
6.57849
6.58087
6.56314
6.53269
6.49111
6.43914
6.37764
6.3074
6.22903
6.14297
6.04955
5.95026
5.84848
5.75198
5.66593
5.58823
5.51982
5.46471
5.42849
5.41491
5.42161
5.43656
5.43376
5.39682
5.30354
5.11961
531.262
517.801
5.35541
5.81709
6.11302
6.29307
6.41325
6.49813
6.55374
6.58178
6.58486
6.56827
6.53956
6.49986
6.44991
6.39055
6.32256
6.24658
6.16306
6.0724
5.97623
5.87813
5.78614
5.70392
5.62924
5.56273
5.50797
5.47023
5.45322
5.4552
5.46485
5.45729
5.41644
5.31929
5.13044
531.35
517.81
5.36072
5.82076
6.11514
6.29441
6.41448
6.49958
6.55555
6.58407
6.58788
6.57251
6.54559
6.50779
6.45986
6.40265
6.33691
6.26328
6.18226
6.0943
6.00119
5.90675
5.81926
5.74091
5.66932
5.60491
5.55083
5.51195
5.49191
5.48948
5.49391
5.48153
5.43666
5.33547
5.14155
531.438
517.819
5.3656
5.8238
6.11649
6.2949
6.41478
6.50007
6.55636
6.58535
6.58998
6.57598
6.55082
6.51491
6.46901
6.41394
6.35044
6.27915
6.20059
6.11529
6.02521
5.93442
5.85142
5.77692
5.70848
5.6463
5.59318
5.55351
5.53085
5.52431
5.52365
5.50644
5.45746
5.35209
5.15294
531.527
517.828
5.37004
5.82621
6.11706
6.29452
6.41417
6.49957
6.55614
6.58558
6.59107
6.57862
6.55517
6.52115
6.4773
6.4244
6.36315
6.2942
6.2181
6.13546
6.04839
5.96129
5.88272
5.81202
5.74675
5.6869
5.63493
5.59484
5.56989
5.55959
5.55402
5.53202
5.47886
5.36918
5.16464
531.616
517.837
5.37406
5.828
6.11689
6.29331
6.41266
6.49813
6.55493
6.58478
6.5911
6.5802
6.55852
6.52646
6.4847
6.434
6.37504
6.30845
6.23482
6.15485
6.07085
5.9875
5.91327
5.8463
5.78414
5.72666
5.67601
5.63576
5.6089
5.59519
5.58491
5.55819
5.50083
5.38675
5.17665
531.706
517.845
5.37763
5.82914
6.11595
6.29125
6.41025
6.49575
6.55274
6.58299
6.59017
6.58088
6.56099
6.5309
6.49125
6.44277
6.38611
6.32191
6.25078
6.17354
6.09269
6.01325
5.94323
5.87987
5.82075
5.76564
5.71641
5.67623
5.64779
5.63093
5.61622
5.5849
5.52334
5.40475
5.18896
531.797
517.854
5.38077
5.82966
6.11426
6.28839
6.40699
6.49248
6.54961
6.58022
6.58827
6.58061
6.56254
6.53443
6.49691
6.45065
6.39632
6.33453
6.26596
6.19152
6.11395
6.03863
5.97268
5.9128
5.85662
5.80385
5.75609
5.71616
5.68643
5.66682
5.64786
5.6121
5.54637
5.42323
5.20159
531.889
517.862
5.38342
5.82951
6.1118
6.2847
6.40288
6.48832
6.54557
6.57655
6.58546
6.57947
6.56324
6.53711
6.50171
6.45768
6.40567
6.34632
6.28034
6.20877
6.1346
6.06359
6.00161
5.94511
5.89179
5.8413
5.79505
5.75551
5.72473
5.70268
5.67973
5.63967
5.56983
5.44208
5.2145
531.981
517.869
5.38559
5.8287
6.10861
6.28025
6.39797
6.48335
6.54071
6.57204
6.58185
6.57754
6.56313
6.53897
6.50566
6.46385
6.41415
6.35724
6.29387
6.22522
6.15454
6.08796
6.02991
5.97674
5.92624
5.87801
5.83329
5.79424
5.76264
5.73843
5.71179
5.66758
5.5937
5.46131
5.22769
532.074
517.877
5.38722
5.82721
6.10466
6.275
6.39226
6.47757
6.53504
6.56675
6.57749
6.57491
6.56233
6.5401
6.50885
6.46921
6.42181
6.36731
6.30656
6.24087
6.17374
6.11166
6.05749
6.00761
5.95988
5.9139
5.87074
5.83228
5.80003
5.77393
5.74385
5.69573
5.61788
5.48086
5.2411
532.167
517.884
5.38837
5.82509
6.10002
6.26904
6.38581
6.47105
6.52864
6.56077
6.57248
6.57168
6.56092
6.54059
6.51135
6.47384
6.42868
6.37658
6.31843
6.25571
6.1922
6.13462
6.0843
6.03765
5.99267
5.94894
5.90739
5.86964
5.83693
5.8092
5.77593
5.72407
5.64234
5.50065
5.25468
532.261
517.891
5.38905
5.82236
6.09471
6.26235
6.37861
6.46377
6.52151
6.55411
6.56689
6.56793
6.55901
6.54057
6.5133
6.47785
6.43489
6.38514
6.32958
6.26985
6.21
6.15691
6.11035
6.06688
6.02458
5.98306
5.94311
5.90614
5.87314
5.84402
5.80781
5.75243
5.66694
5.5206
5.26839
532.354
517.898
5.38936
5.81914
6.0888
6.25501
6.37071
6.45576
6.51366
6.54681
6.56075
6.56371
6.55667
6.54011
6.51477
6.48135
6.44053
6.39311
6.34013
6.28342
6.22731
6.17861
6.13572
6.09533
6.05565
6.0163
5.97799
5.94187
5.90871
5.87843
5.83951
5.78079
5.69165
5.54069
5.28223
532.448
517.904
5.38936
5.81546
6.08231
6.247
6.36209
6.44699
6.50505
6.53882
6.55408
6.55904
6.55392
6.53927
6.51586
6.48444
6.44575
6.40062
6.35024
6.2966
6.24436
6.19988
6.16051
6.12308
6.08591
6.04867
6.01194
5.97671
5.9435
5.91229
5.87089
5.80904
5.71638
5.56086
5.29615
532.541
517.911
5.38913
5.8114
6.07531
6.23838
6.35276
6.43744
6.49564
6.53014
6.54697
6.55388
6.55069
6.53799
6.51657
6.48718
6.45061
6.40779
6.36004
6.30956
6.26134
6.22088
6.18483
6.15019
6.11542
6.08017
6.04498
6.01061
5.97744
5.94549
5.90188
5.83713
5.74108
5.58108
5.31014
532.634
517.917
5.38867
5.80693
6.06777
6.22912
6.34272
6.4271
6.48536
6.5206
6.53922
6.54802
6.54683
6.53619
6.51684
6.48955
6.45516
6.41469
6.36961
6.32239
6.27833
6.24168
6.20878
6.17678
6.14426
6.11091
6.0772
6.0438
6.01102
5.97814
5.93241
5.86492
5.76563
5.60122
5.3241
532.726
517.924
5.38797
5.80202
6.05968
6.21926
6.33202
6.41601
6.47424
6.51016
6.53053
6.54131
6.54224
6.53378
6.51661
6.49151
6.45937
6.42131
6.37897
6.3351
6.29526
6.26228
6.23237
6.20287
6.17249
6.14096
6.10871
6.07632
6.04408
6.01032
5.96255
5.89246
5.79005
5.62131
5.33804
532.818
517.93
5.38693
5.79656
6.05098
6.20876
6.32066
6.40422
6.46239
6.49897
6.5211
6.53384
6.53691
6.53069
6.5158
6.493
6.46321
6.42765
6.38813
6.34768
6.31211
6.28266
6.25562
6.22851
6.20015
6.17035
6.13951
6.10813
6.07648
6.04188
5.99219
5.91964
5.81423
5.64128
5.352
532.909
517.936
5.38542
5.79049
6.04165
6.19767
6.30871
6.39183
6.4499
6.48709
6.51093
6.5256
6.5308
6.52685
6.51433
6.49393
6.4666
6.43365
6.39707
6.36015
6.32883
6.30282
6.27854
6.25372
6.2273
6.19915
6.16966
6.13928
6.10826
6.0729
6.0214
5.94653
5.83824
5.66119
5.36602
532.999
517.941
5.38332
5.78375
6.03168
6.18596
6.29619
6.37891
6.43693
6.47477
6.50029
6.51682
6.52408
6.52237
6.51221
6.49428
6.46951
6.4393
6.40581
6.37259
6.34546
6.32279
6.30117
6.27853
6.25395
6.22736
6.19914
6.16972
6.13933
6.10325
6.05004
5.97298
5.86194
5.68088
5.37992
533.087
517.946
5.38069
5.77641
6.0211
6.17367
6.28312
6.36549
6.42354
6.4621
6.48935
6.50769
6.51693
6.51738
6.50955
6.49409
6.47196
6.44462
6.41438
6.38508
6.36204
6.34258
6.32353
6.303
6.28019
6.25508
6.22807
6.19957
6.1698
6.13306
6.07824
5.99911
5.88541
5.70044
5.39375
533.175
517.951
5.37763
5.76854
6.00994
6.16077
6.26944
6.35154
6.40975
6.44921
6.47831
6.49848
6.50963
6.51216
6.50657
6.49355
6.47408
6.44969
6.42288
6.39773
6.37862
6.36224
6.34563
6.32711
6.30599
6.28229
6.25644
6.22878
6.19961
6.1622
6.10584
6.02473
5.90848
5.71969
5.40738
533.261
517.955
5.37432
5.76029
5.99825
6.14722
6.25507
6.33691
6.39543
6.43602
6.46718
6.4893
6.50238
6.50692
6.50349
6.49283
6.47599
6.45461
6.43136
6.41054
6.3952
6.38176
6.3675
6.35091
6.33141
6.30908
6.28432
6.25749
6.2289
6.19085
6.13303
6.05003
5.9313
5.73877
5.4209
533.346
517.96
5.37091
5.75173
5.98602
6.13297
6.23987
6.32144
6.38041
6.42243
6.45589
6.48015
6.49528
6.50186
6.50055
6.49219
6.47793
6.45954
6.4399
6.42346
6.41173
6.40111
6.3891
6.37436
6.35642
6.33539
6.31168
6.28562
6.25757
6.21888
6.15963
6.07482
5.95368
5.75748
5.43418
533.43
517.965
5.3675
5.74294
5.97327
6.11795
6.22373
6.30493
6.36448
6.40827
6.44423
6.47085
6.48823
6.49698
6.49785
6.49179
6.48007
6.46467
6.44866
6.43655
6.42827
6.42034
6.41049
6.39752
6.38107
6.3613
6.3386
6.3133
6.28578
6.24648
6.18588
6.09931
5.97583
5.77603
5.44736
533.512
517.97
5.36409
5.73386
5.95993
6.10209
6.20651
6.28719
6.34738
6.39346
6.43189
6.4611
6.48102
6.49217
6.49538
6.4917
6.48257
6.47017
6.45783
6.44988
6.44485
6.43945
6.43162
6.42033
6.4053
6.38673
6.36501
6.34043
6.31342
6.27349
6.21156
6.1233
5.99752
5.7942
5.46025
533.593
517.975
5.36062
5.72445
5.94599
6.08536
6.18816
6.26806
6.32876
6.37714
6.41836
6.45054
6.47335
6.48723
6.49302
6.49189
6.4855
6.47623
6.46766
6.46364
6.46163
6.45858
6.45263
6.44291
6.42921
6.41177
6.39095
6.36707
6.34057
6.30008
6.23691
6.14702
6.01902
5.81223
5.47305
533.672
517.98
5.357
5.71465
5.93142
6.06776
6.16869
6.2476
6.30874
6.35952
6.40369
6.43907
6.46504
6.48192
6.49055
6.49223
6.48878
6.48282
6.47822
6.47786
6.47862
6.4777
6.47348
6.4652
6.45274
6.43638
6.41651
6.39357
6.36724
6.32609
6.26169
6.17024
6.04006
5.82986
5.48555
533.749
517.985
5.35324
5.7045
5.91624
6.0493
6.14806
6.22575
6.28723
6.34046
6.38773
6.42649
6.45589
6.47604
6.48779
6.49253
6.49228
6.48989
6.48944
6.49254
6.49587
6.49693
6.49429
6.48734
6.47605
6.46073
6.44184
6.4199
6.39365
6.3518
6.2862
6.19322
6.06093
5.84737
5.49796
533.826
517.99
5.34942
5.69409
5.90053
6.03
6.12629
6.20251
6.26429
6.32005
6.37055
6.41286
6.44584
6.46946
6.48455
6.4926
6.49578
6.49719
6.50102
6.50744
6.51322
6.51613
6.51497
6.50926
6.49905
6.48472
6.46677
6.4458
6.41955
6.37695
6.31014
6.21568
6.08132
5.86446
5.51004
533.9
517.995
5.34574
5.68357
5.88436
6.00987
6.10329
6.17775
6.23979
6.29826
6.35219
6.39824
6.43497
6.46224
6.48085
6.4924
6.49923
6.50467
6.51282
6.52248
6.53062
6.53532
6.53557
6.53103
6.52186
6.50848
6.49145
6.47142
6.44517
6.40181
6.33385
6.23795
6.10155
5.88144
5.52202
533.973
518.001
5.34235
5.67304
5.86778
5.98889
6.07897
6.1513
6.21353
6.27488
6.33251
6.38256
6.42325
6.45434
6.47666
6.49191
6.50261
6.51228
6.52471
6.5375
6.54793
6.55436
6.55597
6.55256
6.54435
6.53187
6.51569
6.49655
6.47022
6.42609
6.35697
6.25966
6.12128
5.89796
5.53362
534.045
518.007
5.33937
5.66257
5.85085
5.96709
6.05328
6.12302
6.18529
6.24964
6.31126
6.36563
6.4106
6.44576
6.472
6.49116
6.50596
6.52012
6.53668
6.55248
6.56513
6.57324
6.57618
6.57386
6.56662
6.55501
6.53967
6.52139
6.49498
6.45008
6.37985
6.28118
6.14085
5.91437
5.5451
534.116
518.014
5.33667
5.65207
5.83356
5.9445
6.0262
6.09281
6.15486
6.22215
6.28794
6.34698
6.39659
6.43616
6.46663
6.48998
6.50917
6.52806
6.54858
6.56728
6.58207
6.59183
6.59607
6.59482
6.58849
6.57771
6.56316
6.54567
6.51912
6.47345
6.40212
6.3021
6.15986
5.93025
5.55614
534.185
518.021
5.33406
5.64146
5.81595
5.92123
5.99789
6.06083
6.12238
6.19219
6.26214
6.32612
6.38073
6.4251
6.46015
6.48803
6.5119
6.53575
6.56015
6.58169
6.59863
6.61003
6.61559
6.61543
6.61004
6.60009
6.58633
6.56963
6.54295
6.49652
6.42413
6.32282
6.1787
5.946
5.56703
534.254
518.028
5.33126
5.63057
5.79803
5.89739
5.96849
6.0272
6.08798
6.1596
6.2335
6.30254
6.36248
6.41203
6.45204
6.48481
6.51371
6.54268
6.57098
6.5954
6.61453
6.62765
6.63457
6.63552
6.63106
6.62194
6.60893
6.59296
6.5661
6.5189
6.44546
6.34288
6.19691
5.96116
5.5774
534.32
518.035
5.3282
5.61947
5.7799
5.87315
5.93825
5.99213
6.05148
6.12451
6.20214
6.27622
6.34163
6.39661
6.44191
6.47993
6.5142
6.54841
6.58066
6.60807
6.62951
6.64447
6.65287
6.65503
6.65159
6.64333
6.63111
6.61589
6.58889
6.54096
6.46653
6.36273
6.21497
5.9762
5.58764
534.388
518.041
5.32501
5.60828
5.76162
5.84853
5.90726
5.95601
6.01362
6.08764
6.16862
6.2475
6.31834
6.37886
6.42967
6.47322
6.5132
6.55266
6.58891
6.61942
6.64333
6.66027
6.67028
6.67377
6.67142
6.66406
6.6526
6.63807
6.61088
6.56222
6.48682
6.38182
6.23229
5.99057
5.59733
534.452
518.048
5.32208
5.5973
5.7433
5.82345
5.87532
5.9186
5.97434
6.04924
6.13339
6.21686
6.29297
6.359
6.4154
6.46469
6.51063
6.55527
6.59552
6.62924
6.65576
6.67487
6.68669
6.69168
6.69055
6.68422
6.67368
6.65981
6.6325
6.58317
6.50685
6.40072
6.24947
6.00483
5.60689
534.519
518.055
5.31973
5.58669
5.72495
5.79781
5.84215
5.87967
5.93362
6.00963
6.09698
6.18489
6.26606
6.33745
6.39942
6.45451
6.50654
6.55621
6.60046
6.63744
6.66671
6.68814
6.70191
6.70853
6.70877
6.7036
6.69416
6.68072
6.65319
6.60319
6.52598
6.41873
6.2658
6.01831
5.61581
534.582
518.064
5.31837
5.57672
5.70665
5.77144
5.80741
5.83861
5.89088
5.96846
6.05935
6.15176
6.23788
6.31448
6.3819
6.44276
6.50082
6.55537
6.60359
6.64391
6.67606
6.7
6.71595
6.72443
6.72625
6.72247
6.7143
6.7013
6.67355
6.6229
6.54485
6.43653
6.28195
6.03164
5.62457
534.649
518.073
5.31797
5.56738
5.68849
5.74437
5.77084
5.79493
5.84546
5.92509
6.0201
6.11739
6.20857
6.29033
6.3631
6.42966
6.49352
6.55276
6.60488
6.64858
6.68371
6.71028
6.72854
6.73904
6.7426
6.7403
6.73346
6.72088
6.69288
6.64157
6.5627
6.45334
6.29715
6.04409
5.63256
534.711
518.083
5.31846
5.55874
5.67067
5.71692
5.73269
5.74861
5.79675
5.87859
5.97829
6.08097
6.17755
6.26463
6.34281
6.41508
6.48448
6.54823
6.6042
6.65132
6.68955
6.71894
6.73974
6.7525
6.75803
6.75743
6.75206
6.74
6.71181
6.65989
6.58024
6.46988
6.31211
6.05631
5.64032
534.777
518.094
5.31946
5.55066
5.65336
5.68944
5.69335
5.69964
5.74439
5.82825
5.93302
6.0417
6.14418
6.23692
6.32073
6.39883
6.4735
6.5416
6.60136
6.65193
6.69334
6.72567
6.74916
6.76433
6.77197
6.77319
6.76938
6.75788
6.72953
6.67706
6.59668
6.48536
6.32606
6.06759
5.64724
534.839
518.105
5.32067
5.54313
5.63686
5.66261
5.65378
5.64894
5.68879
5.77366
5.88338
5.99842
6.10731
6.20616
6.29594
6.38011
6.45998
6.53243
6.59607
6.65021
6.69499
6.73047
6.7569
6.77473
6.78475
6.78802
6.78593
6.77513
6.74673
6.69377
6.61272
6.50049
6.33971
6.07861
5.65388
534.905
518.116
5.32185
5.53606
5.62129
5.6368
5.61465
5.59727
5.63033
5.71494
5.82913
5.95064
6.06629
6.17165
6.26774
6.35823
6.44334
6.52024
6.58789
6.64577
6.69407
6.73289
6.76243
6.78311
6.79567
6.80113
6.80088
6.79088
6.76253
6.70919
6.62757
6.51451
6.3523
6.08866
5.6597
534.967
518.125
5.32295
5.52945
5.60673
5.61234
5.57672
5.54569
5.57018
5.65284
5.77041
5.89803
6.02055
6.13271
6.23544
6.33252
6.42306
6.50466
6.57658
6.63848
6.6906
6.73304
6.76597
6.7898
6.80517
6.81308
6.81486
6.80582
6.77765
6.72404
6.64193
6.5281
6.36454
6.09841
5.66525
535.033
518.135
5.32405
5.52328
5.59304
5.58913
5.54014
5.49489
5.50939
5.58837
5.70805
5.84112
5.97032
6.08933
6.19888
6.30266
6.3988
6.48533
6.56177
6.62792
6.68409
6.73038
6.76694
6.79411
6.81249
6.82301
6.82697
6.81904
6.7912
6.73747
6.655
6.54051
6.37569
6.10718
5.67
535.095
518.145
5.32541
5.51756
5.58004
5.56681
5.50462
5.44501
5.44866
5.52259
5.64307
5.78073
5.91615
6.04188
6.15826
6.26877
6.37064
6.46231
6.54355
6.61427
6.6748
6.72525
6.76573
6.79654
6.81821
6.83159
6.83792
6.83129
6.80394
6.75022
6.66749
6.55243
6.38642
6.1156
5.67445
535.163
518.155
5.32719
5.51224
5.5675
5.54502
5.46972
5.39579
5.38825
5.45632
5.57656
5.71792
5.85893
5.99099
6.11402
6.23103
6.33859
6.43549
6.52169
6.59717
6.66228
6.7171
6.76171
6.79636
6.8215
6.83792
6.84678
6.84162
6.81492
6.76139
6.67855
6.56304
6.39595
6.12296
5.67804
535.225
518.166
5.32945
5.50724
5.55526
5.5235
5.43499
5.34671
5.32777
5.38953
5.50886
5.65316
5.79924
5.93728
6.06673
6.18994
6.30312
6.40533
6.49665
6.5771
6.64703
6.70648
6.75549
6.79424
6.82311
6.84278
6.85437
6.85085
6.82498
6.77177
6.68895
6.57308
6.405
6.1299
5.68126
535.294
518.177
5.33194
5.50242
5.54334
5.5024
5.40069
5.2979
5.26706
5.32205
5.44
5.58675
5.73738
5.88093
6.01644
6.14549
6.26415
6.37164
6.46813
6.55366
6.62853
6.69277
6.74635
6.78936
6.82211
6.8452
6.85965
6.85794
6.83308
6.78038
6.69773
6.58164
6.41269
6.13563
5.68347
535.356
518.189
5.33433
5.49758
5.53171
5.48189
5.36717
5.24973
5.20593
5.25326
5.36928
5.51808
5.67292
5.82176
5.96311
6.09783
6.22196
6.33483
6.43664