/*--------------------------------*- C++ -*----------------------------------*\
| =========                 |                                                 |
| \\      /  F ield         | OpenFOAM: The Open Source CFD Toolbox           |
|  \\    /   O peration     | Version:  v2006                                 |
|   \\  /    A nd           | Website:  www.openfoam.com                      |
|    \\/     M anipulation  |                                                 |
\*---------------------------------------------------------------------------*/
FoamFile
{
    version     2.0;
    format      ascii;
    class       surfaceScalarField;
    location    "90";
    object      phi;
}
// * * * * * * * * * * * * * * * * * * * * * * * * * * * * * * * * * * * * * //

dimensions      [1 0 -1 0 0 0 0];
oriented        oriented;


internalField   nonuniform List<scalar> 
228225
(
2.11307e-07
-2.19482e-07
7.62074e-09
7.18017e-07
-5.24724e-07
1.80169e-08
1.41625e-06
-7.29457e-07
3.12266e-08
2.23668e-06
-8.67631e-07
4.71951e-08
3.13222e-06
-9.59539e-07
6.39695e-08
4.06969e-06
-1.01741e-06
7.98847e-08
5.02401e-06
-1.04847e-06
9.4033e-08
5.97489e-06
-1.05714e-06
1.06099e-07
6.90492e-06
-1.04635e-06
1.16103e-07
7.7986e-06
-1.01816e-06
1.24212e-07
8.64189e-06
-9.74227e-07
1.30628e-07
9.42201e-06
-9.16016e-07
1.35545e-07
1.01275e-05
-8.44966e-07
1.39126e-07
1.07484e-05
-7.62831e-07
1.41494e-07
1.12765e-05
-6.71315e-07
1.42748e-07
1.17044e-05
-5.71355e-07
1.42969e-07
1.20256e-05
-4.6392e-07
1.42216e-07
1.22349e-05
-3.50435e-07
1.40556e-07
1.23287e-05
-2.32357e-07
1.38082e-07
1.23047e-05
-1.11338e-07
1.34837e-07
1.21644e-05
8.85666e-09
1.30842e-07
1.19018e-05
1.36008e-07
1.26087e-07
1.15218e-05
2.58897e-07
1.20606e-07
1.10284e-05
3.78404e-07
1.14427e-07
1.04277e-05
4.92732e-07
1.07603e-07
9.72775e-06
5.99255e-07
1.00237e-07
8.93983e-06
6.95075e-07
9.24903e-08
8.07652e-06
7.78407e-07
8.46226e-08
7.15021e-06
8.49112e-07
7.69932e-08
6.16771e-06
9.12583e-07
6.98313e-08
5.11568e-06
9.89376e-07
6.26983e-08
3.94092e-06
1.12099e-06
5.40115e-08
2.56806e-06
1.33193e-06
4.15054e-08
1.0618e-06
1.48247e-06
2.49049e-08
1.05598e-06
7.7547e-09
1.30182e-07
-3.77304e-07
2.76308e-08
5.16731e-07
-9.78084e-07
6.68151e-08
1.11934e-06
-1.42874e-06
9.67069e-08
1.88761e-06
-1.75616e-06
1.20327e-07
2.77355e-06
-1.98437e-06
1.38978e-07
3.73604e-06
-2.13347e-06
1.53676e-07
4.74088e-06
-2.21853e-06
1.65329e-07
5.75944e-06
-2.2503e-06
1.74715e-07
6.76743e-06
-2.23668e-06
1.8244e-07
7.74417e-06
-2.18374e-06
1.88937e-07
8.6719e-06
-2.09639e-06
1.94505e-07
9.53534e-06
-1.97874e-06
1.99339e-07
1.03213e-05
-1.83446e-06
2.03543e-07
1.10187e-05
-1.66727e-06
2.07058e-07
1.16185e-05
-1.48098e-06
2.09787e-07
1.21139e-05
-1.2786e-06
2.11856e-07
1.24986e-05
-1.06218e-06
2.13426e-07
1.27672e-05
-8.33712e-07
2.14543e-07
1.29148e-05
-5.9541e-07
2.15233e-07
1.29376e-05
-3.49901e-07
2.15467e-07
1.28323e-05
-1.01297e-07
2.152e-07
1.26011e-05
1.52517e-07
2.14354e-07
1.22394e-05
4.07464e-07
2.12796e-07
1.17484e-05
6.58703e-07
2.10359e-07
1.11298e-05
9.04083e-07
2.06823e-07
1.03866e-05
1.14012e-06
2.019e-07
9.52217e-06
1.36366e-06
1.95422e-07
8.53981e-06
1.57294e-06
1.87437e-07
7.44217e-06
1.76853e-06
1.77898e-07
6.22904e-06
1.95901e-06
1.66468e-07
4.89742e-06
2.16862e-06
1.52277e-07
3.45767e-06
2.42737e-06
1.33486e-07
1.98681e-06
2.69535e-06
1.07892e-07
6.824e-07
2.71348e-06
7.43892e-08
1.70931e-06
3.07919e-08
1.47856e-07
-5.61649e-07
3.64819e-08
5.58027e-07
-1.47156e-06
8.33201e-08
1.17938e-06
-2.16362e-06
1.13568e-07
1.94807e-06
-2.65845e-06
1.33644e-07
2.8015e-06
-2.9851e-06
1.47376e-07
3.69262e-06
-3.18189e-06
1.57372e-07
4.5901e-06
-3.28119e-06
1.65265e-07
5.47261e-06
-3.3047e-06
1.71977e-07
6.32451e-06
-3.26649e-06
1.77991e-07
7.13356e-06
-3.17625e-06
1.83539e-07
7.88971e-06
-3.04118e-06
1.88725e-07
8.58437e-06
-2.86692e-06
1.93585e-07
9.21e-06
-2.65816e-06
1.98136e-07
9.75944e-06
-2.41904e-06
2.02384e-07
1.02257e-05
-2.15355e-06
2.06307e-07
1.0603e-05
-1.86571e-06
2.09856e-07
1.08868e-05
-1.55901e-06
2.13062e-07
1.10734e-05
-1.2363e-06
2.16034e-07
1.11596e-05
-9.00419e-07
2.18799e-07
1.11426e-05
-5.54329e-07
2.2134e-07
1.10191e-05
-2.01403e-07
2.23574e-07
1.07898e-05
1.56333e-07
2.25443e-07
1.04528e-05
5.17422e-07
2.26887e-07
1.00062e-05
8.77417e-07
2.27752e-07
9.44891e-06
1.2334e-06
2.27792e-07
8.78083e-06
1.58133e-06
2.2666e-07
8.00341e-06
1.91693e-06
2.23931e-07
7.11967e-06
2.23736e-06
2.19102e-07
6.13195e-06
2.54451e-06
2.11552e-07
5.04061e-06
2.84984e-06
2.00368e-07
3.85174e-06
3.17349e-06
1.83954e-07
2.60519e-06
3.5139e-06
1.60163e-07
1.40941e-06
3.76335e-06
1.28215e-07
4.35086e-07
3.60078e-06
8.79198e-08
2.11041e-06
3.55757e-08
1.74941e-07
-7.75898e-07
3.92845e-08
6.26541e-07
-2.00536e-06
8.21826e-08
1.26423e-06
-2.90712e-06
1.05782e-07
2.0022e-06
-3.5165e-06
1.20064e-07
2.77366e-06
-3.88649e-06
1.29881e-07
3.53989e-06
-4.08572e-06
1.37576e-07
4.28225e-06
-4.16771e-06
1.44123e-07
4.99163e-06
-4.16397e-06
1.49844e-07
5.66253e-06
-4.0923e-06
1.54859e-07
6.29053e-06
-3.96358e-06
1.59287e-07
6.87114e-06
-3.78513e-06
1.63285e-07
7.39939e-06
-3.56226e-06
1.67037e-07
7.8698e-06
-3.29935e-06
1.70736e-07
8.27661e-06
-3.00047e-06
1.74566e-07
8.61408e-06
-2.66976e-06
1.78697e-07
8.87673e-06
-2.31167e-06
1.83266e-07
9.06016e-06
-1.93086e-06
1.88367e-07
9.16173e-06
-1.53197e-06
1.94042e-07
9.18023e-06
-1.11928e-06
2.00299e-07
9.11528e-06
-6.96521e-07
2.07088e-07
8.96628e-06
-2.66745e-07
2.14277e-07
8.73311e-06
1.67785e-07
2.2165e-07
8.41616e-06
6.05389e-07
2.28902e-07
8.01431e-06
1.04355e-06
2.35616e-07
7.52679e-06
1.47956e-06
2.41258e-07
6.9534e-06
1.90943e-06
2.45174e-07
6.295e-06
2.32858e-06
2.46631e-07
5.55298e-06
2.73439e-06
2.44871e-07
4.72796e-06
3.13036e-06
2.39078e-07
3.8212e-06
3.5285e-06
2.2805e-07
2.84673e-06
3.9383e-06
2.09695e-07
1.85806e-06
4.32088e-06
1.81891e-07
9.53439e-07
4.52316e-06
1.45243e-07
2.6403e-07
4.19105e-06
9.99748e-08
2.33557e-06
4.03717e-08
1.71269e-07
-9.78737e-07
3.15476e-08
5.87622e-07
-2.4851e-06
6.33662e-08
1.1493e-06
-3.54917e-06
8.03411e-08
1.77374e-06
-4.23208e-06
9.11117e-08
2.40728e-06
-4.61877e-06
9.87124e-08
3.02629e-06
-4.80865e-06
1.039e-07
3.62368e-06
-4.87182e-06
1.067e-07
4.19744e-06
-4.84497e-06
1.07215e-07
4.74577e-06
-4.74653e-06
1.05882e-07
5.26545e-06
-4.58661e-06
1.03321e-07
5.75139e-06
-4.37125e-06
1.00154e-07
6.19672e-06
-4.10456e-06
9.69484e-08
6.5933e-06
-3.79018e-06
9.42189e-08
6.93266e-06
-3.43232e-06
9.24628e-08
7.20702e-06
-3.03628e-06
9.21283e-08
7.41027e-06
-2.60855e-06
9.36088e-08
7.53857e-06
-2.1564e-06
9.7221e-08
7.59058e-06
-1.68721e-06
1.03199e-07
7.56732e-06
-1.20772e-06
1.11674e-07
7.4715e-06
-7.23386e-07
1.22654e-07
7.30673e-06
-2.37998e-07
1.35986e-07
7.07677e-06
2.46377e-07
1.51336e-07
6.78494e-06
7.29021e-07
1.68155e-07
6.43291e-06
1.20988e-06
1.85652e-07
6.02088e-06
1.68876e-06
2.02784e-07
5.5475e-06
2.16447e-06
2.18279e-07
5.01016e-06
2.63515e-06
2.30715e-07
4.40509e-06
3.10076e-06
2.38645e-07
3.72833e-06
3.56647e-06
2.4061e-07
2.98093e-06
4.04107e-06
2.34813e-07
2.18358e-06
4.51682e-06
2.1889e-07
1.39504e-06
4.91833e-06
1.91278e-07
6.93613e-07
5.07168e-06
1.53307e-07
1.82118e-07
4.59827e-06
1.05022e-07
2.47823e-06
4.0854e-08
1.56804e-07
-1.15747e-06
2.19085e-08
5.17333e-07
-2.89096e-06
4.53001e-08
9.86086e-07
-4.0779e-06
5.99475e-08
1.49539e-06
-4.81201e-06
7.05877e-08
2.00656e-06
-5.20783e-06
7.78631e-08
2.50619e-06
-5.38983e-06
8.15228e-08
2.99208e-06
-5.43929e-06
8.1548e-08
3.46377e-06
-5.39509e-06
7.83874e-08
3.91939e-06
-5.27493e-06
7.27354e-08
4.35491e-06
-5.08745e-06
6.5277e-08
4.76394e-06
-4.83697e-06
5.66328e-08
5.13808e-06
-4.52617e-06
4.74291e-08
5.46769e-06
-4.15815e-06
3.83062e-08
5.74327e-06
-3.73784e-06
2.99021e-08
5.9568e-06
-3.27269e-06
2.28352e-08
6.10288e-06
-2.77238e-06
1.77069e-08
6.17922e-06
-2.24787e-06
1.5087e-08
6.18661e-06
-1.71013e-06
1.54935e-08
6.12849e-06
-1.16896e-06
1.93273e-08
6.01015e-06
-6.31959e-07
2.68792e-08
5.83751e-06
-1.03741e-07
3.83554e-08
5.61766e-06
4.12368e-07
5.38342e-08
5.35588e-06
9.17672e-07
7.31101e-08
5.05591e-06
1.4143e-06
9.55346e-08
4.71901e-06
1.90567e-06
1.19967e-07
4.34323e-06
2.39542e-06
1.44799e-07
3.92294e-06
2.88735e-06
1.68069e-07
3.44938e-06
3.38668e-06
1.87611e-07
2.91379e-06
3.90103e-06
2.0102e-07
2.31564e-06
4.43385e-06
2.05389e-07
1.67746e-06
4.95769e-06
1.97407e-07
1.05485e-06
5.36597e-06
1.75158e-07
5.10442e-07
5.47644e-06
1.40032e-07
1.29209e-07
4.8872e-06
9.30194e-08
2.57587e-06
3.29198e-08
1.25964e-07
-1.29954e-06
1.60867e-08
4.16552e-07
-3.21775e-06
3.61865e-08
7.97044e-07
-4.50963e-06
5.12103e-08
1.21403e-06
-5.29211e-06
6.30934e-08
1.6369e-06
-5.70214e-06
7.14109e-08
2.05466e-06
-5.88337e-06
7.57524e-08
2.46476e-06
-5.92558e-06
7.61612e-08
2.86579e-06
-5.86925e-06
7.31065e-08
3.25502e-06
-5.73142e-06
6.72244e-08
3.62776e-06
-5.51932e-06
5.91e-08
3.97723e-06
-5.23564e-06
4.91657e-08
4.29503e-06
-4.88185e-06
3.78528e-08
4.572e-06
-4.46094e-06
2.57807e-08
4.79964e-06
-3.97921e-06
1.36959e-08
4.97145e-06
-3.44672e-06
2.18991e-09
5.08289e-06
-2.87654e-06
-7.32049e-09
5.13334e-06
-2.28321e-06
-1.5139e-08
5.12497e-06
-1.68121e-06
-2.05864e-08
5.06217e-06
-1.08324e-06
-2.2951e-08
4.95088e-06
-4.99054e-07
-2.16398e-08
4.79787e-06
6.53889e-08
-1.61449e-08
4.6098e-06
6.06398e-07
-5.97781e-09
4.39242e-06
1.12613e-06
8.90453e-09
4.14947e-06
1.62874e-06
2.84849e-08
3.88147e-06
2.12128e-06
5.23749e-08
3.58516e-06
2.61246e-06
7.92501e-08
3.25304e-06
3.11228e-06
1.07168e-07
2.87411e-06
3.63202e-06
1.33581e-07
2.43785e-06
4.18201e-06
1.55287e-07
1.94319e-06
4.76018e-06
1.6836e-07
1.41161e-06
5.32097e-06
1.68382e-07
8.91699e-07
5.73365e-06
1.52415e-07
4.35537e-07
5.81131e-06
1.21641e-07
1.15282e-07
5.12987e-06
7.82603e-08
2.6671e-06
2.53578e-08
1.0665e-07
-1.41788e-06
1.16648e-08
3.50903e-07
-3.4921e-06
3.00725e-08
6.71679e-07
-4.87631e-06
4.58796e-08
1.02598e-06
-5.70526e-06
5.8828e-08
1.38811e-06
-6.13221e-06
6.791e-08
1.74816e-06
-6.3162e-06
7.27632e-08
2.10317e-06
-6.35424e-06
7.36197e-08
2.45114e-06
-6.28829e-06
7.10509e-08
2.78894e-06
-6.13491e-06
6.56572e-08
3.11182e-06
-5.90011e-06
5.78874e-08
3.41341e-06
-5.58526e-06
4.79994e-08
3.68631e-06
-5.19106e-06
3.62687e-08
3.92297e-06
-4.72083e-06
2.32044e-08
4.11671e-06
-4.18239e-06
9.41708e-09
4.26235e-06
-3.58806e-06
-4.33731e-09
4.35682e-06
-2.95354e-06
-1.7506e-08
4.39909e-06
-2.29619e-06
-2.9321e-08
4.39061e-06
-1.63347e-06
-3.92893e-08
4.33513e-06
-9.80918e-07
-4.68687e-08
4.23815e-06
-3.50739e-07
-5.13602e-08
4.10679e-06
2.48761e-07
-5.20368e-08
3.94761e-06
8.13787e-07
-4.82342e-08
3.76729e-06
1.34581e-06
-3.93847e-08
3.56973e-06
1.85127e-06
-2.49866e-08
3.35469e-06
2.34083e-06
-4.52757e-09
3.11874e-06
2.82835e-06
2.00406e-08
2.85243e-06
3.33e-06
4.8572e-08
2.54292e-06
3.86293e-06
7.86042e-08
2.17811e-06
4.44037e-06
1.06451e-07
1.75537e-06
5.05574e-06
1.27207e-07
1.29262e-06
5.64846e-06
1.35341e-07
8.31207e-07
6.06866e-06
1.2657e-07
4.17825e-07
6.12353e-06
1.01497e-07
1.17848e-07
5.36713e-06
6.33849e-08
2.76754e-06
1.86846e-08
8.97275e-08
-1.51889e-06
1.12662e-08
3.02237e-07
-3.7356e-06
3.09784e-08
5.8735e-07
-5.20956e-06
4.81232e-08
9.06658e-07
-6.0866e-06
6.20085e-08
1.23586e-06
-6.53332e-06
7.18948e-08
1.56447e-06
-6.72254e-06
7.77109e-08
1.88857e-06
-6.75816e-06
7.98051e-08
2.20542e-06
-6.68391e-06
7.87428e-08
2.5116e-06
-6.51618e-06
7.50656e-08
2.80251e-06
-6.26017e-06
6.91157e-08
3.07255e-06
-5.91638e-06
6.10433e-08
3.3157e-06
-5.48523e-06
5.1e-08
3.52618e-06
-4.97065e-06
3.92975e-08
3.69917e-06
-4.38174e-06
2.63382e-08
3.83094e-06
-3.73252e-06
1.26462e-08
3.91852e-06
-3.04045e-06
-6.9653e-10
3.96234e-06
-2.32475e-06
-1.52891e-08
3.96217e-06
-1.60485e-06
-2.848e-08
3.92019e-06
-8.9861e-07
-4.03558e-08
3.84037e-06
-2.20653e-07
-5.02942e-08
3.72826e-06
4.1826e-07
-5.74259e-08
3.59039e-06
1.01246e-06
-6.08271e-08
3.43307e-06
1.56274e-06
-5.96266e-08
3.26076e-06
2.07662e-06
-5.30726e-08
3.07445e-06
2.56758e-06
-4.04567e-08
2.87016e-06
3.05389e-06
-2.12649e-08
2.63827e-06
3.5574e-06
4.47362e-09
2.36725e-06
4.10094e-06
3.30026e-08
2.04367e-06
4.7008e-06
6.31531e-08
1.66306e-06
5.34736e-06
8.90098e-08
1.23949e-06
5.96819e-06
1.03909e-07
8.0855e-07
6.39757e-06
1.0217e-07
4.14463e-07
6.4345e-06
8.34239e-08
1.20811e-07
5.60991e-06
5.14948e-08
2.87521e-06
1.43925e-08
8.24284e-08
-1.61238e-06
1.10391e-08
2.77813e-07
-3.96241e-06
3.1405e-08
5.4039e-07
-5.52137e-06
4.92122e-08
8.34788e-07
-6.44459e-06
6.35753e-08
1.13833e-06
-6.91073e-06
7.38529e-08
1.4411e-06
-7.1054e-06
8.00735e-08
1.73918e-06
-7.13898e-06
8.27132e-08
2.02972e-06
-7.05691e-06
8.24445e-08
2.30925e-06
-6.87559e-06
7.98473e-08
2.57341e-06
-6.59961e-06
7.52565e-08
2.81718e-06
-6.22898e-06
6.88027e-08
3.03551e-06
-5.76417e-06
6.05862e-08
3.22392e-06
-5.20986e-06
5.07785e-08
3.37894e-06
-4.57639e-06
3.95994e-08
3.49809e-06
-3.87904e-06
2.73363e-08
3.57976e-06
-3.13653e-06
1.43805e-08
3.62277e-06
-2.36936e-06
1.55974e-09
3.62846e-06
-1.59812e-06
-1.24527e-08
3.59779e-06
-8.42241e-07
-2.57285e-08
3.53357e-06
-1.18355e-07
-3.81003e-08
3.44016e-06
5.60495e-07
-4.88569e-08
3.323e-06
1.18666e-06
-5.70688e-08
3.18744e-06
1.75999e-06
-6.17229e-08
3.03742e-06
2.28847e-06
-6.18499e-08
2.87398e-06
2.78751e-06
-5.65195e-08
2.69376e-06
3.27882e-06
-4.47292e-08
2.48817e-06
3.78876e-06
-2.57924e-08
2.24324e-06
4.34496e-06
8.87819e-10
1.94867e-06
4.9667e-06
2.86603e-08
1.59761e-06
5.64206e-06
5.63665e-08
1.20107e-06
6.28891e-06
7.58796e-08
7.90756e-07
6.72776e-06
8.02491e-08
4.09507e-07
6.74824e-06
6.77799e-08
1.20751e-07
5.85716e-06
4.21023e-08
2.98562e-06
1.15439e-08
7.74324e-08
-1.70194e-06
1.21107e-08
2.6377e-07
-4.1828e-06
3.40364e-08
5.15123e-07
-5.82535e-06
5.26129e-08
7.9657e-07
-6.79328e-06
6.7234e-08
1.086e-06
-7.27784e-06
7.76602e-08
1.37383e-06
-7.47742e-06
8.41726e-08
1.6561e-06
-7.5086e-06
8.7335e-08
1.92987e-06
-7.41853e-06
8.78275e-08
2.19167e-06
-7.22364e-06
8.62195e-08
2.43736e-06
-6.92818e-06
8.28548e-08
2.66242e-06
-6.53193e-06
7.78641e-08
2.86261e-06
-6.0357e-06
7.13144e-08
3.03448e-06
-5.44506e-06
6.32957e-08
3.1756e-06
-4.77145e-06
5.39068e-08
3.28444e-06
-4.03118e-06
4.32771e-08
3.36006e-06
-3.24378e-06
3.1593e-08
3.40195e-06
-2.43041e-06
1.91338e-08
3.40995e-06
-1.61251e-06
6.36036e-09
3.38507e-06
-8.10422e-07
-6.96851e-09
3.32961e-06
-4.24055e-08
-2.05263e-08
3.24674e-06
6.76585e-07
-3.32441e-08
3.14101e-06
1.33676e-06
-4.44047e-08
3.0171e-06
1.93691e-06
-5.30402e-08
2.87858e-06
2.48508e-06
-5.81222e-08
2.72655e-06
2.99815e-06
-5.86409e-08
2.55825e-06
3.50052e-06
-5.3445e-08
2.36615e-06
4.02218e-06
-4.13472e-08
2.13828e-06
4.59452e-06
-2.1725e-08
1.86133e-06
5.23915e-06
4.47642e-09
1.53067e-06
5.9421e-06
3.06154e-08
1.15486e-06
6.61258e-06
5.21501e-08
7.62762e-07
7.05892e-06
6.10151e-08
3.95583e-07
7.06153e-06
5.41148e-08
1.16432e-07
6.1026e-06
3.42724e-08
3.09383e-06
9.39513e-09
7.55589e-08
-1.79072e-06
1.32006e-08
2.55612e-07
-4.39904e-06
3.61685e-08
4.96507e-07
-6.1213e-06
5.50383e-08
7.64167e-07
-7.13061e-06
6.96464e-08
1.03776e-06
-7.63146e-06
8.00114e-08
1.30866e-06
-7.83486e-06
8.65258e-08
1.57335e-06
-7.86315e-06
8.98383e-08
1.82901e-06
-7.76491e-06
9.06925e-08
2.07231e-06
-7.55665e-06
8.96831e-08
2.29931e-06
-7.24237e-06
8.7168e-08
2.5059e-06
-6.82185e-06
8.32977e-08
2.68846e-06
-6.29643e-06
7.81383e-08
2.84435e-06
-5.67271e-06
7.17431e-08
2.97195e-06
-4.96322e-06
6.41464e-08
3.07051e-06
-4.18514e-06
5.53763e-08
3.13976e-06
-3.35853e-06
4.54812e-08
3.17965e-06
-2.5049e-06
3.45639e-08
3.19025e-06
-1.64594e-06
2.28027e-08
3.17189e-06
-8.02539e-07
1.04492e-08
3.12547e-06
6.08069e-09
-2.10413e-09
3.05438e-06
7.6332e-07
-1.56737e-08
2.96159e-06
1.45773e-06
-2.82113e-08
2.85066e-06
2.08695e-06
-3.91355e-08
2.72434e-06
2.65882e-06
-4.74648e-08
2.58343e-06
3.19124e-06
-5.22059e-08
2.42547e-06
3.71065e-06
-5.22041e-08
2.24388e-06
4.24981e-06
-4.60784e-08
2.02811e-06
4.84294e-06
-3.26756e-08
1.76623e-06
5.51299e-06
-1.20015e-08
1.45262e-06
6.24356e-06
1.21265e-08
1.09634e-06
6.93556e-06
3.32952e-08
7.23941e-07
7.38658e-06
4.47982e-08
3.74409e-07
7.36894e-06
4.23304e-08
1.09365e-07
6.3406e-06
2.75764e-08
3.19673e-06
7.60505e-09
7.34927e-08
-1.87855e-06
1.43226e-08
2.48679e-07
-4.61246e-06
3.82278e-08
4.81969e-07
-6.41185e-06
5.72491e-08
7.39517e-07
-7.45984e-06
7.16685e-08
1.00133e-06
-7.9751e-06
8.18157e-08
1.2595e-06
-8.1813e-06
8.82507e-08
1.51076e-06
-8.2061e-06
9.16746e-08
1.75237e-06
-8.09937e-06
9.28307e-08
1.98107e-06
-7.87768e-06
9.23023e-08
2.19314e-06
-7.54491e-06
9.04483e-08
2.38486e-06
-7.10103e-06
8.74349e-08
2.5532e-06
-6.54813e-06
8.33347e-08
2.69614e-06
-5.89386e-06
7.81858e-08
2.8127e-06
-5.15181e-06
7.19908e-08
2.90267e-06
-4.33986e-06
6.47259e-08
2.96617e-06
-3.47843e-06
5.63661e-08
3.00342e-06
-2.5891e-06
4.69169e-08
3.01458e-06
-1.69357e-06
3.64404e-08
2.99988e-06
-8.12917e-07
2.50446e-08
2.96001e-06
3.29816e-08
1.29411e-08
2.89618e-06
8.26279e-07
8.4625e-10
2.81206e-06
1.55418e-06
-1.23647e-08
2.70997e-06
2.21331e-06
-2.43022e-08
2.5919e-06
2.8113e-06
-3.44491e-08
2.45824e-06
3.36678e-06
-4.19135e-08
2.30664e-06
3.90782e-06
-4.5611e-08
2.13127e-06
4.4693e-06
-4.41608e-08
1.92294e-06
5.08738e-06
-3.6158e-08
1.67155e-06
5.78536e-06
-2.10285e-08
1.37108e-06
6.5436e-06
3.67877e-10
1.03275e-06
7.25489e-06
1.89543e-08
6.805e-07
7.70744e-06
3.14123e-08
3.50445e-07
7.66701e-06
3.21449e-08
1.01574e-07
6.56829e-06
2.16657e-08
3.2934e-06
6.00423e-09
7.21838e-08
-1.96621e-06
1.54521e-08
2.42399e-07
-4.82287e-06
4.01788e-08
4.67004e-07
-6.69571e-06
5.92364e-08
7.12833e-07
-7.77908e-06
7.34037e-08
9.61112e-07
-8.30667e-06
8.32715e-08
1.20487e-06
-8.51459e-06
8.95153e-08
1.44126e-06
-8.53541e-06
9.28986e-08
1.6677e-06
-8.42003e-06
9.41958e-08
1.88109e-06
-8.1851e-06
9.39959e-08
2.07794e-06
-7.83445e-06
9.2663e-08
2.25494e-06
-7.36843e-06
9.03745e-08
2.40957e-06
-6.79e-06
8.72091e-08
2.54041e-06
-6.10793e-06
8.31945e-08
2.64704e-06
-5.33677e-06
7.83065e-08
2.7297e-06
-4.49502e-06
7.24768e-08
2.78888e-06
-3.60325e-06
6.56143e-08
2.82499e-06
-2.68287e-06
5.76387e-08
2.83822e-06
-1.75534e-06
4.85135e-08
2.82861e-06
-8.41585e-07
3.82557e-08
2.79633e-06
3.82554e-08
2.69807e-08
2.74229e-06
8.65315e-07
1.49681e-08
2.66791e-06
1.62572e-06
2.81795e-09
2.57548e-06
2.31522e-06
-9.51372e-09
2.46619e-06
2.94123e-06
-2.06816e-08
2.33995e-06
3.52288e-06
-2.98913e-08
2.19437e-06
4.08951e-06
-3.61662e-08
2.02423e-06
4.67762e-06
-3.82242e-08
1.82165e-06
5.32452e-06
-3.46186e-08
1.57842e-06
6.05292e-06
-2.44069e-08
1.29123e-06
6.83908e-06
-8.36365e-09
9.6958e-07
7.56764e-06
8.832e-09
6.37158e-07
8.01893e-06
2.09177e-08
3.26848e-07
7.95377e-06
2.36871e-08
9.41821e-08
6.78479e-06
1.66238e-08
3.38402e-06
4.6329e-09
7.00875e-08
-2.0526e-06
1.62867e-08
2.34921e-07
-5.02914e-06
4.14172e-08
4.51288e-07
-6.97233e-06
6.02473e-08
6.86695e-07
-8.0885e-06
7.39935e-08
9.23336e-07
-8.62682e-06
8.34963e-08
1.15489e-06
-8.8357e-06
8.95387e-08
1.37875e-06
-8.85219e-06
9.29052e-08
1.59243e-06
-8.72809e-06
9.43564e-08
1.79295e-06
-8.4801e-06
9.44632e-08
1.97705e-06
-8.11217e-06
9.35874e-08
2.14182e-06
-7.62514e-06
9.19161e-08
2.28521e-06
-7.02294e-06
8.95333e-08
2.40625e-06
-6.31547e-06
8.64683e-08
2.50496e-06
-5.51819e-06
8.26896e-08
2.5819e-06
-4.6501e-06
7.81102e-08
2.63781e-06
-3.73179e-06
7.26044e-08
2.67323e-06
-2.78435e-06
6.60356e-08
2.68832e-06
-1.82875e-06
5.8291e-08
2.68294e-06
-8.85531e-07
4.93052e-08
2.65689e-06
2.51636e-08
3.91097e-08
2.61039e-06
8.83903e-07
2.78931e-08
2.54424e-06
1.67581e-06
1.60287e-08
2.45946e-06
2.39584e-06
4.1326e-09
2.35694e-06
3.05116e-06
-7.43889e-09
2.23623e-06
3.66128e-06
-1.77249e-08
2.0949e-06
4.25654e-06
-2.57505e-08
1.92821e-06
4.87462e-06
-3.03771e-08
1.7295e-06
5.55339e-06
-3.02207e-08
1.49244e-06
6.31407e-06
-2.4167e-08
1.21578e-06
7.12813e-06
-1.24735e-08
9.09157e-07
7.872e-06
2.16578e-09
5.95481e-07
8.31963e-06
1.29292e-08
3.04262e-07
8.22829e-06
1.67924e-08
8.7246e-08
6.98986e-06
1.23733e-08
3.46883e-06
3.47225e-09
6.8488e-08
-2.13825e-06
1.71419e-08
2.2832e-07
-5.23171e-06
4.2728e-08
4.36621e-07
-7.24202e-06
6.13693e-08
6.61628e-07
-8.38823e-06
7.4713e-08
8.86595e-07
-8.93564e-06
8.38343e-08
1.10594e-06
-9.14468e-06
8.96173e-08
1.31736e-06
-9.15652e-06
9.28879e-08
1.5185e-06
-9.02367e-06
9.44131e-08
1.70653e-06
-8.76292e-06
9.47554e-08
1.87846e-06
-8.3784e-06
9.42743e-08
2.03174e-06
-7.87161e-06
9.31628e-08
2.16473e-06
-7.24747e-06
9.15063e-08
2.27692e-06
-6.51701e-06
8.93258e-08
2.36869e-06
-5.69657e-06
8.65784e-08
2.44095e-06
-4.80554e-06
8.31574e-08
2.49467e-06
-3.86444e-06
7.89058e-08
2.53051e-06
-2.89386e-06
7.36416e-08
2.54859e-06
-1.91405e-06
6.71921e-08
2.54853e-06
-9.44926e-07
5.94248e-08
2.52966e-06
-6.28935e-09
5.02996e-08
2.49149e-06
8.82117e-07
3.99311e-08
2.434e-06
1.70465e-06
2.86178e-08
2.3575e-06
2.45548e-06
1.6832e-08
2.26203e-06
3.14139e-06
5.20708e-09
2.14678e-06
3.78214e-06
-5.66292e-09
2.00942e-06
4.40879e-06
-1.49356e-08
1.84563e-06
5.05983e-06
-2.14745e-08
1.64988e-06
5.77307e-06
-2.40206e-08
1.41761e-06
6.56765e-06
-2.14172e-08
1.14958e-06
7.40959e-06
-1.35471e-08
8.56487e-07
8.16716e-06
-2.18343e-09
5.59425e-07
8.60938e-06
7.23593e-09
2.85185e-07
8.49114e-06
1.14648e-08
8.16631e-08
7.18478e-06
8.99636e-09
3.54891e-06
2.57905e-09
6.64179e-08
-2.2224e-06
1.77125e-08
2.20949e-07
-5.42956e-06
4.32988e-08
4.21358e-07
-7.50389e-06
6.14403e-08
6.36688e-07
-8.67778e-06
7.42037e-08
8.51119e-07
-9.23297e-06
8.28789e-08
1.05962e-06
-9.44161e-06
8.84136e-08
1.26006e-06
-9.44861e-06
9.16266e-08
1.45021e-06
-9.3071e-06
9.32565e-08
1.62738e-06
-9.03396e-06
9.3842e-08
1.78883e-06
-8.63362e-06
9.37358e-08
1.93232e-06
-8.10826e-06
9.31373e-08
2.05656e-06
-7.46387e-06
9.21376e-08
2.16135e-06
-6.71259e-06
9.07601e-08
2.24738e-06
-5.87158e-06
8.89609e-08
2.31579e-06
-4.9606e-06
8.66265e-08
2.36775e-06
-4.00001e-06
8.35835e-08
2.40404e-06
-3.00978e-06
7.96176e-08
2.42477e-06
-2.00931e-06
7.45028e-08
2.42938e-06
-1.0176e-06
6.80377e-08
2.41681e-06
-5.38419e-08
6.01013e-08
2.38593e-06
8.62252e-07
5.07228e-08
2.33598e-06
1.71445e-06
4.01258e-08
2.26654e-06
2.49616e-06
2.87224e-08
2.17713e-06
3.2137e-06
1.70658e-08
2.06655e-06
3.88686e-06
5.81931e-09
1.93237e-06
4.54717e-06
-4.25811e-09
1.77081e-06
5.23356e-06
-1.2242e-08
1.57735e-06
5.98335e-06
-1.69077e-08
1.34907e-06
6.81294e-06
-1.71276e-08
1.08857e-06
7.6825e-06
-1.25466e-08
8.07765e-07
8.45229e-06
-4.47572e-09
5.25853e-07
8.88775e-06
3.45043e-09
2.673e-07
8.7422e-06
7.53258e-09
7.63605e-08
7.36965e-06
6.43686e-09
3.6243e-06
1.94428e-09
6.47625e-08
-2.30544e-06
1.82622e-08
2.14709e-07
-5.6234e-06
4.38805e-08
4.08126e-07
-7.75889e-06
6.15695e-08
6.14721e-07
-8.95818e-06
7.37806e-08
8.19541e-07
-9.51981e-06
8.20035e-08
1.0181e-06
-9.72745e-06
8.72557e-08
1.20849e-06
-9.72939e-06
9.03667e-08
1.38858e-06
-9.57927e-06
9.20579e-08
1.55584e-06
-9.2941e-06
9.28473e-08
1.70776e-06
-8.87865e-06
9.30789e-08
1.84237e-06
-8.33586e-06
9.2952e-08
1.95871e-06
-7.67279e-06
9.25578e-08
2.05685e-06
-6.90268e-06
9.1917e-08
2.13777e-06
-6.0435e-06
9.0982e-08
2.20286e-06
-5.11535e-06
8.96342e-08
2.25353e-06
-4.13839e-06
8.76889e-08
2.29068e-06
-3.13187e-06
8.49102e-08
2.31447e-06
-2.11416e-06
8.10365e-08
2.32416e-06
-1.10312e-06
7.5813e-08
2.31828e-06
-1.17028e-07
6.90486e-08
2.29503e-06
8.24787e-07
6.06893e-08
2.25286e-06
1.70572e-06
5.08791e-08
2.19059e-06
2.51844e-06
3.9968e-08
2.10711e-06
3.26868e-06
2.84658e-08
2.00092e-06
3.97601e-06
1.69908e-08
1.86961e-06
4.67216e-06
6.26635e-09
1.70978e-06
5.39614e-06
-2.82071e-09
1.51792e-06
6.1843e-06
-9.18838e-09
1.29263e-06
7.04985e-06
-1.17417e-08
1.03817e-06
7.94677e-06
-9.97713e-09
7.67465e-07
8.72761e-06
-4.77841e-09
4.98365e-07
9.1554e-06
1.31651e-09
2.53035e-07
8.98263e-06
4.91435e-09
7.2353e-08
7.54596e-06
4.70143e-09
3.69601e-06
1.58683e-09
6.30966e-08
-2.38711e-06
1.8553e-08
2.08641e-07
-5.81274e-06
4.37823e-08
3.95453e-07
-8.00645e-06
6.07263e-08
5.93936e-07
-9.22891e-06
7.22229e-08
7.8994e-07
-9.79577e-06
7.99397e-08
9.79446e-07
-1.00019e-05
8.49171e-08
1.16071e-06
-9.99863e-06
8.79506e-08
1.33173e-06
-9.84003e-06
8.97207e-08
1.49012e-06
-9.54324e-06
9.07162e-08
1.63357e-06
-9.1134e-06
9.12712e-08
1.76034e-06
-8.55425e-06
9.15869e-08
1.86968e-06
-7.87392e-06
9.17582e-08
1.96189e-06
-7.08673e-06
9.18083e-08
2.03814e-06
-6.21147e-06
9.16928e-08
2.10004e-06
-5.26858e-06
9.12941e-08
2.14921e-06
-4.27799e-06
9.0423e-08
2.18672e-06
-3.25824e-06
8.88278e-08
2.21281e-06
-2.22649e-06
8.62148e-08
2.22668e-06
-1.19929e-06
8.22788e-08
2.22657e-06
-1.93689e-07
7.67576e-08
2.21011e-06
7.71708e-07
6.95112e-08
2.17502e-06
1.68019e-06
6.05983e-08
2.11937e-06
2.52377e-06
5.03017e-08
2.04147e-06
3.30745e-06
3.90887e-08
1.93946e-06
4.05043e-06
2.75502e-08
1.81091e-06
4.78427e-06
1.63777e-08
1.65285e-06
5.54771e-06
6.39608e-09
1.46269e-06
6.37573e-06
-1.37904e-09
1.24027e-06
7.2779e-06
-5.77991e-09
9.91391e-07
8.20186e-06
-6.38495e-09
7.29815e-07
8.99271e-06
-3.71627e-09
4.72446e-07
9.4122e-06
4.20093e-10
2.39307e-07
9.21237e-06
3.37876e-09
6.83234e-08
7.71357e-06
3.67926e-09
3.76376e-06
1.48504e-09
6.16353e-08
-2.46753e-06
1.87683e-08
2.03383e-07
-5.99809e-06
4.3576e-08
3.84578e-07
-8.24746e-06
5.97925e-08
5.7612e-07
-9.49106e-06
7.05936e-08
7.64516e-07
-1.0062e-05
7.78043e-08
9.4616e-07
-1.02661e-05
8.24914e-08
1.11948e-06
-1.02574e-05
8.54266e-08
1.28258e-06
-1.00904e-05
8.72535e-08
1.43322e-06
-9.78235e-06
8.84323e-08
1.56925e-06
-9.33875e-06
8.92836e-08
1.68911e-06
-8.76415e-06
9.00059e-08
1.79224e-06
-8.06777e-06
9.06937e-08
1.87914e-06
-7.26503e-06
9.13689e-08
1.95119e-06
-6.37553e-06
9.1989e-08
2.01023e-06
-5.42008e-06
9.24399e-08
2.05809e-06
-4.41841e-06
9.25344e-08
2.09604e-06
-3.38823e-06
9.2017e-08
2.12445e-06
-2.34549e-06
9.05769e-08
2.14244e-06
-1.30518e-06
8.78724e-08
2.14799e-06
-2.82834e-07
8.35808e-08
2.13818e-06
7.04026e-07
7.74772e-08
2.10995e-06
1.63887e-06
6.95275e-08
2.06066e-06
2.5131e-06
5.99358e-08
1.988e-06
3.33096e-06
4.9117e-08
1.88977e-06
4.11097e-06
3.76328e-08
1.76354e-06
4.88428e-06
2.6153e-08
1.60675e-06
5.68894e-06
1.54735e-08
1.41767e-06
6.55815e-06
6.53603e-09
1.19774e-06
7.49751e-06
1.51301e-10
9.53435e-07
8.44814e-06
-2.17951e-09
6.99406e-07
9.24812e-06
-1.60174e-09
4.51835e-07
9.65893e-06
6.61096e-10
2.28744e-07
9.4325e-06
2.92043e-09
6.54465e-08
7.87372e-06
3.42069e-09
3.82838e-06
1.70777e-09
6.05591e-08
-2.54685e-06
1.87342e-08
1.99146e-07
-6.17945e-06
4.27521e-08
3.75375e-07
-8.4817e-06
5.79971e-08
5.60643e-07
-9.74433e-06
6.7971e-08
7.42081e-07
-1.03181e-05
7.46296e-08
9.16467e-07
-1.05195e-05
7.90228e-08
1.08245e-06
-1.05053e-05
8.18653e-08
1.23828e-06
-1.033e-05
8.37498e-08
1.38184e-06
-1.0011e-05
8.51037e-08
1.51107e-06
-9.55425e-06
8.6234e-08
1.62456e-06
-8.96502e-06
8.73384e-08
1.72187e-06
-8.25363e-06
8.85131e-08
1.80366e-06
-7.43662e-06
8.97822e-08
1.87144e-06
-6.53446e-06
9.11067e-08
1.92728e-06
-5.56832e-06
9.23777e-08
1.9732e-06
-4.55777e-06
9.34125e-08
2.01074e-06
-3.51975e-06
9.39548e-08
2.04043e-06
-2.46888e-06
9.3682e-08
2.06149e-06
-1.41847e-06
9.22229e-08
2.07173e-06
-3.82281e-07
8.91998e-08
2.06777e-06
6.23664e-07
8.43056e-08
2.04586e-06
1.58334e-06
7.74094e-08
2.00262e-06
2.4877e-06
6.86283e-08
1.9351e-06
3.34012e-06
5.8317e-08
1.84073e-06
4.15829e-06
4.70058e-08
1.71701e-06
4.97257e-06
3.53494e-08
1.56175e-06
5.81998e-06
2.41266e-08
1.374e-06
6.7315e-06
1.42602e-08
1.15612e-06
7.70847e-06
6.73188e-09
9.16386e-07
8.68537e-06
2.2772e-09
6.69639e-07
9.4937e-06
9.20141e-10
4.31154e-07
9.89552e-06
1.67613e-09
2.17695e-07
9.64287e-06
3.01207e-09
6.21836e-08
8.02603e-06
3.43898e-09
3.88945e-06
1.95671e-09
5.95097e-08
-2.62498e-06
1.85957e-08
1.95285e-07
-6.357e-06
4.17535e-08
3.67296e-07
-8.70976e-06
5.60202e-08
5.47312e-07
-9.98954e-06
6.51766e-08
7.22916e-07
-1.0565e-05
7.12878e-08
8.91217e-07
-1.07632e-05
7.53842e-08
1.05102e-06
-1.07432e-05
7.81253e-08
1.20069e-06
-1.05598e-05
8.00541e-08
1.33822e-06
-1.02302e-05
8.15647e-08
1.46162e-06
-9.76064e-06
8.29484e-08
1.56958e-06
-9.1574e-06
8.43991e-08
1.66178e-06
-8.43187e-06
8.60123e-08
1.73902e-06
-7.6017e-06
8.78113e-08
1.80298e-06
-6.68821e-06
8.97606e-08
1.85588e-06
-5.71301e-06
9.17583e-08
1.89997e-06
-4.69551e-06
9.36315e-08
1.937e-06
-3.65194e-06
9.51322e-08
1.96772e-06
-2.59555e-06
9.59382e-08
1.99143e-06
-1.53786e-06
9.56616e-08
2.00585e-06
-4.90599e-07
9.38813e-08
2.00722e-06
5.32066e-07
9.02141e-08
1.99113e-06
1.51499e-06
8.44283e-08
1.95344e-06
2.44882e-06
7.65418e-08
1.89061e-06
3.33608e-06
6.68352e-08
1.79965e-06
4.1934e-06
5.57988e-08
1.67802e-06
5.05005e-06
4.40717e-08
1.52387e-06
5.94159e-06
3.24251e-08
1.337e-06
6.89644e-06
2.17715e-08
1.12083e-06
7.91134e-06
1.30962e-08
8.84677e-07
8.91408e-06
7.19715e-09
6.43928e-07
9.72998e-06
4.19465e-09
4.13306e-07
1.01226e-05
3.34531e-09
2.08272e-07
9.84414e-06
3.65531e-09
5.94824e-08
8.17124e-06
3.79372e-09
3.94747e-06
2.28962e-09
5.89928e-08
-2.70221e-06
1.82256e-08
1.92654e-07
-6.53089e-06
4.02085e-08
3.61012e-07
-8.93144e-06
5.32988e-08
5.36298e-07
-1.02264e-05
6.15353e-08
7.06642e-07
-1.08024e-05
6.70642e-08
8.69549e-07
-1.0997e-05
7.08564e-08
1.02382e-06
-1.0971e-05
7.34905e-08
1.16782e-06
-1.07793e-05
7.54521e-08
1.29968e-06
-1.04392e-05
7.71029e-08
1.41751e-06
-9.95723e-06
7.87195e-08
1.52009e-06
-9.3405e-06
8.04935e-08
1.6072e-06
-8.60154e-06
8.25209e-08
1.67975e-06
-7.75911e-06
8.48248e-08
1.73954e-06
-6.8354e-06
8.73722e-08
1.78892e-06
-5.85248e-06
9.00674e-08
1.83035e-06
-4.82971e-06
9.27466e-08
1.86584e-06
-3.78262e-06
9.51718e-08
1.89641e-06
-2.72316e-06
9.70255e-08
1.92159e-06
-1.66097e-06
9.79117e-08
1.93913e-06
-6.05522e-07
9.73766e-08
1.94499e-06
4.31226e-07
9.49699e-08
1.93418e-06
1.43542e-06
9.03617e-08
1.90184e-06
2.39768e-06
8.34636e-08
1.84374e-06
3.31968e-06
7.4471e-08
1.75642e-06
4.21685e-06
6.38235e-08
1.63723e-06
5.11702e-06
5.21413e-08
1.4846e-06
6.0539e-06
4.0193e-08
1.29906e-06
7.05293e-06
2.88924e-08
1.085e-06
8.10593e-06
1.92355e-08
8.52693e-07
9.13404e-06
1.20721e-08
6.17954e-07
9.95678e-06
7.63569e-09
3.94954e-07
1.03399e-05
5.39013e-09
1.98215e-07
1.00361e-05
4.67106e-09
5.63928e-08
8.30888e-06
4.36719e-09
4.00199e-06
2.65711e-09
5.82533e-08
-2.77824e-06
1.7748e-08
1.89764e-07
-6.70089e-06
3.84731e-08
3.54776e-07
-9.14684e-06