/*--------------------------------*- C++ -*----------------------------------*\
| =========                 |                                                 |
| \\      /  F ield         | OpenFOAM: The Open Source CFD Toolbox           |
|  \\    /   O peration     | Version:  v2006                                 |
|   \\  /    A nd           | Website:  www.openfoam.com                      |
|    \\/     M anipulation  |                                                 |
\*---------------------------------------------------------------------------*/
FoamFile
{
    version     2.0;
    format      ascii;
    class       volVectorField;
    location    "90";
    object      U;
}
// * * * * * * * * * * * * * * * * * * * * * * * * * * * * * * * * * * * * * //

dimensions      [0 1 -1 0 0 0 0];


internalField   nonuniform List<vector> 
78750
(
(0.000109025 -0.00120676 0.000350506)
(0.000689867 -0.00282289 0.000878628)
(0.00169666 -0.00382587 0.00138608)
(0.00296853 -0.00440703 0.00189744)
(0.00439704 -0.00471442 0.00239206)
(0.00591661 -0.0048488 0.00284652)
(0.0074822 -0.00487097 0.00324678)
(0.00905774 -0.00481322 0.00358807)
(0.0106127 -0.00469032 0.00387169)
(0.0121204 -0.00450794 0.00410198)
(0.0135569 -0.00426807 0.00428431)
(0.0149001 -0.00397186 0.00442406)
(0.01613 -0.00362127 0.004526)
(0.0172292 -0.00321979 0.00459389)
(0.0181819 -0.00276865 0.00463102)
(0.0189749 -0.00226856 0.00464052)
(0.0195975 -0.00172591 0.00462484)
(0.02004 -0.00114876 0.00458611)
(0.0202948 -0.000545949 0.00452632)
(0.0203565 7.33182e-05 0.00444756)
(0.0202242 0.000699083 0.00435207)
(0.0198954 0.00132086 0.00424131)
(0.0193688 0.00192859 0.00411791)
(0.0186496 0.00251172 0.00398485)
(0.0177468 0.00305844 0.00384566)
(0.0166726 0.0035549 0.00370492)
(0.0154416 0.00398014 0.00356738)
(0.0140738 0.00430816 0.00343924)
(0.012593 0.00452281 0.00332918)
(0.0110204 0.00464868 0.00324198)
(0.00935757 0.00482835 0.0031583)
(0.00754075 0.00539588 0.00299498)
(0.00542 0.0066542 0.00258604)
(0.00299886 0.00788544 0.00178099)
(0.000734317 0.00586564 0.000641092)
(9.10304e-06 -0.00337905 0.000880398)
(0.000458356 -0.00842909 0.00221182)
(0.00129029 -0.0119912 0.00316923)
(0.00243175 -0.0145075 0.00385443)
(0.00380393 -0.0162753 0.00434941)
(0.00533916 -0.0174639 0.00471384)
(0.00697299 -0.01817 0.00498863)
(0.00865148 -0.0184585 0.00520178)
(0.0103312 -0.0183791 0.00537221)
(0.0119757 -0.0179724 0.00551228)
(0.0135535 -0.0172728 0.00562983)
(0.015038 -0.0163109 0.00572955)
(0.016407 -0.0151161 0.00581286)
(0.017637 -0.0137241 0.005874)
(0.0187081 -0.0121728 0.0059062)
(0.0196151 -0.010482 0.00591533)
(0.0203477 -0.00866402 0.00590933)
(0.0208917 -0.00674021 0.00588932)
(0.021239 -0.00473253 0.00585603)
(0.0213829 -0.00266331 0.0058096)
(0.0213182 -0.000555478 0.00574996)
(0.0210425 0.00156731 0.00567651)
(0.0205548 0.00367978 0.00558872)
(0.0198525 0.00575495 0.00548581)
(0.0189348 0.00776135 0.00536689)
(0.0178093 0.00965667 0.00522919)
(0.0164877 0.0114047 0.00507619)
(0.0149659 0.0129932 0.00492354)
(0.0132458 0.0144294 0.00478524)
(0.0113418 0.0157949 0.0046638)
(0.00925066 0.0173652 0.00453743)
(0.00694364 0.0196191 0.00431618)
(0.00448271 0.0225418 0.00380461)
(0.00213165 0.0237595 0.0027779)
(0.000279719 0.0158339 0.00112214)
(2.18673e-05 -0.00510071 0.00101316)
(0.000503458 -0.0133832 0.00242625)
(0.00137581 -0.0197606 0.00333046)
(0.00254745 -0.0244673 0.00389773)
(0.00389998 -0.027739 0.00425329)
(0.00534659 -0.0298501 0.00448405)
(0.00682876 -0.0310344 0.00464507)
(0.00830433 -0.0314623 0.00476773)
(0.00974189 -0.0312559 0.00486848)
(0.0111181 -0.0305075 0.0049552)
(0.0124149 -0.0292899 0.00503107)
(0.013617 -0.0276633 0.00509699)
(0.0147113 -0.025679 0.00515314)
(0.0156858 -0.0233834 0.00519948)
(0.0165289 -0.020823 0.00523468)
(0.0172288 -0.0180456 0.00525593)
(0.0177773 -0.0150853 0.00526478)
(0.0181692 -0.0119643 0.00526697)
(0.0183976 -0.00870793 0.00526582)
(0.018457 -0.00534695 0.00526191)
(0.0183427 -0.00191884 0.00525282)
(0.0180534 0.00154416 0.0052378)
(0.0175876 0.00501735 0.00521836)
(0.0169424 0.00847052 0.00519346)
(0.0161148 0.0118679 0.00516054)
(0.0151035 0.0151689 0.00511653)
(0.0139096 0.0183333 0.00506019)
(0.0125373 0.0213316 0.00499359)
(0.0109936 0.0241729 0.00492076)
(0.00928397 0.0269689 0.00484161)
(0.00739765 0.0299844 0.00473028)
(0.00532819 0.0334179 0.00449218)
(0.00327904 0.0364173 0.0039537)
(0.00143827 0.0356429 0.00289009)
(0.00013488 0.0216053 0.00114762)
(3.50117e-05 -0.00734771 0.00105024)
(0.000590194 -0.0191707 0.00233611)
(0.00151604 -0.0280649 0.00304853)
(0.00268221 -0.0342921 0.00344434)
(0.00394309 -0.0382512 0.00367174)
(0.00521356 -0.0405076 0.00381191)
(0.00645868 -0.0415397 0.00390807)
(0.00766016 -0.0416541 0.0039807)
(0.00880376 -0.0410368 0.00403798)
(0.0098798 -0.0398089 0.00408246)
(0.0108811 -0.0380558 0.00411458)
(0.0118001 -0.0358422 0.0041344)
(0.0126284 -0.0332205 0.00414254)
(0.0133566 -0.0302365 0.00414072)
(0.013975 -0.0269329 0.00413193)
(0.014474 -0.0233517 0.0041201)
(0.0148455 -0.0195353 0.00410963)
(0.0150834 -0.0155247 0.00410561)
(0.0151845 -0.0113574 0.00411376)
(0.0151476 -0.00706731 0.00413942)
(0.0149719 -0.00268491 0.00418659)
(0.0146575 0.00176236 0.00425714)
(0.0142044 0.00624699 0.00434996)
(0.0136118 0.0107376 0.0044598)
(0.0128782 0.0151946 0.00457684)
(0.012002 0.0195679 0.00468742)
(0.0109836 0.0238036 0.00477674)
(0.00982642 0.0278682 0.00483308)
(0.00853535 0.0317942 0.0048499)
(0.00711031 0.0357246 0.00481939)
(0.00554028 0.0398492 0.00470985)
(0.00385201 0.0439569 0.00443543)
(0.00228325 0.0465319 0.00387434)
(0.000931316 0.0437965 0.00283521)
(4.70121e-05 0.0250015 0.00112346)
(4.25219e-05 -0.00977451 0.000868318)
(0.000570387 -0.0250791 0.00183125)
(0.00140169 -0.0361075 0.00230652)
(0.00240886 -0.0433622 0.0025468)
(0.00345872 -0.0476018 0.00267196)
(0.00448946 -0.0497713 0.00273728)
(0.00549077 -0.0505727 0.00276971)
(0.00645961 -0.0503952 0.00278024)
(0.00738938 -0.0494457 0.00277216)
(0.00827445 -0.0478442 0.00274595)
(0.00910831 -0.0456665 0.00270169)
(0.00988136 -0.0429659 0.00264004)
(0.0105811 -0.0397863 0.00256299)
(0.0111935 -0.0361717 0.00247434)
(0.0117048 -0.0321711 0.00237989)
(0.012103 -0.0278407 0.00228753)
(0.0123796 -0.0232411 0.00220703)
(0.0125303 -0.0184343 0.0021498)
(0.0125548 -0.0134776 0.0021283)
(0.0124565 -0.00841916 0.00215515)
(0.0122407 -0.00329514 0.00224196)
(0.0119141 0.00187036 0.00239763)
(0.0114827 0.00706129 0.00262614)
(0.0109508 0.0122625 0.0029237)
(0.01032 0.0174505 0.00327594)
(0.00958898 0.0225868 0.00365648)
(0.00875446 0.0276242 0.00402933)
(0.00781239 0.0325381 0.00435627)
(0.00675798 0.0373753 0.00460421)
(0.0055832 0.0422627 0.00474202)
(0.00428138 0.0472311 0.00472187)
(0.00291822 0.0516498 0.00446706)
(0.00169254 0.0536716 0.00389736)
(0.000657154 0.0492286 0.00285242)
(2.63175e-05 0.0269777 0.00111511)
(4.84999e-05 -0.011807 0.00060005)
(0.000513264 -0.0297443 0.00126241)
(0.00121583 -0.0422189 0.00161327)
(0.00204782 -0.0500708 0.00181498)
(0.00289991 -0.0544008 0.00192775)
(0.00372947 -0.056453 0.00198193)
(0.0045391 -0.0570719 0.00199647)
(0.00533125 -0.056678 0.00197995)
(0.00610019 -0.0554714 0.0019355)
(0.0068394 -0.0535552 0.00186417)
(0.00754055 -0.0509866 0.00176645)
(0.0081917 -0.0478032 0.00164292)
(0.0087778 -0.0440414 0.00149483)
(0.00928255 -0.0397502 0.00132474)
(0.00969092 -0.0349981 0.0011372)
(0.00999132 -0.0298726 0.000939445)
(0.0101771 -0.0244742 0.000742098)
(0.010247 -0.0189047 0.000559428)
(0.0102047 -0.0132565 0.000409381)
(0.0100575 -0.00760249 0.000313152)
(0.0098153 -0.00199059 0.000293848)
(0.00948897 0.00355703 0.000374062)
(0.00908923 0.00904013 0.000572414)
(0.00862406 0.0144737 0.000898854)
(0.00809774 0.0198768 0.00134913)
(0.00750981 0.0252618 0.00189963)
(0.00685422 0.0306358 0.00250596)
(0.00611978 0.0360233 0.00310857)
(0.00529172 0.0414948 0.00364185)
(0.00435403 0.0471242 0.00403564)
(0.00330201 0.0527228 0.00420679)
(0.00222487 0.0572725 0.00406899)
(0.00126967 0.0587898 0.00356491)
(0.000470629 0.0529436 0.00257276)
(1.57438e-05 0.0282468 0.000949661)
(3.81724e-05 -0.013625 0.000444217)
(0.000410978 -0.0339066 0.000981318)
(0.000977969 -0.0476788 0.00131227)
(0.00165884 -0.0560974 0.00152637)
(0.00236145 -0.0605665 0.00165211)
(0.00305057 -0.062581 0.00171449)
(0.00373046 -0.0630919 0.00173416)
(0.00440199 -0.0625388 0.00172142)
(0.00505771 -0.0611142 0.00168057)
(0.00569012 -0.0589057 0.0016133)
(0.0062902 -0.0559519 0.00152006)
(0.00684563 -0.0522741 0.00140056)
(0.00734159 -0.0479038 0.00125435)
(0.00776294 -0.0429016 0.00108161)
(0.00809668 -0.0373639 0.000883623)
(0.00833338 -0.031418 0.000663402)
(0.00846861 -0.0252067 0.000426788)
(0.00850348 -0.0188721 0.000183897)
(0.00844363 -0.0125396 -4.97058e-05)
(0.00829789 -0.00630609 -0.000252549)
(0.00807712 -0.000233883 -0.000397821)
(0.00779276 0.00564992 -0.000455426)
(0.00745559 0.0113518 -0.00039549)
(0.00707391 0.0169081 -0.000193439)
(0.00665164 0.0223762 0.000163612)
(0.00618679 0.0278251 0.000669795)
(0.0056707 0.0333325 0.00129488)
(0.00508839 0.0389919 0.0019831)
(0.00442075 0.0449054 0.00265563)
(0.00364877 0.0510838 0.00321142)
(0.00276882 0.0571228 0.00353027)
(0.00187714 0.0617038 0.0035058)
(0.0010817 0.0627932 0.00309169)
(0.00040743 0.055798 0.00219708)
(2.29763e-05 0.0292597 0.000769264)
(3.42644e-05 -0.0149852 0.000300918)
(0.000344009 -0.0370182 0.000731128)
(0.000821142 -0.0518028 0.00104562)
(0.00140023 -0.0607186 0.0012683)
(0.00200096 -0.0653597 0.0014031)
(0.00259243 -0.0673938 0.00147059)
(0.0031792 -0.0678529 0.00149191)
(0.00376133 -0.0671919 0.00147829)
(0.00433063 -0.0655958 0.00143477)
(0.00487929 -0.0631359 0.00136379)
(0.00539858 -0.0598334 0.00126635)
(0.00587717 -0.0556985 0.00114249)
(0.00630228 -0.0507657 0.000991888)
(0.00666165 -0.0451142 0.00081422)
(0.00694513 -0.0388704 0.000609379)
(0.0071457 -0.0321967 0.000378232)
(0.00725984 -0.0252739 0.000123866)
(0.00728789 -0.0182814 -0.00014665)
(0.00723399 -0.0113759 -0.000420296)
(0.00710592 -0.00467759 -0.000677031)
(0.00691441 0.00173639 -0.000890126)
(0.00667135 0.00783517 -0.00102819)
(0.00638834 0.0136359 -0.00105858)
(0.0060746 0.0192017 -0.000951665)
(0.0057338 0.0246317 -0.000685888)
(0.00536308 0.0300507 -0.000253928)
(0.00495204 0.0356034 0.000330068)
(0.00448241 0.0414479 0.00102413)
(0.00393167 0.0477162 0.00175256)
(0.00327803 0.0543621 0.00240117)
(0.0025151 0.0607979 0.00282514)
(0.00173558 0.0654677 0.00289892)
(0.00102535 0.0662786 0.00258287)
(0.000404656 0.0583977 0.00181198)
(3.14997e-05 0.0303132 0.000603596)
(2.5721e-05 -0.0162078 0.00027176)
(0.000290229 -0.0399233 0.000718091)
(0.000711147 -0.0557485 0.00106686)
(0.00123214 -0.0652108 0.00131413)
(0.00177701 -0.0700685 0.00146145)
(0.00231537 -0.0721546 0.00153492)
(0.00285081 -0.072581 0.00155991)
(0.00338183 -0.0718215 0.00155003)
(0.00389933 -0.0700582 0.00151187)
(0.00439547 -0.0673523 0.00144896)
(0.00486219 -0.063713 0.00136299)
(0.00528982 -0.0591446 0.0012542)
(0.00566817 -0.0536861 0.00112153)
(0.00598808 -0.0474309 0.000962665)
(0.00624224 -0.0405257 0.000774282)
(0.00642536 -0.0331561 0.000553019)
(0.00653495 -0.0255266 0.000297091)
(0.00657118 -0.0178463 8.52959e-06)
(0.00653583 -0.0103035 -0.000304028)
(0.00643353 -0.00304985 -0.000623083)
(0.00627233 0.00380761 -0.00092159)
(0.00606265 0.0102164 -0.00116496)
(0.00581589 0.0161899 -0.00131545)
(0.00554179 0.0218086 -0.00133731)
(0.00524541 0.02721 -0.00120113)
(0.00492455 0.0325767 -0.000888523)
(0.00456837 0.0381236 -0.000398656)
(0.00415919 0.0440759 0.000241896)
(0.00367463 0.0506005 0.000965896)
(0.00309047 0.0576107 0.00165507)
(0.00239614 0.0643719 0.00214892)
(0.00167848 0.0691381 0.00230509)
(0.0010098 0.0697346 0.0020868)
(0.000409944 0.0610735 0.00145233)
(3.45185e-05 0.0314864 0.000463844)
(2.36062e-05 -0.0172534 0.000248128)
(0.00026514 -0.0424469 0.000684341)
(0.000653378 -0.0592116 0.00103305)
(0.0011349 -0.0691881 0.00128045)
(0.00163772 -0.0742651 0.0014278)
(0.00213354 -0.0764151 0.00150177)
(0.00262615 -0.0768222 0.00152798)
(0.00311389 -0.0759798 0.00152037)
(0.00358762 -0.0740687 0.00148601)
(0.00403969 -0.0711422 0.00142903)
(0.00446257 -0.0672021 0.00135193)
(0.00484775 -0.062252 0.00125583)
(0.00518688 -0.0563393 0.00114035)
(0.00547308 -0.0495719 0.00100343)
(0.00570147 -0.0421132 0.000841338)
(0.00586872 -0.0341653 0.000649306)
(0.00597266 -0.0259501 0.00042274)
(0.00601308 -0.0176902 0.0001592)
(0.00599197 -0.00959394 -0.000138958)
(0.00591229 -0.0018353 -0.000461304)
(0.00577986 0.00545388 -0.00078683)
(0.00560309 0.0122 -0.00108427)
(0.00539158 0.0184072 -0.00131568)
(0.0051539 0.0241617 -0.0014418)
(0.00489484 0.0296248 -0.00142678)
(0.00461287 0.0350199 -0.00124202)
(0.00429815 0.0406172 -0.00087189)
(0.00393237 0.0467012 -0.000325256)
(0.00349354 0.0534735 0.000346106)
(0.00295832 0.0608222 0.00102945)
(0.00231232 0.0678978 0.00155822)
(0.00163653 0.0727894 0.00177715)
(0.000994761 0.0732175 0.00164795)
(0.000408369 0.0638284 0.00114638)
(3.43867e-05 0.0327235 0.00035491)
(2.0442e-05 -0.0182585 0.000266061)
(0.000249841 -0.0449153 0.00073836)
(0.000621794 -0.0626257 0.00111039)
(0.00108341 -0.0731186 0.00136712)
(0.00156366 -0.0784145 0.00151572)
(0.00203533 -0.0806279 0.00158848)
(0.00250255 -0.081014 0.00161348)
(0.00296343 -0.0800858 0.0016058)
(0.00340873 -0.078025 0.00157326)
(0.00383095 -0.0748799 0.00152062)
(0.00422307 -0.0706483 0.00145083)
(0.0045776 -0.0653358 0.00136515)
(0.00488769 -0.058998 0.00126285)
(0.0051483 -0.0517551 0.0011411)
(0.00535625 -0.0437827 0.000995223)
(0.00550971 -0.0352939 0.000819359)
(0.00560754 -0.0265218 0.000607687)
(0.00564906 -0.0177024 0.000356068)
(0.00563483 -0.0090584 6.43143e-05)
(0.0055674 -0.000786011 -0.000260873)
(0.00545118 0.00695659 -0.000603006)
(0.00529282 0.0140732 -0.000935024)
(0.00510053 0.0205567 -0.00122183)
(0.00488194 0.0264977 -0.00142489)
(0.00464168 0.0320775 -0.00150655)
(0.0043788 0.0375544 -0.0014328)
(0.00408505 0.0432445 -0.00117766)
(0.00374421 0.0494799 -0.000734734)
(0.00333406 0.056494 -0.000138899)
(0.00283081 0.0641517 0.000509774)
(0.00222007 0.0715041 0.00104727)
(0.00157843 0.0764969 0.0013111)
(0.000962034 0.0767435 0.00125968)
(0.000393927 0.0666114 0.000881255)
(3.16729e-05 0.033965 0.00026473)
(2.01067e-05 -0.019247 0.000283966)
(0.00024313 -0.0473367 0.000772938)
(0.000601432 -0.0659517 0.00114521)
(0.00104235 -0.0769205 0.0013952)
(0.00149751 -0.082408 0.00153734)
(0.00194204 -0.0846697 0.00160628)
(0.00238084 -0.0850271 0.00163011)
(0.00281226 -0.0840106 0.00162387)
(0.00322732 -0.0818025 0.00159563)
(0.00361881 -0.0784477 0.00155061)
(0.00398013 -0.0739428 0.00149232)
(0.0043046 -0.0682987 0.0014225)
(0.00458658 -0.0615822 0.00134061)
(0.00482244 -0.0539257 0.0012436)
(0.0050104 -0.0455153 0.00112597)
(0.00514982 -0.036571 0.00098048)
(0.00524055 -0.0273303 0.000799259)
(0.00528256 -0.0180334 0.000575544)
(0.00527603 -0.00891042 0.000305837)
(0.00522181 -0.000169992 -7.11337e-06)
(0.00512321 0.00801016 -0.000350955)
(0.00498561 0.0155124 -0.00070226)
(0.00481508 0.0223158 -0.00102832)
(0.00461746 0.0285086 -0.00129148)
(0.00439646 0.0342844 -0.00145336)
(0.00415112 0.0399268 -0.001477)
(0.00387426 0.0457865 -0.00132979)
(0.00355179 0.0522325 -0.000993761)
(0.00316368 0.0595196 -0.000488083)
(0.00268704 0.0674908 0.000102935)
(0.00210784 0.0751057 0.000624906)
(0.00150013 0.0801806 0.000914208)
(0.000913128 0.0802287 0.00092584)
(0.000370617 0.0693404 0.000655823)
(2.8067e-05 0.0351628 0.000190526)
(1.8895e-05 -0.0202075 0.000306264)
(0.000236854 -0.0496781 0.000818901)
(0.000585029 -0.0691567 0.00119862)
(0.00101087 -0.080573 0.00144655)
(0.00144747 -0.0862368 0.00158361)
(0.00187167 -0.0885404 0.0016482)
(0.00228897 -0.0888664 0.00166927)
(0.00269773 -0.0877606 0.00166212)
(0.00308914 -0.0854062 0.00163513)
(0.00345624 -0.0818458 0.00159397)
(0.00379286 -0.0770771 0.00154258)
(0.00409307 -0.0711177 0.00148295)
(0.00435232 -0.0640457 0.0014146)
(0.00456809 -0.0560056 0.0013343)
(0.00473961 -0.0471924 0.00123621)
(0.004867 -0.0378318 0.00111252)
(0.00495068 -0.0281641 0.000954662)
(0.00499094 -0.0184321 0.000754729)
(0.00498803 -0.00887029 0.000507448)
(0.00494236 0.000302902 0.000212694)
(0.0048555 0.00889381 -0.000121281)
(0.00473143 0.0167689 -0.00047533)
(0.00457555 0.0238957 -0.000820495)
(0.00439224 0.0303611 -0.00112152)
(0.00418409 0.0363687 -0.00134085)
(0.00394985 0.0422231 -0.0014406)
(0.00368306 0.0483022 -0.00138446)
(0.00337145 0.0550011 -0.00114641)
(0.00299756 0.0625842 -0.000732497)
(0.00254012 0.0708637 -0.000210671)
(0.00198756 0.0787074 0.000278872)
(0.00141285 0.0838202 0.000577219)
(0.000857416 0.083633 0.000637692)
(0.000344416 0.0719667 0.000461325)
(2.4729e-05 0.0362927 0.000127436)
(1.86426e-05 -0.0211905 0.000330171)
(0.000232239 -0.0520573 0.000861948)
(0.000569153 -0.0723828 0.0012406)
(0.000977352 -0.0842137 0.00147922)
(0.00139238 -0.0900257 0.00160727)
(0.00179346 -0.0923536 0.00166612)
(0.00218675 -0.092638 0.00168471)
(0.00257075 -0.0914371 0.00167817)
(0.00293696 -0.088935 0.00165509)
(0.00327878 -0.0851735 0.0016215)
(0.00359051 -0.0801536 0.00158178)
(0.00386699 -0.0739021 0.00153822)
(0.00410465 -0.0665094 0.00149026)
(0.00430197 -0.0581308 0.00143418)
(0.00445905 -0.0489685 0.00136319)
(0.00457671 -0.0392503 0.00126809)
(0.0046558 -0.0292155 0.00113858)
(0.00469683 -0.019105 0.000964965)
(0.00469993 -0.00915307 0.000740237)
(0.00466503 0.000416952 0.000462583)
(0.00459282 0.00939947 0.000138149)
(0.0044853 0.0176463 -0.000216715)
(0.00434582 0.0251147 -0.000575737)
(0.00417793 0.0318882 -0.000905946)
(0.00398319 0.0381769 -0.00117117)
(0.00375995 0.0443006 -0.00133382)
(0.00350212 0.050658 -0.00135611)
(0.00319897 0.0576617 -0.00120717)
(0.00283593 0.0655756 -0.000883019)
(0.00239553 0.0741722 -0.00043656)
(0.00186854 0.0822301 8.06378e-06)
(0.00132562 0.0873557 0.000301354)
(0.000801916 0.0869144 0.00039689)
(0.000319138 0.0744706 0.000298749)
(2.20194e-05 0.0373537 7.59356e-05)
(1.76881e-05 -0.0221339 0.000348291)
(0.000225634 -0.054316 0.000891592)
(0.000551261 -0.075425 0.0012665)
(0.000943409 -0.0876323 0.00149559)
(0.00133968 -0.0935756 0.00161477)
(0.00172106 -0.0959226 0.00166758)
(0.00209411 -0.0961644 0.00168275)
(0.00245725 -0.0948703 0.00167523)
(0.00280227 -0.0922247 0.00165377)
(0.00312288 -0.0882699 0.00162482)
(0.00341385 -0.0830113 0.00159322)
(0.00367072 -0.0764858 0.00156167)
(0.00389075 -0.0687963 0.00152992)
(0.00407325 -0.0601092 0.00149434)
(0.00421891 -0.0506328 0.00144795)
(0.00432905 -0.0405967 0.00138096)
(0.00440482 -0.030238 0.00128186)
(0.00444683 -0.0197937 0.00113909)
(0.00445504 -0.00949564 0.000943317)
(0.00442896 0.000430908 0.000690201)
(0.00436844 0.00977209 0.00038338)
(0.00427426 0.0183682 3.66649e-05)
(0.00414823 0.0261683 -0.000326289)
(0.00399247 0.0332541 -0.000674642)
(0.00380793 0.0398416 -0.00097365)
(0.00359267 0.0462634 -0.0011863)
(0.00334089 0.0529339 -0.00127426)
(0.0030432 0.0602748 -0.00120369)
(0.0026876 0.0685382 -0.000963197)
(0.00226024 0.0774467 -0.000592553)
(0.00175517 0.0856879 -0.000199505)
(0.0012416 0.0907884 7.87248e-05)
(0.000748454 0.0900667 0.000197804)
(0.000295274 0.0768447 0.000163881)
(1.96691e-05 0.038346 3.41222e-05)
(1.71415e-05 -0.023098 0.000369127)
(0.000220217 -0.0566149 0.000926155)
(0.00053505 -0.0785025 0.00129619)
(0.000911244 -0.0910662 0.00151355)
(0.00128864 -0.0971219 0.00162232)
(0.00165029 -0.0994759 0.00166849)
(0.00200317 -0.0996686 0.00168046)
(0.00234573 -0.0982782 0.00167293)
(0.00267004 -0.0954901 0.00165478)
(0.0029702 -0.0913485 0.00163275)
(0.00324146 -0.0858652 0.00161206)
(0.00348003 -0.0790881 0.00159563)
(0.00368395 -0.0711326 0.0015832)
(0.00385322 -0.0621745 0.00157091)
(0.00398915 -0.0524267 0.00155132)
(0.00409351 -0.0421179 0.00151383)
(0.00416777 -0.0314804 0.00144576)
(0.00421264 -0.0207443 0.00133391)
(0.00422786 -0.0101357 0.00116692)
(0.00421234 0.000121962 0.00093811)
(0.00416494 0.0098097 0.000648808)
(0.00408517 0.0187575 0.000310746)
(0.00397346 0.026905 -5.42924e-05)
(0.00383057 0.0343301 -0.000417125)
(0.00365645 0.0412517 -0.00074425)
(0.00344888 0.0480123 -0.000999515)
(0.00320246 0.0550373 -0.0011448)
(0.00290904 0.062752 -0.00114469)
(0.00255897 0.0713895 -0.000982346)
(0.00214192 0.0806165 -0.000686304)
(0.00165583 0.0890293 -0.000348524)
(0.00116844 0.0940894 -9.26825e-05)
(0.000702651 0.0930816 4.00692e-05)
(0.00027563 0.0790999 5.71565e-05)
(1.81737e-05 0.039281 2.6037e-06)
(1.62894e-05 -0.024019 0.0003826)
(0.000213587 -0.0587854 0.000941219)
(0.000517452 -0.081385 0.00129901)
(0.000878498 -0.0942651 0.00150137)
(0.00123868 -0.100416 0.00159858)
(0.0015827 -0.102772 0.00163748)
(0.00191775 -0.102914 0.0016455)
(0.00224221 -0.101429 0.00163684)
(0.00254843 -0.0985037 0.00162045)
(0.00283088 -0.0941833 0.00160341)
(0.00308525 -0.0884876 0.00159138)
(0.00330832 -0.0814759 0.00158771)
(0.00349873 -0.0732762 0.00159256)
(0.00365701 -0.0640741 0.00160238)
(0.0037849 -0.0540872 0.00160979)
(0.00388454 -0.0435432 0.00160391)
(0.00395768 -0.0326686 0.00157112)
(0.00400512 -0.021685 0.00149651)
(0.00402649 -0.01081 0.00136618)
(0.00402024 -0.000261808 0.0011703)
(0.00398435 0.00973915 0.000906926)
(0.00391716 0.0190156 0.000584994)
(0.00381782 0.0274992 0.000224391)
(0.00368599 0.0352639 -0.000146828)
(0.0035208 0.0425309 -0.000495812)
(0.00331964 0.0496496 -0.00078684)
(0.00307743 0.0570525 -0.000981938)
(0.00278716 0.0651618 -0.0010447)
(0.00244141 0.0741835 -0.000954144)
(0.00203304 0.0837211 -0.000729276)
(0.001564 0.0922806 -0.000447462)
(0.00110051 0.0972757 -0.000218541)
(0.000659872 0.095969 -7.9983e-05)
(0.000257216 0.0812401 -2.36892e-05)
(1.66357e-05 0.0401615 -1.94585e-05)
(1.56029e-05 -0.024954 0.000397696)
(0.000208102 -0.0609844 0.000960752)
(0.00050243 -0.0842946 0.00130773)
(0.000849917 -0.0974786 0.00149538)
(0.0011944 -0.103713 0.00158092)
(0.00152228 -0.106063 0.00161254)
(0.00184101 -0.106152 0.00161682)
(0.00214891 -0.104573 0.00160751)
(0.00243861 -0.101514 0.00159357)
(0.00270491 -0.0970239 0.00158231)
(0.00294393 -0.0911308 0.00157963)
(0.00315297 -0.0839057 0.00158912)
(0.00333119 -0.0754884 0.0016111)
(0.00347961 -0.0660733 0.00164214)
(0.00360042 -0.0558813 0.00167497)
(0.00369616 -0.0451379 0.00169863)
(0.00376889 -0.0340618 0.00169905)
(0.00381959 -0.0228641 0.00166027)
(0.00384778 -0.0117512 0.00156646)
(0.00385148 -0.000933115 0.00140501)
(0.00382774 0.00937178 0.00117053)
(0.00377365 0.0189801 0.000868645)
(0.00368698 0.0278147 0.000516766)
(0.00356619 0.0359429 0.000141526)
(0.00340961 0.0435849 -0.000224849)
(0.00321436 0.0510939 -0.000546898)
(0.00297567 0.0589059 -0.000786703)
(0.00268764 0.0674359 -0.000907037)
(0.00234484 0.0768578 -0.000883438)
(0.00194311 0.0867089 -0.000726585)
(0.00148804 0.0954072 -0.00050043)
(0.00104457 0.100331 -0.000301449)
(0.000625201 0.0987295 -0.000163672)
(0.000242883 0.0832796 -7.91663e-05)
(1.5875e-05 0.0409973 -3.21114e-05)
(1.50079e-05 -0.0258493 0.000405404)
(0.00020268 -0.0630658 0.000960282)
(0.000487886 -0.0870247 0.00128806)
(0.00082267 -0.100474 0.00145677)
(0.00115269 -0.106774 0.00152894)
(0.00146584 -0.109112 0.00155242)
(0.00176975 -0.109146 0.00155222)
(0.00206266 -0.107474 0.00154138)
(0.0023375 -0.104284 0.00152879)
(0.0025894 -0.0996312 0.00152199)
(0.00281482 -0.0935503 0.00152723)
(0.00301147 -0.086125 0.00154849)
(0.00317889 -0.0775075 0.00158654)
(0.00331844 -0.0679015 0.00163837)
(0.00343265 -0.0575322 0.00169708)
(0.00352442 -0.0466229 0.00175182)
(0.00359613 -0.0353846 0.00178822)
(0.003649 -0.0240159 0.00178927)
(0.00368261 -0.0127095 0.00173719)
(0.00369471 -0.00166336 0.00161638)
(0.00368163 0.00891038 0.00141767)
(0.00363935 0.018826 0.00114289)
(0.00356433 0.027999 0.000806518)
(0.00345384 0.0364901 0.000433557)
(0.00330541 0.0445162 5.56528e-05)
(0.00311583 0.0524313 -0.000291754)
(0.00288064 0.0606702 -0.000570555)
(0.00259501 0.069635 -0.000742684)
(0.00225522 0.0794619 -0.000780627)
(0.00185966 0.0896181 -0.00068763)
(0.00141735 0.0984367 -0.000515397)
(0.000992076 0.103275 -0.000347816)
(0.000592194 0.101374 -0.000215978)
(0.000228886 0.0852208 -0.000112855)
(1.48793e-05 0.0417886 -3.69474e-05)
(1.43638e-05 -0.0267537 0.000413167)
(0.000197901 -0.0651647 0.000961485)
(0.000475396 -0.0897697 0.00127197)
(0.000799373 -0.103474 0.00142304)
(0.00111692 -0.109831 0.00148245)
(0.00141729 -0.112152 0.00149809)
(0.00170833 -0.11213 0.00149359)
(0.00198819 -0.110366 0.00148137)
(0.00225005 -0.107052 0.00147017)
(0.00248935 -0.102245 0.00146764)
(0.00270282 -0.0959907 0.00148018)
(0.00288851 -0.0883832 0.00151201)
(0.00304629 -0.0795868 0.00156418)
(0.00317787 -0.0698138 0.00163411)
(0.00328615 -0.059293 0.00171536)
(0.00337437 -0.0482451 0.00179757)
(0.0034453 -0.0368723 0.00186658)
(0.00350042 -0.0253601 0.00190501)
(0.00353941 -0.0138854 0.00189376)
(0.00355977 -0.00263117 0.00181464)
(0.00355713 0.00820001 0.0016547)
(0.00352637 0.0184223 0.00141147)
(0.00346261 0.0279433 0.0010958)
(0.00336194 0.0368154 0.000730401)
(0.00322105 0.0452497 0.00034601)
(0.00303641 0.0535969 -2.19604e-05)
(0.00280392 0.0622875 -0.000335029)
(0.00251979 0.0717065 -0.000554146)
(0.00218228 0.081949 -0.000648931)
(0.00179184 0.0924114 -0.000615956)
(0.00136012 0.101346 -0.000495633)
(0.000950002 0.106098 -0.000360266)
(0.0005663 0.103906 -0.000238779)
(0.000218446 0.0870752 -0.000125922)
(1.46309e-05 0.0425425 -3.43301e-05)
(1.41196e-05 -0.0276239 0.00041368)
(0.000194282 -0.0671616 0.00094385)
(0.000465102 -0.0923582 0.00122946)
(0.000779368 -0.106283 0.00135902)
(0.00108555 -0.112678 0.00140407)
(0.00137419 -0.114975 0.00141105)
(0.00165335 -0.114894 0.00140162)
(0.00192118 -0.113039 0.00138729)
(0.00217115 -0.109602 0.00137664)
(0.00239893 -0.104646 0.00137738)
(0.00260145 -0.0982241 0.00139614)
(0.00277697 -0.0904435 0.0014375)
(0.00292562 -0.0814809 0.00150295)
(0.00304935 -0.0715583 0.0015904)
(0.00315136 -0.060909 0.00169399)
(0.00323523 -0.0497517 0.00180388)
(0.00330411 -0.03828 0.00190624)
(0.00335989 -0.0266646 0.0019835)
(0.00340248 -0.0150646 0.00201547)
(0.00342937 -0.00364413 0.00198161)
(0.00343569 0.00740852 0.00186523)
(0.00341533 0.0179115 0.0016593)
(0.00336214 0.0277668 0.00137054)
(0.00327097 0.0370177 0.00101889)
(0.00313762 0.0458674 0.000633893)
(0.00295819 0.0546599 0.000250903)
(0.0027288 0.0638164 -9.1055e-05)
(0.00244657 0.0737001 -0.000351782)
(0.00211123 0.0843603 -0.000498103)
(0.00172563 0.0951201 -0.000520406)
(0.00130427 0.104155 -0.000448979)
(0.000908413 0.108813 -0.000345627)
(0.00053991 0.106331 -0.000237749)
(0.000207137 0.0888425 -0.000122629)
(1.38982e-05 0.0432576 -2.63001e-05)
(1.37181e-05 -0.0285006 0.00041312)
(0.00019083 -0.0691681 0.000925709)
(0.000455916 -0.0949507 0.00118826)
(0.000762029 -0.109085 0.00129798)
(0.00105865 -0.11551 0.00132964)
(0.00133745 -0.117777 0.00132843)
(0.00160666 -0.117635 0.00131419)
(0.00186436 -0.115692 0.00129765)
(0.00210424 -0.112138 0.00128714)
(0.00232216 -0.10704 0.00129036)
(0.00251521 -0.100462 0.00131405)
(0.00268185 -0.0925221 0.00136298)
(0.00282244 -0.0834088 0.001439)
(0.00293918 -0.0733534 0.00154053)
(0.00303552 -0.0625936 0.00166239)
(0.00311536 -0.0513464 0.00179557)
(0.00318221 -0.0397969 0.00192701)
(0.00323834 -0.0281013 0.00203956)
(0.00328394 -0.0163993 0.00211258)
(0.00331659 -0.00483447 0.00212373)
(0.00333099 0.00642341 0.00205281)
(0.00332017 0.0171996 0.001888)
(0.00327673 0.0273915 0.00163119)
(0.00319429 0.0370326 0.00129877)
(0.00306774 0.0463153 0.000918517)
(0.0028928 0.0555739 0.000525525)
(0.00266582 0.0652161 0.000159455)
(0.00238484 0.0755795 -0.000138144)
(0.00205101 0.0866649 -0.000331279)
(0.00166914 0.0977218 -0.000404573)
(0.00125626 0.106854 -0.000379048)
(0.000872492 0.111418 -0.000307209)
(0.000517154 0.108652 -0.000215767)
(0.000197585 0.0905292 -0.000105216)
(1.35644e-05 0.0439373 -1.38214e-05)
(1.38705e-05 -0.029349 0.000405955)
(0.000188875 -0.0710871 0.000891184)
(0.000449214 -0.0974075 0.00112455)
(0.000748057 -0.111719 0.00121143)
(0.00103604 -0.118158 0.00122858)
(0.00130606 -0.120388 0.00121867)
(0.00156645 -0.120183 0.00119913)
(0.00181496 -0.118149 0.00117974)
(0.00204546 -0.114479 0.00116864)
(0.00225404 -0.109243 0.00117353)
(0.00243797 -0.102512 0.00120131)
(0.00259589 -0.0944182 0.00125701)
(0.00272833 -0.0851634 0.00134279)
(0.00283767 -0.0749887 0.00145754)
(0.00292756 -0.0641368 0.00159671)
(0.0030022 -0.0528236 0.00175211)
(0.00306547 -0.0412262 0.00191152)
(0.00312009 -0.0294859 0.00205842)
(0.00316673 -0.0177215 0.00217215)
(0.00320319 -0.00605234 0.0022291)
(0.00322404 0.00537445 0.00220601)
(0.00322162 0.0163962 0.00208633)
(0.00318733 0.0269083 0.00186672)
(0.00311351 0.0369348 0.0015594)
(0.00299403 0.0466555 0.0011898)
(0.00282407 0.0563907 0.000792444)
(0.00260016 0.0665304 0.000407635)
(0.00232116 0.0773813 7.84291e-05)
(0.00198961 0.0888918 -0.000156337)
(0.00161208 0.100237 -0.000275897)
(0.00120789 0.109454 -0.000292859)
(0.000835883 0.113918 -0.000251517)
(0.000493376 0.11087 -0.000178487)
(0.000187085 0.0921326 -7.79336e-05)
(1.28498e-05 0.0445794 1.28102e-06)
(1.3726e-05 -0.0302008 0.000397393)
(0.000186391 -0.0730059 0.000855331)
(0.000442196 -0.0998538 0.00106103)
(0.000734568 -0.114332 0.00112659)
(0.00101519 -0.120776 0.00113019)
(0.00127801 -0.122967 0.00111202)
(0.00153127 -0.122696 0.00108731)
(0.00177226 -0.120572 0.0010649)
(0.00199487 -0.116788 0.00105269)
(0.00219541 -0.111417 0.00105839)
(0.00237146 -0.104541 0.00108894)
(0.00252181 -0.0963026 0.00114944)
(0.00264714 -0.0869166 0.00124232)
(0.00274995 -0.0766333 0.00136691)
(0.00283404 -0.0657005 0.00151936)
(0.00290382 -0.054334 0.00169242)
(0.00296347 -0.0427038 0.00187503)
(0.0030161 -0.0309371 0.00205178)
(0.00306281 -0.019132 0.00220257)
(0.00310179 -0.00738229 0.00230319)
(0.00312763 0.00419143 0.00232791)
(0.00313218 0.0154428 0.00225556)
(0.00310585 0.0262682 0.00207722)
(0.00303973 0.0366828 0.00180015)
(0.00292663 0.046852 0.00144667)
(0.00276115 0.057079 0.00105024)
(0.00253994 0.0677312 0.000651704)
(0.00226263 0.0790806 0.000295701)
(0.00193307 0.0910205 2.3969e-05)
(0.00155952 0.102652 -0.000137595)