/*--------------------------------*- C++ -*----------------------------------*\
| =========                 |                                                 |
| \\      /  F ield         | OpenFOAM: The Open Source CFD Toolbox           |
|  \\    /   O peration     | Version:  v2012                                 |
|   \\  /    A nd           | Website:  www.openfoam.com                      |
|    \\/     M anipulation  |                                                 |
\*---------------------------------------------------------------------------*/
FoamFile
{
    version     2.0;
    format      ascii;
    class       volScalarField;
    location    "1800/heater";
    object      T;
}
// * * * * * * * * * * * * * * * * * * * * * * * * * * * * * * * * * * * * * //

dimensions      [0 0 0 1 0 0 0];


internalField   nonuniform List<scalar> 
80
(
471.2064
471.4514
471.5392
471.4691
471.6678
471.9539
472.0407
471.9279
472.6707
473.066
473.1514
472.9275
474.4041
475.0377
475.1187
474.6516
497.959
497.9659
497.9667
497.961
493.9119
493.9227
493.9253
493.9181
489.8893
489.9078
489.9138
489.9039
485.8703
485.9264
485.9402
485.9046
481.7958
482.0217
482.053
481.8787
477.416
478.4125
478.4764
477.6214
497.959
497.9659
497.9667
497.961
493.9117
493.9226
493.9252
493.9181
489.8891
489.9077
489.9138
489.9039
485.87
485.9263
485.9402
485.9046
481.7957
482.0218
482.0531
481.8789
477.4163
478.4129
478.4768
477.6219
474.4052
475.0388
475.1199
474.6527
472.6725
473.0679
473.1532
472.9292
471.6705
471.9565
472.0432
471.9302
471.2093
471.4543
471.542
471.472
)
;

boundaryField
{
    minY
    {
        type            fixedValue;
        value           uniform 500;
    }
    minZ
    {
        type            zeroGradient;
    }
    maxZ
    {
        type            zeroGradient;
    }
    heater_to_topAir
    {
        type            compressible::turbulentTemperatureRadCoupledMixed;
        refValue        nonuniform List<scalar> 
40
(
367.6378
370.4184
372.83
374.8137
361.7115
363.4234
364.5886
365.1674
362.2867
364.2023
365.5675
366.2733
364.9751
367.9913
370.8052
373.3675
365.7431
369.0094
372.0978
374.9835
365.7432
369.0095
372.0979
374.9837
364.9755
367.9917
370.8056
373.3679
362.2872
364.2028
365.568
366.2737
361.7124
363.4244
364.5895
365.1683
367.639
370.4196
372.8313
374.815
)
;
        refGradient     nonuniform List<scalar> 
40
(
-2.73456
-2.73456
-2.704674
-2.704674
-2.844246
-2.844246
-2.826715
-2.826715
-2.910182
-2.910182
-2.89837
-2.89837
-2.979666
-2.979666
-2.970794
-2.970794
-3.082545
-3.082545
-3.074239
-3.074239
-3.082547
-3.082547
-3.074229
-3.074229
-2.979669
-2.979669
-2.97076
-2.97076
-2.910188
-2.910188
-2.898318
-2.898318
-2.844263
-2.844263
-2.826657
-2.826657
-2.734581
-2.734581
-2.704625
-2.704625
)
;
        valueFraction   nonuniform List<scalar> 
40
(
0.0003213253
0.0003213253
0.0003213253
0.0003213253
0.0003213253
0.0003213253
0.0003213253
0.0003213253
0.0003213253
0.0003213253
0.0003213253
0.0003213253
0.0003213253
0.0003213253
0.0003213253
0.0003213253
0.0003213253
0.0003213253
0.0003213253
0.0003213253
0.0003213253
0.0003213253
0.0003213253
0.0003213253
0.0003213253
0.0003213253
0.0003213253
0.0003213253
0.0003213253
0.0003213253
0.0003213253
0.0003213253
0.0003213253
0.0003213253
0.0003213253
0.0003213253
0.0003213253
0.0003213253
0.0003213253
0.0003213253
)
;
        value           nonuniform List<scalar> 
40
(
471.1559
471.4018
471.4905
471.4211
471.615
471.9016
471.9888
471.8762
472.6177
473.0136
473.0994
472.8757
474.3515
474.9859
475.0679
474.6017
477.3628
478.3603
478.4252
477.5713
477.3632
478.3607
478.4256
477.5717
474.3526
474.9871
475.069
474.6027
472.6195
473.0154
473.1012
472.8774
471.6177
471.9042
471.9913
471.8785
471.1589
471.4047
471.4933
471.4239
)
;
        Tnbr            T;
        qrNbr           qr;
        qr              none;
        thermalInertia  false;
        thicknessLayers List<scalar> 0();
        kappaLayers     List<scalar> 0();
        kappaMethod     solidThermo;
        kappa           none;
        alphaAni        none;
        alpha           none;
    }
    heater_to_rightSolid
    {
        type            compressible::turbulentTemperatureCoupledBaffleMixed;
        refValue        nonuniform List<scalar> 10(471.2588 471.6441 472.4514 473.6983 475.1996 475.2 473.6993 472.4531 471.6464 471.2611);
        refGradient     uniform 0;
        valueFraction   nonuniform List<scalar> 10(0.4999997 0.4999997 0.4999997 0.4999997 0.4999997 0.4999997 0.4999997 0.4999997 0.4999997 0.4999997);
        value           nonuniform List<scalar> 10(471.3608 471.7829 472.6865 474.1722 476.4081 476.4084 474.1732 472.6882 471.7852 471.3635);
        Tnbr            T;
        thicknessLayers List<scalar> 0();
        kappaLayers     List<scalar> 0();
        kappaMethod     solidThermo;
        kappa           none;
        alphaAni        none;
        alpha           none;
        field           T;
    }
    heater_to_leftSolid
    {
        type            compressible::turbulentTemperatureCoupledBaffleMixed;
        refValue        nonuniform List<scalar> 10(470.8222 471.2118 472.0223 473.2735 474.7909 474.7912 473.2743 472.024 471.2149 470.826);
        refGradient     uniform 0;
        valueFraction   nonuniform List<scalar> 10(0.4999997 0.4999997 0.4999997 0.4999997 0.4999997 0.4999997 0.4999997 0.4999997 0.4999997 0.4999997);
        value           nonuniform List<scalar> 10(471.0112 471.4367 472.3436 473.836 476.101 476.1013 473.837 472.3453 471.4396 471.0146);
        Tnbr            T;
        thicknessLayers List<scalar> 0();
        kappaLayers     List<scalar> 0();
        kappaMethod     solidThermo;
        kappa           none;
        alphaAni        none;
        alpha           none;
        field           T;
    }
    heater_to_bottomAir
    {
        type            compressible::turbulentTemperatureRadCoupledMixed;
        refValue        nonuniform List<scalar> 
92
(
472.9298
473.0644
473.1043
473.0082
473.7442
473.8827
473.9087
473.7934
474.6844
474.9135
474.9893
474.7646
472.7158
474.7025
475.7734
474.2796
473.2143
475.188
476.2192
474.6624
474.3463
475.9889
476.7978
475.4408
475.6879
476.6889
477.2136
476.2752
476.347
476.347
476.8743
476.8743
477.1698
477.1698
476.6156
476.6156
476.3029
477
476.7425
477.4437
477.4472
478.1073
478.2358
478.7813
478.1437
478.5933
476.3039
472.7156
474.7024
475.7745
477.0032
474.2823
476.7429
473.2143
475.1876
476.2198
477.4468
474.6643
477.4475
474.3464
475.9887
476.7981
478.1093
475.442
478.236
475.6882
476.6888
477.2138
478.7826
476.2757
478.144
476.3474
476.8745
477.17
478.5942
476.6159
476.3474
476.8745
477.17
476.6159
474.6849
474.9142
474.9901
474.7655
473.7449
473.8837
473.91
473.7948
472.9308
473.0657
473.106
473.0103
)
;
        refGradient     nonuniform List<scalar> 
92
(
-0.01922345
-0.01922345
-0.02208153
-0.02208153
-0.01922345
-0.01922345
-0.02208153
-0.02208153
-0.09060074
-0.09060074
-0.09007342
-0.09007342
-0.8100558
-0.8100558
-0.8084327
-0.8084327
-0.8100558
-0.8100558
-0.8084327
-0.8084327
-0.5356651
-0.5356651
-0.5332645
-0.5332645
-0.5356651
-0.5356651
-0.5332645
-0.5332645
-0.09060074
-0.3363013
-0.09060074
-0.3363013
-0.09007342
-0.3363013
-0.09007342
-0.3363013
-0.8436191
-0.816043
-0.8436191
-0.816043
-0.5049161
-0.4795787
-0.5049161
-0.4795787
-0.5049161
-0.4795787
-0.8436191
-0.808765
-0.808765
-0.8043777
-0.816043
-0.8043777
-0.8436191
-0.808765
-0.808765
-0.8043777
-0.816043
-0.8043777
-0.5049161
-0.5340548
-0.5340548
-0.5321921
-0.4795787
-0.5321921
-0.5049161
-0.5340548
-0.5340548
-0.5321921
-0.4795787
-0.5321921
-0.5049161
-0.3347952
-0.3347952
-0.3347952
-0.4795787
-0.3347952
-0.0883256
-0.0883256
-0.08948799
-0.08948799
-0.0883256
-0.0883256
-0.08948799
-0.08948799
-0.01868604
-0.01868604
-0.02184423
-0.02184423
-0.01868604
-0.01868604
-0.02184423
-0.02184423
)
;
        valueFraction   nonuniform List<scalar> 
92
(
0.0003213253
0.0003213253
0.0003213253
0.0003213253
0.0003213253
0.0003213253
0.0003213253
0.0003213253
0.0003213253
0.0003213253
0.0003213253
0.0003213253
0.0003213253
0.0003213253
0.0003213253
0.0003213253
0.0003213253
0.0003213253
0.0003213253
0.0003213253
0.0003213253
0.0003213253
0.0003213253
0.0003213253
0.0003213253
0.0003213253
0.0003213253
0.0003213253
0.0003213253
0.0003213253
0.0003213253
0.0003213253
0.0003213253
0.0003213253
0.0003213253
0.0003213253
0.000321325
0.000321325
0.000321325
0.000321325
0.000321325
0.000321325
0.000321325
0.000321325
0.000321325
0.000321325
0.000321325
0.0003213253
0.0003213253
0.0003213253
0.000321325
0.0003213253
0.000321325
0.0003213253
0.0003213253
0.0003213253
0.000321325
0.0003213253
0.000321325
0.0003213253
0.0003213253
0.0003213253
0.000321325
0.0003213253
0.000321325
0.0003213253
0.0003213253
0.0003213253
0.000321325
0.0003213253
0.000321325
0.0003213253
0.0003213253
0.0003213253
0.000321325
0.0003213253
0.0003213253
0.0003213253
0.0003213253
0.0003213253
0.0003213253
0.0003213253
0.0003213253
0.0003213253
0.0003213253
0.0003213253
0.0003213253
0.0003213253
0.0003213253
0.0003213253
0.0003213253
0.0003213253
)
;
        value           nonuniform List<scalar> 
92
(
471.2006
471.4456
471.5334
471.4633
471.6622
471.9484
472.0352
471.9223
472.6651
473.0604
473.1458
472.9218
497.9464
497.9539
497.9551
497.9489
493.8998
493.9112
493.9142
493.9065
489.8794
489.8984
489.9047
489.8943
485.8612
485.9176
485.9316
485.8957
474.3988
481.7883
475.0325
482.0144
475.1136
482.0458
474.6464
481.8713
497.9488
497.9511
493.9022
493.9087
489.8813
489.8962
485.863
485.8975
481.7889
481.872
497.9488
497.9464
497.9539
497.9551
497.9511
497.9489
493.902
493.8997
493.9111
493.9141
493.9087
493.9065
489.8811
489.8791
489.8983
489.9046
489.8962
489.8943
485.8628
485.861
485.9176
485.9316
485.8976
485.8957
481.7888
481.7882
482.0145
482.0459
481.8722
481.8715
474.3999
475.0337
475.1147
474.6474
472.6669
473.0623
473.1476
472.9235
471.665
471.951
472.0376
471.9246
471.2036
471.4485
471.5363
471.4662
)
;
        Tnbr            T;
        qrNbr           qr;
        qr              none;
        thermalInertia  false;
        thicknessLayers List<scalar> 0();
        kappaLayers     List<scalar> 0();
        kappaMethod     solidThermo;
        kappa           none;
        alphaAni        none;
        alpha           none;
    }
}


// ************************************************************************* //
