/*--------------------------------*- C++ -*----------------------------------*\
| =========                 |                                                 |
| \\      /  F ield         | OpenFOAM: The Open Source CFD Toolbox           |
|  \\    /   O peration     | Version:  v2006                                 |
|   \\  /    A nd           | Website:  www.openfoam.com                      |
|    \\/     M anipulation  |                                                 |
\*---------------------------------------------------------------------------*/
FoamFile
{
    version     2.0;
    format      ascii;
    class       volScalarField;
    location    "41";
    object      nut;
}
// * * * * * * * * * * * * * * * * * * * * * * * * * * * * * * * * * * * * * //

dimensions      [0 2 -1 0 0 0 0];


internalField   nonuniform List<scalar> 
78750
(
0.000863055
0.00189511
0.00131045
0.000430443
7.28358e-05
4.42571e-06
1.90533e-05
1.50988e-05
1.85602e-05
1.84152e-05
2.22461e-05
2.28772e-05
2.76008e-05
2.97328e-05
3.38584e-05
3.85087e-05
4.32158e-05
4.75312e-05
5.09305e-05
5.40319e-05
5.77999e-05
6.26548e-05
6.77664e-05
6.7295e-05
6.67413e-05
6.6519e-05
6.67152e-05
6.73911e-05
6.51569e-05
5.37058e-05
4.35363e-05
3.54655e-05
3.05341e-05
2.92175e-05
1.90783e-06
2.46992e-05
8.32476e-05
7.30444e-05
1.70708e-05
1.11786e-05
2.20383e-05
2.27935e-05
2.60559e-05
2.75954e-05
3.12079e-05
3.11879e-05
3.3031e-05
3.31045e-05
3.42568e-05
3.64143e-05
4.16437e-05
5.45201e-05
7.66496e-05
9.49572e-05
9.92869e-05
9.70358e-05
9.47204e-05
9.36874e-05
9.32621e-05
9.23643e-05
8.98689e-05
8.47301e-05
7.61433e-05
6.48815e-05
5.28039e-05
4.06664e-05
2.77182e-05
1.55552e-05
1.03496e-05
2.14101e-06
4.45715e-06
1.40389e-05
4.18817e-05
4.18744e-05
4.44315e-05
0.000114329
0.000104678
8.00663e-05
7.27224e-05
6.82134e-05
6.27156e-05
5.44024e-05
4.51477e-05
3.48706e-05
2.45548e-05
1.54148e-05
1.19425e-05
2.06509e-05
4.86249e-05
9.1009e-05
0.00012002
0.000124222
0.00011684
0.000108249
0.000100775
9.42986e-05
8.83889e-05
8.2206e-05
7.51368e-05
6.65543e-05
5.35507e-05
3.17862e-05
1.1585e-05
7.22302e-06
3.16775e-06
1.60112e-06
8.79455e-06
1.70893e-05
4.85179e-05
7.57129e-05
6.15976e-05
5.68906e-05
5.96205e-05
6.60726e-05
7.52699e-05
8.59432e-05
9.52026e-05
9.86405e-05
9.30698e-05
7.51885e-05
4.02839e-05
1.11015e-05
4.23672e-06
1.34946e-05
4.35297e-05
9.19563e-05
0.000147466
0.000167485
0.000170901
0.000149727
0.000122752
0.000104386
9.15056e-05
8.04382e-05
6.92064e-05
5.50976e-05
3.28031e-05
1.13743e-05
7.47158e-06
4.21181e-06
2.78024e-06
2.99133e-05
9.46923e-05
0.000129609
0.000138004
0.000138461
0.00012542
0.00010322
8.51003e-05
7.60936e-05
7.48785e-05
7.84846e-05
8.26073e-05
8.24346e-05
7.28804e-05
4.74282e-05
2.31837e-05
2.0204e-05
4.27065e-05
9.28038e-05
0.000136286
0.000164255
0.000174616
0.000168144
0.000150831
0.000130529
0.000111683
9.50989e-05
7.99968e-05
6.4823e-05
4.69035e-05
2.44853e-05
9.26155e-06
8.53906e-06
5.37559e-06
2.8531e-06
1.50285e-05
4.1886e-05
9.22763e-05
0.00012029
0.000111665
9.62014e-05
8.5479e-05
7.92565e-05
7.50557e-05
7.16572e-05
6.91481e-05
6.75241e-05
6.60048e-05
6.35307e-05
5.69798e-05
2.8903e-05
1.18198e-05
1.72549e-05
4.70872e-05
0.000106475
0.000156067
0.000170622
0.000162179
0.000148032
0.000134621
0.00012197
0.000108817
9.40859e-05
7.64017e-05
5.31853e-05
2.51703e-05
9.14556e-06
9.12978e-06
6.13071e-06
4.17283e-06
2.99751e-05
0.000114328
0.000144906
0.000132462
0.000112825
9.70333e-05
8.78563e-05
8.54924e-05
8.90045e-05
9.55631e-05
9.99747e-05
9.76108e-05
8.83838e-05
7.57369e-05
6.28333e-05
4.91152e-05
2.9083e-05
2.3482e-05
4.03625e-05
8.29166e-05
0.000128559
0.000145393
0.000141229
0.000132185
0.000123247
0.000113996
0.000103296
9.00348e-05
7.24712e-05
4.8452e-05
2.19696e-05
8.95214e-06
1.13906e-05
7.04567e-06
4.00972e-06
1.85153e-05
5.64245e-05
0.00010374
0.000114648
0.00010393
8.76363e-05
7.40561e-05
6.57855e-05
6.32193e-05
6.69099e-05
7.77161e-05
9.43347e-05
0.000108363
0.000107326
8.96885e-05
6.55734e-05
3.64587e-05
8.12227e-06
4.63208e-06
1.53525e-05
4.2197e-05
8.28281e-05
0.000112215
0.000117866
0.000112413
0.000104816
9.59137e-05
8.41725e-05
6.77668e-05
4.52221e-05
2.12301e-05
9.62257e-06
1.31005e-05
7.59579e-06
4.91206e-06
2.90549e-05
9.70944e-05
0.000123763
0.000118692
0.000105052
9.184e-05
8.15963e-05
7.42129e-05
6.97312e-05
6.91014e-05
7.38583e-05
8.53859e-05
0.000102981
0.000120375
0.000126192
0.000111675
8.38231e-05
6.44337e-05
2.98862e-05
6.79098e-06
1.05297e-05
2.5535e-05
5.16672e-05
7.8304e-05
9.05581e-05
9.04006e-05
8.47762e-05
7.50031e-05
5.92422e-05
3.72385e-05
1.70965e-05
9.36061e-06
1.66839e-05
8.35345e-06
4.77205e-06
2.33888e-05
7.0377e-05
0.000107652
0.000115388
0.000109285
9.75848e-05
8.54813e-05
7.55988e-05
6.87683e-05
6.54195e-05
6.64025e-05
7.29637e-05
8.58212e-05
0.000102738
0.000116376
0.000118208
0.000105455
8.33985e-05
5.96375e-05
3.15674e-05
4.48391e-06
5.13509e-06
7.52215e-06
2.23828e-05
4.22554e-05
5.76248e-05
6.22666e-05
5.84352e-05
4.83214e-05
3.24197e-05
1.64458e-05
1.01031e-05
1.90559e-05
8.72341e-06
5.22824e-06
2.95935e-05
8.8588e-05
0.000115464
0.000116571
0.000108562
9.81364e-05
8.84641e-05
8.0421e-05
7.38995e-05
6.87854e-05
6.56092e-05
6.58675e-05
7.19112e-05
8.63526e-05
0.000109437
0.000133086
0.000142805
0.000130759
9.98543e-05
6.83285e-05
4.98904e-05
1.86844e-05
3.07782e-06
1.95076e-06
1.01436e-05
2.37609e-05
3.76907e-05
4.2404e-05
3.62192e-05
2.36167e-05
1.25775e-05
9.39543e-06
2.3532e-05
9.42526e-06
4.91916e-06
2.39352e-05
7.20894e-05
0.00010677
0.000114146
0.00011078
0.000102757
9.33069e-05
8.46958e-05
7.8164e-05
7.38135e-05
7.10068e-05
6.92606e-05
6.91748e-05
7.25417e-05
8.15303e-05
9.72224e-05
0.000117039
0.000133119
0.000136124
0.000120144
8.76875e-05
5.69905e-05
3.87656e-05
6.37753e-06
1.4183e-06
6.0425e-07
8.57237e-06
1.89985e-05
2.28312e-05
1.76419e-05
1.13129e-05
1.1153e-05
2.95532e-05
9.58442e-06
5.19197e-06
2.7329e-05
8.42418e-05
0.000118677
0.000121855
0.00011411
0.000102824
9.1635e-05
8.24848e-05
7.63489e-05
7.34979e-05
7.34741e-05
7.51894e-05
7.76578e-05
8.12823e-05
8.82998e-05
0.000101414
0.000121071
0.000142447
0.000156745
0.000157473
0.00014095
0.000105059
6.44062e-05
3.79973e-05
1.51756e-05
8.36887e-07
3.27579e-06
2.8997e-06
1.00162e-05
1.16652e-05
7.90641e-06
8.16329e-06
2.95219e-05
1.01773e-05
5.12444e-06
2.46317e-05
7.54312e-05
0.000112452
0.000119415
0.000114446
0.000104291
9.25798e-05
8.19436e-05
7.41996e-05
7.02617e-05
7.01927e-05
7.32452e-05
7.79249e-05
8.27059e-05
8.75124e-05
9.43725e-05
0.000106074
0.000123857
0.000145274
0.000163998
0.000172942
0.000166281
0.000138642
9.27907e-05
5.07336e-05
2.60418e-05
2.46588e-06
1.30259e-06
3.10766e-07
4.75541e-06
8.02901e-06
1.28374e-05
4.79627e-05
1.00194e-05
5.34316e-06
2.68328e-05
8.00562e-05
0.000114351
0.00011905
0.000111245
9.84529e-05
8.53817e-05
7.46473e-05
6.74342e-05
6.42759e-05
6.55301e-05
7.14238e-05
8.16371e-05
9.47624e-05
0.000108645
0.000121971
0.000135344
0.000150271
0.000167062
0.000183665
0.000196759
0.000203184
0.000199065
0.000178342
0.000134604
7.80628e-05
3.86914e-05
8.39171e-06
1.05606e-06
5.2952e-07
1.54694e-06
7.78597e-06
3.93679e-05
1.00897e-05
5.38471e-06
2.57163e-05
7.65023e-05
0.000108391
0.000112699
0.000105323
9.32937e-05
8.14321e-05
7.19665e-05
6.55566e-05
6.2446e-05
6.2977e-05
6.76858e-05
7.70809e-05
9.11692e-05
0.000109128
0.000129672
0.000151887
0.000175599
0.000200749
0.000224274
0.000224571
0.000220172
0.000214146
0.000205994
0.000195078
0.000147681
8.51842e-05
3.24765e-05
5.53261e-07
7.0816e-07
4.92862e-06
6.80006e-06
3.68948e-05
1.05982e-05
5.55163e-06
2.76962e-05
8.35465e-05
0.000112341
0.000109234
9.51764e-05
8.08192e-05
7.05513e-05
6.44069e-05
6.15605e-05
6.162e-05
6.47642e-05
7.17684e-05
8.38771e-05
0.000102143
0.000126256
0.000153897
0.000181917
0.000208308
0.00023145
0.000232943
0.000231044
0.000227906
0.000223201
0.000216539
0.000174742
0.000123591
7.82148e-05
3.42906e-05
2.71077e-06
1.63391e-06
6.25018e-06
2.49665e-05
0.000108974
1.04588e-05
5.78249e-06
2.89016e-05
8.9486e-05
0.000111294
9.81214e-05
7.94817e-05
6.71214e-05
6.11394e-05
5.90582e-05
5.94463e-05
6.19825e-05
6.68641e-05
7.45671e-05
8.58563e-05
0.000101487
0.000121387
0.000143945
0.00016646
0.000186464
0.000202511
0.000213887
0.000219893
0.00021954
0.000211938
0.000197118
0.000176192
0.000150387
0.000122488
9.72057e-05
6.44988e-05
1.72421e-05
2.32651e-06
1.06401e-05
7.97144e-05
9.96281e-06
6.10911e-06
3.36126e-05
0.000103719
0.000108809
8.00873e-05
6.05378e-05
5.36312e-05
5.37093e-05
5.71295e-05
6.24974e-05
6.97204e-05
7.92092e-05
9.1579e-05
0.000107485
0.000126955
0.000148554
0.000169631
0.000187786
0.000201893
0.000211942
0.000218271
0.000220956
0.000219795
0.000214423
0.000203886
0.000187104
0.000167978
0.000156271
0.000145355
7.63596e-05
2.47273e-05
1.58723e-06
3.99079e-06
2.86535e-05
1.01956e-05
6.5308e-06
3.89179e-05
0.000116139
9.2077e-05
5.73298e-05
4.50285e-05
4.56862e-05
5.23186e-05
6.12653e-05
7.11686e-05
8.20759e-05
9.43817e-05
0.000108524
0.000125123
0.000144671
0.000166737
0.000189626
0.00021121
0.000229631
0.000243801
0.000245115
0.00024554
0.000245234
0.000244014
0.000241703
0.000237893
0.000216005
0.000188398
0.000147112
4.17651e-05
1.31384e-05
4.89975e-06
6.52422e-06
4.61729e-05
1.10722e-05
6.98152e-06
4.80809e-05
0.0001195
6.56928e-05
3.9046e-05
3.59674e-05
4.50744e-05
5.9545e-05
7.4166e-05
8.77271e-05
0.000101359
0.000116261
0.000133182
0.000152618
0.000174984
0.000200506
0.000227713
0.000243704
0.000245384
0.000246819
0.000247853
0.000248306
0.00024798
0.000246632
0.000243971
0.000239696
0.000233583
0.000211604
7.0377e-05
1.4887e-05
6.36747e-06
9.67998e-06
2.14143e-05
0.000119183
1.13438e-05
7.44405e-06
5.61463e-05
0.000103674
4.56888e-05
2.86268e-05
3.24386e-05
4.99275e-05
7.08624e-05
8.7209e-05
9.98992e-05
0.000111625
0.000124154
0.000138595
0.00015577
0.000176451
0.000201633
0.000231065
0.00024624
0.00024801
0.000249612
0.000250925
0.000251814
0.000252123
0.000251637
0.000250085
0.000247146
0.000242544
0.000147805
5.24165e-05
1.49376e-05
6.61548e-06
1.35014e-05
5.29865e-05
8.35435e-05
1.08898e-05
7.68787e-06
6.01473e-05
8.69907e-05
3.64854e-05
2.38283e-05
3.064e-05
5.28866e-05
7.6207e-05
9.24715e-05
0.000104947
0.000116673
0.000128772
0.000141716
0.00015587
0.000171517
0.000188729
0.000207066
0.000225517
0.000242816
0.000251938
0.00025334
0.000254457
0.000255182
0.000255369
0.000238493
0.000212748
0.000181276
0.000141818
8.58868e-05
3.22734e-05
1.06207e-05
9.36181e-06
3.34441e-05
6.84323e-05
1.00206e-05
7.66954e-06
5.27435e-05
9.0114e-05
4.10594e-05
2.44969e-05
2.60556e-05
4.01355e-05
5.96847e-05
7.71281e-05
9.11611e-05
0.000103739
0.000115962
0.000128326
0.000141161
0.00015469
0.000168901
0.000183384
0.000197219
0.000209118
0.000217831
0.000222556
0.000222873
0.000218563
0.000209732
0.000196819
0.000180201
0.000159776
0.000134779
0.000102751
6.13642e-05
2.39125e-05
9.08026e-06
1.75228e-05
9.76307e-05
9.79733e-06
7.39088e-06
4.20076e-05
9.79537e-05
6.76508e-05
3.54782e-05
2.47199e-05
2.48951e-05
3.16829e-05
4.52305e-05
6.43678e-05
8.43572e-05
0.000102321
0.000118521
0.000133563
0.000147999
0.000162236
0.000176385
0.000190075
0.000202389
0.000212206
0.000218572
0.000221006
0.00021953
0.000214329
0.000205588
0.000193403
0.000177444
0.000155745
0.000123652
7.87864e-05
3.5209e-05
1.16394e-05
1.19546e-05
6.78287e-05
1.03656e-05
6.99244e-06
3.34616e-05
8.63595e-05
9.99211e-05
7.38098e-05
4.12649e-05
2.64288e-05
2.09995e-05
2.11053e-05
2.82052e-05
4.53957e-05
7.08959e-05
9.72467e-05
0.000120933
0.000142484
0.000162555
0.000181536
0.000199484
0.000215742
0.000228721
0.00023685
0.000239584
0.00023714
0.000229898
0.000218016
0.000202134
0.000183423
0.000161362
0.000129945
8.09896e-05
3.42313e-05
1.36006e-05
1.34734e-05
6.70966e-05
1.08086e-05
6.58478e-06
2.86714e-05
7.66008e-05
0.000105557
0.000109226
9.06953e-05
5.32343e-05
2.94853e-05
1.85822e-05
1.50735e-05
1.86671e-05
3.31298e-05
6.21e-05
9.93765e-05
0.000135537
0.000168273
0.000198383
0.000226173
0.000245634
0.000249969
0.000253687
0.000256844
0.000259482
0.000256469
0.000235317
0.00020647
0.000174193
0.000141336
0.000107557
6.68079e-05
2.84714e-05
1.41409e-05
1.80413e-05
9.185e-05
1.09859e-05
6.48394e-06
2.74127e-05
7.95462e-05
0.000116109
0.00012134
0.00011921
0.000106019
6.33567e-05
2.88801e-05
1.52529e-05
1.15503e-05
1.5148e-05
2.99807e-05
6.24235e-05
0.000109704
0.000161825
0.000211914
0.000232434
0.000239553
0.000245753
0.000251007
0.000255313
0.000258684
0.000261154
0.000262243
0.000228455
0.000183659
0.000132326
8.11896e-05
4.47985e-05
2.29051e-05
1.52989e-05
2.54835e-05
0.000122449
1.12232e-05
6.73308e-06
2.89295e-05
8.54258e-05
0.000117733
0.000114047
0.000103255
9.74992e-05
8.91618e-05
5.06834e-05
2.11087e-05
1.11675e-05
1.0185e-05
1.72634e-05
3.76495e-05
7.48355e-05
0.000125074
0.000183274
0.000222225
0.000230897
0.000238733
0.000245606
0.000251425
0.000256106
0.000259577
0.000261787
0.000244678
0.000191246
0.000127067
6.38477e-05
3.03883e-05
1.85383e-05
1.67644e-05
3.5631e-05
0.000142649
1.17022e-05
7.06939e-06
3.17308e-05
9.02723e-05
0.000116305
0.000112073
9.64652e-05
8.01893e-05
6.86958e-05
5.36712e-05
2.76893e-05
1.27668e-05
8.66561e-06
1.25476e-05
2.70961e-05
5.4533e-05
8.97635e-05
0.00012771
0.000170103
0.000218794
0.000235801
0.000244737
0.000252517
0.000258922
0.000263738
0.000266779
0.00025642
0.000179169
9.77337e-05
4.01759e-05
1.96837e-05
1.81106e-05
2.51657e-05
5.9059e-05
0.000123054
1.20303e-05
7.15919e-06
3.29833e-05
9.31196e-05
0.000118328
0.00011562
0.000102648
8.60317e-05
7.04817e-05
5.44598e-05
3.28128e-05
1.52148e-05
7.86426e-06
9.04546e-06
2.0096e-05
3.87557e-05
6.1142e-05
9.27091e-05
0.000144052
0.00021967
0.000250128
0.000258643
0.000265932
0.00027183
0.000276071
0.000278354
0.000240081
0.000147046
6.90678e-05
2.77231e-05
1.48864e-05
1.92153e-05
4.6412e-05
0.000119127
6.42993e-05
1.14191e-05
7.1939e-06
3.34885e-05
9.83909e-05
0.000122825
0.000116332
0.000100786
8.57127e-05
7.50268e-05
6.48848e-05
4.61468e-05
2.21626e-05
9.22906e-06
5.45394e-06
1.04377e-05
2.4152e-05
4.42655e-05
7.83728e-05
0.0001327
0.000195939
0.000247176
0.000267735
0.000275454
0.000282179
0.000265678
0.00023672
0.000196613
0.00014272
8.07759e-05
3.61185e-05
1.75917e-05
1.67297e-05
4.151e-05
0.000112549
4.73099e-05
1.05488e-05
7.20154e-06
3.34989e-05
9.85849e-05
0.000123358
0.000116386
9.85683e-05
8.0312e-05
6.8312e-05
6.23702e-05
5.50034e-05
3.51323e-05
1.50348e-05
5.816e-06
4.44348e-06
1.13525e-05
2.54432e-05
4.83969e-05
8.9286e-05
0.000143472
0.000185769
0.000205083
0.000207394
0.000200769
0.000190883
0.00018026
0.000168188
0.000150638
0.000120685
7.72229e-05
3.97869e-05
2.30668e-05
2.5636e-05
6.63174e-05
6.0979e-05
1.02783e-05
7.25975e-06
3.42161e-05
9.9739e-05
0.000122443
0.00011411
9.65105e-05
7.96256e-05
6.84164e-05
6.23532e-05
5.70783e-05
4.50607e-05
2.37171e-05
9.24846e-06
3.18552e-06
3.65437e-06
1.20249e-05
2.73256e-05
5.41712e-05
0.000100607
0.000153802
0.000185131
0.000190211
0.000181911
0.000170486
0.000160377
0.000152648
0.000146029
0.000136796
0.000119664
9.02253e-05
5.33361e-05
2.7383e-05
3.07175e-05
0.000102377
1.05141e-05
7.34793e-06
3.50216e-05
0.000102844
0.000123873
0.000113093
9.28814e-05
7.51879e-05
6.57917e-05
6.38381e-05
6.44696e-05
5.85724e-05
3.89518e-05
1.71537e-05
5.67218e-06
1.21062e-06
3.04816e-06
1.30696e-05
3.09418e-05
6.46285e-05
0.000118935
0.000170178
0.000190375
0.00018537
0.000171322
0.000156529
0.000143431
0.000132156
0.000122019
0.000112578
9.87234e-05
6.65334e-05
3.06205e-05
2.87988e-05
0.000104105
1.14039e-05
7.40141e-06
3.55832e-05
0.000104796
0.000126063
0.000114834
9.36186e-05
7.46545e-05
6.43736e-05
6.28921e-05
6.74132e-05
7.08896e-05
6.02825e-05
3.24029e-05
1.23737e-05
2.87631e-06
1.39754e-06
3.37959e-06
1.56416e-05
3.88404e-05
8.59624e-05
0.000153986
0.000199885
0.000203926
0.000184205
0.000155103
0.000123492
9.84198e-05
8.66805e-05
8.41612e-05
7.72168e-05
5.52004e-05
3.63718e-05
4.78277e-05
0.000143186
1.22814e-05
7.45416e-06
3.66469e-05
0.000106582
0.000124702
0.000111369
8.92551e-05
7.10366e-05
6.19709e-05
6.14017e-05
6.71546e-05
7.49008e-05
7.43335e-05
5.33e-05
2.34218e-05
7.44254e-06
7.16689e-07
2.42655e-06
5.03877e-06
2.12509e-05
5.44454e-05
0.000119537
0.000185253
0.000201741
0.000175598
0.000131359
9.04766e-05
6.75383e-05
6.36872e-05
7.08779e-05
7.22848e-05
6.07961e-05
5.73783e-05
9.31676e-05
0.000134814
1.26507e-05
7.52327e-06
3.77864e-05
0.000107934
0.00012295
0.00010934
8.73058e-05
6.89987e-05
5.99559e-05
5.96667e-05
6.59375e-05
7.53688e-05
8.13941e-05
7.24684e-05
4.30672e-05
1.68048e-05
3.72578e-06
1.62045e-06
1.69435e-06
7.40768e-06
2.79461e-05
7.21121e-05
0.000138724
0.000169315
0.000150922
0.00011074
7.4481e-05
5.47053e-05
5.21349e-05
6.3104e-05
7.55809e-05
7.87316e-05
9.2283e-05
0.000144121
9.92952e-05
1.22609e-05
7.51869e-06
3.78544e-05
0.000107481
0.000122262
0.000109514
8.82813e-05
6.94665e-05
5.91404e-05
5.78628e-05
6.41788e-05
7.52485e-05
8.57411e-05
8.73144e-05
6.9457e-05
3.54286e-05
1.27469e-05
1.21742e-06
2.51209e-07
3.69619e-06
8.36061e-06
3.20071e-05
7.97671e-05
0.000128084
0.000132756
0.000106549
7.4991e-05
5.37756e-05
4.71391e-05
5.48898e-05
7.40649e-05
9.52931e-05
0.000122501
0.000160049
8.0413e-05
1.17358e-05
7.4766e-06
3.75617e-05
0.000107103
0.000122292
0.000109922
8.93197e-05
7.0226e-05
5.82334e-05
5.4591e-05
5.87783e-05
6.93195e-05
8.24633e-05
9.15307e-05
8.75431e-05
6.26326e-05
2.88521e-05
9.95204e-06
1.59667e-06
3.79781e-07
4.39258e-07
8.87042e-06
3.46661e-05
8.1393e-05
0.000113641
0.000108362
8.39245e-05
6.03256e-05
4.7413e-05
4.73553e-05
6.08948e-05
8.78769e-05
0.000123415
0.000151196
7.01841e-05
1.14594e-05
7.44526e-06
3.67077e-05
0.000105706
0.000122363
0.000111116
9.15981e-05
7.25928e-05
5.92048e-05
5.31414e-05
5.44747e-05
6.25362e-05
7.49678e-05
8.64923e-05
8.98036e-05
7.74769e-05
4.88072e-05
2.13223e-05
6.36691e-06
1.57586e-06
1.50336e-06
8.43211e-07
9.67298e-06
3.70479e-05
8.13485e-05
0.00010316
9.23786e-05
7.01512e-05
5.26451e-05
4.58366e-05
5.17491e-05
7.40676e-05
0.000113249
0.000143489
6.40909e-05
1.13751e-05
7.42876e-06
3.55938e-05
0.000103543
0.000121347
0.000109738
9.04301e-05
7.23418e-05
5.91973e-05
5.20284e-05
5.1401e-05
5.76339e-05
6.99672e-05
8.47994e-05
9.50397e-05
9.21838e-05
7.0588e-05
3.86514e-05
1.61294e-05
3.35996e-06
6.32115e-07
1.79222e-06
2.42239e-07
1.22648e-05
4.04542e-05
7.68245e-05
8.86514e-05
7.57248e-05
5.7955e-05
4.74401e-05
4.84701e-05
6.60756e-05
0.00010648
0.000142408
5.99602e-05
1.1286e-05
7.42559e-06
3.46962e-05
0.000102122
0.000120294
0.000106857
8.66163e-05
6.97804e-05
5.85479e-05
5.20044e-05
5.02662e-05
5.42591e-05
6.42185e-05
7.82388e-05
9.12104e-05
9.56546e-05
8.43686e-05
5.71664e-05
2.90251e-05
1.15493e-05
1.40635e-06
2.0004e-06
3.30605e-07
1.20599e-06
1.66502e-05
4.61662e-05
7.29118e-05
7.46294e-05
6.12576e-05
5.03318e-05
5.01143e-05
6.67441e-05
0.000107944
0.000144731
5.85201e-05
1.12355e-05
7.52652e-06
3.49134e-05
0.000103121
0.000118837
0.000102001
7.98855e-05
6.40513e-05
5.52388e-05
5.08941e-05
5.02703e-05
5.44234e-05
6.41737e-05
7.82031e-05
9.18918e-05
9.8214e-05
9.04695e-05
6.73378e-05
3.91657e-05
1.8523e-05
4.48268e-06
5.26556e-07
9.14958e-07
1.62653e-07
8.38464e-06
2.88871e-05
5.87811e-05
7.40238e-05
6.64589e-05
5.47792e-05
5.33082e-05
6.95219e-05
0.000110044
0.000145483
5.94219e-05
1.12772e-05
7.54289e-06
3.4905e-05
0.000102972
0.000115554
9.4866e-05
7.16117e-05
5.78691e-05
5.20921e-05
5.03214e-05
5.11614e-05
5.57302e-05
6.51702e-05
7.82944e-05
9.05694e-05
9.53985e-05
8.71537e-05
6.58823e-05
4.0679e-05
2.06595e-05
6.2292e-06
9.64815e-08
1.72494e-06
2.10377e-06
6.82374e-06
2.46021e-05
5.49033e-05
7.90141e-05
7.7495e-05
6.16851e-05
5.36604e-05
6.36838e-05
9.97027e-05
0.000141171
6.00421e-05
1.13988e-05
7.55752e-06
3.53416e-05
0.000103932
0.000111742
8.64729e-05
6.28889e-05
5.15311e-05
4.84002e-05
4.8989e-05
5.18788e-05
5.82798e-05
6.9343e-05
8.32797e-05
9.43851e-05
9.54791e-05
8.25075e-05
5.94133e-05
3.62901e-05
1.84333e-05
5.10762e-06
4.79281e-07
1.11733e-06
1.85483e-06
1.14671e-05
3.22981e-05
5.80426e-05
7.62682e-05
8.34125e-05
7.50378e-05
6.33713e-05
6.72905e-05
9.80984e-05
0.000144166
6.54746e-05
1.17701e-05
7.53535e-06
3.59061e-05
0.000105105
0.000107097
7.72619e-05
5.52801e-05
4.74667e-05
4.72989e-05
4.94014e-05
5.24192e-05
5.84066e-05
6.91965e-05
8.2995e-05
9.3362e-05
9.27476e-05
7.84837e-05
5.60496e-05
3.43009e-05
1.68423e-05
3.94492e-06
2.36316e-06
7.53675e-07
5.34252e-06
2.14218e-05
5.87504e-05
7.28344e-05
6.47603e-05
6.2364e-05
7.00832e-05
7.97832e-05
9.32112e-05
0.000123522
0.000154596
6.95072e-05
1.22055e-05
7.49915e-06
3.64209e-05
0.00010576
0.000100613
6.67983e-05
4.72914e-05
4.29309e-05
4.61355e-05
5.09271e-05
5.51257e-05
6.08056e-05
7.00721e-05
8.10401e-05
8.75159e-05
8.39729e-05
7.07528e-05
5.28976e-05
3.48302e-05
1.80459e-05
4.62987e-06
1.01927e-06
4.45964e-07
5.60672e-06
2.41309e-05
8.89221e-05
0.000122953
7.9966e-05
5.33565e-05
5.15785e-05
7.08856e-05
0.000107354
0.000142465
0.00014732
6.14163e-05
1.20384e-05
7.53499e-06
3.73887e-05
0.000105682
9.29367e-05
5.79437e-05
4.14887e-05
3.98436e-05
4.52777e-05
5.11989e-05
5.49919e-05
5.92093e-05
6.66568e-05
7.63831e-05
8.33884e-05
8.29775e-05
7.46909e-05
6.11824e-05
4.51002e-05
2.76965e-05
1.08414e-05
1.40025e-06
1.99502e-06
4.17822e-06
1.40046e-05
4.25671e-05
0.000109987
0.00013402
9.70288e-05
7.09415e-05
7.03913e-05
9.58719e-05
0.000132309
0.000130822
5.03081e-05
1.09873e-05
7.58486e-06
3.84447e-05
0.000104534
8.47201e-05
5.0189e-05
3.63226e-05
3.68557e-05
4.51151e-05
5.40002e-05
5.87946e-05
6.13019e-05
6.51561e-05
7.10507e-05
7.64405e-05
7.85308e-05
7.66717e-05
7.1262e-05
6.1997e-05
4.79951e-05
2.97765e-05
1.18595e-05
1.84909e-06
3.69992e-07
4.61968e-06
1.53141e-05
3.48123e-05
6.58506e-05
0.00011105
0.000146938
0.000154129
0.00015509
0.000160495
0.000133418
4.38792e-05
9.80228e-06
7.66489e-06
3.91443e-05
0.000103141
8.13117e-05
4.71499e-05
3.34978e-05
3.39594e-05
4.25244e-05
5.24338e-05
5.8264e-05
6.07678e-05
6.34952e-05
6.83043e-05
7.42193e-05
7.88111e-05
8.06235e-05
7.96868e-05
7.60812e-05
6.89377e-05
5.70476e-05
4.03956e-05
2.19347e-05
8.20798e-06
2.87108e-06
4.20035e-06
1.01746e-05
2.00359e-05
3.52154e-05
5.88178e-05
0.000105474
0.000165238
0.000159146
0.00011671
4.22852e-05
9.43942e-06
7.71336e-06
3.93011e-05
0.000101471
8.11298e-05
4.66677e-05
3.14327e-05
3.05481e-05
3.91498e-05
5.19276e-05
6.16457e-05
6.57623e-05
6.7067e-05
6.892e-05
7.25719e-05
7.72111e-05
8.13461e-05
8.39361e-05
8.43891e-05
8.22346e-05
7.69147e-05
6.80156e-05
5.5521e-05
3.99743e-05
2.40691e-05
1.23821e-05
6.75792e-06
6.03938e-06
9.27078e-06
1.60313e-05
2.4694e-05
4.73733e-05
0.000111983
0.000116024
4.61034e-05
9.79811e-06
7.75075e-06
3.8671e-05
0.00010048
8.71864e-05
5.21709e-05
3.23179e-05
2.77071e-05
3.31695e-05
4.47952e-05
5.67446e-05
6.4999e-05
6.99352e-05
7.37567e-05
7.8102e-05
8.33254e-05
8.88032e-05
9.35552e-05
9.66154e-05
9.71832e-05
9.48585e-05
8.9636e-05
8.17635e-05
7.15612e-05
5.92206e-05
4.51609e-05
3.09595e-05
1.90903e-05
1.11395e-05
7.32396e-06
7.25982e-06
5.88427e-06
1.83277e-05
6.43766e-05
5.7382e-05
1.05916e-05
7.76844e-06
3.79447e-05
9.98458e-05
9.3492e-05
5.99638e-05
3.5153e-05
2.6325e-05
2.86195e-05
3.92642e-05
5.37673e-05
6.58412e-05
7.3255e-05
7.8215e-05
8.34193e-05
9.00715e-05
9.79037e-05
0.000105706
0.000111944
0.000115373
0.000115463
0.000112374
0.000106617
9.8664e-05
8.87353e-05
7.68017e-05
6.29826e-05
4.82727e-05
3.47753e-05
2.44311e-05
1.74655e-05
1.64062e-06
4.48956e-06
2.39433e-05
7.14603e-05
1.15951e-05
7.84214e-06
3.78965e-05
0.000100768
9.82498e-05
6.78718e-05
4.03308e-05
2.7151e-05
2.53547e-05
3.23571e-05
4.58627e-05
6.13113e-05
7.41891e-05
8.36507e-05
9.15247e-05
9.96433e-05
0.000108541
0.000117386
0.000124639
0.000128987
0.000129885
0.000127519
0.000122467
0.000115296
0.000106168
9.46151e-05
8.02117e-05
6.38977e-05
4.88216e-05
3.94041e-05
3.38508e-05
1.016e-05
1.15786e-06
1.71341e-05
8.15791e-05
1.19541e-05
7.86505e-06
3.79384e-05
0.000102081
0.000100767
7.21531e-05
4.52346e-05
2.97917e-05
2.50414e-05
2.92305e-05
4.08272e-05
5.61913e-05
7.06179e-05
8.23905e-05
9.27951e-05
0.000103299
0.000113881
0.000123098
0.000129246
0.000131436
0.000129865
0.000125305
0.000118568
0.000110308
0.000100427
8.77557e-05
7.22686e-05
5.7213e-05
4.59697e-05
4.13605e-05
4.48917e-05
4.17068e-05
6.5304e-06
1.17001e-05
9.7781e-05
1.19391e-05
7.90296e-06
3.81829e-05
0.000103553
0.000100925
7.21521e-05
4.75247e-05
3.23011e-05
2.54672e-05
2.69408e-05
3.66581e-05
5.26147e-05
6.99521e-05
8.48479e-05
9.72962e-05
0.000108672
0.000118982
0.000126673
0.000130157
0.000129239
0.000124863
0.000117984
0.000109611
0.000100034
8.70687e-05
6.91603e-05
5.28816e-05
4.44723e-05
4.32583e-05
4.86679e-05
6.61875e-05
9.45496e-05
1.40534e-05
8.67721e-06
5.66085e-05
1.3087e-05
7.83389e-06
3.7872e-05
0.000104222
9.87837e-05
6.84251e-05
4.7146e-05
3.4853e-05
2.76267e-05
2.68965e-05
3.43706e-05
4.95973e-05
6.9036e-05
8.85117e-05
0.000106621
0.00012319
0.000136439
0.00014382
0.000144806
0.000140513
0.000132213
0.000121478
0.000107934
8.73059e-05
6.01417e-05
4.22514e-05
3.78707e-05
4.27552e-05
5.39437e-05
6.81272e-05
7.47697e-05
4.3318e-05
1.2375e-05
1.68645e-05
0.000106614
1.43595e-05
7.78237e-06
3.72602e-05
0.000104581
9.42829e-05
6.11963e-05
4.38554e-05
3.58632e-05
2.98809e-05
2.7822e-05
3.36495e-05
4.88841e-05
7.12077e-05
9.61236e-05
0.000121933
0.000148743
0.000172841
0.000187273
0.00018961
0.000183134
0.000169275
0.000141778
9.62103e-05
5.24795e-05
3.21735e-05
2.99694e-05
3.8551e-05
5.26592e-05
6.30634e-05
5.97428e-05
4.29984e-05
2.66623e-05
2.20679e-05
5.15769e-05
0.000106452
1.44831e-05
7.72944e-06
3.64832e-05
0.000103877
8.35863e-05
4.98059e-05
3.81906e-05
3.59642e-05
3.29798e-05
3.01077e-05
3.38171e-05
4.82933e-05
7.37502e-05
0.00010635
0.000144135
0.000188484
0.00022227
0.000220656
0.000218353
0.000215453
0.000212184
0.000127226
5.81976e-05
2.9704e-05
2.27199e-05
2.86762e-05
4.52362e-05
5.79192e-05
5.33782e-05
4.53787e-05
3.86497e-05
3.73708e-05
5.55708e-05
0.000139344
5.45134e-05
1.26151e-05
7.76797e-06
3.5805e-05
0.0001022
6.98867e-05
3.89023e-05
3.23934e-05
3.48723e-05
3.55743e-05
3.32129e-05
3.51178e-05
4.74559e-05
7.24713e-05
0.000106832
0.000145908
0.000188439
0.000220616
0.000218772
0.000216075
0.000212553
0.000169809
9.10016e-05
4.37559e-05
2.35252e-05
1.87132e-05
2.47201e-05
4.32681e-05
6.01218e-05
5.08714e-05
4.42821e-05
4.82902e-05
6.59263e-05
0.00011336
0.000130775
4.00567e-05
1.0607e-05
7.95265e-06
3.65493e-05
9.98324e-05
5.27291e-05
2.87901e-05
2.73972e-05
3.4604e-05
3.91934e-05
3.78024e-05
3.85389e-05
4.88221e-05
7.19916e-05
0.000104653
0.000139471
0.000171285
0.000196002
0.000208314
0.000202613
0.000176468
0.000133788
8.55898e-05
4.67712e-05
2.49212e-05
1.68786e-05
1.81988e-05
2.91543e-05
5.14337e-05
6.09036e-05
5.42243e-05
6.17427e-05
9.4424e-05
0.000142121
0.000115432
3.64655e-05
9.71689e-06
8.16727e-06
3.83806e-05
9.42286e-05
3.89922e-05
2.19244e-05
2.41551e-05
3.4869e-05
4.24148e-05
4.26019e-05
4.33807e-05
5.23677e-05
7.31825e-05
0.000102822
0.00013369
0.000160004
0.000178077
0.000184484
0.000177178
0.000157157
0.000128159
9.44653e-05
6.09941e-05
3.47766e-05
2.00382e-05
1.51507e-05
1.77324e-05
2.86208e-05
5.06576e-05
7.02689e-05
8.23603e-05
0.000111924
0.000145079
0.000116346
3.71543e-05
9.64778e-06
8.38478e-06
4.19798e-05
8.45096e-05
3.0312e-05
1.7733e-05
2.26752e-05
3.6967e-05
4.61346e-05
4.72936e-05
4.89381e-05
5.76651e-05
7.63944e-05
0.000102663
0.000130151
0.000153489
0.000169165
0.000174767
0.000169219
0.000154019
0.000132407
0.000107305
8.04166e-05
5.38777e-05
3.22029e-05
1.91849e-05
1.44251e-05
1.62428e-05
2.58936e-05
5.02167e-05
8.89828e-05
0.000120048
0.000139776
0.000118209
3.92995e-05
9.92126e-06
8.39184e-06
4.33034e-05
7.88725e-05
2.73261e-05
1.50239e-05
1.96587e-05
3.59583e-05
4.82901e-05
5.18099e-05
5.4729e-05
6.33276e-05
8.00589e-05
0.000103024
0.000127343
0.00014853
0.000163427
0.000169831
0.000166844
0.000155604
0.000138788
0.00011902
9.77562e-05
7.5387e-05
5.27218e-05
3.28898e-05
1.97324e-05
1.39929e-05
1.47423e-05
2.43838e-05
5.2763e-05
0.000100684
0.000126278
0.000115874
4.13512e-05
1.0287e-05
8.39589e-06
4.38184e-05
8.31364e-05
3.04936e-05
1.43743e-05
1.59098e-05
3.03997e-05
4.56257e-05
5.3107e-05
5.86218e-05
6.81052e-05
8.39379e-05
0.000104834
0.000127078
0.000146915
0.000161532
0.000168908
0.000168086
0.000159739
0.000145973
0.000129164
0.00011098
9.21102e-05
7.25124e-05
5.23433e-05
3.36716e-05
2.01249e-05
1.34964e-05
1.40697e-05
2.57844e-05
5.96465e-05
0.000104388
0.000112583
4.31042e-05
1.0653e-05
8.32544e-06
4.33463e-05
8.59025e-05
3.59446e-05
1.49464e-05
1.25545e-05
2.31617e-05
4.00757e-05
5.20184e-05
6.02846e-05
7.04311e-05
8.53157e-05
0.000104398
0.000124937
0.000143791
0.000158389
0.000166826
0.000168027
0.00016223
0.000150984
0.000136333
0.000119964
0.000102883
8.54592e-05
6.75979e-05
4.92937e-05
3.19381e-05
1.88187e-05
1.26264e-05
1.53746e-05
3.21631e-05
7.42615e-05
0.000109232
4.50934e-05
1.10082e-05
8.27867e-06
4.43641e-05
8.99591e-05
4.92519e-05
2.09233e-05
1.25318e-05
1.62647e-05
2.84109e-05
4.19952e-05
5.36972e-05
6.54771e-05
8.00267e-05
9.78471e-05
0.000117322
0.000135959
0.000151357
0.000161551
0.000165243
0.000162193
0.000153421
0.000140665
0.000125592
0.000109377
9.2704e-05
7.58639e-05
5.88753e-05
4.18973e-05
2.62813e-05
1.53646e-05
1.26145e-05
2.09851e-05
5.10647e-05
0.000104323
4.71348e-05
1.13171e-05
8.02938e-06
4.25131e-05
9.50191e-05
7.55443e-05
3.92239e-05
1.8862e-05
1.34313e-05
1.68042e-05
2.58812e-05
3.8767e-05
5.32684e-05
6.90988e-05
8.69473e-05
0.000106433
0.000125883
0.000143067
0.000155795
0.000162373
0.000162082
0.000155487
0.000144109
0.000129652
0.00011347
9.64815e-05
7.9268e-05
6.21855e-05
4.562e-05
3.02883e-05
1.81701e-05
1.27886e-05
1.73853e-05
4.11109e-05
0.00010181
4.77417e-05
1.14797e-05
7.76121e-06
3.91268e-05
9.70408e-05
0.000105141
8.42903e-05
4.29936e-05
2.10359e-05
1.40469e-05
1.39718e-05
1.95923e-05
3.15523e-05
4.8875e-05
6.9331e-05
9.1389e-05
0.000113795
0.000134617
0.000151373
0.000161732
0.000164357
0.000159492
0.000148698
0.000133954
0.000116922
9.87491e-05
8.02254e-05
6.19818e-05
4.48545e-05
3.00183e-05
1.88928e-05
1.35066e-05
1.71534e-05
4.02171e-05
0.000105489