/*--------------------------------*- C++ -*----------------------------------*\
| =========                 |                                                 |
| \\      /  F ield         | OpenFOAM: The Open Source CFD Toolbox           |
|  \\    /   O peration     | Version:  v2006                                 |
|   \\  /    A nd           | Website:  www.openfoam.com                      |
|    \\/     M anipulation  |                                                 |
\*---------------------------------------------------------------------------*/
FoamFile
{
    version     2.0;
    format      ascii;
    class       volScalarField;
    location    "41";
    object      omega;
}
// * * * * * * * * * * * * * * * * * * * * * * * * * * * * * * * * * * * * * //

dimensions      [0 0 -1 0 0 0 0];


internalField   nonuniform List<scalar> 
78750
(
2401.53
358.078
247.754
140.869
65.5246
21.7029
23.0608
21.1492
21.9657
20.953
21.5149
20.8143
21.2415
20.883
20.8823
20.813
20.7376
20.6396
20.5117
20.3592
20.1958
20.038
19.8991
19.7846
19.7038
19.6681
19.6894
19.776
19.928
20.1476
20.449
20.8372
21.2786
21.7492
545.35
689.538
37.3505
26.0866
16.0786
11.4534
14.115
12.6457
12.7567
11.9609
11.8754
11.3259
11.1805
10.8704
10.7621
10.7402
10.8572
11.1121
11.393
11.5636
11.6031
11.5289
11.3666
11.1381
10.8634
10.5698
10.2826
10.0243
9.81365
9.66258
9.57801
9.56283
9.62105
9.78188
10.1234
804.548
421.342
12.6383
16.0716
15.4201
14.022
14.0588
14.3221
14.2134
14.013
13.5481
13.0253
12.2983
11.4776
10.5092
9.43982
8.33381
7.7473
8.72142
10.005
10.8556
11.3606
11.6547
11.7967
11.8109
11.7168
11.5359
11.2934
11.0116
10.7071
10.3943
10.0862
9.78482
9.50136
9.82033
807.851
411.106
10.2732
10.6695
11.7416
12.9298
13.6815
14.1687
14.5298
14.7355
14.8138
14.7252
14.4811
14.0575
13.4217
12.4903
11.0071
8.02507
5.93488
7.9038
9.86281
11.0249
11.6696
12.0406
12.2497
12.332
12.3002
12.1586
11.9243
11.6258
11.2888
10.9293
10.5365
10.0878
10.5086
811.063
414.623
13.9656
15.413
15.8153
15.821
15.684
15.4753
15.192
14.8174
14.3328
13.7533
13.1117
12.4479
11.7858
11.1208
10.3852
9.49994
9.25513
10.3315
11.2203
11.8041
12.2085
12.4936
12.6826
12.7808
12.784
12.6841
12.4786
12.175
11.7892
11.3365
10.8019
10.24
11.3652
814.536
414.849
12.9833
14.2256
14.8426
15.2589
15.6031
15.9003
16.1199
16.2051
16.0904
15.7143
15.0454
14.0997
12.9333
11.6389
10.3641
9.0605
7.88418
8.95839
10.4681
11.4197
12.0151
12.4397
12.7669
13.009
13.1559
13.196
13.1226
12.9327
12.6256
12.1929
11.5811
10.8332
12.024
816.752
418.643
14.423
15.0818
15.2741
15.3356
15.3318
15.294
15.2478
15.1991
15.1201
14.956
14.6464
14.1385
13.389
12.374
11.1461
9.86976
8.81629
8.77017
9.89461
10.911
11.6177
12.1455
12.5788
12.9335
13.1983
13.3607
13.4116
13.3426
13.1417
12.7757
12.1447
11.3414
13.0208
819.396
418.184
13.7281
14.7267
15.1491
15.3841
15.5388
15.6354
15.6811
15.6886
15.6692
15.6103
15.4726
15.2169
14.8133
14.2049
13.2611
11.8441
9.66121
6.31066
5.57242
7.63218
9.39836
10.565
11.382
12.0069
12.5098
12.8962
13.1577
13.2876
13.2779
13.1032
12.6835
12.105
13.7963
820.979
421.118
14.9073
15.5706
15.8206
15.9414
15.9781
15.9392
15.8349
15.682
15.4992
15.2946
15.0555
14.7562
14.3815
13.9282
13.3768
12.6567
11.6405
10.2203
7.9547
5.76478
6.77932
8.47232
9.85118
10.8584
11.6265
12.2281
12.6875
12.9974
13.1436
13.0898
12.753
12.4914
14.7851
823.131
421.254
14.5321
15.2787
15.6232
15.8353
15.9797
16.0679
16.0984
16.0696
15.9877
15.8662
15.7147
15.5262
15.2811
14.9615
14.5485
14.0028
13.2421
12.144
10.5975
8.10332
4.98519
3.48796
6.07307
8.16237
9.63476
10.7083
11.543
12.1871
12.6565
12.9399
12.9881
13.1208
15.4865
824.185
422.695
15.012
15.6069
15.8862
16.0567
16.1547
16.1884
16.1631
16.0846
15.9591
15.7929
15.5943
15.3698
15.1205
14.8454
14.5469
14.2205
13.8395
13.3387
12.5806
11.3957
9.55868
6.56222
4.68194
4.43453
6.7336
8.56437
9.90056
10.8926
11.6634
12.2323
12.5859
13.1781
16.231
826.155
422.292
14.9934
15.7847
16.1594
16.386
16.5297
16.6079
16.629
16.6002
16.5304
16.4285
16.3004
16.1466
15.9628
15.7397
15.4703
15.1571
14.8079
14.4206
13.9689
13.3808
12.4932
11.0617
8.67074
5.11534
4.3001
3.90281
6.66167
8.74263
10.2349
11.4184
12.5287
14.2079
17.1421
826.607
423.357
15.5418
16.2692
16.5867
16.7644
16.8575
16.8777
16.8308
16.7256
16.5788
16.4128
16.2473
16.0902
15.9365
15.7726
15.5821
15.3529
15.0823
14.7706
14.4096
13.975
13.416
12.6068
11.334
9.28485
5.7381
3.90398
5.27813
5.08428
7.77559
9.7937
11.186
13.0029
17.2597
828.775
423.947
15.6658
16.447
16.8008
17.0022
17.1145
17.1522
17.1208
17.027
16.8859
16.7237
16.5679
16.4337
16.3182
16.2067
16.081
15.9237
15.7242
15.4807
15.1962
14.8685
14.4831
14.0083
13.3682
12.3946
10.7348
7.60241
4.47403
4.54672
3.87567
8.02891
12.0123
15.1668
18.5319
828.66
424.878
16.0112
16.7559
17.0921
17.274
17.3558
17.3474
17.2515
17.076
16.8451
16.602
16.3948
16.2525
16.1727
16.1301
16.0945
16.0409
15.9514
15.8154
15.6284
15.3867
15.0832
14.7048
14.2296
13.6117
12.7435
11.4032
9.06637
5.67458
4.44176
4.23662
6.51666
13.5305
18.3104
830.301
425.842
16.1228
16.8365
17.1854
17.3856
17.484
17.4878
17.3975
17.2177
16.9682
16.69
16.4376
16.257
16.1637
16.1398
16.1512
16.1647
16.1559
16.1093
16.0168
15.8751
15.6742
15.3941
15.0119
14.4971
13.806
12.8283
11.3411
8.44936
3.98542
4.77208
10.2387
12.4532
18.308
832.794
426.547
16.3664
17.0035
17.2936
17.4462
17.5014
17.4643
17.3385
17.1362
16.8821
16.6138
16.3754
16.2044
16.1187
16.1095
16.1492
16.2066
16.2572
16.2832
16.2716
16.2117
16.0911
15.8932
15.5982
15.1806
14.5754
13.6435
12.2229
9.98699
6.11371
6.92049
12.6568
18.187
21.3266
832.51
428.283
16.6989
17.1849
17.3715
17.4336
17.4012
17.2889
17.1142
16.8972
16.6647
16.4481
16.2772
16.1708
16.1334
16.156
16.2197
16.3033
16.3892
16.4636
16.516
16.5375
16.5188
16.4493
16.3174
16.1085
15.8027
15.3677
14.7465
13.8416
12.5413
10.4794
8.00498
16.3574
20.3728
828.549
429.736
17.0887
17.435
17.4943
17.4128
17.2339
17.0224
16.8116
16.609
16.4251
16.2774
16.1826
16.1489
16.1733
16.2424
16.3378
16.443
16.5456
16.6362
16.7075
16.7519
16.7607
16.7241
16.633
16.4778
16.2462
15.9181
15.4761
14.9434
14.2101
12.1686
6.40015
10.7411
17.6962
832.192
432.38
17.6672
17.7917
17.6445
17.2918
16.8826
16.5917
16.4126
16.2947
16.217
16.1771
16.1759
16.2126
16.2838
16.3822
16.497
16.6165
16.7311
16.8333
16.918
16.9783
17.0034
16.9812
16.8996
16.7468
16.5147
16.2059
15.8272
15.3461
14.466
12.8983
11.1147
13.1032
19.5051
838.98
434.698
18.19
18.1323
17.7383
16.995
16.4056
16.1858
16.141
16.1409
16.1545
16.1842
16.2365
16.3135
16.4129
16.5288
16.6533
16.7767
16.8927
16.9986
17.0889
17.1537
17.1814
17.1594
17.0719
16.9002
16.6245
16.2299
15.698
14.8131
12.8728
11.7914
15.033
17.842
22.2423
839.326
438.059
18.7945
18.4825
17.7226
16.4822
15.8473
15.823
15.9564
16.0921
16.2048
16.299
16.3862
16.477
16.5779
16.6904
16.8122
16.9364
17.0557
17.1677
17.2692
17.3527
17.4098
17.4309
17.4027
17.3083
17.1275
16.841
16.3753
15.5135
14.0012
13.1145
17.2186
20.8
23.4882
835.387
440.028
19.0862
18.6222
17.5604
15.9505
15.3019
15.3924
15.6299
15.8719
16.0897
16.2772
16.4381
16.5803
16.712
16.839
16.9637
17.0863
17.2053
17.3179
17.4207
17.5099
17.5813
17.6288
17.6436
17.6121
17.5137
17.318
16.9824
16.4291
15.489
14.2709
15.5354
21.0388
23.1497
830.788
440.903
19.3485
18.8815
17.8628
16.1749
15.143
14.9864
15.1758
15.4651
15.7639
16.0411
16.2859
16.5001
16.6903
16.8625
17.0201
17.1657
17.3005
17.4242
17.5359
17.6345
17.7181
17.7835
17.8256
17.8359
17.8014
17.7017
17.5061
17.1648
16.5827
15.5735
14.4975
18.1196
21.2449
830.034
439.364
19.4097
19.2374
18.6762
17.4822
15.9611
14.9327
14.5561
14.6595
15.0032
15.4078
15.7892
16.1298
16.4296
16.6934
16.9273
17.1365
17.3246
17.494
17.6465
17.783
17.9034
18.0061
18.0878
18.1426
18.1615
18.1307
18.0298
17.8233
17.4298
16.6358
15.1905
16.0026
20.0756
833.276
436.982
19.5472
19.8212
19.7581
19.3831
18.3672
16.8409
15.316
14.2715
14.0004
14.3143
14.8294
15.3428
15.7985
16.1974
16.5456
16.8504
17.1179
17.3533
17.5616
17.7472
17.9131
18.0614
18.1917
18.3018
18.3864
18.4349
18.4293
18.3373
18.0758
17.3604
16.2308
16.7139
20.5971
835.941
434.576
19.304
19.8793
20.0945
20.1631
20.0182
19.3212
17.8601
15.8388
13.9867
13.2367
13.5256
14.1907
14.8596
15.4445
15.9491
16.3841
16.7564
17.0701
17.3359
17.5636
17.7569
17.9182
18.0491
18.1528
18.2318
18.2845
18.3054
18.2773
18.135
17.5463
16.9757
18.33
21.8117
837.733
434.978
19.0251
19.5075
19.6882
19.7786
19.828
19.7849
19.323
17.8624
15.3483
13.0669
12.3356
12.836
13.6815
14.4793
15.1674
15.7534
16.255
16.6942
17.0774
17.4022
17.6678
17.8746
18.0244
18.1199
18.167
18.1694
18.1242
18.0257
17.9146
17.6974
17.9216
20.3101
23.4546
840.468
437.918
19.2702
19.5425
19.587
19.5225
19.3699
19.1597
18.8921
18.2305
16.2658
13.3565
11.573
11.6159
12.4823
13.4325
14.2847
15.0055
15.6119
16.1494
16.636
17.0634
17.4253
17.7158
17.9296
18.0629
18.1167
18.0909
17.9679
17.699
17.3928
17.6897
18.7853
22.0973
25.1827
844.34
441.309
19.8697
20.0622
20.0914
20.0073
19.7806
19.3707
18.7749
17.9556
16.4363
13.533
10.9585
10.5469
11.3944
12.452
13.4295
14.3125
15.1163
15.8284
16.4551
17.0156
17.5047
17.9074
18.2089
18.3962
18.4632
18.402
18.1515
17.5982
17.1928
18.5792
20.4521
23.1963
25.9692
845.937
441.995
19.839
20.0174
20.0974
20.1033
20.0043
19.7376
19.222
18.3701
16.9498
14.2387
10.7444
9.58234
10.5721
12.0293
13.4822
14.7999
15.8837
16.714
17.3543
17.891
18.3531
18.7294
19.0022
19.1508
19.1593
18.9839
18.5215
17.7354
17.4747
19.8798
22.832
24.2869
26.0297
841.749
442.206
19.6765
19.7956
19.8587
19.8703
19.8084
19.6349
19.3002
18.7347
17.7469
15.759
11.9464
8.76333
9.22038
11.3035
13.426
15.1658
16.3889
17.237
17.8914
18.4463
18.939
19.3741
19.7325
19.9771
20.0608
19.9295
19.5157
18.7836
18.1767
19.4473
22.9897
24.8914
26.1111
836.671
442.26
19.6978
19.8492
19.923
19.9296
19.8485
19.6429
19.274
18.7213
17.9468
16.6846
13.9838
9.61447
7.51234
9.07707
11.7675
14.1592
15.8608
16.9625
17.7287
18.3523
18.9173
19.4523
19.952
20.3861
20.7055
20.8531
20.7736
20.4191
19.8095
19.4055
20.4834
22.9345
24.6259
834.31
442.415
19.7829
19.9188
19.9809
19.9826
19.9072
19.7234
19.3916
18.8727
18.127
17.0375
15.1922
11.4679
7.16822
6.51854
9.10229
12.2328
14.6664
16.2529
17.2574
17.9746
18.5806
19.1498
19.7056
20.2424
20.7337
21.1364
21.3978
21.4616
21.2703
20.7735
20.0012
20.3272
22.5802
835.749
442.967
19.8383
19.9267
19.9687
19.9605
19.8826
19.7087
19.4202
19.0085
18.4462
17.6452
16.3503
13.8139
9.12492
5.12196
5.899
9.45225
12.8708
15.2214
16.6369
17.5294
18.1939
18.775
19.3317
19.8839
20.4333
20.9697
21.4635
21.8537
22.0414
21.8572
20.9417
20.8223
23.4495
841.578
443.403
19.8184
19.8659
19.8959
19.8887
19.8235
19.6749
19.4259
19.0813
18.6472
18.0888
17.2552
15.722
12.2986
6.78076
5.10472
5.96606
10.3163
13.8318
15.9818
17.1972
17.9718
18.5804
19.1364
19.6904
20.2785
20.9368
21.6608
22.3122
22.7092
22.7276
22.458
23.4762
26.0819
847.039
443.864
19.8134
19.7938
19.7808
19.7359
19.6342
19.4554
19.1954
18.8668
18.4768
18.0104
17.4002
16.4141
14.3768
9.82981
4.62382
5.57821
6.79237
11.7971
15.0507
16.8009
17.806
18.5101
19.1205
19.7294
20.403
21.2224
22.2316
23.1681
23.7396
24.0257
24.4181
25.6502
27.622
848.074
444.44
19.9187
19.8763
19.8523
19.7968
19.6786
19.4742
19.1885
18.8512
18.4759
18.0511
17.5399
16.8353
15.6241
12.9401
7.29828
5.30304
5.08902
8.05558
13.2679
16.1242
17.5704
18.4666
19.1688
19.8292
20.5333
21.3914
22.5251
23.7045
24.4778
24.9619
25.5313
26.4152
27.7016
845.137
444.301
19.8316
19.7897
19.7778
19.7405
19.6449
19.4662
19.2095
18.9158
18.6106
18.2775
17.8822
17.3703
16.5957
15.1432
11.7779
5.14792
4.20359
6.28741
8.70359
14.2024
16.8546
18.2078
19.098
19.8336
20.5446
21.3427
22.4033
23.7262
24.8286
25.5062
26.0273
26.5799
27.4021
842.672
443.81
19.7383
19.7108
19.7043
19.6681
19.57
19.3838
19.1103
18.7978
18.4993
18.2153
17.9078
17.5296
17.0098
16.1611
14.4488
10.5563
5.42164
4.29744
4.29556
9.17262
14.8505
17.3815
18.7205
19.6349
20.3894
21.1009
21.9059
22.9888
24.2222
25.1858
25.8231
26.3263
27.0736
842.366
443.511
19.7942
19.802
19.8123
19.7888
19.7016
19.5217
19.2394
18.893
18.5507
18.2406
17.9357
17.5882
17.1407
16.4973
15.4081
13.1893
8.5726
5.25892
5.03824
4.65672
9.73148
15.3456
17.8781
19.2722
20.256
21.0698
21.8188
22.6371
23.6542
24.6776
25.4374
26.0246
26.902
843.132
443.433
19.7944
19.8026
19.8156
19.7988
19.723
19.5588
19.2913
18.9485
18.6041
18.3112
18.0548
17.7859
17.4506
16.9768
16.2151
14.8149
11.9386
6.54919
4.47401
5.27961
4.10447
10.934
15.7447
18.2088
19.7085
20.8189
21.7439
22.5709
23.413
24.3052
25.0754
25.7292
26.733
843.511
443.673
19.8431
19.8352
19.8356
19.807
19.7194
19.5439
19.2665
18.9085
18.5373
18.2223
17.9698
17.7348
17.4641
17.1023
16.563
15.6292
13.8071
10.1971
4.97409
5.2985
4.32367
5.11879
12.3458
16.4106
18.7199
20.273
21.4951
22.5697
23.5408
24.4003
25.1038
25.7322
26.7405
843.713
445.008
20.0118
19.9322
19.8959
19.8404
19.7283
19.528
19.2267
18.8459
18.449
18.1108
17.8503
17.6258
17.3812
17.0627
16.5972
15.826
14.4252
11.802
6.76159
4.31898
4.81559
4.22405
10.0179
14.8308
17.7602
19.6265
21.0174
22.2469
23.4545
24.5388
25.3226
25.9343
26.8909
844.267
445.821
20.0018
19.8684
19.8016
19.7163
19.5729
19.3483
19.0432
18.6766
18.2919
17.9486
17.6694
17.4216
17.1523
16.8056
16.3036
15.4911
14.0991
11.7032
7.37104
3.97642
5.56087
6.41043
9.62154
14.2528
17.2595
19.2167
20.5531
21.5596
22.5534
23.6435
24.6088
25.3947
26.5769
845.34
446.813
20.114
19.9297
19.819
19.6812
19.4727
19.1806
18.8209
18.4248
18.0395
17.7143
17.4548
17.2141
16.9308
16.5403
15.9468
14.9668
13.3455
10.7693
6.71182
4.35052
5.25819
6.38319
11.9213
15.1682
17.4145
19.2867
20.8719
22.0076
22.7627
23.4805
24.2779
25.1326
26.5818
847.126
447.361
20.1193
19.8885
19.7404
19.5623
19.3183
19.0149
18.6534
18.2356
17.8024
17.4216
17.1203
16.8523
16.5416
16.1061
15.4324
14.3278
12.5754
9.90936
6.13352
5.88292
4.95726
9.64233
15.0898
17.2217
18.1662
19.2784
20.9149
22.7866
24.128
24.8913
25.5263
26.266
27.6335
848.562
447.574
20.1203
19.8289
19.6161
19.3614
19.0515
18.7413
18.4211
18.0511
17.64
17.2408
16.8948
16.5763
16.211
15.7065
14.9439
13.7678
12.0247
9.56792
6.35225
4.97171
4.55227
10.0901
16.87
20.0459
20.3253
20.2537
20.5854
21.9564
23.9345
25.428
26.3718
27.1619
28.2996
846.475
448.001
20.1895
19.8266
19.547
19.2145
18.8437
18.5365
18.25
17.9048
17.4957
17.0729
16.6927
16.3531
15.9926
15.5283
14.8663
13.8952
12.5037
10.601
8.04186
5.15304
6.17771
8.77616
14.857
20.3473
22.9079
23.4891
23.1778
22.7908
23.1165
24.1252
25.1365
26.0035
26.9773
839.347
448.024
20.137
19.7022
19.3563
18.9438
18.5188
18.2543
18.0744
17.8397
17.5137
17.1245
16.7306
16.3654
16.0096
15.6111
15.1114
14.4514
13.5675
12.3774
10.7741
8.56534
5.73417
4.40949
8.75705
15.0561
20.2751
23.7509
25.823
26.5578
26.357
25.8409
25.6965
25.7944
25.9841
831.931
447.997
20.1372
19.6644
19.2774
18.7998
18.2934
18.014
17.8985
17.7567
17.5233
17.2075
16.8544
16.5112
16.1946
15.8839
15.5449
15.148
14.6626
14.0481
13.2375
12.1224
10.5615
8.49521
6.71863
7.91236
11.9778
16.5423
20.8127
24.2794
26.8505
28.2581
28.1291
27.7872
27.1653
829.976
447.423
20.053
19.5854
19.1924
18.6799
18.0711
17.7109
17.6479
17.6346
17.5498
17.3723
17.1203
16.8348
16.5549
16.2911
16.0383
15.7848
15.5151
15.2094
14.8406
14.3679
13.7275
12.8225
11.5673
10.0418
8.7831
8.8451
10.8884
14.2006
17.9423
22.2487
25.8304
26.7223
26.6234
832.649
446.897
20.047
19.6313
19.2787
18.7913
18.0952
17.5198
17.3575
17.3754
17.3774
17.3097
17.1739
16.9927
16.7952
16.6003
16.4187
16.2521
16.095
15.9368
15.7654
15.5663
15.3185
14.9906
14.5304
13.8615
12.9028
11.6143
10.1028
8.87978
9.02963
9.51163
16.198
21.4157
24.1169
838.863
446.303
20.0208
19.6679
19.3723
18.9467
18.2385
17.4304
17.072
17.0901
17.1809
17.2178
17.1804
17.0828
16.9513
16.8092
16.674
16.555
16.4529
16.3615
16.2747
16.1864
16.0898
15.9739
15.8216
15.6014
15.255
14.683
13.7438
12.2999
10.5581
6.54889
10.6553
18.5441
24.0868
846.659
446.622
20.0892
19.7678
19.5211
19.1676
18.527
17.5673
16.8655
16.7113
16.8005
16.9059
16.9605
16.9599
16.9168
16.8487
16.7725
16.7004
16.6373
16.583
16.5362
16.4952
16.4585
16.4244
16.3903
16.3466
16.2712
16.1156
15.761
15.0021
13.8098
11.7058
6.83904
18.2764
24.9545
848.978
446.774
20.0617
19.7603
19.5512
19.2599
18.7225
17.8037
16.874
16.5024
16.5249
16.637
16.7194
16.7521
16.7457
16.7155
16.676
16.6367
16.6013
16.5711
16.5468
16.53
16.5228
16.5281
16.5492
16.5852
16.6358
16.7213
16.8554
16.8566
16.5054
15.913
11.9182
16.2521
23.2192
848.416
447.629
20.1517
19.8355
19.629
19.353
18.8639
18.0112
16.9307
16.2858
16.1893
16.3013
16.4203
16.4922
16.5176
16.5093
16.4826
16.4482
16.4115
16.3751
16.3417
16.3152
16.3005
16.3029
16.3245
16.3699
16.5425
17.0111
17.7643
18.4937
18.8924
19.1402
15.4036
15.3153
22.9226
856.933
447.87
20.1423
19.8284
19.6195
19.3467
18.902
18.165
17.1144
16.2482
15.9558
15.9909
16.0933
16.1695
16.2042
16.2039
16.1791
16.1372
16.082
16.0168
15.9463
15.8765
15.8123
15.7556
15.7306
15.9951
16.8315
18.0386
19.2557
20.2382
20.8056
20.4501
16.9892
20.1826
27.7669
868.283
448.543
20.312
19.9535
19.6846
19.3491
18.8957
18.2344
17.2687
16.2793
15.8064
15.7628
15.8445
15.9136
15.9392
15.9243
15.8779
15.8049
15.7061
15.5855
15.4513
15.3038
15.1352
15.0012
15.3139
16.6351
18.4115
19.8631
20.9119
21.6342
21.873
21.3894
21.3309
25.296
30.8118
867.468
449.206
20.4692
20.0253
19.6478
19.1917
18.7329
18.205
17.4138
16.4225
15.7638
15.6054
15.656
15.7224
15.7484
15.7269
15.664
15.5591
15.4111
15.2251
15.015
14.7591
14.4709
14.4976
15.6426
18.0739
20.3273
21.513
22.1767
22.7539
23.2076
23.7066
25.1191
27.6723
30.6265
853.007
450.597
20.8011
20.1978
19.6298
18.9539
18.4733
18.0737
17.4658
16.6085
15.8625
15.5761
15.5737
15.6306
15.6611
15.6441
15.579
15.4649
15.2985
15.0802
14.7988
14.4399
14.0819
14.1326
15.4878
18.4551
21.4292
22.8181
23.2426
23.7539
24.5642
25.5041
26.6737
27.975
29.1743
840.754
453.023
21.113
20.2465
19.4036
18.4345
18.0194
17.8318
17.4363
16.7753
16.0826
15.7202
15.6592
15.6944
15.7233
15.7164
15.6654
15.5667
15.4142
15.1979
14.9047
14.5241
14.0897
13.8394
14.5013
16.9222
20.4922
23.1967
24.2141
24.5966
25.2973
26.1477
26.8929
27.4917
27.7937
835.574
455.648
21.2961
20.1335
18.9669
17.6812
17.4063
17.4366
17.2481
16.812
16.288
15.9527
15.865
15.8809
15.9067
15.9101
15.8801
15.8087
15.6891
15.5116
15.2634
14.93
14.5066
14.053
13.8793
14.7755
17.4373
21.0457
23.8285
25.0301
25.58
26.1448
26.5903
26.8678
26.9042
834.774
457.734
21.297
19.8716
18.4003
16.8509
16.8263
17.0741
17.0441
16.7955
16.4581
16.2149
16.1371
16.146
16.1734
16.1887
16.1762
16.1316
16.0489
15.9204
15.7363
15.4847
15.1527
14.7364
14.2865
14.0699
14.8042
17.2179
20.7847
23.8142
25.1904
25.7737
26.1093
26.3019
26.4248
836.07
457.656
21.067
19.5543
17.8961
15.974
15.9944
16.5126
16.7158
16.6958
16.5613
16.4392
16.3999
16.4158
16.4476
16.4727
16.4786
16.4593
16.4102
16.3261
16.2008
16.0266
15.7942
15.4934
15.1166
14.6877
14.3946
14.84
16.8962
20.4323
23.488
24.8178
25.3968
25.7375
26.1763
838.396
457.104
21.0167
19.5778
17.9394
15.6454
15.1856
15.8539
16.2696
16.4576
16.5146
16.5292
16.5605
16.609
16.6598
16.701
16.7259
16.7303
16.7107
16.6634
16.585
16.4711
16.3167
16.1159
15.8614
15.5401
15.1558
14.8276
15.0742
16.9586
20.521
23.1598
24.3951
25.1091
26.0258
841.158
456.023
20.8161
19.4824
17.9526
15.5174
14.1525
14.8493
15.5237
15.9564
16.2256
16.4005
16.5337
16.6439
16.7353
16.8073
16.8591
16.8904
16.8996
16.8848
16.8441
16.7758
16.6777
16.548
16.3843
16.1803
15.922
15.5999
15.2969
15.562
17.7747
21.1535
23.2535
24.5023
25.9723
843.987
454.851
20.7591
19.6783
18.4566
16.367
14.0079
13.858
14.5387
15.1762
15.6595
16.0115
16.2737
16.4741
16.6297
16.7501
16.8408
16.9057
16.947
16.9642
16.9569
16.9248
16.868
16.7869
16.6827
16.5566
16.4031
16.2089
15.9593
15.7654
16.5604
19.558
22.3235
24.1037
26.0956
846.45
451.477
20.5427
19.9373
19.2419
17.928
15.6064
13.6671
13.359
13.8915
14.5929
15.2
15.6685
16.0205
16.2853
16.4863
16.639
16.7536
16.8368
16.8918
16.9198
16.9217
16.899
16.8532
16.788
16.7091
16.6188
16.516
16.3932
16.2618
16.5781
18.9005
21.9341
24.0508
26.3714
847.851
448.051
20.7234
20.6562
20.4892
20.0123
18.7485
16.2759
13.9325
12.8456
13.0306
13.7804
14.5468
15.1591
15.6167
15.9574
16.2138
16.4082
16.5553
16.6638
16.7389
16.7836
16.8002
16.7912
16.7595
16.7147
16.6654
16.6207
16.5949
16.631
17.0262
19.0572
22.1112
24.2888
26.6306
847.58
445.224
20.6528
20.8747
21.004
21.035
20.8115
19.7985
17.4981
14.6972
12.643
12.1985
12.8987
13.8239
14.5855
15.1507
15.5674
15.8794
16.1165
16.297
16.4325
16.5301
16.595
16.6322
16.6478
16.6515
16.6455
16.6478
16.6953
16.88
17.5366
19.6033
22.5438
24.5826
26.7103
845.793
444.82
20.6312
20.8391
20.9664
21.0689
21.1531
21.1324
20.5078
18.5883
15.6113
12.7603
11.6317
12.2173
13.2511
14.1179
14.7561
15.225
15.5773
15.847
16.0556
16.2164
16.3383
16.429
16.4962
16.5488
16.5935
16.6446
16.7477
17.0503
17.973
20.1708
22.9087
24.7326
26.5695
843.414
446.178
20.8063
20.9186
20.9602
20.9438
20.8867
20.8413
20.8376
20.5118
19.0299
16.0413
12.7485
11.3711
11.9665
13.0292
13.9043
14.5445
15.0173
15.3775
15.6595
15.8847
16.0676
16.2197
16.3535
16.4766
16.5927
16.7073
16.8586
17.2115
18.2381
20.4877
23.0165
24.6464
26.246
841.464
448.814
21.2333
21.2667
21.2867
21.2348
21.0605
20.7392
20.3822
20.168
19.8454
18.4894
15.3949
12.3107
11.4999
12.281
13.2596
14.0183
14.5724
14.9911
15.3223
15.5937
15.8236
16.0282
16.223
16.4205
16.6245
16.8281
17.0425
17.3957
18.3365
20.4591
22.8393
24.3493
25.8372
840.479
451.261
21.3716
21.2573
21.25
21.2281
21.1158
20.8225
20.2878
19.6633
19.1547
18.4942
16.6742
13.7081
11.9761
12.2036
13.0635
13.8149
14.3678
14.7851
15.1214
15.4069
15.6584
15.8915
16.1257
16.3848
16.6828
16.9981
17.306
17.6698
18.4364
20.2391
22.4743
23.9338
25.4379
840.377
452.645
21.2206
20.9437
20.857
20.7871
20.6563
20.4004
19.9548
19.2861
18.4938
17.6162
16.2811
14.1477
12.6071
12.6409
13.3141
13.9374
14.4057
14.7672
15.0683
15.3349
15.5815
15.8218
16.0774
16.3809
16.758
17.1895
17.6167
18.032
18.6523
20.0643
22.0932
23.5529
25.1771
840.948
452.632
21.0006
20.6648
20.5229
20.3679
20.1074
19.7018
19.1684
18.5053
17.6755
16.66
15.3985
13.9483
13.1284
13.3081
13.8195
14.2745
14.6306
14.9191
15.1675
15.3928
15.6073
15.8263
16.076
16.4034
16.8579
17.4236
17.9987
18.5146
19.0895
20.182
21.9312
23.3777
25.1312
841.729
451.454
20.7417
20.4328
20.291
20.1045
19.7582
19.1981
18.4664
17.6344
16.7215
15.723
14.6936
13.8712
13.6634
13.9441
14.3167
14.6382
14.901
15.1219
15.3156
15.4933
15.6662
15.8534
16.0887
16.4387
16.9856
17.7138
18.4619
19.11
19.7272
20.6678
22.1467
23.5052
25.2864
842.253
449.874
20.4262
20.1283
19.98
19.7838
19.4185
18.8066
17.9617
16.9703
15.9482
15.0246
14.3348
14.0104
14.0934
14.3691
14.654
14.8989
15.1032
15.2756
15.4259
15.5627
15.6978
15.8547
16.0834
16.4833
17.1763
18.1179
19.0578
19.8435
20.5411
21.4353
22.6822
23.875
25.5327
842.091
448.516
20.1501
19.8482
19.6879
19.4911
19.1473
18.5709
17.7356
16.6851
15.5597
14.6186
14.1085
14.0406
14.2438
14.5244
14.7859
15.0059
15.1876
15.3374
15.4629
15.572
15.6766
15.8054
16.0292
16.4969
17.3883
18.596
19.7306
20.6458
21.4308
22.3005
23.3254
24.3138
25.7477
841.192
447.279
19.8898
19.5983
19.4381
19.2456
18.9275
18.4193
17.6891
16.7223
15.5707
14.4841
13.8743
13.8471
14.1162
14.4378
14.725
14.9617
15.1535
15.3074
15.4307
15.5302
15.6169
15.7206
15.9253
16.4273
17.501
19.026
20.3742
21.3832
22.2298
23.0629
23.8928
24.6846
25.8581
839.747
446.359
19.708
19.4487
19.313
19.1439
18.8489
18.3778
17.725
16.8742
15.7966
14.589
13.6816
13.4871
13.7744
14.1648
14.5167
14.8054
15.0375
15.2222
15.368
15.481
15.5692
15.6555
15.8132
16.2446
17.3289
19.1411
20.8481
21.9725
22.8314
23.5984
24.2755
24.9062
25.8428
838.253
445.003
19.4256
19.2294
19.1504
19.0476
18.8236
18.4144
17.8235
17.0682
16.1201
14.9434
13.7453
13.134
13.2826
13.724
14.1661
14.5388
14.8417
15.0859
15.2826
15.4394
15.5623
15.6636
15.7851
16.0727
16.9064
18.6927
20.864
22.3214
23.2183
23.9142
24.4843
25.0036
25.7698
837.158
444.023
19.2775
19.1373
19.1081
19.0741
18.9436
18.627
18.0977
17.3899
16.5247
15.4575
14.1728
13.0561
12.7698
13.1396
13.665
14.1422
14.5384
14.8634
15.1323
15.3569
15.5453
15.7048
15.8479
16.0399
16.5271
17.8377
20.1258
22.2166
23.3982
24.1045
24.6124
25.0608
25.7287
836.842
443.07
19.1101
19.0056
19.0088
19.0334
19.0111
18.8446
18.4586
17.8521
17.0663
16.1079
14.9124
13.5172
12.533
12.5085
13.019
13.6029
14.113
14.5381
14.896
15.2048
15.4784
15.7274
15.9519
16.1607
16.4417
17.1376
18.8342
21.2683
23.0752
24.0539
24.6345
25.0963
25.7829
837.805
443.159
19.1446
19.0159
19.0023
19.0308
19.0622
19.0156
18.7924
18.3421
17.6776
16.8352
15.7934
14.4597
12.9619
12.1314
12.3073
12.9146
13.5378
14.0735
14.5282
14.9248
15.2854
15.6289
15.9634
16.2852
16.5955
17.0003
17.9294
19.9076
22.1591
23.6334
24.4645
25.0563
25.9043
839.939
443.599
19.1758
18.9931
18.9377
18.932
18.9686
19.0016
18.9233
18.6495
18.158
17.4683
16.5939
15.4788
14.0085
12.4633
11.8273
12.1898
12.8731
13.5224
14.0794
14.5643
15.0055
15.4286
15.8534
16.2886
16.7178
17.1292
17.6788
18.9275
21.0454
22.9283
24.128
24.9713
26.1364
843.107
444.921
19.4284
19.1828
19.0684
18.984
18.9466
18.9719
18.9627
18.8107
18.4664
17.9247
17.2009
16.2838
15.0659
13.4398
11.9402
11.6026
12.1583
12.8904
13.5506
14.1252
14.6472
15.1497
15.6696
16.2345
16.8357
17.4126
17.9608
18.8137
20.515
22.4914
23.9707
25.0651
26.5671
846.172
446.503
19.7343
19.444
19.2848
19.1198
18.9757
18.9419
18.9474
18.8632
18.6243
18.2104
17.6208
16.856
15.8638
14.5009
12.7353
11.469
11.5609
12.2878
13.0391
13.695
14.2826
14.8486
15.4391
16.108
16.8773
17.6738
18.416
19.2815
20.7654
22.6567
24.2032
25.4075
27.0793
847.834
448.659
20.1396
19.7964
19.598
19.3632
19.1177
19.0053
18.9821
18.9113
18.7215
18.3879
17.8988
17.2467
16.4046
15.2641
13.6674
11.8339
11.0882
11.6403
12.4842
13.2548
13.9415
14.6002
15.2905
16.0924
17.0585
18.1025
19.091
20.1371
21.5933
23.3169
24.7193
25.8601
27.4648
847.276
450.207
20.3379
19.9424
19.718
19.4501
19.1708
19.0364
19.0042
18.9428
18.7871
18.5139
18.1097
17.5622
16.8508
15.9099
14.5892
12.7905
11.1698
11.1656
12.0027
12.8529
13.6062
14.3212
15.0817
16.0063
17.1985
18.5586
19.8569
21.1308
22.5932
24.0851
25.238
26.2043
27.5569
844.963
450.407
20.3033
19.897
19.671
19.407
19.1417
19.0184
18.993
18.9471
18.8226
18.598
18.2596
17.7934
17.1798
16.3744
15.2607
13.6813
11.7365
10.6815
11.3458
12.3628
13.2821
14.1137
14.949
15.9437
17.2817
18.9254
20.5337
21.9966
23.4268
24.68
25.5935
26.363
27.4139
842.356
448.564
19.9757
19.6527
19.4802
19.2609
19.0165
18.891
18.8786
18.8704
18.8007
18.6439
18.3869
18.0173
17.519
16.8626
15.9779
14.716
12.9617
11.1657
10.883
11.8132
12.8186
13.7595
14.6893
15.7531
17.1682
19.0161
20.938
22.5856
23.9705
25.0319
25.7675
26.3753
27.1761
840.307
445.787
19.5933
19.4318
19.3586
19.2024
18.9402
18.7237
18.656
18.6629
18.6501
18.5705
18.4036
18.1363
17.7535
17.2332
16.533
15.5572
14.1522
12.292
10.8355
11.2687
12.3823
13.4014
14.3619
15.4075
16.7835
18.6876
20.8746
22.7677
24.1828
25.1505
25.7891
26.2985
26.9512
839.207
443.067
19.2367
19.251
19.2996
19.2424
18.9984
18.6546
18.4214
18.3546
18.3584
18.3441
18.2682
18.1105
17.8569
17.49
16.9831
16.2844
15.277
13.7958
11.9271
10.8106
11.5992
12.8602
13.9958
15.079
16.3423
18.1087
20.3875
22.5497
24.0997
25.0754
25.6923
26.1708
26.7826
838.928
441.143
18.9355
19.0778
19.2476
19.3315
19.2027
18.8299
18.3854
18.0943
17.9878
17.9663
17.9406
17.8639
17.7139
17.4751
17.1309
16.6574
16.0043
15.0618
13.6835
12.0723
11.3993
12.2273
13.4615
14.6595
15.8945
17.4613
19.6154
21.9655
23.7488
24.8391
25.5089
26.0212
26.6799
839.194
439.819
18.5547
18.7461
19.0246
19.2958
19.3855
19.174
18.6911
18.1437
17.7555
17.5678
17.4913
17.4322
17.3341
17.1664
16.9084
16.5429
16.0494
15.3941
14.5004
13.3027
12.1642
12.0956
13.0395
14.2583
15.5159
16.9492
18.8674
21.2149
23.2186
24.4843
25.2564
25.8444
26.6015
839.695
439.009
18.0729
18.1867
18.5219
19.0116
19.4026
19.4843
19.2123
18.6453
17.9762
17.4398
17.124
16.9657
16.8642
16.7449
16.5614
16.2815
15.8809
15.3527
14.6927
13.8697
12.9385
12.458
12.9287
13.991
15.2287
16.5903
18.2978
20.5016
22.6379
24.0929
24.9912
25.6738
26.5517
840.297
438.807
17.5424
17.441
17.7237
18.4034
19.153
19.596
19.6528
19.3494
18.7211
17.9074
17.1536
16.6259
16.3189
16.1344
15.9734
15.7632
15.4521
15.0205
14.4963
13.9163
13.3023
12.9051
13.1439
14.0032
15.1613
16.4619
18.0083
20
22.1313
23.7236
24.7356
25.5075
26.4988
840.698
439.46
17.2259
16.8427
16.9387
17.6301
18.659
19.4659
19.8591
19.8875
19.5888
18.9499
18.022
17.0233
16.2049
15.6633
15.3363
15.1021
14.8527
14.5234
14.1211
13.7171
13.3779
13.227
13.4801
14.213
15.2729
16.5189
17.975
19.7929
21.8311
23.4775
24.5603
25.3932
26.4618
840.862
440.691
17.3199
16.7894
16.6876
17.1106
18.0713
19.0684
19.7373
20.0461
20.0604
19.8
19.2114
18.2424
17.0214
15.8555
14.9906
14.4547
14.1228
13.8589
13.5968
13.3672
13.2553
13.3571
13.7589
14.4961
15.499
16.6859
18.0674
19.7533
21.6716
23.3088
24.4201
25.2837
26.3921
840.698
441.466
17.7136
17.306
17.1465
17.1823
17.6365
18.4429
19.2321
19.7792
20.0559
20.0974
19.9121
19.4354
18.5306
17.1678
15.6286
14.3295
13.4757
13.0147
12.8136
12.7911
12.9466
13.3182
13.9196
14.7545
15.7909
16.9817
18.3354
19.9286
21.7168
23.2835
24.374
25.2341
26.3393
840.313
441.271
18.2051
18.085
17.9991
17.7897
17.6196
17.8054
18.3403
18.9623
19.4638
19.7705
19.8833
19.8089
19.5006
18.7986
17.4936
15.7229
13.9998
12.7454
12.1058
12.0252
12.3689
13.0051
13.8354
14.82
15.9433
17.1912
18.5716
20.1299
21.8151
23.2894
24.3303
25.16
26.2278
839.737
440.631
18.6395
18.8271
18.9473
18.8284
18.4305
17.9853
17.8151
18.0015
18.3954
18.8078
19.1181
19.2805
19.2837
19.093
18.5711
17.4329
15.6411
13.7091
12.1661
11.4237
11.6447
12.5172
13.6227
14.8059
16.0497
17.3704
18.7932
20.3464
21.9625
23.3507
24.3355
25.1273
26.1523
839.316
440.017
18.719
19.0905
19.4916
19.771
19.6998
19.2436
18.6056
18.0695
17.8106
17.8284
18.0083
18.2171
18.3599
18.3818
18.2292
17.7784
16.7801
15.1627
13.3457
11.8194
11.1865
11.8238
13.1343
14.583
16.04
17.5037
19.0023
20.5585
22.1027
23.3953
24.314
25.0594
26.0337
838.815
439.079
18.1102
18.3464
18.9225
19.761
20.3914
20.5209
20.1752
19.4975
18.6886
17.9552
17.4317
17.1407
17.0152
16.9486
16.8311