/*--------------------------------*- C++ -*----------------------------------*\
| =========                 |                                                 |
| \\      /  F ield         | OpenFOAM: The Open Source CFD Toolbox           |
|  \\    /   O peration     | Version:  v2006                                 |
|   \\  /    A nd           | Website:  www.openfoam.com                      |
|    \\/     M anipulation  |                                                 |
\*---------------------------------------------------------------------------*/
FoamFile
{
    version     2.0;
    format      ascii;
    class       surfaceScalarField;
    location    "41";
    object      phi;
}
// * * * * * * * * * * * * * * * * * * * * * * * * * * * * * * * * * * * * * //

dimensions      [1 0 -1 0 0 0 0];
oriented        oriented;


internalField   nonuniform List<scalar> 
228225
(
-0.000429202
-4.4552e-05
-1.09978e-05
-0.000380487
-4.22066e-05
-6.38449e-06
-0.000332736
-4.28922e-05
-4.73826e-06
-0.000283674
-4.44942e-05
-4.45426e-06
-0.00023964
-4.00233e-05
-3.91998e-06
-0.000202296
-3.37692e-05
-3.47132e-06
-0.000169518
-2.97522e-05
-2.94734e-06
-0.00014136
-2.55105e-05
-2.5815e-06
-0.000116623
-2.2458e-05
-2.2252e-06
-9.4948e-05
-1.96485e-05
-1.98812e-06
-7.57231e-05
-1.74387e-05
-1.7585e-06
-5.87935e-05
-1.53243e-05
-1.59248e-06
-4.38436e-05
-1.35076e-05
-1.44024e-06
-3.07868e-05
-1.1752e-05
-1.31349e-06
-1.95007e-05
-1.01056e-05
-1.1975e-06
-9.90044e-06
-8.53179e-06
-1.09137e-06
-1.82716e-06
-7.11181e-06
-9.87357e-07
4.99882e-06
-5.97195e-06
-8.8034e-07
1.07778e-05
-5.03461e-06
-7.69449e-07
1.55841e-05
-4.17086e-06
-6.58568e-07
1.94507e-05
-3.33135e-06
-5.56012e-07
2.24248e-05
-2.51926e-06
-4.73301e-07
2.45698e-05
-1.741e-06
-4.20556e-07
2.59385e-05
-9.81436e-07
-4.01919e-07
2.65849e-05
-2.33052e-07
-4.26651e-07
2.65016e-05
5.84334e-07
-5.13441e-07
2.57396e-05
1.43002e-06
-6.80183e-07
2.43923e-05
2.28483e-06
-9.49716e-07
2.25643e-05
3.15009e-06
-1.33504e-06
2.03612e-05
4.05663e-06
-1.86757e-06
1.7891e-05
5.05426e-06
-2.59662e-06
1.52928e-05
6.23997e-06
-3.63185e-06
1.23611e-05
8.02272e-06
-4.97568e-06
8.35275e-06
1.12637e-05
-6.90493e-06
1.43418e-05
-5.74992e-06
-1.27232e-05
-2.47752e-05
-6.55632e-06
-2.39287e-05
-2.88843e-05
-2.07302e-06
-3.32246e-05
-3.42236e-05
6.86261e-07
-4.22717e-05
-3.67039e-05
1.32142e-06
-4.69209e-05
-3.65366e-05
1.35764e-06
-4.78062e-05
-3.37625e-05
1.10268e-06
-4.64804e-05
-3.17166e-05
8.78397e-07
-4.33821e-05
-2.9071e-05
7.09516e-07
-3.93697e-05
-2.67959e-05
5.72483e-07
-3.43565e-05
-2.49074e-05
4.82831e-07
-2.88152e-05
-2.31834e-05
4.21049e-07
-2.2768e-05
-2.15594e-05
3.78822e-07
-1.65292e-05
-1.99317e-05
3.41824e-07
-1.02511e-05
-1.82152e-05
3.00433e-07
-4.23104e-06
-1.63023e-05
2.46091e-07
1.13258e-06
-1.40474e-05
1.73886e-07
5.16824e-06
-1.12539e-05
8.72216e-08
7.81389e-06
-8.67608e-06
1.58836e-08
9.91005e-06
-7.16901e-06
-1.39785e-08
1.19273e-05
-6.25273e-06
9.40666e-09
1.38945e-05
-5.45327e-06
1.00343e-07
1.5692e-05
-4.6096e-06
2.41767e-07
1.71769e-05
-3.69401e-06
4.21306e-07
1.8239e-05
-2.7187e-06
6.32915e-07
1.87932e-05
-1.69561e-06
8.70283e-07
1.88443e-05
-6.21459e-07
1.11973e-06
1.83951e-05
4.8666e-07
1.36012e-06
1.74971e-05
1.59191e-06
1.56008e-06
1.61861e-05
2.74142e-06
1.68967e-06
1.45546e-05
3.94989e-06
1.70858e-06
1.27479e-05
5.28113e-06
1.55236e-06
1.08932e-05
6.97963e-06
1.10387e-06
8.83474e-06
1.0038e-05
1.19236e-07
4.748e-06
1.7194e-05
-1.53739e-06
2.11746e-05
-1.92055e-06
-2.03177e-05
-2.89072e-06
-1.6738e-06
-3.08183e-05
-1.90145e-05
3.87964e-07
-3.92704e-05
-2.65023e-05
4.45101e-07
-4.43937e-05
-3.1557e-05
-2.87371e-07
-4.52021e-05
-3.50839e-05
-8.50777e-07
-4.24724e-05
-3.56038e-05
-1.04315e-06
-3.88425e-05
-3.43814e-05
-1.0651e-06
-3.4439e-05
-3.25437e-05
-9.55805e-07
-2.98361e-05
-3.05717e-05
-7.72307e-07
-2.52596e-05
-2.88001e-05
-5.56155e-07
-2.06363e-05
-2.72999e-05
-3.16252e-07
-1.58743e-05
-2.60318e-05
-4.81004e-08
-1.07869e-05
-2.48934e-05
1.52767e-07
-5.32633e-06
-2.37281e-05
3.51146e-07
4.41115e-07
-2.23054e-05
5.33683e-07
6.296e-06
-2.03083e-05
6.70411e-07
1.13245e-05
-1.67865e-05
6.70457e-07
1.37176e-05
-1.14615e-05
4.3418e-07
1.41595e-05
-7.7765e-06
1.47989e-07
1.42282e-05
-6.3157e-06
-4.37203e-08
1.4601e-05
-5.73024e-06
-1.43719e-07
1.53292e-05
-5.23428e-06
-1.57929e-07
1.62658e-05
-4.5828e-06
-1.05305e-07
1.72294e-05
-3.7374e-06
-2.46759e-09
1.80206e-05
-2.71061e-06
1.68243e-07
1.84804e-05
-1.51803e-06
3.84496e-07
1.85009e-05
-2.28735e-07
6.46652e-07
1.78884e-05
1.23157e-06
9.28988e-07
1.66649e-05
2.73076e-06
1.19486e-06
1.49114e-05
4.26464e-06
1.40497e-06
1.27682e-05
5.89032e-06
1.50911e-06
1.04337e-05
7.8796e-06
1.4365e-06
8.00647e-06
1.15246e-05
1.0629e-06
4.1346e-06
2.13703e-05
6.52923e-08
2.59934e-05
-4.60778e-07
1.30531e-05
-1.67441e-05
7.81676e-07
2.17209e-05
-2.89342e-05
1.25512e-06
2.80215e-05
-3.39959e-05
1.17197e-06
3.1339e-05
-3.6019e-05
1.09537e-06
3.13956e-05
-3.61824e-05
9.48755e-07
3.02386e-05
-3.53666e-05
7.66241e-07
2.88452e-05
-3.37887e-05
5.88099e-07
2.74059e-05
-3.17676e-05
4.1987e-07
2.58633e-05
-2.95437e-05
2.79016e-07
2.40451e-05
-2.73569e-05
1.79492e-07
2.1958e-05
-2.54715e-05
1.21496e-07
1.97912e-05
-2.40372e-05
1.00579e-07
1.7804e-05
-2.30248e-05
1.14969e-07
1.62451e-05
-2.22699e-05
1.67772e-07
1.53345e-05
-2.15161e-05
2.67539e-07
1.52111e-05
-2.03785e-05
4.40963e-07
1.576e-05
-1.77283e-05
7.31003e-07
1.57624e-05
-1.20748e-05
8.25277e-07
1.53692e-05
-7.80907e-06
4.95203e-07
1.52122e-05
-6.23558e-06
8.52041e-08
1.53715e-05
-5.70022e-06
-2.02765e-07
1.57972e-05
-5.32153e-06
-3.61705e-07
1.64308e-05
-4.81761e-06
-4.29288e-07
1.71901e-05
-4.11125e-06
-4.22578e-07
1.79578e-05
-3.17551e-06
-3.45101e-07
1.85803e-05
-1.98762e-06
-1.99104e-07
1.88593e-05
-5.67204e-07
1.07959e-08
1.87128e-05
1.02884e-06
2.99378e-07
1.79969e-05
2.75952e-06
6.3762e-07
1.65927e-05
4.61639e-06
1.00515e-06
1.44284e-05
6.65393e-06
1.35967e-06
1.14519e-05
9.20215e-06
1.63655e-06
7.43247e-06
1.39175e-05
1.72119e-06
2.81676e-06
2.50475e-05
1.24774e-06
2.85818e-05
4.51616e-07
-7.62496e-07
-1.67366e-05
7.80123e-07
-7.06605e-07
-2.93103e-05
3.93697e-07
-7.24906e-07
-3.37289e-05
-1.58686e-07
-8.19558e-07
-3.52986e-05
-5.23245e-07
-4.58521e-07
-3.5713e-05
-7.14453e-07
4.76906e-07
-3.5375e-05
-7.97974e-07
1.95582e-06
-3.4334e-05
-7.98176e-07
3.67338e-06
-3.26326e-05
-7.24368e-07
5.2291e-06
-3.04097e-05
-5.82874e-07
6.2557e-06
-2.79142e-05
-3.90109e-07
6.46849e-06
-2.54553e-05
-1.74127e-07
5.75498e-06
-2.33153e-05
2.84814e-08
4.23897e-06
-2.16575e-05
1.72682e-07
2.19217e-06
-2.04794e-05
2.71504e-07
-1.18698e-08
-1.96148e-05
3.13712e-07
-1.93167e-06
-1.87287e-05
2.9391e-07
-2.65303e-06
-1.71156e-05
1.91552e-07
-1.42312e-06
-1.31577e-05
-4.48357e-08
1.57339e-07
-8.9573e-06
-3.79676e-07
1.64272e-06
-7.07652e-06
-6.24975e-07
3.0723e-06
-6.33093e-06
-7.97066e-07
4.47027e-06
-5.80928e-06
-9.19187e-07
5.84285e-06
-5.20823e-06
-9.9932e-07
7.17681e-06
-4.43199e-06
-1.03708e-06
8.4522e-06
-3.45046e-06
-1.02873e-06
9.65992e-06
-2.25959e-06
-9.67569e-07
1.07708e-05
-8.68592e-07
-8.44432e-07
1.17085e-05
7.0345e-07
-6.49877e-07
1.23584e-05
2.44574e-06
-3.75959e-07
1.25619e-05
4.39021e-06
-1.84679e-08
1.21055e-05
6.64444e-06
4.25964e-07
1.06419e-05
9.69627e-06
9.43773e-07
7.31402e-06
1.58197e-05
1.4834e-06
2.55542e-06
2.83994e-05
1.62662e-06
3.04925e-05
8.2616e-07
3.43892e-06
-2.09979e-05
8.15441e-07
7.10385e-06
-3.42534e-05
1.29469e-06
1.00148e-05
-3.78824e-05
1.26641e-06
1.23754e-05
-3.86884e-05
1.04587e-06
1.41791e-05
-3.83133e-05
8.0448e-07
1.53765e-05
-3.71414e-05
5.76455e-07
1.59691e-05
-3.52796e-05
3.7051e-07
1.60573e-05
-3.28848e-05
1.96972e-07
1.58106e-05
-3.01933e-05
7.66552e-08
1.53696e-05
-2.74519e-05
3.37008e-08
1.47628e-05
-2.48689e-05
8.25241e-08
1.38996e-05
-2.26057e-05
2.28273e-07
1.26627e-05
-2.07667e-05
4.4087e-07
1.1001e-05
-1.93692e-05
6.69866e-07
8.98902e-06
-1.83276e-05
8.63873e-07
6.86721e-06
-1.74325e-05
9.81617e-07
5.24998e-06
-1.63087e-05
9.95484e-07
5.35691e-06
-1.38521e-05
7.90268e-07
6.14928e-06
-9.96905e-06
3.26544e-07
6.72285e-06
-7.51139e-06
-9.99211e-08
7.22974e-06
-6.43107e-06
-3.96476e-07
7.79598e-06
-5.76511e-06
-6.14057e-07
8.44261e-06
-5.07831e-06
-7.89096e-07
9.14354e-06
-4.21996e-06
-9.3198e-07
9.86435e-06
-3.15475e-06
-1.04054e-06
1.05809e-05
-1.89724e-06
-1.10699e-06
1.12765e-05
-4.74132e-07
-1.12159e-06
1.1891e-05
1.12753e-06
-1.07324e-06
1.23407e-05
2.90706e-06
-9.48501e-07
1.25e-05
4.9203e-06
-7.29917e-07
1.21357e-05
7.35654e-06
-3.92037e-07
1.07552e-05
1.09161e-05
1.11602e-07
7.29713e-06
1.8433e-05
8.03159e-07
2.54514e-06
3.18273e-05
1.37957e-06
3.23153e-05
8.4269e-07
5.12285e-07
-2.21133e-05
6.33547e-07
7.12514e-07
-3.50586e-05
6.38885e-07
7.23107e-07
-3.83132e-05
4.34164e-07
7.05299e-07
-3.89593e-05
2.9771e-07
7.42718e-07
-3.85541e-05
2.15608e-07
8.47962e-07
-3.739e-05
1.61627e-07
1.01847e-06
-3.55468e-05
1.20381e-07
1.19367e-06
-3.31173e-05
8.48388e-08
1.25487e-06
-3.02806e-05
5.72916e-08
1.09336e-06
-2.73038e-05
4.89955e-08
6.83387e-07
-2.44922e-05
7.49587e-08
9.23236e-08
-2.21106e-05
1.47749e-07
-5.87986e-07
-2.02887e-05
2.70796e-07
-1.31265e-06
-1.89892e-05
4.36934e-07
-2.06583e-06
-1.80821e-05
6.27288e-07
-2.73229e-06
-1.74254e-05
8.05163e-07
-2.9544e-06
-1.68296e-05
9.15092e-07
-1.60693e-06
-1.58977e-05
8.9032e-07
1.31809e-06
-1.33824e-05
6.33324e-07
3.46962e-06
-9.86146e-06
2.62396e-07
4.47465e-06
-7.37526e-06
-3.88803e-08
4.94888e-06
-5.96043e-06
-2.75459e-07
5.33581e-06
-4.99478e-06
-4.77216e-07
5.82242e-06
-4.06191e-06
-6.58398e-07
6.45277e-06
-2.98614e-06
-8.17793e-07
7.19221e-06
-1.71094e-06
-9.48396e-07
7.95924e-06
-2.2534e-07
-1.04145e-06
8.71557e-06
1.43001e-06
-1.08687e-06
9.35577e-06
3.3086e-06
-1.07186e-06
9.7372e-06
5.48451e-06
-9.77466e-07
9.62289e-06
8.20918e-06
-7.71119e-07
8.52344e-06
1.23696e-05
-3.84491e-07
5.498e-06
2.11437e-05
3.07504e-07
1.72567e-06
3.45858e-05
1.07259e-06
3.33726e-05
7.68984e-07
1.67357e-06
-2.45628e-05
7.18408e-07
3.219e-06
-3.78658e-05
1.20497e-06
4.61236e-06
-4.09706e-05
1.2211e-06
6.01641e-06
-4.14872e-05
1.09041e-06
7.46529e-06
-4.09662e-05
9.36689e-07
8.92873e-06
-3.96683e-05
7.93431e-07
1.03572e-05
-3.7659e-05
6.6689e-07
1.16927e-05
-3.50186e-05
5.5467e-07
1.28394e-05
-3.18848e-05
4.54249e-07
1.36349e-05
-2.8463e-05
3.70948e-07
1.38883e-05
-2.50465e-05
3.21312e-07
1.34826e-05
-2.19934e-05
3.23948e-07
1.24519e-05
-1.9591e-05
3.84728e-07
1.09481e-05
-1.79112e-05
4.9797e-07
9.15268e-06
-1.68462e-05
6.61884e-07
7.24495e-06
-1.62563e-05
8.83744e-07
5.46625e-06
-1.60182e-05
1.1633e-06
4.26098e-06
-1.59054e-05
1.47463e-06
4.57955e-06
-1.50501e-05
1.65161e-06
6.31809e-06
-1.28082e-05
1.39736e-06
7.81532e-06
-9.74533e-06
9.4778e-07
8.36033e-06
-7.03937e-06
5.51762e-07
8.33455e-06
-5.22165e-06
2.48642e-07
8.17665e-06
-3.92346e-06
5.74209e-09
8.15219e-06
-2.76608e-06
-2.15171e-07
8.33861e-06
-1.51427e-06
-4.06737e-07
8.73631e-06
-8.03532e-08
-5.69094e-07
9.20728e-06
1.6252e-06
-6.9459e-07
9.67866e-06
3.58036e-06
-7.73596e-07
1.0007e-05
5.91491e-06
-7.92225e-07
9.91015e-06
8.99196e-06
-7.25642e-07
8.73407e-06
1.40094e-05
-5.18978e-07
5.45371e-06
2.43863e-05
-4.07742e-08
1.80727e-06
3.75558e-05
6.55949e-07
3.46555e-05
6.02748e-07
8.29839e-07
-2.60353e-05
6.63397e-07
9.19599e-07
-3.86569e-05
7.30128e-07
6.96426e-07
-4.13057e-05
5.63095e-07
4.26292e-07
-4.16921e-05
4.68356e-07
2.02926e-07
-4.11566e-05
4.01015e-07
9.91475e-08
-3.99328e-05
3.5094e-07
2.06554e-07
-3.81054e-05
3.18836e-07
6.1118e-07
-3.57474e-05
3.03349e-07
1.35162e-06
-3.29439e-05
2.9957e-07
2.37474e-06
-2.98043e-05
3.02907e-07
3.49545e-06
-2.64924e-05
3.15474e-07
4.41099e-06
-2.32599e-05
3.48186e-07
4.82793e-06
-2.04142e-05
4.11967e-07
4.61183e-06
-1.81858e-05
5.06798e-07
3.78437e-06
-1.66134e-05
6.2494e-07
2.40945e-06
-1.55925e-05
7.62478e-07
5.6626e-07
-1.50166e-05
9.25044e-07
-1.47584e-06
-1.48598e-05
1.12402e-06
-2.65617e-06
-1.50481e-05
1.35383e-06
-1.67653e-06
-1.51159e-05
1.57082e-06
1.1273e-06
-1.3878e-05
1.54772e-06
4.11596e-06
-1.11589e-05
1.22964e-06
6.04998e-06
-7.99345e-06
8.66018e-07
6.89369e-06
-5.32633e-06
5.57224e-07
7.15037e-06
-3.34163e-06
3.04893e-07
7.23417e-06
-1.70585e-06
8.79396e-08
7.31846e-06
-8.36481e-08
-1.04267e-07
7.53479e-06
1.65321e-06
-2.69296e-07
7.77397e-06
3.71598e-06
-3.99857e-07
7.89953e-06
6.24987e-06
-4.83988e-07
7.67434e-06
9.69732e-06
-4.99493e-07
6.58458e-06
1.54815e-05
-3.92242e-07
3.8998e-06
2.71204e-05
-3.94662e-08
1.21643e-06
3.97795e-05
5.09255e-07
3.5453e-05
5.15239e-07
3.68985e-07
-2.71425e-05
7.15379e-07
5.74787e-07
-3.95189e-05
5.78818e-07
9.3532e-07
-4.21756e-05
3.98407e-07
1.40993e-06
-4.26481e-05
3.5202e-07
2.03441e-06
-4.22426e-05
3.18134e-07
2.85323e-06
-4.11902e-05
2.83237e-07
3.89042e-06
-3.95608e-05
2.55108e-07
5.14297e-06
-3.74035e-05
2.40464e-07
6.59005e-06
-3.47855e-05
2.41632e-07
8.19432e-06
-3.17976e-05
2.56438e-07
9.87016e-06
-2.85541e-05
2.81286e-07
1.14365e-05
-2.52156e-05
3.17091e-07
1.26267e-05
-2.20164e-05
3.71985e-07
1.32091e-05
-1.92346e-05
4.54869e-07
1.31155e-05
-1.70757e-05
5.68e-07
1.24126e-05
-1.55654e-05
7.09774e-07
1.11538e-05
-1.45796e-05
8.81559e-07
9.27879e-06
-1.39786e-05
1.08971e-06
6.74075e-06
-1.37052e-05
1.33979e-06
3.97037e-06
-1.37687e-05
1.61983e-06
2.50164e-06
-1.40414e-05
1.90727e-06
3.15693e-06
-1.35503e-05
2.01433e-06
5.3029e-06
-1.17748e-05
1.78492e-06
7.39126e-06
-8.75604e-06
1.39197e-06
8.65363e-06
-5.62754e-06
1.02438e-06
9.11244e-06
-2.90919e-06
7.26027e-07
9.20529e-06
-6.84125e-07
4.81979e-07
9.19149e-06
1.36573e-06
2.71881e-07
9.19523e-06
3.59353e-06
8.62294e-08
9.11962e-06
6.35715e-06
-6.74931e-08
8.65568e-06
1.02977e-05
-1.76272e-07
7.15434e-06
1.71479e-05
-2.04679e-07
4.17003e-06
3.01379e-05
-4.19055e-08
1.43092e-06
4.21961e-05
3.58612e-07
3.65325e-05
4.307e-07
-2.61725e-07
-2.7439e-05
5.13025e-07
4.00342e-07
-4.01913e-05
-4.85988e-08
1.45551e-06
-4.29734e-05
-3.13358e-07
2.57853e-06
-4.35146e-05
-3.1416e-07
3.70707e-06
-4.31745e-05
-2.61023e-07
4.85425e-06
-4.22066e-05
-2.06007e-07
6.0552e-06
-4.06961e-05
-1.55492e-07
7.34689e-06
-3.86958e-05
-1.06285e-07
8.75366e-06
-3.62616e-05
-5.39486e-08
1.02834e-05
-3.3468e-05
6.36691e-09
1.19126e-05
-3.0406e-05
8.77162e-08
1.35755e-05
-2.71724e-05
1.71665e-07
1.5086e-05
-2.38819e-05
2.59516e-07
1.61499e-05
-2.07111e-05
3.52336e-07
1.64969e-05
-1.78996e-05
4.52033e-07
1.60263e-05
-1.56497e-05
5.5885e-07
1.48166e-05
-1.40169e-05
6.74388e-07
1.30037e-05
-1.29206e-05
8.05255e-07
1.06587e-05
-1.22443e-05
9.63942e-07
7.77576e-06
-1.19335e-05
1.16981e-06
4.49188e-06
-1.20239e-05
1.4388e-06
1.8794e-06
-1.24643e-05
1.74898e-06
1.17489e-06
-1.28168e-05
2.02601e-06
2.67668e-06
-1.20659e-05
2.02686e-06
5.37787e-06
-9.97694e-06
1.74542e-06
7.5874e-06
-6.4652e-06
1.36322e-06
8.69821e-06
-2.83988e-06
1.02793e-06
8.94319e-06
3.30196e-07
7.63904e-07
8.87548e-06
3.08465e-06
5.47615e-07
8.636e-06
6.2064e-06
3.5913e-07
8.01749e-06
1.06801e-05
1.95949e-07
6.24557e-06
1.87538e-05
9.01016e-08
2.96917e-06
3.31335e-05
1.5666e-07
8.66843e-07
4.38735e-05
3.98387e-07
3.70733e-05
4.15355e-07
1.53644e-07
-2.78868e-05
2.23757e-07
1.66127e-06
-4.15391e-05
-2.17759e-07
3.76079e-06
-4.46169e-05
-4.95563e-07
6.04419e-06
-4.52197e-05
-6.07887e-07
8.36536e-06
-4.48767e-05
-6.42624e-07
1.0657e-05
-4.38744e-05
-6.43322e-07
1.28701e-05
-4.23003e-05
-6.26636e-07
1.49534e-05
-4.01999e-05
-5.98937e-07
1.68542e-05
-3.76283e-05
-5.61097e-07
1.8539e-05
-3.4683e-05
-5.1011e-07
2.00236e-05
-3.15075e-05
-4.40963e-07
2.13752e-05
-2.82498e-05
-3.49616e-07
2.2654e-05
-2.50116e-05
-2.35616e-07
2.38126e-05
-2.18519e-05
-1.02715e-07
2.46509e-05
-1.8856e-05
4.95078e-08
2.49299e-05
-1.61861e-05
2.15382e-07
2.45379e-05
-1.40192e-05
3.80401e-07
2.35052e-05
-1.24194e-05
5.41906e-07
2.19e-05
-1.13095e-05
7.02577e-07
1.97122e-05
-1.05616e-05
8.71502e-07
1.68029e-05
-1.00906e-05
1.06472e-06
1.3081e-05
-9.91236e-06
1.30926e-06
8.98692e-06
-1.01551e-05
1.63151e-06
5.9415e-06
-1.07611e-05
2.00446e-06
4.94136e-06
-1.09683e-05
2.27689e-06
6.06367e-06
-9.59411e-06
2.1637e-06
7.8427e-06
-6.3564e-06
1.77344e-06
9.06648e-06
-2.27536e-06
1.36014e-06
9.30001e-06
1.77664e-06
1.03739e-06
8.87791e-06
5.81128e-06
7.80747e-07
8.07958e-06
1.09031e-05
5.55848e-07
6.73332e-06
1.97793e-05
3.64753e-07
4.1391e-06
3.55592e-05
2.85063e-07
1.63925e-06
4.61046e-05
3.71005e-07
3.84421e-05
3.68495e-07
9.85195e-07
-2.89337e-05
-7.37914e-09
2.6808e-06
-4.30001e-05
-3.10808e-07
4.71429e-06
-4.61154e-05
-6.02304e-07
6.88783e-06
-4.6664e-05
-7.89744e-07
9.09105e-06
-4.62396e-05
-8.95271e-07
1.12532e-05
-4.51324e-05
-9.52643e-07
1.33177e-05
-4.34256e-05
-9.80095e-07
1.52305e-05
-4.11567e-05
-9.87885e-07
1.69333e-05
-3.83714e-05
-9.81494e-07
1.83677e-05
-3.51682e-05
-9.62275e-07
1.95006e-05
-3.17212e-05
-9.27437e-07
2.03578e-05
-2.82464e-05
-8.71161e-07
2.1031e-05
-2.49176e-05
-7.87339e-07
2.16268e-05
-2.18081e-05
-6.72218e-07
2.21725e-05
-1.89178e-05
-5.2583e-07
2.25583e-05
-1.62614e-05
-3.53157e-07
2.25933e-05
-1.39236e-05
-1.64791e-07
2.21372e-05
-1.2012e-05
2.77824e-08
2.1167e-05
-1.0564e-05
2.18716e-07
1.9734e-05
-9.5259e-06
4.06688e-07
1.78792e-05
-8.80702e-06
5.98304e-07
1.55508e-05
-8.3368e-06
8.02866e-07
1.25471e-05
-8.1046e-06
1.0379e-06
8.80339e-06
-8.21548e-06
1.33374e-06
5.12282e-06
-8.80467e-06
1.70269e-06
3.22335e-06
-9.54412e-06
2.08728e-06
4.00716e-06
-9.15148e-06
2.19063e-06
6.38265e-06
-6.50314e-06
1.91373e-06
8.1728e-06
-1.51513e-06
1.48529e-06
8.77564e-06
4.04728e-06
1.12002e-06
7.94811e-06
1.08321e-05
8.29617e-07
5.11603e-06
2.18668e-05
6.07144e-07
1.9205e-06
3.81462e-05
5.36349e-07
4.16317e-07
4.70661e-05
5.4632e-07
3.85005e-05
4.17038e-07
7.92585e-07
-2.9666e-05
-1.32514e-07
2.40418e-06
-4.42946e-05
-3.91282e-07
4.45181e-06
-4.76003e-05
-6.20507e-07
6.72611e-06
-4.81693e-05
-8.1399e-07
9.10816e-06
-4.76906e-05
-9.67644e-07
1.15066e-05
-4.6477e-05
-1.08612e-06
1.38315e-05
-4.46072e-05
-1.17437e-06
1.59862e-05
-4.21062e-05
-1.23784e-06
1.78745e-05
-3.90134e-05
-1.28109e-06
1.94159e-05
-3.54374e-05
-1.30675e-06
2.05647e-05
-3.15856e-05
-1.3144e-06
2.13305e-05
-2.77351e-05
-1.30006e-06
2.17925e-05
-2.41398e-05
-1.25767e-06
2.20852e-05
-2.09372e-05
-1.18189e-06
2.23424e-05
-1.81289e-05
-1.06963e-06
2.26195e-05
-1.56482e-05
-9.20477e-07
2.28534e-05
-1.3453e-05
-7.38363e-07
2.29078e-05
-1.1565e-05
-5.3331e-07
2.26641e-05
-1.00269e-05
-3.18796e-07
2.2066e-05
-8.83906e-06
-1.04916e-07
2.10979e-05
-7.9508e-06
1.06395e-07
1.97451e-05
-7.29459e-06
3.178e-07
1.79453e-05
-6.81694e-06
5.35907e-07
1.54987e-05
-6.49368e-06
7.72794e-07
1.20874e-05
-6.36019e-06
1.05477e-06
7.83637e-06
-6.57611e-06
1.42514e-06
4.19305e-06
-7.19443e-06
1.89438e-06
2.81224e-06
-7.14469e-06
2.22452e-06
4.38455e-06
-5.07729e-06
2.06378e-06
6.21979e-06
5.95648e-07
1.60814e-06
7.03727e-06
8.8985e-06
1.15325e-06
6.87099e-06
2.141e-05
7.31889e-07
3.4561e-06
4.1004e-05
4.9224e-07
1.44791e-06
4.87012e-05
4.45227e-07
3.98005e-05
3.34295e-07
1.55266e-06
-3.1004e-05
-2.64182e-07
3.51603e-06
-4.5606e-05
-6.79147e-07
5.51414e-06
-4.87406e-05
-8.60754e-07
7.49458e-06
-4.91725e-05
-9.62011e-07
9.44507e-06
-4.85424e-05
-1.07005e-06
1.13228e-05
-4.71337e-05
-1.18363e-06
1.30629e-05
-4.50159e-05
-1.29151e-06
1.46027e-05
-4.22246e-05
-1.38662e-06
1.5904e-05
-3.88276e-05
-1.46534e-06
1.69571e-05
-3.49586e-05
-1.52747e-06
1.77677e-05
-3.08328e-05
-1.57415e-06
1.83445e-05
-2.67267e-05
-1.60425e-06
1.87105e-05
-2.29138e-05
-1.6122e-06
1.89251e-05
-1.95806e-05
-1.59002e-06
1.90862e-05
-1.6777e-05
-1.53159e-06
1.9297e-05
-1.44451e-05
-1.43455e-06
1.96125e-05
-1.24926e-05
-1.30013e-06
2.00046e-05
-1.08512e-05
-1.13311e-06
2.03799e-05
-9.48826e-06
-9.4169e-07
2.06359e-05
-8.38525e-06
-7.35352e-07
2.06979e-05
-7.51226e-06
-5.21294e-07
2.05111e-05
-6.81891e-06
-3.025e-07
2.00376e-05
-6.26902e-06
-7.86776e-08
1.92515e-05
-5.84686e-06
1.47849e-07
1.80734e-05
-5.5415e-06
3.86879e-07
1.6255e-05
-5.35171e-06
6.52848e-07
1.3543e-05
-5.34578e-06
9.75626e-07
1.09146e-05
-5.72499e-06
1.39573e-06
1.02443e-05
-6.03522e-06
1.87878e-06
1.14588e-05
-2.43529e-06
1.93614e-06
1.0625e-05
8.13653e-06
1.55397e-06
9.39376e-06
2.1566e-05
1.30308e-06
7.34056e-06
4.27899e-05
9.38188e-07
3.28003e-06
5.23889e-05
6.80655e-07
4.26695e-05
4.12799e-07
1.24854e-06
-3.18103e-05
-4.80644e-07
3.42713e-06
-4.65968e-05
-1.18383e-06
5.72783e-06
-4.96116e-05
-1.40232e-06
7.8896e-06
-4.98725e-05
-1.41798e-06
9.84734e-06
-4.90099e-05
-1.43079e-06
1.1533e-05
-4.72713e-05
-1.47433e-06
1.28726e-05
-4.47311e-05
-1.54132e-06
1.38388e-05
-4.1493e-05
-1.61545e-06
1.44821e-05
-3.77209e-05
-1.68076e-06
1.49111e-05
-3.36151e-05
-1.72734e-06
1.52472e-05
-2.93985e-05
-1.75428e-06
1.55783e-05
-2.53009e-05
-1.76642e-06
1.59405e-05
-2.15346e-05
-1.76783e-06
1.63403e-05
-1.82576e-05
-1.75687e-06
1.67897e-05
-1.55352e-05
-1.72707e-06
1.73135e-05
-1.33332e-05
-1.67149e-06
1.79311e-05
-1.15596e-05
-1.58591e-06
1.86336e-05
-1.01185e-05
-1.46983e-06
1.93774e-05
-8.93943e-06
-1.32637e-06
2.01006e-05
-7.97817e-06
-1.16167e-06
2.0742e-05
-7.19815e-06
-9.82966e-07
2.1252e-05
-6.55952e-06
-7.91713e-07
2.15971e-05
-6.04421e-06
-5.86074e-07
2.17619e-05
-5.65253e-06
-3.67207e-07
2.17407e-05
-5.38555e-06
-1.32753e-07
2.15456e-05
-5.24422e-06
1.07723e-07
2.11483e-05
-5.25011e-06
3.6227e-07
2.03297e-05
-5.43064e-06
6.54193e-07
1.91276e-05
-5.59632e-06
1.01117e-06
1.80659e-05
-2.49767e-06
1.317e-06
1.38707e-05
1.10594e-05
8.58896e-07
3.2053e-06
3.02879e-05
3.19588e-07
-1.94975e-06
4.61921e-05
4.72798e-07
-1.76558e-06
5.11845e-05
5.32159e-07
4.06665e-05
2.75424e-07
2.07559e-06
-3.31192e-05
-7.66611e-07
4.56787e-06
-4.75605e-05
-1.46214e-06
6.91405e-06
-5.01619e-05
-1.7161e-06
8.99952e-06
-5.00945e-05
-1.77488e-06
1.07071e-05
-4.88137e-05
-1.80022e-06
1.18683e-05
-4.64679e-05
-1.8433e-06
1.23734e-05
-4.31906e-05
-1.91254e-06
1.22703e-05
-3.92663e-05
-1.99188e-06
1.17365e-05
-3.50092e-05
-2.06049e-06
1.09957e-05
-3.06758e-05
-2.10457e-06
1.02534e-05
-2.6471e-05
-2.12002e-06
9.6538e-06
-2.25568e-05
-2.10978e-06
9.25894e-06
-1.90515e-05
-2.0804e-06
9.06018e-06
-1.60335e-05
-2.03757e-06
9.01542e-06
-1.35324e-05
-1.98297e-06
9.08057e-06
-1.15157e-05
-1.91463e-06
9.21483e-06
-9.90003e-06
-1.82937e-06
9.36972e-06
-8.58612e-06
-1.72445e-06
9.4808e-06
-7.48962e-06
-1.59833e-06
9.47006e-06
-6.55223e-06
-1.45126e-06
9.25216e-06
-5.73137e-06
-1.28316e-06
8.75097e-06
-4.99891e-06
-1.09257e-06
7.89617e-06
-4.34281e-06
-8.78321e-07
6.60793e-06
-3.75734e-06
-6.37591e-07
4.79738e-06
-3.23615e-06
-3.66317e-07
2.36019e-06
-2.77309e-06
-5.51463e-08
-8.26138e-07
-2.37878e-06
2.99395e-07
-4.90681e-06
-2.06055e-06
7.08068e-07
-9.98581e-06
-1.63338e-06
1.1684e-06
-1.41998e-05
4.23953e-07
1.62988e-06
-1.19363e-05
8.27288e-06
1.55181e-06
-5.5462e-06
2.407e-05
6.6124e-07
-5.91476e-06
4.57459e-05
2.15116e-07
-2.87424e-06
4.77793e-05
1.2257e-07
3.80416e-05
6.03061e-09
2.33317e-06
-3.45564e-05
-8.5207e-07
4.60354e-06
-4.83308e-05
-1.3744e-06
6.57826e-06
-5.04138e-05
-1.59718e-06
8.27899e-06
-4.994e-05
-1.72611e-06
9.49056e-06
-4.80337e-05
-1.8451e-06
9.915e-06
-4.47421e-05
-1.98597e-06
9.51573e-06
-4.04915e-05
-2.13621e-06
8.55091e-06
-3.58974e-05
-2.26242e-06
7.36269e-06
-3.13683e-05
-2.34311e-06
6.24196e-06
-2.71004e-05
-2.37763e-06
5.38979e-06
-2.3194e-05
-2.37695e-06
4.91345e-06
-1.9705e-05
-2.35277e-06
4.83439e-06
-1.66582e-05
-2.31333e-06
5.10663e-06
-1.40583e-05
-2.26368e-06
5.64426e-06
-1.18919e-05
-2.20623e-06
6.35e-06
-1.01154e-05
-2.14119e-06
7.13323e-06
-8.65448e-06
-2.06726e-06
7.91411e-06
-7.42423e-06
-1.98237e-06
8.61908e-06
-6.34987e-06
-1.88424e-06
9.17466e-06
-5.3758e-06
-1.7707e-06
9.51091e-06
-4.46489e-06
-1.63997e-06
9.56083e-06
-3.59392e-06
-1.49016e-06
9.25051e-06
-2.74768e-06
-1.3175e-06
8.49488e-06
-1.91541e-06
-1.11598e-06
7.20181e-06
-1.09049e-06
-8.793e-07
5.28728e-06
-2.81859e-07
-6.01448e-07
2.54929e-06
6.11686e-07
-2.79289e-07
-1.20092e-06
1.56857e-06
8.32104e-08
-5.88495e-06
2.44898e-06
5.4164e-07
-9.88161e-06
3.31876e-06
1.03957e-06
-8.66561e-06
5.696e-06
1.58564e-06
2.15727e-06
1.34254e-05
1.99452e-06
6.76087e-06
4.23029e-05
1.45322e-06
3.96027e-06
5.09131e-05
9.37774e-07
4.15086e-05
5.57317e-07
2.95049e-06
-3.65638e-05
-7.95803e-07
4.81049e-06
-4.89185e-05
-1.05396e-06
6.05447e-06
-5.02525e-05
-1.21236e-06
6.94035e-06
-4.92121e-05
-1.42158e-06
7.10014e-06
-4.62785e-05
-1.69618e-06
6.26322e-06
-4.16336e-05
-2.04034e-06
4.7746e-06
-3.64317e-05
-2.36733e-06
3.15954e-06
-3.15284e-05
-2.59814e-06
1.78971e-06
-2.71711e-05
-2.71917e-06
8.67564e-07
-2.33562e-05
-2.75308e-06
4.81713e-07
-2.00397e-05
-2.72979e-06
6.44935e-07
-1.71783e-05
-2.67467e-06
1.31751e-06
-1.47288e-05
-2.60475e-06
2.42638e-06
-1.26538e-05
-2.5298e-06
3.8825e-06
-1.0919e-05
-2.45474e-06
5.59715e-06
-9.48003e-06
-2.3812e-06
7.49367e-06
-8.27669e-06
-2.30846e-06
9.51068e-06
-7.24248e-06
-2.23423e-06
1.15986e-05
-6.31786e-06
-2.15565e-06
1.37144e-05
-5.45683e-06
-2.06986e-06
1.58226e-05
-4.63207e-06
-1.97455e-06
1.78981e-05
-3.83254e-06
-1.86773e-06
1.99212e-05
-3.05073e-06
-1.74693e-06
2.18696e-05
-2.27591e-06
-1.6095e-06
2.37105e-05
-1.49405e-06
-1.4529e-06
2.53811e-05
-6.88724e-07
-1.27295e-06
2.69452e-05
1.061e-07
-1.06221e-06
2.81822e-05
1.14707e-06
-8.14221e-07
2.89535e-05
2.21248e-06
-5.29321e-07
2.90025e-05
3.47961e-06
-1.75616e-07
2.51219e-05
9.04451e-06
4.2451e-07
1.69619e-05
2.04151e-05
1.19045e-06
1.24401e-05
4.59206e-05
1.64976e-06
5.43527e-06
5.68342e-05
1.49977e-06
4.60629e-05
9.28899e-07
2.59629e-06
-3.85848e-05
-3.54562e-07
3.4784e-06
-4.94346e-05
-1.35149e-07
3.66498e-06
-5.00539e-05
-1.86982e-07
3.35857e-06
-4.8187e-05
-5.09424e-07
1.84075e-06
-4.34885e-05
-1.02596e-06
-6.39833e-07
-3.72667e-05
-1.66275e-06
-3.06722e-06
-3.16535e-05
-2.19563e-06
-4.83415e-06
-2.71392e-05
-2.53006e-06
-5.79231e-06
-2.34648e-05
-2.69988e-06
-5.9937e-06
-2.0374e-05
-2.762e-06
-5.54607e-06
-1.77297e-05
-2.75885e-06
-4.56248e-06
-1.54588e-05
-2.71785e-06
-3.14805e-06
-1.35104e-05
-2.65665e-06
-1.40088e-06
-1.18444e-05
-2.58612e-06
5.89285e-07
-1.04291e-05
-2.51289e-06
2.7502e-06
-9.23449e-06
-2.44071e-06
5.03317e-06
-8.22334e-06
-2.37087e-06
7.40317e-06
-7.34455e-06
-2.30248e-06
9.83475e-06
-6.5504e-06
-2.23354e-06
1.23187e-05
-5.81297e-06
-2.16104e-06
1.48566e-05
-5.11901e-06
-2.08143e-06
1.74511e-05
-4.46222e-06
-1.99199e-06
2.01048e-05
-3.83688e-06
-1.8905e-06
2.28182e-05
-3.23116e-06
-1.77553e-06
2.55856e-05
-2.62451e-06
-1.64763e-06
2.83879e-05
-1.98423e-06
-1.51079e-06
3.11262e-05
-1.26109e-06
-1.37252e-06
3.38956e-05
-3.89184e-07
-1.24018e-06
3.62875e-05
9.00698e-07
-1.11251e-06
3.63899e-05
4.12662e-06
-9.23887e-07
2.94334e-05
1.59188e-05
-6.74824e-07
1.46683e-05
3.41188e-05
-4.31634e-07
4.89853e-06
5.35032e-05
4.455e-07
1.62034e-06
5.87726e-05
7.97215e-07
4.78508e-05
4.46906e-07
2.17703e-06
-4.08256e-05
3.4445e-07
2.03293e-06
-5.01674e-05
1.09366e-06
1.06635e-06
-5.00393e-05
1.15919e-06
-6.36234e-07
-4.69231e-05
6.8173e-07
-3.90006e-06
-3.9756e-05
-1.91722e-07
-7.48566e-06
-3.23198e-05
-1.15725e-06
-1.00752e-05
-2.71001e-05
-1.84908e-06
-1.14384e-05
-2.34653e-05
-2.25192e-06
-1.17816e-05
-2.06269e-05
-2.4674e-06
-1.13622e-05
-1.82184e-05
-2.5683e-06
-1.03968e-05
-1.61054e-05
-2.5979e-06
-9.05189e-06
-1.42395e-05
-2.58361e-06
-7.44988e-06
-1.25966e-05
-2.54304e-06
-5.68127e-06
-1.11575e-05
-2.48754e-06
-3.8159e-06
-9.9044e-06
-2.42459e-06
-1.90623e-06
-8.82004e-06
-2.35918e-06
1.7448e-08
-7.88721e-06
-2.29435e-06
1.93982e-06
-7.07066e-06
-2.22991e-06
3.84443e-06
-6.32435e-06
-2.16308e-06
5.71838e-06
-5.62621e-06
-2.09151e-06
7.55615e-06
-4.97241e-06
-2.01299e-06
9.34984e-06
-4.35743e-06
-1.92404e-06
1.10876e-05
-3.77522e-06
-1.82059e-06
1.27571e-05
-3.21648e-06
-1.69921e-06
1.4347e-05
-2.66269e-06
-1.55786e-06
1.58417e-05
-2.07633e-06
-1.3975e-06
1.72087e-05
-1.3875e-06
-1.2247e-06
1.82887e-05
-4.02048e-07
-1.05189e-06
1.86287e-05
1.36707e-06
-8.50511e-07
1.61698e-05
6.7306e-06
-5.05474e-07
8.72239e-06
2.26287e-05
-4.85273e-07
-3.77811e-06
4.48451e-05
-1.14754e-06
-6.99832e-06
5.54883e-05
-7.88508e-07
-4.19523e-06
5.53125e-05
-5.24375e-07
4.35995e-05
-5.03056e-07
8.21414e-07
-4.2758e-05
1.32225e-06
-3.59297e-07
-5.144e-05
2.55209e-06
-2.29639e-06
-5.0748e-05
2.75178e-06
-5.04877e-06
-4.62038e-05
2.1883e-06
-9.04508e-06
-3.6578e-05
9.92159e-07
-1.2572e-05
-2.84745e-05
-2.10509e-07
-1.47273e-05
-2.39331e-05
-9.58692e-07
-1.56651e-05
-2.10572e-05
-1.4449e-06
-1.57176e-05
-1.87948e-05
-1.77092e-06
-1.51533e-05
-1.68009e-05
-1.98518e-06
-1.41749e-05
-1.49827e-05
-2.11404e-06
-1.29398e-05
-1.3317e-05
-2.17851e-06
-1.15706e-05
-1.17959e-05
-2.19679e-06
-1.01618e-05
-1.04144e-05
-2.18343e-06
-8.78536e-06
-9.16619e-06
-2.14906e-06
-7.49636e-06
-8.04346e-06
-2.10133e-06
-6.3353e-06
-7.03742e-06
-2.04591e-06
-5.32623e-06
-6.12815e-06
-1.98553e-06
-4.48066e-06
-5.28387e-06
-1.91933e-06
-3.81049e-06
-4.48288e-06
-1.84578e-06
-3.33921e-06
-3.71126e-06
-1.76325e-06
-3.09935e-06
-2.95725e-06
-1.66857e-06
-3.12743e-06
-2.21401e-06
-1.55795e-06
-3.46476e-06
-1.47041e-06
-1.4271e-06
-4.16788e-06
-6.95093e-07
-1.27138e-06
-5.26544e-06
1.21019e-07
-1.08647e-06
-6.6766e-06
9.40149e-07
-8.70259e-07
-8.38788e-06
2.02202e-06
-6.11274e-07
-1.03876e-05
3.89266e-06
-2.82086e-07
-1.17528e-05
8.62824e-06
1.31273e-07
-9.87224e-06
2.13722e-05
3.71367e-07
-8.86469e-06
4.33985e-05
-2.17703e-07
-8.51735e-06
5.38791e-05
-5.99158e-07
-5.23672e-06
5.14006e-05
-7.24972e-07
3.83153e-05
-6.02525e-07
-1.07362e-06
-4.38878e-05
2.21813e-06
-2.98817e-06
-5.32141e-05
3.61903e-06
-5.2056e-06
-5.25077e-05
3.87253e-06
-7.29743e-06
-4.75681e-05
3.36089e-06
-9.07118e-06
-3.70322e-05
2.1929e-06
-1.04838e-05
-2.80248e-05
9.82434e-07
-1.14015e-05
-2.30865e-05
1.0546e-07
-1.19302e-05
-2.00948e-05
-4.02489e-07
-1.2029e-05
-1.78483e-05
-8.26898e-07
-1.17463e-05
-1.59115e-05
-1.16324e-06
-1.1166e-05
-1.41496e-05
-1.41545e-06
-1.03821e-05
-1.25193e-05
-1.59285e-06
-9.4847e-06
-1.10039e-05
-1.70784e-06
-8.55467e-06
-9.59478e-06
-1.77357e-06
-7.66051e-06
-8.28628e-06
-1.80197e-06
-6.85949e-06
-7.07242e-06
-1.80277e-06
-6.20167e-06
-5.94455e-06
-1.78323e-06
-5.7256e-06
-4.88921e-06
-1.74852e-06
-5.45232e-06
-3.88911e-06
-1.70164e-06
-5.39924e-06
-2.92561e-06
-1.64341e-06
-5.59314e-06