/*--------------------------------*- C++ -*----------------------------------*\
| =========                 |                                                 |
| \\      /  F ield         | OpenFOAM: The Open Source CFD Toolbox           |
|  \\    /   O peration     | Version:  v2006                                 |
|   \\  /    A nd           | Website:  www.openfoam.com                      |
|    \\/     M anipulation  |                                                 |
\*---------------------------------------------------------------------------*/
FoamFile
{
    version     2.0;
    format      ascii;
    class       volScalarField;
    location    "73";
    object      alphat;
}
// * * * * * * * * * * * * * * * * * * * * * * * * * * * * * * * * * * * * * //

dimensions      [1 -1 -1 0 0 0 0];


internalField   nonuniform List<scalar> 
78750
(
2.82536e-09
5.11012e-07
9.40671e-07
1.35607e-06
1.75273e-06
2.12683e-06
2.47402e-06
2.79037e-06
3.07322e-06
3.32131e-06
3.53446e-06
3.71319e-06
3.85825e-06
3.9702e-06
4.05022e-06
4.0994e-06
4.11873e-06
4.10912e-06
4.07147e-06
4.00673e-06
3.9159e-06
3.80024e-06
3.66134e-06
3.49793e-06
3.31185e-06
3.10413e-06
2.87564e-06
2.62656e-06
2.3567e-06
2.06444e-06
1.74525e-06
1.39197e-06
1.00344e-06
6.01883e-07
9.03565e-09
3.72938e-09
3.34002e-06
6.29232e-06
8.51223e-06
1.05052e-05
1.25489e-05
1.4645e-05
1.67043e-05
1.86519e-05
2.04521e-05
2.21016e-05
2.36358e-05
2.48268e-05
2.51489e-05
2.5292e-05
2.52682e-05
2.50884e-05
2.47627e-05
2.43004e-05
2.37106e-05
2.30019e-05
2.21822e-05
2.12575e-05
2.02291e-05
1.91042e-05
1.78882e-05
1.65919e-05
1.43673e-05
1.20389e-05
9.55138e-06
6.87288e-06
4.60394e-06
3.54051e-06
2.14221e-06
2.76946e-08
5.69093e-09
2.33906e-06
4.74937e-06
7.26555e-06
1.00109e-05
1.30359e-05
1.6198e-05
1.92485e-05
2.19754e-05
2.4278e-05
2.61016e-05
2.67684e-05
2.70532e-05
2.71476e-05
2.70697e-05
2.6837e-05
2.64673e-05
2.52763e-05
2.37618e-05
2.22081e-05
2.07411e-05
1.9438e-05
1.83176e-05
1.73861e-05
1.66185e-05
1.59081e-05
1.50771e-05
1.39e-05
1.21408e-05
9.70088e-06
7.04316e-06
5.27685e-06
5.4091e-06
2.20154e-06
4.39397e-08
1.0123e-08
2.1917e-06
4.80829e-06
8.27395e-06
1.26971e-05
1.7676e-05
2.23333e-05
2.60234e-05
2.8639e-05
3.01585e-05
3.05969e-05
3.07791e-05
3.05641e-05
2.94213e-05
2.78689e-05
2.60989e-05
2.42584e-05
2.24435e-05
2.07074e-05
1.90861e-05
1.76115e-05
1.63308e-05
1.52953e-05
1.45277e-05
1.40118e-05
1.36611e-05
1.32707e-05
1.25071e-05
1.10374e-05
8.87983e-06
6.74175e-06
5.7413e-06
7.10429e-06
2.09983e-06
5.78763e-08
1.46117e-08
2.21054e-06
5.13598e-06
9.58559e-06
1.57749e-05
2.25e-05
2.7944e-05
3.07205e-05
3.15998e-05
3.21418e-05
3.23869e-05
3.19765e-05
2.99517e-05
2.75974e-05
2.52353e-05
2.3032e-05
2.10589e-05
1.93185e-05
1.77774e-05
1.63976e-05
1.51607e-05
1.40799e-05
1.31957e-05
1.25441e-05
1.21263e-05
1.18726e-05
1.15874e-05
1.09455e-05
9.67892e-06
7.9482e-06
6.47274e-06
6.27525e-06
8.26249e-06
2.02371e-06
6.82342e-08
1.97814e-08
2.22943e-06
5.3584e-06
1.05225e-05
1.80505e-05
2.58748e-05
3.14132e-05
3.34646e-05
3.4275e-05
3.46947e-05
3.29048e-05
3.0367e-05
2.75745e-05
2.48669e-05
2.24466e-05
2.03841e-05
1.86548e-05
1.71899e-05
1.59177e-05
1.47818e-05
1.37532e-05
1.28377e-05
1.20595e-05
1.14375e-05
1.09719e-05
1.06105e-05
1.02024e-05
9.50947e-06
8.38443e-06
7.0488e-06
6.12698e-06
6.58455e-06
8.66023e-06
2.00395e-06
7.67113e-08
2.40614e-08
2.28332e-06
5.60801e-06
1.1348e-05
1.98733e-05
2.8343e-05
3.37723e-05
3.53439e-05
3.60819e-05
3.47367e-05
3.20077e-05
2.87617e-05
2.55404e-05
2.26743e-05
2.0283e-05
1.83438e-05
1.6777e-05
1.54941e-05
1.44149e-05
1.34797e-05
1.26612e-05
1.19584e-05
1.13593e-05
1.08397e-05
1.03739e-05
9.90899e-06
9.33839e-06
8.53401e-06
7.48571e-06
6.44999e-06
5.95719e-06
6.9543e-06
8.54364e-06
1.98108e-06
8.44488e-08
2.84458e-08
2.31784e-06
5.72942e-06
1.177e-05
2.0891e-05
2.97432e-05
3.50204e-05
3.69865e-05
3.65005e-05
3.42732e-05
3.10317e-05
2.74766e-05
2.41349e-05
2.12723e-05
1.89393e-05
1.70745e-05
1.55842e-05
1.43781e-05
1.33824e-05
1.25486e-05
1.18575e-05
1.13001e-05
1.08326e-05
1.03928e-05
9.92207e-06
9.36237e-06
8.65224e-06
7.76173e-06
6.77673e-06
5.9581e-06
5.76776e-06
7.15273e-06
8.30713e-06
1.97297e-06
9.19616e-08
3.19115e-08
2.34778e-06
5.82152e-06
1.20605e-05
2.15578e-05
3.06137e-05
3.57348e-05
3.73382e-05
3.63922e-05
3.3708e-05
3.01208e-05
2.63867e-05
2.30063e-05
2.01808e-05
1.7908e-05
1.61012e-05
1.46623e-05
1.35062e-05
1.25678e-05
1.18128e-05
1.12393e-05
1.08311e-05
1.05105e-05
1.01754e-05
9.72838e-06
9.09925e-06
8.26841e-06
7.29479e-06
6.3389e-06
5.66233e-06
5.6884e-06
7.37634e-06
7.98041e-06
1.96298e-06
9.96122e-08
3.58976e-08
2.37475e-06
5.88556e-06
1.22601e-05
2.20239e-05
3.11923e-05
3.61571e-05
3.74803e-05
3.62228e-05
3.32686e-05
2.9507e-05
2.56994e-05
2.23115e-05
1.9504e-05
1.72492e-05
1.54514e-05
1.40119e-05
1.28521e-05
1.19173e-05
1.11856e-05
1.06694e-05
1.03516e-05
1.01378e-05
9.89751e-06
9.49743e-06
8.848e-06
7.95435e-06
6.93926e-06
6.01439e-06
5.44104e-06
5.62341e-06
7.53589e-06
7.68254e-06
1.95664e-06
1.07256e-07
3.93223e-08
2.39609e-06
5.93308e-06
1.23977e-05
2.23342e-05
3.15695e-05
3.64094e-05
3.75027e-05
3.59817e-05
3.2805e-05
2.89151e-05
2.50743e-05
2.17101e-05
1.89425e-05
1.67207e-05
1.49415e-05
1.3507e-05
1.23431e-05
1.14039e-05
1.06823e-05
1.02074e-05
9.95855e-06
9.82993e-06
9.67129e-06
9.32127e-06
8.67281e-06
7.74735e-06
6.71197e-06
5.81381e-06
5.31717e-06
5.62289e-06
7.7237e-06
7.39008e-06
1.95044e-06
1.14759e-07
4.33374e-08
2.41937e-06
5.9863e-06
1.25581e-05
2.26777e-05
3.1931e-05
3.66048e-05
3.74816e-05
3.57568e-05
3.24348e-05
2.84775e-05
2.46305e-05
2.12882e-05
1.85443e-05
1.63358e-05
1.45567e-05
1.31116e-05
1.19304e-05
1.09731e-05
1.02418e-05
9.77861e-06
9.56395e-06
9.48777e-06
9.38982e-06
9.09093e-06
8.4691e-06
7.55112e-06
6.52825e-06
5.66764e-06
5.2378e-06
5.64684e-06
7.90595e-06
7.13253e-06
1.9462e-06
1.2197e-07
4.70737e-08
2.44077e-06
6.03622e-06
1.2698e-05
2.29571e-05
3.2215e-05
3.67492e-05
3.74358e-05
3.55264e-05
3.20764e-05
2.807e-05
2.42344e-05
2.09285e-05
1.82187e-05
1.60303e-05
1.42554e-05
1.28014e-05
1.16029e-05
1.0626e-05
9.88212e-06
9.4237e-06
9.22947e-06
9.18664e-06
9.13032e-06
8.87184e-06
8.28097e-06
7.38737e-06
6.39431e-06
5.5775e-06
5.20966e-06
5.71399e-06
8.1173e-06
6.89853e-06
1.94338e-06
1.28808e-07
5.1224e-08
2.4638e-06
6.09343e-06
1.28664e-05
2.32878e-05
3.25216e-05
3.6883e-05
3.73802e-05
3.53164e-05
3.17792e-05
2.77546e-05
2.39427e-05
2.06709e-05
1.79864e-05
1.58078e-05
1.40283e-05
1.25585e-05
1.1337e-05
1.03348e-05
9.56968e-06
9.10249e-06
8.91186e-06
8.88402e-06
8.85375e-06
8.62882e-06
8.07523e-06
7.22273e-06
6.27665e-06
5.51296e-06
5.20792e-06
5.80405e-06
8.33828e-06
6.69753e-06
1.94267e-06
1.35233e-07
5.52426e-08
2.48674e-06
6.1519e-06
1.30297e-05
2.35898e-05
3.27914e-05
3.69981e-05
3.73261e-05
3.51259e-05
3.15183e-05
2.74898e-05
2.37121e-05
2.04808e-05
1.78246e-05
1.56567e-05
1.38714e-05
1.23832e-05
1.11355e-05
1.01043e-05
9.31348e-06
8.83155e-06
8.63704e-06
8.6142e-06
8.59774e-06
8.39729e-06
7.87953e-06
7.07402e-06
6.18275e-06
5.47693e-06
5.23579e-06
5.92394e-06
8.57915e-06
6.52394e-06
1.944e-06
1.41265e-07
5.94965e-08
2.51053e-06
6.21469e-06
1.32102e-05
2.39228e-05
3.30772e-05
3.71155e-05
3.72809e-05
3.49666e-05
3.13138e-05
2.72984e-05
2.35605e-05
2.03677e-05
1.77351e-05
1.55726e-05
1.37768e-05
1.22657e-05
1.09872e-05
9.92166e-06
9.09799e-06
8.59085e-06
8.38187e-06
8.3544e-06
8.34376e-06
8.16211e-06
7.68025e-06
6.92723e-06
6.0977e-06
5.45476e-06
5.28011e-06
6.0616e-06
8.82682e-06
6.37933e-06
1.94749e-06
1.46923e-07
6.36859e-08
2.53459e-06
6.27929e-06
1.33905e-05
2.4242e-05
3.33441e-05
3.72279e-05
3.7249e-05
3.48387e-05
3.11564e-05
2.71647e-05
2.34721e-05
2.03202e-05
1.77118e-05
1.55543e-05
1.3746e-05
1.22088e-05
1.08947e-05
9.78981e-06
8.92693e-06
8.38642e-06
8.15478e-06
8.11497e-06
8.10399e-06
7.93789e-06
7.49137e-06
6.79251e-06
6.0273e-06
5.44921e-06
5.34269e-06
6.21952e-06
9.08352e-06
6.26049e-06
1.95315e-06
1.52261e-07
6.79991e-08
2.55911e-06
6.34672e-06
1.3582e-05
2.45803e-05
3.36231e-05
3.73503e-05
3.72363e-05
3.47461e-05
3.1049e-05
2.70891e-05
2.34438e-05
2.0332e-05
1.77466e-05
1.5593e-05
1.37712e-05
1.22057e-05
1.08531e-05
9.70387e-06
8.79484e-06
8.21075e-06
7.94649e-06
7.88572e-06
7.86799e-06
7.71438e-06
7.30371e-06
6.66132e-06
5.9626e-06
5.45128e-06
5.41502e-06
6.38949e-06
9.34124e-06
6.16542e-06
1.9608e-06
1.573e-07
7.22812e-08
2.58384e-06
6.41576e-06
1.37756e-05
2.4914e-05
3.38948e-05
3.74769e-05
3.72437e-05
3.46887e-05
3.09879e-05
2.70654e-05
2.34695e-05
2.03987e-05
1.78368e-05
1.56878e-05
1.38522e-05
1.22569e-05
1.08626e-05
9.66396e-06
8.70206e-06
8.06517e-06
7.75943e-06
7.67027e-06
7.64071e-06
7.49748e-06
7.12294e-06
6.53825e-06
5.90705e-06
5.46326e-06
5.49855e-06
6.5726e-06
9.60054e-06
6.0912e-06
1.97031e-06
1.62089e-07
7.6629e-08
2.60881e-06
6.48713e-06
1.39789e-05
2.52639e-05
3.41793e-05
3.7618e-05
3.72734e-05
3.46634e-05
3.09656e-05
2.70833e-05
2.35377e-05
2.05087e-05
1.79725e-05
1.58306e-05
1.39834e-05
1.23596e-05
1.09224e-05
9.67041e-06
8.64881e-06
7.94932e-06
7.59228e-06
7.46614e-06
7.4184e-06
7.28214e-06
6.943e-06
6.41664e-06
5.85386e-06
5.47864e-06
5.58714e-06
6.76273e-06
9.85642e-06
6.0351e-06
1.98143e-06
1.66639e-07
8.09621e-08
2.63372e-06
6.5597e-06
1.41863e-05
2.56165e-05
3.44663e-05
3.77713e-05
3.73269e-05
3.46712e-05
3.09815e-05
2.71409e-05
2.36457e-05
2.06596e-05
1.8151e-05
1.60186e-05
1.4162e-05
1.25106e-05
1.10293e-05
9.7204e-06
8.63287e-06
7.86229e-06
7.44542e-06
7.27502e-06
7.20387e-06
7.07186e-06
6.76741e-06
6.29946e-06
5.80523e-06
5.499e-06
5.68207e-06
6.96132e-06
1.01108e-05
5.99521e-06
1.99409e-06
1.70983e-07
8.53283e-08
2.6585e-06
6.63381e-06
1.44026e-05
2.59864e-05
3.47709e-05
3.79446e-05
3.74038e-05
3.47045e-05
3.10233e-05
2.72246e-05
2.37814e-05
2.08413e-05
1.83649e-05
1.62474e-05
1.43866e-05
1.27111e-05
1.11866e-05
9.81811e-06
8.65862e-06
7.80769e-06
7.32135e-06
7.09808e-06
6.99668e-06
6.86434e-06
6.59213e-06
6.18152e-06
5.75555e-06
5.51872e-06
5.77754e-06
7.16136e-06
1.03565e-05
5.96724e-06
2.00769e-06
1.75126e-07
8.96835e-08
2.6828e-06
6.70802e-06
1.46226e-05
2.63655e-05
3.50922e-05
3.81423e-05
3.75068e-05
3.47628e-05
3.10891e-05
2.73319e-05
2.39416e-05
2.10498e-05
1.86093e-05
1.65112e-05
1.4651e-05
1.29552e-05
1.13893e-05
9.95989e-06
8.72388e-06
7.78528e-06
7.22124e-06
6.93764e-06
6.80002e-06
6.66319e-06
6.42063e-06
6.06584e-06
5.70736e-06
5.53996e-06
5.87573e-06
7.36693e-06
1.06037e-05
5.95145e-06
2.02243e-06
1.79089e-07
9.40482e-08
2.7066e-06
6.78211e-06
1.48461e-05
2.67497e-05
3.54054e-05
3.83334e-05
3.7616e-05
3.48303e-05
3.11653e-05
2.74521e-05
2.41181e-05
2.12794e-05
1.88809e-05
1.68092e-05
1.49566e-05
1.32464e-05
1.16423e-05
1.01518e-05
8.83528e-06
7.80171e-06
7.15032e-06
6.79728e-06
6.61562e-06
6.46812e-06
6.25076e-06
5.94889e-06
5.6564e-06
5.55835e-06
5.97265e-06
7.57447e-06
1.08497e-05
5.94812e-06
2.03806e-06
1.82876e-07
9.83963e-08
2.72982e-06
6.85541e-06
1.50675e-05
2.71235e-05
3.57021e-05
3.85111e-05
3.77168e-05
3.49033e-05
3.1251e-05
2.75825e-05
2.43063e-05
2.15236e-05
1.91713e-05
1.71318e-05
1.52935e-05
1.35755e-05
1.19385e-05
1.03892e-05
8.9909e-06
7.85818e-06
7.11109e-06
6.68059e-06
6.44765e-06
6.28336e-06
6.08636e-06
5.83395e-06
5.60538e-06
5.57586e-06
6.06902e-06
7.78323e-06
1.10928e-05
5.95561e-06
2.05482e-06
1.86503e-07
1.02742e-07
2.7527e-06
6.92916e-06
1.52917e-05
2.74926e-05
3.59881e-05
3.86783e-05
3.78093e-05
3.49747e-05
3.13379e-05
2.77169e-05
2.45024e-05
2.17806e-05
1.94806e-05
1.74807e-05
1.56646e-05
1.39467e-05
1.22827e-05
1.06776e-05
9.19701e-06
7.96139e-06
7.10925e-06
6.59181e-06
6.29875e-06
6.10977e-06
5.92655e-06
5.71877e-06
5.55128e-06
5.58958e-06
6.16383e-06
7.99662e-06
1.13339e-05
5.97231e-06
2.07259e-06
1.89979e-07
1.07062e-07
2.77475e-06
7.00262e-06
1.55196e-05
2.78499e-05
3.62566e-05
3.88288e-05
3.78869e-05
3.50342e-05
3.14189e-05
2.78491e-05
2.46987e-05
2.20408e-05
1.97979e-05
1.78439e-05
1.60581e-05
1.43489e-05
1.26661e-05
1.1011e-05
9.45054e-06
8.11126e-06
7.1472e-06
6.53501e-06
6.17376e-06
5.9522e-06
5.77567e-06
5.60701e-06
5.49727e-06
5.60245e-06
6.25948e-06
8.21458e-06
1.15743e-05
5.99664e-06
2.09126e-06
1.93315e-07
1.11358e-07
2.79563e-06
7.07282e-06
1.57407e-05
2.81958e-05
3.65092e-05
3.89639e-05
3.79511e-05
3.50839e-05
3.15005e-05
2.79825e-05
2.48965e-05
2.23061e-05
2.01258e-05
1.82248e-05
1.64773e-05
1.47854e-05
1.30919e-05
1.13928e-05
9.75503e-06
8.31084e-06
7.22792e-06
6.51283e-06
6.07495e-06
5.81212e-06
5.63395e-06
5.49759e-06
5.44122e-06
5.61155e-06
6.35201e-06
8.43152e-06
1.18116e-05
6.02741e-06
2.11061e-06
1.96521e-07
1.15619e-07
2.81594e-06
7.14216e-06
1.59599e-05
2.85318e-05
3.67457e-05
3.90813e-05
3.79966e-05
3.51136e-05
3.15629e-05
2.80992e-05
2.50819e-05
2.2564e-05
2.04522e-05
1.86108e-05
1.69098e-05
1.52446e-05
1.35502e-05
1.18155e-05
1.01056e-05
8.55759e-06
7.3519e-06
6.52794e-06
6.00622e-06
5.69394e-06
5.50572e-06
5.39437e-06
5.38635e-06
5.61939e-06
6.44321e-06
8.64853e-06
1.20456e-05
6.06299e-06
2.13043e-06
1.99607e-07
1.19855e-07
2.83545e-06
7.20956e-06
1.61753e-05
2.88571e-05
3.69659e-05
3.9182e-05
3.80259e-05
3.5129e-05
3.16135e-05
2.82079e-05
2.52631e-05
2.28214e-05
2.07823e-05
1.90062e-05
1.73585e-05
1.57285e-05
1.40423e-05
1.22801e-05
1.05032e-05
8.85268e-06
7.5208e-06
6.58227e-06
5.96952e-06
5.59926e-06
5.39186e-06
5.29724e-06
5.33163e-06
5.62427e-06
6.53067e-06
8.86203e-06
1.22754e-05
6.10309e-06
2.15066e-06
2.02586e-07
1.24048e-07
2.85433e-06
7.27561e-06
1.63873e-05
2.9171e-05
3.71684e-05
3.92623e-05
3.80327e-05
3.51204e-05
3.16402e-05
2.8295e-05
2.5426e-05
2.30645e-05
2.11029e-05
1.9398e-05
1.78112e-05
1.62255e-05
1.45576e-05
1.27779e-05
1.09419e-05
9.1927e-06
7.73431e-06
6.67763e-06
5.96806e-06
5.53211e-06
5.2966e-06
5.21009e-06
5.28011e-06
5.62798e-06
6.61477e-06
9.07277e-06
1.25009e-05
6.14644e-06
2.17115e-06
2.0547e-07
1.28224e-07
2.87286e-06
7.34087e-06
1.6597e-05
2.94746e-05
3.73543e-05
3.93243e-05
3.80204e-05
3.50933e-05
3.16508e-05
2.837e-05
2.55798e-05
2.33011e-05
2.14204e-05
1.9791e-05
1.82708e-05
1.67365e-05
1.50956e-05
1.33076e-05
1.14202e-05
9.57685e-06
7.9926e-06
6.8149e-06
6.00314e-06
5.49399e-06
5.22125e-06
5.13363e-06
5.23183e-06
5.63062e-06
6.69717e-06
9.27817e-06
1.2722e-05
6.19306e-06
2.19187e-06
2.08275e-07
1.32359e-07
2.89096e-06
7.40514e-06
1.68026e-05
2.97646e-05
3.752e-05
3.93626e-05
3.79814e-05
3.50376e-05
3.1633e-05
2.84213e-05
2.57118e-05
2.35182e-05
2.17222e-05
2.01735e-05
1.87263e-05
1.72512e-05
1.56464e-05
1.386e-05
1.19304e-05
9.99985e-06
8.29351e-06
6.99424e-06
6.07672e-06
5.48805e-06
5.16962e-06
5.07177e-06
5.19041e-06
5.63518e-06
6.77926e-06
9.48078e-06
1.29395e-05
6.24205e-06
2.2127e-06
2.11008e-07
1.36487e-07
2.90918e-06
7.47021e-06
1.7006e-05
3.00433e-05
3.76675e-05
3.93805e-05
3.79213e-05
3.49612e-05
3.15957e-05
2.84567e-05
2.58294e-05
2.3723e-05
2.20148e-05
2.05507e-05
1.91809e-05
1.77704e-05
1.62087e-05
1.4432e-05
1.24689e-05
1.04584e-05
8.63484e-06
7.21444e-06
6.18861e-06
5.51501e-06
5.14295e-06
5.02578e-06
5.1566e-06
5.64132e-06
6.85914e-06
9.67852e-06
1.31538e-05
6.29357e-06
2.23364e-06
2.13683e-07
1.40547e-07
2.92669e-06
7.53458e-06
1.72018e-05
3.03056e-05
3.77927e-05
3.93713e-05
3.78306e-05
3.48535e-05
3.15288e-05
2.84638e-05
2.59213e-05
2.39056e-05
2.2289e-05
2.09136e-05
1.96262e-05
1.82862e-05
1.67744e-05
1.50155e-05
1.30274e-05
1.09455e-05
9.01203e-06
7.47307e-06
6.33836e-06
5.57616e-06
5.14395e-06
4.9992e-06
5.13404e-06
5.65225e-06
6.9394e-06
9.87384e-06
1.33653e-05
6.34674e-06
2.25456e-06
2.16299e-07
1.44581e-07
2.94295e-06
7.59595e-06
1.73956e-05
3.05605e-05
3.7902e-05
3.93437e-05
3.77215e-05
3.47264e-05
3.14385e-05
2.8447e-05
2.59941e-05
2.40729e-05
2.25503e-05
2.12664e-05
2.00644e-05
1.87988e-05
1.73419e-05
1.56071e-05
1.36015e-05
1.14562e-05
9.42034e-06
7.76616e-06
6.52328e-06
5.67025e-06
5.17265e-06
4.99293e-06
5.12389e-06
5.66874e-06
7.02006e-06
1.00662e-05
1.35749e-05
6.40167e-06
2.27545e-06
2.18864e-07
1.48575e-07
2.95853e-06
7.65602e-06
1.75856e-05
3.0801e-05
3.799e-05
3.9291e-05
3.75842e-05
3.45713e-05
3.13241e-05
2.84079e-05
2.60408e-05
2.42136e-05
2.27895e-05
2.16015e-05
2.04891e-05
1.93023e-05
1.79054e-05
1.62006e-05
1.41845e-05
1.19835e-05
9.85351e-06
8.08884e-06
6.74018e-06
5.79598e-06
5.22964e-06
5.00904e-06
5.12911e-06
5.69413e-06
7.10464e-06
1.0259e-05
1.37832e-05
6.45768e-06
2.29623e-06
2.21371e-07
1.52565e-07
2.9735e-06
7.71491e-06
1.77741e-05
3.10315e-05
3.80601e-05
3.9218e-05
3.7426e-05
3.43949e-05
3.11876e-05
2.83476e-05
2.60712e-05
2.43399e-05
2.30124e-05
2.19218e-05
2.09019e-05
1.97964e-05
1.84629e-05
1.67928e-05
1.47719e-05
1.25222e-05
1.03057e-05
8.43574e-06
6.98462e-06
5.95025e-06
5.31336e-06
5.04731e-06
5.15029e-06
5.72924e-06
7.1938e-06
1.04527e-05
1.39906e-05
6.51478e-06
2.31689e-06
2.2382e-07
1.56503e-07
2.9875e-06
7.77158e-06
1.79574e-05
3.12466e-05
3.81083e-05
3.91197e-05
3.72407e-05
3.41912e-05
3.10249e-05
2.8262e-05
2.60774e-05
2.44447e-05
2.32167e-05
2.22222e-05
2.12969e-05
2.02772e-05
1.90106e-05
1.73791e-05
1.53582e-05
1.30658e-05
1.07699e-05
8.80099e-06
7.25198e-06
6.13002e-06
5.42266e-06
5.10858e-06
5.18984e-06
5.77745e-06
7.29152e-06
1.06514e-05
1.41981e-05
6.57238e-06
2.33734e-06
2.262e-07
1.60443e-07
3.00107e-06
7.82758e-06
1.81394e-05
3.14516e-05
3.81393e-05
3.90017e-05
3.70348e-05
3.39675e-05
3.08426e-05
2.81572e-05
2.60654e-05
2.45321e-05
2.3405e-05
2.25093e-05
2.16766e-05
2.07434e-05
1.95468e-05
1.79566e-05
1.59397e-05
1.36099e-05
1.12413e-05
9.1797e-06
7.53756e-06
6.33099e-06
5.55413e-06
5.19082e-06
5.2473e-06
5.83957e-06
7.39942e-06
1.08569e-05
1.44069e-05
6.63073e-06
2.35762e-06
2.28507e-07
1.64325e-07
3.01368e-06
7.88129e-06
1.83158e-05
3.16408e-05
3.8149e-05
3.886e-05
3.68039e-05
3.37187e-05
3.06361e-05
2.80293e-05
2.60319e-05
2.45993e-05
2.35741e-05
2.27785e-05
2.20409e-05
2.11924e-05
2.00672e-05
1.85215e-05
1.65117e-05
1.41492e-05
1.17146e-05
9.56759e-06
7.83803e-06
6.55063e-06
5.70602e-06
5.29321e-06
5.32302e-06
5.91729e-06
7.52039e-06
1.10727e-05
1.46168e-05
6.68936e-06
2.37767e-06
2.30727e-07
1.682e-07
3.02598e-06
7.93464e-06
1.84916e-05
3.18209e-05
3.81431e-05
3.87e-05
3.6554e-05
3.34514e-05
3.04117e-05
2.78839e-05
2.59813e-05
2.46496e-05
2.37266e-05
2.30314e-05
2.23894e-05
2.16267e-05
2.05699e-05
1.90697e-05
1.70706e-05
1.46801e-05
1.21857e-05
9.96081e-06
8.14997e-06
6.78613e-06
5.87615e-06
5.41421e-06
5.41607e-06
6.01026e-06
7.65486e-06
1.12997e-05
1.4828e-05
6.74832e-06
2.39751e-06
2.32852e-07
1.71997e-07
3.03733e-06
7.98556e-06
1.86612e-05
3.19853e-05
3.81171e-05
3.85179e-05
3.6281e-05
3.31617e-05
3.01661e-05
2.77184e-05
2.59117e-05
2.46819e-05
2.38612e-05
2.32665e-05
2.272e-05
2.20435e-05
2.10557e-05
1.95981e-05
1.76104e-05
1.51963e-05
1.26492e-05
1.03549e-05
8.47004e-06
7.03524e-06
6.06336e-06
5.5537e-06
5.52729e-06
6.12029e-06
7.80559e-06
1.15413e-05
1.50415e-05
6.80756e-06
2.41715e-06
2.34877e-07
1.75764e-07
3.04836e-06
8.03602e-06
1.88299e-05
3.21409e-05
3.80768e-05
3.83189e-05
3.59904e-05
3.28552e-05
2.99047e-05
2.75375e-05
2.58272e-05
2.4699e-05
2.39803e-05
2.34851e-05
2.30334e-05
2.2442e-05
2.15229e-05
2.01086e-05
1.81319e-05
1.56965e-05
1.31023e-05
1.07464e-05
8.79433e-06
7.29422e-06
6.26457e-06
5.70947e-06
5.65533e-06
6.2467e-06
7.97255e-06
1.17978e-05
1.52576e-05
6.86741e-06
2.43667e-06
2.36808e-07
1.79437e-07
3.05853e-06
8.08418e-06
1.89927e-05
3.22814e-05
3.80174e-05
3.80989e-05
3.56785e-05
3.25286e-05
2.96248e-05
2.73393e-05
2.57265e-05
2.47002e-05
2.40832e-05
2.36871e-05
2.33288e-05
2.28212e-05
2.19692e-05
2.05972e-05
1.86319e-05
1.61779e-05
1.35423e-05
1.11327e-05
9.12044e-06
7.56072e-06
6.47776e-06
5.88034e-06
5.80024e-06
6.39085e-06
8.15788e-06
1.20713e-05
1.54769e-05
6.92805e-06
2.4561e-06
2.38654e-07
1.83057e-07
3.06835e-06
8.13169e-06
1.9154e-05
3.24129e-05
3.79445e-05
3.78631e-05
3.53505e-05
3.21874e-05
2.93318e-05
2.71287e-05
2.56135e-05
2.46889e-05
2.41726e-05
2.3874e-05
2.36076e-05
2.31816e-05
2.23945e-05
2.10631e-05
1.91091e-05
1.66387e-05
1.39679e-05
1.15122e-05
9.44623e-06
7.83224e-06
6.70016e-06
6.06349e-06
5.95938e-06
6.55053e-06
8.36048e-06
1.23612e-05
1.56995e-05
6.9898e-06
2.47552e-06
2.40431e-07
1.86572e-07
3.07739e-06
8.17712e-06
1.93098e-05
3.25302e-05
3.78535e-05
3.76075e-05
3.50029e-05
3.18287e-05
2.90234e-05
2.69041e-05
2.54874e-05
2.46645e-05
2.42484e-05
2.40462e-05
2.387e-05
2.35236e-05
2.2799e-05
2.15062e-05
1.95628e-05
1.70778e-05
1.4376e-05
1.18822e-05
9.76974e-06
8.10713e-06
6.93022e-06
6.2575e-06
6.13187e-06
6.72594e-06
8.5803e-06
1.26674e-05
1.59247e-05
7.05263e-06
2.49497e-06
2.42148e-07
1.90017e-07
3.08609e-06
8.22182e-06
1.94637e-05
3.26384e-05
3.77494e-05
3.73369e-05
3.46409e-05
3.14577e-05
2.87047e-05
2.667e-05
2.5352e-05
2.46302e-05
2.43129e-05
2.42054e-05
2.4117e-05
2.38473e-05
2.31822e-05
2.19254e-05
1.9992e-05
1.74948e-05
1.47676e-05
1.22421e-05
1.00893e-05
8.38349e-06
7.16613e-06
6.46085e-06
6.31679e-06
6.91693e-06
8.81673e-06
1.29888e-05
1.61522e-05
7.11649e-06
2.51442e-06
2.43817e-07
1.93352e-07
3.09409e-06
8.26461e-06
1.96127e-05
3.2733e-05
3.7628e-05
3.70472e-05
3.42608e-05
3.10717e-05
2.83734e-05
2.64249e-05
2.52064e-05
2.45857e-05
2.43665e-05
2.43522e-05
2.43497e-05
2.41542e-05
2.35457e-05
2.23225e-05
2.03981e-05
1.78904e-05
1.51428e-05
1.25918e-05
1.04043e-05
8.66017e-06
7.40663e-06
6.67236e-06
6.51293e-06
7.12204e-06
9.06939e-06
1.33249e-05
1.63816e-05
7.18145e-06
2.53398e-06
2.45447e-07
1.96603e-07
3.10173e-06
8.30655e-06
1.97592e-05
3.2818e-05
3.74933e-05
3.67429e-05
3.38676e-05
3.06756e-05
2.80345e-05
2.6173e-05
2.50542e-05
2.45336e-05
2.44109e-05
2.44877e-05
2.45684e-05
2.4444e-05
2.38889e-05
2.26967e-05
2.07808e-05
1.82653e-05
1.55028e-05
1.29315e-05
1.0714e-05
8.93604e-06
7.65033e-06
6.89053e-06
6.71872e-06
7.33956e-06
9.33675e-06
1.36741e-05
1.66124e-05
7.2473e-06
2.55346e-06
2.47043e-07
1.9974e-07
3.10869e-06
8.3466e-06
1.99007e-05
3.28897e-05
3.73415e-05
3.64203e-05
3.34579e-05
3.02669e-05
2.7686e-05
2.59132e-05
2.48948e-05
2.44742e-05
2.4447e-05
2.46134e-05
2.47751e-05
2.47189e-05
2.42142e-05
2.30506e-05
2.11428e-05
1.86222e-05
1.58502e-05
1.32626e-05
1.10185e-05
9.21013e-06
7.89584e-06
7.11395e-06
6.93292e-06
7.5685e-06
9.61811e-06
1.40354e-05
1.68439e-05
7.31392e-06
2.57312e-06
2.48615e-07
2.02786e-07
3.11526e-06
8.38558e-06
2.00391e-05
3.29509e-05
3.71761e-05
3.6083e-05
3.30362e-05
2.98499e-05
2.73321e-05
2.56491e-05
2.4731e-05
2.44094e-05
2.4476e-05
2.47294e-05
2.49691e-05
2.4978e-05
2.45203e-05
2.33831e-05
2.14837e-05
1.89618e-05
1.61868e-05
1.35863e-05
1.13189e-05
9.48313e-06
8.14296e-06
7.34171e-06
7.1542e-06
7.80736e-06
9.91188e-06
1.44073e-05
1.70757e-05
7.38143e-06
2.59309e-06
2.50168e-07
2.05715e-07
3.12117e-06
8.42268e-06
2.01724e-05
3.29989e-05
3.69939e-05
3.57282e-05
3.25997e-05
2.94229e-05
2.69715e-05
2.53801e-05
2.4563e-05
2.434e-05
2.44993e-05
2.4838e-05
2.51533e-05
2.52239e-05
2.48099e-05
2.36965e-05
2.18054e-05
1.92854e-05
1.65134e-05
1.39036e-05
1.16154e-05
9.75446e-06
8.39058e-06
7.57257e-06
7.38139e-06
8.05513e-06
1.02171e-05
1.47885e-05
1.73068e-05
7.44943e-06
2.61316e-06
2.51699e-07
2.0855e-07
3.12666e-06
8.45862e-06
2.03023e-05
3.30362e-05
3.67977e-05
3.53589e-05
3.21521e-05
2.89893e-05
2.66074e-05
2.51087e-05
2.43927e-05
2.42673e-05
2.45174e-05
2.4939e-05
2.5327e-05
2.5456e-05
2.50823e-05
2.39906e-05
2.21079e-05
1.95933e-05
1.68301e-05
1.42148e-05
1.19089e-05
1.00252e-05
8.63984e-06
7.8068e-06
7.61403e-06
8.31082e-06
1.05326e-05
1.51773e-05
1.7537e-05
7.518e-06
2.63329e-06
2.53209e-07
2.11269e-07
3.1315e-06
8.49265e-06
2.0427e-05
3.30603e-05
3.65851e-05
3.49728e-05
3.16916e-05
2.8548e-05
2.62394e-05
2.48352e-05
2.42207e-05
2.41925e-05
2.45322e-05
2.50348e-05
2.54926e-05
2.56767e-05
2.53398e-05
2.42671e-05
2.23926e-05
1.98863e-05
1.7137e-05
1.45201e-05
1.21994e-05
1.02951e-05
8.88989e-06
8.0433e-06
7.85098e-06
8.57335e-06
1.08569e-05
1.55722e-05
1.77649e-05
7.58648e-06
2.65335e-06
2.54694e-07
2.13893e-07
3.13594e-06
8.52552e-06
2.05484e-05
3.30737e-05
3.63581e-05
3.45722e-05
3.12208e-05
2.81016e-05
2.58696e-05
2.45612e-05
2.40482e-05
2.41162e-05
2.45438e-05
2.51251e-05
2.56502e-05
2.58861e-05
2.55827e-05
2.45267e-05
2.26603e-05
2.01652e-05
1.74347e-05
1.48201e-05
1.24877e-05
1.05652e-05
9.14194e-06
8.28361e-06
8.09303e-06
8.84284e-06
1.11898e-05
1.59722e-05
1.79912e-05
7.65528e-06
2.67342e-06
2.56156e-07
2.16404e-07
3.13976e-06
8.55652e-06
2.06645e-05
3.30739e-05
3.61148e-05
3.41557e-05
3.0739e-05
2.76499e-05
2.54981e-05
2.42874e-05
2.38762e-05
2.40395e-05
2.45536e-05
2.52117e-05
2.58013e-05
2.60858e-05
2.58126e-05
2.47708e-05
2.29123e-05
2.04308e-05
1.77233e-05
1.51147e-05
1.27738e-05
1.08354e-05
9.39576e-06
8.52678e-06
8.33919e-06
9.11825e-06
1.15299e-05
1.63758e-05
1.82146e-05
7.72382e-06
2.69338e-06
2.57594e-07
2.18821e-07
3.14318e-06
8.5864e-06
2.07773e-05
3.30633e-05
3.58569e-05
3.37251e-05
3.02483e-05
2.71947e-05
2.51268e-05
2.40154e-05
2.37057e-05
2.39629e-05
2.45617e-05
2.52946e-05
2.59464e-05
2.62766e-05
2.60305e-05
2.50009e-05
2.31501e-05
2.06847e-05
1.80038e-05
1.54046e-05
1.3058e-05
1.11061e-05
9.65172e-06
8.77368e-06
8.5907e-06
9.40017e-06
1.18775e-05
1.67826e-05
1.84361e-05
7.79258e-06
2.71333e-06
2.59014e-07
2.21129e-07
3.14603e-06
8.61456e-06
2.08852e-05
3.30396e-05
3.55829e-05
3.32797e-05
2.97487e-05
2.67363e-05
2.47558e-05
2.37468e-05
2.35376e-05
2.38868e-05
2.45688e-05
2.53748e-05
2.60865e-05
2.64598e-05
2.62381e-05
2.52188e-05
2.33759e-05
2.09289e-05
1.82775e-05
1.56903e-05
1.33406e-05
1.13771e-05
9.90967e-06
9.02376e-06
8.84663e-06
9.68815e-06
1.22317e-05
1.71918e-05
1.86554e-05
7.86117e-06
2.73317e-06
2.60411e-07
2.23343e-07
3.1485e-06
8.6416e-06
2.09897e-05
3.30048e-05
3.52942e-05
3.28212e-05
2.92423e-05
2.62768e-05
2.43861e-05
2.34812e-05
2.33712e-05
2.3811e-05
2.45748e-05
2.54524e-05
2.62222e-05
2.6636e-05
2.64364e-05
2.54262e-05
2.35921e-05
2.11662e-05
1.8546e-05
1.59728e-05
1.36221e-05
1.1649e-05
1.017e-05
9.27738e-06
9.10727e-06
9.98204e-06
1.25919e-05
1.76029e-05
1.88724e-05
7.92952e-06
2.75292e-06
2.61785e-07
2.25453e-07
3.15044e-06
8.66704e-06
2.10894e-05
3.2957e-05
3.49895e-05
3.23492e-05
2.87296e-05
2.58168e-05
2.40188e-05
2.32186e-05
2.32075e-05
2.37369e-05
2.45811e-05
2.55285e-05
2.6354e-05
2.6806e-05
2.66265e-05
2.5625e-05
2.38017e-05
2.14006e-05
1.88121e-05
1.62536e-05
1.39032e-05
1.1922e-05
1.04327e-05
9.53446e-06
9.3725e-06
1.0282e-05
1.29585e-05
1.80148e-05
1.90872e-05
7.99773e-06
2.77261e-06
2.63135e-07
2.27464e-07
3.15195e-06
8.69115e-06
2.11852e-05
3.28975e-05
3.46698e-05
3.1865e-05
2.8212e-05
2.53578e-05
2.36549e-05
2.29595e-05
2.30465e-05
2.36643e-05
2.45874e-05
2.56027e-05
2.64818e-05
2.69697e-05
2.68086e-05
2.58161e-05
2.40069e-05
2.16356e-05
1.90779e-05
1.65339e-05
1.41848e-05
1.2197e-05
1.06988e-05
9.79605e-06
9.64311e-06
1.05882e-05
1.33318e-05
1.84288e-05
1.93011e-05
8.06602e-06
2.79226e-06
2.64472e-07
2.29369e-07
3.15291e-06
8.71355e-06
2.12761e-05
3.28251e-05
3.43341e-05
3.13682e-05
2.76898e-05
2.49004e-05
2.32954e-05
2.27056e-05
2.289e-05
2.35951e-05
2.45955e-05
2.56767e-05
2.66069e-05
2.71279e-05
2.69834e-05
2.60002e-05
2.42085e-05
2.18722e-05
1.93441e-05
1.6814e-05
1.44668e-05
1.24738e-05
1.09682e-05
1.00622e-05
9.91921e-06
1.09008e-05
1.37113e-05
1.88445e-05
1.95149e-05
8.13492e-06
2.81198e-06
2.6581e-07
2.31174e-07
3.15337e-06
8.73437e-06
2.13625e-05
3.274e-05
3.39824e-05
3.0859e-05
2.71637e-05
2.44453e-05
2.29409e-05
2.24572e-05
2.27386e-05
2.35298e-05
2.4606e-05
2.57511e-05
2.67299e-05
2.72814e-05
2.71514e-05
2.61773e-05
2.44056e-05
2.21082e-05
1.96094e-05
1.70933e-05
1.47491e-05
1.27523e-05
1.12408e-05
1.03329e-05
1.02013e-05
1.12206e-05
1.40977e-05
1.9262e-05
1.97286e-05
8.20445e-06
2.83183e-06
2.67161e-07
2.32882e-07
3.15331e-06
8.75357e-06
2.14445e-05
3.26418e-05
3.36132e-05
3.03365e-05
2.66333e-05
2.39926e-05
2.25921e-05
2.22158e-05
2.25944e-05
2.34711e-05
2.46217e-05
2.58286e-05
2.68533e-05
2.74325e-05
2.73146e-05
2.63489e-05
2.45985e-05
2.23422e-05
1.98725e-05
1.7371e-05
1.50307e-05
1.30316e-05
1.15159e-05
1.06077e-05
1.0489e-05
1.15474e-05
1.44911e-05
1.96809e-05
1.99423e-05
8.27478e-06
2.85184e-06
2.68525e-07
2.34505e-07
3.15278e-06
8.7714e-06
2.15228e-05
3.25302e-05
3.32257e-05
2.98001e-05
2.60983e-05
2.35422e-05
2.22489e-05
2.19816e-05
2.24579e-05
2.342e-05
2.46442e-05
2.59111e-05
2.69792e-05
2.75831e-05
2.74751e-05
2.65169e-05
2.47884e-05
2.25742e-05
2.01336e-05
1.7647e-05
1.53118e-05
1.33118e-05
1.17934e-05
1.08865e-05
1.07822e-05
1.18815e-05
1.48917e-05
2.01018e-05
2.01558e-05
8.34592e-06
2.87207e-06
2.69905e-07
2.36054e-07
3.15183e-06
8.78807e-06
2.15978e-05
3.24045e-05
3.28183e-05
2.92486e-05
2.55583e-05
2.30939e-05
2.19118e-05
2.17555e-05
2.23309e-05
2.33788e-05
2.46761e-05
2.60016e-05
2.71105e-05
2.7736e-05
2.76351e-05
2.6683e-05
2.49767e-05
2.28041e-05
2.03922e-05
1.79207e-05
1.55917e-05
1.35922e-05
1.20725e-05
1.11685e-05
1.1081e-05
1.22222e-05
1.52992e-05
2.0524e-05
2.0369e-05
8.41775e-06
2.89251e-06
2.71303e-07
2.37544e-07
3.15056e-06
8.80397e-06
2.16704e-05
3.22642e-05
3.23894e-05
2.86811e-05
2.50126e-05
2.26473e-05
2.15804e-05
2.15374e-05
2.22134e-05
2.33483e-05
2.47191e-05
2.61023e-05
2.725e-05
2.78944e-05
2.77982e-05
2.68512e-05
2.51672e-05
2.30343e-05
2.06494e-05
1.81928e-05
1.58705e-05
1.38727e-05
1.23534e-05
1.14547e-05
1.13868e-05
1.25702e-05
1.57136e-05
2.0948e-05
2.05818e-05
8.49023e-06
2.91318e-06
2.7272e-07
2.38982e-07
3.14898e-06
8.81922e-06
2.17409e-05
3.21081e-05
3.19373e-05
2.80969e-05
2.44615e-05
2.22027e-05
2.12551e-05
2.1328e-05
2.21062e-05
2.33295e-05
2.47744e-05
2.62149e-05
2.73996e-05
2.80602e-05
2.79666e-05
2.70244e-05
2.53634e-05
2.32663e-05
2.09055e-05
1.84629e-05
1.61478e-05
1.41529e-05
1.2636e-05
1.17449e-05
1.16989e-05
1.29259e-05
1.61355e-05
2.1374e-05
2.07943e-05
8.56329e-06
2.93408e-06
2.74157e-07
2.40387e-07
3.14719e-06
8.83426e-06
2.18101e-05
3.19351e-05
3.14607e-05
2.74955e-05
2.39044e-05
2.17597e-05
2.09362e-05
2.1127e-05
2.20092e-05
2.33227e-05
2.48434e-05
2.63416e-05
2.75621e-05
2.82368e-05
2.81442e-05
2.7207e-05
2.55704e-05
2.35035e-05
2.11625e-05
1.87321e-05
1.64241e-05
1.44333e-05
1.29202e-05
1.20387e-05
1.20168e-05
1.3289e-05
1.65644e-05
2.18014e-05
2.1006e-05
8.63686e-06
2.95522e-06
2.7561e-07
2.41761e-07