/*--------------------------------*- C++ -*----------------------------------*\
| =========                 |                                                 |
| \\      /  F ield         | OpenFOAM: The Open Source CFD Toolbox           |
|  \\    /   O peration     | Version:  v2006                                 |
|   \\  /    A nd           | Website:  www.openfoam.com                      |
|    \\/     M anipulation  |                                                 |
\*---------------------------------------------------------------------------*/
FoamFile
{
    version     2.0;
    format      ascii;
    class       volScalarField;
    location    "73";
    object      k;
}
// * * * * * * * * * * * * * * * * * * * * * * * * * * * * * * * * * * * * * //

dimensions      [0 2 -2 0 0 0 0];


internalField   nonuniform List<scalar> 
78750
(
8.25914e-07
5.75568e-06
1.06327e-05
1.53796e-05
1.99407e-05
2.42671e-05
2.83037e-05
3.19995e-05
3.53184e-05
3.82408e-05
4.07603e-05
4.28792e-05
4.46036e-05
4.59374e-05
4.6893e-05
4.7482e-05
4.77152e-05
4.76033e-05
4.7157e-05
4.6388e-05
4.53092e-05
4.39366e-05
4.22904e-05
4.0357e-05
3.81605e-05
3.57149e-05
3.30326e-05
3.01182e-05
2.69723e-05
2.35796e-05
1.98934e-05
1.58401e-05
1.14128e-05
6.85623e-06
2.69277e-06
1.59975e-06
1.47468e-05
2.68743e-05
3.84145e-05
4.93711e-05
5.95034e-05
6.85844e-05
7.64949e-05
8.32096e-05
8.87585e-05
9.31975e-05
9.65896e-05
9.90031e-05
0.00010052
0.000101203
0.000101102
0.00010027
9.87575e-05
9.66167e-05
9.38996e-05
9.06582e-05
8.69428e-05
8.27956e-05
7.8238e-05
7.33198e-05
6.80821e-05
6.25878e-05
5.68686e-05
5.09039e-05
4.4648e-05
3.79514e-05
3.0662e-05
2.31693e-05
1.66165e-05
1.21379e-05
2.44125e-06
1.86403e-05
3.40713e-05
4.86256e-05
6.18923e-05
7.34861e-05
8.3233e-05
9.11698e-05
9.74497e-05
0.000102256
0.000105764
0.000108147
0.000109532
0.000110007
0.000109655
0.000108561
0.000106816
0.0001045
0.000101678
9.84259e-05
9.48268e-05
9.09639e-05
8.69021e-05
8.2673e-05
7.82696e-05
7.36573e-05
6.87921e-05
6.36288e-05
5.80983e-05
5.20587e-05
4.52835e-05
3.77239e-05
3.01791e-05
2.37063e-05
1.92974e-05
4.34284e-06
2.75122e-05
4.92686e-05
6.88056e-05
8.52372e-05
9.827e-05
0.000108217
0.000115627
0.000120988
0.000124653
0.000126873
0.000127818
0.00012762
0.0001264
0.000124251
0.000121268
0.00011756
0.000113255
0.000108504
0.000103476
9.83565e-05
9.33325e-05
8.8557e-05
8.40953e-05
7.98959e-05
7.58194e-05
7.16889e-05
6.73231e-05
6.25273e-05
5.70539e-05
5.06432e-05
4.33665e-05
3.62699e-05
3.00887e-05
2.5461e-05
6.26903e-06
3.44384e-05
6.02191e-05
8.22068e-05
9.93733e-05
0.000111966
0.000120986
0.000127419
0.000131886
0.000134679
0.000135969
0.000135911
0.000134622
0.00013217
0.000128631
0.000124119
0.000118793
0.000112856
0.000106548
0.00010014
9.39341e-05
8.82427e-05
8.33018e-05
7.91762e-05
7.57628e-05
7.28365e-05
7.00981e-05
6.72181e-05
6.38517e-05
5.96322e-05
5.42539e-05
4.78451e-05
4.14579e-05
3.5466e-05
3.00658e-05
8.4876e-06
4.12348e-05
7.06805e-05
9.50006e-05
0.000113187
0.000126036
0.000135052
0.0001414
0.000145661
0.000148092
0.000148898
0.000148185
0.000145997
0.000142388
0.000137461
0.000131382
0.000124387
0.00011675
0.000108782
0.000100823
9.32547e-05
8.64784e-05
8.0781e-05
7.62332e-05
7.27496e-05
7.01298e-05
6.80711e-05
6.61883e-05
6.40325e-05
6.11092e-05
5.69858e-05
5.16729e-05
4.60039e-05
4.00809e-05
3.38461e-05
1.03247e-05
4.64676e-05
7.85472e-05
0.00010444
0.000123224
0.00013616
0.000145088
0.000151259
0.000155236
0.000157299
0.00015761
0.000156215
0.000153137
0.000148442
0.000142274
0.000134865
0.000126512
0.000117557
0.000108379
9.93934e-05
9.10743e-05
8.38704e-05
7.79772e-05
7.33823e-05
6.99906e-05
6.76395e-05
6.60791e-05
6.49543e-05
6.37983e-05
6.20417e-05
5.91277e-05
5.49017e-05
4.99026e-05
4.40621e-05
3.73078e-05
1.22066e-05
5.17284e-05
8.64855e-05
0.000114133
0.000133811
0.000147141
0.000156246
0.000162427
0.000166305
0.000168162
0.000168102
0.000166144
0.000162307
0.000156676
0.000149436
0.000140863
0.000131303
0.000121146
0.000110819
0.000100801
9.1647e-05
8.38367e-05
7.74869e-05
7.25333e-05
6.88774e-05
6.63955e-05
6.49063e-05
6.41267e-05
6.36265e-05
6.28014e-05
6.09652e-05
5.77403e-05
5.33658e-05
4.76646e-05
4.06729e-05
1.36944e-05
5.57838e-05
9.26296e-05
0.000121701
0.000142157
0.000155874
0.000165169
0.000171413
0.00017523
0.000176884
0.000176457
0.000173956
0.000169405
0.000162919
0.000154724
0.000145148
0.000134585
0.000123471
0.000112288
0.000101591
9.20246e-05
8.40183e-05
7.75485e-05
7.24846e-05
6.87105e-05
6.61269e-05
6.46165e-05
6.39852e-05
6.38798e-05
6.3714e-05
6.27185e-05
6.03212e-05
5.65045e-05
5.10249e-05
4.41039e-05
1.54057e-05
6.04351e-05
9.96276e-05
0.000130252
0.000151528
0.000165627
0.000175087
0.000181356
0.000185072
0.000186491
0.000185679
0.000182633
0.000177382
0.000170066
0.000160948
0.0001504
0.000138858
0.000126806
0.000114772
0.000103382
9.33687e-05
8.51196e-05
7.85036e-05
7.33228e-05
6.94255e-05
6.67111e-05
6.51002e-05
6.44728e-05
6.45625e-05
6.48325e-05
6.4472e-05
6.27491e-05
5.94371e-05
5.42394e-05
4.75347e-05
1.68761e-05
6.42671e-05
0.000105379
0.000137331
0.000159368
0.000173872
0.000183541
0.000189882
0.000193541
0.000194763
0.000193599
0.000190037
0.00018412
0.000176016
0.00016603
0.000154578
0.000142146
0.000129264
0.000116516
0.000104608
9.4364e-05
8.60823e-05
7.95186e-05
7.44055e-05
7.05482e-05
6.78304e-05
6.61896e-05
6.5558e-05
6.57457e-05
6.62825e-05
6.63599e-05
6.51454e-05
6.22579e-05
5.73481e-05
5.0907e-05
1.86002e-05
6.86595e-05
0.000111887
0.000145208
0.000167951
0.000182785
0.000192595
0.00019895
0.0002025
0.00020348
0.000201927
0.000197825
0.000191227
0.000182329
0.000171471
0.000159112
0.000145782
0.000132057
0.00011857
0.0001061
9.55677e-05
8.72132e-05
8.06975e-05
7.56814e-05
7.19201e-05
6.9267e-05
6.7655e-05
6.70418e-05
6.7291e-05
6.79961e-05
6.83751e-05
6.75412e-05
6.50045e-05
6.03588e-05
5.41519e-05
2.02046e-05
7.25569e-05
0.000117605
0.000152134
0.000175539
0.000190716
0.000200699
0.000207102
0.00021058
0.000211353
0.000209443
0.000204833
0.000197588
0.000187932
0.000176245
0.000163026
0.000148848
0.000134336
0.000120176
0.000107224
9.64922e-05
8.81494e-05
8.17662e-05
7.69392e-05
7.33723e-05
7.08844e-05
6.93926e-05
6.88608e-05
6.91828e-05
7.00017e-05
7.05758e-05
7.0005e-05
6.77319e-05
6.32874e-05
5.72339e-05
2.1987e-05
7.67728e-05
0.000123725
0.000159456
0.000183465
0.000198932
0.000209048
0.000215472
0.000218854
0.000219403
0.000217128
0.000212011
0.00020413
0.000193735
0.000181236
0.000167171
0.000152151
0.000136842
0.000121979
0.000108491
9.74857e-05
8.90965e-05
8.28159e-05
7.81791e-05
7.48352e-05
7.25632e-05
7.12548e-05
7.08632e-05
7.1291e-05
7.22107e-05
7.29204e-05
7.253e-05
7.04445e-05
6.61294e-05
6.01342e-05
2.37129e-05
8.07013e-05
0.00012937
0.000166193
0.000190775
0.000206538
0.00021681
0.000223279
0.000226594
0.000226949
0.000224342
0.000218753
0.000210277
0.000199187
0.000185926
0.000171063
0.000155247
0.000139183
0.000123652
0.000109652
9.83878e-05
8.99664e-05
8.38069e-05
7.93822e-05
7.62976e-05
7.42909e-05
7.3224e-05
7.30293e-05
7.36008e-05
7.46229e-05
7.54259e-05
7.5145e-05
7.31709e-05
6.89023e-05
6.28614e-05
2.554e-05
8.47628e-05
0.000135158
0.000173048
0.000198164
0.000214196
0.000224609
0.000231119
0.000234367
0.000234534
0.000231608
0.000225572
0.000216535
0.00020479
0.000190805
0.000175176
0.000158582
0.000141762
0.000125541
0.000110979
9.93759e-05
9.08572e-05
8.47776e-05
8.05503e-05
7.77266e-05
7.6007e-05
7.52206e-05
7.52702e-05
7.60272e-05
7.71701e-05
7.80486e-05
7.78297e-05
7.5904e-05
7.16047e-05
6.54224e-05
2.73396e-05
8.86528e-05
0.000140656
0.000179545
0.000205176
0.000221485
0.000232057
0.000238628
0.000241832
0.000241838
0.000238625
0.000232179
0.000222625
0.000210275
0.00019562
0.000179277
0.000161947
0.000144398
0.000127505
0.000112374
0.000100399
9.17506e-05
8.57288e-05
8.1691e-05
7.91379e-05
7.77271e-05
7.72526e-05
7.7586e-05
7.85659e-05
7.98502e-05
8.07948e-05
8.05993e-05
7.86643e-05
7.42584e-05
6.78421e-05
2.91925e-05
9.2578e-05
0.000146168
0.000186027
0.000212148
0.000228725
0.000239454
0.000246091
0.000249261
0.000249119
0.000245641
0.000238818
0.000228789
0.000215883
0.000200606
0.00018359
0.000165549
0.000147284
0.000129703
0.000113959
0.000101525
9.2673e-05
8.66554e-05
8.2777e-05
8.04873e-05
7.93988e-05
7.92651e-05
7.99176e-05
8.11562e-05
8.26082e-05
8.36231e-05
8.34286e-05
8.14397e-05
7.68617e-05
7.01293e-05
3.10322e-05
9.63932e-05
0.000151494
0.000192282
0.000218889
0.000235744
0.000246648
0.000253368
0.00025652
0.000256251
0.000252534
0.000245369
0.000234909
0.000221499
0.000205655
0.000188017
0.000169312
0.000150359
0.000132093
0.000115713
0.000102756
9.36369e-05
8.75741e-05
8.38254e-05
8.17904e-05
8.10338e-05
8.12648e-05
8.22697e-05
8.38017e-05
8.54465e-05
8.65369e-05
8.63249e-05
8.42421e-05
7.94306e-05
7.2305e-05
3.29002e-05
0.000100197
0.000156776
0.000198471
0.000225555
0.000242692
0.000253777
0.000260585
0.000263725
0.000263339
0.000259402
0.000251927
0.000241078
0.000227214
0.000210857
0.000192648
0.00017332
0.000153701
0.000134745
0.000117686
0.000104122
9.46502e-05
8.8475e-05
8.48121e-05
8.30124e-05
8.25905e-05
8.3206e-05
8.4594e-05
8.64536e-05
8.83204e-05
8.94998e-05
8.92626e-05
8.70576e-05
8.1962e-05
7.43745e-05
3.47622e-05
0.000103916
0.000161917
0.000204503
0.000232078
0.000249521
0.000260804
0.000267706
0.000270837
0.000270341
0.000266203
0.000258447
0.000247253
0.000232987
0.000216175
0.000197451
0.000177549
0.000157296
0.000137654
0.000119886
0.00010564
9.57356e-05
8.9379e-05
8.57541e-05
8.41664e-05
8.40788e-05
8.50964e-05
8.68968e-05
8.91175e-05
9.12356e-05
9.25211e-05
9.22571e-05
8.99009e-05
8.44691e-05
7.63528e-05
3.66384e-05
0.000107592
0.000166979
0.000210447
0.000238537
0.000256318
0.000267809
0.000274792
0.000277898
0.000277288
0.000272961
0.000264954
0.000253459
0.000238847
0.000221637
0.00020246
0.000182035
0.000161182
0.000140862
0.000122353
0.000107344
9.69124e-05
9.02912e-05
8.66428e-05
8.52316e-05
8.5468e-05
8.68977e-05
8.91342e-05
9.1746e-05
9.41431e-05
9.55476e-05
9.52473e-05
9.27345e-05
8.69354e-05
7.82412e-05
3.85102e-05
0.000111182
0.000171901
0.000216249
0.000244903
0.000263114
0.000274832
0.000281842
0.000284884
0.000284151
0.000279649
0.000271425
0.000259677
0.000244775
0.000227231
0.000207662
0.000186772
0.000165361
0.000144379
0.00012511
0.000109269
9.82187e-05
9.12458e-05
8.75058e-05
8.623e-05
8.67761e-05
8.86264e-05
9.13223e-05
9.43549e-05
9.70588e-05
9.86085e-05
9.83187e-05
9.55872e-05
8.93791e-05
8.00501e-05
4.03861e-05
0.000114704
0.0001767
0.000221904
0.000251159
0.000269736
0.00028169
0.000288806
0.000291768
0.000290919
0.000286266
0.000277863
0.000265911
0.000250776
0.000232962
0.000213069
0.000191776
0.00016986
0.000148245
0.000128209
0.000111479
9.9708e-05
9.22797e-05
8.83615e-05
8.71613e-05
8.79875e-05
9.02541e-05
9.34244e-05
9.69058e-05
9.99532e-05
0.000101688
0.000101445
9.8479e-05
9.17921e-05
8.178e-05
4.22551e-05
0.000118139
0.000181349
0.000227367
0.000257198
0.000276126
0.000288321
0.000295574
0.000298537
0.000297576
0.000292795
0.000284249
0.000272138
0.000256826
0.000238804
0.000218652
0.000197024
0.000174661
0.000152457
0.000131668
0.000114022
0.000101432
9.34448e-05
8.92552e-05
8.80629e-05
8.9132e-05
9.18062e-05
9.54615e-05
9.94108e-05
0.00010282
0.00010476
0.0001046
0.000101423
9.41944e-05
8.34392e-05
4.41232e-05
0.000121508
0.000185891
0.000232702
0.000263063
0.000282324
0.000294765
0.000302175
0.000305186
0.000304122
0.000299239
0.000290586
0.000278364
0.000262931
0.000244764
0.000224422
0.000202529
0.000179789
0.000157052
0.000135542
0.000116976
0.000103467
9.48045e-05
9.02309e-05
8.89564e-05
9.0211e-05
9.32679e-05
9.74099e-05
0.000101849
0.000105663
0.000107896
0.000107792
0.000104396
9.65839e-05
8.50312e-05
4.59803e-05
0.00012478
0.000190292
0.000237929
0.000268717
0.000288278
0.000300962
0.000308545
0.000311633
0.000310516
0.000305565
0.00029684
0.000284549
0.000269044
0.000250791
0.000230326
0.00020824
0.000185196
0.000161995
0.000139817
0.000120356
0.000105856
9.64187e-05
9.13503e-05
8.98963e-05
9.12685e-05
9.46743e-05
9.92991e-05
0.000104247
0.000108504
0.000111074
0.000111027
0.000107396
9.89632e-05
8.65609e-05
4.78272e-05
0.000127951
0.000194509
0.000242914
0.000274133
0.000294011
0.000306955
0.000314737
0.000317944
0.000316846
0.000311813
0.000303032
0.000290707
0.000275181
0.000256901
0.000236379
0.000214172
0.0001909
0.000167308
0.000144524
0.000124201
0.000108653
9.83431e-05
9.26653e-05
9.09203e-05
9.23229e-05
9.60249e-05
0.000101115
0.000106582
0.000111314
0.000114254
0.000114275
0.000110404
0.000101325
8.80327e-05
4.96594e-05
0.000131033
0.000198583
0.000247713
0.000279331
0.000299504
0.000312699
0.000320677
0.00032401
0.000322956
0.000317872
0.000309078
0.000296768
0.000281273
0.000263023
0.000242506
0.000220249
0.000196825
0.000172924
0.000149609
0.000128476
0.000111865
0.000100617
9.42313e-05
9.20868e-05
9.34265e-05
9.73627e-05
0.000102889
0.000108877
0.0001141
0.00011743
0.000117529
0.000113414
0.000103666
8.9451e-05
5.14812e-05
0.000134032
0.000202511
0.000252326
0.000284326
0.000304793
0.000318247
0.000326435
0.000329912
0.000328924
0.00032382
0.000315044
0.000302783
0.000287358
0.000269186
0.000248731
0.000226489
0.000202988
0.000178857
0.000155089
0.000133207
0.000115532
0.000103294
9.61055e-05
9.34454e-05
9.46132e-05
9.87033e-05
0.000104625
0.000111126
0.000116855
0.00012059
0.000120774
0.000116416
0.000105985
9.08222e-05
5.32842e-05
0.00013694
0.000206289
0.000256741
0.000289092
0.000309837
0.00032354
0.000331937
0.000335567
0.000334664
0.000329566
0.000320838
0.00030866
0.000293346
0.000275297
0.00025496
0.000232795
0.000209292
0.000185017
0.000160886
0.000138338
0.000119644
0.000106401
9.83399e-05
9.50596e-05
9.59442e-05
0.000100097
0.000106355
0.00011334
0.000119565
0.000123722
0.000124005
0.000119405
0.000108281
9.21508e-05
5.50805e-05
0.00013979
0.00020996
0.000261005
0.000293682
0.000314693
0.000328643
0.000337254
0.000341049
0.000340252
0.000335188
0.00032653
0.000314459
0.000299284
0.000281397
0.000261221
0.000239191
0.000215752
0.000191412
0.000167007
0.00014388
0.000124225
0.000109977
0.000100988
9.69865e-05
9.74681e-05
0.000101576
0.000108097
0.000115538
0.00012229
0.000126833
0.000127213
0.000122376
0.000110554
9.34441e-05
5.6859e-05
0.00014256
0.000213495
0.000265074
0.00029804
0.000319297
0.000333483
0.000342303
0.000346269
0.000345598
0.00034061
0.000332026
0.000320078
0.000305071
0.000287382
0.000267413
0.00024557
0.000222261
0.000197937
0.000173355
0.000149756
0.000129238
0.000114026
0.000104087
9.92861e-05
9.9252e-05
0.000103202
0.000109901
0.000117755
0.000125029
0.000129935
0.000130403
0.000125327
0.000112804
9.47056e-05
5.86345e-05
0.000145295
0.000216975
0.000269019
0.000302237
0.000323722
0.000338136
0.000347163
0.000351301
0.000350765
0.000345881
0.000337375
0.00032557
0.000310758
0.000293297
0.000273572
0.00025196
0.000228834
0.000204593
0.000179921
0.000155954
0.000134681
0.000118559
0.000107671
0.000102009
0.000101351
0.000105022
0.000111799
0.000120006
0.000127776
0.000133022
0.000133571
0.000128257
0.000115032
9.59415e-05
6.0381e-05
0.000147935
0.000220346
0.000272756
0.000306191
0.000327885
0.000342516
0.000351745
0.000356056
0.000355657
0.000350885
0.000342482
0.000330844
0.000316252
0.00029905
0.000279601
0.00025826
0.000235368
0.000211276
0.0001866
0.000162379
0.000140486
0.00012354
0.00011174
0.00010519
0.000103824
0.000107103
0.000113849
0.000122329
0.000130547
0.000136106
0.000136722
0.000131165
0.000117236
9.7152e-05
6.21167e-05
0.00015049
0.000223575
0.000276338
0.000309976
0.000331871
0.000346713
0.000356137
0.000360613
0.000360351
0.000355702
0.000347421
0.000335966
0.000321615
0.000304693
0.000285545
0.000264505
0.000241885
0.000217994
0.000193386
0.00016901
0.000146626
0.000128947
0.00011629
0.000108849
0.000106711
0.000109489
0.000116091
0.000124753
0.000133355
0.00013919
0.000139855
0.00013405
0.000119416
9.83395e-05
6.38352e-05
0.000152958
0.00022666
0.000279715
0.000313524
0.000335604
0.000350647
0.000360263
0.000364905
0.000364781
0.000360253
0.000352094
0.000340845
0.000326758
0.00031014
0.000291319
0.00027061
0.000248298
0.000224657
0.000200187
0.000175754
0.000153014
0.000134711
0.000121279
0.00011298
0.000110037
0.00011223
0.000118577
0.000127319
0.000136231
0.000142291
0.00014298
0.000136915
0.000121572
9.95022e-05
6.5552e-05
0.000155367
0.00022963
0.000282945
0.000316907
0.00033916
0.000354396
0.000364196
0.000368999
0.000369014
0.000364615
0.000356595
0.00034555
0.000331731
0.000315437
0.000296959
0.0002766
0.000254624
0.000231271
0.000206992
0.000182582
0.000159601
0.000140783
0.000126668
0.000117563
0.000113809
0.000115349
0.000121339
0.000130055
0.00013919
0.000145418
0.000146099
0.00013976
0.000123702
0.00010064
6.72467e-05
0.000157667
0.000232425
0.000285957
0.000320049
0.000342462
0.00035788
0.000367856
0.000372814
0.000372967
0.000368701
0.000360832
0.000350009
0.000336467
0.000320495
0.00030239
0.000282404
0.00026079
0.000237759
0.000213722
0.000189409
0.000166296
0.000147078
0.000132387
0.000122555
0.000118019
0.000118873
0.000124421
0.000133005
0.000142265
0.00014859
0.000149221
0.000142585
0.000125802
0.000101747
6.89426e-05
0.000159911
0.000235119
0.000288834
0.000323035
0.000345593
0.000361182
0.000371325
0.000376432
0.000376715
0.000372582
0.000364872
0.000354278
0.000341025
0.000325384
0.000307638
0.00028805
0.000266815
0.00024413
0.000220372
0.000196215
0.000173058
0.000153549
0.000138384
0.000127906
0.000122628
0.000122785
0.000127829
0.000136191
0.000145481
0.000151824
0.000152355
0.000145395
0.000127874
0.000102822
7.06134e-05
0.000162041
0.000237633
0.000291492
0.000325781
0.000348471
0.000364221
0.000374521
0.000379769
0.000380181
0.000376184
0.000368643
0.000358288
0.000345333
0.000330036
0.000312665
0.000293464
0.000272639
0.000250324
0.00022688
0.000202936
0.000179822
0.000160134
0.000144605
0.000133572
0.000127608
0.000127073
0.000131569
0.000139627
0.000148853
0.000155135
0.000155512
0.000148193
0.000129914
0.000103859
7.22813e-05
0.000164115
0.00024005
0.00029402
0.000328378
0.000351184
0.000367081
0.000377527
0.000382906
0.000383439
0.000379574
0.000372204
0.000362092
0.000349437
0.000334488
0.000317496
0.000298689
0.000278257
0.000256341
0.00023324
0.000209554
0.000186558
0.000166796
0.000151009
0.000139517
0.000132931
0.00013172
0.000135632
0.000143311
0.000152384
0.000158526
0.000158694
0.000150978
0.000131921
0.000104855
7.39158e-05
0.000166069
0.000242285
0.00029633
0.000330736
0.000353646
0.000369679
0.000380263
0.000385765
0.000386416
0.000382684
0.000375497
0.000365633
0.000353286
0.00033869
0.000322082
0.000303678
0.00028365
0.000262123
0.000239394
0.000216008
0.000193203
0.000173475
0.000157542
0.000145695
0.000138569
0.000136717
0.000140026
0.00014726
0.000156091
0.00016201
0.000161908
0.000153754
0.000133893
0.000105807
7.55376e-05
0.000167962
0.000244423
0.000298514
0.000332948
0.000355946
0.000372102
0.00038281
0.000388425
0.000389184
0.000385583
0.000378578
0.000368965
0.000356926
0.000342681
0.000326458
0.000308458
0.00028884
0.000267714
0.000245359
0.000222304
0.000199742
0.000180138
0.000164154
0.000152052
0.00014447
0.000142026
0.000144725
0.00015146
0.000159968
0.000165584
0.000165154
0.000156521
0.000135832
0.000106717
7.71191e-05
0.000169736
0.000246383
0.000300485
0.000334929
0.000358002
0.000374271
0.000385094
0.000390814
0.000391679
0.000388209
0.000381397
0.000372041
0.000360312
0.000346422
0.000330584
0.000312989
0.000293784
0.000273066
0.000251101
0.000228404
0.00020614
0.000186745
0.000170801
0.000158537
0.000150586
0.000147611
0.000149719
0.000155919
0.000164029
0.00016926
0.000168438
0.00015928
0.000137738
0.00010759
7.86777e-05
0.000171444
0.000248243
0.00030233
0.000336765
0.000359899
0.000376267
0.000387193
0.000393008
0.000393969
0.000390627
0.00038401
0.000374911
0.000363492
0.000349953
0.000334497
0.000317302
0.000298507
0.000278199
0.000256632
0.00023431
0.000212394
0.00019328
0.000177453
0.000165106
0.000156863
0.000153415
0.000154952
0.000160593
0.000168252
0.000173032
0.000171762
0.000162037
0.000139619
0.000108433
8.01914e-05
0.000173037
0.000249935
0.000303976
0.000338383
0.000361565
0.000378021
0.00038904
0.000394942
0.000395996
0.000392784
0.00038637
0.000377535
0.000366429
0.000353242
0.000338166
0.000321372
0.000302985
0.000283087
0.000261926
0.000239998
0.000218459
0.000199702
0.000184068
0.000171718
0.000163255
0.000159394
0.000160391
0.000165473
0.000172624
0.000176892
0.000175124
0.000164794
0.000141477
0.000109249
8.16751e-05
0.000174562
0.000251528
0.000305495
0.000339859
0.000363074
0.000379605
0.000390707
0.000396685
0.000397825
0.000394739
0.000388532
0.00037996
0.000369165
0.000356327
0.000341627
0.000325226
0.000307243
0.000287753
0.000267
0.000245483
0.00022436
0.000206011
0.00019063
0.000178342
0.00016973
0.000165515
0.000166014
0.000170557
0.000177139
0.000180835
0.000178522
0.00016755
0.000143314
0.000110044
8.31111e-05
0.000175978
0.000252962
0.000306827
0.000341128
0.000364364
0.00038096
0.000392135
0.000398183
0.000399405
0.000396449
0.000390458
0.000382155
0.000371674
0.000359186
0.000344861
0.000328852
0.000311271
0.000292189
0.00027185
0.000250757
0.000230087
0.000212193
0.000197114
0.000184947
0.000176248
0.00017174
0.000171782
0.000175801
0.000181778
0.000184854
0.000181956
0.00017031
0.000145139
0.000110822
8.45118e-05
0.000177324
0.000254295
0.000308033
0.000342257
0.000365501
0.000382151
0.000393387
0.000399497
0.000400794
0.000397966
0.000392195
0.000384162
0.000373994
0.000361851
0.000347897
0.000332275
0.000315093
0.000296417
0.000276496
0.000255845
0.000235662
0.000218255
0.000203515
0.000191515
0.000182783
0.000178033
0.00017766
0.000181168
0.000186517
0.000188936
0.000185418
0.000173069
0.000146945
0.000111585
8.58632e-05
0.000178565
0.000255478
0.000309062
0.000343192
0.000366432
0.000383126
0.000394417
0.000400581
0.000401952
0.000399256
0.000393715
0.000385958
0.000376105
0.000364308
0.000350724
0.000335488
0.000318704
0.000300438
0.000280945
0.000260756
0.000241102
0.000224203
0.000209824
0.000198019
0.000189297
0.000184356
0.000183608
0.000186625
0.000191334
0.000193069
0.000188905
0.000175831
0.000148747
0.000112337
8.71752e-05
0.000179733
0.000256559
0.000309967
0.000343988
0.000367213
0.000383941
0.000395277
0.000401489
0.000402929
0.000400366
0.000395059
0.000387579
0.000378038
0.000366583
0.000353364
0.000338511
0.000322124
0.00030427
0.000285215
0.000265512
0.000246433
0.000230057
0.000216056
0.000204469
0.000195785
0.000190688
0.000189598
0.000192141
0.000196205
0.000197241
0.000192413
0.0001786
0.000150556
0.000113081
8.84373e-05
0.000180802
0.0002575
0.000310706
0.000344604
0.000367804
0.000384557
0.000395933
0.000402187
0.000403697
0.000401272
0.000396209
0.000389011
0.000379784
0.000368671
0.000355815
0.000341342
0.00032535
0.000307911
0.000289304
0.000270111
0.000251654
0.000235813
0.000222201
0.000210847
0.000202219
0.000196995
0.000195594
0.000197686
0.000201107
0.000201434
0.000195932
0.00018137
0.00015236
0.000113815
8.9659e-05
0.000181799
0.000258339
0.000311325
0.000345086
0.00036825
0.000385019
0.000396426
0.000402719
0.000404296
0.000402011
0.000397198
0.000390283
0.000381369
0.000370593
0.000358095
0.000343998
0.000328398
0.000311375
0.000293224
0.000274561
0.000256764
0.000241475
0.000228268
0.000217162
0.000208612
0.000203278
0.000201588
0.000203245
0.000206025
0.000205643
0.000199461
0.000184141
0.00015416
0.000114539
9.08306e-05
0.000182702
0.000259047
0.000311789
0.000345401
0.00036852
0.000385299
0.000396731
0.00040306
0.000404708
0.00040257
0.000398016
0.00039139
0.000382789
0.000372349
0.000360206
0.00034648
0.000331271
0.000314664
0.000296976
0.000278862
0.000261757
0.000247037
0.000234249
0.000223403
0.000214941
0.000209507
0.000207545
0.000208784
0.000210934
0.000209846
0.000202984
0.000186902
0.000155947
0.000115252
9.19619e-05
0.000183534
0.000259659
0.000312138
0.000345588
0.000368652
0.000385432
0.000396884
0.000403245
0.000404964
0.000402978
0.000398691
0.000392354
0.000384065
0.000373957
0.000362164
0.000348805
0.000333983
0.000317793
0.000300574
0.000283024
0.000266639
0.000252504
0.00024015
0.000229579
0.00022122
0.000215708
0.000213481
0.000214311
0.000215834
0.000214043
0.000206504
0.000189657
0.000157726
0.000115955
9.30439e-05
0.000184278
0.000260148
0.000312344
0.00034562
0.000368621
0.000385396
0.000396864
0.000403257
0.000405054
0.000403231
0.000399219
0.000393174
0.000385196
0.000375418
0.000363973
0.000350979
0.000336541
0.000320768
0.000304023
0.000287051
0.00027141
0.000257874
0.000245966
0.000235682
0.000227437
0.000221853
0.000219366
0.000219797
0.0002207
0.000218216
0.000210003
0.000192395
0.000159489
0.000116646
9.4086e-05
0.000184956
0.000260546
0.000312441
0.000345532
0.000368461
0.000385222
0.0003967
0.000403125
0.000405007
0.000403358
0.000399623
0.000393867
0.000386198
0.000376748
0.000365647
0.000353015
0.00033896
0.000323605
0.00030734
0.000290959
0.000276077
0.000263151
0.000251701
0.000241715
0.000233597
0.000227954
0.000225224
0.000225253
0.000225543
0.000222371
0.00021349
0.000195121
0.000161243
0.000117329
9.50811e-05
0.000185551
0.000260831
0.000312407
0.000345303
0.000368152
0.000384894
0.000396377
0.000402836
0.000404815
0.000403372
0.000399901
0.000394429
0.000387067
0.000377946
0.000367192
0.000354923
0.000341252
0.000326317
0.000310539
0.000294764
0.00028065
0.00026834
0.000257353
0.000247673
0.000239688
0.000233994
0.000231029
0.000230668
0.000230347
0.000226498
0.000216954
0.000197828
0.000162982
0.000118001
9.60361e-05
0.000186082
0.000261028
0.000312269
0.00034496
0.000367722
0.000384438
0.000395921
0.000402407
0.000404487
0.000403271
0.000400054
0.000394866
0.000387814
0.000379025
0.00036862
0.000356717
0.000343434
0.000328926
0.000313647
0.000298497
0.000285154
0.000273458
0.000262935
0.000253564
0.00024572
0.000239981
0.000236786
0.000236042
0.00023511
0.000230595
0.000220399
0.00020052
0.00016471
0.000118663
9.69458e-05
0.000186536
0.000261119
0.00031201
0.000344488
0.000367158
0.000383845
0.000395324
0.00040184
0.000404024
0.000403043
0.000400088
0.000395188
0.000388448
0.000379992
0.000369938
0.000358406
0.000345519
0.00033145
0.000316689
0.000302197
0.000289613
0.00027852
0.000268454
0.00025939
0.000251687
0.000245906
0.000242487
0.000241367
0.000239838
0.000234658
0.000223819
0.000203195
0.000166425
0.000119313
9.7813e-05
0.000186925
0.000261122
0.000311649
0.000343907
0.000366481
0.000383134
0.000394606
0.000401149
0.000403441
0.0004027
0.00040001
0.0003954
0.000388974
0.000380852
0.000371154
0.000359997
0.000347517
0.000333907
0.000319696
0.00030591
0.000294061
0.000283552
0.000273932
0.000265172
0.000257611
0.000251792
0.000248147
0.00024665
0.000244531
0.0002387
0.000227221
0.000205857
0.000168131
0.000119957
9.8635e-05
0.00018724
0.000261027
0.000311175
0.000343209
0.000365683
0.000382302
0.000393768
0.000400341
0.000402748
0.00040226
0.000399841
0.000395522
0.000389408
0.00038162
0.000372276
0.000361498
0.000349433
0.000336298
0.000322668
0.000309639
0.000298501
0.000288556
0.000279368
0.000270905
0.00026349
0.000257636
0.000253769
0.000251895
0.000249191
0.000242718
0.000230607
0.000208507
0.000169832
0.000120601
9.94136e-05
0.00018749
0.000260844
0.000310603
0.000342406
0.000364778
0.000381361
0.00039282
0.000399427
0.000401956
0.00040173
0.000399586
0.000395561
0.00038976
0.000382305
0.000373314
0.000362918
0.000351273
0.000338626
0.000325602
0.000313367
0.000302924
0.000293531
0.000284766
0.000276598
0.000269329
0.000263446
0.000259363
0.000257115
0.00025383
0.000246723
0.000233987
0.000211155
0.000171535
0.000121251
0.000100151
0.000187674
0.000260572
0.000309929
0.000341495
0.000363763
0.00038031
0.000391766
0.000398414
0.000401077
0.000401126
0.000399267
0.000395539
0.00039005
0.000382924
0.000374285
0.000364267
0.000353045
0.000340893
0.000328489
0.000317068
0.000307308
0.000298456
0.000290108
0.000282233
0.000275113
0.00026921
0.000264921
0.00026231
0.000258454
0.000250723
0.000237366
0.000213807
0.000173246
0.000121905
0.000100852
0.000187801
0.000260223
0.000309163
0.000340484
0.000362645
0.000379155
0.000390608
0.000397305
0.000400115
0.000400456
0.000398891
0.000395464
0.000390289
0.000383493
0.000375204
0.000365565
0.000354766
0.000343115
0.000331343
0.000320746
0.000311659
0.00030334
0.000295402
0.000287815
0.000280846
0.000274931
0.000270446
0.000267486
0.000263072
0.000254727
0.000240758
0.000216474
0.000174971
0.000122567
0.00010152
0.000187876
0.000259796
0.000308303
0.000339371
0.00036142
0.000377893
0.000389348
0.000396103
0.000399076
0.000399727
0.000398468
0.00039535
0.000390492
0.000384026
0.000376085
0.000366823
0.000356449
0.000345304
0.000334174
0.000324396
0.00031597
0.000308173
0.000300638
0.000293337
0.000286519
0.000280595
0.000275939
0.000272632
0.000267677
0.000258734
0.000244161
0.000219156
0.000176712
0.000123236
0.000102163
0.000187906
0.000259302
0.000307357
0.000338159
0.00036009
0.000376523
0.000387982
0.000394807
0.000397963
0.000398942
0.000398004
0.000395205
0.000390671
0.000384539
0.00037695
0.00036807
0.000358125
0.000347495
0.000337023
0.000328049
0.000320265
0.000312974
0.00030583
0.000298806
0.00029214
0.000286224
0.000281437
0.000277767
0.000272276
0.000262748
0.000247582
0.000221859
0.000178472
0.000123914
0.000102785
0.000187894
0.000258739
0.000306319
0.000336843
0.000358648
0.000375038
0.000386507
0.000393417
0.000396777
0.000398105
0.000397499
0.000395029
0.000390827
0.000385036
0.000377805
0.000369312
0.000359808
0.000349709
0.000339921
0.000331721
0.000324553
0.000317748
0.000310981
0.000304229
0.000297717
0.000291822
0.000286926
0.000282897
0.000276877
0.000266777
0.000251025
0.000224588
0.000180254
0.0001246
0.000103391
0.000187848
0.000258114
0.000305195
0.000335423
0.00035709
0.000373431
0.000384913
0.00039193
0.000395528
0.000397218
0.000396955
0.000394826
0.000390968
0.00038553
0.000378668
0.000370575
0.000361528
0.000351987
0.00034292
0.000335453
0.000328862
0.000322516
0.000316106
0.000309613
0.000303252
0.000297385
0.000292394
0.000288015
0.00028148
0.00027082
0.000254491
0.000227344
0.000182058
0.000125293
0.000103985
0.000187765