/*--------------------------------*- C++ -*----------------------------------*\
| =========                 |                                                 |
| \\      /  F ield         | OpenFOAM: The Open Source CFD Toolbox           |
|  \\    /   O peration     | Version:  v2006                                 |
|   \\  /    A nd           | Website:  www.openfoam.com                      |
|    \\/     M anipulation  |                                                 |
\*---------------------------------------------------------------------------*/
FoamFile
{
    version     2.0;
    format      ascii;
    class       volScalarField;
    location    "73";
    object      omega;
}
// * * * * * * * * * * * * * * * * * * * * * * * * * * * * * * * * * * * * * //

dimensions      [0 0 -1 0 0 0 0];


internalField   nonuniform List<scalar> 
78750
(
352.48
13.5765
13.6204
13.6624
13.7021
13.7392
13.7734
13.8045
13.8322
13.8565
13.8773
13.8949
13.9092
13.9203
13.9283
13.9333
13.9355
13.9349
13.9316
13.9257
13.9173
13.9065
13.8935
13.8781
13.8605
13.8408
13.8191
13.7955
13.77
13.7427
13.7141
13.6865
13.6651
13.6572
356.212
517.221
4.16393
4.26062
4.35062
4.43434
4.51031
4.57726
4.63475
4.68297
4.72244
4.75378
4.77761
4.79451
4.80512
4.80991
4.80927
4.80355
4.79309
4.77822
4.75926
4.73654
4.71035
4.68094
4.6484
4.61303
4.57507
4.53492
4.49279
4.44854
4.40192
4.35212
4.29871
4.24584
4.20343
523.321
517.229
4.1944
4.31552
4.42677
4.52587
4.61079
4.68105
4.73755
4.78184
4.81553
4.84005
4.85676
4.86657
4.87014
4.86805
4.86086
4.84917
4.8335
4.81424
4.79189
4.76698
4.74005
4.71152
4.68158
4.65016
4.61698
4.58172
4.54406
4.50354
4.45926
4.4099
4.35577
4.3037
4.26262
523.887
517.246
4.26416
4.43106
4.57584
4.69429
4.78628
4.85541
4.90636
4.94301
4.96802
4.98327
4.98998
4.98906
4.9813
4.9673
4.94765
4.923
4.89414
4.86204
4.82779
4.79262
4.75781
4.72443
4.69297
4.66309
4.63385
4.60402
4.57235
4.53753
4.49795
4.45209
4.40108
4.35323
4.31488
524.352
517.262
4.3179
4.51262
4.67243
4.79367
4.88082
4.94242
4.98599
5.01615
5.03509
5.04406
5.04412
5.03607
5.0203
4.99724
4.96756
4.9322
4.89241
4.84973
4.80593
4.76309
4.7234
4.68862
4.65931
4.63483
4.61367
4.59378
4.57287
4.54861
4.51859
4.48099
4.43723
4.39532
4.35881
524.79
517.281
4.36993
4.58905
4.76259
4.8885
4.97569
5.03607
5.07828
5.10657
5.12284
5.12855
5.12441
5.1107
5.08768
5.05587
5.01624
4.97014
4.91925
4.86553
4.81122
4.75895
4.71163
4.67141
4.63901
4.61396
4.59498
4.58001
4.56639
4.55108
4.53081
4.50287
4.46777
4.43168
4.39605
525.154
517.297
4.40957
4.64572
4.82809
4.95637
5.04297
5.102
5.14256
5.16871
5.18247
5.185
5.17659
5.15735
5.12756
5.08798
5.03989
4.98501
4.92543
4.86353
4.80209
4.74445
4.69391
4.6521
4.61919
4.5947
4.57762
4.56628
4.55827
4.55042
4.53894
4.52025
4.49357
4.46283
4.42817
525.504
517.313
4.44903
4.70213
4.89429
5.02677
5.11472
5.17407
5.21414
5.23931
5.25162
5.2518
5.23997
5.21618
5.18079
5.13474
5.07954
5.01716
4.94994
4.88056
4.81224
4.74889
4.69411
4.64904
4.61353
4.58712
4.56911
4.55834
4.55295
4.55004
4.54559
4.53508
4.51605
4.49021
4.45692
525.815
517.326
4.4792
4.74533
4.94539
5.08164
5.17116
5.2311
5.27116
5.29572
5.30666
5.30458
5.28952
5.26151
5.22104
5.16927
5.10797
5.03937
4.96607
4.89112
4.81826
4.75208
4.6959
4.64995
4.61362
4.58635
4.56762
4.55676
4.55255
4.55269
4.55326
4.54913
4.53639
4.51491
4.48357
526.11
517.34
4.51351
4.79399
5.00241
5.14244
5.23334
5.29362
5.33338
5.35706
5.36645
5.36205
5.34381
5.31175
5.26648
5.20934
5.14229
5.0678
4.98871
4.90839
4.83104
4.76192
4.70413
4.6572
4.62008
4.59194
4.5723
4.56076
4.55668
4.55837
4.56229
4.56298
4.55535
4.53779
4.50881
526.381
517.353
4.54161
4.83367
5.04919
5.19284
5.28544
5.34644
5.38628
5.4094
5.41753
5.41105
5.38984
5.35397
5.30418
5.242
5.16962
5.08975
5.00555
4.92069
4.83999
4.76938
4.71142
4.6649
4.62829
4.60048
4.58085
4.56916
4.56513
4.56765
4.57366
4.5777
4.57392
4.55964
4.53303
526.636
517.368
4.57355
4.87809
5.10066
5.24737
5.34108
5.40234
5.44187
5.46411
5.47072
5.46198
5.43771
5.39802
5.34376
5.27661
5.19897
5.11378
5.02444
4.93498
4.85069
4.77823
4.71986
4.67375
4.63788
4.6108
4.59169
4.58026
4.57643
4.5795
4.58685
4.59321
4.59231
4.58075
4.5563
526.873
517.382
4.60175
4.91686
5.14555
5.29518
5.39019
5.45197
5.49145
5.51309
5.51842
5.50764
5.48053
5.43725
5.37875
5.3069
5.22428
5.13407
5.03994
4.94626
4.85888
4.78515
4.72693
4.6818
4.64733
4.62169
4.60381
4.5933
4.59013
4.59381
4.60209
4.60997
4.61107
4.60155
4.57879
527.097
517.397
4.63201
4.95794
5.19251
5.34459
5.44051
5.50255
5.54182
5.56271
5.56669
5.55386
5.52397
5.47721
5.41466
5.33829
5.25087
5.15574
5.05682
4.95878
4.86799
4.79252
4.73405
4.6897
4.65663
4.63263
4.61634
4.60721
4.60511
4.60962
4.61871
4.62766
4.63014
4.62209
4.60046
527.307
517.411
4.66006
4.99559
5.23542
5.38983
5.48676
5.54923
5.58846
5.6088
5.61163
5.59695
5.56452
5.51456
5.44825
5.36768
5.27576
5.17602
5.07259
4.97042
4.87638
4.79925
4.74063
4.69718
4.66565
4.64354
4.6292
4.62185
4.62122
4.62682
4.63672
4.6464
4.64973
4.64259
4.62148
527.504
517.427
4.68885
5.03385
5.27866
5.43511
5.53288
5.59568
5.63484
5.65465
5.65638
5.63998
5.60518
5.55227
5.48248
5.39801
5.30187
5.1977
5.08982
4.98344
4.88585
4.80654
4.74733
4.7045
4.6744
4.65419
4.64194
4.63663
4.6378
4.64479
4.6556
4.66587
4.6697
4.663
4.64184
527.69
517.442
4.71628
5.06996
5.31936
5.47778
5.57646
5.63973
5.67896
5.69838
5.69918
5.68125
5.64433
5.58875
5.51582
5.42781
5.32779
5.21949
5.10737
4.99693
4.89577
4.81407
4.75404
4.71166
4.68295
4.66469
4.65467
4.65163
4.65486
4.66347
4.67533
4.68612
4.69015
4.68347
4.66171
527.865
517.458
4.74378
5.10588
5.35963
5.51985
5.61939
5.68311
5.72245
5.74154
5.7415
5.72219
5.68336
5.6254
5.54966
5.45845
5.35486
5.24267
5.12644
5.0119
4.90693
4.82228
4.76094
4.71865
4.69109
4.67473
4.66703
4.66643
4.67196
4.68244
4.69551
4.70683
4.7109
4.70392
4.68109
528.03
517.473
4.77037
5.14037
5.39822
5.56025
5.66071
5.725
5.76455
5.78342
5.78267
5.76215
5.72163
5.66157
5.58335
5.4893
5.38251
5.26675
5.14667
5.02809
4.91921
4.8312
4.76812
4.72557
4.69896
4.68442
4.67909
4.68111
4.68914
4.70171
4.71616
4.72802
4.73199
4.72443
4.70011
528.187
517.489
4.79673
5.17434
5.43613
5.59989
5.70131
5.7662
5.80598
5.82467
5.82329
5.80168
5.75967
5.69777
5.6174
5.52088
5.41123
5.29223
5.1685
5.04594
4.93291
4.84101
4.77562
4.73236
4.70639
4.69353
4.69058
4.69532
4.70607
4.72094
4.73695
4.74945
4.75326
4.74491
4.71875
528.337
517.504
4.82237
5.2072
5.47283
5.63843
5.74095
5.80654
5.84659
5.86511
5.86314
5.84055
5.79724
5.73377
5.65158
5.55296
5.44085
5.31896
5.19184
5.06539
4.94808
4.85184
4.78362
4.73916
4.71349
4.70214
4.70156
4.70914
4.72278
4.74018
4.75793
4.77116
4.77479
4.76546
4.73711
528.479
517.52
4.84758
5.23935
5.50876
5.67633
5.78012
5.84646
5.88672
5.90499
5.90241
5.87892
5.8345
5.76973
5.68605
5.5857
5.47154
5.34713
5.21692
5.0867
4.96499
4.8639
4.79223
4.74601
4.72021
4.71013
4.71183
4.72229
4.73898
4.75908
4.77875
4.79279
4.79619
4.78584
4.75509
528.617
517.536
4.87207
5.27043
5.54361
5.71344
5.81902
5.88621
5.92637
5.94418
5.94095
5.91666
5.87131
5.80552
5.72071
5.61902
5.50321
5.37669
5.24371
5.10991
4.98374
4.87743
4.80171
4.75314
4.72675
4.71763
4.72151
4.73491
4.75478
4.77778
4.79954
4.81456
4.81802
4.80624
4.77283
528.749
517.551
4.89599
5.30056
5.57738
5.74968
5.8567
5.92479
5.96529
5.98256
5.97872
5.95376
5.9077
5.84118
5.75557
5.65294
5.53591
5.40771
5.27236
5.13526
5.00468
4.89284
4.81243
4.76082
4.73323
4.72465
4.7305
4.74679
4.76993
4.79599
4.82007
4.83632
4.8401
4.82678
4.79025
528.876
517.567
4.9192
5.3296
5.6098
5.78445
5.89282
5.96185
6.00286
6.02005
6.01564
5.99014
5.94358
5.87658
5.79049
5.68729
5.56946
5.44002
5.30273
5.16268
5.02788
4.91044
4.82472
4.76939
4.73997
4.73147
4.739
4.75812
4.78459
4.81382
4.84032
4.85793
4.86226
4.84759
4.80752
529
517.582
4.94186
5.35781
5.6413
5.81804
5.92766
5.99766
6.03931
6.05667
6.05173
6.02583
5.97897
5.91176
5.82551
5.72211
5.60391
5.4737
5.33495
5.19239
5.0537
4.93072
4.83911
4.77929
4.74727
4.73821
4.74704
4.7688
4.79859
4.83112
4.86033
4.87986
4.88457
4.86848
4.82463
529.12
517.598
4.96378
5.38501
5.67198
5.85023
5.96094
6.0319
6.07427
6.09196
6.08677
6.06067
6.0137
5.9465
5.86037
5.75711
5.63892
5.50839
5.36868
5.22412
5.08197
4.95375
4.85587
4.79092
4.75555
4.74527
4.75492
4.77907
4.81214
4.84809
4.88023
4.90198
4.90705
4.88946
4.84159
529.238
517.613
4.98493
5.41096
5.70111
5.88092
5.99282
6.06485
6.10807
6.12632
6.12128
6.0949
6.04789
5.9809
5.89515
5.79236
5.67459
5.54418
5.40401
5.25799
5.11288
4.97975
4.87532
4.80466
4.76518
4.75291
4.76276
4.78894
4.82515
4.86457
4.89983
4.924
4.92951
4.91039
4.85836
529.352
517.628
5.00541
5.43591
5.72901
5.91022
6.02322
6.09626
6.14033
6.15917
6.15441
6.1279
6.08109
6.01456
5.92947
5.82747
5.71045
5.58059
5.44045
5.29351
5.14602
5.00846
4.89749
4.82075
4.77652
4.76152
4.77093
4.7987
4.83785
4.88072
4.91919
4.94589
4.95189
4.93124
4.87492
529.464
517.643
5.02526
5.45987
5.75572
5.93825
6.05235
6.12645
6.17145
6.19098
6.18661
6.16014
6.11368
6.04778
5.96357
5.86259
5.74665
5.61772
5.47808
5.33077
5.18146
5.03998
4.92261
4.83954
4.78996
4.77145
4.77966
4.80845
4.85024
4.89649
4.93826
4.96757
4.97411
4.95193
4.89126
529.573
517.658
5.04443
5.48282
5.78116
5.96488
6.08
6.15512
6.20104
6.22131
6.21742
6.19113
6.14517
6.08007
5.99692
5.89722
5.78264
5.65499
5.51628
5.36915
5.21866
5.0739
4.95057
4.86117
4.80584
4.78312
4.78938
4.81855
4.86256
4.91199
4.95696
4.98897
4.99614
4.97246
4.90739
529.68
517.673
5.06316
5.50503
5.80563
5.99042
6.10651
6.18265
6.22951
6.25058
6.24728
6.22131
6.17596
6.11176
6.02982
5.93157
5.81859
5.69253
5.55515
5.40868
5.25763
5.11025
4.98147
4.88588
4.8245
4.79692
4.8004
4.82921
4.87493
4.92731
4.97567
5.01013
5.01791
4.99276
4.92331
529.786
517.688
5.08128
5.52633
5.82889
6.01456
6.13154
6.20864
6.25644
6.27832
6.27572
6.25027
6.20554
6.14232
6.06171
5.96509
5.85392
5.72973
5.59403
5.44871
5.2977
5.14847
5.01502
4.91362
4.84616
4.81324
4.81318
4.84086
4.88769
4.94272
4.99441
5.03113
5.03946
5.01285
4.93901
529.889
517.702
5.09913
5.54722
5.85136
6.03774
6.15552
6.23354
6.28225
6.30497
6.30309
6.27832
6.2342
6.17205
6.09289
5.99803
5.88886
5.76674
5.63301
5.48923
5.33883
5.18846
5.05115
4.94445
4.87101
4.83239
4.82809
4.8538
4.90105
4.95831
5.01312
5.05195
5.06077
5.03272
4.95451
529.991
517.717
5.1163
5.56739
5.87257
6.05949
6.17799
6.2569
6.3065
6.33004
6.32891
6.30483
6.26145
6.20047
6.12288
6.02991
5.92286
5.803
5.67149
5.52961
5.38032
5.22956
5.08936
4.97805
4.899
4.85459
4.84551
4.86848
4.91539
4.97433
5.03193
5.07266
5.08188
5.05236
4.96979
530.093
517.731
5.13287
5.58665
5.89284
6.08026
6.19944
6.2792
6.32967
6.35399
6.35359
6.33026
6.28771
6.22796
6.15201
6.06101
5.95619
5.83872
5.70961
5.56989
5.42214
5.27161
5.12943
5.01422
4.93004
4.87992
4.86567
4.88519
4.93099
4.99096
5.05091
5.09329
5.10279
5.07177
4.98487
530.193
517.745
5.14882
5.60499
5.91188
6.09965
6.21946
6.30004
6.35135
6.37647
6.3768
6.3542
6.31246
6.25404
6.17982
6.09089
5.9884
5.87343
5.74687
5.60956
5.46372
5.31403
5.17076
5.05245
4.9638
4.90829
4.88872
4.90423
4.94819
5.0085
5.07027
5.11395
5.12356
5.09097
4.99974
530.293
517.759
5.16436
5.6226
5.93005
6.1181
6.23849
6.31985
6.37197
6.39786
6.39891
6.37707
6.33622
6.2791
6.20661
6.11982
6.0197
5.9073
5.7834
5.64866
5.50501
5.35663
5.21302
5.09237
4.99995
4.93951
4.91466
4.92575
4.96716
5.02709
5.0901
5.1347
5.1442
5.10998
5.01439
530.394
517.773
5.17914
5.63912
5.94694
6.13519
6.2561
6.3382
6.3911
6.41773
6.4195
6.39843
6.35851
6.30277
6.23203
6.14732
6.0497
5.93993
5.81878
5.68675
5.54553
5.39887
5.2556
5.13341
5.03801
4.97324
4.94338
4.94986
4.98819
5.04703
5.11062
5.15565
5.16479
5.12879
5.0288
530.494
517.787
5.19353
5.655
5.96304
6.1514
6.27278
6.35557
6.4092
6.43652
6.43898
6.41867
6.37971
6.32536
6.25639
6.1738
6.07855
5.97151
5.85315
5.72392
5.58529
5.44065
5.29826
5.17524
5.07758
5.0091
4.97458
4.97644
5.01128
5.06843
5.13196
5.17693
5.18538
5.14743
5.04298
530.595
517.801
5.20715
5.66979
5.97788
6.16627
6.28807
6.37151
6.42583
6.45383
6.45695
6.43741
6.39944
6.34651
6.27935
6.1989
6.10607
6.00165
5.8862
5.75983
5.62393
5.4816
5.34058
5.21745
5.11827
5.04677
5.00802
5.00535
5.03644
5.09137
5.15423
5.19861
5.20604
5.16593
5.05692
530.697
517.815
5.22038
5.68397
5.99197
6.18031
6.30246
6.38649
6.44145
6.47006
6.47381
6.45501
6.41804
6.36653
6.30117
6.22284
6.13241
6.03061
5.91791
5.79451
5.66145
5.52163
5.38239
5.2598
5.15982
5.08596
5.04349
5.03645
5.06359
5.11581
5.17742
5.22072
5.22678
5.18429
5.07061
530.8
517.828
5.23281
5.69706
6.00482
6.19304
6.3155
6.40008
6.45564
6.48484
6.4892
6.47114
6.4352
6.38513
6.32157
6.24536
6.15733
6.05814
5.94821
5.82765
5.69752
5.5604
5.42333
5.30191
5.20184
5.12635
5.08075
5.06965
5.09274
5.14185
5.20163
5.24332
5.24764
5.20253
5.08403
530.903
517.841
5.24483
5.70956
6.01695
6.20497
6.32767
6.41274
6.46885
6.49858
6.50349
6.48615
6.45125
6.40259
6.34081
6.2667
6.18102
6.08441
5.97723
5.85953
5.73228
5.59797
5.46332
5.34359
5.24403
5.16755
5.11943
5.10463
5.12369
5.16935
5.2268
5.26639
5.26862
5.22064
5.09721
531.007
517.854
5.25608
5.721
6.02789
6.21565
6.33855
6.42407
6.48068
6.51091
6.51636
6.49974
6.4659
6.41869
6.35869
6.28665
6.2033
6.10923
6.00476
5.8899
5.76556
5.63414
5.50218
5.38461
5.28609
5.20923
5.15919
5.14115
5.15634
5.19837
5.25302
5.29001
5.28976
5.23866
5.11015
531.111
517.867
5.26688
5.73184
6.03812
6.22554
6.34858
6.43449
6.49155
6.52223
6.52818
6.51225
6.47948
6.4337
6.37544
6.30544
6.22437
6.13278
6.03096
5.91889
5.79744
5.66896
5.5399
5.42488
5.32785
5.25112
5.19965
5.17879
5.19029
5.22856
5.28011
5.31411
5.31106
5.25659
5.12289
531.215
517.879
5.27694
5.7417
6.04724
6.23425
6.35739
6.44365
6.50113
6.53222
6.53865
6.52341
6.49175
6.44741
6.3909
6.32291
6.24408
6.15493
6.05572
5.94639
5.82782
5.7023
5.57626
5.46418
5.36906
5.29293
5.24053
5.21726
5.22532
5.25987
5.30798
5.33864
5.33251
5.27447
5.13545
531.32
517.892
5.28655
5.75096
6.05567
6.24221
6.36538
6.45194
6.50978
6.54124
6.54811
6.53354
6.50299
6.46008
6.4053
6.33928
6.26264
6.17586
6.07918
5.97254
5.8568
5.73429
5.61142
5.50252
5.40964
5.33449
5.2816
5.25634
5.26125
5.29226
5.33658
5.36356
5.3541
5.29227
5.14785
531.424
517.903
5.29547
5.7593
6.06305
6.24906
6.37223
6.45904
6.51721
6.54901
6.5563
6.54242
6.51302
6.47156
6.41849
6.35443
6.27995
6.1955
6.10131
5.99731
5.88438
5.7649
5.64535
5.53983
5.44944
5.37562
5.32263
5.29577
5.29785
5.32543
5.36579
5.38883
5.3758
5.31004
5.16013
531.528
517.915
5.30393
5.76705
6.06975
6.25517
6.37827
6.4653
6.52375
6.55584
6.56352
6.55032
6.52208
6.48206
6.43069
6.36854
6.29617
6.21401
6.12225
6.02085
5.91071
5.79429
5.6782
5.5762
5.48846
5.4162
5.36344
5.33532
5.33485
5.35914
5.39544
5.41435
5.39759
5.32773
5.17226
531.631
517.926
5.31174
5.77394
6.07548
6.26025
6.38326
6.47046
6.52916
6.56152
6.56958
6.55707
6.53003
6.49147
6.44179
6.38155
6.31127
6.23135
6.142
6.04317
5.93583
5.82254
5.7101
5.61167
5.52666
5.4561
5.40382
5.37477
5.37203
5.39318
5.42538
5.44005
5.41943
5.34538
5.18433
531.734
517.937
5.31907
5.78023
6.08053
6.26459
6.38746
6.4748
6.53371
6.5663
6.57473
6.56291
6.53709
6.49998
6.45197
6.39359
6.32536
6.24764
6.16065
6.06438
5.95985
5.84977
5.74119
5.64637
5.56414
5.4954
5.44374
5.41397
5.40921
5.42736
5.45548
5.46584
5.44129
5.363
5.19641
531.835
517.947
5.32579
5.78572
6.08468
6.26799
6.39068
6.47812
6.53722
6.57004
6.57883
6.56772
6.54316
6.50752
6.46118
6.40465
6.33843
6.26288
6.17822
6.08448
5.98278
5.87601
5.77149
5.6803
5.60088
5.53398
5.48304
5.45275
5.44616
5.4615
5.48558
5.49164
5.46313
5.38055
5.20842
531.935
517.957
5.33204
5.79062
6.08817
6.27068
6.39315
6.48067
6.53992
6.57293
6.58207
6.5717
6.54842
6.51425
6.46956
6.41484
6.35058
6.27716
6.1948
6.10356
6.0047
5.90131
5.801
5.71349
5.63692
5.57194
5.52183
5.49111
5.48284
5.49548
5.51562
5.5174
5.48493
5.39805
5.22037
532.034
517.967
5.33771
5.79478
6.09082
6.27249
6.39471
6.48228
6.54167
6.57488
6.58439
6.57477
6.55281
6.52014
6.47708
6.42416
6.36184
6.29051
6.2104
6.12165
6.02563
5.92567
5.82972
5.74592
5.67224
5.60922
5.55998
5.52888
5.51907
5.52915
5.54542
5.54299
5.50659
5.41542
5.23219
532.132
517.976
5.34294
5.79838
6.09285
6.27362
6.39556
6.48314
6.54265
6.57604
6.58592
6.57708
6.55649
6.5253
6.48387
6.43271
6.37229
6.303
6.22511
6.13882
6.04565
5.94916
5.85767
5.77763
5.70688
5.64587
5.59758
5.56625
5.55493
5.56254
5.575
5.56842
5.52813
5.43268
5.24393
532.228
517.985
5.34762
5.80128
6.09411
6.27395
6.39557
6.48315
6.54277
6.57634
6.58663
6.57862
6.55942
6.52973
6.48991
6.44049
6.38195
6.31468
6.23897
6.15512
6.06479
5.97182
5.88486
5.80862
5.74083
5.68187
5.63457
5.60303
5.59027
5.59548
5.60422
5.59358
5.54947
5.44978
5.25553
532.323
517.994
5.35188
5.80367
6.09478
6.27364
6.39492
6.48246
6.54215
6.57591
6.58665
6.57953
6.56173
6.53351
6.49529
6.44759
6.3909
6.32561
6.25207
6.17064
6.08315
5.99373
5.91135
5.83892
5.77413
5.71725
5.67099
5.63932
5.62523
5.62806
5.63315
5.61852
5.57063
5.46674
5.26703
532.416
518.003
5.35563
5.80541
6.09474
6.2726
6.3935
6.48099
6.54074
6.5747
6.58594
6.57987
6.56341
6.53664
6.5
6.45402
6.39917
6.33587
6.26447
6.18545
6.10082
6.015
5.9372
5.86857
5.80676
5.75197
5.70678
5.67503
5.65966
5.6602
5.66171
5.64317
5.59158
5.48353
5.27841
532.507
518.011
5.35899
5.80665
6.09413
6.27095
6.39146
6.47886
6.53866
6.57278
6.58455
6.57963
6.56446
6.53913
6.50408
6.45982
6.40683
6.34551
6.27627
6.19968
6.11794
6.03581
5.96256
5.89768
5.83881
5.78611
5.74202
5.71021
5.69361
5.69192
5.68988
5.66754
5.61233
5.50017
5.28969
532.597
518.018
5.36188
5.8073
6.09288
6.26863
6.38873
6.47604
6.53587
6.57018
6.58249
6.57876
6.56491
6.54103
6.50758
6.46506
6.41392
6.35459
6.28754
6.21343
6.13467
6.05636
5.98756
5.92633
5.87034
5.81969
5.77667
5.74483
5.72704
5.72319
5.7177
5.6916
5.63285
5.51665
5.30086
532.685
518.026
5.36436
5.80745
6.09107
6.26574
6.38541
6.47262
6.53247
6.56695
6.57982
6.57731
6.56479
6.54239
6.51053
6.46974
6.42046
6.36316
6.29833
6.22679
6.15116
6.07691
6.0124
5.95468
5.90147
5.85282
5.81088
5.77903
5.76006
5.75405
5.74519
5.71545
5.65318
5.533
5.31194
532.771
518.033
5.36639
5.80704
6.08866
6.26222
6.38147
6.46858
6.52845
6.56313
6.57661
6.57536
6.56421
6.54328
6.51302
6.47394
6.42652
6.37124
6.30867
6.23977
6.16743
6.09748
6.03709
5.98273
5.9322
5.88549
5.84463
5.81278
5.79267
5.78454
5.77236
5.73905
5.67335
5.54922
5.32296
532.855
518.039
5.36802
5.80613
6.08572
6.25816
6.37697
6.46399
6.52389
6.55878
6.57289
6.57297
6.5632
6.54375
6.51508
6.47772
6.43215
6.37889
6.3186
6.25239
6.18344
6.11797
6.06158
6.01049
5.96255
5.91775
5.87796
5.84615
5.82493
5.81473
5.7993
5.76248
5.69341
5.56539
5.33397
532.937
518.046
5.36925
5.80473
6.08222
6.25353
6.37192
6.45883
6.51879
6.55393
6.56874
6.5702
6.56187
6.54391
6.51682
6.48115
6.43741
6.38616
6.32815
6.26466
6.19915
6.13825
6.08576
6.03784
5.99244
5.94951
5.91078
5.87906
5.85681
5.84462
5.82602
5.78579
5.7134
5.58152
5.345
533.017
518.052
5.37014
5.80288
6.07823
6.24838
6.36632
6.45315
6.51317
6.5486
6.56417
6.5671
6.56024
6.5438
6.5183
6.48432
6.4424
6.39315
6.33742
6.27666
6.21466
6.15832
6.10966
6.06485
6.02191
5.98081
5.94314
5.91154
5.88833
5.87425
5.85258
5.80903
5.73339
5.5977
5.35609
533.096
518.058
5.3707
5.8006
6.07373
6.24269
6.36018
6.44692
6.50703
6.54281
6.55922
6.56371
6.55839
6.54349
6.5196
6.4873
6.44719
6.39993
6.34647
6.28847
6.22999
6.17818
6.13325
6.09146
6.05093
6.0116
5.97498
5.94352
5.91949
5.90354
5.87894
5.83218
5.75337
5.61392
5.36724
533.173
518.063
5.37099
5.79794
6.06876
6.23648
6.35349
6.44015
6.50037
6.53655
6.55389
6.56005
6.55633
6.54303
6.52077
6.49018
6.45189
6.40663
6.35547
6.30025
6.24537
6.19799
6.15665
6.11777
6.07955
6.04195
6.00637
5.97513
5.95051
5.93263
5.90515
5.85529
5.77338
5.63021
5.37849
533.248
518.069
5.37103
5.7949
6.06331
6.22972
6.34623
6.43279
6.49315
6.52981
6.54821
6.55612
6.55406
6.54241
6.52183
6.49297
6.45652
6.4133
6.36448
6.31213
6.26097
6.21783
6.17993
6.14382
6.10782
6.07189
6.03735
6.0064
5.98131
5.96154
5.93125
5.87837
5.79344
5.64659
5.38983
533.321
518.074
5.37086
5.7915
6.05738
6.22242
6.33837
6.42481
6.48534
6.5226
6.54222
6.55195
6.55161
6.54167
6.52281
6.49574
6.4612
6.42006
6.37367
6.32432
6.27706
6.23792
6.20323
6.16972
6.13582
6.10147
6.06794
6.03732
6.01185
5.99025
5.95724
5.90145
5.81357
5.66309
5.40129
533.394
518.08
5.37047
5.78773
6.05095
6.21452
6.32986
6.41615
6.47685
6.51483
6.53602
6.54747
6.54887
6.5407
6.52366
6.49845
6.46587
6.42689
6.38301
6.33679
6.29362
6.25824
6.22657
6.1955
6.16358
6.13075
6.0982
6.06794
6.04215
6.01881
5.98316
5.92456
5.83378
5.67971
5.41288
533.464
518.085
5.3699
5.7836
6.04401
6.20602
6.3207
6.40677
6.4676
6.50634
6.52923
6.54248
6.54576
6.53951
6.52439
6.50115
6.4706
6.43386
6.39257
6.34958
6.31059
6.27879
6.24996
6.22119
6.19112
6.15972
6.12812
6.09823
6.07219
6.04718
6.00902
5.94769
5.8541
5.69647
5.42458
533.535
518.09
5.3691
5.77906
6.03652
6.19688
6.31082
6.39664
6.45759
6.49713
6.52184
6.53701
6.54226
6.53802
6.52494
6.50375
6.47534
6.4409
6.40229
6.36262
6.32785
6.2995
6.2734
6.24682
6.21851
6.18847
6.15778
6.12826
6.10203
6.07543
6.03483
5.97088
5.87453
5.71337
5.4364
533.604
518.095
5.36809
5.77411
6.02846
6.18707
6.30021
6.3857
6.44674
6.48712
6.51373
6.53093
6.53829
6.5362
6.52528
6.50626
6.48009
6.44807
6.41222
6.37596
6.34539
6.32036
6.29686
6.27236
6.24571
6.21696
6.18715
6.15801
6.13163
6.10353
6.06061
5.99413
5.89509
5.73041
5.44834
533.673
518.1
5.36681
5.76869
6.01978
6.17655
6.28881
6.37393
6.43505
6.4763
6.50493
6.52424
6.53381
6.53398
6.52533
6.50861
6.48481
6.45534
6.4224
6.38969
6.36325
6.34143
6.32043
6.29792
6.27285
6.24531
6.21631
6.18754
6.16104
6.1315
6.08635
6.01743
5.91575
5.74757
5.46038
533.741
518.105
5.36526
5.76279
6.01046
6.16529
6.2766
6.3613
6.42247
6.46464
6.49537
6.51689
6.52878
6.53131
6.52506
6.51077
6.48949
6.46271
6.43286
6.4039
6.38144
6.36268
6.34407
6.32343
6.29986
6.27347
6.24526
6.21684
6.19026
6.15935
6.11206
6.04079
5.93652
5.76487
5.47252
533.81
518.11
5.36343
5.75633
6.00042
6.15322
6.26353
6.34775
6.40898
6.45213
6.48504
6.50886
6.52314
6.52814
6.52439
6.51267
6.49406
6.47018
6.44365
6.41869
6.40007
6.38424
6.36788
6.34903
6.32687
6.30156
6.27407
6.24599
6.21933
6.18711
6.13775
6.06419
5.95738
5.78227
5.48474
533.878
518.115
5.36131
5.74933
5.98967
6.14033
6.24956
6.33326
6.39456
6.43876
6.47394
6.50013
6.51687
6.52442
6.52328
6.51423
6.49842
6.47761
6.45462
6.4339
6.41897
6.40594
6.39175
6.3746
6.35379
6.32951
6.30272
6.27497
6.24827
6.21477
6.16342
6.08765
5.97834
5.79977
5.49704
533.947
518.12
5.35878
5.74168
5.97814
6.12656
6.23464
6.31778
6.3792
6.42456
6.46207
6.49067
6.50995
6.52012
6.52168
6.51542
6.50256
6.48498
6.46572
6.44942
6.43808
6.42779
6.4157
6.4002
6.38068
6.35738
6.33126
6.30383
6.27709
6.24237
6.18909
6.11117
5.99938
5.81735
5.5094
534.016
518.124
5.35589
5.73346
5.96585
6.1119
6.21872
6.30127
6.3629
6.40962
6.44948
6.4805
6.50234
6.51519
6.51952
6.51615
6.50634
6.49214
6.47677
6.46498
6.45718
6.44957
6.43956
6.42569
6.40744
6.38511
6.35964
6.33253
6.30579
6.26989
6.21475
6.13472
6.02048
5.83501
5.52181
534.086
518.129
5.35268
5.72467
5.95279
6.09631
6.20173
6.28359
6.34555
6.39414
6.43611
6.46955
6.49404
6.50968
6.51689
6.51649
6.50986
6.49916
6.48786
6.48057
6.47624
6.47127
6.46331
6.45105
6.43407
6.41271
6.3879
6.36111
6.33439
6.29735
6.24039
6.15832
6.04166
5.85273
5.53428
534.155
518.133
5.34916
5.71531
5.93896
6.07978
6.1836
6.26459
6.32677
6.37722
6.42151
6.45761
6.48493
6.50349
6.51369
6.5164
6.51308
6.50606
6.499
6.49613
6.49518
6.4928
6.48685
6.4762
6.4605
6.44009
6.41593
6.38952
6.3628
6.32469
6.266
6.18192
6.06286
5.87048
5.54675
534.226
518.138
5.34541
5.70546
5.9244
6.0623
6.16434
6.24432
6.30671
6.35915
6.40589
6.44477
6.47506
6.49667
6.50999
6.51594
6.51609
6.51293
6.51034
6.51173
6.51403
6.51415
6.51016
6.50107
6.48662
6.46721
6.44381
6.41803
6.39111
6.35191
6.29154
6.20553
6.08409
5.88825
5.55924
534.296
518.142
5.3414
5.69505
5.90907
6.04385
6.14386
6.22258
6.28505
6.33951
6.38885
6.43072
6.46418
6.48902
6.50564
6.51499
6.51878
6.51971
6.52181
6.5273
6.53274
6.53529
6.53323
6.5257
6.51252
6.49414
6.47158
6.44654
6.41935
6.37903
6.317
6.22908
6.10529
5.906
5.5717
534.368
518.147
5.33712
5.68412
5.89302
6.02448
6.12224
6.19949
6.26193
6.31842
6.37042
6.4154
6.4522
6.48047
6.50054
6.51346
6.52108
6.52629
6.53324
6.54271
6.55119
6.55611
6.55595
6.54997
6.53808
6.52076
6.4991
6.47487
6.44744
6.40601
6.34236
6.25258
6.12646
5.92371
5.58413
534.438
518.152
5.33249
5.6726
5.87622
6.00419
6.09945
6.17497
6.23722
6.29567
6.35037
6.39859
6.43889
6.47076
6.49447
6.51115
6.52279
6.53249
6.54439
6.55778
6.56927
6.57657
6.57833
6.57392
6.56333
6.54712
6.52641
6.50302
6.47536
6.43283
6.36761
6.27599
6.14756
5.94138
5.59651
534.511
518.156
5.3275
5.66052
5.85872
5.98305
6.0756
6.14918
6.21109
6.27142
6.32878
6.38028
6.42421
6.45982
6.48736
6.50798
6.52384
6.53822
6.55506
6.5723
6.58678
6.59646
6.60016
6.59737
6.58814
6.57308
6.55336
6.53086
6.503
6.45943
6.39267
6.29927
6.16855
5.95895
5.60881
534.582
518.16
5.32214
5.64789
5.84055
5.96106
6.05069
6.12214
6.18359
6.24567
6.30564
6.36044
6.40806
6.44755
6.47907
6.50383
6.52414
6.54347
6.56518
6.5862
6.60365
6.61574
6.62143
6.62031
6.61251
6.59866
6.57999
6.55844
6.53042
6.48584
6.4176
6.32245
6.18948
5.97646
5.62106
534.655
518.165
5.31652
5.63482
5.82178
5.93828
6.02477
6.09397
6.15493
6.21866
6.28119
6.33925
6.39057
6.43398
6.46959
6.49867
6.52365
6.54818
6.57461
6.59931
6.61971
6.63421
6.64194
6.64256
6.63624
6.62367
6.60611
6.58554
6.5574
6.51186
6.4422
6.34537
6.21017
5.99376
5.63314
534.726
518.169
5.31081
5.62146
5.80245
5.91465
5.99771
6.06456
6.12525
6.19053
6.25556
6.31684
6.37183
6.41918
6.45895
6.49247
6.52233
6.55225
6.58328
6.61159
6.63492
6.65188
6.6617
6.66413
6.65939
6.64819
6.63183
6.61232
6.58412
6.53768
6.46666
6.36818
6.23079
6.011
5.64516
534.8
518.174
5.30523
5.60797
5.78263
5.8901
5.9693
6.03362
6.09439
6.16108
6.2287
6.2933
6.35199
6.40329
6.44724
6.48526
6.5201
6.55549
6.59098
6.62285
6.6491
6.66854
6.6805
6.6848
6.68169
6.67191
6.65678
6.63838
6.61019
6.56292
6.49062
6.39056
6.251
6.02788
5.65689
534.872
518.179
5.29997
5.5945
5.76241
5.86463
5.93937
6.00073
6.06147
6.1299
6.20047
6.26863
6.33116
6.38646
6.43461
6.47718
6.51709
6.55787
6.59768
6.63304
6.66223
6.68421
6.6984
6.70468
6.70333
6.69511
6.68135
6.66413
6.63597
6.58793
6.5144
6.41282
6.27115
6.0447
5.66854
534.946
518.185
5.29513
5.58112
5.74182
5.8382
5.90785
5.96582
6.02653
6.09691
6.17075
6.24278
6.30935
6.36877
6.4212
6.46838
6.51342
6.55938
6.60332
6.64207
6.67417
6.69869
6.71515
6.72345
6.72389
6.71723
6.70481
6.68889
6.66088
6.61215
6.53749
6.43443
6.29069
6.06096
5.67974
535.017
518.191
5.29076
5.56791
5.72094
5.81083
5.87453
5.92847
5.98895
6.06147
6.13898
6.2153
6.28626
6.35004
6.40693
6.45889
6.5092
6.56007
6.60794
6.64997
6.68493
6.71203
6.73084
6.74126
6.74363
6.73875
6.72806
6.71325
6.6854
6.63608
6.56037
6.45592
6.31015
6.07717
5.69084
535.091
518.198
5.28682
5.55491
5.69987
5.78262
5.83953
5.88874
5.9487
6.02341
6.1049
6.18588
6.26156
6.32998
6.39156
6.44848
6.50421
6.55972
6.61134
6.65656
6.69435
6.72403
6.74521
6.75784
6.76225
6.75928
6.75049
6.73668
6.70892
6.65901
6.58231
6.47654
6.32879
6.09262
5.7013
535.161
518.205
5.28337
5.54224
5.67879
5.75368
5.80281
5.84645
5.90546
5.98238
6.0681
6.15408
6.23482
6.30817
6.37468
6.43677
6.49804
6.55807
6.61336
6.66176
6.70241
6.73475
6.75842
6.77339
6.78001
6.77915
6.77243
6.75968
6.73207
6.68165
6.60404
6.49702
6.34737
6.10802
5.71168
535.235
518.213
5.28053
5.53009
5.65786
5.72426
5.76455
5.80175
5.85926
5.9384
6.02857
6.1198
6.20584
6.28435
6.35599
6.42344
6.49025
6.5547
6.61363
6.6652
6.70877
6.74382
6.77005
6.78745
6.79638
6.79771
6.7931
6.78143
6.75397
6.70307
6.62462
6.5164
6.3649
6.12246
5.72123
535.305
518.221
5.27836
5.51851
5.63712
5.6943
5.72486
5.7546
5.81009
5.89132
5.98606
6.0828
6.1744
6.25832
6.33532
6.40834
6.48066
6.54948
6.61207
6.6669
6.71346
6.75136
6.78031
6.8003
6.81171
6.81541
6.81307
6.80261
6.77541
6.72414
6.64495
6.53564
6.38235
6.13686
5.7307
535.378
518.23
5.27705
5.50775
5.61686
5.66404
5.68365
5.70502
5.75784
5.84099
5.94042
6.04289
6.14031
6.22987
6.31247
6.39126
6.46892
6.54203
6.60828
6.66641
6.71607
6.7569
6.78865
6.81134
6.82531
6.83146
6.83143
6.82221
6.79532
6.74375
6.6639
6.55357
6.39857
6.15011
5.7392
535.446
518.24
5.27661
5.49784
5.59719
5.63366
5.64116
5.65301
5.70235
5.78721
5.89145
5.99988
6.10338
6.19884
6.28728
6.37207
6.45493
6.53229
6.60226
6.66381
6.7167
6.76063
6.79538
6.82095
6.83769
6.84647
6.84893
6.8411
6.81466
6.76293
6.68254
6.57129
6.41467
6.1633
5.74761
535.519
518.25
5.27699
5.48889
5.57835
5.60351
5.5977
5.59872
5.6437
5.72975
5.83879
5.95339
6.06319
6.16478
6.25926
6.3502
6.43816
6.51978
6.59354
6.6586
6.71484
6.76199
6.79985
6.82841
6.84801
6.8595
6.86448
6.8581
6.8322
6.7804
6.69959
6.58752
6.42938
6.17521
5.75493
535.585
518.261
5.27818
5.48102
5.56059
5.57395
5.55375
5.54255
5.58189
5.66846
5.78218
5.90307
6.0194
6.12733
6.22806
6.3253
6.41841
6.50441
6.58212
6.65089
6.71068
6.76127
6.80246
6.83423
6.85691
6.8713
6.87899
6.87422
6.84901
6.7973
6.7162
6.60345
6.44389
6.18701
5.76211
535.657
518.272
5.28012
5.47427
5.54406
5.54527
5.50974
5.4849
5.51729
5.60364
5.72154
5.84864
5.97161
6.08603
6.19316
6.29675
6.39508
6.4856
6.56744
6.64011
6.70363
6.75781
6.80247
6.83759
6.86346
6.88086
6.89129
6.88819
6.86379
6.8123
6.73105
6.61774
6.45689
6.19743
5.76814
535.721
518.284
5.283
5.46887
5.52902
5.51783
5.46616
5.42652
5.45033
5.53527
5.65693
5.79015
5.91983
6.04089
6.15456
6.26456
6.36823
6.46347
6.54968
6.6265
6.69401
6.75206
6.80044
6.83913
6.86837
6.88893
6.90233
6.90112
6.8777
6.8266
6.74535
6.63161
6.46959
6.20765
5.77396
535.793
518.296
5.28689
5.46487
5.51552
5.49166
5.42306
5.36747
5.38128
5.46378
5.58859
5.72767
5.864
5.99175
6.11204
6.22839
6.33745
6.43755
6.52831
6.60947
6.68116
6.74322
6.79548
6.8379
6.87071
6.89471
6.91093
6.91164
6.88933
6.83878
6.7577
6.64369
6.48064
6.21638
5.77854
535.854
518.309
5.29206
5.46248
5.50377
5.46701
5.38069
5.30794
5.31055
5.38967
5.51705
5.66172
5.8046
5.93901
6.06595
6.18854
6.30308
6.40822