/*--------------------------------*- C++ -*----------------------------------*\
| =========                 |                                                 |
| \\      /  F ield         | OpenFOAM: The Open Source CFD Toolbox           |
|  \\    /   O peration     | Version:  v2006                                 |
|   \\  /    A nd           | Website:  www.openfoam.com                      |
|    \\/     M anipulation  |                                                 |
\*---------------------------------------------------------------------------*/
FoamFile
{
    version     2.0;
    format      ascii;
    class       surfaceScalarField;
    location    "73";
    object      phi;
}
// * * * * * * * * * * * * * * * * * * * * * * * * * * * * * * * * * * * * * //

dimensions      [1 0 -1 0 0 0 0];
oriented        oriented;


internalField   nonuniform List<scalar> 
228225
(
9.68272e-08
-1.44244e-07
5.70758e-08
2.74279e-07
-3.26e-07
1.48363e-07
5.49222e-07
-4.8721e-07
2.12015e-07
9.49581e-07
-6.52058e-07
2.51439e-07
1.49291e-06
-8.16751e-07
2.73192e-07
2.17824e-06
-9.69421e-07
2.83909e-07
2.98958e-06
-1.09983e-06
2.88359e-07
3.90219e-06
-1.20209e-06
2.89384e-07
4.88765e-06
-1.27398e-06
2.88471e-07
5.91686e-06
-1.31554e-06
2.86316e-07
6.96169e-06
-1.32801e-06
2.83191e-07
7.99574e-06
-1.31315e-06
2.79159e-07
8.99478e-06
-1.27314e-06
2.7419e-07
9.93656e-06
-1.2099e-06
2.68243e-07
1.08009e-05
-1.12543e-06
2.61255e-07
1.15699e-05
-1.02197e-06
2.53188e-07
1.22278e-05
-9.01698e-07
2.44041e-07
1.27609e-05
-7.66751e-07
2.33852e-07
1.3158e-05
-6.19476e-07
2.22705e-07
1.34102e-05
-4.62561e-07
2.10735e-07
1.35117e-05
-2.99192e-07
1.98126e-07
1.34607e-05
-1.33707e-07
1.85112e-07
1.32592e-05
3.0023e-08
1.71965e-07
1.28925e-05
2.08067e-07
1.59023e-07
1.23723e-05
3.74046e-07
1.46671e-07
1.17068e-05
5.30795e-07
1.35282e-07
1.09054e-05
6.76703e-07
1.25195e-07
9.97805e-06
8.11109e-07
1.1669e-07
8.93283e-06
9.35694e-07
1.09965e-07
7.77101e-06
1.05714e-06
1.05063e-07
6.47354e-06
1.19606e-06
1.01717e-07
4.98048e-06
1.39468e-06
9.85517e-08
3.21941e-06
1.6699e-06
9.10412e-08
1.30612e-06
1.84201e-06
7.04601e-08
1.27428e-06
3.00013e-08
1.11038e-07
-3.05641e-07
5.02984e-08
4.17706e-07
-7.5768e-07
1.24956e-07
8.91124e-07
-1.13567e-06
1.74918e-07
1.50738e-06
-1.4752e-06
2.06684e-07
2.23759e-06
-1.77294e-06
2.25711e-07
3.0492e-06
-2.0179e-06
2.36556e-07
3.9104e-06
-2.20386e-06
2.42489e-07
4.79318e-06
-2.3308e-06
2.45568e-07
5.67421e-06
-2.40234e-06
2.46973e-07
6.53433e-06
-2.42334e-06
2.47326e-07
7.35775e-06
-2.39871e-06
2.46929e-07
8.13109e-06
-2.3327e-06
2.45879e-07
8.84259e-06
-2.22904e-06
2.44107e-07
9.48199e-06
-2.09116e-06
2.41578e-07
1.00399e-05
-1.92182e-06
2.38262e-07
1.05078e-05
-1.72413e-06
2.34051e-07
1.08786e-05
-1.50149e-06
2.28845e-07
1.11457e-05
-1.2565e-06
2.2254e-07
1.13025e-05
-9.914e-07
2.15043e-07
1.13433e-05
-7.09522e-07
2.06243e-07
1.12631e-05
-4.14974e-07
1.96069e-07
1.10576e-05
-1.1261e-07
1.84509e-07
1.07243e-05
1.91919e-07
1.71667e-07
1.02825e-05
4.92354e-07
1.57812e-07
9.73175e-06
7.8193e-07
1.43265e-07
9.0798e-06
1.05465e-06
1.28519e-07
8.3365e-06
1.30628e-06
1.14164e-07
7.51012e-06
1.53699e-06
1.00955e-07
6.6029e-06
1.75367e-06
8.96584e-08
5.60438e-06
1.97531e-06
8.07048e-08
4.48578e-06
2.24083e-06
7.40579e-08
3.21862e-06
2.59338e-06
6.84681e-08
1.85756e-06
2.97036e-06
6.01847e-08
6.26768e-07
3.02801e-06
4.36951e-08
1.88239e-06
1.6626e-08
1.40178e-07
-4.94347e-07
4.85178e-08
5.65018e-07
-1.29554e-06
1.13028e-07
1.22121e-06
-1.94481e-06
1.52947e-07
2.0339e-06
-2.46465e-06
1.76755e-07
2.92854e-06
-2.85812e-06
1.90508e-07
3.8452e-06
-3.13309e-06
1.98481e-07
4.74329e-06
-3.30536e-06
2.03347e-07
5.5981e-06
-3.39231e-06
2.06606e-07
6.39526e-06
-3.4086e-06
2.0901e-07
7.12641e-06
-3.36548e-06
2.10901e-07
7.78643e-06
-3.27125e-06
2.1243e-07
8.37185e-06
-3.13198e-06
2.13768e-07
8.87966e-06
-2.95202e-06
2.15067e-07
9.30673e-06
-2.73468e-06
2.16344e-07
9.64999e-06
-2.48273e-06
2.17551e-07
9.90668e-06
-2.1995e-06
2.18573e-07
1.00746e-05
-1.88874e-06
2.19236e-07
1.01522e-05
-1.55361e-06
2.19446e-07
1.01384e-05
-1.19684e-06
2.19128e-07
1.00329e-05
-8.22111e-07
2.17943e-07
9.83641e-06
-4.33967e-07
2.15472e-07
9.55488e-06
-4.23056e-08
2.11219e-07
9.17704e-06
3.65131e-07
2.04658e-07
8.71059e-06
7.63505e-07
1.95394e-07
8.16109e-06
1.14835e-06
1.83234e-07
7.53599e-06
1.51164e-06
1.68314e-07
6.84364e-06
1.84767e-06
1.51197e-07
6.09057e-06
2.15746e-06
1.32855e-07
5.2765e-06
2.45348e-06
1.14485e-07
4.38945e-06
2.76532e-06
9.71961e-08
3.41017e-06
3.13857e-06
8.15736e-08
2.34551e-06
3.59054e-06
6.72749e-08
1.28951e-06
3.97289e-06
5.2827e-08
4.07455e-07
3.87301e-06
3.57766e-08
2.27371e-06
1.40022e-08
1.8285e-07
-7.23499e-07
4.63738e-08
6.56947e-07
-1.87046e-06
1.00864e-07
1.33064e-06
-2.74851e-06
1.30068e-07
2.10884e-06
-3.38775e-06
1.44971e-07
2.91166e-06
-3.8131e-06
1.52238e-07
3.69009e-06
-4.06709e-06
1.5564e-07
4.42259e-06
-4.19481e-06
1.57005e-07
5.10278e-06
-4.22957e-06
1.57136e-07
5.72923e-06
-4.19134e-06
1.5635e-07
6.30088e-06
-4.09194e-06
1.54862e-07
6.816e-06
-3.93931e-06
1.52998e-07
7.27241e-06
-3.73941e-06
1.51086e-07
7.66714e-06
-3.49614e-06
1.49466e-07
7.99563e-06
-3.2116e-06
1.485e-07
8.253e-06
-2.88857e-06
1.48538e-07
8.43471e-06
-2.53099e-06
1.4983e-07
8.53727e-06
-2.14377e-06
1.52522e-07
8.55951e-06
-1.73242e-06
1.56632e-07
8.50309e-06
-1.30242e-06
1.62056e-07
8.37123e-06
-8.58694e-07
1.68508e-07
8.16729e-06
-4.05456e-07
1.75487e-07
7.88925e-06
5.3554e-08
1.82254e-07
7.5522e-06
5.14402e-07
1.87857e-07
7.15336e-06
9.71309e-07
1.91125e-07
6.69383e-06
1.41709e-06
1.90898e-07
6.17547e-06
1.84381e-06
1.86305e-07
5.60021e-06
2.24601e-06
1.77055e-07
4.96796e-06
2.62625e-06
1.63588e-07
4.2734e-06
3.00126e-06
1.46904e-07
3.50534e-06
3.40536e-06
1.28081e-07
2.65808e-06
3.87789e-06
1.07872e-07
1.76556e-06
4.39585e-06
8.6906e-08
9.27645e-07
4.744e-06
6.61048e-08
2.70025e-07
4.48463e-06
4.47043e-08
2.52296e-06
1.86371e-08
1.68445e-07
-9.26421e-07
3.45244e-08
5.82817e-07
-2.3562e-06
7.13847e-08
1.1398e-06
-3.39573e-06
9.02717e-08
1.75036e-06
-4.09858e-06
1.00301e-07
2.35451e-06
-4.52276e-06
1.05523e-07
2.92768e-06
-4.74767e-06
1.07399e-07
3.46708e-06
-4.84055e-06
1.06332e-07
3.97614e-06
-4.84132e-06
1.02671e-07
4.45661e-06
-4.7688e-06
9.69709e-08
4.90776e-06
-4.63302e-06
8.9913e-08
5.32666e-06
-4.44042e-06
8.21862e-08
5.7074e-06
-4.19454e-06
7.43723e-08
6.04193e-06
-3.89778e-06
6.70873e-08
6.32152e-06
-3.55216e-06
6.09528e-08
6.53872e-06
-3.16231e-06
5.6524e-08
6.68849e-06
-2.73507e-06
5.43047e-08
6.76888e-06
-2.27885e-06
5.47022e-08
6.78089e-06
-1.8024e-06
5.79771e-08
6.72793e-06
-1.31372e-06
6.42745e-08
6.61495e-06
-8.19245e-07
7.3547e-08
6.44744e-06
-3.23437e-07
8.5523e-08
6.2306e-06
1.70753e-07
9.96759e-08
5.96945e-06
6.60458e-07
1.15138e-07
5.66598e-06
1.14421e-06
1.30625e-07
5.32039e-06
1.61825e-06
1.4449e-07
4.93083e-06
2.07849e-06
1.54949e-07
4.49312e-06
2.5233e-06
1.60491e-07
4.00003e-06
2.95916e-06
1.60242e-07
3.44075e-06
3.40657e-06
1.53999e-07
2.80434e-06
3.89988e-06
1.41875e-07
2.09504e-06
4.46287e-06
1.24181e-07
1.36119e-06
5.02721e-06
1.02125e-07
6.93022e-07
5.33311e-06
7.83048e-08
1.90417e-07
4.93308e-06
5.28788e-08
2.68997e-06
2.13165e-08
1.46136e-07
-1.09961e-06
2.70662e-08
4.90276e-07
-2.75845e-06
5.81702e-08
9.41111e-07
-3.92332e-06
7.68153e-08
1.42842e-06
-4.67449e-06
8.86533e-08
1.91154e-06
-5.10137e-06
9.55293e-08
2.37768e-06
-5.31179e-06
9.80144e-08
2.82667e-06
-5.38596e-06
9.64534e-08
3.25937e-06
-5.36537e-06
9.13878e-08
3.67482e-06
-5.26769e-06
8.34607e-08
4.07107e-06
-5.10262e-06
7.33933e-08
4.44327e-06
-4.87442e-06
6.18399e-08
4.78295e-06
-4.5836e-06
4.94215e-08
5.08022e-06
-4.23176e-06
3.67663e-08
5.32651e-06
-3.823e-06
2.45921e-08
5.51554e-06
-3.36488e-06
1.35866e-08
5.64417e-06
-2.86794e-06
4.28029e-09
5.71169e-06
-2.34433e-06
-2.01041e-09
5.72005e-06
-1.80601e-06
-4.71415e-09
5.67405e-06
-1.2634e-06
-4.27706e-09
5.57981e-06
-7.24473e-07
-4.89261e-10
5.44245e-06
-1.94379e-07
8.33657e-09
5.26819e-06
3.24417e-07
2.06358e-08
5.06102e-06
8.31248e-07
3.6422e-08
4.82362e-06
1.32662e-06
5.5034e-08
4.55527e-06
1.8115e-06
7.51358e-08
4.25141e-06
2.28749e-06
9.48968e-08
3.90329e-06
2.75918e-06
1.12271e-07
3.49834e-06
3.23881e-06
1.25325e-07
3.02214e-06
3.75042e-06
1.32355e-07
2.46519e-06
4.32492e-06
1.31851e-07
1.83936e-06
4.96579e-06
1.22729e-07
1.19855e-06
5.56231e-06
1.05283e-07
6.16711e-07
5.83196e-06
8.22327e-08
1.76497e-07
5.31718e-06
5.48609e-08
2.84391e-06
2.05059e-08
1.22411e-07
-1.24199e-06
1.99785e-08
4.03857e-07
-3.08423e-06
4.43742e-08
7.68779e-07
-4.3487e-06
6.04983e-08
1.16397e-06
-5.1412e-06
7.15534e-08
1.55959e-06
-5.5752e-06
7.8233e-08
1.94646e-06
-5.77945e-06
8.07962e-08
2.32377e-06
-5.84288e-06
7.96156e-08
2.69114e-06
-5.80799e-06
7.52542e-08
3.04728e-06
-5.69215e-06
6.83398e-08
3.38855e-06
-5.50323e-06
5.9341e-08
3.70872e-06
-5.24318e-06
4.86085e-08
4.00068e-06
-4.91205e-06
3.65029e-08
4.25693e-06
-4.51146e-06
2.34548e-08
4.47077e-06
-4.04688e-06
1.00563e-08
4.63706e-06
-3.52834e-06
-2.81032e-09
4.75247e-06
-2.9693e-06
-1.40258e-08
4.8168e-06
-2.38472e-06
-2.39134e-08
4.83165e-06
-1.78927e-06
-3.15548e-08
4.80024e-06
-1.19569e-06
-3.6268e-08
4.72703e-06
-6.13768e-07
-3.74647e-08
4.6161e-06
-4.87491e-08
-3.4662e-08
4.47558e-06
4.92494e-07
-2.75304e-08
4.30919e-06
1.0136e-06
-1.59298e-08
4.11932e-06
1.51638e-06
1.35625e-10
3.90526e-06
2.00595e-06
1.96357e-08
3.66132e-06
2.48983e-06
4.16121e-08
3.37692e-06
2.97953e-06
6.40583e-08
3.03722e-06
3.49377e-06
8.47363e-08
2.62666e-06
4.05983e-06
1.01104e-07
2.13777e-06
4.70338e-06
1.10332e-07
1.58689e-06
5.40665e-06
1.09799e-07
1.02734e-06
6.02298e-06
9.84247e-08
5.21951e-07
6.25839e-06
7.8201e-08
1.47335e-07
5.63926e-06
5.12919e-08
2.97146e-06
1.77648e-08
9.44695e-08
-1.35346e-06
1.70559e-08
3.20574e-07
-3.3516e-06
4.12958e-08
6.23199e-07
-4.71085e-06
5.95582e-08
9.6001e-07
-5.55103e-06
7.30436e-08
1.30551e-06
-6.00233e-06
8.16507e-08
1.64988e-06
-6.20933e-06
8.55238e-08
1.99031e-06
-6.2685e-06
8.52032e-08
2.325e-06
-6.2241e-06
8.14476e-08
2.65158e-06
-6.09375e-06
7.50395e-08
2.96556e-06
-5.88367e-06
6.64788e-08
3.26111e-06
-5.59477e-06
5.6074e-08
3.53173e-06
-5.22671e-06
4.40686e-08
3.77106e-06
-4.78158e-06
3.08197e-08
3.97368e-06
-4.26631e-06
1.68473e-08
4.13558e-06
-3.6929e-06
2.6848e-09
4.25402e-06
-3.07689e-06
-1.08193e-08
4.32807e-06
-2.43534e-06
-2.34005e-08
4.35833e-06
-1.78503e-06
-3.44684e-08
4.34683e-06
-1.14068e-06
-4.34802e-08
4.29688e-06
-5.14008e-07
-4.97692e-08
4.21418e-06
8.66449e-08
-5.26613e-08
4.10091e-06
6.57333e-07
-5.15343e-08
3.96298e-06
1.19744e-06
-4.58779e-08
3.80317e-06
1.71152e-06
-3.53118e-08
3.62056e-06
2.20832e-06
-1.97287e-08
3.40892e-06
2.7008e-06
6.82195e-10
3.15792e-06
3.20715e-06
2.3392e-08
2.85176e-06
3.75231e-06
4.76069e-08
2.47505e-06
4.36647e-06
7.00228e-08
2.02188e-06
5.06963e-06
8.67997e-08
1.51002e-06
5.82437e-06
9.3881e-08
9.88961e-07
6.45491e-06
8.86604e-08
5.12757e-07
6.66173e-06
7.20852e-08
1.52033e-07
5.95187e-06
4.6879e-08
3.10606e-06
1.5427e-08
9.0508e-08
-1.45894e-06
1.50054e-08
3.01293e-07
-3.60037e-06
3.80042e-08
5.80898e-07
-5.04633e-06
5.5899e-08
8.91662e-07
-5.93104e-06
6.92717e-08
1.21043e-06
-6.39919e-06
7.81127e-08
1.52797e-06
-6.6096e-06
8.27435e-08
1.84121e-06
-6.66546e-06
8.37331e-08
2.14797e-06
-6.61259e-06
8.1736e-08
2.44541e-06
-6.4685e-06
7.73193e-08
2.7296e-06
-6.23873e-06
7.08916e-08
2.99569e-06
-5.92349e-06
6.26462e-08
3.23842e-06
-5.52213e-06
5.2702e-08
3.45283e-06
-5.03725e-06
4.12839e-08
3.6348e-06
-4.47699e-06
2.87347e-08
3.78122e-06
-3.85479e-06
1.55057e-08
3.88977e-06
-3.1877e-06
2.28876e-09
3.9597e-06
-2.49422e-06
-1.10246e-08
3.99079e-06
-1.7926e-06
-2.34747e-08
3.98414e-06
-1.09924e-06
-3.47547e-08
3.94204e-06
-4.27552e-07
-4.43164e-08
3.86781e-06
2.12391e-07
-5.14798e-08
3.76633e-06
8.14365e-07
-5.55143e-08
3.64186e-06
1.37764e-06
-5.57035e-08
3.49736e-06
1.90744e-06
-5.13888e-08
3.33235e-06
2.41527e-06
-4.19299e-08
3.14143e-06
2.91869e-06
-2.6959e-08
2.9134e-06
3.44176e-06
-6.58848e-09
2.63369e-06
4.01511e-06
1.6891e-08
2.2874e-06
4.67128e-06
4.1403e-08
1.86937e-06
5.42481e-06
6.27094e-08
1.39697e-06
6.22095e-06
7.55529e-08
9.15281e-07
6.86025e-06
7.58691e-08
4.7331e-07
7.03953e-06
6.33968e-08
1.39895e-07
6.24306e-06
4.10066e-08
3.23112e-06
1.28384e-08
7.71406e-08
-1.55116e-06
1.51017e-08
2.66088e-07
-3.8286e-06
3.93184e-08
5.23163e-07
-5.36194e-06
5.85671e-08
8.12967e-07
-6.29387e-06
7.30482e-08
1.11308e-06
-6.78194e-06
8.26467e-08
1.41384e-06
-6.9981e-06
8.77539e-08
1.71145e-06
-7.05222e-06
8.91544e-08
2.0032e-06
-6.99204e-06
8.7725e-08
2.28581e-06
-6.83525e-06
8.41539e-08
2.5552e-06
-6.58698e-06
7.88732e-08
2.80672e-06
-6.24703e-06
7.2043e-08
3.03565e-06
-5.81475e-06
6.3718e-08
3.23781e-06
-5.29341e-06
5.40264e-08
3.40991e-06
-4.69222e-06
4.31567e-08
3.54962e-06
-4.02583e-06
3.13565e-08
3.65535e-06
-3.31236e-06
1.89702e-08
3.72603e-06
-2.57136e-06
6.4966e-09
3.7614e-06
-1.822e-06
-5.92932e-09
3.76205e-06
-1.08181e-06
-1.80392e-08
3.72929e-06
-3.656e-07
-2.91583e-08
3.66564e-06
3.14843e-07
-3.87569e-08
3.5745e-06
9.51694e-07
-4.61583e-08
3.45977e-06
1.54302e-06
-5.06196e-08
3.32421e-06
2.09443e-06
-5.13968e-08
3.16782e-06
2.61937e-06
-4.76739e-08
2.98611e-06
3.139e-06
-3.85908e-08
2.76928e-06
3.68218e-06
-2.35924e-08
2.50273e-06
4.28422e-06
-2.58426e-09
2.17403e-06
4.97948e-06
2.04244e-08
1.77835e-06
5.77726e-06
4.30817e-08
1.33207e-06
6.60763e-06
5.93145e-08
8.76091e-07
7.25189e-06
6.38566e-08
4.55313e-07
7.40429e-06
5.52386e-08
1.35936e-07
6.52515e-06
3.60596e-08
3.35392e-06
1.1164e-08
7.98869e-08
-1.64589e-06
1.48617e-08
2.67738e-07
-4.0556e-06
3.91778e-08
5.18135e-07
-5.67079e-06
5.84658e-08
7.96839e-07
-6.64547e-06
7.29133e-08
1.08283e-06
-7.15053e-06
8.26066e-08
1.36759e-06
-7.37089e-06
8.80432e-08
1.6479e-06
-7.42252e-06
9.00009e-08
1.9213e-06
-7.35474e-06
8.93163e-08
2.18474e-06
-7.18533e-06
8.6652e-08
2.4344e-06
-6.91906e-06
8.24372e-08
2.66602e-06
-6.55548e-06
7.68546e-08
2.87541e-06
-6.09409e-06
6.99743e-08
3.05902e-06
-5.53889e-06
6.18931e-08
3.21426e-06
-4.90015e-06
5.27211e-08
3.33946e-06
-4.19359e-06
4.25997e-08
3.43365e-06
-3.43826e-06
3.17284e-08
3.49635e-06
-2.65441e-06
2.0389e-08
3.52732e-06
-1.8619e-06
8.96384e-09
3.5267e-06
-1.07891e-06
-2.23943e-09
3.49605e-06
-3.21153e-07
-1.37612e-08
3.43697e-06
3.9821e-07
-2.42458e-08
3.35216e-06
1.06987e-06
-3.33258e-08
3.24456e-06
1.69099e-06
-4.03414e-08
3.1164e-06
2.26721e-06
-4.45828e-08
2.96767e-06
2.81335e-06
-4.52269e-08
2.7946e-06
3.35333e-06
-4.12397e-08
2.58861e-06
3.91975e-06
-3.15829e-08
2.33699e-06
4.55152e-06
-1.5715e-08
2.02704e-06
5.28406e-06
5.29023e-09
1.65599e-06
6.12144e-06
2.67097e-08
1.23889e-06
6.98019e-06
4.42577e-08
8.13006e-07
7.62555e-06
5.17395e-08
4.20054e-07
7.74992e-06
4.6566e-08
1.2403e-07
6.78921e-06
3.07547e-08
3.4666e-06
9.38834e-09
7.43417e-08
-1.73582e-06
1.56258e-08
2.53488e-07
-4.27569e-06
4.09569e-08
4.94021e-07
-5.97211e-06
6.08092e-08
7.61736e-07
-6.98869e-06
7.55253e-08
1.03609e-06
-7.51021e-06
8.53359e-08
1.30888e-06
-7.73453e-06
9.08715e-08
1.57686e-06
-7.78353e-06
9.30319e-08
1.8375e-06
-7.70808e-06
9.27258e-08
2.08769e-06
-7.52613e-06
9.06319e-08
2.32372e-06
-7.24225e-06
8.71741e-08
2.5416e-06
-6.85586e-06
8.25333e-08
2.73758e-06
-6.36682e-06
7.67732e-08
2.90867e-06
-5.77991e-06
6.99606e-08
3.05282e-06
-5.10642e-06
6.21533e-08
3.16882e-06
-4.36298e-06
5.34196e-08
3.25608e-06
-3.56935e-06
4.38669e-08
3.31435e-06
-2.74632e-06
3.36688e-08
3.34359e-06
-1.91417e-06
2.30689e-08
3.34393e-06
-1.09154e-06
1.23371e-08
3.31567e-06
-2.94834e-07
1.96989e-09
3.26084e-06
4.61854e-07
-8.77336e-09
3.18125e-06
1.16802e-06
-1.8519e-08
3.07906e-06
1.82005e-06
-2.68328e-08
2.95588e-06
2.42359e-06
-3.31712e-08
2.81159e-06
2.99448e-06
-3.6819e-08
2.64295e-06
3.55876e-06
-3.67683e-08
2.44265e-06
4.15187e-06
-3.18117e-08
2.19982e-06
4.81526e-06
-2.09357e-08
1.90326e-06
5.58449e-06
-3.94723e-09
1.55128e-06
6.45827e-06
1.49882e-08
1.15847e-06
7.34074e-06
3.19813e-08
7.58855e-07
7.98372e-06
4.09733e-08
3.9073e-07
8.07879e-06
3.85002e-08
1.14814e-07
7.03811e-06
2.58195e-08
3.57165e-06
7.82247e-09
7.61465e-08
-1.82781e-06
1.58789e-08
2.53414e-07
-4.4944e-06
4.14589e-08
4.86846e-07
-6.26679e-06
6.12632e-08
7.43219e-07
-7.32086e-06
7.58073e-08
1.00352e-06
-7.856e-06
8.54992e-08
1.26079e-06
-8.08283e-06
9.10486e-08
1.51244e-06
-8.12854e-06
9.3373e-08
1.75622e-06
-8.04522e-06
9.33812e-08
1.98922e-06
-7.85086e-06
9.17471e-08
2.20797e-06
-7.54987e-06
8.88965e-08
2.4088e-06
-7.14169e-06
8.50269e-08
2.58843e-06
-6.62663e-06
8.02164e-08
2.74437e-06
-6.01035e-06
7.45254e-08
2.87508e-06
-5.30508e-06
6.79857e-08
2.97978e-06
-4.52826e-06
6.06132e-08
3.05822e-06
-3.70019e-06
5.24376e-08
3.11038e-06
-2.84198e-06
4.3536e-08
3.13634e-06
-1.97415e-06
3.40498e-08
3.13628e-06
-1.1156e-06
2.4158e-08
3.11054e-06
-2.83162e-07
1.41035e-08
3.05988e-06
5.08262e-07
4.29218e-09
2.98593e-06
1.24736e-06
-5.35872e-09
2.89031e-06
1.92998e-06
-1.42814e-08
2.77389e-06
2.56182e-06
-2.17696e-08
2.63612e-06
3.15955e-06
-2.72738e-08
2.47396e-06
3.75087e-06
-2.99248e-08
2.28103e-06
4.37336e-06
-2.85579e-08
2.04813e-06
5.07011e-06
-2.19636e-08
1.76629e-06
5.87584e-06
-9.58321e-09
1.43421e-06
6.78359e-06
6.62515e-09
1.06699e-06
7.68586e-06
2.18493e-08
6.95754e-07
8.32327e-06
3.12412e-08
3.55457e-07
8.3876e-06
3.07645e-08
1.03149e-07
7.26833e-06
2.09216e-08
3.66667e-06
6.21874e-09
7.25285e-08
-1.9169e-06
1.65818e-08
2.4309e-07
-4.70767e-06
4.27372e-08
4.67734e-07
-6.55401e-06
6.25974e-08
7.1348e-07
-7.64357e-06
7.69809e-08
9.61999e-07
-8.19101e-06
8.65115e-08
1.20683e-06
-8.41967e-06
9.20231e-08
1.44556e-06
-8.46172e-06
9.44765e-08
1.67595e-06
-8.37036e-06
9.47753e-08
1.89522e-06
-8.16368e-06
9.35733e-08
2.10009e-06
-7.846e-06
9.12827e-08
2.28728e-06
-7.41695e-06
8.81024e-08
2.45401e-06
-6.87744e-06
8.41138e-08
2.59831e-06
-6.23399e-06
7.93691e-08
2.71909e-06
-5.49971e-06
7.3881e-08
2.8159e-06
-4.69267e-06
6.76338e-08
2.88864e-06
-3.8335e-06
6.06105e-08
2.93734e-06
-2.94346e-06
5.28269e-08
2.962e-06
-2.04313e-06
4.43546e-08
2.96265e-06
-1.15152e-06
3.53121e-08
2.93943e-06
-2.85791e-07
2.58816e-08
2.89284e-06
5.38564e-07
1.6327e-08
2.82374e-06
1.3095e-06
6.99278e-09
2.73302e-06
2.02249e-06
-1.73994e-09
2.6216e-06
2.68336e-06
-1.00794e-08
2.48846e-06
3.30953e-06
-1.68095e-08
2.33065e-06
3.93007e-06
-2.13666e-08
2.1426e-06
4.58416e-06
-2.27339e-08
1.9167e-06
5.3157e-06
-1.97007e-08
1.64609e-06
6.15783e-06
-1.14311e-08
1.33052e-06
7.09747e-06
1.57018e-09
9.85799e-07
8.01613e-06
1.4204e-08
6.40276e-07
8.64528e-06
2.30968e-08
3.2535e-07
8.67792e-06
2.39074e-08
9.37951e-08
7.48226e-06
1.64877e-08
3.75381e-06
4.79632e-09
7.23644e-08
-2.00616e-06
1.69199e-08
2.38634e-07
-4.91709e-06
4.31669e-08
4.54548e-07
-6.83266e-06
6.27613e-08
6.88266e-07
-7.95405e-06
7.67857e-08
9.22873e-07
-8.51165e-06
8.60431e-08
1.15289e-06
-8.74112e-06
9.14401e-08
1.37634e-06
-8.77911e-06
9.39537e-08
1.59121e-06
-8.67969e-06
9.44783e-08
1.79489e-06
-8.46099e-06
9.36505e-08
1.98437e-06
-8.12733e-06
9.18727e-08
2.15674e-06
-7.67865e-06
8.93493e-08
2.30969e-06
-7.11652e-06
8.61655e-08
2.44175e-06
-6.44838e-06
8.23676e-08
2.55225e-06
-5.68814e-06
7.79501e-08
2.64109e-06
-4.85434e-06
7.28635e-08
2.70835e-06
-3.96776e-06
6.7041e-08
2.7541e-06
-3.04961e-06
6.04337e-08
2.77825e-06
-2.12028e-06
5.30419e-08
2.78059e-06
-1.19876e-06
4.49226e-08
2.76094e-06
-3.02316e-07
3.62084e-08
2.71938e-06
5.5304e-07
2.71194e-08
2.65634e-06
1.35465e-06
1.79372e-08
2.57227e-06
2.09759e-06
8.99712e-09
2.46693e-06
2.78787e-06
8.64758e-10
2.3397e-06
3.44362e-06
-6.82705e-09
2.18748e-06
4.09504e-06
-1.27183e-08
2.00531e-06
4.78244e-06
-1.60912e-08
1.78695e-06
5.54992e-06
-1.58587e-08
1.52752e-06
6.4283e-06
-1.1078e-08
1.22856e-06
7.39802e-06
-1.6886e-09
9.05766e-07
8.33018e-06
8.54017e-09
5.85412e-07
8.94888e-06
1.63666e-08
2.95498e-07
8.94928e-06
1.78986e-08
8.44466e-08
7.67972e-06
1.2502e-08
3.83291e-06
3.52052e-09
6.91023e-08
-2.09267e-06
1.74332e-08
2.28598e-07
-5.1204e-06
4.38417e-08
4.35402e-07
-7.10259e-06
6.31403e-08
6.58313e-07
-8.2537e-06
7.67515e-08
8.81186e-07
-8.8202e-06
8.5698e-08
1.099e-06
-9.04989e-06
9.09767e-08
1.30993e-06
-9.08359e-06
9.35646e-08
1.51203e-06
-8.97609e-06
9.43244e-08
1.70282e-06
-8.74561e-06
9.38632e-08
1.87955e-06
-8.3966e-06
9.25693e-08
2.0397e-06
-7.92941e-06
9.06509e-08
2.18139e-06
-7.34638e-06
8.8197e-08
2.30364e-06
-6.65584e-06
8.52475e-08
2.40616e-06
-5.87241e-06
8.17866e-08
2.48909e-06
-5.01498e-06
7.77474e-08
2.55266e-06
-4.10433e-06
7.30311e-08
2.59692e-06
-3.16137e-06
6.75404e-08
2.62163e-06
-2.20617e-06
6.1213e-08
2.6263e-06
-1.25742e-06
5.40403e-08
2.61035e-06
-3.32429e-07
4.60932e-08
2.57341e-06
5.52475e-07
3.75405e-08
2.51544e-06
1.38402e-06
2.8632e-08
2.43651e-06
2.15688e-06
1.96718e-08
2.33631e-06
2.87711e-06
1.10047e-08
2.21343e-06
3.56346e-06
3.08129e-09
2.06517e-06
4.24708e-06
-3.73866e-09
1.88725e-06
4.96909e-06
-8.70587e-09
1.67467e-06
5.77325e-06
-1.07356e-08
1.42436e-06
6.68751e-06
-8.91379e-09
1.13975e-06
7.68556e-06
-2.9992e-09
8.36276e-07
8.62867e-06
4.81425e-09
5.38297e-07
9.23529e-06
1.12201e-08
2.70516e-07
9.20345e-06
1.30012e-08
7.69989e-08
7.86298e-06
9.20792e-09
3.90563e-06
2.51403e-09
6.78301e-08
-2.17816e-06
1.76962e-08
2.22166e-07
-5.31865e-06
4.39308e-08
4.20345e-07
-7.36347e-06
6.27207e-08
6.32237e-07
-8.54137e-06
7.57954e-08
8.42834e-07
-9.11514e-06
8.43586e-08
1.04782e-06
-9.34432e-06
8.94636e-08
1.24563e-06
-9.37346e-06
9.20795e-08
1.43448e-06
-9.25795e-06
9.30388e-08
1.61207e-06
-9.01609e-06
9.292e-08
1.77589e-06
-8.65249e-06
9.20961e-08
1.92378e-06
-8.16804e-06
9.0777e-08
2.05428e-06
-7.5659e-06
8.9055e-08
2.1668e-06
-6.85529e-06
8.69637e-08
2.26143e-06
-6.05148e-06
8.44748e-08
2.33861e-06
-5.17362e-06
8.15001e-08
2.39876e-06
-4.24235e-06
7.79101e-08
2.44199e-06
-3.27812e-06
7.35634e-08
2.46793e-06
-2.30042e-06
6.83399e-08
2.47582e-06
-1.32744e-06
6.21676e-08
2.46463e-06
-3.76263e-07
5.50555e-08
2.43342e-06
5.36603e-07
4.71195e-08
2.38154e-06
1.39735e-06
3.85784e-08
2.30858e-06
2.20015e-06
2.97266e-08
2.21387e-06
2.95095e-06
2.08985e-08
2.09596e-06
3.66894e-06
1.24676e-08
1.9522e-06
4.38598e-06
4.90417e-09
1.77877e-06
5.14367e-06
-1.10531e-09
1.57199e-06
5.98505e-06
-4.98268e-09
1.33037e-06
6.93474e-06
-5.6056e-09
1.05892e-06
7.9596e-06
-2.62374e-09
7.73239e-07
8.91154e-06
2.67884e-09
4.95703e-07
9.50501e-06
7.52615e-09
2.48067e-07
9.44132e-06
9.21135e-09
7.03309e-08
8.0331e-06
6.62679e-09
3.97248e-06
1.76708e-09
6.49606e-08
-2.2611e-06
1.79982e-08
2.13114e-07
-5.51079e-06
4.40117e-08
4.02943e-07
-7.6155e-06
6.22199e-08
6.05046e-07
-8.81815e-06
7.46956e-08
8.05149e-07
-9.39807e-06
8.28416e-08
9.99324e-07
-9.62624e-06
8.77628e-08
1.18614e-06
-9.65065e-06
9.03996e-08
1.36386e-06
-9.52719e-06
9.154e-08
1.53035e-06
-9.27428e-06
9.17304e-08
1.68335e-06
-8.89678e-06
9.13284e-08
1.821e-06
-8.39619e-06
9.05464e-08
1.94218e-06
-7.77654e-06
8.9481e-08
2.04666e-06
-7.0479e-06
8.81638e-08
2.13483e-06
-6.22617e-06
8.65625e-08
2.20738e-06
-5.33072e-06
8.458e-08
2.26492e-06
-4.38191e-06
8.20677e-08
2.30761e-06
-3.39962e-06
7.88495e-08
2.33502e-06
-2.40255e-06
7.47536e-08
2.34614e-06
-1.40817e-06
6.96425e-08
2.33954e-06
-4.33085e-07
6.34525e-08
2.3137e-06
5.06245e-07
5.62312e-08
2.26738e-06
1.39556e-06
4.81511e-08
2.19965e-06
2.22842e-06
3.94907e-08
2.10955e-06
3.0105e-06
3.05889e-08
1.99555e-06
3.76116e-06
2.18184e-08
1.85525e-06
4.51272e-06
1.36047e-08
1.68552e-06
5.30696e-06
6.49247e-09
1.48354e-06
6.18586e-06
1.21481e-09
1.2493e-06
7.17044e-06
-1.41196e-09
9.89195e-07
8.22063e-06
-9.31071e-10
7.1909e-07
9.17963e-06
1.93161e-09
4.59386e-07
9.75925e-06
5.21361e-09
2.29225e-07
9.66442e-06
6.54759e-09
6.48839e-08
8.19169e-06
4.79988e-09
4.0344e-06
1.29873e-09
6.33797e-08
-2.34255e-06
1.81072e-08
2.06695e-07
-5.69772e-06
4.3639e-08
3.89077e-07
-7.85896e-06
6.10992e-08
5.81983e-07
-9.08391e-06
7.28811e-08
7.72007e-07
-9.66863e-06
8.05608e-08
9.55715e-07
-9.8952e-06
8.52707e-08
1.13186e-06
-9.91468e-06
8.7912e-08
1.29882e-06
-9.78336e-06
8.92239e-08
1.45462e-06
-9.51976e-06
8.97171e-08
1.59721e-06
-9.12907e-06
8.97317e-08
1.725e-06
-8.61343e-06
8.94789e-08
1.8372e-06
-7.97776e-06
8.90581e-08
1.93387e-06
-7.23302e-06
8.84968e-08
2.01569e-06
-6.39571e-06
8.77577e-08
2.08365e-06
-5.48537e-06
8.67359e-08
2.13857e-06
-4.52207e-06
8.52691e-08
2.18077e-06
-3.52495e-06
8.31566e-08
2.20983e-06
-2.51176e-06
8.01868e-08
2.22452e-06
-1.499e-06
7.61667e-08
2.22302e-06
-5.02514e-07
7.09639e-08
2.20317e-06
4.6157e-07
6.45529e-08
2.16304e-06
1.37868e-06
5.70468e-08
2.10111e-06
2.24169e-06
4.86927e-08
2.01604e-06
3.05578e-06
3.98266e-08
1.90622e-06
3.8402e-06
3.08275e-08
1.76948e-06
4.62741e-06
2.21126e-08
1.60326e-06
5.45906e-06
1.41837e-08
1.40578e-06
6.37573e-06
7.6808e-09
1.1783e-06
7.39464e-06
3.33566e-09
9.28413e-07
8.46888e-06
1.67599e-09
6.7209e-07
9.4335e-06
2.40597e-09
4.28036e-07
9.99896e-06
4.13672e-09
2.13114e-07
9.87394e-06
4.94149e-09
6.02742e-08
8.33992e-06
3.71448e-09
4.09192e-06
1.12683e-09
6.10919e-08
-2.4218e-06
1.81856e-08
1.99343e-07
-5.87909e-06
4.31357e-08
3.74811e-07
-8.09416e-06
5.97602e-08
5.59582e-07
-9.33945e-06
7.07871e-08
7.40877e-07
-9.92787e-06
7.79655e-08
9.15595e-07
-1.01523e-05
8.24412e-08
1.0826e-06
-1.01667e-05
8.5062e-08
1.24037e-06
-1.00276e-05
8.65127e-08
1.38703e-06
-9.75366e-06
8.72682e-08
1.52074e-06
-9.35039e-06
8.7651e-08
1.64012e-06
-8.82064e-06
8.78718e-08
1.74461e-06
-8.17024e-06
8.80336e-08
1.83451e-06
-7.41103e-06
8.81629e-08
1.91075e-06
-6.56014e-06
8.8222e-08
1.97457e-06
-5.63725e-06
8.81043e-08
2.02702e-06
-4.66212e-06
8.76402e-08
2.06861e-06
-3.6531e-06
8.66118e-08
2.09897e-06
-2.62686e-06
8.47742e-08
2.1168e-06
-1.59868e-06
8.18831e-08
2.11994e-06
-5.83357e-07
7.77376e-08
2.10567e-06
4.03631e-07
7.22328e-08
2.07138e-06
1.3476e-06
6.54095e-08
2.01494e-06
2.24069e-06
5.74698e-08
1.93462e-06
3.08741e-06
4.87367e-08
1.82869e-06
3.90659e-06
3.95966e-08
1.69518e-06
4.7305e-06
3.04718e-08
1.53213e-06
5.60034e-06
2.18449e-08
1.33866e-06
6.55499e-06
1.43045e-08
1.11717e-06
7.60769e-06
8.52722e-09
8.76203e-07
8.70483e-06
5.07661e-09
6.31832e-07
9.67391e-06
3.95218e-09
4.01292e-07
1.02251e-05
4.19376e-09
1.99479e-07
1.0071e-05
4.33123e-09
5.64229e-08
8.4788e-06
3.3158e-09
4.14554e-06
1.21062e-09
5.95979e-08
-2.49947e-06
1.80996e-08
1.93782e-07
-6.05549e-06
4.2244e-08
3.63253e-07
-8.3215e-06
5.78893e-08
5.40735e-07
-9.58499e-06
6.80829e-08
7.14074e-07
-1.01759e-05
7.47279e-08
8.80513e-07
-1.03977e-05
7.89614e-08
1.03907e-06
-1.04068e-05
8.15628e-08
1.18833e-06
-1.026e-05
8.3155e-08
1.32655e-06
-9.97602e-06
8.41733e-08
1.45203e-06
-9.56075e-06
8.49201e-08
1.56355e-06
-9.01773e-06
8.5603e-08
1.66076e-06
-8.35373e-06
8.63269e-08
1.74417e-06
-7.58152e-06
8.71157e-08
1.81498e-06
-6.71884e-06
8.79308e-08
1.87466e-06
-5.78556e-06
8.86656e-08
1.92454e-06
-4.8011e-06
8.91486e-08
1.96534e-06
-3.78302e-06
8.91539e-08
1.99685e-06
-2.74675e-06
8.84162e-08
2.01771e-06
-1.70617e-06
8.66535e-08
2.02549e-06
-6.74718e-07
8.3605e-08
2.01695e-06
3.33115e-07
7.90875e-08
1.98874e-06
1.30278e-06
7.30602e-08
1.93807e-06
2.22572e-06
6.56629e-08
1.86273e-06
3.1056e-06
5.71899e-08
1.76083e-06
3.9605e-06
4.80272e-08
1.63061e-06
4.82218e-06
3.86073e-08
1.47062e-06
5.731e-06
2.94105e-08
1.28083e-06
6.72388e-06
2.09991e-08
1.06465e-06
7.80997e-06
1.4014e-08
8.31472e-07
8.92906e-06
9.03737e-09
5.9743e-07
9.90173e-06
6.24689e-09
3.78483e-07
1.04389e-05
5.05522e-09
1.87916e-07
1.02568e-05
4.40367e-09
5.31942e-08
8.60935e-06
3.33946e-09
4.19575e-06
1.42784e-09
5.79116e-08
-2.57529e-06
1.79373e-08
1.88209e-07
-6.22691e-06
4.11448e-08
3.52303e-07
-8.54129e-06
5.57197e-08
5.23426e-07
-9.82112e-06
6.50239e-08
6.89881e-07
-1.04134e-05
7.10999e-08
8.49134e-07
-1.0632e-05
7.50588e-08
1.00037e-06
-1.06356e-05
7.76048e-08
1.14231e-06
-1.04812e-05
7.92986e-08
1.27329e-06
-1.01875e-05
8.0537e-08
1.39166e-06
-9.76068e-06
8.16023e-08
1.49634e-06
-9.20507e-06
8.26996e-08
1.58711e-06
-8.52839e-06
8.39364e-08
1.66466e-06
-7.74436e-06
8.5336e-08
1.73039e-06
-6.87138e-06
8.68608e-08
1.786e-06
-5.92953e-06
8.84058e-08
1.83306e-06
-4.93792e-06
8.98004e-08
1.87257e-06
-3.9133e-06
9.08142e-08
1.90452e-06
-2.86983e-06
9.1167e-08
1.92765e-06
-1.81981e-06
9.05452e-08
1.93938e-06
-7.75052e-07
8.86344e-08
1.93602e-06
2.51325e-07
8.5175e-08
1.91357e-06
1.24522e-06
8.00393e-08
1.86853e-06
2.1975e-06
7.32939e-08
1.79817e-06
3.11081e-06
6.51924e-08
1.70036e-06
4.00225e-06
5.61135e-08
1.57345e-06
4.90266e-06
4.65016e-08
1.41647e-06
5.85123e-06
3.68474e-08
1.23013e-06
6.88263e-06
2.77067e-08
1.01875e-06
8.00177e-06
1.97032e-08
7.92447e-07
9.14205e-06
1.34343e-08
5.67407e-07
1.01176e-05
9.20004e-09
3.58579e-07
1.0641e-05
6.67855e-09
1.77791e-07
1.0432e-05
5.16563e-09
5.03422e-08
8.73216e-06
3.84173e-09
4.24274e-06
1.81827e-09
5.66476e-08
-2.64954e-06
1.76267e-08
1.83665e-07
-6.39361e-06
3.97029e-08
3.43074e-07
-8.75376e-06
5.30889e-08
5.0864e-07
-1.00481e-05
6.14456e-08
6.69085e-07
-1.06408e-05
6.69361e-08
8.22165e-07
-1.08557e-05
7.06212e-08
9.67081e-07
-1.08536e-05
7.31124e-08
1.10258e-06
-1.06916e-05
7.49022e-08
1.22712e-06
-1.03883e-05
7.63482e-08
1.33912e-06
-9.95034e-06
7.77128e-08
1.43758e-06
-9.38268e-06
7.91974e-08
1.52241e-06
-8.69409e-06
8.09109e-08
1.59448e-06
-7.89926e-06
8.28755e-08
1.65536e-06
-7.01727e-06
8.50545e-08
1.70696e-06
-6.06843e-06
8.73469e-08
1.7511e-06
-5.07161e-06
8.95872e-08
1.78902e-06
-4.04274e-06
9.15482e-08
1.82098e-06
-2.9947e-06
9.29449e-08
1.84587e-06
-1.93811e-06
9.34436e-08
1.86107e-06
-8.82905e-07
9.26864e-08
1.86254e-06
1.59531e-07
9.03426e-08
1.84567e-06
1.17592e-06
8.61939e-08
1.80625e-06
2.15673e-06
8.02204e-08
1.74093e-06
3.10354e-06
7.26187e-08
1.64729e-06
4.0322e-06
6.37481e-08
1.52372e-06
4.97225e-06
5.40616e-08
1.36966e-06
5.96133e-06
4.40675e-08
1.18652e-06
7.03157e-06
3.43322e-08
9.79421e-07
8.18353e-06
2.548e-08
7.59111e-07
9.34437e-06
1.81263e-08
5.41839e-07
1.03223e-05
1.26567e-08
3.41759e-07
1.0832e-05
8.93262e-09
1.69357e-07
1.05976e-05
6.52764e-09
4.80035e-08
8.84797e-06
4.76276e-09
4.28688e-06
2.35191e-09
5.53803e-08
-2.72211e-06
1.72218e-08
1.79391e-07
-6.55562e-06
3.80314e-08
3.34638e-07
-8.95913e-06
5.0146e-08
4.95398e-07