/*--------------------------------*- C++ -*----------------------------------*\
| =========                 |                                                 |
| \\      /  F ield         | OpenFOAM: The Open Source CFD Toolbox           |
|  \\    /   O peration     | Version:  v2006                                 |
|   \\  /    A nd           | Website:  www.openfoam.com                      |
|    \\/     M anipulation  |                                                 |
\*---------------------------------------------------------------------------*/
FoamFile
{
    version     2.0;
    format      ascii;
    class       volVectorField;
    location    "73";
    object      U;
}
// * * * * * * * * * * * * * * * * * * * * * * * * * * * * * * * * * * * * * //

dimensions      [0 1 -1 0 0 0 0];


internalField   nonuniform List<vector> 
78750
(
(4.1144e-05 -0.000726397 0.00164154)
(0.000271024 -0.00165286 0.00425651)
(0.000632353 -0.00254366 0.00597062)
(0.0011838 -0.00353704 0.00690182)
(0.00196267 -0.00459128 0.00729383)
(0.00298137 -0.00561628 0.00737541)
(0.00422365 -0.00653335 0.0073028)
(0.005654 -0.00729154 0.00716422)
(0.00722761 -0.00786534 0.00700318)
(0.00889684 -0.00824709 0.0068387)
(0.0106147 -0.00843997 0.00667768)
(0.0123366 -0.00845308 0.00652146)
(0.0140208 -0.0082979 0.00636913)
(0.0156287 -0.00798483 0.00622014)
(0.0171258 -0.00752926 0.00607272)
(0.0184805 -0.00694701 0.00592564)
(0.0196651 -0.00625358 0.00577838)
(0.0206552 -0.005464 0.00563103)
(0.02143 -0.00459345 0.00548421)
(0.0219726 -0.00365778 0.00533906)
(0.0222706 -0.00267372 0.00519717)
(0.0223168 -0.00165868 0.00506039)
(0.0221102 -0.000630654 0.00493069)
(0.0216467 0.000388473 0.00481177)
(0.0209193 0.00138353 0.00470601)
(0.0199397 0.00234116 0.00461638)
(0.0187259 0.00324941 0.00454533)
(0.0172952 0.00409518 0.00449399)
(0.0156645 0.00487047 0.00446255)
(0.0138469 0.00558137 0.00444914)
(0.0118374 0.00630315 0.00444146)
(0.00956438 0.00731053 0.00437766)
(0.00685256 0.00895698 0.00405141)
(0.00373329 0.0103867 0.00308238)
(0.000903459 0.00743744 0.00124502)
(1.17164e-05 -0.00236509 0.00126992)
(0.000380492 -0.00561485 0.00306314)
(0.00102456 -0.00841134 0.00409847)
(0.00192828 -0.0111584 0.00463369)
(0.00305141 -0.0138212 0.00485902)
(0.00433717 -0.0162309 0.00490461)
(0.0057286 -0.0182439 0.00485416)
(0.00717634 -0.0197846 0.00475647)
(0.00863906 -0.0208313 0.00463757)
(0.0100824 -0.0213936 0.00451058)
(0.0114787 -0.0214949 0.00438179)
(0.0128035 -0.0211657 0.00425316)
(0.0140318 -0.0204454 0.00412128)
(0.01515 -0.0193688 0.003987)
(0.0161448 -0.0179621 0.00385345)
(0.016997 -0.0162571 0.00372014)
(0.0176942 -0.0142857 0.00358713)
(0.0182247 -0.0120801 0.00345508)
(0.0185787 -0.00967637 0.00332432)
(0.0187456 -0.00711476 0.00319489)
(0.0187163 -0.00443999 0.00306707)
(0.0184826 -0.00170056 0.00294195)
(0.0180386 0.00105233 0.00282248)
(0.017397 0.00376288 0.00271484)
(0.0165734 0.0063795 0.00262504)
(0.0155747 0.00885682 0.00256046)
(0.01442 0.0111549 0.00252581)
(0.0131241 0.0132677 0.00252938)
(0.0116917 0.0152391 0.00258144)
(0.0101286 0.017207 0.00268285)
(0.00840313 0.0195274 0.00282237)
(0.00643075 0.0227665 0.00293345)
(0.00421633 0.0267546 0.00281158)
(0.00199688 0.028286 0.00215838)
(0.000221352 0.0184204 0.000850925)
(4.30059e-06 -0.00424358 0.00119945)
(0.000500471 -0.0108925 0.00281114)
(0.00141057 -0.016434 0.00374253)
(0.00264428 -0.0211898 0.00424393)
(0.00407503 -0.0251221 0.00449437)
(0.00558782 -0.028154 0.00460756)
(0.00709733 -0.0302842 0.00464989)
(0.00855081 -0.0315825 0.00465601)
(0.00991892 -0.0321475 0.00464098)
(0.0111848 -0.0320769 0.0046096)
(0.0123332 -0.031456 0.00456204)
(0.0133628 -0.0303493 0.00450263)
(0.0142708 -0.0287968 0.00443779)
(0.0150465 -0.0268376 0.00436817)
(0.0156854 -0.0245085 0.00429317)
(0.0161832 -0.0218486 0.00421145)
(0.0165352 -0.0189019 0.00412113)
(0.0167398 -0.0156933 0.00402744)
(0.0167952 -0.0122362 0.00393804)
(0.0166987 -0.00856382 0.0038533)
(0.016451 -0.00472276 0.00376941)
(0.0160564 -0.00077397 0.0036787)
(0.0155131 0.00320826 0.00357127)
(0.0148163 0.00713967 0.00343799)
(0.0139743 0.0109262 0.00327422)
(0.0129996 0.0144805 0.00308328)
(0.0119064 0.0177471 0.00287834)
(0.0107101 0.0207338 0.00268128)
(0.00942025 0.0235509 0.00251775)
(0.00803025 0.0264807 0.00241243)
(0.00649902 0.0300247 0.0023747)
(0.00476768 0.0345709 0.0023531)
(0.00298459 0.0389353 0.00218486)
(0.00133117 0.0387842 0.00164926)
(0.000136652 0.0234099 0.000653373)
(3.82882e-05 -0.00685156 0.00110703)
(0.000620222 -0.0179266 0.00243079)
(0.0015934 -0.0267045 0.003067)
(0.0028204 -0.0334293 0.0033172)
(0.00414685 -0.0381983 0.00337803)
(0.00546246 -0.0412568 0.0033578)
(0.00671174 -0.0429508 0.00330893)
(0.00787848 -0.0435929 0.0032538)
(0.00895864 -0.0434079 0.00319703)
(0.00994869 -0.0425465 0.00313626)
(0.0108495 -0.0411053 0.00307225)
(0.0116572 -0.0391516 0.00300464)
(0.012362 -0.0367423 0.00293324)
(0.0129614 -0.0339141 0.0028612)
(0.0134491 -0.0306914 0.00279534)
(0.0138152 -0.0271063 0.00274215)
(0.0140525 -0.0231975 0.00270858)
(0.0141575 -0.0190094 0.00270139)
(0.0141302 -0.0145882 0.00272751)
(0.0139749 -0.00997883 0.00279235)
(0.0136971 -0.00522508 0.00289678)
(0.0132988 -0.000372886 0.00303425)
(0.0127901 0.00451855 0.00318839)
(0.0121806 0.00937168 0.00333109)
(0.0114707 0.0140901 0.00342818)
(0.0106609 0.0185705 0.00344933)
(0.00975495 0.0227388 0.00337977)
(0.00875763 0.0266062 0.00322728)
(0.00766879 0.0303361 0.00302005)
(0.0064737 0.0343024 0.00279652)
(0.00513786 0.0390234 0.00258639)
(0.00363576 0.0445218 0.00237513)
(0.00219131 0.048724 0.00207669)
(0.00092761 0.0468181 0.00153007)
(6.44616e-05 0.0269228 0.00062004)
(4.21961e-05 -0.00910013 0.000827941)
(0.000567129 -0.0233493 0.00172052)
(0.00139307 -0.033968 0.00211745)
(0.00238245 -0.0413815 0.00228343)
(0.00340025 -0.0460314 0.00235079)
(0.00437483 -0.0486047 0.00237376)
(0.00528776 -0.0497494 0.00237253)
(0.00614841 -0.0498899 0.00235574)
(0.00696845 -0.0492417 0.00232481)
(0.00774457 -0.0479128 0.0022778)
(0.00846745 -0.0459827 0.00221248)
(0.00912851 -0.0435193 0.00212487)
(0.00972109 -0.0405535 0.00201665)
(0.0102342 -0.0370929 0.00189332)
(0.0106495 -0.033174 0.00176111)
(0.0109562 -0.0288517 0.00162913)
(0.0111484 -0.0241969 0.00150936)
(0.0112256 -0.0192875 0.00141632)
(0.0111915 -0.0141992 0.00136675)
(0.0110535 -0.00899652 0.00137811)
(0.0108204 -0.00372869 0.00146635)
(0.0105016 0.00156778 0.00164194)
(0.0101055 0.0068596 0.00190371)
(0.00963812 0.0121021 0.0022321)
(0.00910144 0.0172327 0.00258618)
(0.00849371 0.0221785 0.00290971)
(0.0078106 0.0268932 0.0031472)
(0.00704501 0.0314226 0.00326254)
(0.00618429 0.0359754 0.00324743)
(0.00520668 0.0409424 0.00311513)
(0.00408449 0.0466903 0.00288669)
(0.0028248 0.0527189 0.00257521)
(0.00166196 0.0563631 0.00217225)
(0.000677727 0.0527088 0.00156864)
(3.388e-05 0.029201 0.000628189)
(4.13423e-05 -0.0113074 0.000622693)
(0.000484151 -0.0286038 0.00131237)
(0.00115751 -0.0409654 0.00165809)
(0.00195386 -0.0491119 0.0018357)
(0.00276764 -0.0538665 0.00192121)
(0.00355067 -0.0562901 0.0019509)
(0.00429882 -0.05722 0.00194427)
(0.00502546 -0.0571142 0.0019111)
(0.0057338 -0.0561732 0.00185363)
(0.00640684 -0.0545116 0.00177496)
(0.00704127 -0.0521942 0.00167613)
(0.00763335 -0.0492287 0.00155814)
(0.00816496 -0.0456345 0.00142016)
(0.00861883 -0.0414493 0.00126523)
(0.00898234 -0.0367404 0.00109818)
(0.00924736 -0.031605 0.000925565)
(0.00941073 -0.0261595 0.000756164)
(0.00947362 -0.0205199 0.000601549)
(0.00944165 -0.0147881 0.000476264)
(0.00932408 -0.00904316 0.000398352)
(0.00913087 -0.00333757 0.000388736)
(0.00887163 0.00230042 0.000468868)
(0.008555 0.00785736 0.000655554)
(0.00818689 0.0133234 0.000953146)
(0.00776906 0.0186836 0.00134506)
(0.00729735 0.0239215 0.00179007)
(0.00676127 0.0290489 0.00222877)
(0.0061446 0.0341662 0.00259962)
(0.00542589 0.0395237 0.00285324)
(0.00458029 0.0454982 0.00295459)
(0.00358744 0.0522638 0.0028803)
(0.00247863 0.0588325 0.00262568)
(0.0014704 0.0621519 0.00221086)
(0.000614865 0.0571999 0.00157559)
(4.47609e-05 0.03095 0.000601539)
(3.85546e-05 -0.0129125 0.000445538)
(0.000400508 -0.0322224 0.00095911)
(0.000946299 -0.0456089 0.00124992)
(0.00159369 -0.0540969 0.00142523)
(0.00225756 -0.0588175 0.0015235)
(0.00290138 -0.0610834 0.00156749)
(0.00352574 -0.0618272 0.00157341)
(0.00414249 -0.0615081 0.00155036)
(0.00474503 -0.0603163 0.00150448)
(0.00532157 -0.0583515 0.00143592)
(0.00587068 -0.0556418 0.00134244)
(0.00638053 -0.0521906 0.00122524)
(0.00683779 -0.0480142 0.00108594)
(0.00723018 -0.0431657 0.00092669)
(0.00754746 -0.0377447 0.000750656)
(0.00778253 -0.031888 0.00056248)
(0.00793224 -0.0257481 0.000368877)
(0.0079978 -0.019475 0.000179572)
(0.00798339 -0.0131985 7.99435e-06)
(0.00789536 -0.00701641 -0.000128505)
(0.00774126 -0.000990333 -0.000208989)
(0.00753125 0.00485153 -0.000210548)
(0.00727562 0.0105082 -0.000111871)
(0.00698035 0.0160011 0.000101339)
(0.00664696 0.0213667 0.000429476)
(0.00627048 0.0266573 0.000852834)
(0.00583794 0.0319637 0.00133074)
(0.00532888 0.0374585 0.00180773)
(0.0047179 0.0434286 0.00222103)
(0.00397976 0.0501928 0.00250334)
(0.00310011 0.0576773 0.0025889)
(0.00213099 0.0644531 0.00243944)
(0.00125694 0.0673202 0.00207089)
(0.000518001 0.0611048 0.00145679)
(3.34022e-05 0.0325033 0.000526661)
(2.53263e-05 -0.0143848 0.000356342)
(0.000309989 -0.035705 0.000832041)
(0.000755824 -0.0502892 0.00115533)
(0.00130342 -0.0593722 0.00137508)
(0.00187782 -0.0643023 0.00150686)
(0.00244466 -0.0665995 0.00157266)
(0.0030063 -0.0672958 0.0015932)
(0.00356478 -0.0668735 0.00157912)
(0.00411333 -0.0655283 0.00153869)
(0.00464511 -0.0633337 0.00147261)
(0.0051518 -0.0603049 0.00138226)
(0.0056233 -0.0564397 0.00126914)
(0.00604855 -0.0517574 0.00113424)
(0.0064172 -0.0463266 0.000978364)
(0.00672112 -0.0402696 0.000802326)
(0.00695468 -0.0337486 0.000607513)
(0.00711488 -0.0269432 0.000396919)
(0.00720145 -0.0200293 0.000176689)
(0.00721643 -0.0131605 -4.26078e-05)
(0.00716447 -0.00645717 -0.000244924)
(0.00705293 -6.9268e-07 -0.000408717)
(0.00688887 0.00616824 -0.000508502)
(0.00667954 0.01205 -0.000517965)
(0.00643234 0.0176859 -0.000414986)
(0.00614967 0.0231542 -0.000187507)
(0.00582624 0.02857 0.00016092)
(0.00544852 0.0340998 0.000607638)
(0.00499516 0.0399886 0.0011102)
(0.00443949 0.0465601 0.00160605)
(0.00375712 0.0540768 0.00201113)
(0.00293669 0.0622428 0.00222842)
(0.00203943 0.0692695 0.00218583)
(0.00122441 0.0718523 0.00188474)
(0.000520181 0.0646139 0.00131928)
(4.52803e-05 0.033973 0.000460134)
(2.77632e-05 -0.0154699 0.000296891)
(0.000291742 -0.0382557 0.000736797)
(0.000705983 -0.0537199 0.00105854)
(0.00121357 -0.0632482 0.00128198)
(0.00174396 -0.0683421 0.00141559)
(0.00226609 -0.0706659 0.00148168)
(0.00278303 -0.0713179 0.00150211)
(0.00329603 -0.0707942 0.00148906)
(0.00379766 -0.069288 0.0014484)
(0.00428074 -0.0668635 0.00138396)
(0.00473838 -0.0635255 0.00129842)
(0.00516226 -0.0592677 0.00119354)
(0.00554339 -0.054116 0.00107042)
(0.00587379 -0.0481554 0.00092953)
(0.0061473 -0.0415284 0.00077096)
(0.00635958 -0.0344176 0.000594718)
(0.00650805 -0.0270221 0.000401395)
(0.00659195 -0.0195384 0.000193208)
(0.00661197 -0.0121402 -2.44295e-05)
(0.0065707 -0.00496728 -0.00024117)
(0.00647289 0.00187928 -0.000440452)
(0.00632554 0.00834187 -0.000599508)
(0.00613676 0.0144167 -0.000691471)
(0.00591333 0.0201603 -0.000689284)
(0.00565793 0.0256878 -0.000570998)
(0.0053662 0.0311721 -0.000325122)
(0.00502478 0.0368508 4.42624e-05)
(0.00461229 0.0430358 0.000512002)
(0.00410305 0.0500794 0.00102449)
(0.00347355 0.05818 0.00149289)
(0.0027135 0.0668343 0.00180108)
(0.00188948 0.0739643 0.00184982)
(0.00113643 0.0762244 0.00162423)
(0.000479751 0.0679897 0.0011312)
(3.90793e-05 0.0354324 0.000379348)
(1.88693e-05 -0.0166323 0.000294746)
(0.000251735 -0.0410917 0.000761548)
(0.000629014 -0.057615 0.00111576)
(0.00110077 -0.067708 0.00136374)
(0.00159848 -0.0730319 0.00151248)
(0.00209125 -0.0754179 0.00158798)
(0.00258153 -0.0760481 0.00161528)
(0.00306939 -0.0754418 0.00160825)
(0.00354648 -0.0737939 0.00157385)
(0.00400524 -0.0711634 0.00151616)
(0.00443873 -0.0675495 0.00143785)
(0.00483912 -0.0629437 0.00134057)
(0.00519849 -0.0573772 0.00122492)
(0.00551025 -0.0509449 0.00109073)
(0.00576972 -0.0438019 0.000937434)
(0.00597383 -0.0361435 0.000764606)
(0.00612052 -0.0281818 0.000572591)
(0.00620859 -0.0201259 0.000363108)
(0.00623836 -0.0121665 0.000140184)
(0.00621119 -0.00446258 -8.86143e-05)
(0.00613019 0.00286277 -0.000310729)
(0.00600037 0.00973104 -0.000507867)
(0.00582825 0.0161266 -0.000656663)
(0.00562013 0.0221102 -0.000731057)
(0.00537905 0.0278218 -0.000705939)
(0.00510189 0.0334789 -0.000561229)
(0.00477706 0.0393791 -0.00028698)
(0.00438438 0.0458933 0.000108457)
(0.00389999 0.0533998 0.00058567)
(0.00330265 0.0620416 0.00106146)
(0.00258229 0.0711396 0.0014132)
(0.00180717 0.0783777 0.00152431)
(0.00109316 0.0803671 0.0013662)
(0.000462804 0.071216 0.000951255)
(3.96791e-05 0.0368401 0.00031109)
(2.29961e-05 -0.0175893 0.000285743)
(0.000256587 -0.0434077 0.00075311)
(0.000628127 -0.0607908 0.00110826)
(0.00108514 -0.0713509 0.00135291)
(0.00156124 -0.0768756 0.00149685)
(0.00202872 -0.0793218 0.00156843)
(0.00249149 -0.0799347 0.00159315)
(0.00294991 -0.0792512 0.00158518)
(0.003396 -0.0774673 0.0015519)
(0.00382264 -0.0746374 0.00149799)
(0.00422338 -0.0707567 0.00142669)
(0.00459102 -0.0658187 0.00133998)
(0.00491863 -0.0598635 0.00123847)
(0.00520078 -0.0529995 0.00112145)
(0.00543399 -0.0453957 0.000987398)
(0.00561631 -0.0372593 0.000834665)
(0.00574666 -0.0288117 0.000662216)
(0.0058244 -0.0202703 0.000470256)
(0.00584953 -0.0118338 0.000260909)
(0.0058232 -0.00367253 3.92699e-05)
(0.00574795 0.00407383 -0.000185272)
(0.00562743 0.0113095 -0.00039792)
(0.00546663 0.0180082 -0.000578491)
(0.00527061 0.0242332 -0.000702858)
(0.00504191 0.0301429 -0.000745471)
(0.00477801 0.0359899 -0.000682155)
(0.00446898 0.0421186 -0.000494292)
(0.00409704 0.0489458 -0.000177569)
(0.00363992 0.0568661 0.000242533)
(0.00307787 0.0659646 0.000693606)
(0.00240206 0.0754042 0.00105588)
(0.00168146 0.0826738 0.00120546)
(0.00101459 0.0843605 0.00110461)
(0.000423631 0.0742942 0.000768415)
(3.36498e-05 0.0381736 0.000243195)
(1.86262e-05 -0.0186606 0.000306045)
(0.000241048 -0.0460234 0.000805427)
(0.000597312 -0.0643735 0.00117915)
(0.00103686 -0.0754331 0.00143118)
(0.0014939 -0.081151 0.0015766)
(0.00194172 -0.0836422 0.00164835)
(0.00238455 -0.0842249 0.00167383)
(0.00282239 -0.083455 0.00166783)
(0.00324705 -0.0815304 0.00163809)
(0.00365154 -0.0785028 0.00158948)
(0.00402964 -0.0743655 0.00152532)
(0.00437471 -0.0691138 0.00144742)
(0.00468067 -0.062795 0.00135585)
(0.00494309 -0.0555277 0.00124916)
(0.00515936 -0.047491 0.00112502)
(0.00532821 -0.0389007 0.000981138)
(0.00544908 -0.0299856 0.000816173)
(0.00552174 -0.0209695 0.000630392)
(0.00554622 -0.0120585 0.00042596)
(0.00552282 -0.00343216 0.000207348)
(0.00545329 0.00475685 -1.78315e-05)
(0.00534074 0.0123973 -0.000237867)
(0.00518892 0.0194523 -0.000436409)
(0.00500159 0.0259845 -0.000593028)
(0.0047806 0.0321647 -0.00068444)
(0.00452377 0.0382721 -0.000685981)
(0.00422266 0.044688 -0.000574743)
(0.00386207 0.0518639 -0.000337802)
(0.00342257 0.0602029 1.15703e-05)
(0.00288669 0.0697341 0.000414115)
(0.00224704 0.0794784 0.000759544)
(0.00157278 0.0867597 0.000924929)
(0.000947301 0.088145 0.000867762)
(0.000391536 0.0771905 0.000603661)
(3.05343e-05 0.0394109 0.000184988)
(2.1436e-05 -0.0196226 0.000312498)
(0.000244345 -0.0483332 0.000818547)
(0.000593428 -0.0675084 0.00118908)
(0.00101704 -0.0789913 0.00143255)
(0.00145218 -0.0848766 0.00156976)
(0.00187537 -0.0874093 0.00163605)
(0.00229203 -0.0879649 0.0016588)
(0.00270248 -0.0871138 0.00165271)
(0.00309897 -0.085055 0.00162574)
(0.00347493 -0.0818376 0.00158321)
(0.00382456 -0.0774546 0.00152887)
(0.00414183 -0.0719061 0.00146479)
(0.0044215 -0.0652499 0.00139086)
(0.00466006 -0.0576163 0.00130481)
(0.00485571 -0.049195 0.00120284)
(0.00500781 -0.0402088 0.00108077)
(0.00511625 -0.0308911 0.000935287)
(0.00518111 -0.0214691 0.000765136)
(0.00520263 -0.0121517 0.000571745)
(0.00518106 -0.00312412 0.000359526)
(0.00511723 0.00545182 0.000136029)
(0.00501308 0.0134547 -8.77114e-05)
(0.0048716 0.0208411 -0.000297117)
(0.00469542 0.0276742 -0.000474389)
(0.00448543 0.034135 -0.000598823)
(0.00423917 0.0405235 -0.000647237)
(0.00394908 0.0472477 -0.000595932)
(0.00360217 0.0547821 -0.000427691)
(0.00318221 0.063526 -0.000147129)
(0.00267422 0.0734479 0.000198889)
(0.00207269 0.083436 0.000512834)
(0.00144701 0.0906769 0.000678939)
(0.000866995 0.091733 0.000654024)
(0.00035245 0.0798955 0.000453994)
(2.55963e-05 0.0405457 0.000132584)
(1.88892e-05 -0.0206515 0.000332474)
(0.000234013 -0.0508031 0.000860355)
(0.000570278 -0.0708459 0.00123667)
(0.000977376 -0.0827504 0.00147667)
(0.00139346 -0.0887832 0.00160802)
(0.00179654 -0.0913394 0.0016699)
(0.00219246 -0.0918554 0.00169047)
(0.00258127 -0.0909151 0.00168455)
(0.00295537 -0.0887185 0.00166026)
(0.00330848 -0.0853134 0.00162318)
(0.00363525 -0.0806938 0.00157734)
(0.00393038 -0.0748651 0.0015249)
(0.00418952 -0.0678937 0.00146553)
(0.00441006 -0.0599198 0.00139644)
(0.00459088 -0.0511403 0.00131292)
(0.0047317 -0.0417832 0.00120954)
(0.00483257 -0.0320848 0.00108153)
(0.00489353 -0.0222747 0.000926095)
(0.00491461 -0.0125647 0.000743509)
(0.00489582 -0.00314454 0.000537575)
(0.00483758 0.00581599 0.000315664)
(0.00474099 0.0141869 8.84586e-05)
(0.00460777 0.0219197 -0.000130432)
(0.00443987 0.0290784 -0.000324812)
(0.00423782 0.0358529 -0.000476011)
(0.00399883 0.0425599 -0.000562653)
(0.00371598 0.0496285 -0.000561772)
(0.00337824 0.0575475 -0.000454467)
(0.00297248 0.0667034 -0.000239614)
(0.00248663 0.0770006 4.65736e-05)
(0.00191783 0.0872019 0.000320177)
(0.00133537 0.0943785 0.000476057)
(0.000796843 0.0950983 0.000473103)
(0.000319967 0.0824032 0.000327303)
(2.26612e-05 0.0415802 8.98021e-05)
(2.00664e-05 -0.0216137 0.000342825)
(0.000231991 -0.0530778 0.000875831)
(0.000557501 -0.0738895 0.00124446)
(0.000946618 -0.0861592 0.0014721)
(0.00134042 -0.0923182 0.00159303)
(0.0017197 -0.094893 0.0016484)
(0.00209098 -0.0953701 0.00166592)
(0.0024544 -0.0943439 0.00166007)
(0.00280274 -0.0920149 0.00163911)
(0.00313017 -0.0884306 0.00160903)
(0.00343181 -0.0835877 0.00157427)
(0.00370306 -0.0774989 0.00153731)
(0.00394045 -0.0702414 0.00149775)
(0.00414218 -0.0619648 0.00145221)
(0.00430778 -0.0528727 0.00139479)
(0.00443742 -0.0431955 0.0013183)
(0.00453133 -0.0331698 0.00121577)
(0.00458949 -0.0230243 0.00108217)
(0.00461166 -0.012971 0.000915854)
(0.00459736 -0.00320209 0.000719495)
(0.0045464 0.00610691 0.000500302)
(0.00445921 0.0148186 0.000269474)
(0.00433668 0.0228809 4.10915e-05)
(0.00417948 0.0303599 -0.000168847)
(0.00398739 0.0374538 -0.000342624)
(0.00375772 0.0444929 -0.000460531)
(0.00348398 0.0519213 -0.000501151)
(0.00315671 0.0602335 -0.000445661)
(0.00276561 0.0697945 -0.000289571)
(0.00230186 0.0804392 -6.05926e-05)
(0.00176544 0.0908117 0.000170326)
(0.00122483 0.0978897 0.000310246)
(0.000727176 0.0982591 0.000321803)
(0.000287954 0.0847274 0.000221275)
(1.94509e-05 0.0425243 5.49631e-05)
(1.81685e-05 -0.0225981 0.000358245)
(0.000222171 -0.0553995 0.000901267)
(0.00053449 -0.0769835 0.00126506)
(0.000906602 -0.0896043 0.00148187)
(0.00128122 -0.0958719 0.00159279)
(0.00164071 -0.0984532 0.00164147)
(0.0019918 -0.0988843 0.00165543)
(0.00233441 -0.0977691 0.0016489)
(0.00266151 -0.0953087 0.00163022)
(0.00296767 -0.0915511 0.00160566)
(0.00324852 -0.0864969 0.00158003)
(0.00350015 -0.0801668 0.0015561)
(0.00371991 -0.0726471 0.00153365)
(0.00390675 -0.0640957 0.00150913)
(0.00406075 -0.0547205 0.00147615)
(0.00418243 -0.044753 0.00142643)
(0.00427208 -0.0344282 0.00135133)
(0.00432955 -0.0239724 0.0012435)
(0.00435422 -0.0135963 0.00109878)
(0.00434507 -0.00349318 0.000917559)
(0.00430116 0.0061564 0.00070562)
(0.00422214 0.0152082 0.000473897)
(0.00410824 0.0236056 0.000237074)
(0.00395964 0.0314165 1.18338e-05)
(0.00377541 0.038847 -0.000184018)
(0.0035525 0.0462393 -0.000331382)
(0.00328517 0.0540486 -0.000409961)
(0.00296555 0.0627689 -0.000401502)
(0.00258593 0.0727369 -0.000299541)
(0.00214076 0.0837146 -0.000125104)
(0.00163277 0.0942329 6.25521e-05)
(0.00112911 0.101195 0.000182856)
(0.000667838 0.101213 0.000202792)
(0.000261856 0.0868777 0.000138661)
(1.74793e-05 0.043387 2.96893e-05)
(1.83109e-05 -0.0235358 0.000367769)
(0.000217225 -0.057587 0.000910744)
(0.000518134 -0.0798758 0.00126192)
(0.000873293 -0.0928076 0.00146314)
(0.00122797 -0.0991674 0.00156196)
(0.0015667 -0.10175 0.00160319)
(0.00189659 -0.102135 0.00161345)
(0.00221746 -0.100933 0.00160648)
(0.00252266 -0.0983466 0.00159066)
(0.00280714 -0.0944246 0.00157256)
(0.00306702 -0.0891735 0.00155737)
(0.00329905 -0.0826229 0.00154818)
(0.00350129 -0.0748693 0.00154487)
(0.00367339 -0.0660782 0.00154376)
(0.00381599 -0.056461 0.00153789)
(0.00393001 -0.046248 0.00151795)
(0.00401597 -0.0356699 0.00147365)
(0.00407369 -0.0249476 0.00139546)
(0.00410219 -0.0142875 0.00127663)
(0.00409985 -0.00388203 0.00111504)
(0.00406484 0.00608541 0.00091454)
(0.00399583 0.015464 0.000685299)
(0.00389209 0.0241922 0.00044242)
(0.00375308 0.0323378 0.00020358)
(0.00357752 0.0401126 -1.26378e-05)
(0.00336231 0.0478686 -0.000187084)
(0.00310207 0.0560684 -0.000300066)
(0.00279036 0.0652002 -0.000333818)
(0.00242189 0.0755669 -0.000280624)
(0.00199402 0.0868551 -0.000156261)
(0.00151228 0.0974893 -9.8361e-06)
(0.00104231 0.104317 8.96944e-05)
(0.000614291 0.103984 0.000113565)
(0.000238628 0.0888765 7.77208e-05)
(1.56677e-05 0.0441813 1.28294e-05)
(1.68233e-05 -0.0244716 0.000377804)
(0.00020837 -0.0597628 0.000919721)
(0.00049723 -0.0827407 0.00125742)
(0.000836883 -0.0959642 0.00144255)
(0.00117428 -0.102401 0.00152877)
(0.00149542 -0.104977 0.00156197)
(0.00180752 -0.105311 0.00156781)
(0.00211019 -0.104022 0.00155947)
(0.00239698 -0.101312 0.00154532)
(0.00266327 -0.0972324 0.00153214)
(0.00290558 -0.0917965 0.00152548)
(0.00312125 -0.0850428 0.00152879)
(0.00330897 -0.0770773 0.00154229)
(0.00346894 -0.0680727 0.00156251)
(0.00360226 -0.0582427 0.00158246)
(0.00371021 -0.0478156 0.00159236)
(0.00379354 -0.0370165 0.00158073)
(0.00385207 -0.0260589 0.00153601)
(0.00388458 -0.0151427 0.00144862)
(0.00388892 -0.00445647 0.00131321)
(0.00386239 0.0058153 0.00113067)
(0.00380266 0.0155163 0.000909321)
(0.00370802 0.0245787 0.000664033)
(0.00357724 0.0330686 0.000413479)
(0.00340871 0.0412015 0.000177626)
(0.00319945 0.0493363 -2.34036e-05)
(0.0029448 0.0579397 -0.000169653)
(0.00263957 0.0674904 -0.000243324)
(0.00228043 0.0782535 -0.000235498)
(0.00186732 0.0898392 -0.00015759)
(0.00140849 0.10057 -5.00602e-05)
(0.000967899 0.107255 2.8398e-05)
(0.000568882 0.106577 5.25768e-05)
(0.000219467 0.0907354 3.74032e-05)
(1.4453e-05 0.0449141 3.9525e-06)
(1.65116e-05 -0.0253726 0.000383756)
(0.000202815 -0.0618414 0.00091829)
(0.000481542 -0.0854601 0.00123815)
(0.000806874 -0.0989456 0.00140488)
(0.00112779 -0.105446 0.00147766)
(0.00143196 -0.10801 0.00150263)
(0.00172681 -0.108294 0.0015041)
(0.00201181 -0.106919 0.00149457)
(0.00228083 -0.10409 0.00148233)
(0.00252959 -0.0998627 0.00147435)
(0.00275502 -0.0942556 0.00147644)
(0.00295494 -0.0873174 0.00149233)
(0.00312859 -0.0791643 0.00152247)
(0.00327669 -0.0699753 0.00156357)
(0.00340085 -0.0599664 0.00160869)
(0.00350274 -0.0493626 0.00164777)
(0.00358346 -0.0383813 0.0016686)
(0.00364296 -0.0272265 0.00165815)
(0.00367991 -0.0160885 0.0016045)
(0.00369163 -0.00514938 0.00149921)
(0.00367455 0.00540827 0.00133984)
(0.00362519 0.0154235 0.00113208)
(0.00354071 0.0248211 0.00088958)
(0.00341901 0.0336628 0.000631384)
(0.00325808 0.0421647 0.000378739)
(0.00305505 0.0506891 0.000153132)
(0.00280592 0.0597036 -2.45287e-05)
(0.00250682 0.0696737 -0.000135727)
(0.00215629 0.0808239 -0.000170042)
(0.00175655 0.0926885 -0.000134966)
(0.00131824 0.103496 -6.35254e-05)
(0.000903481 0.110031 -5.62509e-06)
(0.000529842 0.109016 1.61229e-05)
(0.000203246 0.0924738 1.48904e-05)
(1.35104e-05 0.0455954 1.68482e-06)
(1.54393e-05 -0.0262619 0.000387877)
(0.00019566 -0.0638845 0.00091118)
(0.000464491 -0.0881205 0.0012106)
(0.000776945 -0.101846 0.00135748)
(0.00108347 -0.108396 0.00141602)
(0.00137302 -0.110942 0.00143212)
(0.0016531 -0.111171 0.00142853)
(0.001923 -0.10971 0.00141701)
(0.00217684 -0.106766 0.00140568)
(0.00241064 -0.102396 0.00140166)
(0.00262166 -0.0966273 0.00141099)
(0.00280811 -0.0895187 0.00143772)
(0.00296965 -0.0811958 0.0014827)
(0.00310742 -0.0718445 0.00154303)
(0.00322342 -0.0616827 0.00161209)
(0.00331975 -0.0509319 0.00167988)
(0.00339784 -0.0398014 0.00173375)
(0.0034579 -0.0284838 0.00175944)
(0.00349858 -0.0171571 0.00174287)
(0.00351692 -0.00599349 0.00167245)
(0.00350856 0.00482987 0.00154203)
(0.00346895 0.0151496 0.0013539)
(0.00339409 0.0248826 0.00111968)
(0.003281 0.034084 0.000858165)
(0.0031272 0.0429673 0.000591701)
(0.00292991 0.0518949 0.000343396)
(0.00268578 0.0613314 0.000135679)
(0.00239214 0.0717258 -1.15466e-05)
(0.00204923 0.0832597 -8.58913e-05)
(0.00166124 0.0953922 -9.10312e-05)
(0.00124084 0.106264 -5.34553e-05)
(0.000848415 0.112647 -1.56699e-05)
(0.000496639 0.111308 1.22784e-06)
(0.000189646 0.0941003 7.88607e-06)
(1.28442e-05 0.0462294 5.11028e-06)
(1.50182e-05 -0.0271244 0.000388685)
(0.000190608 -0.0658533 0.000896327)
(0.00045117 -0.0906693 0.00117288)
(0.000752222 -0.104611 0.00129901)
(0.00104569 -0.111199 0.00134317)
(0.00132184 -0.113721 0.00135048)
(0.00158829 -0.113895 0.00134192)
(0.00184423 -0.11235 0.00132843)
(0.00208402 -0.109295 0.00131796)
(0.00230397 -0.10479 0.00131765)
(0.00250158 -0.0988718 0.00133367)
(0.00267538 -0.0916076 0.00137034)
(0.00282542 -0.0831336 0.00142877)
(0.0029532 -0.0736424 0.00150646)
(0.00306117 -0.0633537 0.00159716)
(0.00315183 -0.0524854 0.00169121)
(0.00322706 -0.0412378 0.00177593)
(0.00328737 -0.0297905 0.00183651)
(0.00333156 -0.0183073 0.00185729)
(0.00335641 -0.00694693 0.00182397)
(0.00335689 0.0041221 0.00172672)
(0.00332737 0.0147361 0.00156384)
(0.0032626 0.0248039 0.00134403)
(0.00315857 0.0343719 0.00108489)
(0.00301225 0.0436472 0.000809254)
(0.00282087 0.0529888 0.000541736)
(0.00258169 0.0628543 0.000306561)
(0.0022932 0.0736734 0.000125525)
(0.00195715 0.0855831 1.34523e-05)
(0.00157946 0.0979692 -2.94315e-05)
(0.00117465 0.108891 -2.36641e-05)
(0.000801433 0.115122 -5.49401e-06)
(0.000468399 0.113469 4.56361e-06)
(0.000178189 0.0956295 1.38976e-05)
(1.23664e-05 0.046823 1.31689e-05)
(1.43463e-05 -0.0279722 0.000386595)
(0.000185252 -0.0677787 0.000873773)
(0.000438188 -0.0931488 0.00112444)
(0.000729197 -0.107286 0.0012283)
(0.00101132 -0.113897 0.00125737)
(0.00127586 -0.116388 0.00125536)
(0.00153051 -0.116504 0.0012413)
(0.00177441 -0.114875 0.00122522)
(0.00200214 -0.111711 0.00121479)
(0.00221018 -0.107076 0.00121718)
(0.00239618 -0.101015 0.00123871)
(0.00255891 -0.0936052 0.00128397)
(0.00269866 -0.0849935 0.00135448)
(0.00281729 -0.0753798 0.00144817)
(0.00291757 -0.064986 0.00155929)
(0.00300242 -0.0540264 0.0016786)
(0.00307414 -0.0426925 0.00179362)
(0.00313368 -0.0311497 0.00188918)
(0.0031801 -0.0195451 0.00194839)
(0.00321019 -0.00802087 0.00195456)
(0.00321846 0.0032678 0.00189426)
(0.00319831 0.0141603 0.00176157)
(0.00314327 0.0245581 0.00156158)
(0.00304823 0.0344971 0.00130999)
(0.00290946 0.0441751 0.00102959)
(0.00272408 0.0539431 0.000746308)
(0.00248986 0.0642482 0.000486322)
(0.00220631 0.075497 0.000273684)
(0.00187657 0.0877808 0.000126003)
(0.00150805 0.100413 4.7488e-05)
(0.00111695 0.111379 2.31207e-05)
(0.000760445 0.117462 2.20021e-05)
(0.000443692 0.115507 2.33278e-05)
(0.000168141 0.0970675 3.06507e-05)
(1.19591e-05 0.0473787 2.48263e-05)
(1.40055e-05 -0.0287983 0.000381588)
(0.000181028 -0.0696432 0.000844896)
(0.000427403 -0.0955363 0.00106833)
(0.000709633 -0.109847 0.00114987)
(0.000981833 -0.116471 0.00116424)
(0.00123634 -0.118925 0.00115321)
(0.00148086 -0.118981 0.0011337)
(0.0017143 -0.117271 0.0011148)
(0.00193136 -0.114002 0.00110397)
(0.00212876 -0.109244 0.00110831)
(0.00230426 -0.103047 0.00113428)
(0.00245685 -0.0955018 0.00118663)
(0.00258706 -0.0867653 0.0012672)
(0.00269705 -0.0770447 0.00137437)
(0.0027899 -0.0665643 0.00150295)
(0.0028689 -0.0555354 0.00164434)
(0.00293677 -0.0441403 0.00178664)
(0.00299492 -0.0325304 0.00191483)
(0.00304276 -0.0208346 0.00201141)
(0.00307724 -0.00917575 0.00205782)
(0.00309257 0.00230808 0.00203729)
(0.00308135 0.013463 0.00193943)
(0.00303591 0.0241845 0.00176501)
(0.00294992 0.034497 0.00152688)
(0.00281884 0.0445856 0.00124706)
(0.00263958 0.0547896 0.0009524)
(0.0024103 0.0655413 0.000671059)
(0.00213146 0.0772213 0.000429618)
(0.00180743 0.089874 0.000248803)
(0.00144693 0.102743 0.000136913)
(0.00106775 0.113743 8.41218e-05)
(0.000725696 0.119677 6.40884e-05)
(0.00042293 0.117435 5.49722e-05)
(0.000159846 0.0984243 5.61046e-05)
(1.17638e-05 0.0479008 3.92214e-05)
(1.36293e-05 -0.0296086 0.000373449)
(0.000176919 -0.0714611 0.000808206)
(0.000417363 -0.0978513 0.00100166)
(0.000691931 -0.112317 0.00105969)
(0.000955687 -0.118942 0.00105893)
(0.00120192 -0.121356 0.00103868)
(0.00143825 -0.121349 0.00101337)
(0.00166308 -0.119554 0.000991124)
(0.00187113 -0.116181 0.00097916)
(0.00205929 -0.111301 0.000984616)
(0.00222554 -0.104973 0.00101403)
(0.00236903 -0.0972994 0.00107238)
(0.00249051 -0.0884478 0.0011618)
(0.00259232 -0.0786333 0.0012811)
(0.00267781 -0.0680831 0.00142566)
(0.00275059 -0.0570059 0.00158752)
(0.00281379 -0.0455755 0.00175545)
(0.00286931 -0.033929 0.00191484)
(0.00291706 -0.0221758 0.00204799)
(0.00295432 -0.0104167 0.00213502)
(0.00297533 0.00123141 0.00215624)
(0.00297206 0.0126262 0.00209686)
(0.00293575 0.02366 0.00195286)
(0.0028588 0.0343452 0.00173351)
(0.00273569 0.0448515 0.00145928)
(0.00256291 0.055502 0.00115752)
(0.00233888 0.0667103 0.000858273)
(0.00206487 0.0788272 0.000590807)
(0.00174635 0.091849 0.0003792)
(0.0013932 0.10495 0.000235942)