/*--------------------------------*- C++ -*----------------------------------*\
| =========                 |                                                 |
| \\      /  F ield         | OpenFOAM: The Open Source CFD Toolbox           |
|  \\    /   O peration     | Version:  v2012                                 |
|   \\  /    A nd           | Website:  www.openfoam.com                      |
|    \\/     M anipulation  |                                                 |
\*---------------------------------------------------------------------------*/
FoamFile
{
    version     2.0;
    format      ascii;
    class       surfaceScalarField;
    location    "52";
    object      phi;
}
// * * * * * * * * * * * * * * * * * * * * * * * * * * * * * * * * * * * * * //

dimensions      [1 0 -1 0 0 0 0];
oriented        oriented;


internalField   nonuniform List<scalar> 
228225
(
-3.05462e-09
3.18004e-09
-3.69825e-10
-1.04736e-08
1.16548e-08
-4.23708e-09
-2.20368e-08
1.68723e-08
-5.31109e-09
-3.75227e-08
2.1261e-08
-5.77341e-09
-5.63143e-08
2.49203e-08
-6.12622e-09
-7.76265e-08
2.78213e-08
-6.51046e-09
-1.00683e-07
3.0007e-08
-6.95073e-09
-1.24702e-07
3.14837e-08
-7.46312e-09
-1.49e-07
3.23288e-08
-8.03233e-09
-1.72907e-07
3.25722e-08
-8.66503e-09
-1.95854e-07
3.22961e-08
-9.34674e-09
-2.17315e-07
3.15422e-08
-1.00845e-08
-2.36847e-07
3.03987e-08
-1.08654e-08
-2.54052e-07
2.89001e-08
-1.16939e-08
-2.68627e-07
2.71293e-08
-1.25564e-08
-2.80286e-07
2.51158e-08
-1.34537e-08
-2.88847e-07
2.2923e-08
-1.4363e-08
-2.94148e-07
2.05813e-08
-1.52817e-08
-2.96103e-07
1.815e-08
-1.61901e-08
-2.94685e-07
1.56606e-08
-1.70844e-08
-2.89893e-07
1.31572e-08
-1.79438e-08
-2.81802e-07
1.06593e-08
-1.87525e-08
-2.70516e-07
8.20179e-09
-1.94901e-08
-2.56171e-07
5.80076e-09
-2.0143e-08
-2.38965e-07
3.48459e-09
-2.06917e-08
-2.19114e-07
1.2705e-09
-2.11232e-08
-1.96877e-07
-8.14507e-10
-2.14209e-08
-1.72552e-07
-2.75079e-09
-2.1573e-08
-1.46491e-07
-4.49841e-09
-2.15635e-08
-1.19094e-07
-6.02013e-09
-2.13751e-08
-9.08709e-08
-7.25906e-09
-2.09673e-08
-6.24971e-08
-8.13218e-09
-2.02364e-08
-3.5162e-08
-8.47615e-09
-1.88654e-08
-1.12688e-08
-8.01642e-09
-1.58717e-08
-5.09906e-09
-6.17234e-09
-8.95438e-09
2.82946e-08
-1.61596e-08
-3.0913e-08
5.12867e-08
-1.76744e-08
-5.74052e-08
6.18386e-08
-1.84737e-08
-8.61106e-08
6.94175e-08
-1.94519e-08
-1.15346e-07
7.45077e-08
-2.03503e-08
-1.43963e-07
7.75723e-08
-2.11348e-08
-1.71063e-07
7.89631e-08
-2.1857e-08
-1.96037e-07
7.89914e-08
-2.2532e-08
-2.18433e-07
7.78982e-08
-2.31759e-08
-2.37972e-07
7.58962e-08
-2.37841e-08
-2.5446e-07
7.31508e-08
-2.43672e-08
-2.67817e-07
6.98188e-08
-2.49177e-08
-2.78009e-07
6.6031e-08
-2.54422e-08
-2.8508e-07
6.19038e-08
-2.59334e-08
-2.89093e-07
5.75394e-08
-2.63948e-08
-2.90174e-07
5.30147e-08
-2.68203e-08
-2.88444e-07
4.84073e-08
-2.72143e-08
-2.84075e-07
4.37834e-08
-2.75704e-08
-2.77232e-07
3.91973e-08
-2.78901e-08
-2.68114e-07
3.47079e-08
-2.81656e-08
-2.56914e-07
3.03541e-08
-2.83983e-08
-2.43836e-07
2.61686e-08
-2.85849e-08
-2.29088e-07
2.21768e-08
-2.87238e-08
-2.12878e-07
1.83998e-08
-2.88086e-08
-1.95411e-07
1.48535e-08
-2.88373e-08
-1.76888e-07
1.15519e-08
-2.88022e-08
-1.57514e-07
8.50624e-09
-2.8697e-08
-1.37485e-07
5.72835e-09
-2.85079e-08
-1.16994e-07
3.22995e-09
-2.82175e-08
-9.62458e-08
1.02619e-09
-2.77964e-08
-7.54356e-08
-8.57855e-10
-2.72119e-08
-5.47784e-08
-2.37754e-09
-2.64111e-08
-3.4579e-08
-3.45752e-09
-2.52185e-08
-1.56129e-08
-3.85782e-09
-2.3125e-08
-2.34347e-09
-1.83681e-08
-6.70522e-09
4.34766e-08
-8.47648e-09
-1.82559e-08
7.30279e-08
-1.01901e-08
-3.12836e-08
8.58485e-08
-1.09845e-08
-4.48141e-08
9.46389e-08
-1.16875e-08
-5.82105e-08
1.00239e-07
-1.23363e-08
-7.10067e-08
1.03352e-07
-1.29835e-08
-8.28908e-08
1.0448e-07
-1.3634e-08
-9.36329e-08
1.04044e-07
-1.43105e-08
-1.03088e-07
1.02354e-07
-1.50003e-08
-1.11155e-07
9.96756e-08
-1.57118e-08
-1.17795e-07
9.62161e-08
-1.64264e-08
-1.22984e-07
9.21554e-08
-1.71468e-08
-1.26739e-07
8.76386e-08
-1.78534e-08
-1.29088e-07
8.28005e-08
-1.8546e-08
-1.30086e-07
7.77439e-08
-1.92071e-08
-1.29799e-07
7.25697e-08
-1.98422e-08
-1.28321e-07
6.73638e-08
-2.04341e-08
-1.2575e-07
6.2195e-08
-2.09837e-08
-1.22186e-07
5.71139e-08
-2.14806e-08
-1.17729e-07
5.21754e-08
-2.19245e-08
-1.12482e-07
4.74152e-08
-2.23076e-08
-1.06544e-07
4.28626e-08
-2.2633e-08
-1.00012e-07
3.85404e-08
-2.28951e-08
-9.29713e-08
3.44553e-08
-2.30963e-08
-8.55029e-08
3.06185e-08
-2.32321e-08
-7.76844e-08
2.70343e-08
-2.33031e-08
-6.9579e-08
2.37043e-08
-2.33033e-08
-6.12525e-08
2.06312e-08
-2.32279e-08
-5.27696e-08
1.78105e-08
-2.30641e-08
-4.41787e-08
1.523e-08
-2.27954e-08
-3.55183e-08
1.28746e-08
-2.2393e-08
-2.68187e-08
1.07277e-08
-2.1805e-08
-1.81267e-08
8.76357e-09
-2.09131e-08
-9.48163e-09
6.93822e-09
-1.944e-08
4.15783e-09
-1.59835e-08
-7.07355e-09
4.777e-08
2.78246e-09
-1.28798e-08
7.74053e-08
1.42601e-09
-1.78963e-08
9.0427e-08
4.39846e-10
-2.24405e-08
9.94615e-08
-2.80465e-10
-2.6658e-08
1.05388e-07
-9.31438e-10
-3.05494e-08
1.08868e-07
-1.62415e-09
-3.4081e-08
1.10413e-07
-2.401e-09
-3.72111e-08
1.1042e-07
-3.24456e-09
-3.99115e-08
1.09213e-07
-4.16117e-09
-4.21511e-08
1.07044e-07
-5.12717e-09
-4.39174e-08
1.04126e-07
-6.14318e-09
-4.52072e-08
1.00627e-07
-7.18335e-09
-4.60174e-08
9.6695e-08
-8.24492e-09
-4.63705e-08
9.24496e-08
-9.29769e-09
-4.62833e-08
8.79963e-08
-1.03395e-08
-4.58042e-08
8.34324e-08
-1.13428e-08
-4.49732e-08
7.88388e-08
-1.23055e-08
-4.38406e-08
7.42748e-08
-1.32113e-08
-4.24602e-08
6.97923e-08
-1.40599e-08
-4.08766e-08
6.54299e-08
-1.48385e-08
-3.91324e-08
6.12207e-08
-1.55483e-08
-3.72774e-08
5.71871e-08
-1.61801e-08
-3.53485e-08
5.33458e-08
-1.67359e-08
-3.33767e-08
4.9696e-08
-1.72119e-08
-3.13867e-08
4.62394e-08
-1.76102e-08
-2.93966e-08
4.29701e-08
-1.79268e-08
-2.74007e-08
3.98722e-08
-1.81634e-08
-2.53842e-08
3.69295e-08
-1.83141e-08
-2.33034e-08
3.41054e-08
-1.83766e-08
-2.10762e-08
3.13443e-08
-1.83413e-08
-1.85801e-08
2.85723e-08
-1.81956e-08
-1.56179e-08
2.56978e-08
-1.79296e-08
-1.18703e-08
2.25794e-08
-1.75655e-08
-6.96827e-09
1.90684e-08
-1.70302e-08
1.22817e-08
-1.50936e-08
-7.85036e-09
4.6749e-08
8.87156e-09
-1.07183e-08
7.24231e-08
7.84889e-09
-1.11036e-08
8.39625e-08
6.85181e-09
-1.00515e-08
9.22414e-08
6.16599e-09
-8.17385e-09
9.79318e-08
5.57963e-09
-5.80409e-09
1.01575e-07
4.92407e-09
-3.16671e-09
1.03593e-07
4.1811e-09
-4.14218e-10
1.04322e-07
3.34612e-09
2.3319e-09
1.04025e-07
2.44238e-09
4.98769e-09
1.02918e-07
1.47002e-09
7.48736e-09
1.01172e-07
4.52577e-10
9.78271e-09
9.89354e-08
-6.02467e-10
1.18195e-08
9.63255e-08
-1.66674e-09
1.35683e-08
9.34457e-08
-2.74542e-09
1.50022e-08
9.03749e-08
-3.81297e-09
1.61094e-08
8.71874e-08
-4.86166e-09
1.68784e-08
8.3941e-08
-5.87151e-09
1.73043e-08
8.06884e-08
-6.83889e-09
1.73777e-08
7.74669e-08
-7.74901e-09
1.70992e-08
7.43096e-08
-8.60043e-09
1.64643e-08
7.12387e-08
-9.38289e-09
1.5478e-08
6.82699e-08
-1.00969e-08
1.41516e-08
6.54096e-08
-1.07359e-08
1.24902e-08
6.26567e-08
-1.13016e-08
1.05187e-08
6.00015e-08
-1.17903e-08
8.26978e-09
5.74242e-08
-1.22045e-08
5.79166e-09
5.48928e-08
-1.25425e-08
3.16858e-09
5.23605e-08
-1.28074e-08
5.11522e-10
4.976e-08
-1.2998e-08
-2.02269e-09
4.69937e-08
-1.31154e-08
-4.23e-09
4.39331e-08
-1.31534e-08
-5.80487e-09
4.04061e-08
-1.31329e-08
-6.24251e-09
3.61683e-08
-1.31531e-08
-4.82922e-09
3.09082e-08
-1.32513e-08
1.98644e-08
-1.24123e-08
-5.03852e-09
4.23874e-08
9.39811e-09
-5.57134e-09
6.44677e-08
8.49153e-09
-3.73377e-09
7.45792e-08
7.5427e-09
-4.80425e-10
8.20483e-08
6.94159e-09
3.5487e-09
8.7455e-08
6.448e-09
7.98251e-09
9.12214e-08
5.91704e-09
1.25647e-08
9.37042e-08
5.30752e-09
1.70923e-08
9.51588e-08
4.6347e-09
2.1415e-08
9.58035e-08
3.89844e-09
2.54202e-08
9.57984e-08
3.1151e-09
2.90224e-08
9.52839e-08
2.28609e-09
3.21625e-08
9.43654e-08
1.42976e-09
3.48015e-08
9.31375e-08
5.4956e-10
3.69123e-08
9.16682e-08
-3.34851e-10
3.84711e-08
9.00252e-08
-1.20862e-09
3.94667e-08
8.82591e-08
-2.06855e-09
3.99019e-08
8.64149e-08
-2.90777e-09
3.97763e-08
8.4525e-08
-3.71206e-09
3.91044e-08
8.26184e-08
-4.47905e-09
3.78986e-08
8.07147e-08
-5.19858e-09
3.61766e-08
7.88287e-08
-5.8695e-09
3.3967e-08
7.6966e-08
-6.48481e-09
3.12946e-08
7.51248e-08
-7.04503e-09
2.82033e-08
7.32951e-08
-7.54582e-09
2.47385e-08
7.14559e-08
-7.98889e-09
2.09572e-08
6.95753e-08
-8.3722e-09
1.69461e-08
6.76044e-08
-8.69873e-09
1.27979e-08
6.54761e-08
-8.96897e-09
8.65284e-09
6.3094e-08
-9.18707e-09
4.6669e-09
6.03302e-08
-9.3525e-09
1.06252e-09
5.70053e-08
-9.46611e-09
-1.86267e-09
5.28841e-08
-9.55434e-09
-3.59459e-09
4.76365e-08
-9.73598e-09
-3.45472e-09
4.08509e-08
-1.0082e-08
2.61924e-08
-9.78313e-09
-2.17143e-09
3.7611e-08
6.94847e-09
-1.44811e-09
5.76695e-08
6.0738e-09
8.97516e-10
6.69735e-08
5.26097e-09
4.17229e-09
7.40102e-08
4.7621e-09
7.94763e-09
7.92976e-08
4.38278e-09
1.1961e-08
8.32207e-08
3.98799e-09
1.60313e-08
8.60782e-08
3.55505e-09
2.00121e-08
8.80989e-08
3.08025e-09
2.37845e-08
8.94566e-08
2.57358e-09
2.72585e-08
9.02914e-08
2.03312e-09
3.03648e-08
9.07084e-08
1.46967e-09
3.30477e-08
9.07968e-08
8.84111e-10
3.52755e-08
9.06235e-08
2.86792e-10
3.70139e-08
9.02467e-08
-3.15697e-10
3.82386e-08
8.97098e-08
-9.09773e-10
3.89455e-08
8.90512e-08
-1.49788e-09
3.91285e-08
8.83001e-08
-2.06909e-09
3.87943e-08
8.74805e-08
-2.62074e-09
3.79477e-08
8.66079e-08
-3.14455e-09
3.66094e-08
8.56935e-08
-3.63954e-09
3.47973e-08
8.47414e-08
-4.09953e-09
3.25378e-08
8.37495e-08
-4.52472e-09
2.98657e-08
8.27079e-08
-4.91084e-09
2.68226e-08
8.15975e-08
-5.25918e-09
2.34586e-08
8.03886e-08
-5.56729e-09
1.98325e-08
7.90367e-08
-5.83752e-09
1.60259e-08
7.74806e-08
-6.06909e-09
1.21329e-08
7.56344e-08
-6.26588e-09
8.27505e-09
7.33817e-08
-6.42878e-09
4.60147e-09
7.05639e-08
-6.56052e-09
1.29976e-09
6.69664e-08
-6.66003e-09
-1.36614e-09
6.23029e-08
-6.7526e-09
-2.97597e-09
5.61814e-08
-6.93581e-09
-2.94208e-09
4.809e-08
-7.27166e-09
3.0385e-08
-7.13502e-09
-6.90539e-10
3.39894e-08
4.31106e-09
-3.16966e-11
5.34201e-08
3.59231e-09
1.47205e-09
6.24774e-08
2.99169e-09
3.44863e-09
6.9401e-08
2.63235e-09
5.67772e-09
7.47076e-08
2.3604e-09
8.03531e-09
7.87708e-08
2.09184e-09
1.04333e-08
8.18791e-08
1.80184e-09
1.27932e-08
8.42446e-08
1.4949e-09
1.50469e-08
8.60329e-08
1.16885e-09
1.71422e-08
8.73667e-08
8.29148e-10
1.90326e-08
8.83438e-08
4.74351e-10
2.06833e-08
8.90369e-08
1.09926e-10
2.20574e-08
8.95054e-08
-2.56588e-10
2.31324e-08
8.97934e-08
-6.2033e-10
2.38861e-08
8.99376e-08
-9.83611e-10
2.4311e-08
8.99649e-08
-1.33751e-09
2.43956e-08
8.98963e-08
-1.68131e-09
2.41393e-08
8.97458e-08
-2.00847e-09
2.3543e-08
8.95225e-08
-2.319e-09
2.26148e-08
8.92293e-08
-2.60797e-09
2.13696e-08
8.88641e-08
-2.87625e-09
1.98191e-08
8.84178e-08
-3.12023e-09
1.79972e-08
8.78735e-08
-3.34166e-09
1.59267e-08
8.72057e-08
-3.53817e-09
1.3652e-08
8.63761e-08
-3.71228e-09
1.12159e-08
8.5333e-08
-3.86273e-09
8.68769e-09
8.40035e-08
-3.99285e-09
6.13298e-09
8.22911e-08
-4.10264e-09
3.64711e-09
8.00627e-08
-4.19611e-09
1.34071e-09
7.71434e-08
-4.27244e-09
-6.51874e-10
7.32927e-08
-4.33376e-09
-2.15163e-09
6.81959e-08
-4.39437e-09
-2.86661e-09
6.14191e-08
-4.5232e-09
-2.41892e-09
5.23965e-08
-4.7515e-09
3.26002e-08
-4.63589e-09
-4.87433e-10
3.16381e-08
2.83853e-09
-4.66406e-10
5.09954e-08
2.40339e-09
-6.20917e-11
6.00168e-08
2.05622e-09
5.56991e-10
6.69353e-08
1.84717e-09
1.30723e-09
7.22706e-08
1.68596e-09
2.14877e-09
7.64068e-08
1.52161e-09
3.05428e-09
7.96281e-08
1.34699e-09
3.99009e-09
8.21498e-08
1.16002e-09
4.92573e-09
8.41314e-08
9.65611e-10
5.83336e-09
8.56955e-08
7.62229e-10
6.6903e-09
8.69328e-08
5.54931e-10
7.47012e-09
8.79139e-08
3.43012e-10
8.15367e-09
8.86909e-08
1.30933e-10
8.72001e-09
8.93047e-08
-7.72317e-11
9.14995e-09
8.97844e-08
-2.76654e-10
9.4316e-09
9.01526e-08
-4.70372e-10
9.55784e-09
9.04244e-08
-6.536e-10
9.52213e-09
9.06096e-08
-8.26761e-10
9.31515e-09
9.07137e-08
-9.85796e-10
8.93954e-09
9.07358e-08
-1.13171e-09
8.39881e-09
9.06679e-08
-1.26146e-09
7.69744e-09
9.04966e-08
-1.3776e-09
6.84931e-09
9.02001e-08
-1.47802e-09
5.87284e-09
8.97483e-08
-1.5659e-09
4.78958e-09
8.90986e-08
-1.63993e-09
3.63304e-09
8.81936e-08
-1.70384e-09
2.43887e-09
8.69556e-08
-1.757e-09
1.25105e-09
8.52814e-08
-1.80378e-09
1.27603e-10
8.30321e-08
-1.84409e-09
-8.71864e-10
8.00233e-08
-1.88166e-09
-1.66949e-09
7.60064e-08
-1.91537e-09
-2.16821e-09
7.06531e-08
-1.95817e-09
-2.21616e-09
6.35157e-08
-2.04931e-09
-1.61678e-09
5.40011e-08
-2.20487e-09
3.31456e-08
-2.16083e-09
-9.53235e-10
3.0132e-08
2.46e-09
-1.67709e-09
4.93495e-08
2.36929e-09
-2.21217e-09
5.82928e-08
2.25789e-09
-2.61695e-09
6.51481e-08
2.19357e-09
-2.91323e-09
7.04367e-08
2.12908e-09
-3.10266e-09
7.45436e-08
2.05237e-09
-3.19059e-09
7.77549e-08
1.96008e-09
-3.18274e-09
8.02848e-08
1.85805e-09
-3.09049e-09
8.22939e-08
1.74658e-09
-2.93008e-09
8.39021e-08
1.63076e-09
-2.707e-09
8.52006e-08
1.5104e-09
-2.44111e-09
8.62566e-08
1.3906e-09
-2.1414e-09
8.71222e-08
1.27109e-09
-1.82955e-09
8.78347e-08
1.15671e-09
-1.51416e-09
8.84231e-08
1.04664e-09
-1.21214e-09
8.89055e-08
9.46197e-10
-9.39443e-10
8.9296e-08
8.54067e-10
-7.04022e-10
8.96009e-08
7.73982e-10
-5.15729e-10
8.98226e-08
7.03786e-10
-3.83592e-10
8.99567e-08
6.45144e-10
-3.0481e-10
8.99948e-08
5.95591e-10
-2.87013e-10
8.992e-08
5.57224e-10
-3.21626e-10
8.97098e-08
5.26499e-10
-4.07974e-10
8.93307e-08
5.04729e-10
-5.35925e-10
8.87394e-08
4.87686e-10
-6.97082e-10
8.78762e-08
4.76063e-10
-8.68785e-10
8.66631e-08
4.65088e-10
-1.0378e-09
8.49955e-08
4.54823e-10
-1.18048e-09
8.27353e-08
4.39951e-10
-1.27596e-09
7.96986e-08
4.20407e-10
-1.29993e-09
7.56399e-08
3.90786e-10
-1.22567e-09
7.02336e-08
3.44803e-10
-1.00217e-09
6.30401e-08
2.52551e-10
-5.83484e-10
5.34738e-08
1.08112e-10
3.25654e-08
-3.01576e-12
-1.46358e-09
2.90178e-08
2.57826e-09
-2.71178e-09
4.78132e-08
2.78381e-09
-3.81786e-09
5.65459e-08
2.85359e-09
-4.79571e-09
6.3231e-08
2.89582e-09
-5.64293e-09
6.83779e-08
2.90537e-09
-6.35343e-09
7.23661e-08
2.88723e-09
-6.92455e-09
7.54763e-08
2.85036e-09
-7.3592e-09
7.79208e-08
2.79761e-09
-7.65636e-09
7.98566e-08
2.73583e-09
-7.82439e-09
8.14037e-08
2.66612e-09
-7.87011e-09
8.26504e-08
2.59412e-09
-7.79792e-09
8.36651e-08
2.52018e-09
-7.6227e-09
8.44969e-08
2.44933e-09
-7.35254e-09
8.51847e-08
2.3813e-09
-7.00645e-09
8.57545e-08
2.32051e-09
-6.59231e-09
8.62268e-08
2.26597e-09
-6.13237e-09
8.66128e-08
2.22128e-09
-5.63572e-09
8.69203e-08
2.18442e-09
-5.11843e-09
8.71471e-08
2.15898e-09
-4.59346e-09
8.72897e-08
2.14212e-09
-4.072e-09
8.73366e-08
2.13569e-09
-3.56024e-09
8.72725e-08
2.13604e-09
-3.06777e-09
8.70722e-08
2.14428e-09
-2.5965e-09
8.67041e-08
2.15601e-09
-2.15184e-09
8.61227e-08
2.17172e-09
-1.73439e-09
8.52713e-08
2.18638e-09
-1.34083e-09
8.40716e-08
2.19987e-09
-9.76299e-10
8.24237e-08
2.20648e-09
-6.38844e-10
8.01925e-08
2.20531e-09
-3.3286e-10
7.72028e-08
2.18987e-09
-6.93113e-11
7.32177e-08
2.15808e-09
1.3971e-10
6.79269e-08
2.09816e-09
2.76265e-10
6.09106e-08
1.99093e-09
3.20746e-10
5.16104e-08
1.82184e-09
3.13406e-08
1.54416e-09
-1.67067e-09
2.81515e-08
2.53611e-09
-3.11685e-09
4.63482e-08
2.91236e-09
-4.44116e-09
5.4793e-08
3.07798e-09
-5.63577e-09
6.12466e-08
3.17726e-09
-6.68438e-09
6.62029e-08
3.22236e-09
-7.57758e-09
7.00265e-08
3.23436e-09
-8.3145e-09
7.2993e-08
3.22121e-09
-8.89365e-09
7.53071e-08
3.19161e-09
-9.31086e-09
7.71247e-08
3.14862e-09
-9.56652e-09
7.85615e-08
3.09881e-09
-9.66484e-09
7.97066e-08
3.04373e-09
-9.61635e-09
8.06257e-08
2.98888e-09
-9.42304e-09
8.13701e-08
2.93491e-09
-9.1028e-09
8.19763e-08
2.88655e-09
-8.66339e-09
8.24729e-08
2.84366e-09
-8.12464e-09
8.2878e-08
2.81017e-09
-7.50278e-09
8.32054e-08
2.78501e-09
-6.81419e-09
8.346e-08
2.7712e-09
-6.07682e-09
8.36439e-08
2.76663e-09
-5.31143e-09
8.37507e-08
2.77332e-09
-4.53344e-09
8.37713e-08
2.78811e-09
-3.76193e-09
8.36873e-08
2.81205e-09
-3.00488e-09
8.34762e-08
2.84102e-09
-2.28108e-09
8.31037e-08
2.87522e-09
-1.59591e-09
8.25282e-08
2.90978e-09
-9.58709e-10
8.16913e-08
2.94419e-09
-3.80898e-10
8.05202e-08
2.97287e-09
1.30967e-10
7.89162e-08
2.99458e-09
5.67786e-10
7.67533e-08
3.00278e-09
9.14554e-10
7.38618e-08
2.99509e-09
1.15005e-09
7.00208e-08
2.96323e-09
1.24097e-09
6.49334e-08
2.89992e-09
1.16379e-09
5.82082e-08
2.78276e-09
8.57792e-10
4.93174e-08
2.59657e-09
2.99862e-08
2.21301e-09
-1.44871e-09
2.75849e-08
2.0153e-09
-2.78703e-09
4.52826e-08
2.40293e-09
-4.06128e-09
5.34843e-08
2.58289e-09
-5.23436e-09
5.97388e-08
2.68335e-09
-6.28771e-09
6.45236e-08
2.72877e-09
-7.19249e-09
6.81953e-08
2.7387e-09
-7.94694e-09
7.10211e-08
2.72529e-09
-8.53612e-09
7.32039e-08
2.69318e-09
-8.95598e-09
7.48951e-08
2.6494e-09
-9.20186e-09
7.62115e-08
2.59676e-09
-9.27728e-09
7.72399e-08
2.54116e-09
-9.18426e-09
7.80487e-08
2.48433e-09
-8.93273e-09
7.86875e-08
2.43138e-09
-8.53665e-09
7.91963e-08
2.38319e-09
-8.01001e-09
7.96021e-08
2.34408e-09
-7.37141e-09
7.99267e-08
2.31402e-09
-6.64521e-09
8.01819e-08
2.2963e-09
-5.8497e-09
8.0376e-08
2.28979e-09
-5.01188e-09
8.05086e-08
2.29666e-09
-4.15154e-09
8.05767e-08
2.31456e-09
-3.29209e-09
8.05682e-08
2.34451e-09
-2.45621e-09
8.04676e-08
2.383e-09
-1.65978e-09
8.02493e-08
2.42999e-09
-9.17582e-10
7.98823e-08
2.48102e-09
-2.47778e-10
7.9322e-08
2.53517e-09
3.41619e-10
7.85142e-08
2.58726e-09
8.42059e-10
7.73846e-08
2.63568e-09
1.24203e-09
7.58405e-08
2.67453e-09
1.53747e-09
7.37572e-08
2.7014e-09
1.71597e-09
7.09748e-08
2.70944e-09
1.76392e-09
6.72792e-08
2.69469e-09
1.65931e-09
6.23898e-08
2.64626e-09
1.38691e-09
5.59326e-08
2.54848e-09
9.1607e-10
4.74083e-08
2.37994e-09
2.88929e-08
2.00962e-09
-9.32568e-10
2.74887e-08
1.02906e-09
-1.96754e-09
4.50196e-08
1.29857e-09
-3.04269e-09
5.31312e-08
1.42633e-09
-4.08852e-09
5.9298e-08
1.4879e-09
-5.06262e-09
6.39946e-08
1.5024e-09
-5.93001e-09
6.75733e-08
1.48894e-09
-6.66418e-09
7.03027e-08
1.45443e-09
-7.25073e-09
7.2383e-08
1.40557e-09
-7.66975e-09
7.3969e-08
1.34463e-09
-7.91175e-09
7.51767e-08
1.2775e-09
-7.97524e-09
7.60975e-08
1.20701e-09
-7.86568e-09
7.67991e-08
1.13838e-09
-7.58771e-09
7.73361e-08
1.07372e-09
-7.15598e-09
7.77479e-08
1.01762e-09
-6.59196e-09
7.8066e-08
9.71264e-10
-5.91495e-09
7.83111e-08
9.38319e-10
-5.15111e-09
7.84992e-08
9.1883e-10
-4.32707e-09
7.86367e-08
9.15264e-10
-3.47277e-09
7.87269e-08
9.26344e-10
-2.61154e-09
7.87638e-08
9.53195e-10
-1.77587e-09
7.87383e-08
9.93188e-10
-9.85841e-10
7.86316e-08
1.04615e-09
-2.65957e-10
7.84204e-08
1.10826e-09
3.67899e-10
7.80699e-08
1.17829e-09
9.01212e-10
7.75378e-08
1.25151e-09
1.32346e-09
7.67661e-08
1.32593e-09
1.62732e-09
7.56834e-08
1.39625e-09
1.81355e-09
7.41941e-08
1.46e-09
1.88264e-09
7.21775e-08
1.51147e-09
1.83548e-09
6.9473e-08
1.54784e-09
1.68032e-09
6.58733e-08
1.56281e-09
1.41709e-09
6.11007e-08
1.5512e-09
1.05782e-09
5.47928e-08
1.49861e-09
6.14459e-10
4.6461e-08
1.39091e-09
2.83649e-08
1.14266e-09
-3.351e-10
2.79724e-08
-1.48308e-10
-1.02223e-09
4.57733e-08
-6.62408e-11
-1.86424e-09
5.39929e-08
-2.08064e-11
-2.76552e-09
6.02189e-08
-1.93251e-11
-3.65663e-09
6.49334e-08
-4.86008e-11
-4.48174e-09
6.84987e-08
-9.88047e-11
-5.20268e-09
7.11877e-08
-1.64328e-10
-5.7849e-09
7.32092e-08
-2.42761e-10
-6.20969e-09
7.47208e-08
-3.28618e-10
-6.45858e-09
7.58455e-08
-4.19173e-10
-6.52719e-09
7.66764e-08
-5.0961e-10
-6.41985e-09
7.72876e-08
-5.97131e-10
-6.14184e-09
7.77346e-08
-6.77081e-10
-5.70728e-09
7.80623e-08
-7.4722e-10
-5.14234e-09
7.83024e-08
-8.03476e-10
-4.4649e-09
7.84803e-08
-8.44595e-10
-3.71032e-09
7.86111e-08
-8.6767e-10
-2.90584e-09
7.87049e-08
-8.72789e-10
-2.08213e-09
7.8763e-08
-8.58483e-10
-1.27552e-09
7.87823e-08
-8.26352e-10
-5.10352e-10
7.87507e-08
-7.76425e-10
1.82448e-10
7.8651e-08
-7.11743e-10
7.79224e-10
7.8456e-08
-6.33676e-10
1.26415e-09
7.81318e-08
-5.46391e-10
1.62327e-09
7.76316e-08
-4.52216e-10
1.84786e-09
7.68975e-08
-3.56004e-10
1.9388e-09
7.58529e-08
-2.60536e-10
1.90063e-09
7.44023e-08
-1.70798e-10
1.74821e-09
7.24194e-08
-8.94826e-11
1.50135e-09
6.97432e-08
-2.1011e-11
1.17755e-09
6.61608e-08
3.24893e-11
8.19496e-10
6.13944e-08
6.65347e-11
4.61786e-10
5.50752e-08
7.5577e-11
1.60696e-10
4.67133e-08
5.0834e-11
2.85326e-08
-9.36903e-12
1.66313e-10
2.90218e-08
-1.215e-09
-2.15505e-10
4.74706e-08
-1.31596e-09
-8.40995e-10
5.59732e-08
-1.35477e-09
-1.60046e-09
6.23886e-08
-1.41191e-09
-2.40054e-09
6.722e-08
-1.48457e-09
-3.17962e-09
7.0845e-08
-1.568e-09
-3.88103e-09
7.35508e-08
-1.66173e-09
-4.46331e-09
7.55555e-08
-1.76364e-09
-4.89872e-09
7.70272e-08
-1.87206e-09
-5.16277e-09
7.80942e-08
-1.98274e-09
-5.25216e-09
7.88577e-08
-2.09266e-09
-5.16298e-09
7.93953e-08
-2.19708e-09
-4.9041e-09
7.97688e-08
-2.29289e-09
-4.49001e-09
8.0025e-08
-2.37568e-09
-3.94626e-09
8.0201e-08
-2.44309e-09
-3.29639e-09
8.03224e-08
-2.49168e-09
-2.5731e-09
8.04083e-08
-2.52033e-09
-1.81028e-09
8.04683e-08
-2.52706e-09
-1.04107e-09
8.05062e-08
-2.51229e-09
-2.98825e-10
8.05168e-08
-2.47569e-09
3.81056e-10
8.04892e-08
-2.41932e-09
9.73488e-10
8.04032e-08
-2.34441e-09
1.45138e-09
8.02316e-08
-2.25443e-09
1.79985e-09
7.99361e-08
-2.15184e-09
2.00472e-09
7.94685e-08
-2.04109e-09
2.06155e-09
7.87653e-08
-1.92527e-09
1.97609e-09
7.77476e-08
-1.80911e-09
1.76039e-09
7.63127e-08
-1.69557e-09
1.43786e-09
7.43302e-08
-1.58875e-09
1.0425e-09
7.16302e-08
-1.49033e-09
6.13684e-10
6.79927e-08
-1.40256e-09
2.05406e-10
6.31276e-08
-1.32517e-09
-1.14666e-10
5.66542e-08
-1.25968e-09
-2.59947e-10
4.80645e-08
-1.20519e-09
2.93627e-08
-1.0898e-09
4.54627e-10
3.04864e-08
-1.91963e-09
2.69776e-10
4.98089e-08
-2.15189e-09
-2.07e-10
5.86994e-08
-2.25095e-09
-8.53438e-10
6.53867e-08
-2.35117e-09
-1.57668e-09
7.03987e-08
-2.45546e-09
-2.30379e-09
7.41358e-08
-2.56531e-09
-2.96859e-09
7.68996e-08
-2.68122e-09
-3.53393e-09
7.89223e-08
-2.80328e-09
-3.95876e-09
8.03809e-08
-2.92915e-09
-4.22225e-09
8.14143e-08
-3.05629e-09
-4.314e-09
8.21292e-08
-3.18055e-09
-4.22954e-09
8.26108e-08
-3.29848e-09
-3.98054e-09
8.29248e-08
-3.40563e-09
-3.58086e-09
8.31238e-08
-3.49877e-09
-3.05292e-09
8.32467e-08
-3.57406e-09
-2.4238e-09
8.33236e-08
-3.62928e-09
-1.72899e-09
8.33741e-08
-3.66186e-09
-9.98949e-10
8.34105e-08
-3.67105e-09
-2.73419e-10
8.34357e-08
-3.65593e-09
4.1424e-10
8.3446e-08
-3.61749e-09
1.03215e-09
8.34281e-08
-3.55652e-09
1.54901e-09
8.33617e-08
-3.47563e-09
1.94268e-09
8.32158e-08
-3.3771e-09
2.19296e-09
8.29505e-08
-3.26482e-09
2.28942e-09
8.25124e-08
-3.14206e-09
2.23317e-09
8.18352e-08
-3.01328e-09
2.03063e-09
8.08325e-08
-2.88196e-09
1.6983e-09
7.93966e-08
-2.75223e-09
1.2672e-09
7.73877e-08
-2.62659e-09
7.77514e-10
7.46277e-08
-2.50733e-09
2.81427e-10
7.08831e-08
-2.39432e-09
-1.55669e-10
6.58508e-08
-2.28645e-09
-4.50119e-10
5.91284e-08
-2.17999e-09
-5.01142e-10
5.01856e-08
-2.06945e-09
3.06878e-08
-1.82646e-09
5.08531e-10
3.21661e-08
-2.18617e-09
3.77487e-10
5.24085e-08
-2.47074e-09
-4.02224e-11
6.17121e-08
-2.59573e-09
-6.29489e-10
6.86923e-08
-2.7143e-09
-1.3041e-09
7.39041e-08
-2.83284e-09
-1.98237e-09
7.77691e-08
-2.95422e-09
-2.60677e-09
8.06061e-08
-3.08069e-09
-3.13293e-09
8.26597e-08
-3.21194e-09
-3.52232e-09
8.41189e-08
-3.34668e-09
-3.75682e-09
8.51301e-08
-3.48165e-09
-3.82453e-09
8.58086e-08
-3.61356e-09
-3.7193e-09
8.6245e-08
-3.7381e-09
-3.45341e-09
8.65109e-08
-3.85157e-09
-3.04223e-09
8.6662e-08
-3.94986e-09
-2.50728e-09
8.6742e-08
-4.02989e-09
-1.87654e-09
8.67827e-08
-4.08851e-09
-1.1862e-09
8.68064e-08
-4.12395e-09
-4.66368e-10
8.68259e-08
-4.13459e-09
2.43749e-10
8.68455e-08
-4.12032e-09
9.10637e-10
8.68603e-08
-4.08128e-09
1.50156e-09
8.68571e-08
-4.0191e-09
1.98571e-09
8.68128e-08
-3.93559e-09
2.34054e-09
8.66953e-08
-3.83393e-09
2.54623e-09
8.64602e-08
-3.7172e-09
2.59833e-09
8.60515e-08
-3.58955e-09
2.49289e-09
8.53966e-08
-3.4547e-09
2.23536e-09
8.44047e-08
-3.31693e-09
1.85386e-09
8.29601e-08
-3.17954e-09
1.36961e-09
8.09153e-08
-3.04576e-09
8.35175e-10
7.80811e-08
-2.91687e-09
2.99424e-10
7.4212e-08
-2.79313e-09
-1.67022e-10
6.89884e-08
-2.67194e-09
-4.78694e-10
6.19877e-08
-2.54888e-09
-5.29029e-10
5.26537e-08
-2.41586e-09
3.22816e-08
-2.1234e-09
3.86779e-10
3.38313e-08
-2.05256e-09
2.11093e-10
5.48985e-08
-2.31414e-09
-2.18402e-10
6.45729e-08
-2.43119e-09
-7.97977e-10
7.18172e-08
-2.54531e-09
-1.44273e-09
7.72092e-08
-2.66095e-09
-2.08191e-09
8.11901e-08
-2.78089e-09
-2.66261e-09
8.40928e-08
-2.9065e-09
-3.13886e-09
8.61746e-08
-3.03765e-09
-3.48215e-09
8.76335e-08
-3.17236e-09
-3.66934e-09
8.86248e-08
-3.30776e-09
-3.68989e-09
8.92699e-08
-3.43998e-09
-3.54519e-09
8.96655e-08
-3.56518e-09
-3.24313e-09
8.98876e-08
-3.67915e-09
-2.79842e-09
8.99966e-08
-3.77824e-09
-2.23626e-09
9.00385e-08
-3.85888e-09
-1.58411e-09
9.00484e-08
-3.91842e-09
-8.72475e-10
9.00499e-08
-3.95457e-09
-1.38966e-10
9.00575e-08
-3.96621e-09
5.84259e-10
9.00753e-08
-3.95274e-09
1.26085e-09
9.00988e-08
-3.91475e-09
1.85919e-09
9.01132e-08
-3.85339e-09
2.34784e-09
9.00945e-08
-3.77096e-09
2.70551e-09
9.00074e-08
-3.6701e-09
2.9144e-09
8.98054e-08
-3.55438e-09
2.9667e-09
8.94277e-08
-3.42748e-09
2.85835e-09
8.87982e-08
-3.29359e-09
2.5991e-09
8.78197e-08
-3.15655e-09
2.21029e-09
8.63706e-08
-3.02022e-09
1.71764e-09
8.42949e-08
-2.88747e-09
1.16432e-09
8.13947e-08
-2.76023e-09
6.02065e-10
7.74121e-08
-2.63863e-09
9.89714e-11
7.20137e-08
-2.52105e-09
-2.69299e-10
6.47579e-08
-2.40369e-09
-3.99614e-10
5.50662e-08
-2.28094e-09
3.38956e-08
-2.01329e-09
1.58044e-10
3.53089e-08
-1.6361e-09
-1.32901e-10
5.70088e-08
-1.81846e-09
-6.24781e-10
6.69674e-08
-1.90273e-09
-1.22533e-09
7.44126e-08
-1.99508e-09
-1.85999e-09
7.99395e-08
-2.0954e-09
-2.46929e-09
8.40033e-08
-2.20371e-09
-3.00652e-09
8.69487e-08
-2.32019e-09
-3.42932e-09
8.90426e-08
-2.44369e-09
-3.7155e-09
9.04907e-08
-2.57198e-09
-3.84442e-09
9.14551e-08
-2.70167e-09
-3.80763e-09
9.2063e-08
-2.829e-09
-3.60881e-09
9.24159e-08
-2.94983e-09
-3.25573e-09
9.25941e-08
-3.06021e-09
-2.76316e-09
9.26613e-08
-3.15627e-09
-2.15717e-09
9.26669e-08
-3.23474e-09
-1.46486e-09
9.26478e-08
-3.29277e-09
-7.15982e-10
9.26298e-08
-3.32835e-09
5.44835e-11
9.26277e-08
-3.34013e-09
8.10219e-10
9.26467e-08
-3.32774e-09
1.51899e-09
9.26815e-08
-3.29155e-09
2.14713e-09
9.27168e-08
-3.23291e-09
2.67026e-09
9.27268e-08
-3.1538e-09
3.05923e-09
9.26742e-08
-3.05708e-09
3.30163e-09
9.25095e-08
-2.94603e-09
3.38457e-09
9.21688e-08
-2.82448e-09
3.30869e-09
9.15715e-08
-2.69642e-09
3.07901e-09
9.06159e-08
-2.56594e-09
2.71061e-09
8.91746e-08
-2.4368e-09
2.23074e-09
8.70855e-08
-2.31238e-09
1.68011e-09
8.41425e-08
-2.19488e-09
1.09879e-09
8.00785e-08
-2.08543e-09
5.47549e-10
7.45487e-08
-1.98367e-09
9.56461e-11
6.70975e-08
-1.88885e-09
-1.66041e-10
5.71295e-08
-1.80027e-09
3.53419e-08
-1.61288e-09
-1.02908e-10
3.64915e-08
-1.07986e-09
-5.36368e-10
5.85956e-08
-1.15404e-09
-1.11003e-09
6.87345e-08
-1.19237e-09
-1.74789e-09
7.63033e-08
-1.25388e-09
-2.38367e-09
8.19077e-08
-1.33192e-09
-2.96935e-09
8.60123e-08
-1.42297e-09
-3.4651e-09
8.89694e-08
-1.52531e-09
-3.83905e-09
9.10526e-08
-1.6368e-09
-4.0662e-09
9.24736e-08
-1.75455e-09
-4.13624e-09
9.33992e-08
-1.87487e-09
-4.04123e-09
9.39615e-08
-1.99379e-09
-3.78276e-09
9.42659e-08
-2.10721e-09
-3.37494e-09
9.43964e-08
-2.21114e-09
-2.83134e-09
9.44197e-08
-2.30186e-09
-2.1753e-09
9.43877e-08
-2.37612e-09
-1.4356e-09
9.43395e-08
-2.4312e-09
-6.42997e-10
9.43022e-08
-2.4651e-09
1.69078e-10
9.42919e-08
-2.47658e-09
9.68139e-10
9.43137e-08
-2.46521e-09
1.71852e-09
9.43623e-08
-2.43141e-09
2.39013e-09
9.44216e-08
-2.3764e-09
2.95594e-09
9.44642e-08
-2.30219e-09
3.38974e-09
9.44509e-08
-2.21147e-09
3.67673e-09
9.43297e-08
-2.1075e-09
3.80656e-09
9.40338e-08
-1.99397e-09
3.77371e-09
9.34788e-08
-1.87488e-09
3.58414e-09
9.25595e-08
-1.7543e-09
3.25289e-09
9.11436e-08
-1.6362e-09
2.79766e-09
8.90642e-08
-1.52423e-09
2.25107e-09
8.61094e-08
-1.42127e-09
1.65442e-09
8.20056e-08
-1.32942e-09
1.05231e-09
7.64004e-08
-1.25028e-09
5.09218e-10
6.88292e-08
-1.18681e-09
9.47699e-11
5.86862e-08
-1.14504e-09
3.65047e-08
-1.06657e-09
-3.3867e-10
3.73484e-08
-5.18444e-10
-9.0104e-10
5.96414e-08
-4.82272e-10
-1.55609e-09
6.98615e-08
-4.73197e-10
-2.22975e-09
7.74799e-08
-5.02534e-10
-2.87171e-09
8.31064e-08
-5.56935e-10
-3.44103e-09
8.72102e-08
-6.29279e-10
-3.90139e-09
9.01477e-08
-7.1593e-10
-4.23278e-09
9.21965e-08
-8.13805e-10
-4.41164e-09
9.35721e-08
-9.1935e-10
-4.43005e-09
9.44455e-08
-1.02864e-09
-4.28194e-09
9.49517e-08
-1.13754e-09
-3.97342e-09
9.51997e-08
-1.24202e-09
-3.51593e-09
9.52764e-08
-1.3381e-09
-2.92526e-09
9.52514e-08
-1.42225e-09
-2.22434e-09
9.51789e-08
-1.49125e-09
-1.44376e-09
9.50998e-08
-1.54257e-09
-6.08151e-10
9.50426e-08
-1.57422e-09
2.4339e-10
9.50243e-08
-1.58508e-09
1.08082e-09
9.50503e-08
-1.57467e-09
1.87228e-09
9.51152e-08
-1.54346e-09
2.58424e-09
9.52018e-08
-1.49256e-09
3.19109e-09
9.52816e-08
-1.42394e-09
3.67008e-09
9.53134e-08
-1.34013e-09
4.00096e-09
9.5243e-08
-1.24433e-09
4.17269e-09
9.50008e-08
-1.14007e-09
4.18397e-09
9.44999e-08
-1.03129e-09
4.03414e-09
9.3631e-08
-9.22032e-10
3.73644e-09
9.22592e-08
-8.1641e-10
3.3045e-09
9.02134e-08
-7.18324e-10
2.7671e-09
8.72781e-08
-6.313e-10
2.15502e-09
8.31759e-08
-5.58403e-10
1.50963e-09
7.75501e-08
-5.03141e-10
8.78916e-10
6.99317e-08
-4.72208e-10
3.31673e-10
5.9711e-08
-4.78469e-10
3.73479e-08
-5.11072e-10
-5.05416e-10
3.79019e-08
-4.61708e-11
-1.16367e-09
6.02183e-08
7.95802e-11
-1.87319e-09
7.04434e-08
1.28132e-10
-2.57416e-09
7.80529e-08
1.26518e-10
-3.21598e-09
8.36573e-08
9.30175e-11
-3.7709e-09
8.77257e-08
3.82277e-11
-4.20689e-09
9.06172e-08
-3.38198e-11
-4.50217e-09
9.2611e-08
-1.19035e-10
-4.64458e-09
9.39256e-08
-2.1249e-10
-4.62115e-09
9.47341e-08
-3.10313e-10
-4.43711e-09
9.51749e-08
-4.08836e-10
-4.09059e-09
9.5359e-08
-5.03942e-10
-3.60068e-09
9.53765e-08
-5.91824e-10
-2.97807e-09
9.52989e-08
-6.68984e-10
-2.25048e-09
9.51829e-08
-7.3244e-10
-1.44194e-09
9.5071e-08
-7.79669e-10
-5.83607e-10
9.49932e-08
-8.08901e-10
2.91989e-10
9.49669e-08
-8.18941e-10
1.15427e-09
9.49982e-08
-8.09471e-10
1.96844e-09
9.50811e-08
-7.80803e-10
2.70732e-09
9.51979e-08
-7.34106e-10
3.34159e-09
9.53185e-08
-6.71152e-10
3.8474e-09
9.54006e-08
-5.94445e-10
4.21111e-09
9.53875e-08
-5.06957e-10