/*--------------------------------*- C++ -*----------------------------------*\
| =========                 |                                                 |
| \\      /  F ield         | OpenFOAM: The Open Source CFD Toolbox           |
|  \\    /   O peration     | Version:  v2012                                 |
|   \\  /    A nd           | Website:  www.openfoam.com                      |
|    \\/     M anipulation  |                                                 |
\*---------------------------------------------------------------------------*/
FoamFile
{
    version     2.0;
    format      ascii;
    class       volVectorField;
    location    "52";
    object      U;
}
// * * * * * * * * * * * * * * * * * * * * * * * * * * * * * * * * * * * * * //

dimensions      [0 1 -1 0 0 0 0];


internalField   nonuniform List<vector> 
78750
(
(-2.52992e-06 -8.46737e-05 0.000111078)
(-9.09299e-06 -0.000110025 0.000192735)
(-2.52595e-05 -0.000105653 0.000235556)
(-4.8279e-05 -8.90998e-05 0.000266368)
(-7.7227e-05 -6.62985e-05 0.000288043)
(-0.000110978 -4.06476e-05 0.000302778)
(-0.000148325 -1.46989e-05 0.000311931)
(-0.000187913 1.00074e-05 0.000316459)
(-0.000228525 3.22456e-05 0.000316831)
(-0.000269012 5.14814e-05 0.000313395)
(-0.00030835 6.72385e-05 0.000306222)
(-0.000345613 7.95242e-05 0.000295431)
(-0.000380003 8.82462e-05 0.00028101)
(-0.000410796 9.3647e-05 0.000263108)
(-0.00043744 9.58078e-05 0.000241806)
(-0.000459478 9.5081e-05 0.000217462)
(-0.000476395 9.16866e-05 0.00019065)
(-0.000487975 8.6025e-05 0.000161765)
(-0.000494094 7.82224e-05 0.000130831)
(-0.000494536 6.87232e-05 9.90059e-05)
(-0.000489332 5.77462e-05 6.69794e-05)
(-0.00047854 4.56062e-05 3.56002e-05)
(-0.000462311 3.25232e-05 5.6844e-06)
(-0.000440846 1.87938e-05 -2.18938e-05)
(-0.000414424 4.66078e-06 -4.63081e-05)
(-0.00038339 -9.54861e-06 -6.67451e-05)
(-0.000348139 -2.3505e-05 -8.24783e-05)
(-0.000309139 -3.67669e-05 -9.2852e-05)
(-0.000266948 -4.8815e-05 -9.73368e-05)
(-0.000222193 -5.89478e-05 -9.56156e-05)
(-0.000175422 -6.62793e-05 -8.76401e-05)
(-0.000127036 -6.95895e-05 -7.38245e-05)
(-7.86324e-05 -6.7213e-05 -5.51172e-05)
(-3.94758e-05 -5.70622e-05 -3.36101e-05)
(-1.1667e-05 -3.14107e-05 -5.75744e-06)
(-8.86992e-06 0.000200388 -0.000283156)
(-3.72558e-05 0.000402847 -0.000395805)
(-7.08414e-05 0.000505499 -0.000432143)
(-0.000118403 0.000583981 -0.000465167)
(-0.000168124 0.000640699 -0.000492794)
(-0.000216999 0.00067787 -0.000513703)
(-0.000263756 0.00069896 -0.000528968)
(-0.000307423 0.000705651 -0.00054052)
(-0.000347158 0.000700881 -0.000548859)
(-0.000382182 0.000685837 -0.000554969)
(-0.000412352 0.000662812 -0.00055901)
(-0.000437297 0.000632701 -0.00056171)
(-0.000456926 0.000597557 -0.000563036)
(-0.000471347 0.000557898 -0.000563595)
(-0.000480542 0.000515495 -0.000563234)
(-0.000484715 0.000470646 -0.000562458)
(-0.000484104 0.000424577 -0.000561204)
(-0.000478967 0.00037758 -0.000559802)
(-0.000469522 0.000330789 -0.000558019)
(-0.000456118 0.000284443 -0.000556018)
(-0.00043907 0.000239334 -0.000553603)
(-0.00041872 0.000195584 -0.000550922)
(-0.000395404 0.000153755 -0.000547703)
(-0.000369479 0.000113907 -0.000543863)
(-0.00034128 7.64368e-05 -0.000539082)
(-0.000311156 4.13869e-05 -0.00053311)
(-0.000279436 9.05679e-06 -0.000525416)
(-0.000246464 -2.04819e-05 -0.000515347)
(-0.000212581 -4.69496e-05 -0.000501811)
(-0.000178145 -7.01747e-05 -0.000483313)
(-0.000143313 -8.97217e-05 -0.000457666)
(-0.000107788 -0.000104898 -0.00042076)
(-7.18478e-05 -0.000113931 -0.000362581)
(-4.33188e-05 -0.00011226 -0.000270572)
(-2.23838e-05 -7.0837e-05 -8.65192e-05)
(-6.5525e-06 0.000431499 -0.000155539)
(-2.37819e-05 0.000745807 -0.000243156)
(-3.98766e-05 0.000880949 -0.000279036)
(-6.29204e-05 0.000973292 -0.000303769)
(-8.61414e-05 0.0010313 -0.000322279)
(-0.000108274 0.00106333 -0.000336633)
(-0.000128953 0.00107382 -0.000348751)
(-0.000147908 0.00106806 -0.000359091)
(-0.000164826 0.00104848 -0.000368578)
(-0.000179475 0.0010187 -0.000377037)
(-0.000191772 0.000980142 -0.000385002)
(-0.000201632 0.00093544 -0.000392098)
(-0.000209112 0.000885489 -0.000398676)
(-0.00021416 0.0008324 -0.000404283)
(-0.000216896 0.000776695 -0.000409206)
(-0.000217487 0.000719788 -0.00041336)
(-0.000215985 0.000662191 -0.000416852)
(-0.000212535 0.000605129 -0.000419359)
(-0.000207358 0.000548711 -0.000421141)
(-0.000200616 0.000494014 -0.000421844)
(-0.000192478 0.00044112 -0.000421665)
(-0.000183091 0.000390645 -0.000420445)
(-0.000172647 0.0003426 -0.000418325)
(-0.000161274 0.000297398 -0.000415145)
(-0.000149134 0.000255002 -0.000410951)
(-0.000136337 0.000215681 -0.000405508)
(-0.00012302 0.000179388 -0.000398659)
(-0.000109271 0.00014631 -0.000389909)
(-9.52295e-05 0.00011643 -0.000378642)
(-8.09868e-05 8.9925e-05 -0.000363725)
(-6.65877e-05 6.68536e-05 -0.000343448)
(-5.17826e-05 4.74827e-05 -0.000314538)
(-3.63596e-05 3.1951e-05 -0.000271205)
(-2.28532e-05 2.08493e-05 -0.000206903)
(-1.37766e-05 1.20353e-05 -6.6365e-05)
(-8.47309e-06 0.000535183 9.12844e-05)
(-1.90517e-05 0.00088299 6.31859e-05)
(-2.50473e-05 0.00103475 3.12925e-05)
(-3.3554e-05 0.0011387 5.81593e-06)
(-4.11547e-05 0.00120572 -1.2482e-05)
(-4.79949e-05 0.00124319 -2.87035e-05)
(-5.41717e-05 0.00125789 -4.46303e-05)
(-5.97562e-05 0.00125394 -6.13462e-05)
(-6.46278e-05 0.00123584 -7.85472e-05)
(-6.87715e-05 0.00120592 -9.66644e-05)
(-7.21033e-05 0.00116738 -0.000115168)
(-7.4647e-05 0.00112158 -0.000134308)
(-7.6412e-05 0.00107087 -0.000153498)
(-7.73509e-05 0.00101612 -0.000172571)
(-7.75776e-05 0.00095912 -0.000191028)
(-7.7071e-05 0.000900714 -0.000208667)
(-7.59353e-05 0.000842329 -0.000225032)
(-7.42765e-05 0.00078426 -0.00024027)
(-7.21441e-05 0.000727508 -0.000254029)
(-6.9651e-05 0.000672221 -0.000266426)
(-6.68398e-05 0.000619117 -0.000277186)
(-6.38159e-05 0.000568228 -0.000286415)
(-6.06458e-05 0.000520049 -0.000293894)
(-5.73756e-05 0.000474307 -0.000299832)
(-5.4052e-05 0.000431291 -0.000304044)
(-5.07332e-05 0.000390828 -0.000306593)
(-4.7396e-05 0.000352998 -0.000307286)
(-4.40639e-05 0.000317674 -0.00030597)
(-4.06683e-05 0.000284773 -0.000302246)
(-3.71431e-05 0.000253841 -0.000295731)
(-3.32885e-05 0.000224488 -0.000285662)
(-2.86638e-05 0.000196084 -0.000271614)
(-2.24707e-05 0.000167843 -0.000253023)
(-1.54972e-05 0.000138792 -0.000224141)
(-1.06462e-05 8.76812e-05 -0.000124718)
(-1.0327e-05 0.000535651 0.000218637)
(-1.75236e-05 0.000848755 0.000226943)
(-1.82004e-05 0.000987669 0.000199551)
(-1.79793e-05 0.00108569 0.000175652)
(-1.55394e-05 0.0011512 0.000158548)
(-1.19099e-05 0.00119152 0.000143299)
(-7.62352e-06 0.00121133 0.000127175)
(-3.08004e-06 0.00121543 0.000110036)
(1.55469e-06 0.00120651 9.15971e-05)
(6.09034e-06 0.00118785 7.23005e-05)
(1.04108e-05 0.00116106 5.20445e-05)
(1.44194e-05 0.00112851 3.14435e-05)
(1.81091e-05 0.0010912 1.05666e-05)
(2.12769e-05 0.00105095 -1.04121e-05)
(2.39234e-05 0.0010083 -3.13743e-05)
(2.60661e-05 0.000964566 -5.16778e-05)
(2.76454e-05 0.000920135 -7.1238e-05)
(2.86566e-05 0.000876036 -8.96481e-05)
(2.90759e-05 0.000832438 -0.000106892)
(2.8918e-05 0.000790056 -0.000122667)
(2.81546e-05 0.000748909 -0.000137014)
(2.68089e-05 0.000709468 -0.000149726)
(2.48729e-05 0.00067162 -0.000160874)
(2.23792e-05 0.000635617 -0.000170323)
(1.93342e-05 0.000601212 -0.000178167)
(1.57976e-05 0.000568444 -0.000184315)
(1.18248e-05 0.000536878 -0.000188875)
(7.53299e-06 0.000506283 -0.000191779)
(3.06433e-06 0.000475926 -0.000193094)
(-1.35337e-06 0.000445019 -0.000192723)
(-5.45849e-06 0.000412305 -0.000190773)
(-8.75434e-06 0.000376367 -0.000188393)
(-1.01927e-05 0.000334863 -0.000188324)
(-8.80396e-06 0.000285116 -0.00018547)
(-7.52677e-06 0.000183362 -0.000124133)
(-7.27841e-06 0.000498886 0.000241699)
(-9.99448e-06 0.00076358 0.000256519)
(-8.04101e-06 0.000883621 0.000231371)
(-3.92173e-06 0.000970595 0.000209039)
(2.25746e-06 0.0010323 0.000193743)
(9.46068e-06 0.00107347 0.000180275)
(1.70915e-05 0.00109889 0.000166411)
(2.47616e-05 0.00111129 0.000151561)
(3.22055e-05 0.00111377 0.000135867)
(3.91903e-05 0.00110796 0.000119249)
(4.55794e-05 0.001096 0.000101951)
(5.12314e-05 0.00107886 8.40183e-05)
(5.60599e-05 0.00105813 6.57981e-05)
(6.0037e-05 0.00103431 4.75123e-05)
(6.31285e-05 0.0010086 2.95005e-05)
(6.52634e-05 0.000981381 1.18102e-05)
(6.64616e-05 0.000953535 -5.26043e-06)
(6.67175e-05 0.000925207 -2.16099e-05)
(6.60585e-05 0.000897058 -3.69953e-05)
(6.44829e-05 0.000869117 -5.13826e-05)
(6.20399e-05 0.000841858 -6.45672e-05)
(5.87432e-05 0.000815158 -7.65705e-05)
(5.4663e-05 0.000789271 -8.72565e-05)
(4.98303e-05 0.000763925 -9.66924e-05)
(4.43427e-05 0.000739146 -0.000104796)
(3.82616e-05 0.000714458 -0.000111682)
(3.17254e-05 0.000689577 -0.00011733)
(2.48647e-05 0.00066369 -0.000121923)
(1.78881e-05 0.000636026 -0.000125483)
(1.10103e-05 0.000605186 -0.000128182)
(4.52922e-06 0.000569563 -0.000130259)
(-1.10186e-06 0.000526716 -0.000133501)
(-4.87567e-06 0.000473519 -0.000141335)
(-5.5458e-06 0.000405656 -0.000149547)
(-5.47752e-06 0.00026047 -0.000110413)
(-3.68423e-06 0.000442357 0.000198942)
(-3.41613e-06 0.000673505 0.000205222)
(-7.9109e-07 0.000780054 0.000182338)
(3.9111e-06 0.000859945 0.000162827)
(9.92327e-06 0.000919046 0.000149735)
(1.65344e-05 0.000962046 0.000138859)
(2.33511e-05 0.000992136 0.000128091)
(3.01221e-05 0.00101229 0.000117054)
(3.66344e-05 0.00102426 0.000105582)
(4.27175e-05 0.00103003 9.37365e-05)
(4.82335e-05 0.00103056 8.1467e-05)
(5.30884e-05 0.00102725 6.89354e-05)
(5.72036e-05 0.00102062 5.61889e-05)
(6.05293e-05 0.00101171 4.34496e-05)
(6.29996e-05 0.00100079 3.07807e-05)
(6.46303e-05 0.000988615 1.84385e-05)
(6.53724e-05 0.000975323 6.46001e-06)
(6.52481e-05 0.000961493 -4.95159e-06)
(6.4257e-05 0.000947102 -1.57747e-05)
(6.24325e-05 0.000932563 -2.5841e-05)
(5.97914e-05 0.000917733 -3.51685e-05)
(5.63865e-05 0.000902856 -4.36281e-05)
(5.22529e-05 0.000887645 -5.12771e-05)
(4.74683e-05 0.000872143 -5.80264e-05)
(4.20951e-05 0.000855859 -6.39743e-05)
(3.62353e-05 0.000838554 -6.9076e-05)
(2.99937e-05 0.000819418 -7.34782e-05)
(2.35248e-05 0.000797767 -7.71998e-05)
(1.70007e-05 0.000772217 -8.04326e-05)
(1.06377e-05 0.000741311 -8.32028e-05)
(4.68913e-06 0.000702647 -8.59005e-05)
(-4.45925e-07 0.000653412 -8.99307e-05)
(-3.93998e-06 0.000589352 -9.83665e-05)
(-4.75692e-06 0.000505202 -0.000107741)
(-4.52003e-06 0.000321412 -8.11076e-05)
(-1.65689e-06 0.000396143 0.000141409)
(-6.75946e-07 0.000613997 0.000140989)
(9.84087e-07 0.000715541 0.00012351)
(3.92757e-06 0.000792867 0.000108826)
(7.51187e-06 0.000851902 9.89363e-05)
(1.14046e-05 0.000896556 9.08052e-05)
(1.54029e-05 0.000930311 8.30766e-05)
(1.94045e-05 0.000955307 7.53256e-05)
(2.32775e-05 0.000973673 6.75352e-05)
(2.69294e-05 0.000986564 5.9586e-05)
(3.02733e-05 0.00099536 5.15519e-05)
(3.32452e-05 0.00100067 4.33954e-05)
(3.5779e-05 0.00100343 3.5257e-05)
(3.78366e-05 0.00100395 2.71448e-05)
(3.93774e-05 0.00100291 1.9239e-05)
(4.03607e-05 0.0010004 1.15122e-05)
(4.07891e-05 0.000996953 4.15557e-06)
(4.065e-05 0.000992509 -2.84812e-06)
(3.99395e-05 0.000987444 -9.35759e-06)
(3.86627e-05 0.000981595 -1.54181e-05)
(3.68462e-05 0.000975197 -2.09111e-05)
(3.45032e-05 0.000967956 -2.59137e-05)
(3.16801e-05 0.000959939 -3.03328e-05)
(2.84159e-05 0.000950673 -3.42758e-05)
(2.47725e-05 0.000939985 -3.76759e-05)
(2.08174e-05 0.000927118 -4.06722e-05)
(1.66469e-05 0.000911516 -4.32309e-05)
(1.23699e-05 0.000891941 -4.5532e-05)
(8.12175e-06 0.000867175 -4.75665e-05)
(4.06431e-06 0.00083513 -4.95063e-05)
(3.8914e-07 0.000793416 -5.14661e-05)
(-2.61081e-06 0.000738443 -5.45343e-05)
(-4.37505e-06 0.0006657 -6.06264e-05)
(-4.40255e-06 0.000568876 -6.73536e-05)
(-3.59521e-06 0.000356494 -4.89608e-05)
(-1.22131e-06 0.000364569 9.72406e-05)
(-8.34965e-07 0.000580457 9.82425e-05)
(-4.96657e-07 0.000681175 8.86296e-05)
(3.35217e-07 0.000758565 8.02513e-05)
(1.49523e-06 0.000818107 7.42934e-05)
(2.84607e-06 0.000864237 6.92426e-05)
(4.31632e-06 0.00089992 6.42979e-05)
(5.86544e-06 0.000927756 5.93721e-05)
(7.43803e-06 0.000949322 5.43735e-05)
(8.98814e-06 0.000966203 4.93794e-05)
(1.04711e-05 0.000979206 4.43294e-05)
(1.1847e-05 0.000989354 3.93467e-05)
(1.30801e-05 0.000997021 3.43969e-05)
(1.41321e-05 0.00100291 2.96232e-05)
(1.49684e-05 0.00100713 2.49978e-05)
(1.55677e-05 0.0010102 2.06376e-05)
(1.59149e-05 0.00101209 1.6498e-05)
(1.5992e-05 0.00101314 1.27086e-05)
(1.57979e-05 0.00101318 9.18859e-06)
(1.53117e-05 0.00101245 6.09687e-06)
(1.45439e-05 0.00101067 3.329e-06)
(1.35054e-05 0.00100791 9.69533e-07)
(1.22059e-05 0.00100375 -1.10424e-06)
(1.06758e-05 0.000998071 -2.82563e-06)
(8.94524e-06 0.000990203 -4.33911e-06)
(7.06197e-06 0.000979744 -5.5969e-06)
(5.08275e-06 0.000965619 -6.7679e-06)
(3.07339e-06 0.000946914 -7.83039e-06)
(1.12003e-06 0.000921869 -8.9705e-06)
(-6.86786e-07 0.000888661 -1.01672e-05)
(-2.23271e-06 0.00084431 -1.16856e-05)
(-3.3529e-06 0.000785372 -1.40764e-05)
(-3.73949e-06 0.000706661 -1.86998e-05)
(-3.23957e-06 0.000601802 -2.40529e-05)
(-2.31065e-06 0.000371621 -1.59502e-05)
(-1.71073e-06 0.000344635 7.06237e-05)
(-2.30866e-06 0.000560449 7.89453e-05)
(-3.17522e-06 0.000661102 7.77285e-05)
(-4.05085e-06 0.000738332 7.56175e-05)
(-4.67246e-06 0.000798025 7.3692e-05)
(-5.0725e-06 0.000844326 7.15147e-05)
(-5.30158e-06 0.000880623 6.9041e-05)
(-5.36239e-06 0.000909126 6.62569e-05)
(-5.27676e-06 0.000931829 6.33294e-05)
(-5.05935e-06 0.000949881 6.02486e-05)
(-4.73489e-06 0.000964505 5.71621e-05)
(-4.31886e-06 0.000976256 5.40484e-05)
(-3.84213e-06 0.000985925 5.1052e-05)
(-3.32583e-06 0.000993727 4.814e-05)
(-2.78928e-06 0.0010002 4.54457e-05)
(-2.26784e-06 0.00100533 4.29585e-05)
(-1.78087e-06 0.00100949 4.08052e-05)
(-1.35131e-06 0.00101256 3.89259e-05)
(-9.982e-07 0.00101481 3.73983e-05)
(-7.24392e-07 0.001016 3.60823e-05)
(-5.44916e-07 0.00101624 3.50726e-05)
(-4.63335e-07 0.00101513 3.4256e-05)
(-4.78307e-07 0.00101265 3.36957e-05)
(-5.8095e-07 0.0010082 3.32528e-05)
(-7.64416e-07 0.00100152 3.29665e-05)
(-1.01101e-06 0.000991734 3.26754e-05)
(-1.29656e-06 0.000978172 3.23943e-05)
(-1.58955e-06 0.000959443 3.19336e-05)
(-1.85971e-06 0.0009342 3.12777e-05)
(-2.07074e-06 0.000900152 3.02103e-05)
(-2.18566e-06 0.000854718 2.86225e-05)
(-2.15442e-06 0.000794005 2.59157e-05)
(-1.88173e-06 0.000713198 2.12328e-05)
(-1.3423e-06 0.000605518 1.49066e-05)
(-7.61188e-07 0.000369988 1.1196e-05)
(-2.3018e-06 0.000330533 5.56546e-05)
(-3.67515e-06 0.00054346 7.21691e-05)
(-5.30056e-06 0.000642477 7.76132e-05)
(-7.1915e-06 0.000718457 8.04363e-05)
(-8.77605e-06 0.000776958 8.1619e-05)
(-1.00837e-05 0.000822434 8.17082e-05)
(-1.11465e-05 0.0008579 8.09648e-05)
(-1.19875e-05 0.000885925 7.96997e-05)
(-1.25949e-05 0.00090811 7.80296e-05)
(-1.29839e-05 0.000925983 7.61645e-05)
(-1.31565e-05 0.00094036 7.41457e-05)
(-1.31323e-05 0.00095219 7.21383e-05)
(-1.29179e-05 0.000961844 7.01476e-05)
(-1.25419e-05 0.000969942 6.83135e-05)
(-1.20181e-05 0.000976592 6.66148e-05)
(-1.13782e-05 0.000982212 6.51686e-05)
(-1.06398e-05 0.000986742 6.39234e-05)
(-9.83247e-06 0.00099046 6.29684e-05)
(-8.97827e-06 0.000993135 6.22626e-05)
(-8.10375e-06 0.000994924 6.18747e-05)
(-7.22356e-06 0.000995512 6.16979e-05)
(-6.35756e-06 0.000994926 6.17761e-05)
(-5.51499e-06 0.000992689 6.1982e-05)
(-4.70907e-06 0.000988645 6.23356e-05)
(-3.94298e-06 0.000982086 6.26878e-05)
(-3.22323e-06 0.000972566 6.30345e-05)
(-2.54721e-06 0.000958999 6.31983e-05)
(-1.91465e-06 0.000940443 6.31388e-05)
(-1.3291e-06 0.000915158 6.26329e-05)
(-7.88829e-07 0.000881326 6.15773e-05)
(-3.10574e-07 0.000836044 5.96273e-05)
(7.6537e-08 0.000775926 5.63425e-05)
(3.3396e-07 0.000695967 5.07539e-05)
(5.31718e-07 0.000589951 4.25661e-05)
(5.6525e-07 0.000358567 2.86507e-05)
(-2.50401e-06 0.000319075 4.33876e-05)
(-4.2013e-06 0.000525729 6.40345e-05)
(-6.13565e-06 0.000621748 7.29664e-05)
(-8.40408e-06 0.000695169 7.83311e-05)
(-1.03566e-05 0.000751694 8.11835e-05)
(-1.19802e-05 0.000795346 8.23957e-05)
(-1.33414e-05 0.000829382 8.25636e-05)
(-1.44361e-05 0.000855982 8.19754e-05)
(-1.52727e-05 0.000877052 8.09202e-05)
(-1.58302e-05 0.000893748 7.95263e-05)
(-1.61273e-05 0.000907224 7.79903e-05)
(-1.61616e-05 0.00091806 7.63732e-05)
(-1.5958e-05 0.000926985 7.48258e-05)
(-1.55196e-05 0.000934246 7.33715e-05)
(-1.48807e-05 0.00094032 7.21305e-05)
(-1.40531e-05 0.000945244 7.10962e-05)
(-1.30777e-05 0.000949331 7.03602e-05)
(-1.1972e-05 0.000952473 6.98862e-05)
(-1.0774e-05 0.000954853 6.97361e-05)
(-9.50862e-06 0.000956236 6.98428e-05)
(-8.213e-06 0.000956683 7.02375e-05)
(-6.91114e-06 0.000955825 7.08232e-05)
(-5.62924e-06 0.000953572 7.16025e-05)
(-4.38733e-06 0.000949377 7.24506e-05)
(-3.20714e-06 0.000942934 7.33423e-05)
(-2.10003e-06 0.000933417 7.41254e-05)
(-1.08258e-06 0.000920163 7.47408e-05)
(-1.71006e-07 0.000901886 7.49955e-05)
(6.26339e-07 0.000877305 7.47719e-05)
(1.28748e-06 0.000844317 7.37992e-05)
(1.78519e-06 0.000800539 7.18138e-05)
(2.04043e-06 0.000742416 6.8233e-05)
(1.98317e-06 0.000665577 6.21923e-05)
(1.75237e-06 0.000563836 5.28988e-05)
(1.3293e-06 0.000342542 3.36766e-05)
(-2.11203e-06 0.000310344 2.87347e-05)
(-3.71107e-06 0.000510224 4.74517e-05)
(-5.54803e-06 0.000602893 5.62977e-05)
(-7.75062e-06 0.000673693 6.17632e-05)
(-9.67992e-06 0.000727924 6.46094e-05)
(-1.13292e-05 0.000769716 6.58358e-05)
(-1.27107e-05 0.000801969 6.59703e-05)
(-1.38391e-05 0.000827079 6.53848e-05)
(-1.46807e-05 0.000846622 6.42756e-05)
(-1.52409e-05 0.000862027 6.28658e-05)
(-1.55045e-05 0.000874135 6.12685e-05)
(-1.54895e-05 0.000883831 5.9646e-05)
(-1.51935e-05 0.000891535 5.80672e-05)
(-1.46481e-05 0.000897812 5.66573e-05)
(-1.38664e-05 0.00090283 5.5453e-05)
(-1.28855e-05 0.000906952 5.45481e-05)
(-1.17331e-05 0.000910174 5.39465e-05)
(-1.04529e-05 0.000912715 5.37087e-05)
(-9.07601e-06 0.000914439 5.38044e-05)
(-7.64823e-06 0.000915438 5.42585e-05)
(-6.2007e-06 0.000915446 5.50061e-05)
(-4.77668e-06 0.000914424 5.6038e-05)
(-3.40491e-06 0.000911955 5.72575e-05)
(-2.11408e-06 0.000907824 5.8624e-05)
(-9.29573e-07 0.000901405 6.00118e-05)
(1.25987e-07 0.000892219 6.13514e-05)
(1.03783e-06 0.000879302 6.24854e-05)
(1.79254e-06 0.000861736 6.33056e-05)
(2.3751e-06 0.000837984 6.36044e-05)
(2.77804e-06 0.000806358 6.32026e-05)
(2.97167e-06 0.000764301 6.1766e-05)
(2.90171e-06 0.000708739 5.88453e-05)
(2.50121e-06 0.000635293 5.35933e-05)
(1.98852e-06 0.000538372 4.5304e-05)
(1.37512e-06 0.000327728 2.72794e-05)
(-1.30099e-06 0.000306061 1.08192e-05)
(-2.53484e-06 0.000501708 2.2203e-05)
(-4.04516e-06 0.000592328 2.81714e-05)
(-5.92969e-06 0.000661293 3.17435e-05)
(-7.68587e-06 0.000713983 3.33098e-05)
(-9.23636e-06 0.000754235 3.359e-05)
(-1.05839e-05 0.000785124 3.30434e-05)
(-1.16908e-05 0.000808787 3.19096e-05)
(-1.25395e-05 0.000827029 3.03501e-05)
(-1.30908e-05 0.000841036 2.85053e-05)
(-1.33491e-05 0.000851902 2.65493e-05)
(-1.33045e-05 0.000860275 2.45817e-05)
(-1.29776e-05 0.000866842 2.27372e-05)
(-1.23745e-05 0.00087193 2.10892e-05)
(-1.15347e-05 0.000875979 1.97392e-05)
(-1.0485e-05 0.000879108 1.87307e-05)
(-9.27018e-06 0.000881586 1.81304e-05)
(-7.92956e-06 0.000883381 1.79459e-05)
(-6.51527e-06 0.000884623 1.82048e-05)
(-5.06877e-06 0.000885147 1.88756e-05)
(-3.63979e-06 0.000884949 1.99466e-05)
(-2.27095e-06 0.000883726 2.13486e-05)
(-1.00076e-06 0.000881321 2.30342e-05)
(1.36704e-07 0.000877254 2.49023e-05)
(1.1173e-06 0.000871158 2.68761e-05)
(1.9171e-06 0.000862297 2.88286e-05)
(2.52563e-06 0.000849977 3.06577e-05)
(2.93202e-06 0.000833043 3.22126e-05)
(3.14532e-06 0.000810247 3.33599e-05)
(3.1601e-06 0.000779702 3.39137e-05)
(2.99023e-06 0.000739181 3.36667e-05)
(2.60819e-06 0.000685487 3.22656e-05)
(2.02065e-06 0.000614641 2.91583e-05)
(1.43562e-06 0.000521068 2.39336e-05)
(8.79885e-07 0.000317922 1.27661e-05)
(-3.62137e-07 0.000308099 -7.37276e-06)
(-1.2001e-06 0.000504286 -5.79862e-06)
(-2.30001e-06 0.000594951 -4.02669e-06)
(-3.83095e-06 0.000663788 -3.24034e-06)
(-5.38208e-06 0.000716049 -3.60531e-06)
(-6.8425e-06 0.000755765 -4.73919e-06)
(-8.14613e-06 0.000785863 -6.4416e-06)
(-9.24734e-06 0.000808684 -8.55868e-06)
(-1.00944e-05 0.000825879 -1.09372e-05)
(-1.06641e-05 0.000838859 -1.34494e-05)
(-1.09271e-05 0.000848564 -1.6e-05)
(-1.08941e-05 0.000855868 -1.84617e-05)
(-1.05646e-05 0.000861299 -2.07418e-05)
(-9.96183e-06 0.000865409 -2.2733e-05)
(-9.11461e-06 0.000868468 -2.43607e-05)
(-8.06457e-06 0.000870815 -2.55477e-05)
(-6.85329e-06 0.000872539 -2.62522e-05)
(-5.53631e-06 0.000873818 -2.64356e-05)
(-4.16076e-06 0.000874592 -2.60968e-05)
(-2.78439e-06 0.000874896 -2.52405e-05)
(-1.45786e-06 0.000874526 -2.39078e-05)
(-2.27938e-07 0.00087337 -2.21449e-05)
(8.58782e-07 0.00087106 -2.00308e-05)
(1.77015e-06 0.0008673 -1.76445e-05)
(2.47881e-06 0.000861511 -1.50924e-05)
(2.96888e-06 0.000853135 -1.24748e-05)
(3.22922e-06 0.000841265 -9.91216e-06)
(3.26987e-06 0.000824925 -7.51129e-06)
(3.10132e-06 0.000802664 -5.3927e-06)
(2.75943e-06 0.000772779 -3.65293e-06)
(2.26593e-06 0.000732862 -2.41136e-06)
(1.66705e-06 0.000679909 -1.80441e-06)
(1.02416e-06 0.000609799 -2.06614e-06)
(5.38086e-07 0.000517171 -3.10598e-06)
(1.43295e-07 0.000315874 -4.58698e-06)
(4.35034e-07 0.000317059 -2.27899e-05)
(-8.2866e-08 0.000518666 -3.05783e-05)
(-8.02534e-07 0.00061168 -3.29308e-05)
(-1.9894e-06 0.000681974 -3.49139e-05)
(-3.34263e-06 0.000735065 -3.7129e-05)
(-4.68964e-06 0.000775018 -3.95663e-05)
(-5.94983e-06 0.000805008 -4.22155e-05)
(-7.0346e-06 0.000827357 -4.50672e-05)
(-7.89769e-06 0.000843936 -4.80741e-05)
(-8.48585e-06 0.000856085 -5.11529e-05)
(-8.78469e-06 0.000864941 -5.42011e-05)
(-8.78048e-06 0.00087129 -5.71135e-05)
(-8.48498e-06 0.000875845 -5.97807e-05)
(-7.91195e-06 0.000879053 -6.21042e-05)
(-7.10071e-06 0.000881358 -6.39929e-05)
(-6.08864e-06 0.000882983 -6.53749e-05)
(-4.92632e-06 0.00088418 -6.61941e-05)
(-3.66821e-06 0.000884997 -6.64183e-05)
(-2.37191e-06 0.000885523 -6.60359e-05)
(-1.09355e-06 0.000885652 -6.50602e-05)
(1.09399e-07 0.000885316 -6.35258e-05)
(1.18444e-06 0.000884248 -6.14897e-05)
(2.08951e-06 0.000882204 -5.90263e-05)
(2.78602e-06 0.000878724 -5.62259e-05)
(3.25323e-06 0.000873338 -5.31891e-05)
(3.47024e-06 0.000865315 -5.00219e-05)
(3.44415e-06 0.000853848 -4.68291e-05)
(3.18214e-06 0.000837776 -4.3706e-05)
(2.72272e-06 0.000815731 -4.07303e-05)
(2.10301e-06 0.000785819 -3.79426e-05)
(1.39312e-06 0.000745687 -3.53507e-05)
(6.58707e-07 0.000692129 -3.29129e-05)
(3.7813e-08 0.000621029 -3.0535e-05)
(-3.00321e-07 0.000526803 -2.76672e-05)
(-5.42599e-07 0.00032183 -1.99796e-05)
(9.17041e-07 0.000331719 -3.24874e-05)
(5.55886e-07 0.000542317 -4.66656e-05)
(1.14145e-07 0.000639291 -5.19189e-05)
(-8.31744e-07 0.000712363 -5.58864e-05)
(-2.0165e-06 0.000767239 -5.94764e-05)
(-3.26408e-06 0.000808291 -6.29313e-05)
(-4.44937e-06 0.000838768 -6.63793e-05)
(-5.49534e-06 0.000861217 -6.98784e-05)
(-6.33331e-06 0.000877524 -7.34254e-05)
(-6.91635e-06 0.00088922 -7.69679e-05)
(-7.21414e-06 0.000897426 -8.04203e-05)
(-7.21908e-06 0.000903088 -8.36855e-05)
(-6.93342e-06 0.000906882 -8.66571e-05)
(-6.38228e-06 0.0009094 -8.9237e-05)
(-5.59446e-06 0.000911026 -9.13315e-05)
(-4.61314e-06 0.000912114 -9.28677e-05)
(-3.49072e-06 0.000912839 -9.37859e-05)
(-2.28338e-06 0.000913363 -9.40538e-05)
(-1.04999e-06 0.000913684 -9.3657e-05)
(1.47114e-07 0.000913792 -9.26114e-05)
(1.25287e-06 0.000913514 -9.09497e-05)
(2.21412e-06 0.000912662 -8.87331e-05)
(2.98456e-06 0.000910874 -8.60352e-05)
(3.53048e-06 0.00090775 -8.29509e-05)
(3.82213e-06 0.000902688 -7.95778e-05)
(3.85608e-06 0.000894999 -7.60232e-05)
(3.63296e-06 0.000883727 -7.23823e-05)
(3.17714e-06 0.000867733 -6.87399e-05)
(2.5229e-06 0.000845477 -6.51441e-05)
(1.73301e-06 0.000815052 -6.15952e-05)
(8.77913e-07 0.000773895 -5.80241e-05)
(6.67619e-08 0.000718733 -5.42666e-05)
(-5.41943e-07 0.00064517 -5.0004e-05)
(-7.62741e-07 0.000547462 -4.43792e-05)
(-9.64185e-07 0.000334583 -3.02771e-05)
(1.03822e-06 0.000349938 -3.60251e-05)
(6.67232e-07 0.000571008 -5.26569e-05)
(3.32702e-07 0.00067268 -5.90998e-05)
(-5.03845e-07 0.000749056 -6.39012e-05)
(-1.60136e-06 0.000806188 -6.80757e-05)
(-2.76537e-06 0.000848654 -7.19665e-05)
(-3.87905e-06 0.000879943 -7.57663e-05)
(-4.85633e-06 0.0009027 -7.95575e-05)
(-5.63429e-06 0.000918991 -8.33593e-05)
(-6.16124e-06 0.00093039 -8.71239e-05)
(-6.41692e-06 0.000938161 -9.07772e-05)
(-6.3823e-06 0.000943264 -9.4218e-05)
(-6.06651e-06 0.000946488 -9.73472e-05)
(-5.49076e-06 0.000948418 -0.000100059)
(-4.68778e-06 0.000949538 -0.000102267)
(-3.69868e-06 0.00095017 -0.000103888)
(-2.57897e-06 0.000950573 -0.00010487)
(-1.38325e-06 0.000950864 -0.000105172)
(-1.71367e-07 0.000951105 -0.000104786)
(9.95609e-07 0.000951227 -0.000103722)
(2.06176e-06 0.000951105 -0.000102018)
(2.97269e-06 0.000950473 -9.97294e-05)
(3.68418e-06 0.000949001 -9.6938e-05)
(4.15887e-06 0.000946196 -9.37317e-05)
(4.37791e-06 0.000941468 -9.02158e-05)
(4.33086e-06 0.00093402 -8.64897e-05)
(4.02309e-06 0.000922884 -8.26538e-05)
(3.47658e-06 0.000906788 -7.87803e-05)
(2.73917e-06 0.000884149 -7.49158e-05)
(1.86331e-06 0.000852894 -7.10381e-05)
(9.38563e-07 0.000810366 -6.70587e-05)
(6.48833e-08 0.000753065 -6.27602e-05)
(-5.74658e-07 0.000676398 -5.77499e-05)
(-7.78535e-07 0.000574295 -5.10498e-05)
(-1.05516e-06 0.000351594 -3.44528e-05)
(8.79947e-07 0.000369183 -3.42327e-05)
(3.97524e-07 0.000600372 -4.96379e-05)
(4.68135e-08 0.000706584 -5.56426e-05)
(-7.99717e-07 0.000786203 -6.01884e-05)
(-1.86238e-06 0.000845546 -6.4202e-05)
(-2.96936e-06 0.000889457 -6.79989e-05)
(-4.00988e-06 0.00092157 -7.17412e-05)
(-4.90948e-06 0.000944711 -7.55034e-05)
(-5.60459e-06 0.000961031 -7.92878e-05)
(-6.05463e-06 0.000972232 -8.3048e-05)
(-6.22949e-06 0.000979629 -8.66987e-05)
(-6.12358e-06 0.000984279 -9.01452e-05)
(-5.74352e-06 0.000986998 -9.32789e-05)
(-5.11006e-06 0.000988448 -9.60022e-05)
(-4.25602e-06 0.000989119 -9.82188e-05)
(-3.22694e-06 0.000989396 -9.9856e-05)
(-2.07106e-06 0.000989525 -0.000100851)
(-8.46765e-07 0.00098967 -0.000101173)
(3.8718e-07 0.000989867 -0.000100806)
(1.57355e-06 0.000990074 -9.97644e-05)
(2.65308e-06 0.000990125 -9.80818e-05)
(3.57456e-06 0.000989767 -9.58196e-05)
(4.29123e-06 0.000988611 -9.3051e-05)
(4.77193e-06 0.000986162 -8.98718e-05)
(4.99259e-06 0.000981753 -8.638e-05)
(4.94514e-06 0.000974565 -8.26835e-05)
(4.63167e-06 0.000963533 -7.88768e-05)
(4.08032e-06 0.000947341 -7.50439e-05)
(3.32849e-06 0.000924281 -7.123e-05)
(2.43351e-06 0.000892196 -6.74312e-05)
(1.46917e-06 0.000848256 -6.35683e-05)
(5.42385e-07 0.000788818 -5.94633e-05)
(-1.85425e-07 0.000709033 -5.47677e-05)
(-4.60184e-07 0.000602572 -4.85793e-05)
(-8.88969e-07 0.000370122 -3.31654e-05)
(5.39984e-07 0.000387082 -2.88797e-05)
(-1.05193e-07 0.000626615 -4.03926e-05)
(-5.74478e-07 0.000736582 -4.47731e-05)
(-1.50394e-06 0.000818862 -4.82546e-05)
(-2.57929e-06 0.000880022 -5.15609e-05)
(-3.64806e-06 0.00092508 -5.48621e-05)
(-4.6254e-06 0.000957837 -5.82442e-05)
(-5.4405e-06 0.000981225 -6.17285e-05)
(-6.04327e-06 0.000997511 -6.52939e-05)
(-6.39468e-06 0.00100847 -6.88702e-05)
(-6.47306e-06 0.00101549 -7.2369e-05)
(-6.27328e-06 0.00101968 -7.56836e-05)
(-5.80558e-06 0.00102193 -7.871e-05)
(-5.08918e-06 0.00102291 -8.13435e-05)
(-4.15902e-06 0.00102318 -8.34952e-05)
(-3.05974e-06 0.00102313 -8.50865e-05)
(-1.83985e-06 0.00102304 -8.60624e-05)
(-5.53831e-07 0.00102306 -8.63851e-05)
(7.37921e-07 0.00102326 -8.60449e-05)
(1.97737e-06 0.00102358 -8.50515e-05)
(3.10923e-06 0.00102385 -8.34423e-05)
(4.08311e-06 0.00102379 -8.12719e-05)
(4.85579e-06 0.001023 -7.86188e-05)
(5.38947e-06 0.00102093 -7.5572e-05)
(5.66502e-06 0.0010169 -7.22354e-05)
(5.66981e-06 0.00101001 -6.87132e-05)
(5.41001e-06 0.000999174 -6.51107e-05)
(4.90066e-06 0.000982977 -6.15163e-05)
(4.17915e-06 0.000959649 -5.79983e-05)
(3.29939e-06 0.000926918 -5.45768e-05)
(2.3252e-06 0.000881851 -5.12272e-05)
(1.33768e-06 0.000820643 -4.78514e-05)
(4.8476e-07 0.000738273 -4.42553e-05)
(6.55711e-08 0.000628167 -3.97315e-05)
(-5.45575e-07 0.000387589 -2.81742e-05)
(1.36987e-07 0.000402074 -2.19103e-05)
(-6.75908e-07 0.000647453 -2.81945e-05)
(-1.30913e-06 0.000760035 -3.03392e-05)
(-2.35602e-06 0.000844143 -3.23372e-05)
(-3.46556e-06 0.000906499 -3.46389e-05)
(-4.51179e-06 0.000952261 -3.72259e-05)
(-5.43048e-06 0.000985331 -4.00707e-05)
(-6.16856e-06 0.00100874 -4.31338e-05)
(-6.67854e-06 0.00102482 -4.63526e-05)
(-6.93135e-06 0.00103542 -4.96373e-05)
(-6.91039e-06 0.00104198 -5.28831e-05)
(-6.61218e-06 0.00104568 -5.59808e-05)
(-6.04841e-06 0.00104742 -5.88211e-05)
(-5.24404e-06 0.00104793 -6.13023e-05)
(-4.22951e-06 0.00104779 -6.33339e-05)
(-3.04911e-06 0.00104742 -6.48417e-05)
(-1.7538e-06 0.00104711 -6.57691e-05)
(-3.96605e-07 0.00104704 -6.60823e-05)
(9.65388e-07 0.00104726 -6.5769e-05)
(2.27547e-06 0.00104772 -6.48413e-05)
(3.47765e-06 0.00104824 -6.33327e-05)
(4.52391e-06 0.00104853 -6.12992e-05)
(5.36884e-06 0.00104814 -5.88148e-05)
(5.97795e-06 0.00104653 -5.59698e-05)
(6.32974e-06 0.00104294 -5.28654e-05)
(6.41073e-06 0.00103647 -4.96105e-05)
(6.2209e-06 0.00102596 -4.63138e-05)
(5.77822e-06 0.00100994 -4.3079e-05)
(5.10975e-06 0.00098658 -3.99951e-05)
(4.25833e-06 0.000953536 -3.71231e-05)
(3.27789e-06 0.000907779 -3.44994e-05)
(2.23243e-06 0.000845404 -3.21424e-05)
(1.24255e-06 0.000761253 -3.00523e-05)
(6.47162e-07 0.000648602 -2.77883e-05)
(-1.44554e-07 0.000402311 -2.14414e-05)
(-2.42409e-07 0.000413404 -1.50886e-05)
(-1.18237e-06 0.000662017 -1.60797e-05)
(-1.97797e-06 0.000776022 -1.594e-05)
(-3.14081e-06 0.000861062 -1.64057e-05)
(-4.28697e-06 0.000923956 -1.76578e-05)
(-5.32117e-06 0.000969924 -1.94843e-05)
(-6.19299e-06 0.00100294 -2.17449e-05)
(-6.86377e-06 0.00102609 -2.43381e-05)
(-7.29666e-06 0.00104177 -2.71621e-05)
(-7.4646e-06 0.00105186 -3.0106e-05)
(-7.35595e-06 0.00105786 -3.3053e-05)
(-6.97074e-06 0.00106097 -3.58895e-05)
(-6.32374e-06 0.00106215 -3.85039e-05)
(-5.43869e-06 0.00106215 -4.07975e-05)
(-4.34739e-06 0.00106158 -4.26802e-05)
(-3.09603e-06 0.00106088 -4.40814e-05)