/*--------------------------------*- C++ -*----------------------------------*\
| =========                 |                                                 |
| \\      /  F ield         | OpenFOAM: The Open Source CFD Toolbox           |
|  \\    /   O peration     | Version:  v2006                                 |
|   \\  /    A nd           | Website:  www.openfoam.com                      |
|    \\/     M anipulation  |                                                 |
\*---------------------------------------------------------------------------*/
FoamFile
{
    version     2.0;
    format      ascii;
    class       volVectorField;
    location    "40";
    object      U;
}
// * * * * * * * * * * * * * * * * * * * * * * * * * * * * * * * * * * * * * //

dimensions      [0 1 -1 0 0 0 0];


internalField   nonuniform List<vector> 
78750
(
(-0.423843 -0.255171 -0.0790244)
(-0.361668 -0.242898 -0.0724981)
(-0.354283 -0.215608 -0.0578922)
(-0.278563 -0.184751 -0.0371676)
(-0.217035 -0.163162 -0.0250209)
(-0.234017 -0.149985 -0.0226447)
(-0.182501 -0.138283 -0.0168868)
(-0.173464 -0.128961 -0.0151703)
(-0.145555 -0.119912 -0.0116618)
(-0.128712 -0.112318 -0.00944159)
(-0.11115 -0.105294 -0.00723421)
(-0.0960214 -0.0989273 -0.00533419)
(-0.0822563 -0.0931035 -0.00367418)
(-0.0698171 -0.0877663 -0.00224828)
(-0.0585072 -0.0828588 -0.00104438)
(-0.0481857 -0.0783382 -5.20455e-05)
(-0.0387389 -0.0741694 0.000738046)
(-0.0300695 -0.070325 0.00133557)
(-0.0220988 -0.0667824 0.00174973)
(-0.0147719 -0.0635234 0.00199109)
(-0.00803808 -0.0605399 0.00205194)
(-0.00182765 -0.0577827 0.00193283)
(0.00392535 -0.0551684 0.00160655)
(0.0092108 -0.0526322 0.0010187)
(0.0140216 -0.0501142 0.000131771)
(0.0183694 -0.0475267 -0.00107989)
(0.022223 -0.0447602 -0.0026504)
(0.0255197 -0.0416782 -0.00462762)
(0.0281641 -0.0381086 -0.00707383)
(0.0300227 -0.0338368 -0.0100533)
(0.0309119 -0.0286187 -0.0135862)
(0.0303408 -0.0222079 -0.0175127)
(0.0283688 -0.0141031 -0.0214422)
(0.0254463 0.000135571 -0.0250454)
(0.0133371 0.0458656 -0.014054)
(0.0517333 -0.256298 -0.0193254)
(-0.0564807 -0.264754 -0.0467109)
(-0.0177316 -0.305887 -0.0631171)
(-0.0363653 -0.317518 -0.0705298)
(-0.0468893 -0.278489 -0.0685418)
(-0.044208 -0.241304 -0.0647074)
(-0.0469051 -0.215699 -0.0622924)
(-0.0444655 -0.194197 -0.0596416)
(-0.0429574 -0.176391 -0.0573987)
(-0.0405128 -0.161783 -0.0552737)
(-0.0377376 -0.149474 -0.053203)
(-0.0345892 -0.138769 -0.051149)
(-0.0311899 -0.129324 -0.0491231)
(-0.027604 -0.120919 -0.047139)
(-0.0238741 -0.113362 -0.0452033)
(-0.0200432 -0.106501 -0.0433204)
(-0.0161523 -0.100216 -0.0414912)
(-0.0122491 -0.0944121 -0.0397134)
(-0.00838439 -0.088992 -0.0379741)
(-0.00455467 -0.0838317 -0.0362505)
(-0.000811548 -0.0789246 -0.0345524)
(0.00275605 -0.0743501 -0.0329203)
(0.00612229 -0.0700842 -0.031365)
(0.00926565 -0.0660144 -0.0298725)
(0.0121566 -0.0619958 -0.0284247)
(0.0147609 -0.0578555 -0.0270035)
(0.0170432 -0.0533873 -0.025593)
(0.0189657 -0.0483484 -0.0241822)
(0.0204897 -0.0424567 -0.0227646)
(0.0215273 -0.0354246 -0.0213443)
(0.0219752 -0.0268934 -0.0198627)
(0.021857 -0.0145715 -0.0177908)
(0.0203837 0.00967331 -0.0142807)
(0.0162012 0.0684065 -0.00970894)
(0.00617924 0.176094 -0.00153801)
(-0.0199392 -0.03869 8.01707e-06)
(-0.0201358 -0.112857 -0.0241351)
(-0.0362331 -0.144486 -0.0347215)
(-0.0431091 -0.166023 -0.0420982)
(-0.0483237 -0.184233 -0.0469542)
(-0.0505581 -0.192089 -0.0489171)
(-0.0504788 -0.191025 -0.0488663)
(-0.0488643 -0.183651 -0.0477669)
(-0.0460267 -0.174569 -0.0464776)
(-0.0427836 -0.167089 -0.0453108)
(-0.0391373 -0.160204 -0.044043)
(-0.0351999 -0.15346 -0.0426415)
(-0.0311365 -0.146948 -0.0411692)
(-0.0270208 -0.140703 -0.039676)
(-0.0228856 -0.134695 -0.038202)
(-0.0187788 -0.128893 -0.0367862)
(-0.0147411 -0.123241 -0.0354447)
(-0.0107926 -0.117688 -0.0341901)
(-0.00694716 -0.112189 -0.0330305)
(-0.00321062 -0.106689 -0.0319656)
(0.000408552 -0.101129 -0.0309892)
(0.00386787 -0.0955221 -0.0301137)
(0.007113 -0.0898792 -0.0293415)
(0.0101106 -0.0841495 -0.0286509)
(0.0128205 -0.0782556 -0.0280089)
(0.0152041 -0.0720981 -0.0273743)
(0.0172301 -0.0655557 -0.0266976)
(0.0188737 -0.0584865 -0.0259178)
(0.0200374 -0.050745 -0.0249596)
(0.0206145 -0.0421037 -0.0237258)
(0.0205542 -0.0310083 -0.0217603)
(0.0196129 -0.0133928 -0.0181869)
(0.0168844 0.0206001 -0.0117068)
(0.0116458 0.0962645 -0.00142106)
(0.00373379 0.216059 0.00870424)
(0.00205907 -0.0802477 -0.0122412)
(0.0053679 -0.159336 -0.0314297)
(0.0074693 -0.198263 -0.0412483)
(0.00800023 -0.215144 -0.0461867)
(0.00769651 -0.221755 -0.0492461)
(0.00658867 -0.222568 -0.0514869)
(0.00492288 -0.219178 -0.053331)
(0.00313655 -0.213124 -0.0548649)
(0.00156667 -0.206058 -0.0559865)
(0.000348373 -0.198597 -0.0566723)
(-0.000597025 -0.191001 -0.0569645)
(-0.00129297 -0.183348 -0.0568804)
(-0.00170731 -0.175652 -0.0564364)
(-0.00181191 -0.167947 -0.0556708)
(-0.0015906 -0.160271 -0.0546458)
(-0.00103964 -0.152654 -0.0534416)
(-0.000169046 -0.145098 -0.0521454)
(0.00100048 -0.137587 -0.0508384)
(0.00244108 -0.130083 -0.0495877)
(0.00411784 -0.122539 -0.0484411)
(0.00598758 -0.114889 -0.047423)
(0.00798499 -0.107093 -0.0465321)
(0.0100414 -0.0991503 -0.0457705)
(0.0121068 -0.0910204 -0.0451218)
(0.014134 -0.0826307 -0.0445537)
(0.0160729 -0.0738851 -0.0440261)
(0.0178512 -0.0646827 -0.0435011)
(0.019338 -0.0549028 -0.0429341)
(0.0204353 -0.0438894 -0.0421528)
(0.0209669 -0.0302529 -0.0408385)
(0.0206651 -0.0117299 -0.0385901)
(0.0190713 0.0162388 -0.0346416)
(0.0153516 0.0648431 -0.0274378)
(0.00926144 0.152959 -0.0149497)
(0.00184548 0.257656 0.00191905)
(0.00159213 -0.100084 -0.000584626)
(0.00469465 -0.155602 -0.00598092)
(0.00687015 -0.172661 -0.0111895)
(0.00858055 -0.179913 -0.0156318)
(0.00990657 -0.182763 -0.019259)
(0.0109549 -0.183102 -0.0221381)
(0.0117246 -0.182113 -0.0244017)
(0.0121928 -0.18054 -0.0262177)
(0.0123741 -0.178614 -0.0277675)
(0.012285 -0.17632 -0.0291985)
(0.0119254 -0.173723 -0.0306503)
(0.0113155 -0.170942 -0.0322042)
(0.0104979 -0.167964 -0.0338649)
(0.00950795 -0.16471 -0.0355825)
(0.00838917 -0.161069 -0.0372596)
(0.00720317 -0.15695 -0.0387919)
(0.00603762 -0.152285 -0.0401097)
(0.00499387 -0.147044 -0.0411919)
(0.00417437 -0.141222 -0.0420697)
(0.00366349 -0.134832 -0.0428121)
(0.00351473 -0.127889 -0.0434963)
(0.00374249 -0.120398 -0.0441799)
(0.00433089 -0.112362 -0.044891)
(0.00524419 -0.103801 -0.0456283)
(0.00643438 -0.0947414 -0.0463635)
(0.00783575 -0.0850654 -0.0470386)
(0.00936829 -0.0743771 -0.0475771)
(0.0109089 -0.0620581 -0.0478614)
(0.0123146 -0.0472262 -0.0477292)
(0.0134007 -0.0283632 -0.0468715)
(0.0138995 -0.00259469 -0.0446656)
(0.0133807 0.0362145 -0.0398162)
(0.0109348 0.100832 -0.030253)
(0.00653347 0.200354 -0.0165787)
(0.000822426 0.289063 -0.00105769)
(4.89617e-05 -0.118607 -0.00679172)
(0.00202043 -0.176078 -0.0260343)
(0.00449856 -0.189766 -0.0355842)
(0.00731106 -0.192621 -0.0408763)
(0.0105183 -0.191093 -0.0440843)
(0.0138786 -0.187446 -0.0458111)
(0.0171848 -0.18286 -0.046322)
(0.0203009 -0.177982 -0.0458243)
(0.0231184 -0.173178 -0.0445256)
(0.0255616 -0.168643 -0.0426444)
(0.027574 -0.164473 -0.0403707)
(0.0291196 -0.160679 -0.0379103)
(0.0301802 -0.157208 -0.0354691)
(0.0307578 -0.153963 -0.033227)
(0.0308828 -0.150807 -0.0313217)
(0.0306073 -0.147556 -0.0298058)
(0.0299714 -0.144118 -0.0287473)
(0.029032 -0.140494 -0.0282499)
(0.0278598 -0.136627 -0.0283648)
(0.0265284 -0.132392 -0.0291006)
(0.0251127 -0.127647 -0.0304235)
(0.023687 -0.122256 -0.0322621)
(0.0223172 -0.116102 -0.0345105)
(0.021058 -0.109122 -0.0370362)
(0.0199651 -0.10131 -0.0396853)
(0.0190714 -0.0924541 -0.0423272)
(0.018401 -0.0820372 -0.0448871)
(0.017931 -0.0693842 -0.0473203)
(0.0176324 -0.0534024 -0.0495855)
(0.017388 -0.0320902 -0.0515297)
(0.0169888 -0.00150096 -0.0526284)
(0.0158634 0.0469719 -0.0511295)
(0.012464 0.128935 -0.042232)
(0.00725816 0.241631 -0.0246615)
(0.00118824 0.316898 -0.00465207)
(0.000652376 -0.116627 -0.0305431)
(0.00213001 -0.167449 -0.0536325)
(0.00409089 -0.179311 -0.0608743)
(0.00608118 -0.181665 -0.0641812)
(0.00829403 -0.1798 -0.066065)
(0.0106537 -0.175608 -0.0671329)
(0.0131053 -0.170216 -0.0676025)
(0.0156117 -0.164338 -0.0675638)
(0.0181315 -0.158406 -0.06705)
(0.0206131 -0.152665 -0.0660713)
(0.0229995 -0.147244 -0.0646378)
(0.0252326 -0.142202 -0.0627698)
(0.0272592 -0.137552 -0.0605055)
(0.0290323 -0.133276 -0.057906)
(0.0305144 -0.129327 -0.0550553)
(0.0316798 -0.125635 -0.0520587)
(0.0325097 -0.122126 -0.0490266)
(0.0329941 -0.118702 -0.0460902)
(0.0331364 -0.115222 -0.0433255)
(0.0329377 -0.111595 -0.0408339)
(0.0324083 -0.107777 -0.0388)
(0.0315782 -0.103657 -0.0373886)
(0.0304881 -0.0990828 -0.0367147)
(0.0291807 -0.0938766 -0.0368275)
(0.027688 -0.0878671 -0.0376943)
(0.0260489 -0.0809318 -0.0391942)
(0.0244247 -0.0729758 -0.0411083)
(0.0228668 -0.063047 -0.0432179)
(0.0213229 -0.04909 -0.0454553)
(0.019867 -0.0282982 -0.0478135)
(0.0183974 0.00482695 -0.0501252)
(0.0164817 0.062202 -0.0512662)
(0.0124088 0.160934 -0.0464484)
(0.0067832 0.281808 -0.0317357)
(0.00076153 0.342312 -0.010614)
(-0.000191683 -0.115446 -0.0289199)
(0.00122855 -0.168828 -0.0474175)
(0.00375891 -0.180702 -0.053941)
(0.00638793 -0.182357 -0.0574693)
(0.00922993 -0.179574 -0.0599345)
(0.0120774 -0.174356 -0.0617303)
(0.0148478 -0.167887 -0.0629736)
(0.0175344 -0.1609 -0.0637284)
(0.0201319 -0.153841 -0.0640436)
(0.0226265 -0.146964 -0.0639602)
(0.0250008 -0.140407 -0.0635134)
(0.0272358 -0.134231 -0.0627337)
(0.0293104 -0.128454 -0.0616504)
(0.0312005 -0.123064 -0.0602963)
(0.0328733 -0.118018 -0.0587091)
(0.0343019 -0.113232 -0.0569003)
(0.0354602 -0.108636 -0.0548843)
(0.0363125 -0.104223 -0.0527417)
(0.0368399 -0.0999694 -0.0505946)
(0.0370368 -0.0958144 -0.048561)
(0.0369034 -0.0916567 -0.0467631)
(0.0364438 -0.0873623 -0.045324)
(0.0356707 -0.0827721 -0.0443592)
(0.0346013 -0.0777118 -0.0439618)
(0.0332503 -0.0719986 -0.0441835)
(0.0316147 -0.0654605 -0.0450139)
(0.0297567 -0.0579296 -0.0463602)
(0.0277922 -0.0487259 -0.0480309)
(0.0256303 -0.0359985 -0.049845)
(0.0232352 -0.0161689 -0.0517071)
(0.0206245 0.0176984 -0.0534362)
(0.0175839 0.0824311 -0.0540666)
(0.0127475 0.201535 -0.0493915)
(0.00694611 0.331777 -0.0355859)
(0.00103632 0.373575 -0.0143387)
(0.000319049 -0.110642 -0.0237914)
(0.00169417 -0.161315 -0.0420826)
(0.00355812 -0.17265 -0.0494403)
(0.00558576 -0.174218 -0.0538301)
(0.00798391 -0.171399 -0.0571309)
(0.0106095 -0.16608 -0.0596985)
(0.0133632 -0.159371 -0.061637)
(0.0161807 -0.151979 -0.0630067)
(0.0189992 -0.144351 -0.0638604)
(0.0217566 -0.136778 -0.0642512)
(0.0243965 -0.12945 -0.0642307)
(0.0268732 -0.122478 -0.0638453)
(0.02915 -0.115921 -0.0631382)
(0.0311957 -0.109795 -0.0621523)
(0.0329753 -0.104078 -0.0609336)
(0.0344673 -0.0986913 -0.0594955)
(0.0356559 -0.0935677 -0.0578332)
(0.0365095 -0.0887177 -0.0560069)
(0.0370049 -0.0841445 -0.0541344)
(0.0371361 -0.0797851 -0.0523435)
(0.0369048 -0.0755283 -0.0507693)
(0.0363228 -0.0712249 -0.0495475)
(0.0354148 -0.0666986 -0.0488052)
(0.0342068 -0.0617581 -0.0486475)
(0.03272 -0.0562038 -0.0491303)
(0.030957 -0.0498432 -0.0502384)
(0.0289739 -0.0424842 -0.0518728)
(0.0268804 -0.0335304 -0.0538443)
(0.0245907 -0.0210443 -0.0559596)
(0.0219432 -0.00103666 -0.0579942)
(0.0189845 0.0338253 -0.0593115)
(0.0155204 0.101515 -0.0581052)
(0.0104211 0.227693 -0.051742)
(0.00505942 0.36075 -0.0385533)
(0.000304642 0.389378 -0.0171952)
(0.000519664 -0.106252 -0.024831)
(0.00118729 -0.149509 -0.0412925)
(0.00194554 -0.159153 -0.0474193)
(0.00289643 -0.160934 -0.0512711)
(0.00428028 -0.159029 -0.0543834)
(0.006076 -0.154829 -0.0569891)
(0.00821963 -0.149142 -0.0591417)
(0.0106398 -0.142508 -0.0608688)
(0.0132621 -0.135307 -0.0621944)
(0.0160124 -0.127799 -0.0631421)
(0.0188177 -0.12018 -0.0637372)
(0.021608 -0.112608 -0.0640064)
(0.0243186 -0.1052 -0.0639762)
(0.0268871 -0.098045 -0.0636728)
(0.0292365 -0.0911937 -0.0631214)
(0.0313221 -0.0846186 -0.0623248)
(0.0331096 -0.078303 -0.0612514)
(0.0345447 -0.0723142 -0.0599173)
(0.0355808 -0.066713 -0.0583968)
(0.0361866 -0.0614927 -0.0567923)
(0.0363359 -0.0565836 -0.0552332)
(0.0360176 -0.051856 -0.0538742)
(0.0352401 -0.0471299 -0.0528891)
(0.0340154 -0.0421906 -0.0524498)
(0.0323585 -0.036803 -0.0526854)
(0.0302657 -0.0307333 -0.0536588)
(0.0278677 -0.0237249 -0.0553391)
(0.0252353 -0.014875 -0.0576144)
(0.0222635 -0.00189269 -0.0604794)
(0.0189575 0.0195 -0.0639734)
(0.0155488 0.0582529 -0.0672637)
(0.0122037 0.135628 -0.0662316)
(0.00831777 0.27677 -0.0553879)
(0.00445598 0.404374 -0.0411239)
(0.000602685 0.412378 -0.0201608)
(0.000954088 -0.100816 -0.0202289)
(0.00145635 -0.139292 -0.0320321)
(0.00152553 -0.148428 -0.0368172)
(0.00169492 -0.150392 -0.040061)
(0.00220343 -0.148789 -0.0428508)
(0.00312356 -0.144887 -0.0453509)
(0.00442021 -0.139466 -0.0475886)
(0.00603828 -0.133071 -0.0495667)
(0.00792724 -0.126075 -0.051288)
(0.0100412 -0.118725 -0.0527577)
(0.0123377 -0.111175 -0.0539794)
(0.0147737 -0.103518 -0.054955)
(0.0172898 -0.0958343 -0.0556959)
(0.019802 -0.088184 -0.0562305)
(0.0222662 -0.080531 -0.0565456)
(0.024641 -0.0729005 -0.0566175)
(0.0268472 -0.0654301 -0.0564486)
(0.0288325 -0.0582199 -0.0560484)
(0.0305436 -0.0513335 -0.0554442)
(0.0319238 -0.0447942 -0.0546836)
(0.032918 -0.0385824 -0.0538401)
(0.0334785 -0.0326351 -0.0530185)
(0.0335719 -0.0268452 -0.0523558)
(0.0331731 -0.0210624 -0.0520137)
(0.03226 -0.0151013 -0.0521554)
(0.0307982 -0.00875733 -0.0529178)
(0.0288391 -0.00179099 -0.054381)
(0.026432 0.00658932 -0.0565331)
(0.0234951 0.018206 -0.059478)
(0.0199756 0.0364747 -0.0636151)
(0.0159462 0.0692394 -0.0690909)
(0.0114769 0.136784 -0.0723338)
(0.00669625 0.270633 -0.0609564)
(0.00343359 0.406928 -0.0401504)
(0.00051307 0.41352 -0.0168848)
(0.00121852 -0.104173 -0.0123107)
(0.00187414 -0.13909 -0.0202114)
(0.00178393 -0.146979 -0.0233834)
(0.00173311 -0.14846 -0.0254628)
(0.00192208 -0.146556 -0.0273364)
(0.00241506 -0.142311 -0.0291952)
(0.00315908 -0.136427 -0.0310593)
(0.00409701 -0.129461 -0.032889)
(0.00521224 -0.121824 -0.0346467)
(0.0064912 -0.113814 -0.0363065)
(0.00791312 -0.105618 -0.037853)
(0.00945603 -0.0972928 -0.0392761)
(0.0111236 -0.0887632 -0.0405622)
(0.0129058 -0.080046 -0.0416937)
(0.0147642 -0.0712804 -0.0426631)
(0.0166668 -0.0625745 -0.0434535)
(0.0185754 -0.0540106 -0.0440499)
(0.0204405 -0.0456499 -0.044447)
(0.0222013 -0.0375321 -0.0446548)
(0.0237902 -0.0296722 -0.0447028)
(0.0251392 -0.022055 -0.0446429)
(0.0261854 -0.0146336 -0.0445523)
(0.0268764 -0.00732756 -0.0445333)
(0.0271633 -2.43196e-05 -0.0447109)
(0.0270008 0.00741891 -0.0452191)
(0.0263641 0.0151686 -0.0461825)
(0.0252596 0.0235937 -0.0476721)
(0.0236586 0.0338978 -0.049708)
(0.0214605 0.0483375 -0.0525738)
(0.0186631 0.0708869 -0.0571113)
(0.0153205 0.110984 -0.0648467)
(0.0116185 0.189082 -0.0753359)
(0.0067736 0.322982 -0.0751006)
(0.00318024 0.4373 -0.0572229)
(0.000267355 0.43085 -0.0292501)
(0.00113637 -0.120814 0.000585482)
(0.00195721 -0.15639 -0.00291303)
(0.00233568 -0.163897 -0.00411088)
(0.00277245 -0.164647 -0.00469085)
(0.00336079 -0.161696 -0.00534021)
(0.0040558 -0.156175 -0.00629048)
(0.00480058 -0.148859 -0.00757095)
(0.00555955 -0.140356 -0.00911782)
(0.00631453 -0.131135 -0.0108403)
(0.00705506 -0.121525 -0.0126612)
(0.00777571 -0.11174 -0.0145327)
(0.00848983 -0.101899 -0.0164327)
(0.00922442 -0.0920541 -0.0183441)
(0.0100155 -0.0821542 -0.0202429)
(0.0109043 -0.0721396 -0.022108)
(0.0119162 -0.0620893 -0.023914)
(0.0130595 -0.0521265 -0.0256349)
(0.0143227 -0.0423067 -0.0272505)
(0.0156702 -0.0326601 -0.0287462)
(0.0170467 -0.0232033 -0.0301161)
(0.0183833 -0.0139377 -0.0313677)
(0.0196076 -0.00484757 -0.0325278)
(0.0206515 0.0041046 -0.0336506)
(0.0214566 0.0129755 -0.0348229)
(0.0219553 0.0218352 -0.0361501)
(0.0220593 0.0307776 -0.0377246)
(0.0216807 0.0403285 -0.0395764)
(0.0207089 0.0515047 -0.0417444)
(0.019015 0.065652 -0.0444017)
(0.0165271 0.0855809 -0.0479184)
(0.0131264 0.119297 -0.0530856)
(0.0090411 0.18953 -0.060372)
(0.0050803 0.325662 -0.0625134)
(0.00239427 0.443237 -0.0497703)
(0.000240355 0.431258 -0.0239749)
(-0.000216733 -0.14262 0.0117492)
(0.000594046 -0.189398 0.0119133)
(0.00185608 -0.19872 0.0120048)
(0.0033608 -0.19895 0.0123754)
(0.00498103 -0.194301 0.0128137)
(0.00649908 -0.186358 0.0131281)
(0.00783414 -0.176229 0.0131996)
(0.00896771 -0.164741 0.0129817)
(0.00990533 -0.152486 0.0124816)
(0.0106569 -0.139871 0.0117312)
(0.0112291 -0.127168 0.0107577)
(0.0116297 -0.114551 0.00956737)
(0.011874 -0.102132 0.00816039)
(0.0119954 -0.0899714 0.00654427)
(0.0120433 -0.0780759 0.00474302)
(0.0120727 -0.066418 0.00278605)
(0.0121397 -0.0549502 0.000696272)
(0.0122892 -0.0436135 -0.00150832)
(0.0125552 -0.0323503 -0.00381443)
(0.012958 -0.0211253 -0.0062119)
(0.0134828 -0.00993979 -0.00869093)
(0.0140922 0.00116443 -0.0112355)
(0.0147373 0.0121556 -0.0138309)
(0.0153559 0.0231659 -0.0164789)
(0.0158774 0.0345717 -0.0192155)
(0.0162111 0.0469322 -0.0221193)
(0.0162754 0.0610274 -0.025324)
(0.0159846 0.0780273 -0.0291251)
(0.0152457 0.0998941 -0.0341041)
(0.0139027 0.130241 -0.0413145)
(0.0116657 0.176055 -0.0523128)
(0.00817293 0.250516 -0.0670733)
(0.00365932 0.365803 -0.0758321)
(0.00117963 0.454954 -0.06689)
(-0.000396037 0.434363 -0.0397213)
(-0.000528546 -0.164739 0.0151964)
(0.000405529 -0.227473 0.015042)
(0.00201729 -0.240489 0.0150174)
(0.00400962 -0.241564 0.0159558)
(0.00622856 -0.236531 0.017596)
(0.00834116 -0.227417 0.019571)
(0.0101993 -0.21568 0.0215264)
(0.0117798 -0.202381 0.0232351)
(0.0131198 -0.188202 0.0246207)
(0.0142665 -0.173529 0.0256985)
(0.0152476 -0.158587 0.0264993)
(0.0160652 -0.143532 0.0270264)
(0.0167039 -0.128496 0.0272488)
(0.0171435 -0.113604 0.0271162)
(0.0173724 -0.0989682 0.0265801)
(0.0173947 -0.0846855 0.0256096)
(0.0172364 -0.0708013 0.0242006)
(0.0169434 -0.0573098 0.0223718)
(0.0165767 -0.0441699 0.0201538)
(0.0162014 -0.0313181 0.0175798)
(0.0158714 -0.0186733 0.0146824)
(0.0156123 -0.0061282 0.0114948)
(0.015414 0.00645007 0.00806105)
(0.0152339 0.0192303 0.00444073)
(0.0149997 0.0324438 0.000709531)
(0.0146012 0.0464219 -0.00305852)
(0.0139282 0.0616903 -0.00680673)
(0.0129094 0.0791944 -0.0105422)
(0.0114958 0.100924 -0.0144409)
(0.00961192 0.131487 -0.0190857)
(0.00714536 0.181525 -0.0259184)
(0.00424162 0.269685 -0.0366219)
(0.00156446 0.396368 -0.0459989)
(0.000362355 0.466863 -0.0429892)
(-9.88633e-06 0.436345 -0.0265847)
(-0.000617207 -0.177399 0.014613)
(0.000266737 -0.252518 0.00422322)
(0.0018865 -0.269314 0.0012069)
(0.00416988 -0.271096 0.00298293)
(0.00680518 -0.265201 0.00779292)
(0.0093059 -0.254257 0.0142665)
(0.0113335 -0.240446 0.0209607)
(0.012782 -0.225497 0.0267806)
(0.0137594 -0.21039 0.0313037)
(0.0144712 -0.195403 0.0346988)
(0.0150908 -0.180453 0.0373544)
(0.0157053 -0.165368 0.039595)
(0.0163263 -0.150026 0.0415947)
(0.0169205 -0.134384 0.043391)
(0.0174361 -0.11848 0.0449236)
(0.0178182 -0.102417 0.0460791)
(0.0180182 -0.0863435 0.0467301)
(0.018006 -0.0704421 0.04676)
(0.0177779 -0.0548651 0.046085)
(0.0173567 -0.0396565 0.0446603)
(0.0167861 -0.0247232 0.0424664)
(0.0161162 -0.00983896 0.0394846)
(0.0153854 0.00532658 0.0356795)
(0.0146188 0.0211712 0.0309957)
(0.0138208 0.0381469 0.0253726)
(0.0129598 0.05679 0.0187669)
(0.0119817 0.0778124 0.0111567)
(0.0108282 0.102303 0.00250348)
(0.00944484 0.132182 -0.00737125)
(0.00773848 0.171145 -0.0190313)
(0.00555505 0.226065 -0.0336166)
(0.00277526 0.306813 -0.051422)
(0.000333643 0.408665 -0.0641114)
(-0.000459146 0.460847 -0.0602771)
(-0.000589366 0.423945 -0.041008)
(-0.000573067 -0.191172 -0.00514992)
(0.000528225 -0.284369 -0.0429519)
(0.00287253 -0.306812 -0.0541268)
(0.00602007 -0.309655 -0.0528817)
(0.00986963 -0.302184 -0.0440621)
(0.0138272 -0.287018 -0.029742)
(0.0171736 -0.267058 -0.012777)
(0.0193327 -0.245888 0.00323691)
(0.0201896 -0.226339 0.0155293)
(0.0201442 -0.209265 0.0236663)
(0.019726 -0.194084 0.0288594)
(0.0193146 -0.179921 0.0324945)
(0.019091 -0.166113 0.0355173)
(0.0190834 -0.152237 0.038449)
(0.0192424 -0.138042 0.0415272)
(0.0194919 -0.123392 0.0448051)
(0.019749 -0.108249 0.0482076)
(0.0199284 -0.0926656 0.0515687)
(0.0199591 -0.0767675 0.054659)
(0.0197862 -0.0606731 0.0572518)
(0.0193856 -0.0444453 0.0591461)
(0.0187651 -0.0280427 0.0601692)
(0.0179538 -0.0112869 0.0601608)
(0.0169766 0.00614045 0.0589425)
(0.0158472 0.0246742 0.0562977)
(0.0145587 0.0448378 0.0519943)
(0.0130556 0.0672902 0.0458667)
(0.0112348 0.0930421 0.0379707)
(0.00898128 0.124224 0.0287379)
(0.00620501 0.166218 0.0190417)
(0.00296648 0.231299 0.00993366)
(-4.72654e-05 0.334958 0.000879277)
(-0.000949236 0.451832 -0.00876867)
(-0.000660596 0.49062 -0.0107809)
(8.00832e-05 0.442587 -0.00563119)
(-0.000458481 -0.196371 -0.0334158)
(0.000906403 -0.309382 -0.0989921)
(0.00330074 -0.33881 -0.117895)
(0.00635228 -0.34465 -0.119255)
(0.0102182 -0.338614 -0.110948)
(0.0147325 -0.321742 -0.0933128)
(0.019385 -0.294674 -0.0665886)
(0.0231895 -0.261204 -0.0344654)
(0.0251625 -0.228514 -0.00536896)
(0.0251867 -0.202169 0.0140754)
(0.0240215 -0.182657 0.0242545)
(0.0224532 -0.167517 0.0289836)
(0.02095 -0.154448 0.0312606)
(0.019686 -0.142137 0.0326724)
(0.0187078 -0.129925 0.0340252)
(0.017992 -0.117466 0.0357553)
(0.0174683 -0.10458 0.0380869)
(0.017059 -0.0911899 0.0410948)
(0.016692 -0.0772881 0.0447347)
(0.0162631 -0.0628967 0.048875)
(0.0156812 -0.0479951 0.0532567)
(0.0149194 -0.0324398 0.0576028)
(0.0139801 -0.0158854 0.0616271)
(0.0128987 0.00222713 0.0649884)
(0.0116934 0.0226517 0.0672008)
(0.0103893 0.0463596 0.0675237)
(0.00904612 0.0745668 0.0648314)
(0.00768571 0.108745 0.0574803)
(0.00626769 0.150528 0.0433515)
(0.00466058 0.201269 0.0208484)
(0.00264072 0.26199 -0.00729807)
(0.00027866 0.336077 -0.0292157)
(-0.000419767 0.416137 -0.033696)
(4.01959e-05 0.448686 -0.0287208)
(-5.16554e-05 0.408153 -0.0175627)
(0.00173149 -0.225473 -0.0623547)
(0.00367582 -0.348284 -0.128413)
(0.00516054 -0.378805 -0.144896)
(0.00665716 -0.385573 -0.147609)
(0.00838668 -0.38233 -0.144415)
(0.0106675 -0.370093 -0.134629)
(0.0137303 -0.346094 -0.113877)
(0.017476 -0.308527 -0.0785764)
(0.0208342 -0.262702 -0.0342523)
(0.0224057 -0.219197 0.00451275)
(0.0221173 -0.186062 0.027581)
(0.0209873 -0.163489 0.0374258)
(0.0197623 -0.147204 0.0406262)
(0.0187412 -0.133764 0.0411103)
(0.0179865 -0.121404 0.0405669)
(0.0174865 -0.109323 0.039769)
(0.0172022 -0.0971917 0.0391806)
(0.0170571 -0.084902 0.0391285)
(0.016972 -0.0724459 0.0398359)
(0.0168789 -0.0598141 0.0414286)
(0.0167281 -0.0469389 0.0439553)
(0.0164912 -0.0336952 0.0474048)
(0.0161464 -0.0198586 0.051713)
(0.0156417 -0.00505389 0.0567966)
(0.0149444 0.011352 0.0625123)
(0.0140991 0.0303112 0.0686677)
(0.0131366 0.0532701 0.074929)
(0.0121 0.0825481 0.0806296)
(0.0110306 0.122194 0.0843015)
(0.00995646 0.179468 0.0823841)
(0.00882434 0.26451 0.0672843)
(0.00690535 0.377362 0.0334663)
(0.003826 0.477347 0.00150743)
(0.00199149 0.507899 -0.00763466)
(0.000881713 0.453335 -0.00472733)
(0.00327258 -0.255667 -0.0769339)
(0.00381056 -0.362271 -0.114791)
(0.00396588 -0.383334 -0.120811)
(0.00353781 -0.385347 -0.121662)
(0.00264335 -0.378922 -0.120736)
(0.00149628 -0.365981 -0.116722)
(0.000563255 -0.34607 -0.105888)
(0.000734772 -0.316346 -0.0825467)
(0.00242611 -0.276269 -0.0444613)
(0.00440906 -0.231543 -0.00111041)
(0.00526481 -0.191806 0.0312718)
(0.0051354 -0.16335 0.0471672)
(0.0047634 -0.143955 0.0529663)
(0.00447678 -0.129011 0.0544175)
(0.00437331 -0.115693 0.0539269)
(0.00446348 -0.102668 0.0524243)
(0.00470153 -0.0894868 0.0503961)
(0.00504448 -0.0761831 0.048292)
(0.00542966 -0.0628663 0.0465014)
(0.00579458 -0.0496103 0.0453059)
(0.00608517 -0.0364688 0.0448626)
(0.0062636 -0.0233837 0.0452012)
(0.00630806 -0.00991631 0.0462728)
(0.00619677 0.00463284 0.0479991)
(0.00590707 0.0210206 0.050223)
(0.00541588 0.0402637 0.0526476)
(0.00469695 0.0638253 0.0547404)
(0.00368566 0.0937244 0.055712)
(0.00227802 0.132654 0.0547688)
(0.000433024 0.184774 0.051916)
(-0.00151071 0.258196 0.0480597)
(-0.00242672 0.360188 0.0405659)
(-0.00205399 0.456953 0.0282894)
(-0.00155122 0.485726 0.022807)
(-0.000632385 0.429019 0.0200784)
(0.00218584 -0.299157 -0.0429881)
(0.00138107 -0.401971 -0.0574511)
(0.000388715 -0.416857 -0.06305)
(-0.00118548 -0.411818 -0.068079)
(-0.003579 -0.395364 -0.0734097)
(-0.00662832 -0.372151 -0.075089)
(-0.00971303 -0.346666 -0.069654)
(-0.0123093 -0.318747 -0.0548601)
(-0.0138781 -0.285373 -0.0274314)
(-0.014206 -0.246142 0.0104376)
(-0.0141196 -0.206935 0.0444639)
(-0.0139922 -0.175765 0.0634571)
(-0.0135875 -0.153545 0.0711338)
(-0.0128265 -0.136304 0.0736048)
(-0.011724 -0.121029 0.073584)
(-0.0102751 -0.10625 0.0720418)
(-0.00850041 -0.0914022 0.0694791)
(-0.00648977 -0.0764292 0.0663924)
(-0.00438659 -0.0614926 0.0633051)
(-0.00232479 -0.0467976 0.0607237)
(-0.000426814 -0.0324945 0.0590444)
(0.00121508 -0.0185843 0.0585146)
(0.00257411 -0.00479274 0.0592659)
(0.00367417 0.00950925 0.0614039)
(0.0045832 0.0252937 0.0650749)
(0.00540668 0.0438976 0.0704117)
(0.00624152 0.0671505 0.0773333)
(0.00712847 0.0978977 0.0849644)
(0.00801644 0.140565 0.0909089)
(0.00856619 0.200968 0.0902991)
(0.00804789 0.283344 0.0782104)
(0.00604404 0.385344 0.0594098)
(0.00387122 0.477716 0.0446482)
(0.00279422 0.507166 0.0370225)
(0.00208514 0.448938 0.0280885)
(0.000966883 -0.32966 -0.0116551)
(-0.00434283 -0.427209 -0.0193695)
(-0.010041 -0.436351 -0.0273013)
(-0.0157591 -0.423716 -0.0380788)
(-0.021806 -0.396253 -0.0509052)
(-0.0269393 -0.363377 -0.0573925)
(-0.0311036 -0.333385 -0.0532453)
(-0.0344191 -0.306125 -0.0390614)
(-0.0370079 -0.278248 -0.0139935)
(-0.0386271 -0.248043 0.021344)
(-0.0393906 -0.218406 0.0558428)
(-0.0395803 -0.194257 0.0771786)
(-0.0391814 -0.175904 0.0874762)
(-0.0382729 -0.16061 0.0922984)
(-0.0368838 -0.146425 0.094027)
(-0.0349518 -0.132263 0.093389)
(-0.0323927 -0.11746 0.090532)
(-0.029161 -0.101676 0.0855281)
(-0.0253089 -0.0849183 0.0786915)
(-0.0210318 -0.0675151 0.0707044)
(-0.016612 -0.0499866 0.0624814)
(-0.0123494 -0.0329125 0.0550193)
(-0.00855888 -0.0167232 0.0491105)
(-0.00553509 -0.00154059 0.0451961)
(-0.00332722 0.0129412 0.0434271)
(-0.00187869 0.0275873 0.0438673)
(-0.00118184 0.044177 0.0468984)
(-0.00112894 0.0662213 0.0534606)
(-0.00152487 0.100703 0.0645869)
(-0.00208469 0.159689 0.0780703)
(-0.00247158 0.254332 0.0819475)
(-0.00287154 0.373093 0.0652749)
(-0.0031632 0.469176 0.0462643)
(-0.00283096 0.496493 0.0388448)
(-0.00128607 0.441871 0.0323441)
(-0.00711777 -0.330194 0.0278219)
(-0.0236098 -0.413459 0.0394682)
(-0.0375595 -0.421095 0.0286621)
(-0.0490577 -0.407911 0.01106)
(-0.0581271 -0.380613 -0.00752507)
(-0.0632025 -0.348212 -0.0189005)
(-0.065538 -0.317536 -0.0203239)
(-0.0662027 -0.289816 -0.0133941)
(-0.065667 -0.264119 0.000387041)
(-0.0640698 -0.240502 0.0202245)
(-0.0616291 -0.219928 0.043768)
(-0.0588742 -0.202779 0.0664545)
(-0.0561547 -0.188266 0.085258)
(-0.0534988 -0.175379 0.0999586)
(-0.0508367 -0.163344 0.111173)
(-0.0480562 -0.151536 0.119551)
(-0.0450354 -0.139322 0.125572)
(-0.0416534 -0.125991 0.129433)
(-0.037791 -0.110781 0.131017)
(-0.0333533 -0.0930792 0.130013)
(-0.0283162 -0.0727053 0.126192)
(-0.0227526 -0.0500017 0.119739)
(-0.0168107 -0.0255093 0.111283)
(-0.0106544 0.000429342 0.101672)
(-0.00465789 0.0277879 0.0918299)
(0.000696858 0.0567459 0.0828346)
(0.00489953 0.0876377 0.0759326)
(0.00753799 0.121449 0.0726624)
(0.00854898 0.161597 0.0748562)
(0.00795475 0.216646 0.0845402)
(0.00597852 0.30087 0.0989246)
(0.00335014 0.412451 0.100894)
(0.00114426 0.497984 0.0860814)
(-0.00012486 0.520042 0.070896)
(0.000651062 0.439035 0.0486668)
(-0.0140094 -0.248366 0.0688613)
(-0.0371525 -0.341392 0.0871528)
(-0.0539825 -0.38129 0.0679278)
(-0.0644432 -0.396587 0.0500068)
(-0.0705309 -0.398477 0.0351799)
(-0.0733681 -0.391331 0.0213937)
(-0.0732852 -0.377808 0.00950195)
(-0.0713067 -0.361287 0.000875232)
(-0.0683432 -0.343248 -0.00422665)
(-0.0648193 -0.324033 -0.00526945)
(-0.0609749 -0.303915 -0.00111815)
(-0.0569875 -0.283674 0.00890724)
(-0.0530886 -0.264655 0.0237053)
(-0.0494629 -0.247772 0.0407301)
(-0.0461002 -0.232944 0.0576455)
(-0.0428661 -0.219558 0.0731178)
(-0.0396076 -0.206935 0.0867043)
(-0.0361984 -0.194447 0.0984636)
(-0.0325536 -0.181525 0.108563)
(-0.0286284 -0.167642 0.117054)
(-0.0244086 -0.15232 0.123826)
(-0.0199296 -0.135122 0.128597)
(-0.0153275 -0.115631 0.13091)
(-0.0108978 -0.0933763 0.130127)
(-0.00710218 -0.0677834 0.12545)
(-0.00444988 -0.0381045 0.116166)
(-0.00325832 -0.00342964 0.102414)
(-0.00350481 0.0378201 0.0859374)
(-0.0050277 0.0885915 0.0704667)
(-0.00755837 0.156059 0.0616199)
(-0.0103408 0.25217 0.064642)
(-0.0116803 0.374906 0.074856)
(-0.0104223 0.469226 0.0773697)
(-0.00829298 0.494409 0.0718543)
(-0.00389234 0.432069 0.0537062)
(-0.0161509 -0.138574 0.0895873)
(-0.03303 -0.282682 0.100081)
(-0.0420133 -0.374348 0.073158)
(-0.0444706 -0.416321 0.0585273)
(-0.0446154 -0.433827 0.050641)
(-0.0432969 -0.436669 0.0455143)
(-0.0407889 -0.425952 0.0418998)
(-0.037704 -0.404384 0.0393763)
(-0.0347229 -0.376501 0.0378786)
(-0.0321776 -0.346666 0.0373491)
(-0.0302899 -0.318053 0.0376874)
(-0.029255 -0.292053 0.0393101)
(-0.029193 -0.269107 0.0432603)
(-0.0301386 -0.24959 0.0503992)
(-0.03201 -0.233761 0.0606633)
(-0.0345275 -0.221306 0.0731879)
(-0.0371832 -0.211167 0.0869539)
(-0.0393964 -0.201736 0.101362)
(-0.0407385 -0.191334 0.116091)
(-0.0410409 -0.178596 0.130706)
(-0.0402561 -0.162561 0.144848)
(-0.0383601 -0.142256 0.158568)
(-0.0352932 -0.116159 0.171978)
(-0.031285 -0.0818503 0.184442)
(-0.0273062 -0.0367427 0.193552)
(-0.0249618 0.0191385 0.195125)
(-0.0256718 0.080153 0.186438)
(-0.0295852 0.141374 0.168055)
(-0.03469 0.205618 0.142444)
(-0.0394517 0.274671 0.114512)
(-0.0412571 0.347973 0.0904158)
(-0.0375547 0.415508 0.0736061)
(-0.0305458 0.452704 0.0622985)
(-0.0214295 0.445318 0.0528362)
(-0.00790639 0.340483 0.0414168)
(0.000363222 -0.119198 0.070872)
(0.0165118 -0.301263 0.0675705)
(0.0315813 -0.419635 0.0432567)