/*--------------------------------*- C++ -*----------------------------------*\
| =========                 |                                                 |
| \\      /  F ield         | OpenFOAM: The Open Source CFD Toolbox           |
|  \\    /   O peration     | Version:  v2006                                 |
|   \\  /    A nd           | Website:  www.openfoam.com                      |
|    \\/     M anipulation  |                                                 |
\*---------------------------------------------------------------------------*/
FoamFile
{
    version     2.0;
    format      ascii;
    class       volScalarField;
    location    "46";
    object      k;
}
// * * * * * * * * * * * * * * * * * * * * * * * * * * * * * * * * * * * * * //

dimensions      [0 2 -2 0 0 0 0];


internalField   nonuniform List<scalar> 
78750
(
2.04367
0.658667
0.305995
0.0938853
0.0200114
0.00262817
0.00129895
0.0011698
0.00125598
0.00102948
0.00116323
0.00103156
0.00100906
0.00094748
0.00097018
0.000893738
0.000909199
0.000892271
0.000903432
0.00090326
0.000897328
0.000887279
0.000875793
0.000863878
0.000851799
0.000839494
0.000826723
0.000813078
0.000797919
0.000780264
0.000758614
0.00073043
0.000688002
0.00058187
0.00013447
0.0661999
0.015062
0.00176017
0.00078088
0.0031038
0.00283058
0.00269397
0.00256342
0.00242611
0.00233656
0.00223274
0.0021565
0.00208503
0.0020293
0.00197684
0.00193826
0.00190482
0.0018796
0.00185909
0.00184197
0.00182619
0.00181078
0.00179525
0.00177911
0.00176185
0.00174284
0.00172142
0.0016967
0.00166742
0.00163206
0.00158901
0.00153455
0.00144335
0.0011572
0.0010538
0.00302944
0.000507547
0.00188562
0.00167681
0.00174258
0.00204222
0.00225557
0.00248983
0.00259715
0.00263618
0.00263824
0.00261691
0.00258264
0.00253951
0.00249039
0.00243661
0.00237958
0.00232073
0.00226256
0.00220686
0.00215491
0.00210762
0.00206559
0.00202901
0.00199769
0.00197103
0.00194804
0.00192725
0.00190646
0.00188251
0.00185136
0.00180435
0.00170733
0.00149654
0.00213352
0.000286556
0.000936288
0.00142099
0.00173806
0.00175052
0.00131674
0.000431675
9.30533e-05
0.000136379
0.000406427
0.00106198
0.00156029
0.00191199
0.00213747
0.00227487
0.00235623
0.00240081
0.00242121
0.0024248
0.00241512
0.0023937
0.00236183
0.0023213
0.0022749
0.00222569
0.0021766
0.00213006
0.00208754
0.00204909
0.0020124
0.00197077
0.0019072
0.00176868
0.00159158
0.00302797
0.000829742
0.00189254
0.002214
0.00238701
0.00250872
0.00256178
0.00249486
0.00221093
0.00178775
0.00140581
0.00110791
0.000914521
0.00084694
0.000909071
0.00108135
0.00133419
0.00162773
0.00189881
0.00208743
0.0021869
0.00222999
0.00224823
0.00225666
0.00225793
0.00225066
0.0022343
0.00221018
0.00218143
0.00215078
0.00211951
0.00208426
0.00202837
0.00189728
0.00186511
0.00409843
0.000513313
0.00170215
0.00219711
0.00241236
0.00251567
0.00257437
0.00262292
0.00268542
0.00273866
0.00273829
0.00266362
0.00251106
0.00228748
0.0020032
0.00167056
0.00130963
0.000921417
0.000566163
0.000429834
0.0005959
0.000982032
0.00141164
0.00172614
0.00189855
0.00198411
0.00203076
0.00205946
0.00207642
0.00208362
0.00208225
0.00207258
0.00205312
0.00203378
0.00228651
0.00501129
0.000843096
0.00220422
0.00274847
0.00296429
0.00305076
0.00306087
0.00300472
0.00289482
0.002764
0.00265064
0.00257497
0.00253452
0.00251067
0.0024819
0.00242776
0.00232384
0.00214179
0.00187265
0.00154259
0.00117535
0.000841335
0.00072209
0.000837128
0.00112026
0.00145451
0.00172612
0.00190145
0.00200667
0.00206839
0.00210033
0.00210351
0.00206061
0.00197555
0.00242098
0.00578141
0.0019549
0.00306099
0.00326261
0.00327578
0.0032344
0.00315956
0.00307265
0.00298893
0.00290264
0.00281056
0.00272008
0.00263861
0.00256692
0.00250193
0.00243895
0.00237171
0.00229009
0.00217659
0.00200564
0.00175021
0.00141184
0.00106462
0.000864327
0.000864571
0.00097869
0.00118208
0.00142299
0.00163812
0.00180511
0.0019334
0.00203876
0.00213213
0.00225929
0.00296748
0.00655188
0.00189633
0.00266196
0.00285358
0.00292159
0.00294005
0.00292056
0.00287342
0.00281314
0.00276649
0.00276168
0.00278478
0.00280014
0.00279512
0.00276781
0.00271753
0.00264459
0.00255058
0.00243678
0.00230001
0.00212924
0.00190354
0.00160973
0.00132224
0.00120054
0.00120937
0.00127809
0.00139629
0.00155748
0.00172547
0.00187016
0.00198069
0.00206117
0.00223835
0.00318123
0.00707636
0.00140724
0.002684
0.00318227
0.0033926
0.00349724
0.00353532
0.00349373
0.00333857
0.00307445
0.00281696
0.00272314
0.00275402
0.00280312
0.00283138
0.00283627
0.00281871
0.00277531
0.00270011
0.00258858
0.00244016
0.00225461
0.00202869
0.00177291
0.00153994
0.00138452
0.001322
0.00133182
0.00139904
0.00152164
0.00169293
0.00189869
0.00212312
0.00247635
0.0036401
0.0076615
0.00173829
0.00276816
0.00315761
0.00332866
0.00342346
0.00347504
0.00348426
0.00343521
0.00326643
0.00295874
0.00275735
0.00277024
0.00284057
0.0028849
0.00290597
0.00290719
0.00288567
0.00284027
0.00276529
0.00264525
0.00246873
0.00223843
0.00197403
0.00172687
0.00156052
0.0014833
0.00146266
0.00147749
0.00152561
0.0016154
0.00177044
0.0020576
0.00266001
0.00406345
0.00811056
0.0023124
0.00327312
0.00352015
0.00359696
0.00360809
0.00356016
0.00345761
0.00332641
0.00317508
0.00298423
0.00284114
0.00286084
0.00293132
0.00298102
0.00301037
0.00302281
0.00301613
0.00298801
0.00293444
0.00284558
0.00270919
0.00251591
0.00226891
0.00199911
0.00177059
0.0016355
0.00158737
0.00159939
0.00165694
0.00175181
0.00188265
0.00214637
0.00293371
0.00452991
0.00848286
0.00244343
0.00352664
0.00377069
0.00383068
0.00381807
0.00375109
0.0036396
0.00349576
0.00333456
0.00316386
0.00301326
0.00296555
0.00300164
0.00304953
0.00308633
0.00311046
0.00311968
0.00310979
0.00307563
0.00300964
0.00290225
0.00274348
0.00252643
0.00225572
0.00196026
0.0016967
0.00152025
0.00144827
0.00147503
0.00160733
0.00185035
0.00223052
0.00319921
0.00492253
0.00874364
0.00274912
0.0036409
0.00377425
0.00374128
0.00365822
0.00360107
0.00357795
0.0035524
0.00349561
0.00339347
0.00324776
0.00311917
0.00308407
0.00311308
0.00315083
0.00318257
0.00320572
0.00321518
0.00320593
0.00317222
0.00310537
0.00299695
0.00284044
0.00263323
0.0023825
0.00211219
0.00186104
0.00166525
0.00154679
0.00153562
0.0017216
0.00222137
0.00340729
0.00523477
0.00902053
0.00402105
0.00435972
0.00419403
0.00388318
0.00363568
0.00356048
0.00357141
0.00358912
0.00358164
0.0035367
0.00344516
0.00331787
0.00322293
0.00320735
0.00322701
0.00325143
0.00327426
0.00329032
0.00329354
0.00327908
0.00324249
0.0031771
0.00307417
0.00292879
0.00274327
0.00252855
0.00230365
0.00209145
0.00191205
0.00178638
0.00180367
0.00224662
0.00361093
0.00553119
0.00932163
0.00456882
0.00436607
0.00396419
0.00345771
0.00330935
0.00336193
0.00345183
0.00352864
0.00357197
0.00357316
0.0035329
0.00346452
0.00340185
0.00337675
0.00337719
0.00338523
0.00339293
0.00339609
0.00339073
0.00337307
0.00333897
0.00328348
0.00319991
0.00308198
0.00292732
0.00274018
0.00253248
0.00232239
0.00213013
0.00198051
0.00197674
0.00249044
0.00402762
0.00596753
0.00969561
0.00293547
0.00373439
0.0037917
0.00371528
0.00356632
0.0033658
0.0032536
0.00327558
0.00337926
0.00347465
0.00352499
0.00354323
0.00354828
0.00355177
0.00355633
0.00356014
0.00356056
0.00355491
0.00354045
0.00351432
0.00347293
0.00341228
0.00332738
0.00321259
0.00306385
0.00288147
0.00267275
0.00245303
0.00224347
0.00207315
0.00206199
0.00267161
0.00443568
0.00638899
0.0100316
0.00206987
0.00444946
0.00485021
0.00478377
0.00450402
0.00403247
0.00347901
0.00299302
0.00284446
0.00306545
0.00330781
0.00345836
0.0035443
0.00359675
0.00363098
0.00365335
0.00366606
0.00366925
0.0036618
0.00364193
0.00360695
0.003553
0.00347597
0.00337096
0.0032331
0.00305973
0.00285299
0.00262201
0.00238321
0.00216849
0.0021381
0.0028596
0.00479362
0.00676003
0.0103971
0.00231651
0.00428224
0.00455464
0.00442354
0.00420455
0.00402143
0.00385923
0.00336586
0.00256325
0.00241069
0.00277592
0.00314516
0.003366
0.00349781
0.00358642
0.00364534
0.00368126
0.00369896
0.00370111
0.00368902
0.00366251
0.00362031
0.00355866
0.0034734
0.00336206
0.00322126
0.00304898
0.00284693
0.00262049
0.00238241
0.00226589
0.00294635
0.00503002
0.00707496
0.0108214
0.0047401
0.00465431
0.00409793
0.00348342
0.00284033
0.00254714
0.00275702
0.00283758
0.00240017
0.00237291
0.00290246
0.00317604
0.00333948
0.003472
0.0035734
0.00364533
0.00369059
0.00371229
0.00371301
0.00369502
0.00366003
0.00360935
0.00354015
0.00344833
0.00333505
0.00320251
0.00305168
0.00288315
0.0026979
0.00250751
0.00246237
0.00323667
0.00535107
0.00742903
0.0112312
0.00759869
0.00523979
0.00382986
0.00257015
0.00176118
0.00177301
0.00217027
0.00256323
0.00304344
0.00324667
0.00333657
0.00344964
0.00354971
0.00362985
0.00369071
0.00373306
0.0037572
0.00376339
0.00375169
0.00372214
0.00367395
0.00360526
0.00351458
0.0034017
0.00326967
0.00312442
0.00297243
0.00281903
0.00266866
0.00254191
0.00261082
0.00354724
0.00571506
0.00780449
0.0115323
0.00518717
0.00279484
0.00185347
0.00172724
0.00257839
0.00292264
0.00295032
0.00300744
0.00308647
0.00319605
0.00331894
0.00342886
0.00352642
0.00361041
0.00367924
0.00373182
0.00376714
0.00378411
0.00378126
0.00375723
0.00370965
0.0036362
0.0035351
0.00340582
0.00325086
0.00307722
0.00289598
0.00271987
0.00256437
0.00247654
0.00267549
0.00380798
0.00599753
0.00802893
0.0115325
0.00190839
0.00339546
0.00393622
0.00413191
0.00397465
0.00358645
0.00317062
0.00286686
0.00269179
0.00262481
0.00263968
0.00272268
0.00285323
0.00300867
0.00316771
0.00331412
0.00343847
0.00353696
0.00360736
0.00364821
0.00365807
0.00363493
0.00357622
0.00347974
0.0033456
0.00317725
0.00298298
0.00277657
0.00257909
0.00244226
0.002581
0.00371075
0.0060213
0.00811668
0.011695
0.00184151
0.00492334
0.00569502
0.00590999
0.00590605
0.00577395
0.00547015
0.00502409
0.00449766
0.00394835
0.00342112
0.00294839
0.00256557
0.00231606
0.0022346
0.00231946
0.00252351
0.00277791
0.00301594
0.00320285
0.00333607
0.00342288
0.00346405
0.00345404
0.00338747
0.00326269
0.00308396
0.00286104
0.00261102
0.00240733
0.0025679
0.00366435
0.00605233
0.00827041
0.0120694
0.00141329
0.00330475
0.00417365
0.00472343
0.00513593
0.00547083
0.00574596
0.00595204
0.00605795
0.00601464
0.00580963
0.00545221
0.00494167
0.00428641
0.00352734
0.00274956
0.00209335
0.00174172
0.00177967
0.00211105
0.00251386
0.00281484
0.00299638
0.00310534
0.00316529
0.00317207
0.00311349
0.00298222
0.00277578
0.00252086
0.0026462
0.00390544
0.00626396
0.00852076
0.0125641
0.00210732
0.00401652
0.00483254
0.00515469
0.00522552
0.00514544
0.0049885
0.00486059
0.0048501
0.00496336
0.00517103
0.00544261
0.00570648
0.0058508
0.00576312
0.00536458
0.00465058
0.00368763
0.00253309
0.0015305
0.00125658
0.00160772
0.00214939
0.00257258
0.00281132
0.00291664
0.00292603
0.00285453
0.00270653
0.00249534
0.00259859
0.00402784
0.00642869
0.00871417
0.0129904
0.00449461
0.00612092
0.0064303
0.0063823
0.00621764
0.00597926
0.00578421
0.00573532
0.00573793
0.00559656
0.00526484
0.0048972
0.00469795
0.00474713
0.00494062
0.0051191
0.00518112
0.00501518
0.00445144
0.0034026
0.00209915
0.00130251
0.00136635
0.00183369
0.00234197
0.00270092
0.00288538
0.00292859
0.00285134
0.00267678
0.00274467
0.00427234
0.00668221
0.00896472
0.0134098
0.00680986
0.00622855
0.00564482
0.00518243
0.00464936
0.00399786
0.00380467
0.00444576
0.00548494
0.00622588
0.0065184
0.00646787
0.00614394
0.00567265
0.00529158
0.00509532
0.00500319
0.0049216
0.00475178
0.00422946
0.003071
0.00194598
0.00152601
0.00164702
0.00193678
0.00225307
0.00251748
0.00268554
0.00274304
0.00269654
0.00277583
0.0041919
0.00673442
0.00912582
0.0137375
0.0070717
0.00602257
0.00567778
0.00527644
0.0045355
0.0035844
0.0033814
0.00403912
0.00492663
0.00563146
0.00609288
0.00637985
0.00651633
0.0064911
0.00629367
0.0059949
0.0057002
0.00543276
0.00515422
0.004771
0.00403745
0.00288635
0.00202427
0.00181728
0.00195379
0.00219538
0.00244891
0.00265091
0.00276424
0.00278598
0.00290465
0.00421574
0.006866
0.00935707
0.0140133
0.00616125
0.00598756
0.00591141
0.00563662
0.00503075
0.00408289
0.00344344
0.00374837
0.00435164
0.00494546
0.00545684
0.00585537
0.00615065
0.00635698
0.00647967
0.0065192
0.00647267
0.00631487
0.00592152
0.00501192
0.00371994
0.00264035
0.00212068
0.00204006
0.00215164
0.00234927
0.00257613
0.00277711
0.00290985
0.00295368
0.00302529
0.00414633
0.00690195
0.00953233
0.0142469
0.00571314
0.00591183
0.00591264
0.00578222
0.00547215
0.00465829
0.003047
0.00219798
0.00277503
0.00364245
0.00436919
0.00488158
0.00520129
0.00534676
0.00529577
0.00505304
0.00473459
0.00441302
0.00405037
0.00362346
0.00319523
0.00289434
0.00276373
0.00275632
0.00282311
0.00293312
0.00305972
0.0031751
0.00325271
0.00327558
0.00335518
0.00443161
0.00719183
0.00988285
0.0145043
0.00563089
0.00605784
0.00609665
0.0059964
0.00574826
0.00519043
0.00397634
0.00229476
0.0019128
0.00247866
0.00306466
0.00348005
0.0037659
0.00396071
0.00407813
0.00412073
0.00410389
0.0040467
0.00396097
0.00386099
0.00377054
0.00371259
0.00369071
0.00369424
0.00371079
0.00372981
0.00374123
0.00373458
0.00370018
0.00364762
0.00377385
0.00498096
0.00764151
0.0102303
0.0144909
0.0052589
0.0059443
0.00603028
0.00598913
0.00589215
0.00573982
0.0054138
0.00440378
0.00278461
0.00183222
0.00181455
0.00231899
0.0028489
0.00325703
0.00355934
0.00377777
0.00393557
0.00405205
0.00414068
0.00421159
0.0042725
0.00432887
0.0043822
0.00442961
0.00446471
0.00447821
0.00445867
0.00439374
0.00427153
0.00409808
0.0041091
0.00534688
0.00789725
0.0103444
0.0143348
0.00588388
0.00622857
0.0062749
0.0062143
0.00605347
0.00572986
0.00518277
0.00465537
0.0042881
0.00352407
0.00224635
0.0013441
0.00152931
0.00221812
0.00286333
0.00333671
0.00366752
0.00391721
0.00412269
0.00429645
0.00445069
0.00459566
0.00473044
0.00485085
0.00495118
0.00502226
0.00505005
0.00501558
0.00489505
0.00466305
0.00446404
0.00544433
0.00788972
0.010326
0.0145526
0.00643052
0.00620832
0.0061908
0.00612638
0.00596812
0.00561652
0.00482354
0.00335658
0.00209447
0.00184316
0.0016997
0.0014378
0.00180596
0.00237301
0.00279459
0.00315174
0.00349056
0.00379713
0.00407038
0.00431208
0.00452412
0.00471838
0.00490638
0.00508575
0.00524963
0.00538711
0.00548269
0.0055146
0.00544956
0.00523105
0.00492343
0.0056708
0.00803012
0.0105918
0.0153841
0.00564255
0.00598744
0.00615201
0.00614727
0.00604384
0.00584036
0.00549476
0.00475828
0.00323054
0.0018
0.00128037
0.00119044
0.00157319
0.00213881
0.00255486
0.00289664
0.00322873
0.00355708
0.00386834
0.00415455
0.00441625
0.00466356
0.00490478
0.00513986
0.00536227
0.0055605
0.00571952
0.00582092
0.00583695
0.0057096
0.00550447
0.0063064
0.00858568
0.0112182
0.0162823
0.00567288
0.00627327
0.00637201
0.00631054
0.00615801
0.0059027
0.00556643
0.00513549
0.00431616
0.00278616
0.00142058
0.000955139
0.00118957
0.00175325
0.00221106
0.00256385
0.00289351
0.00323186
0.00356679
0.00388924
0.00419753
0.00449913
0.00479837
0.0050905
0.00536656
0.00561342
0.00581583
0.00596201
0.00605938
0.00614395
0.00631171
0.00733517
0.00934887
0.011744
0.0163521
0.00580981
0.006302
0.00626501
0.00610782
0.00586905
0.00556277
0.0053628
0.00533301
0.00515035
0.00430058
0.00256857
0.00107387
0.000777841
0.00128258
0.00181888
0.00222424
0.00257268
0.0029129
0.003256
0.00360018
0.00394661
0.00429694
0.00464917
0.00499687
0.00532697
0.00562005
0.00585471
0.00602023
0.00616658
0.00649699
0.00719143
0.00838884
0.0099556
0.0118428
0.0155146
0.0069448
0.00690199
0.00655634
0.00620055
0.00575316
0.00519372
0.00478864
0.00474331
0.0049206
0.0048954
0.00406512
0.00215103
0.00076949
0.000883384
0.00147919
0.00194112
0.00230394
0.0026479
0.00299364
0.00334509
0.00370781
0.00408499
0.00447613
0.00487505
0.00526553
0.00561964
0.00590306
0.00609166
0.00623091
0.00660573
0.00764007
0.00899338
0.0102122
0.0116372
0.0146472
0.00817475
0.00692639
0.00625297
0.00572763
0.00508289
0.00444497
0.00426794
0.00437138
0.00449869
0.00452604
0.00421234
0.00297548
0.00118686
0.000624834
0.00125283
0.00177011
0.00214114
0.00248982
0.002836
0.00317971
0.00353021
0.00390615
0.00431548
0.00474965
0.00519314
0.00561691
0.00597665
0.00622596
0.0063622
0.00658993
0.00749228
0.00894747
0.0100689
0.0113298
0.0144416
0.00841343
0.00662673
0.00597305
0.00540751
0.00458574
0.00371049
0.00344085
0.00368945
0.00392974
0.00396666
0.00368588
0.00284883
0.00150387
0.000806318
0.00126902
0.0017516
0.0020944
0.0024257
0.00276792
0.00311081
0.00345543
0.00382408
0.0042367
0.00468653
0.00516129
0.00563917
0.00607932
0.00642231
0.00661819
0.00673779
0.00726221
0.00857007
0.009764
0.0111682
0.0148284
0.00738207
0.00628677
0.006022
0.0056644
0.0049786
0.0038881
0.00286009
0.00264278
0.00288361
0.00299724
0.00274231
0.00205618
0.00119558
0.00100135
0.00153855
0.00196178
0.00227396
0.00258024
0.0028946
0.00321383
0.00354965
0.0039184
0.00432478
0.00476788
0.00524288
0.00573832
0.006226
0.00665049
0.0069389
0.00707559
0.00737319
0.00843401
0.00970323
0.0113138
0.0152923
0.00649165
0.00643791
0.00646358
0.00631764
0.00588197
0.00479286
0.00288254
0.00148583
0.00145879
0.00176805
0.00175192
0.00143473
0.00120437
0.00151043
0.00200592
0.00237815
0.00268764
0.00297706
0.00326452
0.00356032
0.00387481
0.00421726
0.00459339
0.0050051
0.00545137
0.00592778
0.00641952
0.00688745
0.00726201
0.00749404
0.00778137
0.00868469
0.00992152
0.0115582
0.0153713
0.00647346
0.00633174
0.00632887
0.00626377
0.00603869
0.0053732
0.00374339
0.00144949
0.000373387
0.000591599
0.000859979
0.00103164
0.00139734
0.00200078
0.0024835
0.00285221
0.00316534
0.00345332
0.0037302
0.004007
0.00429421
0.00460178
0.00493764
0.00530623
0.0057081
0.00614084
0.00659797
0.00706043
0.00748394
0.00782156
0.00819311
0.00901896
0.0101459
0.0116706
0.0152362
0.00601254
0.00585811
0.0059088
0.00593599
0.00591869
0.00576861
0.00518847
0.00355999
0.00127929
0.000239644
0.000224268
0.000364715
0.00119721
0.00207149
0.00267219
0.00311892
0.00347402
0.00378592
0.00407903
0.00436634
0.00465692
0.00495971
0.00528338
0.00563396
0.00601195
0.00641234
0.00682862
0.00725377
0.00767189
0.00806171
0.0085048
0.00929479
0.0103328
0.0117847
0.0154008
0.00568375
0.00608108
0.00623834
0.00628975
0.00631136
0.00634135
0.00637313
0.00616213
0.00491766
0.00252844
0.000582209
4.18009e-05
0.000243491
0.000951376
0.00210551
0.00282823
0.00334025
0.00375365
0.00411329
0.00444561
0.00477164
0.00510562
0.00546041
0.00584687
0.00626774
0.00670959
0.00714685
0.00756198
0.00795647
0.00835261
0.00884761
0.00964179
0.0106384
0.0120858
0.015855
0.00550703
0.00614403
0.00632468
0.00636219
0.00632166
0.00621411
0.00610085
0.00614561
0.00632029
0.00595772
0.00417359
0.00170141
0.000291943
0.000214078
0.000341741
0.00182349
0.00279122
0.00341942
0.00391225
0.00433529
0.00472321
0.00510117
0.00549247
0.00592293
0.00641496
0.00696584
0.00752446
0.00801877
0.00842817
0.00881925
0.00933945
0.0101136
0.0110336
0.0124072
0.0159952
0.00604959
0.00629098
0.00632811
0.00632574
0.00628907
0.00619083
0.00597526
0.00563437
0.00541543
0.00551798
0.00560282
0.00463236
0.00204701
0.000251867
0.000134248
2.04625e-05
0.00167518
0.00280223
0.00353207
0.00409765
0.00458139
0.00502904
0.00546887
0.00593435
0.00646923
0.00710815
0.00782088
0.00848525
0.00900047
0.00942352
0.00992822
0.0105966
0.0113546
0.0125153
0.0155651
0.00666619
0.0064216
0.00629742
0.00621926
0.00613773
0.00603431
0.00591821
0.00575501
0.00541821
0.00501378
0.00479584
0.00472874
0.00388023
0.00139768
0.000285911
0.000251712
0.000330114
0.00197451
0.00310382
0.00386443
0.00447065
0.00499556
0.00548454
0.00597294
0.0065102
0.00715865
0.00794481
0.00877491
0.00947358
0.00999844
0.0104812
0.0110033
0.0115667
0.012463
0.0150117
0.00724619
0.00661053
0.00638356
0.00624589
0.00608878
0.0058583
0.00558634
0.00539977
0.00527433
0.00503218
0.00461409
0.00409276
0.00343111
0.0019057
0.00034155
0.000295543
8.43882e-05
0.00142329
0.00271655
0.00363065
0.00433674
0.00494695
0.0055082
0.00604092
0.00657921
0.0071873
0.00793426
0.00881012
0.00965977
0.0103258
0.0108262
0.0112458
0.0116632
0.0123759
0.0148188
0.00735842
0.00644697
0.0061831
0.00603245
0.00585366
0.00558442
0.00525018
0.00494266
0.00471253
0.0044989
0.00417471
0.0036141
0.00275072
0.00150118
0.000399881
0.000235431
0.000421103
0.000922545
0.00246342
0.00348761
0.00426723
0.00495404
0.00558028
0.00615552
0.00669539
0.00724985
0.00789531
0.00868419
0.00954998
0.0103114
0.0108645
0.0112546
0.0116111
0.0122946
0.0151676
0.00728726
0.00638744
0.00611995
0.00593339
0.00568584
0.005329
0.00494775
0.00461773
0.00430962
0.00396635
0.0035112
0.00286346
0.00195962
0.000888425
0.000149473
4.10073e-05
0.000256812
0.00090193
0.00256519
0.00368381
0.00450623
0.005212
0.0058439
0.00641167
0.0069206
0.00740857
0.00794468
0.00860389
0.00939287
0.0101752
0.0107833
0.011208
0.0116083
0.0124501
0.0160801
0.00712485
0.00636247
0.00611218
0.00590946
0.00561661
0.00517137
0.0046767
0.00426455
0.00390335
0.00349754
0.00295956
0.00224999
0.00141449
0.000641124
0.000258722
0.000167614
0.000202812
0.000795359
0.00260819
0.00389564
0.00482791
0.00562341
0.00631278
0.00689035
0.00736222
0.00777758
0.00821455
0.00876539
0.00947736
0.010249
0.0108964
0.0113896
0.0119023
0.0129652
0.0170054
0.00703631
0.00634681
0.00609826
0.00589044
0.00559079
0.00512925
0.00458227
0.0040939
0.00367273
0.00323103
0.00268736
0.00201237
0.00123894
0.000526599
0.000196385
0.000186368
0.000214938
0.000658651
0.00214556
0.00386844
0.00503857
0.0060078
0.00686521
0.00755528
0.00805141
0.00841849
0.00876633
0.00921861
0.00985285
0.0105845
0.0112318
0.0117629
0.0123349
0.0134339
0.0170058
0.00694357
0.0062894
0.00602767
0.00580287
0.00548488
0.00502011
0.00448264
0.00398402
0.00355296
0.00312885
0.00263798
0.00205425
0.00139816
0.000745155
0.000266654
9.61009e-05
0.000221928
0.000298204
0.0013783
0.00329781
0.00483167
0.00601162
0.00710893
0.00806469
0.00876616
0.00922022
0.0095519
0.00991846
0.0104323
0.0110479
0.0116141
0.0120942
0.0125993
0.0134813
0.0160159
0.00694759
0.00632491
0.00604441
0.00579776
0.00545371
0.00497568
0.00444794
0.00395195
0.00351132
0.00309414
0.00265159
0.00216171
0.00164446
0.00113012
0.000665597
0.000295448
5.93166e-05
1.54733e-05
0.000626971
0.00221712
0.00421935
0.00559016
0.0067975
0.00797196
0.00899018
0.00973996
0.0102476
0.0106448
0.0110633
0.0115238
0.0119476
0.0123073
0.0126682
0.0132597
0.015032
0.00700937
0.00633327
0.0060112
0.00573358
0.00536034
0.00488107
0.00438056
0.00391257
0.00348757
0.00308401
0.00267057
0.00223524
0.00180698
0.00141636
0.00107153
0.000757146
0.000448168
0.000162938
0.000110989
0.000856725
0.00298463
0.00482676
0.0061361
0.00734086
0.00851044
0.00955742
0.010383
0.0109929
0.0114648
0.0118565
0.0121708
0.0124179
0.0126522
0.013068
0.0147851
0.00717968
0.00634813
0.00595845
0.00563088
0.00520835
0.00473158
0.00427815
0.00385188
0.00344811
0.00305492
0.00265488
0.00224395
0.00185183
0.00151571
0.00125438
0.00105284
0.000858279
0.000610295
0.00031071
0.000237566
0.00148713
0.00377871
0.00536754
0.00661321
0.007779
0.00890445
0.00993724
0.0107972
0.0114499
0.0119116
0.0122208
0.0124304
0.0126208
0.0130354
0.0152551
0.00735888
0.00632805
0.00586777
0.00548091
0.00498966
0.0045033
0.00410083
0.00373015
0.00336045
0.00298196
0.00258886
0.00218675
0.0018086
0.00148953
0.00126079
0.00114103
0.00108906
0.000994407
0.000761517
0.000432491
0.000709236
0.00273867
0.00469562
0.00609721
0.00726847
0.00836522
0.00942298
0.0103921
0.0111998
0.0117898
0.0121735
0.0124214
0.0126507
0.0131922
0.0160975
0.00748387
0.00628082
0.00577315
0.00534179
0.00479416
0.00429588
0.00393602
0.00361873
0.00328622
0.00292464
0.00253481
0.00212932
0.00174362
0.00141646
0.00118947
0.00112009
0.00119556
0.00125092
0.00112506
0.000800914
0.00064972
0.002071
0.00426001
0.00579852
0.0070182
0.00814087
0.00920827
0.0101752
0.0110109
0.0116715
0.0121371
0.0124675
0.0128
0.0135449
0.0170563
0.00746402
0.00617988
0.00566789
0.005221
0.00463483
0.00410026
0.00374986
0.00346978
0.00317717
0.00284719
0.0024793
0.00208693
0.00170336
0.00136466
0.0011191
0.00106093
0.00123078
0.00142424
0.00139313
0.00111682
0.000896374
0.00194836
0.00429164
0.00589121
0.00705987
0.00816093
0.00929144
0.0103115
0.0111093
0.0117238
0.0121939
0.0125823
0.0130231
0.0139553
0.0176779
0.00733409
0.00610421
0.00564018
0.00522116
0.00463385
0.00403433
0.00365603
0.0033964
0.00313653
0.00283492
0.00248758
0.00210827
0.00172733
0.00137701
0.00109781
0.000992866
0.00118032
0.00150112
0.0015938
0.00138055
0.00118965
0.00209616
0.00471634
0.00663504
0.0076479
0.00849156
0.00950392
0.0106356
0.0115364
0.0121294
0.0125481
0.0129099
0.0133506
0.0142569
0.0173623
0.00710725
0.00604204
0.00566534
0.00530974
0.00475908
0.00406175
0.00356705
0.00329045
0.00306957
0.00282391
0.00253162
0.00219762
0.00184201
0.00149257
0.00117962
0.00098098
0.00106339
0.00145044
0.00175757
0.00169169
0.00151005
0.0021295
0.00467203
0.00752302
0.00889828
0.00947985
0.0100207
0.0108851
0.0118823
0.012636
0.0131228
0.0134743
0.013828
0.0144409
0.0162363
0.00684548
0.00602946
0.00576573
0.00550871
0.00507348
0.00436572
0.00369236
0.00330988
0.0030811
0.00287188
0.00263121
0.00235115
0.00204189
0.00171905
0.00140142
0.00112536
0.00101226
0.00125255
0.0017379
0.00198697
0.00188773
0.00203427
0.00356136
0.00665061
0.00939554
0.0107109
0.0111118
0.0113804
0.0119137
0.012589
0.0131615
0.0135727
0.0138912
0.0142505
0.0151592
0.00656803
0.0060198
0.00585334
0.00568153
0.0053709
0.00476578
0.00395628
0.00338089
0.00308455
0.00289637
0.00271424
0.00250347
0.00226163
0.00199577
0.00171493
0.00143136
0.00119043
0.00114504
0.00149217
0.00204286
0.00230088
0.00227375
0.00265316
0.00431476
0.00717289
0.00997792
0.0116614
0.0122021
0.0122838
0.012401
0.0126432
0.0129184
0.0131795
0.0134981
0.0144408
0.00645718
0.00607894
0.00594635
0.00581781
0.00560825
0.00519072
0.00445051
0.00369985
0.00324773
0.00300613
0.00283512
0.00266717
0.00248093
0.00227372
0.00204957
0.0018089
0.00155756
0.00134707
0.00135295
0.00177907
0.00239736
0.00270167
0.002737
0.00309843
0.00444536
0.0068891
0.00969812
0.0118608
0.0128441
0.0129968
0.0129043
0.0128564
0.0129122
0.0131387
0.0138376
0.00656895
0.00613195
0.00592496
0.00575009
0.00553095
0.00522081
0.00470172
0.00399898
0.00345311
0.00314652
0.00296578
0.00282358
0.00268092
0.00252628
0.00235894
0.00217657
0.00197305
0.00175164
0.00157191
0.00163324
0.00214613
0.00285
0.00320995
0.00329802
0.00357195
0.00458353
0.00659538
0.00924154
0.011732
0.0133192
0.0138812
0.0139473
0.0139325
0.0138933
0.0134643
0.00698159
0.00625312
0.00590437
0.00563029
0.00532715
0.00503539
0.00469301
0.00420482
0.00372223
0.00338818
0.00318002
0.00303153
0.00290249
0.00277691
0.00264992
0.00251655
0.00236828
0.00219625
0.00200291
0.00185358
0.00196056
0.00255621
0.00334228
0.00378852
0.00395621
0.00416831
0.00484752
0.00629818
0.00845048
0.010874
0.0128858
0.0139206
0.0142674
0.0141733
0.0138667
0.00732135
0.00624158
0.00575857
0.00537829
0.00497157
0.00467102
0.00442939
0.00414037
0.00382832
0.00357431
0.00338991
0.00325068
0.00313199
0.00302235
0.00291948
0.0028194
0.00271376
0.00259307
0.00244794
0.00228209
0.0021601
0.00231778
0.00303019
0.00387711
0.00444496
0.00473544
0.00493166
0.00529316
0.0060723
0.00739555
0.00920578
0.0110782
0.0121925
0.0129186
0.015623
0.00738975
0.00615871
0.00561025
0.0051655
0.00471928
0.00445487
0.00428944
0.00411618
0.00392398
0.0037388
0.00357777
0.0034413
0.00332369
0.00322005
0.00312829
0.00304623
0.00296686
0.00288102
0.0027793
0.00265474
0.00251098
0.0024251
0.00274287
0.00361891
0.00454701
0.00522338
0.00562704
0.00585568
0.00604105
0.00632748
0.00677654
0.0079444
0.0100077
0.0124659
0.018765
0.00720568
0.00603931
0.00546802
0.00498346
0.0045225
0.00427463
0.00415396
0.00405392
0.00394182
0.00381673
0.00368772
0.0035637
0.0034506
0.00334944
0.0032606
0.00318276
0.00311238
0.00304208
0.00296326
0.00286841
0.00275044
0.00262131
0.0026781
0.0033825
0.00445386
0.00544017
0.00615787
0.00660199
0.00682394
0.00685158
0.00654155
0.00713022
0.00989517
0.0136594
0.0215244
0.00730015
0.00610905
0.0054656
0.00493066
0.00447542
0.00424103
0.00412132
0.0040324
0.00394122
0.00383852
0.00372477
0.00360576
0.00349025
0.00338468
0.00329218
0.00321234
0.00314184
0.00307516
0.00300469
0.00292358
0.00282433
0.00270436
0.00266347
0.00319951
0.00430999
0.005509
0.00649377
0.00716999
0.00753849
0.00755327
0.00722319
0.0081791
0.0110409
0.0148071
0.0218793
0.00765852
0.00609588
0.00527615
0.0046376
0.00422099
0.00407499
0.0040104
0.00395544
0.0038895
0.00380617
0.00370422
0.00358697
0.00346279
0.00334285
0.00323458
0.00314042
0.00305754
0.0029803
0.00290144
0.00281469
0.0027145
0.00260429
0.00257446
0.00304889
0.00419086
0.0055309
0.00671369
0.00759271
0.00810601
0.00823243
0.00833001
0.00974295
0.0120949
0.0150314
0.0203372
0.00789307
0.00587364
0.00493895
0.00424602
0.00390404
0.00385748
0.00385341
0.00383365
0.00378993
0.00372085
0.00362634
0.00350825
0.00337271
0.00323115
0.00309573
0.00297278
0.00286112
0.00275394
0.00264148
0.00251594
0.00237816
0.00228541
0.00243464
0.00313023
0.00440646
0.00581006
0.0070477
0.00803372
0.00868825
0.00905297
0.00961748
0.0110259
0.012692
0.0147599
0.0186979
0.00733018
0.00542478
0.0047107
0.00414817
0.00375581
0.00361111
0.00358354
0.00359265
0.00359233
0.00356064
0.00349103
0.00338394
0.00324428
0.00308261
0.0029142
0.00275142
0.00259565
0.00243762
0.00226046
0.00205525
0.00186937
0.0019468
0.00258526
0.00369696
0.00511307
0.00654337
0.0077068
0.00862306
0.00937144
0.00999949
0.0107955
0.0118846
0.0130045
0.0144649
0.0174251
0.00645644
0.00543296
0.00518418
0.00486978
0.00434736
0.00380871
0.00344281
0.00328618
0.00326925
0.00328923
0.0032797
0.0032173
0.00309967
0.0029344
0.00273744
0.00252799
0.00231488
0.0020871
0.00182425
0.00153557
0.00139896
0.00194672
0.00339601
0.00478191
0.00598078
0.00737144
0.00866467
0.00954036
0.0102134
0.0108884
0.011622
0.0123694
0.013109
0.0140766
0.0158412
0.00582941
0.00577715
0.00585704
0.00578344
0.00548214
0.00484974
0.0040371
0.00335007
0.00299777
0.00294475
0.0030012
0.00302987
0.00298527
0.00286211
0.00267059
0.00243097
0.00216163
0.00186282
0.00151987
0.00115368
0.00101751
0.00184759
0.0041055
0.00615413
0.00702253
0.00784464
0.00912866
0.0103428
0.0110857