/*--------------------------------*- C++ -*----------------------------------*\
| =========                 |                                                 |
| \\      /  F ield         | OpenFOAM: The Open Source CFD Toolbox           |
|  \\    /   O peration     | Version:  v2006                                 |
|   \\  /    A nd           | Website:  www.openfoam.com                      |
|    \\/     M anipulation  |                                                 |
\*---------------------------------------------------------------------------*/
FoamFile
{
    version     2.0;
    format      ascii;
    class       volScalarField;
    location    "46";
    object      nut;
}
// * * * * * * * * * * * * * * * * * * * * * * * * * * * * * * * * * * * * * //

dimensions      [0 2 -1 0 0 0 0];


internalField   nonuniform List<scalar> 
78750
(
0.000856565
0.00186677
0.00127103
0.000470861
0.000131492
2.69447e-05
1.40962e-05
1.28654e-05
1.48555e-05
1.29657e-05
1.6163e-05
1.55451e-05
1.66109e-05
1.67561e-05
1.87153e-05
1.81981e-05
2.01102e-05
2.25325e-05
2.71399e-05
3.11316e-05
3.32751e-05
3.41289e-05
3.44034e-05
3.45347e-05
3.47132e-05
3.50186e-05
3.54941e-05
3.61639e-05
3.70406e-05
3.81571e-05
3.94918e-05
4.00234e-05
3.15953e-05
7.96446e-06
2.48477e-07
0.000102583
5.7441e-05
1.51843e-05
5.3962e-06
2.28062e-05
2.62504e-05
3.06013e-05
3.72022e-05
4.2752e-05
4.95089e-05
5.43383e-05
5.84954e-05
6.09462e-05
6.23786e-05
6.277e-05
6.28742e-05
6.28379e-05
6.28611e-05
6.28615e-05
6.25852e-05
6.19808e-05
6.12921e-05
6.07299e-05
6.03856e-05
6.02913e-05
6.042e-05
6.07064e-05
6.10924e-05
6.14937e-05
6.17252e-05
6.07478e-05
5.29243e-05
2.5225e-05
7.41816e-06
1.31322e-06
7.12155e-06
3.04693e-06
2.8555e-05
5.31122e-05
5.20379e-05
4.54156e-05
4.78882e-05
5.51174e-05
6.28272e-05
6.97248e-05
7.46212e-05
7.74213e-05
7.88631e-05
7.92879e-05
7.89371e-05
7.80437e-05
7.68078e-05
7.52998e-05
7.36472e-05
7.19786e-05
7.03907e-05
6.89674e-05
6.77775e-05
6.68552e-05
6.61909e-05
6.57634e-05
6.55149e-05
6.52565e-05
6.46349e-05
6.29768e-05
5.82189e-05
4.38587e-05
1.90276e-05
8.58515e-06
2.64412e-06
7.0138e-07
7.54485e-06
1.67327e-05
3.67385e-05
5.15256e-05
1.47054e-05
2.94293e-06
7.59465e-07
1.80516e-06
6.5823e-06
1.94959e-05
3.199e-05
4.30016e-05
5.24858e-05
6.0746e-05
6.82357e-05
7.52957e-05
8.18297e-05
8.70245e-05
9.02264e-05
9.1532e-05
9.14482e-05
9.04368e-05
8.88763e-05
8.70666e-05
8.51864e-05
8.32671e-05
8.11568e-05
7.84054e-05
7.39197e-05
6.46704e-05
4.38274e-05
1.69132e-05
8.64085e-06
3.73686e-06
2.01031e-06
5.4614e-05
0.000131776
0.000105572
9.93824e-05
0.000111438
9.29901e-05
4.85871e-05
3.0452e-05
2.47046e-05
2.203e-05
2.13978e-05
2.44947e-05
3.20505e-05
4.02756e-05
4.51804e-05
4.88928e-05
5.43054e-05
6.22262e-05
7.21406e-05
8.33625e-05
9.38616e-05
0.000100885
0.000103785
0.000103691
0.000101593
9.77755e-05
9.22168e-05
8.45958e-05
7.37757e-05
5.7171e-05
3.38779e-05
1.49219e-05
1.06449e-05
5.03364e-06
1.25082e-06
1.54816e-05
3.506e-05
5.26217e-05
5.86682e-05
5.58315e-05
5.2512e-05
5.25713e-05
5.45457e-05
5.60509e-05
5.5668e-05
5.27817e-05
4.75768e-05
4.0744e-05
3.29443e-05
2.45582e-05
1.67919e-05
1.2187e-05
1.47184e-05
2.17274e-05
2.57476e-05
3.44575e-05
4.73633e-05
6.2815e-05
7.83362e-05
9.09262e-05
9.81133e-05
9.85884e-05
9.15263e-05
7.60145e-05
5.20769e-05
2.70117e-05
1.35494e-05
1.36696e-05
6.13062e-06
2.04257e-06
1.85267e-05
5.45241e-05
8.71556e-05
8.52983e-05
6.84527e-05
5.53645e-05
5.00456e-05
5.18379e-05
6.09806e-05
7.79404e-05
9.95979e-05
0.000116746
0.000118983
0.000103953
8.06922e-05
5.96866e-05
4.46722e-05
3.35418e-05
2.5829e-05
2.56367e-05
3.90687e-05
3.61262e-05
3.55034e-05
4.30077e-05
5.59124e-05
7.05876e-05
8.14482e-05
8.38496e-05
7.54211e-05
5.37911e-05
2.55724e-05
1.1635e-05
1.41696e-05
7.04984e-06
4.65105e-06
2.95847e-05
9.64334e-05
0.0001124
8.28824e-05
5.55631e-05
4.33872e-05
4.1191e-05
4.56077e-05
5.66279e-05
7.53401e-05
9.97813e-05
0.000121378
0.000130167
0.000123749
0.00010711
8.67785e-05
6.72204e-05
5.04198e-05
3.74437e-05
2.90303e-05
2.7443e-05
4.14227e-05
7.19106e-05
5.99615e-05
5.08382e-05
5.12463e-05
5.6135e-05
5.89084e-05
5.35964e-05
3.91648e-05
2.20144e-05
1.32829e-05
2.059e-05
7.96399e-06
4.51446e-06
3.20981e-05
9.22465e-05
0.000104779
7.84892e-05
5.51152e-05
4.2474e-05
3.68011e-05
3.79701e-05
4.94956e-05
7.61936e-05
0.00011165
0.000135168
0.000139837
0.000132341
0.000119222
0.000104019
8.8121e-05
7.19709e-05
5.62404e-05
4.26633e-05
3.48201e-05
3.9274e-05
7.6822e-05
0.000125814
0.00011738
8.36612e-05
6.69535e-05
5.86238e-05
4.93871e-05
3.38654e-05
1.76871e-05
1.15912e-05
2.24728e-05
8.58313e-06
3.37665e-06
2.04983e-05
6.58141e-05
0.000112644
0.000123966
0.000105388
6.9445e-05
4.17276e-05
2.75858e-05
2.37442e-05
2.9977e-05
5.17864e-05
9.67679e-05
0.000154649
0.000192524
0.000191584
0.000165135
0.000134127
0.00010771
8.63766e-05
6.87421e-05
5.51652e-05
4.79036e-05
4.89214e-05
5.99438e-05
7.80605e-05
8.34982e-05
6.942e-05
5.28489e-05
3.95296e-05
2.70404e-05
1.60599e-05
1.27435e-05
2.9931e-05
9.27098e-06
4.14992e-06
2.40049e-05
8.71854e-05
0.000129307
0.000112226
8.77184e-05
7.36606e-05
6.08919e-05
4.0144e-05
2.66936e-05
2.62793e-05
4.24018e-05
9.32145e-05
0.000186223
0.000202925
0.000202969
0.000202172
0.00020048
0.000158306
0.00011507
8.6835e-05
6.90708e-05
5.95083e-05
5.9672e-05
7.24285e-05
9.37671e-05
0.000102044
8.60811e-05
6.01182e-05
3.72567e-05
2.11755e-05
1.27888e-05
1.28784e-05
3.84006e-05
9.76773e-06
5.04578e-06
3.16118e-05
0.000112976
0.000127412
9.34241e-05
6.23675e-05
4.79824e-05
4.40424e-05
4.13603e-05
3.50289e-05
3.50309e-05
5.25924e-05
0.000102585
0.000174781
0.000206758
0.000207207
0.000206963
0.000201457
0.000171034
0.000137326
0.000108612
8.66642e-05
7.19123e-05
6.53373e-05
6.84288e-05
7.9279e-05
8.54897e-05
7.70154e-05
5.83896e-05
3.74773e-05
2.02691e-05
1.18229e-05
1.39285e-05
5.09067e-05
9.85688e-06
5.35702e-06
3.45539e-05
0.00011432
0.000112905
7.94263e-05
5.79699e-05
4.74636e-05
4.28878e-05
4.1346e-05
4.02312e-05
4.18026e-05
5.55715e-05
9.46526e-05
0.00015727
0.000204594
0.000210368
0.000210695
0.000200222
0.000178982
0.000154757
0.000130798
0.000108814
8.99826e-05
7.54136e-05
6.61653e-05
6.28373e-05
6.35958e-05
6.07337e-05
4.7457e-05
3.05953e-05
1.78447e-05
1.13109e-05
1.51546e-05
6.32153e-05
9.91771e-06
5.80013e-06
3.76079e-05
0.000107467
7.77045e-05
5.4965e-05
5.02453e-05
5.35651e-05
5.62121e-05
5.43375e-05
4.88652e-05
4.38176e-05
4.67904e-05
6.81639e-05
0.000122692
0.00019566
0.000212931
0.000213745
0.000214077
0.000209457
0.000183396
0.000157847
0.000136497
0.000118322
0.000102535
8.91661e-05
7.86472e-05
7.07122e-05
6.24866e-05
4.79857e-05
2.78383e-05
1.4806e-05
1.03401e-05
1.60482e-05
7.29214e-05
9.98645e-06
7.27691e-06
6.49185e-05
8.68816e-05
4.995e-05
3.99213e-05
4.43662e-05
5.70041e-05
7.09815e-05
7.64509e-05
7.04051e-05
5.90465e-05
5.2962e-05
6.25303e-05
0.000102882
0.000180401
0.000215375
0.000216164
0.000216717
0.000216826
0.000216323
0.000199962
0.000170345
0.000145278
0.00012673
0.000112533
0.000100358
8.84678e-05
7.51306e-05
5.71038e-05
3.26671e-05
1.47146e-05
9.72593e-06
1.68324e-05
8.16268e-05
1.00663e-05
7.9199e-06
7.62171e-05
4.91902e-05
3.6876e-05
4.27975e-05
5.45273e-05
6.47058e-05
7.26256e-05
7.59283e-05
7.36288e-05
6.84472e-05
6.70378e-05
7.77355e-05
0.000108307
0.000155177
0.000194885
0.000214206
0.000219657
0.000219084
0.000212245
0.000196853
0.000175748
0.000154006
0.000134712
0.00011845
0.000104259
9.05994e-05
7.56306e-05
5.64807e-05
3.19297e-05
1.43489e-05
1.02917e-05
1.97138e-05
9.32666e-05
1.01836e-05
6.547e-06
5.19329e-05
0.000109114
8.70017e-05
5.60445e-05
3.85953e-05
3.39307e-05
3.82461e-05
4.93683e-05
6.12899e-05
7.07429e-05
8.25356e-05
9.96936e-05
0.000122062
0.000147213
0.000170236
0.000186887
0.000195856
0.000197706
0.000193116
0.000182801
0.000168236
0.000151586
0.000134824
0.000119031
0.000104304
9.001e-05
7.47722e-05
5.57542e-05
3.13027e-05
1.37422e-05
1.04859e-05
2.21819e-05
9.893e-05
1.03071e-05
4.88261e-06
2.22585e-05
5.42947e-05
8.44512e-05
6.54042e-05
3.73629e-05
2.31933e-05
1.67431e-05
1.79644e-05
3.12481e-05
6.02088e-05
9.24215e-05
0.000119419
0.000147116
0.000176396
0.000202715
0.000220779
0.000227981
0.00022522
0.000215135
0.000200318
0.00018278
0.000163989
0.000145195
0.00012724
0.000110111
9.32164e-05
7.53159e-05
5.4022e-05
2.92422e-05
1.30975e-05
1.09701e-05
2.48263e-05
9.91196e-05
1.04278e-05
4.69849e-06
1.72315e-05
4.92669e-05
8.61588e-05
6.88555e-05
5.40864e-05
4.22299e-05
2.03579e-05
1.08867e-05
1.24328e-05
2.82309e-05
8.26892e-05
0.000200988
0.000223583
0.000226611
0.00022861
0.000229829
0.000230439
0.000230534
0.000230159
0.000229305
0.000227931
0.000194114
0.000165116
0.000142447
0.000122569
0.000103582
8.36411e-05
5.97643e-05
3.16312e-05
1.33258e-05
1.08921e-05
2.57192e-05
9.84082e-05
1.059e-05
6.61764e-06
2.52133e-05
9.55172e-05
5.39617e-05
2.37447e-05
1.9524e-05
2.49733e-05
1.87374e-05
1.16329e-05
1.42457e-05
4.77898e-05
0.000212802
0.000218392
0.00022289
0.000226275
0.000228652
0.000230143
0.000230862
0.0002309
0.000230331
0.000229205
0.000221991
0.000187011
0.000157295
0.000134506
0.000115665
9.80245e-05
7.9006e-05
5.54603e-05
2.89567e-05
1.33173e-05
1.19615e-05
2.89045e-05
9.59796e-05
1.07931e-05
8.12445e-06
6.25139e-05
3.35779e-05
1.31101e-05
7.6394e-06
9.39041e-06
1.51902e-05
2.85543e-05
9.09098e-05
0.000142832
0.000102106
0.000100644
0.000111626
0.000124804
0.000136773
0.000148327
0.000158864
0.000166755
0.000170739
0.000170146
0.000164743
0.000154632
0.000141064
0.000126397
0.000112355
9.90594e-05
8.54619e-05
6.95996e-05
4.87356e-05
2.56044e-05
1.2757e-05
1.27859e-05
3.22377e-05
9.23117e-05
1.09969e-05
7.28587e-06
2.00286e-05
8.71929e-06
1.0986e-05
4.98263e-05
0.000103618
6.31166e-05
4.78638e-05
4.5479e-05
5.09291e-05
6.05416e-05
7.01311e-05
7.91909e-05
8.8456e-05
9.79575e-05
0.000107271
0.000115576
0.00012221
0.00012685
0.000128972
0.000127846
0.000123159
0.00011545
0.000105867
9.54119e-05
8.4367e-05
7.22626e-05
5.78733e-05
3.98915e-05
2.17392e-05
1.21878e-05
1.37835e-05
3.57553e-05
8.8226e-05
1.10372e-05
4.53943e-06
3.49918e-05
5.3566e-05
5.79465e-05
5.82443e-05
4.08564e-05
3.00751e-05
2.68341e-05
2.72056e-05
2.96978e-05
3.4047e-05
4.08626e-05
5.01676e-05
6.09448e-05
7.14058e-05
8.05884e-05
8.89092e-05
9.70891e-05
0.000105012
0.000111371
0.000114828
0.000114879
0.000111578
0.000105282
9.65163e-05
8.56979e-05
7.28788e-05
5.75791e-05
3.93383e-05
2.12771e-05
1.14433e-05
1.27748e-05
3.34993e-05
8.93618e-05
1.10222e-05
4.38732e-06
2.36118e-05
4.97595e-05
9.66097e-05
0.000124142
0.000106662
7.54786e-05
5.49148e-05
4.27654e-05
3.49905e-05
2.9856e-05
2.65747e-05
2.52255e-05
2.66546e-05
3.25537e-05
4.46329e-05
5.97358e-05
6.97821e-05
7.6522e-05
8.50807e-05
9.49008e-05
0.000102144
0.000104664
0.000102976
9.77703e-05
8.90447e-05
7.64215e-05
5.92202e-05
3.78964e-05
1.93316e-05
1.11859e-05
1.2686e-05
3.30203e-05
9.22292e-05
1.10803e-05
3.39039e-06
1.67271e-05
4.45785e-05
8.81672e-05
0.000122971
0.000143908
0.000151602
0.000140861
0.000114681
8.88062e-05
7.059e-05
5.71383e-05
4.58082e-05
3.61521e-05
2.82972e-05
2.25931e-05
2.01717e-05
2.44895e-05
4.31752e-05
5.88998e-05
6.46218e-05
7.44904e-05
8.64268e-05
9.62602e-05
0.000100248
9.69522e-05
8.70355e-05
7.04239e-05
4.51209e-05
1.95966e-05
1.05532e-05
1.31104e-05
3.48324e-05
9.08855e-05
1.11351e-05
4.32988e-06
1.66355e-05
4.04566e-05
7.04875e-05
8.71836e-05
8.36123e-05
6.96885e-05
6.05086e-05
5.99801e-05
6.56472e-05
7.51832e-05
8.79064e-05
0.000100902
0.000103775
8.76794e-05
6.41583e-05
4.43482e-05
2.89049e-05
1.85851e-05
1.52611e-05
2.97227e-05
4.8083e-05
5.77425e-05
7.72351e-05
8.34909e-05
7.95608e-05
7.43181e-05
6.54632e-05
4.68753e-05
2.10774e-05
1.0327e-05
1.32236e-05
3.60061e-05
8.88627e-05
1.12075e-05
6.55296e-06
2.51884e-05
6.77297e-05
0.000120834
0.000123008
8.8425e-05
6.55038e-05
5.88501e-05
5.88008e-05
5.68276e-05
5.22591e-05
5.11183e-05
5.91237e-05
8.30131e-05
0.000125903
0.000166964
0.000157498
9.71627e-05
5.10476e-05
2.72689e-05
1.68721e-05
1.72444e-05
3.98957e-05
5.82364e-05
7.57095e-05
9.27075e-05
9.3355e-05
7.85993e-05
5.23965e-05
2.29053e-05
1.06783e-05
1.39994e-05
3.92031e-05
8.38996e-05
1.13605e-05
8.05099e-06
3.56855e-05
0.000110229
0.000101381
5.01987e-05
2.55595e-05
2.09669e-05
3.02847e-05
6.00028e-05
0.000110083
0.000146532
0.000144893
0.000109391
8.55994e-05
8.65853e-05
0.000110854
0.000146141
0.000151288
9.79154e-05
4.5711e-05
2.41036e-05
1.8735e-05
2.91856e-05
6.35406e-05
8.02336e-05
8.43729e-05
8.31892e-05
7.36365e-05
5.33699e-05
2.55969e-05
1.12266e-05
1.33423e-05
3.71827e-05
8.46701e-05
1.15653e-05
7.9902e-06
4.00108e-05
0.00010613
7.41838e-05
3.16372e-05
1.72784e-05
1.7926e-05
3.21174e-05
6.49248e-05
0.000119604
0.000167999
0.000189355
0.000186394
0.000158474
0.00012617
0.00011163
0.000112958
0.00011772
0.000109967
7.68019e-05
4.16197e-05
2.57233e-05
2.52306e-05
4.34782e-05
6.95482e-05
7.78616e-05
7.67994e-05
6.92204e-05
5.23369e-05
2.74596e-05
1.24701e-05
1.37017e-05
3.73243e-05
8.62989e-05
1.17865e-05
7.47503e-06
3.93663e-05
0.000107089
8.5866e-05
4.2754e-05
2.21554e-05
1.85103e-05
2.951e-05
5.27906e-05
8.00377e-05
0.00011282
0.000148774
0.000179677
0.000201367
0.000212989
0.000212164
0.000194407
0.000148416
8.4264e-05
4.57336e-05
3.08448e-05
2.94177e-05
4.26843e-05
7.2923e-05
9.05329e-05
9.01417e-05
8.42204e-05
7.42619e-05
5.70176e-05
3.12965e-05
1.38742e-05
1.35857e-05
3.59989e-05
9.11843e-05
1.19748e-05
7.09488e-06
3.31711e-05
8.86922e-05
0.00010285
7.88299e-05
3.33617e-05
1.37208e-05
1.07232e-05
2.10081e-05
4.21628e-05
6.92957e-05
9.68977e-05
0.000111496
0.000105486
9.14161e-05
8.43712e-05
8.59063e-05
8.60824e-05
7.93765e-05
7.24158e-05
7.27634e-05
8.44676e-05
0.000101329
0.000109846
0.000108662
0.000101551
9.05762e-05
7.60454e-05
5.59417e-05
3.12422e-05
1.52858e-05
1.50525e-05
3.93377e-05
9.32995e-05
1.21964e-05
7.1554e-06
3.49015e-05
9.79623e-05
0.000105084
7.64664e-05
4.17864e-05
1.90645e-05
9.51086e-06
1.08287e-05
2.4603e-05
4.90142e-05
7.42108e-05
9.37048e-05
0.000107412
0.00011493
0.000116851
0.000115441
0.000111843
0.000107344
0.000104743
0.000106195
0.000110793
0.000115251
0.000116651
0.000113524
0.000105557
9.30212e-05
7.55923e-05
5.25826e-05
2.89496e-05
1.60424e-05
1.76298e-05
4.63135e-05
9.13831e-05
1.22957e-05
7.10108e-06
3.17688e-05
9.2799e-05
0.000114197
0.000101114
7.54482e-05
4.24063e-05
2.00681e-05
1.06317e-05
8.78885e-06
1.50037e-05
4.0117e-05
7.67684e-05
8.86512e-05
9.14013e-05
9.88956e-05
0.000111311
0.000124473
0.000134018
0.000139073
0.000141301
0.0001416
0.000139487
0.000134249
0.000125808
0.000114507
0.00010032
8.19601e-05
5.73701e-05
3.10678e-05
1.69543e-05
1.92642e-05
5.04235e-05
9.0193e-05
1.22163e-05
7.43259e-06
3.08547e-05
8.60126e-05
0.000113877
0.00010291
7.48779e-05
4.99597e-05
3.72428e-05
2.78595e-05
1.73791e-05
9.96615e-06
7.47986e-06
1.48879e-05
4.27581e-05
9.56741e-05
0.000160557
0.000222552
0.00023746
0.000243937
0.000249274
0.000228501
0.000199403
0.000176173
0.000156865
0.000139234
0.000122352
0.000105702
8.78121e-05
6.51216e-05
3.72145e-05
1.90908e-05
1.95891e-05
4.82572e-05
9.33243e-05
1.21827e-05
7.57303e-06
3.49992e-05
0.000100556
0.000117325
9.93077e-05
6.37124e-05
3.24782e-05
1.59633e-05
1.00758e-05
1.10728e-05
1.12094e-05
1.17511e-05
2.89934e-05
9.96321e-05
0.000198824
0.000211919
0.000223646
0.000233757
0.000242414
0.000249816
0.000248292
0.000216245
0.000186011
0.000160733
0.000139102
0.000119859
0.000102119
8.47827e-05
6.48691e-05
3.97296e-05
2.10619e-05
2.04452e-05
4.80811e-05
9.60216e-05
1.24139e-05
7.02503e-06
3.2072e-05
9.35273e-05
0.000120252
0.000106371
7.76875e-05
5.38571e-05
3.14555e-05
1.52497e-05
7.98879e-06
6.56138e-06
8.04469e-06
1.90033e-05
6.28959e-05
0.000148206
0.000202577
0.000214583
0.000225835
0.000236007
0.000244979
0.00023171
0.000209885
0.000185174
0.000160851
0.000137843
0.000115965
9.47986e-05
7.43884e-05
5.48471e-05
3.56377e-05
2.2147e-05
2.39206e-05
5.74275e-05
9.26699e-05
1.27385e-05
7.1175e-06
3.17315e-05
9.4765e-05
0.000123592
9.88823e-05
6.32728e-05
4.52637e-05
3.7941e-05
2.65898e-05
1.3612e-05
6.7103e-06
5.54303e-06
1.14156e-05
4.01491e-05
0.000119668
0.000189603
0.000202325
0.000214602
0.000226096
0.000236629
0.000236038
0.000217263
0.000193828
0.000168447
0.000142085
0.000115006
8.75514e-05
6.20744e-05
4.27936e-05
3.07396e-05
2.48518e-05
3.27684e-05
7.99478e-05
8.07243e-05
1.27549e-05
7.25814e-06
3.13995e-05
9.32035e-05
0.000119493
8.82057e-05
5.53436e-05
4.34771e-05
4.46404e-05
4.37141e-05
2.74762e-05
1.23202e-05
5.11564e-06
5.22955e-06
1.80303e-05
6.97304e-05
0.000151406
0.00018987
0.000202984
0.000215415
0.000226942
0.000221708
0.000208599
0.000189643
0.000166721
0.000140944
0.00011245
8.20412e-05
5.41589e-05
3.53492e-05
2.76493e-05
2.93259e-05
4.7358e-05
0.000105523
6.73191e-05
1.23567e-05
8.02782e-06
3.50309e-05
0.000101672
0.00011375
7.02395e-05
4.02977e-05
3.09019e-05
3.43419e-05
4.80581e-05
5.18959e-05
2.75972e-05
1.05009e-05
4.1223e-06
8.24355e-06
3.72424e-05
0.000125326
0.000178877
0.00019287
0.000206006
0.000213819
0.00020835
0.000195256
0.000177125
0.000156385
0.000134205
0.000109867
8.23426e-05
5.45992e-05
3.42804e-05
2.60885e-05
3.13294e-05
5.87454e-05
0.000115044
5.93658e-05
1.1902e-05
8.69766e-06
4.19971e-05
0.0001134
8.8943e-05
4.5699e-05
2.91577e-05
2.88741e-05
3.62472e-05
4.64894e-05
5.3129e-05
3.86551e-05
1.75403e-05
6.20319e-06
4.7185e-06
2.34592e-05
0.000122656
0.000172011
0.000186688
0.000200214
0.000212809
0.000214067
0.000190315
0.000166625
0.000145049
0.000125389
0.000106289
8.51843e-05
6.09953e-05
3.89495e-05
2.70483e-05
2.98159e-05
5.64284e-05
0.000112193
5.77484e-05
1.17589e-05
8.67606e-06
4.57311e-05
0.000106853
7.03461e-05
3.49686e-05
2.16833e-05
2.24457e-05
3.37518e-05
4.61774e-05
4.67281e-05
3.46812e-05
1.8964e-05
8.82158e-06
6.42245e-06
2.36052e-05
0.000119149
0.000170105
0.000184195
0.000197694
0.000210364
0.000212283
0.000184109
0.000158402
0.000137038
0.000118839
0.000102621
8.64827e-05
6.76872e-05
4.6689e-05
3.10693e-05
2.8912e-05
4.86176e-05
0.000105035
6.06345e-05
1.19325e-05
8.01833e-06
4.17483e-05
0.000103411
8.46942e-05
4.8266e-05
2.4901e-05
1.63531e-05
1.86145e-05
2.67778e-05
2.8903e-05
2.21957e-05
1.38892e-05
8.41463e-06
1.1011e-05
4.23317e-05
0.000137568
0.00017782
0.000190337
0.000202386
0.0002083
0.00019119
0.000170569
0.000150376
0.00013171
0.000114667
9.91503e-05
8.4649e-05
6.93682e-05
5.17127e-05
3.57369e-05
3.05506e-05
4.6114e-05
0.000102073
6.47645e-05
1.22017e-05
7.41617e-06
3.58048e-05
9.76584e-05
0.000108514
7.86058e-05
3.40787e-05
1.33492e-05
6.95565e-06
9.12872e-06
1.36828e-05
1.34902e-05
1.10437e-05
1.17764e-05
2.64457e-05
7.32136e-05
0.000130383
0.000163745
0.000180692
0.000187104
0.000183992
0.000173575
0.000159207
0.000143518
0.000127676
0.000111895
9.638e-05
8.15873e-05
6.73555e-05
5.27081e-05
3.92895e-05
3.44718e-05
5.01562e-05
0.000107002
6.72807e-05
1.23321e-05
7.46174e-06
3.65735e-05
9.8819e-05
0.000107843
8.7143e-05
4.92846e-05
1.99534e-05
6.17586e-06
1.82836e-06
3.78239e-06
6.43343e-06
8.96635e-06
1.75327e-05
4.46833e-05
8.91621e-05
0.000124731
0.00014564
0.000157311
0.000162536
0.000161728
0.000155569
0.000145722
0.000134053
0.000121652
0.000108609
9.46467e-05
8.00871e-05
6.58687e-05
5.26381e-05
4.17484e-05
3.88077e-05
5.60978e-05
0.000112601
6.92512e-05
1.23323e-05
7.36501e-06
3.83348e-05
0.00010225
0.00010972
9.97232e-05
8.04505e-05
4.56505e-05
1.87476e-05
5.55459e-06
1.15972e-06
1.34548e-06
2.86437e-06
1.43977e-05
4.24417e-05
8.15222e-05
0.000117365
0.000140344
0.000150143
0.000151227
0.00014763
0.00014124
0.000132945
0.000123659
0.00011417
0.000104477
9.36178e-05
8.07413e-05
6.65852e-05
5.32944e-05
4.34781e-05
4.21246e-05
6.07068e-05
0.000115557
7.20481e-05
1.23932e-05
7.32224e-06
3.61953e-05
0.000101094
0.000122688
0.00011417
9.79993e-05
8.50818e-05
6.0005e-05
2.90731e-05
1.11107e-05
2.5012e-06
2.12452e-07
1.71826e-06
1.12567e-05
4.74213e-05
9.51332e-05
0.000127066
0.000146126
0.000154453
0.000152782
0.000144187
0.000132057
0.000119065
0.000107174
9.7434e-05
8.90816e-05
7.95214e-05
6.70357e-05
5.38677e-05
4.47917e-05
4.54813e-05
6.68507e-05
0.000120825
7.33805e-05
1.25288e-05
7.23119e-06
3.28265e-05
9.33072e-05
0.000121838
0.000110152
8.34069e-05
6.65357e-05
6.91717e-05
7.92891e-05
5.2936e-05
2.20849e-05
7.05786e-06
1.31863e-06
1.35247e-06
3.35564e-06
3.29245e-05
9.36434e-05
0.0001434
0.000164631
0.000167649
0.000158866
0.000142858
0.000123674
0.000105118
9.03747e-05
8.06259e-05
7.37013e-05
6.53711e-05
5.49564e-05
4.79616e-05
5.20786e-05
7.89492e-05
0.000130887
7.02717e-05
1.2511e-05
7.56387e-06
3.38013e-05
9.70455e-05
0.000124673
0.000113002
8.67758e-05
6.10067e-05
4.74927e-05
5.0663e-05
7.30654e-05
7.82135e-05
3.18922e-05
8.75685e-06
1.11119e-06
8.59478e-07
1.98207e-07
2.69817e-05
8.35041e-05
0.000140791
0.00016697
0.000167878
0.000153573
0.000131314
0.000107176
8.65225e-05
7.28412e-05
6.58813e-05
6.18296e-05
5.71124e-05
5.47049e-05
6.38515e-05
9.65681e-05
0.000139714
6.46237e-05
1.22527e-05
7.93413e-06
3.67198e-05
0.000103832
0.000122231
0.000101984
7.63795e-05
6.23664e-05
5.51739e-05
4.87958e-05
4.91474e-05
6.15967e-05
6.44217e-05
2.6462e-05
6.23289e-06
1.44919e-06
1.96823e-06
3.69511e-06
3.57763e-05
9.70548e-05
0.000149478
0.000166162
0.000157839
0.000136992
0.000111681
8.78683e-05
7.03485e-05
6.10009e-05
5.82123e-05
5.89185e-05
6.33964e-05
7.91788e-05
0.000114616
0.000143784
6.0364e-05
1.1964e-05
8.18275e-06
3.92231e-05
0.000109125
0.000117445
8.8517e-05
5.95415e-05
4.75876e-05
4.97539e-05
5.81574e-05
5.97063e-05
5.40003e-05
4.5942e-05
2.80098e-05
1.0337e-05
1.77503e-06
2.14168e-06
8.93332e-07
2.03667e-05
6.4662e-05
0.00012243
0.000151284
0.000149457
0.000134168
0.000114095
9.25182e-05
7.34043e-05
6.09225e-05
5.63948e-05
5.90284e-05
6.91985e-05
9.12632e-05
0.000126407
0.000145476
5.91024e-05
1.18683e-05
8.17225e-06
4.0941e-05
0.000113358
0.000109748
7.55337e-05
5.10208e-05
4.2114e-05
4.35733e-05
5.18205e-05
5.90679e-05
5.38046e-05
3.79632e-05
2.13927e-05
9.1152e-06
2.45362e-06
1.91355e-06
4.56619e-06
1.17236e-05
4.6404e-05
9.7226e-05
0.000127653
0.000132085
0.000124984
0.000113623
9.85075e-05
8.10391e-05
6.61152e-05
5.81492e-05
5.87617e-05
6.92981e-05
9.30115e-05
0.000128069
0.000147192
6.06711e-05
1.20258e-05
8.06677e-06
4.13847e-05
0.000114798
0.000103218
6.56881e-05
4.43098e-05
3.86933e-05
4.14567e-05
4.65085e-05
4.76105e-05
4.03932e-05
2.75326e-05
1.51721e-05
6.14719e-06
1.14771e-06
4.05005e-07
2.92058e-06
1.06322e-05
4.02236e-05
8.46594e-05
0.000112156
0.000118089
0.000115562
0.000111161
0.000103244
8.97269e-05
7.3944e-05
6.24086e-05
5.93334e-05
6.69681e-05
8.87644e-05
0.000124558
0.000149316
6.44609e-05
1.24348e-05
7.9721e-06
4.12631e-05
0.000112582
9.90187e-05
6.1057e-05
3.97251e-05
3.3609e-05
3.58e-05
4.02538e-05
3.99814e-05
3.22782e-05
2.14151e-05
1.2029e-05
5.5203e-06
2.62042e-06
1.97665e-06
2.31936e-06
8.61596e-06
3.43661e-05
7.21901e-05
9.73466e-05
0.00010591
0.000108362
0.000109418
0.000106034
9.47995e-05
7.86098e-05
6.5259e-05
6.05907e-05
6.76345e-05
9.02864e-05
0.000128315
0.000154345
6.72279e-05
1.28521e-05
7.94699e-06
4.1344e-05
0.000112153
9.66855e-05
5.87493e-05
3.79349e-05
3.12353e-05
3.20172e-05
3.54038e-05
3.56675e-05
3.00601e-05
2.1153e-05
1.23596e-05
5.47544e-06
2.38108e-06
2.48919e-06
2.58083e-06
6.79961e-06
2.34988e-05
5.70254e-05
8.6676e-05
9.58006e-05
9.93057e-05
0.000103661
0.000104067
9.48238e-05
7.93646e-05
6.70167e-05
6.42442e-05
7.47035e-05
0.000102481
0.00014273
0.000159865
6.45535e-05
1.28673e-05
7.94498e-06
4.15914e-05
0.000112066
9.26226e-05
5.47684e-05
3.5988e-05
3.00937e-05
3.05191e-05
3.35129e-05
3.46444e-05
3.09297e-05
2.39201e-05
1.63314e-05
9.21911e-06
3.62968e-06
1.36541e-06
2.83816e-06
3.10659e-06
1.3108e-05
3.79176e-05
7.17931e-05
8.62727e-05
8.90655e-05
9.31943e-05
9.72761e-05
9.35666e-05
8.22624e-05
7.26911e-05
7.29622e-05
8.81672e-05
0.000120951
0.000158303
0.000159027
5.86618e-05
1.24287e-05
7.98794e-06
4.15512e-05
0.000111432
8.90117e-05
5.16852e-05
3.46399e-05
2.9614e-05
2.98912e-05
3.23019e-05
3.39163e-05
3.21921e-05
2.73857e-05
2.16219e-05
1.58868e-05
1.00677e-05
4.49664e-06
8.01317e-07
1.68808e-07
5.60318e-06
2.00616e-05
4.95383e-05
7.55903e-05
8.10368e-05
8.26479e-05
8.66925e-05
8.93662e-05
8.65551e-05
8.25074e-05
8.60847e-05
0.000104171
0.000136979
0.000167208
0.000156588
5.52797e-05
1.19737e-05
8.06538e-06
4.17608e-05
0.000110551
8.30219e-05
4.72625e-05
3.28665e-05
2.93405e-05
3.01494e-05
3.24488e-05
3.40881e-05
3.32564e-05
2.99628e-05
2.58051e-05
2.16815e-05
1.72703e-05
1.21213e-05
6.53971e-06
1.9712e-06
1.03844e-06
6.76589e-06
2.65033e-05
5.68383e-05
7.4785e-05
7.75311e-05
7.85352e-05
8.1981e-05
8.59131e-05
8.9794e-05
9.83428e-05
0.000117677
0.000146962
0.000171083
0.000158512
5.60246e-05
1.18567e-05
8.16823e-06
4.23158e-05
0.000109698
7.46237e-05
4.17088e-05
3.07614e-05
2.94104e-05
3.1184e-05
3.35115e-05
3.49955e-05
3.44356e-05
3.17087e-05
2.80249e-05
2.43156e-05
2.05929e-05
1.6753e-05
1.266e-05
7.94584e-06
3.25866e-06
1.90499e-06
1.10987e-05
3.5365e-05
6.35671e-05
7.5381e-05
7.62994e-05
7.68628e-05
8.09947e-05
8.92331e-05
0.000102776
0.000123717
0.000150088
0.000170998
0.000161894
5.91738e-05
1.20462e-05
8.23952e-06
4.30379e-05
0.000106571
6.46993e-05
3.58394e-05
2.81702e-05
2.92425e-05
3.25272e-05
3.51289e-05
3.63112e-05
3.5721e-05
3.33206e-05
2.96812e-05
2.52607e-05
2.06581e-05
1.71596e-05
1.51182e-05
1.29259e-05
8.69067e-06
3.7852e-06
5.03029e-06
2.1443e-05
5.0053e-05
7.24619e-05
7.81614e-05
7.69638e-05
7.78496e-05
8.45245e-05
9.8829e-05
0.000120874
0.000146625
0.000166822
0.000161689
6.19852e-05
1.23613e-05
8.25013e-06
4.35562e-05
0.000102006
5.73583e-05
3.19275e-05
2.63835e-05
2.94147e-05
3.43001e-05
3.72556e-05
3.79922e-05
3.69616e-05
3.43403e-05
3.03306e-05
2.49422e-05
1.91831e-05
1.57469e-05
1.55153e-05
1.60337e-05
1.34865e-05
7.52404e-06
4.55267e-06
1.43806e-05
3.96819e-05
6.70648e-05
7.82798e-05
7.88826e-05
7.87986e-05
8.26889e-05
9.3994e-05
0.000114766
0.000141468
0.000163637
0.00016126
6.38498e-05
1.27154e-05
8.1659e-06
4.33409e-05
9.7665e-05
5.37512e-05
2.9635e-05
2.45187e-05
2.8314e-05
3.45856e-05
3.85473e-05
3.97208e-05
3.90511e-05
3.66948e-05
3.22902e-05
2.55119e-05
1.81369e-05
1.42006e-05
1.51024e-05
1.81415e-05
1.73794e-05
1.08299e-05
6.10283e-06
1.21288e-05
3.53621e-05
6.57819e-05
7.70331e-05
7.69135e-05
7.91766e-05
8.62324e-05
9.75996e-05
0.00011639
0.000142779
0.000167074
0.000164976
6.44812e-05
1.29509e-05
8.0317e-06
4.23748e-05
9.61069e-05
5.64844e-05
3.03724e-05
2.36135e-05
2.67509e-05
3.37644e-05
3.87799e-05
4.04583e-05
4.02086e-05
3.86339e-05
3.49539e-05
2.78608e-05
1.88793e-05
1.33662e-05
1.39324e-05
1.87509e-05
2.06461e-05
1.37647e-05
7.79824e-06
1.13709e-05
3.28214e-05
7.22862e-05
8.53668e-05
7.58055e-05
7.34589e-05
8.55928e-05
0.000107136
0.000130688
0.000155268
0.000175781
0.000165016
6.0857e-05
1.28043e-05
7.87311e-06
4.11657e-05
9.6244e-05
6.39621e-05
3.34214e-05
2.29279e-05
2.36122e-05
3.04389e-05
3.75202e-05
4.13203e-05
4.24542e-05
4.20238e-05
3.95309e-05
3.31048e-05
2.28112e-05
1.43086e-05
1.23329e-05
1.66943e-05
2.2527e-05
1.83662e-05
1.04213e-05
1.05329e-05
2.48365e-05
6.4562e-05
0.00010673
9.33333e-05
7.59545e-05
7.86347e-05
0.000102421
0.00013687
0.000164155
0.000177238
0.000150309
5.36662e-05
1.2285e-05
7.73341e-06
4.00901e-05
9.78488e-05
7.74232e-05
4.21252e-05
2.5334e-05
2.19045e-05
2.63699e-05
3.38265e-05
3.94448e-05
4.22809e-05
4.35579e-05
4.33998e-05
3.98859e-05
3.08976e-05
1.94371e-05
1.27024e-05
1.32537e-05
1.96341e-05
2.3509e-05
1.61771e-05
1.1146e-05
1.59255e-05
3.54073e-05
7.95672e-05
0.000118949
0.000106491
9.15869e-05
9.78007e-05
0.000124577
0.000156103
0.000170072
0.000137698
4.88947e-05
1.1785e-05
7.60447e-06
3.91289e-05
0.000100107
8.90402e-05
5.32707e-05
2.9984e-05
2.18121e-05
2.28375e-05
2.95306e-05
3.72615e-05
4.25661e-05
4.56248e-05
4.74275e-05
4.7118e-05
4.19487e-05
3.06616e-05
1.86686e-05
1.29362e-05
1.47251e-05
2.20381e-05
2.49953e-05
1.75305e-05
1.3762e-05
1.88379e-05
3.51149e-05
6.95813e-05
0.000117379
0.000134679
0.000130469
0.000135475
0.000154086
0.000169307
0.000140441
4.79562e-05
1.1484e-05
7.5842e-06
3.8821e-05
0.000103739
9.64869e-05
6.31962e-05
3.77059e-05
2.53781e-05
2.24583e-05
2.64369e-05
3.412e-05
4.14405e-05
4.67961e-05
5.0967e-05
5.40506e-05
5.39654e-05
4.71671e-05
3.33637e-05
2.01337e-05
1.4444e-05
1.68839e-05
2.53271e-05
2.88443e-05
2.12363e-05
1.65499e-05
1.93707e-05
3.06808e-05
5.53962e-05
0.00010276
0.000154032
0.000171164
0.000174127
0.000175083
0.000143286
4.72573e-05
1.12196e-05
7.70023e-06
3.96442e-05
0.000107981
9.05496e-05
5.6804e-05
3.91837e-05
2.96656e-05
2.51096e-05
2.67706e-05
3.37568e-05
4.24472e-05
4.98168e-05
5.59029e-05
6.15252e-05
6.56612e-05
6.47822e-05
5.48826e-05
3.7573e-05
2.26374e-05
1.6707e-05
1.98746e-05
3.01926e-05
3.51471e-05
2.709e-05
2.04284e-05
2.06199e-05
2.81229e-05
4.57741e-05
8.22911e-05
0.000136122
0.000162071
0.000161485
0.000126236
4.44557e-05
1.10067e-05
8.00529e-06
4.27473e-05
0.000111116
7.61997e-05
4.479e-05
3.50891e-05
3.26495e-05
3.06077e-05
3.13152e-05
3.67582e-05
4.47326e-05
5.22932e-05
5.89976e-05
6.57565e-05
7.234e-05
7.61648e-05
7.29314e-05
5.98058e-05
4.05191e-05
2.489e-05
1.87798e-05
2.25562e-05
3.41636e-05
4.13102e-05
3.5042e-05
2.6994e-05
2.44209e-05
2.83022e-05
3.9894e-05
6.56499e-05
0.000114042
0.000142781
0.00011626
4.41727e-05
1.12009e-05
8.2701e-06
4.74238e-05
0.000107139
5.73852e-05
3.36208e-05
2.98972e-05
3.36059e-05
3.72396e-05
3.99768e-05
4.47264e-05
5.10103e-05
5.69544e-05
6.24191e-05
6.82927e-05
7.47206e-05
7.99992e-05
8.08013e-05
7.40174e-05
5.92063e-05
4.04946e-05
2.55684e-05
1.99221e-05
2.47159e-05
3.71177e-05
4.73241e-05
4.61616e-05
3.89191e-05
3.36347e-05
3.34107e-05
3.9589e-05
5.78121e-05
9.91509e-05
0.000124923
5.31071e-05
1.20961e-05
8.38018e-06
5.14969e-05
9.76896e-05
4.57457e-05
2.87267e-05
2.90661e-05
3.69903e-05
4.51098e-05
4.99667e-05
5.34887e-05
5.70295e-05
6.05252e-05
6.4311e-05
6.90168e-05
7.46502e-05
8.00135e-05
8.26878e-05
8.00434e-05
7.06999e-05
5.53948e-05
3.75826e-05
2.40468e-05
2.10698e-05
2.83335e-05
4.26832e-05
5.64949e-05
6.14731e-05
5.83215e-05
5.27832e-05
4.75715e-05
4.04988e-05
4.50068e-05
8.08763e-05
7.90381e-05
1.33913e-05
8.34388e-06
5.16802e-05