/*--------------------------------*- C++ -*----------------------------------*\
| =========                 |                                                 |
| \\      /  F ield         | OpenFOAM: The Open Source CFD Toolbox           |
|  \\    /   O peration     | Version:  v2006                                 |
|   \\  /    A nd           | Website:  www.openfoam.com                      |
|    \\/     M anipulation  |                                                 |
\*---------------------------------------------------------------------------*/
FoamFile
{
    version     2.0;
    format      ascii;
    class       volScalarField;
    location    "46";
    object      omega;
}
// * * * * * * * * * * * * * * * * * * * * * * * * * * * * * * * * * * * * * //

dimensions      [0 0 -1 0 0 0 0];


internalField   nonuniform List<scalar> 
78750
(
2385.89
352.837
240.745
134.227
34.7954
24.1984
20.3473
18.8311
19.3412
18.1358
18.8209
18.1871
18.0527
17.7087
17.8535
17.4362
17.5282
17.4414
17.5038
17.5007
17.4656
17.4081
17.3427
17.2747
17.2055
17.1349
17.0614
16.9829
16.8958
16.7947
16.6718
16.5144
16.2867
15.7929
541.177
490.486
40.4624
20.1742
12.4968
14.491
14.1289
13.7581
13.443
13.1007
12.873
12.6056
12.4034
12.2112
12.0599
11.9147
11.8069
11.7126
11.6407
11.5817
11.5321
11.4861
11.4412
11.3959
11.3488
11.2985
11.243
11.1803
11.1078
11.0215
10.9169
10.7889
10.6262
10.3525
9.47897
802.45
425.391
7.40653
11.6284
11.0447
11.2462
12.0941
12.6634
13.2569
13.5193
13.6136
13.6184
13.5667
13.4832
13.3773
13.2555
13.1207
12.9762
12.8254
12.6745
12.5283
12.3903
12.2634
12.1495
12.0496
11.9635
11.8899
11.8262
11.7687
11.7112
11.6453
11.5599
11.4318
11.1695
10.6391
806.893
408.561
8.52914
10.2517
11.2275
11.2592
9.88972
6.31477
4.33505
4.68753
6.25908
9.06386
10.7153
11.7413
12.3544
12.7142
12.9232
13.0368
13.0888
13.0981
13.0737
13.0193
12.9379
12.8337
12.7134
12.5845
12.4548
12.3306
12.2162
12.1122
12.0128
11.9002
11.7284
11.3534
10.9434
810.297
412.743
11.6861
12.5673
13.0179
13.3243
13.4524
13.2801
12.5469
11.3805
10.22
9.21751
8.50824
8.25165
8.50121
9.1449
10.0107
10.9272
11.7074
12.2198
12.4828
12.597
12.6466
12.6702
12.6744
12.6559
12.6134
12.5503
12.4749
12.3943
12.3123
12.221
12.0783
11.7476
11.7889
814.208
410.382
11.1026
12.4959
13.0592
13.3251
13.4776
13.6045
13.7627
13.8936
13.8931
13.7121
13.3357
12.7652
12.0012
11.0418
9.89797
8.50073
7.00292
6.36863
7.19849
8.79005
10.2642
11.2179
11.708
11.9455
12.0744
12.1538
12.2009
12.2217
12.2199
12.1978
12.1559
12.1426
12.9414
817.42
412.763
12.504
13.8882
14.4049
14.6099
14.6386
14.5159
14.2674
13.9652
13.6985
13.5184
13.4222
13.3653
13.2948
13.1589
12.8929
12.4134
11.6707
10.6906
9.47739
8.22065
7.72671
8.20785
9.27838
10.3969
11.2224
11.7246
12.0167
12.1856
12.2733
12.2853
12.1795
11.9876
13.2936
820.077
420.313
14.6298
15.0958
15.1323
15.0474
14.8882
14.6999
14.5143
14.3169
14.1007
13.8841
13.6863
13.5103
13.3493
13.1921
13.0226
12.8139
12.5174
12.0563
11.3317
10.2939
9.10467
8.33599
8.32917
8.7642
9.49438
10.2947
10.9616
11.4542
11.8209
12.118
12.3868
12.7743
14.6179
822.688
420.057
13.7099
14.1611
14.3167
14.3579
14.3137
14.2094
14.0781
13.9804
13.9786
14.0369
14.0738
14.0618
13.9967
13.8764
13.7006
13.471
13.1883
12.8407
12.393
11.7748
10.9166
10.0035
9.58685
9.61238
9.84154
10.226
10.7298
11.2326
11.6502
11.963
12.1967
12.7194
15.0972
824.45
416.754
13.7395
14.8963
15.3595
15.5857
15.6679
15.5798
15.2471
14.6688
14.0917
13.8847
13.964
14.0809
14.1471
14.1584
14.1168
14.0138
13.8339
13.5632
13.195
12.7203
12.1172
11.3951
10.6934
10.1967
9.98795
10.017
10.2334
10.6197
11.1401
11.741
12.3788
13.3531
16.0982
826.396
418.874
13.9283
14.8454
15.2331
15.4459
15.5638
15.5904
15.4893
15.1212
14.4293
13.9657
14.0008
14.1676
14.2714
14.3204
14.3233
14.2733
14.1674
13.9906
13.7027
13.2681
12.6787
11.966
11.2587
10.7568
10.5155
10.4495
10.4953
10.6447
10.9194
11.3827
12.2104
13.8193
16.9621
827.863
422.579
15.076
15.6226
15.793
15.8246
15.7338
15.5275
15.2548
14.9275
14.4952
14.1627
14.2118
14.3775
14.4925
14.5599
14.5884
14.5733
14.5091
14.3862
14.1802
13.8578
13.387
12.7593
12.0351
11.384
10.9797
10.8312
10.8674
11.0428
11.3275
11.7122
12.4603
14.4762
17.8601
829.073
423.451
15.6464
16.1674
16.2975
16.2786
16.1468
15.919
15.6186
15.2748
14.9004
14.561
14.4538
14.5382
14.6479
14.7314
14.7858
14.8066
14.7846
14.7079
14.5587
14.3124
13.9401
13.4139
12.7262
11.929
11.1682
10.6269
10.3962
10.4791
10.8907
11.6161
12.683
15.0756
18.5763
829.925
425.276
15.8717
16.1702
16.1191
15.9608
15.8467
15.7975
15.7416
15.6205
15.4025
15.086
14.8016
14.7244
14.7907
14.8757
14.9465
14.9979
15.0188
14.9985
14.9239
14.775
14.5302
14.1693
13.6766
13.0551
12.3495
11.6551
11.0827
10.7203
10.6835
11.2493
12.663
15.5304
19.1268
830.829
433.001
17.3197
17.0236
16.4289
15.9328
15.7752
15.7945
15.8279
15.809
15.7122
15.5162
15.2402
15.0316
14.998
15.0422
15.0966
15.1471
15.1826
15.1898
15.1583
15.0781
14.9338
14.7037
14.3723
13.938
13.4179
12.8507
12.2917
11.7988
11.4423
11.5
12.7451
15.9782
19.6438
831.805
436.584
17.3947
16.6102
15.5608
15.2364
15.3527
15.5471
15.7081
15.7957
15.7946
15.7066
15.5584
15.4218
15.3672
15.3684
15.386
15.4029
15.41
15.3988
15.3608
15.2872
15.1665
14.9827
14.7192
14.366
13.9265
13.4221
12.8924
12.3895
11.9873
11.9932
13.3837
16.8455
20.3795
833.004
426.864
16.0909
16.177
16.0099
15.722
15.3284
15.1153
15.1794
15.4021
15.5965
15.6953
15.7291
15.7373
15.7434
15.7523
15.7599
15.7605
15.7484
15.7178
15.6625
15.5746
15.4451
15.2618
15.0102
14.6776
14.259
13.7642
13.2235
12.6876
12.2383
12.2239
13.8286
17.641
21.0591
834.075
421.164
17.456
18.2034
18.0919
17.5745
16.6624
15.5391
14.5118
14.2258
14.7385
15.2566
15.566
15.7397
15.8448
15.9133
15.9579
15.983
15.9885
15.9722
15.9302
15.8568
15.7433
15.5802
15.3553
15.0548
14.6683
14.1937
13.6442
13.0527
12.5002
12.4352
14.2762
18.3059
21.6393
835.244
422.545
17.1907
17.7462
17.5232
17.1197
16.7535
16.3901
15.3119
13.4884
13.1617
14.0572
14.8876
15.3664
15.6443
15.8263
15.9457
16.0174
16.0518
16.0545
16.0282
15.9722
15.8833
15.7532
15.5723
15.3335
15.0264
14.6423
14.179
13.6422
13.0572
12.776
14.4811
18.7305
22.1174
836.59
436.674
17.8036
16.8337
15.6493
14.2815
13.5943
14.0726
14.2257
13.1142
12.9996
14.2777
14.9248
15.2912
15.5772
15.7923
15.9427
16.0361
16.0801
16.0806
16.0422
15.9684
15.8614
15.7147
15.5184
15.2733
14.9822
14.6448
14.2596
13.8258
13.3707
13.2838
15.1484
19.2998
22.6466
837.884
453.263
19.0064
16.4475
13.72
11.4898
11.3793
12.4327
13.3969
14.5598
15.0728
15.2737
15.5188
15.7349
15.9061
16.0348
16.1238
16.1744
16.1876
16.1637
16.1028
16.0029
15.8592
15.6675
15.4251
15.1368
14.8133
14.4677
14.1117
13.7562
13.4553
13.6481
15.8155
19.9166
23.1884
838.822
440.827
14.3484
11.7972
11.0826
13.3138
14.3027
14.4213
14.5699
14.7542
14.9967
15.2656
15.5016
15.7074
15.8822
16.0239
16.1313
16.2028
16.2366
16.2303
16.1809
16.0828
15.9303
15.7179
15.4419
15.1041
14.7164
14.3005
13.8856
13.5106
13.299
13.8028
16.3432
20.3769
23.5074
838.84
420.402
15.2294
16.3215
16.7467
16.4867
15.7088
14.8301
14.1733
13.7982
13.6719
13.7343
13.9494
14.2625
14.6178
14.9678
15.2806
15.5405
15.743
15.8858
15.9671
15.9847
15.9344
15.81
15.605
15.3162
14.9464
14.5084
14.0285
13.5547
13.2207
13.5815
16.1431
20.4148
23.6356
839.375
419.734
18.3841
19.7182
20.0634
20.0311
19.7807
19.2348
18.4347
17.4607
16.3977
15.3227
14.3051
13.4433
12.8758
12.7218
12.9781
13.5012
14.1043
14.6371
15.0399
15.3208
15.5007
15.5831
15.5572
15.411
15.1377
14.7399
14.23
13.6379
13.1439
13.5761
16.0826
20.481
23.8581
840.535
416.852
15.2282
17.0258
18.068
18.8161
19.4042
19.8694
20.1986
20.345
20.2379
19.8649
19.2303
18.3057
17.0645
15.5262
13.8038
12.2108
11.3295
11.5228
12.4631
13.473
14.1667
14.5685
14.8069
14.9363
14.9475
14.813
14.5129
14.0325
13.427
13.7769
16.6068
20.8378
24.2048
842.02
421.124
16.5352
18.1058
18.702
18.8446
18.7238
18.4706
18.2744
18.2925
18.5272
18.9146
19.3887
19.8195
20.0264
19.8345
19.1091
17.7922
15.8767
13.2612
10.5847
9.84642
11.0249
12.5484
13.5967
14.1471
14.3803
14.3959
14.2274
13.8778
13.3722
13.6605
16.8475
21.0944
24.4568
843.282
435.524
20.3464
20.8919
20.8454
20.6033
20.2343
19.9134
19.8055
19.7723
19.5062
18.9298
18.3001
17.9779
18.1036
18.4716
18.7926
18.8927
18.5715
17.5005
15.3621
12.2433
9.93662
10.2047
11.6394
13.0028
13.8776
14.3044
14.401
14.2227
13.8175
14
17.2928
21.4744
24.7854
844.57
448.865
20.5882
19.6631
18.8923
17.9701
16.7731
16.3852
17.5788
19.3939
20.6056
21.0612
20.9694
20.439
19.6593
19.0198
18.6926
18.5431
18.407
18.1047
17.1123
14.6883
11.9095
10.7021
11.0697
11.901
12.7483
13.4166
13.8262
13.9664
13.8622
14.0592
17.0999
21.5352
24.9929
845.609
450.681
20.253
19.6719
18.9902
17.6756
15.8169
15.3724
16.7054
18.3877
19.6311
20.3989
20.8572
21.0666
21.0175
20.6938
20.2066
19.7223
19.2752
18.797
18.1107
16.7003
14.2321
12.099
11.5528
11.9476
12.6021
13.2528
13.7494
14.022
14.0778
14.3583
17.1317
21.7272
25.2971
846.5
445.657
20.1909
20.067
19.6069
18.5463
16.7806
15.5474
16.2242
17.3997
18.4783
19.3609
20.0221
20.4977
20.8223
21.0104
21.0666
20.9878
20.7307
20.0781
18.4913
16.0103
13.6382
12.3688
12.1794
12.4892
13.0072
13.5741
14.0565
14.3672
14.4713
14.6402
17.0064
21.7855
25.5317
847.257
442.967
20.0543
20.0605
19.8432
19.3124
17.8492
14.6025
12.673
14.126
16.0037
17.4201
18.3552
18.914
19.1581
19.0576
18.615
18.0277
17.4225
16.7187
15.854
14.9453
14.2839
13.9961
13.9903
14.1547
14.414
14.7042
14.9634
15.1364
15.1923
15.382
17.5849
22.2394
25.9917
848.052
442.507
20.3022
20.374
20.2166
19.8101
18.8467
16.538
12.7641
11.8414
13.3534
14.7189
15.6099
16.1935
16.5786
16.8049
16.8833
16.8465
16.7325
16.563
16.3652
16.187
16.0752
16.0372
16.0507
16.0904
16.1344
16.1622
16.1523
16.0857
15.9839
16.262
18.6035
22.9056
26.4309
848.003
440.366
20.109
20.2563
20.1918
20.0332
19.779
19.2149
17.3493
13.9421
11.5738
11.6115
12.9761
14.2436
15.1445
15.7771
16.2188
16.5313
16.7592
16.9317
17.0694
17.188
17.2979
17.4022
17.4955
17.5661
17.5968
17.5661
17.4501
17.224
16.8956
16.9284
19.2289
23.2601
26.5673
847.557
443.831
20.5653
20.652
20.5604
20.3051
19.779
18.8628
17.9487
17.2529
15.6763
12.6847
10.1241
10.7471
12.6763
14.2435
15.2945
15.9906
16.4963
16.9006
17.2358
17.5289
17.8004
18.0494
18.2699
18.453
18.5841
18.6395
18.5864
18.3805
17.9687
17.6096
19.3903
23.2459
26.5511
848.306
447.03
20.5561
20.5371
20.4392
20.1865
19.6045
18.2135
15.3317
12.4008
11.754
11.2947
10.4386
11.5064
13.0257
14.0556
14.8724
15.6075
16.2439
16.7911
17.261
17.6629
18.0227
18.3641
18.6845
18.9734
19.2138
19.3817
19.443
19.3421
18.978
18.4594
19.8067
23.4767
26.9082
850.892
442.621
20.1793
20.4549
20.4545
20.2929
19.9625
19.3761
18.0515
14.9924
11.5109
9.97641
9.65309
10.8486
12.4378
13.4896
14.299
15.0466
15.7508
16.3908
16.9588
17.4615
17.9228
18.362
18.7803
19.1678
19.507
19.7758
19.9481
19.9837
19.7943
19.5022
20.8983
24.2833
27.6787
853.5
442.695
20.6394
20.8171
20.7325
20.4997
20.0949
19.5353
18.7703
17.2171
13.9589
10.3434
8.82089
9.64848
11.3935
12.6381
13.5222
14.3013
15.0598
15.7756
16.4361
17.0447
17.6204
18.1735
18.6976
19.1793
19.5998
19.9378
20.18
20.3485
20.5226
20.8705
22.5073
25.307
28.275
853.485
443.34
20.6695
20.6392
20.4052
20.0342
19.5457
19.2201
19.1619
18.8087
17.1813
13.416
9.15769
8.12564
9.96203
11.5859
12.6782
13.5497
14.3503
15.115
15.8473
16.5535
17.2387
17.9017
18.5335
19.1145
19.6159
20.0084
20.2819
20.5269
21.0844
22.2269
24.002
26.0752
28.3688
850.851
449.585
21.6099
21.1093
20.5655
19.8551
18.9239
18.2139
18.1356
18.4519
18.3815
16.7519
12.3849
8.01357
8.5217
10.5715
11.9184
12.88
13.7289
14.5318
15.3067
16.0686
16.8253
17.5766
18.3124
19.0068
19.6171
20.0942
20.408
20.6384
21.2383
22.8341
24.7777
26.3733
28.119
848.311
456.462
21.6872
20.6598
19.819
18.74
17.6067
17.2691
17.448
17.6803
17.7304
17.1217
14.4863
9.56974
7.40721
9.80553
11.4207
12.4477
13.3368
14.1648
14.9416
15.6957
16.4679
17.2693
18.0814
18.877
19.6106
20.2171
20.6323
20.8604
21.2177
22.5754
24.6609
26.1626
27.7551
847.845
458.089
21.2441
20.193
19.2452
17.7908
16.1243
15.6132
16.1375
16.6086
16.6701
16.0945
14.2467
10.6433
8.16929
9.83556
11.3527
12.3124
13.1692
14.001
14.7877
15.5388
16.3045
17.1205
17.9681
18.8226
19.6485
20.385
20.9482
21.2721
21.4675
22.25
24.136
25.7721
27.5795
849.114
452.587
20.6764
20.2296
19.6249
18.4245
16.3881
14.2966
13.8706
14.423
14.6516
14.0386
12.2882
9.64983
8.91001
10.7002
11.9502
12.788
13.5562
14.3024
15.0227
15.7452
16.5018
17.297
18.1243
18.9718
19.8192
20.6239
21.3068
21.7691
21.9973
22.4516
23.9804
25.7177
27.7702
850.501
447.395
20.8982
20.945
20.713
19.9982
18.102
14.2665
10.7383
10.6963
11.5693
11.4792
10.4782
9.66753
10.6326
12.0785
13.0638
13.8273
14.5037
15.1452
15.7778
16.4236
17.0991
17.8115
18.56
19.339
20.1385
20.9347
21.6714
22.2539
22.6227
23.0669
24.3515
26.0111
28.0578
850.69
447.226
20.7751
20.7905
20.6939
20.3313
19.2052
16.127
10.4841
6.43418
7.47521
8.52337
9.09469
10.2882
12.0731
13.339
14.2273
14.9386
15.5631
16.1404
16.6973
17.2563
17.8355
18.4475
19.0968
19.7809
20.4925
21.2198
21.9353
22.579
23.0931
23.6512
24.8075
26.2953
28.1855
850.303
444.717
19.9877
20.0788
20.1289
20.1021
19.8424
18.8101
15.6273
9.74888
5.52871
5.61209
6.3046
9.68287
12.2997
13.8207
14.851
15.6203
16.266
16.8501
17.4036
17.9463
18.4953
19.0653
19.665
20.2926
20.9376
21.5883
22.2352
22.859
23.4367
24.0854
25.1793
26.537
28.3291
850.865
442.861
20.3233
20.5807
20.6689
20.7114
20.7673
20.8152
20.4347
18.216
13.1736
7.03464
4.32679
5.77239
8.88954
12.445
14.2204
15.3568
16.2167
16.9296
17.5642
18.1659
18.763
19.3783
20.0285
20.7156
21.4155
22.0875
22.7074
23.2841
23.8583
24.5664
25.6467
26.9283
28.6873
852.208
441.772
20.4391
20.743
20.8104
20.7531
20.5924
20.4307
20.5232
20.7843
20.1022
16.7883
10.9576
5.77553
5.58731
6.24908
11.6992
14.15
15.5365
16.545
17.3654
18.0858
18.7621
19.4387
20.159
20.955
21.8161
22.6597
23.3827
23.9667
24.5182
25.2379
26.2583
27.4107
29.0448
852.486
444.763
20.674
20.7557
20.7632
20.7117
20.5579
20.21
19.6583
19.3231
19.5192
19.6241
17.7584
11.9405
5.48195
5.066
4.17904
11.2585
14.1672
15.7676
16.9071
17.8257
18.6359
19.3993
20.1768
21.0372
22.0257
23.0856
24.039
24.7584
25.3382
26.0104
26.8624
27.7904
29.1531
851.079
448.214
20.8744
20.6966
20.584
20.4651
20.3116
20.1332
19.861
19.2846
18.5938
18.2319
18.1139
16.3688
10.1329
5.81526
5.78365
6.01689
12.0541
14.8286
16.4345
17.6104
18.5692
19.4197
20.2331
21.092
22.0866
23.2425
24.4157
25.3738
26.0773
26.7041
27.3561
28.0386
29.0907
849.434
451.491
21.1853
20.8436
20.6333
20.3898
20.0266
19.5918
19.291
19.0757
18.6391
17.8758
16.8941
15.5404
11.7788
6.05972
5.97228
4.56711
10.3645
13.8954
15.9281
17.3357
18.4669
19.4487
20.335
21.1907
22.1163
23.2059
24.4324
25.5827
26.4626
27.1074
27.6322
28.1419
28.991
848.979
452.182
20.9411
20.5346
20.3009
20.0194
19.5834
19.0228
18.4921
18.0864
17.6951
17.0732
15.9417
14.0327
10.6625
6.41846
5.55926
6.57313
8.56207
13.2569
15.6171
17.1959
18.4749
19.5677
20.5187
21.37
22.2075
23.1436
24.2447
25.413
26.4144
27.1288
27.6254
28.072
28.9055
850.205
451.804
20.8382
20.4221
20.1292
19.7338
19.147
18.4956
17.9068
17.3354
16.6733
15.7475
14.3204
12.0437
8.59327
5.00448
4.22374
5.60286
8.47432
13.4975
16.0324
17.66
18.9433
20.0213
20.9408
21.7287
22.4551
23.226
24.1444
25.211
26.2415
27.0291
27.5754
28.0844
29.1117
853.077
450.896
20.7973
20.4084
20.0876
19.6127
18.866
18.0007
17.2447
16.5475
15.7207
14.5473
12.831
10.4482
7.59765
5.6962
5.13953
5.28942
8.04215
13.5754
16.4582
18.2553
19.659
20.8007
21.7085
22.4175
23.0186
23.6333
24.3908
25.3469
26.3569
27.1876
27.8135
28.4508
29.7092
855.769
450.396
20.7768
20.3922
20.0636
19.5766
18.7965
17.8254
16.9115
16.0782
15.1484
13.913
12.2025
9.88216
7.09882
5.32757
5.26116
5.40166
7.51789
12.3499
16.3766
18.6186
20.2862
21.6631
22.7145
23.4385
23.9538
24.4272
25.0308
25.8611
26.7967
27.6074
28.2617
28.9487
30.2085
855.535
449.878
20.6838
20.2766
19.9193
19.4
18.6085
17.6424
16.6945
15.8277
14.9213
13.7931
12.3145
10.4046
8.06759
5.77842
4.67769
5.48931
5.79721
10.0967
15.1091
18.209
20.2566
21.9953
23.4191
24.421
25.0499
25.4949
25.9699
26.6186
27.38
28.0686
28.6442
29.2377
30.2371
852.438
449.891
20.7377
20.3018
19.9096
19.3466
18.5298
17.5775
16.6298
15.7385
14.8424
13.8244
12.5989
11.1594
9.51782
7.74618
5.96702
4.45395
4.02158
7.34165
12.4638
17.0028
19.5141
21.4706
23.2269
24.6661
25.6899
26.3673
26.8817
27.4021
27.9587
28.4636
28.8887
29.311
29.9905
849.548
450.224
20.7529
20.2522
19.8093
19.195
18.3683
17.4556
16.5536
15.6887
14.8191
13.8687
12.7888
11.628
10.4593
9.31092
8.12974
6.77255
5.19315
4.71468
8.20179
14.3345
18.1467
20.4055
22.2727
23.9573
25.3886
26.4794
27.2661
27.859
28.3374
28.7148
29.0103
29.291
29.7861
848.963
451.156
20.7774
20.1689
19.6429
18.9412
18.1083
17.2693
16.4374
15.6082
14.7552
13.8314
12.8104
11.7523
10.7629
9.92727
9.23661
8.52491
7.52114
6.06024
5.47346
10.3834
16.1093
19.1257
21.1761
22.9232
24.4989
25.8753
26.9827
27.8043
28.3761
28.7564
29.0157
29.2534
29.7591
850.51
452.146
20.747
20.0218
19.3922
18.5619
17.6955
16.9351
16.1973
15.4255
14.5932
13.6741
12.663
11.6304
10.6807
9.94346
9.53628
9.36193
9.03651
8.15528
6.66373
7.72331
13.8359
17.9524
20.3838
22.2034
23.7833
25.2192
26.475
27.4897
28.2188
28.6919
29.0021
29.2912
29.9453
853.114
452.849
20.6744
19.8662
19.1539
18.2113
17.3077
16.6168
15.9752
15.2717
14.4678
13.5474
12.5168
11.449
10.457
9.70744
9.46414
9.72826
9.92557
9.5062
8.3012
7.59574
12.2079
17.1769
19.9286
21.8569
23.4982
24.9684
26.231
27.2765
28.0838
28.6501
29.056
29.4647
30.3411
855.974
452.757
20.5127
19.6869
18.9377
17.9117
16.9273
16.245
15.6693
15.0398
14.2959
13.418
12.4124
11.3421
10.3038
9.47753
9.26504
9.85264
10.4924
10.4015
9.4804
8.64592
11.9313
17.2926
20.147
21.9655
23.55
25.0959
26.4324
27.4307
28.1731
28.734
29.1976
29.7191
30.7795
857.665
452.052
20.3872
19.6324
18.9251
17.8923
16.7869
16.0526
15.5188
14.9573
14.2754
13.4473
12.4803
11.426
10.361
9.42378
9.03724
9.69014
10.7398
11.0383
10.3827
9.72502
12.3316
18.0619
21.3963
22.915
24.0666
25.3888
26.8334
27.9576
28.6773
29.174
29.5967
30.1006
31.098
856.49
450.804
20.2824
19.6669
19.0661
18.0999
16.8164
15.8581
15.2922
14.8141
14.2577
13.5646
12.7268
11.769
10.7438
9.73241
9.02204
9.29682
10.5813
11.5305
11.3638
10.7934
12.4007
17.8152
22.622
24.6848
25.4686
26.1174
27.1433
28.3331
29.2319
29.8088
30.2199
30.6215
31.2865
853.04
449.354
20.2594
19.8307
19.401
18.6497
17.3734
16.0929
15.3257
14.8405
14.3731
13.8117
13.1278
12.329
11.4354
10.4807
9.56836
9.14701
9.94532
11.4564
12.2027
11.9455
12.2247
15.5677
21.0256
25.1125
26.9614
27.5104
27.803
28.377
29.1304
29.7816
30.2537
30.6213
31.035
849.865
447.784
20.241
19.9767
19.6953
19.1694
18.1016
16.5939
15.4564
14.8396
14.4276
14.0104
13.5086
12.9082
12.2146
11.4363
10.5906
9.80545
9.61919
10.7105
12.3168
13.0489
12.9758
13.7382
17.0047
21.7342
25.7333
28.003
28.7589
28.8709
28.9721
29.2156
29.5144
29.8139
30.2017
847.721
447.113
20.3368
20.1376
19.9367
19.5943
18.8782
17.5409
16.1011
15.1821
14.6678
14.288
13.9006
13.456
12.9429
12.3642
11.7112
10.9854
10.3262
10.3081
11.5606
13.2433
14.0437
14.1217
14.7988
17.3112
21.3127
25.3092
28.1485
29.4567
29.7146
29.6272
29.5704
29.6356
29.908
845.898
447.671
20.4218
20.1104
19.8403
19.4908
18.9682
18.0367
16.7056
15.6121
14.9696
14.578
14.2603
13.9322
13.5663
13.1588
12.7
12.1676
11.5572
11.0217
11.1606
12.5534
14.3269
15.2012
15.4041
15.8851
17.6676
20.9136
24.6846
27.908
29.908
30.6655
30.8025
30.8204
30.7943
844.902
449.954
20.6225
20.0849
19.6526
19.1631
18.6705
18.055
17.1301
16.1747
15.4871
15.0461
14.7242
14.438
14.1534
13.8594
13.5441
13.1853
12.7561
12.2516
11.8294
12.0732
13.5676
15.4059
16.4053
16.7743
17.1394
18.25
20.514
23.5906
26.7531
29.2501
30.5371
30.983
30.9419
846.434
451.912
20.6177
19.8545
19.236
18.5528
18.0256
17.5791
17.0199
16.3967
15.8771
15.4925
15.197
14.9419
14.702
14.4731
14.2473
14.0056
13.7247
13.3788
12.968
12.6394
12.9939
14.6678
16.5045
17.6677
18.2497
18.6
19.1546
20.3075
22.1901
24.6201
27.0443
28.4928
29.4902
852.202
452.4
20.4942
19.6115
18.8707
18.0983
17.6218
17.3109
16.9729
16.5897
16.2149
15.8844
15.6
15.3509
15.1281
14.9278
14.7464
14.5698
14.3771
14.1455
13.8559
13.5102
13.2835
14.0224
15.959
17.8131
19.0723
19.7988
20.1954
20.4773
20.862
21.4087
23.0421
25.9667
29.1409
861.796
451.4
20.2933
19.3623
18.5406
17.7251
17.2727
17.0462
16.851
16.6272
16.3745
16.1109
15.8541
15.6166
15.4011
15.2093
15.0392
14.8835
14.7264
14.5483
14.331
14.0554
13.7447
13.8757
15.4763
17.6425
19.431
20.6434
21.3655
21.7178
21.7439
21.2112
22.1377
26.0317
30.5438
869.446
451.839
20.3986
19.3573
18.4483
17.6377
17.2063
16.9818
16.8098
16.6287
16.4212
16.1885
15.9418
15.6988
15.4735
15.2732
15.0979
14.9408
14.7903
14.6291
14.4409
14.2071
13.9198
13.8273
15.0816
17.3776
19.548
21.1656
22.2115
22.7608
22.7771
22.3288
23.8114
27.5073
31.6973
869.734
453.766
20.3887
19.0497
17.9397
17.1763
16.8983
16.7725
16.6636
16.5308
16.361
16.1509
15.9061
15.643
15.3848
15.1479
14.9384
14.7507
14.5726
14.3873
14.1795
13.9346
13.6619
13.6008
14.7507
17.1616
19.5934
21.5066
22.8277
23.5665
23.7606
23.9744
25.916
28.7168
31.8589
864.891
455.169
20.0497
18.4661
17.2063
16.5647
16.4839
16.4768
16.4344
16.3425
16.1982
16.0002
15.7502
15.4592
15.1497
14.8479
14.5683
14.3089
14.0539
13.7792
13.4635
13.1073
12.8689
13.2814
14.969
17.6014
20.0794
22.0235
23.4603
24.3799
24.908
25.711
27.4672
29.3611
31.5587
860.113
452.237
19.2846
18.0042
16.9429
16.2087
15.9651
15.9366
15.9635
15.9601
15.888
15.7358
15.5028
15.1964
14.8358
14.452
14.0715
13.6972
13.3052
12.8481
12.295
11.7761
12.0137
13.7205
16.2177
18.8915
21.2603
23.0089
24.2908
25.3028
26.1453
27.1618
28.4412
29.6886
31.2495
856.401
447.343
19.2386
18.7816
18.2071
17.2509
16.2552
15.5779
15.304
15.2936
15.3383
15.3101
15.1656
14.8987
14.5209
14.0611
13.5572
13.0251
12.4302
11.7041
10.8504
10.4207
12.0403
15.5736
18.3256
20.3405
22.4664
24.3274
25.5232
26.3936
27.2384
28.1172
28.9701
29.7899
30.8349
851.65
443.642
19.8077
19.9333
19.7973
19.2628
18.1376
16.6446
15.3251
14.6472
14.5786
14.7159
14.7744
14.6659
14.3786
13.927
13.3453
12.6627
11.8609
10.8673
9.68743
9.16289
11.67
16.87
20.6227
22.0116
23.1536
24.8809
26.4833
27.4385
28.1114
28.7025
29.2114
29.6726
30.1556
845.563
442.899
20.0522
20.3913
20.5701
20.5826
20.2118
19.0824
17.1888
15.2111
14.0921
13.9858
14.2337
14.3849
14.3236
14.0353
13.5328
12.8456
11.9928
10.9375
9.6068
8.40201
9.63142
14.8246
20.5882
23.5997
24.5545
25.2151
26.3931
27.592
28.3634
28.8506
29.1716
29.3701
29.3764
840.511
443.778
19.7883
19.9731
20.1776
20.4044
20.5938
20.4948
19.5706
17.5367
15.1557
13.8008
13.7273
14.0454
14.2467
14.2241
13.9608
13.4592
12.7358
11.8021
10.6272
9.19644
8.25523
10.3654
15.7924
21.1982
24.6526
26.1718
26.7032
27.2847
27.9445
28.4361
28.7307
28.846
28.673
838.245
446.236
20.0784
19.9573
19.9069
19.9001
19.9978
20.215
20.2913
19.6182
17.6537
15.1773
13.8879
13.8741
14.1762
14.3636
14.3586
14.144
13.7097
13.0559
12.1888
11.095
9.78669
8.83816
10.1932
14.4438
19.5542
23.8948
26.4332
27.2588
27.6357
27.9519
28.1844
28.2955
28.2016
838.612
448.199
20.4294
20.2144
20.097
19.9719
19.8312
19.7825
19.8885
19.8941
19.2495
17.3602
15.2046
14.3452
14.4062
14.6235
14.7471
14.73
14.5524
14.1949
13.6521
12.9316
12.0357
10.9644
9.96619
10.1005
12.6149
17.1071
22.0612
25.5571
26.9187
27.4708
27.774
27.9589
28.0666
840.779
449.788
20.3903
20.0444
19.9191
19.8652
19.8421
19.7895
19.7186
19.6209
19.3163
18.3792
16.6303
15.3518
15.0604
15.1654
15.2956
15.3536
15.3141
15.1561
14.8608
14.4229
13.8556
13.1668
12.3521
11.4643
10.9157
11.8342
15.2448
20.4479
24.3918
26.2208
27.0922
27.6027
28.0817
844.133
450.826
20.0804
19.498
19.216
19.0606
19.1245
19.3406
19.4466
19.3504
19.0241
18.3612
17.2557
16.2478
15.8832
15.8874
15.9714
16.0341
16.0425
15.9815
15.8347
15.5888
15.2447
14.8193
14.3304
13.772
13.1056
12.41
12.3789
14.7903
19.9761
23.7595
25.7523
26.9213
28.0288
848.243
450.898
19.9324
19.2601
18.8344
18.4143
18.2125
18.4251
18.7083
18.7759
18.5636
18.0729
17.4066
16.8644
16.6459
16.6227
16.6566
16.6896
16.6987
16.67
16.5917
16.4529
16.2501
15.9966
15.7157
15.4407
15.1517
14.7331
14.078
13.5918
16.115
20.8229
24.108
26.119
28.0279
852.418
449.911
19.8245
19.1971
18.739
18.1471
17.573
17.4899
17.7695
17.9776
17.9568
17.7337
17.4482
17.2592
17.191
17.1877
17.2049
17.2206
17.2229
17.2027
17.1522
17.0643
16.9354
16.7759
16.6188
16.5225
16.5138
16.496
16.237
15.4611
15.3692
18.9701
22.9491
25.6606
28.2816
855.516
449.34
19.7517
19.1198
18.6377
17.9803
17.1646
16.6898
16.8255
17.1374
17.3302
17.3898
17.3972
17.413
17.4419
17.4742
17.5016
17.5189
17.5224
17.5077
17.4713
17.4099
17.3236
17.226
17.1606
17.2089
17.4219
17.7038
17.8208
17.4206
16.708
18.8708
22.7709
25.75
28.6834
856.554
449.145
19.6414
18.979
18.4807
17.8283
16.9663
16.1692
15.9896
16.3005
16.6656
16.9406
17.1358
17.2781
17.3841
17.4626
17.5184
17.5537
17.5694
17.5647
17.5393
17.4933
17.4323
17.3797
17.4013
17.6087
18.0512
18.5941
18.9882
18.9216
18.4317
19.9384
23.401
26.1923
28.989
855.451
448.705
19.548
18.9117
18.4379
17.8379
17.0614
16.131
15.4802
15.5077
15.8952
16.2964
16.617
16.8581
17.0376
17.1704
17.2666
17.3321
17.3703
17.3827
17.3705
17.3375
17.2966
17.2915
17.4305
17.8564
18.5677
19.3527
19.9556
20.1527
20.0979
21.4956
24.3659
26.6895
29.0841
852.883
448.033
19.4743
18.89
18.4661
17.9547
17.3503
16.5558
15.592
15.0053
15.0939
15.4996
15.9122
16.2432
16.4952
16.6845
16.8247
16.9246
16.9894
17.0213
17.0221
16.998
16.9735
17.0293
17.3452
18.0778
19.098
20.1024
20.8677
21.3014
21.6937
23.1167
25.2788
27.0596
28.9864
849.762
447.647
19.3928
18.815
18.4062
17.9429
17.4983
17.0292
16.2567
15.2551
14.6555
14.7399
15.1399
15.5383
15.8583
16.1036
16.289
16.4257
16.5201
16.574
16.5878
16.5689
16.5551
16.6808
17.2243
18.3374
19.6845
20.8808
21.7868
22.4379
23.1539
24.4692
25.9778
27.2612
28.7309
846.789
447.4
19.2942
18.7089
18.2801
17.762
17.2891
17.0619
16.7435
16.0079
14.9985
14.4283
14.5286
14.8896
15.2446
15.533
15.7583
15.9311
16.0574
16.1364
16.1656
16.151
16.1399
16.3131
17.0537
18.5526
20.2393
21.609
22.6457
23.471
24.3307
25.4126
26.4326
27.3263
28.3989
844.363
446.834
19.2242
18.6964
18.2835
17.6924
16.9712
16.6477
16.6416
16.4225
15.721
14.7686
14.3194
14.4527
14.7669
15.065
15.3133
15.5147
15.6709
15.7774
15.8284
15.8257
15.8123
15.9762
16.7701
18.5393
20.6074
22.1845
23.3377
24.2736
25.1448
25.9881
26.6881
27.3051
28.0735
842.626
446.323
19.2103
18.7579
18.4046
17.8316
16.8832
16.1039
16.0525
16.1775
15.9929
15.3377
14.5862
14.3531
14.5186
14.7762
15.0163
15.2222
15.3923
15.5211
15.5997
15.6232
15.6176
15.7256
16.3752
18.1335
20.5695
22.4958
23.7901
24.7841
25.6156
26.2901
26.8011
27.2411
27.8127
841.599
446.277
19.1505
18.7085
18.4061
17.9292
17.0017
15.8019
15.2964
15.4564
15.5973
15.4056
14.9054
14.5363
14.5359
14.708
14.9029
15.0826
15.2429
15.3788
15.4801
15.5362
15.554
15.6104
16.0121
17.4077
19.9425
22.3813
23.9641
25.03
25.8287
26.4101
26.8237
27.1696
27.6469
841.247
446.011
19.0331
18.6008
18.3468
18.0038
17.2804
16.0257
14.8713
14.587
14.7852
14.9166
14.8228
14.6619
14.6546
14.7742
14.9259
15.0741
15.2139
15.3431
15.4554
15.5404
15.5938
15.6405
15.8392
16.6916
18.8209
21.6348
23.7435
25.0266
25.861
26.4194
26.8013
27.1181
27.5879
841.559
445.111
18.9917
18.6248
18.4438
18.2977
17.9368
17.0042
15.5106
14.2383
13.8616
14.0531
14.3126
14.4823
14.6265
14.7842
14.9423
15.0908
15.2303
15.3626
15.487
15.5991
15.6942
15.7724
15.8897
16.3114
17.6865
20.3148
22.9837
24.7148
25.7254
26.3461
26.7559
27.0969
27.6289
842.534
445.005
19.0905
18.6847
18.5053
18.535
18.6514
18.3767
17.4011
15.7358
14.084
13.3085
13.3982
13.7923
14.1706
14.4794
14.7331
14.9471
15.1351
15.3064
15.4672
15.6205
15.7682
15.9069
16.0482
16.2901
17.0209
18.9281
21.7267
24.0038
25.3776
26.1729
26.6789
27.0969
27.7569
844.104
446.279
19.0527
18.4203
18.1091
18.1604
18.6376
19.0224
18.9412
18.2163
16.6928
14.7122
13.2305
12.8658
13.2127
13.7031
14.1353
14.4906
14.7889
15.049
15.2848
15.5072
15.7264
15.9466
16.1736
16.4353
16.8916
18.0762
20.4515
23.0406
24.8402
25.9018
26.5671
27.1111
27.9513
846.035
446.89
18.7231
17.9048
17.4524
17.3538
17.8383
18.5511
19.0346
19.1581
18.8231
17.7286
15.7623
13.6827
12.6699
12.7788
13.2672
13.761
14.1923
14.5691
14.9075
15.2217
15.5257
15.835
16.167
16.5402
17.0148
17.869
19.6906
22.226
24.3164
25.6389
26.4791
27.1647
28.197
847.919
445.73
18.4183
17.6632
17.1551
16.7283
16.741
17.2806
17.9318
18.399
18.6088
18.5018
17.7837
16.0384
13.9191
12.7822
12.776
13.1863
13.6465
14.0803
14.4871
14.8748
15.2569
15.6509
16.0839
16.5886
17.2026
18.0575
19.5762
21.8768
24.0408
25.5175
26.4834
27.2807
28.4604
849.24
445.057
18.5458
17.9127
17.3921
16.6579
15.9828
15.9434
16.3925
16.9019
17.2501
17.3678
17.1779
16.404
14.852
13.417
12.9558
13.1279
13.4793
13.8617
14.2522
14.6521
15.0657
15.5088
16.0173
16.6455
17.4422
18.4664
19.9517
22.0504
24.1273
25.6145
26.6149
27.459
28.6958
849.651
445.718
18.6356
17.9868
17.5301
16.8874
15.9202
15.2052
15.117
15.3711
15.635
15.7296
15.5564
15.0394
14.1991
13.4703
13.2702
13.4066
13.66
13.9571
14.2844
14.6428
15.0373
15.4867
16.0384
16.7719
17.7572
19.0086
20.5995
22.5777
24.4869
25.8712
26.8222
27.6444
28.8379
849.079
444.99
18.242
17.5751
17.2401
17.0188
16.4645
15.4654
14.5769
14.1136
13.9731
13.9252
13.8177
13.6373
13.463
13.3962
13.4733
13.6464
13.8695
14.1244
14.409
14.7286
15.0964
15.5403
16.1246
16.9577
18.1315
19.616
21.3442
23.2438
24.9613
26.1904
27.046
27.798
28.8717
847.849
443.896
18.24
17.5784
17.2068
17.2066
17.3772
16.9539
15.8996
14.6239
13.5603
12.9395
12.7379
12.7805
12.9098
13.0783
13.2874
13.5313
13.7947
14.0733
14.3705
14.696
15.0708
15.5311
16.1582
17.0911
18.4486
20.1569
22.0157
23.8524
25.3906
26.4649
27.215
27.8743
28.7934
846.398
445.537
18.8083
18.0543
17.497
17.224
17.7627
18.3286
18.2924
17.5954
16.3329
14.7701
13.3432
12.477
12.2213
12.3309
12.6034
12.945
13.3108
13.6831
14.0611
14.4534
14.8797
15.3817
16.0515
17.058
18.5658
20.4869
22.4907
24.3047
25.7141
26.6695
27.3306
27.9017
28.6774
845.279
447.113
18.8051
17.9846
17.4253
16.9104
17.0329
17.8621
18.5917
18.8902
18.678
17.7855
16.1382
14.2019
12.7441
12.1007
12.0439
12.2839