/*--------------------------------*- C++ -*----------------------------------*\
| =========                 |                                                 |
| \\      /  F ield         | OpenFOAM: The Open Source CFD Toolbox           |
|  \\    /   O peration     | Version:  v2006                                 |
|   \\  /    A nd           | Website:  www.openfoam.com                      |
|    \\/     M anipulation  |                                                 |
\*---------------------------------------------------------------------------*/
FoamFile
{
    version     2.0;
    format      ascii;
    class       surfaceScalarField;
    location    "46";
    object      phi;
}
// * * * * * * * * * * * * * * * * * * * * * * * * * * * * * * * * * * * * * //

dimensions      [1 0 -1 0 0 0 0];
oriented        oriented;


internalField   nonuniform List<scalar> 
228225
(
-0.000431724
-4.62796e-05
-9.05801e-06
-0.00038777
-3.53702e-05
-8.62676e-06
-0.000346101
-3.28911e-05
-8.8252e-06
-0.000305851
-3.09142e-05
-9.3767e-06
-0.000270279
-2.55956e-05
-1.00399e-05
-0.000238254
-2.17096e-05
-1.0369e-05
-0.000210295
-1.75293e-05
-1.04761e-05
-0.000185336
-1.46448e-05
-1.03597e-05
-0.000163242
-1.19705e-05
-1.01704e-05
-0.000143392
-1.00782e-05
-9.81793e-06
-0.000125704
-8.32171e-06
-9.41042e-06
-0.000109837
-7.04923e-06
-8.86334e-06
-9.5667e-05
-5.88255e-06
-8.33241e-06
-8.29006e-05
-5.0548e-06
-7.75676e-06
-7.13624e-05
-4.33507e-06
-7.24858e-06
-6.06448e-05
-3.83464e-06
-6.92888e-06
-5.06856e-05
-3.49751e-06
-6.507e-06
-4.21832e-05
-3.3612e-06
-5.17947e-06
-3.56259e-05
-3.35056e-06
-3.23626e-06
-3.0524e-05
-3.35295e-06
-1.77424e-06
-2.6081e-05
-3.3315e-06
-1.13497e-06
-2.18197e-05
-3.28991e-06
-9.93409e-07
-1.75702e-05
-3.23468e-06
-1.03525e-06
-1.33046e-05
-3.16825e-06
-1.11626e-06
-9.04967e-06
-3.09071e-06
-1.18148e-06
-4.8534e-06
-3.00087e-06
-1.21077e-06
-7.73973e-07
-2.89586e-06
-1.1969e-06
3.12132e-06
-2.76926e-06
-1.13713e-06
6.75147e-06
-2.60996e-06
-1.02882e-06
1.00083e-05
-2.39766e-06
-8.65073e-07
1.27354e-05
-2.09762e-06
-6.32456e-07
1.47322e-05
-1.64447e-06
-3.51764e-07
1.55323e-05
-7.67158e-07
-2.66444e-08
1.22044e-05
2.34499e-06
1.00878e-06
1.13192e-05
9.85569e-07
-3.01981e-05
-2.15245e-05
5.45407e-06
-4.72446e-05
-2.09307e-05
2.58647e-06
-5.96447e-05
-2.02939e-05
-2.82948e-07
-6.90742e-05
-1.94166e-05
-2.15676e-06
-7.5513e-05
-1.56966e-05
-3.553e-06
-8.02468e-05
-1.25961e-05
-4.47966e-06
-8.27623e-05
-9.82748e-06
-5.29036e-06
-8.35883e-05
-8.01284e-06
-5.91306e-06
-8.2582e-05
-6.66031e-06
-6.42559e-06
-8.04155e-05
-5.52467e-06
-6.83111e-06
-7.71601e-05
-4.54561e-06
-7.14434e-06
-7.32442e-05
-3.69142e-06
-7.38798e-06
-6.86992e-05
-2.96582e-06
-7.57738e-06
-6.37959e-05
-2.34953e-06
-7.72522e-06
-5.85781e-05
-1.84261e-06
-7.82794e-06
-5.32052e-05
-1.43806e-06
-7.88786e-06
-4.77944e-05
-1.13097e-06
-7.89616e-06
-4.2517e-05
-9.12178e-07
-7.84538e-06
-3.74511e-05
-7.62701e-07
-7.77222e-06
-3.25102e-05
-6.62154e-07
-7.74984e-06
-2.7593e-05
-5.78265e-07
-7.78842e-06
-2.26743e-05
-4.89652e-07
-7.83681e-06
-1.77736e-05
-3.97445e-07
-7.85507e-06
-1.29359e-05
-2.96385e-07
-7.82551e-06
-8.22024e-06
-1.79468e-07
-7.7408e-06
-3.70254e-06
-3.24406e-08
-7.597e-06
5.68377e-07
1.16686e-07
-7.39041e-06
4.51049e-06
3.02606e-07
-7.11606e-06
8.01243e-06
5.57866e-07
-6.76618e-06
1.09304e-05
9.22619e-07
-6.3285e-06
1.3065e-05
1.47264e-06
-5.78918e-06
1.40817e-05
2.37829e-06
-5.11904e-06
1.30891e-05
4.31864e-06
-4.17381e-06
7.03043e-06
1.06467e-05
-2.33023e-06
1.83742e-05
2.73814e-08
-3.50938e-05
1.24792e-05
1.15041e-06
-5.50147e-05
-4.77021e-06
3.79027e-06
-6.86146e-05
-1.00767e-05
3.37642e-06
-7.62711e-05
-1.45733e-05
2.7976e-06
-7.79169e-05
-1.60317e-05
1.94742e-06
-7.62728e-05
-1.51769e-05
8.92149e-07
-7.49042e-05
-1.08975e-05
-3.52636e-07
-7.56202e-05
-5.72636e-06
-1.63798e-06
-7.67498e-05
-2.80148e-06
-2.80535e-06
-7.67721e-05
-1.79803e-06
-3.7858e-06
-7.54159e-05
-1.39989e-06
-4.58811e-06
-7.2897e-05
-1.06262e-06
-5.23851e-06
-6.94986e-05
-6.85862e-07
-5.77356e-06
-6.54533e-05
-2.67152e-07
-6.22693e-06
-6.09306e-05
1.54058e-07
-6.62249e-06
-5.60635e-05
5.61286e-07
-6.97309e-06
-5.10033e-05
9.81035e-07
-7.28191e-06
-4.58505e-05
1.37659e-06
-7.55402e-06
-4.06672e-05
1.73404e-06
-7.79476e-06
-3.54999e-05
2.05787e-06
-8.00392e-06
-3.03725e-05
2.35224e-06
-8.17623e-06
-2.52981e-05
2.62148e-06
-8.30488e-06
-2.03029e-05
2.87148e-06
-8.38412e-06
-1.54212e-05
3.11103e-06
-8.40904e-06
-1.06948e-05
3.35064e-06
-8.3757e-06
-6.16679e-06
3.6029e-06
-8.28077e-06
-1.92813e-06
3.88411e-06
-8.12085e-06
1.93712e-06
4.21757e-06
-7.89103e-06
5.33504e-06
4.63719e-06
-7.58261e-06
8.13892e-06
5.19807e-06
-7.17729e-06
1.01626e-05
6.00248e-06
-6.6417e-06
1.10698e-05
7.30479e-06
-5.90949e-06
1.00048e-05
1.01055e-05
-4.78529e-06
5.20206e-06
1.81605e-05
-2.76158e-06
2.38368e-05
-2.0595e-07
1.47898e-05
-5.30029e-06
2.95671e-06
1.74342e-05
-1.20459e-05
4.57189e-06
1.81882e-05
-1.58585e-05
4.97195e-06
1.61838e-05
-1.76817e-05
5.09583e-06
1.28311e-05
-1.79397e-05
5.2591e-06
8.99187e-06
-1.70443e-05
5.69966e-06
4.54382e-06
-1.30982e-05
6.66787e-06
-5.66831e-07
-7.64469e-06
7.04902e-06
-5.99167e-06
-3.60935e-06
6.21859e-06
-1.1141e-05
-1.41774e-06
4.72406e-06
-1.57897e-05
3.31074e-08
3.15539e-06
-1.97637e-05
1.14986e-06
1.69527e-06
-2.29812e-05
2.08425e-06
3.77545e-07
-2.5417e-05
2.78632e-06
-6.90274e-07
-2.70425e-05
3.28106e-06
-1.57684e-06
-2.7855e-05
3.62595e-06
-2.33072e-06
-2.78371e-05
3.8577e-06
-2.97645e-06
-2.70432e-05
4.03771e-06
-3.54036e-06
-2.56022e-05
4.2489e-06
-4.04457e-06
-2.36348e-05
4.50083e-06
-4.50228e-06
-2.12299e-05
4.76981e-06
-4.91731e-06
-1.84593e-05
5.04064e-06
-5.28694e-06
-1.53967e-05
5.31964e-06
-5.60992e-06
-1.21208e-05
5.61999e-06
-5.88578e-06
-8.71524e-06
5.95264e-06
-6.10967e-06
-5.27092e-06
6.32974e-06
-6.27398e-06
-1.88928e-06
6.76987e-06
-6.37027e-06
1.31258e-06
7.30247e-06
-6.38863e-06
4.19728e-06
7.9708e-06
-6.31745e-06
6.59529e-06
8.84439e-06
-6.13767e-06
8.26917e-06
1.0058e-05
-5.81086e-06
8.80165e-06
1.19631e-05
-5.24573e-06
7.37774e-06
1.57508e-05
-4.21266e-06
3.55168e-06
2.4307e-05
-2.24263e-06
2.75146e-05
-4.51381e-08
-1.15398e-07
-8.71209e-06
3.36587e-06
-4.36426e-07
-1.53972e-05
3.57035e-06
-1.25786e-06
-1.79549e-05
2.83668e-06
-2.71027e-06
-1.86568e-05
2.35733e-06
-4.36602e-06
-1.83891e-05
2.05331e-06
-5.75043e-06
-1.76516e-05
1.96158e-06
-4.60193e-06
-1.64635e-05
2.20244e-06
-4.92945e-07
-1.45267e-05
2.77495e-06
4.26256e-06
-1.177e-05
3.4236e-06
7.96123e-06
-8.89618e-06
3.80715e-06
1.02892e-05
-6.19576e-06
3.92937e-06
1.12592e-05
-3.67524e-06
3.87717e-06
1.10424e-05
-1.36852e-06
3.67591e-06
9.81169e-06
6.85096e-07
3.31612e-06
7.79376e-06
2.47153e-06
2.78862e-06
5.14497e-06
4.10751e-06
2.1076e-06
1.96195e-06
5.65987e-06
1.30433e-06
-1.56944e-06
7.04292e-06
4.40495e-07
-4.90216e-06
7.85767e-06
-3.6037e-07
-7.41193e-06
7.98101e-06
-1.04821e-06
-8.78374e-06
7.7311e-06
-1.66253e-06
-9.1308e-06
7.53486e-06
-2.21887e-06
-8.69912e-06
7.54587e-06
-2.73036e-06
-7.67144e-06
7.71574e-06
-3.19742e-06
-6.16319e-06
7.98039e-06
-3.61167e-06
-4.27088e-06
8.32328e-06
-3.96312e-06
-2.09272e-06
8.76464e-06
-4.2517e-06
2.61845e-07
9.34507e-06
-4.47757e-06
2.65775e-06
1.01242e-05
-4.63178e-06
4.91225e-06
1.12012e-05
-4.69697e-06
6.73142e-06
1.27872e-05
-4.63994e-06
7.50021e-06
1.54641e-05
-4.37415e-06
5.92692e-06
2.08522e-05
-3.64943e-06
2.38504e-06
2.97516e-05
-1.9602e-06
2.99707e-05
-3.09985e-09
-3.21531e-07
-1.09594e-05
2.46678e-06
3.34596e-06
-2.20658e-05
2.93001e-06
8.69689e-06
-2.60844e-05
2.76591e-06
1.50114e-05
-2.72566e-05
2.30614e-06
2.17299e-05
-2.68526e-05
1.78015e-06
2.79132e-05
-2.51485e-05
1.35366e-06
3.26621e-05
-2.23458e-05
1.17221e-06
3.57637e-05
-1.89429e-05
1.34405e-06
3.76885e-05
-1.55155e-05
1.83435e-06
3.87713e-05
-1.24278e-05
2.44724e-06
3.9467e-05
-9.78707e-06
2.88412e-06
4.01934e-05
-7.49617e-06
3.07919e-06
4.10547e-05
-5.38026e-06
3.1359e-06
4.18867e-05
-3.28907e-06
3.13253e-06
4.23822e-05
-1.14262e-06
3.11807e-06
4.20942e-05
1.28525e-06
3.12584e-06
4.0503e-05
4.1087e-06
3.18974e-06
3.73627e-05
6.97123e-06
3.28609e-06
3.27688e-05
9.26475e-06
3.23511e-06
2.70911e-05
1.07806e-05
2.86869e-06
2.09877e-05
1.16148e-05
2.1604e-06
1.53998e-05
1.17769e-05
1.26346e-06
1.08914e-05
1.15962e-05
3.74249e-07
7.61519e-06
1.12936e-05
-3.79477e-07
5.46776e-06
1.10604e-05
-1.00466e-06
4.23963e-06
1.10287e-05
-1.54492e-06
3.71673e-06
1.12287e-05
-2.00499e-06
3.73172e-06
1.16613e-05
-2.39073e-06
4.15436e-06
1.23534e-05
-2.70548e-06
4.86408e-06
1.33907e-05
-2.94362e-06
5.70138e-06
1.501e-05
-3.08833e-06
6.28992e-06
1.79562e-05
-3.08133e-06
5.45822e-06
2.44345e-05
-2.72166e-06
2.52157e-06
3.43031e-05
-1.57002e-06
3.25543e-05
2.24852e-08
7.05302e-06
-1.90153e-05
1.09437e-06
1.37545e-05
-3.01443e-05
1.54942e-06
1.91269e-05
-3.26582e-05
1.35512e-06
2.36385e-05
-3.2606e-05
9.66341e-07
2.75126e-05
-3.11539e-05
5.44892e-07
3.06215e-05
-2.82598e-05
1.24764e-07
3.26832e-05
-2.40687e-05
-1.98354e-07
3.3645e-05
-1.93472e-05
-3.95964e-07
3.36276e-05
-1.49245e-05
-4.04287e-07
3.28577e-05
-1.12997e-05
-2.0246e-07
3.16165e-05
-8.58021e-06
1.61332e-07
3.02323e-05
-6.57526e-06
5.57987e-07
2.9037e-05
-4.98944e-06
8.69516e-07
2.82543e-05
-3.55948e-06
1.09151e-06
2.79667e-05
-2.09081e-06
1.24991e-06
2.83032e-05
-4.36973e-07
1.37837e-06
2.93835e-05
1.48593e-06
1.51804e-06
3.08993e-05
3.72524e-06
1.69326e-06
3.2022e-05
6.19829e-06
1.89662e-06
3.1754e-05
8.86868e-06
2.1404e-06
2.96067e-05
1.13813e-05
2.36144e-06
2.60118e-05
1.30346e-05
2.32267e-06
2.19183e-05
1.3681e-05
1.98626e-06
1.8124e-05
1.36582e-05
1.3922e-06
1.49804e-05
1.35042e-05
6.49933e-07
1.25497e-05
1.34907e-05
-8.60725e-08
1.0713e-05
1.37057e-05
-6.95867e-07
9.34168e-06
1.41852e-05
-1.20765e-06
8.30019e-06
1.49735e-05
-1.63192e-06
7.45562e-06
1.61667e-05
-1.98087e-06
6.64812e-06
1.8025e-05
-2.2469e-06
5.61219e-06
2.13472e-05
-2.36722e-06
3.88976e-06
2.8318e-05
-2.11967e-06
1.65357e-06
3.77555e-05
-1.15872e-06
3.4168e-05
1.1694e-07
3.55106e-06
-2.40037e-05
1.48006e-06
4.41613e-06
-3.35391e-05
2.46925e-06
4.25737e-06
-3.49946e-05
2.35598e-06
4.10512e-06
-3.46435e-05
2.01786e-06
4.21824e-06
-3.31051e-05
1.6528e-06
4.62926e-06
-3.00894e-05
1.23264e-06
5.36475e-06
-2.57036e-05
7.30402e-07
6.30135e-06
-2.06102e-05
1.91703e-07
7.18506e-06
-1.55865e-05
-3.15019e-07
7.94168e-06
-1.14288e-05
-6.85875e-07
8.70633e-06
-8.52201e-06
-8.58236e-07
9.50565e-06
-6.5534e-06
-8.42771e-07
1.02563e-05
-5.05696e-06
-6.96607e-07
1.09018e-05
-3.72324e-06
-4.9091e-07
1.14627e-05
-2.37927e-06
-2.80617e-07
1.2011e-05
-9.14376e-07
-8.10996e-08
1.26754e-05
6.95982e-07
1.10339e-07
1.36295e-05
2.43038e-06
3.17351e-07
1.47925e-05
4.43249e-06
5.69181e-07
1.60171e-05
6.70488e-06
8.95742e-07
1.68821e-05
9.16466e-06
1.2984e-06
1.66527e-05
1.14996e-05
1.70459e-06
1.52792e-05
1.30837e-05
1.91654e-06
1.33634e-05
1.36899e-05
1.83745e-06
1.13332e-05
1.39124e-05
1.57784e-06
9.50104e-06
1.41177e-05
1.15965e-06
8.07757e-06
1.44602e-05
6.21454e-07
7.09025e-06
1.50695e-05
5.36266e-08
6.44903e-06
1.60336e-05
-4.69643e-07
6.03368e-06
1.74782e-05
-9.4618e-07
5.64421e-06
1.97463e-05
-1.37397e-06
4.83488e-06
2.38524e-05
-1.70548e-06
2.97342e-06
3.19597e-05
-1.70989e-06
1.16725e-06
4.06892e-05
-9.99794e-07
3.53843e-05
6.96036e-08
-4.42423e-06
-2.11151e-05
1.32309e-06
-7.4215e-06
-3.23216e-05
1.57609e-06
-8.94624e-06
-3.51364e-05
1.50888e-06
-9.27168e-06
-3.57362e-05
1.2745e-06
-8.33416e-06
-3.52128e-05
1.01305e-06
-5.77355e-06
-3.35947e-05
7.63645e-07
-1.43917e-06
-3.07532e-05
5.21727e-07
3.91902e-06
-2.64054e-05
2.52986e-07
8.80362e-06
-2.05635e-05
-6.21209e-08
1.17461e-05
-1.40971e-05
-3.93327e-07
1.2667e-05
-8.85735e-06
-6.77388e-07
1.25687e-05
-5.68726e-06
-8.43522e-07
1.22487e-05
-3.90898e-06
-8.94369e-07
1.20146e-05
-2.69205e-06
-8.57609e-07
1.1947e-05
-1.6046e-06
-7.62907e-07
1.20831e-05
-4.66136e-07
-6.36173e-07
1.23918e-05
8.34319e-07
-4.95243e-07
1.27802e-05
2.34253e-06
-3.4608e-07
1.3292e-05
4.0564e-06
-1.80007e-07
1.39373e-05
5.98847e-06
2.5655e-08
1.46063e-05
8.12438e-06
3.21498e-07
1.49671e-05
1.03538e-05
7.2747e-07
1.45748e-05
1.22557e-05
1.15395e-06
1.34923e-05
1.3374e-05
1.3278e-06
1.20893e-05
1.39766e-05
1.26835e-06
1.06283e-05
1.44136e-05
1.09429e-06
9.26371e-06
1.49206e-05
8.33755e-07
8.11368e-06
1.5669e-05
4.8363e-07
7.22779e-06
1.67881e-05
7.0418e-08
6.55353e-06
1.84568e-05
-3.57605e-07
5.9396e-06
2.11002e-05
-7.77434e-07
5.01376e-06
2.5932e-05
-1.14136e-06
3.21855e-06
3.51379e-05
-1.25811e-06
1.39502e-06
4.34506e-05
-7.63582e-07
3.68159e-05
8.22536e-08
-4.734e-07
-2.13968e-05
5.80174e-07
7.63924e-07
-3.44132e-05
7.32472e-07
2.27401e-06
-3.77368e-05
1.03431e-06
3.83535e-06
-3.847e-05
1.14959e-06
5.57613e-06
-3.81063e-05
1.14948e-06
7.6929e-06
-3.67889e-05
1.08401e-06
1.039e-05
-3.44377e-05
9.89467e-07
1.39206e-05
-3.08511e-05
9.03676e-07
1.79909e-05
-2.54761e-05
8.21041e-07
2.10343e-05
-1.77876e-05
6.24629e-07
2.1699e-05
-9.76768e-06
2.21566e-07
2.06563e-05
-4.46261e-06
-2.10159e-07
1.91947e-05
-1.96149e-06
-5.1769e-07
1.79214e-05
-7.63012e-07
-6.90647e-07
1.69821e-05
6.24478e-08
-7.66719e-07
1.62612e-05
9.89531e-07
-7.78432e-07
1.58232e-05
1.97054e-06
-7.46808e-07
1.56952e-05
3.10215e-06
-6.84264e-07
1.58421e-05
4.45073e-06
-5.95992e-07
1.61773e-05
6.07688e-06
-4.78588e-07
1.66051e-05
7.96027e-06
-3.16709e-07
1.70006e-05
9.99203e-06
-8.41319e-08
1.70368e-05
1.19471e-05
2.25083e-07
1.63426e-05
1.34867e-05
5.38225e-07
1.5059e-05
1.44642e-05
7.56428e-07
1.35173e-05
1.5081e-05
8.36674e-07
1.19559e-05
1.56453e-05
7.99784e-07
1.05283e-05
1.63941e-05
6.6502e-07
9.30853e-06
1.75433e-05
4.2543e-07
8.25833e-06
1.93847e-05
7.62925e-08
7.12461e-06
2.25323e-05
-3.69139e-07
5.28622e-06
2.8476e-05
-8.30847e-07
2.62078e-06
3.87164e-05
-1.04389e-06
9.83376e-07
4.57449e-05
-6.69863e-07
3.78459e-05
3.78345e-08
5.12703e-06
-2.63796e-05
-1.31597e-07
9.3727e-06
-3.79567e-05
-6.38136e-07
1.19133e-05
-3.967e-05
-5.80823e-07
1.32857e-05
-3.94077e-05
-4.23797e-07
1.3659e-05
-3.81227e-05
-3.37964e-07
1.28681e-05
-3.56126e-05
-3.41619e-07
1.08358e-05
-3.1933e-05
-4.04949e-07
8.22912e-06
-2.77358e-05
-4.42669e-07
6.26722e-06
-2.3133e-05
-3.43616e-07
5.62344e-06
-1.70263e-05
-1.09852e-07
5.57391e-06
-9.61312e-06
-1.15652e-07
5.5018e-06
-3.98865e-06
-4.23808e-07
5.44378e-06
-1.22349e-06
-7.07072e-07
5.41557e-06
1.00898e-07
-8.64562e-07
5.45259e-06
9.46364e-07
-9.51393e-07
5.61298e-06
1.79e-06
-9.93685e-07
5.86797e-06
2.6746e-06
-9.9495e-07
6.26983e-06
3.62144e-06
-9.60721e-07
6.86265e-06
4.71225e-06
-8.98187e-07
7.62966e-06
6.06387e-06
-8.02707e-07
8.49033e-06
7.70532e-06
-6.58743e-07
9.31512e-06
9.56145e-06
-4.48656e-07
9.91802e-06
1.14561e-05
-1.62291e-07
1.01106e-05
1.30967e-05
1.55008e-07
9.87881e-06
1.42519e-05
4.05277e-07
9.37312e-06
1.50078e-05
5.38001e-07
8.75411e-06
1.56449e-05
5.75761e-07
8.12868e-06
1.6427e-05
5.47459e-07
7.55343e-06
1.76187e-05
4.54792e-07
7.01172e-06
1.96072e-05
2.76468e-07
6.30266e-06
2.32139e-05
-1.70816e-08
4.80876e-06
3.03531e-05
-4.72684e-07
2.30938e-06
4.18532e-05
-8.06291e-07
9.37361e-07
4.76313e-05
-5.86716e-07
3.88601e-05
-3.5074e-09
1.84566e-06
-2.78566e-05
-2.2114e-07
3.27143e-06
-3.87495e-05
-4.66101e-07
4.39569e-06
-4.01469e-05
-5.12861e-07
5.29163e-06
-3.96535e-05
-5.27341e-07
5.73866e-06
-3.7879e-05
-5.72479e-07
5.50194e-06
-3.46011e-05
-6.72975e-07
4.42343e-06
-2.99565e-05
-8.25247e-07
2.37342e-06
-2.46646e-05
-9.75495e-07
-2.79913e-07
-1.94282e-05
-1.03132e-06
-2.26446e-06
-1.41322e-05
-9.19043e-07
-2.7207e-06
-8.41462e-06
-7.75519e-07
-2.22148e-06
-3.70495e-06
-8.24942e-07
-1.46718e-06
-1.082e-06
-9.38411e-07
-6.69831e-07
2.78293e-07
-1.01699e-06
1.09879e-07
1.19141e-06
-1.06669e-06
9.15651e-07
2.0387e-06
-1.09614e-06
1.7399e-06
2.91276e-06
-1.10414e-06
2.57235e-06
3.83496e-06
-1.08858e-06
3.42872e-06
4.86149e-06
-1.05028e-06
4.37098e-06
6.06005e-06
-9.86338e-07
5.44759e-06
7.46411e-06
-8.8742e-07
6.62536e-06
9.06637e-06
-7.38907e-07
7.75566e-06
1.07943e-05
-5.26944e-07
8.57048e-06
1.24855e-05
-2.58932e-07
8.83338e-06
1.39304e-05
1.32357e-08
8.57163e-06
1.50392e-05
1.97474e-07
7.96554e-06
1.59333e-05
2.93758e-07
7.19917e-06
1.6858e-05
3.15798e-07
6.39094e-06
1.81334e-05
2.74538e-07
5.55562e-06
2.02559e-05
1.68125e-07
4.56568e-06
2.42076e-05
-7.70816e-09
3.16198e-06
3.20883e-05
-3.07307e-07
1.27655e-06
4.43216e-05
-5.99091e-07
5.54506e-07
4.88222e-05
-4.67873e-07
3.95026e-05
-1.5486e-08
7.026e-07
-2.84574e-05
-8.5624e-08
1.40717e-06
-3.91054e-05
-3.18658e-07
1.98708e-06
-4.02855e-05
-3.81508e-07
2.13054e-06
-3.926e-05
-4.44957e-07
1.45698e-06
-3.6533e-05
-5.5529e-07
1.56479e-07
-3.25132e-05
-6.84927e-07
-9.97652e-07
-2.79689e-05
-7.81671e-07
-1.53763e-06
-2.32739e-05
-8.49759e-07
-1.52795e-06
-1.85522e-05
-9.11587e-07
-9.72328e-07
-1.37723e-05
-9.47465e-07
2.8658e-07
-8.77019e-06
-9.34989e-07
1.55291e-06
-4.05783e-06
-9.46722e-07
2.22014e-06
-7.8284e-07
-1.00264e-06
2.5046e-06
1.01182e-06
-1.05656e-06
2.68703e-06
2.06359e-06
-1.09464e-06
2.89942e-06
2.90368e-06
-1.11855e-06
3.16718e-06
3.73069e-06
-1.12799e-06
3.48543e-06
4.5935e-06
-1.12042e-06
3.86335e-06
5.53174e-06
-1.09369e-06
4.32358e-06
6.59601e-06
-1.04434e-06
4.87999e-06
7.82196e-06
-9.65705e-07
5.53582e-06
9.20389e-06
-8.48528e-07
6.24837e-06
1.07052e-05
-6.81909e-07
6.88454e-06
1.22483e-05
-4.58275e-07
7.23729e-06
1.3712e-05
-1.89007e-07
7.17054e-06
1.4981e-05
8.12658e-08
6.73498e-06
1.60477e-05
2.91072e-07
6.09839e-06
1.70681e-05
4.07784e-07
5.43566e-06
1.8362e-05
4.25385e-07
4.81749e-06
2.05502e-05
3.30845e-07
4.01309e-06
2.49579e-05
1.08538e-07
2.69827e-06
3.37768e-05
-1.90923e-07
1.25754e-06
4.64519e-05
-4.30726e-07
6.75959e-07
4.98986e-05
-3.26411e-07
4.02467e-05
1.70194e-08
4.46029e-06
-3.231e-05
-3.44551e-07
6.95637e-06
-4.06683e-05
-6.34059e-07
8.52019e-06
-4.06637e-05
-8.91812e-07
8.8341e-06
-3.8039e-05
-1.23641e-06
7.57513e-06
-3.33834e-05
-1.61157e-06
5.46309e-06
-2.8298e-05
-1.88965e-06
3.4824e-06
-2.38846e-05
-1.96409e-06
2.33233e-06
-2.01934e-05
-1.85672e-06
2.23611e-06
-1.67811e-05
-1.657e-06
3.09271e-06
-1.32109e-05
-1.43958e-06
4.66831e-06
-9.14613e-06
-1.24028e-06
6.29613e-06
-4.63058e-06
-1.09838e-06
7.23273e-06
-7.00806e-07
-1.05929e-06
7.45954e-06
1.82682e-06
-1.0808e-06
7.43492e-06
3.15824e-06
-1.10849e-06
7.34554e-06
4.08374e-06
-1.1296e-06
7.24993e-06
4.92906e-06
-1.14296e-06
7.17901e-06
5.76725e-06
-1.14485e-06
7.16986e-06
6.62833e-06
-1.13154e-06
7.26139e-06
7.55794e-06
-1.10008e-06
7.47756e-06
8.60116e-06
-1.04544e-06
7.80598e-06
9.78245e-06
-9.61328e-07
8.1962e-06
1.10968e-05
-8.40905e-07
8.56759e-06
1.24911e-05
-6.77486e-07
8.79932e-06
1.38837e-05
-4.6952e-07
8.75187e-06
1.51916e-05
-2.29557e-07
8.35203e-06
1.63782e-05
5.27525e-09
7.62728e-06
1.75135e-05
2.20177e-07
6.73185e-06
1.88389e-05
3.67745e-07
5.85548e-06
2.09667e-05
4.28608e-07
4.97875e-06
2.5535e-05
3.25584e-07
3.53137e-06
3.54115e-05
-1.65323e-09
1.95417e-06
4.86391e-05
-2.57589e-07
1.06667e-06
5.12192e-05
-1.83033e-07
4.1341e-05
8.21552e-08
4.98209e-06
-3.70011e-05
2.85835e-07
5.42688e-06
-4.16976e-05
9.87397e-07
4.32167e-06
-3.98788e-05
6.65384e-07
2.01299e-06
-3.50419e-05
-3.75915e-07
-2.96067e-07
-2.93793e-05
-1.4793e-06
-1.751e-06
-2.44614e-05
-2.2622e-06
-2.46052e-06
-2.04463e-05
-2.66427e-06
-2.67926e-06
-1.71582e-05
-2.77266e-06
-2.48571e-06
-1.4254e-05
-2.68852e-06
-1.85016e-06
-1.13536e-05
-2.47926e-06
-7.09648e-07
-8.11463e-06
-2.18461e-06
8.6996e-07
-4.39337e-06
-1.85391e-06
2.44092e-06
-7.34174e-07
-1.58629e-06
3.76073e-06
1.90101e-06
-1.44278e-06
4.79378e-06
3.45266e-06
-1.37476e-06
5.62112e-06
4.54351e-06
-1.33321e-06
6.311e-06
5.49625e-06
-1.30218e-06
6.89435e-06
6.41411e-06
-1.27494e-06
7.39864e-06
7.32458e-06
-1.24563e-06
7.87377e-06
8.24563e-06
-1.20896e-06
8.37295e-06
9.21412e-06
-1.16033e-06
8.91384e-06
1.02855e-05
-1.09529e-06
9.47177e-06
1.14921e-05
-1.00841e-06
9.98441e-06
1.28134e-05
-8.9428e-07
1.03593e-05
1.41953e-05
-7.4974e-07
1.04857e-05
1.55758e-05
-5.76924e-07
1.02651e-05
1.69165e-05
-3.8569e-07
9.65712e-06
1.82454e-05
-1.92955e-07
8.71215e-06
1.97337e-05
-1.99675e-08
7.52182e-06
2.19405e-05
1.43189e-07
6.06492e-06
2.6685e-05
2.28826e-07
3.84797e-06
3.7532e-05
6.31009e-08
1.96726e-06
5.0819e-05
-1.56631e-07
1.00374e-06
5.24393e-05
-8.65187e-08
4.23582e-05
1.27915e-07
-4.33122e-06
-3.4348e-05
1.69397e-06
-1.04849e-05
-3.88873e-05
3.28328e-06
-1.61468e-05
-3.75594e-05
3.13818e-06
-1.91987e-05
-3.41537e-05
1.85327e-06
-1.89334e-05
-3.04072e-05
4.58817e-07
-1.67463e-05
-2.61979e-05
-6.83423e-07
-1.42974e-05
-2.15073e-05
-1.5509e-06
-1.24512e-05
-1.7026e-05
-2.09167e-06
-1.12782e-05
-1.31476e-05
-2.36043e-06
-1.04509e-05
-9.81672e-06
-2.42525e-06
-9.6289e-06
-6.64672e-06
-2.34062e-06
-8.39202e-06
-3.51923e-06
-2.15859e-06
-6.60786e-06
-6.12042e-07
-1.95386e-06
-4.43732e-06
1.47913e-06
-1.79588e-06
-2.36646e-06
3.02187e-06
-1.68752e-06
-5.28569e-07
4.26247e-06
-1.60486e-06
1.09994e-06
5.35343e-06
-1.53388e-06
2.55097e-06
6.38454e-06
-1.46897e-06
3.84155e-06
7.39487e-06
-1.40725e-06
4.98332e-06
8.40342e-06
-1.34578e-06
5.99086e-06
9.4391e-06
-1.27978e-06
6.89168e-06
1.05402e-05
-1.20457e-06
7.7127e-06
1.17373e-05
-1.11721e-06
8.44805e-06
1.30394e-05
-1.01436e-06
9.05167e-06
1.443e-05
-8.92738e-07
9.44854e-06
1.58751e-05
-7.50893e-07
9.5579e-06
1.7345e-05
-5.9132e-07
9.32095e-06
1.88523e-05
-4.21273e-07
8.71631e-06
2.05369e-05
-2.4976e-07
7.72457e-06
2.29524e-05
-8.11572e-08
6.15623e-06
2.80775e-05
6.88733e-08
3.62848e-06
3.98668e-05
7.83314e-09
1.72876e-06
5.28051e-05
-1.55146e-07
8.15472e-07
5.34835e-05
-8.54242e-08
4.31782e-05
1.10369e-07
-1.36344e-05
-2.43203e-05
2.96789e-06
-2.03045e-05
-3.76043e-05
4.47468e-06
-2.19086e-05
-4.17965e-05
4.78948e-06
-1.89965e-05
-4.26346e-05
4.60457e-06
-1.29666e-05
-4.13044e-05
4.11204e-06
-5.79527e-06
-3.70784e-05
3.17175e-06
6.48622e-07
-3.01953e-05
1.90492e-06
4.71427e-06
-2.19117e-05
6.30294e-07
5.18019e-06
-1.33899e-05
-3.21717e-07
3.62891e-06
-7.41495e-06
-9.07065e-07
1.94621e-06
-3.76515e-06
-1.2394e-06
9.91636e-07
-1.18862e-06
-1.41135e-06
9.97313e-07
8.40386e-07
-1.49335e-06
1.52598e-06
2.43971e-06
-1.52636e-06
2.2508e-06
3.79024e-06
-1.5323e-06
3.03857e-06
4.9546e-06
-1.52056e-06
3.8403e-06
6.00553e-06
-1.49556e-06
4.63994e-06
7.00253e-06
-1.46017e-06
5.42134e-06
7.98662e-06
-1.41638e-06
6.15937e-06
8.98622e-06
-1.36486e-06
6.83238e-06
1.00252e-05
-1.3042e-06
7.43105e-06
1.11266e-05
-1.23138e-06
7.95541e-06
1.23099e-05
-1.14458e-06
8.40214e-06
1.35867e-05
-1.04281e-06
8.75201e-06
1.49553e-05
-9.24646e-07
8.96437e-06
1.64028e-05
-7.89199e-07
8.98198e-06
1.79181e-05
-6.37999e-07
8.74392e-06
1.95233e-05
-4.76485e-07
8.19412e-06
2.13602e-05
-3.12355e-07
7.25605e-06
2.40023e-05
-1.48656e-07
5.73857e-06
2.95494e-05
-8.78971e-09
3.43817e-06
4.20469e-05
-1.12719e-08
1.7294e-06
5.45588e-05
-1.48924e-07
7.36031e-07
5.45595e-05
-9.5842e-08
4.38864e-05
9.06713e-08
-7.2797e-06
-2.0936e-05
3.11414e-06
-5.92523e-06
-4.3736e-05
3.89298e-06
-5.97523e-07
-5.20744e-05
4.35417e-06
5.51593e-06
-5.39641e-05
4.7465e-06
1.14035e-05
-5.25884e-05
4.93988e-06
1.72891e-05
-4.83328e-05
4.88759e-06
2.39787e-05
-4.18477e-05
4.49292e-06
3.08323e-05
-3.29247e-05
3.76096e-06
3.35248e-05
-1.89486e-05
2.61529e-06
3.10102e-05
-6.35983e-06
1.35316e-06
2.6754e-05
4.95243e-08
4.00434e-07
2.23529e-05
3.37427e-06
-1.84913e-07
1.88526e-05
4.86272e-06
-5.42954e-07
1.6192e-05
5.8707e-06
-7.94683e-07
1.42341e-05
6.69208e-06
-9.71956e-07
1.28247e-05
7.42698e-06
-1.09412e-06
1.18345e-05
8.13643e-06
-1.17403e-06
1.11619e-05
8.86056e-06
-1.22067e-06
1.07279e-05
9.62438e-06
-1.2406e-06
1.047e-05
1.04443e-05
-1.23842e-06
1.03388e-05
1.13334e-05
-1.21681e-06
1.02941e-05
1.23063e-05
-1.17619e-06
1.02889e-05
1.33883e-05
-1.11598e-06
1.02764e-05
1.45905e-05
-1.03524e-06
1.02248e-05
1.58951e-05
-9.33231e-07
1.00984e-05
1.72933e-05
-8.09577e-07
9.84747e-06
1.87889e-05
-6.65211e-07
9.40793e-06
2.04215e-05
-5.03588e-07
8.70075e-06
2.23528e-05
-3.29618e-07
7.62302e-06
2.51827e-05
-1.45654e-07
6.01576e-06
3.10962e-05
2.41721e-08
3.83833e-06
4.41472e-05
3.76264e-08
2.13457e-06
5.63312e-05
-1.17775e-07
9.06926e-07
5.58735e-05
-9.27275e-08
4.47504e-05
8.82816e-08
1.00505e-05
-3.22852e-05
1.08671e-06
2.03075e-05
-5.43261e-05
5.96293e-07
2.76597e-05
-5.94424e-05
5.39798e-07
3.19414e-05
-5.83745e-05
7.64465e-07
3.27391e-05
-5.369e-05
1.00007e-06
3.071e-05
-4.68574e-05
1.19659e-06
2.87816e-05
-4.10121e-05
1.50869e-06
2.86695e-05
-3.48412e-05
2.14299e-06
2.81077e-05
-2.1164e-05
2.65726e-06
2.41262e-05
-4.65239e-06
2.12648e-06
1.86944e-05
4.18248e-06
1.20991e-06
1.47396e-05
6.77611e-06
4.93419e-07
1.17623e-05
7.77569e-06
2.0134e-08
9.55288e-06
8.35837e-06
-3.11763e-07
7.98071e-06
8.79729e-06
-5.63263e-07
6.92871e-06
9.2002e-06
-7.50707e-07
6.29385e-06
9.62806e-06
-8.87103e-07
5.98854e-06
1.01166e-05
-9.82567e-07
5.93888e-06
1.06852e-05
-1.04466e-06
6.08312e-06
1.1344e-05
-1.07906e-06
6.37138e-06
1.20983e-05
-1.08996e-06
6.76412e-06
1.29563e-05
-1.08019e-06
7.20913e-06
1.39566e-05
-1.05042e-06
7.64014e-06
1.51215e-05
-9.99621e-07
8.00952e-06
1.64154e-05
-9.27803e-07
8.28174e-06
1.78168e-05
-8.33955e-07
8.41791e-06
1.93317e-05
-7.17314e-07
8.3613e-06
2.10172e-05
-5.78238e-07
8.01629e-06
2.30717e-05
-4.16575e-07
7.19573e-06
2.61758e-05
-2.24936e-07
5.58474e-06
3.26574e-05
-1.73946e-08
3.38664e-06
4.62116e-05
9.09405e-08
1.86456e-06
5.78973e-05
-4.75932e-08
7.59238e-07
5.70409e-05
-3.81674e-08
4.54329e-05
1.33956e-07
2.01084e-05
-5.14925e-05
-2.99758e-07
3.07782e-05
-6.43656e-05
2.23944e-07
3.45679e-05
-6.28929e-05
3.03635e-07
3.26181e-05
-5.59752e-05
1.27385e-07
2.48874e-05
-4.49017e-05
-4.39218e-07
1.30927e-05
-3.3181e-05
-1.29588e-06
-1.47574e-06
-2.43841e-05
-1.61371e-06
-1.79055e-05
-1.72758e-05
-8.74408e-07
-2.97165e-05
-9.59531e-06
3.43928e-07
-3.34989e-05
-1.32391e-06
4.60783e-07
-3.25822e-05
3.19509e-06
1.76929e-08
-3.02338e-05
4.57434e-06
-2.05106e-07
-2.76459e-05
5.50377e-06
-3.71384e-07
-2.50038e-05
6.18763e-06
-5.25058e-07
-2.23566e-05
6.75783e-06
-6.58142e-07
-1.9736e-05
7.29981e-06
-7.67003e-07
-1.71651e-05
7.86476e-06
-8.51276e-07
-1.46612e-05
8.48382e-06
-9.1228e-07
-1.22393e-05
9.17543e-06
-9.51414e-07
-9.9132e-06
9.95105e-06
-9.70681e-07
-7.69709e-06
1.08186e-05
-9.72307e-07
-5.60056e-06
1.17836e-05
-9.58315e-07
-3.62091e-06
1.28715e-05
-9.27653e-07
-1.76448e-06
1.41129e-05
-8.79077e-07
-5.94763e-08
1.54956e-05
-8.14042e-07
1.46761e-06
1.69975e-05
-7.33857e-07
2.7908e-06
1.86244e-05
-6.38799e-07
3.86588e-06
2.04495e-05
-5.27839e-07
4.58476e-06
2.27274e-05
-3.96593e-07
4.64896e-06
2.63044e-05
-2.31065e-07
3.48046e-06
3.37664e-05
-3.34453e-08
1.46777e-06
4.80005e-05
9.17309e-08
5.15831e-07
5.88357e-05
-1.63862e-08
3.14521e-08
5.75365e-05
7.06128e-10
4.53348e-05
1.68816e-07
5.22721e-06
-5.72725e-05
1.69402e-06
-2.27389e-06
-5.97895e-05
3.77868e-06
-1.73197e-05
-5.1213e-05
4.10133e-06
-3.71314e-05
-3.90172e-05
3.4507e-06
-5.48212e-05
-2.88681e-05
1.86596e-06
-6.69904e-05
-2.16273e-05
2.96891e-07
-7.59548e-05
-1.58624e-05
-1.24672e-07
-8.28222e-05
-1.06562e-05
-7.96579e-08
-8.46115e-05
-7.42525e-06
-4.50872e-07
-7.97219e-05
-5.73069e-06
-5.47451e-07
-7.20844e-05
-3.99385e-06
-5.13479e-07
-6.46793e-05
-2.38099e-06
-5.19014e-07
-5.78017e-05
-9.04921e-07
-5.36408e-07
-5.14007e-05
2.82811e-07
-5.60271e-07
-4.5401e-05
1.28768e-06
-5.90172e-07
-3.98739e-05
2.33861e-06
-6.23143e-07
-3.48111e-05
3.40344e-06
-6.55257e-07
-3.01756e-05
4.48084e-06
-6.82833e-07
-2.5924e-05
5.5795e-06
-7.02774e-07
-2.2015e-05
6.71028e-06
-7.12612e-07
-1.84166e-05
7.88819e-06
-7.09986e-07
-1.51141e-05
9.1343e-06
-6.92922e-07
-1.20932e-05
1.04731e-05
-6.59331e-07
-9.32834e-06
1.19244e-05
-6.09403e-07
-6.80669e-06
1.34906e-05
-5.44933e-07
-4.53088e-06
1.51689e-05
-4.69152e-07
-2.51479e-06
1.69804e-05
-3.85494e-07
-7.9099e-07
1.90204e-05
-2.95981e-07
5.53509e-07
2.15982e-05
-1.98401e-07
1.27901e-06
2.57063e-05
-8.26689e-08
9.26953e-07
3.40915e-05
9.14497e-08
-2.04495e-07
4.89393e-05
2.01183e-07
-5.03017e-07
5.90493e-05
1.11669e-07
-4.63846e-07
5.74177e-05
1.26468e-07
4.46702e-05
2.61491e-07
-2.48896e-05
-3.67222e-05
4.64558e-06
-5.15389e-05
-3.85783e-05
5.94468e-06
-7.38322e-05
-3.47341e-05
5.74103e-06
-8.76985e-05
-3.04892e-05
4.66602e-06
-9.17345e-05
-2.9152e-05
3.64243e-06
-8.85504e-05
-2.82938e-05
3.22712e-06
-8.15215e-05
-2.57265e-05
2.73617e-06
-7.21316e-05
-2.23123e-05
2.19649e-06
-6.29085e-05
-1.85211e-05
1.79916e-06
-5.52538e-05
-1.49172e-05
1.47055e-06
-4.86595e-05
-1.18277e-05
1.18684e-06
-4.28622e-05
-9.18406e-06
9.57164e-07
-3.76744e-05
-6.90187e-06
7.62444e-07
-3.3114e-05
-4.91479e-06
5.91589e-07
-2.9168e-05
-3.14084e-06
4.37607e-07
-2.5675e-05
-1.49542e-06
2.96522e-07
-2.25544e-05
7.41405e-08
1.64495e-07
-1.95776e-05
1.41904e-06
4.12321e-08
-1.68109e-05
2.80601e-06
-3.64389e-08
-1.42503e-05
4.19639e-06
-8.93308e-08
-1.18744e-05
5.60226e-06
-1.31704e-07
-9.6673e-06
7.04522e-06
-1.58468e-07
-7.61548e-06
8.54945e-06
-1.66497e-07
-5.70812e-06
1.01355e-05
-1.53883e-07
-3.94452e-06
1.18173e-05
-1.21464e-07
-2.33725e-06
1.361e-05
-7.3763e-08
-9.08569e-07
1.55535e-05
-1.8781e-08
2.67699e-07
1.77639e-05
7.72374e-08
1.12059e-06
2.05813e-05
1.91316e-07
1.59072e-06
2.50352e-05
3.0707e-07
1.63205e-06
3.38946e-05
4.26015e-07
1.17534e-06
4.92758e-05
4.53849e-07
7.24539e-07
5.93495e-05
3.42058e-07
2.49964e-07
5.77008e-05
3.38894e-07
4.4616e-05
4.43494e-07
-2.44076e-05
-1.69245e-05
4.17251e-06
-3.89861e-05
-2.93529e-05
4.40853e-06
-4.24212e-05
-3.73021e-05
4.94477e-06
-3.68777e-05
-4.23149e-05
5.39865e-06
-2.81505e-05
-4.42158e-05
5.64482e-06
-1.94162e-05
-4.32884e-05
5.65409e-06
-1.11863e-05
-3.99743e-05
5.51219e-06
-3.73519e-06
-3.54026e-05
5.26564e-06
3.00446e-06
-3.04152e-05
4.90411e-06
8.84942e-06
-2.53975e-05
4.4783e-06
1.33885e-05
-2.04934e-05
4.03206e-06
1.64149e-05
-1.58531e-05
3.5861e-06
1.79354e-05
-1.16114e-05
3.15264e-06
1.81455e-05
-7.89406e-06
2.74131e-06
1.74239e-05
-4.80482e-06
2.36051e-06
1.62522e-05
-2.36419e-06
2.01593e-06
1.50606e-05
-4.6863e-07
1.70931e-06
1.38849e-05
1.13053e-06
1.43847e-06
1.28551e-05
2.60792e-06
1.2007e-06
1.19734e-05
4.0552e-06
9.93967e-07
1.12393e-05
5.48856e-06
8.17215e-07
1.0655e-05
6.92649e-06
6.71084e-07
1.0212e-05