/*--------------------------------*- C++ -*----------------------------------*\
| =========                 |                                                 |
| \\      /  F ield         | OpenFOAM: The Open Source CFD Toolbox           |
|  \\    /   O peration     | Version:  v2006                                 |
|   \\  /    A nd           | Website:  www.openfoam.com                      |
|    \\/     M anipulation  |                                                 |
\*---------------------------------------------------------------------------*/
FoamFile
{
    version     2.0;
    format      ascii;
    class       volVectorField;
    location    "46";
    object      U;
}
// * * * * * * * * * * * * * * * * * * * * * * * * * * * * * * * * * * * * * //

dimensions      [0 1 -1 0 0 0 0];


internalField   nonuniform List<vector> 
78750
(
(-0.627257 -0.320935 -0.172335)
(-0.547727 -0.28607 -0.171264)
(-0.530613 -0.237139 -0.162908)
(-0.45193 -0.192312 -0.1543)
(-0.36432 -0.150033 -0.143799)
(-0.328969 -0.131818 -0.134012)
(-0.303787 -0.110997 -0.129125)
(-0.269095 -0.0996615 -0.121282)
(-0.241091 -0.0844274 -0.115527)
(-0.210493 -0.0760038 -0.107143)
(-0.18608 -0.0649471 -0.100613)
(-0.16183 -0.0585092 -0.0924574)
(-0.142138 -0.0506134 -0.0854405)
(-0.122449 -0.046167 -0.0776463)
(-0.105969 -0.0414016 -0.0708269)
(-0.0901158 -0.0386358 -0.0634183)
(-0.0758739 -0.0371323 -0.0554274)
(-0.0637748 -0.0376978 -0.0473856)
(-0.0536674 -0.0391976 -0.0425443)
(-0.0456675 -0.0400716 -0.040691)
(-0.0389403 -0.0401301 -0.0397851)
(-0.0328558 -0.039738 -0.0389608)
(-0.0269699 -0.0391489 -0.0380756)
(-0.0211147 -0.0384692 -0.0371171)
(-0.0152689 -0.0377335 -0.0360725)
(-0.00947389 -0.0369468 -0.034922)
(-0.00379878 -0.0360984 -0.0336414)
(0.00166976 -0.0351564 -0.032201)
(0.00683592 -0.034063 -0.0305604)
(0.0115816 -0.032725 -0.0286649)
(0.0157109 -0.0310099 -0.0264334)
(0.0189308 -0.0287246 -0.0237285)
(0.0208887 -0.0250638 -0.020044)
(0.0233565 -0.0139236 -0.0136716)
(0.0129812 0.062377 0.00112203)
(0.097397 -0.551805 0.112668)
(-0.137739 -0.376233 0.0530997)
(-0.0423125 -0.369461 -0.00499774)
(-0.100644 -0.347563 -0.0478266)
(-0.0987083 -0.268892 -0.0808112)
(-0.112842 -0.214374 -0.0974061)
(-0.114513 -0.166945 -0.111488)
(-0.117435 -0.133128 -0.119548)
(-0.11606 -0.106297 -0.125443)
(-0.113639 -0.085489 -0.129456)
(-0.109461 -0.0690601 -0.132202)
(-0.104285 -0.0558097 -0.134203)
(-0.0982147 -0.0453643 -0.135505)
(-0.091549 -0.0370168 -0.136444)
(-0.0844394 -0.0305833 -0.136986)
(-0.0770351 -0.0257903 -0.137316)
(-0.0695461 -0.0224672 -0.1374)
(-0.0621576 -0.0204444 -0.137261)
(-0.0550254 -0.0194078 -0.136914)
(-0.0481095 -0.0189046 -0.136445)
(-0.0413033 -0.0185949 -0.135781)
(-0.0345234 -0.0183015 -0.134725)
(-0.0277616 -0.0179449 -0.133135)
(-0.021059 -0.0174846 -0.13093)
(-0.0144847 -0.0168945 -0.128066)
(-0.00812836 -0.0161472 -0.124507)
(-0.00206952 -0.0151947 -0.120214)
(0.00360646 -0.0139519 -0.115141)
(0.00877682 -0.0122713 -0.10924)
(0.0132615 -0.00986927 -0.102487)
(0.0167726 -0.00622469 -0.0949203)
(0.019037 -0.000259618 -0.0864279)
(0.0199722 0.012303 -0.0750561)
(0.0179835 0.0627257 -0.0521052)
(0.00567434 0.208223 -0.0107507)
(-0.0513012 0.198952 -0.0246472)
(-0.0523846 -0.00441021 0.0149533)
(-0.10165 -0.0268782 0.00648419)
(-0.0960988 -0.0549531 0.00306763)
(-0.108849 -0.0617571 -0.00916197)
(-0.105101 -0.0516216 -0.0250909)
(-0.10585 -0.0405984 -0.0446916)
(-0.105656 -0.035726 -0.0652615)
(-0.106854 -0.0336536 -0.0803592)
(-0.107055 -0.030305 -0.0909682)
(-0.105829 -0.025956 -0.0992753)
(-0.102948 -0.0211554 -0.10617)
(-0.0987039 -0.0163002 -0.111979)
(-0.0934278 -0.01167 -0.116908)
(-0.0873817 -0.00741528 -0.121104)
(-0.0807849 -0.00363675 -0.12468)
(-0.0738493 -0.000375841 -0.127709)
(-0.0667311 0.00239054 -0.130202)
(-0.0595493 0.00473356 -0.132166)
(-0.0523778 0.00672099 -0.133573)
(-0.0452605 0.00843259 -0.134375)
(-0.0382199 0.0099496 -0.134508)
(-0.0312817 0.0113594 -0.133915)
(-0.0244843 0.012751 -0.132542)
(-0.0178754 0.0142184 -0.130339)
(-0.0115078 0.015867 -0.127255)
(-0.00546994 0.0178335 -0.123236)
(0.000123719 0.0203116 -0.11821)
(0.00515853 0.0235949 -0.112086)
(0.00947346 0.0281912 -0.104749)
(0.0128324 0.0350537 -0.096073)
(0.0150565 0.0465055 -0.0854792)
(0.0158253 0.0720836 -0.0703145)
(0.0140443 0.156081 -0.0453385)
(0.00393921 0.294697 -0.00897018)
(0.00467442 0.0051698 0.0128001)
(0.0278792 -0.0870079 0.0208866)
(0.0249414 -0.163593 0.0245562)
(0.0238428 -0.211599 0.0307962)
(0.0214869 -0.23176 0.0416442)
(0.0165388 -0.226181 0.0648428)
(0.00973582 -0.157909 0.115221)
(0.00273434 -0.0658685 0.1477)
(-0.00477296 -0.0137023 0.135437)
(-0.0126098 0.00104865 0.101252)
(-0.0194297 0.00347184 0.0678493)
(-0.025347 0.00420454 0.0392518)
(-0.0302964 0.00553944 0.0148303)
(-0.0341785 0.00781223 -0.00559529)
(-0.0369497 0.0109226 -0.0224513)
(-0.0385839 0.0146075 -0.0363101)
(-0.0390625 0.0186115 -0.0477735)
(-0.0384185 0.0227141 -0.0573647)
(-0.0367938 0.0267177 -0.0655417)
(-0.0343639 0.0305112 -0.0726179)
(-0.0312727 0.0340468 -0.0787539)
(-0.0276339 0.037321 -0.0840089)
(-0.0235446 0.0403657 -0.088394)
(-0.0191128 0.0432599 -0.0918974)
(-0.01445 0.046105 -0.0944765)
(-0.00967442 0.0490294 -0.096058)
(-0.00491556 0.0522038 -0.0965476)
(-0.00031885 0.0558646 -0.0958334)
(0.00394412 0.0603523 -0.0937819)
(0.00764937 0.0661979 -0.0902156)
(0.0104978 0.0743906 -0.0848202)
(0.0122594 0.0876096 -0.0766456)
(0.0124382 0.11751 -0.062127)
(0.0100636 0.217413 -0.0345314)
(0.0022961 0.353802 -0.00109537)
(0.000368298 -0.0950989 0.0576869)
(-0.000570451 -0.125607 0.0761982)
(-0.00107815 -0.125696 0.0766396)
(-0.00267141 -0.117179 0.072008)
(-0.00539591 -0.105974 0.0622242)
(-0.00763148 -0.0985284 0.0508923)
(-0.0076996 -0.094226 0.0422118)
(-0.00429943 -0.0823291 0.0413108)
(0.00269801 -0.0564812 0.0486622)
(0.00907818 -0.028139 0.0566658)
(0.0133687 -0.00269296 0.0626564)
(0.0157237 0.0192022 0.0662065)
(0.0161792 0.0363014 0.0661868)
(0.0149801 0.0476311 0.0616229)
(0.0126014 0.0538421 0.0523945)
(0.0092784 0.0563414 0.038648)
(0.00508278 0.0560183 0.0210379)
(0.000138743 0.0541295 0.00201398)
(-0.00486722 0.0526953 -0.0148821)
(-0.00898862 0.052649 -0.0278522)
(-0.0116233 0.0536087 -0.0373946)
(-0.0127493 0.0551385 -0.0448478)
(-0.0126398 0.0571881 -0.0511913)
(-0.0115819 0.0598331 -0.0568116)
(-0.00977827 0.0631358 -0.0617408)
(-0.00737681 0.0671877 -0.0658821)
(-0.00450273 0.0721704 -0.0691344)
(-0.00130223 0.0784085 -0.0714236)
(0.00206301 0.0863912 -0.0726559)
(0.00536323 0.0969358 -0.0726708)
(0.00829071 0.111728 -0.0711078)
(0.0104747 0.135448 -0.0668626)
(0.0108461 0.184233 -0.0559739)
(0.00768889 0.298137 -0.0305419)
(0.000627957 0.406936 0.00111286)
(-0.00257698 -0.0706614 0.0501169)
(0.00159612 -0.167318 0.0606324)
(0.00812679 -0.214053 0.0570093)
(0.0165611 -0.23546 0.0544719)
(0.0257614 -0.241032 0.0543193)
(0.035061 -0.233896 0.0554121)
(0.0432887 -0.21609 0.0562051)
(0.0492891 -0.192135 0.0549476)
(0.0528313 -0.166486 0.05085)
(0.0549161 -0.140866 0.0447964)
(0.0562271 -0.115381 0.0383364)
(0.0572406 -0.0895382 0.0332479)
(0.0583418 -0.0629058 0.0308288)
(0.0595557 -0.0352885 0.0317576)
(0.0605953 -0.00672394 0.036173)
(0.0609 0.0227912 0.0439324)
(0.0598903 0.053735 0.0555163)
(0.0563183 0.0828804 0.0692513)
(0.050123 0.100069 0.0775365)
(0.0424637 0.102134 0.0741587)
(0.0337516 0.0958288 0.0582682)
(0.0250667 0.0898758 0.0359478)
(0.0178521 0.0872928 0.0151172)
(0.0125298 0.0871858 -0.000825401)
(0.00885559 0.0883871 -0.012466)
(0.00656669 0.0904938 -0.0213579)
(0.00539573 0.09366 -0.0284936)
(0.00509219 0.0983136 -0.034269)
(0.00544617 0.105135 -0.03878)
(0.00627534 0.115324 -0.042003)
(0.00741759 0.131602 -0.043803)
(0.00869953 0.161842 -0.0435586)
(0.00952954 0.229677 -0.0387018)
(0.00779347 0.359817 -0.0232413)
(0.00125711 0.44477 0.0014447)
(0.00332481 -0.125138 0.0149639)
(0.0155945 -0.238034 0.00771231)
(0.0240216 -0.274874 0.00309039)
(0.0306776 -0.281755 0.000750337)
(0.0364171 -0.273834 -0.00112573)
(0.041627 -0.253389 -0.00355492)
(0.0458343 -0.221214 -0.00724789)
(0.048452 -0.181822 -0.0119133)
(0.0493299 -0.142143 -0.0160301)
(0.048661 -0.108033 -0.0184857)
(0.0469368 -0.0819772 -0.019564)
(0.0448136 -0.0628711 -0.0199178)
(0.0428384 -0.0478144 -0.0196761)
(0.0413448 -0.0339741 -0.0185619)
(0.0404973 -0.0191884 -0.0160239)
(0.0404619 -0.00182001 -0.0111887)
(0.04147 0.0191655 -0.00295753)
(0.0433926 0.043366 0.00908888)
(0.0455058 0.0690059 0.0240847)
(0.0467105 0.095434 0.0421946)
(0.0445466 0.117752 0.0602551)
(0.0397717 0.127224 0.0679435)
(0.0342109 0.126899 0.0643536)
(0.0280782 0.12188 0.0511431)
(0.0228813 0.116784 0.0322577)
(0.0190385 0.114427 0.0136561)
(0.0161659 0.11531 -0.00157424)
(0.0139963 0.119071 -0.013291)
(0.0123555 0.125567 -0.0222251)
(0.011091 0.135326 -0.0288984)
(0.0100521 0.150523 -0.0334502)
(0.00895412 0.179577 -0.0351884)
(0.00727543 0.254245 -0.0304078)
(0.00536867 0.404031 -0.0154926)
(0.000507434 0.474825 0.00377175)
(0.00355629 -0.215818 0.0159101)
(0.00597169 -0.325549 0.0160956)
(0.00610802 -0.3456 0.0155867)
(0.00584199 -0.343262 0.0155949)
(0.00567249 -0.327935 0.0155449)
(0.00601571 -0.296727 0.0140527)
(0.00711079 -0.250459 0.00850316)
(0.00865244 -0.198719 -0.00255313)
(0.0101121 -0.151258 -0.01692)
(0.0112844 -0.113128 -0.0303564)
(0.0123562 -0.0848042 -0.0399338)
(0.0134641 -0.0640747 -0.0454383)
(0.0145415 -0.0479774 -0.0479847)
(0.0155105 -0.033992 -0.0485047)
(0.0163507 -0.0203683 -0.0473468)
(0.017113 -0.00592727 -0.0443528)
(0.0179361 0.0102081 -0.0389667)
(0.0190308 0.0287345 -0.0303545)
(0.0205398 0.0501174 -0.0175153)
(0.0224125 0.0743182 0.000508902)
(0.0241592 0.0994531 0.0233385)
(0.024771 0.120829 0.0473037)
(0.0229528 0.132541 0.0632919)
(0.0203269 0.136376 0.0671386)
(0.0176068 0.138243 0.0637985)
(0.0146308 0.140298 0.0540512)
(0.0121583 0.143469 0.039368)
(0.0104984 0.14884 0.0235912)
(0.00945226 0.157532 0.00928253)
(0.00880757 0.171037 -0.00304797)
(0.00838994 0.192761 -0.0136915)
(0.00790237 0.232617 -0.0222398)
(0.00612046 0.318391 -0.0240331)
(0.00388609 0.456999 -0.0131528)
(0.000163454 0.50084 0.00229008)
(-0.00350684 -0.20776 0.00758568)
(-0.00946563 -0.293191 -0.00544034)
(-0.0119192 -0.310274 -0.00944683)
(-0.013175 -0.310512 -0.0107757)
(-0.0131576 -0.298989 -0.0109511)
(-0.0107589 -0.274233 -0.0100482)
(-0.00555877 -0.237761 -0.00888938)
(0.00187303 -0.192481 -0.00961647)
(0.00979428 -0.143878 -0.0144484)
(0.0155784 -0.102643 -0.0233423)
(0.0181515 -0.0758687 -0.0327935)
(0.0185813 -0.0594499 -0.0400892)
(0.0182152 -0.0471189 -0.0451657)
(0.017762 -0.0354709 -0.0485392)
(0.0175164 -0.0231388 -0.0504432)
(0.0175661 -0.00960523 -0.0508581)
(0.017885 0.00535544 -0.0495797)
(0.0183842 0.0218995 -0.0461976)
(0.019019 0.0402171 -0.0399905)
(0.0198217 0.060551 -0.0298308)
(0.0208045 0.0828908 -0.0141741)
(0.0217628 0.105584 0.0080459)
(0.0216232 0.122336 0.032088)
(0.0200614 0.127875 0.045285)
(0.0181934 0.128692 0.0486052)
(0.0162781 0.12971 0.0472947)
(0.0142041 0.132727 0.0424134)
(0.0122361 0.138863 0.033681)
(0.0107622 0.148665 0.0224849)
(0.00971956 0.163398 0.0107253)
(0.00892829 0.18718 -0.000592988)
(0.00814946 0.233695 -0.0107996)
(0.0064791 0.33938 -0.0159801)
(0.00431217 0.489407 -0.00932717)
(0.000696318 0.517968 0.0022435)
(-0.00187518 -0.17872 -0.00550238)
(0.000243079 -0.312196 -0.00817133)
(0.00215289 -0.354579 -0.00744326)
(0.00438536 -0.369862 -0.00665769)
(0.00676385 -0.374739 -0.00564085)
(0.00945434 -0.371355 -0.0042103)
(0.0127308 -0.355857 -0.00173533)
(0.0171336 -0.320116 0.00265579)
(0.0227382 -0.258042 0.00778055)
(0.0288014 -0.174874 0.00721499)
(0.0320962 -0.0997146 -0.00431366)
(0.0313661 -0.0540009 -0.019305)
(0.0291024 -0.0312828 -0.0306839)
(0.0270373 -0.0188906 -0.0379975)
(0.0254466 -0.00975047 -0.0426785)
(0.0242519 -0.000693525 -0.0456787)
(0.0233973 0.00982889 -0.0472749)
(0.0229826 0.0225854 -0.0473105)
(0.0229958 0.0377476 -0.0453938)
(0.023355 0.0551164 -0.0409306)
(0.0239367 0.0742822 -0.0330212)
(0.0245873 0.094487 -0.0205018)
(0.0249357 0.113683 -0.0033285)
(0.0243571 0.128753 0.0147927)
(0.0226798 0.13869 0.0290808)
(0.0204472 0.145252 0.0375101)
(0.0182101 0.151207 0.0409799)
(0.01606 0.158875 0.0403877)
(0.0140987 0.170335 0.0355822)
(0.0124854 0.188045 0.0263697)
(0.0111166 0.217209 0.0132625)
(0.00942852 0.273034 -0.00180728)
(0.00596068 0.389152 -0.0110629)
(0.00317402 0.529327 -0.00724411)
(0.000253624 0.537732 0.00121495)
(0.00292128 -0.211068 -0.00117407)
(0.0110718 -0.332828 0.00292958)
(0.0156534 -0.361687 0.00168648)
(0.0181625 -0.36596 -0.000919145)
(0.0195576 -0.359487 -0.0047115)
(0.0195363 -0.343215 -0.0102607)
(0.0175673 -0.318927 -0.016583)
(0.0139552 -0.290001 -0.0200537)
(0.00984763 -0.250579 -0.0158283)
(0.0078626 -0.183657 -0.00461266)
(0.0084846 -0.0992901 -0.00334731)
(0.00848005 -0.0382097 -0.015778)
(0.00805684 -0.00996895 -0.0280726)
(0.00793998 0.00223965 -0.0353581)
(0.00794524 0.0106465 -0.040152)
(0.00806235 0.0187314 -0.0436627)
(0.00836176 0.0272124 -0.0458944)
(0.0088488 0.0364736 -0.0467745)
(0.00954342 0.047511 -0.0462248)
(0.0105242 0.0616669 -0.0436372)
(0.0117497 0.0789751 -0.0379864)
(0.01305 0.098003 -0.0282908)
(0.014164 0.116304 -0.0141619)
(0.0147137 0.130492 0.00236574)
(0.0145194 0.138844 0.0165427)
(0.0138581 0.1436 0.0257643)
(0.0130238 0.147986 0.0311096)
(0.0121274 0.15429 0.0339422)
(0.0112316 0.164828 0.0344293)
(0.0104202 0.183333 0.031632)
(0.00967639 0.218111 0.0237273)
(0.00864806 0.290346 0.00897408)
(0.00549466 0.429647 -0.00521913)
(0.00278674 0.562673 -0.00562861)
(0.000505953 0.553041 -0.000309214)
(0.00136163 -0.250779 0.000545715)
(0.00388928 -0.365104 0.00433107)
(0.00561382 -0.383453 0.00322514)
(0.00691863 -0.382014 0.00097744)
(0.00796469 -0.368953 -0.00293675)
(0.00837157 -0.341027 -0.00937282)
(0.00755991 -0.297478 -0.0181599)
(0.0052246 -0.247106 -0.0267225)
(0.00155602 -0.198027 -0.0305964)
(-0.00238427 -0.14584 -0.0262909)
(-0.0041257 -0.0848972 -0.020312)
(-0.00374087 -0.0365036 -0.0232995)
(-0.00267307 -0.0118968 -0.0294029)
(-0.00155028 0.000463838 -0.0340424)
(-0.000426552 0.00934809 -0.0375412)
(0.00073755 0.0178514 -0.0403887)
(0.00195893 0.0266651 -0.0425512)
(0.00314663 0.035898 -0.0438404)
(0.00435477 0.0462228 -0.044118)
(0.00567178 0.0585533 -0.0430315)
(0.00714899 0.0732837 -0.0399116)
(0.00881833 0.0902004 -0.0338628)
(0.0105682 0.108132 -0.0241099)
(0.0120539 0.124742 -0.0110208)
(0.0128051 0.13751 0.00267951)
(0.0126808 0.146189 0.0135327)
(0.0119705 0.153121 0.0206814)
(0.010962 0.161102 0.0249884)
(0.00981305 0.172961 0.0269498)
(0.00862302 0.192933 0.0263725)
(0.00739994 0.230908 0.0225473)
(0.00601019 0.313922 0.0134255)
(0.00333704 0.47125 0.000438212)
(0.00147862 0.591127 -0.00242829)
(0.00040042 0.565326 -0.000197326)
(-0.00014573 -0.250188 0.00929975)
(0.00183249 -0.363051 0.0142198)
(0.00262097 -0.382522 0.0109792)
(0.00308774 -0.38051 0.00617506)
(0.00279896 -0.363967 -0.000741154)
(0.00128533 -0.331827 -0.00844372)
(-0.00075924 -0.287052 -0.0144465)
(-0.00208888 -0.234785 -0.0188629)
(-0.00241477 -0.181052 -0.0227193)
(-0.00203972 -0.128837 -0.0251132)
(-0.000642714 -0.0775619 -0.0250552)
(0.00147331 -0.0343141 -0.0260528)
(0.00288866 -0.00836075 -0.0291647)
(0.00351745 0.00549018 -0.0323253)
(0.00384045 0.0146201 -0.0349641)
(0.0041047 0.0227292 -0.0372127)
(0.00444185 0.0310639 -0.0390728)
(0.0048577 0.039944 -0.0403927)
(0.00537059 0.049821 -0.040992)
(0.00597843 0.0610871 -0.0405851)
(0.00671673 0.0739547 -0.0387149)
(0.00760505 0.0884237 -0.0347467)
(0.00862267 0.104113 -0.027948)
(0.00964352 0.120027 -0.01783)
(0.0103904 0.134581 -0.00490957)
(0.0105591 0.146443 0.00869839)
(0.0101043 0.155893 0.0202106)
(0.00927834 0.165124 0.0281325)
(0.00833807 0.177707 0.0322621)
(0.00742631 0.199561 0.0319354)
(0.00657255 0.242465 0.0260316)
(0.00529439 0.333976 0.0158349)
(0.00291161 0.503244 0.00465666)
(0.00160127 0.610795 0.00131758)
(0.000786193 0.574027 0.00147493)
(0.00263785 -0.264646 0.00813112)
(0.00935882 -0.37311 0.00419762)
(0.0116486 -0.38789 -0.00504084)
(0.0125937 -0.377517 -0.0172779)
(0.0123203 -0.346894 -0.0343182)
(0.00981994 -0.304368 -0.0496499)
(0.00651233 -0.262198 -0.0564538)
(0.00402029 -0.223419 -0.0545968)
(0.00305539 -0.184837 -0.0478958)
(0.00366946 -0.143043 -0.0398103)
(0.00557573 -0.0957093 -0.0321009)
(0.00822512 -0.045906 -0.0267536)
(0.0102466 -0.00715277 -0.0260615)
(0.0109607 0.0144536 -0.0281554)
(0.0110274 0.0260572 -0.030572)
(0.0109082 0.0344918 -0.03279)
(0.0107381 0.0424368 -0.034809)
(0.0105936 0.0505285 -0.0364769)
(0.0105229 0.0590944 -0.0376165)
(0.0105738 0.0687397 -0.0380607)
(0.0107905 0.0799379 -0.0375186)
(0.011181 0.0925312 -0.0355573)
(0.0117132 0.106105 -0.0316386)
(0.0122891 0.120039 -0.0252481)
(0.0127478 0.133479 -0.0161754)
(0.0128751 0.145554 -0.00492601)
(0.0124982 0.155995 0.00712017)
(0.0116246 0.165853 0.0182992)
(0.0104474 0.178051 0.0274956)
(0.00917359 0.199347 0.0335703)
(0.00800927 0.246549 0.0328527)
(0.00671696 0.351173 0.0221038)
(0.00410883 0.530682 0.00975053)
(0.00263764 0.628786 0.00568258)
(0.00152743 0.585065 0.00414621)
(0.00493186 -0.332728 0.0268893)
(0.00858108 -0.407604 0.0217402)
(0.00740725 -0.406426 0.00684374)
(0.00448355 -0.374948 -0.0158823)
(0.00107819 -0.32049 -0.0440508)
(-0.00174569 -0.264874 -0.0667186)
(-0.00334233 -0.21934 -0.0795033)
(-0.00395127 -0.183993 -0.0831597)
(-0.00395656 -0.154234 -0.080093)
(-0.0033978 -0.124882 -0.0721653)
(-0.00214018 -0.0911262 -0.0606179)
(-2.93496e-05 -0.0501513 -0.0475102)
(0.00258852 -0.0086093 -0.0374271)
(0.0048413 0.0196324 -0.0331955)
(0.0064325 0.0347558 -0.0324427)
(0.00770443 0.0448852 -0.032835)
(0.00882229 0.0537285 -0.0336588)
(0.00976193 0.0622167 -0.0346367)
(0.0105452 0.0706301 -0.0355212)
(0.0112521 0.0792496 -0.0360944)
(0.0119432 0.0884771 -0.0361761)
(0.0126887 0.0989299 -0.0355116)
(0.0135001 0.110896 -0.0336972)
(0.0143011 0.123905 -0.030303)
(0.014967 0.137149 -0.0250184)
(0.0153372 0.149851 -0.0178092)
(0.0152468 0.161633 -0.00902159)
(0.0146055 0.172927 0.000684666)
(0.0134809 0.185665 0.0106435)
(0.0119806 0.205602 0.0203886)
(0.0101103 0.251355 0.0274377)
(0.00777655 0.366451 0.02349)
(0.0042923 0.557889 0.0131826)
(0.00251008 0.646668 0.00929764)
(0.00162259 0.597591 0.00655233)
(-0.00348709 -0.363719 0.0432899)
(-0.0109824 -0.405858 0.0238179)
(-0.0196783 -0.384344 -0.0030096)
(-0.0279487 -0.328434 -0.0353035)
(-0.0294334 -0.273251 -0.0559906)
(-0.0266866 -0.230123 -0.0671115)
(-0.0229333 -0.193731 -0.0738598)
(-0.0197253 -0.161705 -0.0770526)
(-0.0175637 -0.132124 -0.0766515)
(-0.0162176 -0.102772 -0.0727186)
(-0.0151312 -0.0715467 -0.0655973)
(-0.0136508 -0.0380339 -0.0562811)
(-0.0112146 -0.00611188 -0.0473899)
(-0.00803754 0.017779 -0.0416155)
(-0.00489803 0.033502 -0.0387034)
(-0.00207335 0.0450005 -0.0372903)
(0.000457787 0.0549582 -0.0365681)
(0.00274559 0.0645214 -0.0361818)
(0.00478411 0.0739818 -0.035947)
(0.00655981 0.0834123 -0.0357132)
(0.00811441 0.0931235 -0.0353077)
(0.00951064 0.103577 -0.0345157)
(0.0107775 0.115106 -0.0330801)
(0.0119238 0.127738 -0.0306979)
(0.0129124 0.141173 -0.0270683)
(0.0136519 0.154933 -0.021982)
(0.0140196 0.168649 -0.0154125)
(0.0139141 0.182506 -0.00754675)
(0.0133207 0.1981 0.00136401)
(0.0122383 0.221285 0.0113444)
(0.0105146 0.273034 0.0211637)
(0.00784749 0.402411 0.0220179)
(0.00390447 0.59437 0.0139612)
(0.00198803 0.667655 0.0104334)
(0.00148578 0.611634 0.0072115)
(-0.0152452 -0.261176 0.0422418)
(-0.0272982 -0.332782 0.0228027)
(-0.0319727 -0.338125 0.00832419)
(-0.0305208 -0.33021 0.00246143)
(-0.0234995 -0.311936 6.28665e-05)
(-0.0134609 -0.273032 -0.00714375)
(-0.00303587 -0.218351 -0.019599)
(0.00510864 -0.163248 -0.0326641)
(0.00820458 -0.117495 -0.0430483)
(0.006701 -0.0821127 -0.0477656)
(0.00389309 -0.0518756 -0.0477547)
(0.00184788 -0.0253541 -0.0454586)
(0.00124245 -0.003058 -0.0426629)
(0.00176454 0.0151366 -0.0402698)
(0.00275745 0.029943 -0.0385427)
(0.00390871 0.0424133 -0.0373661)
(0.00509828 0.0535165 -0.036543)
(0.0062887 0.0639403 -0.0359136)
(0.00745715 0.0741135 -0.0353591)
(0.00857535 0.0843235 -0.0347695)
(0.00961354 0.0948337 -0.0340139)
(0.0105492 0.105913 -0.0329314)
(0.0113746 0.117789 -0.0313301)
(0.0120866 0.130565 -0.028992)
(0.0126706 0.14417 -0.0256892)
(0.0130833 0.15839 -0.0212291)
(0.0132498 0.173011 -0.0155233)
(0.0130848 0.188183 -0.00864521)
(0.0125399 0.205322 -0.000746815)
(0.0115592 0.230263 0.00828615)
(0.00995057 0.285543 0.0178204)
(0.00747132 0.42753 0.0206459)
(0.00383738 0.623797 0.0141368)
(0.0019004 0.685705 0.0108677)
(0.00137793 0.62212 0.00775685)
(-0.0118091 -0.185367 0.0474852)
(-0.0105022 -0.37621 0.0594037)
(-0.00419904 -0.456123 0.0650122)
(0.00375949 -0.48422 0.0662253)
(0.0119793 -0.481095 0.0636475)
(0.0209141 -0.442509 0.0569085)
(0.030443 -0.366782 0.0473103)
(0.0406922 -0.26189 0.0383045)
(0.0488169 -0.141052 0.0198623)
(0.048602 -0.0596579 -0.00386562)
(0.0428843 -0.0192499 -0.0191538)
(0.0362406 0.00362638 -0.0266322)
(0.0302992 0.0206162 -0.0299579)
(0.0256929 0.0346029 -0.0313648)
(0.0223176 0.0464185 -0.0319687)
(0.0198769 0.0567364 -0.0322508)
(0.018136 0.0661884 -0.0323827)
(0.0169266 0.0752957 -0.0324025)
(0.0161216 0.084436 -0.0322956)
(0.015621 0.0938699 -0.0320198)
(0.0153457 0.103793 -0.0315083)
(0.0152292 0.114376 -0.0306634)
(0.0151901 0.125757 -0.0293477)
(0.0151795 0.138036 -0.0273392)
(0.0151345 0.151224 -0.0244163)
(0.0150036 0.165265 -0.0203816)
(0.0147251 0.180163 -0.0150962)
(0.0142239 0.196291 -0.00851727)
(0.0134363 0.21534 -0.000624233)
(0.0122649 0.243828 0.00884179)
(0.0104936 0.30629 0.0190539)
(0.00800628 0.458653 0.0221933)
(0.00463033 0.652066 0.0154628)
(0.00254037 0.706142 0.0119503)
(0.00157541 0.633613 0.00887698)
(0.00200464 -0.209821 0.0263878)
(0.0236125 -0.452592 0.0259699)
(0.0361206 -0.540731 0.0205261)
(0.0438575 -0.558989 0.0156665)
(0.0474068 -0.546777 0.0085228)
(0.047026 -0.514435 -0.00159882)
(0.0437835 -0.472826 -0.00445389)
(0.0391147 -0.408103 0.0158895)
(0.0406104 -0.253955 0.0427819)
(0.0412861 -0.0803066 0.0308976)
(0.0331854 0.0183822 0.00485701)
(0.0243144 0.0558263 -0.0125452)
(0.0191353 0.068929 -0.0208236)
(0.0156634 0.0758212 -0.0251231)
(0.0128637 0.0810556 -0.0275875)
(0.0108689 0.0859508 -0.0289135)
(0.00963238 0.091072 -0.0295133)
(0.00896719 0.096696 -0.0296565)
(0.00873128 0.102967 -0.0294965)
(0.00882319 0.109973 -0.0291093)
(0.00916571 0.117786 -0.0285231)
(0.00968403 0.126499 -0.0277345)
(0.0103063 0.136464 -0.0266648)
(0.0109693 0.147831 -0.0251225)
(0.0115729 0.16025 -0.0229367)
(0.012054 0.173582 -0.0198922)
(0.012359 0.187892 -0.0157736)
(0.0124262 0.203638 -0.0103976)
(0.0121845 0.222557 -0.00351606)
(0.0114751 0.251204 0.00558259)
(0.00987225 0.31515 0.0171862)
(0.00731812 0.475272 0.0234655)
(0.00413541 0.674518 0.0184472)
(0.00218323 0.72594 0.0150229)
(0.00138824 0.646868 0.0116222)
(0.0139848 -0.380985 0.0068772)
(0.0395056 -0.577298 0.0166844)
(0.0496879 -0.611205 0.0221669)
(0.0497171 -0.590627 0.0193917)
(0.0434481 -0.52836 -0.00181014)
(0.0301275 -0.437961 -0.0433909)
(0.0107157 -0.36831 -0.0655768)
(-0.0160895 -0.31075 -0.0409491)
(-0.0380365 -0.188307 0.0078035)
(-0.0476011 -0.0229437 0.00838869)
(-0.0491617 0.0564887 -0.0162825)
(-0.0465557 0.0718746 -0.0242893)
(-0.0431658 0.0804782 -0.0280192)
(-0.0391885 0.0859609 -0.0304406)
(-0.0352116 0.0898002 -0.0317023)
(-0.0312703 0.0931375 -0.0320296)
(-0.0273879 0.0967126 -0.0316519)
(-0.0235972 0.100965 -0.0307666)
(-0.0199235 0.106129 -0.0295275)
(-0.0163784 0.112314 -0.0280484)
(-0.0129756 0.119538 -0.0264126)
(-0.00982504 0.127777 -0.0246721)
(-0.00683948 0.137365 -0.0227313)
(-0.00394518 0.148683 -0.0204605)
(-0.00128297 0.161486 -0.0178185)
(0.00111215 0.17548 -0.0147467)
(0.00321968 0.190697 -0.011115)
(0.00499233 0.207822 -0.00670438)
(0.00634747 0.229232 -0.00109533)
(0.00708426 0.263197 0.00670858)
(0.00651205 0.338484 0.0174906)
(0.00406172 0.507675 0.02424)
(0.00140278 0.697707 0.0206613)
(8.83108e-05 0.742849 0.0175358)
(0.000171517 0.655021 0.0138995)
(0.008463 -0.573938 0.0555864)
(0.00400857 -0.670379 0.0931769)
(-0.0122176 -0.632968 0.107398)
(-0.0401976 -0.532719 0.0944923)
(-0.0700338 -0.385252 0.0391451)
(-0.091088 -0.242618 -0.0201377)
(-0.109157 -0.131283 -0.0263431)
(-0.12457 -0.0412032 -0.0163702)
(-0.126399 -0.00427684 -0.0302588)
(-0.121092 -0.000356128 -0.0347682)
(-0.113083 0.0100624 -0.0340579)
(-0.10199 0.0213017 -0.034607)
(-0.0909872 0.0306324 -0.034831)
(-0.0810511 0.0386633 -0.034456)
(-0.0718142 0.046182 -0.0336066)
(-0.0632157 0.0535998 -0.0323827)
(-0.0553233 0.0611693 -0.0308532)
(-0.0481036 0.0690687 -0.0290734)
(-0.0414929 0.0774484 -0.0270833)
(-0.0354298 0.0864354 -0.0249038)
(-0.029865 0.0961718 -0.0225272)
(-0.0247646 0.106838 -0.0199049)
(-0.0200693 0.118636 -0.0169424)
(-0.0157631 0.13173 -0.0136428)
(-0.0118345 0.146069 -0.010063)
(-0.00827819 0.161535 -0.00628648)
(-0.00510128 0.178268 -0.0023624)
(-0.00234058 0.197156 0.00177337)
(-5.51525e-05 0.221202 0.00645747)
(0.00159534 0.26055 0.0126199)
(0.00212345 0.347714 0.0212895)
(0.000497057 0.531272 0.0273959)
(-0.00100821 0.715006 0.0246798)
(-0.00121885 0.753429 0.0217348)
(-0.000413123 0.655425 0.017713)
(-0.0200166 -0.459717 0.0958026)
(-0.0580147 -0.463614 0.0952318)
(-0.0988711 -0.347342 0.0789252)
(-0.130132 -0.212006 0.0394929)
(-0.135079 -0.163554 0.00908154)
(-0.133749 -0.165022 0.010508)
(-0.127037 -0.160961 0.00810928)
(-0.113887 -0.148562 0.00121489)
(-0.0999888 -0.126003 -0.00191029)
(-0.0878424 -0.10021 -0.00476964)
(-0.0772832 -0.0790072 -0.00799469)
(-0.0681101 -0.0609654 -0.0104648)
(-0.0599002 -0.0444838 -0.012397)
(-0.0526105 -0.0290907 -0.0138264)
(-0.0462625 -0.0145305 -0.0147814)
(-0.0407214 -0.000643029 -0.0152777)
(-0.0357794 0.012752 -0.0153298)
(-0.0312276 0.0258648 -0.014965)
(-0.0269491 0.0388712 -0.0141918)
(-0.022982 0.0519426 -0.012981)
(-0.0193144 0.0652788 -0.0112909)
(-0.0159136 0.0791281 -0.00906944)
(-0.0127508 0.0937545 -0.00626754)
(-0.00980744 0.109352 -0.00287375)
(-0.0070782 0.126004 0.00105452)
(-0.00457255 0.143791 0.00538117)
(-0.00231575 0.163086 0.00991921)
(-0.000376069 0.185125 0.0145053)
(0.00116684 0.213633 0.0191528)
(0.00227591 0.260227 0.0242263)
(0.00285463 0.358339 0.0301901)
(0.00233381 0.54912 0.0337441)
(0.00142123 0.721851 0.0306529)
(0.000769897 0.755013 0.0279672)
(0.000483834 0.64874 0.0237314)
(-0.0248201 -0.200672 0.0477824)
(-0.053013 -0.264137 0.0256415)
(-0.062929 -0.310635 0.0303015)
(-0.0582679 -0.360889 0.0432403)
(-0.0468831 -0.384127 0.0534322)
(-0.0342414 -0.370851 0.0573809)
(-0.0217309 -0.329666 0.0586931)
(-0.010344 -0.278613 0.0601169)
(-0.00015292 -0.22863 0.0594424)
(0.00915602 -0.184553 0.0566109)
(0.0169444 -0.145923 0.0521741)
(0.0226014 -0.112986 0.0464796)
(0.0259305 -0.085613 0.0400065)
(0.0271024 -0.062936 0.0333181)
(0.0266128 -0.0436029 0.0269624)
(0.0251079 -0.0262735 0.0213485)
(0.023294 -0.0100532 0.0166802)
(0.0214973 0.0054775 0.0129683)
(0.0198313 0.0204544 0.0101668)
(0.018402 0.0350597 0.00824792)
(0.0171985 0.0495679 0.00720046)
(0.0162119 0.0642596 0.00703711)
(0.0154413 0.0793888 0.00778866)
(0.0148699 0.095182 0.00948546)
(0.0144614 0.111846 0.0121252)
(0.0141669 0.129641 0.0156364)
(0.0139266 0.149094 0.0198608)
(0.0136745 0.171523 0.0245673)
(0.0133583 0.200594 0.0295118)
(0.0128905 0.247382 0.0344472)
(0.0116574 0.34527 0.0393527)
(0.00989627 0.543394 0.0434696)
(0.00778297 0.72763 0.0411517)
(0.0054506 0.765907 0.0385182)
(0.00300863 0.658617 0.032992)
(-0.00795434 -0.140644 0.0366489)
(-0.00538691 -0.321021 0.0244867)
(0.00160643 -0.426197 0.0117324)
(0.00645699 -0.475432 0.0042626)
(0.00891468 -0.494257 0.00125036)
(0.0115023 -0.495832 0.0021105)
(0.0160213 -0.477808 0.0068986)
(0.0234278 -0.441777 0.0146012)
(0.0334936 -0.393657 0.0245611)
(0.0451099 -0.33716 0.0358322)
(0.0570966 -0.276192 0.0474959)
(0.0683839 -0.214047 0.0585743)
(0.07797 -0.154017 0.0677447)
(0.0849385 -0.0999617 0.0733113)
(0.0885622 -0.0556788 0.0738524)
(0.0885204 -0.0231146 0.0692342)
(0.0851216 -0.000722492 0.0609578)
(0.0789511 0.0157487 0.0513308)
(0.0711699 0.0304001 0.0425008)
(0.0633876 0.0447981 0.0354731)
(0.0565764 0.0588927 0.0302076)
(0.0506743 0.0727846 0.0263855)
(0.0453734 0.0869101 0.0238807)
(0.0405582 0.101635 0.0227525)
(0.0362474 0.117167 0.0230826)
(0.0324599 0.13376 0.0248865)
(0.0291784 0.152013 0.0281021)
(0.0263703 0.173524 0.0326165)
(0.0239912 0.202885 0.0383276)
(0.0220589 0.254024 0.0445907)
(0.0192964 0.361457 0.0475852)
(0.0144713 0.555484 0.0490451)
(0.0102195 0.741503 0.0486057)
(0.00663977 0.783012 0.0464649)
(0.00343605 0.678468 0.0395677)
(-0.000142012 -0.153037 0.0171343)
(0.0148128 -0.332276 -0.00813538)
(0.027956 -0.411945 -0.0229788)
(0.0384004 -0.445587 -0.0314243)
(0.0467427 -0.461951 -0.038009)
(0.0534873 -0.470674 -0.0445725)
(0.0584256 -0.474593 -0.0513787)
(0.0617209 -0.472533 -0.0581073)
(0.0640922 -0.460797 -0.0636367)
(0.0664429 -0.43561 -0.0657979)
(0.0695179 -0.397608 -0.0627862)
(0.0738437 -0.349606 -0.0535297)
(0.0797653 -0.293028 -0.0373155)
(0.0871539 -0.228743 -0.0143456)
(0.0952131 -0.158341 0.0136663)
(0.102586 -0.0848753 0.0432887)
(0.107529 -0.0147073 0.0688441)
(0.108726 0.0409531 0.0832678)
(0.1057 0.0733788 0.0832174)
(0.0982862 0.0874705 0.0724183)
(0.0876129 0.0961193 0.0590653)
(0.0767148 0.106983 0.0491171)
(0.0677892 0.119831 0.0430919)
(0.0606346 0.132782 0.0393216)
(0.0545063 0.145362 0.0368417)
(0.048863 0.15814 0.0355936)
(0.0434349 0.172099 0.035893)
(0.0382261 0.188786 0.0380754)
(0.033296 0.212345 0.0425553)
(0.0286378 0.258144 0.0500555)
(0.0247747 0.377843 0.0563002)
(0.0187785 0.590085 0.0541487)
(0.012384 0.770601 0.0521729)
(0.0076322 0.811991 0.0495466)
(0.00386964 0.701686 0.0412235)
(0.00435694 -0.217125 -0.0136488)
(0.0255678 -0.434872 -0.0273712)
(0.0466315 -0.530805 -0.0241488)
(0.0663865 -0.56875 -0.0187692)
(0.0840205 -0.577647 -0.0148974)
(0.0993931 -0.566642 -0.0139786)
(0.111316 -0.537172 -0.0181378)
(0.118171 -0.49317 -0.0289077)
(0.11988 -0.444149 -0.0454164)
(0.11785 -0.397834 -0.0649085)