/*--------------------------------*- C++ -*----------------------------------*\
| =========                 |                                                 |
| \\      /  F ield         | OpenFOAM: The Open Source CFD Toolbox           |
|  \\    /   O peration     | Version:  v2006                                 |
|   \\  /    A nd           | Website:  www.openfoam.com                      |
|    \\/     M anipulation  |                                                 |
\*---------------------------------------------------------------------------*/
FoamFile
{
    version     2.0;
    format      ascii;
    class       volScalarField;
    location    "20";
    object      alphat;
}
// * * * * * * * * * * * * * * * * * * * * * * * * * * * * * * * * * * * * * //

dimensions      [1 -1 -1 0 0 0 0];


internalField   nonuniform List<scalar> 
78750
(
7.68809e-07
1.00951e-05
1.31317e-05
1.25838e-05
1.18466e-05
1.10924e-05
1.04021e-05
9.78214e-06
9.22673e-06
8.73748e-06
8.31892e-06
7.97702e-06
7.71937e-06
7.5506e-06
7.46889e-06
7.46468e-06
7.5213e-06
7.61753e-06
7.73136e-06
7.84327e-06
7.93784e-06
8.00367e-06
8.03246e-06
8.01785e-06
7.95389e-06
7.83313e-06
7.64942e-06
7.39534e-06
7.05931e-06
6.63175e-06
6.08249e-06
5.35332e-06
4.29489e-06
2.75484e-06
2.77727e-08
8.53655e-08
8.3409e-06
1.88311e-05
2.81451e-05
3.00722e-05
3.23731e-05
3.62873e-05
4.03889e-05
4.41014e-05
4.69308e-05
4.80704e-05
4.71615e-05
4.484e-05
4.18795e-05
3.88792e-05
3.6369e-05
3.46369e-05
3.36944e-05
3.34536e-05
3.3831e-05
3.47435e-05
3.61205e-05
3.79292e-05
4.01102e-05
4.21769e-05
4.173e-05
4.04528e-05
3.85597e-05
3.11169e-05
2.33317e-05
1.71535e-05
1.31023e-05
1.14125e-05
9.05704e-06
4.53075e-08
1.45828e-07
9.78803e-06
1.38532e-05
1.38834e-05
1.41297e-05
1.50505e-05
1.64544e-05
1.81939e-05
2.05048e-05
2.36098e-05
2.775e-05
3.29551e-05
3.34728e-05
3.35757e-05
3.37613e-05
3.40132e-05
3.14539e-05
2.93015e-05
2.83414e-05
2.81534e-05
2.83254e-05
2.85003e-05
2.84067e-05
2.78356e-05
2.65381e-05
2.42379e-05
2.0948e-05
1.70886e-05
1.33457e-05
1.03698e-05
8.5761e-06
8.32945e-06
1.06228e-05
6.75044e-06
5.49988e-08
1.25726e-07
1.24744e-05
2.64856e-05
2.39956e-05
2.28441e-05
2.28058e-05
2.39887e-05
2.64485e-05
3.01593e-05
3.40737e-05
3.60421e-05
3.56032e-05
3.43058e-05
3.26216e-05
3.02806e-05
2.81989e-05
2.78982e-05
3.02692e-05
3.52041e-05
3.92004e-05
3.95682e-05
3.97474e-05
3.97099e-05
3.44157e-05
2.91355e-05
2.43622e-05
1.98008e-05
1.54944e-05
1.17277e-05
8.85337e-06
7.1453e-06
6.89243e-06
9.13063e-06
6.91321e-06
5.42733e-08
1.14845e-07
7.17821e-06
2.78268e-05
2.621e-05
2.42265e-05
2.35072e-05
2.3956e-05
2.48975e-05
2.54983e-05
2.47086e-05
2.20436e-05
1.83853e-05
1.51097e-05
1.31174e-05
1.26146e-05
1.34379e-05
1.55879e-05
1.96351e-05
2.69867e-05
3.52308e-05
3.60401e-05
3.6586e-05
3.68516e-05
3.2452e-05
2.50792e-05
1.99819e-05
1.59989e-05
1.24402e-05
9.31117e-06
6.923e-06
5.58303e-06
5.61855e-06
8.33756e-06
4.84044e-06
5.2883e-08
8.82991e-08
5.70508e-06
2.68138e-05
2.85622e-05
2.42787e-05
2.07595e-05
1.90563e-05
1.909e-05
2.03372e-05
2.11266e-05
1.93254e-05
1.58018e-05
1.29788e-05
1.17881e-05
1.21223e-05
1.37994e-05
1.68795e-05
2.19101e-05
2.98818e-05
3.85775e-05
3.93734e-05
3.98783e-05
3.89707e-05
3.17775e-05
2.59992e-05
2.17373e-05
1.83402e-05
1.53397e-05
1.2421e-05
9.61414e-06
7.4238e-06
6.52829e-06
7.94482e-06
8.21836e-06
5.7267e-08
7.01391e-08
4.71292e-06
2.09496e-05
2.7452e-05
2.57897e-05
2.4336e-05
2.26886e-05
1.89261e-05
1.40229e-05
1.02377e-05
8.09997e-06
7.34561e-06
7.71162e-06
9.04347e-06
1.13225e-05
1.4663e-05
1.93605e-05
2.60037e-05
3.45553e-05
3.88472e-05
3.90389e-05
3.89879e-05
3.53256e-05
2.8226e-05
2.24341e-05
1.81109e-05
1.48791e-05
1.23753e-05
1.02847e-05
8.47787e-06
7.12905e-06
6.86229e-06
9.32714e-06
7.1446e-06
7.39815e-08
6.3596e-08
4.55507e-06
1.90591e-05
2.50524e-05
2.09169e-05
1.47724e-05
9.93139e-06
7.14206e-06
5.953e-06
5.94954e-06
6.93741e-06
8.85274e-06
1.17066e-05
1.55072e-05
2.01496e-05
2.53451e-05
3.07871e-05
3.6286e-05
4.04169e-05
4.03821e-05
4.01937e-05
3.98515e-05
3.53459e-05
2.74278e-05
2.07839e-05
1.59808e-05
1.26495e-05
1.0334e-05
8.65814e-06
7.42494e-06
6.76172e-06
7.51732e-06
1.32253e-05
5.47383e-06
7.9845e-08
6.4122e-08
3.63538e-06
1.34391e-05
1.6216e-05
1.02245e-05
6.24208e-06
4.66069e-06
4.58863e-06
5.62384e-06
7.63761e-06
1.04693e-05
1.37672e-05
1.70454e-05
1.99947e-05
2.27467e-05
2.57799e-05
2.96898e-05
3.48373e-05
3.95296e-05
3.95203e-05
3.92982e-05
3.85116e-05
2.95076e-05
2.12254e-05
1.52916e-05
1.13299e-05
8.81331e-06
7.3624e-06
6.70078e-06
6.57393e-06
7.14515e-06
9.88695e-06
2.10371e-05
4.22459e-06
7.73908e-08
6.86661e-08
3.15111e-06
1.25145e-05
8.99966e-06
5.1632e-06
4.1336e-06
4.62162e-06
6.24548e-06
8.79677e-06
1.18053e-05
1.47178e-05
1.73743e-05
2.00326e-05
2.30411e-05
2.6576e-05
3.06094e-05
3.4941e-05
3.9096e-05
4.08669e-05
4.06575e-05
4.02396e-05
3.48592e-05
2.63777e-05
1.87839e-05
1.32359e-05
9.54912e-06
7.31145e-06
6.20905e-06
5.98287e-06
6.4243e-06
7.87063e-06
1.22664e-05
1.97937e-05
3.60686e-06
7.20399e-08
7.1732e-08
2.87095e-06
1.30385e-05
6.70243e-06
4.40633e-06
4.49511e-06
5.87275e-06
8.11551e-06
1.06602e-05
1.29334e-05
1.49172e-05
1.69946e-05
1.95082e-05
2.26331e-05
2.63936e-05
3.0692e-05
3.52833e-05
3.95393e-05
4.04892e-05
4.04035e-05
3.98408e-05
3.30333e-05
2.47091e-05
1.74145e-05
1.20089e-05
8.3606e-06
6.13247e-06
5.0779e-06
5.00833e-06
5.81706e-06
7.9281e-06
1.32338e-05
1.64703e-05
3.16059e-06
6.95016e-08
7.11968e-08
2.79359e-06
1.48113e-05
6.84234e-06
4.89196e-06
5.29965e-06
6.7752e-06
8.70316e-06
1.05875e-05
1.22627e-05
1.39851e-05
1.61507e-05
1.90718e-05
2.28707e-05
2.7395e-05
3.22107e-05
3.67402e-05
4.03629e-05
4.12782e-05
4.13038e-05
4.01222e-05
3.47181e-05
2.73021e-05
1.97649e-05
1.35501e-05
9.08804e-06
6.21282e-06
4.64406e-06
4.19016e-06
4.70025e-06
6.50606e-06
1.12704e-05
1.44046e-05
2.90725e-06
6.95063e-08
6.93508e-08
2.79257e-06
1.68255e-05
8.02304e-06
5.60869e-06
5.87508e-06
7.14261e-06
8.68233e-06
1.00289e-05
1.11643e-05
1.24841e-05
1.44968e-05
1.75984e-05
2.19457e-05
2.72668e-05
3.27904e-05
3.75785e-05
4.08546e-05
4.12254e-05
4.14003e-05
3.97154e-05
3.51627e-05
2.8894e-05
2.19148e-05
1.54443e-05
1.03116e-05
6.73937e-06
4.57658e-06
3.62117e-06
3.69411e-06
5.01964e-06
9.05427e-06
1.24877e-05
2.65267e-06
6.93653e-08
6.02017e-08
2.57074e-06
1.40396e-05
1.20815e-05
7.44216e-06
6.80399e-06
7.37977e-06
8.14678e-06
8.6519e-06
9.08508e-06
9.97419e-06
1.18545e-05
1.51715e-05
2.01849e-05
2.65793e-05
3.3101e-05
3.82205e-05
4.10186e-05
4.15505e-05
4.16977e-05
3.97256e-05
3.64546e-05
3.18837e-05
2.61119e-05
1.96944e-05
1.36336e-05
8.82306e-06
5.57542e-06
3.74853e-06
3.09479e-06
3.54626e-06
6.03766e-06
1.13808e-05
2.46845e-06
6.98787e-08
4.75311e-08
2.3461e-06
1.03134e-05
1.73922e-05
1.02341e-05
7.99369e-06
7.46691e-06
7.27851e-06
7.03318e-06
7.05222e-06
7.91523e-06
1.00401e-05
1.37993e-05
1.94105e-05
2.63961e-05
3.31834e-05
3.81376e-05
4.08055e-05
4.14929e-05
4.08674e-05
3.90497e-05
3.627e-05
3.25897e-05
2.80562e-05
2.28013e-05
1.71753e-05
1.18552e-05
7.61203e-06
4.81365e-06
3.38829e-06
3.10138e-06
4.39167e-06
1.03305e-05
2.41559e-06
7.19239e-08
3.8943e-08
2.32108e-06
9.41998e-06
1.93271e-05
1.27552e-05
9.15226e-06
7.46492e-06
6.37139e-06
5.74735e-06
5.98424e-06
7.45822e-06
1.0386e-05
1.49443e-05
2.09688e-05
2.75843e-05
3.34823e-05
3.77963e-05
4.03926e-05
4.14865e-05
4.13175e-05
4.00473e-05
3.77556e-05
3.44844e-05
3.03103e-05
2.54039e-05
2.00402e-05
1.46623e-05
9.9046e-06
6.35232e-06
4.2272e-06
3.36912e-06
3.96697e-06
9.31943e-06
2.58481e-06
7.51401e-08
3.68476e-08
2.33477e-06
9.13463e-06
1.83529e-05
1.29561e-05
8.24837e-06
5.8788e-06
4.88041e-06
4.98333e-06
6.29022e-06
8.95434e-06
1.30499e-05
1.8377e-05
2.42513e-05
2.97754e-05
3.43438e-05
3.77432e-05
3.99569e-05
4.10198e-05
4.09737e-05
3.98568e-05
3.77155e-05
3.4633e-05
3.07691e-05
2.63465e-05
2.15652e-05
1.66357e-05
1.19391e-05
8.03227e-06
5.39231e-06
4.09209e-06
4.323e-06
9.20278e-06
2.99772e-06
7.75498e-08
3.80985e-08
2.27109e-06
8.88365e-06
1.57555e-05
9.45002e-06
5.92322e-06
4.68237e-06
4.78802e-06
6.07512e-06
8.68887e-06
1.25769e-05
1.73873e-05
2.24603e-05
2.71895e-05
3.12901e-05
3.47049e-05
3.74013e-05
3.93027e-05
4.03101e-05
4.03353e-05
3.93159e-05
3.72393e-05
3.41847e-05
3.03727e-05
2.61167e-05
2.16715e-05
1.72054e-05
1.29306e-05
9.2143e-06
6.49782e-06
5.01051e-06
5.15854e-06
1.03605e-05
3.45996e-06
7.90565e-08
3.98509e-08
2.13525e-06
8.70718e-06
1.26188e-05
6.88356e-06
4.87417e-06
4.70499e-06
5.7479e-06
7.98276e-06
1.13567e-05
1.54837e-05
1.98042e-05
2.3899e-05
2.76077e-05
3.0911e-05
3.37926e-05
3.6159e-05
3.78546e-05
3.87122e-05
3.85981e-05
3.74353e-05
3.52389e-05
3.21617e-05
2.8518e-05
2.46636e-05
2.08093e-05
1.70139e-05
1.33386e-05
1.00143e-05
7.4311e-06
5.92608e-06
6.15866e-06
1.20827e-05
3.81212e-06
8.10294e-08
4.00561e-08
2.08649e-06
9.42723e-06
1.0385e-05
5.85578e-06
4.88898e-06
5.47947e-06
7.21413e-06
1.00356e-05
1.36308e-05
1.74632e-05
2.10892e-05
2.43645e-05
2.73345e-05
3.00645e-05
3.25465e-05
3.46571e-05
3.61904e-05
3.6921e-05
3.66629e-05
3.53098e-05
3.29009e-05
2.96782e-05
2.60706e-05
2.24864e-05
1.91159e-05
1.59631e-05
1.29978e-05
1.03072e-05
8.1245e-06
6.84074e-06
7.42389e-06
1.46411e-05
3.9018e-06
8.38847e-08
3.94562e-08
2.14097e-06
1.07128e-05
1.0125e-05
6.13628e-06
5.64315e-06
6.63524e-06
8.62874e-06
1.1371e-05
1.44239e-05
1.737e-05
2.00605e-05
2.25856e-05
2.50792e-05
2.75969e-05
3.00746e-05
3.23045e-05
3.39762e-05
3.47615e-05
3.44047e-05
3.27991e-05
3.00868e-05
2.66903e-05
2.31642e-05
1.99004e-05
1.70082e-05
1.44391e-05
1.21329e-05
1.00987e-05
8.44983e-06
7.59259e-06
8.77023e-06
1.6966e-05
3.79643e-06
8.77216e-08
3.8173e-08
2.30807e-06
1.24004e-05
1.11673e-05
7.0691e-06
6.66071e-06
7.70741e-06
9.55723e-06
1.18466e-05
1.42282e-05
1.64964e-05
1.86666e-05
2.08689e-05
2.31974e-05
2.56496e-05
2.81204e-05
3.03689e-05
3.20321e-05
3.2712e-05
3.21052e-05
3.01401e-05
2.71195e-05
2.36633e-05
2.0374e-05
1.75353e-05
1.51402e-05
1.30958e-05
1.13362e-05
9.82816e-06
8.65305e-06
8.25733e-06
1.00966e-05
1.79519e-05
3.63029e-06
9.23878e-08
3.61252e-08
2.4085e-06
1.25471e-05
1.39317e-05
8.77065e-06
7.88266e-06
8.53905e-06
9.8252e-06
1.13576e-05
1.29737e-05
1.46331e-05
1.64e-05
1.83634e-05
2.05504e-05
2.29252e-05
2.54117e-05
2.78093e-05
2.97004e-05
3.05103e-05
2.97635e-05
2.7407e-05
2.40231e-05
2.05277e-05
1.75321e-05
1.51506e-05
1.32547e-05
1.17166e-05
1.04628e-05
9.43071e-06
8.70916e-06
8.80254e-06
1.13349e-05
1.76218e-05
3.41412e-06
9.84315e-08
3.35871e-08
2.44329e-06
1.19399e-05
1.68161e-05
1.05703e-05
8.87686e-06
8.9148e-06
9.58575e-06
1.05276e-05
1.16773e-05
1.30444e-05
1.46547e-05
1.65078e-05
1.85277e-05
2.06365e-05
2.28513e-05
2.51758e-05
2.73049e-05
2.84555e-05
2.77539e-05
2.50372e-05
2.12836e-05
1.78005e-05
1.5149e-05
1.32273e-05
1.17881e-05
1.06734e-05
9.79812e-06
9.10716e-06
8.72096e-06
9.19604e-06
1.22422e-05
1.67038e-05
3.24819e-06
1.05279e-07
3.1847e-08
2.41519e-06
1.10865e-05
1.82211e-05
1.23798e-05
9.77678e-06
9.15598e-06
9.29892e-06
9.80353e-06
1.06112e-05
1.17306e-05
1.31246e-05
1.46879e-05
1.62419e-05
1.76984e-05
1.92334e-05
2.12035e-05
2.37179e-05
2.5908e-05
2.58921e-05
2.27939e-05
1.84281e-05
1.49014e-05
1.26249e-05
1.12009e-05
1.02591e-05
9.60717e-06
9.11558e-06
8.74475e-06
8.67296e-06
9.55247e-06
1.32219e-05
1.53705e-05
3.05296e-06
1.12504e-07
3.10385e-08
2.33528e-06
1.02901e-05
1.79157e-05
1.35781e-05
1.02919e-05
9.19729e-06
9.04077e-06
9.35886e-06
1.00407e-05
1.10419e-05
1.22446e-05
1.3435e-05
1.43708e-05
1.4999e-05
1.56095e-05
1.67687e-05
1.90772e-05
2.22907e-05
2.33869e-05
2.04771e-05
1.55014e-05
1.20772e-05
1.02355e-05
9.26706e-06
8.75673e-06
8.53428e-06
8.43464e-06
8.40555e-06
8.64237e-06
9.88253e-06
1.40596e-05
1.38553e-05
2.86558e-06
1.15827e-07
3.10258e-08
2.18478e-06
9.18143e-06
1.76206e-05
1.51532e-05
1.11226e-05
9.58968e-06
9.19989e-06
9.35914e-06
9.86724e-06
1.06198e-05
1.14551e-05
1.21226e-05
1.24017e-05
1.23041e-05
1.2144e-05
1.24677e-05
1.39916e-05
1.72147e-05
1.95827e-05
1.69753e-05
1.19431e-05
9.11977e-06
7.88784e-06
7.3551e-06
7.15621e-06
7.22613e-06
7.44507e-06
7.78286e-06
8.43138e-06
1.01793e-05
1.49733e-05
1.23964e-05
2.72348e-06
1.17151e-07
2.98602e-08
1.98072e-06
7.77182e-06
1.71663e-05
1.79191e-05
1.2777e-05
1.04768e-05
9.66315e-06
9.53268e-06
9.77283e-06
1.02315e-05
1.07469e-05
1.10777e-05
1.09962e-05
1.0503e-05
9.91437e-06
9.74521e-06
1.06184e-05
1.31642e-05
1.5887e-05
1.29243e-05
8.53819e-06
6.49262e-06
5.81832e-06
5.67195e-06
5.70121e-06
5.88553e-06
6.22309e-06
6.75513e-06
7.66198e-06
9.66256e-06
1.45588e-05
1.10691e-05
2.56622e-06
1.14434e-07
2.65898e-08
1.79101e-06
6.41529e-06
1.65481e-05
1.9033e-05
1.57345e-05
1.22716e-05
1.05964e-05
9.86036e-06
9.60235e-06
9.60798e-06
9.724e-06
9.73418e-06
9.40126e-06
8.71607e-06
8.02109e-06
7.81721e-06
8.7017e-06
1.13725e-05
1.41379e-05
1.08739e-05
6.85896e-06
5.01454e-06
4.41343e-06
4.38259e-06
4.54496e-06
4.76494e-06
5.04861e-06
5.52474e-06
6.49201e-06
8.6854e-06
1.37583e-05
1.07404e-05
2.55584e-06
1.22384e-07
2.18054e-08
1.67806e-06
5.64539e-06
1.53647e-05
1.77376e-05
1.76854e-05
1.33096e-05
1.07667e-05
9.41282e-06
8.67691e-06
8.24959e-06
7.89831e-06
7.3972e-06
6.65874e-06
5.88972e-06
5.44743e-06
5.68135e-06
7.09972e-06
1.05347e-05
1.41189e-05
1.10542e-05
7.23114e-06
5.45562e-06
4.86418e-06
4.83162e-06
4.97515e-06
5.0404e-06
4.97794e-06
4.96446e-06
5.29915e-06
6.56005e-06
1.04368e-05
1.11671e-05
2.51864e-06
1.38585e-07
1.99912e-08
1.65562e-06
5.4857e-06
1.44206e-05
1.6571e-05
1.7284e-05
1.23057e-05
9.54084e-06
8.0868e-06
7.19326e-06
6.44459e-06
5.63361e-06
4.78993e-06
4.11769e-06
3.87875e-06
4.31569e-06
5.78503e-06
8.92994e-06
1.35523e-05
1.42037e-05
9.65064e-06
6.52103e-06
5.37265e-06
5.39634e-06
6.05832e-06
6.81276e-06
7.07613e-06
6.80496e-06
6.45136e-06
6.5178e-06
7.80379e-06
1.24355e-05
9.83382e-06
2.37666e-06
1.33782e-07
1.99775e-08
1.69434e-06
5.65162e-06
1.40611e-05
1.59862e-05
1.62593e-05
1.15529e-05
8.89823e-06
7.43084e-06
6.40149e-06
5.46514e-06
4.65377e-06
4.16469e-06
4.2192e-06
5.04613e-06
6.8583e-06
9.72606e-06
1.32945e-05
1.65038e-05
1.6607e-05
1.17759e-05
7.20236e-06
5.02924e-06
4.48289e-06
5.00822e-06
6.17309e-06
7.04715e-06
6.9636e-06
6.52701e-06
6.65469e-06
8.36816e-06
1.35893e-05
7.98394e-06
2.19123e-06
1.07085e-07
1.72652e-08
1.64423e-06
5.16996e-06
1.33017e-05
1.50725e-05
1.52476e-05
1.14106e-05
9.15644e-06
7.79762e-06
6.65338e-06
5.5634e-06
4.76456e-06
4.50906e-06
4.90654e-06
6.08324e-06
8.24301e-06
1.15565e-05
1.55067e-05
1.83144e-05
1.85349e-05
1.60996e-05
1.1542e-05
6.86432e-06
3.99873e-06
2.90169e-06
3.01911e-06
4.05069e-06
5.63578e-06
7.15865e-06
8.43982e-06
1.07192e-05
1.57761e-05
8.82362e-06
2.3317e-06
9.54221e-08
1.45097e-08
1.96294e-06
6.59089e-06
1.30679e-05
1.47547e-05
1.46895e-05
1.02068e-05
6.73796e-06
4.61824e-06
3.50261e-06
3.12747e-06
3.37963e-06
4.26071e-06
5.91537e-06
8.70015e-06
1.30601e-05
1.82185e-05
2.09962e-05
2.00885e-05
1.74183e-05
1.48963e-05
1.33288e-05
1.23801e-05
1.07348e-05
7.71002e-06
4.84716e-06
3.42564e-06
3.36363e-06
4.27543e-06
6.01269e-06
9.08352e-06
1.48665e-05
1.11308e-05
2.72698e-06
1.16438e-07
1.78158e-08
2.03573e-06
6.4392e-06
1.22984e-05
1.07292e-05
5.36811e-06
3.097e-06
2.36281e-06
2.43345e-06
3.14118e-06
4.5074e-06
6.68535e-06
9.95489e-06
1.44888e-05
1.95505e-05
2.34082e-05
2.52675e-05
2.5538e-05
2.46382e-05
2.27677e-05
2.00805e-05
1.68936e-05
1.37534e-05
1.10586e-05
8.73015e-06
6.57989e-06
4.85497e-06
3.93871e-06
3.9733e-06
4.99147e-06
7.42877e-06
1.28796e-05
1.19366e-05
2.82494e-06
1.36556e-07
2.46828e-08
1.7975e-06
6.85889e-06
6.5202e-06
3.5996e-06
2.68144e-06
2.78965e-06
3.74131e-06
5.67973e-06
8.88456e-06
1.3448e-05
1.8479e-05
2.22979e-05
2.4463e-05
2.58224e-05
2.70751e-05
2.81905e-05
2.85269e-05
2.73367e-05
2.44898e-05
2.07826e-05
1.72085e-05
1.41498e-05
1.14932e-05
9.07682e-06
6.93219e-06
5.28797e-06
4.28956e-06
4.04251e-06
4.70299e-06
6.84871e-06
1.24642e-05
1.15084e-05
2.73948e-06
1.40311e-07
2.93833e-08
1.87234e-06
9.76787e-06
5.10627e-06
3.36006e-06
3.2722e-06
4.11589e-06
5.89723e-06
8.43441e-06
1.10968e-05
1.34163e-05
1.56789e-05
1.83457e-05
2.14895e-05
2.46724e-05
2.71999e-05
2.85564e-05
2.85311e-05
2.71259e-05
2.45855e-05
2.14419e-05
1.82917e-05
1.54576e-05
1.29176e-05
1.05034e-05
8.17771e-06
6.18597e-06
4.79766e-06
4.15621e-06
4.39798e-06
6.04245e-06
1.12398e-05
1.16919e-05
2.70827e-06
1.42526e-07
2.59017e-08
2.00999e-06
1.0301e-05
5.45524e-06
3.59094e-06
3.45721e-06
4.18043e-06
5.72793e-06
8.11454e-06
1.13995e-05
1.55567e-05
2.0137e-05
2.42303e-05
2.71595e-05
2.88865e-05
2.96279e-05
2.95009e-05
2.84746e-05
2.64917e-05
2.36954e-05
2.05487e-05
1.76032e-05
1.5152e-05
1.31453e-05
1.1322e-05
9.45006e-06
7.57447e-06
5.94806e-06
4.90896e-06
4.74898e-06
6.03581e-06
1.09631e-05
1.13157e-05
2.65032e-06
1.42353e-07
1.94669e-08
2.00021e-06
9.29824e-06
6.80601e-06
4.23715e-06
3.8316e-06
4.3676e-06
5.73504e-06
7.86691e-06
1.06365e-05
1.38457e-05
1.73187e-05
2.09275e-05
2.44469e-05
2.7474e-05
2.9579e-05
3.04672e-05
2.9981e-05
2.809e-05
2.50218e-05
2.1382e-05
1.79029e-05
1.50259e-05
1.28091e-05
1.10779e-05
9.56996e-06
8.10751e-06
6.68344e-06
5.56467e-06
5.14323e-06
6.08876e-06
1.0606e-05
1.15842e-05
2.65802e-06
1.45869e-07
1.64714e-08
2.16705e-06
8.39726e-06
6.31605e-06
4.41001e-06
4.38742e-06
5.34997e-06
7.1754e-06
9.74674e-06
1.28818e-05
1.63553e-05
1.99801e-05
2.35893e-05
2.69109e-05
2.95502e-05
3.11486e-05
3.14782e-05
3.04287e-05
2.80526e-05
2.47222e-05
2.11525e-05
1.80218e-05
1.56097e-05
1.38245e-05
1.23974e-05
1.10368e-05
9.55385e-06
7.97801e-06
6.6071e-06
5.8662e-06
6.42743e-06
1.03562e-05
1.29104e-05
2.77851e-06
1.56326e-07
1.60111e-08
2.25121e-06
8.3716e-06
7.40266e-06
5.6298e-06
5.82843e-06
6.97373e-06
8.71581e-06
1.07266e-05
1.27559e-05
1.48442e-05
1.72887e-05
2.03795e-05
2.40662e-05
2.77554e-05
3.0564e-05
3.12565e-05
3.10857e-05
2.84355e-05
2.43175e-05
1.98401e-05
1.60832e-05
1.34971e-05
1.20193e-05
1.13597e-05
1.10436e-05
1.04543e-05
9.29043e-06
7.8881e-06
6.91933e-06
7.23717e-06
1.09159e-05
1.37235e-05
2.90197e-06
1.70755e-07
1.4821e-08
2.18234e-06
8.25805e-06
8.77946e-06
6.73297e-06
6.6548e-06
7.39888e-06
8.56093e-06
9.99738e-06
1.17497e-05
1.40267e-05
1.71077e-05
2.11256e-05
2.56944e-05
2.96268e-05
3.04094e-05
3.11448e-05
3.1356e-05
2.85412e-05
2.46333e-05
2.03281e-05
1.64133e-05
1.34225e-05
1.15107e-05
1.05899e-05
1.03785e-05
1.03474e-05
9.89536e-06
8.88498e-06
7.93204e-06
8.14668e-06
1.17738e-05
1.44215e-05
3.01827e-06
1.89697e-07
1.4083e-08
2.21622e-06
8.25682e-06
9.66417e-06
7.51433e-06
7.21421e-06
7.68889e-06
8.56472e-06
9.7785e-06
1.14043e-05
1.35999e-05
1.65614e-05
2.04297e-05
2.49876e-05
2.8451e-05
2.90724e-05
2.96876e-05
3.03029e-05
2.80816e-05
2.32475e-05
1.84595e-05
1.47007e-05
1.21756e-05
1.07345e-05
1.01604e-05
1.0177e-05
1.04257e-05
1.04455e-05
9.9303e-06
9.24343e-06
9.60184e-06
1.34789e-05
1.46618e-05
3.11352e-06
2.11952e-07
1.41165e-08
2.24836e-06
8.48797e-06
1.08751e-05
8.33095e-06
7.77145e-06
8.06002e-06
8.7917e-06
9.9037e-06
1.14425e-05
1.35116e-05
1.6249e-05
1.97758e-05
2.39875e-05
2.70723e-05
2.76418e-05
2.82581e-05
2.89085e-05
2.80769e-05
2.20372e-05
1.63238e-05
1.23712e-05
1.0117e-05
9.17534e-06
9.16021e-06
9.65392e-06
1.02175e-05
1.0479e-05
1.03497e-05
1.02599e-05
1.14314e-05
1.62983e-05
1.25697e-05
2.99273e-06
2.24232e-07
1.3964e-08
2.23625e-06
8.70876e-06
1.12936e-05
9.31448e-06
8.39629e-06
8.36584e-06
8.75488e-06
9.48656e-06
1.06308e-05
1.2324e-05
1.47396e-05
1.80108e-05
2.19769e-05
2.43455e-05
2.49771e-05
2.57029e-05
2.6495e-05
2.62666e-05
1.97896e-05
1.39909e-05
1.02652e-05
8.314e-06
7.68988e-06
8.00276e-06
8.91761e-06
9.98932e-06
1.07292e-05
1.10664e-05
1.16754e-05
1.40164e-05
1.95398e-05
1.03852e-05
2.7887e-06
2.21559e-07
1.33544e-08
2.23193e-06
8.94585e-06
1.14968e-05
1.04392e-05
8.91036e-06
8.35681e-06
8.29005e-06
8.64743e-06
9.55378e-06
1.1166e-05
1.36352e-05
1.69394e-05
2.0575e-05
2.22193e-05
2.2857e-05
2.35991e-05
2.44272e-05
2.29232e-05
1.74858e-05
1.23739e-05
8.95966e-06
7.16952e-06
6.63097e-06
6.98341e-06
7.98466e-06
9.35804e-06
1.0749e-05
1.1955e-05
1.3443e-05
1.6452e-05
1.98444e-05
8.66477e-06
2.56655e-06
2.08074e-07
1.11136e-08
1.92701e-06
7.77275e-06
1.05096e-05
1.06175e-05
8.63396e-06
7.60182e-06
7.20148e-06
7.36287e-06
8.20641e-06
9.88258e-06
1.25101e-05
1.57979e-05
1.86274e-05
1.94128e-05
2.00857e-05
2.0087e-05
1.96127e-05
1.839e-05
1.55377e-05
1.15887e-05
8.31175e-06
6.4231e-06
5.7337e-06
5.94411e-06
6.86093e-06
8.2672e-06
9.95615e-06
1.19493e-05
1.45927e-05
1.79902e-05
1.75961e-05
7.17259e-06
2.37938e-06
1.91008e-07
8.36141e-09
1.51815e-06
4.92562e-06
8.3275e-06
7.52147e-06
6.40718e-06
5.91962e-06
5.96387e-06
6.51333e-06
7.68193e-06
9.75188e-06
1.30146e-05
1.65396e-05
1.70836e-05
1.75807e-05
1.58272e-05
1.41815e-05
1.32944e-05
1.30404e-05
1.28139e-05
1.1566e-05
9.10361e-06
6.79385e-06
5.48388e-06
5.15581e-06
5.64599e-06
6.80617e-06
8.46411e-06
1.06228e-05
1.36528e-05
1.70146e-05
1.4625e-05
5.92329e-06
2.1407e-06
1.75322e-07
8.21889e-09
1.79901e-06
5.79806e-06
8.45178e-06
7.16546e-06
6.16527e-06
5.82661e-06
6.00931e-06
6.71341e-06
8.15995e-06
1.09024e-05
1.50772e-05
1.56016e-05
1.61472e-05
1.67119e-05
1.45999e-05
1.27363e-05
1.18794e-05
1.17538e-05
1.20311e-05
1.21084e-05
1.10484e-05
8.72207e-06
6.50734e-06
5.29427e-06
5.12091e-06
5.91449e-06
7.64953e-06
1.02685e-05
1.38105e-05
1.78778e-05
1.62746e-05
6.33765e-06
2.20138e-06
1.82757e-07
7.06604e-09
2.60296e-06
6.8407e-06
8.53596e-06
6.54705e-06
5.6917e-06
5.627e-06
6.11378e-06
7.22872e-06
9.53934e-06
1.31581e-05
1.37888e-05
1.46077e-05
1.55875e-05
1.36642e-05
1.13522e-05
1.07567e-05
1.13778e-05
1.29871e-05
1.52306e-05
1.69879e-05
1.6431e-05
1.31203e-05
9.16707e-06
6.34277e-06
4.8953e-06
4.62811e-06
5.51535e-06
7.91492e-06
1.27098e-05
1.91919e-05
1.60979e-05
6.08727e-06
2.20553e-06
1.81793e-07
5.36324e-09
3.35183e-06
5.9713e-06
7.49582e-06
6.62994e-06
5.83243e-06
5.56622e-06
5.63971e-06
6.24715e-06
8.36321e-06
1.11936e-05
1.23712e-05
1.4015e-05
1.06122e-05
9.62413e-06
1.07004e-05
1.35285e-05
1.79339e-05
2.29489e-05
2.63469e-05
2.61219e-05
2.26835e-05
1.79568e-05
1.34484e-05
9.8661e-06
7.39834e-06
6.00384e-06
5.65411e-06
6.59751e-06
9.86349e-06
1.63851e-05
1.47926e-05
5.74272e-06
2.12578e-06
1.80182e-07
4.28905e-09
3.21174e-06
5.23402e-06
6.67779e-06
6.43884e-06
5.71132e-06
5.10239e-06
4.52774e-06
4.1978e-06
4.69187e-06
7.50043e-06
1.00627e-05
1.23614e-05
1.15418e-05
1.02079e-05
1.07325e-05
1.27342e-05
1.62616e-05
2.16442e-05
2.84331e-05
3.28946e-05
3.3248e-05
2.76628e-05
2.03123e-05
1.41322e-05
9.98814e-06
7.59743e-06
6.50718e-06
6.47393e-06
7.69719e-06
1.13609e-05
1.77842e-05
7.71238e-06
2.40392e-06
2.11149e-07
5.35514e-09
2.83896e-06
5.21437e-06
5.9599e-06
5.13179e-06
4.30912e-06
3.60732e-06
3.14564e-06
2.92717e-06
2.88274e-06
3.06701e-06
3.93214e-06
6.21582e-06
7.78312e-06
7.43591e-06
7.49278e-06
8.23803e-06
9.52687e-06
1.12997e-05
1.34936e-05
1.59038e-05
1.83753e-05
2.04503e-05
2.07092e-05
1.78289e-05
1.31886e-05
9.29078e-06
6.98931e-06
6.21762e-06
7.13401e-06
1.10266e-05
1.63092e-05
6.10819e-06
2.12798e-06
1.79573e-07
7.32012e-09
1.55466e-06
4.44675e-06
5.42747e-06
4.28878e-06
3.76018e-06
3.94182e-06
4.84734e-06
6.64778e-06
9.31795e-06
1.15031e-05
1.14449e-05
1.00211e-05
8.4965e-06
7.17747e-06
6.04899e-06
5.12176e-06
4.4568e-06
4.11245e-06
4.1088e-06
4.42474e-06
5.0156e-06
5.77123e-06
6.59971e-06
7.43142e-06
8.13074e-06
8.44017e-06
8.25922e-06
8.12258e-06
9.20424e-06
1.32598e-05
1.44636e-05
5.25204e-06
1.94832e-06
1.4346e-07
6.67672e-09
1.80317e-06
3.32493e-06
2.51659e-06
2.45791e-06
2.79207e-06
3.46795e-06
4.54877e-06
6.156e-06
8.30998e-06
1.05347e-05
1.18372e-05
1.17642e-05
1.08699e-05
9.86273e-06
9.08525e-06
8.59647e-06
8.37009e-06
8.28388e-06
8.17868e-06
7.94363e-06
7.52649e-06
6.94486e-06
6.25818e-06
5.56618e-06
5.05563e-06
4.91763e-06
5.19172e-06
5.89391e-06
7.3795e-06
1.08738e-05
1.61091e-05
7.4787e-06
2.40809e-06
1.79452e-07
3.90054e-09
1.91915e-06
1.95828e-06
2.33306e-06
2.96841e-06
3.95772e-06
5.54317e-06
8.29055e-06
1.29353e-05
1.68691e-05
1.50379e-05
1.16002e-05
9.30184e-06
7.97526e-06
7.29224e-06
7.24257e-06
8.03944e-06
9.98094e-06
1.29394e-05
1.57962e-05
1.71547e-05
1.65674e-05
1.4555e-05
1.19632e-05
9.45404e-06
7.33953e-06
5.76032e-06
4.91394e-06
4.95978e-06
6.12087e-06
9.17895e-06
1.40468e-05
7.98595e-06
2.59451e-06
2.18821e-07
3.90494e-09
1.66852e-06
2.41394e-06
3.46993e-06
5.30696e-06
8.95024e-06
1.5056e-05
1.64304e-05
1.34182e-05
9.88351e-06
8.60006e-06
9.29582e-06
1.18416e-05
1.59009e-05
2.03694e-05
2.3777e-05
2.51153e-05
2.4985e-05
2.4601e-05
2.42409e-05
2.35217e-05
2.20184e-05
1.96116e-05
1.65483e-05
1.32774e-05
1.02222e-05
7.66768e-06
5.79559e-06
4.78007e-06
4.85519e-06
6.53857e-06
1.10259e-05
8.59938e-06
2.65459e-06
2.31877e-07
3.97357e-09
2.01692e-06
2.39555e-06
3.08547e-06
4.2591e-06
6.38002e-06
1.03732e-05
1.64731e-05
1.88585e-05
1.38121e-05
9.03558e-06
6.72892e-06
6.06345e-06
6.63363e-06
8.50986e-06
1.18929e-05
1.65661e-05
2.13717e-05
2.48827e-05
2.65734e-05
2.67801e-05
2.59604e-05
2.43129e-05
2.18644e-05
1.8711e-05
1.51498e-05
1.1628e-05
8.59641e-06
6.41555e-06
5.39404e-06
6.07066e-06
1.01114e-05
9.40317e-06
2.66012e-06
2.34482e-07
2.32017e-09
1.97484e-06
2.14884e-06
2.61051e-06
3.45531e-06
4.96296e-06
7.6741e-06
1.22755e-05
1.76618e-05
1.86527e-05
1.55103e-05
1.0606e-05
7.57718e-06
6.37717e-06
6.60189e-06
8.3361e-06
1.20009e-05
1.76263e-05
2.38702e-05
2.84685e-05
3.02058e-05
2.95824e-05
2.75988e-05
2.48343e-05
2.14813e-05
1.77034e-05
1.38523e-05
1.04258e-05
7.89123e-06
6.65425e-06
7.49604e-06
1.28126e-05
8.64666e-06
2.48151e-06
2.16892e-07
2.56581e-09
2.18063e-06
2.71492e-06
3.4327e-06
4.62244e-06
6.55544e-06
9.5185e-06
1.36157e-05
1.77783e-05
1.83316e-05
1.86927e-05
1.61776e-05
1.12252e-05
8.00323e-06
6.64542e-06
6.80807e-06
8.60525e-06
1.24977e-05
1.8286e-05
2.41809e-05
2.76667e-05
2.79459e-05
2.60944e-05
2.33471e-05
2.02889e-05
1.7102e-05
1.39675e-05
1.12116e-05
9.24658e-06
8.61685e-06
1.05273e-05
1.65158e-05
7.04505e-06
2.22716e-06
1.8574e-07
3.86956e-09
3.86989e-06
3.34123e-06
3.38646e-06
3.98903e-06
5.17957e-06
7.1917e-06
1.04134e-05
1.50321e-05
1.79463e-05
1.83206e-05
1.85706e-05
1.43702e-05
9.93435e-06
7.4384e-06
6.49635e-06
6.88258e-06
8.82563e-06
1.26614e-05
1.79278e-05
2.25641e-05
2.44345e-05
2.35237e-05
2.12332e-05
1.86847e-05
1.62814e-05
1.40957e-05
1.22575e-05
1.11122e-05
1.13405e-05
1.41152e-05
1.60354e-05
5.93116e-06
2.04323e-06
1.59036e-07
5.05584e-09
3.82553e-06
4.42705e-06
3.56452e-06
3.61955e-06
4.20082e-06
5.26077e-06
6.92809e-06
9.54431e-06
1.35294e-05
1.59779e-05
1.66005e-05
1.71608e-05
1.27082e-05
8.77323e-06
6.74448e-06
5.98339e-06
6.2692e-06
7.74572e-06
1.06091e-05
1.4574e-05
1.82302e-05
1.99396e-05
1.94806e-05
1.78631e-05
1.607e-05
1.45447e-05
1.34404e-05
1.29887e-05
1.37129e-05
1.59436e-05
1.41403e-05
5.42463e-06
1.958e-06
1.44294e-07
7.95314e-09
3.46645e-06
5.68677e-06
3.94714e-06
3.67951e-06
3.9919e-06
4.61802e-06
5.50561e-06
6.81321e-06
9.06521e-06
1.3053e-05
1.39175e-05
1.4567e-05
1.32548e-05
8.88879e-06
6.65392e-06
5.60878e-06
5.26487e-06
5.56647e-06
6.63822e-06
8.65204e-06
1.16174e-05
1.48339e-05
1.69878e-05
1.74202e-05
1.66495e-05
1.55684e-05
1.47849e-05
1.46424e-05
1.54099e-05
1.6706e-05
1.35646e-05
5.40947e-06
1.96146e-06
1.42584e-07
1.00562e-08
2.1264e-06
6.5764e-06
5.41887e-06
3.82488e-06
3.33772e-06
3.23309e-06
3.29672e-06
3.51044e-06
4.07783e-06
5.50743e-06
8.84488e-06
1.09043e-05
1.18689e-05
7.89368e-06
5.43779e-06
4.34673e-06
3.97346e-06
4.09416e-06
4.66699e-06
5.67561e-06
7.2294e-06
9.52124e-06
1.24021e-05
1.50478e-05
1.65123e-05
1.67333e-05
1.64289e-05
1.63516e-05
1.69075e-05
1.75994e-05
1.41383e-05
5.65923e-06
2.00142e-06
1.5164e-07
6.46696e-09
1.4599e-06
4.87784e-06
7.05644e-06
7.32001e-06
5.38178e-06
4.06417e-06
3.0657e-06
2.32566e-06
1.8917e-06
1.87073e-06
2.4962e-06
4.36618e-06
8.2808e-06
9.10429e-06
5.75177e-06
3.81201e-06
2.96357e-06
2.75764e-06
3.11301e-06
4.0419e-06
5.3345e-06
6.81175e-06
8.64616e-06
1.10279e-05
1.36566e-05
1.58115e-05
1.70707e-05
1.77301e-05
1.83493e-05
1.87644e-05
1.51684e-05
6.03961e-06
2.09266e-06
1.64922e-07
3.24155e-09
1.69951e-06
3.81493e-06
5.15304e-06
5.0252e-06
4.44431e-06
3.84906e-06
3.34987e-06
2.99848e-06
2.84559e-06
2.96988e-06
3.47097e-06
4.45506e-06
5.95266e-06
7.39292e-06
7.4551e-06
5.7743e-06
3.76576e-06
2.5535e-06
2.15629e-06
2.4978e-06
3.63714e-06
5.49931e-06
7.56632e-06
9.52533e-06
1.16417e-05
1.39488e-05
1.60868e-05
1.77756e-05
1.90701e-05
1.95586e-05
1.53334e-05
6.11912e-06
2.15215e-06
1.70109e-07
3.4705e-09
1.46803e-06
2.72929e-06
2.59176e-06
2.35618e-06
2.28885e-06
2.37621e-06
2.62836e-06
3.11227e-06
3.97828e-06
5.54539e-06
8.2597e-06
1.11353e-05
1.08819e-05
8.80025e-06
7.19239e-06
6.26792e-06
5.60967e-06
4.61552e-06
3.2338e-06
2.35786e-06
2.42685e-06
3.47986e-06
5.49917e-06
7.98162e-06
1.02904e-05
1.25119e-05
1.49013e-05
1.73734e-05
1.95378e-05
2.02998e-05
1.5575e-05
6.32205e-06
2.22975e-06
1.80209e-07
4.34703e-09
1.30723e-06
1.8162e-06
2.24147e-06
2.81675e-06
3.62013e-06
4.75223e-06
6.40376e-06
8.85124e-06
1.19821e-05
1.42339e-05
1.40105e-05
1.22312e-05
1.03669e-05
8.98345e-06
8.08348e-06
7.47232e-06
6.86787e-06
5.96355e-06
4.67887e-06
3.4032e-06
2.73661e-06
3.04331e-06
4.53715e-06
7.22653e-06
1.02493e-05
1.25965e-05
1.45687e-05
1.6822e-05
1.92281e-05
2.02056e-05
1.53211e-05
6.29045e-06
2.24748e-06
1.93934e-07
6.20262e-09
1.33134e-06
2.18249e-06
3.15617e-06
4.49505e-06
6.36396e-06
8.77034e-06
1.13917e-05
1.35771e-05
1.46232e-05
1.40992e-05
1.22659e-05
1.01208e-05
8.48358e-06
7.53807e-06
7.15036e-06
7.08831e-06
7.00217e-06
6.4506e-06
5.27806e-06
3.90962e-06
2.93173e-06
2.70725e-06
3.51495e-06
5.73861e-06
9.5399e-06
1.37993e-05
1.6952e-05
1.91646e-05
2.09819e-05
2.14856e-05
1.63806e-05
6.71299e-06
2.36149e-06
2.10395e-07
8.64139e-09
1.52293e-06
2.45741e-06
3.2416e-06
3.89669e-06
4.5556e-06
5.44587e-06
6.79559e-06
8.76902e-06
1.10986e-05
1.24223e-05
1.14056e-05
9.15057e-06
7.28063e-06
6.17052e-06
5.66055e-06
5.5676e-06
5.7057e-06
5.75497e-06
5.29936e-06
4.29231e-06
3.2157e-06
2.59362e-06
2.76061e-06
4.07931e-06
7.05188e-06
1.17879e-05
1.69032e-05
2.07879e-05
2.32564e-05
2.37248e-05
1.82004e-05
7.32455e-06
2.47361e-06
2.12814e-07
1.25253e-08