/*--------------------------------*- C++ -*----------------------------------*\
| =========                 |                                                 |
| \\      /  F ield         | OpenFOAM: The Open Source CFD Toolbox           |
|  \\    /   O peration     | Version:  v2006                                 |
|   \\  /    A nd           | Website:  www.openfoam.com                      |
|    \\/     M anipulation  |                                                 |
\*---------------------------------------------------------------------------*/
FoamFile
{
    version     2.0;
    format      ascii;
    class       volScalarField;
    location    "20";
    object      nut;
}
// * * * * * * * * * * * * * * * * * * * * * * * * * * * * * * * * * * * * * //

dimensions      [0 2 -1 0 0 0 0];


internalField   nonuniform List<scalar> 
78750
(
6.43759e-07
8.42307e-06
1.09578e-05
1.05002e-05
9.8849e-06
9.25556e-06
8.67961e-06
8.16238e-06
7.69904e-06
7.29092e-06
6.94179e-06
6.65662e-06
6.44176e-06
6.30107e-06
6.23303e-06
6.22969e-06
6.27711e-06
6.35758e-06
6.45275e-06
6.54629e-06
6.62535e-06
6.68041e-06
6.70452e-06
6.69237e-06
6.639e-06
6.5382e-06
6.38481e-06
6.17267e-06
5.89209e-06
5.53514e-06
5.07679e-06
4.46895e-06
3.58762e-06
2.30475e-06
2.32993e-08
7.16455e-08
6.97824e-06
1.57308e-05
2.34974e-05
2.51007e-05
2.70195e-05
3.02864e-05
3.37106e-05
3.68103e-05
3.91733e-05
4.01259e-05
3.93687e-05
3.74322e-05
3.4962e-05
3.24585e-05
3.03639e-05
2.89188e-05
2.81328e-05
2.79325e-05
2.82481e-05
2.90105e-05
3.01606e-05
3.16709e-05
3.34919e-05
3.52173e-05
3.48436e-05
3.37766e-05
3.21953e-05
2.59806e-05
1.94806e-05
1.43234e-05
1.09436e-05
9.5389e-06
7.58074e-06
3.80167e-08
1.22443e-07
8.19512e-06
1.15788e-05
1.15935e-05
1.17953e-05
1.25633e-05
1.37358e-05
1.51887e-05
1.71187e-05
1.97119e-05
2.31697e-05
2.75169e-05
2.79504e-05
2.80377e-05
2.81942e-05
2.8406e-05
2.62699e-05
2.44733e-05
2.36724e-05
2.35161e-05
2.36603e-05
2.38067e-05
2.37286e-05
2.32514e-05
2.21674e-05
2.02456e-05
1.74971e-05
1.42732e-05
1.11468e-05
8.66154e-06
7.16454e-06
6.96151e-06
8.88593e-06
5.65517e-06
4.61933e-08
1.05583e-07
1.04494e-05
2.21539e-05
2.0053e-05
1.90798e-05
1.90417e-05
2.00262e-05
2.20781e-05
2.51753e-05
2.84429e-05
3.00868e-05
2.97217e-05
2.86404e-05
2.72366e-05
2.52845e-05
2.35488e-05
2.33002e-05
2.52829e-05
2.94073e-05
3.27475e-05
3.30564e-05
3.32074e-05
3.31769e-05
2.87541e-05
2.43425e-05
2.03543e-05
1.65431e-05
1.29451e-05
9.79833e-06
7.39751e-06
5.97176e-06
5.76349e-06
7.64238e-06
5.79534e-06
4.56132e-08
9.64802e-08
6.01691e-06
2.32936e-05
2.19208e-05
2.0248e-05
1.96373e-05
2.00056e-05
2.07874e-05
2.12863e-05
2.06255e-05
1.84004e-05
1.53471e-05
1.26136e-05
1.09516e-05
1.05333e-05
1.12225e-05
1.30201e-05
1.64028e-05
2.25466e-05
2.94367e-05
3.01148e-05
3.05723e-05
3.07952e-05
2.71191e-05
2.09579e-05
1.66981e-05
1.33694e-05
1.03955e-05
7.78109e-06
5.78628e-06
4.66812e-06
4.70127e-06
6.98437e-06
4.06175e-06
4.44933e-08
7.4192e-08
4.78394e-06
2.24563e-05
2.39005e-05
2.03021e-05
1.73495e-05
1.5919e-05
1.59422e-05
1.69804e-05
1.76375e-05
1.61331e-05
1.31918e-05
1.0836e-05
9.84311e-06
1.01238e-05
1.15263e-05
1.41013e-05
1.83064e-05
2.49697e-05
3.22387e-05
3.29058e-05
3.33293e-05
3.25718e-05
2.65603e-05
2.17307e-05
1.81684e-05
1.53286e-05
1.28204e-05
1.03808e-05
8.03538e-06
6.2063e-06
5.46116e-06
6.65385e-06
6.8947e-06
4.81668e-08
5.89436e-08
3.95373e-06
1.75541e-05
2.2984e-05
2.15782e-05
2.03506e-05
1.89646e-05
1.5814e-05
1.1714e-05
8.55062e-06
6.76488e-06
6.13516e-06
6.4416e-06
7.55523e-06
9.46063e-06
1.22535e-05
1.6181e-05
2.17351e-05
2.88848e-05
3.24738e-05
3.26353e-05
3.25933e-05
2.95321e-05
2.35969e-05
1.87548e-05
1.51402e-05
1.24381e-05
1.03444e-05
8.59647e-06
7.08619e-06
5.95978e-06
5.73991e-06
7.81015e-06
5.99286e-06
6.22197e-08
5.34464e-08
3.82167e-06
1.59721e-05
2.09779e-05
1.75036e-05
1.23546e-05
8.30197e-06
5.96828e-06
4.97377e-06
4.97069e-06
5.79636e-06
7.39744e-06
9.78335e-06
1.2961e-05
1.68425e-05
2.11869e-05
2.57374e-05
3.03358e-05
3.37905e-05
3.37624e-05
3.36056e-05
3.33201e-05
2.95533e-05
2.29328e-05
1.73776e-05
1.33612e-05
1.05754e-05
8.63903e-06
7.23765e-06
6.20694e-06
5.65387e-06
6.28959e-06
1.10772e-05
4.59243e-06
6.71709e-08
5.38907e-08
3.05034e-06
1.12629e-05
1.35786e-05
8.55533e-06
5.21986e-06
3.89578e-06
3.8347e-06
4.69955e-06
6.3826e-06
8.74972e-06
1.1507e-05
1.42482e-05
1.67149e-05
1.90168e-05
2.15539e-05
2.48242e-05
2.91295e-05
3.30543e-05
3.30476e-05
3.28628e-05
3.22058e-05
2.46765e-05
1.77505e-05
1.2788e-05
9.4746e-06
7.36973e-06
6.15611e-06
5.60283e-06
5.49745e-06
5.97742e-06
8.27735e-06
1.76306e-05
3.54616e-06
6.51453e-08
5.77077e-08
2.64375e-06
1.04866e-05
7.53428e-06
4.31916e-06
3.456e-06
3.86294e-06
5.21981e-06
7.35236e-06
9.86764e-06
1.23032e-05
1.45252e-05
1.67488e-05
1.92654e-05
2.22222e-05
2.55961e-05
2.92194e-05
3.26952e-05
3.41773e-05
3.40033e-05
3.36547e-05
2.91557e-05
2.20625e-05
1.57113e-05
1.1071e-05
7.98717e-06
6.11537e-06
5.19325e-06
5.00435e-06
5.37475e-06
6.58798e-06
1.02756e-05
1.65985e-05
3.02952e-06
6.0681e-08
6.02839e-08
2.40859e-06
1.0925e-05
5.61058e-06
3.68566e-06
3.75818e-06
4.90901e-06
6.78355e-06
8.91103e-06
1.08121e-05
1.24716e-05
1.42096e-05
1.63124e-05
1.89264e-05
2.20723e-05
2.56681e-05
2.95091e-05
3.30698e-05
3.38656e-05
3.37951e-05
3.33257e-05
2.76325e-05
2.06701e-05
1.45686e-05
1.00469e-05
6.99486e-06
5.13084e-06
4.24867e-06
4.19093e-06
4.86902e-06
6.63956e-06
1.10919e-05
1.38196e-05
2.65647e-06
5.85838e-08
5.98344e-08
2.34369e-06
1.24106e-05
5.72794e-06
4.09213e-06
4.43125e-06
5.66402e-06
7.27561e-06
8.85131e-06
1.02525e-05
1.16935e-05
1.35053e-05
1.5949e-05
1.9127e-05
2.29119e-05
2.69407e-05
3.07303e-05
3.37616e-05
3.45284e-05
3.45511e-05
3.35641e-05
2.90446e-05
2.28418e-05
1.65371e-05
1.13381e-05
7.60512e-06
5.19951e-06
3.887e-06
3.50762e-06
3.9358e-06
5.45095e-06
9.4507e-06
1.20927e-05
2.44499e-06
5.86243e-08
5.82841e-08
2.34292e-06
1.40996e-05
6.71722e-06
4.69238e-06
4.91311e-06
5.97202e-06
7.25916e-06
8.38539e-06
9.33535e-06
1.04398e-05
1.21238e-05
1.47186e-05
1.83555e-05
2.28071e-05
2.74283e-05
3.14345e-05
3.41761e-05
3.44875e-05
3.46351e-05
3.32269e-05
2.94194e-05
2.41761e-05
1.83378e-05
1.29248e-05
8.6305e-06
5.64158e-06
3.83181e-06
3.03259e-06
3.09473e-06
4.2076e-06
7.59621e-06
1.04894e-05
2.23227e-06
5.85424e-08
5.06e-08
2.15735e-06
1.17685e-05
1.01186e-05
6.22874e-06
5.69191e-06
6.17201e-06
6.81284e-06
7.23522e-06
7.59781e-06
8.34187e-06
9.91505e-06
1.269e-05
1.68842e-05
2.22338e-05
2.76902e-05
3.19739e-05
3.43157e-05
3.47618e-05
3.48862e-05
3.32375e-05
3.05021e-05
2.6679e-05
2.1851e-05
1.64822e-05
1.14116e-05
7.3865e-06
4.6689e-06
3.14014e-06
2.59367e-06
2.97394e-06
5.06802e-06
9.56511e-06
2.0785e-06
5.90127e-08
3.99548e-08
1.96945e-06
8.64837e-06
1.45732e-05
8.57011e-06
6.69069e-06
6.24778e-06
6.08909e-06
5.88343e-06
5.89928e-06
6.6213e-06
8.39898e-06
1.1544e-05
1.62384e-05
2.2083e-05
2.77619e-05
3.19075e-05
3.41406e-05
3.47169e-05
3.41947e-05
3.2675e-05
3.03504e-05
2.72721e-05
2.34798e-05
1.90837e-05
1.43767e-05
9.92532e-06
6.37464e-06
4.03282e-06
2.84027e-06
2.60175e-06
3.68802e-06
8.68688e-06
2.03517e-06
6.07762e-08
3.27383e-08
1.9489e-06
7.90177e-06
1.62011e-05
1.06864e-05
7.66429e-06
6.24913e-06
5.33248e-06
4.8095e-06
5.00728e-06
6.24026e-06
8.68964e-06
1.25033e-05
1.75438e-05
2.30791e-05
2.80144e-05
3.16248e-05
3.37981e-05
3.47145e-05
3.45743e-05
3.35128e-05
3.15964e-05
2.88603e-05
2.53685e-05
2.12637e-05
1.67759e-05
1.2276e-05
8.29476e-06
5.32206e-06
3.54386e-06
2.82702e-06
3.3327e-06
7.84096e-06
2.17912e-06
6.35347e-08
3.09782e-08
1.96068e-06
7.66409e-06
1.53886e-05
1.0858e-05
6.90953e-06
4.92273e-06
4.08555e-06
4.17084e-06
5.26392e-06
7.49276e-06
1.09194e-05
1.53766e-05
2.02921e-05
2.49148e-05
2.87381e-05
3.15834e-05
3.34369e-05
3.43275e-05
3.42901e-05
3.33568e-05
3.15662e-05
2.89878e-05
2.57553e-05
2.20551e-05
1.80544e-05
1.39294e-05
9.99908e-06
6.72963e-06
4.5206e-06
3.43384e-06
3.63242e-06
7.74514e-06
2.52815e-06
6.55946e-08
3.20306e-08
1.90732e-06
7.45426e-06
1.32121e-05
7.92039e-06
4.96206e-06
3.921e-06
4.00827e-06
5.08474e-06
7.27153e-06
1.05247e-05
1.45499e-05
1.87951e-05
2.27528e-05
2.61847e-05
2.9043e-05
3.13003e-05
3.28925e-05
3.37368e-05
3.37592e-05
3.29075e-05
3.1171e-05
2.86159e-05
2.54266e-05
2.18656e-05
1.81459e-05
1.44085e-05
1.0831e-05
7.72082e-06
5.4478e-06
4.20473e-06
4.33479e-06
8.72028e-06
2.91825e-06
6.68727e-08
3.35044e-08
1.79331e-06
7.30658e-06
1.05821e-05
5.76935e-06
4.08316e-06
3.93989e-06
4.81191e-06
6.68174e-06
9.50494e-06
1.29585e-05
1.65741e-05
2.00011e-05
2.3105e-05
2.587e-05
2.82822e-05
3.02635e-05
3.16836e-05
3.24024e-05
3.23083e-05
3.13366e-05
2.94997e-05
2.69255e-05
2.38769e-05
2.06517e-05
1.74265e-05
1.42503e-05
1.11744e-05
8.39226e-06
6.23086e-06
4.97328e-06
5.17517e-06
1.01693e-05
3.21498e-06
6.85346e-08
3.36772e-08
1.7524e-06
7.91111e-06
8.70909e-06
4.90793e-06
4.09558e-06
4.58855e-06
6.03973e-06
8.40074e-06
1.14094e-05
1.46166e-05
1.76513e-05
2.03926e-05
2.28786e-05
2.51638e-05
2.72418e-05
2.9009e-05
3.02934e-05
3.09062e-05
3.06915e-05
2.95606e-05
2.75457e-05
2.48496e-05
2.1831e-05
1.88319e-05
1.60115e-05
1.33731e-05
1.08915e-05
8.63985e-06
6.81388e-06
5.74203e-06
6.23923e-06
1.23233e-05
3.29055e-06
7.09497e-08
3.3173e-08
1.79818e-06
8.99029e-06
8.49143e-06
5.14328e-06
4.72765e-06
5.55689e-06
7.22482e-06
9.51968e-06
1.20746e-05
1.45403e-05
1.67922e-05
1.89056e-05
2.09929e-05
2.31005e-05
2.51749e-05
2.70421e-05
2.84424e-05
2.9101e-05
2.88038e-05
2.74614e-05
2.51924e-05
2.23505e-05
1.94e-05
1.66689e-05
1.42488e-05
1.20991e-05
1.01695e-05
8.46765e-06
7.08905e-06
6.37522e-06
7.37289e-06
1.42832e-05
3.20221e-06
7.42093e-08
3.20942e-08
1.93855e-06
1.04069e-05
9.36623e-06
5.92562e-06
5.58071e-06
6.45559e-06
8.0033e-06
9.91915e-06
1.19123e-05
1.38107e-05
1.56271e-05
1.74704e-05
1.94195e-05
2.14724e-05
2.35411e-05
2.54241e-05
2.68173e-05
2.73878e-05
2.68812e-05
2.52377e-05
2.27104e-05
1.98184e-05
1.70659e-05
1.46905e-05
1.26865e-05
1.09762e-05
9.50439e-06
8.24352e-06
7.2622e-06
6.93604e-06
8.49103e-06
1.51181e-05
3.06301e-06
7.81832e-08
3.03732e-08
2.02301e-06
1.05309e-05
1.16863e-05
7.3532e-06
6.60582e-06
7.15361e-06
8.2293e-06
9.51138e-06
1.08637e-05
1.22524e-05
1.37312e-05
1.53746e-05
1.72053e-05
1.91934e-05
2.12752e-05
2.32831e-05
2.48672e-05
2.55465e-05
2.49228e-05
2.29514e-05
2.01196e-05
1.71943e-05
1.46875e-05
1.26949e-05
1.1109e-05
9.82273e-06
8.77483e-06
7.913e-06
7.31231e-06
7.39734e-06
9.53667e-06
1.48467e-05
2.88197e-06
8.33394e-08
2.82402e-08
2.05242e-06
1.00225e-05
1.41079e-05
8.86379e-06
7.44065e-06
7.47004e-06
8.03038e-06
8.81794e-06
9.77975e-06
1.09237e-05
1.22713e-05
1.38223e-05
1.55132e-05
1.72787e-05
1.91331e-05
2.10798e-05
2.28633e-05
2.38281e-05
2.32422e-05
2.09689e-05
1.78273e-05
1.49119e-05
1.26929e-05
1.10853e-05
9.8818e-06
8.95024e-06
8.21957e-06
7.64389e-06
7.32479e-06
7.73098e-06
1.03041e-05
1.4079e-05
2.74314e-06
8.91803e-08
2.6778e-08
2.02901e-06
9.3073e-06
1.52891e-05
1.03833e-05
8.19676e-06
7.67378e-06
7.7916e-06
8.21283e-06
8.88811e-06
9.82466e-06
1.09912e-05
1.22997e-05
1.36005e-05
1.48198e-05
1.61051e-05
1.77551e-05
1.98614e-05
2.16966e-05
2.16849e-05
1.9092e-05
1.54372e-05
1.24851e-05
1.05799e-05
9.38905e-06
8.60225e-06
8.05854e-06
7.64958e-06
7.34252e-06
7.2876e-06
8.0344e-06
1.11341e-05
1.29619e-05
2.57977e-06
9.53593e-08
2.6099e-08
1.96204e-06
8.63972e-06
1.50349e-05
1.139e-05
8.63009e-06
7.70965e-06
7.57641e-06
7.84134e-06
8.41126e-06
9.24879e-06
1.02553e-05
1.12515e-05
1.20346e-05
1.25604e-05
1.30715e-05
1.40424e-05
1.59761e-05
1.86683e-05
1.95878e-05
1.71526e-05
1.29866e-05
1.01201e-05
8.57907e-06
7.76981e-06
7.34461e-06
7.16099e-06
7.08082e-06
7.06062e-06
7.26515e-06
8.31595e-06
1.18452e-05
1.16901e-05
2.42279e-06
9.8232e-08
2.60891e-08
1.83575e-06
7.70968e-06
1.4789e-05
1.27131e-05
9.32804e-06
8.0398e-06
7.71089e-06
7.84265e-06
8.26702e-06
8.89635e-06
9.59516e-06
1.01536e-05
1.03867e-05
1.03045e-05
1.01702e-05
1.04411e-05
1.17175e-05
1.44173e-05
1.64017e-05
1.42193e-05
1.00057e-05
7.64223e-06
6.61204e-06
6.16795e-06
6.00396e-06
6.06573e-06
6.25302e-06
6.54096e-06
7.09167e-06
8.57053e-06
1.26222e-05
1.04655e-05
2.30418e-06
9.9423e-08
2.511e-08
1.66447e-06
6.52693e-06
1.44099e-05
1.50362e-05
1.07177e-05
8.7853e-06
8.1008e-06
7.98963e-06
8.18948e-06
8.57272e-06
9.00354e-06
9.27991e-06
9.21086e-06
8.79713e-06
8.30361e-06
8.16152e-06
8.89258e-06
1.10245e-05
1.33053e-05
1.08249e-05
7.15225e-06
5.43994e-06
4.87657e-06
4.75605e-06
4.78334e-06
4.94137e-06
5.22868e-06
5.6802e-06
6.44833e-06
8.14031e-06
1.22798e-05
9.35032e-06
2.17248e-06
9.71767e-08
2.23609e-08
1.50523e-06
5.3886e-06
1.38937e-05
1.59744e-05
1.32018e-05
1.02932e-05
8.88579e-06
8.26677e-06
8.04905e-06
8.0526e-06
8.1488e-06
8.15637e-06
7.8765e-06
7.30158e-06
6.71862e-06
6.54714e-06
7.28733e-06
9.52362e-06
1.18394e-05
9.10657e-06
5.74482e-06
4.20071e-06
3.69801e-06
3.67339e-06
3.81135e-06
3.99862e-06
4.24054e-06
4.64546e-06
5.46518e-06
7.32069e-06
1.16115e-05
9.0783e-06
2.16499e-06
1.03985e-07
1.83382e-08
1.41047e-06
4.74275e-06
1.29028e-05
1.48907e-05
1.48428e-05
1.11675e-05
9.03175e-06
7.89436e-06
7.27576e-06
6.91617e-06
6.62047e-06
6.19932e-06
5.57944e-06
4.93418e-06
4.56284e-06
4.75803e-06
5.9452e-06
8.82113e-06
1.18226e-05
9.25721e-06
6.05672e-06
4.57061e-06
4.07607e-06
4.0497e-06
4.17114e-06
4.22759e-06
4.17797e-06
4.17067e-06
4.45742e-06
5.52614e-06
8.80576e-06
9.438e-06
2.13333e-06
1.17737e-07
1.68129e-08
1.39172e-06
4.6092e-06
1.21121e-05
1.39141e-05
1.45089e-05
1.03272e-05
8.00477e-06
6.78303e-06
6.03197e-06
5.40279e-06
4.72175e-06
4.01369e-06
3.44963e-06
3.24877e-06
3.61404e-06
4.84373e-06
7.47631e-06
1.13464e-05
1.1893e-05
8.08245e-06
5.46332e-06
4.50315e-06
4.52487e-06
5.08165e-06
5.71615e-06
5.93924e-06
5.71474e-06
5.42226e-06
5.48433e-06
6.57564e-06
1.04944e-05
8.31279e-06
2.01339e-06
1.13662e-07
1.68014e-08
1.42426e-06
4.7486e-06
1.181e-05
1.34228e-05
1.36482e-05
9.69479e-06
7.46485e-06
6.23201e-06
5.36728e-06
4.58109e-06
3.90012e-06
3.48954e-06
3.53449e-06
4.22636e-06
5.74304e-06
8.1432e-06
1.11298e-05
1.38162e-05
1.39034e-05
9.86064e-06
6.03309e-06
4.21504e-06
3.75958e-06
4.20279e-06
5.18301e-06
5.91946e-06
5.85221e-06
5.48929e-06
5.60249e-06
7.05422e-06
1.14717e-05
6.75048e-06
1.85655e-06
9.09806e-08
1.45206e-08
1.38222e-06
4.34427e-06
1.11733e-05
1.2657e-05
1.28005e-05
9.57668e-06
7.68278e-06
6.54106e-06
5.58e-06
4.66491e-06
3.99426e-06
3.77921e-06
4.11135e-06
5.09609e-06
6.90379e-06
9.67704e-06
1.29826e-05
1.53311e-05
1.55139e-05
1.34745e-05
9.66012e-06
5.74629e-06
3.34922e-06
2.43251e-06
2.53367e-06
3.40302e-06
4.73918e-06
6.02494e-06
7.10957e-06
9.03904e-06
1.33186e-05
7.45956e-06
1.97517e-06
8.10556e-08
1.2203e-08
1.65008e-06
5.53809e-06
1.09768e-05
1.23904e-05
1.23327e-05
8.56731e-06
5.65433e-06
3.87444e-06
2.93755e-06
2.62202e-06
2.8324e-06
3.56961e-06
4.95443e-06
7.28518e-06
1.09345e-05
1.52522e-05
1.75774e-05
1.6818e-05
1.45834e-05
1.24729e-05
1.1161e-05
1.03669e-05
8.98924e-06
6.4571e-06
4.06113e-06
2.87248e-06
2.82377e-06
3.59398e-06
5.06108e-06
7.65579e-06
1.25455e-05
9.40631e-06
2.30908e-06
9.88773e-08
1.49837e-08
1.71133e-06
5.41095e-06
1.03311e-05
9.01013e-06
4.50633e-06
2.59858e-06
1.98151e-06
2.03968e-06
2.63168e-06
3.7749e-06
5.59745e-06
8.33368e-06
1.21285e-05
1.63659e-05
1.95963e-05
2.11544e-05
2.13825e-05
2.06306e-05
1.90656e-05
1.68165e-05
1.41486e-05
1.15196e-05
9.26334e-06
7.31387e-06
5.51364e-06
4.06993e-06
3.30428e-06
3.33696e-06
4.19777e-06
6.25669e-06
1.08634e-05
1.00836e-05
2.39134e-06
1.15937e-07
2.0758e-08
1.51082e-06
5.76192e-06
5.47448e-06
3.02047e-06
2.24857e-06
2.33788e-06
3.13392e-06
4.75618e-06
7.43886e-06
1.12596e-05
1.54727e-05
1.86716e-05
2.04861e-05
2.16257e-05
2.26758e-05
2.36108e-05
2.38934e-05
2.28973e-05
2.05137e-05
1.74093e-05
1.44163e-05
1.18551e-05
9.63041e-06
7.60695e-06
5.81104e-06
4.43444e-06
3.59937e-06
3.39516e-06
3.9547e-06
5.76733e-06
1.0512e-05
9.72177e-06
2.31921e-06
1.19145e-07
2.47093e-08
1.57339e-06
8.20302e-06
4.28554e-06
2.81811e-06
2.74283e-06
3.44863e-06
4.94007e-06
7.06474e-06
9.29437e-06
1.12367e-05
1.31313e-05
1.53643e-05
1.79967e-05
2.06619e-05
2.27787e-05
2.3915e-05
2.38945e-05
2.27186e-05
2.05921e-05
1.79603e-05
1.5323e-05
1.29502e-05
1.08236e-05
8.80233e-06
6.85507e-06
5.18747e-06
4.02563e-06
3.49042e-06
3.69783e-06
5.08787e-06
9.47904e-06
9.87708e-06
2.29297e-06
1.21041e-07
2.17806e-08
1.68886e-06
8.6495e-06
4.57787e-06
3.01163e-06
2.89812e-06
3.50327e-06
4.79915e-06
6.79792e-06
9.5491e-06
1.30307e-05
1.68668e-05
2.02951e-05
2.27487e-05
2.41957e-05
2.48173e-05
2.47118e-05
2.38531e-05
2.21933e-05
1.98519e-05
1.72169e-05
1.47503e-05
1.26978e-05
1.10176e-05
9.49111e-06
7.92382e-06
6.35342e-06
4.99189e-06
4.12316e-06
3.99331e-06
5.08267e-06
9.24656e-06
9.56046e-06
2.24421e-06
1.20908e-07
1.63701e-08
1.6808e-06
7.80878e-06
5.71287e-06
3.55493e-06
3.21339e-06
3.66174e-06
4.80699e-06
6.5926e-06
8.91226e-06
1.15999e-05
1.45085e-05
1.7531e-05
2.04786e-05
2.3014e-05
2.47774e-05
2.55218e-05
2.51152e-05
2.3532e-05
2.09628e-05
1.79147e-05
1.50011e-05
1.25918e-05
1.07357e-05
9.28649e-06
8.02447e-06
6.80073e-06
5.60922e-06
4.67395e-06
4.32473e-06
5.12708e-06
8.94521e-06
9.78727e-06
2.25074e-06
1.23894e-07
1.38514e-08
1.82108e-06
7.05258e-06
5.30195e-06
3.70016e-06
3.67961e-06
4.48527e-06
6.01402e-06
8.16756e-06
1.07933e-05
1.37025e-05
1.67387e-05
1.97619e-05
2.25445e-05
2.47559e-05
2.60956e-05
2.63726e-05
2.54945e-05
2.3505e-05
2.07159e-05
1.77262e-05
1.5104e-05
1.30839e-05
1.15888e-05
1.03941e-05
9.25513e-06
8.01398e-06
6.6953e-06
5.54883e-06
4.93181e-06
5.41125e-06
8.73316e-06
1.09063e-05
2.35244e-06
1.32761e-07
1.34643e-08
1.89182e-06
7.03106e-06
6.21417e-06
4.72375e-06
4.88845e-06
5.84724e-06
7.30627e-06
8.99047e-06
1.06902e-05
1.24393e-05
1.4487e-05
1.70762e-05
2.01648e-05
2.32557e-05
2.5609e-05
2.61897e-05
2.60474e-05
2.3828e-05
2.03788e-05
1.66282e-05
1.34812e-05
1.13151e-05
1.00779e-05
9.52641e-06
9.26306e-06
8.77092e-06
7.79747e-06
6.62465e-06
5.81672e-06
6.09226e-06
9.20411e-06
1.1592e-05
2.45669e-06
1.44998e-07
1.24638e-08
1.83406e-06
6.93638e-06
7.37098e-06
5.65047e-06
5.58286e-06
6.20527e-06
7.17822e-06
8.38116e-06
9.84878e-06
1.17561e-05
1.43371e-05
1.77034e-05
2.15313e-05
2.48262e-05
2.54821e-05
2.60988e-05
2.62767e-05
2.39192e-05
2.06456e-05
1.7039e-05
1.37594e-05
1.1254e-05
9.65292e-06
8.88256e-06
8.70721e-06
8.6833e-06
8.30672e-06
7.46243e-06
6.66765e-06
6.85661e-06
9.92496e-06
1.21784e-05
2.55464e-06
1.61077e-07
1.18434e-08
1.86265e-06
6.93598e-06
8.11474e-06
6.30714e-06
6.05313e-06
6.44951e-06
7.18241e-06
8.19866e-06
9.56029e-06
1.13995e-05
1.38808e-05
1.71221e-05
2.09415e-05
2.38442e-05
2.43654e-05
2.48818e-05
2.53988e-05
2.35385e-05
1.94882e-05
1.54763e-05
1.23268e-05
1.02113e-05
9.00441e-06
8.52473e-06
8.54069e-06
8.75179e-06
8.77145e-06
8.34297e-06
7.77183e-06
8.08248e-06
1.13633e-05
1.23828e-05
2.63605e-06
1.80074e-07
1.18718e-08
1.88972e-06
7.13045e-06
9.13202e-06
6.993e-06
6.52108e-06
6.76119e-06
7.37313e-06
8.30407e-06
9.5929e-06
1.13264e-05
1.36202e-05
1.65759e-05
2.0106e-05
2.26919e-05
2.31699e-05
2.36876e-05
2.42343e-05
2.35391e-05
1.84776e-05
1.36892e-05
1.03767e-05
8.48797e-06
7.70002e-06
7.68933e-06
8.10584e-06
8.58152e-06
8.80438e-06
8.70054e-06
8.63216e-06
9.62914e-06
1.37491e-05
1.06233e-05
2.5359e-06
1.90677e-07
1.17437e-08
1.87961e-06
7.31633e-06
9.48406e-06
7.81921e-06
7.04607e-06
7.01849e-06
7.34314e-06
7.95539e-06
8.91378e-06
1.03326e-05
1.23573e-05
1.50994e-05
1.84244e-05
2.04104e-05
2.09405e-05
2.155e-05
2.22155e-05
2.20259e-05
1.65965e-05
1.17356e-05
8.61276e-06
6.97803e-06
6.45668e-06
6.72194e-06
7.49302e-06
8.39648e-06
9.02222e-06
9.31121e-06
9.83201e-06
1.18171e-05
1.64969e-05
8.78395e-06
2.3651e-06
1.88576e-07
1.12311e-08
1.87603e-06
7.51582e-06
9.65525e-06
8.76405e-06
7.47819e-06
7.01174e-06
6.95423e-06
7.25284e-06
8.0121e-06
9.36349e-06
1.14337e-05
1.42042e-05
1.72529e-05
1.86322e-05
1.91676e-05
1.97908e-05
2.04864e-05
1.92265e-05
1.46678e-05
1.03818e-05
7.51937e-06
6.01941e-06
5.56988e-06
5.86879e-06
6.71336e-06
7.87167e-06
9.04631e-06
1.00678e-05
1.13309e-05
1.38832e-05
1.67693e-05
7.33608e-06
2.17917e-06
1.77296e-07
9.34698e-09
1.61991e-06
6.53128e-06
8.82791e-06
8.91572e-06
7.24816e-06
6.38016e-06
6.04295e-06
6.17737e-06
6.88425e-06
8.28969e-06
1.04933e-05
1.32509e-05
1.56245e-05
1.62838e-05
1.68488e-05
1.68506e-05
1.64534e-05
1.54285e-05
1.30368e-05
9.72525e-06
6.97736e-06
5.39449e-06
4.81849e-06
4.99871e-06
5.77352e-06
6.96124e-06
8.38889e-06
1.0076e-05
1.23168e-05
1.52018e-05
1.48893e-05
6.0806e-06
2.0224e-06
1.62863e-07
7.0327e-09
1.27643e-06
4.13987e-06
6.99689e-06
6.31784e-06
5.38039e-06
4.96968e-06
5.00568e-06
5.46584e-06
6.44563e-06
8.18185e-06
1.09191e-05
1.38769e-05
1.4334e-05
1.47521e-05
1.32816e-05
1.19012e-05
1.1157e-05
1.0944e-05
1.0754e-05
9.70716e-06
7.64179e-06
5.70497e-06
4.60775e-06
4.33567e-06
4.75224e-06
5.73387e-06
7.13654e-06
8.96429e-06
1.15321e-05
1.43873e-05
1.23827e-05
5.02382e-06
1.81986e-06
1.49474e-07
6.91256e-09
1.51241e-06
4.87251e-06
7.10029e-06
6.01787e-06
5.17643e-06
4.89093e-06
5.04339e-06
5.63374e-06
6.84746e-06
9.14922e-06
1.26538e-05
1.30954e-05
1.35551e-05
1.40309e-05
1.2259e-05
1.0695e-05
9.97578e-06
9.87018e-06
1.01026e-05
1.01669e-05
9.27666e-06
7.32412e-06
5.46605e-06
4.4498e-06
4.30802e-06
4.98111e-06
6.44962e-06
8.66716e-06
1.16691e-05
1.51222e-05
1.37829e-05
5.37589e-06
1.87136e-06
1.55786e-07
5.9427e-09
2.18803e-06
5.74784e-06
7.16983e-06
5.49767e-06
4.77833e-06
4.72333e-06
5.13163e-06
6.06762e-06
8.00793e-06
1.10474e-05
1.1579e-05
1.22692e-05
1.30946e-05
1.14807e-05
9.53931e-06
9.03943e-06
9.56129e-06
1.09128e-05
1.27966e-05
1.42714e-05
1.38026e-05
1.10215e-05
7.70167e-06
5.33075e-06
4.11697e-06
3.89609e-06
4.64869e-06
6.68001e-06
1.07405e-05
1.6237e-05
1.36352e-05
5.16352e-06
1.87455e-06
1.54922e-07
4.51067e-09
2.81765e-06
5.01762e-06
6.29661e-06
5.56783e-06
4.89716e-06
4.67312e-06
4.73469e-06
5.24493e-06
7.02245e-06
9.40097e-06
1.03924e-05
1.17763e-05
8.91925e-06
8.09038e-06
8.99593e-06
1.13731e-05
1.50748e-05
1.92873e-05
2.21399e-05
2.19485e-05
1.90585e-05
1.50879e-05
1.13019e-05
8.29456e-06
6.22363e-06
5.05471e-06
4.76507e-06
5.56635e-06
8.33144e-06
1.38553e-05
1.25231e-05
4.86899e-06
1.80622e-06
1.53526e-07
3.60737e-09
2.70014e-06
4.39866e-06
5.61031e-06
5.40824e-06
4.79626e-06
4.28431e-06
3.80145e-06
3.52433e-06
3.93931e-06
6.29822e-06
8.45168e-06
1.03853e-05
9.69978e-06
8.58149e-06
9.02471e-06
1.07089e-05
1.36745e-05
1.81974e-05
2.38988e-05
2.7641e-05
2.79302e-05
2.32329e-05
1.7057e-05
1.18676e-05
8.39034e-06
6.38671e-06
5.47627e-06
5.45564e-06
6.4957e-06
9.60088e-06
1.50489e-05
6.53604e-06
2.04148e-06
1.79794e-07
4.50424e-09
2.38704e-06
4.38293e-06
5.00816e-06
4.31118e-06
3.61916e-06
3.02897e-06
2.64062e-06
2.45657e-06
2.41871e-06
2.57292e-06
3.29863e-06
5.21529e-06
6.5326e-06
6.24423e-06
6.29561e-06
6.92576e-06
8.01324e-06
9.50772e-06
1.13557e-05
1.33839e-05
1.54611e-05
1.72016e-05
1.74123e-05
1.49842e-05
1.10811e-05
7.80653e-06
5.8765e-06
5.23428e-06
6.01565e-06
9.31362e-06
1.37962e-05
5.17525e-06
1.80666e-06
1.52863e-07
6.15715e-09
1.30725e-06
3.73789e-06
4.56082e-06
3.60274e-06
3.15758e-06
3.30892e-06
4.06766e-06
5.5768e-06
7.81477e-06
9.64535e-06
9.59475e-06
8.3997e-06
7.12061e-06
6.01431e-06
5.06825e-06
4.2914e-06
3.73483e-06
3.44743e-06
3.44611e-06
3.71349e-06
4.2125e-06
4.85082e-06
5.55095e-06
6.25384e-06
6.84489e-06
7.10738e-06
6.95754e-06
6.84686e-06
7.76647e-06
1.12023e-05
1.22354e-05
4.45006e-06
1.6544e-06
1.22163e-07
5.61572e-09
1.51604e-06
2.79439e-06
2.11416e-06
2.06398e-06
2.34359e-06
2.90976e-06
3.81531e-06
5.16195e-06
6.96665e-06
8.83044e-06
9.9213e-06
9.85964e-06
9.10997e-06
8.26588e-06
7.61431e-06
7.20461e-06
7.01471e-06
6.94218e-06
6.85376e-06
6.65676e-06
6.30768e-06
5.82144e-06
5.24784e-06
4.67032e-06
4.2453e-06
4.13336e-06
4.3683e-06
4.96455e-06
6.2231e-06
9.18107e-06
1.36184e-05
6.33202e-06
2.04336e-06
1.52722e-07
3.28022e-09
1.61285e-06
1.64466e-06
1.9582e-06
2.49007e-06
3.31845e-06
4.64623e-06
6.94756e-06
1.08388e-05
1.41349e-05
1.26012e-05
9.72149e-06
7.79645e-06
6.68566e-06
6.11409e-06
6.07329e-06
6.74211e-06
8.37053e-06
1.08513e-05
1.32463e-05
1.43846e-05
1.38913e-05
1.22038e-05
1.00313e-05
7.92892e-06
6.15801e-06
4.83631e-06
4.12977e-06
4.17355e-06
5.15797e-06
7.74639e-06
1.18713e-05
6.75989e-06
2.20096e-06
1.86167e-07
3.28333e-09
1.4015e-06
2.02582e-06
2.90996e-06
4.44838e-06
7.50036e-06
1.26162e-05
1.37685e-05
1.12457e-05
8.28491e-06
7.21065e-06
7.79561e-06
9.93206e-06
1.3338e-05
1.7087e-05
1.99457e-05
2.10683e-05
2.09587e-05
2.06361e-05
2.03335e-05
1.97296e-05
1.84682e-05
1.64493e-05
1.38801e-05
1.11373e-05
8.57603e-06
6.435e-06
4.86674e-06
4.0177e-06
4.08611e-06
5.51142e-06
9.30908e-06
7.27348e-06
2.25057e-06
1.97206e-07
3.34111e-09
1.69426e-06
2.01062e-06
2.58788e-06
3.57035e-06
5.34639e-06
8.69086e-06
1.38002e-05
1.57985e-05
1.15718e-05
7.57113e-06
5.63959e-06
5.08321e-06
5.5627e-06
7.13767e-06
9.97691e-06
1.38987e-05
1.79317e-05
2.08784e-05
2.22976e-05
2.24716e-05
2.17842e-05
2.04022e-05
1.83482e-05
1.57026e-05
1.27151e-05
9.76088e-06
7.21835e-06
5.39018e-06
4.53632e-06
5.11264e-06
8.53084e-06
7.94981e-06
2.25517e-06
1.99509e-07
1.95112e-09
1.6595e-06
1.80447e-06
2.19078e-06
2.89819e-06
4.16102e-06
6.43224e-06
1.02873e-05
1.47999e-05
1.56299e-05
1.2997e-05
8.88815e-06
6.35087e-06
5.34628e-06
5.53617e-06
6.99233e-06
1.00688e-05
1.47913e-05
2.00337e-05
2.38956e-05
2.53565e-05
2.48355e-05
2.31727e-05
2.08539e-05
1.80408e-05
1.48704e-05
1.16381e-05
8.76216e-06
6.63562e-06
5.60049e-06
6.31767e-06
1.08174e-05
7.31614e-06
2.10594e-06
1.84749e-07
2.15758e-09
1.83215e-06
2.27932e-06
2.88005e-06
3.8763e-06
5.49549e-06
7.97802e-06
1.14112e-05
1.48994e-05
1.5363e-05
1.5666e-05
1.35587e-05
9.40878e-06
6.70914e-06
5.57207e-06
5.71003e-06
7.21958e-06
1.04884e-05
1.535e-05
2.03028e-05
2.32341e-05
2.34732e-05
2.19226e-05
1.96192e-05
1.70541e-05
1.438e-05
1.17491e-05
9.43575e-06
7.78746e-06
7.26431e-06
8.88682e-06
1.39644e-05
5.96891e-06
1.89232e-06
1.58348e-07
3.25389e-09
3.25151e-06
2.80526e-06
2.84144e-06
3.34543e-06
4.3425e-06
6.02835e-06
8.72813e-06
1.2599e-05
1.50414e-05
1.53554e-05
1.55655e-05
1.20455e-05
8.32815e-06
6.23678e-06
5.44822e-06
5.774e-06
7.40687e-06
1.06302e-05
1.50571e-05
1.8957e-05
2.05346e-05
1.97752e-05
1.78558e-05
1.5719e-05
1.37036e-05
1.18707e-05
1.03298e-05
9.37254e-06
9.57512e-06
1.19327e-05
1.35753e-05
5.03046e-06
1.73726e-06
1.35623e-07
4.25159e-09
3.21457e-06
3.71757e-06
2.99152e-06
3.03629e-06
3.52275e-06
4.41076e-06
5.80809e-06
8.00103e-06
1.13416e-05
1.33941e-05
1.39162e-05
1.43862e-05
1.0654e-05
7.35563e-06
5.65549e-06
5.01844e-06
5.25992e-06
6.5016e-06
8.90956e-06
1.22458e-05
1.53256e-05
1.67706e-05
1.63924e-05
1.50389e-05
1.35369e-05
1.226e-05
1.13376e-05
1.09662e-05
1.15893e-05
1.34897e-05
1.19792e-05
4.60307e-06
1.66505e-06
1.23039e-07
6.68802e-09
2.91283e-06
4.77544e-06
3.31276e-06
3.0868e-06
3.34791e-06
3.87241e-06
4.61636e-06
5.71261e-06
7.60073e-06
1.09442e-05
1.1669e-05
1.22136e-05
1.11136e-05
7.45317e-06
5.57961e-06
4.70371e-06
4.41605e-06
4.6703e-06
5.57176e-06
7.26596e-06
9.76246e-06
1.24736e-05
1.42944e-05
1.4668e-05
1.40288e-05
1.31275e-05
1.24768e-05
1.23672e-05
1.30277e-05
1.41377e-05
1.14926e-05
4.58996e-06
1.66763e-06
1.21542e-07
8.45704e-09
1.78704e-06
5.52361e-06
4.54917e-06
3.20973e-06
2.80013e-06
2.71191e-06
2.76507e-06
2.94422e-06
3.41998e-06
4.61873e-06
7.41723e-06
9.14377e-06
9.95243e-06
6.6192e-06
4.56012e-06
3.64554e-06
3.33289e-06
3.43463e-06
3.91596e-06
4.76378e-06
6.07083e-06
8.00039e-06
1.04286e-05
1.26629e-05
1.39062e-05
1.41038e-05
1.38592e-05
1.38066e-05
1.42897e-05
1.48895e-05
1.1975e-05
4.80021e-06
1.7009e-06
1.29198e-07
5.43911e-09
1.22726e-06
4.09865e-06
5.92698e-06
6.14645e-06
4.51787e-06
3.41118e-06
2.57286e-06
1.95166e-06
1.58738e-06
1.5696e-06
2.09402e-06
3.66197e-06
6.94403e-06
7.63384e-06
4.82278e-06
3.19667e-06
2.4857e-06
2.31353e-06
2.61221e-06
3.39229e-06
4.47823e-06
5.72068e-06
7.26561e-06
9.27393e-06
1.14938e-05
1.33189e-05
1.43922e-05
1.4962e-05
1.54996e-05
1.58665e-05
1.28404e-05
5.11984e-06
1.77726e-06
1.4041e-07
2.72657e-09
1.42904e-06
3.20682e-06
4.33052e-06
4.22218e-06
3.73347e-06
3.23296e-06
2.81331e-06
2.51786e-06
2.3891e-06
2.49294e-06
2.91282e-06
3.73756e-06
4.99242e-06
6.19858e-06
6.24944e-06
4.84012e-06
3.15693e-06
2.14137e-06
1.8091e-06
2.0965e-06
3.05376e-06
4.61851e-06
6.35693e-06
8.00749e-06
9.79398e-06
1.17448e-05
1.3557e-05
1.49939e-05
1.61011e-05
1.65298e-05
1.29731e-05
5.18433e-06
1.82675e-06
1.44753e-07
2.91929e-09
1.23456e-06
2.29461e-06
2.17835e-06
1.97972e-06
1.9225e-06
1.9952e-06
2.20617e-06
2.61151e-06
3.33715e-06
4.65042e-06
6.925e-06
9.33422e-06
9.12049e-06
7.37507e-06
6.02713e-06
5.25217e-06
4.70058e-06
3.86801e-06
2.71094e-06
1.97767e-06
2.03675e-06
2.922e-06
4.61962e-06
6.70836e-06
8.65446e-06
1.05311e-05
1.25534e-05
1.46493e-05
1.64894e-05
1.71486e-05
1.31711e-05
5.3537e-06
1.89189e-06
1.53316e-07
3.65599e-09
1.09877e-06
1.52562e-06
1.88165e-06
2.36317e-06
3.03565e-06
3.98341e-06
5.36626e-06
7.4159e-06
1.00382e-05
1.19242e-05
1.17372e-05
1.0247e-05
8.68546e-06
7.52673e-06
6.77297e-06
6.26117e-06
5.75504e-06
4.9978e-06
3.922e-06
2.85374e-06
2.29598e-06
2.5548e-06
3.81084e-06
6.07262e-06
8.61743e-06
1.05983e-05
1.22678e-05
1.41782e-05
1.62215e-05
1.70628e-05
1.29522e-05
5.32552e-06
1.90667e-06
1.64998e-07
5.2155e-09
1.11835e-06
1.83164e-06
2.64683e-06
3.76786e-06
5.33332e-06
7.34985e-06
9.54739e-06
1.13801e-05
1.22582e-05
1.182e-05
1.02837e-05
8.48581e-06
7.11334e-06
6.32067e-06
5.99555e-06
5.9434e-06
5.87106e-06
5.40865e-06
4.4259e-06
3.27911e-06
2.45985e-06
2.27267e-06
2.95233e-06
4.82248e-06
8.0209e-06
1.16087e-05
1.42707e-05
1.61462e-05
1.76928e-05
1.81348e-05
1.38414e-05
5.68118e-06
2.00319e-06
1.79045e-07
7.26515e-09
1.27883e-06
2.06155e-06
2.71791e-06
3.26656e-06
3.81888e-06
4.56521e-06
5.69653e-06
7.35045e-06
9.30282e-06
1.04122e-05
9.56024e-06
7.67059e-06
6.1037e-06
5.17367e-06
4.74665e-06
4.66916e-06
4.78532e-06
4.82694e-06
4.44516e-06
3.60097e-06
2.69847e-06
2.17732e-06
2.31864e-06
3.42789e-06
5.92837e-06
9.91435e-06
1.42245e-05
1.75055e-05
1.96005e-05
2.00152e-05
1.53741e-05
6.19872e-06
2.09933e-06