/*--------------------------------*- C++ -*----------------------------------*\
| =========                 |                                                 |
| \\      /  F ield         | OpenFOAM: The Open Source CFD Toolbox           |
|  \\    /   O peration     | Version:  v2006                                 |
|   \\  /    A nd           | Website:  www.openfoam.com                      |
|    \\/     M anipulation  |                                                 |
\*---------------------------------------------------------------------------*/
FoamFile
{
    version     2.0;
    format      ascii;
    class       volScalarField;
    location    "26";
    object      k;
}
// * * * * * * * * * * * * * * * * * * * * * * * * * * * * * * * * * * * * * //

dimensions      [0 2 -2 0 0 0 0];


internalField   nonuniform List<scalar> 
78750
(
2.03158
0.654867
0.304598
0.0948008
0.00564806
0.00183237
0.002735
0.00126814
0.00249832
0.00144748
0.00213346
0.00163971
0.00195411
0.00171209
0.00182415
0.00174212
0.00175106
0.00172325
0.00170922
0.00169011
0.00167221
0.00165335
0.00163362
0.00161237
0.00158888
0.00156239
0.00153192
0.00149599
0.00145248
0.00139827
0.00132905
0.00124001
0.00111619
0.000873734
0.000210774
0.0212571
0.00948912
0.0091984
0.000632603
0.00243741
0.00306614
0.00275649
0.00305813
0.00294196
0.00307474
0.00305824
0.00311869
0.00312912
0.0031626
0.00318009
0.00320117
0.003218
0.00323399
0.00324831
0.00326155
0.00327374
0.00328509
0.00329561
0.00330444
0.00331101
0.00331461
0.00331428
0.00330837
0.00329426
0.0032678
0.00322215
0.00314364
0.00297909
0.00246769
0.00134134
0.00161836
0.000897259
0.00217864
0.00211216
0.00211009
0.00221189
0.00228442
0.00233412
0.00238608
0.00242247
0.00245604
0.00248163
0.00250288
0.00251967
0.00253343
0.00254513
0.00255596
0.00256708
0.00257965
0.00259481
0.00261365
0.00263723
0.00266635
0.00270091
0.00274112
0.00278683
0.0028374
0.00289142
0.00294629
0.00299757
0.00303762
0.00304979
0.00297794
0.00263756
0.00259333
0.000376723
0.000689212
0.00101896
0.00123717
0.00145602
0.00164351
0.00175763
0.00183353
0.00189445
0.00194792
0.00199648
0.00204081
0.00208127
0.0021181
0.00215179
0.00218312
0.00221306
0.00224267
0.00227304
0.00230522
0.00234016
0.00237864
0.0024213
0.00246857
0.00252061
0.0025775
0.00263915
0.00270507
0.00277386
0.00284212
0.00290292
0.00293869
0.00288992
0.00268122
0.00358539
0.000320108
0.00103977
0.0013442
0.00151164
0.00161544
0.00168916
0.00174795
0.00179779
0.00184065
0.0018779
0.00191051
0.00193973
0.0019672
0.00199382
0.00201987
0.00204595
0.00207277
0.00210114
0.00213182
0.00216554
0.00220294
0.00224446
0.0022905
0.00234256
0.00240182
0.00246742
0.00253837
0.00261386
0.00269286
0.0027727
0.00284744
0.00290021
0.00288668
0.00289986
0.00464547
0.000181206
0.000732528
0.00101646
0.00121127
0.00135102
0.00145596
0.00154068
0.00161162
0.00167148
0.00172222
0.0017663
0.00180555
0.00184074
0.0018727
0.00190265
0.00193183
0.00196133
0.00199211
0.002025
0.00206069
0.00209972
0.00214245
0.00218896
0.00223899
0.00229312
0.00235466
0.00242578
0.00250424
0.00258824
0.00267616
0.00276457
0.00284127
0.00289001
0.00314023
0.00549875
0.000173375
0.000541926
0.000751952
0.000939546
0.00110863
0.0012376
0.00133562
0.00142072
0.00150037
0.00157451
0.00164202
0.00170215
0.0017552
0.00180219
0.00184451
0.00188363
0.0019209
0.00195739
0.00199439
0.00203279
0.00207323
0.00211611
0.00216159
0.00220949
0.00225917
0.00231378
0.00237858
0.00245337
0.0025363
0.00262644
0.00272257
0.00281873
0.00293834
0.00343494
0.0062261
0.000342316
0.000658494
0.000823263
0.000947322
0.00104421
0.0011378
0.00122693
0.00130188
0.00136885
0.00143641
0.00150609
0.00157478
0.00164031
0.00170174
0.00175905
0.00181276
0.00186364
0.00191252
0.00196017
0.00200723
0.00205437
0.00210219
0.00215089
0.00220026
0.00224953
0.00230104
0.00236037
0.00242951
0.00250652
0.00259172
0.00268776
0.00280374
0.0030227
0.00376128
0.00684042
0.000481662
0.00077505
0.000938187
0.00108491
0.0011982
0.00125716
0.00129392
0.00132983
0.00136845
0.00141018
0.00145775
0.00151292
0.00157358
0.00163737
0.00170225
0.0017665
0.00182884
0.0018889
0.00194684
0.00200307
0.00205804
0.00211233
0.00216632
0.00221977
0.00227177
0.00232477
0.00238466
0.00245338
0.00252855
0.00261008
0.00270277
0.00283266
0.00315473
0.00409833
0.007332
0.000689551
0.000827929
0.00091086
0.00103619
0.00120223
0.00132025
0.0013798
0.00141334
0.0014411
0.00147092
0.00150552
0.00154653
0.00159517
0.00165052
0.00171036
0.00177241
0.00183463
0.00189568
0.00195512
0.00201338
0.00207081
0.0021281
0.00218538
0.00224209
0.00229684
0.00235343
0.00241822
0.00249009
0.00256606
0.00264472
0.00273176
0.00287486
0.00332986
0.00448003
0.00781995
0.000847993
0.000989245
0.00105818
0.00110408
0.00119009
0.00129465
0.00137309
0.0014259
0.00146692
0.00150532
0.00154548
0.00158992
0.00163946
0.00169281
0.00174854
0.00180531
0.00186214
0.0019185
0.00197465
0.00203117
0.00208872
0.00214756
0.00220748
0.00226752
0.00232625
0.00238886
0.00246248
0.00254391
0.00262842
0.00271299
0.00280196
0.00294952
0.00345933
0.00472597
0.00814484
0.00101771
0.00110716
0.00114626
0.00117886
0.00124566
0.00132911
0.00139638
0.00144538
0.00148486
0.00152175
0.00156127
0.001606
0.00165531
0.0017077
0.00176189
0.00181693
0.00187227
0.00192808
0.0019848
0.0020431
0.00210337
0.00216565
0.00222947
0.00229354
0.0023581
0.00242882
0.0025107
0.0026003
0.00269208
0.0027828
0.00288315
0.00310349
0.00389181
0.00531571
0.00866289
0.00124714
0.00122161
0.00118832
0.00116106
0.00120421
0.00130593
0.00139309
0.00145125
0.00149349
0.00153084
0.00157004
0.00161411
0.0016627
0.00171437
0.0017681
0.00182335
0.00187997
0.0019381
0.00199796
0.00206013
0.00212487
0.00219206
0.00226103
0.0023302
0.00240225
0.00248402
0.00257738
0.00267813
0.00278
0.002878
0.00298041
0.00319787
0.00402525
0.00548508
0.00876543
0.0014716
0.00141205
0.00136755
0.00129677
0.00125004
0.0013049
0.00138613
0.00144804
0.00149384
0.00153378
0.00157415
0.00161736
0.00166427
0.0017151
0.00176906
0.00182547
0.00188412
0.00194508
0.00200854
0.00207476
0.00214395
0.00221577
0.00228918
0.00236274
0.00244187
0.00253475
0.00264
0.00275256
0.0028659
0.00297406
0.00309542
0.0034382
0.00461282
0.00615449
0.0093232
0.00163489
0.00156284
0.00149928
0.0014037
0.00129388
0.00129349
0.00135914
0.00142424
0.00147567
0.00151995
0.00156345
0.00160922
0.0016578
0.0017089
0.00176327
0.00182144
0.00188274
0.00194699
0.00201425
0.00208459
0.00215791
0.00223374
0.00231057
0.00239134
0.00248299
0.00258829
0.00270616
0.00283271
0.00296243
0.00308866
0.00321503
0.00348674
0.00462071
0.00618335
0.00938779
0.00181147
0.0018283
0.00177544
0.00165198
0.00143023
0.00129727
0.00130484
0.00136667
0.00142857
0.00148198
0.00153154
0.00158164
0.001634
0.00168866
0.00174533
0.00180485
0.00186827
0.00193547
0.00200614
0.0020801
0.00215692
0.00223555
0.00231671
0.00240558
0.00250807
0.00262508
0.00275485
0.00289252
0.00303143
0.00316732
0.0033366
0.00381501
0.00519393
0.0067919
0.00998394
0.00198074
0.0022104
0.00222297
0.00211366
0.00184146
0.00150335
0.00132441
0.00130681
0.00135761
0.00141971
0.00147906
0.0015368
0.00159549
0.00165599
0.00171815
0.00178195
0.00184779
0.00191683
0.00198969
0.00206566
0.00214371
0.00222448
0.002312
0.00241142
0.00252607
0.00265742
0.00280553
0.00296833
0.00314082
0.00331407
0.00349123
0.00388754
0.00526248
0.00691542
0.0102468
0.00213008
0.00261562
0.00272681
0.0026689
0.00246382
0.00204122
0.00159732
0.00135221
0.00130171
0.00134304
0.00140767
0.00147407
0.00154009
0.00160701
0.00167518
0.00174427
0.00181417
0.00188566
0.00195981
0.00203655
0.00211578
0.00220003
0.00229321
0.00239908
0.00251993
0.00265613
0.0028065
0.00296805
0.00313784
0.00332073
0.00358016
0.00420713
0.00571888
0.00737386
0.0107119
0.00225665
0.00291519
0.00311479
0.00312508
0.00301624
0.00271041
0.00215798
0.0016193
0.00133857
0.00128384
0.00133056
0.00140406
0.00147996
0.0015547
0.00162913
0.0017035
0.0017774
0.0018517
0.00192763
0.00200529
0.00208673
0.00217597
0.00227651
0.0023919
0.00252619
0.00268171
0.00285996
0.00305951
0.00327529
0.00349851
0.0037529
0.0043625
0.00590452
0.00764327
0.0111823
0.00243193
0.00303757
0.00324519
0.00329758
0.00326778
0.00312276
0.00271789
0.00204631
0.00149683
0.00126981
0.00125738
0.0013266
0.00141436
0.00150101
0.00158364
0.00166306
0.00173993
0.00181638
0.00189404
0.00197269
0.00205496
0.00214538
0.00224705
0.0023626
0.00249491
0.00264528
0.00281403
0.00300093
0.00321052
0.00346936
0.00388529
0.00473083
0.00634979
0.00806402
0.0115639
0.00273139
0.00309447
0.00321512
0.00325162
0.00324145
0.00316493
0.00293676
0.00237774
0.00169215
0.00130377
0.00122174
0.00127836
0.00137301
0.00146989
0.00156004
0.00164362
0.0017228
0.00180011
0.00187738
0.00195643
0.0020404
0.00213313
0.00223863
0.00236144
0.00250619
0.00267718
0.00287647
0.00309953
0.00333199
0.00355438
0.00383871
0.00466734
0.0063465
0.00814291
0.0118189
0.00304451
0.00318155
0.00322554
0.00323597
0.00321661
0.0031407
0.00295487
0.00253521
0.00186403
0.00135604
0.00120489
0.00124849
0.00134772
0.00145203
0.00154851
0.00163633
0.00171813
0.00179683
0.00187494
0.00195482
0.00203903
0.00213049
0.00223238
0.00234865
0.00248323
0.00264093
0.00282852
0.00305702
0.00334494
0.00372048
0.00423601
0.00518054
0.00690975
0.00875043
0.0124885
0.003159
0.00321956
0.00326393
0.00328807
0.0032871
0.00322579
0.00305828
0.00271916
0.00213764
0.00153588
0.00126056
0.00125861
0.00135026
0.00145583
0.00155504
0.00164548
0.0017292
0.00180913
0.00188807
0.00196873
0.00205403
0.002147
0.00225241
0.00237548
0.00252112
0.00269315
0.00289021
0.00310288
0.00331969
0.0035591
0.00399153
0.00500513
0.00675041
0.00860005
0.012343
0.00308475
0.00318711
0.00326677
0.00332931
0.00337827
0.00337337
0.00327508
0.00304495
0.00260196
0.00195872
0.00145471
0.00129442
0.00134051
0.00144416
0.00155144
0.00165086
0.00174232
0.00182812
0.00191094
0.00199334
0.00207776
0.00216691
0.00226437
0.00237504
0.00250643
0.00266995
0.00288276
0.00316462
0.00352398
0.00394142
0.0044557
0.00553357
0.0073396
0.00925769
0.0131352
0.00307572
0.00315099
0.00320944
0.0032939
0.00339513
0.00345679
0.00344475
0.00334169
0.00310086
0.00261396
0.00195531
0.00149552
0.00137051
0.0014278
0.0015352
0.00164483
0.00174652
0.00184089
0.00193097
0.00202011
0.0021114
0.00220846
0.00231503
0.00243491
0.00257081
0.00272268
0.00289037
0.00308129
0.00332324
0.00368354
0.00426455
0.00536689
0.00719294
0.00914811
0.0130654
0.00336756
0.00316013
0.00309929
0.00320664
0.00336255
0.00346086
0.00349179
0.0034585
0.00334888
0.00309848
0.00257951
0.00192713
0.00152928
0.00145229
0.00152881
0.0016452
0.00176111
0.0018672
0.00196424
0.00205551
0.00214462
0.00223538
0.00233273
0.00244463
0.00258336
0.00276483
0.00300544
0.0033136
0.00368475
0.00413275
0.00480713
0.00598096
0.00773863
0.00966157
0.0135728
0.00385481
0.00306018
0.00281565
0.0030782
0.00334959
0.00346307
0.00348711
0.00346271
0.00339483
0.00326073
0.00297657
0.00242505
0.00184769
0.00158109
0.00156998
0.0016611
0.00177809
0.00189543
0.00200749
0.00211502
0.00221987
0.00232367
0.00242711
0.00253006
0.00263453
0.0027461
0.00287985
0.00306836
0.00336463
0.00383244
0.00460501
0.00605458
0.00788426
0.00979404
0.0137123
0.00399696
0.00248107
0.00214525
0.00285831
0.00331222
0.00345366
0.00346999
0.00343253
0.00335606
0.00323019
0.00301356
0.00262678
0.00210534
0.00177423
0.00171391
0.00177884
0.001878
0.00198126
0.00208156
0.00217954
0.00227847
0.00238306
0.00249939
0.0026348
0.00279769
0.00299534
0.00322915
0.00350059
0.0038312
0.00429152
0.00497221
0.00611831
0.00787095
0.00985576
0.0140115
0.00363564
0.0015653
0.00112114
0.00227361
0.00292494
0.00320753
0.0033173
0.00332946
0.00327588
0.00316388
0.00297705
0.00267908
0.00227702
0.00196426
0.00188094
0.00193363
0.0020299
0.0021352
0.00223842
0.00233571
0.00242561
0.00250787
0.00258347
0.0026553
0.00273149
0.0028278
0.00297009
0.00319369
0.00354483
0.00412848
0.00524014
0.00697245
0.00871283
0.0105399
0.0143239
0.00365604
0.00132883
0.000236678
0.00112645
0.00198886
0.00251484
0.00282435
0.00296034
0.00297012
0.00288308
0.00270852
0.00246963
0.0022442
0.00212081
0.00210414
0.00214547
0.00221506
0.00230081
0.00239687
0.00250042
0.00261107
0.00273022
0.00286
0.00300139
0.00315346
0.00331659
0.00349806
0.00372599
0.00406494
0.00457753
0.00527704
0.0065386
0.00817875
0.0100449
0.0141023
0.0041496
0.00168826
0.000445399
4.99775e-05
0.000917116
0.00158263
0.00205287
0.00234549
0.0024814
0.00250981
0.00247711
0.00243006
0.00240563
0.00240663
0.00242514
0.00245744
0.00250109
0.00255325
0.00261071
0.00267025
0.00272984
0.00278893
0.00284872
0.00291239
0.00298688
0.00308245
0.00321057
0.00339139
0.00371077
0.00445039
0.00588021
0.00761883
0.00918306
0.0109173
0.014337
0.00370194
0.00130164
0.000339289
0.00010648
8.93843e-05
0.000597297
0.00103333
0.00146414
0.00181156
0.00208082
0.00227813
0.00241412
0.00250737
0.00257706
0.00263739
0.002696
0.00275708
0.00282335
0.00289602
0.0029759
0.00306439
0.00316327
0.0032741
0.00339712
0.00353197
0.00368349
0.00386575
0.00410781
0.00446109
0.00503189
0.00610365
0.00777359
0.00909076
0.0103946
0.0131056
0.00295821
0.00224716
0.00171777
0.000890442
0.000243324
0.000103016
0.000318325
0.000388161
0.000866174
0.00131927
0.00173835
0.0020693
0.00230944
0.00248238
0.00261088
0.00271222
0.00279801
0.0028748
0.00294546
0.00301151
0.00307311
0.00312961
0.00318179
0.00323158
0.003282
0.00333458
0.00338063
0.00340279
0.00343897
0.00378001
0.004827
0.00643568
0.00802219
0.00977667
0.0139523
0.00362621
0.00478545
0.00451807
0.00384584
0.00280481
0.0017803
0.000956309
0.000407423
0.000211076
5.46631e-05
0.000368442
0.000875139
0.00138079
0.00181373
0.00215564
0.0024149
0.00261504
0.00277901
0.00292565
0.00306696
0.0032099
0.00335869
0.00351664
0.00368843
0.00388229
0.00411411
0.00441073
0.00477829
0.00508552
0.00515183
0.00565798
0.00747065
0.00942862
0.0115007
0.0154424
0.00386934
0.00532159
0.00567296
0.00570155
0.00548882
0.00502333
0.00435715
0.00347309
0.00243159
0.00152201
0.000660397
0.000281691
0.000316986
0.00062503
0.00106784
0.00153034
0.00193958
0.00226667
0.00251821
0.00271428
0.0028688
0.00299123
0.00308786
0.00316464
0.00323012
0.00329804
0.00340165
0.00365059
0.00427295
0.00529499
0.00605729
0.00707692
0.00847592
0.0100383
0.0132178
0.0027891
0.00396387
0.00459479
0.00519587
0.00574604
0.00615109
0.00634904
0.00631124
0.00596543
0.00521248
0.00419888
0.00300103
0.00185534
0.000990672
0.000551786
0.000566761
0.000915999
0.00140549
0.00188836
0.00230256
0.00264951
0.00295547
0.00323853
0.00350446
0.00375323
0.00397938
0.00413927
0.0040843
0.00382952
0.00406826
0.0056771
0.00749295
0.00902721
0.0108018
0.0161313
0.00201685
0.00280244
0.00330867
0.00374677
0.00419678
0.00469041
0.00521297
0.00572868
0.00619413
0.0065336
0.0066053
0.00627061
0.00542668
0.00416375
0.00273008
0.00144899
0.000636027
0.000481029
0.000881623
0.00147792
0.00200635
0.00240995
0.00271565
0.00297538
0.0032516
0.00364461
0.00429835
0.00515479
0.0054544
0.00457257
0.00444171
0.00664508
0.00913605
0.0119994
0.0176389
0.00183817
0.00271814
0.00349509
0.00395413
0.00421385
0.00436991
0.00448864
0.00462501
0.00482437
0.00512487
0.00554867
0.00605028
0.00649311
0.00668002
0.00641216
0.00549093
0.00386671
0.00191566
0.000471087
0.000145244
0.000701404
0.00144386
0.00203565
0.00248046
0.00282426
0.00315082
0.00370595
0.00493584
0.00701982
0.00918894
0.0101675
0.0107043
0.0114102
0.012323
0.0129904
0.00226353
0.00400172
0.00498289
0.00548029
0.00574734
0.00589553
0.00597302
0.00600672
0.00600518
0.0059525
0.00583495
0.00569395
0.00563966
0.00576342
0.00600529
0.00617563
0.00608669
0.00553729
0.00422589
0.00219387
0.000602178
0.000555445
0.00132524
0.00199572
0.00239144
0.00253473
0.00239579
0.00200785
0.0019054
0.00308
0.00603606
0.00850653
0.00986507
0.0107378
0.0144328
0.00327368
0.00470275
0.0050513
0.00511382
0.00511799
0.00517406
0.00537565
0.00577519
0.00633587
0.00690072
0.00730407
0.00747248
0.00741603
0.00721889
0.00699994
0.00680777
0.00661991
0.00639665
0.00605904
0.00528714
0.0028371
0.000598851
0.000121911
0.00133376
0.00295582
0.00447225
0.0057989
0.00650429
0.0058692
0.00418151
0.00423052
0.00686725
0.00927236
0.011959
0.0185788
0.00492781
0.00523606
0.00491191
0.00453329
0.00414803
0.00391292
0.00396476
0.00441525
0.00528897
0.00633078
0.00723846
0.00790045
0.00831257
0.00848341
0.00841102
0.00808697
0.00754746
0.00692055
0.00635286
0.00587714
0.00530443
0.00404988
0.00243661
0.00171428
0.00164972
0.00202559
0.00307522
0.00506283
0.00736187
0.00854022
0.0088901
0.0100317
0.0114026
0.0130908
0.0157993
0.00582855
0.00539262
0.00492532
0.00444397
0.00410751
0.00422311
0.00456133
0.00507068
0.00579335
0.00658673
0.00731748
0.00795209
0.00847774
0.00887533
0.0091201
0.00918081
0.00902308
0.0086263
0.00802261
0.00729096
0.00638653
0.00474154
0.00217321
0.000657934
0.000606241
0.00100908
0.00127408
0.00175121
0.00314331
0.0055307
0.00809789
0.00983333
0.0108288
0.0117128
0.0146164
0.00605521
0.00532366
0.00461769
0.00390846
0.00404587
0.00502479
0.00583988
0.00640459
0.00689647
0.00740131
0.0079261
0.00844312
0.00891903
0.00932072
0.0096126
0.00975645
0.00971222
0.0094408
0.0089019
0.00800815
0.00655793
0.00420943
0.00153012
0.00116767
0.00217928
0.00331904
0.00414103
0.00438024
0.00417593
0.00417615
0.00568106
0.00806881
0.00991569
0.0120062
0.017272
0.00657175
0.00535414
0.00424859
0.00316625
0.00391707
0.0054417
0.00641315
0.00705138
0.00756564
0.00803883
0.00850173
0.00895905
0.00939845
0.00979842
0.0101332
0.0103743
0.0104909
0.0104478
0.0102021
0.00969989
0.00885196
0.00750003
0.00565325
0.00415044
0.00357546
0.00354504
0.00405721
0.00501235
0.00592355
0.00660006
0.00780225
0.00972793
0.011218
0.0128172
0.0164076
0.0064804
0.00510934
0.00400177
0.00303988
0.00452242
0.00625933
0.00726195
0.00800256
0.00864644
0.00923046
0.00976021
0.0102324
0.0106402
0.0109742
0.0112229
0.0113717
0.0114039
0.0112995
0.0110347
0.0105804
0.00988922
0.00886724
0.00738519
0.00549937
0.00401378
0.00359363
0.00348945
0.00353541
0.00379338
0.00432084
0.00559077
0.00779574
0.00964677
0.0116141
0.0173808
0.00558927
0.00506891
0.00428161
0.00317571
0.00361755
0.00554404
0.00690937
0.00789071
0.00872856
0.00950122
0.0102097
0.0108384
0.011372
0.0118003
0.0121165
0.0123146
0.0123856
0.0123152
0.0120833
0.0116639
0.0110139
0.0100406
0.00855698
0.00637837
0.00396984
0.00336651
0.00423716
0.00487934
0.00490409
0.00456108
0.00510518
0.00746089
0.0099912
0.013096
0.0198248
0.00612708
0.00587238
0.00492163
0.00352384
0.00182659
0.00330972
0.00557196
0.00715098
0.00832587
0.00932223
0.0101954
0.0109405
0.0115475
0.012011
0.012331
0.0125128
0.0125645
0.0124914
0.0122894
0.0119423
0.0114124
0.0106197
0.00936882
0.00735665
0.00465337
0.00289741
0.00360158
0.00539467
0.00707399
0.00839265
0.0097076
0.0112888
0.0127656
0.014425
0.0159064
0.00716733
0.00601408
0.00461499
0.00300905
0.00117359
0.000822707
0.00234548
0.00517862
0.00706121
0.00846846
0.00962328
0.0105862
0.0113817
0.0119994
0.0124188
0.0126419
0.0126737
0.0125196
0.0121863
0.0116798
0.011006
0.0101869
0.00926144
0.00817266
0.00670089
0.00509346
0.00415643
0.00423024
0.00511508
0.00658151
0.00839623
0.00999747
0.0109477
0.011632
0.0144223
0.00888329
0.00602853
0.00395313
0.00166032
0.00128139
0.000428695
0.00136429
0.00377383
0.00541348
0.00677195
0.00809398
0.00938012
0.0105632
0.0115521
0.0122889
0.0127512
0.0129463
0.0128976
0.0126048
0.012049
0.0111943
0.0100354
0.00876655
0.00788435
0.00748887
0.00701671
0.00632547
0.00553535
0.00476278
0.00441977
0.00536292
0.00749415
0.0096807
0.0123977
0.0198669
0.0088969
0.00539645
0.00347753
0.000988911
2.27499e-05
0.0002719
0.00147044
0.00368624
0.00499163
0.00632189
0.00774886
0.00911174
0.0103129
0.0113481
0.0122027
0.0128241
0.0131803
0.0132678
0.0130841
0.0125914
0.0117098
0.0103719
0.00877849
0.00761315
0.00739553
0.00765907
0.00776183
0.00750699
0.00703694
0.0069119
0.00795948
0.0100192
0.0121214
0.0146923
0.0186939
0.00738772
0.00570036
0.00489624
0.00329374
0.000420681
0.000307579
0.00202885
0.00363185
0.0045648
0.00547404
0.00646979
0.00754777
0.00868416
0.00981862
0.0108712
0.011764
0.0124472
0.0128837
0.0130502
0.0129359
0.0125206
0.0117717
0.0107158
0.00959156
0.00879557
0.0084623
0.00840229
0.00840055
0.0084249
0.00874458
0.00972821
0.0110534
0.012091
0.0130014
0.0143643
0.00727412
0.00650749
0.00594585
0.00517204
0.00324359
0.000637187
0.000666044
0.00190997
0.0035145
0.00463501
0.00553632
0.00625987
0.00692543
0.00768271
0.00864579
0.00978926
0.0109323
0.0118607
0.0124776
0.0127776
0.0127963
0.0125724
0.0121245
0.011472
0.0106782
0.00985207
0.00910942
0.0085289
0.0081507
0.00811183
0.0086729
0.00970202
0.0107566
0.0122648
0.0176921
0.00772661
0.00622011
0.00577012
0.00549539
0.00500394
0.0025631
0.000837256
0.000420058
0.00154609
0.00342892
0.00454493
0.00535411
0.00604142
0.00666505
0.00732849
0.00817984
0.00927196
0.0104151
0.011355
0.0119782
0.0122733
0.0122703
0.0120113
0.011532
0.0108711
0.0101134
0.00940621
0.00888405
0.00862705
0.00876687
0.00949668
0.010733
0.0122097
0.0144476
0.0194988
0.00759299
0.00660628
0.00628412
0.00584696
0.00515232
0.00439128
0.00149596
0.000391231
0.000150282
0.00060819
0.0023538
0.00364
0.00483455
0.00598932
0.0068998
0.0076107
0.00831063
0.00908579
0.00987352
0.010573
0.0111139
0.0114487
0.0115455
0.0113946
0.0110335
0.0105682
0.0101488
0.00989759
0.00989059
0.0102052
0.0108736
0.0117337
0.0126138
0.0136979
0.0157444
0.00815461
0.00653176
0.00598216
0.00555161
0.00488803
0.00377816
0.00272828
0.000337104
0.000108515
0.000100535
0.0028159
0.00389501
0.00447355
0.0052502
0.00632623
0.00741975
0.00821657
0.00874333
0.00912554
0.00944719
0.00974634
0.0100472
0.010352
0.0106256
0.0108065
0.0108533
0.0107868
0.0106828
0.010637
0.0107334
0.0109871
0.0113176
0.0117496
0.012828
0.0169856
0.00837847
0.00676868
0.00624768
0.00583773
0.00531381
0.00460255
0.00334982
0.00166231
0.000437032
9.95996e-05
0.000145457
0.00143823
0.00338532
0.00430908
0.00523177
0.00643999
0.00778794
0.00884379
0.00942746
0.00967526
0.00970729
0.00959962
0.00943487
0.00931493
0.00932537
0.00948762
0.00975669
0.0100734
0.0104142
0.0107985
0.0112674
0.0119014
0.0128969
0.0147764
0.0179208
0.00907053
0.00665137
0.00605459
0.0055729
0.00478056
0.00381244
0.00307841
0.00214449
0.000580511
0.00038736
0.000206494
0.000920472
0.0041704
0.00558552
0.00618218
0.00678693
0.00764185
0.00871739
0.00970322
0.0103593
0.0106572
0.0106439
0.0103531
0.00987525
0.00940785
0.00918078
0.00929726
0.00970078
0.0102833
0.0109721
0.0117401
0.012574
0.0134074
0.0136034
0.0105979
0.00716655
0.00559379
0.00542338
0.00538782
0.00528308
0.00480944
0.0039352
0.00303982
0.00179042
9.95755e-05
8.6658e-05
0.000221612
0.000896702
0.00379042
0.0063828
0.00740956
0.00780213
0.00806528
0.0084753
0.00906783
0.00976444
0.010454
0.0110446
0.011443
0.0116278
0.0116767
0.0117176
0.0118322
0.0120279
0.0122569
0.0124286
0.0123805
0.0116837
0.00930939
0.00435627
0.00713117
0.00625136
0.00590901
0.00551303
0.0050402
0.00454644
0.00395745
0.00329295
0.00265002
0.00162882
0.000196195
0.000208005
0.000142202
0.000327291
0.00297218
0.00631344
0.00857479
0.00952564
0.00958574
0.00926008
0.00887716
0.00868595
0.00880787
0.00924361
0.00988677
0.010604
0.0112553
0.0117456
0.012034
0.012101
0.0119032
0.0112864
0.00988492
0.00739194
0.00280769
0.00619297
0.00594224
0.00619643
0.00637194
0.00640021
0.00614016
0.00557883
0.00486058
0.00423826
0.00373207
0.00287438
0.00134345
0.000489155
7.19326e-05
9.49457e-05
0.000813877
0.00294215
0.00600842
0.0088391
0.0105601
0.0113025
0.0112987
0.0108497
0.0102427
0.00970567
0.00934201
0.00917712
0.00917126
0.00923987
0.00929593
0.0092759
0.00912247
0.00871531
0.00745652
0.00250617
0.00527152
0.00525832
0.00525784
0.00529514
0.00540733
0.00554072
0.00552861
0.00522435
0.00464663
0.0040791
0.00372688
0.0033659
0.00258061
0.00125328
0.000589729
1.62935e-05
0.000320755
0.000741001
0.0019999
0.004522
0.00715708
0.00945342
0.0112356
0.0123405
0.0128149
0.0128493
0.0126109
0.0122334
0.0118279
0.0114587
0.0111153
0.010722
0.00999167
0.00776005
0.00227031
0.00622007
0.00629984
0.00627815
0.00624251
0.00621074
0.00619678
0.00614628
0.00597991
0.00564656
0.00512156
0.00452677
0.0040607
0.00374191
0.00339095
0.00275728
0.00172146
0.000530494
7.95677e-05
0.000303668
0.000518881
0.00106916
0.00254769
0.00430899
0.00638994
0.00842285
0.0102114
0.011635
0.0126735
0.0133175
0.0135789
0.0134675
0.0127678
0.0107063
0.0069451
0.00199942
0.00553728
0.00540281
0.00535755
0.00537297
0.00550084
0.00578506
0.00611143
0.00630509
0.00628177
0.00602482
0.00554501
0.00494723
0.00440714
0.00401914
0.00373477
0.00341668
0.00291332
0.00213655
0.00116142
0.000210986
5.172e-05
0.000426684
0.000250694
0.000565873
0.00141756
0.00249778
0.00377151
0.00499488
0.00621848
0.00730655
0.00798928
0.00805717
0.00689165
0.00331861
0.00172858
0.00660385
0.00612772
0.00586673
0.00571293
0.0056454
0.00571285
0.00588823
0.00609698
0.006253
0.00631252
0.00624826
0.00600364
0.0055371
0.00497475
0.00450697
0.00417721
0.00390486
0.00358376
0.003112
0.00242697
0.0015958
0.000753313
4.40416e-05
0.000382815
0.000262626
0.000200931
8.11909e-05
0.000557184
0.000884558
0.00127861
0.00163923
0.00197619
0.00150375
0.000849884
0.00275822
0.00644108
0.00549926
0.00520842
0.00511965
0.00521513
0.00550784
0.00586271
0.00616284
0.00635776
0.00643819
0.006414
0.00628682
0.00602934
0.0056068
0.00507749
0.0046051
0.00426106
0.00399824
0.00373519
0.00340019
0.00294012
0.00234723
0.00167259
0.00101784
0.000429134
0.000187022
5.18767e-05
0.000278449
5.45152e-05
5.77993e-05
0.000135792
0.000116848
0.000216587
0.00138487
0.00565762
0.00607172
0.00541153
0.0052094
0.00506922
0.00493178
0.00486631
0.00499146
0.00533764
0.00577275
0.00612983
0.00635025
0.00644188
0.00640926
0.00622158
0.00583186
0.00530371
0.00480782
0.00443123
0.00413839
0.00386046
0.00353989
0.00313791
0.00263488
0.00205543
0.00142998
0.000704613
0.000163892
7.70167e-05
0.000161886
0.00032595
7.90273e-05
0.000296303
0.000626013
0.00179082
0.00825002
0.00559289
0.00561443
0.00567141
0.00562433
0.00546122
0.00514993
0.00476004
0.00458637
0.00484779
0.00534086
0.00578483
0.00607486
0.00621903
0.0062364
0.00610913
0.00578954
0.00532479
0.00487795
0.00453062
0.00425381
0.00398508
0.00367242
0.00327419
0.00276181
0.00213973
0.00139259
0.000444695
0.000145099
3.59367e-05
0.000309424
0.000195881
0.000500651
0.00129912
0.00348665
0.00836586
0.00520052
0.00585487
0.00602793
0.00601878
0.0058952
0.00560305
0.00502653
0.00430337
0.0040477
0.00444319
0.00506377
0.00557325
0.00589632
0.00606197
0.00609266
0.00597755
0.00570281
0.00533634
0.00499516
0.00472027
0.00447952
0.00422873
0.00392365
0.00351733
0.00296755
0.00225346
0.00134846
0.000331673
0.000455763
0.000149702
9.46447e-05
0.000316069
0.00186894
0.00404354
0.00715105
0.00621328
0.00624487
0.00626959
0.00628264
0.00626575
0.00615547
0.00580084
0.00503116
0.00419986
0.00399466
0.00437769
0.00489982
0.00531125
0.00557435
0.00570941
0.00573181
0.00565525
0.00550915
0.00533687
0.00516659
0.00500097
0.00482593
0.00461667
0.00434212
0.00396316
0.00343229
0.00272652
0.00184713
0.000863955
1.43478e-05
0.000349595
0.000263559
0.00056466
0.00320397
0.00634455
0.00619214
0.00599002
0.00592817
0.00588072
0.00582831
0.00578255
0.0057454
0.00556748
0.00500663
0.00435719
0.00417911
0.0044619
0.0048639
0.00518757
0.00539835
0.0055145
0.00555988
0.00555499
0.00551597
0.00545402
0.00537544
0.00528066
0.00516402
0.00501338
0.00480794
0.00451106
0.00408529
0.00350525
0.0027825
0.00195636
0.00113329
0.000327115
0.000203114
0.00157681
0.00637511
0.00688111
0.00659066
0.00636949
0.00618539
0.00598284
0.00576038
0.00560492
0.00560827
0.00552836
0.00504678
0.0043707
0.00407589
0.00428125
0.00465048
0.00496541
0.00519187
0.00534725
0.00544939
0.00550952
0.00553566
0.00553451
0.00551118
0.00546813
0.00540387
0.00531119
0.00517388
0.00496729
0.00465394
0.00421051
0.00363093
0.00292638
0.00194356
0.000482476
0.00113667
0.00726163
0.00739837
0.00650318
0.0060882
0.00582766
0.00558893
0.00538412
0.005233
0.00525011
0.00543362
0.00546638
0.00510314
0.00447523
0.00418708
0.00434844
0.00464451
0.00490419
0.00510071
0.00524933
0.00536272
0.00544442
0.0054966
0.00552362
0.00552979
0.0055181
0.00548826
0.0054336
0.00533756
0.00517468
0.00491491
0.00451488
0.0039366
0.00290838
0.00157529
0.00264083
0.00844009
0.00833476
0.00654535
0.00588512
0.00546473
0.00507324
0.0048729
0.00485183
0.00485248
0.00494964
0.00504394
0.00497889
0.00466136
0.00437328
0.0044557
0.00467719
0.00486889
0.00502568
0.00516203
0.00527854
0.0053687
0.00543098
0.00546766
0.00548347
0.00548343
0.00547052
0.00544311
0.00539173
0.00529621
0.00514208
0.00493252
0.00448782
0.00355957
0.00304623
0.00461091
0.00904754
0.00786336
0.00602362
0.00542282
0.00495242
0.00440786
0.00412743
0.00428435
0.00447701
0.00458969
0.00466783
0.00469709
0.00467528
0.00468311
0.00479536
0.00492804
0.00504491
0.00514694
0.00523639
0.0053113
0.00536707
0.00540051
0.00541189
0.00540431
0.0053816
0.00534603
0.00529743
0.00523517
0.0051762
0.00520669
0.0053296
0.00511047
0.00447579
0.00440825
0.00570218
0.0087018
0.00743259
0.00621002
0.00572924
0.00528102
0.00464071
0.00398447
0.00379936
0.00392511
0.00407288
0.00422945
0.00441417
0.00460431
0.00477115
0.00490986
0.0050278
0.00512739
0.00520988
0.0052778
0.00533133
0.00536655
0.00538047
0.00537184
0.00534141
0.0052898
0.00521439
0.00511319
0.00499951
0.00494175
0.00511945
0.00559268
0.00576423
0.00544368
0.00541341
0.00607026
0.00766921
0.00744952
0.0061658
0.00565313
0.00523036
0.00466597
0.00398319
0.00360371
0.0036731
0.00385721
0.00403087
0.00421198
0.0044035
0.00458681
0.00474973
0.00489079
0.00501175
0.00511401
0.00519818
0.00526438
0.0053109
0.0053348
0.00533371
0.00530535
0.0052465
0.0051533
0.00502321
0.00486461
0.00473256
0.00480465
0.005299
0.00587089
0.00591759
0.00587524
0.00609907
0.00687497
0.00733821
0.00614219
0.00571213
0.00531941
0.00473468
0.00394605
0.00331718
0.00321136
0.00341717
0.00366721
0.00390201
0.00413071
0.00434342
0.00453003
0.00469036
0.00482875
0.00494914
0.00505336
0.00514112
0.00521081
0.00526006
0.00528608
0.00528544
0.00525386
0.00518626
0.00507736