/*--------------------------------*- C++ -*----------------------------------*\
| =========                 |                                                 |
| \\      /  F ield         | OpenFOAM: The Open Source CFD Toolbox           |
|  \\    /   O peration     | Version:  v2006                                 |
|   \\  /    A nd           | Website:  www.openfoam.com                      |
|    \\/     M anipulation  |                                                 |
\*---------------------------------------------------------------------------*/
FoamFile
{
    version     2.0;
    format      ascii;
    class       volScalarField;
    location    "26";
    object      nut;
}
// * * * * * * * * * * * * * * * * * * * * * * * * * * * * * * * * * * * * * //

dimensions      [0 2 -1 0 0 0 0];


internalField   nonuniform List<scalar> 
78750
(
0.000854107
0.00186126
0.00126871
0.000490369
3.85181e-05
1.96799e-05
3.0782e-05
1.42623e-05
3.06309e-05
1.86124e-05
2.97655e-05
2.42163e-05
3.09996e-05
2.85728e-05
3.22498e-05
3.24072e-05
3.41536e-05
3.52242e-05
3.64928e-05
3.76679e-05
3.88487e-05
4.00276e-05
4.12099e-05
4.24139e-05
4.36373e-05
4.49581e-05
4.63996e-05
4.78222e-05
4.91754e-05
5.03472e-05
5.07894e-05
4.87166e-05
3.74983e-05
1.17338e-05
3.89582e-07
3.05177e-05
3.70653e-05
8.36999e-05
5.51693e-06
2.03013e-05
3.20501e-05
3.53756e-05
4.80345e-05
5.41489e-05
6.456e-05
7.07818e-05
7.76755e-05
8.21551e-05
8.62273e-05
8.90779e-05
9.13786e-05
9.31529e-05
9.45831e-05
9.57771e-05
9.6812e-05
9.78123e-05
9.89469e-05
0.00010025
0.000101591
0.000102935
0.000104294
0.000105565
0.000106501
0.000106666
0.000105223
0.000100112
8.52496e-05
5.04464e-05
1.70202e-05
1.67102e-06
3.86234e-06
6.96428e-06
2.85143e-05
2.92308e-05
3.35367e-05
4.36548e-05
5.25118e-05
6.01793e-05
6.62976e-05
7.04911e-05
7.37629e-05
7.63344e-05
7.85836e-05
8.06589e-05
8.26591e-05
8.4616e-05
8.65382e-05
8.84288e-05
9.03017e-05
9.21812e-05
9.40191e-05
9.56795e-05
9.71906e-05
9.87403e-05
0.000100388
0.000102034
0.000103455
0.000104212
0.000103458
9.94642e-05
8.84517e-05
6.48662e-05
3.41619e-05
1.67228e-05
3.21069e-06
9.21491e-07
6.76929e-06
2.07724e-05
3.17524e-05
2.27766e-05
2.49091e-05
3.49227e-05
4.97302e-05
6.47887e-05
7.7003e-05
8.59811e-05
9.28923e-05
9.89424e-05
0.000104721
0.000110291
0.000115504
0.000120201
0.000124247
0.000127531
0.000129969
0.000131509
0.000132167
0.000132061
0.000131248
0.000129647
0.000127118
0.000123371
0.00011796
0.000110108
9.82735e-05
7.95185e-05
5.21058e-05
2.6424e-05
1.62461e-05
4.41867e-06
7.83811e-07
4.76777e-05
7.42118e-05
8.75643e-05
9.75555e-05
0.000100397
0.000101579
0.000107547
0.000118424
0.000133498
0.000151115
0.000164004
0.00016527
0.000166489
0.000167674
0.000168852
0.000170055
0.000171317
0.000172671
0.000174146
0.000175766
0.000177545
0.000176898
0.000164473
0.000153592
0.000143737
0.000132917
0.000120282
0.000105163
8.66319e-05
6.3864e-05
3.93651e-05
2.20608e-05
1.85083e-05
5.69843e-06
4.44973e-07
2.19008e-05
3.56702e-05
5.46898e-05
7.99661e-05
9.92395e-05
0.000112491
0.000124529
0.000137309
0.000149987
0.000155725
0.00015761
0.000159285
0.000160795
0.000162199
0.000163556
0.000164917
0.000166325
0.000167816
0.000169419
0.000171154
0.000173033
0.000175054
0.000177201
0.000168497
0.000143336
0.000124819
0.000109707
9.33306e-05
7.39653e-05
5.18762e-05
3.10288e-05
1.90116e-05
2.0932e-05
6.72061e-06
4.25828e-07
2.04657e-05
1.67763e-05
2.00407e-05
3.6701e-05
7.69452e-05
0.000116171
0.000131866
0.000140777
0.000146123
0.000149535
0.000152518
0.000155108
0.00015737
0.000159383
0.000161224
0.000162961
0.000164644
0.000166334
0.00016807
0.000169878
0.000171775
0.000173765
0.000175835
0.000177957
0.00014711
0.000118941
9.98074e-05
8.2643e-05
6.36943e-05
4.32882e-05
2.58181e-05
1.7577e-05
2.49208e-05
7.58651e-06
8.37872e-07
2.60882e-05
2.25519e-05
1.54987e-05
1.68086e-05
2.74353e-05
5.72599e-05
0.000105662
0.000135181
0.000138838
0.000142523
0.000146074
0.000149392
0.000152442
0.000155238
0.000157817
0.000160224
0.000162505
0.000164699
0.00016684
0.000168957
0.000171079
0.000173213
0.00017535
0.000177458
0.00015031
0.000114694
9.19805e-05
7.4147e-05
5.56113e-05
3.65902e-05
2.18767e-05
1.67705e-05
3.01799e-05
8.31411e-06
1.17581e-06
2.31225e-05
2.53374e-05
1.7521e-05
1.78938e-05
2.39953e-05
3.87183e-05
6.73964e-05
0.000104615
0.000134408
0.00013992
0.000142823
0.000145957
0.000149189
0.000152412
0.000155542
0.000158523
0.000161347
0.000164026
0.000166586
0.000169053
0.000171456
0.000173812
0.000176114
0.000178325
0.000149139
0.000110423
8.62784e-05
6.8124e-05
4.99716e-05
3.20719e-05
1.93597e-05
1.67215e-05
3.72587e-05
8.89385e-06
1.67694e-06
1.90673e-05
2.18512e-05
1.24885e-05
1.39588e-05
2.25838e-05
4.0284e-05
6.60852e-05
9.23195e-05
0.000114827
0.000134993
0.000144527
0.000147015
0.000149803
0.000152765
0.000155781
0.000158751
0.000161616
0.000164358
0.000167003
0.000169572
0.000172096
0.000174583
0.000177012
0.000179324
0.000138347
0.000103259
8.1134e-05
6.33826e-05
4.55191e-05
2.85067e-05
1.73639e-05
1.69922e-05
4.64709e-05
9.46729e-06
2.05651e-06
1.99252e-05
2.84354e-05
1.28675e-05
1.20298e-05
1.90443e-05
3.78134e-05
7.12012e-05
0.000104935
0.000127996
0.000144458
0.000146727
0.000149223
0.000151872
0.000154595
0.000157324
0.000160012
0.000162637
0.000165211
0.000167764
0.000170324
0.000172902
0.000175489
0.000178043
0.000176455
0.00012998
9.82622e-05
7.79531e-05
6.06434e-05
4.29517e-05
2.65416e-05
1.63746e-05
1.73415e-05
5.50956e-05
9.7273e-06
2.46098e-06
1.65665e-05
3.29588e-05
1.33509e-05
1.09928e-05
1.55411e-05
2.93248e-05
5.96823e-05
0.000102514
0.000135321
0.000145262
0.00014753
0.000149998
0.000152583
0.000155217
0.00015785
0.000160458
0.000163048
0.00016564
0.000168264
0.000170935
0.000173652
0.000176394
0.000179104
0.000165704
0.000124614
9.58718e-05
7.57585e-05
5.75482e-05
3.90933e-05
2.33309e-05
1.52572e-05
1.96991e-05
7.53655e-05
9.89877e-06
3.00431e-06
1.63696e-05
3.62404e-05
1.22256e-05
9.57821e-06
1.36163e-05
2.60563e-05
5.45953e-05
9.77164e-05
0.000132183
0.000145697
0.000147924
0.000150347
0.000152888
0.000155492
0.000158128
0.000160788
0.000163477
0.000166203
0.000168989
0.000171843
0.000174757
0.000177698
0.0001806
0.000154126
0.000118775
9.40598e-05
7.53101e-05
5.73368e-05
3.86868e-05
2.27727e-05
1.49082e-05
2.05949e-05
8.65623e-05
9.83933e-06
3.53211e-06
1.87463e-05
4.20634e-05
1.35662e-05
9.60888e-06
1.28842e-05
2.37872e-05
4.69812e-05
7.98871e-05
0.000108302
0.000127433
0.00014245
0.000150405
0.000152901
0.000155512
0.000158201
0.000160952
0.000163767
0.000166649
0.000169606
0.000172643
0.000175741
0.000178853
0.000178432
0.000140746
0.000110801
8.99274e-05
7.24255e-05
5.45492e-05
3.58703e-05
2.075e-05
1.48282e-05
2.4394e-05
0.000104798
1.00807e-05
3.84097e-06
1.72089e-05
5.05371e-05
1.54121e-05
9.38236e-06
1.1062e-05
1.89897e-05
3.60609e-05
6.16448e-05
8.65396e-05
0.000105072
0.000120367
0.000135928
0.000151239
0.000155203
0.000157978
0.000160855
0.00016382
0.00016687
0.000170005
0.000173213
0.000176471
0.000179712
0.00015556
0.000126807
0.00010447
8.68992e-05
7.08634e-05
5.40755e-05
3.63682e-05
2.13242e-05
1.47197e-05
2.44081e-05
0.000106102
1.00058e-05
3.96546e-06
1.61676e-05
5.87497e-05
2.244e-05
1.05274e-05
9.25813e-06
1.32945e-05
2.39541e-05
4.33822e-05
6.76117e-05
8.84839e-05
0.000104668
0.000119532
0.000134902
0.000149414
0.000157158
0.000160146
0.000163258
0.000166471
0.000169771
0.000173134
0.000176511
0.00016737
0.000142104
0.000118838
0.000100404
8.47802e-05
6.92589e-05
5.18557e-05
3.3502e-05
1.97107e-05
1.5573e-05
2.87272e-05
0.000111734
1.0313e-05
4.1268e-06
1.66029e-05
5.72689e-05
4.03707e-05
1.65834e-05
1.00165e-05
9.99129e-06
1.4683e-05
2.60817e-05
4.5862e-05
6.92783e-05
8.92612e-05
0.000105471
0.000120441
0.000135
0.000148341
0.000158833
0.000162366
0.000165693
0.000169096
0.000172524
0.0001645
0.000146257
0.00012648
0.000108828
9.35427e-05
7.94937e-05
6.53046e-05
4.98596e-05
3.34669e-05
2.0039e-05
1.56085e-05
2.93874e-05
0.000108315
1.03286e-05
4.29666e-06
1.7209e-05
5.43948e-05
6.23168e-05
3.31824e-05
1.57815e-05
1.02483e-05
1.00608e-05
1.43156e-05
2.51109e-05
4.46193e-05
6.913e-05
9.14414e-05
0.000110116
0.000126929
0.000142355
0.000155037
0.000160889
0.000164305
0.000167769
0.000166893
0.000154831
0.000138539
0.000122231
0.000107422
9.38756e-05
8.03847e-05
6.53849e-05
4.81213e-05
3.09135e-05
1.91638e-05
1.6764e-05
3.31219e-05
0.000112519
1.05761e-05
4.4959e-06
1.8553e-05
5.86871e-05
7.86497e-05
6.05445e-05
3.08516e-05
1.53511e-05
9.9566e-06
9.6966e-06
1.38884e-05
2.46832e-05
4.49592e-05
7.2298e-05
9.89187e-05
0.000121482
0.000140883
0.000155747
0.000159275
0.000162808
0.000166344
0.000158699
0.000144422
0.000128685
0.00011338
9.93446e-05
8.64137e-05
7.38362e-05
6.0467e-05
4.53772e-05
2.98351e-05
1.87967e-05
1.73498e-05
3.61906e-05
0.000102931
1.07245e-05
4.75231e-06
2.07583e-05
6.96904e-05
0.00010167
9.38433e-05
5.90239e-05
2.71386e-05
1.34165e-05
9.09398e-06
9.65526e-06
1.47807e-05
2.68959e-05
4.90208e-05
7.92334e-05
0.000110106
0.000136432
0.000153925
0.000157594
0.000161242
0.000164856
0.000154299
0.000139894
0.000125357
0.00011163
9.89381e-05
8.67576e-05
7.39872e-05
5.93476e-05
4.28273e-05
2.76318e-05
1.85066e-05
1.87056e-05
4.01359e-05
0.000106432
1.09035e-05
5.12498e-06
2.4522e-05
9.2537e-05
0.000126784
0.000116591
8.91118e-05
4.56496e-05
2.01575e-05
1.08688e-05
8.89921e-06
1.15028e-05
1.94587e-05
3.56613e-05
6.18597e-05
9.40366e-05
0.000124125
0.000145887
0.000156813
0.000159984
0.000154517
0.000143253
0.000129461
0.000115419
0.000102231
9.02562e-05
7.93823e-05
6.90067e-05
5.77016e-05
4.35842e-05
2.79791e-05
1.7847e-05
1.84531e-05
4.13127e-05
9.90692e-05
1.09987e-05
5.49436e-06
2.83639e-05
0.000108238
0.00012325
0.000101685
7.95219e-05
5.51964e-05
2.83741e-05
1.43902e-05
9.85329e-06
1.08382e-05
1.6672e-05
2.88147e-05
4.87011e-05
7.44918e-05
0.000100551
0.000121219
0.000133889
0.000138671
0.000136936
0.000130455
0.000121046
0.000110234
9.8965e-05
8.75427e-05
7.58179e-05
6.34828e-05
5.05757e-05
3.77745e-05
2.63626e-05
1.88938e-05
2.05938e-05
4.66784e-05
9.85186e-05
1.12948e-05
5.6078e-06
2.9382e-05
0.000105554
0.000103297
7.90554e-05
6.3753e-05
5.25047e-05
3.57669e-05
2.00785e-05
1.27132e-05
1.18652e-05
1.61956e-05
2.59249e-05
4.16099e-05
6.19316e-05
8.30872e-05
0.000100833
0.000112607
0.000117986
0.000117884
0.000113706
0.000106935
9.88531e-05
9.03326e-05
8.19958e-05
7.40801e-05
6.57542e-05
5.46879e-05
3.95448e-05
2.49507e-05
1.7386e-05
1.99414e-05
4.65693e-05
9.58381e-05
1.12236e-05
5.4962e-06
2.81329e-05
9.7176e-05
8.53723e-05
6.4637e-05
5.73713e-05
5.58372e-05
4.73061e-05
2.99772e-05
1.80292e-05
1.37985e-05
1.54848e-05
2.23956e-05
3.44941e-05
5.1053e-05
6.96341e-05
8.68587e-05
9.99313e-05
0.00010757
0.000109886
0.000107776
0.000102377
9.46902e-05
8.54199e-05
7.50809e-05
6.43389e-05
5.4198e-05
4.53453e-05
3.67944e-05
2.6817e-05
1.93744e-05
2.23273e-05
5.19439e-05
9.6094e-05
1.15897e-05
5.4871e-06
2.77814e-05
8.75739e-05
6.64911e-05
5.24064e-05
5.23191e-05
5.96982e-05
6.37966e-05
4.97647e-05
2.94107e-05
1.87084e-05
1.61876e-05
1.98743e-05
2.90731e-05
4.3203e-05
6.0526e-05
7.77704e-05
9.16238e-05
0.000100306
0.000103794
0.000103059
9.93521e-05
9.38661e-05
8.75946e-05
8.08692e-05
7.27363e-05
6.13426e-05
4.66159e-05
3.24152e-05
2.25392e-05
1.76731e-05
2.17391e-05
5.26543e-05
9.07806e-05
1.14943e-05
5.85755e-06
3.05307e-05
6.79963e-05
4.75072e-05
4.39899e-05
5.07104e-05
6.38117e-05
7.8558e-05
7.8104e-05
5.20107e-05
2.89705e-05
1.93711e-05
1.87472e-05
2.51227e-05
3.74272e-05
5.4314e-05
7.31399e-05
8.98249e-05
0.000100836
0.000105043
0.000103409
9.75243e-05
8.88147e-05
7.86052e-05
6.83183e-05
5.92819e-05
5.20035e-05
4.50584e-05
3.56832e-05
2.54413e-05
2.04008e-05
2.57601e-05
6.05194e-05
9.56769e-05
1.17969e-05
6.38277e-06
3.72016e-05
4.08146e-05
3.31132e-05
4.12693e-05
5.69741e-05
7.58789e-05
9.5731e-05
0.000105699
8.73713e-05
5.03016e-05
2.81407e-05
2.11113e-05
2.3946e-05
3.43501e-05
4.98776e-05
6.77348e-05
8.46163e-05
9.73804e-05
0.000104522
0.000106495
0.000104698
0.000100194
9.30265e-05
8.23931e-05
6.79466e-05
5.17584e-05
3.76201e-05
2.74131e-05
2.04462e-05
1.79671e-05
2.61213e-05
6.65346e-05
8.42775e-05
1.17417e-05
6.41752e-06
3.87141e-05
2.12166e-05
2.70573e-05
5.02389e-05
7.91586e-05
9.99937e-05
0.000110803
0.000111539
9.61485e-05
6.55584e-05
3.86101e-05
2.65169e-05
2.69057e-05
3.77061e-05
5.51314e-05
7.36239e-05
8.88173e-05
9.81937e-05
0.000101149
9.86846e-05
9.25634e-05
8.45841e-05
7.6345e-05
6.90645e-05
6.28385e-05
5.57983e-05
4.55588e-05
3.3648e-05
2.45766e-05
2.04297e-05
2.66996e-05
6.54284e-05
8.97946e-05
1.19076e-05
5.89052e-06
2.87102e-05
9.64977e-06
2.31503e-05
6.10927e-05
9.18125e-05
0.000106342
0.000111974
0.000110469
9.77113e-05
7.34069e-05
4.86497e-05
3.45553e-05
3.31533e-05
4.42985e-05
6.44289e-05
8.53884e-05
0.00010203
0.000113554
0.000120253
0.000122084
0.000118571
0.00010913
9.40624e-05
7.57216e-05
5.79362e-05
4.34642e-05
3.24613e-05
2.39863e-05
1.89028e-05
2.00952e-05
3.46693e-05
8.94932e-05
8.15603e-05
1.20651e-05
5.75656e-06
2.51757e-05
1.99166e-06
1.09298e-05
4.12128e-05
6.52503e-05
7.92176e-05
8.603e-05
8.47776e-05
7.42638e-05
5.92912e-05
4.81612e-05
4.58292e-05
5.41022e-05
7.07676e-05
8.70425e-05
9.73863e-05
0.0001029
0.000105175
0.000104592
0.000101553
9.68561e-05
9.14743e-05
8.58515e-05
7.91861e-05
6.95004e-05
5.58639e-05
4.11696e-05
2.97641e-05
2.28904e-05
2.09654e-05
3.1354e-05
7.98144e-05
7.60148e-05
1.18672e-05
6.21641e-06
3.45973e-05
3.68465e-06
4.81963e-07
1.79191e-05
3.50565e-05
4.82694e-05
5.66809e-05
6.07855e-05
6.19098e-05
6.27639e-05
6.73237e-05
7.74433e-05
8.98429e-05
0.000100212
0.000108029
0.000114536
0.000120243
0.000124825
0.0001274
0.000126169
0.000119498
0.000107375
9.1728e-05
7.54653e-05
6.05011e-05
4.6471e-05
3.27089e-05
2.19685e-05
1.7795e-05
2.1821e-05
4.24417e-05
0.00011113
7.48098e-05
1.21929e-05
5.89749e-06
2.5976e-05
3.16855e-06
1.49586e-06
1.77513e-06
1.11176e-05
2.01173e-05
2.90855e-05
3.90583e-05
5.13538e-05
6.33797e-05
7.05555e-05
7.32832e-05
7.52765e-05
7.84958e-05
8.25055e-05
8.6095e-05
8.84763e-05
8.94702e-05
8.90522e-05
8.7304e-05
8.44916e-05
8.07088e-05
7.5597e-05
6.85518e-05
5.94429e-05
4.89822e-05
3.82638e-05
2.85733e-05
2.24535e-05
2.48091e-05
4.73362e-05
0.000112279
6.47269e-05
1.14519e-05
5.1437e-06
2.72654e-05
2.98806e-05
1.23307e-05
3.26721e-06
1.54506e-06
5.13686e-06
6.48676e-06
1.51124e-05
2.42354e-05
3.4182e-05
4.43597e-05
5.46037e-05
6.44568e-05
7.32033e-05
8.06245e-05
8.70245e-05
9.27648e-05
9.78081e-05
0.000101516
0.000102848
0.000100878
9.53783e-05
8.71463e-05
7.78838e-05
6.94203e-05
6.12759e-05
4.80609e-05
2.90346e-05
1.72348e-05
1.5931e-05
2.62143e-05
6.94678e-05
7.55988e-05
1.17013e-05
6.02787e-06
3.20246e-05
7.76204e-05
6.29264e-05
3.7513e-05
2.32152e-05
1.18108e-05
4.68906e-06
2.38656e-06
6.5868e-07
5.11137e-06
1.44982e-05
2.69892e-05
4.04259e-05
5.29126e-05
6.3409e-05
7.1491e-05
7.67868e-05
7.9382e-05
8.00684e-05
7.95181e-05
7.78249e-05
7.46214e-05
6.93461e-05
6.17544e-05
5.27079e-05
4.47213e-05
4.06896e-05
3.88618e-05
3.00805e-05
2.40967e-05
3.7409e-05
9.8693e-05
8.35052e-05
1.25675e-05
6.95427e-06
4.27477e-05
8.54617e-05
0.000106516
0.000114543
9.93076e-05
7.44091e-05
4.94527e-05
2.88672e-05
1.58708e-05
6.54837e-06
2.90564e-06
3.67767e-06
8.5809e-06
1.77003e-05
3.004e-05
4.32746e-05
5.5676e-05
6.68566e-05
7.64275e-05
8.35203e-05
8.7261e-05
8.68029e-05
8.2001e-05
7.39855e-05
6.32046e-05
4.75344e-05
3.1006e-05
2.23895e-05
2.17877e-05
2.46247e-05
3.85639e-05
8.86568e-05
6.69404e-05
1.12824e-05
5.89489e-06
3.14267e-05
6.53787e-05
9.49988e-05
0.000122679
0.000145063
0.000154018
0.000143737
0.000114243
7.75513e-05
4.90621e-05
2.93527e-05
1.64298e-05
8.66501e-06
5.25132e-06
6.49031e-06
1.3457e-05
2.56099e-05
3.83027e-05
4.79339e-05
5.42788e-05
5.7983e-05
5.95586e-05
5.8805e-05
5.54516e-05
5.2077e-05
5.64018e-05
6.7049e-05
4.8088e-05
2.19458e-05
1.94211e-05
2.99417e-05
6.96241e-05
8.83149e-05
1.22171e-05
4.20512e-06
1.65466e-05
4.5805e-05
7.51593e-05
9.18258e-05
0.000108793
0.000127791
0.000144517
0.000155328
0.000158719
0.00014953
0.000119416
7.76864e-05
4.47596e-05
2.3918e-05
1.15876e-05
5.36032e-06
5.07778e-06
1.34593e-05
3.18169e-05
5.27212e-05
7.18639e-05
8.58587e-05
8.56261e-05
6.58729e-05
4.14198e-05
2.89859e-05
2.8506e-05
3.45122e-05
2.58681e-05
1.81484e-05
3.09626e-05
8.85705e-05
9.05542e-05
1.33661e-05
3.81194e-06
1.55378e-05
4.64426e-05
7.61629e-05
8.5076e-05
8.4993e-05
8.32685e-05
8.2945e-05
8.58285e-05
9.35238e-05
0.000107003
0.000124313
0.000141053
0.000151722
0.000137058
8.22463e-05
3.67092e-05
1.36954e-05
3.27033e-06
1.26283e-06
8.44704e-06
2.00766e-05
2.79122e-05
3.28686e-05
3.64022e-05
3.59336e-05
2.9385e-05
2.41045e-05
2.54125e-05
3.63655e-05
6.50426e-05
0.000124464
0.000135497
5.00929e-05
1.10201e-05
4.39242e-06
2.09897e-05
5.96843e-05
0.000103324
0.000119139
0.000115938
0.000106991
9.89794e-05
9.33205e-05
8.86353e-05
8.36174e-05
7.98767e-05
8.18887e-05
9.39463e-05
0.000116713
0.000145485
0.000163864
0.000118529
4.77512e-05
1.55844e-05
4.20751e-06
6.10292e-06
2.60876e-05
4.73761e-05
5.46903e-05
4.65438e-05
3.22501e-05
1.96217e-05
1.19358e-05
1.17316e-05
2.04562e-05
4.09346e-05
8.94134e-05
7.30436e-05
1.12809e-05
5.63726e-06
2.65861e-05
7.81598e-05
0.000117197
0.000103032
8.23036e-05
7.27759e-05
7.39541e-05
8.42966e-05
0.000101686
0.000120065
0.000129641
0.000126935
0.000124149
0.000136448
0.000171308
0.000222984
0.000263085
0.000246186
8.21606e-05
1.85115e-05
3.13116e-06
7.88456e-07
1.11532e-05
2.65687e-05
3.75281e-05
4.59072e-05
5.78513e-05
5.4077e-05
2.53503e-05
1.81968e-05
3.48787e-05
9.20822e-05
8.155e-05
1.32978e-05
7.23869e-06
3.62746e-05
0.000105974
9.15209e-05
5.32567e-05
3.8915e-05
3.76153e-05
4.53107e-05
6.4825e-05
9.89807e-05
0.000141753
0.000179459
0.000203143
0.000207606
0.000190473
0.000163655
0.000146616
0.000150528
0.000177652
0.000197922
0.000120835
4.40634e-05
2.14519e-05
1.92099e-05
2.21265e-05
2.08487e-05
1.82262e-05
1.9923e-05
2.6182e-05
3.55911e-05
4.98347e-05
9.15404e-05
0.000147016
5.81346e-05
1.21732e-05
7.90988e-06
4.64334e-05
0.000107314
4.82283e-05
2.94475e-05
3.05561e-05
4.14828e-05
6.13963e-05
9.38832e-05
0.000136112
0.000175721
0.000206935
0.000230611
0.000247713
0.000257908
0.00025957
0.000252224
0.000242063
0.000238009
0.000225398
0.000150365
4.37468e-05
1.21347e-05
4.00593e-06
5.73375e-06
1.44917e-05
1.87924e-05
1.45462e-05
1.44839e-05
2.07732e-05
3.75158e-05
7.68308e-05
0.000134977
5.73365e-05
1.14171e-05
7.97235e-06
5.36624e-05
6.51778e-05
2.43935e-05
2.19752e-05
3.99306e-05
7.83257e-05
0.000122232
0.000156084
0.000182606
0.000206891
0.000229969
0.000250833
0.000268296
0.000281262
0.000288825
0.000290336
0.000283528
0.000257213
0.000188832
9.29227e-05
3.15133e-05
8.88973e-06
7.9455e-06
1.89947e-05
3.36667e-05
4.90109e-05
5.04469e-05
3.10362e-05
1.89643e-05
2.32553e-05
4.96507e-05
0.000112275
6.34924e-05
1.28169e-05
8.26857e-06
7.31657e-05
3.48616e-05
1.44649e-05
2.12361e-05
5.69662e-05
0.000115024
0.000155898
0.000180035
0.000198184
0.000215537
0.000233201
0.000250051
0.000264338
0.000274562
0.000279522
0.000278072
0.000268839
0.000249405
0.000215947
0.000165115
0.000104085
6.01687e-05
4.27384e-05
3.86963e-05
3.17772e-05
2.7726e-05
3.01338e-05
3.33703e-05
3.11289e-05
3.67979e-05
7.16234e-05
0.000136172
6.19716e-05
1.24882e-05
8.16584e-06
8.59088e-05
2.4533e-05
1.24306e-05
2.7442e-05
8.84335e-05
0.000159113
0.000197156
0.000222243
0.000243356
0.000261867
0.000277136
0.000288317
0.00029512
0.000297711
0.000296207
0.000290547
0.000279973
0.000262736
0.000236326
0.000196698
0.000142753
8.71233e-05
5.07425e-05
3.84036e-05
4.24266e-05
4.1807e-05
3.40671e-05
2.78945e-05
2.2183e-05
2.22409e-05
3.76336e-05
8.95326e-05
6.93295e-05
1.26065e-05
7.61002e-06
5.84442e-05
3.66107e-05
1.33196e-05
1.66209e-05
5.2263e-05
0.000127913
0.000191346
0.000232082
0.000265032
0.000293672
0.0003167
0.000332384
0.000340327
0.000341808
0.000338745
0.000332412
0.000322616
0.000307952
0.000284759
0.000245526
0.000183241
0.000108871
5.33971e-05
2.78013e-05
2.65303e-05
4.14308e-05
5.04684e-05
3.7072e-05
2.23736e-05
2.04666e-05
3.9769e-05
0.000106641
7.54475e-05
1.38771e-05
7.92495e-06
3.76248e-05
6.42508e-05
1.68805e-05
5.87477e-06
1.47689e-05
5.52252e-05
0.000131018
0.000196221
0.00024953
0.000298985
0.000340681
0.000368023
0.000378746
0.000376264
0.000365533
0.000350186
0.000332594
0.000314131
0.000294466
0.000267851
0.000219901
0.000142284
6.95265e-05
3.10605e-05
1.77293e-05
2.21002e-05
3.14299e-05
3.60501e-05
3.92055e-05
5.61298e-05
0.000112502
0.000146552
5.45132e-05
1.23039e-05
8.34249e-06
3.33274e-05
5.53105e-05
1.53298e-05
3.79979e-06
2.61146e-06
1.21815e-05
6.75949e-05
0.000173082
0.00027035
0.000350462
0.000396246
0.000411136
0.000422376
0.00042986
0.000404193
0.000368613
0.000328484
0.000284509
0.000238839
0.000194905
0.000158196
0.000132149
0.000107694
7.46748e-05
4.87836e-05
3.69165e-05
3.30118e-05
3.1347e-05
3.25504e-05
4.28633e-05
7.30941e-05
0.000125128
5.47031e-05
1.1276e-05
8.66509e-06
3.61292e-05
3.2119e-05
5.71255e-06
4.01204e-06
1.55584e-06
7.01982e-06
4.98819e-05
0.000174208
0.000287775
0.00034628
0.00037306
0.000396105
0.000414387
0.000427521
0.000435587
0.00043602
0.000387486
0.00032665
0.000258523
0.00019047
0.000134507
9.90132e-05
8.58595e-05
9.27166e-05
0.000103204
9.30724e-05
6.72767e-05
4.05032e-05
2.43017e-05
2.31147e-05
3.92925e-05
8.90982e-05
8.45404e-05
1.37624e-05
8.30324e-06
3.99925e-05
2.56395e-05
3.30999e-06
6.77035e-08
1.01964e-06
8.23512e-06
4.42988e-05
0.000107776
0.000159871
0.000228115
0.000315315
0.000391804
0.00041107
0.00042633
0.000437041
0.000443017
0.000428315
0.000366891
0.000284012
0.000195768
0.000127442
8.75819e-05
6.92773e-05
6.60301e-05
7.30602e-05
7.99528e-05
6.99657e-05
4.83446e-05
3.63231e-05
4.19312e-05
7.73443e-05
0.000143845
6.48105e-05
1.34433e-05
7.54065e-06
3.68096e-05
5.09941e-05
1.3812e-05
1.14759e-06
9.78563e-07
1.21272e-05
4.74976e-05
7.90442e-05
9.47264e-05
0.000116663
0.000149951
0.000193126
0.00024428
0.000293367
0.000323237
0.000334072
0.000332918
0.000318193
0.000285195
0.000234079
0.000176382
0.000129733
0.000101494
8.70499e-05
7.87486e-05
7.21443e-05
6.47226e-05
5.55481e-05
5.07296e-05
6.17844e-05
0.00010047
0.000136474
5.05546e-05
1.1328e-05
7.74975e-06
2.92913e-05
7.22692e-05
4.60965e-05
1.19455e-05
1.61285e-06
1.9269e-06
9.61784e-06
4.02759e-05
7.78926e-05
0.000106321
0.000132619
0.000143132
0.000138225
0.000137618
0.000154375
0.000187308
0.000224688
0.000258772
0.000284456
0.000290471
0.000268135
0.000223428
0.000174574
0.000135869
0.000109614
9.15174e-05
7.6102e-05
6.10958e-05
5.07373e-05
5.29559e-05
7.5088e-05
0.000114728
7.25893e-05
1.29191e-05
8.0084e-06
3.05077e-05
7.86767e-05
7.10522e-05
3.74631e-05
8.99868e-06
2.12194e-06
1.14985e-06
6.79822e-06
3.91955e-05
0.000122334
0.000181139
0.000187615
0.000164518
0.000135117
0.00012176
0.000132331
0.000162278
0.000195638
0.000219884
0.000233343
0.000233103
0.000214195
0.000177651
0.000135687
0.000102555
8.1697e-05
6.84837e-05
5.87442e-05
5.42633e-05
6.23054e-05
9.21093e-05
0.000133817
6.89895e-05
1.35582e-05
7.69066e-06
3.13862e-05
8.59438e-05
7.50303e-05
4.72244e-05
2.65683e-05
5.28396e-06
1.12145e-06
4.5889e-07
2.90864e-06
2.81295e-05
6.6346e-05
9.20654e-05
0.000122139
0.000144266
0.000143616
0.000137159
0.000140263
0.000153064
0.000167056
0.000173898
0.000170535
0.000157526
0.000137551
0.000115503
9.6473e-05
8.28146e-05
7.40348e-05
6.97449e-05
7.27248e-05
8.91762e-05
0.00011981
0.00012516
4.84443e-05
1.19907e-05
7.96044e-06
3.40879e-05
8.49761e-05
6.2528e-05
3.42493e-05
1.97683e-05
1.22716e-05
1.22841e-06
3.4063e-07
3.7294e-07
2.52194e-05
0.000130717
0.000124439
0.000102327
0.000108424
0.000137997
0.000167292
0.000173504
0.000164596
0.000154274
0.000146344
0.0001401
0.000133978
0.000126628
0.000117459
0.000106977
9.64675e-05
8.75091e-05
8.23976e-05
8.48145e-05
9.84791e-05
0.000119882
0.000125564
6.06424e-05
1.30629e-05
8.16747e-06
3.89978e-05
9.23865e-05
8.16723e-05
5.5979e-05
3.52386e-05
1.99914e-05
7.99613e-06
1.67297e-06
3.34302e-07
5.55909e-07
1.05657e-05
6.42034e-05
8.97045e-05
8.19851e-05
8.66776e-05
0.000114529
0.000162715
0.000201773
0.000206293
0.000187547
0.000162379
0.000138932
0.000119989
0.000105993
9.61823e-05
8.92437e-05
8.44444e-05
8.28957e-05
8.73609e-05
0.000100166
0.000119468
0.000134688
6.33924e-05
1.32045e-05
8.36131e-06
5.47866e-05
8.84591e-05
5.00313e-05
3.06164e-05
2.52231e-05
2.75611e-05
1.93892e-05
3.50205e-06
1.6895e-06
7.66336e-07
4.37722e-06
5.33083e-05
0.000190876
0.00017646
0.000129141
0.000108544
0.000116767
0.000148398
0.000184518
0.000192676
0.00017261
0.00014222
0.00011333
9.195e-05
7.96612e-05
7.50576e-05
7.62506e-05
8.2752e-05
9.55287e-05
0.000114351
0.000130258
9.65709e-05
3.4269e-05
9.18116e-06
7.30454e-06
3.60411e-05
7.52908e-05
7.93871e-05
6.4857e-05
3.9602e-05
2.86733e-05
2.48742e-05
1.25141e-05
4.90848e-07
3.60667e-07
8.86503e-07
4.34978e-06
3.26364e-05
0.000104026
0.000140123
0.000128884
0.000105455
9.3629e-05
9.57235e-05
0.000106997
0.000118456
0.000121716
0.000116963
0.000109555
0.00010377
0.000101887
0.000104903
0.000113207
0.000125558
0.000134082
0.000111602
5.46478e-05
2.00581e-05
5.22675e-06
7.73435e-06
6.03177e-05
9.02655e-05
6.59303e-05
5.29458e-05
4.51468e-05
3.71022e-05
3.46587e-05
3.32872e-05
1.52633e-05
1.14651e-06
9.84104e-07
6.25174e-07
1.52253e-06
1.88183e-05
6.64983e-05
0.000129639
0.000151169
0.000138252
0.000112309
9.03329e-05
7.87011e-05
7.62429e-05
8.02814e-05
8.83048e-05
9.88046e-05
0.000110946
0.000124043
0.000136656
0.00014482
0.000137004
9.14738e-05
4.03786e-05
1.64451e-05
3.4721e-06
6.92699e-06
3.56297e-05
9.83967e-05
0.0001075
8.18197e-05
5.54601e-05
4.09924e-05
3.39283e-05
3.60225e-05
4.59754e-05
3.51052e-05
9.92294e-06
2.51159e-06
3.35576e-07
4.42199e-07
4.00855e-06
1.7361e-05
4.77385e-05
9.39108e-05
0.000130165
0.000142215
0.000136218
0.000121247
0.000105875
9.56424e-05
9.17871e-05
9.36576e-05
9.98014e-05
0.000107745
0.000112519
0.00010191
6.48939e-05
3.3179e-05
1.84062e-05
3.10326e-06
6.97603e-06
4.83151e-05
0.000108426
9.8519e-05
8.85209e-05
8.41578e-05
7.41396e-05
5.52556e-05
3.94595e-05
3.47681e-05
4.15974e-05
5.09546e-05
3.49374e-05
1.05793e-05
3.51953e-06
8.52732e-08
1.65495e-06
3.95007e-06
1.16217e-05
3.05626e-05
5.78513e-05
9.02369e-05
0.000122174
0.000145693
0.000158058
0.000161827
0.000160203
0.000155911
0.000149869
0.000139163
0.000112883
6.96562e-05
3.93726e-05
2.39118e-05
2.81457e-06
7.48387e-06
4.47268e-05
0.000130489
0.000106303
6.92001e-05
5.66692e-05
6.1759e-05
7.15247e-05
6.77866e-05
5.26967e-05
4.21163e-05
4.07285e-05
4.65156e-05
5.09726e-05
3.83526e-05
1.69944e-05
3.80598e-06
4.86273e-07
1.79929e-06
3.14126e-06
6.72433e-06
1.70123e-05
3.15517e-05
5.32195e-05
8.16031e-05
0.000114165
0.000143579
0.000162103
0.000167028
0.000158409
0.00013176
8.41796e-05
4.38829e-05
2.56072e-05
2.48226e-06
7.3694e-06
4.22597e-05
0.000116927
0.000101021
7.2038e-05
6.34675e-05
7.09392e-05
8.58331e-05
9.37094e-05
8.38473e-05
6.45955e-05
5.00781e-05
4.42069e-05
4.54569e-05
5.04189e-05
5.17593e-05
4.1345e-05
2.40809e-05
1.03805e-05
1.65665e-06
3.92284e-07
3.24951e-06
1.92556e-06
4.43295e-06
1.16699e-05
2.23977e-05
3.81376e-05
5.73105e-05
7.84135e-05
9.53637e-05
9.59395e-05
6.50065e-05
2.96578e-05
1.39311e-05
2.1488e-06
8.0662e-06
4.84056e-05
0.000125646
8.75929e-05
5.41176e-05
4.49193e-05
5.12175e-05
7.18752e-05
0.000105862
0.000136059
0.000135471
0.000103077
7.16918e-05
5.61814e-05
5.26261e-05
5.52541e-05
5.79898e-05
5.48738e-05
4.40765e-05
2.99048e-05
1.7504e-05
7.83956e-06
4.54545e-07
3.96019e-06
2.71859e-06
2.07341e-06
8.57317e-07
6.1841e-06
1.04057e-05
1.6782e-05
2.20352e-05
1.99574e-05
1.06255e-05
6.37679e-06
3.41025e-06
7.93138e-06
4.32394e-05
0.000107772
7.92644e-05
5.62582e-05
5.23901e-05
5.97841e-05
7.34617e-05
9.05572e-05
0.000107615
0.000119016
0.00011688
9.78639e-05
7.45578e-05
6.02376e-05
5.63708e-05
5.92276e-05
6.34671e-05
6.38101e-05
5.80301e-05
4.78257e-05
3.62755e-05
2.51164e-05
1.51319e-05
6.29003e-06
2.65079e-06
7.20875e-07
3.84873e-06
7.72688e-07
8.77691e-07
2.44039e-06
2.10093e-06
2.48806e-06
1.28774e-05
6.90486e-06
7.59806e-06
3.74605e-05
9.7121e-05
8.36883e-05
5.58938e-05
4.08946e-05
3.84906e-05
4.73617e-05
7.02101e-05
0.0001081
0.000149247
0.000171518
0.000160548
0.000123083
8.77914e-05
6.95611e-05
6.5652e-05
7.0297e-05
7.7358e-05
8.12188e-05
7.91999e-05
7.18922e-05
6.08761e-05
4.77084e-05
3.29559e-05
1.56874e-05
3.51369e-06
1.58743e-06
2.82997e-06
3.17391e-06
5.38296e-07
2.03692e-06
5.13056e-06
2.45272e-05
9.17347e-06
7.10141e-06
3.11457e-05
8.74965e-05
9.99532e-05
8.49636e-05
5.59347e-05
3.54862e-05
2.94393e-05
3.48754e-05
5.21254e-05
8.31981e-05
0.000124487
0.000159245
0.00016444
0.000134867
9.9939e-05
8.25133e-05
8.29574e-05
9.62204e-05
0.000114895
0.000129362
0.000133365
0.000126296
0.000109739
8.54662e-05
5.37644e-05
1.60051e-05
3.88576e-06
3.89458e-07
1.57524e-06
7.72407e-07
3.08885e-06
1.8469e-05
3.56899e-05
9.00103e-06
6.76717e-06
2.88259e-05
8.24133e-05
0.000111808
0.000103626
7.43839e-05
4.27804e-05
2.68756e-05
2.47186e-05
3.42425e-05
5.73567e-05
9.54874e-05
0.000139689
0.000168016
0.000164122
0.000136756
0.000111631
0.000103054
0.000112187
0.000134952
0.000161475
0.000178149
0.000177075
0.000159379
0.000129448
9.1946e-05
4.92651e-05
8.91007e-06
5.51741e-06
8.18122e-07
3.36203e-07
1.36294e-06
2.33341e-05
2.29393e-05
8.01431e-06
7.43876e-06
3.43081e-05
0.000104626
0.000124417
0.000105523
8.09463e-05
5.66991e-05
3.596e-05
2.58168e-05
2.71282e-05
3.9972e-05
6.50764e-05
9.83911e-05
0.000127886
0.000143182
0.000145357
0.000142842
0.000143661
0.000151748
0.000165514
0.000178324
0.000182749
0.00017585
0.00015969
0.000137327
0.000110315
7.99689e-05
4.7285e-05
1.64712e-05
1.51912e-07
1.96704e-06
1.02432e-06
3.26436e-06
2.42709e-05
7.46897e-06
7.53673e-06
3.54825e-05
0.000103954
0.000118408
9.12294e-05
6.57706e-05
5.55312e-05
4.98228e-05
3.86659e-05
3.10549e-05
3.37663e-05
4.80473e-05
7.22941e-05
0.000100238
0.000125647
0.000145891
0.000160117
0.000168754
0.000173738
0.000176537
0.000176835
0.000173398
0.000165554
0.000153876
0.000139534
0.000123071
0.000104515
8.37336e-05
6.09059e-05
3.65965e-05
1.49402e-05
2.02725e-06
8.99583e-07
2.1453e-05