/*--------------------------------*- C++ -*----------------------------------*\
| =========                 |                                                 |
| \\      /  F ield         | OpenFOAM: The Open Source CFD Toolbox           |
|  \\    /   O peration     | Version:  v2006                                 |
|   \\  /    A nd           | Website:  www.openfoam.com                      |
|    \\/     M anipulation  |                                                 |
\*---------------------------------------------------------------------------*/
FoamFile
{
    version     2.0;
    format      ascii;
    class       volScalarField;
    location    "26";
    object      T;
}
// * * * * * * * * * * * * * * * * * * * * * * * * * * * * * * * * * * * * * //

dimensions      [0 0 0 1 0 0 0];


internalField   nonuniform List<scalar> 
78750
(
309.937
310.161
310.235
310.316
310.434
310.536
310.6
310.691
310.755
310.838
310.907
310.985
311.056
311.133
311.209
311.289
311.371
311.457
311.548
311.647
311.753
311.872
312.004
312.155
312.329
312.533
312.778
313.078
313.458
313.963
314.679
315.802
318.03
327.052
444.672
311.305
313.408
312.636
311.535
310.566
310.301
310.055
309.934
309.862
309.829
309.826
309.844
309.878
309.925
309.982
310.047
310.117
310.194
310.275
310.362
310.456
310.559
310.675
310.81
310.974
311.177
311.435
311.772
312.224
312.857
313.799
315.388
319.116
335.822
449.049
311.647
315.934
314.288
314.725
314.475
314.453
314.433
314.397
314.361
314.322
314.286
314.253
314.224
314.198
314.173
314.149
314.126
314.104
314.083
314.066
314.055
314.056
314.073
314.12
314.21
314.363
314.606
314.985
315.572
316.495
318.034
320.999
328.602
356.085
465.243
306.419
316.37
325.138
330.042
331.113
328.954
326.311
324.417
323.147
322.257
321.594
321.076
320.651
320.291
319.976
319.693
319.434
319.192
318.963
318.745
318.538
318.344
318.167
318.015
317.901
317.844
317.87
318.021
318.364
319.029
320.321
323.202
331.725
363.268
472.102
309.63
317.577
321.518
323.917
325.163
325.579
325.538
325.304
325.011
324.717
324.439
324.178
323.923
323.67
323.422
323.178
322.939
322.705
322.476
322.253
322.037
321.832
321.641
321.467
321.319
321.223
321.217
321.355
321.734
322.549
324.279
328.417
340.444
377.25
481.034
307.772
315.533
319.763
322.572
324.31
325.357
325.992
326.358
326.54
326.599
326.576
326.494
326.369
326.214
326.039
325.85
325.654
325.453
325.249
325.046
324.846
324.651
324.466
324.299
324.152
324.034
323.978
324.051
324.364
325.143
326.987
331.807
346.281
386.427
486.228
306.269
312.424
316.328
319.993
322.834
324.566
325.62
326.359
326.914
327.318
327.592
327.754
327.825
327.825
327.773
327.684
327.57
327.438
327.295
327.147
326.996
326.848
326.706
326.579
326.474
326.398
326.378
326.487
326.859
327.772
329.977
335.866
353.184
395.797
490.673
306.592
312.274
315.551
318.674
321.635
324.034
325.63
326.592
327.241
327.747
328.151
328.455
328.667
328.799
328.867
328.885
328.866
328.818
328.751
328.671
328.583
328.492
328.404
328.324
328.262
328.226
328.242
328.385
328.803
329.823
332.359
339.35
359.587
403.854
493.671
306.4
312.498
316.321
319.933
323.059
325.297
326.796
327.747
328.354
328.775
329.103
329.37
329.579
329.733
329.839
329.906
329.94
329.948
329.937
329.912
329.878
329.841
329.804
329.776
329.764
329.779
329.856
330.076
330.602
331.807
334.771
342.976
365.976
410.763
495.254
305.663
311.146
314.89
319.206
323.594
326.582
328.256
329.175
329.725
330.089
330.347
330.538
330.687
330.801
330.886
330.946
330.986
331.008
331.018
331.017
331.01
331
330.993
330.995
331.011
331.056
331.172
331.442
332.037
333.372
336.716
346.283
372.817
417.858
496.53
306.038
311.962
315.512
319.145
323.407
326.753
328.738
329.799
330.418
330.834
331.141
331.381
331.573
331.722
331.836
331.92
331.981
332.023
332.05
332.067
332.08
332.092
332.109
332.137
332.184
332.271
332.451
332.811
333.526
335.02
338.574
348.5
376.186
420.897
495.862
305.556
311.661
315.32
318.782
322.909
326.406
328.715
330.017
330.759
331.245
331.62
331.933
332.193
332.404
332.571
332.7
332.797
332.869
332.922
332.961
332.994
333.024
333.058
333.102
333.166
333.279
333.5
333.937
334.821
336.751
341.554
354.791
387.272
429.263
495.725
305.565
311.996
315.68
319.05
323.109
326.63
329.044
330.418
331.191
331.698
332.097
332.441
332.738
332.987
333.192
333.359
333.494
333.602
333.69
333.764
333.83
333.894
333.961
334.038
334.137
334.294
334.563
335.041
335.94
337.838
342.594
356.271
390.941
431.845
494.146
306.782
314.169
317.957
321.116
324.608
327.482
329.546
330.817
331.589
332.121
332.541
332.898
333.209
333.482
333.718
333.918
334.086
334.226
334.346
334.45
334.545
334.636
334.729
334.832
334.965
335.177
335.53
336.144
337.296
339.749
345.945
363.038
400.792
438.271
493.866
306.986
314.285
317.797
320.878
324.811
327.878
329.912
331.169
331.958
332.512
332.953
333.331
333.661
333.949
334.206
334.436
334.639
334.817
334.974
335.115
335.245
335.369
335.491
335.626
335.801
336.051
336.433
337.053
338.149
340.394
346.069
362.887
402.636
439.731
493.511
306.909
314.423
317.521
319.956
323.521
326.988
329.539
331.167
332.162
332.814
333.302
333.707
334.061
334.373
334.648
334.895
335.121
335.327
335.515
335.686
335.847
335.999
336.152
336.329
336.559
336.886
337.377
338.171
339.583
342.495
349.661
368.693
407.796
442.527
493.339
307.432
315.518
318.72
320.751
323.08
325.904
328.576
330.657
332.054
332.947
333.559
334.031
334.429
334.778
335.087
335.363
335.612
335.841
336.055
336.254
336.439
336.618
336.807
337.029
337.308
337.685
338.228
339.069
340.51
343.403
350.574
370.362
410.381
444.891
495.14
307.545
316.376
320.308
322.326
323.818
325.411
327.303
329.413
331.303
332.672
333.578
334.205
334.687
335.091
335.443
335.754
336.032
336.285
336.52
336.739
336.945
337.15
337.371
337.629
337.952
338.387
339.018
340.01
341.74
345.236
353.533
374.321
413.199
446.079
494.534
308.184
319.04
324.057
326.307
327.429
327.817
327.903
328.567
330.143
331.92
333.309
334.253
334.905
335.4
335.808
336.161
336.47
336.75
337.01
337.253
337.489
337.733
337.999
338.308
338.688
339.185
339.886
340.964
342.839
346.677
355.937
378.495
416.759
449.834
499.058
309.418
322.138
327.869
330.509
331.908
332.378
331.637
330.168
329.85
331.065
332.695
334.025
334.957
335.612
336.107
336.509
336.849
337.151
337.429
337.687
337.937
338.197
338.484
338.818
339.236
339.794
340.597
341.861
344.112
348.761
359.494
383.188
420.084
451.519
499.138
310.789
323.959
329.356
332.083
333.945
335.22
335.529
333.973
331.806
331.482
332.636
334.031
335.14
335.933
336.512
336.961
337.333
337.659
337.956
338.236
338.512
338.799
339.111
339.47
339.901
340.448
341.18
342.244
344.041
347.918
358.278
383.664
421.665
454.027
502.568
312.135
324.436
328.921
331.425
333.525
335.364
336.626
336.537
334.547
332.987
333.241
334.334
335.418
336.26
336.888
337.374
337.772
338.117
338.43
338.726
339.02
339.328
339.674
340.091
340.636
341.401
342.545
344.365
347.457
353.136
364.71
389.185
424.779
455.965
503.783
312.554
323.704
327.838
330.383
332.785
335.049
336.779
337.584
336.848
335.179
334.58
335.133
336.005
336.789
337.414
337.914
338.33
338.694
339.025
339.338
339.641
339.945
340.259
340.594
340.968
341.406
341.969
342.837
344.616
349.263
361.778
388.738
425.175
456.584
504.609
311.918
323.102
327.695
330.605
333.293
335.648
337.39
338.407
338.479
337.324
336.089
335.923
336.479
337.186
337.817
338.342
338.786
339.176
339.537
339.886
340.244
340.632
341.082
341.642
342.389
343.442
344.976
347.223
350.497
355.717
366.755
391.975
426.876
457.95
505.968
311.523
323.835
329.325
332.759
335.569
337.598
338.963
339.799
340.124
339.639
338.273
337.213
337.135
337.633
338.253
338.818
339.299
339.713
340.078
340.41
340.718
341.006
341.277
341.534
341.79
342.099
342.613
343.746
346.5
352.942
366.684
393.318
427.751
458.569
506.8
312.57
325.933
332.48
336.456
338.944
340.156
340.803
341.193
341.36
341.198
340.329
338.894
338.031
338.077
338.577
339.166
339.715
340.208
340.664
341.107
341.567
342.077
342.678
343.431
344.414
345.722
347.443
349.669
352.763
358.335
370.878
396.022
428.444
458.59
506.751
315.681
329.331
336.593
340.734
342.376
342.733
342.744
342.696
342.597
342.379
341.854
340.701
339.411
338.918
339.141
339.633
340.151
340.619
341.022
341.364
341.646
341.869
342.038
342.173
342.342
342.691
343.536
345.489
349.612
357.737
373.809
402.092
433.072
462.477
511.255
318.525
332.298
339.578
342.917
343.534
343.519
343.405
343.266
343.091
342.832
342.386
341.583
340.489
339.855
339.942
340.38
340.914
341.465
342.023
342.604
343.232
343.934
344.739
345.672
346.753
347.985
349.392
351.172
354.058
359.966
372.878
398.415
429.479
459.196
508.081
318.36
332.781
340.053
342.502
342.925
343.087
343.172
343.189
343.127
342.962
342.645
342.101
341.359
340.83
340.817
341.088
341.416
341.719
341.976
342.183
342.349
342.493
342.652
342.897
343.355
344.258
345.988
349.132
354.692
364.825
383.389
411.332
438.372
465.863
514.805
317.335
332.244
339.582
341.589
342
342.245
342.442
342.584
342.643
342.587
342.387
342.077
341.84
341.883
342.188
342.629
343.143
343.71
344.319
344.963
345.638
346.344
347.079
347.838
348.633
349.542
350.807
353.024
357.378
365.737
381.241
407.743
435.432
463.803
514.033
320.132
335.943
342.35
342.982
342.721
342.618
342.62
342.694
342.796
342.877
342.897
342.863
342.82
342.805
342.829
342.889
342.98
343.102
343.251
343.428
343.64
343.903
344.252
344.745
345.486
346.652
348.561
351.933
358.527
371.534
392.858
419.309
442.524
468.108
517.581
322.312
339.625
345.15
344.892
344.684
344.346
344.064
343.952
344.026
344.237
344.501
344.776
345.064
345.371
345.7
346.045
346.405
346.783
347.185
347.618
348.091
348.613
349.19
349.831
350.564
351.5
352.966
355.792
361.829
374.507
397.445
426.036
447.869
472.218
522.374
317.965
332.34
339.06
342.98
345.413
346.29
346.441
346.265
345.938
345.584
345.293
345.105
345.019
345.015
345.072
345.173
345.305
345.459
345.626
345.8
345.984
346.186
346.429
346.747
347.174
347.713
348.275
348.785
350.011
355.997
374.684
405.828
433.979
461.209
510.662
313.411
324.778
331.155
336.358
341.004
344.134
346.066
347.216
347.791
347.971
347.942
347.869
347.856
347.938
348.113
348.366
348.684
349.064
349.519
350.055
350.679
351.398
352.219
353.18
354.375
356.006
358.406
361.777
365.551
370.045
383.29
412.396
439.694
466.661
514.933
315.527
327.888
333.027
336.29
339.134
341.877
344.349
346.385
347.877
348.7
348.852
348.486
347.867
347.255
346.829
346.648
346.663
346.789
346.958
347.118
347.275
347.443
347.65
347.941
348.381
349.103
350.532
353.974
361.846
375.3
391.807
415.03
439.363
466.834
518.994
316.51
327.635
332.863
336.448
339.304
341.81
344.192
346.558
348.893
351.024
352.626
353.46
353.479
352.821
351.808
350.864
350.338
350.332
350.731
351.354
352.106
352.925
353.766
354.599
355.376
355.872
355.169
352.039
348.296
351.75
372.9
403.589
430.579
456.181
504.233
310.354
320.476
328.11
333.509
337.624
340.985
343.789
346.194
348.34
350.328
352.204
353.91
355.169
355.559
354.886
353.304
351.257
349.411
348.315
348.038
348.301
348.892
349.847
351.397
354.08
358.967
366.932
375.093
375.47
367.566
371.986
401.37
431.309
461.608
513.574
308.269
321.639
331.528
337.832
342.314
345.851
348.732
351.092
353.031
354.649
356.049
357.332
358.557
359.68
360.56
360.886
360.06
357.806
354.749
352.265
351.356
351.584
351.985
352.093
352.077
353.185
358.387
371.755
393.681
416.948
433.989
448.192
463.022
486.024
536.934
309.739
326.135
336.57
342.782
347.059
350.437
353.222
355.486
357.251
358.552
359.451
360.033
360.403
360.673
360.917
361.134
361.246
361.059
360.008
357.294
353.478
351.304
351.54
352.503
353.007
352.529
350.568
347.717
348.527
361.16
390.032
418.319
439.842
461.082
508.128
312.328
330.447
340.702
346.816
351.444
355.451
358.794
361.385
363.24
364.441
365.139
365.498
365.63
365.588
365.413
365.159
364.872
364.553
364.14
363.28
360.045
354.636
351.287
353.017
358.837
366.487
373.304
374.785
368.263
361.316
375.686
409.56
437.578
464.971
514.636
318.727
338.743
347.964
353.71
358.72
362.687
365.153
366.454
366.953
366.914
366.602
366.203
365.803
365.427
365.068
364.703
364.315
363.911
363.53
363.161
362.606
361.019
357.846
354.638
353.029
355.642
365.23
381.739
398.393
407.786
417.984
436.499
455.009
479.259
530.291
324.487
344.313
353.196
359.929
366.162
369.34
370.249
370.245
369.882
369.356
368.783
368.202
367.623
367.052
366.494
365.952
365.425
364.911
364.417
363.934
363.328
361.872
358.045
354.207
351.229
348.365
347.396
353.048
369.475
394.114
418.028
436.61
452.37
473.032
522.728
325.266
344.151
354.858
363.97
369.83
370.78
370.278
369.653
369.087
368.559
368.047
367.544
367.046
366.555
366.067
365.579
365.085
364.58
364.045
363.418
362.528
361.081
359.78
361.489
364.736
366.574
365.294
361.702
360.325
369.963
397.901
428.319
449.806
473.273
521.567
328.347
346.659
358.856
369.984
372.994
372.238
371.839
371.575
371.292
370.941
370.513
370.026
369.501
368.961
368.422
367.892
367.377
366.874
366.369
365.827
365.167
364.213
362.825
361.743
362.288
365.698
371.983
378.274
382.201
388.153
407.082
433.688
453.757
476.55
525.416
330.944
348.321
360.247
372.114
372.932
371.13
370.562
370.306
370.122
369.922
369.666
369.339
368.944
368.491
367.996
367.476
366.948
366.428
365.928
365.451
364.986
364.486
363.845
362.87
361.075
358.212
357.262
359.799
364.973
372.46
388.098
415.194
439.078
463.499
512.623
326.82
343.843
354.207
365.739
372.725
372.603
372.182
372.045
372.025
372.005
371.909
371.695
371.348
370.867
370.262
369.547
368.746
367.891
367.022
366.191
365.453
364.877
364.632
365.224
367.291
368.157
365.209
361.406
360.098
365.628
383.934
413.965
439.457
466.623
517.997
322.662
339.431
348.32
357.246
368.912
372.03
370.893
370.461
370.587
370.933
371.313
371.621
371.805
371.84
371.711
371.406
370.911
370.207
369.276
368.11
366.747
365.296
364.007
363.716
366.671
374.042
381.794
387.788
394.411
405.494
423.003
442.235
459.74
484.321
536.21
321.193
337.353
348.049
359.163
369.018
376.436
374.3
371.146
370.095
369.891
370.016
370.274
370.571
370.85
371.072
371.215
371.265
371.195
370.966
370.493
369.6
367.969
365.248
361.791
359.417
360.425
365.44
373.556
384.616
399.37
418.007
436.852
453.086
473.082
519.901
320.869
337.305
349.971
366.18
375.165
374.493
374.251
370.659
369.03
368.431
368.268
368.36
368.606
368.923
369.251
369.557
369.833
370.092
370.358
370.641
370.92
371.038
370.413
367.809
362.728
357.099
352.762
350.354
351.315
360.406
382.922
412.806
436.868
460.272
506.782
321.748
338.991
350.603
367.167
383.073
378.804
373.129
369.463
367.84
367.263
367.157
367.263
367.431
367.612
367.806
368.028
368.306
368.686
369.253
370.167
371.705
374.264
377.901
381.343
382.213
379.532
374.549
369.425
367.488
374.992
396.255
423.296
446.301
474.091
527.948
322.095
338.189
345.072
354.159
371.639
379.638
373.356
369.592
368.458
368.333
368.687
369.157
369.469
369.453
369.086
368.489
367.858
367.384
367.218
367.496
368.413
370.328
373.73
378.795
384.723
390.062
393.815
396.122
398.887
406.185
421.239
439.747
456.734
479.397
528.709
319.53
332.851
337.637
341.633
350.796
368.702
377.502
373.234
368.878
367.777
368.459
369.826
371.438
373.224
374.96
375.917
375.409
373.588
371.092
368.513
366.254
364.532
363.516
363.448
364.611
367.184
371.152
376.356
383.095
393.119
408.629
427.261
444.244
464.449
510.643
318.058
332.759
340.563
345.337
348.449
355.125
370.578
380.924
377.527
371.612
369.748
369.778
370.84
372.77
375.588
379.021
381.839
382.595
381.146
378.217
374.516
370.562
366.692
363.162
360.38
359.1
360.22
364.335
372.04
384.566
402.543
422.987
442.646
468.715
523.318
315.636
332.515
340.873
346.966
353.296
357.805
363.111
376.008
386.048
381.055
372.621
369.653
369.339
370.587
372.666
375.28
378.27
381.026
382.828
383.466
383.164
382.264
381.114
380.099
379.719
380.61
383.427
388.7
397.022
409.085
424.64
441.607
459.47
484.846
533.513
319.079
337.803
345.825
350.767
355.407
360.765
365.466
371.202
381.561
386.922
378.834
374.575
372.921
372.339
372.84
373.851
374.735
375.54
376.364
377.218
378.127
379.179
380.495
382.232
384.614
387.943
392.572
398.872
407.245
417.941
430.408
443.329
456.656
475.447
519.667
319.708
337.971
347.481
354.148
359.815
363.218
364.543
366.194
371.321
381.648
387.88
383.725
377.711
375.231
374.447
375.114
376.285
376.544
375.821
374.65
373.345
372.141
371.309
371.145
371.976
374.195
378.243
384.534
393.327
404.517
417.486
431.611
447.464
472.545
530.003
324.927
343.407
351.032
357.146
364.496
371.426
374.907
375.302
376.156
381.285
390.636
394.239
387.557
382.645
380.413
379.665
380.525
382.217
383.053
382.301
380.407
378.06
375.997
375.055
376.008
379.356
385.313
393.924
405.09
418.473
433.573
450.295
471.116
503.111
554.662
323.464
342.675
350.833
355.67
359.425
363.405
367.661
370.291
371.782
374.51
381.268
390.913
396.23
394.19
388.894
384.861
382.941
383.189
385.298
388.218
390.736
392.362
393.526
395.168
398.251
403.403
410.786
420.217
431.338
443.728
457.142
472.327
491.979
520.214
558.529
326.893
341.973
348.681
354.799
361.314
366.879
371.156
374.132
375.226
375.521
377.377
383.435
392.812
401.3
404.792
402.759
398.074
393.636
390.657
389.719
391.034
394.329
398.999
404.511
410.699
417.647
425.45
434.084
443.422
453.345
464.034
476.821
494.663
519.487
551.119
319.107
337.088
344.247
348.699
353.16
358.33
363.622
368.506
372.449
374.407
374.844
375.132
377.969
385.162
394.667
403.923
410.736
413.752
413.335
411.142
408.875
407.65
408.175
410.779
415.404
421.698
429.205
437.543
446.506
456.112
466.841
480.017
496.436
511.245
536.764
322.963
343.007
351.374
356.688
360.825
363.539
365.27
366.971
369.272
371.997
374.178
375.337
375.771
376.471
379.237
385.263
393.827
403.401
412.594
420.092
425.418
428.979
431.447
433.582
436.083
439.433
443.857
449.336
455.669
462.565
469.761
476.943
481.283
478.674
512.256
322.351
340.005
346.95
352.05
357.928
363.812
367.663
369.46
370.388
371.385
372.849
374.46
375.706
376.394
376.716
377.267
379.06
383.114
389.633
397.96
407.192
416.534
425.469
433.69
441.002
447.363
452.775
457.333
461.038
463.663
464.767
462.078
448.891
432.42
485.214
321.226
341.133
349.884
355.8
361.536
366.454
369.458
370.786
371.254
371.482
371.888
372.736
373.95
375.183
376.138
376.75
377.149
377.643
378.743
381.026
384.836
390.134
396.631
403.954
411.657
419.247
426.258
432.084
436.411
438.899
438.405
432.721
419.861
392.161
466.112
325.335
343.541
350.83
356.429
363.177
369.817
374.154
375.979
376.296
375.992
375.478
374.959
374.723
375.014
375.673
376.357
376.879
377.222
377.45
377.7
378.194
379.188
380.875
383.314
386.411
389.972
393.824
397.444
400.428
402.999
400.715
398.897
395.813
366.947
453.9
324.038
340.716
347.902
353.633
360.364
366.767
371.336
373.996
375.283
375.774
375.874
375.806
375.698
375.71
376.028
376.615
377.23
377.701
377.994
378.141
378.191
378.213
378.299
378.534
378.972
379.631
380.504
381.436
382.18
382.447
382.151
384.044
376.299
364.135
458.071
323.354
338.53
344.758
349.479
355.069
361.729
368.372
373.573
376.628
377.935
378.252
378.097
377.719
377.251
376.887
376.897
377.288
377.806
378.248
378.552
378.724
378.79
378.781
378.728
378.663
378.61
378.567
378.665
379.447
382.413
388.082
384.489
375.421
391.067
475.298
319.001
333.406
339.741
343.641
347.075
351.169
356.886
363.804
370.142
374.525
376.928
378.032
378.44
378.486
378.322
378.101
378.075
378.334
378.709
379.046
379.293
379.449
379.526
379.533
379.485
379.403
379.358
379.891
383.11
391.953
404.569
406.329
403.948
430.713
509.097
315.714
332.925
341.697
346.797
350.61
353.937
357.406
361.913
367.381
372.293
375.56
377.331
378.193
378.582
378.722
378.732
378.735
378.871
379.15
379.47
379.751
379.973
380.133
380.232
380.269
380.25
380.239
380.616
383.123
391.373
407.371
425.384
440.903
468.785
531.379
318.145
337.816
347.246
352.987
357.72
361.867
365.1
367.61
370.552
374.025
376.871
378.584
379.445
379.838
379.994
380.036
380.046
380.092
380.202
380.363
380.544
380.725
380.893
381.037
381.143
381.202
381.217
381.27
381.775
384.255
392.09
409.202
441.729
478.831
532.144
319.277
338.655
347.36
352.802
357.773
362.88
367.385
370.388
372.324
374.407
376.743
378.602
379.733
380.352
380.696
380.905
381.05
381.174
381.301
381.44
381.593
381.759
381.932
382.103
382.264
382.396
382.48
382.502
382.482
382.596
383.517
387.595
407.067
454.006
523.838
320.612
339.331
347.768
353.054
357.91
362.988
367.765
371.326
373.39
374.729
376.364
378.367
379.995
380.948
381.452
381.741
381.938
382.101
382.258
382.424
382.607
382.811
383.037
383.285
383.554
383.835
384.111
384.35
384.501
384.507
384.337
383.607
390.066
432.168
514.985
320.625
340.912
350.526
356.89
363.162
369.126
373.255
375.555
376.488
376.666
376.797
377.662
379.254
380.675
381.57
382.095
382.43
382.686
382.916
383.146
383.387
383.652
383.951
384.296
384.699
385.172
385.728
386.374
387.1
387.831
388.221
387.821
397.645
434.198
507.42
324.86
346.111
355.103
361.79
369.843
377.496
381.626
382.845
382.608
381.769
380.809
380.213
380.613
381.541
382.241
382.679
382.998
383.282
383.562
383.851
384.163
384.513
384.91
385.374
385.938
386.659
387.635
389.07
391.308
394.086
396.393
400.426
418.821
451.847
508.596
326.168
345.222
353.294
360.023
368.856
377.331
382.021
383.783
384.224
383.99
383.444
382.959
382.874
383.113
383.384
383.624
383.854
384.092
384.353
384.65
384.993
385.401
385.889
386.486
387.271
388.411
390.27
393.593
399.076
405.24
410.661
419.823
439.937
470.392
522.587
323.881
342.952
351.395
357.959
365.901
374.254
379.902
382.621
383.83
384.266
384.278
384.176
384.139
384.199
384.319
384.469
384.637
384.83
385.059
385.333
385.665
386.077
386.597
387.283
388.294
389.976
393.034
398.771
408.309
419.511
428.891
440.379
457.831
484.671
535.953
323.804
343.004
351.448
357.866
365.516
373.882
380.011
382.945
384.147
384.654
384.825
384.849
384.861
384.91
384.996
385.113
385.254
385.419
385.614
385.848
386.133
386.489
386.956
387.621
388.644
390.368
393.563
399.809
411.222
427.54
443.413
456.847
471.869
495.092
543.132
323.581
342.239
350.409
356.56
363.819
372.304
379.525
383.353
384.742
385.191
385.354
385.42
385.465
385.521
385.596
385.693
385.812
385.956
386.128
386.334
386.581
386.886
387.278
387.813
388.599
389.87
392.161
396.691
405.803
421.993
443.482
462.836
478.551
499.807
544.294
323.459
342.219
350.151
355.542
361.187
368.214
376.259
382.391
385.243
386.069
386.167
386.118
386.091
386.108
386.16
386.239
386.342
386.471
386.629
386.819
387.048
387.324
387.66
388.084
388.649
389.472
390.816
393.323
398.517
409.382
428.933
453.771
474.159
496.991
540.373
322.44
341.958
350.272
355.431
359.953
364.78
371.055
378.199
383.481
385.969
386.715
386.801
386.746
386.714
386.729
386.781
386.865
386.978
387.124
387.307
387.532
387.804
388.133
388.532
389.023
389.655
390.536
391.94
394.599
400.429
413.496
437.119
462.77
488.965
533.131
323.469
343.684
352.317
357.877
362.809
367.204
371.186
375.876
381.168
385.032
386.806
387.307
387.347
387.305
387.291
387.319
387.382
387.479
387.613
387.788
388.012
388.292
388.636
389.056
389.567
390.193
390.981
392.046
393.73
397.119
405.445
424.764
452.501
480.796
525.853
323.152
343.401
352.142
357.797
363.053
368.136
372.443
375.926
379.685
383.702
386.459
387.611
387.885
387.886
387.858
387.864
387.909
387.991
388.114
388.286
388.517
388.817
389.201
389.682
390.285
391.037
391.983
393.193
394.859
397.711
404.398
421.084
447.935
476.373
521.851
324.096
344.481
353.27
359.059
364.634
370.281
375.065
378.309
380.612
383.217
385.977
387.69
388.302
388.407
388.392
388.388
388.42
388.491
388.605
388.775
389.014
389.337
389.766
390.325
391.052
392.007
393.276
394.959
397.172
400.545
407.691
423.991
448.494
475.795
521.733
324.136
343.625
352.047
357.811
363.806
370.479
376.582
380.724
383.016
384.478
386.198
387.852
388.686
388.9
388.908
388.9
388.924
388.987
389.099
389.273
389.528
389.889
390.385
391.056
391.968
393.24
395.062
397.628
400.936
405.547
414.209
430.854
452.276
477.717
524.596
323.953
343.02
351.438
357.273
363.352
370.202
376.832
381.772
384.704
386.239
387.229
388.319
389.11
389.376
389.398
389.386
389.402
389.46
389.569
389.747
390.018
390.414
390.975
391.764
392.889
394.553
397.118
400.935
405.771
411.912
422.097
438.53
456.998
480.582
528.84
323.338
342.34
350.83
356.785
363.08
370.238
377.251
382.642
386.006
387.837
388.728
389.275
389.732
389.907
389.897
389.867
389.873
389.925
390.033
390.218
390.51
390.948
391.585
392.503
393.856
395.956
399.375
404.722
411.542
419.327
430.404
445.687
461.856
484.205
533.783
323.245
342.584
351.181
357.059
363.02
369.694
376.571
382.327
386.249
388.572
389.787
390.285
390.471
390.491
390.412
390.346
390.332
390.374
390.476
390.661
390.963
391.427
392.116
393.131
394.663
397.114
401.251
408.032
417.118
426.789
438.24
452.056
466.693
488.489
538.65
323.16
343.384
352.367
358.289
363.92
369.893
376.129
381.769
385.984
388.719
390.326
391.091
391.26
391.147
390.966
390.841
390.796
390.82
390.914
391.096
391.404
391.887
392.61
393.679
395.304
397.929
402.451
410.2
421.465
433.685
445.78
458.519
472.195
493.714
543.003
324.635
346.122
355.478
361.514
366.951
372.194
377.286
382.032
385.933
388.723
390.538
391.575
391.942
391.835
391.57
391.364
391.268
391.264
391.339
391.51
391.811
392.294
393.026
394.11
395.744
398.356
402.851
410.782
423.357
438.512
452.469
465.094
478.235
499.175
546.027
326.464
348.719
358.281
364.525
370.187
375.381
379.848
383.614
386.749
389.164
390.875
391.979
392.512
392.515
392.221
391.929
391.765
391.72
391.771
391.925
392.213
392.686
393.404
394.458
396.017
398.447
402.551
409.873
422.325
439.455
456.375
470.148
483.229
503.207
547.11
328.963
351.765
361.428
367.847
373.711
378.862
382.864
385.826
388.145
389.998
391.415
392.416
392.995
393.122
392.88
392.532
392.289
392.189
392.207
392.338
392.611
393.076
393.792
394.837
396.339
398.58
402.192
408.495
419.592
436.648
455.991
471.778
485.219
504.272
546.248
330.94
353.893
363.551
370.169
376.432
381.884
385.841
388.405
390.118
391.391
392.38
393.113
393.568
393.7
393.511
393.154
392.848
392.687
392.662
392.762
393.01
393.454
394.154
395.179
396.626
398.702
401.878
407.178
416.477
431.765
451.556
469.219
483.266
501.925
543.858
332.433
355.338
364.941
371.695
378.239
383.881
387.87
390.353
391.867
392.847
393.526
393.989
394.248
394.284
394.091
393.744
393.405
393.196
393.132
393.206
393.437
393.874
394.582
395.625
397.077
399.082
401.984
406.555
414.315
427.351
445.804
464.192
478.795
497.702
541.021
332.415
354.98
364.571
371.565
378.612
384.768
389.097
391.755
393.315
394.224
394.731
394.967
395.006
394.885
394.626
394.279
393.943
393.714
393.623
393.672
393.884
394.311
395.028
396.107
397.616
399.664
402.502
406.718
413.514
424.745
441.281
459.238
474.149
493.581
538.58
331.511
353.481
362.909
369.968
377.355
384.061
388.95
392.061
393.944
395.038
395.579
395.72
395.615
395.375
395.063
394.725
394.422
394.212
394.123
394.169
394.378
394.808
395.542
396.661
398.24
400.375
403.27
407.401
413.738
423.826
438.667
455.583
470.51
490.442
536.832
329.462
350.494
359.64
366.656
374.381
381.871
387.639
391.451
393.828
395.259
395.994
396.178
396.025
395.743
395.43
395.125
394.866
394.687
394.614
394.669
394.89
395.342
396.118
397.313
399.008
401.288
404.329
408.547
414.779
424.319
438.011
453.828
468.57
488.844
536.11
327.004
347.136
355.987
362.738
370.383
378.362
385
389.658
392.687
394.62
395.786
396.302
396.31
396.083
395.809
395.549
395.328
395.172
395.108
395.166
395.391
395.854
396.659
397.92
399.74
402.215
405.499
409.947
416.269
425.538
438.403
453.243
467.695
488.126
535.884
324.555
344.353
353.32
359.962
367.376
375.395
382.455
387.687
391.224
393.558
395.117
396.099
396.499
396.431
396.191
395.953
395.76
395.624
395.57
395.63
395.856
396.328
397.159
398.48
400.41
403.05
406.549
411.241
417.764
427.01
439.394
453.503
467.666
488.153
536.14
323.361
343.908
353.429
360.206
367.37
374.887
381.554
386.691
390.336
392.821
394.513
395.707
396.503
396.794
396.646
396.381
396.17
396.035
395.982
396.036
396.25
396.707
397.534
398.891
400.934
403.786
407.579
412.584
419.346
428.604
440.61
454.139
468.039
488.515
536.548
324.042
346.081
356.305
363.498
370.782
377.8
383.538
387.783
390.831
393.01
394.55
395.63
396.414
396.954
397.094
396.857
396.574
396.403
396.341
396.393
396.602
397.054
397.876
399.238
401.327
404.305
408.322
413.623
420.672
430.052
441.847
454.957
468.628
489.049
537.008
326.366
349.613
360.175
367.605
374.879
381.402
386.34
389.736
392.055
393.715
394.957
395.886
396.563
397.059
397.384
397.38
397.058
396.774
396.663
396.699
396.898
397.339
398.151
399.519
401.655
404.757
408.995
414.588
421.915
431.419
443.064
455.87
469.377
489.76
537.564
329.319
352.885
363.308
370.672
377.697
383.777
388.304
391.362
393.366
394.718
395.686
396.418
396.977
397.388
397.675
397.817
397.666
397.251
396.981
396.958
397.138
397.568
398.376
399.739
401.882
405.039
409.418
415.236
422.817
432.483
444.07
456.669
470.036
490.365
538.021
331.11
354.24
364.181
371.203
377.889
383.754
388.306
391.556
393.765
395.24
396.237
396.932
397.434
397.802
398.059
398.212
398.219
397.937
397.437
397.217
397.343
397.755
398.562
399.953
402.141
405.37
409.895
415.945
423.771
433.582
445.136
457.59
470.869
491.18
538.642
330.71
353.032
362.659
369.579
376.377
382.451
387.22
390.751
393.299
395.092
396.328
397.174
397.755
398.157
398.432
398.608
398.684
398.599
398.206
397.628
397.487
397.84
398.625
400.023
402.267
405.561
410.157
416.346
424.381
434.36
445.929
458.278
471.475
491.756
539.104
328.624
350.007
359.634
366.836
374.322
381.115
386.265
389.957
392.668
394.689
396.17
397.222
397.948
398.439
398.766
398.974
399.089
399.101
398.93
398.42
397.82
397.871
398.61
400.035
402.386
405.871
410.66
417.025
425.238
435.348
446.924
459.187
472.344
492.669
539.868
326.007
346.892
356.826
364.428
372.663
380.303
385.917
389.684
392.326
394.333
395.911
397.123
398.01
398.627
399.038
399.298
399.449
399.51
399.458
399.185
398.547
398.07
398.501
399.86
402.276
405.98
411.05
417.639
426.041
436.296
447.885
460.049
473.145
493.49
540.547
324.721
346.491
357.029
364.88
373.209
380.969
386.645
390.302
392.717
394.495
395.941
397.148
398.114
398.831
399.325
399.641
399.823