/*--------------------------------*- C++ -*----------------------------------*\
| =========                 |                                                 |
| \\      /  F ield         | OpenFOAM: The Open Source CFD Toolbox           |
|  \\    /   O peration     | Version:  v2012                                 |
|   \\  /    A nd           | Website:  www.openfoam.com                      |
|    \\/     M anipulation  |                                                 |
\*---------------------------------------------------------------------------*/
FoamFile
{
    version     2.0;
    format      ascii;
    class       surfaceScalarField;
    location    "30";
    object      phi;
}
// * * * * * * * * * * * * * * * * * * * * * * * * * * * * * * * * * * * * * //

dimensions      [1 0 -1 0 0 0 0];
oriented        oriented;


internalField   nonuniform List<scalar> 
228225
(
-6.49179e-09
9.78469e-09
-3.56308e-09
-2.40611e-08
2.71807e-08
-9.60782e-09
-4.97266e-08
3.74296e-08
-1.17647e-08
-8.21849e-08
4.5306e-08
-1.28485e-08
-1.19882e-07
5.12048e-08
-1.35057e-08
-1.6107e-07
5.51496e-08
-1.39626e-08
-2.04157e-07
5.74053e-08
-1.43203e-08
-2.47618e-07
5.81168e-08
-1.46542e-08
-2.90192e-07
5.75825e-08
-1.50072e-08
-3.30789e-07
5.60319e-08
-1.54356e-08
-3.68582e-07
5.37624e-08
-1.59706e-08
-4.0285e-07
5.09236e-08
-1.66501e-08
-4.33054e-07
4.76819e-08
-1.74832e-08
-4.58647e-07
4.40717e-08
-1.84791e-08
-4.79218e-07
4.02075e-08
-1.96335e-08
-4.9449e-07
3.61648e-08
-2.08951e-08
-5.04303e-07
3.20479e-08
-2.22328e-08
-5.08521e-07
2.788e-08
-2.36646e-08
-5.07132e-07
2.37459e-08
-2.51332e-08
-5.00212e-07
1.96809e-08
-2.66009e-08
-4.87912e-07
1.57315e-08
-2.80308e-08
-4.70447e-07
1.19238e-08
-2.93892e-08
-4.48091e-07
8.28746e-09
-3.06423e-08
-4.21175e-07
4.84165e-09
-3.17585e-08
-3.90075e-07
1.60727e-09
-3.27082e-08
-3.55211e-07
-1.39826e-09
-3.34624e-08
-3.17061e-07
-4.15731e-09
-3.39945e-08
-2.76149e-07
-6.63827e-09
-3.42755e-08
-2.3306e-07
-8.80908e-09
-3.42767e-08
-1.88485e-07
-1.06192e-08
-3.39565e-08
-1.43238e-07
-1.20026e-08
-3.32454e-08
-9.8414e-08
-1.28445e-08
-3.19781e-08
-5.57703e-08
-1.2935e-08
-2.97114e-08
-1.86729e-08
-1.19298e-08
-2.51631e-08
-7.43837e-09
-1.12368e-08
-2.09159e-08
5.17637e-08
-2.10632e-08
-6.5451e-08
9.38699e-08
-2.21542e-08
-1.177e-07
1.12514e-07
-2.28351e-08
-1.72906e-07
1.24569e-07
-2.40569e-08
-2.27589e-07
1.31193e-07
-2.53046e-08
-2.79115e-07
1.33139e-07
-2.64626e-08
-3.25365e-07
1.31251e-07
-2.75963e-08
-3.65231e-07
1.26708e-07
-2.87247e-08
-3.98334e-07
1.20531e-07
-2.98472e-08
-4.24766e-07
1.1338e-07
-3.09152e-08
-4.44834e-07
1.05726e-07
-3.18962e-08
-4.58947e-07
9.77964e-08
-3.27606e-08
-4.67435e-07
8.96895e-08
-3.35185e-08
-4.70688e-07
8.15144e-08
-3.41906e-08
-4.6911e-07
7.34221e-08
-3.47926e-08
-4.63154e-07
6.5528e-08
-3.53193e-08
-4.53235e-07
5.79055e-08
-3.57759e-08
-4.39794e-07
5.0602e-08
-3.61641e-08
-4.23236e-07
4.3681e-08
-3.64918e-08
-4.03967e-07
3.71694e-08
-3.67573e-08
-3.82359e-07
3.1085e-08
-3.69624e-08
-3.58763e-07
2.54354e-08
-3.71071e-08
-3.33505e-07
2.02221e-08
-3.71912e-08
-3.06892e-07
1.54407e-08
-3.72133e-08
-2.79198e-07
1.10835e-08
-3.71705e-08
-2.50681e-07
7.14165e-09
-3.70581e-08
-2.21578e-07
3.60657e-09
-3.68671e-08
-1.92098e-07
4.6839e-10
-3.65847e-08
-1.62467e-07
-2.25435e-09
-3.61871e-08
-1.32883e-07
-4.56342e-09
-3.56406e-08
-1.03558e-07
-6.42294e-09
-3.49028e-08
-7.47262e-08
-7.76318e-09
-3.39139e-08
-4.67598e-08
-8.45821e-09
-3.24445e-08
-2.07429e-08
-8.1328e-09
-2.98131e-08
-4.40672e-09
-2.37742e-08
-2.12074e-08
7.44424e-08
-1.47171e-09
-5.09685e-08
1.25549e-07
-1.91805e-09
-8.27104e-08
1.46518e-07
-2.26279e-09
-1.14528e-07
1.59337e-07
-2.95117e-09
-1.4488e-07
1.65485e-07
-3.93836e-09
-1.72521e-07
1.66058e-07
-5.27917e-09
-1.96668e-07
1.62435e-07
-7.03822e-09
-2.16837e-07
1.56224e-07
-9.34701e-09
-2.32809e-07
1.48564e-07
-1.20609e-08
-2.4456e-07
1.40072e-07
-1.49415e-08
-2.52267e-07
1.311e-07
-1.76685e-08
-2.56259e-07
1.21829e-07
-2.00394e-08
-2.56965e-07
1.12378e-07
-2.1982e-08
-2.54862e-07
1.02975e-07
-2.3565e-08
-2.50379e-07
9.38004e-08
-2.48609e-08
-2.43874e-07
8.49529e-08
-2.59303e-08
-2.3567e-07
7.65131e-08
-2.6811e-08
-2.26055e-07
6.85284e-08
-2.75416e-08
-2.1529e-07
6.10468e-08
-2.81316e-08
-2.03595e-07
5.40773e-08
-2.86031e-08
-1.91154e-07
4.76085e-08
-2.89651e-08
-1.7812e-07
4.16325e-08
-2.92313e-08
-1.64644e-07
3.61547e-08
-2.94079e-08
-1.50857e-07
3.11561e-08
-2.95035e-08
-1.36867e-07
2.66171e-08
-2.95224e-08
-1.22771e-07
2.25121e-08
-2.94681e-08
-1.08641e-07
1.88188e-08
-2.93407e-08
-9.45501e-08
1.55121e-08
-2.91355e-08
-8.05379e-08
1.25748e-08
-2.88425e-08
-6.66493e-08
9.99168e-09
-2.84412e-08
-5.29307e-08
7.75824e-09
-2.79009e-08
-3.94182e-08
5.87935e-09
-2.71557e-08
-2.61889e-08
4.3722e-09
-2.60597e-08
-1.33276e-08
3.25872e-09
-2.42509e-08
2.31728e-09
-2.0053e-08
-1.8496e-08
7.30528e-08
1.9886e-08
-3.06106e-08
1.17407e-07
2.02556e-08
-4.00927e-08
1.36342e-07
1.96595e-08
-4.85273e-08
1.48708e-07
1.90637e-08
-5.69874e-08
1.55665e-07
1.82799e-08
-6.62666e-08
1.58101e-07
1.7235e-08
-7.66317e-08
1.5725e-07
1.5552e-08
-8.74896e-08
1.54038e-07
1.30433e-08
-9.77909e-08
1.49135e-07
9.73096e-09
-1.06609e-07
1.42927e-07
5.961e-09
-1.13246e-07
1.35729e-07
2.00933e-09
-1.1739e-07
1.27782e-07
-1.80844e-09
-1.19098e-07
1.19363e-07
-5.27764e-09
-1.18655e-07
1.10755e-07
-8.22425e-09
-1.16448e-07
1.02251e-07
-1.06571e-08
-1.12836e-07
9.40457e-08
-1.27039e-08
-1.0813e-07
8.6277e-08
-1.44703e-08
-1.02647e-07
7.90288e-08
-1.59832e-08
-9.66517e-08
7.2342e-08
-1.72914e-08
-9.03613e-08
6.6198e-08
-1.84113e-08
-8.39424e-08
6.05618e-08
-1.93725e-08
-7.75378e-08
5.54118e-08
-2.0184e-08
-7.1258e-08
5.07341e-08
-2.08589e-08
-6.51867e-08
4.64892e-08
-2.14048e-08
-5.9374e-08
4.26371e-08
-2.18332e-08
-5.38517e-08
3.914e-08
-2.21503e-08
-4.86146e-08
3.59482e-08
-2.2364e-08
-4.36391e-08
3.30139e-08
-2.24789e-08
-3.885e-08
3.02828e-08
-2.24984e-08
-3.41342e-08
2.76966e-08
-2.24198e-08
-2.93089e-08
2.51675e-08
-2.22334e-08
-2.40883e-08
2.26013e-08
-2.19449e-08
-1.79464e-08
1.9859e-08
-2.16273e-08
-1.03132e-08
1.68694e-08
-2.12453e-08
1.13471e-08
-1.93421e-08
-1.34413e-08
6.03866e-08
2.61074e-08
-1.43983e-08
9.18308e-08
2.65337e-08
-1.0511e-08
1.06432e-07
2.60226e-08
-4.63787e-09
1.17102e-07
2.57331e-08
1.57859e-09
1.24294e-07
2.51544e-08
7.02331e-09
1.28591e-07
2.40656e-08
1.12323e-08
1.30548e-07
2.24919e-08
1.42359e-08
1.30575e-07
2.04586e-08
1.62967e-08
1.29016e-07
1.80574e-08
1.77197e-08
1.26148e-07
1.53572e-08
1.87571e-08
1.2221e-07
1.24797e-08
1.95957e-08
1.1743e-07
9.51509e-09
2.03443e-08
1.12032e-07
6.58136e-09
2.10845e-08
1.06256e-07
3.7611e-09
2.18694e-08
1.00328e-07
1.13601e-09
2.26808e-08
9.446e-08
-1.22549e-09
2.34183e-08
8.88257e-08
-3.28637e-09
2.3967e-08
8.35522e-08
-5.07338e-09
2.42244e-08
7.87045e-08
-6.61841e-09
2.4111e-08
7.42842e-08
-7.97481e-09
2.35545e-08
7.02731e-08
-9.15338e-09
2.24888e-08
6.66458e-08
-1.01689e-08
2.08887e-08
6.33683e-08
-1.1033e-08
1.87472e-08
6.03902e-08
-1.17613e-08
1.60846e-08
5.76642e-08
-1.23634e-08
1.29432e-08
5.51332e-08
-1.28528e-08
9.39885e-09
5.27327e-08
-1.32394e-08
5.57113e-09
5.03828e-08
-1.35411e-08
1.62697e-09
4.79984e-08
-1.37721e-08
-2.18888e-09
4.54645e-08
-1.39511e-08
-5.57827e-09
4.26299e-08
-1.4075e-08
-8.09136e-09
3.9301e-08
-1.41856e-08
-8.95604e-09
3.52278e-08
-1.45038e-08
-7.04756e-09
3.01433e-08
-1.51834e-08
1.94197e-08
-1.51191e-08
-6.00197e-09
4.65183e-08
1.98707e-08
-3.52342e-09
6.93389e-08
2.00125e-08
3.04454e-09
8.04697e-08
1.93943e-08
1.20302e-08
8.90724e-08
1.9044e-08
2.23945e-08
9.5399e-08
1.85317e-08
3.34169e-08
9.98225e-08
1.77453e-08
4.45243e-08
1.02727e-07
1.6713e-08
5.52637e-08
1.0434e-07
1.54959e-08
6.52807e-08
1.04885e-07
1.41153e-08
7.42915e-08
1.04524e-07
1.26122e-08
8.20677e-08
1.03422e-07
1.10119e-08
8.84249e-08
1.01714e-07
9.3598e-09
9.32302e-08
9.95414e-08
7.68307e-09
9.64411e-08
9.70256e-08
6.02022e-09
9.8077e-08
9.42948e-08
4.39655e-09
9.82183e-08
9.1476e-08
2.84363e-09
9.69844e-08
8.86807e-08
1.37829e-09
9.45436e-08
8.5977e-08
1.50594e-11
9.10486e-08
8.34115e-08
-1.21062e-09
8.66247e-08
8.10192e-08
-2.31239e-09
8.13831e-08
7.88058e-08
-3.29018e-09
7.54122e-08
7.67618e-08
-4.1471e-09
6.88132e-08
7.48602e-08
-4.89215e-09
6.16698e-08
7.30672e-08
-5.53228e-09
5.4078e-08
7.13328e-08
-6.0779e-09
4.61466e-08
6.96017e-08
-6.53773e-09
3.80074e-08
6.77979e-08
-6.92427e-09
2.98038e-08
6.58338e-08
-7.25047e-09
2.1749e-08
6.35913e-08
-7.53577e-09
1.4083e-08
6.09269e-08
-7.79717e-09
7.1105e-09
5.7644e-08
-8.04325e-09
1.2348e-09
5.34939e-08
-8.3155e-09
-2.82938e-09
4.81379e-08
-8.84591e-09
-4.00501e-09
4.11617e-08
-9.84352e-09
2.59356e-08
-1.05215e-08
-2.96318e-09
3.74309e-08
1.20513e-08
-1.44948e-09
5.68046e-08
1.10204e-08
2.95191e-09
6.60756e-08
9.99321e-09
9.22285e-09
7.33294e-08
9.47129e-09
1.66767e-08
7.89058e-08
9.03941e-09
2.48418e-08
8.31448e-08
8.51293e-09
3.33308e-08
8.63341e-08
7.90423e-09
4.17844e-08
8.86631e-08
7.22419e-09
4.99009e-08
9.02827e-08
6.48421e-09
5.74319e-08
9.13129e-08
5.68246e-09
6.41651e-08
9.18523e-08
4.83429e-09
6.99483e-08
9.1987e-08
3.94567e-09
7.46595e-08
9.17939e-08
3.03709e-09
7.82154e-08
9.13461e-08
2.12264e-09
8.05692e-08
9.0714e-08
1.2273e-09
8.17129e-08
8.9967e-08
3.64486e-10
8.16738e-08
8.91606e-08
-4.3966e-10
8.05042e-08
8.83283e-08
-1.18143e-09
7.82883e-08
8.74953e-08
-1.86803e-09
7.51288e-08
8.66711e-08
-2.49289e-09
7.11258e-08
8.58585e-08
-3.04947e-09
6.63811e-08
8.50454e-08
-3.53893e-09
6.09876e-08
8.42148e-08
-3.96003e-09
5.50389e-08
8.33329e-08
-4.31806e-09
4.86302e-08
8.23595e-08
-4.61638e-09
4.18613e-08
8.12331e-08
-4.86392e-09
3.48459e-08
7.9881e-08
-5.06795e-09
2.77248e-08
7.81992e-08
-5.2416e-09
2.06514e-08
7.60585e-08
-5.39614e-09
1.38441e-08
7.32802e-08
-5.54539e-09
7.55612e-09
6.96319e-08
-5.69991e-09
2.16815e-09
6.47984e-08
-5.9148e-09
-1.68059e-09
5.83558e-08
-6.37196e-09
-3.05355e-09
4.97473e-08
-7.20993e-09
3.06766e-08
-7.79519e-09
-5.84003e-10
3.15842e-08
6.43005e-09
-4.92043e-10
5.12774e-08
5.43637e-09
5.96832e-10
6.04351e-08
4.55104e-09
2.43382e-09
6.74655e-08
4.02672e-09
4.7935e-09
7.29107e-08
3.63588e-09
7.55551e-09
7.71384e-08
3.24371e-09
1.06486e-08
8.04256e-08
2.81619e-09
1.39697e-08
8.29798e-08
2.36172e-09
1.74122e-08
8.49577e-08
1.88255e-09
2.08569e-08
8.64804e-08
1.38743e-09
2.41895e-08
8.76411e-08
8.78847e-10
2.72953e-08
8.85151e-08
3.65341e-10
3.0073e-08
8.91617e-08
-1.44121e-10
3.24211e-08
8.96311e-08
-6.34502e-10
3.42841e-08
8.99628e-08
-1.11108e-09
3.56201e-08
9.01912e-08
-1.56064e-09
3.64177e-08
9.03413e-08
-1.97776e-09
3.66614e-08
9.04366e-08
-2.35501e-09
3.63634e-08
9.0486e-08
-2.69032e-09
3.55205e-08
9.04901e-08
-2.97661e-09
3.4153e-08
9.04415e-08
-3.21623e-09
3.22797e-08
9.03275e-08
-3.40837e-09
2.99319e-08
9.01213e-08
-3.55859e-09
2.71437e-08
8.979e-08
-3.66899e-09
2.39686e-08
8.92822e-08
-3.74738e-09
2.04645e-08
8.85357e-08
-3.79818e-09
1.67142e-08
8.74619e-08
-3.8312e-09
1.28162e-08
8.59512e-08
-3.85327e-09
8.90023e-09
8.38497e-08
-3.8761e-09
5.12377e-09
8.09625e-08
-3.90613e-09
1.69143e-09
7.70182e-08
-3.95377e-09
-1.12642e-09
7.16669e-08
-4.05115e-09
-2.87366e-09
6.44201e-08
-4.31715e-09
-2.93101e-09
5.46349e-08
-4.82982e-09
3.28708e-08
-5.12522e-09
-1.06865e-09
2.87894e-08
3.86372e-09
-1.90029e-09
4.8733e-08
3.3754e-09
-2.38892e-09
5.79839e-08
2.94046e-09
-2.66378e-09
6.50753e-08
2.66352e-09
-2.72892e-09
7.0546e-08
2.4302e-09
-2.56027e-09
7.4793e-08
2.17758e-09
-2.14219e-09
7.81089e-08
1.89859e-09
-1.47401e-09
8.0715e-08
1.59564e-09
-5.7098e-10
8.27774e-08
1.27868e-09
5.3548e-10
8.4423e-08
9.51113e-10
1.80351e-09
8.57489e-08
6.23372e-10
3.18879e-09
8.68305e-08
2.98635e-10
4.63735e-09
8.7726e-08
-9.87754e-12
6.07961e-09
8.84805e-08
-2.9557e-10
7.46987e-09
8.91291e-08
-5.52867e-10
8.74275e-09
8.96969e-08
-7.80639e-10
9.85439e-09
9.02016e-08
-9.70997e-10
1.07651e-08
9.06528e-08
-1.12494e-09
1.14329e-08
9.1054e-08
-1.23808e-09
1.18378e-08
9.13999e-08
-1.31398e-09
1.19521e-08
9.16785e-08
-1.35112e-09
1.17661e-08
9.18686e-08
-1.35598e-09
1.12782e-08
9.19408e-08
-1.32982e-09
1.04935e-08
9.18552e-08
-1.28176e-09
9.43283e-09
9.15589e-08
-1.21483e-09
8.12343e-09
9.09816e-08
-1.13941e-09
6.61646e-09
9.00308e-08
-1.05978e-09
4.97003e-09
8.85856e-08
-9.88199e-10
3.26379e-09
8.64871e-08
-9.30252e-10
1.59596e-09
8.35265e-08
-8.97355e-10
8.53729e-11
7.94246e-08
-8.94109e-10
-1.11664e-09
7.38139e-08
-9.46883e-10
-1.7659e-09
6.61948e-08
-1.12421e-09
-1.55639e-09
5.58985e-08
-1.47138e-09
3.30578e-08
-1.7454e-09
-1.96181e-09
2.72376e-08
3.51618e-09
-3.96014e-09
4.71159e-08
3.61043e-09
-5.83453e-09
5.62933e-08
3.56811e-09
-7.57005e-09
6.32895e-08
3.52055e-09
-9.10935e-09
6.86556e-08
3.42851e-09
-1.04007e-08
7.27945e-08
3.29172e-09
-1.14105e-08
7.60054e-08
3.1134e-09
-1.21176e-08
7.85137e-08
2.90699e-09
-1.25078e-08
8.04902e-08
2.67843e-09
-1.25893e-08
8.20637e-08
2.44026e-09
-1.23708e-08
8.33343e-08
2.19763e-09
-1.18813e-08
8.43773e-08
1.96274e-09
-1.11485e-08
8.52526e-08
1.73981e-09
-1.02112e-08
8.60039e-08
1.53975e-09
-9.1134e-09
8.66661e-08
1.36486e-09
-7.901e-09
8.72621e-08
1.22386e-09
-6.62535e-09
8.78091e-08
1.11614e-09
-5.3343e-09
8.83127e-08
1.04872e-09
-4.07182e-09
8.87747e-08
1.01786e-09
-2.88585e-09
8.91869e-08
1.0265e-09
-1.81147e-09
8.95359e-08
1.06802e-09
-8.82453e-10
8.97974e-08
1.14259e-09
-1.22983e-10
8.99404e-08
1.24085e-09
4.52715e-10
8.99205e-08
1.36068e-09
8.36565e-10
8.96828e-08
1.49052e-09
1.03992e-09
8.91536e-08
1.62536e-09
1.07868e-09
8.82407e-08
1.75209e-09
9.75265e-10
8.68219e-08
1.8659e-09
7.70897e-10
8.4741e-08
1.95264e-09
4.97969e-10
8.17911e-08
2.00714e-09
2.0543e-10
7.77019e-08
2.01509e-09
-5.45738e-11
7.21137e-08
1.96186e-09
-2.05853e-10
6.45476e-08
1.79633e-09
-1.54992e-10
5.43576e-08
1.4909e-09
3.18466e-08
1.056e-09
-2.83701e-09
2.62587e-08
3.81631e-09
-5.56694e-09
4.54806e-08
4.36423e-09
-8.19418e-09
5.43294e-08
4.59179e-09
-1.0652e-08
6.10496e-08
4.69696e-09
-1.28686e-08
6.61692e-08
4.7026e-09
-1.4788e-08
7.00814e-08
4.63405e-09
-1.63762e-08
7.3079e-08
4.51259e-09
-1.75944e-08
7.53858e-08
4.3484e-09
-1.84313e-08
7.71688e-08
4.15747e-09
-1.88762e-08
7.85593e-08
3.94779e-09
-1.89302e-08
7.96552e-08
3.734e-09
-1.86125e-08
8.0536e-08
3.52249e-09
-1.79451e-08
8.12598e-08
3.32638e-09
-1.6966e-08
8.18748e-08
3.14999e-09
-1.57182e-08
8.24141e-08
3.00421e-09
-1.42513e-08
8.29047e-08
2.89057e-09
-1.2621e-08
8.3361e-08
2.81706e-09
-1.08825e-08
8.37931e-08
2.78182e-09
-9.09626e-09
8.41989e-08
2.78951e-09
-7.31786e-09
8.45733e-08
2.83466e-09
-5.59936e-09
8.48981e-08
2.91846e-09
-3.98537e-09
8.5152e-08
3.03199e-09
-2.51626e-09
8.52987e-08
3.17338e-09
-1.22269e-09
8.52959e-08
3.33117e-09
-1.26042e-10
8.50831e-08
3.50131e-09
7.6819e-10
8.45906e-08
3.6702e-09
1.4542e-09
8.37234e-08
3.83195e-09
1.9362e-09
8.23676e-08
3.97136e-09
2.22584e-09
8.03698e-08
4.08141e-09
2.33352e-09
7.75375e-08
4.1462e-09
2.26447e-09
7.36132e-08
4.15746e-09
2.02457e-09
6.82627e-08
4.09123e-09
1.62357e-09
6.10393e-08
3.9098e-09
1.06598e-09
5.13457e-08
3.56848e-09
2.99967e-08
2.91647e-09
-2.96566e-09
2.55087e-08
3.71487e-09
-5.90488e-09
4.39223e-08
4.49997e-09
-8.80395e-09
5.23705e-08
4.85686e-09
-1.15383e-08
5.87502e-08
5.0327e-09
-1.40134e-08
6.35717e-08
5.07402e-09
-1.61691e-08
6.72075e-08
5.0288e-09
-1.79517e-08
6.99454e-08
4.9167e-09
-1.93226e-08
7.19997e-08
4.75677e-09
-2.02523e-08
7.35383e-08
4.55992e-09
-2.07235e-08
7.46885e-08
4.34312e-09
-2.07369e-08
7.55528e-08
4.11594e-09
-2.03058e-08
7.62093e-08
3.89383e-09
-1.94519e-08
7.67228e-08
3.68431e-09
-1.82179e-08
7.71409e-08
3.50049e-09
-1.66561e-08
7.75036e-08
3.34702e-09
-1.4819e-08
7.78369e-08
3.23392e-09
-1.27841e-08
7.81614e-08
3.16227e-09
-1.06134e-08
7.84846e-08
3.13844e-09
-8.38429e-09
7.88098e-08
3.15949e-09
-6.16445e-09
7.91269e-08
3.22784e-09
-4.02506e-09
7.94218e-08
3.33648e-09
-2.02314e-09
7.96664e-08
3.48402e-09
-2.12591e-10
7.98278e-08
3.65978e-09
1.36689e-09
7.98576e-08
3.85906e-09
2.68117e-09
7.97001e-08
4.06818e-09
3.71202e-09
7.92801e-08
4.27997e-09
4.44665e-09
7.85096e-08
4.47861e-09
4.88794e-09
7.72722e-08
4.65537e-09
5.03655e-09
7.54269e-08
4.79323e-09
4.90587e-09
7.2786e-08
4.88272e-09
4.49948e-09
6.91143e-08
4.90531e-09
3.82431e-09
6.40944e-08
4.84357e-09
2.89352e-09
5.73193e-08
4.65068e-09
1.72755e-09
4.82314e-08
4.27931e-09
2.82383e-08
3.4868e-09
-2.56425e-09
2.52688e-08
2.8024e-09
-5.37385e-09
4.31465e-08
3.58758e-09
-8.27618e-09
5.13156e-08
3.95668e-09
-1.10898e-08
5.74418e-08
4.12209e-09
-1.36834e-08
6.20172e-08
4.14752e-09
-1.59613e-08
6.5407e-08
4.0791e-09
-1.78492e-08
6.78918e-08
3.94251e-09
-1.9288e-08
6.96873e-08
3.7509e-09
-2.02311e-08
7.09595e-08
3.52135e-09
-2.06508e-08
7.18421e-08
3.26608e-09
-2.05374e-08
7.24384e-08
3.00232e-09
-1.99074e-08
7.28354e-08
2.74138e-09
-1.87815e-08
7.31003e-08
2.4989e-09
-1.72156e-08
7.32903e-08
2.28357e-09
-1.52661e-08
7.34474e-08
2.10791e-09
-1.30118e-08
7.3606e-08
1.97691e-09
-1.05377e-08
7.37864e-08
1.89913e-09
-7.92968e-09
7.40031e-08
1.87514e-09
-5.2839e-09
7.42564e-08
1.90885e-09
-2.69565e-09
7.45406e-08
1.99598e-09
-2.46518e-10
7.4836e-08
2.13565e-09
1.98495e-09
7.51166e-08
2.31888e-09
3.93264e-09
7.53417e-08
2.54042e-09
5.53746e-09
7.54637e-08
2.78734e-09
6.76937e-09
7.54187e-08
3.05087e-09
7.60114e-09
7.51331e-08
3.31508e-09
8.02938e-09
7.45118e-08
3.56891e-09
8.06294e-09
7.34435e-08
3.79521e-09
7.72424e-09
7.17837e-08
3.98247e-09
7.04159e-09
6.93548e-08
4.11393e-09
6.05417e-09
6.59254e-08
4.17755e-09
4.80096e-09
6.11971e-08
4.14954e-09
3.34861e-09
5.47805e-08
3.99026e-09
1.78748e-09
4.6154e-08
3.64065e-09
2.71479e-08
2.87712e-09
-1.80994e-09
2.5812e-08
1.26925e-09
-4.31954e-09
4.37727e-08
1.87984e-09
-7.11697e-09
5.19393e-08
2.17349e-09
-9.95408e-09
5.80052e-08
2.27514e-09
-1.26474e-08
6.24696e-08
2.24164e-09
-1.50621e-08
6.5701e-08
2.11999e-09
-1.7089e-08
6.79892e-08
1.9285e-09
-1.86389e-08
6.95542e-08
1.68329e-09
-1.96472e-08
7.05732e-08
1.39612e-09
-2.0075e-08
7.11847e-08
1.08428e-09
-1.99021e-08
7.15047e-08
7.61069e-10
-1.91376e-08
7.16256e-08
4.44456e-10
-1.78112e-08
7.16274e-08
1.4749e-10
-1.598e-08
7.15723e-08
-1.13478e-10
-1.37171e-08
7.15134e-08
-3.282e-10
-1.11132e-08
7.14887e-08
-4.85988e-10
-8.27476e-09
7.15281e-08
-5.81742e-10
-5.30881e-09
7.16463e-08
-6.0841e-10
-2.33528e-09
7.18492e-08
-5.66831e-10
5.35197e-10
7.2127e-08
-4.56208e-10
3.19221e-09
7.24616e-08
-2.83356e-10
5.5423e-09
7.28191e-08
-5.34258e-11
7.50689e-09
7.31574e-08
2.20934e-10
9.0229e-09
7.34181e-08
5.29477e-10
1.00509e-08
7.35342e-08
8.55759e-10
1.0576e-08
7.34212e-08
1.18632e-09
1.06038e-08
7.29815e-08
1.5033e-09
1.01588e-08
7.20933e-08
1.79468e-09
9.28776e-09
7.06121e-08
2.04325e-09
8.05296e-09
6.83532e-08
2.23737e-09
6.52732e-09
6.50877e-08
2.36154e-09
4.81121e-09
6.0514e-08
2.39955e-09
3.03143e-09
5.42491e-08
2.31132e-09
1.36493e-09
4.57753e-08
2.0468e-09
2.70488e-08
1.46288e-09
-1.06424e-09
2.72727e-08
-3.96988e-10
-3.23453e-09
4.59903e-08
-4.55251e-11
-5.88775e-09
5.4458e-08
1.31868e-10
-8.71346e-09
6.06876e-08
1.43794e-10
-1.14828e-08
6.52001e-08
3.82467e-11
-1.40176e-08
6.83892e-08
-1.51457e-10
-1.61828e-08
7.0559e-08
-4.06023e-10
-1.78619e-08
7.19494e-08
-7.15871e-10
-1.89705e-08
7.2749e-08
-1.06721e-09
-1.9452e-08
7.31135e-08
-1.44696e-09
-1.92772e-08
7.31681e-08
-1.83766e-09
-1.84482e-08
7.30209e-08
-2.22415e-09
-1.69932e-08
7.27598e-08
-2.58733e-09
-1.49734e-08
7.24623e-08
-2.91115e-09
-1.2469e-08
7.21887e-08
-3.17792e-09
-9.59487e-09
7.19894e-08
-3.3755e-09
-6.46926e-09
7.18973e-08
-3.49412e-09
-3.2268e-09
7.19341e-08
-3.53098e-09
9.70164e-13
7.21041e-08
-3.4827e-09
3.08038e-09
7.24006e-08
-3.35257e-09
5.88669e-09
7.2799e-08
-3.14372e-09
8.30873e-09
7.32639e-08
-2.86604e-09
1.02527e-08
7.37425e-08
-2.53012e-09
1.16533e-08
7.41712e-08
-2.15357e-09
1.24721e-08
7.44694e-08
-1.75375e-09
1.26978e-08
7.4546e-08
-1.35055e-09
1.23489e-08
7.42898e-08
-9.59097e-10
1.1469e-08
7.35717e-08
-5.97775e-10
1.01286e-08
7.22322e-08
-2.79607e-10
8.41963e-09
7.0078e-08
-1.70343e-11
6.4672e-09
6.68639e-08
1.77001e-10
4.41232e-09
6.2279e-08
2.90269e-10
2.44669e-09
5.59214e-08
2.9297e-10
8.1814e-10
4.72601e-08
1.43579e-10
2.80442e-08
-1.76679e-10
-5.16348e-10
2.95362e-08
-1.74599e-09
-2.40909e-09
4.95115e-08
-1.62979e-09
-4.90154e-09
5.8515e-08
-1.56459e-09
-7.65987e-09
6.50838e-08
-1.63753e-09
-1.04262e-08
6.97797e-08
-1.81351e-09
-1.30006e-08
7.30267e-08
-2.06362e-09
-1.52205e-08
7.51572e-08
-2.37741e-09
-1.69564e-08
7.64313e-08
-2.74483e-09
-1.81127e-08
7.70596e-08
-3.15612e-09
-1.86128e-08
7.72126e-08
-3.59702e-09
-1.84258e-08
7.70339e-08
-4.05436e-09
-1.75387e-08
7.6643e-08
-4.50775e-09
-1.59895e-08
7.61441e-08
-4.93325e-09
-1.38469e-08
7.56245e-08
-5.30562e-09
-1.12084e-08
7.51593e-08
-5.60891e-09
-8.1919e-09
7.48043e-08
-5.83103e-09
-4.93083e-09
7.46014e-08
-5.96598e-09
-1.56121e-09
7.45732e-08
-6.00842e-09
1.77389e-09
7.47282e-08
-5.95799e-09
4.93227e-09
7.50563e-08
-5.81476e-09
7.78324e-09
7.55327e-08
-5.58367e-09
1.02025e-08
7.6114e-08
-5.27025e-09
1.20893e-08
7.67426e-08
-4.88651e-09
1.33668e-08
7.73425e-08
-4.4492e-09
1.3996e-08
7.78246e-08
-3.98426e-09
1.39748e-08
7.80829e-08
-3.51646e-09
1.33377e-08
7.79958e-08
-3.06705e-09
1.21404e-08
7.74175e-08
-2.64915e-09
1.04736e-08
7.61748e-08
-2.27604e-09
8.45606e-09
7.40538e-08
-1.95706e-09
6.23002e-09
7.0791e-08
-1.70171e-09
3.97666e-09
6.60509e-08
-1.51934e-09
1.92907e-09
5.94052e-08
-1.43415e-09
3.77779e-10
5.02871e-08
-1.4761e-09
2.99928e-08
-1.57085e-09
-2.8704e-10
3.23301e-08
-2.50779e-09
-2.00899e-09
5.37874e-08
-2.55228e-09
-4.36534e-09
6.34361e-08
-2.56625e-09
-7.01897e-09
7.04351e-08
-2.697e-09
-9.71018e-09
7.53874e-08
-2.91774e-09
-1.22306e-08
7.87557e-08
-3.20799e-09
-1.44131e-08
8.0899e-08
-3.55914e-09
-1.61212e-08
8.21046e-08
-3.96483e-09
-1.72492e-08
8.26019e-08
-4.41586e-09
-1.77146e-08
8.25825e-08
-4.90271e-09
-1.74769e-08
8.22042e-08
-5.40901e-09
-1.65288e-08
8.16046e-08
-5.90947e-09
-1.49117e-08
8.08997e-08
-6.37243e-09
-1.27058e-08
8.01911e-08
-6.77282e-09
-1.00145e-08
7.95613e-08
-7.09393e-09
-6.95897e-09
7.90765e-08
-7.32812e-09
-3.6693e-09
7.87822e-08
-7.46968e-09
-2.87522e-10
7.87072e-08
-7.51618e-09
3.04769e-09
7.88591e-08
-7.46591e-09
6.19471e-09
7.92294e-08
-7.32038e-09
9.02021e-09
7.97881e-08
-7.08182e-09
1.14024e-08
8.0489e-08
-6.75557e-09
1.32286e-08
8.12645e-08
-6.34907e-09
1.44193e-08
8.20312e-08
-5.87901e-09
1.49288e-08
8.26863e-08
-5.37084e-09
1.47552e-08
8.31126e-08
-4.85687e-09
1.39427e-08
8.31713e-08
-4.36321e-09
1.25641e-08
8.27033e-08
-3.90638e-09
1.07188e-08
8.15156e-08
-3.49567e-09
8.53389e-09
7.93771e-08
-3.1399e-09
6.1717e-09
7.59992e-08
-2.84536e-09
3.82143e-09
7.10207e-08
-2.61966e-09
1.72941e-09
6.39765e-08
-2.48014e-09
2.04316e-10
5.4261e-08
-2.44992e-09
3.25889e-08
-2.39022e-09
-3.00913e-10
3.53182e-08
-2.68725e-09
-1.98802e-09
5.82623e-08
-2.78802e-09
-4.28244e-09
6.85646e-08
-2.83374e-09
-6.86645e-09
7.60045e-08
-2.98567e-09
-9.48412e-09
8.12285e-08
-3.22255e-09
-1.19355e-08
8.47332e-08
-3.52632e-09
-1.40527e-08
8.69079e-08
-3.89119e-09
-1.57009e-08
8.80627e-08
-4.31123e-09
-1.67679e-08
8.84492e-08
-4.78074e-09
-1.71705e-08
8.8276e-08
-5.28952e-09
-1.68662e-08
8.77189e-08
-5.81877e-09
-1.58538e-08
8.6929e-08
-6.33691e-09
-1.41817e-08
8.60376e-08
-6.8107e-09
-1.19325e-08
8.51567e-08
-7.21468e-09
-9.21422e-09
8.43801e-08
-7.53616e-09
-6.14912e-09
8.37801e-08
-7.76898e-09
-2.86456e-09
8.34092e-08
-7.91023e-09
4.99682e-10
8.32979e-08
-7.95712e-09
3.81288e-09
8.34567e-08
-7.90935e-09
6.93334e-09
8.38747e-08
-7.76708e-09
9.73527e-09
8.45206e-08
-7.53292e-09
1.20912e-08
8.53413e-08
-7.20952e-09
1.38954e-08
8.6264e-08
-6.80284e-09
1.50586e-08
8.71939e-08
-6.32553e-09
1.55296e-08
8.80186e-08
-5.80324e-09
1.53058e-08
8.86059e-08
-5.26962e-09
1.4431e-08
8.8804e-08
-4.75666e-09
1.29802e-08
8.84363e-08
-4.28359e-09
1.10652e-08
8.72933e-08
-3.86041e-09
8.81077e-09
8.51225e-08
-3.4926e-09
6.38448e-09
8.16128e-08
-3.18587e-09
3.97485e-09
7.6374e-08
-2.94548e-09
1.83079e-09
6.89078e-08
-2.78743e-09
2.58937e-10
5.85667e-08
-2.73078e-09
3.54651e-08
-2.61893e-09
-4.89499e-10
3.82075e-08
-2.40217e-09
-2.24622e-09
6.2488e-08
-2.46599e-09
-4.56121e-09
7.33765e-08
-2.499e-09
-7.1249e-09
8.12103e-08
-2.64092e-09
-9.69921e-09
8.66723e-08
-2.869e-09
-1.20923e-08
9.02914e-08
-3.16543e-09
-1.41426e-08
9.24819e-08
-3.52366e-09
-1.57176e-08
9.3577e-08
-3.93903e-09
-1.67073e-08
9.38469e-08
-4.40691e-09
-1.70346e-08
9.35182e-08
-4.91722e-09
-1.6649e-08
9.2782e-08
-5.44703e-09
-1.55639e-08
9.18047e-08
-5.96208e-09
-1.38275e-08
9.073e-08
-6.42792e-09
-1.15317e-08
8.96821e-08
-6.82146e-09
-8.7823e-09
8.87635e-08
-7.13233e-09
-5.70035e-09
8.80547e-08
-7.35701e-09
-2.4097e-09
8.76127e-08
-7.49309e-09
9.54415e-10
8.74719e-08
-7.53894e-09
4.26249e-09
8.76434e-08
-7.49382e-09
7.37924e-09
8.81158e-08
-7.35837e-09
1.01801e-08
8.88544e-08
-7.1341e-09
1.25433e-08
8.98017e-08
-6.82324e-09
1.43587e-08
9.08769e-08
-6.42917e-09
1.55396e-08
9.1977e-08
-5.96221e-09
1.60244e-08
9.29774e-08
-5.44556e-09
1.58126e-08
9.37338e-08
-4.91387e-09
1.4938e-08
9.40794e-08
-4.40171e-09
1.34845e-08
9.38225e-08
-3.93217e-09
1.15571e-08
9.27361e-08
-3.51529e-09
9.28497e-09
9.05493e-08
-3.15547e-09
6.82845e-09
8.69283e-08
-2.85724e-09
4.36977e-09
8.14582e-08
-2.62673e-09
2.14969e-09
7.36092e-08
-2.48041e-09
4.59181e-10
6.26976e-08
-2.43955e-09
3.82901e-08
-2.36675e-09
-7.77905e-10
4.07946e-08
-1.80944e-09
-2.68547e-09
6.61655e-08
-1.76994e-09
-5.07587e-09
7.75278e-08
-1.75883e-09
-7.67106e-09
8.56708e-08
-1.86831e-09
-1.02338e-08
9.13076e-08
-2.07075e-09
-1.25896e-08
9.49923e-08
-2.34522e-09
-1.45855e-08
9.71613e-08
-2.6838e-09
-1.60939e-08
9.81665e-08
-3.08154e-09
-1.70088e-08
9.82962e-08
-3.53463e-09
-1.72512e-08
9.77924e-08
-4.03182e-09
-1.6782e-08
9.68616e-08
-4.54787e-09
-1.56161e-08
9.5684e-08
-5.04655e-09
-1.38063e-08
9.44163e-08
-5.49433e-09
-1.14497e-08
9.31935e-08
-5.87002e-09
-8.64745e-09
9.21282e-08
-6.16572e-09
-5.52199e-09
9.13075e-08
-6.37899e-09
-2.1962e-09
9.07944e-08
-6.50825e-09
1.20414e-09
9.0626e-08
-6.55196e-09
4.53932e-09
9.08149e-08
-6.50971e-09
7.69157e-09
9.13484e-08
-6.38185e-09
1.05242e-08
9.21889e-08
-6.16983e-09
1.29292e-08
9.32737e-08
-5.87513e-09
1.47894e-08
9.4515e-08
-5.50009e-09
1.60202e-08
9.58e-08
-5.05258e-09
1.65564e-08
9.69936e-08
-4.55383e-09
1.63882e-08
9.79385e-08
-4.03747e-09
1.55555e-08
9.84545e-08
-3.53985e-09
1.41289e-08
9.83344e-08
-3.08632e-09
1.22157e-08
9.7336e-08
-2.68809e-09
9.94468e-09
9.51706e-08
-2.34881e-09
7.46102e-09
9.14859e-08
-2.07328e-09
4.94183e-09
8.58451e-08
-1.86913e-09
2.61446e-09
7.76937e-08
-1.75627e-09
7.55001e-10
6.63181e-08
-1.76121e-09
4.08387e-08
-1.7929e-09
-1.10151e-09
4.29828e-08
-1.08609e-09
-3.18893e-09
6.9165e-08
-9.12403e-10
-5.69088e-09
8.08719e-08
-8.41766e-10
-8.33983e-09
8.92258e-08
-9.0798e-10
-1.09165e-08
9.49615e-08
-1.07642e-09
-1.32538e-08
9.86519e-08
-1.32183e-09
-1.52101e-08
1.00751e-07
-1.63431e-09
-1.66618e-08
1.01626e-07
-2.00841e-09
-1.75058e-08
1.01582e-07
-2.43973e-09
-1.76722e-08
1.00873e-07
-2.91559e-09
-1.71225e-08
9.97222e-08
-3.40947e-09
-1.58761e-08
9.83217e-08
-3.88516e-09
-1.39893e-08
9.68414e-08
-4.31045e-09
-1.15572e-08
9.54275e-08
-4.66604e-09
-8.68711e-09
9.42024e-08
-4.94539e-09
-5.49187e-09
9.32608e-08
-5.14675e-09
-2.10052e-09
9.26714e-08
-5.26879e-09
1.36025e-09
9.24749e-08
-5.31015e-09
4.75987e-09
9.26853e-08
-5.27042e-09
7.97042e-09
9.32884e-08
-5.14997e-09
1.08675e-08
9.42436e-08
-4.9501e-09
1.33301e-08
9.54819e-08
-4.67211e-09
1.5254e-08
9.69086e-08
-4.31766e-09
1.6547e-08
9.84009e-08
-3.89327e-09
1.71465e-08
9.98125e-08
-3.41826e-09
1.70365e-08
1.00974e-07
-2.92486e-09
1.62502e-08
1.01691e-07
-2.44936e-09
1.48577e-08
1.01743e-07
-2.01824e-09
1.2967e-08
1.00873e-07
-1.64417e-09
1.06914e-08
9.87772e-08
-1.33148e-09
8.17467e-09
9.50879e-08
-1.08547e-09
5.58436e-09
8.9351e-08
-9.15779e-10
3.1321e-09
8.09932e-08
-8.46873e-10
1.08249e-09
6.92796e-08
-9.1248e-10
4.30014e-08
-1.07952e-09
-1.38558e-09
4.47672e-08
-3.99316e-10
-3.6399e-09
7.15166e-08
-9.5952e-11
-6.25319e-09
8.34533e-08
3.2151e-11
-8.96783e-09
9.19294e-08
9.20686e-12
-1.15734e-08
9.76935e-08
-1.25552e-10
-1.39123e-08
1.01333e-07
-3.41867e-10
-1.58484e-08
1.03314e-07
-6.27665e-10
-1.72617e-08
1.04018e-07
-9.77104e-10
-1.80575e-08
1.03762e-07
-1.38461e-09
-1.8163e-08
1.02815e-07
-1.83637e-09
-1.75455e-08
1.01412e-07
-2.30542e-09
-1.6228e-08
9.97597e-08
-2.75654e-09
-1.42687e-08
9.80407e-08
-3.15891e-09
-1.17583e-08
9.64131e-08
-3.49478e-09
-8.80868e-09
9.50097e-08
-3.75809e-09
-5.53375e-09
9.39345e-08
-3.94821e-09
-2.06072e-09
9.32615e-08
-4.06348e-09
1.48216e-09
9.30352e-08
-4.10258e-09
4.96204e-09
9.32707e-08
-4.06499e-09
8.24645e-09
9.39529e-08
-3.95122e-09
1.12169e-08
9.50373e-08
-3.76255e-09
1.37506e-08
9.64494e-08
-3.50061e-09
1.57391e-08
9.80856e-08
-3.16597e-09
1.70923e-08
9.98128e-08
-2.76469e-09
1.77464e-08
1.01473e-07
-2.31453e-09
1.76835e-08
1.02883e-07
-1.84627e-09
1.69352e-08
1.03836e-07
-1.39517e-09
1.55671e-08
1.04098e-07
-9.88155e-10
1.36812e-08
1.03398e-07
-6.38998e-10
1.13918e-08
1.0142e-07
-3.53218e-10
8.83439e-09
9.77826e-08
-1.36574e-10
6.16651e-09
9.20192e-08
-6.5042e-13
3.59191e-09
8.35426e-08
2.4331e-11
1.37022e-09
7.1604e-08
-9.98652e-11
4.4768e-08
-3.9788e-10
-1.57485e-09
4.62096e-08
1.32028e-10
-3.95126e-09
7.33602e-08
5.33315e-10
-6.65791e-09
8.54474e-08
7.11422e-10
-9.43219e-09
9.39818e-08
7.2327e-10
-1.2079e-08
9.97224e-08
6.16782e-10
-1.44363e-08
1.03266e-07
4.25392e-10
-1.63763e-08
1.0509e-07
1.62674e-10
-1.77803e-08
1.05587e-07
-1.64719e-10
-1.85529e-08
1.05085e-07
-5.50374e-10
-1.86239e-08
1.03866e-07
-9.79269e-10
-1.79665e-08
1.02179e-07
-1.42488e-09
-1.65964e-08
1.00243e-07
-1.8531e-09
-1.45792e-08
9.82576e-08
-2.23503e-09
-1.20027e-08
9.63909e-08
-2.55469e-09
-8.97436e-09
9.47885e-08
-2.80694e-09
-5.61346e-09
9.3563e-08
-2.98916e-09
-2.04763e-09
9.27965e-08
-3.09967e-09
1.58601e-09
9.25371e-08
-3.13704e-09
5.15625e-09
9.28023e-08
-3.101e-09
8.52684e-09
9.35745e-08
-2.99182e-09
1.15691e-08
9.48058e-08
-2.81091e-09
1.41635e-08
9.64138e-08
-2.55985e-09
1.62043e-08
9.8286e-08
-2.24132e-09
1.76011e-08
1.00277e-07
-1.86046e-09
1.82892e-08
1.02217e-07
-1.4332e-09
1.82523e-08
1.03909e-07
-9.88444e-10