/*--------------------------------*- C++ -*----------------------------------*\
| =========                 |                                                 |
| \\      /  F ield         | OpenFOAM: The Open Source CFD Toolbox           |
|  \\    /   O peration     | Version:  v2012                                 |
|   \\  /    A nd           | Website:  www.openfoam.com                      |
|    \\/     M anipulation  |                                                 |
\*---------------------------------------------------------------------------*/
FoamFile
{
    version     2.0;
    format      ascii;
    class       volScalarField;
    location    "1800";
    object      epsilon;
}
// * * * * * * * * * * * * * * * * * * * * * * * * * * * * * * * * * * * * * //

dimensions      [0 2 -3 0 0 0 0];


internalField   nonuniform List<scalar> 
4000
(
2.2911e-07
1.41047e-07
5.83441e-08
2.17612e-08
1.59043e-08
1.29138e-08
9.99908e-09
9.46205e-09
9.63056e-09
1.0003e-08
1.01665e-08
9.94946e-09
9.79785e-09
1.09033e-08
1.46792e-08
1.66775e-08
2.11601e-08
6.02526e-08
1.52099e-07
2.57339e-07
3.81761e-07
3.19582e-07
2.54395e-07
1.92822e-07
1.27294e-07
3.29566e-08
1.96957e-08
1.85866e-08
1.94053e-08
2.0945e-08
2.13098e-08
1.9418e-08
1.81383e-08
2.11119e-08
7.94584e-08
1.4025e-07
1.94754e-07
2.5951e-07
3.28576e-07
3.89399e-07
4.50484e-07
4.0287e-07
3.25811e-07
2.413e-07
1.65266e-07
9.8767e-08
4.25e-08
2.19041e-08
2.41678e-08
2.74035e-08
2.77648e-08
2.37353e-08
2.73307e-08
6.72572e-08
1.10171e-07
1.64836e-07
2.25836e-07
3.01338e-07
3.83716e-07
4.492e-07
4.87631e-07
4.54382e-07
3.73676e-07
2.72346e-07
1.82627e-07
1.2154e-07
7.92639e-08
4.91345e-08
2.75692e-08
3.46655e-08
3.41505e-08
3.07635e-08
5.23732e-08
8.23696e-08
1.17918e-07
1.67691e-07
2.43613e-07
3.43724e-07
4.32609e-07
4.82614e-07
5.12065e-07
4.9967e-07
4.40675e-07
3.64147e-07
2.89228e-07
2.25869e-07
1.77953e-07
1.42415e-07
1.18198e-07
1.10802e-07
1.33171e-07
1.59911e-07
1.85832e-07
2.14568e-07
2.48324e-07
2.92092e-07
3.51005e-07
4.20833e-07
4.82229e-07
5.05365e-07
5.31825e-07
5.44867e-07
5.25165e-07
4.91723e-07
4.55518e-07
4.20833e-07
3.89343e-07
3.59718e-07
3.3228e-07
3.12922e-07
3.31156e-07
3.57644e-07
3.85367e-07
4.12468e-07
4.38654e-07
4.65273e-07
4.92693e-07
5.19948e-07
5.37923e-07
5.25291e-07
5.5209e-07
5.94896e-07
6.15742e-07
6.23889e-07
6.2486e-07
6.17094e-07
6.01846e-07
5.80256e-07
5.52703e-07
5.21207e-07
5.33911e-07
5.63001e-07
5.92048e-07
6.15e-07
6.29737e-07
6.35414e-07
6.31464e-07
6.19407e-07
5.95134e-07
5.45013e-07
5.76068e-07
6.50864e-07
7.11159e-07
7.5639e-07
7.90214e-07
8.10806e-07
8.16189e-07
8.0541e-07
7.78217e-07
7.32572e-07
7.39795e-07
7.7404e-07
8.04776e-07
8.20914e-07
8.19206e-07
8.0033e-07
7.66298e-07
7.18914e-07
6.54751e-07
5.67548e-07
6.09292e-07
7.24668e-07
8.26267e-07
9.08861e-07
9.75888e-07
1.0255e-06
1.05534e-06
1.06116e-06
1.03651e-06
9.7223e-07
9.73992e-07
1.01811e-06
1.04939e-06
1.0542e-06
1.03098e-06
9.83616e-07
9.16855e-07
8.33201e-07
7.27609e-07
5.98962e-07
6.60461e-07
8.23282e-07
9.74124e-07
1.09874e-06
1.20557e-06
1.29441e-06
1.36219e-06
1.40289e-06
1.40456e-06
1.34561e-06
1.33425e-06
1.36843e-06
1.37527e-06
1.349e-06
1.29194e-06
1.20905e-06
1.10494e-06
9.79912e-07
8.24987e-07
6.47631e-07
1.41047e-07
1.04894e-07
5.82543e-08
3.47383e-08
3.18387e-08
2.68968e-08
1.79131e-08
1.54393e-08
1.52946e-08
1.61239e-08
1.63333e-08
1.57824e-08
1.66715e-08
2.40462e-08
2.98649e-08
3.14251e-08
4.08089e-08
7.58145e-08
1.37122e-07
2.13508e-07
3.19582e-07
4.09134e-07
3.24561e-07
2.60688e-07
2.07391e-07
9.48513e-08
2.91134e-08
2.1627e-08
1.77816e-08
1.76034e-08
1.85005e-08
2.05969e-08
2.9183e-08
6.91752e-08
1.52738e-07
2.25371e-07
2.85193e-07
3.73807e-07
4.78309e-07
3.71483e-07
4.0287e-07
4.13996e-07
3.43962e-07
2.52095e-07
1.85588e-07
1.26196e-07
8.11248e-08
4.11485e-08
2.45024e-08
2.21975e-08
2.4457e-08
3.28075e-08
5.56166e-08
9.04971e-08
1.32763e-07
1.81078e-07
2.35686e-07
3.22525e-07
4.12951e-07
4.36707e-07
4.54382e-07
4.25855e-07
3.75919e-07
2.86272e-07
1.92922e-07
1.32016e-07
9.14789e-08
6.44183e-08
4.38348e-08
3.35964e-08
3.54569e-08
4.36197e-08
6.24608e-08
9.01164e-08
1.24882e-07
1.7025e-07
2.44551e-07
3.4534e-07
4.24762e-07
4.79702e-07
4.9967e-07
4.58541e-07
4.22356e-07
3.49212e-07
2.4738e-07
1.7752e-07
1.29812e-07
9.49264e-08
7.15461e-08
6.4556e-08
7.17184e-08
8.40038e-08
1.08895e-07
1.4207e-07
1.80347e-07
2.28525e-07
3.11634e-07
4.01833e-07
4.59645e-07
5.1396e-07
5.44867e-07
4.97785e-07
4.73785e-07
4.31371e-07
3.59378e-07
2.80072e-07
2.25842e-07
1.84448e-07
1.58846e-07
1.51837e-07
1.61157e-07
1.74795e-07
1.98774e-07
2.34863e-07
2.80461e-07
3.43963e-07
4.08367e-07
4.61814e-07
4.97647e-07
5.46831e-07
5.94896e-07
5.39636e-07
5.18672e-07
4.99149e-07
4.78551e-07
4.13673e-07
3.4254e-07
2.92707e-07
2.57646e-07
2.41317e-07
2.48604e-07
2.66957e-07
2.97505e-07
3.47882e-07
4.11739e-07
4.66798e-07
4.92775e-07
5.09837e-07
5.33987e-07
5.84367e-07
6.50864e-07
6.03454e-07
5.89249e-07
5.86212e-07
6.0478e-07
6.1258e-07
5.89209e-07
5.40542e-07
4.79106e-07
4.28097e-07
4.4002e-07
4.94157e-07
5.4982e-07
5.86586e-07
6.02381e-07
6.0022e-07
5.84962e-07
5.82008e-07
5.96883e-07
6.32438e-07
7.24668e-07
7.54211e-07
7.9647e-07
8.33558e-07
8.773e-07
9.18537e-07
9.4489e-07
9.40195e-07
8.87716e-07
7.76533e-07
7.82033e-07
8.64526e-07
9.25809e-07
9.43531e-07
9.21125e-07
8.7512e-07
8.26182e-07
7.86934e-07
7.46563e-07
6.98404e-07
8.23282e-07
1.02277e-06
1.21407e-06
1.38302e-06
1.5407e-06
1.68411e-06
1.80394e-06
1.88508e-06
1.90331e-06
1.82991e-06
1.79827e-06
1.83969e-06
1.83502e-06
1.77494e-06
1.66777e-06
1.52886e-06
1.37209e-06
1.20029e-06
1.00247e-06
7.88039e-07
5.83442e-08
5.82543e-08
4.58162e-08
4.11322e-08
4.28376e-08
3.7438e-08
2.50297e-08
2.01609e-08
1.91707e-08
2.01055e-08
2.0201e-08
1.96204e-08
2.20636e-08
3.24605e-08
4.23402e-08
4.10768e-08
4.68545e-08
6.8199e-08
1.02157e-07
1.34376e-07
2.54395e-07
3.24561e-07
2.92046e-07
2.64201e-07
2.12987e-07
9.88692e-08
3.8187e-08
2.7337e-08
2.16981e-08
2.10939e-08
2.2903e-08
2.79967e-08
4.22963e-08
8.40718e-08
1.72943e-07
2.46974e-07
2.90427e-07
3.50268e-07
4.16591e-07
3.19547e-07
3.25811e-07
3.43962e-07
2.95733e-07
2.3449e-07
1.82516e-07
1.29917e-07
9.01019e-08
5.19182e-08
3.16287e-08
2.65416e-08
3.0934e-08
4.36274e-08
6.74762e-08
1.02521e-07
1.44234e-07
1.89167e-07
2.34448e-07
3.03532e-07
3.74455e-07
3.80867e-07
3.73676e-07
3.75919e-07
3.39396e-07
2.60807e-07
1.87045e-07
1.34876e-07
1.00039e-07
7.61616e-08
5.41679e-08
3.60872e-08
3.95747e-08
5.37087e-08
7.26867e-08
9.84853e-08
1.31336e-07
1.74057e-07
2.38135e-07
3.26292e-07
3.98461e-07
4.31116e-07
4.40675e-07
4.22356e-07
3.71416e-07
2.9615e-07
2.10965e-07
1.52425e-07
1.13596e-07
8.48178e-08
6.25829e-08
4.6648e-08
4.74411e-08
6.44907e-08
8.78505e-08
1.15223e-07
1.46811e-07
1.91853e-07
2.7039e-07
3.64608e-07
4.41372e-07
4.83634e-07
5.25165e-07
4.73785e-07
4.07548e-07
3.36903e-07
2.57164e-07
1.90879e-07
1.45732e-07
1.11327e-07
8.65606e-08
7.51257e-08
7.85823e-08
9.00112e-08
1.14209e-07
1.45328e-07
1.81682e-07
2.34972e-07
3.14822e-07
4.03356e-07
4.85626e-07
5.43337e-07
6.15742e-07
5.18672e-07
4.40573e-07
3.60143e-07
2.98157e-07
2.38393e-07
1.89015e-07
1.52513e-07
1.27075e-07
1.15492e-07
1.19509e-07
1.31226e-07
1.53124e-07
1.85741e-07
2.25709e-07
2.74494e-07
3.40152e-07
4.33521e-07
5.28425e-07
6.11048e-07
7.11159e-07
5.89249e-07
5.20586e-07
4.18623e-07
3.52938e-07
3.23045e-07
2.91316e-07
2.5953e-07
2.27603e-07
2.01184e-07
2.02232e-07
2.27328e-07
2.59326e-07
2.88632e-07
3.13428e-07
3.37219e-07
4.01248e-07
5.06649e-07
6.0025e-07
6.8946e-07
8.26267e-07
7.9647e-07
8.49331e-07
9.0535e-07
9.33118e-07
9.54614e-07
9.89015e-07
9.76252e-07
8.86318e-07
7.4476e-07
7.4859e-07
9.01451e-07
1.0255e-06
1.05417e-06
1.00873e-06
9.48917e-07
9.0345e-07
8.46383e-07
7.98907e-07
7.93947e-07
9.74124e-07
1.21407e-06
1.44232e-06
1.65118e-06
1.85732e-06
2.05699e-06
2.23478e-06
2.36399e-06
2.40357e-06
2.31357e-06
2.25386e-06
2.30683e-06
2.28824e-06
2.18794e-06
2.0241e-06
1.82762e-06
1.62308e-06
1.41171e-06
1.17793e-06
9.26542e-07
2.17613e-08
3.47383e-08
4.11322e-08
4.66423e-08
5.14444e-08
4.28272e-08
3.07843e-08
2.47544e-08
2.32129e-08
2.4454e-08
2.42882e-08
2.34511e-08
2.68625e-08
3.78021e-08
5.26359e-08
5.33172e-08
4.69823e-08
5.25806e-08
6.35956e-08
6.77471e-08
1.92822e-07
2.60688e-07
2.64201e-07
2.42153e-07
1.70065e-07
7.67804e-08
4.20634e-08
3.11845e-08
2.60134e-08
2.61975e-08
2.82146e-08
3.30522e-08
4.55294e-08
7.95178e-08
1.59111e-07
2.37545e-07
2.72614e-07
2.95723e-07
3.16874e-07
2.54636e-07
2.413e-07
2.52095e-07
2.3449e-07
2.02206e-07
1.60071e-07
1.21176e-07
8.51268e-08
5.24058e-08
3.59433e-08
3.18494e-08
3.64524e-08
4.7863e-08
6.92845e-08
1.02275e-07
1.40225e-07
1.80949e-07
2.13848e-07
2.54501e-07
3.00161e-07
3.02566e-07
2.72346e-07
2.86272e-07
2.60807e-07
2.1214e-07
1.63645e-07
1.26789e-07
1.0067e-07
7.92338e-08
5.6787e-08
4.08551e-08
4.48808e-08
5.82163e-08
7.673e-08
1.00351e-07
1.29805e-07
1.67331e-07
2.18359e-07
2.86167e-07
3.42676e-07
3.50893e-07
3.64147e-07
3.49212e-07
2.9615e-07
2.36202e-07
1.78062e-07
1.35995e-07
1.06514e-07
8.35033e-08
6.42495e-08
4.82551e-08
4.81833e-08
6.36012e-08
8.36786e-08
1.06394e-07
1.33716e-07
1.73632e-07
2.37948e-07
3.20329e-07
4.00422e-07
4.27638e-07
4.91723e-07
4.31371e-07
3.36903e-07
2.64127e-07
2.01302e-07
1.53026e-07
1.18259e-07
9.06603e-08
6.82381e-08
5.13948e-08
4.9402e-08
6.69604e-08
9.04451e-08
1.16419e-07
1.46083e-07
1.90071e-07
2.6063e-07
3.50288e-07
4.56363e-07
5.2254e-07
6.23889e-07
4.99149e-07
3.60143e-07
2.77272e-07
2.20368e-07
1.75408e-07
1.39921e-07
1.11665e-07
8.95855e-08
7.56717e-08
7.54744e-08
9.04619e-08
1.12044e-07
1.36675e-07
1.64221e-07
2.02992e-07
2.67429e-07
3.68162e-07
5.03315e-07
6.22874e-07
7.5639e-07
5.86212e-07
4.18623e-07
3.2858e-07
2.95876e-07
2.78747e-07
2.6386e-07
2.45492e-07
2.17647e-07
1.84916e-07
1.82702e-07
2.23617e-07
2.63197e-07
2.77372e-07
2.76564e-07
2.78604e-07
3.12665e-07
4.37728e-07
5.83288e-07
7.32975e-07
9.08861e-07
8.33558e-07
9.05349e-07
9.79333e-07
1.12918e-06
1.30561e-06
1.44983e-06
1.50647e-06
1.42487e-06
1.21484e-06
1.1855e-06
1.41367e-06
1.57512e-06
1.53673e-06
1.35715e-06
1.13375e-06
9.96316e-07
9.24353e-07
8.3492e-07
8.71921e-07
1.09874e-06
1.38302e-06
1.65118e-06
1.90481e-06
2.17587e-06
2.45511e-06
2.71617e-06
2.91815e-06
3.00759e-06
2.93352e-06
2.81365e-06
2.84548e-06
2.79019e-06
2.62854e-06
2.39036e-06
2.1198e-06
1.85766e-06
1.60421e-06
1.33208e-06
1.04108e-06
1.59043e-08
3.18387e-08
4.28376e-08
5.14444e-08
5.16072e-08
4.25162e-08
3.36054e-08
2.81726e-08
2.69632e-08
2.9419e-08
2.84336e-08
2.68718e-08
3.08722e-08
4.14065e-08
5.69389e-08
6.26916e-08
5.48541e-08
4.38509e-08
3.83805e-08
2.48589e-08
1.27294e-07
2.07391e-07
2.12987e-07
1.70065e-07
1.03826e-07
5.71964e-08
4.09901e-08
3.21102e-08
2.9134e-08
3.25751e-08
3.26654e-08
3.44279e-08
4.42631e-08
6.73873e-08
1.22381e-07
1.98164e-07
2.44915e-07
2.55344e-07
2.45629e-07
1.9349e-07
1.65266e-07
1.85588e-07
1.82516e-07
1.60071e-07
1.31272e-07
1.03816e-07
7.15285e-08
4.78772e-08
3.67126e-08
3.67547e-08
3.92083e-08
4.68308e-08
6.43635e-08
9.24665e-08
1.25136e-07
1.59474e-07
1.86133e-07
2.04358e-07
2.17785e-07
2.20061e-07
1.82627e-07
1.92922e-07
1.87045e-07
1.63645e-07
1.36678e-07
1.13991e-07
9.56908e-08
7.50588e-08
5.43157e-08
4.45086e-08
4.75836e-08
5.77441e-08
7.47525e-08
9.54433e-08
1.19099e-07
1.4728e-07
1.80143e-07
2.17851e-07
2.52958e-07
2.58834e-07
2.89228e-07
2.4738e-07
2.10965e-07
1.78062e-07
1.45811e-07
1.19544e-07
9.87525e-08
8.12643e-08
6.66545e-08
5.53837e-08
5.48481e-08
6.46891e-08
8.04566e-08
9.88863e-08
1.21215e-07
1.51682e-07
1.96193e-07
2.55773e-07
3.30877e-07
3.67259e-07
4.55518e-07
3.59378e-07
2.57164e-07
2.01302e-07
1.60357e-07
1.28336e-07
1.03217e-07
8.25986e-08
6.64507e-08
5.74938e-08
5.57614e-08
6.49902e-08
8.25149e-08
1.03073e-07
1.27527e-07
1.62427e-07
2.16859e-07
2.95676e-07
4.15186e-07
4.94815e-07
6.2486e-07
4.78551e-07
2.98157e-07
2.20368e-07
1.76713e-07
1.45154e-07
1.20022e-07
9.96864e-08
8.4531e-08
7.88648e-08
8.18721e-08
8.91808e-08
1.03314e-07
1.20301e-07
1.40879e-07
1.71586e-07
2.23789e-07
3.12749e-07
4.81401e-07
6.24938e-07
7.90214e-07
6.0478e-07
3.52938e-07
2.95876e-07
2.87412e-07
2.89657e-07
2.91608e-07
2.85783e-07
2.60431e-07
2.21743e-07
2.19628e-07
2.74917e-07
3.13787e-07
3.13402e-07
2.94348e-07
2.80496e-07
2.90129e-07
3.48901e-07
5.88213e-07
7.6365e-07
9.75888e-07
8.773e-07
9.33118e-07
1.12918e-06
1.47897e-06
1.81587e-06
2.05607e-06
2.167e-06
2.02377e-06
1.65041e-06
1.56249e-06
1.93605e-06
2.21569e-06
2.14225e-06
1.85307e-06
1.49351e-06
1.16839e-06
1.01084e-06
8.7445e-07
9.33079e-07
1.20557e-06
1.5407e-06
1.85732e-06
2.17587e-06
2.54482e-06
2.92568e-06
3.28665e-06
3.58086e-06
3.73899e-06
3.69989e-06
3.49267e-06
3.47968e-06
3.36799e-06
3.12965e-06
2.80472e-06
2.44739e-06
2.10063e-06
1.7896e-06
1.47235e-06
1.13704e-06
1.29138e-08
2.68968e-08
3.7438e-08
4.28272e-08
4.25162e-08
3.85398e-08
3.37257e-08
3.03631e-08
3.05941e-08
3.49371e-08
3.2796e-08
3.02239e-08
3.38304e-08
4.23577e-08
5.40864e-08
6.26884e-08
6.0488e-08
4.95958e-08
3.40784e-08
1.66586e-08
3.29566e-08
9.48513e-08
9.88692e-08
7.67804e-08
5.71964e-08
4.55958e-08
3.74005e-08
3.16747e-08
3.20281e-08
3.97906e-08
3.67592e-08
3.50196e-08
4.16566e-08
5.60247e-08
8.37908e-08
1.32818e-07
1.84173e-07
2.06679e-07
1.94348e-07
1.33869e-07
9.8767e-08
1.26196e-07
1.29917e-07
1.21176e-07
1.03816e-07
7.94518e-08
5.69902e-08
4.22512e-08
3.67944e-08
4.20959e-08
4.03681e-08
4.38564e-08
5.65243e-08
7.72093e-08
1.03538e-07
1.28838e-07
1.50172e-07
1.61597e-07
1.60148e-07
1.48722e-07
1.2154e-07
1.32016e-07
1.34876e-07
1.26789e-07
1.13991e-07
1.00575e-07
8.48143e-08
6.50469e-08
4.98576e-08
4.8634e-08
4.7757e-08
5.38649e-08
6.8138e-08
8.60215e-08
1.03988e-07
1.2269e-07
1.41358e-07
1.57878e-07
1.70123e-07
1.8027e-07
2.25869e-07
1.7752e-07
1.52425e-07
1.35995e-07
1.19544e-07
1.03819e-07
8.93412e-08
7.62721e-08
6.58251e-08
6.21905e-08
5.80883e-08
6.28149e-08
7.4998e-08
8.94601e-08
1.06221e-07
1.26431e-07
1.51973e-07
1.85591e-07
2.39976e-07
3.11807e-07
4.20833e-07
2.80072e-07
1.90879e-07
1.53026e-07
1.28336e-07
1.08061e-07
9.07992e-08
7.65229e-08
6.71824e-08
6.9487e-08
6.64906e-08
6.55969e-08
7.65084e-08
9.1858e-08
1.10814e-07
1.35952e-07
1.72506e-07
2.31238e-07
3.51696e-07
4.63835e-07
6.17094e-07
4.13672e-07
2.38393e-07
1.75408e-07
1.45154e-07
1.24528e-07
1.08195e-07
9.56726e-08
8.8933e-08
9.79545e-08
1.05264e-07
9.69434e-08
1.01413e-07
1.11537e-07
1.26447e-07
1.49419e-07
1.88066e-07
2.62991e-07
4.52086e-07
6.17319e-07
8.10806e-07
6.1258e-07
3.23045e-07
2.78747e-07
2.89657e-07
3.12425e-07
3.3409e-07
3.39026e-07
3.0723e-07
2.57313e-07
2.57491e-07
3.20043e-07
3.65295e-07
3.56911e-07
3.21907e-07
2.91788e-07
2.81815e-07
3.15714e-07
5.89381e-07
7.78225e-07
1.0255e-06
9.18537e-07
9.54614e-07
1.30561e-06
1.81587e-06
2.2901e-06
2.68097e-06
2.83982e-06
2.54695e-06
1.93922e-06
1.80161e-06
2.34074e-06
2.80338e-06
2.73133e-06
2.30502e-06
1.79981e-06
1.32776e-06
1.01211e-06
8.94333e-07
9.7159e-07
1.29441e-06
1.68411e-06
2.05699e-06
2.45511e-06
2.92568e-06
3.41964e-06
3.90395e-06
4.31995e-06
4.58763e-06
4.64784e-06
4.32236e-06
4.20161e-06
3.99051e-06
3.65082e-06
3.22337e-06
2.77042e-06
2.33607e-06
1.95811e-06
1.5936e-06
1.21325e-06
9.99908e-09
1.79131e-08
2.50297e-08
3.07843e-08
3.36054e-08
3.37257e-08
3.2643e-08
3.20045e-08
3.48603e-08
4.2863e-08
3.88473e-08
3.39476e-08
3.57847e-08
4.08139e-08
4.67987e-08
5.1208e-08
5.15606e-08
4.50811e-08
3.19804e-08
1.46188e-08
1.96957e-08
2.91134e-08
3.8187e-08
4.20634e-08
4.09901e-08
3.74005e-08
3.3372e-08
3.13109e-08
3.76257e-08
5.7249e-08
4.69989e-08
3.6689e-08
3.8997e-08
4.68484e-08
5.8557e-08
7.55959e-08
9.93117e-08
1.18234e-07
1.103e-07
5.68211e-08
4.25e-08
8.11248e-08
9.01019e-08
8.51268e-08
7.15285e-08
5.69902e-08
4.53406e-08
3.75349e-08
4.00957e-08
5.95172e-08
4.80162e-08
4.18636e-08
4.89193e-08
6.18526e-08
7.91158e-08
9.76861e-08
1.11067e-07
1.14947e-07
1.07757e-07
9.09832e-08
7.92639e-08
9.14789e-08
1.00039e-07
1.0067e-07
9.56908e-08
8.48143e-08
6.9338e-08
5.38674e-08
5.05282e-08
7.3349e-08
5.8283e-08
5.03901e-08
5.95634e-08
7.39255e-08
8.84932e-08
1.00406e-07
1.09256e-07
1.14391e-07
1.17078e-07
1.28316e-07
1.77953e-07
1.29812e-07
1.13596e-07
1.06514e-07
9.87525e-08
8.93412e-08
7.91664e-08
6.95304e-08
6.83453e-08
1.02245e-07
7.76482e-08
6.07183e-08
6.80602e-08
7.94019e-08
9.14184e-08
1.04105e-07
1.17848e-07
1.36855e-07
1.7987e-07
2.6705e-07
3.89343e-07
2.25842e-07
1.45732e-07
1.18259e-07
1.03217e-07
9.07992e-08
7.96599e-08
7.09891e-08
7.33711e-08
1.27933e-07
1.03241e-07
6.74142e-08
7.01922e-08
8.07394e-08
9.42787e-08
1.10949e-07
1.33568e-07
1.73416e-07
2.74067e-07
4.31704e-07
6.01846e-07
3.4254e-07
1.89015e-07
1.39921e-07
1.20022e-07
1.08195e-07
9.96878e-08
9.47768e-08
1.01868e-07
1.73585e-07
1.67186e-07
1.06879e-07
9.9862e-08
1.03936e-07
1.12926e-07
1.27925e-07
1.54273e-07
2.14429e-07
3.99111e-07
6.00411e-07
8.16189e-07
5.89209e-07
2.91316e-07
2.6386e-07
2.91608e-07
3.3409e-07
3.7302e-07
3.8084e-07
3.32731e-07
3.18359e-07
3.15099e-07
3.37242e-07
3.94193e-07
3.88114e-07
3.4235e-07
2.96555e-07
2.68816e-07
2.83167e-07
5.71746e-07
7.76987e-07
1.05534e-06
9.4489e-07
9.89015e-07
1.44983e-06
2.05607e-06
2.68097e-06
3.21107e-06
3.3734e-06
2.77591e-06
2.35381e-06
2.15648e-06
2.52059e-06
3.2047e-06
3.17366e-06
2.64823e-06
2.01985e-06
1.42641e-06
9.92923e-07
8.9415e-07
9.8853e-07
1.36219e-06
1.80394e-06
2.23478e-06
2.71617e-06
3.28665e-06
3.90395e-06
4.53393e-06
5.1196e-06
5.59709e-06
5.96604e-06
5.46379e-06
5.0545e-06
4.64602e-06
4.16103e-06
3.61507e-06
3.06177e-06
2.54147e-06
2.09761e-06
1.68737e-06
1.26656e-06
9.46205e-09
1.54393e-08
2.01609e-08
2.47544e-08
2.81726e-08
3.03631e-08
3.20045e-08
3.45123e-08
4.12324e-08
5.29821e-08
4.68216e-08
3.88831e-08
3.7362e-08
3.79723e-08
3.88138e-08
3.86008e-08
3.6367e-08
3.10419e-08
2.10332e-08
9.49711e-09
1.85866e-08
2.1627e-08
2.7337e-08
3.11845e-08
3.21102e-08
3.16747e-08
3.13109e-08
3.49486e-08
5.33575e-08
9.48761e-08
7.08396e-08
4.40556e-08
3.85581e-08
4.00372e-08
4.39182e-08
4.83892e-08
5.26799e-08
5.47559e-08
4.45345e-08
2.04287e-08
2.19041e-08
4.11485e-08
5.19182e-08
5.24058e-08
4.78772e-08
4.22512e-08
3.75349e-08
3.76784e-08
6.05354e-08
1.88351e-07
1.26521e-07
5.02583e-08
4.46451e-08
4.97114e-08
5.8359e-08
6.88284e-08
7.76415e-08
7.89386e-08
6.93079e-08
5.17264e-08
4.91345e-08
6.44182e-08
7.61616e-08
7.92338e-08
7.50588e-08
6.50469e-08
5.38674e-08
4.96398e-08
8.72924e-08
3.7014e-07
2.35665e-07
6.5358e-08
5.36143e-08
6.1162e-08
7.18814e-08
8.09461e-08
8.49881e-08
8.34696e-08
8.05271e-08
8.99817e-08
1.42415e-07
9.49264e-08
8.48178e-08
8.35032e-08
8.12643e-08
7.62721e-08
6.95304e-08
6.79299e-08
1.32159e-07
6.58446e-07
4.29674e-07
8.83598e-08
6.35531e-08
6.95485e-08
7.77643e-08
8.4966e-08
9.15138e-08
1.02264e-07
1.37536e-07
2.30311e-07
3.59718e-07
1.84448e-07
1.11327e-07
9.06603e-08
8.25986e-08
7.65229e-08
7.09891e-08
7.32331e-08
1.67956e-07
9.79914e-07
6.63287e-07
1.12639e-07
6.77233e-08
7.08282e-08
7.88218e-08
8.84079e-08
1.01881e-07
1.31498e-07
2.22595e-07
4.00301e-07
5.80256e-07
2.92707e-07
1.52513e-07
1.11665e-07
9.96864e-08
9.56726e-08
9.47768e-08
1.03732e-07
2.26333e-07
1.23768e-06
9.09201e-07
1.75777e-07
1.02665e-07
9.74972e-08
9.98977e-08
1.06719e-07
1.22746e-07
1.69765e-07
3.28685e-07
5.75441e-07
8.0541e-07
5.40542e-07
2.5953e-07
2.45492e-07
2.85782e-07
3.39026e-07
3.8084e-07
3.74775e-07
4.03995e-07
1.25445e-06
1.00593e-06
3.65321e-07
3.76278e-07
3.84668e-07
3.41593e-07
2.87053e-07
2.45938e-07
2.46271e-07
5.3806e-07
7.60165e-07
1.06116e-06
9.40195e-07
9.76252e-07
1.50647e-06
2.167e-06
2.83982e-06
3.3734e-06
3.24271e-06
2.87596e-06
4.31144e-06
3.71896e-06
2.60385e-06
3.07061e-06
3.24523e-06
2.76204e-06
2.095e-06
1.4422e-06
9.43697e-07
8.67225e-07
9.81921e-07
1.40289e-06
1.88508e-06
2.36399e-06
2.91815e-06
3.58086e-06
4.31995e-06
5.1196e-06
5.96231e-06
6.91468e-06
8.08936e-06
7.26546e-06
6.14406e-06
5.31772e-06
4.61185e-06
3.93075e-06
3.28079e-06
2.68543e-06
2.18429e-06
1.74004e-06
1.29157e-06
9.63056e-09
1.52946e-08
1.91707e-08
2.32129e-08
2.69632e-08
3.05941e-08
3.48603e-08
4.12324e-08
5.00038e-08
6.07612e-08
5.42632e-08
4.55554e-08
4.05839e-08
3.61649e-08
3.28199e-08
2.97773e-08
2.63556e-08
2.16346e-08
1.46866e-08
7.77384e-09
1.94053e-08
1.77816e-08
2.16981e-08
2.60134e-08
2.9134e-08
3.20281e-08
3.76257e-08
5.33575e-08
9.53966e-08
6.69014e-07
4.64274e-07
7.46348e-08
4.83078e-08
3.9437e-08
3.64893e-08
3.56608e-08
3.50662e-08
3.20532e-08
2.345e-08
1.71969e-08
2.41678e-08
2.45024e-08
3.16287e-08
3.59433e-08
3.67126e-08
3.67944e-08
4.00957e-08
6.05354e-08
2.51936e-07
2.72714e-06
2e-06
1.75114e-07
5.62808e-08
4.52274e-08
4.49406e-08
4.78021e-08
5.08398e-08
5.06004e-08
4.15206e-08
2.19795e-08
2.75692e-08
4.38347e-08
5.41679e-08
5.6787e-08
5.43157e-08
4.98576e-08
5.05282e-08
8.72924e-08
5.52018e-07
5.33724e-06
4.01181e-06
3.57206e-07
7.22415e-08
5.40924e-08
5.58224e-08
6.03913e-08
6.24623e-08
5.90667e-08
5.27341e-08
5.66386e-08
1.18198e-07
7.15461e-08
6.25829e-08
6.42495e-08
6.66545e-08
6.5825e-08
6.83453e-08
1.32159e-07
1.03065e-06
8.641e-06
6.69822e-06
6.42611e-07
9.34736e-08
6.34341e-08
6.384e-08
6.60235e-08
6.78495e-08
7.52297e-08
1.0868e-07
2.02743e-07
3.3228e-07
1.58846e-07
8.65606e-08
6.82381e-08
6.64507e-08
6.71824e-08
7.33711e-08
1.67956e-07
1.58095e-06
1.19447e-05
9.39595e-06
9.59877e-07
1.11499e-07
6.66567e-08
6.51406e-08
6.75393e-08
7.49576e-08
1.01575e-07
1.89489e-07
3.71538e-07
5.52703e-07
2.57646e-07
1.27075e-07
8.95855e-08
8.4531e-08
8.8933e-08
1.01868e-07
2.26333e-07
2.03535e-06
1.39789e-05
1.10564e-05
1.27316e-06
1.63855e-07
9.71453e-08
8.88703e-08
8.69073e-08
9.49945e-08
1.35328e-07
2.72172e-07
5.45332e-07
7.78217e-07
4.79106e-07
2.27603e-07
2.17647e-07
2.60431e-07
3.0723e-07
3.32731e-07
4.03995e-07
2.0361e-06
1.32899e-05
1.04736e-05
1.28915e-06
3.53859e-07
3.30768e-07
3.05468e-07
2.56409e-07
2.11698e-07
2.0962e-07
4.91146e-07
7.28507e-07
1.03651e-06
8.87716e-07
8.86319e-07
1.42487e-06
2.02377e-06
2.54695e-06
2.77591e-06
2.87596e-06
4.76866e-06
1.0578e-05
8.81535e-06
3.80711e-06
2.58403e-06
2.6901e-06
2.46648e-06
1.93224e-06
1.33403e-06
8.37845e-07
8.04794e-07
9.49139e-07
1.40456e-06
1.90331e-06
2.40357e-06
3.00759e-06
3.73899e-06
4.58763e-06
5.59709e-06
6.91468e-06
8.8276e-06
1.11895e-05
9.95301e-06
7.63484e-06
6.01538e-06
4.94007e-06
4.10117e-06
3.37052e-06
2.72481e-06
2.19042e-06
1.73552e-06
1.28036e-06
1.0003e-08
1.61239e-08
2.01055e-08
2.4454e-08
2.9419e-08
3.49371e-08
4.2863e-08
5.29821e-08
6.07612e-08
6.78692e-08
6.17811e-08
5.49506e-08
4.68989e-08
3.78643e-08
3.08382e-08
2.59304e-08
2.17203e-08
1.72962e-08
1.24922e-08
7.35113e-09
2.09449e-08
1.76034e-08
2.10939e-08
2.61975e-08
3.25751e-08
3.97906e-08
5.72489e-08
9.48761e-08
6.69014e-07
8.67001e-07
7.57517e-07
5.51427e-07
7.70918e-08
5.03185e-08
3.76854e-08
3.24448e-08
2.83918e-08
2.31002e-08
1.7389e-08
1.64703e-08
2.74035e-08
2.21975e-08
2.65416e-08
3.18494e-08
3.67547e-08
4.20959e-08
5.95172e-08
1.88351e-07
2.72714e-06
1.9532e-06
1.73781e-06
2.17948e-06
1.40939e-07
5.35177e-08
4.22703e-08
3.94721e-08
3.70014e-08
3.23705e-08
2.57828e-08
2.30218e-08
3.46655e-08
3.35964e-08
3.60872e-08
4.08551e-08
4.45086e-08
4.8634e-08
7.3349e-08
3.7014e-07
5.33724e-06
3.32312e-06
3.03622e-06
4.09393e-06
2.47068e-07
6.17104e-08
4.74216e-08
4.52585e-08
4.29142e-08
3.94185e-08
3.67451e-08
4.58829e-08
1.10802e-07
6.4556e-08
4.66481e-08
4.82551e-08
5.53837e-08
6.21905e-08
1.02245e-07
6.58445e-07
8.641e-06
4.97863e-06
4.68779e-06
6.49192e-06
4.07111e-07
7.39125e-08
5.22416e-08
4.75789e-08
4.61503e-08
5.82252e-08
9.77827e-08
1.90944e-07
3.12922e-07
1.51837e-07
7.51257e-08
5.13948e-08
5.74938e-08
6.9487e-08
1.27933e-07
9.79914e-07
1.19447e-05
6.81701e-06
6.60165e-06
8.85519e-06
5.82333e-07
8.74588e-08
5.64865e-08
4.99626e-08
5.41202e-08
8.59355e-08
1.75493e-07
3.50906e-07
5.21207e-07
2.41317e-07
1.15492e-07
7.56717e-08
7.88648e-08
9.79544e-08
1.73585e-07
1.23768e-06
1.39789e-05
8.52326e-06
8.46023e-06
1.02471e-05
7.68934e-07
1.33299e-07
8.7692e-08
7.32778e-08
7.52764e-08
1.17843e-07
2.49277e-07
5.13779e-07
7.32572e-07
4.28097e-07
2.01184e-07
1.84916e-07
2.21743e-07
2.57313e-07
3.18359e-07
1.25445e-06
1.32899e-05
9.47332e-06
9.61374e-06
9.33288e-06
8.08352e-07
2.8636e-07
2.51404e-07
2.14022e-07
1.7372e-07
1.79536e-07
4.35485e-07
6.82759e-07
9.7223e-07
7.76533e-07
7.44761e-07
1.21484e-06
1.65041e-06
1.93922e-06
2.35381e-06
4.31144e-06
1.0578e-05
9.8075e-06
9.84959e-06
7.99184e-06
3.35164e-06
2.04685e-06
1.86085e-06
1.57104e-06
1.12319e-06
6.92814e-07
7.01641e-07
8.85473e-07
1.34561e-06
1.82991e-06
2.31357e-06
2.93352e-06
3.69989e-06
4.64785e-06
5.96604e-06
8.08936e-06
1.11895e-05
1.1037e-05
1.07747e-05
9.41501e-06
6.77143e-06
5.0966e-06
4.06149e-06
3.27764e-06
2.6181e-06
2.08203e-06
1.65e-06
1.21518e-06
1.01665e-08
1.63333e-08
2.0201e-08
2.42882e-08
2.84336e-08
3.2796e-08
3.88473e-08
4.68216e-08
5.42632e-08
6.17811e-08
6.02175e-08
5.36081e-08
4.58772e-08
3.73389e-08
3.06578e-08
2.56068e-08
2.11154e-08
1.66735e-08
1.21414e-08
7.39405e-09
2.13098e-08
1.85005e-08
2.2903e-08
2.82146e-08
3.26654e-08
3.67592e-08
4.69989e-08
7.08396e-08
4.64274e-07
7.57518e-07
6.99175e-07
4.07985e-07
6.29457e-08
4.57108e-08
3.81209e-08
3.50344e-08
3.22108e-08
2.54097e-08
1.7884e-08
1.63397e-08
2.77648e-08
2.4457e-08
3.0934e-08
3.64524e-08
3.92083e-08
4.03681e-08
4.80162e-08
1.26521e-07
2e-06
1.73781e-06
1.62131e-06
1.57657e-06
1.00108e-07
4.91494e-08
4.57856e-08
4.61301e-08
4.53637e-08
3.89191e-08
2.94583e-08
2.33943e-08
3.41506e-08
3.54569e-08
3.95747e-08
4.48808e-08
4.75836e-08
4.77571e-08
5.8283e-08
2.35665e-07
4.01181e-06
3.03622e-06
2.897e-06
2.79949e-06
1.50943e-07
5.48041e-08
5.0558e-08
5.0149e-08
4.6867e-08
3.99889e-08
3.81469e-08
5.45566e-08
1.3317e-07
7.17184e-08
4.74411e-08
4.81833e-08
5.48481e-08
5.80882e-08
7.76483e-08
4.29675e-07
6.69822e-06
4.68779e-06
4.61429e-06
4.34775e-06
2.33637e-07
6.26838e-08
5.35687e-08
4.99353e-08
4.66049e-08
5.8569e-08
1.03915e-07
2.04874e-07
3.31156e-07
1.61157e-07
7.85823e-08
4.9402e-08
5.57614e-08
6.64906e-08
1.03241e-07
6.63287e-07
9.39595e-06
6.60165e-06
6.70948e-06
5.91223e-06
3.32306e-07
7.26481e-08
5.58599e-08
4.96528e-08
5.22441e-08
8.68992e-08
1.81968e-07
3.63789e-07
5.33912e-07
2.48604e-07
1.19509e-07
7.54744e-08
8.18721e-08
1.05264e-07
1.67186e-07
9.09202e-07
1.10564e-05
8.46024e-06
8.86003e-06
6.8825e-06
4.81753e-07
1.21005e-07
8.90275e-08
7.2793e-08
7.22384e-08
1.18171e-07
2.53545e-07
5.25829e-07
7.39796e-07
4.4002e-07
2.02232e-07
1.82701e-07
2.19628e-07
2.57491e-07
3.15099e-07
1.00593e-06
1.04736e-05
9.61374e-06
1.04802e-05
6.18321e-06
5.86843e-07
2.85475e-07
2.549e-07
2.14924e-07
1.70996e-07
1.75249e-07
4.47651e-07
6.94842e-07
9.73992e-07
7.82033e-07
7.4859e-07
1.1855e-06
1.56249e-06
1.80161e-06
2.15648e-06
3.71896e-06
8.81536e-06
9.84959e-06
1.05857e-05
6.31783e-06
2.84085e-06
1.91412e-06
1.76301e-06
1.51014e-06
1.11511e-06
7.0755e-07
7.17225e-07
8.9851e-07
1.33425e-06
1.79827e-06
2.25386e-06
2.81365e-06
3.49267e-06
4.32236e-06
5.46379e-06
7.26546e-06
9.95301e-06
1.07747e-05
1.10114e-05
8.57142e-06
6.21928e-06
4.77545e-06
3.8564e-06
3.15161e-06
2.55442e-06
2.06054e-06
1.64637e-06
1.22334e-06
9.94946e-09
1.57824e-08
1.96204e-08
2.34511e-08
2.68718e-08
3.02239e-08
3.39476e-08
3.88831e-08
4.55554e-08
5.49506e-08
5.36081e-08
4.88674e-08
4.51504e-08
4.0855e-08
3.65506e-08
3.19219e-08
2.66118e-08
2.05882e-08
1.39055e-08
7.6862e-09
1.9418e-08
2.05969e-08
2.79967e-08
3.30522e-08
3.44279e-08
3.50196e-08
3.6689e-08
4.40556e-08
7.46348e-08
5.51427e-07
4.07985e-07
6.39121e-08
4.75544e-08
4.44451e-08
4.48542e-08
4.62794e-08
4.69465e-08
4.38236e-08
2.79511e-08
1.63119e-08
2.37353e-08
3.28075e-08
4.36274e-08
4.7863e-08
4.68308e-08
4.38564e-08
4.18636e-08
5.02583e-08
1.75115e-07
2.17948e-06
1.57657e-06
1.2521e-07
5.19922e-08
5.22069e-08
5.78412e-08
6.35985e-08
6.63832e-08
6.27959e-08
4.97173e-08
2.72287e-08
3.07634e-08
4.36197e-08
5.37087e-08
5.82163e-08
5.7744e-08
5.38649e-08
5.03901e-08
6.5358e-08
3.57206e-07
4.09393e-06
2.79949e-06
2.04871e-07
5.83072e-08
5.66507e-08
6.1603e-08
6.49091e-08
6.4187e-08
5.90055e-08
5.45937e-08
7.16428e-08
1.59911e-07
8.40037e-08
6.44907e-08
6.36012e-08
6.46891e-08
6.28149e-08
6.07183e-08
8.83598e-08
6.42611e-07
6.49192e-06
4.34775e-06
3.25904e-07
6.79087e-08
6.10492e-08
6.40777e-08
6.56559e-08
6.61376e-08
7.45386e-08
1.17119e-07
2.26514e-07
3.57643e-07
1.74795e-07
9.00112e-08
6.69604e-08
6.49902e-08
6.55969e-08
6.74142e-08
1.12639e-07
9.59877e-07
8.85518e-06
5.91223e-06
4.65562e-07
7.70931e-08
6.29548e-08
6.41491e-08
6.54143e-08
7.08025e-08
9.99864e-08
1.98887e-07
3.89662e-07
5.63001e-07
2.66957e-07
1.31226e-07
9.04619e-08
8.91808e-08
9.69434e-08
1.06879e-07
1.75777e-07
1.27316e-06
1.02471e-05
6.8825e-06
6.55313e-07
1.233e-07
9.48091e-08
8.95882e-08
8.50869e-08
8.91157e-08
1.33049e-07
2.85618e-07
5.5739e-07
7.7404e-07
4.94157e-07
2.27328e-07
2.23617e-07
2.74917e-07
3.20043e-07
3.37242e-07
3.65321e-07
1.28915e-06
9.33288e-06
6.18321e-06
7.43943e-07
3.37994e-07
3.3918e-07
3.16818e-07
2.67931e-07
2.16411e-07
2.00263e-07
4.94322e-07
7.34864e-07
1.01811e-06
8.64526e-07
9.01451e-07
1.41367e-06
1.93605e-06
2.34074e-06
2.52059e-06
2.60385e-06
3.80712e-06
7.99184e-06
6.31783e-06
2.95547e-06
2.45622e-06
2.58202e-06
2.35868e-06
1.88851e-06
1.35511e-06
8.7009e-07
8.07532e-07
9.51221e-07
1.36843e-06
1.83969e-06
2.30683e-06
2.84548e-06
3.47968e-06
4.20161e-06
5.0545e-06
6.14406e-06
7.63484e-06
9.41501e-06
8.57142e-06
6.76821e-06
5.49371e-06
4.58334e-06
3.84592e-06
3.19916e-06
2.62384e-06
2.13598e-06
1.70464e-06
1.26867e-06
9.79785e-09
1.66715e-08
2.20636e-08
2.68624e-08
3.08722e-08
3.38304e-08
3.57847e-08
3.7362e-08
4.05839e-08
4.68989e-08
4.58772e-08
4.51504e-08
4.74126e-08
4.9175e-08
4.90863e-08
4.67234e-08
4.15315e-08
3.28047e-08
2.20978e-08
9.41023e-09
1.81383e-08
2.9183e-08
4.22963e-08
4.55294e-08
4.4263e-08
4.16566e-08
3.8997e-08
3.85581e-08
4.83078e-08
7.70918e-08
6.29457e-08
4.75544e-08
4.91708e-08
5.62189e-08
6.57542e-08
7.65618e-08
8.53968e-08
8.58499e-08
7.12522e-08
2.35519e-08
2.73307e-08
5.56166e-08
6.74762e-08
6.92845e-08
6.43634e-08
5.65243e-08
4.89193e-08
4.46451e-08
5.62808e-08
1.40939e-07
1.00108e-07
5.19922e-08