/*--------------------------------*- C++ -*----------------------------------*\
| =========                 |                                                 |
| \\      /  F ield         | OpenFOAM: The Open Source CFD Toolbox           |
|  \\    /   O peration     | Version:  v2012                                 |
|   \\  /    A nd           | Website:  www.openfoam.com                      |
|    \\/     M anipulation  |                                                 |
\*---------------------------------------------------------------------------*/
FoamFile
{
    version     2.0;
    format      ascii;
    class       volVectorField;
    location    "1800";
    object      U;
}
// * * * * * * * * * * * * * * * * * * * * * * * * * * * * * * * * * * * * * //

dimensions      [0 1 -1 0 0 0 0];


internalField   nonuniform List<vector> 
4000
(
(0.00433087 0.000769343 0.00433087)
(0.00260253 0.0122948 0.00231907)
(-0.00179759 0.00751299 0.000843528)
(-0.00344836 0.000978619 7.36448e-06)
(-0.00416242 -0.00169551 -0.000154978)
(-0.0044459 -0.00117542 -8.24697e-05)
(-0.0032237 -0.00063366 -0.000172877)
(-0.00255078 -0.000949047 -0.000126437)
(-0.00151333 -0.00116273 -0.00012912)
(-0.000451436 -0.00116424 -0.000178304)
(0.000885443 -0.00108145 -0.000193926)
(0.00183691 -0.00109314 -0.000159483)
(0.00264783 -0.000941218 -0.000165139)
(0.0037306 -0.00108886 -0.00014959)
(0.00422922 -0.001989 5.3867e-06)
(0.00409347 -0.000584898 -0.000198358)
(0.00287264 0.00314864 -3.06158e-05)
(-0.000988314 0.00763548 0.0014603)
(-0.00553896 0.00846888 0.00305725)
(-0.00540914 -0.00548818 0.00440541)
(0.00501976 -0.0192431 0.00501977)
(0.0126352 -0.00856575 0.00587793)
(0.0164277 -0.00261155 0.0053895)
(0.0144 0.00204375 0.00444965)
(0.00684229 0.00406771 0.00345555)
(-0.00452411 -0.000237676 0.000656172)
(-0.00370088 -0.0013256 -0.000549222)
(-0.00384164 -0.000813232 -0.000971494)
(-0.00274679 -0.000867124 -0.00120998)
(-0.00167527 -0.00105404 -0.00147655)
(-0.000104968 -0.000949859 -0.00155065)
(0.00137699 -0.0007066 -0.00130609)
(0.00202969 -0.00094594 -0.000843403)
(0.00316546 -0.00141161 -0.000151812)
(-0.00246454 0.00152825 0.00230597)
(-0.0104809 0.00323614 0.0028672)
(-0.0163768 0.00163408 0.00337365)
(-0.0177557 -0.00295174 0.00392321)
(-0.0134887 -0.0102841 0.00417386)
(-0.00483135 -0.0226937 0.0040518)
(0.00283742 -0.0330775 0.00283742)
(0.00806262 -0.021491 0.00381784)
(0.0110881 -0.0107163 0.00378431)
(0.0129049 2.59585e-05 0.00343694)
(0.0103193 0.00539657 0.00303822)
(0.00571199 0.00446384 0.00237135)
(-8.2602e-05 0.000679767 0.00130357)
(-0.0035382 -0.00102926 -0.000608716)
(-0.00270922 -0.000986639 -0.00133936)
(-0.0016552 -0.000897305 -0.00192127)
(-7.57601e-05 -0.00112361 -0.00195394)
(0.000831912 -0.00129324 -0.00125983)
(0.000678001 -0.000858077 0.000312215)
(-0.00399191 0.0014787 0.00193516)
(-0.0071138 0.003546 0.00233364)
(-0.0111575 0.00421594 0.00273052)
(-0.0131386 0.000652142 0.00309324)
(-0.0109852 -0.00848779 0.00328229)
(-0.00779162 -0.0201955 0.00315312)
(-0.00205239 -0.0352101 0.00292351)
(0.00137853 -0.0405917 0.00137853)
(0.00379357 -0.0291752 0.00260629)
(0.00377223 -0.0170095 0.00305877)
(0.00514042 -0.00555035 0.00360196)
(0.00772123 0.00262574 0.00373957)
(0.0075091 0.00429315 0.00345807)
(0.00528604 0.00343621 0.00300391)
(0.00214012 0.00230964 0.00235847)
(-0.00169746 0.000888063 0.00029494)
(-0.000895848 0.000782995 -0.00131004)
(0.00018808 0.00098471 -0.000964947)
(0.000335568 0.00109656 0.000975712)
(-0.00225342 0.0017882 0.00236288)
(-0.00412644 0.00201831 0.00303511)
(-0.00513409 0.00244268 0.00347883)
(-0.00514686 0.00131617 0.00392031)
(-0.00289164 -0.00490053 0.0040015)
(-0.00195488 -0.0149889 0.00330934)
(-0.00226563 -0.0272815 0.00271828)
(-6.65557e-05 -0.0418631 0.00223554)
(0.000434178 -0.043946 0.000434178)
(0.000941653 -0.0330918 0.00194159)
(-0.00171364 -0.0215316 0.002569)
(-0.00178331 -0.0124475 0.00347995)
(-0.00136866 -0.00628645 0.0043856)
(-0.000153513 -0.00270684 0.00466655)
(0.000125728 -0.000954147 0.00438439)
(-0.000116255 0.000237828 0.00397989)
(-0.000466475 0.00117394 0.00341629)
(9.92195e-05 0.00107031 0.00294363)
(0.00167051 0.000100417 0.00306155)
(0.00277218 -0.00103511 0.0034176)
(0.00334261 -0.00196317 0.00364911)
(0.00378541 -0.00302467 0.0038693)
(0.00426712 -0.00458651 0.00413529)
(0.00484465 -0.00719728 0.0042527)
(0.00486731 -0.011957 0.00382674)
(0.00436673 -0.0198483 0.00299479)
(0.00158998 -0.0310257 0.00239645)
(0.00126823 -0.0446204 0.00174955)
(-0.000337188 -0.0442908 -0.000337193)
(-0.00108833 -0.0345542 0.00129123)
(-0.00509733 -0.0252261 0.00156295)
(-0.00609079 -0.0184305 0.00192063)
(-0.00644337 -0.0138231 0.0021417)
(-0.00572099 -0.0109893 0.0022516)
(-0.00448406 -0.00914346 0.00223422)
(-0.00288544 -0.00775924 0.00224678)
(-0.00110681 -0.0067372 0.00236281)
(0.000912879 -0.00650077 0.00251607)
(0.00280702 -0.00746454 0.00222786)
(0.00465644 -0.00839682 0.00198384)
(0.00642846 -0.00931198 0.00183061)
(0.00797595 -0.0103998 0.00178853)
(0.0091503 -0.0118718 0.00184693)
(0.00974068 -0.0141778 0.00192981)
(0.00928621 -0.0180039 0.00195345)
(0.00804723 -0.0240636 0.00179147)
(0.00399572 -0.0331594 0.001746)
(0.00226585 -0.0448508 0.00121554)
(-0.00125518 -0.0421215 -0.00125517)
(-0.00272386 -0.0343601 0.000300898)
(-0.00757856 -0.027382 -4.73992e-05)
(-0.00912463 -0.0228284 -0.000395538)
(-0.00958527 -0.0199437 -0.000855791)
(-0.00871286 -0.0181067 -0.00128528)
(-0.00695811 -0.0167905 -0.00158847)
(-0.00459552 -0.0157132 -0.00172931)
(-0.00190933 -0.0147789 -0.00168669)
(0.000887309 -0.0143518 -0.00139002)
(0.00334874 -0.0151311 -0.00159622)
(0.00575917 -0.0160244 -0.00182863)
(0.00824135 -0.0168261 -0.00189683)
(0.0104467 -0.0176293 -0.00175573)
(0.01212 -0.0186236 -0.0014289)
(0.0129313 -0.0201086 -0.0009704)
(0.0123969 -0.022545 -0.000440296)
(0.0106606 -0.0266587 3.58717e-05)
(0.00567338 -0.0334524 0.000617039)
(0.00318786 -0.0427469 0.000373311)
(-0.00268122 -0.0367804 -0.00268122)
(-0.00484583 -0.0311635 -0.00143801)
(-0.0102993 -0.0267411 -0.00231098)
(-0.012221 -0.0243143 -0.00321794)
(-0.0125983 -0.0230071 -0.00412856)
(-0.01139 -0.0222957 -0.00493715)
(-0.00904882 -0.0217599 -0.00554688)
(-0.00598448 -0.0212994 -0.00600052)
(-0.00255464 -0.0207966 -0.00622982)
(0.000670487 -0.0204563 -0.00598357)
(0.00361295 -0.0209085 -0.00606794)
(0.00653816 -0.0214197 -0.00609283)
(0.00975716 -0.021784 -0.00589745)
(0.0126534 -0.0220749 -0.00549398)
(0.0148709 -0.0224345 -0.00490471)
(0.0160082 -0.0230365 -0.00415182)
(0.0155232 -0.0241467 -0.00323912)
(0.0133868 -0.0263715 -0.00225855)
(0.00770865 -0.0307245 -0.00120371)
(0.00453566 -0.0372815 -0.00109425)
(-0.00515727 -0.0274341 -0.00515727)
(-0.00845989 -0.0236159 -0.00471863)
(-0.0141554 -0.0214335 -0.00586854)
(-0.0161091 -0.0206521 -0.00712191)
(-0.0162217 -0.0205072 -0.00827775)
(-0.0146379 -0.0207013 -0.00924552)
(-0.011764 -0.0209591 -0.0100125)
(-0.00796539 -0.0211103 -0.0105323)
(-0.00363361 -0.0210114 -0.0106968)
(0.000297063 -0.0208375 -0.0101537)
(0.0041707 -0.0210906 -0.0103004)
(0.00781962 -0.0214317 -0.01056)
(0.0118805 -0.021453 -0.0103842)
(0.0154621 -0.0212186 -0.00988974)
(0.0181661 -0.0208697 -0.00915198)
(0.0196088 -0.0205916 -0.0081941)
(0.0193383 -0.0206489 -0.00702339)
(0.0171183 -0.0213453 -0.00570781)
(0.0111378 -0.0235237 -0.00430036)
(0.00692154 -0.0277571 -0.00366614)
(-0.00918492 -0.0169005 -0.00918492)
(-0.0148666 -0.0133855 -0.0105091)
(-0.0205211 -0.011677 -0.0127381)
(-0.0222819 -0.0110228 -0.014858)
(-0.0220031 -0.0107057 -0.0168682)
(-0.0199483 -0.0104744 -0.0186561)
(-0.0164778 -0.0101481 -0.0201588)
(-0.0118453 -0.00962652 -0.0213251)
(-0.00634665 -0.00887456 -0.0219116)
(-0.000887193 -0.00810473 -0.0212552)
(0.00540468 -0.00843393 -0.0213848)
(0.0103917 -0.00912366 -0.0216882)
(0.0156503 -0.00971848 -0.0210904)
(0.0200892 -0.010144 -0.0199632)
(0.023375 -0.0104391 -0.0184654)
(0.0252327 -0.010668 -0.0166545)
(0.0252917 -0.0109835 -0.0146143)
(0.0232191 -0.0116292 -0.012411)
(0.0171985 -0.0133354 -0.0099511)
(0.0108348 -0.0170825 -0.00775163)
(0.00231907 0.0122948 0.00260253)
(0.000779627 0.0106574 0.000779629)
(-0.000602616 0.00353994 0.000548726)
(-0.00101397 -0.00143772 0.000129917)
(-0.00162794 -0.00299214 -5.55867e-05)
(-0.00220097 -0.00145405 0.000402616)
(-0.00168019 -0.000378159 0.000270909)
(-0.00135793 -0.000543491 0.000285467)
(-0.000733298 -0.000794023 0.00019402)
(-5.59566e-05 -0.000827232 6.25387e-05)
(0.000632932 -0.000717608 5.08596e-05)
(0.00111586 -0.00063817 0.000177977)
(0.00146933 -0.000588494 0.000258517)
(0.00197985 -0.00128093 0.000487822)
(0.00222328 -0.00233208 0.000404346)
(0.00190495 -0.00120701 -0.000214966)
(7.44166e-05 0.00225722 0.000527774)
(-0.00234223 0.00714252 0.00265824)
(-0.00459428 0.00975765 0.00464365)
(-0.00516143 0.00228301 0.00756256)
(0.00587793 -0.00856574 0.0126352)
(0.0122096 -0.00405532 0.0122096)
(0.0157783 -0.00066825 0.0102646)
(0.0137798 0.00247194 0.00752984)
(0.00734049 0.00395725 0.00526335)
(-0.000273677 0.000711503 0.00260305)
(-0.00160745 -0.0018643 -6.8129e-05)
(-0.00198861 -0.00140422 -0.000796797)
(-0.00165534 -0.00125819 -0.00145013)
(-0.00128666 -0.00131065 -0.00193642)
(-0.0007027 -0.00126537 -0.00191766)
(-6.39521e-05 -0.0012898 -0.00131009)
(-9.20514e-05 -0.00157667 -0.000266253)
(-0.000671578 -0.00126043 0.00186658)
(-0.00517232 0.00179358 0.00401419)
(-0.0117488 0.00293642 0.00526892)
(-0.0169843 0.00133973 0.00681483)
(-0.0179861 -0.0021103 0.00848307)
(-0.0139284 -0.00805268 0.00966995)
(-0.00609856 -0.01668 0.00962656)
(0.00381783 -0.021491 0.00806262)
(0.0092979 -0.0147569 0.0092979)
(0.0125868 -0.00635292 0.00846364)
(0.0139226 0.00245675 0.00687245)
(0.0113164 0.00632085 0.00545796)
(0.00749982 0.0048074 0.00423662)
(0.00345976 0.00126998 0.00288376)
(-0.000354156 -0.00140684 0.000382565)
(-0.00118447 -0.00131736 -0.00166552)
(-0.00118995 -0.00119304 -0.00271908)
(-0.00115025 -0.00140708 -0.0023931)
(-0.00148954 -0.00164772 -0.000711196)
(-0.00322716 -0.000883808 0.00162655)
(-0.00649154 0.00165246 0.00316397)
(-0.00936925 0.00417614 0.0040427)
(-0.0130989 0.0047694 0.00491904)
(-0.0154338 0.00127952 0.00597515)
(-0.0136689 -0.007081 0.00716715)
(-0.00998333 -0.0175457 0.00758832)
(-0.00378298 -0.02911 0.00662476)
(0.00260629 -0.0291752 0.00379357)
(0.006644 -0.0220792 0.006644)
(0.00804482 -0.0122373 0.00742497)
(0.009841 -0.00151877 0.00709668)
(0.0107618 0.00508142 0.00631242)
(0.00941506 0.00563762 0.00553034)
(0.0068849 0.00392998 0.00449804)
(0.00380346 0.00210707 0.00309214)
(0.000719281 0.000390955 0.000377152)
(-0.000449154 -0.000347999 -0.00259662)
(-0.000982122 -0.000445486 -0.00185614)
(-0.00239204 0.000199517 0.00086714)
(-0.00474726 0.00154423 0.00298405)
(-0.00685183 0.00306228 0.00417045)
(-0.00849509 0.0046069 0.00505573)
(-0.00960512 0.00409889 0.00588584)
(-0.00855842 -0.00177922 0.00681405)
(-0.00723243 -0.0123256 0.00720678)
(-0.00621367 -0.0244322 0.00662413)
(-0.00223312 -0.0359887 0.00443446)
(0.00194159 -0.0330918 0.000941655)
(0.00534215 -0.0259288 0.00534215)
(0.00458582 -0.0157528 0.00734761)
(0.00480166 -0.00517303 0.00816879)
(0.00573177 0.00220229 0.00824416)
(0.00554056 0.00456062 0.00767626)
(0.00415947 0.00453167 0.00671319)
(0.00224518 0.00409535 0.00543582)
(0.000347797 0.00375 0.00359224)
(-2.66394e-05 0.00313484 0.00170475)
(0.00082883 0.00279255 0.00212178)
(0.000783475 0.00276096 0.00370235)
(-0.000439923 0.00291301 0.0051453)
(-0.00174092 0.00321789 0.00623089)
(-0.00266043 0.00346956 0.00724787)
(-0.00285499 0.00208848 0.00818175)
(-0.00208237 -0.00396807 0.00856568)
(-0.00233436 -0.0146165 0.00794835)
(-0.00385961 -0.0274526 0.00651138)
(-0.00126127 -0.0389476 0.00300586)
(0.00129123 -0.0345542 -0.00108832)
(0.00459147 -0.0271925 0.00459147)
(0.00213495 -0.0172952 0.00717826)
(0.00144826 -0.00737827 0.00840299)
(0.000869053 -0.000122998 0.00904023)
(0.00120077 0.00331869 0.00877654)
(0.000688116 0.00425667 0.00807832)
(0.000169726 0.00456106 0.00727064)
(-0.000138977 0.00460849 0.00642026)
(0.000530846 0.00427996 0.00574081)
(0.00185692 0.00388748 0.00591739)
(0.00262998 0.00369901 0.00652267)
(0.00273277 0.0035137 0.00709508)
(0.00252602 0.00312046 0.00768135)
(0.00222451 0.00237472 0.00838088)
(0.00246218 -0.000146406 0.009016)
(0.00187819 -0.00598379 0.00895734)
(0.000966267 -0.0155939 0.00816152)
(-0.00234505 -0.0281812 0.00636731)
(-0.000474548 -0.0392933 0.00178527)
(0.000300905 -0.0343601 -0.00272385)
(0.00362393 -0.02652 0.00362393)
(-0.000253183 -0.0173745 0.00624862)
(-0.00108763 -0.0088846 0.00739253)
(-0.00193326 -0.00308021 0.00792778)
(-0.0015658 0.000484266 0.00820338)
(-0.00114474 0.00212754 0.00807016)
(-0.000645811 0.0027392 0.0078061)
(-6.21421e-06 0.00288186 0.00758065)
(0.00103078 0.00254401 0.00739533)
(0.00228113 0.00208321 0.00746798)
(0.00333006 0.00174887 0.00762392)
(0.00416876 0.00141841 0.00771658)
(0.00487997 0.000781791 0.00774136)
(0.00544107 -0.000536737 0.00783788)
(0.00554662 -0.00323441 0.00797627)
(0.00459265 -0.00832175 0.00793105)
(0.00345297 -0.016187 0.00722421)
(-0.00090284 -0.0270556 0.0055596)
(0.000499241 -0.0374988 0.000316099)
(-0.00143802 -0.0311635 -0.00484583)
(0.00126999 -0.0234292 0.00126999)
(-0.00367276 -0.0161318 0.00345252)
(-0.0045269 -0.0101853 0.00399303)
(-0.00503768 -0.00550138 0.00406681)
(-0.00457234 -0.00241264 0.00401135)
(-0.00337376 -0.000495522 0.00406388)
(-0.00176916 0.00104635 0.00446046)
(-0.000104289 0.00244324 0.00511963)
(0.00141591 0.00321315 0.00563644)
(0.00286554 0.0024948 0.00526092)
(0.00441886 0.000949755 0.00423293)
(0.0061493 -0.000450718 0.0034558)
(0.00769007 -0.00170808 0.00323086)
(0.00866407 -0.00314342 0.00353125)
(0.00883307 -0.00559678 0.00404548)
(0.00805337 -0.00991689 0.00440487)
(0.00658039 -0.015876 0.00423166)
(0.00155135 -0.0240997 0.00302137)
(0.00223133 -0.0329462 -0.0019533)
(-0.00471863 -0.0236159 -0.00845989)
(-0.00464869 -0.0178343 -0.0046487)
(-0.00950123 -0.0135731 -0.00360525)
(-0.0106703 -0.0112679 -0.00397225)
(-0.0106021 -0.0100421 -0.00475052)
(-0.00928991 -0.009587 -0.00544178)
(-0.00711109 -0.00954644 -0.00587535)
(-0.00436105 -0.00966896 -0.00585953)
(-0.00135883 -0.00966998 -0.00534738)
(0.00133066 -0.00951041 -0.00408044)
(0.00383828 -0.00973219 -0.00448469)
(0.00623447 -0.0101625 -0.00549429)
(0.00885435 -0.0101791 -0.00593031)
(0.011216 -0.0100554 -0.00585905)
(0.0130799 -0.0100189 -0.00534694)
(0.0141495 -0.0103679 -0.00449533)
(0.01392 -0.0115277 -0.00347268)
(0.0122036 -0.0138152 -0.00278228)
(0.00674701 -0.0181926 -0.00311758)
(0.00549168 -0.0246045 -0.00599136)
(-0.0105091 -0.0133855 -0.0148666)
(-0.0156733 -0.00814523 -0.0156733)
(-0.021309 -0.00527511 -0.0182151)
(-0.0228364 -0.00376052 -0.0210008)
(-0.0224846 -0.0027957 -0.0237903)
(-0.0204993 -0.00201876 -0.026326)
(-0.0172494 -0.00114971 -0.0284485)
(-0.0129048 -6.42353e-05 -0.0300914)
(-0.00751482 0.00126512 -0.0308992)
(-0.00155192 0.00274294 -0.0301413)
(0.00647265 0.00233199 -0.030341)
(0.01179 0.00112625 -0.0307428)
(0.0169152 1.90669e-05 -0.0298523)
(0.0209726 -0.00096703 -0.0281858)
(0.0238724 -0.00185605 -0.02598)
(0.0254876 -0.00268918 -0.0233318)
(0.0254749 -0.00372846 -0.0204342)
(0.0234625 -0.0053243 -0.0174393)
(0.0172698 -0.0083269 -0.0145016)
(0.0113102 -0.0138793 -0.0128046)
(0.000843528 0.007513 -0.00179758)
(0.000548723 0.00353994 -0.000602615)
(0.000348325 -0.000512343 0.000348327)
(0.000178294 -0.00308233 0.000490149)
(-0.000259464 -0.00351776 0.000506055)
(-0.000653557 -0.00151176 0.000921471)
(-0.000198244 -0.000222742 0.00096459)
(-0.000192962 -0.00043306 0.000960176)
(9.87287e-05 -0.000717004 0.00076603)
(0.000312369 -0.000761787 0.000561375)
(0.000404006 -0.000600217 0.000591309)
(0.000316953 -0.00046416 0.000833661)
(0.000161157 -0.000536839 0.00104732)
(0.000542409 -0.00135256 0.00125677)
(0.000656676 -0.0024932 0.00109367)
(0.00040981 -0.00235545 0.00050046)
(-0.000919257 0.000537126 0.00107097)
(-0.00193448 0.00486447 0.00247533)
(-0.00260027 0.0092454 0.0040856)
(-0.0031759 0.0105587 0.00597562)
(0.00538949 -0.00261155 0.0164277)
(0.0102646 -0.00066825 0.0157783)
(0.0127555 0.00150355 0.0127555)
(0.0106437 0.0034101 0.00875978)
(0.00544519 0.00366735 0.00565432)
(0.000410294 0.000310111 0.00291276)
(-0.000226343 -0.00195154 0.000419977)
(-0.000661889 -0.00166924 -0.000433817)
(-0.000757246 -0.00140662 -0.00124005)
(-0.00110784 -0.0013711 -0.00177201)
(-0.00124424 -0.00132006 -0.0016063)
(-0.00127935 -0.001479 -0.000737952)
(-0.00154999 -0.00181405 0.000668566)
(-0.00181553 -0.00122419 0.00268136)
(-0.00533792 0.00165849 0.00506452)
(-0.0108547 0.00276516 0.0071391)
(-0.0154204 0.00158214 0.00972161)
(-0.0164206 -0.000644287 0.0125036)
(-0.0128579 -0.00422221 0.0144325)
(-0.00649486 -0.00881793 0.0147417)
(0.00378431 -0.0107162 0.0110881)
(0.00846364 -0.00635292 0.0125868)
(0.011705 -7.38666e-06 0.011705)
(0.0124526 0.00538169 0.00950159)
(0.0103048 0.00689974 0.00741101)
(0.00741727 0.00445501 0.00559064)
(0.0040158 0.000818737 0.00355425)
(0.000918437 -0.00154979 0.000902639)
(-0.000234822 -0.00155694 -0.00145007)
(-0.00115199 -0.00144085 -0.00270708)
(-0.00203377 -0.00170323 -0.00210189)
(-0.00293949 -0.00184324 -6.26547e-05)
(-0.00455668 -0.00099221 0.0023492)
(-0.00736703 0.00165044 0.00428176)
(-0.0099665 0.00442696 0.00566817)
(-0.0132296 0.00534967 0.00701096)
(-0.0153877 0.00260894 0.00859703)
(-0.0141969 -0.00393072 0.0101593)
(-0.0104386 -0.0117322 0.0105654)
(-0.00438019 -0.0189562 0.00856146)
(0.00305877 -0.0170095 0.00377223)
(0.00742497 -0.0122373 0.00804482)
(0.00974751 -0.00525433 0.00974751)
(0.011842 0.00274881 0.00961043)
(0.0118535 0.00658367 0.00854679)
(0.0101609 0.00596568 0.00725124)
(0.00742418 0.00373848 0.00564741)
(0.00428066 0.00155706 0.00352709)
(0.00135972 -0.000178496 2.82738e-05)
(-0.00048916 -0.000772089 -0.00296621)
(-0.00192655 -0.00109312 -0.0021372)
(-0.00389192 -0.000674663 0.000863008)
(-0.00630072 0.000962991 0.00356256)
(-0.00858477 0.00317585 0.00522756)
(-0.0106202 0.00527728 0.00641658)
(-0.0122412 0.00508925 0.00738709)
(-0.0122156 0.000105314 0.00831132)
(-0.0102818 -0.00883751 0.00868261)
(-0.00805555 -0.0180138 0.00726517)
(-0.00298945 -0.0255956 0.00303304)
(0.002569 -0.0215316 -0.00171364)
(0.00734761 -0.0157528 0.00458582)
(0.0081844 -0.00867291 0.0081844)
(0.00920837 -0.000487351 0.00965821)
(0.00977971 0.00514714 0.00964866)
(0.00883211 0.00646907 0.00881428)
(0.00668739 0.00547829 0.00742889)
(0.00402234 0.0039699 0.00547398)
(0.00143134 0.00252834 0.0023969)
(0.000198974 0.000958305 -0.00142776)
(-0.000319886 0.000367497 -0.00114821)
(-0.00148602 0.0013576 0.00228335)
(-0.00367003 0.0026591 0.00487089)
(-0.00571894 0.0042848 0.00656862)
(-0.00729335 0.0056825 0.00787268)
(-0.00807617 0.00473249 0.00888936)
(-0.00756129 -0.0010972 0.00940849)
(-0.00699208 -0.0107462 0.00854082)
(-0.00676979 -0.0207629 0.00557188)
(-0.00204413 -0.0289353 -0.000602099)
(0.00156295 -0.0252261 -0.00509733)
(0.00717826 -0.0172952 0.00213495)
(0.00668555 -0.00985809 0.00668555)
(0.0065968 -0.00175993 0.00897212)
(0.0063676 0.00452213 0.00974971)
(0.00585193 0.00703609 0.0092239)
(0.00444216 0.00695909 0.00802772)
(0.00272203 0.00603606 0.00641155)
(0.00110943 0.00493736 0.00422556)
(0.000531092 0.00392586 0.00177415)
(0.000872154 0.00350678 0.00174993)
(0.00063732 0.00394867 0.00373036)
(-0.00062015 0.00474048 0.0056629)
(-0.00197656 0.0056103 0.00713583)
(-0.00308473 0.00625408 0.00849359)
(-0.00352266 0.00468286 0.00962744)
(-0.00381899 -0.00129403 0.00983695)
(-0.00422635 -0.0110012 0.00823758)
(-0.00582568 -0.0214502 0.00425943)
(-0.000976012 -0.0307333 -0.00310366)
(-4.74036e-05 -0.027382 -0.00757856)
(0.00624862 -0.0173745 -0.000253181)
(0.00461608 -0.00955118 0.00461608)
(0.0043042 -0.00210863 0.00722066)
(0.00343088 0.00348325 0.00811962)
(0.00308949 0.00621776 0.00784707)
(0.00257752 0.00653239 0.00698707)
(0.00195656 0.00577981 0.00588253)
(0.00134686 0.00476065 0.00458843)
(0.00119006 0.00382509 0.00324055)
(0.00153432 0.00333374 0.00314377)
(0.00162454 0.00351545 0.00419199)
(0.00125854 0.0041326 0.00525432)
(0.000802002 0.00482139 0.00620747)
(0.000400382 0.00521031 0.00734981)
(0.000164263 0.00367845 0.00854328)
(-0.000827822 -0.00174974 0.00890159)
(-0.00154697 -0.0102884 0.00685145)
(-0.00456206 -0.020652 0.0023776)
(0.000468148 -0.0312046 -0.00521933)
(-0.00231098 -0.0267411 -0.0102993)
(0.00345252 -0.0161318 -0.00367276)
(0.000732583 -0.00797978 0.000732585)
(0.000801347 -0.000194053 0.00304967)
(0.000472158 0.00495239 0.00401463)
(0.000663101 0.00727022 0.00385282)
(0.000943627 0.00794436 0.00329792)
(0.00129267 0.00807481 0.00283992)
(0.00161112 0.00802883 0.00258946)
(0.00182993 0.0078691 0.00238175)
(0.00205944 0.00757028 0.00206275)
(0.00238091 0.00737702 0.00189365)
(0.00273183 0.00724459 0.00207447)
(0.00300018 0.00702814 0.00257607)
(0.00320184 0.00658637 0.00350874)
(0.00333721 0.00483869 0.00459756)
(0.00288133 -0.000131315 0.00468738)
(0.00240712 -0.00820968 0.00304903)
(-0.00175395 -0.0182159 -0.0010896)
(0.00260204 -0.0290076 -0.00787656)
(-0.00586854 -0.0214335 -0.0141554)
(-0.00360525 -0.0135731 -0.00950123)
(-0.00660743 -0.00776502 -0.00660744)
(-0.00605128 -0.00415633 -0.00546935)
(-0.00459344 -0.00179472 -0.00444615)
(-0.00251578 -0.00090677 -0.0037691)
(-0.000804539 -0.00120035 -0.00408942)
(0.000792927 -0.00175601 -0.00422628)
(0.00189421 -0.00187488 -0.00403683)
(0.0024955 -0.00134023 -0.00371672)
(0.00302654 -0.00180918 -0.00397698)
(0.00353229 -0.00297741 -0.00458825)
(0.00434225 -0.00308034 -0.00480179)
(0.00539145 -0.00268205 -0.00461905)
(0.00671081 -0.00223727 -0.00425072)
(0.00829004 -0.00268128 -0.0042385)
(0.00915435 -0.00489813 -0.0044749)
(0.00900742 -0.00842705 -0.00516953)
(0.00519798 -0.0143965 -0.0075729)
(0.00625376 -0.0224727 -0.0118)
(-0.0127381 -0.011677 -0.0205211)
(-0.0182151 -0.00527511 -0.021309)
(-0.0238243 -0.00195004 -0.0238243)
(-0.0248919 -0.000142317 -0.0266964)
(-0.0241222 0.00106455 -0.0296546)
(-0.0218721 0.00208186 -0.0325698)
(-0.0185379 0.00325059 -0.0352471)
(-0.0141868 0.0047196 -0.0374834)
(-0.00859478 0.00648916 -0.0386603)
(-0.00209276 0.00848275 -0.0378834)
(0.00730832 0.00800188 -0.0381914)
(0.0130668 0.00641148 -0.0386587)
(0.0183303 0.00491289 -0.0373861)
(0.0222907 0.00354706 -0.0351444)
(0.0250908 0.00229565 -0.0322835)
(0.0268262 0.00117709 -0.0291445)
(0.0271841 -0.000156071 -0.0259918)
(0.025559 -0.00208356 -0.0228078)
(0.0193647 -0.00558978 -0.019919)
(0.0132303 -0.0121758 -0.018465)
(7.36448e-06 0.000978618 -0.00344837)
(0.000129917 -0.00143772 -0.00101397)
(0.00049015 -0.00308233 0.000178294)
(0.000562339 -0.00373822 0.000562339)
(0.000512647 -0.00283128 0.000923119)
(0.000581793 -0.00126789 0.00149034)
(0.00103035 -0.000172167 0.001738)
(0.000901516 -0.000368764 0.00195147)
(0.000877696 -0.00071352 0.00188092)
(0.000663508 -0.000786183 0.00173637)
(0.000129011 -0.000576975 0.00186872)
(-0.000582393 -0.000423583 0.00214276)
(-0.00102824 -0.000515703 0.00220568)
(-0.000829376 -0.00128708 0.00219297)
(-0.000571834 -0.00244881 0.00184381)
(-0.000685892 -0.00317817 0.00126826)
(-0.00104064 -0.00174986 0.00116297)
(-0.00146619 0.00136359 0.00170978)
(-0.00143308 0.00501248 0.00207262)
(-0.00141742 0.0084409 0.00165217)
(0.00444965 0.00204375 0.0144)
(0.00752984 0.00247194 0.0137798)
(0.00875978 0.0034101 0.0106437)
(0.00670928 0.00382762 0.00670928)
(0.0030325 0.00235096 0.00398218)
(0.000450146 -0.00102083 0.00215447)
(0.000664963 -0.00186204 0.000813498)
(0.000494707 -0.00169453 0.000422316)
(2.20831e-05 -0.00149777 -0.000275034)
(-0.00100117 -0.00143781 -0.000805029)
(-0.00181105 -0.00134586 -0.000470417)
(-0.00229115 -0.00154674 0.000478656)
(-0.00238457 -0.00189401 0.00149131)
(-0.00226573 -0.00152658 0.00293372)
(-0.00419616 0.000915125 0.00488313)
(-0.00833169 0.00255443 0.00709821)
(-0.0121577 0.00214209 0.0103009)
(-0.0132728 0.000816483 0.0139059)
(-0.0106347 -0.00104278 0.0165235)
(-0.00586852 -0.00325986 0.0169565)
(0.00343694 2.59557e-05 0.0129049)
(0.00687245 0.00245675 0.0139226)
(0.00950159 0.00538169 0.0124526)
(0.00991771 0.0071383 0.00991771)
(0.00843944 0.00614585 0.00767466)
(0.00638924 0.00303486 0.00568019)
(0.00345356 -0.000299247 0.00349399)
(0.00140352 -0.0018064 0.00139207)
(0.000328167 -0.00163216 -0.000558556)
(-0.00122672 -0.00153062 -0.00170785)
(-0.00269083 -0.00182416 -0.00095122)
(-0.00372443 -0.0020476 0.000959608)
(-0.00491617 -0.00143351 0.0028975)
(-0.00709614 0.000919604 0.00474908)
(-0.00926926 0.00395548 0.00637261)
(-0.0117251 0.00577534 0.00802297)
(-0.013415 0.00478063 0.0100492)
(-0.0126934 0.00101104 0.0120324)
(-0.00933772 -0.00436965 0.0124185)
(-0.0043153 -0.00930215 0.0102131)
(0.00360196 -0.00555035 0.00514043)
(0.00709668 -0.00151877 0.009841)
(0.00961043 0.00274881 0.011842)
(0.0112596 0.00634926 0.0112596)
(0.0111258 0.00707307 0.00975841)
(0.00955824 0.00534855 0.00800844)
(0.00700926 0.00297481 0.00608957)
(0.00406705 0.000807905 0.00373761)
(0.00151782 -0.000494352 0.000591402)
(-0.000679124 -0.000759374 -0.00194544)
(-0.00270187 -0.00123386 -0.000962836)
(-0.00472346 -0.00111665 0.00172678)
(-0.00699118 0.000326253 0.00415639)
(-0.00923861 0.00272323 0.00593388)
(-0.01125 0.0051869 0.00729107)
(-0.0127855 0.00596695 0.00845281)
(-0.0129714 0.003081 0.00944514)
(-0.0110897 -0.00311628 0.00955003)
(-0.00831222 -0.00946281 0.00761044)
(-0.00329156 -0.0154322 0.00277049)
(0.00347995 -0.0124475 -0.00178331)
(0.00816879 -0.00517303 0.00480166)
(0.00965821 -0.000487349 0.00920837)
(0.0108558 0.00416925 0.0108558)
(0.0111354 0.00675691 0.0106062)
(0.00999951 0.00667423 0.00946228)
(0.00777547 0.00512222 0.00781801)
(0.00508078 0.00326462 0.00564309)
(0.00251766 0.00164339 0.00240045)
(0.000497537 0.000348718 -0.00115733)
(-0.00167426 -0.000552246 -0.000734543)
(-0.00375475 0.000168739 0.00251769)
(-0.00606705 0.00192671 0.00520196)
(-0.00825535 0.00412322 0.00696873)
(-0.0100037 0.00603125 0.00823706)
(-0.0109714 0.00583668 0.00912561)
(-0.0106334 0.00180607 0.00946309)
(-0.00926582 -0.00503886 0.00837903)
(-0.00784134 -0.0119817 0.00479161)
(-0.00232609 -0.0200273 -0.00181993)
(0.00192062 -0.0184305 -0.00609079)
(0.00840299 -0.00737827 0.00144825)
(0.00897212 -0.00175993 0.0065968)
(0.0093699 0.00327096 0.0093699)
(0.00935415 0.00684736 0.0102195)
(0.00858177 0.0079043 0.00971938)
(0.00694817 0.0071198 0.00847469)
(0.00487654 0.00564102 0.00666355)
(0.0027514 0.00408276 0.00401583)
(0.00115807 0.0026785 0.000748323)
(-0.000304309 0.00185034 0.000496399)
(-0.00184366 0.00266079 0.00344355)
(-0.00383463 0.00407146 0.00584325)
(-0.00565612 0.00575095 0.00749396)
(-0.00701779 0.00710571 0.00873812)
(-0.00763139 0.00633857 0.00957736)
(-0.00749318 0.00185915 0.00953685)
(-0.00700618 -0.00539078 0.00764302)
(-0.00711952 -0.0131386 0.00299591)
(-0.000882407 -0.0240976 -0.00464188)
(-0.000395533 -0.0228284 -0.00912463)
(0.00739253 -0.0088846 -0.00108763)
(0.00722066 -0.00210863 0.0043042)
(0.00721024 0.00302299 0.00721023)
(0.00690729 0.00661034 0.00854349)
(0.00653757 0.00796027 0.00860423)
(0.00579349 0.00742098 0.0079264)
(0.00472893 0.00598676 0.00681089)
(0.00341825 0.00435641 0.00523275)
(0.00212814 0.00288056 0.00327527)
(0.000777315 0.00194724 0.00287573)
(-0.000728199 0.00253984 0.00458568)
(-0.00213809 0.00397046 0.00604072)
(-0.00321811 0.00561582 0.00712921)
(-0.00386426 0.00692658 0.00813935)
(-0.00402941 0.00625179 0.00894662)
(-0.0042569 0.00208481 0.00880891)
(-0.00424935 -0.00477403 0.00651413)
(-0.00571454 -0.0133233 0.000918084)
(0.000999685 -0.0266385 -0.0070974)
(-0.00321794 -0.0243143 -0.012221)
(0.00399303 -0.0101854 -0.0045269)
(0.00304967 -0.000194065 0.000801346)
(0.00377725 0.00544161 0.00377724)
(0.00377211 0.00810107 0.00520161)
(0.0041222 0.0091124 0.00551833)
(0.00435977 0.00901825 0.0052895)
(0.00433855 0.00857401 0.00487889)
(0.00395594 0.00815438 0.00439471)
(0.00302723 0.00777513 0.00376948)
(0.00154508 0.00729803 0.00337888)
(0.000267009 0.00719716 0.00368244)
(-0.000440246 0.00737148 0.00421108)
(-0.000815561 0.00776287 0.00477476)
(-0.000799047 0.00831029 0.00553814)
(-0.000347004 0.00789245 0.00627215)
(-0.000549119 0.00498885 0.00611161)
(0.00022453 -0.00216423 0.00332507)
(-0.00237119 -0.0128038 -0.00255078)
(0.00346606 -0.0264696 -0.00998986)
(-0.00712191 -0.0206521 -0.0161091)
(-0.00397225 -0.0112679 -0.0106703)
(-0.00546935 -0.00415634 -0.00605128)
(-0.0031444 0.000375304 -0.0031444)
(-0.00209308 0.00223117 -0.00245651)
(5.43931e-06 0.00211004 -0.00222741)
(0.00177386 0.00100855 -0.00246852)
(0.00294567 -3.46412e-05 -0.00280146)
(0.00356995 -0.000483542 -0.00290106)
(0.00338625 9.4241e-05 -0.00276843)
(0.00281735 -0.000271705 -0.00318395)
(0.00232398 -0.00140289 -0.00367722)
(0.00234282 -0.00118811 -0.00360404)
(0.00275161 -0.00032463 -0.00307856)
(0.00370265 0.000854483 -0.00224844)
(0.00518285 0.00138428 -0.00143393)
(0.00574873 -0.000692635 -0.00118356)
(0.00765037 -0.00508405 -0.00412802)
(0.00522086 -0.0121408 -0.00866656)
(0.00739203 -0.0216106 -0.0139196)
(-0.014858 -0.0110228 -0.0222819)
(-0.0210009 -0.00376052 -0.0228364)
(-0.0266964 -0.000142318 -0.0248919)
(-0.0271116 0.00183109 -0.0271116)
(-0.025909 0.00313934 -0.0297622)
(-0.0237622 0.00431932 -0.0330707)
(-0.0207359 0.00579599 -0.0366621)
(-0.016479 0.00768719 -0.0399474)
(-0.0105487 0.00995998 -0.0421744)
(-0.00311349 0.012573 -0.0421961)
(0.00850369 0.01194 -0.0423387)
(0.0149804 0.00979825 -0.0420504)
(0.0204389 0.00780792 -0.0397534)
(0.0241798 0.00603594 -0.0364682)
(0.0266733 0.00451715 -0.0328089)
(0.0283285 0.00323275 -0.0292732)
(0.0291964 0.00177175 -0.0264205)
(0.0280953 -0.000331966 -0.0237741)
(0.0218058 -0.00409618 -0.0214042)
(0.0151736 -0.0114671 -0.0203312)
(-0.000154978 -0.00169551 -0.00416242)
(-5.5587e-05 -0.00299214 -0.00162793)
(0.000506056 -0.00351776 -0.000259462)
(0.000923119 -0.00283128 0.000512648)
(0.00126764 -0.00187735 0.00126765)
(0.00171516 -0.000729986 0.00209192)
(0.00205036 -0.000109234 0.0025858)
(0.00189044 -0.00037401 0.00307324)
(0.00163258 -0.000774001 0.00334383)
(0.00103322 -0.000863094 0.00350326)
(-0.000267834 -0.000603731 0.0037481)