/*--------------------------------*- C++ -*----------------------------------*\
| =========                 |                                                 |
| \\      /  F ield         | OpenFOAM: The Open Source CFD Toolbox           |
|  \\    /   O peration     | Version:  v2012                                 |
|   \\  /    A nd           | Website:  www.openfoam.com                      |
|    \\/     M anipulation  |                                                 |
\*---------------------------------------------------------------------------*/
FoamFile
{
    version     2.0;
    format      ascii;
    class       volScalarField;
    location    "37.5";
    object      gradTx;
}
// * * * * * * * * * * * * * * * * * * * * * * * * * * * * * * * * * * * * * //

dimensions      [0 -1 0 1 0 0 0];


internalField   nonuniform List<scalar> 
171728
(
0.0745551
-0.0457209
0.0340238
0.0684641
1.27218e-08
-1.0434e-08
1.0265e-08
-1.06522e-09
1.56077e-10
-3.02009e-11
1.08599e-12
-1.72832e-12
5.7665e-10
-1.77593e-11
-3.59124e-13
4.71135e-12
6.66572e-10
-5.4181e-12
1.17814e-10
4.16827e-10
7.51272e-10
-2.02677e-11
-2.30082e-10
9.35101e-11
8.28344e-10
-2.40804e-12
-7.23816e-12
3.37988e-12
2.70357e-10
-5.21743e-12
-9.96139e-12
8.94901e-12
6.01935e-10
-4.44485e-11
-7.84114e-12
1.11383e-12
-1.01925e-12
-4.31441e-12
-4.68116e-13
8.83379e-13
1.41284e-12
1.10369e-10
-1.80945e-10
6.65735e-12
1.10604e-10
8.09705e-11
-5.71619e-13
9.08984e-13
-2.92834e-10
3.83281e-11
-3.68142e-12
9.08984e-13
-5.19773e-11
-1.32443e-11
-2.17513e-12
8.96181e-14
-1.89738e-13
2.78129e-10
-4.3879e-12
8.61358e-11
-9.91813e-13
4.67763e-10
3.22004e-10
8.96181e-14
-1.82211e-12
-4.91643e-12
2.14691e-12
4.99301e-13
-5.5193e-11
-2.70905e-12
1.74544e-12
7.84799e-12
1.36031e-13
-5.56861e-11
-1.42787e-12
9.55585e-11
2.11691e-13
-1.29432e-11
-8.68015e-13
-7.4255e-13
-1.8974e-13
-2.0067e-13
-3.06667e-12
1.50866e-10
2.12868e-13
1.40469e-12
-1.26634e-12
2.57332e-12
1.41677e-12
-1.93647e-11
-7.73921e-13
-7.16945e-13
-1.88955e-13
4.0134e-13
1.73681e-12
-7.16945e-13
-8.50689e-14
1.00335e-13
-7.73137e-13
8.32168e-13
2.11692e-13
-5.01676e-13
-1.34789e-12
-1.53631e-12
2.10908e-13
-1.00335e-13
-1.96083e-11
1.65153e-12
-1.88955e-13
-1.59533e-11
-1.2836e-12
7.68155e-14
2.12476e-13
2.42811e-11
3.24467e-12
-1.53631e-12
9.68687e-13
1.10369e-12
-7.93524e-13
-1.06415e-10
-5.88818e-13
6.12044e-12
-6.27448e-12
-8.06563e-13
1.01455e-12
1.40469e-12
-2.31784e-12
-7.16945e-13
6.13123e-13
2.0067e-13
1.59959e-12
-7.04142e-13
6.36644e-13
-1.39466e-11
-9.7387e-13
1.15223e-13
6.12339e-13
-5.01676e-13
-2.61894e-13
-1.53631e-12
-3.36355e-13
-2.0067e-13
6.66419e-12
-7.16945e-13
-2.41094e-13
3.01005e-13
5.17986e-12
1.11383e-11
-2.41486e-13
-1.04349e-11
3.23604e-12
1.74115e-12
-1.42398e-11
1.90637e-12
8.39002e-13
8.96181e-14
-1.89739e-13
0
1.11344e-13
6.38849e-12
7.43667e-12
-2.20737e-12
-5.71541e-12
3.29027e-12
-6.35074e-13
-1.00335e-12
1.58936e-10
1.40828e-11
-1.89738e-13
5.21743e-12
1.29948e-10
-7.16945e-13
-2.36389e-13
-1.49499e-11
4.77996e-12
2.04841e-11
-2.36389e-13
-5.01676e-13
1.54812e-10
-2.35568e-12
-8.13835e-13
-1.25419e-11
9.06264e-11
-2.69495e-11
6.96457e-11
-5.21743e-12
8.05285e-13
-7.55353e-13
-5.62942e-13
-1.41473e-11
7.02174e-12
4.6563e-11
2.61972e-11
-1.20402e-12
-3.48931e-13
1.84191e-10
7.76284e-11
-3.01006e-13
2.32098e-13
-7.18225e-12
5.09627e-13
-6.8228e-12
5.25357e-14
1.56832e-11
3.54387e-13
-1.00335e-13
1.19797e-11
1.02421e-13
3.22241e-13
9.03017e-13
2.43099e-11
3.25954e-11
-2.98446e-12
4.84619e-11
1.1542e-10
-7.16945e-13
-8.10699e-13
-6.92313e-12
1.81758e-11
-8.8978e-12
1.38736e-12
0
1.55309e-10
8.96181e-14
7.12694e-13
-4.01341e-13
4.72986e-11
-7.16945e-13
6.18217e-13
-1.38463e-11
7.16508e-11
6.4013e-14
1.01773e-11
3.60203e-11
2.02111e-10
-7.16945e-13
2.11691e-13
1.50503e-12
2.29746e-13
9.08984e-13
-9.54571e-13
-1.00335e-13
9.51993e-12
-7.04142e-13
2.08555e-13
-1.41473e-11
7.35123e-11
8.83379e-13
-3.97117e-13
-5.01676e-13
8.53352e-12
-7.16945e-13
5.66078e-13
1.00335e-13
2.53975e-12
1.02421e-13
2.77599e-10
-3.51173e-12
9.28862e-12
2.68726e-11
5.76663e-12
-9.61212e-11
-4.38938e-10
3.26466e-12
2.12475e-13
-2.20738e-12
1.14481e-12
1.9588e-11
4.62742e-12
-2.90972e-12
1.72121e-11
9.08984e-13
6.66436e-15
-7.02347e-13
-4.70469e-13
-7.29748e-13
3.8026e-13
-1.00335e-12
5.41682e-11
9.08984e-13
4.22403e-12
-1.08362e-11
2.89791e-10
-7.04142e-13
2.56699e-10
4.01341e-13
9.18512e-12
1.02421e-13
4.35614e-12
-6.02011e-13
-1.88972e-13
-2.35568e-12
-5.48829e-14
-1.00335e-13
2.44824e-11
-7.04142e-13
5.22799e-11
3.01006e-13
-3.20154e-12
-7.55353e-13
1.76711e-11
-1.25419e-11
2.07955e-11
-2.52851e-11
1.0467e-13
7.32447e-11
-3.66181e-12
8.96181e-14
2.10672e-12
-2.59868e-11
3.50499e-13
1.02421e-13
1.11577e-10
7.02347e-13
4.96391e-11
1.40828e-13
4.66936e-12
-2.90972e-12
1.09014e-10
6.4013e-14
2.08908e-12
-1.00335e-13
6.96247e-11
1.71683e-11
6.51268e-11
8.02682e-13
1.33379e-10
-1.53631e-12
-2.14827e-13
-7.02347e-13
5.19852e-11
1.40828e-13
2.88131e-11
-2.30771e-12
1.46244e-10
9.34589e-13
2.64073e-11
8.02682e-13
1.68265e-10
-4.60893e-13
2.04836e-10
-2.30771e-12
2.91212e-11
1.02421e-13
5.08843e-13
2.393e-10
-6.31416e-11
4.48091e-13
1.51528e-11
-2.0067e-12
-6.20752e-11
3.58473e-13
-6.97562e-12
3.01006e-13
-1.5329e-10
9.21786e-13
1.0467e-13
3.291e-11
-1.54941e-12
9.21786e-13
4.52392e-12
5.21743e-12
-1.17915e-11
2.17644e-13
-4.84146e-13
-2.90972e-12
-1.63472e-11
-1.53631e-12
5.33933e-13
1.10368e-12
-2.4362e-11
-1.76675e-12
1.15558e-14
1.17675e-10
2.96873e-13
2.23976e-12
-1.11528e-12
-3.19975e-10
-1.49098e-12
-1.58329e-13
-0.0962947
-0.530814
0.530731
0.0965066
2.99581
2.9957
-2.85962
2.85968
-2.85952
2.85946
-2.99573
-2.99559
-0.0964121
-0.530811
0.530359
0.0968102
-0.0684053
6.15509e-08
0.0340085
-0.034013
6.6314e-07
-6.63071e-07
0.0684631
-6.14603e-08
0.045721
0.0457201
7.03165e-07
7.03384e-07
-0.0457178
-7.03255e-07
-7.03431e-07
-0.0684068
6.16771e-08
-0.0340246
6.63417e-07
-6.63284e-07
-6.1648e-08
1.25414e-09
0
1.03146e-08
-1.04479e-08
-5.01997e-13
-8.59946e-12
-7.13976e-10
1.63852e-12
1.06394e-08
1.07735e-08
-1.33408e-11
-6.02332e-13
-1.0759e-08
-3.46142e-11
-7.2294e-11
9.14543e-10
8.83409e-13
-1.01812e-08
2.08698e-11
-4.84101e-11
-1.66727e-10
1.11429e-10
-2.94961e-11
-1.20213e-10
-6.27907e-11
3.98819e-11
-1.64108e-10
1.63851e-12
8.19253e-13
-4.79482e-11
1.00393e-13
-1.92496e-10
1.60628e-12
2.77136e-11
-1.62543e-11
-5.02061e-12
-1.20348e-12
-4.225e-13
-3.0624e-11
3.07294e-12
-1.30728e-12
3.07262e-12
-4.01475e-11
-3.27735e-11
2.26064e-11
1.18826e-10
3.02464e-11
8.62209e-11
5.16129e-10
3.39171e-10
-1.81562e-10
-1.25491e-11
-2.09549e-10
2.00786e-13
-4.51855e-11
-1.57526e-11
0
4.09697e-13
-4.225e-13
1.10194e-12
7.89603e-13
3.97592e-11
1.58739e-10
3.27735e-12
4.99796e-11
6.65954e-12
1.60031e-12
1.2268e-12
3.82632e-13
4.09626e-12
8.19253e-13
-2.19981e-10
-1.70065e-10
-1.88082e-10
5.01964e-13
-3.3136e-12
6.02011e-13
0
-1.10618e-11
1.40961e-11
9.46916e-11
-8.43001e-12
1.30728e-12
5.22346e-12
-2.45801e-12
4.99796e-11
2.67597e-11
1.81013e-11
2.03316e-12
2.83838e-13
-5.89862e-11
-1.14695e-11
-2.29209e-10
6.22435e-12
-1.82766e-10
3.51375e-12
-9.0371e-13
-4.83615e-11
-5.02061e-13
-5.76136e-13
1.51076e-12
2.39652e-11
-4.24206e-13
-4.31841e-12
1.22265e-11
-8.19337e-13
8.19333e-13
3.29907e-10
-2.51214e-10
7.85373e-11
1.69688e-10
0
6.88172e-10
-2.28407e-10
-7.02749e-13
-1.18467e-10
7.02749e-13
-1.10453e-12
-3.33815e-10
-1.80742e-12
1.02424e-13
1.2803e-13
1.39663e-12
-2.01909e-12
-3.81525e-12
9.21786e-13
-6.3908e-11
3.1954e-11
2.24692e-11
2.10612e-10
4.12595e-13
1.57781e-10
9.06093e-10
5.76754e-10
-9.30881e-11
4.91925e-12
-1.80158e-10
0
2.00824e-13
-4.61542e-12
-1.30536e-12
5.40288e-12
3.27758e-12
3.6683e-10
-1.3181e-12
1.91233e-13
1.02421e-13
5.73533e-12
0
2.02611e-12
1.77659e-10
6.18108e-13
1.26093e-10
6.97184e-10
6.88991e-10
-1.95004e-10
6.02357e-13
-4.15285e-11
1.30511e-12
-9.0371e-13
-1.97259e-10
-1.00412e-12
-3.61045e-12
-2.2815e-11
9.56164e-14
-1.21616e-12
-4.82001e-12
9.08984e-13
3.35927e-11
6.07945e-10
8.72019e-12
-1.68201e-11
1.40425e-10
-1.39441e-11
-1.14695e-10
2.78546e-11
7.02173e-13
8.03142e-13
-1.0031e-13
1.50589e-12
-4.37797e-11
1.74383e-10
-1.45497e-10
-6.43992e-12
7.25932e-12
1.37938e-13
-9.31136e-12
-1.35274e-12
7.27187e-12
6.99711e-10
-5.73531e-12
1.47614e-10
-1.40351e-12
-1.21425e-12
4.23404e-14
-4.34204e-11
0
5.01552e-13
-1.56613e-11
-1.32008e-10
3.01178e-13
-1.6066e-12
9.00007e-11
-4.32777e-11
-6.45273e-12
-6.41432e-12
2.65845e-12
-1.48982e-14
6.42824e-12
2.71031e-11
-2.58908e-10
-1.63866e-11
-1.77855e-11
-1.04698e-11
-1.01972e-13
2.89326e-12
-3.27701e-12
0
-3.00931e-13
-1.79703e-11
8.1452e-11
4.01571e-13
-7.02886e-13
2.90972e-11
-4.01649e-13
9.34621e-13
9.47424e-13
-4.6711e-13
-1.64664e-13
-5.85218e-10
9.55073e-12
-8.19329e-13
-4.91598e-12
3.60825e-14
-3.10497e-13
-1.32093e-12
-1.69832e-12
0
3.27701e-12
9.65988e-11
6.02357e-13
-9.31883e-11
-1.52597e-11
-1.10453e-12
-8.02682e-12
-4.01649e-13
3.26477e-12
-1.8526e-11
-7.48473e-12
2.31918e-10
1.42641e-13
1.33147e-12
-2.00736e-10
-8.19333e-13
-4.8742e-11
-1.19337e-12
-1.4633e-10
1.8222e-12
-1.63851e-12
0
1.8758e-11
6.02357e-13
2.00621e-13
-9.27629e-11
-9.0371e-13
4.04251e-10
-1.30536e-12
2.44538e-12
1.55301e-11
6.63452e-11
2.63114e-10
1.65683e-12
8.70576e-12
-1.63867e-12
-6.71034e-10
-2.3379e-10
-5.51836e-12
-1.70506e-10
1.31098e-12
5.73477e-12
-1.63851e-12
-5.01553e-13
0
-4.73466e-11
-1.06416e-11
-3.01237e-13
1.81607e-10
-1.30536e-12
3.26477e-12
1.29311e-12
2.49089e-11
-3.17723e-12
-2.60202e-13
2.15084e-12
-5.79269e-10
-5.79269e-10
-1.46816e-10
-2.20327e-12
-1.49016e-10
4.14152e-12
-8.19253e-13
5.73482e-12
-5.01553e-13
6.02357e-13
0
8.03142e-13
-5.02061e-13
-4.61542e-12
-2.00824e-13
-1.74121e-12
-7.1697e-13
8.43305e-13
-1.07502e-12
-5.05215e-11
1.02421e-13
-3.82629e-10
-2.16304e-10
-9.76246e-11
-1.70538e-12
-4.91272e-11
1.3549e-11
4.0963e-12
-2.70357e-11
-9.02795e-13
-9.53731e-11
7.24242e-11
-1.74683e-11
-4.49847e-11
-1.73279e-10
-1.10453e-12
-1.03705e-12
-4.69871e-12
-1.57062e-10
2.72292e-11
4.57767e-11
1.77892e-10
-9.832e-11
-1.63867e-12
-2.61457e-11
4.42066e-12
9.99331e-13
-6.11272e-11
5.73485e-12
-1.96623e-11
1.89587e-11
6.02357e-13
3.00932e-13
-9.28633e-11
3.01237e-13
-1.63145e-10
-1.00412e-12
-2.04848e-13
1.99727e-12
-2.67295e-10
1.46551e-12
-1.55181e-12
6.64454e-12
2.29413e-11
-8.19337e-12
-9.97997e-12
-3.38018e-12
4.68132e-12
-1.83052e-11
-4.09632e-12
-6.0625e-11
-4.30332e-11
-4.01571e-13
1.0031e-12
2.40943e-12
-4.41814e-12
3.01006e-13
-5.02061e-12
1.19068e-12
2.47098e-12
4.37327e-13
-1.05071e-13
-1.96405e-12
4.83938e-12
-1.63867e-12
-8.19329e-13
1.26132e-12
-1.19533e-11
-1.89198e-12
-2.10133e-13
2.62162e-11
-2.45778e-12
2.909e-12
8.13182e-12
-1.20372e-12
2.10825e-12
7.02886e-13
1.00335e-13
-4.61896e-12
-1.52356e-12
9.34621e-13
4.483e-13
-7.70784e-13
1.75401e-12
2.56052e-12
-8.19329e-13
1.72879e-10
-2.23634e-12
4.26773e-12
4.42829e-11
-1.68511e-10
0
-7.98787e-10
-6.01857e-13
5.01964e-13
-1.1034e-12
-2.10825e-12
-1.20495e-12
-3.01005e-13
5.52267e-12
1.2803e-13
9.21818e-13
3.84911e-11
-1.07345e-12
-4.27139e-12
8.74417e-12
0
7.95573e-10
2.53363e-13
-2.40267e-10
2.02218e-10
-1.63767e-10
-8.04522e-10
-7.83221e-10
2.00619e-13
-1.09428e-11
4.01238e-13
-9.99912e-11
4.01649e-13
6.02011e-13
-6.12515e-12
-7.04167e-13
-6.91364e-13
1.0267e-12
-1.07424e-12
8.43305e-13
1.02421e-13
6.5137e-10
5.60424e-10
1.62537e-10
-1.73582e-10
1.42455e-10
-1.64609e-10
-8.34015e-10
-8.28281e-10
-7.02166e-13
8.03142e-13
-1.00309e-12
-9.77826e-11
-5.02061e-13
7.02346e-13
-2.00824e-13
-7.1697e-13
5.24924e-13
1.42641e-13
5.04734e-12
-4.06134e-12
5.59473e-12
4.58827e-10
4.66201e-10
1.16254e-10
-1.76762e-10
1.14865e-10
-1.52175e-10
-9.0693e-10
-6.97198e-10
-1.00309e-13
1.30511e-12
-7.02166e-13
6.02357e-13
8.03298e-13
1.00335e-13
4.25748e-11
-4.89076e-12
9.34621e-13
3.88735e-13
1.91933e-10
-1.50478e-13
5.12104e-14
4.67839e-10
1.81892e-10
1.19787e-10
-2.09388e-10
4.5698e-11
-1.42631e-10
-9.38063e-10
-7.94691e-10
-2.58197e-10
9.03535e-13
1.90588e-12
3.01178e-13
0
1.10369e-12
3.91608e-12
1.2803e-13
1.59142e-11
-1.36057e-12
-8.19792e-12
-1.3021e-11
7.55353e-13
2.76115e-10
-8.19333e-13
7.0195e-11
-1.80516e-10
2.26192e-11
-1.3042e-10
-7.94691e-10
-5.32525e-10
-7.02166e-13
1.70668e-12
5.01547e-13
3.81493e-12
-3.01237e-12
-2.0067e-13
-4.61896e-12
-7.1697e-13
-6.91364e-13
-1.38252e-12
5.20809e-12
-1.25398e-13
-7.16945e-13
2.76115e-10
9.01267e-11
6.36656e-11
-2.08978e-10
2.282e-11
-1.34871e-10
-9.14304e-10
-6.86547e-10
-7.02166e-13
1.00393e-12
4.01238e-13
1.20471e-12
-3.01237e-13
-3.10035e-11
-1.50618e-12
-6.15698e-11
6.65757e-12
-9.97543e-12
9.74654e-13
-2.33197e-10
5.59473e-12
3.58868e-10
6.55467e-12
5.41052e-11
-2.13719e-10
8.61279e-13
-4.70049e-10
-8.93003e-10
-7.34065e-10
1.00309e-13
-1.95766e-11
-9.02785e-13
1.00393e-12
4.95032e-11
5.01676e-13
3.01237e-13
1.66439e-12
2.47098e-12
-4.23846e-12
1.05104e-10
-2.01631e-10
-2.20717e-11
3.66242e-10
5.70256e-10
9.43759e-11
-2.04396e-10
1.46129e-10
-2.49961e-10
-8.43027e-10
-1.01753e-09
-1.00309e-13
-4.1161e-12
5.3164e-12
2.811e-12
7.22968e-12
0
-2.00824e-13
1.65159e-12
2.45818e-12
-3.56758e-12
8.45275e-13
-7.20883e-12
-2.41969e-12
8.25888e-10
6.71034e-10
2.10422e-10
-1.40794e-10
1.68294e-10
-1.39003e-10
-7.71751e-10
-5.39898e-10
1.00309e-13
2.00786e-12
4.01238e-13
1.4055e-12
-1.20495e-12
-2.0067e-13
-5.02061e-12
-1.52356e-12
1.2803e-13
-2.8503e-11
-6.58656e-13
-3.68608e-11
-1.20344e-10
4.57188e-10
6.65299e-10
1.13346e-10
-4.39084e-12
1.69193e-10
-1.82627e-11
3.27707e-12
-7.12764e-11
1.1034e-12
-1.4557e-11
-1.30402e-12
1.90746e-12
-5.02061e-13
-6.02011e-13
1.80742e-12
-1.40449e-11
1.6772e-12
-8.78415e-12
-1.66467e-12
-3.06599e-12
4.76256e-12
7.79186e-10
5.71895e-10
1.94881e-10
-2.11701e-14
1.44099e-10
-4.8362e-12
-8.19269e-13
8.19265e-13
-3.00928e-13
0
-4.01238e-13
5.01964e-13
-2.30948e-12
1.40469e-12
-5.02061e-13
-1.53636e-12
-2.45818e-12
2.47662e-13
5.75932e-12
-1.05648e-12
1.15223e-13
5.60424e-10
6.68576e-10
1.42575e-10
-6.89989e-14
1.7005e-10
-6.77444e-13
8.19265e-13
-8.19265e-13
-7.02166e-13
-1.77695e-11
-2.00619e-13
2.00786e-12
1.50618e-12
-3.01005e-13
5.02061e-13
-1.33151e-12
-7.37454e-12
-5.79967e-14
-1.36436e-12
4.07544e-14
1.28026e-13
5.58785e-10
6.70215e-10
1.42769e-10
-4.68095e-13
1.70119e-10
6.3824e-13
0
-8.19265e-13
1.00309e-13
-6.02357e-13
1.00309e-12
1.10432e-12
-1.91285e-10
8.02681e-13
3.71525e-12
-4.16611e-11
-3.16235e-12
4.87486e-13
-5.63778e-13
-1.26652e-12
-5.63314e-12
5.6534e-10
3.77713e-10
1.40172e-10
-7.37034e-14
9.56113e-11
7.68397e-14
0
-8.19265e-13
-1.1034e-12
-1.80707e-11
-7.02166e-13
1.20471e-12
-5.02061e-13
9.03016e-13
-5.02061e-12
-1.51076e-12
-6.91364e-13
5.32943e-14
4.64823e-12
7.36715e-14
-2.35568e-12
4.67839e-10
3.74435e-10
1.19113e-10
2.66587e-14
9.94894e-11
-1.07732e-12
8.19265e-13
-1.63853e-12
3.00928e-13
7.02749e-13
-6.01857e-13
6.02357e-13
-7.02886e-13
3.01005e-13
-4.01649e-13
1.2803e-14
-7.1697e-13
3.1569e-12
-1.63096e-13
-4.35916e-12
8.74417e-12
4.6702e-10
3.73616e-10
1.17279e-10
-4.54609e-12
1.17255e-10
-1.20137e-11
3.27706e-12
-1.63853e-12
-5.01547e-13
4.01571e-13
7.02166e-13
-2.20864e-12
-6.02473e-13
-2.28764e-11
-9.0371e-13
0
9.34621e-13
-5.16798e-12
6.28389e-12
-5.13036e-12
-7.16945e-13
6.67757e-10
4.76852e-10
1.64039e-10
-3.14682e-11
1.17788e-10
-1.76418e-12
9.01191e-12
-2.45779e-12
-2.50774e-12
-3.21257e-12
4.01238e-13
0
4.01649e-13
-2.10704e-12
1.19491e-11
-5.46689e-12
-3.20076e-12
-3.98139e-13
5.83436e-11
2.41392e-13
8.96181e-14
4.61285e-10
5.66159e-10
1.3651e-11
-5.04649e-11
1.4071e-10
-1.46482e-11
-1.63853e-12
-5.65293e-11
5.01547e-12
-1.10432e-12
4.01238e-13
2.20864e-12
-1.00412e-13
-4.0134e-13
-4.01649e-13
-5.76136e-13
-1.31103e-11
-2.60201e-13
1.08733e-11
-1.45462e-12
6.4013e-14
7.31665e-10
-8.19329e-13
1.85386e-10
-5.35368e-11
-1.89512e-12
-8.81459e-12
-1.29444e-10
2.37586e-11
4.01238e-13
-2.00786e-13
8.62661e-12
1.80707e-12
5.7235e-12
-1.20402e-12
-9.33834e-12
1.2803e-14
-1.63879e-12
-6.00502e-12
1.81915e-13
-2.6851e-12
4.83938e-12
-8.19329e-13
0
1.62262e-11
-1.81436e-12
-5.45944e-13
-8.04547e-11
-7.78298e-11
-3.9652e-10
-2.80868e-12
-1.20471e-12
2.7485e-11
3.01178e-12
-9.0371e-13
0
1.00412e-13
1.61702e-11
4.82828e-10
4.73929e-11
1.59007e-10
1.29756e-11
-1.53631e-12
1.63867e-12
-1.63867e-12
2.37674e-13
8.73468e-12
-2.82385e-14
-2.11546e-12
8.19256e-13
-5.7348e-12
-3.0394e-11
-1.00393e-13
0
1.4055e-12
0
-3.01006e-13
-1.00412e-12
5.8666e-10
5.40966e-10
-5.38745e-12
1.45797e-10
-7.63366e-13
-7.04142e-13
8.19333e-13
-8.19333e-13
-6.86353e-13
-5.41801e-13
5.58495e-13
-1.69817e-11
8.19256e-13
4.91554e-12
7.02172e-12
1.60628e-12
-3.02937e-11
1.00393e-12
-8.03298e-13
1.00335e-13
0
5.24502e-10
3.54644e-11
-9.38611e-12
9.44779e-12
-1.41763e-11
-3.99441e-12
1.63867e-12
-1.63867e-12
2.36105e-13
-1.23963e-12
-1.81997e-11
-5.37881e-13
3.27703e-12
-8.19256e-13
-3.99235e-11
-1.20471e-12
-2.20683e-12
-7.86075e-11
-5.02061e-13
-6.02011e-13
6.02473e-13
2.5414e-11
-5.98029e-11
-1.12953e-11
2.26139e-12
6.97531e-13
-1.52351e-12
2.458e-12
-8.19333e-13
-2.98858e-12
-2.60707e-12
-5.26334e-12
-2.54717e-11
-1.63851e-12
-8.19256e-11
-1.84571e-11
3.01178e-13
-7.64365e-11
-1.37538e-11
-2.17593e-10
-1.00335e-13
0
6.55157e-10
1.65159e-12
-1.26183e-12
1.2389e-12
5.47053e-13
-2.34287e-12
1.63867e-12
3.27733e-12
5.37708e-12
-1.6207e-11
-1.61276e-10
1.01147e-12
1.06503e-11
-1.63851e-12
-1.92696e-10
-2.00786e-13
-1.60497e-12
2.00786e-13
0
-9.03017e-13
-3.01237e-13
3.72005e-10
0
-6.69316e-13
1.96029e-13
1.35823e-11
9.21786e-13
0
1.63867e-12
-3.45922e-13
4.51553e-12
-2.75169e-12
-1.19573e-11
-8.19256e-13
-5.98057e-11
-1.47456e-11
-1.00393e-12
-8.02483e-13
-3.01178e-13
0
-4.11374e-12
-3.01237e-13
-1.34291e-10
-6.55515e-12
5.31378e-13
-5.76324e-13
-2.49356e-11
6.23614e-11
-8.19333e-13
-1.63867e-12
-8.99945e-12
2.58747e-13
-2.052e-12
-1.27711e-11
8.19256e-13
-5.32517e-11
-3.23902e-10
-1.15452e-11
-6.01862e-13
9.03535e-13
-1.10453e-12
0
-3.01237e-13
3.60533e-11
7.68182e-12
-6.27935e-12
1.23812e-12
2.48211e-11
1.02421e-13
1.63867e-12
1.63867e-11
-5.23197e-13
-2.75213e-11
-8.00562e-12
-9.7394e-11
-9.01182e-11
-3.66208e-10
-2.20683e-12
1.60628e-12
-1.0031e-12
3.11218e-12
-1.50618e-12
-1.50503e-12
-1.07642e-10
8.19394e-13
7.68182e-14
2.55532e-11
-3.68534e-13
-2.80455e-11
6.66503e-11
1.39287e-11
-1.63867e-12
-2.10093e-10
-4.64679e-11
-3.79071e-10
-5.73964e-11
-4.10448e-10
-2.26115e-10
-7.80414e-11
-1.00393e-13
-1.81461e-10
1.90746e-12
-5.22144e-12
0
1.10453e-12
1.2803e-14
-2.22107e-10
-9.39081e-12
1.03652e-11
-5.68997e-13
-7.16945e-13
1.63867e-12
-8.19333e-13
-2.67593e-10
-7.9898e-13
-2.51009e-13
-9.97353e-13
8.19256e-13
0
4.01241e-13
1.50589e-12
5.01552e-13
5.42121e-12
-2.71113e-12
-7.02347e-13
-1.50618e-12
-3.52211e-11
8.57803e-13
4.7918e-12
9.37017e-13
1.03297e-12
-6.9134e-13
8.19333e-13
0
-2.35321e-13
-4.51161e-12
-8.44018e-13
-3.72753e-12
9.01182e-12
-1.63851e-12
2.13661e-11
-1.00393e-12
1.25388e-11
2.00786e-13
-8.03298e-13
-4.01341e-13
2.00824e-13
3.50803e-12
1.57477e-12
-1.96406e-12
8.8652e-12
-1.08815e-11
-7.16945e-13
8.19333e-13
-8.19333e-13
-7.45418e-12
4.43587e-11
-1.70448e-10
1.3204e-12
-8.19256e-13
-3.27703e-12
-1.51469e-10
1.00393e-12
-1.30403e-12
1.70668e-12
-3.01237e-13
-1.50503e-12
7.22968e-12
1.63879e-12
6.30332e-10
-3.93674e-11
1.64897e-10
-2.26502e-12
2.41969e-12
8.19333e-13
1.63867e-12
-1.45899e-13
-1.17456e-11
-3.46706e-13
-7.45176e-11
-1.63851e-12
-1.63851e-12
-3.89204e-11
-2.49476e-10
-1.10341e-12
5.42121e-12
0
-1.40469e-12
-1.00412e-13
5.36344e-10
-2.56445e-11
5.4235e-13
3.94723e-12
-2.90549e-11
-2.36848e-12
0
-3.27733e-12
-5.48298e-13
2.03077e-13
-5.77164e-12
-1.4747e-11
2.45777e-12
3.03125e-11
-1.92897e-10
9.03535e-13
-1.3251e-10
-3.01178e-12
6.42638e-12
-7.02347e-13
3.01237e-13
4.18403e-11
3.59714e-10
-2.97039e-12
1.93574e-10
-2.96506e-11
6.70856e-11
1.63867e-12
8.19333e-13
-1.4433e-13
2.75605e-12
-3.48275e-13
-6.49816e-11
0
-2.43319e-10
-1.81562e-11
-3.01178e-13
-1.80157e-10
-1.4055e-12
-1.00412e-13
-5.01676e-13
-6.02473e-13
6.49421e-10
1.70588e-10
-1.87942e-12
8.13981e-11
-4.06763e-12
-2.43249e-13
1.63867e-12
-1.63867e-12
-7.45183e-13
-7.19216e-11
-8.54999e-13
2.02293e-13
-2.28573e-10
9.83108e-12
-1.84571e-10
1.70668e-12
-3.58108e-11
2.40943e-12
7.02886e-13
-1.14382e-11
-4.01649e-13
1.90112e-10
3.84987e-11
2.41393e-13
9.47681e-12
-2.87618e-11
5.76245e-11
8.19333e-13
-3.27733e-12
-1.06287e-12
-1.45362e-10
-2.42443e-11
-8.35832e-13
-6.47213e-11
-8.19256e-13
0
-8.74421e-11
-1.9059e-12
-5.01964e-13
0
-3.01006e-13
-3.01237e-13
3.05096e-11
-1.43394e-12
2.97822e-14
2.11711e-14
3.11303e-11
9.21786e-13
1.55673e-11
1.31093e-11
-8.17505e-12
-6.3764e-11
-1.0489e-11
-2.21252e-11
-2.45777e-10
-6.96368e-11
-5.30642e-11
-6.02357e-13
-3.61117e-12
-4.01571e-13
5.02061e-13
-1.00335e-13
2.41993e-11
5.12057e-10
-8.19394e-13
-3.77764e-13
-8.39002e-14
-1.72423e-13
-7.16945e-13
1.4748e-11
-8.19333e-13
-6.58898e-13
-1.09906e-10
-3.65905e-10
-8.13031e-11
-2.21199e-10
-9.42145e-11
1.0332e-11
-1.87735e-11
-2.4877e-10
-1.10432e-12
-3.01237e-13
6.02011e-13
5.12102e-12
-1.48054e-10
2.23797e-11
1.41074e-13
2.86672e-11
9.43626e-13
8.96181e-14
1.63867e-12
0
-4.10594e-10
-2.26875e-10
-3.65828e-10
-3.91885e-12
-4.08809e-10
-2.45777e-12
-3.11263e-10
2.00786e-13
4.61427e-12
-5.01964e-13
3.88395e-10
3.01006e-13
2.99128e-10
3.60661e-11
-8.19394e-13
5.39215e-13
1.94617e-12
-2.39622e-11
5.21834e-11
-8.93073e-11
0
-1.33607e-10
-2.42815e-11
3.12192e-13
1.24252e-10
2.04814e-11
-2.29392e-11
6.52017e-12
-9.43692e-12
-1.81461e-10
0
4.71938e-12
-2.0067e-13
8.67562e-11
4.06483e-10
-2.62206e-11
8.4174e-13
7.85683e-12
3.13497e-15
1.02421e-13
1.63867e-12
-1.81073e-10
-4.54954e-13
-4.98677e-13
-4.59142e-11
-1.2136e-11
-1.63851e-12
2.5397e-11
-1.80157e-10
2.20864e-12
-3.97229e-11
-1.00393e-12
4.01649e-13
1.00335e-13
4.9202e-12
2.5414e-11
-8.19394e-13
-2.86693e-12
2.28961e-13
-8.7936e-13
1.02421e-13
-2.458e-12
-8.19333e-13
-9.28733e-13
4.36624e-11
-3.56276e-12
1.12908e-13
2.04814e-11
-1.63851e-12
-3.82182e-11
1.76691e-11
8.02483e-13
-3.01178e-13
5.87412e-11
-2.60872e-12
4.9202e-12
-1.51972e-10
7.68182e-13
4.29491e-13
7.00449e-12
-1.75135e-11
9.08984e-13
-1.81892e-10
-3.27733e-12
-4.71677e-11
1.80417e-12
-8.12641e-13
-7.62128e-12
-2.45777e-12
8.19256e-13
-2.13661e-11
-1.84723e-11
-1.18767e-10
1.06416e-11
1.73512e-10
-6.02011e-13
4.61896e-12
3.60917e-11
-2.56061e-14
-1.2902e-11
-1.10846e-10
2.9312e-13
1.02421e-13
-3.27733e-12
0
-2.13201e-12
3.0344e-13
-2.18692e-12
-2.60315e-13
-3.27703e-11
0
-5.77787e-11
1.4055e-12
-3.09056e-10
2.40943e-12
4.86799e-10
-1.00335e-12
4.04963e-10
-5.5053e-13
4.77079e-10
-4.37485e-12
1.31045e-10
-6.14454e-13
1.02421e-13
-9.75007e-11
-8.19333e-13
-2.52382e-11
-5.01813e-14
-1.65666e-12
1.30942e-12
1.14696e-11
1.63851e-12
1.81562e-11
3.11218e-12
-5.28635e-11
4.51768e-12
5.02061e-13
-3.11039e-12
3.51443e-12
3.29038e-12
-1.35712e-12
-2.43384e-11
1.23984e-11
1.9661e-11
1.98287e-10
8.19333e-13
1.39287e-11
-1.41977e-13
3.13633e-15
-7.26514e-12
-1.51532e-11
-8.19256e-13
-8.19256e-13
-1.10341e-12
-2.00786e-13
-6.01862e-13
-1.80707e-12
4.85895e-10
-5.31777e-12
1.57647e-10
6.27348e-13
5.49621e-10
-2.40985e-11
1.24408e-10
-6.45804e-13
-7.16945e-13
1.4748e-11
-8.19333e-13
-1.84618e-10
-1.69605e-11
-2.26159e-11
-8.35832e-13
8.19256e-13
0
-1.78051e-10
-1.20471e-12
-2.00621e-13
-2.50982e-12
5.5528e-11
-2.0067e-13
3.01237e-13
8.19394e-13
6.56795e-12
-5.56457e-13
1.07032e-12
-1.1079e-11
3.34276e-11
8.19333e-13
1.63867e-12
-9.28184e-12
8.67195e-13
-3.5455e-13
3.02656e-13
-8.19256e-13
-1.63851e-12
-2.06037e-10
-4.01571e-13
1.64509e-11
3.01178e-13
0
-1.53513e-11
-3.11278e-12
2.13286e-10
0
-8.30767e-14
-4.39888e-13
-5.95645e-14
1.15223e-13
0
8.19333e-13
-4.64367e-13
1.15448e-11
-2.41533e-11
-3.71028e-12
1.22888e-11
1.63851e-12
-1.60497e-12
-3.01178e-13
-5.3666e-11
4.01571e-13
6.51675e-11
-1.90637e-12
1.66785e-10
2.47098e-12
-4.09697e-12
-1.93374e-10
9.28932e-11
-2.05497e-12
1.74115e-12
-1.76157e-10
1.63867e-12
-4.5304e-11
-1.22003e-12
-9.09907e-13
1.31099e-12
-8.19256e-13
0
-1.07432e-10
1.10432e-12
-4.03248e-11
-1.84723e-11
5.86407e-11
-1.90637e-12
9.10739e-11
1.7028e-12
0
4.31059e-13
-3.88215e-12
-8.63685e-13
6.4013e-14
-1.81073e-10
0
-4.60052e-11
3.74211e-11
6.38504e-13
1.43674e-10
1.06503e-11
-8.19256e-13
-2.37033e-10
-9.43692e-11
-1.0031e-12
0
2.05443e-10
-1.10369e-12
4.01649e-13
1.2803e-14
-1.16508e-12
-6.81856e-13
1.98444e-11
1.41074e-13
1.02421e-13
1.63867e-12
-8.19333e-13
-7.25573e-13
-1.70146e-12
9.5854e-13
-1.77657e-11
5.7348e-12
6.55405e-12
-1.44547e-10
8.03142e-13
-6.41986e-12
-9.43692e-11
3.75542e-11
-1.10369e-12
3.01237e-13
6.80225e-11
2.86788e-11
-1.14003e-11
7.89211e-12
-1.7258e-12
2.4709e-12
1.63867e-12
-4.09667e-12
5.88302e-14
-2.01509e-13
-2.04713e-11
5.30777e-11
8.19256e-13
-8.19256e-13
-9.57964e-11
-2.33915e-11
-1.0332e-11
1.90746e-12
4.81979e-12
-1.06355e-11
-2.00824e-13
1.2803e-14
-1.09991e-10
1.39506e-13
3.2431e-12
-6.63047e-13
6.4013e-14
0
0
-5.29472e-13
6.10016e-13
-2.25908e-13
1.31883e-12
2.45777e-12
-1.63851e-12
-9.3088e-11
-6.02357e-13
-3.10962e-12
-4.01571e-13
-7.02886e-13
8.02682e-13
-1.3154e-11
8.11328e-11
2.43258e-13
-2.46879e-12
2.51701e-13
3.94536e-12
8.96181e-14
0
-8.19333e-13
-8.09504e-13
-1.80182e-12
-5.66339e-13
-1.70773e-12
-2.94932e-11
-1.63851e-12
-6.01862e-13
5.42121e-12
-5.01552e-12
-2.93147e-11
-7.53092e-12
-1.40469e-12
-1.29532e-11
-1.82469e-10
3.07273e-13
3.82623e-12
1.00837e-12
-8.6055e-13
-7.04142e-13
1.63867e-12
-1.63867e-12
6.90275e-14
-7.43546e-12
-1.80413e-13
-2.17975e-13
0
-2.45777e-12
-8.12514e-12
-7.02749e-13
-1.96508e-10
2.38935e-11
-1.34552e-11
7.02347e-13
-2.00824e-13
-6.01742e-13
-1.85093e-10
3.65538e-12
2.9322e-11
4.54571e-14
8.96181e-14
1.63867e-12
0
8.74609e-13
-4.86131e-14
-3.26312e-13
-1.88713e-11
-8.19256e-13
-2.37584e-11
-4.96737e-10
3.01178e-13
-3.11865e-10
-2.00786e-13
-2.00824e-13
1.9465e-11
1.10453e-12
1.99689e-10
4.00402e-10
4.43598e-13
9.04554e-11
2.88731e-12
-7.68155e-14
0
-8.19333e-13
-5.95362e-13
-6.17857e-13
2.72972e-13
-1.53367e-12
-1.63851e-12
-2.45777e-12
-5.53713e-11
-1.93758e-10
-8.62669e-12
1.09428e-11
-1.30536e-12
9.03017e-13
-7.33009e-12
4.90305e-10
6.64605e-11
-1.4703e-12
4.61522e-11
2.88261e-12
8.96181e-14
0
0
-5.65555e-13
-5.23767e-13
2.98073e-14
-1.46545e-11
0
0
-2.02928e-10
-2.58612e-10
-9.83041e-11
0
-9.0371e-13
-3.91307e-12
-7.43051e-12
4.09863e-10
5.81322e-10
-1.68975e-12
7.93085e-11
1.39506e-13
9.21786e-13
0
-2.458e-12
4.62013e-13
-2.12486e-13
-5.59436e-12
-9.23649e-13
-8.19256e-13
-3.27703e-12
-3.38046e-11
8.03142e-13
-6.65057e-11
-2.00786e-13
2.70812e-10
1.00335e-13
-1.50618e-12
4.82866e-10
4.93032e-10
-6.64614e-13
1.33532e-10
-1.00915e-11
-6.78537e-13
1.63867e-12
1.63867e-12
7.67617e-12
-1.10164e-12
1.74137e-13
-1.57632e-11
-5.7348e-12
0
-2.80668e-10
1.00393e-13
-1.86577e-11
3.91532e-12
3.9462e-11
8.02682e-12
-3.01237e-13
1.99714e-10
6.22867e-11
-7.16811e-12
5.41745e-12
-1.07929e-10
1.21625e-12
1.20442e-10
0
-7.84403e-14
-3.01872e-13
3.60825e-13
-1.30158e-12
-1.63851e-12
-1.63851e-12
-1.01313e-11
-2.6835e-10
5.71769e-12
3.11218e-12
-1.27222e-10
-1.95654e-11
-1.10453e-12
1.84991e-10
6.16978e-11
-4.63976e-13
1.69439e-11
-3.80335e-11
6.36289e-12
-8.19333e-13
-3.27733e-12
-1.76491e-12
-3.02656e-13
-1.41193e-12
-6.14094e-12
-8.19256e-13
-2.45777e-12
-3.00931e-12
-3.20253e-11
9.32886e-12
8.03142e-13
-3.91608e-12
7.02347e-13
-1.45598e-11
5.67251e-10
2.54908e-11
-1.42312e-10
6.80125e-11
-2.47036e-12
1.02421e-13
-8.19333e-12
-2.458e-12
4.96605e-12
-4.41282e-12
-8.84806e-13
-7.13515e-13
-1.63851e-12
-2.45777e-12
-5.9785e-11
3.53383e-11
-1.40434e-12
2.29899e-11
-2.30948e-12
-2.0067e-13
-1.12462e-11
8.86994e-11
-1.88204e-12
-1.8936e-10
1.65699e-11
-1.59884e-13
9.21786e-13
7.374e-12
0
6.58898e-13
-1.98694e-11
4.76917e-13
-1.33772e-10
-4.75169e-11
-1.74502e-10
-7.02172e-13
-5.01964e-13
-1.7123e-10
4.01571e-13
-1.05433e-11
1.43479e-11
3.01237e-13
-2.97541e-11
-3.91771e-11
3.30269e-12
-3.29974e-10
7.76532e-12
-7.68155e-14
0
0
-2.97289e-13
-1.3055e-12
7.99965e-11
-1.33169e-11
-1.63851e-12
-1.11419e-10
-3.46873e-10
2.36927e-11
-2.21485e-10
1.10432e-12
2.00824e-13
-2.0067e-13
2.00824e-13
-2.83957e-10
-6.50007e-11
-6.87186e-12
-1.77806e-11
-3.94897e-11
8.96181e-14
-8.19333e-13
7.21013e-11
-7.86756e-13
-7.82593e-12
-7.68715e-14
-1.91159e-12
-3.11317e-11
-3.27703e-12
-5.35657e-11
-3.15233e-11
-6.18915e-11
-8.03142e-13
2.00824e-13
-1.47493e-11
1.00412e-13
-6.43541e-10
-1.41166e-10
-8.30767e-14
5.32249e-11
3.33874e-13
9.34589e-13
8.19333e-13
6.71853e-11
3.13255e-10
-1.0836e-11
4.37697e-13
-1.91159e-12
0
-4.91554e-12
3.10962e-11
-4.01571e-13
-2.19479e-10
-5.92317e-12
-9.73999e-12
-1.32443e-11
-1.00412e-13
1.39552e-12
3.88749e-10
2.17128e-11
8.43699e-11
2.46095e-13
1.02421e-13
2.2122e-11
1.63867e-12
-1.05706e-11
-5.1577e-11
7.53027e-14
-2.54905e-11
-1.81875e-10
-9.33952e-11
-1.40434e-12
-6.02357e-13
1.50465e-12
9.03535e-13
-3.01237e-13
-2.70905e-12
4.01649e-13
1.90508e-11
-1.84364e-12
9.32654e-13
1.84596e-11
-3.39737e-11
-2.33724e-10
8.19333e-13
-1.63866e-12
6.93804e-12
-4.02234e-13
-1.42762e-11
1.38625e-12
0
-8.19264e-13
1.0031e-12
-7.02749e-13
-8.14516e-11
-1.78699e-11
1.10453e-12
1.00335e-13
-1.80741e-12
-1.42114e-12
-5.76136e-13
1.78834e-10
4.06952e-13
-1.45244e-11
-2.46957e-11
9.42219e-11
6.5534e-12
3.922e-15
-2.04565e-12
1.30299e-11
9.49924e-13
-8.1926e-13
3.27642e-12
2.00619e-13
8.15182e-11
4.0108e-13
7.02462e-13
8.63539e-12
1.0531e-11
-8.02971e-13
-1.76682e-12
3.97715e-11
-2.28852e-12
8.09654e-13
7.20596e-12
3.34848e-11
-1.63817e-12
-8.13293e-13
-8.50607e-12
-1.68016e-12
6.76283e-14
-6.93153e-11
-3.27608e-12
-8.13257e-13
0
-5.01447e-13
-4.98e-12
3.0363e-11
1.30402e-12
-5.75225e-13
1.2228e-10
-2.81584e-13
5.1469e-13
3.22263e-12
6.91789e-13
-1.54019e-11
-1.21996e-11
-4.24315e-13
7.64505e-13
2.19855e-12
3.16645e-13
6.31701e-14
8.46625e-13
-8.09112e-11
-4.05578e-13
-1.6553e-11
3.1294e-11
9.58882e-12
-3.03222e-13
0.365746
16.2712
1.32241
7.52309
272.527
10.9743
88.211
-22.0527
-238.205
31.5242
3.41169
-30.9039
32.8008
159.328
67.2775
2.1058e-06
0.0117893
0.00671484
1.79339e-06
-0.00450753
-4.79106e-07
-2.31559e-06
0.0057629
0.0722947
1.71193e-06
-0.0745565
0.0745087
-0.0744979
7.9022e-07
-7.9038e-07
7.8987e-07
-7.89963e-07
0.000199337
-0.0700393
-0.0601506
-0.00196949
-0.0731957