/*--------------------------------*- C++ -*----------------------------------*\
| =========                 |                                                 |
| \\      /  F ield         | OpenFOAM: The Open Source CFD Toolbox           |
|  \\    /   O peration     | Version:  v2012                                 |
|   \\  /    A nd           | Website:  www.openfoam.com                      |
|    \\/     M anipulation  |                                                 |
\*---------------------------------------------------------------------------*/
FoamFile
{
    version     2.0;
    format      ascii;
    class       volVectorField;
    location    "1";
    object      U;
}
// * * * * * * * * * * * * * * * * * * * * * * * * * * * * * * * * * * * * * //

dimensions      [0 1 -1 0 0 0 0];


internalField   nonuniform List<vector> 
78750
(
(6.84821e-05 0.000585287 0.00185001)
(0.000354279 0.00143669 0.00371398)
(0.000550984 0.00200611 0.00475653)
(0.000712276 0.00237345 0.00545994)
(0.000782453 0.00248584 0.00579563)
(0.000768481 0.00238423 0.00577809)
(0.000695711 0.00214351 0.0054727)
(0.000591213 0.0018427 0.00498244)
(0.000473051 0.00153637 0.00440612)
(0.000351995 0.0012541 0.00381858)
(0.000234392 0.00100766 0.00326565)
(0.000122949 0.000798646 0.00276882)
(1.88565e-05 0.000624514 0.00233408)
(-7.70294e-05 0.000481593 0.00195767)
(-0.000164216 0.000366268 0.00163172)
(-0.000241062 0.000274326 0.00134907)
(-0.000307253 0.000201707 0.00110263)
(-0.000362897 0.000144659 0.000885755)
(-0.000407953 9.97863e-05 0.000692879)
(-0.000442372 6.41792e-05 0.000519484)
(-0.000466031 3.55026e-05 0.000361869)
(-0.00047866 1.20567e-05 0.00021721)
(-0.000479966 -7.26498e-06 8.31388e-05)
(-0.000469732 -2.29324e-05 -4.14237e-05)
(-0.000447866 -3.52237e-05 -0.000158437)
(-0.000414806 -4.37305e-05 -0.000266173)
(-0.000371331 -4.76497e-05 -0.000362031)
(-0.000318673 -4.56515e-05 -0.000440804)
(-0.000259587 -3.60004e-05 -0.000493569)
(-0.000196218 -1.67585e-05 -0.000511026)
(-0.000132943 1.28125e-05 -0.000483408)
(-7.38744e-05 5.10308e-05 -0.00040798)
(-2.46488e-05 9.22134e-05 -0.000293918)
(6.23671e-06 0.00012168 -0.000168108)
(1.02153e-05 0.000107098 -2.6534e-05)
(-0.000195242 -0.00309849 0.00407916)
(-0.000406199 -0.0037694 0.00627579)
(-0.000721527 -0.00365927 0.00698576)
(-0.00112008 -0.00323241 0.0069881)
(-0.00145698 -0.00263299 0.00644102)
(-0.00170941 -0.00197566 0.00558292)
(-0.00187265 -0.00135125 0.00462806)
(-0.00196216 -0.000794409 0.0037196)
(-0.00199146 -0.000317981 0.00293288)
(-0.00197563 7.36406e-05 0.00229372)
(-0.00192965 0.000383324 0.00179429)
(-0.00186597 0.00061712 0.00140929)
(-0.00179324 0.00078387 0.00111096)
(-0.00171619 0.000893715 0.000876413)
(-0.00163782 0.000956875 0.000688728)
(-0.00156036 0.0009832 0.000534734)
(-0.00148424 0.000981797 0.000404915)
(-0.00140967 0.000960219 0.000292141)
(-0.00133669 0.000924192 0.000190794)
(-0.00126495 0.000877711 9.64076e-05)
(-0.00119381 0.000823361 5.60874e-06)
(-0.00112243 0.000762771 -8.37626e-05)
(-0.00104984 0.000697195 -0.000172528)
(-0.000974989 0.000628117 -0.000260128)
(-0.000896896 0.000557828 -0.000344925)
(-0.000814756 0.000489547 -0.000424497)
(-0.000728192 0.000427403 -0.000496057)
(-0.00063754 0.000375614 -0.000556196)
(-0.000543852 0.000338047 -0.000600652)
(-0.000448632 0.000317058 -0.000623418)
(-0.000353194 0.00031425 -0.00061565)
(-0.000258124 0.000326922 -0.000566049)
(-0.000165974 0.000347239 -0.000459307)
(-9.50319e-05 0.000362046 -0.000291423)
(-4.46064e-05 0.000340095 -2.61159e-05)
(-0.000970287 0.00299295 0.00402167)
(-0.00209532 0.00492232 0.00568854)
(-0.00323604 0.005628 0.0059568)
(-0.00446917 0.00570067 0.00563891)
(-0.00540411 0.00525411 0.00492308)
(-0.00595401 0.00452332 0.00405297)
(-0.00623265 0.00370122 0.00316122)
(-0.0062952 0.00291817 0.00235227)
(-0.00618525 0.00224971 0.00168325)
(-0.00595484 0.00172553 0.00117828)
(-0.0056425 0.00133469 0.000822296)
(-0.0052848 0.00104455 0.000578427)
(-0.0049077 0.000825343 0.000412772)
(-0.00452994 0.000656312 0.000301652)
(-0.00416207 0.000522648 0.000227625)
(-0.00381034 0.000415324 0.000178879)
(-0.00347827 0.000328325 0.000146826)
(-0.00316717 0.000257353 0.000125105)
(-0.0028771 0.000198966 0.000108334)
(-0.00260737 0.000150129 9.17451e-05)
(-0.00235666 0.000108044 7.09078e-05)
(-0.00212312 7.01615e-05 4.1939e-05)
(-0.00190459 3.41999e-05 1.93908e-06)
(-0.0016988 -1.56732e-06 -5.00526e-05)
(-0.00150366 -3.76258e-05 -0.000111943)
(-0.0013171 -7.25427e-05 -0.000177414)
(-0.00113818 -0.000101301 -0.000234976)
(-0.000967221 -0.000115968 -0.000271025)
(-0.000803652 -0.000110996 -0.000283628)
(-0.000647483 -8.52201e-05 -0.000277931)
(-0.000499927 -3.74111e-05 -0.000255119)
(-0.000360618 2.86325e-05 -0.000214432)
(-0.000231022 0.000105105 -0.000155297)
(-0.000135958 0.000174988 -7.56103e-05)
(-6.31575e-05 0.000241616 9.65552e-05)
(-0.00132617 0.00841758 0.00478596)
(-0.00277597 0.0102518 0.00583819)
(-0.00453008 0.00899947 0.00525147)
(-0.00663068 0.00611997 0.00391059)
(-0.00790212 0.00347255 0.0026777)
(-0.00861326 0.00131272 0.00168155)
(-0.00880669 -0.000221361 0.000912988)
(-0.00861064 -0.00146853 0.000182976)
(-0.00814134 -0.00227601 -0.000407142)
(-0.00752563 -0.00277824 -0.000868226)
(-0.00685474 -0.00304133 -0.00118314)
(-0.00619398 -0.00308895 -0.00133215)
(-0.00556981 -0.00300302 -0.00135783)
(-0.00498655 -0.00285175 -0.00131016)
(-0.00445318 -0.00267139 -0.00122117)
(-0.00397223 -0.00248331 -0.00111214)
(-0.00354164 -0.0022982 -0.000996524)
(-0.00315695 -0.00212158 -0.000882656)
(-0.00281315 -0.0019562 -0.000775199)
(-0.00250542 -0.00180343 -0.000676413)
(-0.0022291 -0.00166399 -0.000587139)
(-0.00197994 -0.00153807 -0.000507362)
(-0.0017538 -0.00142537 -0.000436737)
(-0.00154725 -0.00132499 -0.00037463)
(-0.00135723 -0.00123563 -0.000320436)
(-0.00118132 -0.00115521 -0.00027314)
(-0.00101735 -0.00108005 -0.000230849)
(-0.000863281 -0.00100426 -0.000190545)
(-0.000717589 -0.000919476 -0.000148109)
(-0.000579562 -0.000816535 -9.91732e-05)
(-0.000449075 -0.000687648 -4.0652e-05)
(-0.000325458 -0.000531774 2.20484e-05)
(-0.000209618 -0.00035688 6.96264e-05)
(-0.000123462 -0.000186425 8.83363e-05)
(-5.69425e-05 1.37259e-05 0.000129817)
(-0.000180164 0.0135874 0.00923331)
(-0.000538833 0.0179627 0.0129063)
(-0.00120781 0.0171502 0.0129614)
(-0.00223219 0.0127979 0.0105524)
(-0.00331807 0.00607434 0.00632605)
(-0.00394327 0.00129683 0.00319236)
(-0.0043671 -0.00211396 0.000774037)
(-0.00451517 -0.00432329 -0.000966608)
(-0.00439637 -0.00558331 -0.00214511)
(-0.00412286 -0.00609348 -0.00281397)
(-0.0037863 -0.00612872 -0.00315537)
(-0.00344694 -0.00587917 -0.00325313)
(-0.00312135 -0.00548155 -0.00318403)
(-0.0028192 -0.00502368 -0.00300847)
(-0.00254487 -0.00456183 -0.00277332)
(-0.00230133 -0.00412512 -0.00251288)
(-0.00208696 -0.00372674 -0.00224984)
(-0.00189798 -0.00337046 -0.00199755)
(-0.00173121 -0.00305543 -0.00176272)
(-0.00158242 -0.00277808 -0.00154816)
(-0.00144671 -0.00253403 -0.00135459)
(-0.00132202 -0.00232029 -0.00118156)
(-0.00120609 -0.00213423 -0.0010283)
(-0.00109641 -0.00197337 -0.000894132)
(-0.000991388 -0.00183501 -0.000777959)
(-0.000889702 -0.00171577 -0.000677993)
(-0.00079028 -0.00161057 -0.000591334)
(-0.000692349 -0.00151205 -0.00051387)
(-0.000595433 -0.00141042 -0.000440772)
(-0.000499281 -0.00129486 -0.000367392)
(-0.000403547 -0.00115526 -0.000290295)
(-0.000307334 -0.000986526 -0.000212324)
(-0.000211394 -0.000788746 -0.000148046)
(-0.000135083 -0.000581631 -0.000111692)
(-6.58305e-05 -0.000290889 -3.98861e-05)
(0.000558685 0.00408361 0.0047513)
(0.00136581 0.00536682 0.00677189)
(0.00210568 0.00469016 0.00676965)
(0.00287476 0.00271419 0.0055488)
(0.00330401 0.000227975 0.00360019)
(0.00339499 -0.00196525 0.00159691)
(0.00326233 -0.0035095 -6.80932e-05)
(0.00304266 -0.00443767 -0.00134498)
(0.00277678 -0.00482959 -0.00218762)
(0.00250236 -0.00483559 -0.00262581)
(0.0022195 -0.00461378 -0.0027928)
(0.00195452 -0.00427661 -0.0027628)
(0.00170997 -0.00390132 -0.00261155)
(0.00148435 -0.00353115 -0.00239636)
(0.00127783 -0.00318881 -0.00215526)
(0.0010883 -0.00288357 -0.00191241)
(0.000914561 -0.002618 -0.00168224)
(0.000755664 -0.00239109 -0.00147283)
(0.000611257 -0.00220008 -0.00128787)
(0.00048134 -0.00204124 -0.00112805)
(0.000366066 -0.00191036 -0.000992028)
(0.000265767 -0.0018029 -0.00087728)
(0.000180277 -0.00171516 -0.000780755)
(0.000109307 -0.00164361 -0.000699535)
(5.24027e-05 -0.00158462 -0.000630986)
(8.35922e-06 -0.00153512 -0.000572459)
(-2.41185e-05 -0.00149091 -0.00052113)
(-4.62634e-05 -0.00144569 -0.000473891)
(-5.93357e-05 -0.00139081 -0.000427272)
(-6.42487e-05 -0.00131673 -0.000377872)
(-6.18744e-05 -0.00121326 -0.000322637)
(-5.28684e-05 -0.00107255 -0.000263407)
(-3.77892e-05 -0.00089191 -0.000212283)
(-2.4567e-05 -0.000689567 -0.000179999)
(-1.09999e-05 -0.000394418 -9.9922e-05)
(0.000272447 -0.000172384 4.12632e-05)
(0.000642361 -9.84429e-05 -0.000163355)
(0.0010384 -0.000142929 -0.000460583)
(0.00146043 -0.000315387 -0.000826946)
(0.00171663 -0.000539414 -0.00118088)
(0.00179652 -0.000732444 -0.00146518)
(0.00174948 -0.000867244 -0.00165377)
(0.00162681 -0.00095033 -0.00174917)
(0.00146404 -0.000992097 -0.00176644)
(0.00129082 -0.000998685 -0.00171875)
(0.00112406 -0.000976887 -0.00162227)
(0.00097071 -0.00093369 -0.00149358)
(0.000832323 -0.000873865 -0.00134786)
(0.000707071 -0.000802594 -0.00119752)
(0.000592021 -0.000726599 -0.00105226)
(0.000484384 -0.000653625 -0.000919105)
(0.000382595 -0.000591399 -0.000802504)
(0.000286653 -0.000546087 -0.000704392)
(0.000197056 -0.000521461 -0.000624523)
(0.000113903 -0.000519073 -0.000561032)
(3.72366e-05 -0.000538301 -0.000511276)
(-3.25615e-05 -0.00057657 -0.000472428)
(-9.46535e-05 -0.000629786 -0.000441878)
(-0.000147401 -0.000692349 -0.000417229)
(-0.000188942 -0.000758017 -0.000396486)
(-0.000218339 -0.000820978 -0.000377867)
(-0.000235745 -0.000876117 -0.000359857)
(-0.000241884 -0.0009184 -0.000341049)
(-0.000237558 -0.000941807 -0.000320159)
(-0.000223479 -0.000939206 -0.000295505)
(-0.000200573 -0.000902747 -0.000266004)
(-0.000168645 -0.000826796 -0.000234072)
(-0.000128349 -0.000709313 -0.000209442)
(-9.13805e-05 -0.000568401 -0.000197058)
(-4.65324e-05 -0.000365717 -0.00013716)
(3.50586e-05 -0.000646267 -0.000137174)
(8.67113e-05 -0.000812406 -0.000363752)
(0.00014928 -0.000904724 -0.000534356)
(0.000229018 -0.00100478 -0.00067321)
(0.000297678 -0.00109864 -0.000767897)
(0.000350914 -0.00117386 -0.000821905)
(0.00039043 -0.00122097 -0.000838516)
(0.000418067 -0.00123572 -0.000822117)
(0.000434308 -0.0012193 -0.000779788)
(0.000439709 -0.00117474 -0.000720076)
(0.000434876 -0.00110526 -0.000652571)
(0.000421415 -0.00101273 -0.000585465)
(0.000402241 -0.000898925 -0.000525515)
(0.000380814 -0.000767265 -0.000477807)
(0.000359927 -0.000625422 -0.000444907)
(0.000341203 -0.000486978 -0.000426351)
(0.000325217 -0.000370154 -0.000418654)
(0.000310225 -0.000291432 -0.000416667)
(0.000296889 -0.000242342 -0.00041665)
(0.000283416 -0.000218298 -0.000415213)
(0.000268256 -0.000217923 -0.000409913)
(0.00024997 -0.00024298 -0.000399803)
(0.000228008 -0.000297323 -0.000385199)
(0.000200876 -0.000389473 -0.00036755)
(0.000169287 -0.000510946 -0.000348471)
(0.000134548 -0.000644026 -0.00032901)
(9.79931e-05 -0.000774414 -0.00030945)
(6.15943e-05 -0.000892322 -0.000290283)
(2.80213e-05 -0.000988933 -0.000271734)
(7.24783e-07 -0.00105523 -0.000253696)
(-1.73097e-05 -0.00108121 -0.000235422)
(-2.50087e-05 -0.00105724 -0.000218737)
(-2.32907e-05 -0.000977184 -0.000210982)
(-1.87891e-05 -0.000853728 -0.00021417)
(-8.50981e-06 -0.000623922 -0.000178419)
(7.19817e-06 -0.000654167 0.000156278)
(1.71033e-05 -0.000761769 0.000114418)
(1.89018e-05 -0.000804645 5.09305e-05)
(1.923e-05 -0.000834468 -1.12331e-05)
(1.32301e-05 -0.000848396 -6.38417e-05)
(-5.63685e-07 -0.000842813 -0.000107596)
(-2.13067e-05 -0.000813979 -0.000143571)
(-4.65132e-05 -0.000760285 -0.000172064)
(-7.33717e-05 -0.000683123 -0.00019431)
(-9.96006e-05 -0.000587825 -0.000211501)
(-0.000122901 -0.000484522 -0.000226025)
(-0.000141395 -0.000388774 -0.000239679)
(-0.000153675 -0.000317644 -0.000253998)
(-0.000158094 -0.000270606 -0.000270337)
(-0.000153066 -0.000238815 -0.000289672)
(-0.000138184 -0.000216482 -0.000311151)
(-0.000114367 -0.000200076 -0.00033337)
(-8.38869e-05 -0.000187935 -0.000354164)
(-4.94472e-05 -0.000179397 -0.000372018)
(-1.30169e-05 -0.000174076 -0.000385379)
(2.35517e-05 -0.000172445 -0.000393433)
(5.86288e-05 -0.000175089 -0.000394823)
(9.01415e-05 -0.000183741 -0.000388639)
(0.000115699 -0.000200095 -0.000373205)
(0.0001326 -0.000226953 -0.000347922)
(0.000139517 -0.000266425 -0.000312636)
(0.000136231 -0.000321579 -0.000270399)
(0.000123827 -0.000394304 -0.000226104)
(0.000104567 -0.000486466 -0.000187511)
(7.99795e-05 -0.000598506 -0.000160689)
(5.39371e-05 -0.000696666 -0.000145169)
(2.88881e-05 -0.000752419 -0.000139835)
(7.89877e-06 -0.000747816 -0.000149321)
(-5.37193e-06 -0.000691781 -0.000173654)
(-6.45837e-06 -0.000560266 -0.000178638)
(-2.06081e-05 -0.000782224 0.000150903)
(-3.72369e-05 -0.000921008 0.000190639)
(-5.82036e-05 -0.000953273 0.000184006)
(-8.23819e-05 -0.000945849 0.000163081)
(-0.000106814 -0.000905837 0.000132147)
(-0.000131698 -0.000846699 9.08771e-05)
(-0.00015617 -0.00078475 4.08371e-05)
(-0.000178378 -0.000727045 -1.31638e-05)
(-0.000196131 -0.000675217 -6.45007e-05)
(-0.000207477 -0.000631488 -0.000109142)
(-0.000211321 -0.000594553 -0.000145659)
(-0.000207431 -0.000563827 -0.000175275)
(-0.000197057 -0.000537436 -0.000199267)
(-0.000182082 -0.000514683 -0.000219094)
(-0.000164105 -0.000494285 -0.000235633)
(-0.000144081 -0.000476293 -0.000249879)
(-0.000122666 -0.000460368 -0.000262205)
(-0.000100314 -0.000447211 -0.000272992)
(-7.73745e-05 -0.000436765 -0.000281998)
(-5.42032e-05 -0.000429835 -0.000289047)
(-3.10538e-05 -0.00042632 -0.00029331)
(-8.31576e-06 -0.000427237 -0.000294041)
(1.36712e-05 -0.000432551 -0.000289688)
(3.43253e-05 -0.000443707 -0.000278873)
(5.30747e-05 -0.00046073 -0.000259584)
(6.91272e-05 -0.00048521 -0.000230896)
(8.16369e-05 -0.000516609 -0.000192804)
(8.96292e-05 -0.000555358 -0.000148421)
(9.19777e-05 -0.000598325 -0.000102854)
(8.7334e-05 -0.000642183 -6.295e-05)
(7.53438e-05 -0.000677764 -3.41152e-05)
(5.75448e-05 -0.000697393 -2.2503e-05)
(3.71065e-05 -0.000688618 -3.40728e-05)
(1.99591e-05 -0.000652279 -6.82379e-05)
(8.84595e-06 -0.000571885 -0.000113521)
(-1.60896e-05 -0.000657236 0.000105688)
(-3.33266e-05 -0.000756769 0.000183136)
(-5.63634e-05 -0.000791601 0.000208465)
(-8.29791e-05 -0.000797024 0.000210854)
(-0.000105787 -0.00077877 0.000192462)
(-0.00012392 -0.000746337 0.000155897)
(-0.000137394 -0.000707295 0.000105257)
(-0.000146427 -0.000667963 4.73475e-05)
(-0.000151207 -0.000631968 -9.26582e-06)
(-0.000152171 -0.000601163 -5.81525e-05)
(-0.000149862 -0.000575682 -9.64078e-05)
(-0.000144835 -0.000555033 -0.000124684)
(-0.000137568 -0.000538236 -0.000144898)
(-0.000128497 -0.000524278 -0.000159458)
(-0.000117935 -0.000512247 -0.000170091)
(-0.000106142 -0.000501609 -0.000178342)
(-9.33264e-05 -0.000492091 -0.000184954)
(-7.97255e-05 -0.000483656 -0.000190568)
(-6.5554e-05 -0.000476476 -0.000195104)
(-5.10938e-05 -0.00047074 -0.000198437)
(-3.65999e-05 -0.000466926 -0.000199729)
(-2.24213e-05 -0.000465475 -0.000198071)
(-8.87167e-06 -0.00046734 -0.000191815)
(3.60453e-06 -0.000473401 -0.000179262)
(1.46079e-05 -0.000485094 -0.000158265)
(2.36254e-05 -0.000503361 -0.000127545)
(3.02218e-05 -0.000528885 -8.72912e-05)
(3.40059e-05 -0.000560955 -4.10878e-05)
(3.47999e-05 -0.000597327 4.65184e-06)
(3.26594e-05 -0.000633209 4.19844e-05)
(2.78968e-05 -0.000661588 6.46592e-05)
(2.09784e-05 -0.000674569 6.76689e-05)
(1.26327e-05 -0.000664557 4.64939e-05)
(5.62431e-06 -0.000629533 3.12137e-06)
(2.29955e-06 -0.00055162 -6.54576e-05)
(-1.12999e-05 -0.00066509 -1.90122e-05)
(-2.36161e-05 -0.000787001 6.1367e-05)
(-3.89529e-05 -0.000835543 0.0001061)
(-5.65853e-05 -0.000854444 0.000125991)
(-7.21127e-05 -0.000849038 0.000120212)
(-8.52346e-05 -0.000827872 9.35943e-05)
(-9.56343e-05 -0.000798261 5.08129e-05)
(-0.000103043 -0.000766492 -1.89501e-06)
(-0.000107279 -0.000736557 -5.62802e-05)
(-0.000108419 -0.000710646 -0.000105074)
(-0.000106637 -0.000689304 -0.00014411)
(-0.000102287 -0.000672129 -0.000172926)
(-9.56475e-05 -0.000658167 -0.000192892)
(-8.69994e-05 -0.000646598 -0.000206225)
(-7.66094e-05 -0.000636722 -0.00021479)
(-6.4708e-05 -0.000628171 -0.00022024)
(-5.16283e-05 -0.000620715 -0.000223617)
(-3.76947e-05 -0.000614323 -0.00022562)
(-2.33793e-05 -0.000609004 -0.000226387)
(-9.07414e-06 -0.000604898 -0.000225685)
(4.68352e-06 -0.00060222 -0.000222797)
(1.7538e-05 -0.000601366 -0.00021655)
(2.89999e-05 -0.000602952 -0.00020537)
(3.87782e-05 -0.000607851 -0.00018729)
(4.63819e-05 -0.000617189 -0.00016044)
(5.15483e-05 -0.000632031 -0.000123525)
(5.38622e-05 -0.000653097 -7.75601e-05)
(5.32589e-05 -0.000679812 -2.67868e-05)
(4.97937e-05 -0.00070981 2.12205e-05)
(4.38368e-05 -0.000738621 5.84541e-05)
(3.60848e-05 -0.000759012 7.87207e-05)
(2.73535e-05 -0.000763502 7.70577e-05)
(1.78395e-05 -0.000743648 4.74496e-05)
(9.7244e-06 -0.000697834 -7.89282e-06)
(4.05977e-06 -0.000595818 -8.84261e-05)
(-1.10096e-05 -0.000602883 -7.17807e-05)
(-2.81723e-05 -0.000716153 1.82148e-05)
(-4.8491e-05 -0.000769838 8.13107e-05)
(-7.27797e-05 -0.000796378 0.000112754)
(-9.38576e-05 -0.000794799 0.00011169)
(-0.000111409 -0.000779023 8.56341e-05)
(-0.00012648 -0.000755223 4.03459e-05)
(-0.000139125 -0.000729436 -1.78499e-05)
(-0.000148484 -0.000706511 -8.09237e-05)
(-0.000153579 -0.000688693 -0.000140703)
(-0.000153761 -0.000676964 -0.000192497)
(-0.000148328 -0.000670755 -0.000234865)
(-0.000137298 -0.000669202 -0.000268627)
(-0.000121383 -0.000670368 -0.000294714)
(-0.000101562 -0.000672982 -0.000314238)
(-7.87952e-05 -0.000675178 -0.00032774)
(-5.39483e-05 -0.000675919 -0.000336024)
(-2.78066e-05 -0.000673775 -0.000339316)
(-1.13446e-06 -0.000668451 -0.000337828)
(2.52976e-05 -0.000659824 -0.000331134)
(5.07194e-05 -0.00064906 -0.000318812)
(7.42653e-05 -0.00063732 -0.000299847)
(9.49509e-05 -0.000626615 -0.000273451)
(0.000111607 -0.00061879 -0.000238612)
(0.000123049 -0.000616182 -0.000194774)
(0.000128501 -0.000620657 -0.000141707)
(0.000128203 -0.000633269 -8.15223e-05)
(0.000122915 -0.000653719 -1.91291e-05)
(0.000113684 -0.000679849 3.69531e-05)
(0.000101425 -0.000706695 7.8724e-05)
(8.6181e-05 -0.000728869 9.93934e-05)
(6.69423e-05 -0.000738579 9.40465e-05)
(4.46658e-05 -0.000714835 5.773e-05)
(2.60589e-05 -0.000662286 -8.29424e-06)
(9.99859e-06 -0.00055969 -9.7597e-05)
(-1.98969e-05 -0.000474921 -0.000108789)
(-4.92333e-05 -0.000572333 -3.70505e-05)
(-8.17565e-05 -0.000641489 1.66104e-05)
(-0.000120264 -0.000696317 3.58423e-05)
(-0.000152503 -0.000720642 2.38284e-05)
(-0.000176297 -0.000717036 -1.03603e-05)
(-0.000192035 -0.000692963 -6.42037e-05)
(-0.000199889 -0.000667124 -0.000136464)
(-0.000200086 -0.000655472 -0.000221986)
(-0.000193759 -0.000658889 -0.000309808)
(-0.000181413 -0.000679435 -0.000390624)
(-0.000163913 -0.000716824 -0.000459275)
(-0.000143536 -0.000756068 -0.000512784)
(-0.000121549 -0.000789403 -0.000552146)
(-9.87006e-05 -0.000815462 -0.00058012)
(-7.55392e-05 -0.00083414 -0.000598825)
(-5.2198e-05 -0.00084589 -0.000610086)
(-2.87084e-05 -0.000851072 -0.000614977)
(-4.94089e-06 -0.000849843 -0.000614017)
(1.92049e-05 -0.000842367 -0.000606711)
(4.38314e-05 -0.000828414 -0.000591863)
(6.88731e-05 -0.000807509 -0.000567569)
(9.39474e-05 -0.000778936 -0.000531647)
(0.000118262 -0.000742011 -0.00048134)
(0.000140574 -0.000699546 -0.000414687)
(0.000159071 -0.000663023 -0.000333408)
(0.000171417 -0.000645798 -0.000244541)
(0.000177471 -0.0006456 -0.000156989)
(0.000175271 -0.000660742 -8.25918e-05)
(0.000164458 -0.000674908 -2.71148e-05)
(0.000144501 -0.000670353 8.29817e-06)
(0.000114826 -0.000640322 2.14112e-05)
(7.80909e-05 -0.000582842 3.42476e-06)
(4.6715e-05 -0.000515533 -4.9024e-05)
(1.85932e-05 -0.000433318 -0.000119512)
(-1.56981e-05 -0.000281447 -7.77371e-05)
(-4.3071e-05 -0.000308217 -1.79767e-05)
(-7.7055e-05 -0.000369725 2.04484e-05)
(-0.000117811 -0.000446996 1.83878e-05)
(-0.000151109 -0.000519581 -2.08651e-05)
(-0.000172222 -0.000581931 -8.71088e-05)
(-0.000179991 -0.000629158 -0.000174662)
(-0.00017509 -0.00066277 -0.000278038)
(-0.000159865 -0.000689399 -0.000388734)
(-0.00013789 -0.000713073 -0.000495635)
(-0.000113308 -0.000730749 -0.000588563)
(-8.98471e-05 -0.000738989 -0.000662681)
(-6.97538e-05 -0.00073814 -0.000717985)
(-5.34554e-05 -0.000731268 -0.000757247)
(-4.0152e-05 -0.000722786 -0.000784034)
(-2.8768e-05 -0.000715559 -0.000801403)
(-1.84573e-05 -0.000710614 -0.000811535)
(-8.65502e-06 -0.000708136 -0.000815851)
(1.02574e-06 -0.000708261 -0.000814845)
(1.09631e-05 -0.000711245 -0.000808099)
(2.16822e-05 -0.000717306 -0.000794228)
(3.39961e-05 -0.000725826 -0.000771021)
(4.89891e-05 -0.000734231 -0.000735354)
(6.75928e-05 -0.000737987 -0.000683533)
(8.98075e-05 -0.000733046 -0.000612504)
(0.000114068 -0.000717413 -0.000521843)
(0.000136955 -0.000692716 -0.000415898)
(0.000154069 -0.000661243 -0.000304538)
(0.000161461 -0.000620265 -0.000199046)
(0.00015659 -0.000564797 -0.000108344)
(0.000138609 -0.000494385 -3.84606e-05)
(0.000108535 -0.000414959 4.46587e-06)
(7.09722e-05 -0.000333494 9.92993e-06)
(3.94901e-05 -0.000272274 -2.58148e-05)
(1.41677e-05 -0.000256411 -8.35444e-05)
(-1.05273e-05 -0.000154453 -6.53734e-05)
(-3.00128e-05 -0.000113097 -2.8371e-05)
(-5.49459e-05 -0.000162486 -1.20106e-05)
(-8.47179e-05 -0.000259827 -3.61391e-05)
(-0.000108081 -0.000376179 -9.7828e-05)
(-0.000121585 -0.000491601 -0.000185537)
(-0.000125015 -0.000588234 -0.000289316)
(-0.000119602 -0.000655741 -0.000399154)
(-0.000107681 -0.00068991 -0.000504935)
(-9.26986e-05 -0.000691694 -0.000597356)
(-7.77933e-05 -0.000666201 -0.000670374)
(-6.49242e-05 -0.000622549 -0.000722002)
(-5.42704e-05 -0.000572607 -0.000754349)
(-4.49444e-05 -0.000529417 -0.000772127)
(-3.57478e-05 -0.000502169 -0.000781265)
(-2.64316e-05 -0.000487729 -0.000785036)
(-1.68176e-05 -0.000480823 -0.000786127)
(-6.95639e-06 -0.000478457 -0.000786421)
(2.97995e-06 -0.000479534 -0.000786606)
(1.2807e-05 -0.000485123 -0.000786137)
(2.24312e-05 -0.000498222 -0.000783283)
(3.20006e-05 -0.000524125 -0.000775438)
(4.16455e-05 -0.000566904 -0.000759629)
(5.25092e-05 -0.000617527 -0.000729851)
(6.54311e-05 -0.000662641 -0.00068115)
(8.0268e-05 -0.000689615 -0.000611072)
(9.52144e-05 -0.000688709 -0.000521132)
(0.000107336 -0.000654237 -0.000416961)
(0.000113378 -0.000584952 -0.000307554)
(0.000111061 -0.000485128 -0.000202974)
(9.91314e-05 -0.00036553 -0.000113463)
(7.77851e-05 -0.000244997 -4.94328e-05)
(5.03266e-05 -0.000145319 -2.28078e-05)
(2.73354e-05 -9.67705e-05 -3.6655e-05)
(9.43736e-06 -0.000142797 -7.06671e-05)
(-7.50952e-06 -6.06417e-05 -6.81668e-05)
(-2.19768e-05 2.50681e-05 -5.72756e-05)
(-4.01675e-05 -8.17402e-06 -5.91588e-05)
(-6.24578e-05 -0.000111147 -9.64463e-05)
(-8.08691e-05 -0.000247045 -0.000166329)
(-9.33228e-05 -0.000381149 -0.000256111)
(-9.99808e-05 -0.000486886 -0.000353551)
(-0.000101618 -0.000550829 -0.000448341)
(-9.92801e-05 -0.000569613 -0.000532423)
(-9.43536e-05 -0.000548191 -0.000600142)
(-8.79231e-05 -0.000498537 -0.000649172)
(-8.03835e-05 -0.000438435 -0.00068047)
(-7.13479e-05 -0.000388285 -0.000698676)
(-6.03077e-05 -0.000359219 -0.0007093)
(-4.76464e-05 -0.000343943 -0.000714497)
(-3.37563e-05 -0.000336784 -0.000716708)
(-1.91921e-05 -0.000333847 -0.000717594)
(-4.34301e-06 -0.00033297 -0.00071794)
(1.05521e-05 -0.000333364 -0.000718018)
(2.5249e-05 -0.000335814 -0.00071756)
(3.93649e-05 -0.000342485 -0.000715786)
(5.23469e-05 -0.000357278 -0.000711068)
(6.37611e-05 -0.000385896 -0.000701053)
(7.31573e-05 -0.000435657 -0.000683716)
(8.09839e-05 -0.00049571 -0.000653649)
(8.76299e-05 -0.000545539 -0.000606061)
(9.27195e-05 -0.00056702 -0.000539859)
(9.52384e-05 -0.000547996 -0.0004571)
(9.38825e-05 -0.000483371 -0.000363194)
(8.76935e-05 -0.000376405 -0.000266036)
(7.59789e-05 -0.000240583 -0.000175907)
(5.86237e-05 -0.000103012 -0.000105199)
(3.75984e-05 7.57295e-07 -6.67313e-05)
(2.04796e-05 3.36999e-05 -6.33356e-05)
(6.85868e-06 -5.45334e-05 -7.20214e-05)
(-6.50205e-06 3.06029e-05 -6.66575e-05)
(-1.94668e-05 0.000158271 -6.73581e-05)
(-3.5598e-05 0.00014033 -7.68489e-05)
(-5.6133e-05 4.26177e-05 -0.0001179)
(-7.45671e-05 -9.38202e-05 -0.000186964)
(-8.92786e-05 -0.000228141 -0.000270932)
(-9.9935e-05 -0.000331606 -0.000357883)
(-0.00010633 -0.000391903 -0.000439355)
(-0.000108388 -0.000407483 -0.000510056)
(-0.000106425 -0.000385241 -0.000567136)
(-0.000100795 -0.000338892 -0.000609853)
(-9.18137e-05 -0.000287439 -0.00063965)
(-8.00106e-05 -0.000247871 -0.000659472)
(-6.61615e-05 -0.000225407 -0.000672092)
(-5.11097e-05 -0.000213802 -0.000678987)
(-3.53059e-05 -0.000208521 -0.000682388)
(-1.90859e-05 -0.000206381 -0.00068394)
(-2.69583e-06 -0.000205797 -0.000684434)
(1.37113e-05 -0.00020607 -0.000684125)
(2.99752e-05 -0.000207887 -0.00068277)
(4.58543e-05 -0.000212821 -0.000679598)
(6.10121e-05 -0.000224051 -0.000672996)
(7.49984e-05 -0.000246117 -0.00066078)
(8.69693e-05 -0.000285273 -0.000641514)
(9.61354e-05 -0.000336541 -0.000612516)
(0.000101972 -0.000382888 -0.000570789)
(0.000104164 -0.000405173 -0.00051479)
(0.000102366 -0.000389578 -0.000445138)
(9.62806e-05 -0.000329149 -0.000364548)
(8.60112e-05 -0.000225395 -0.000278184)
(7.17989e-05 -9.06245e-05 -0.00019441)
(5.39951e-05 4.63317e-05 -0.000125107)
(3.41823e-05 0.000144422 -8.33717e-05)
(1.86412e-05 0.000162323 -7.28067e-05)
(6.12419e-06 3.31566e-05 -7.02315e-05)
(-5.97165e-06 0.00011897 -5.61555e-05)
(-1.78702e-05 0.000289573 -5.90172e-05)
(-3.29796e-05 0.000290454 -6.97365e-05)
(-5.28016e-05 0.000204615 -0.000108456)
(-7.14285e-05 7.43604e-05 -0.000171538)
(-8.72217e-05 -5.63203e-05 -0.000246638)
(-9.94761e-05 -0.000157987 -0.000323004)
(-0.000107512 -0.000219215 -0.000393932)
(-0.000110849 -0.000239311 -0.000455926)
(-0.000109499 -0.000225245 -0.000507387)
(-0.000103725 -0.000189743 -0.000547703)
(-9.41083e-05 -0.00015022 -0.000577341)
(-8.15905e-05 -0.000120444 -0.000597679)
(-6.71188e-05 -0.000104633 -0.000610669)
(-5.15295e-05 -9.73579e-05 -0.000617779)
(-3.52079e-05 -9.47219e-05 -0.000621344)
(-1.84538e-05 -9.40078e-05 -0.000622974)
(-1.50724e-06 -9.39041e-05 -0.000623467)
(1.54479e-05 -9.38024e-05 -0.000623025)
(3.22289e-05 -9.4304e-05 -0.000621448)
(4.85954e-05 -9.67124e-05 -0.000617947)
(6.42502e-05 -0.00010374 -0.000610926)
(7.881e-05 -0.000119282 -0.00059807)
(9.14416e-05 -0.000148772 -0.000577925)
(0.00010119 -0.00018812 -0.000548591)
(0.000107117 -0.000223517 -0.000508689)
(0.000108638 -0.000237475 -0.000457732)
(0.000105483 -0.000217231 -0.000396283)
(9.76499e-05 -0.000155808 -0.000325884)
(8.5627e-05 -5.39007e-05 -0.000249957)
(7.00995e-05 7.70536e-05 -0.000175136)
(5.17797e-05 0.000207576 -0.000112103)
(3.22933e-05 0.000293607 -7.31351e-05)
(1.74688e-05 0.000292639 -6.18776e-05)
(5.78683e-06 0.00012065 -5.79598e-05)
(-6.48325e-06 0.000198599 -3.58335e-05)
(-1.83298e-05 0.000408904 -3.24676e-05)
(-3.33563e-05 0.000428635 -3.98802e-05)
(-5.34375e-05 0.000356268 -7.37e-05)
(-7.2692e-05 0.000233399 -0.000130467)
(-8.93411e-05 0.000106091 -0.000198419)
(-0.000102553 3.86306e-06 -0.000267692)
(-0.000111484 -6.238e-05 -0.000332425)
(-0.000115489 -9.2048e-05 -0.000389879)
(-0.000114438 -9.12837e-05 -0.000438898)
(-0.000108537 -7.08243e-05 -0.000478778)
(-9.84273e-05 -4.48448e-05 -0.00050929)
(-8.52013e-05 -2.44433e-05 -0.000530791)
(-6.99161e-05 -1.42668e-05 -0.000544767)
(-5.35009e-05 -1.06657e-05 -0.000552579)
(-3.63846e-05 -1.0294e-05 -0.000556487)
(-1.88464e-05 -1.08593e-05 -0.000558279)
(-1.10856e-06 -1.11805e-05 -0.000558827)
(1.66345e-05 -1.0728e-05 -0.000558338)
(3.41901e-05 -1.00263e-05 -0.00055661)
(5.13367e-05 -1.0252e-05 -0.000552774)
(6.77954e-05 -1.36917e-05 -0.00054505)
(8.31412e-05 -2.36904e-05 -0.00053118)
(9.64429e-05 -4.39514e-05 -0.000509827)
(0.000106648 -6.9841e-05 -0.000479518)
(0.000112659 -9.02442e-05 -0.000439909)
(0.000113834 -9.09552e-05 -0.000391223)
(0.000109975 -6.1219e-05 -0.000334142)
(0.000101212 5.11464e-06 -0.000269783)
(8.81903e-05 0.000107459 -0.000200839)
(7.17556e-05 0.000234912 -0.000133116)
(5.27357e-05 0.000357957 -7.64114e-05)
(3.29018e-05 0.000430503 -4.24119e-05)
(1.80783e-05 0.000410759 -3.45751e-05)
(6.36872e-06 0.000199368 -3.71426e-05)
(-7.35275e-06 0.00027695 -1.63019e-05)
(-1.94288e-05 0.000523937 -3.37509e-06)
(-3.43368e-05 0.000561632 -6.12396e-06)
(-5.44482e-05 0.000503408 -3.55476e-05)
(-7.37738e-05 0.000386475 -8.85787e-05)
(-9.05108e-05 0.000259717 -0.000153116)
(-0.000103835 0.000153969 -0.000218872)
(-0.000112944 7.95499e-05 -0.000280161)
(-0.000117203 3.71445e-05 -0.000334452)
(-0.000116438 2.15808e-05 -0.000380886)
(-0.000110798 2.42388e-05 -0.000419077)
(-0.00010083 3.42748e-05 -0.000448904)
(-8.75157e-05 4.32744e-05 -0.000470518)
(-7.19415e-05 4.73907e-05 -0.000484742)
(-5.49774e-05 4.70361e-05 -0.000493208)
(-3.72551e-05 4.48782e-05 -0.000497586)
(-1.9085e-05 4.29385e-05 -0.000499566)
(-7.06095e-07 4.21716e-05 -0.000500154)
(1.76774e-05 4.30282e-05 -0.000499595)
(3.58594e-05 4.50583e-05 -0.000497644)
(5.36044e-05 4.73073e-05 -0.0004933)
(7.06005e-05 4.77543e-05 -0.00048487)
(8.62173e-05 4.37315e-05 -0.000470688)
(9.95858e-05 3.48145e-05 -0.000449131)
(0.000109615 2.48464e-05 -0.000419388)
(0.000115327 2.22459e-05 -0.000381322)
(0.000116175 3.78672e-05 -0.000335059)
(0.00011201 8.03383e-05 -0.000280978)
(0.000103007 0.000154837 -0.000219918)
(8.9805e-05 0.000260688 -0.000154381)
(7.32027e-05 0.000387582 -9.00124e-05)
(5.40192e-05 0.000504679 -3.70453e-05)
(3.4059e-05 0.000563066 -7.5162e-06)
(1.92797e-05 0.000525399 -4.48351e-06)
(7.28225e-06 0.000277416 -1.69333e-05)
(-7.39789e-06 0.000343209 -4.00514e-07)
(-1.89901e-05 0.000618481 2.03198e-05)
(-3.33344e-05 0.000670548 2.11278e-05)
(-5.27577e-05 0.000624749 -5.36003e-06)
(-7.13275e-05 0.000512744 -5.65834e-05)