/*--------------------------------*- C++ -*----------------------------------*\
| =========                 |                                                 |
| \\      /  F ield         | OpenFOAM: The Open Source CFD Toolbox           |
|  \\    /   O peration     | Version:  v2012                                 |
|   \\  /    A nd           | Website:  www.openfoam.com                      |
|    \\/     M anipulation  |                                                 |
\*---------------------------------------------------------------------------*/
FoamFile
{
    version     2.0;
    format      ascii;
    class       volScalarField;
    location    "900";
    object      alphat;
}
// * * * * * * * * * * * * * * * * * * * * * * * * * * * * * * * * * * * * * //

dimensions      [1 -1 -1 0 0 0 0];


internalField   nonuniform List<scalar> 
78750
(
9.80498e-07
1.29091e-05
1.55445e-05
1.96667e-05
2.1138e-05
2.36046e-05
2.16289e-05
2.09486e-05
2.03141e-05
2.00329e-05
2.01311e-05
2.06023e-05
2.123e-05
2.21063e-05
2.33907e-05
2.42074e-05
2.47701e-05
2.53217e-05
2.45978e-05
2.53257e-05
2.5448e-05
2.59966e-05
2.85637e-05
2.86342e-05
2.80039e-05
2.76199e-05
2.71387e-05
2.59077e-05
2.49551e-05
2.38345e-05
2.08947e-05
1.89274e-05
1.74145e-05
1.56484e-05
1.44235e-06
3.55592e-07
1.23454e-05
9.55558e-06
1.00269e-05
1.35321e-05
1.33493e-05
1.78586e-05
2.72183e-05
3.7523e-05
4.36237e-05
4.71284e-05
4.83452e-05
4.69258e-05
4.78115e-05
4.50441e-05
4.50916e-05
4.71117e-05
5.16116e-05
5.92191e-05
6.0745e-05
6.04719e-05
5.87654e-05
5.76814e-05
5.63384e-05
5.75515e-05
5.00331e-05
3.48176e-05
3.87451e-05
3.98871e-05
2.97038e-05
2.66166e-05
2.22804e-05
1.96824e-05
2.4105e-05
1.31922e-06
1.26236e-07
3.8213e-06
6.3215e-06
1.05867e-05
1.68567e-05
2.85606e-05
4.61985e-05
5.74276e-05
6.51931e-05
7.00391e-05
7.32408e-05
7.50851e-05
7.70473e-05
7.50788e-05
7.2814e-05
6.83864e-05
6.22856e-05
5.52542e-05
4.87413e-05
4.43839e-05
4.16822e-05
3.98794e-05
3.82494e-05
3.60983e-05
2.96037e-05
3.03248e-05
3.64903e-05
3.12803e-05
2.54129e-05
2.44815e-05
2.09836e-05
1.83862e-05
2.42907e-05
2.6532e-05
1.37633e-06
2.04413e-07
4.53361e-06
1.11705e-05
2.47188e-05
4.96193e-05
7.80322e-05
9.10605e-05
0.000101206
0.00010372
0.000102944
9.39293e-05
7.33632e-05
5.23267e-05
3.61702e-05
2.74086e-05
2.33141e-05
2.13717e-05
2.03699e-05
2.11791e-05
2.41842e-05
2.7618e-05
2.85244e-05
2.59204e-05
2.69848e-05
2.94545e-05
2.62137e-05
2.43524e-05
2.31712e-05
2.08048e-05
1.78567e-05
1.62379e-05
1.88883e-05
3.28205e-05
2.01074e-05
1.22775e-06
5.32803e-07
6.43835e-06
1.76685e-05
3.9283e-05
6.74403e-05
8.86532e-05
0.000101058
9.92597e-05
7.97109e-05
5.75156e-05
4.30931e-05
3.33454e-05
2.74198e-05
2.52021e-05
2.41667e-05
2.29277e-05
2.44613e-05
3.03654e-05
3.80042e-05
4.03758e-05
3.6471e-05
3.19788e-05
2.9115e-05
2.53708e-05
2.27418e-05
2.14906e-05
2.00027e-05
1.79352e-05
1.57124e-05
1.40208e-05
1.37255e-05
1.88147e-05
4.54091e-05
1.19882e-05
7.06471e-07
6.26124e-07
7.06867e-06
1.90883e-05
4.26275e-05
7.29089e-05
9.07324e-05
8.53372e-05
6.6544e-05
5.65656e-05
5.0038e-05
4.37655e-05
3.85252e-05
3.4706e-05
3.25627e-05
3.16844e-05
3.16833e-05
3.2962e-05
3.61839e-05
3.88363e-05
3.66331e-05
3.45342e-05
3.51228e-05
3.40122e-05
3.13096e-05
2.88882e-05
2.65964e-05
2.40797e-05
2.00341e-05
1.56986e-05
1.29395e-05
1.32549e-05
2.07394e-05
4.79628e-05
1.05224e-05
4.9438e-07
6.28554e-07
7.09302e-06
1.94912e-05
4.64356e-05
7.66068e-05
8.39903e-05
7.91049e-05
7.06135e-05
6.29325e-05
5.8556e-05
5.37473e-05
4.95008e-05
4.52939e-05
4.08479e-05
3.66758e-05
3.32852e-05
3.07732e-05
2.9396e-05
3.03939e-05
3.32049e-05
3.80189e-05
4.07332e-05
3.77391e-05
3.56844e-05
3.42268e-05
3.31322e-05
2.95708e-05
2.31504e-05
1.66852e-05
1.31106e-05
1.37065e-05
2.21858e-05
4.42939e-05
9.82654e-06
4.17735e-07
5.2692e-07
6.75488e-06
1.83871e-05
4.19777e-05
7.15393e-05
8.41588e-05
8.14942e-05
7.63608e-05
7.0301e-05
6.35761e-05
5.76661e-05
5.20944e-05
4.68098e-05
4.20822e-05
3.80398e-05
3.47464e-05
3.22516e-05
3.03775e-05
2.92348e-05
2.81891e-05
2.62967e-05
3.00227e-05
3.65142e-05
3.56352e-05
3.77637e-05
3.63981e-05
3.18668e-05
2.58246e-05
1.89525e-05
1.4203e-05
1.44795e-05
2.26267e-05
3.90842e-05
9.46617e-06
4.11557e-07
4.59754e-07
6.36511e-06
1.69369e-05
3.89675e-05
6.69873e-05
8.11662e-05
8.3954e-05
8.11108e-05
7.59359e-05
6.97895e-05
6.34087e-05
5.70084e-05
5.09781e-05
4.55272e-05
4.10996e-05
3.73712e-05
3.36531e-05
3.02795e-05
2.75889e-05
2.58018e-05
2.53997e-05
2.3814e-05
2.69257e-05
3.31649e-05
3.11656e-05
3.37775e-05
3.46449e-05
3.06593e-05
2.31766e-05
1.68076e-05
1.56138e-05
2.21016e-05
3.42346e-05
9.31764e-06
4.50167e-07
4.59277e-07
6.09496e-06
1.54274e-05
3.37091e-05
5.86351e-05
7.56377e-05
8.27095e-05
8.3451e-05
8.02022e-05
7.49722e-05
6.89573e-05
6.17722e-05
5.43063e-05
4.8107e-05
4.22416e-05
3.71853e-05
3.36341e-05
3.10387e-05
2.9269e-05
2.84744e-05
2.38517e-05
2.29993e-05
2.76262e-05
2.76485e-05
2.76326e-05
2.97596e-05
3.20176e-05
3.29283e-05
2.81827e-05
2.08139e-05
1.81378e-05
2.31131e-05
3.12143e-05
8.58861e-06
5.05918e-07
5.50178e-07
6.15818e-06
1.60675e-05
3.53093e-05
6.12022e-05
7.99866e-05
8.81655e-05
8.97088e-05
8.62726e-05
7.96471e-05
7.00021e-05
6.07969e-05
5.35453e-05
4.70387e-05
4.16052e-05
3.70517e-05
3.33144e-05
3.04805e-05
2.84741e-05
2.68254e-05
2.45683e-05
2.01621e-05
2.20166e-05
2.64798e-05
2.48349e-05
2.76185e-05
3.07563e-05
3.10309e-05
2.84167e-05
2.3419e-05
2.10376e-05
2.50147e-05
3.06772e-05
7.78938e-06
5.28586e-07
6.65887e-07
6.5039e-06
1.75702e-05
3.94764e-05
6.60668e-05
8.34992e-05
9.07068e-05
9.01203e-05
8.41879e-05
7.66371e-05
6.80976e-05
6.02999e-05
5.27744e-05
4.57463e-05
4.0005e-05
3.55037e-05
3.16214e-05
2.85895e-05
2.68233e-05
2.50567e-05
2.28829e-05
2.07098e-05
2.2695e-05
2.37577e-05
2.15513e-05
2.37197e-05
2.66965e-05
2.82029e-05
2.65242e-05
2.333e-05
2.29504e-05
2.90333e-05
2.86962e-05
7.01113e-06
5.15085e-07
7.38293e-07
6.75083e-06
1.85104e-05
4.1466e-05
6.72259e-05
8.25702e-05
8.8203e-05
8.69551e-05
8.1156e-05
7.31441e-05
6.51843e-05
5.75659e-05
5.03251e-05
4.41666e-05
3.85946e-05
3.34379e-05
2.89617e-05
2.57368e-05
2.37313e-05
2.21187e-05
2.09326e-05
2.05645e-05
2.22692e-05
2.2165e-05
2.02679e-05
2.13772e-05
2.34366e-05
2.46606e-05
2.42263e-05
2.35941e-05
2.5754e-05
3.16978e-05
2.60873e-05
6.22127e-06
4.45642e-07
7.79253e-07
6.96465e-06
1.93393e-05
4.3404e-05
6.90523e-05
8.32178e-05
8.73125e-05
8.48811e-05
7.90453e-05
7.21246e-05
6.44738e-05
5.64065e-05
4.89603e-05
4.20396e-05
3.60801e-05
3.10838e-05
2.70635e-05
2.3975e-05
2.19103e-05
2.07615e-05
2.02184e-05
2.10685e-05
2.21955e-05
2.11747e-05
1.99882e-05
2.03009e-05
2.16749e-05
2.2647e-05
2.28509e-05
2.38208e-05
2.74708e-05
3.41271e-05
2.28473e-05
5.79095e-06
3.87512e-07
8.30479e-07
7.04866e-06
2.00796e-05
4.64737e-05
7.2273e-05
8.43888e-05
8.74362e-05
8.51922e-05
7.98326e-05
7.20955e-05
6.30458e-05
5.43462e-05
4.68059e-05
4.04489e-05
3.49521e-05
3.00769e-05
2.5939e-05
2.28319e-05
2.08304e-05
1.98679e-05
1.9813e-05
2.07488e-05
2.13798e-05
2.07686e-05
2.00398e-05
1.98654e-05
2.05055e-05
2.15708e-05
2.28304e-05
2.49134e-05
2.97751e-05
3.53543e-05
2.06253e-05
5.47447e-06
3.47316e-07
8.67385e-07
7.26157e-06
2.0644e-05
4.68767e-05
7.19448e-05
8.40209e-05
8.73753e-05
8.45897e-05
7.76604e-05
6.86493e-05
5.99875e-05
5.2489e-05
4.60352e-05
4.02153e-05
3.47419e-05
2.96281e-05
2.51518e-05
2.16896e-05
1.96259e-05
1.90123e-05
1.97597e-05
2.05813e-05
2.09311e-05
2.09712e-05
2.04408e-05
2.00309e-05
2.01078e-05
2.08303e-05
2.23889e-05
2.56373e-05
3.13051e-05
3.49036e-05
1.90587e-05
5.25298e-06
3.15056e-07
8.68284e-07
7.27925e-06
2.07437e-05
4.71075e-05
7.22632e-05
8.37496e-05
8.53751e-05
8.10714e-05
7.40102e-05
6.64285e-05
5.93137e-05
5.2898e-05
4.69274e-05
4.12085e-05
3.56721e-05
3.04432e-05
2.56211e-05
2.17116e-05
1.90503e-05
1.78454e-05
1.86853e-05
1.955e-05
1.9676e-05
2.02744e-05
2.00267e-05
1.96025e-05
1.96995e-05
2.05293e-05
2.22748e-05
2.58683e-05
3.15077e-05
3.40291e-05
1.80628e-05
5.10519e-06
2.93477e-07
8.58857e-07
7.29369e-06
2.10706e-05
4.82621e-05
7.29333e-05
8.31236e-05
8.40954e-05
8.0159e-05
7.41244e-05
6.73979e-05
6.06721e-05
5.41999e-05
4.80448e-05
4.22708e-05
3.67111e-05
3.10847e-05
2.63712e-05
2.29233e-05
2.02276e-05
1.84169e-05
1.83063e-05
1.84033e-05
1.84188e-05
1.92931e-05
1.95913e-05
1.94113e-05
1.94207e-05
2.01726e-05
2.20661e-05
2.5794e-05
3.12809e-05
3.32137e-05
1.75963e-05
5.04801e-06
2.83116e-07
8.35468e-07
7.27104e-06
2.10511e-05
4.81425e-05
7.25635e-05
8.27895e-05
8.41731e-05
8.06449e-05
7.46798e-05
6.77011e-05
6.06662e-05
5.40504e-05
4.79147e-05
4.20947e-05
3.68628e-05
3.24823e-05
2.90945e-05
2.59765e-05
2.27769e-05
2.01132e-05
1.81966e-05
1.71273e-05
1.70849e-05
1.77124e-05
1.83313e-05
1.8657e-05
1.89762e-05
1.98003e-05
2.17248e-05
2.54589e-05
3.07272e-05
3.24241e-05
1.77018e-05
5.03449e-06
2.83875e-07
8.25563e-07
7.24688e-06
2.0979e-05
4.8259e-05
7.27464e-05
8.27202e-05
8.41988e-05
8.08125e-05
7.48453e-05
6.79273e-05
6.10572e-05
5.47303e-05
4.91054e-05
4.40786e-05
3.99352e-05
3.61995e-05
3.16574e-05
2.72407e-05
2.37793e-05
2.10364e-05
1.86175e-05
1.72456e-05
1.70356e-05
1.71259e-05
1.757e-05
1.81825e-05
1.87542e-05
1.96167e-05
2.14199e-05
2.49381e-05
2.99474e-05
3.17027e-05
1.75326e-05
5.02758e-06
2.93287e-07
8.24538e-07
7.21325e-06
2.08909e-05
4.80756e-05
7.23085e-05
8.2579e-05
8.39846e-05
8.06107e-05
7.47925e-05
6.81452e-05
6.16447e-05
5.57374e-05
5.04713e-05
4.56142e-05
4.09096e-05
3.69562e-05
3.33584e-05
2.91509e-05
2.50857e-05
2.18488e-05
1.91925e-05
1.72985e-05
1.70415e-05
1.70961e-05
1.69101e-05
1.74809e-05
1.81769e-05
1.91614e-05
2.10584e-05
2.45461e-05
2.92944e-05
3.1177e-05
1.7833e-05
5.0053e-06
3.0414e-07
8.27926e-07
7.23217e-06
2.08718e-05
4.79008e-05
7.24928e-05
8.25546e-05
8.38731e-05
8.05356e-05
7.48825e-05
6.8454e-05
6.21318e-05
5.63352e-05
5.12514e-05
4.67729e-05
4.25524e-05
3.83849e-05
3.46661e-05
3.07906e-05
2.67201e-05
2.30919e-05
2.00673e-05
1.77892e-05
1.71191e-05
1.68601e-05
1.63738e-05
1.67858e-05
1.74977e-05
1.85618e-05
2.03912e-05
2.35876e-05
2.81817e-05
3.05294e-05
1.77885e-05
4.94134e-06
3.111e-07
8.35426e-07
7.23831e-06
2.12738e-05
4.92436e-05
7.26067e-05
8.19996e-05
8.32927e-05
8.00933e-05
7.46362e-05
6.83509e-05
6.21145e-05
5.63755e-05
5.1362e-05
4.70972e-05
4.34134e-05
3.98431e-05
3.5944e-05
3.2406e-05
2.86154e-05
2.4587e-05
2.12336e-05
1.85062e-05
1.73832e-05
1.67308e-05
1.5962e-05
1.61482e-05
1.6751e-05
1.77543e-05
1.94867e-05
2.26567e-05
2.73006e-05
3.0075e-05
1.77293e-05
4.8692e-06
3.16151e-07
8.41278e-07
7.25142e-06
2.13458e-05
4.93912e-05
7.26591e-05
8.15618e-05
8.25366e-05
7.90775e-05
7.36559e-05
6.75561e-05
6.16813e-05
5.62852e-05
5.16143e-05
4.76717e-05
4.43362e-05
4.13e-05
3.8051e-05
3.43176e-05
3.0262e-05
2.62348e-05
2.25729e-05
1.94261e-05
1.77543e-05
1.6669e-05
1.569e-05
1.56464e-05
1.61068e-05
1.70472e-05
1.87592e-05
2.17789e-05
2.63714e-05
2.97479e-05
1.76093e-05
4.79267e-06
3.18222e-07
8.49788e-07
7.28731e-06
2.157e-05
4.97477e-05
7.27776e-05
8.12869e-05
8.16551e-05
7.79241e-05
7.24958e-05
6.66316e-05
6.11209e-05
5.61277e-05
5.18356e-05
4.82295e-05
4.51853e-05
4.24563e-05
3.96167e-05
3.62891e-05
3.27585e-05
2.84931e-05
2.40916e-05
2.05188e-05
1.83215e-05
1.678e-05
1.55559e-05
1.52597e-05
1.55112e-05
1.62972e-05
1.78627e-05
2.07787e-05
2.54837e-05
2.93863e-05
1.7476e-05
4.72538e-06
3.18476e-07
8.53015e-07
7.30038e-06
2.16812e-05
5.00914e-05
7.30347e-05
8.07261e-05
8.06422e-05
7.68032e-05
7.16662e-05
6.6164e-05
6.08162e-05
5.60134e-05
5.19232e-05
4.85732e-05
4.58628e-05
4.35635e-05
4.11859e-05
3.81959e-05
3.43993e-05
3.04987e-05
2.62236e-05
2.19541e-05
1.93321e-05
1.74009e-05
1.57851e-05
1.50944e-05
1.50279e-05
1.55934e-05
1.69896e-05
1.97764e-05
2.45489e-05
2.90264e-05
1.74372e-05
4.67993e-06
3.20386e-07
8.60336e-07
7.31652e-06
2.1911e-05
5.07693e-05
7.29258e-05
8.02518e-05
7.9943e-05
7.61565e-05
7.11562e-05
6.57251e-05
6.03982e-05
5.56364e-05
5.16214e-05
4.83815e-05
4.58793e-05
4.39506e-05
4.21459e-05
3.98242e-05
3.65329e-05
3.22633e-05
2.79015e-05
2.36256e-05
2.04929e-05
1.84992e-05
1.65329e-05
1.51545e-05
1.47193e-05
1.50376e-05
1.62397e-05
1.88792e-05
2.36953e-05
2.86574e-05
1.73829e-05
4.64051e-06
3.2403e-07
8.82647e-07
7.33234e-06
2.23367e-05
5.20304e-05
7.3011e-05
7.9879e-05
8.00471e-05
7.61364e-05
7.06101e-05
6.47954e-05
5.955e-05
5.50389e-05
5.13668e-05
4.84718e-05
4.63084e-05
4.47698e-05
4.34051e-05
4.1674e-05
3.88885e-05
3.48959e-05
2.98686e-05
2.49616e-05
2.12607e-05
1.9195e-05
1.72728e-05
1.54296e-05
1.46375e-05
1.46412e-05
1.55883e-05
1.80134e-05
2.28261e-05
2.83627e-05
1.73784e-05
4.59288e-06
3.26898e-07
9.07332e-07
7.43326e-06
2.26299e-05
5.18984e-05
7.27545e-05
7.96729e-05
7.91089e-05
7.46149e-05
6.88824e-05
6.32778e-05
5.84909e-05
5.46361e-05
5.15442e-05
4.90727e-05
4.71986e-05
4.59156e-05
4.48904e-05
4.35451e-05
4.10712e-05
3.69827e-05
3.18838e-05
2.6608e-05
2.22312e-05
1.93398e-05
1.71922e-05
1.54884e-05
1.44629e-05
1.42473e-05
1.50095e-05
1.73545e-05
2.22166e-05
2.8127e-05
1.71839e-05
4.53999e-06
3.24098e-07
9.07985e-07
7.44667e-06
2.26791e-05
5.23711e-05
7.2742e-05
7.80216e-05
7.64149e-05
7.20739e-05
6.71387e-05
6.26849e-05
5.91215e-05
5.62928e-05
5.37375e-05
5.1191e-05
4.88698e-05
4.71807e-05
4.59624e-05
4.45562e-05
4.22995e-05
3.87864e-05
3.39074e-05
2.82401e-05
2.34575e-05
1.969e-05
1.69529e-05
1.52368e-05
1.41798e-05
1.38325e-05
1.44325e-05
1.65832e-05
2.13789e-05
2.77386e-05
1.68055e-05
4.45395e-06
3.15439e-07
8.93549e-07
7.45102e-06
2.31203e-05
5.29844e-05
7.21322e-05
7.68824e-05
7.5372e-05
7.15678e-05
6.74632e-05
6.41048e-05
6.13621e-05
5.83839e-05
5.51118e-05
5.22539e-05
4.9869e-05
4.80163e-05
4.67392e-05
4.55729e-05
4.38776e-05
4.08786e-05
3.61766e-05
3.03988e-05
2.49636e-05
2.05645e-05
1.73156e-05
1.5181e-05
1.39519e-05
1.34818e-05
1.39558e-05
1.60038e-05
2.07949e-05
2.73521e-05
1.67853e-05
4.43896e-06
3.12135e-07
8.60468e-07
7.42286e-06
2.293e-05
5.258e-05
7.18449e-05
7.68492e-05
7.5752e-05
7.23686e-05
6.86151e-05
6.51197e-05
6.15431e-05
5.82084e-05
5.53946e-05
5.30625e-05
5.11721e-05
4.94956e-05
4.80731e-05
4.68218e-05
4.51333e-05
4.25532e-05
3.85363e-05
3.30716e-05
2.70772e-05
2.23667e-05
1.85495e-05
1.56077e-05
1.39746e-05
1.32809e-05
1.36186e-05
1.54769e-05
2.0051e-05
2.68621e-05
1.6779e-05
4.44026e-06
3.14731e-07
8.50358e-07
7.36079e-06
2.27667e-05
5.24455e-05
7.17535e-05
7.68131e-05
7.57302e-05
7.2498e-05
6.88427e-05
6.53578e-05
6.22218e-05
5.93722e-05
5.68142e-05
5.44755e-05
5.24453e-05
5.09746e-05
4.98076e-05
4.86909e-05
4.72239e-05
4.47342e-05
4.07494e-05
3.53843e-05
2.94956e-05
2.49849e-05
2.04761e-05
1.651e-05
1.43045e-05
1.32444e-05
1.33389e-05
1.50562e-05
1.95927e-05
2.6417e-05
1.71504e-05
4.47763e-06
3.24068e-07
8.50196e-07
7.33088e-06
2.26112e-05
5.22027e-05
7.1619e-05
7.68059e-05
7.59226e-05
7.26583e-05
6.86751e-05
6.50038e-05
6.1929e-05
5.94396e-05
5.74807e-05
5.58906e-05
5.44635e-05
5.31749e-05
5.21304e-05
5.10644e-05
4.9528e-05
4.69746e-05
4.29036e-05
3.74075e-05
3.15554e-05
2.74126e-05
2.25978e-05
1.78327e-05
1.50144e-05
1.34532e-05
1.31701e-05
1.46885e-05
1.9005e-05
2.57955e-05
1.74435e-05
4.50819e-06
3.35831e-07
8.63204e-07
7.31565e-06
2.29314e-05
5.29232e-05
7.12399e-05
7.64072e-05
7.59605e-05
7.26844e-05
6.84388e-05
6.45086e-05
6.13841e-05
5.9022e-05
5.72915e-05
5.60547e-05
5.52484e-05
5.47312e-05
5.44109e-05
5.38192e-05
5.23735e-05
4.97537e-05
4.56383e-05
3.99231e-05
3.36594e-05
2.9061e-05
2.39538e-05
1.89198e-05
1.57016e-05
1.37684e-05
1.32005e-05
1.4402e-05
1.84218e-05
2.53763e-05
1.7585e-05
4.50496e-06
3.43853e-07
8.84014e-07
7.39952e-06
2.33205e-05
5.29396e-05
7.10858e-05
7.60326e-05
7.48141e-05
7.12387e-05
6.7285e-05
6.3818e-05
6.10285e-05
5.88941e-05
5.72441e-05
5.61025e-05
5.54913e-05
5.53797e-05
5.58213e-05
5.61514e-05
5.54272e-05
5.32319e-05
4.93158e-05
4.33877e-05
3.65123e-05
3.07271e-05
2.49154e-05
1.96857e-05
1.61744e-05
1.39928e-05
1.31939e-05
1.41358e-05
1.79094e-05
2.49984e-05
1.75831e-05
4.47564e-06
3.4509e-07
8.92635e-07
7.43111e-06
2.33331e-05
5.32897e-05
7.09338e-05
7.48309e-05
7.32919e-05
6.9887e-05
6.63311e-05
6.32419e-05
6.07511e-05
5.88034e-05
5.73314e-05
5.62687e-05
5.57701e-05
5.58649e-05
5.67047e-05
5.76166e-05
5.75317e-05
5.59764e-05
5.26152e-05
4.67839e-05
3.95248e-05
3.28411e-05
2.62624e-05
2.05517e-05
1.66342e-05
1.41856e-05
1.31686e-05
1.39186e-05
1.75298e-05
2.47498e-05
1.7531e-05
4.45097e-06
3.43909e-07
8.92579e-07
7.45055e-06
2.37897e-05
5.40467e-05
7.04917e-05
7.40215e-05
7.25417e-05
6.93421e-05
6.60283e-05
6.31524e-05
6.0802e-05
5.89045e-05
5.74244e-05
5.63933e-05
5.58597e-05
5.60065e-05
5.70706e-05
5.84558e-05
5.90476e-05
5.82308e-05
5.5515e-05
4.99183e-05
4.24218e-05
3.51981e-05
2.80706e-05
2.17607e-05
1.72684e-05
1.44469e-05
1.31871e-05
1.37494e-05
1.72579e-05
2.46199e-05
1.74467e-05
4.42401e-06
3.41439e-07
8.8559e-07
7.46686e-06
2.39723e-05
5.39204e-05
7.00251e-05
7.34308e-05
7.1981e-05
6.89927e-05
6.6001e-05
6.34537e-05
6.14213e-05
5.96357e-05
5.80976e-05
5.68767e-05
5.61281e-05
5.61321e-05
5.7194e-05
5.88299e-05
5.99535e-05
5.97974e-05
5.76888e-05
5.23943e-05
4.48503e-05
3.74147e-05
2.99336e-05
2.31802e-05
1.81225e-05
1.48614e-05
1.33219e-05
1.36916e-05
1.70634e-05
2.44944e-05
1.74706e-05
4.42266e-06
3.41194e-07
8.69816e-07
7.44525e-06
2.39323e-05
5.38551e-05
6.9617e-05
7.28756e-05
7.1515e-05
6.87693e-05
6.60691e-05
6.38085e-05
6.2001e-05
6.03314e-05
5.8748e-05
5.73692e-05
5.63963e-05
5.61536e-05
5.70154e-05
5.86599e-05
6.0103e-05
6.04754e-05
5.89381e-05
5.40749e-05
4.67578e-05
3.95417e-05
3.19469e-05
2.47151e-05
1.91993e-05
1.54569e-05
1.35574e-05
1.37415e-05
1.70092e-05
2.44127e-05
1.75525e-05
4.43025e-06
3.42167e-07
8.53836e-07
7.42565e-06
2.39585e-05
5.37377e-05
6.92451e-05
7.25301e-05
7.1339e-05
6.88082e-05
6.63395e-05
6.43474e-05
6.27315e-05
6.1249e-05
5.97731e-05
5.83499e-05
5.71801e-05
5.66152e-05
5.70944e-05
5.84669e-05
5.99143e-05
6.05588e-05
5.94495e-05
5.50588e-05
4.81625e-05
4.14701e-05
3.38974e-05
2.63251e-05
2.03364e-05
1.61313e-05
1.39584e-05
1.39296e-05
1.70001e-05
2.4315e-05
1.77991e-05
4.46473e-06
3.47707e-07
8.42755e-07
7.391e-06
2.39136e-05
5.37022e-05
6.8964e-05
7.21771e-05
7.1028e-05
6.85937e-05
6.62442e-05
6.44019e-05
6.31098e-05
6.19777e-05
6.08071e-05
5.95686e-05
5.84218e-05
5.76919e-05
5.78354e-05
5.88195e-05
5.99876e-05
6.05549e-05
5.95941e-05
5.55848e-05
4.92141e-05
4.32268e-05
3.58283e-05
2.80066e-05
2.18104e-05
1.71528e-05
1.44857e-05
1.4114e-05
1.69597e-05
2.42462e-05
1.80547e-05
4.50175e-06
3.55574e-07
8.40923e-07
7.36472e-06
2.39217e-05
5.37736e-05
6.87693e-05
7.18283e-05
7.06058e-05
6.82193e-05
6.60085e-05
6.44025e-05
6.33698e-05
6.26511e-05
6.18798e-05
6.09675e-05
6.00387e-05
5.93778e-05
5.94071e-05
6.01108e-05
6.08907e-05
6.10736e-05
5.98965e-05
5.60101e-05
5.00798e-05
4.47431e-05
3.75821e-05
2.95938e-05
2.31762e-05
1.8199e-05
1.51235e-05
1.44494e-05
1.71125e-05
2.42896e-05
1.83268e-05
4.54255e-06
3.64552e-07
8.41039e-07
7.34367e-06
2.39566e-05
5.38351e-05
6.84384e-05
7.12423e-05
6.98948e-05
6.75323e-05
6.54851e-05
6.41317e-05
6.33303e-05
6.29013e-05
6.25698e-05
6.20674e-05
6.14613e-05
6.10744e-05
6.12845e-05
6.20151e-05
6.25843e-05
6.23296e-05
6.06824e-05
5.65776e-05
5.0807e-05
4.58057e-05
3.8916e-05
3.09911e-05
2.44683e-05
1.92531e-05
1.5865e-05
1.48973e-05
1.73628e-05
2.44315e-05
1.8552e-05
4.57549e-06
3.72885e-07
8.43878e-07
7.35792e-06
2.41484e-05
5.39604e-05
6.79842e-05
7.04429e-05
6.89696e-05
6.667e-05
6.48178e-05
6.37352e-05
6.32321e-05
6.30352e-05
6.29083e-05
6.26923e-05
6.23759e-05
6.23168e-05
6.28752e-05
6.39195e-05
6.45956e-05
6.40254e-05
6.16412e-05
5.701e-05
5.23543e-05
4.7012e-05
3.94256e-05
3.19936e-05
2.55583e-05
2.02451e-05
1.66475e-05
1.54262e-05
1.77165e-05
2.47008e-05
1.87514e-05
4.60572e-06
3.79697e-07
8.44228e-07
7.36691e-06
2.43321e-05
5.40755e-05
6.7462e-05
6.95748e-05
6.80069e-05
6.5796e-05
6.41309e-05
6.32773e-05
6.30232e-05
6.30357e-05
6.30574e-05
6.30069e-05
6.29486e-05
6.31668e-05
6.4093e-05
6.56398e-05
6.68789e-05
6.66566e-05
6.34639e-05
5.81214e-05
5.3498e-05
4.73128e-05
3.98103e-05
3.30078e-05
2.66205e-05
2.12107e-05
1.74548e-05
1.6049e-05
1.81707e-05
2.50915e-05
1.89113e-05
4.63497e-06
3.85805e-07
8.43288e-07
7.37125e-06
2.45108e-05
5.41537e-05
6.6899e-05
6.86943e-05
6.71067e-05
6.50405e-05
6.35896e-05
6.29447e-05
6.28762e-05
6.30824e-05
6.33233e-05
6.34429e-05
6.34959e-05
6.38991e-05
6.50747e-05
6.69548e-05
6.85523e-05
6.85793e-05
6.53732e-05
5.97162e-05
5.45792e-05
4.80308e-05
4.05009e-05
3.38083e-05
2.75352e-05
2.21433e-05
1.83133e-05
1.67976e-05
1.88196e-05
2.56528e-05
1.90701e-05
4.66921e-06
3.91714e-07
8.39686e-07
7.37965e-06
2.46788e-05
5.41368e-05
6.62733e-05
6.77901e-05
6.62244e-05
6.43491e-05
6.31454e-05
6.2713e-05
6.27809e-05
6.30686e-05
6.33991e-05
6.36391e-05
6.37484e-05
6.41969e-05
6.55574e-05
6.77583e-05
6.97482e-05
7.00642e-05
6.68931e-05
6.10283e-05
5.54359e-05
4.86471e-05
4.11635e-05
3.45093e-05
2.83014e-05
2.29587e-05
1.91339e-05
1.76023e-05
1.96233e-05
2.63892e-05
1.91998e-05
4.70384e-06
3.96473e-07
8.31244e-07
7.37351e-06
2.47862e-05
5.40565e-05
6.56536e-05
6.69471e-05
6.53936e-05
6.36962e-05
6.27393e-05
6.25296e-05
6.27402e-05
6.30689e-05
6.33757e-05
6.35975e-05
6.37736e-05
6.42381e-05
6.56209e-05
6.79814e-05
7.02507e-05
7.08127e-05
6.77249e-05
6.17724e-05
5.60136e-05
4.91733e-05
4.17385e-05
3.51334e-05
2.89952e-05
2.37258e-05
1.99597e-05
1.84863e-05
2.05865e-05
2.72951e-05
1.93914e-05
4.75334e-06
4.01294e-07
8.22298e-07
7.35693e-06
2.48432e-05
5.39838e-05
6.51212e-05
6.62097e-05
6.46381e-05
6.30651e-05
6.2336e-05
6.24062e-05
6.2862e-05
6.3321e-05
6.36542e-05
6.38185e-05
6.39138e-05
6.43002e-05
6.55538e-05
6.78856e-05
7.02664e-05
7.10031e-05
6.8083e-05
6.22373e-05
5.65273e-05
4.96933e-05
4.22849e-05
3.5742e-05
2.96739e-05
2.44758e-05
2.07834e-05
1.94047e-05
2.16294e-05
2.82772e-05
1.96462e-05
4.81857e-06
4.07521e-07
8.15332e-07
7.33691e-06
2.48898e-05
5.38981e-05
6.45946e-05
6.54632e-05
6.38448e-05
6.23873e-05
6.18846e-05
6.2258e-05
6.30753e-05
6.38868e-05
6.44329e-05
6.46559e-05
6.46787e-05
6.48288e-05
6.5764e-05
6.78188e-05
7.00355e-05
7.07269e-05
6.79213e-05
6.22944e-05
5.67904e-05
5.00771e-05
4.27559e-05
3.63094e-05
3.03427e-05
2.52451e-05
2.16574e-05
2.04104e-05
2.27922e-05
2.93477e-05
1.99444e-05
4.89304e-06
4.14702e-07
8.08762e-07
7.31709e-06
2.49365e-05
5.37964e-05
6.40388e-05
6.46692e-05
6.29979e-05
6.16636e-05
6.14023e-05
6.20767e-05
6.32176e-05
6.43543e-05
6.51309e-05
6.54535e-05
6.54513e-05
6.54354e-05
6.60795e-05
6.77837e-05
6.96172e-05
6.99339e-05
6.71452e-05
6.27375e-05
5.71014e-05
4.98625e-05
4.29744e-05
3.67112e-05
3.08903e-05
2.59336e-05
2.2492e-05
2.14156e-05
2.39779e-05
3.04221e-05
2.02708e-05
4.9753e-06
4.22556e-07
8.02303e-07
7.29316e-06
2.49729e-05
5.36805e-05
6.34215e-05
6.37651e-05
6.20055e-05
6.07879e-05
6.07881e-05
6.1802e-05
6.32959e-05
6.47987e-05
6.58545e-05
6.63341e-05
6.6361e-05
6.62156e-05
6.65728e-05
6.78926e-05
6.93646e-05
6.95457e-05
6.69608e-05
6.271e-05
5.65242e-05
4.93979e-05
4.31102e-05
3.70616e-05
3.13932e-05
2.65995e-05
2.33361e-05
2.24654e-05
2.52271e-05
3.15209e-05
2.0574e-05
5.05733e-06
4.30201e-07
7.96995e-07
7.26573e-06
2.49923e-05
5.3541e-05
6.27656e-05
6.27875e-05
6.09155e-05
5.98136e-05
6.00997e-05
6.15074e-05
6.34502e-05
6.5373e-05
6.67786e-05
6.74852e-05
6.75923e-05
6.73537e-05
6.74788e-05
6.84855e-05
6.95673e-05
6.93583e-05
6.65577e-05
6.23002e-05
5.61823e-05
4.91844e-05
4.30844e-05
3.7234e-05
3.17626e-05
2.7172e-05
2.41193e-05
2.34744e-05
2.64466e-05
3.25805e-05
2.09143e-05
5.14723e-06
4.38725e-07
7.93538e-07
7.24437e-06
2.50484e-05
5.3394e-05
6.20075e-05
6.16486e-05
5.96715e-05
5.86853e-05
5.92646e-05
6.10829e-05
6.34702e-05
6.58176e-05
6.7639e-05
6.86721e-05
6.89656e-05
6.87284e-05
6.86882e-05
6.94313e-05
7.0172e-05
6.95382e-05
6.63762e-05
6.18827e-05
5.57617e-05
4.89324e-05
4.30183e-05
3.73762e-05
3.21186e-05
2.77411e-05
2.49039e-05
2.44839e-05
2.76607e-05
3.36177e-05
2.11982e-05
5.23039e-06
4.46814e-07
7.8922e-07
7.2208e-06
2.50881e-05
5.31935e-05
6.11827e-05
6.04445e-05
5.83694e-05
5.75034e-05
5.83665e-05
6.0574e-05
6.34211e-05
6.62053e-05
6.84491e-05
6.98281e-05
7.03324e-05
7.01568e-05
7.00342e-05
7.05849e-05
7.10169e-05
6.99648e-05
6.64176e-05
6.165e-05
5.54122e-05
4.86047e-05
4.27783e-05
3.73159e-05
3.22996e-05
2.81834e-05
2.56038e-05
2.54402e-05
2.884e-05
3.46221e-05
2.14783e-05
5.31357e-06
4.54691e-07
7.8531e-07
7.1957e-06
2.51164e-05
5.29486e-05
6.03021e-05
5.91778e-05
5.69836e-05
5.62289e-05
5.73663e-05
5.99601e-05
6.32626e-05
6.65071e-05
6.91887e-05
7.10096e-05
7.18156e-05
7.18227e-05
7.18144e-05
7.25243e-05
7.30046e-05
7.08768e-05
6.61959e-05
6.12588e-05
5.50467e-05
4.82891e-05
4.25098e-05
3.71756e-05
3.23747e-05
2.85237e-05
2.6222e-05
2.63363e-05
2.99694e-05
3.55718e-05
2.17264e-05
5.39505e-06
4.62835e-07
7.814e-07
7.17645e-06
2.51694e-05
5.26752e-05
5.93774e-05
5.78924e-05
5.56008e-05
5.49578e-05
5.63449e-05
5.92881e-05
6.30191e-05
6.67429e-05
6.98425e-05
7.20516e-05
7.31368e-05
7.3249e-05
7.31581e-05
7.36857e-05
7.39869e-05
7.16817e-05
6.67698e-05
6.14182e-05
5.49802e-05
4.81948e-05
4.23439e-05
3.70394e-05
3.2393e-05
2.8789e-05
2.67776e-05
2.71916e-05
3.10662e-05
3.64571e-05
2.18816e-05
5.46365e-06
4.69258e-07
7.75262e-07
7.14721e-06
2.51628e-05
5.23347e-05
5.84344e-05
5.6605e-05
5.42111e-05
5.36502e-05
5.52386e-05
5.84713e-05
6.25681e-05
6.67215e-05
7.02816e-05
7.29151e-05
7.43313e-05
7.46326e-05
7.45437e-05
7.49284e-05
7.50357e-05
7.26165e-05
6.79725e-05
6.1672e-05
5.46e-05
4.81153e-05
4.22075e-05
3.68936e-05
3.23665e-05
2.89809e-05
2.72477e-05
2.79633e-05
3.20723e-05
3.72414e-05
2.20114e-05
5.52928e-06
4.74981e-07
7.69158e-07
7.11773e-06
2.51518e-05
5.19767e-05
5.7479e-05
5.53157e-05
5.28254e-05
5.23389e-05
5.41088e-05
5.76076e-05
6.20515e-05
6.6622e-05
7.06427e-05
7.3648e-05
7.54114e-05
7.59305e-05
7.588e-05
7.61842e-05
7.6172e-05
7.35729e-05
6.86568e-05
6.20837e-05
5.48533e-05
4.82504e-05
4.2232e-05
3.68696e-05
3.24052e-05
2.9185e-05
2.76964e-05
2.86935e-05
3.30107e-05
3.79259e-05
2.2106e-05
5.58911e-06
4.80782e-07
7.62538e-07
7.08566e-06
2.5121e-05
5.1582e-05
5.65265e-05
5.40605e-05
5.1486e-05
5.10606e-05
5.29788e-05
5.67013e-05
6.14518e-05
6.64127e-05
7.08908e-05
7.43497e-05
7.64882e-05
7.72424e-05
7.72163e-05
7.74077e-05
7.72664e-05
7.45332e-05
6.93918e-05
6.26374e-05
5.52997e-05
4.85507e-05
4.23922e-05
3.69492e-05
3.25054e-05
2.94062e-05
2.8118e-05
2.93633e-05
3.38556e-05
3.85163e-05
2.21923e-05
5.64556e-06
4.8677e-07
7.55317e-07
7.05151e-06
2.50708e-05
5.11644e-05
5.55779e-05
5.28298e-05
5.01796e-05
4.98034e-05
5.18403e-05
5.57463e-05
6.07632e-05
6.60864e-05
7.10163e-05
7.494e-05
7.74658e-05
7.84662e-05
7.84513e-05
7.84874e-05
7.81754e-05
7.53367e-05
7.01402e-05
6.33566e-05
5.59547e-05
4.90596e-05
4.27351e-05
3.71695e-05
3.26961e-05
2.96667e-05
2.85292e-05
2.99804e-05
3.46103e-05
3.9021e-05
2.2267e-05
5.69731e-06
4.9299e-07
7.48007e-07
7.01622e-06
2.50102e-05
5.07344e-05
5.46452e-05
5.16392e-05
4.89225e-05
4.8584e-05
5.0711e-05
5.47623e-05
6.00065e-05
6.56602e-05
7.10215e-05
7.5415e-05
7.83264e-05
7.96188e-05
7.96382e-05
7.95115e-05
7.90041e-05
7.60506e-05
7.08572e-05
6.40989e-05
5.66822e-05
4.97046e-05
4.32482e-05
3.75507e-05
3.30045e-05
2.99867e-05
2.89402e-05
3.05433e-05
3.5274e-05
3.9467e-05
2.23521e-05
5.7466e-06
4.99816e-07
7.40585e-07
6.98082e-06
2.4945e-05
5.0294e-05
5.37215e-05
5.04821e-05
4.77129e-05
4.74065e-05
4.95985e-05
5.3755e-05
5.91819e-05
6.51349e-05
7.09053e-05
7.5768e-05
7.91269e-05
8.07406e-05
8.0814e-05
8.04784e-05
7.97141e-05
7.6933e-05
7.17199e-05
6.47723e-05
5.74356e-05
5.04547e-05
4.39117e-05
3.80926e-05
3.34481e-05
3.03892e-05
2.93714e-05
3.10704e-05
3.58711e-05
3.98818e-05
2.24433e-05
5.79259e-06
5.07324e-07
7.33063e-07
6.94456e-06
2.48707e-05
4.98519e-05
5.28262e-05
4.93723e-05
4.6559e-05
4.62795e-05
4.85163e-05
5.27403e-05
5.82984e-05
6.44992e-05
7.06404e-05
7.59684e-05
7.9804e-05
8.17489e-05
8.19623e-05
8.1563e-05
8.06459e-05
7.77581e-05
7.21383e-05
6.51571e-05
5.81373e-05
5.12239e-05
4.46468e-05
3.87402e-05
3.40004e-05
3.08803e-05
2.98609e-05
3.16244e-05
3.64717e-05
4.02931e-05
2.25196e-05
5.8339e-06
5.14788e-07
7.26016e-07
6.90934e-06
2.48021e-05
4.94192e-05
5.19338e-05
4.82688e-05
4.54199e-05
4.51757e-05
4.74588e-05
5.17368e-05
5.73901e-05
6.37808e-05
7.02279e-05
7.59718e-05
8.02816e-05
8.26591e-05
8.31309e-05
8.26868e-05
8.14794e-05
7.82871e-05
7.25179e-05
6.55854e-05
5.871e-05
5.19106e-05
4.53752e-05
3.94448e-05
3.46405e-05
3.14648e-05
3.04362e-05
3.22468e-05
3.71124e-05
4.07065e-05
2.25833e-05
5.87166e-06
5.21969e-07
7.19682e-07
6.87627e-06
2.47464e-05
4.90064e-05
5.10613e-05
4.72032e-05
4.43345e-05
4.41323e-05
4.64626e-05
5.07837e-05
5.65012e-05
6.30287e-05
6.97235e-05
7.58551e-05
8.06871e-05
8.36589e-05
8.4671e-05
8.43687e-05
8.22801e-05
7.83087e-05
7.25841e-05
6.58222e-05
5.91486e-05
5.25141e-05
4.60815e-05
4.01891e-05
3.53663e-05
3.21599e-05
3.11296e-05
3.29776e-05
3.78263e-05
4.11355e-05
2.26407e-05
5.90759e-06
5.29008e-07
7.14164e-07
6.84589e-06
2.47037e-05
4.85931e-05
5.02071e-05
4.61589e-05
4.32772e-05
4.31249e-05
4.55087e-05
4.98781e-05
5.56529e-05
6.22811e-05
6.91513e-05
7.55584e-05
8.07549e-05
8.41135e-05
8.54091e-05
8.51731e-05
8.29747e-05
7.88018e-05
7.29512e-05
6.61978e-05
5.95697e-05
5.30659e-05
4.67698e-05
4.09464e-05
3.61349e-05
3.293e-05
3.19255e-05
3.38207e-05
3.86237e-05
4.15768e-05
2.26711e-05
5.93854e-06
5.3511e-07
7.08636e-07
6.81835e-06
2.46748e-05
4.81841e-05
4.93617e-05
4.51428e-05
4.22499e-05
4.21412e-05
4.4566e-05
4.89628e-05
5.47698e-05
6.14501e-05
6.84326e-05
7.50561e-05
8.05777e-05
8.43023e-05
8.58714e-05
8.56746e-05
8.352e-05
7.90629e-05
7.29973e-05
6.63869e-05
5.98444e-05
5.34901e-05
4.73758e-05
4.16825e-05
3.69283e-05
3.3755e-05
3.27946e-05
3.47375e-05
3.94693e-05
4.2019e-05
2.26828e-05
5.9664e-06
5.39862e-07
7.02436e-07
6.78799e-06
2.46251e-05
4.77728e-05
4.85504e-05
4.41752e-05
4.12748e-05
4.1199e-05
4.36508e-05
4.80581e-05
5.3867e-05
6.05449e-05
6.75632e-05
7.43135e-05
8.00833e-05
8.41556e-05
8.60578e-05
8.59018e-05
8.35973e-05
7.90194e-05
7.30547e-05
6.66021e-05
6.01313e-05
5.39038e-05
4.79267e-05
4.23471e-05
3.76924e-05
3.46067e-05
3.3729e-05
3.57248e-05
4.03471e-05
4.24516e-05
2.27064e-05
5.99579e-06