/*--------------------------------*- C++ -*----------------------------------*\
| =========                 |                                                 |
| \\      /  F ield         | OpenFOAM: The Open Source CFD Toolbox           |
|  \\    /   O peration     | Version:  v2012                                 |
|   \\  /    A nd           | Website:  www.openfoam.com                      |
|    \\/     M anipulation  |                                                 |
\*---------------------------------------------------------------------------*/
FoamFile
{
    version     2.0;
    format      ascii;
    class       volScalarField;
    location    "900";
    object      omega;
}
// * * * * * * * * * * * * * * * * * * * * * * * * * * * * * * * * * * * * * //

dimensions      [0 0 -1 0 0 0 0];


internalField   nonuniform List<scalar> 
78750
(
345.935
16.7674
17.1943
17.383
17.6355
17.9131
18.1729
18.4156
18.6181
18.7736
18.8892
19.0574
19.2136
19.2909
19.323
19.3323
19.3287
19.3132
19.2902
19.2606
19.2266
19.1917
19.1551
19.1182
19.0806
19.041
19.0001
18.9544
18.901
18.8379
18.7606
18.6613
18.5392
18.2831
355.78
502.595
5.87152
6.29564
6.7645
7.2831
7.77635
8.20976
8.67055
9.01447
9.24241
9.39417
9.41937
9.40866
9.37357
9.32833
9.27133
9.20246
9.12255
9.03644
8.9506
8.86718
8.78917
8.71799
8.65528
8.60491
8.56732
8.54256
8.53311
8.53106
8.52134
8.49095
8.4325
8.34225
8.13357
521.728
498.85
5.59808
6.76087
7.72119
8.49092
9.03134
9.38288
9.49549
9.53334
9.53604
9.50742
9.45066
9.36801
9.24618
9.08448
8.8907
8.65
8.38794
8.12499
7.8781
7.66365
7.48802
7.35609
7.27653
7.23239
7.24456
7.29172
7.38319
7.51568
7.71855
7.94843
8.15194
8.20649
8.05153
522.618
502.723
6.56645
8.04898
8.92456
9.29111
9.45081
9.53858
9.57338
9.56153
9.50443
9.38637
9.20113
8.93457
8.57679
8.12636
7.6045
7.1428
6.77574
6.50503
6.31187
6.17556
6.08856
6.04942
6.05623
6.12824
6.26875
6.43559
6.61677
6.85624
7.1654
7.52914
7.87384
8.02277
7.89709
523.187
505.019
7.41318
8.50553
9.03437
9.32774
9.49303
9.58309
9.61409
9.5896
9.49168
9.32775
9.08705
8.76524
8.36674
7.92198
7.46711
7.0481
6.71056
6.4635
6.28337
6.15123
6.06586
6.0347
6.05736
6.13107
6.23195
6.33311
6.44531
6.63654
6.93737
7.3194
7.6571
7.7228
7.42516
522.902
505.681
7.49228
8.54399
9.09207
9.3747
9.546
9.64431
9.6739
9.63319
9.5291
9.37784
9.18967
8.97919
8.75055
8.49918
8.21528
7.90463
7.5875
7.2862
7.00693
6.75734
6.55934
6.42701
6.35825
6.34274
6.35193
6.37015
6.40045
6.50449
6.75238
7.10996
7.39781
7.40221
7.05828
523.241
505.707
7.50833
8.55322
9.09528
9.3726
9.54503
9.66733
9.73832
9.75907
9.74049
9.67813
9.57616
9.43077
9.24905
9.04025
8.81446
8.56973
8.30109
8.011
7.70992
7.417
7.15411
6.93247
6.75967
6.64358
6.57276
6.52223
6.47782
6.49229
6.64681
6.92243
7.13474
7.10495
6.74505
523.766
505.144
7.30252
8.40222
9.00706
9.33808
9.54317
9.67742
9.75496
9.77898
9.76298
9.70996
9.62494
9.50976
9.36929
9.20771
9.03311
8.86391
8.67622
8.47563
8.25744
8.00963
7.73634
7.47272
7.22859
7.01613
6.84864
6.71375
6.59948
6.53397
6.57031
6.75458
6.90517
6.86803
6.52897
524.332
504.449
7.12793
8.2713
8.94209
9.31107
9.53932
9.70388
9.81535
9.88203
9.90247
9.87674
9.80311
9.69493
9.55465
9.38638
9.19909
8.98921
8.78571
8.59041
8.40396
8.22859
8.05915
7.87069
7.67257
7.46015
7.23588
7.02003
6.82379
6.66607
6.59665
6.63728
6.72416
6.68726
6.3867
524.842
504.433
7.10898
8.25673
8.9395
9.34315
9.58974
9.74913
9.85034
9.90604
9.91993
9.89272
9.81429
9.70319
9.55937
9.38665
9.19036
8.97629
8.75127
8.53449
8.33403
8.15354
7.98978
7.84443
7.70481
7.56332
7.40686
7.23753
7.05712
6.87907
6.72982
6.66018
6.65326
6.58131
6.30986
525.424
505.129
7.28436
8.43085
9.09008
9.46079
9.68534
9.83096
9.92136
9.95935
9.9498
9.90081
9.80777
9.67265
9.49077
9.2663
9.01273
8.74869
8.4923
8.25805
8.04717
7.85657
7.68097
7.55301
7.47803
7.4244
7.34923
7.23302
7.09722
6.95796
6.81958
6.71348
6.64044
6.53095
6.27056
525.917
506.151
7.52257
8.59936
9.18941
9.52066
9.72533
9.85803
9.93709
9.96858
9.9531
9.89139
9.77644
9.61087
9.39887
9.15543
8.8936
8.62734
8.37142
8.13957
7.92998
7.73407
7.54346
7.37447
7.25813
7.20242
7.17241
7.13461
7.06316
6.95358
6.83444
6.72971
6.63672
6.50747
6.23909
526.394
506.609
7.61125
8.6436
9.21688
9.54183
9.74561
9.87918
9.95804
9.98546
9.96212
9.89392
9.77622
9.60538
9.38519
9.1231
8.83156
8.52891
8.2384
7.97923
7.75248
7.54994
7.36552
7.20798
7.08805
7.01591
6.99493
6.9846
6.95503
6.89862
6.81971
6.72591
6.61901
6.46682
6.15439
526.8
506.991
7.70577
8.71299
9.25657
9.56254
9.75604
9.88336
9.95729
9.98519
9.96759
9.89267
9.76209
9.57117
9.3257
9.03674
8.72087
8.40021
8.09966
7.83662
7.61371
7.42278
7.25408
7.11033
6.99377
6.91015
6.87423
6.86766
6.85717
6.82681
6.77387
6.69497
6.58699
6.41672
6.06024
527.193
507.53
7.77927
8.75652
9.28011
9.57425
9.76331
9.889
9.96014
9.9853
9.96445
9.88073
9.73166
9.52223
9.26119
8.95772
8.62641
8.29174
7.9803
7.70859
7.48686
7.30575
7.15122
7.01955
6.90633
6.81866
6.77103
6.7648
6.76619
6.7531
6.71629
6.64645
6.53761
6.35309
5.96291
527.648
507.813
7.82498
8.76824
9.28386
9.57871
9.76592
9.88808
9.96014
9.98213
9.95175
9.85894
9.70615
9.49547
9.23158
8.92214
8.57733
8.21208
7.85996
7.56193
7.33974
7.18989
7.06972
6.96557
6.86747
6.78189
6.72351
6.70064
6.69832
6.68947
6.65828
6.59123
6.48005
6.28439
5.8742
528.095
508.003
7.83168
8.78309
9.2925
9.57751
9.76261
9.8877
9.95835
9.97915
9.94629
9.85637
9.70813
9.50579
9.24726
8.93798
8.58657
8.21022
7.84162
7.50882
7.24075
7.04993
6.93947
6.86843
6.79987
6.72966
6.67156
6.63972
6.63381
6.62606
6.5973
6.53126
6.418
6.21552
5.7983
528.526
508.135
7.82593
8.77292
9.27966
9.56716
9.75443
9.88077
9.96058
9.99157
9.97714
9.90446
9.77305
9.58378
9.34197
9.05754
8.73437
8.37622
7.99655
7.61415
7.26514
7.00152
6.83892
6.76353
6.72294
6.68196
6.63729
6.60221
6.58689
6.57237
6.54009
6.47242
6.35763
6.15346
5.74177
528.933
508.117
7.78398
8.73663
9.24894
9.54221
9.73513
9.86728
9.95219
9.99346
9.9828
9.91704
9.79451
9.61581
9.3851
9.11276
8.80893
8.48719
8.15808
7.81733
7.46824
7.13613
6.8641
6.69367
6.60873
6.57228
6.55558
6.5455
6.53753
6.52245
6.48778
6.41875
6.30369
6.1022
5.70465
529.311
508.185
7.77046
8.72651
9.24198
9.53757
9.7329
9.86694
9.95939
10.007
10.0071
9.95442
9.84568
9.68086
9.46265
9.1996
8.90608
8.59082
8.26186
7.92644
7.59141
7.26662
6.97327
6.75064
6.61486
6.5441
6.51327
6.50187
6.49491
6.47959
6.4438
6.37428
6.26005
6.06318
5.6829
529.673
508.348
7.76153
8.71431
9.23195
9.52986
9.72814
9.86635
9.96289
10.0108
10.011
9.96038
9.85561
9.69808
9.48961
9.23361
8.94017
8.62552
8.3001
7.96776
7.63401
7.31135
7.01925
6.79011
6.63709
6.54468
6.49622
6.47438
6.46206
6.44361
6.40586
6.33576
6.2228
6.03241
5.67253
530.033
508.48
7.76101
8.70955
9.22778
9.52633
9.72644
9.86784
9.96866
10.0223
10.0279
9.98356
9.88573
9.73542
9.53508
9.28876
9.00184
8.68738
8.3615
8.02958
7.69479
7.36741
7.06683
6.82456
6.65881
6.55271
6.4902
6.45692
6.4368
6.41369
6.37365
6.30287
6.1911
6.00651
5.66372
530.388
508.639
7.77464
8.71112
9.22251
9.51949
9.71994
9.86598
9.96987
10.0259
10.0337
9.99303
9.89986
9.75531
9.56148
9.32309
9.04649
8.73864
8.41471
8.08527
7.75172
7.42221
7.11444
6.85817
6.67929
6.56158
6.48812
6.44499
6.41705
6.38874
6.34609
6.27472
6.16456
5.98564
5.65707
530.726
508.806
7.77714
8.71133
9.22154
9.51964
9.72349
9.86797
9.97131
10.0335
10.0453
10.0093
9.92144
9.78353
9.59741
9.36726
9.09941
8.80121
8.48128
8.15157
7.81617
7.48192
7.16413
6.89154
6.69647
6.56684
6.48459
6.43426
6.40022
6.36727
6.32189
6.24983
6.14119
5.96731
5.6498
531.069
508.964
7.78334
8.71088
9.21689
9.51474
9.72062
9.87018
9.97147
10.0309
10.0444
10.0143
9.932
9.80167
9.62566
9.40757
9.15304
8.86802
8.55991
8.23563
7.90437
7.56809
7.23962
6.94702
6.72681
6.57743
6.4827
6.42396
6.38411
6.34712
6.29933
6.22669
6.1195
5.94985
5.64091
531.414
509.092
7.78933
8.71
9.20927
9.50698
9.71584
9.86837
9.97428
10.0326
10.0507
10.0194
9.9398
9.81558
9.65158
9.44741
9.2079
8.93921
8.64554
8.32983
8.00124
7.66849
7.33814
7.03163
6.78538
6.60815
6.49016
6.41845
6.37117
6.33008
6.28013
6.20709
6.10132
5.93571
5.63496
531.749
509.252
7.79519
8.70375
9.19997
9.49851
9.71003
9.86688
9.97482
10.039
10.0553
10.0261
9.94918
9.82748
9.66374
9.46601
9.23561
8.97954
8.70093
8.39707
8.07191
7.73988
7.41371
7.10897
6.85342
6.65873
6.5179
6.42358
6.36278
6.31523
6.2627
6.18954
6.08532
5.92349
5.63098
532.079
509.465
7.81589
8.71273
9.19928
9.49459
9.70671
9.86475
9.97229
10.0393
10.0566
10.0244
9.94625
9.82413
9.66124
9.46231
9.23337
8.98178
8.71592
8.42392
8.10753
7.77203
7.43562
7.12914
6.87802
6.68636
6.542
6.43739
6.36338
6.30692
6.24976
6.17549
6.07246
5.91463
5.63081
532.399
509.71
7.82888
8.71126
9.19225
9.48623
9.6988
9.85915
9.97006
10.036
10.0541
10.0216
9.94199
9.81868
9.65526
9.45663
9.22943
8.9813
8.71898
8.43228
8.12151
7.78921
7.44794
7.12741
6.87027
6.68203
6.54245
6.43873
6.36235
6.29948
6.23757
6.16124
6.05862
5.90326
5.62416
532.722
509.816
7.8244
8.69992
9.17288
9.46557
9.68059
9.84591
9.96502
10.0346
10.0574
10.0384
9.97008
9.85631
9.70081
9.50841
9.28476
9.03647
8.76875
8.48099
8.17189
7.84232
7.49896
7.16473
6.88542
6.68296
6.53705
6.43218
6.35505
6.2903
6.22567
6.14786
6.04523
5.8907
5.61107
533.035
509.817
7.78562
8.66003
9.1376
9.43637
9.65845
9.83136
9.95923
10.0405
10.0851
10.0794
10.027
9.92949
9.78858
9.6073
9.39116
9.14789
8.88344
8.59773
8.29122
7.96427
7.62068
7.27814
6.96874
6.72565
6.55218
6.43555
6.35084
6.28188
6.21418
6.13468
6.03157
5.87738
5.59829
533.346
509.742
7.73653
8.62021
9.10466
9.40884
9.63614
9.81527
9.95072
10.0406
10.094
10.1003
10.0616
9.97902
9.85432
9.69026
9.49048
9.26059
9.00679
8.7298
8.43156
8.11451
7.78343
7.44581
7.11846
6.83871
6.61843
6.46104
6.35652
6.2798
6.2071
6.12588
6.02235
5.86884
5.59381
533.647
509.738
7.70934
8.59314
9.08161
9.3904
9.62243
9.80682
9.94961
10.0524
10.1147
10.1347
10.1131
10.0486
9.9418
9.79416
9.6092
9.39214
9.14856
8.87963
8.58809
8.27759
7.95482
7.62039
7.2883
6.98695
6.72677
6.52382
6.38219
6.28431
6.2054
6.11954
6.01459
5.86314
5.59642
533.96
509.865
7.7042
8.58424
9.07289
9.38421
9.61907
9.80562
9.94892
10.0514
10.1148
10.14
10.1244
10.0727
9.98499
9.85669
9.69115
9.49195
9.26287
9.00456
8.71982
8.41271
8.09015
7.75859
7.4324
7.13212
6.85797
6.62289
6.4415
6.31101
6.21137
6.12139
6.01474
5.86531
5.60757
534.256
510.021
7.70585
8.57703
9.06052
9.37273
9.61125
9.80223
9.9491
10.0526
10.1173
10.1438
10.1286
10.0777
9.99571
9.88593
9.7392
9.56035
9.35048
9.10802
8.83349
8.52899
8.19792
7.85072
7.51744
7.2171
6.944
6.70212
6.50199
6.3474
6.22846
6.12575
6.01597
5.86768
5.62019
534.555
510.202
7.7167
8.57344
9.05048
9.36181
9.60137
9.79501
9.94641
10.0517
10.1161
10.1404
10.1286
10.0797
9.99782
9.89199
9.75494
9.59107
9.39948
9.17725
8.92288
8.6362
8.31768
7.97157
7.61843
7.29589
7.00958
6.76025
6.55095
6.38231
6.24834
6.13509
6.02004
5.87198
5.62892
534.854
510.361
7.71877
8.55734
9.02894
9.33953
9.5813
9.77836
9.93337
10.0451
10.1113
10.1362
10.1232
10.076
9.99706
9.89443
9.76499
9.61287
9.4359
9.23099
8.99599
8.72981
8.43098
8.09965
7.74829
7.40422
7.08722
6.81687
6.59393
6.41396
6.26874
6.14658
6.02666
5.87726
5.63463
535.146
510.439
7.70284
8.53236
9.00123
9.31375
9.55975
9.76117
9.91996
10.0342
10.1022
10.129
10.1178
10.0727
9.99865
9.90198
9.77956
9.63636
9.47043
9.27919
9.0606
8.81318
8.53437
8.22181
7.8823
7.53538
7.19464
6.89172
6.64408
6.447
6.28935
6.15864
6.03391
5.88204
5.63699
535.431
510.473
7.6723
8.49786
8.96857
9.28427
9.53431
9.7409
9.90601
10.0277
10.1051
10.1425
10.1389
10.0981
10.0246
9.92339
9.80049
9.66035
9.50063
9.31888
9.11296
8.88101
8.61977
8.32545
8.00175
7.66255
7.31506
6.98267
6.70584
6.4869
6.31448
6.1744
6.04431
5.88926
5.6415
535.72
510.471
7.63535
8.46064
8.93339
9.25222
9.50688
9.71914
9.89055
10.0187
10.101
10.1454
10.1473
10.111
10.0416
9.94431
9.82459
9.68729
9.53153
9.35599
9.15917
8.93926
8.69262
8.41473
8.10803
7.78277
7.43964
7.09488
6.78465
6.53685
6.34423
6.19203
6.05555
5.89675
5.64621
536.01
510.458
7.59933
8.42304
8.89888
9.22185
9.48146
9.6998
9.87887
10.0167
10.1115
10.1643
10.1758
10.1485
10.0857
9.99197
9.87306
9.73483
9.5781
9.40319
9.20973
8.99639
8.75958
8.49466
8.20352
7.89343
7.55939
7.21033
6.87695
6.6003
6.38421
6.21667
6.0717
5.90854
5.65708
536.288
510.475
7.57197
8.39296
8.86973
9.19519
9.45841
9.68143
9.86634
10.0112
10.1149
10.1795
10.2027
10.1872
10.1347
10.0488
9.93447
9.79731
9.63926
9.46241
9.26819
9.05661
8.82493
8.56923
8.29185
7.99703
7.67463
7.3279
6.98165
6.67689
6.43432
6.24787
6.09221
5.92402
5.67261
536.561
510.546
7.55514
8.37024
8.84592
9.17367
9.44038
9.66779
9.85773
10.0076
10.1139
10.184
10.2203
10.217
10.1769
10.1025
9.99742
9.86582
9.70966
9.53199
9.33575
9.12268
8.89187
8.6412
8.37448
8.09327
7.78372
7.44365
7.09085
6.76082
6.49307
6.28688
6.11918
5.94504
5.69332
536.834
510.628
7.54079
8.34873
8.82149
9.14992
9.41928
9.65038
9.84486
10.0003
10.1141
10.1869
10.2279
10.2347
10.2069
10.1445
10.0516
9.9299
9.78058
9.6065
9.41102
9.1969
8.96494
8.71552
8.45467
8.1824
7.88343
7.55188
7.19902
6.8538
6.55884
6.33128
6.15049
5.96972
5.71671
537.105
510.714
7.52915
8.32628
8.79459
9.12301
9.39554
9.63056
9.82922
9.98932
10.1088
10.1857
10.2276
10.2379
10.2207
10.1701
10.0897
9.9799
9.84107
9.67542
9.48575
9.27431
9.04229
8.79407
8.53792
8.26999
7.97631
7.65146
7.30141
6.94804
6.63047
6.38211
6.18766
5.9991
5.74223
537.369
510.793
7.51368
8.30094
8.7647
9.09267
9.36791
9.60665
9.80914
9.9729
10.0966
10.1808
10.2275
10.2416
10.2283
10.1879
10.1188
10.0205
9.89318
9.73842
9.55871
9.35512
9.12794
8.88327
8.62952
8.362
8.07026
7.74927
7.40104
7.04227
6.70831
6.43648
6.22816
6.03127
5.76857
537.626
510.862
7.49585
8.27367
8.73304
9.06033
9.33775
9.58078
9.78754
9.95508
10.0821
10.1696
10.2214
10.2402
10.2284
10.1928
10.1354
10.0485
9.93245
9.78882
9.61969
9.42582
9.20713
8.96902
8.7197
8.45447
8.16458
7.84597
7.49936
7.1376
6.79212
6.5008
6.2751
6.06786
5.79711
537.879
510.911
7.47347
8.24306
8.69882
9.02562
9.30501
9.55182
9.76317
9.93475
10.065
10.155
10.2092
10.2322
10.2271
10.1958
10.1419
10.0626
9.9558
9.82252
9.6642
9.48111
9.27275
9.04369
8.80129
8.54054
8.2535
7.93696
7.59156
7.22819
6.87519
6.56911
6.32739
6.10768
5.82606
538.127
510.936
7.44433
8.20831
8.66168
8.98847
9.27009
9.52065
9.73739
9.91482
10.0499
10.143
10.1987
10.2231
10.2199
10.1925
10.1417
10.0675
9.96732
9.84225
9.69343
9.52072
9.32326
9.105
8.87204
8.61855
8.33661
8.02354
7.68021
7.31659
6.95897
6.64175
6.38617
6.15251
5.85718
538.37
510.957
7.41615
8.17485
8.6263
8.95344
9.23746
9.49176
9.71326
9.89681
10.0388
10.1373
10.1951
10.2207
10.2181
10.1915
10.1426
10.071
9.97457
9.85476
9.71292
9.5489
9.3618
9.15519
8.93323
8.68887
8.41371
8.10528
7.76458
7.40129
7.04074
6.7152
6.44814
6.20137
5.89177
538.602
510.989
7.3893
8.14194
8.5915
8.9194
9.20624
9.46471
9.6912
9.88025
10.0287
10.1361
10.2042
10.2365
10.2373
10.2115
10.1602
10.0841
9.98502
9.86488
9.72528
9.56626
9.3873
9.19198
8.98204
8.74891
8.48326
8.18226
7.8465
7.48526
7.12332
6.79114
6.51381
6.25411
5.92919
538.827
511.024
7.36288
8.10924
8.55677
8.88556
9.17544
9.4384
9.67031
9.86505
10.0189
10.1315
10.2056
10.2425
10.2466
10.223
10.1724
10.096
9.9958
9.8747
9.73507
9.57781
9.40443
9.21894
9.01923
8.79619
8.5405
8.24837
7.91959
7.56273
7.20202
6.86598
6.58067
6.3096
5.96983
539.037
511.06
7.33657
8.07601
8.52107
8.85058
9.14348
9.41116
9.6489
9.84989
10.0097
10.1273
10.2082
10.2507
10.2592
10.2385
10.1892
10.1125
10.0109
9.88787
9.747
9.59049
9.4209
9.24192
9.04952
8.8353
8.58954
8.30719
7.98691
7.63621
7.2787
6.94057
6.64857
6.36667
6.0115
539.237
511.1
7.31129
8.04313
8.48535
8.81547
9.11131
9.38383
9.62791
9.83625
10.0038
10.1282
10.217
10.2662
10.2797
10.2622
10.2139
10.1372
10.0349
9.90976
9.76629
9.608
9.43872
9.26292
9.07531
8.86734
8.62904
8.35517
8.04378
7.70155
7.34958
7.01241
6.71631
6.4255
6.05593
539.424
511.155
7.28802
8.01063
8.44892
8.77903
9.07729
9.35403
9.60369
9.81878
9.99438
10.1286
10.2221
10.2783
10.2984
10.2861
10.2409
10.165
10.0623
9.93686
9.79182
9.63176
9.46201
9.28779
9.10348
8.90064
8.66894
8.40269
8.09926
7.76493
7.41799
7.08199
6.78268
6.48407
6.1006
539.602
511.201
7.26291
7.97615
8.41037
8.7403
9.04083
9.32175
9.57699
9.79855
9.98105
10.1223
10.2227
10.2891
10.3181
10.3121
10.2712
10.1974
10.0945
9.96743
9.82085
9.65856
9.48663
9.31054
9.12468
8.92266
8.69529
8.43648
8.14268
7.81882
7.48003
7.14825
6.84798
6.54256
6.14527
539.77
511.25
7.23784
7.94119
8.37074
8.69981
9.00192
9.28639
9.54677
9.77475
9.96476
10.1144
10.2241
10.2972
10.3356
10.3376
10.3038
10.2348
10.1345
10.0081
9.85985
9.69355
9.51647
9.33463
9.14432
8.94017
8.7142
8.46078
8.17586
7.86313
7.534
7.2085
6.90964
6.60009
6.19062
539.929
511.3
7.21229
7.90512
8.3296
8.65735
8.96063
9.24817
9.51307
9.74671
9.94336
10.1005
10.2182
10.2975
10.3447
10.3543
10.3266
10.2626
10.166
10.0414
9.89343
9.72621
9.54738
9.36193
9.16729
8.95943
8.73193
8.48045
8.20156
7.89854
7.57915
7.26118
6.96548
6.65366
6.23271
540.084
511.336
7.1834
7.86701
8.2867
8.61277
8.91672
9.20689
9.47601
9.71514
9.91833
10.0829
10.2091
10.2982
10.3525
10.3688
10.3471
10.2882
10.1952
10.0727
9.92545
9.75843
9.57893
9.39004
9.19101
8.97932
8.74934
8.49814
8.22336
7.92843
7.61812
7.30803
7.0165
6.70377
6.27241
540.232
511.375
7.15516
7.82914
8.24365
8.56762
8.87179
9.16413
9.43706
9.68141
9.89099
10.0629
10.1971
10.2948
10.3563
10.3804
10.3656
10.3131
10.2252
10.1064
9.96151
9.79541
9.61538
9.42355
9.2201
9.00357
8.76962
8.51675
8.24386
7.9551
7.65261
7.34997
7.06283
6.74988
6.30948
540.376
511.41
7.1258
7.7906
8.20011
8.52174
8.82577
9.11979
9.39602
9.64511
9.86069
10.0396
10.1816
10.2877
10.3565
10.3887
10.3813
10.3354
10.2533
10.1392
9.99775
9.83394
9.65446
9.46066
9.25333
9.03192
8.79334
8.53766
8.26539
7.98079
7.68465
7.38865
7.10575
6.79302
6.34489
540.515
511.443
7.09625
7.75206
8.15646
8.47544
8.77896
9.07429
9.3535
9.60711
9.82862
10.0146
10.1644
10.2792
10.3568
10.3955
10.395
10.3559
10.2801
10.1715
10.0348
9.87487
9.69731
9.50277
9.29227
9.06599
8.82212
8.56243
8.28929
8.00682
7.71528
7.4247
7.14546
6.83311
6.37847
540.649
511.475
7.06678
7.71379
8.11315
8.42932
8.73204
9.02822
9.30984
9.56744
9.79442
9.98706
10.1443
10.267
10.3519
10.3977
10.4047
10.3728
10.304
10.2018
10.0709
9.91624
9.74198
9.54825
9.33601
9.10585
8.85688
8.59252
8.31717
8.03503
7.74637
7.45985
7.18363
6.87142
6.41125
540.777
511.508
7.03762
7.67593
8.07023
8.38343
8.6851
8.98177
9.26533
9.52645
9.75858
9.95781
10.1227
10.2531
10.3453
10.398
10.4126
10.3883
10.3267
10.2314
10.1072
9.95905
9.7892
9.59744
9.38478
9.15192
8.89849
8.62921
8.35045
8.06683
7.77912
7.49509
7.22099
6.90861
6.44372
540.899
511.54
7.00872
7.63855
8.0279
8.33811
8.63844
8.93525
9.22033
9.48446
9.7212
9.92655
10.0988
10.2365
10.3363
10.3968
10.4181
10.4007
10.3463
10.2583
10.1415
10.0004
9.83564
9.64712
9.43582
9.20205
8.94555
8.67192
8.38929
8.10284
7.81434
7.53122
7.25811
6.94501
6.47549
541.015
511.575
6.981
7.60215
7.98639
8.29352
8.5923
8.88882
9.17498
9.44165
9.68247
9.89342
10.0725
10.2172
10.324
10.3915
10.4196
10.4098
10.3626
10.2819
10.1723
10.0381
9.87891
9.69456
9.48589
9.25292
8.99518
8.71857
8.43252
8.14266
7.85215
7.56855
7.2952
6.98059
6.50607
541.126
511.613
6.95434
7.56667
7.9458
8.24982
8.54699
8.84297
9.1296
9.39815
9.64238
9.85832
10.0438
10.1953
10.3094
10.3845
10.4204
10.4187
10.38
10.3067
10.2038
10.0755
9.92107
9.74049
9.53454
9.30314
9.04547
8.76742
8.47908
8.18601
7.89285
7.60773
7.33305
7.01605
6.53605
541.234
511.655
6.92857
7.53204
7.90607
8.20691
8.5023
8.79749
9.0842
9.35381
9.6005
9.82028
10.0108
10.1679
10.2884
10.3706
10.4143
10.4199
10.3894
10.3251
10.2311
10.1102
9.96166
9.78528
9.58218
9.35249
9.09539
8.81669
8.52704
8.23135
7.93554
7.64834
7.37141
7.05106
6.56463
541.338
511.696
6.90295
7.49792
7.86707
8.16484
8.45833
8.75243
9.0388
9.30892
9.55719
9.77992
9.97386
10.135
10.2605
10.3486
10.3989
10.4121
10.3897
10.3341
10.2494
10.1367
9.99495
9.82399
9.62491
9.39811
9.14283
8.86501
8.57502
8.27752
7.9794
7.68996
7.41021
7.08566
6.59148
541.439
511.734
6.87669
7.46387
7.82859
8.12359
8.41531
8.70824
8.99405
9.26449
9.51399
9.73892
9.93509
10.0992
10.2287
10.3216
10.3775
10.3971
10.3821
10.335
10.2594
10.1551
10.0207
9.85595
9.66197
9.4393
9.18716
8.91171
8.62232
8.32388
8.02396
7.73225
7.44928
7.1199
6.61725
541.538
511.772
6.85092
7.43049
7.79096
8.08336
8.37343
8.66537
8.95081
9.22158
9.47235
9.69952
9.89761
10.0642
10.1971
10.2942
10.3551
10.3804
10.3722
10.3328
10.2654
10.1686
10.041
9.88237
9.69384
9.47599
9.22794
8.95607
8.66849
8.3702
8.0692
7.77552
7.4893
7.15464
6.64311
541.634
511.808
6.82491
7.39742
7.75399
8.04399
8.33235
8.62309
8.90803
9.17923
9.43128
9.66049
9.86023
10.0289
10.1647
10.2658
10.3316
10.3626
10.361
10.3293
10.2695
10.1797
10.0584
9.90545
9.72211
9.50901
9.26526
8.99753
8.71266
8.41552
8.11429
7.81911
7.52987
7.18997
6.66958
541.726
511.843
6.7989
7.36476
7.71775
8.00553
8.29224
8.58173
8.86608
9.13771
9.39129
9.62292
9.82473
9.9955
10.1338
10.2382
10.3082
10.3446
10.3494
10.3252
10.2728
10.1896
10.0741
9.92647
9.74793
9.53928
9.29981
9.0365
8.75489
8.45964
8.15889
7.86279
7.57093
7.22613
6.69706
541.815
511.879
6.7731
7.33261
7.68232
7.96813
8.25322
8.54127
8.82473
9.09654
9.35155
9.58565
9.78981
9.96309
10.1042
10.212
10.2861
10.3276
10.3385
10.3216
10.276
10.1991
10.0892
9.94655
9.77241
9.56777
9.33226
9.07325
8.79508
8.50217
8.20249
7.90602
7.61207
7.26293
6.72568
541.901
511.914
6.74701
7.30063
7.64747
7.93158
8.21511
8.50154
8.78381
9.05557
9.31198
9.54852
9.75529
9.93147
10.0759
10.1873
10.2657
10.3124
10.3296
10.3196
10.2803
10.2093
10.1048
9.96689
9.79692
9.59599
9.36409
9.10902
8.83405
8.54351
8.24518
7.94877
7.65331
7.30051
6.7557
541.983
511.951
6.72091
7.26895
7.61337
7.89613
8.17819
8.46269
8.74311
9.01421
9.27184
9.51038
9.72
9.89974
10.0481
10.1639
10.2471
10.2993
10.3229
10.3195
10.2861
10.2203
10.1207
9.98721
9.82121
9.62393
9.39561
9.14417
8.87216
8.58384
8.28689
7.99078
7.69422
7.33828
6.7863
542.062
511.987
6.69388
7.23693
7.5796
7.86157
8.14247
8.42485
8.70269
8.97194
9.22958
9.46945
9.68184
9.86559
10.0188
10.14
10.2292
10.288
10.3188
10.3219
10.2942
10.2333
10.138
10.0085
9.8461
9.65217
9.42744
9.17911
8.90968
8.62339
8.32779
8.03217
7.73486
7.37623
6.81745
542.136
512.022
6.66583
7.20451
7.54613
7.82796
8.10822
8.38867
8.66353
8.92985
9.18595
9.42562
9.63963
9.8268
9.98491
10.1121
10.2082
10.2747
10.314
10.3247
10.3036
10.2483
10.1578
10.0322
9.8732
9.68239
9.46092
9.21517
8.94774
8.66295
8.36841
8.07318
7.77515
7.41394
6.84845
542.209
512.054
6.636
7.17108
7.5125
7.79507
8.07553
8.35469
8.62669
8.8895
9.14282
9.38077
9.59488
9.78417
9.94625
10.079
10.1821
10.2569
10.3052
10.3242
10.3103
10.2614
10.1766
10.0558
9.90064
9.71315
9.49506
9.25186
8.98623
8.70268
8.40897
8.11405
7.8153
7.45147
6.87919
542.279
512.085
6.60466
7.13662
7.47844
7.76251
8.04416
8.32305
8.59285
8.85207
9.10175
9.33661
9.54925
9.7392
9.90402
10.0414
10.151
10.2339
10.291
10.3181
10.3119
10.2708
10.1926
10.0776
9.92725
9.74367
9.52928
9.28868
9.02486
8.74251
8.44951
8.15473
7.85514
7.48847
6.90915
542.349
512.115
6.57176
7.10088
7.44351
7.72977
8.01369
8.2937
8.56262
8.81895
9.0648
9.29571
9.50562
9.69486
9.86115
10.0021
10.1173
10.2078
10.2733
10.3089
10.3111
10.2768
10.2054
10.0968
9.95217
9.77351
9.5636
9.32602
9.06391
8.78259
8.49023
8.19554
7.89497
7.52528
6.93878
542.418
512.148
6.53816
7.06415
7.40752
7.69636
7.98359
8.26636
8.53622
8.7911
9.03366
9.26034
9.46675
9.65441
9.82144
9.96538
10.0857
10.1831
10.2555
10.2979
10.3068
10.2796
10.2151
10.113
9.97438
9.80124
9.59665
9.36287
9.10325
8.82312
8.53121
8.23639
7.93464
7.56168
6.9678
542.487
512.189
6.50478
7.02684
7.37053
7.66208
7.95349
8.24064
8.51354
8.76888
9.00922
9.2315
9.43339
9.61808
9.78471
9.93111
10.0563
10.1603
10.2391
10.2878
10.3029
10.2819
10.2239
10.1282
9.99572
9.82853
9.62924
9.39948
9.14252
8.86419
8.5731
8.27806
7.97472
7.59819
6.99691
542.555
512.239
6.4718
6.9888
7.33201
7.62607
7.92223
8.21532
8.49367
8.75231
8.99279
9.21184
9.40898
9.58924
9.75354
9.90047
10.0289
10.1381
10.2224
10.2769
10.2979
10.283
10.2313
10.1419
10.0157
9.85498
9.66125
9.43587
9.18202
8.90544
8.61521
8.32001
8.01501
7.63461
7.02549
542.623
512.301
6.44046
6.95061
7.292
7.58784
7.88867
8.18848
8.4743
8.73936
8.98336
9.20204
9.3959
9.57148
9.73168
9.87662
10.0059
10.1179
10.206
10.2653
10.2917
10.2822
10.2376
10.1546
10.0348
9.88069
9.69267
9.47188
9.22137
8.94694
8.65762
8.36212
8.05534
7.67084
7.05365
542.691
512.378
6.41081
6.91223
7.25031
7.54679
7.85155
8.15792
8.45213
8.72617
8.9769
9.19953
9.39452
9.5688
9.72608
9.86748
9.99404
10.1048
10.1936
10.255
10.2848
10.2813
10.2418
10.165
10.052
9.905
9.72324
9.50752
9.26076
8.98878
8.70064
8.40486
8.09607
7.70724
7.08177
542.757
512.47
6.38314
6.87409
7.20761
7.50348
7.81087
8.12241
8.42404
8.7072
8.96609
9.1953
9.3949
9.57137
9.72875
9.86944
9.99571
10.1056
10.1934
10.2547
10.2863
10.2854
10.2489
10.1767
10.0691
9.92871
9.75306
9.54256
9.29988
9.0307
8.74399
8.44806
8.13697
7.74327
7.10887
542.824
512.57
6.35543
6.83506
7.16346
7.4579
7.76657
8.08137
8.38871
8.68026
8.94777
9.185
9.39126
9.57233
9.73255
9.87475
10.0019
10.1114
10.1986
10.2597
10.2913
10.291
10.2572
10.1889
10.0867
9.95199
9.78205
9.57674
9.33835
9.0723
8.7873
8.49132
8.17797
7.7792
7.13545
542.89
512.669
6.32604
6.79441
7.11773
7.41035
7.71888
8.03436
8.34443
8.64206
8.91732
9.16327
9.37819
9.56686
9.73264
9.87865
10.0085
10.1188
10.2057
10.2663
10.2978
10.2986
10.2668
10.2019
10.1045
9.97499
9.8103
9.60994
9.37583
9.11307
8.83003
8.53421
8.21862
7.81444
7.16042
542.956
512.757
6.29297
6.75151
7.07058
7.36164
7.66942
7.98381
8.29354
8.59356
8.87349
9.1266
9.35029
9.54806
9.72215
9.87536
10.0105
10.1239
10.2125
10.2737
10.3054
10.3068
10.2767
10.2146
10.1216
9.99685
9.83721
9.64178
9.41209
9.15285
8.87199
8.57652
8.2588
7.84911
7.18462
543.022
512.836
6.257
6.70697
7.02285
7.3131
7.62053
7.9334
8.24089
8.53989
8.82075
9.07787
9.30835
9.51466
9.69803
9.86045
10.0033
10.1217
10.2127
10.2764
10.3114
10.3149
10.2869
10.2277
10.1388
10.0184
9.86337
9.67261
9.44728
9.19169
8.91325
8.61839
8.29874
7.88363
7.2088
543.088
512.911
6.21874
6.66084
6.97459
7.2653
7.57391
7.88659
8.192
8.48741
8.76544
9.02251
9.25608
9.46808
9.6593
9.83113
9.98268
10.1089
10.2073
10.2751
10.3114
10.3187
10.2945
10.2394
10.1551
10.0393
9.88889
9.70272
9.4817
9.22978
8.95388
8.6598
8.33841
7.91804
7.23324
543.157
512.989
6.17904
6.61319
6.92532
7.21747
7.52894
7.84354
8.14864
8.44032
8.71378
8.96804
9.20192
9.41687
9.61416
9.79558
9.956
10.0892
10.1934
10.2673
10.3099
10.3193
10.3002
10.2499
10.1705
10.0593
9.91358
9.73201
9.51534
9.26719
8.99399
8.70094
8.37814
7.953
7.25903
543.228
513.069
6.13796
6.56377
6.87421
7.16831
7.48409
7.8029
8.10998
8.39904
8.66692
8.91534
9.14564
9.36086
9.5625
9.75144
9.91975
10.0606
10.1722
10.253
10.3016
10.3176
10.3007
10.258
10.1843
10.0783
9.93744
9.76048
9.54808
9.30365
9.03319
8.74133
8.41738
7.98771
7.28478
543.3
513.149
6.09583
6.51229
6.82027
7.11616
7.43741
7.7633
8.07654
8.36734
8.63248
8.87509
9.0988
9.30921
9.50928
9.7
9.87195
10.0183
10.1368
10.2255
10.2826
10.3069
10.2995
10.26
10.1936
10.0935
9.95827
9.78649
9.5788
9.33842
9.071
8.78064
8.45597
8.02222
7.31092
543.374
513.25
6.05629
6.46066
6.76423
7.06074
7.38708
7.72082
8.04261
8.33918
8.60675
8.84878
9.0699
9.2772
9.4746
9.66295
9.83392
9.98212
10.1045
10.1984
10.2617
10.2927
10.2923
10.2621
10.2015
10.1076
9.97804
9.81149
9.60858
9.37237
9.10817
8.81959
8.49462
8.05732
7.33843
543.45
513.364
6.0175
6.40808
6.7057
7.00153
7.33197
7.67334
8.00425
8.30777
8.57941
8.82284
9.0436
9.25005
9.44706
9.635
9.80622
9.95522
10.0793
10.1759
10.2428
10.2787
10.2835
10.2587
10.2064
10.119
9.99545
9.83429
9.63621
9.40422
9.14335
8.85673
8.53167
8.09104
7.36475
543.529
513.487
5.9794
6.35473
6.64419
6.93687
7.26913
7.61697
7.95754
8.27009
8.54849
8.79554
9.01678
9.2211
9.41665
9.60442
9.77692
9.92885
10.0563
10.1559
10.2265
10.2673
10.2786
10.2617
10.2129
10.1305
10.0121
9.85608
9.6628
9.43509
9.17764
8.89315
8.56825
8.12448
7.39066
543.609
513.623
5.94288
6.30214
6.5815
6.8686
7.19938
7.55018
7.89723
8.21732
8.50269
8.75542
8.98029
9.18754
9.38665
9.57755
9.75239
9.90674
10.0376
10.1417
10.2163
10.261
10.2767
10.2639
10.2195
10.1416
10.0278
9.87647
9.68775
9.46422
9.21021
8.92794
8.60333
8.15674
7.41611
543.69
513.757
5.90525
6.24929
6.5175
6.79673
7.12304
7.47383
7.82329
8.14795
8.43975
8.69937
8.93064
9.14443
9.35074
9.54628
9.72388
9.88117
10.0157
10.1242
10.2042
10.2544
10.2753
10.2672
10.2284
10.1545
10.0446
9.897
9.71211
9.49233
9.24164
8.96172
8.63757
8.18794
7.43922
543.775
513.894
5.8688
6.19915
6.45587
6.72547
7.04507
7.39426
7.7457
8.07475
8.37209
8.63769
8.87511
9.09503
9.3072
9.50678
9.68732
9.84739
9.98519
10.0978
10.183
10.2392
10.2663
10.2627
10.2303
10.1646
10.0594
9.91564
9.73427
9.51784
9.27014
8.99235
8.66864
8.21609
7.45953
543.857
514.039
5.83354
6.15142
6.39646
6.65519
6.96607
7.31136
7.6627
7.99478
8.29726
8.56923
8.81375
9.04109
9.26025
9.4649
9.64914
9.8122
9.95283
10.0687
10.1578
10.2192
10.254
10.2597
10.2322
10.172
10.0731
9.93376
9.75602
9.54283
9.29794
9.02223
8.69912
8.24438
7.4814
543.943
514.197
5.80128
6.108
6.34127
6.58798
6.88865
7.22896
7.57929
7.91291
8.21843
8.49463
8.74465
8.9786
9.20448
9.41491
9.60419
9.77184
9.91678
10.0368
10.1304
10.197
10.2379
10.2497
10.2298
10.1747
10.0831
9.95037
9.77735
9.56776
9.32568
9.05185
8.72899
8.27165
7.5018
544.034
514.367
5.77164
6.06846
6.28998
6.52311
6.81121
7.14505
7.49477
7.83148
8.14138
8.42213
8.67687
8.91598
9.14661
9.36129
9.55475
9.72691
9.87679
10.0021
10.1014
10.1742
10.2211
10.2386
10.2244
10.1754
10.09
9.96387
9.79711
9.59196
9.35305
9.08129
8.75894
8.29998
7.52543
544.115
514.546
5.7443
6.03363
6.24458
6.46221
6.73407
7.05736
7.40381
7.74296
8.05802
8.34473
8.60574
8.85156
9.08785
9.30722
9.50484
9.68121
9.83569
9.96623
10.0714
10.1507
10.2039
10.2272
10.2181
10.1729
10.0961
9.97609
9.8152
9.61564
9.3803
9.11077
8.78893
8.32812
7.54772
544.211
514.722
5.7182
6.0025
6.20437
6.4063
6.6594
6.96889
7.30997
7.65093
7.97132
8.26314
8.52892
8.78152
9.02408
9.24736
9.44776
9.62719
9.78573
9.92144