/*--------------------------------*- C++ -*----------------------------------*\
| =========                 |                                                 |
| \\      /  F ield         | OpenFOAM: The Open Source CFD Toolbox           |
|  \\    /   O peration     | Version:  v2012                                 |
|   \\  /    A nd           | Website:  www.openfoam.com                      |
|    \\/     M anipulation  |                                                 |
\*---------------------------------------------------------------------------*/
FoamFile
{
    version     2.0;
    format      ascii;
    class       surfaceScalarField;
    location    "900";
    object      phi;
}
// * * * * * * * * * * * * * * * * * * * * * * * * * * * * * * * * * * * * * //

dimensions      [1 0 -1 0 0 0 0];
oriented        oriented;


internalField   nonuniform List<scalar> 
228225
(
-6.07785e-06
3.44649e-06
2.57074e-06
-1.33009e-05
3.25952e-06
3.96339e-06
-1.85396e-05
1.12032e-06
4.11824e-06
-2.08717e-05
-1.70012e-06
4.03198e-06
-2.08058e-05
-3.8864e-06
3.82027e-06
-1.82916e-05
-6.19208e-06
3.67762e-06
-1.31319e-05
-8.71307e-06
3.55308e-06
-6.3233e-06
-1.03401e-05
3.53124e-06
1.57535e-06
-1.14193e-05
3.52033e-06
9.98873e-06
-1.19146e-05
3.50084e-06
1.84225e-05
-1.19224e-05
3.48824e-06
2.68217e-05
-1.18695e-05
3.47006e-06
3.48328e-05
-1.14805e-05
3.46909e-06
4.23183e-05
-1.09623e-05
3.47664e-06
4.92075e-05
-1.03648e-05
3.47537e-06
5.54522e-05
-9.67366e-06
3.42881e-06
6.0927e-05
-8.89319e-06
3.41816e-06
6.56214e-05
-8.07431e-06
3.37974e-06
6.95301e-05
-7.28924e-06
3.3803e-06
7.25242e-05
-6.40049e-06
3.40623e-06
7.47445e-05
-5.63287e-06
3.41242e-06
7.5926e-05
-4.62248e-06
3.44079e-06
7.63312e-05
-3.84689e-06
3.44147e-06
7.58983e-05
-3.02211e-06
3.45488e-06
7.45668e-05
-2.15628e-06
3.48758e-06
7.23877e-05
-1.34927e-06
3.5282e-06
6.90968e-05
-3.01707e-07
3.59238e-06
6.44515e-05
9.88948e-07
3.65612e-06
5.89494e-05
1.75168e-06
3.75024e-06
5.22767e-05
2.80591e-06
3.86657e-06
4.42577e-05
4.08334e-06
3.93538e-06
3.45253e-05
5.4612e-06
4.27097e-06
2.314e-05
6.78829e-06
4.59668e-06
1.05952e-05
7.86941e-06
4.67478e-06
7.26287e-06
3.3323e-06
1.66044e-06
3.65239e-07
1.42057e-06
3.58719e-06
-1.19716e-06
2.52964e-06
6.46717e-06
-4.52258e-06
2.76263e-06
1.09133e-05
-8.69707e-06
2.55056e-06
1.62187e-05
-1.155e-05
2.35799e-06
2.22688e-05
-1.42878e-05
2.04533e-06
2.7986e-05
-1.62298e-05
1.79942e-06
3.32817e-05
-1.72311e-05
1.59506e-06
3.81424e-05
-1.77062e-05
1.42594e-06
4.25786e-05
-1.76559e-05
1.30485e-06
4.65988e-05
-1.71568e-05
1.21418e-06
5.01067e-05
-1.65442e-05
1.16656e-06
5.3252e-05
-1.57459e-05
1.11986e-06
5.59916e-05
-1.47967e-05
1.09458e-06
5.82538e-05
-1.37112e-05
1.08401e-06
5.9916e-05
-1.24644e-05
1.12827e-06
6.11258e-05
-1.1227e-05
1.12371e-06
6.18609e-05
-9.95125e-06
1.14152e-06
6.22023e-05
-8.74992e-06
1.11902e-06
6.22514e-05
-7.55554e-06
1.10566e-06
6.18655e-05
-6.35855e-06
1.11125e-06
6.12412e-05
-5.13533e-06
1.13678e-06
6.01127e-05
-3.89858e-06
1.17982e-06
5.85152e-05
-2.65325e-06
1.22826e-06
5.64185e-05
-1.38602e-06
1.32602e-06
5.36944e-05
-1.04508e-08
1.3848e-06
5.05444e-05
1.32074e-06
1.5271e-06
4.68319e-05
2.93052e-06
1.77053e-06
4.23891e-05
4.22923e-06
1.96481e-06
3.69589e-05
5.95287e-06
2.28274e-06
3.08183e-05
7.61276e-06
2.61057e-06
2.3543e-05
9.76763e-06
2.96817e-06
1.48244e-05
1.20806e-05
3.42547e-06
5.73208e-06
1.32863e-05
3.67445e-06
1.0588e-05
2.40695e-06
1.1267e-06
-1.6826e-06
9.20342e-07
5.93333e-06
-7.36284e-06
1.35824e-06
1.32706e-05
-1.30533e-05
1.19289e-06
2.06856e-05
-1.70683e-05
9.55773e-07
2.78538e-05
-1.95069e-05
7.88244e-07
3.37276e-05
-2.08571e-05
6.95191e-07
3.7969e-05
-2.10577e-05
5.86338e-07
4.11749e-05
-2.08962e-05
4.58938e-07
4.35243e-05
-2.04337e-05
3.77783e-07
4.52833e-05
-1.97083e-05
2.93249e-07
4.67609e-05
-1.88506e-05
2.15776e-07
4.78597e-05
-1.7787e-05
1.43751e-07
4.85705e-05
-1.65275e-05
7.05186e-08
4.8824e-05
-1.50381e-05
-1.24914e-08
4.84838e-05
-1.32819e-05
-8.94558e-08
4.77013e-05
-1.15175e-05
-1.64761e-07
4.65503e-05
-9.86101e-06
-2.15426e-07
4.51687e-05
-8.31696e-06
-2.53046e-07
4.35287e-05
-6.83257e-06
-2.77782e-07
4.17035e-05
-5.45572e-06
-2.75059e-07
3.97729e-05
-4.21259e-06
-2.15922e-07
3.78661e-05
-3.04535e-06
-1.8362e-07
3.5973e-05
-1.87787e-06
-1.28154e-07
3.40016e-05
-6.65539e-07
-1.69814e-08
3.19707e-05
4.39177e-07
2.05061e-07
2.96398e-05
1.834e-06
4.85967e-07
2.72555e-05
2.96088e-06
7.43815e-07
2.50532e-05
4.12215e-06
1.01011e-06
2.2388e-05
5.58674e-06
1.30695e-06
1.9361e-05
7.35977e-06
1.61938e-06
1.55069e-05
9.38561e-06
2.08061e-06
1.08092e-05
1.19445e-05
2.52032e-06
5.83742e-06
1.41272e-05
2.9244e-06
1.62303e-06
1.47328e-05
2.76697e-06
1.05771e-05
1.63391e-06
2.32884e-06
-4.46567e-06
4.53416e-07
7.17835e-06
-1.27833e-05
5.70359e-07
1.16419e-05
-1.80228e-05
5.0555e-07
1.48637e-05
-2.07202e-05
4.29814e-07
1.67731e-05
-2.18115e-05
3.95012e-07
1.76951e-05
-2.20892e-05
3.09926e-07
1.8447e-05
-2.20182e-05
2.08409e-07
1.91329e-05
-2.16933e-05
1.11107e-07
1.97708e-05
-2.10811e-05
9.42223e-09
2.02217e-05
-2.00713e-05
-8.81575e-08
2.02642e-05
-1.87039e-05
-1.89392e-07
1.97665e-05
-1.69911e-05
-2.98546e-07
1.86064e-05
-1.49431e-05
-4.24647e-07
1.68222e-05
-1.26865e-05
-5.67803e-07
1.47472e-05
-1.04533e-05
-7.53934e-07
1.25922e-05
-8.38297e-06
-9.80055e-07
1.05361e-05
-6.5854e-06
-1.22004e-06
8.81609e-06
-5.15363e-06
-1.44404e-06
7.60979e-06
-4.01303e-06
-1.61395e-06
6.90036e-06
-3.05022e-06
-1.69679e-06
6.6005e-06
-2.21095e-06
-1.70254e-06
6.61817e-06
-1.42419e-06
-1.63968e-06
6.87247e-06
-6.1076e-07
-1.52226e-06
7.25924e-06
3.06012e-07
-1.35909e-06
7.6583e-06
1.19403e-06
-1.1547e-06
8.18382e-06
2.15207e-06
-8.44436e-07
8.36427e-06
3.20684e-06
-4.27318e-07
8.11615e-06
4.34721e-06
2.21648e-08
7.4929e-06
5.70462e-06
5.04499e-07
6.42068e-06
7.44462e-06
9.86474e-07
4.60542e-06
9.74045e-06
1.45952e-06
2.21859e-06
1.23859e-05
1.9447e-06
1.30917e-07
1.39449e-05
2.26926e-06
-1.18556e-06
1.37333e-05
2.31513e-06
8.30059e-06
1.09089e-06
1.76812e-06
-6.60731e-06
3.72691e-07
3.67515e-06
-1.53273e-05
6.36428e-07
4.77244e-06
-1.97615e-05
6.4106e-07
5.27753e-06
-2.17463e-05
5.20694e-07
5.592e-06
-2.25008e-05
3.74594e-07
5.87163e-06
-2.26296e-05
2.60467e-07
6.01614e-06
-2.23424e-05
1.79457e-07
5.8172e-06
-2.16167e-05
1.22045e-07
5.13562e-06
-2.04772e-05
7.73822e-08
4.0601e-06
-1.90401e-05
4.40694e-08
2.63875e-06
-1.72611e-05
-2.17347e-08
9.3886e-07
-1.51694e-05
-1.22125e-07
-9.02225e-07
-1.28333e-05
-2.69074e-07
-2.65587e-06
-1.04658e-05
-4.67542e-07
-4.02254e-06
-8.36019e-06
-7.27044e-07
-4.93224e-06
-6.48113e-06
-9.92766e-07
-5.38626e-06
-4.89397e-06
-1.23804e-06
-5.36653e-06
-3.73941e-06
-1.43457e-06
-4.87016e-06
-2.93819e-06
-1.57182e-06
-4.00337e-06
-2.28334e-06
-1.63429e-06
-2.95068e-06
-1.61567e-06
-1.64863e-06
-1.79704e-06
-9.63747e-07
-1.61479e-06
-5.6281e-07
-3.21758e-07
-1.52402e-06
7.72236e-07
3.59665e-07
-1.38953e-06
1.95134e-06
1.15815e-06
-1.14404e-06
2.90567e-06
2.0323e-06
-8.35367e-07
3.59099e-06
3.00621e-06
-4.85504e-07
3.94227e-06
4.10154e-06
-1.06432e-07
3.89547e-06
5.45204e-06
2.98547e-07
3.33315e-06
7.24627e-06
7.59891e-07
2.17232e-06
9.63021e-06
1.27046e-06
6.56616e-07
1.21214e-05
1.77972e-06
-6.4862e-07
1.31714e-05
2.07819e-06
-1.10069e-06
1.23332e-05
1.85117e-06
6.43051e-06
7.69376e-07
2.98723e-08
-7.02967e-06
3.91833e-07
-4.8073e-07
-1.54876e-05
6.70403e-07
-1.13522e-06
-1.98108e-05
7.03349e-07
-1.82329e-06
-2.16823e-05
6.23812e-07
-2.55622e-06
-2.22915e-05
5.23388e-07
-3.3202e-06
-2.23041e-05
4.3835e-07
-4.17975e-06
-2.18637e-05
3.80617e-07
-5.12659e-06
-2.10095e-05
3.39469e-07
-6.14134e-06
-1.9763e-05
3.00333e-07
-7.07448e-06
-1.83441e-05
2.36815e-07
-7.76597e-06
-1.67366e-05
1.66665e-07
-8.02784e-06
-1.49862e-05
7.83224e-08
-7.69713e-06
-1.31247e-05
-3.9761e-08
-6.76591e-06
-1.12163e-05
-1.81276e-07
-5.44754e-06
-9.32427e-06
-3.54814e-07
-3.88268e-06
-7.50217e-06
-5.44354e-07
-2.23402e-06
-5.81227e-06
-7.3091e-07
-7.70442e-07
-4.31311e-06
-8.90384e-07
3.41687e-07
-3.05525e-06
-9.95572e-07
1.18645e-06
-2.02907e-06
-1.09955e-06
1.86557e-06
-1.11853e-06
-1.1768e-06
2.51676e-06
-4.04811e-07
-1.21066e-06
3.09321e-06
2.87033e-07
-1.18581e-06
3.55405e-06
1.00155e-06
-1.10329e-06
3.91742e-06
1.73936e-06
-9.45152e-07
4.15612e-06
2.5031e-06
-7.10052e-07
4.28523e-06
3.30296e-06
-4.26425e-07
4.27101e-06
4.22544e-06
-1.10252e-07
4.04404e-06
5.43757e-06
2.40851e-07
3.46191e-06
7.17401e-06
6.53878e-07
2.47871e-06
9.47736e-06
1.13569e-06
1.42361e-06
1.15998e-05
1.57648e-06
5.27329e-07
1.22589e-05
1.80843e-06
-3.95272e-08
1.13269e-05
1.57261e-06
5.7279e-06
6.63061e-07
-7.73195e-07
-6.67752e-06
4.20299e-07
-2.03213e-06
-1.49208e-05
6.91604e-07
-3.31636e-06
-1.92607e-05
7.33737e-07
-4.52038e-06
-2.1173e-05
6.94408e-07
-5.61903e-06
-2.18332e-05
6.40148e-07
-6.64953e-06
-2.18625e-05
5.88755e-07
-7.5758e-06
-2.14748e-05
5.37234e-07
-8.27637e-06
-2.07972e-05
4.88096e-07
-8.61893e-06
-1.98781e-05
4.57375e-07
-8.60399e-06
-1.87951e-05
4.35886e-07
-8.20024e-06
-1.75763e-05
4.3571e-07
-7.39842e-06
-1.62325e-05
4.44169e-07
-6.19372e-06
-1.47723e-05
4.426e-07
-4.63983e-06
-1.3187e-05
4.16554e-07
-2.85403e-06
-1.14729e-05
3.62501e-07
-9.68012e-07
-9.65104e-06
2.62497e-07
8.75214e-07
-7.77093e-06
1.15066e-07
2.52938e-06
-5.89327e-06
-7.4402e-08
3.87749e-06
-4.10905e-06
-2.94718e-07
4.8565e-06
-2.52854e-06
-4.79924e-07
5.49713e-06
-1.1237e-06
-6.35814e-07
5.74899e-06
7.38558e-08
-7.30903e-07
5.93693e-06
8.94206e-07
-7.95529e-07
6.02198e-06
1.70966e-06
-7.93592e-07
6.02971e-06
2.46173e-06
-7.30542e-07
5.96712e-06
3.17007e-06
-6.0484e-07
5.78217e-06
3.89915e-06
-4.11712e-07
5.44349e-06
4.72404e-06
-1.60444e-07
4.93463e-06
5.79733e-06
1.48578e-07
4.22023e-06
7.36178e-06
5.26058e-07
3.28652e-06
9.44934e-06
9.61223e-07
2.28897e-06
1.12314e-05
1.36561e-06
1.30482e-06
1.17214e-05
1.52122e-06
4.61418e-07
1.08306e-05
1.33913e-06
5.58775e-06
6.01574e-07
-1.03503e-06
-6.00055e-06
3.57572e-07
-2.43989e-06
-1.40165e-05
5.00242e-07
-3.78575e-06
-1.84748e-05
5.59775e-07
-4.97551e-06
-2.05885e-05
6.05124e-07
-5.95104e-06
-2.14734e-05
6.1567e-07
-6.69894e-06
-2.17302e-05
6.15486e-07
-7.15232e-06
-2.16252e-05
6.03653e-07
-7.26865e-06
-2.126e-05
5.78975e-07
-6.98301e-06
-2.07073e-05
5.43439e-07
-6.33838e-06
-1.9959e-05
5.19151e-07
-5.37834e-06
-1.90379e-05
5.01415e-07
-4.14517e-06
-1.79536e-05
4.87885e-07
-2.7012e-06
-1.66994e-05
4.83057e-07
-1.09928e-06
-1.52745e-05
4.85475e-07
6.18063e-07
-1.36876e-05
4.97212e-07
2.43466e-06
-1.19727e-05
5.04923e-07
4.30366e-06
-1.01351e-05
4.95048e-07
6.14331e-06
-8.18799e-06
4.54989e-07
7.82967e-06
-6.16992e-06
3.74458e-07
9.20499e-06
-4.149e-06
2.45124e-07
1.01746e-05
-2.16296e-06
6.96268e-08
1.07201e-05
-3.0117e-07
-1.70401e-07
1.06034e-05
1.30983e-06
-2.98861e-07
1.03978e-05
2.33295e-06
-4.17731e-07
1.00165e-05
3.31287e-06
-4.69716e-07
9.49519e-06
4.12618e-06
-4.34737e-07
8.83569e-06
4.87376e-06
-3.15014e-07
8.03481e-06
5.64876e-06
-1.23685e-07
7.10921e-06
6.5959e-06
1.27205e-07
6.08176e-06
7.94046e-06
4.48942e-07
4.9544e-06
9.73321e-06
8.43662e-07
3.71023e-06
1.12769e-05
1.19879e-06
2.3432e-06
1.17327e-05
1.35604e-06
1.01067e-06
1.09537e-05
1.20975e-06
5.99933e-06
5.99096e-07
-5.21319e-07
-5.72741e-06
2.4795e-07
-1.16007e-06
-1.37233e-05
3.45449e-07
-1.58053e-06
-1.84461e-05
3.9168e-07
-1.76853e-06
-2.08487e-05
4.48116e-07
-1.77317e-06
-2.19416e-05
4.72767e-07
-1.57357e-06
-2.24148e-05
4.84905e-07
-1.13266e-06
-2.25349e-05
4.68776e-07
-4.35716e-07
-2.23997e-05
4.42775e-07
4.74101e-07
-2.20294e-05
4.12332e-07
1.58e-06
-2.14427e-05
3.77834e-07
2.84796e-06
-2.06477e-05
3.41895e-07
4.24367e-06
-1.96576e-05
3.08269e-07
5.71102e-06
-1.84476e-05
2.80807e-07
7.20426e-06
-1.70317e-05
2.63978e-07
8.69221e-06
-1.54367e-05
2.61273e-07
1.01213e-05
-1.36663e-05
2.64634e-07
1.14611e-05
-1.17521e-05
2.77245e-07
1.2689e-05
-9.72382e-06
3.0806e-07
1.37809e-05
-7.62471e-06
3.62921e-07
1.46967e-05
-5.49337e-06
4.28752e-07
1.54351e-05
-3.39792e-06
4.96624e-07
1.56962e-05
-1.07715e-06
5.15061e-07
1.56293e-05
1.02015e-06
3.56686e-07
1.52552e-05
2.46169e-06
2.45408e-07
1.44733e-05
3.98489e-06
1.09967e-07
1.3397e-05
5.18667e-06
1.59067e-08
1.21367e-05
6.12702e-06
7.08913e-09
1.0761e-05
6.941e-06
8.34562e-08
9.30614e-06
7.81931e-06
2.31447e-07
7.80338e-06
8.98975e-06
4.5349e-07
6.24701e-06
1.05338e-05
7.55773e-07
4.62089e-06
1.18474e-05
1.0556e-06
2.88169e-06
1.22657e-05
1.20626e-06
1.22124e-06
1.15165e-05
1.09776e-06
6.65508e-06
5.65506e-07
3.53006e-07
-6.14627e-06
6.59255e-08
1.23501e-06
-1.4566e-05
-3.92745e-08
2.32219e-06
-1.9478e-05
-5.52587e-08
3.43039e-06
-2.19918e-05
3.49961e-08
4.49636e-06
-2.31621e-05
1.54531e-07
5.54243e-06
-2.36687e-05
2.07898e-07
6.5657e-06
-2.3793e-05
2.34916e-07
7.58657e-06
-2.36593e-05
2.38787e-07
8.5967e-06
-2.32644e-05
2.2494e-07
9.59191e-06
-2.26378e-05
1.99932e-07
1.05539e-05
-2.17766e-05
1.67027e-07
1.14337e-05
-2.06664e-05
1.29092e-07
1.22226e-05
-1.93234e-05
8.69735e-08
1.29187e-05
-1.77692e-05
4.16175e-08
1.3513e-05
-1.60311e-05
2.03012e-10
1.39926e-05
-1.41242e-05
-2.14656e-08
1.43638e-05
-1.21031e-05
-1.99034e-08
1.46643e-05
-1.00228e-05
-1.18781e-09
1.49209e-05
-7.90996e-06
2.9054e-08
1.5174e-05
-5.82044e-06
7.44746e-08
1.54336e-05
-3.77832e-06
1.2124e-07
1.55015e-05
-1.4002e-06
2.5553e-07
1.53447e-05
8.29744e-07
3.47649e-07
1.49831e-05
2.42805e-06
3.95706e-07
1.43304e-05
4.25437e-06
3.83751e-07
1.33583e-05
5.84437e-06
3.14869e-07
1.216e-05
7.08073e-06
2.45004e-07
1.07949e-05
8.0729e-06
2.33632e-07
9.30064e-06
9.01416e-06
2.99886e-07
7.71315e-06
1.01257e-05
4.52032e-07
6.06775e-06
1.14865e-05
6.93131e-07
4.3299e-06
1.26376e-05
9.48035e-07
2.50029e-06
1.30088e-05
1.08689e-06
8.16204e-07
1.2218e-05
9.83247e-07
7.00467e-06
4.66634e-07
8.31458e-07
-6.91315e-06
-6.42432e-08
2.42281e-06
-1.59532e-05
-2.03921e-07
4.03921e-06
-2.08588e-05
-2.35425e-07
5.42392e-06
-2.31946e-05
-1.8179e-07
6.5862e-06
-2.42339e-05
-9.03276e-08
7.57371e-06
-2.46482e-05
-7.90386e-09
8.41998e-06
-2.46906e-05
5.13436e-08
9.14369e-06
-2.44709e-05
8.79759e-08
9.74156e-06
-2.39702e-05
1.08076e-07
1.02235e-05
-2.32354e-05
1.15747e-07
1.05955e-05
-2.22626e-05
1.14195e-07
1.08513e-05
-2.10275e-05
1.05469e-07
1.10314e-05
-1.95934e-05
9.00583e-08
1.11477e-05
-1.79528e-05
6.75555e-08
1.12199e-05
-1.61385e-05
3.55994e-08
1.12867e-05
-1.41948e-05
4.09182e-09
1.13635e-05
-1.21551e-05
-2.44377e-08
1.143e-05
-1.00373e-05
-5.15718e-08
1.1502e-05
-7.90238e-06
-7.92514e-08
1.15804e-05
-5.80196e-06
-9.63913e-08
1.15675e-05
-3.67554e-06
-8.93569e-08
1.16871e-05
-1.4855e-06
-3.37446e-08
1.14611e-05
9.27272e-07
1.28908e-07
1.12142e-05
2.43324e-06
2.42218e-07
1.08107e-05
4.32491e-06
3.33354e-07
1.02442e-05
6.06537e-06
3.45894e-07
9.45979e-06
7.52403e-06
3.41527e-07
8.46495e-06
8.73345e-06
3.34636e-07
7.27869e-06
9.84142e-06
3.59356e-07
5.94186e-06
1.10249e-05
4.37917e-07
4.51578e-06
1.23165e-05
5.96375e-07
3.04025e-06
1.33283e-05
7.85097e-07
1.54786e-06
1.36075e-05
8.94154e-07
3.69513e-07
1.26019e-05
7.95011e-07
7.03259e-06
3.41607e-07
7.94056e-07
-7.62563e-06
-8.10946e-08
1.93804e-06
-1.69412e-05
-1.55663e-07
2.94688e-06
-2.1696e-05
-1.714e-07
3.73089e-06
-2.38229e-05
-1.55543e-07
4.34031e-06
-2.47257e-05
-1.17476e-07
4.82548e-06
-2.50602e-05
-7.30723e-08
5.21078e-06
-2.50426e-05
-3.31162e-08
5.49929e-06
-2.4757e-05
-2.3217e-09
5.70482e-06
-2.41922e-05
1.65675e-08
5.83387e-06
-2.33884e-05
2.41779e-08
5.89391e-06
-2.23437e-05
2.12343e-08
5.9545e-06
-2.10968e-05
8.8569e-09
6.0093e-06
-1.9638e-05
-9.96274e-09
6.08665e-06
-1.79967e-05
-3.3218e-08
6.19091e-06
-1.61845e-05
-5.80238e-08
6.32188e-06
-1.4236e-05
-8.94229e-08
6.45283e-06
-1.21589e-05
-1.26842e-07
6.56412e-06
-9.98283e-06
-1.65328e-07
6.63517e-06
-7.77225e-06
-2.00752e-07
6.66531e-06
-5.60479e-06
-2.26818e-07
6.62013e-06
-3.3989e-06
-2.30896e-07
6.55119e-06
-1.22035e-06
-1.95656e-07
6.6505e-06
9.23604e-07
-9.5134e-08
6.61123e-06
2.4764e-06
-3.36433e-09
6.49298e-06
4.32621e-06
1.17442e-07
6.21472e-06
6.11695e-06
2.27088e-07
5.77899e-06
7.69659e-06
2.63559e-07
5.1593e-06
9.06524e-06
2.88271e-07
4.34513e-06
1.03285e-05
3.27453e-07
3.35122e-06
1.1601e-05
4.18191e-07
2.27576e-06
1.28343e-05
5.57928e-07
1.24583e-06
1.36685e-05
6.89983e-07
3.24352e-07
1.37963e-05
7.33036e-07
-1.83116e-07
1.24936e-05
6.16253e-07
6.62948e-06
2.20013e-07
4.99783e-07
-8.01367e-06
-1.11176e-07
1.19872e-06
-1.74295e-05
-2.10385e-07
1.80351e-06
-2.20676e-05
-2.33003e-07
2.27686e-06
-2.40868e-05
-2.09274e-07
2.65788e-06
-2.49354e-05
-1.71172e-07
2.96244e-06
-2.52311e-05
-1.33501e-07
3.202e-06
-2.51805e-05
-1.01549e-07
3.37582e-06
-2.48523e-05
-7.83658e-08
3.5115e-06
-2.42645e-05
-6.32505e-08
3.61575e-06
-2.34375e-05
-5.50197e-08
3.71083e-06
-2.23856e-05
-5.30153e-08
3.78782e-06
-2.11185e-05
-5.51175e-08
3.85098e-06
-1.96364e-05
-6.4511e-08
3.89213e-06
-1.79606e-05
-7.69423e-08
3.90807e-06
-1.6107e-05
-9.31856e-08
3.89161e-06
-1.41064e-05
-1.12813e-07
3.83986e-06
-1.19672e-05
-1.3965e-07
3.75626e-06
-9.72775e-06
-1.71128e-07
3.6328e-06
-7.4444e-06
-2.03995e-07
3.45423e-06
-5.19234e-06
-2.33419e-07
3.27252e-06
-2.96997e-06
-2.46704e-07
3.13249e-06
-8.46882e-07
-2.32916e-07
3.19079e-06
1.04361e-06
-1.77838e-07
3.09939e-06
2.67023e-06
-1.01991e-07
2.99224e-06
4.43975e-06
-5.9457e-09
2.84694e-06
6.17766e-06
8.50165e-08
2.60321e-06
7.77336e-06
1.67332e-07
2.24007e-06
9.21375e-06
2.14959e-07
1.73335e-06
1.05666e-05
2.68893e-07
1.12543e-06
1.18654e-05
3.43865e-07
5.40253e-07
1.29749e-05
4.44936e-07
3.16996e-08
1.36198e-05
5.57498e-07
-3.84682e-07
1.35955e-05
6.17466e-07
-4.37841e-07
1.207e-05
4.77342e-07
6.07904e-06
1.12601e-07
3.98678e-07
-8.3032e-06
-1.08704e-07
1.05108e-06
-1.78859e-05
-1.95766e-07
1.67438e-06
-2.2457e-05
-2.33718e-07
2.17641e-06
-2.43534e-05
-2.35266e-07
2.56259e-06
-2.51076e-05
-2.1395e-07
2.86134e-06
-2.53427e-05
-1.87104e-07
3.08491e-06
-2.5243e-05
-1.61001e-07
3.24268e-06
-2.48725e-05
-1.37452e-07
3.35769e-06
-2.426e-05
-1.19413e-07
3.44273e-06
-2.34163e-05
-1.06134e-07
3.50172e-06
-2.23478e-05
-9.66269e-08
3.51403e-06
-2.10388e-05
-9.18491e-08
3.47941e-06
-1.9512e-05
-8.95778e-08
3.39271e-06
-1.77827e-05
-9.10555e-08
3.25978e-06
-1.58775e-05
-9.63318e-08
3.08018e-06
-1.38213e-05
-1.05374e-07
2.87208e-06
-1.16402e-05
-1.18618e-07
2.64705e-06
-9.36543e-06
-1.37074e-07
2.41062e-06
-7.04704e-06
-1.60684e-07
2.16426e-06
-4.75921e-06
-1.86509e-07
1.96434e-06
-2.56332e-06
-2.06466e-07
1.83554e-06
-5.09863e-07
-2.07955e-07
1.81057e-06
1.25224e-06
-1.83426e-07
1.68336e-06
2.93119e-06
-1.33531e-07
1.55984e-06
4.61914e-06
-5.56906e-08
1.4176e-06
6.29478e-06
2.52702e-08
1.22391e-06
7.88209e-06
8.50939e-08
9.41851e-07
9.35028e-06
1.45642e-07
5.88508e-07
1.07157e-05
2.04406e-07
2.17942e-07
1.19575e-05
2.7856e-07
-1.14517e-07
1.2937e-05
3.70454e-07
-3.83699e-07
1.34338e-05
4.55233e-07
-5.16593e-07
1.32556e-05
4.72847e-07
-3.15139e-07
1.15306e-05
3.38004e-07
5.71069e-06
5.32072e-08
4.01902e-07
-8.62406e-06
-8.07379e-08
8.97678e-07
-1.82604e-05
-1.21157e-07
1.32965e-06
-2.27336e-05
-1.5524e-07
1.67961e-06
-2.45242e-05
-1.79111e-07
1.95984e-06
-2.52025e-05
-1.85204e-07
2.18607e-06
-2.53907e-05
-1.78135e-07
2.37298e-06
-2.52634e-05
-1.66373e-07
2.5206e-06
-2.4868e-05
-1.52049e-07
2.62983e-06
-2.42309e-05
-1.38249e-07
2.68162e-06
-2.33438e-05
-1.24223e-07
2.65029e-06
-2.22045e-05
-1.11883e-07
2.53882e-06
-2.08253e-05
-1.01889e-07
2.35636e-06
-1.92347e-05
-9.48385e-08
2.12866e-06
-1.74636e-05
-9.13389e-08
1.88165e-06
-1.55385e-05
-9.18966e-08
1.63026e-06
-1.34723e-05
-9.74565e-08
1.3748e-06
-1.12759e-05
-1.08765e-07
1.11241e-06
-8.97754e-06
-1.25352e-07
8.51273e-07
-6.6398e-06
-1.4596e-07
6.17064e-07
-4.35616e-06
-1.68669e-07
4.44135e-07
-2.20504e-06
-1.85168e-07
3.85422e-07
-2.6179e-07
-1.89182e-07
3.07181e-07
1.50394e-06
-1.73298e-07
2.03669e-07
3.17066e-06
-1.35812e-07
1.06876e-07
4.79531e-06
-7.92413e-08
1.96827e-08
6.39704e-06
-1.49483e-08
-8.98517e-08
7.951e-06
4.07447e-08
-2.40271e-07
9.41716e-06
8.36597e-08
-4.18741e-07
1.07595e-05
1.34734e-07
-5.78049e-07
1.19195e-05
1.97374e-07
-6.76544e-07
1.27625e-05
2.73036e-07
-6.97538e-07
1.31228e-05
3.32139e-07
-6.26476e-07
1.28464e-05
3.38169e-07
-3.23318e-07
1.10087e-05
2.18865e-07
5.37835e-06
9.01645e-09
1.98634e-07
-8.77099e-06
-5.15857e-08
3.85631e-07
-1.83612e-05
-8.61382e-08
5.34063e-07
-2.27623e-05
-1.19698e-07
6.81352e-07
-2.45257e-05
-1.45792e-07
8.29188e-07
-2.51932e-05
-1.57096e-07
9.54403e-07
-2.53586e-05
-1.57327e-07
1.04108e-06
-2.52002e-05
-1.4984e-07
1.07144e-06
-2.47591e-05
-1.39256e-07
1.02426e-06
-2.40575e-05
-1.26209e-07
8.89928e-07
-2.30962e-05
-1.13277e-07
6.79683e-07
-2.18934e-05
-1.00825e-07
4.23336e-07
-2.04796e-05
-8.93953e-08
1.54436e-07
-1.8886e-05
-7.97379e-08
-9.96416e-08
-1.71367e-05
-7.27231e-08
-3.24574e-07
-1.52442e-05
-6.93978e-08
-5.14005e-07
-1.32116e-05
-7.12691e-08
-6.64005e-07
-1.10459e-05
-7.99421e-08
-7.83886e-07
-8.7604e-06
-9.72604e-08
-8.79794e-07
-6.42114e-06
-1.22749e-07
-9.64908e-07
-4.12423e-06
-1.46837e-07
-1.00783e-06
-1.99335e-06
-1.68795e-07
-9.29939e-07
-1.62995e-07
-1.76733e-07
-8.81809e-07
1.6213e-06
-1.65541e-07
-8.37919e-07
3.2649e-06
-1.38193e-07
-7.89242e-07
4.84387e-06
-9.73095e-08
-7.42152e-07
6.39693e-06
-4.70632e-08
-7.1018e-07
7.91167e-06
7.27477e-09
-7.13851e-07
9.35489e-06
6.58741e-08
-7.45816e-07
1.06737e-05
1.17747e-07
-7.73058e-07
1.17768e-05
1.6985e-07
-7.4542e-07
1.25181e-05
2.16703e-07
-6.71686e-07
1.2797e-05
2.52008e-07
-5.25263e-07
1.24553e-05
2.44588e-07
-2.34498e-07
1.05752e-05
1.42503e-07
5.14969e-06
-5.84238e-09
-1.25888e-08
-8.74155e-06
-1.6874e-08
-1.80458e-08
-1.83193e-05
-3.6376e-08
-2.68117e-08
-2.26873e-05
-6.62414e-08
-4.56941e-08
-2.4413e-05
-9.3752e-08
-7.5551e-08
-2.50535e-05
-1.09872e-07
-1.31933e-07
-2.5186e-05
-1.16127e-07
-2.33992e-07
-2.49829e-05
-1.15319e-07
-3.85855e-07
-2.44976e-05
-1.09655e-07
-5.87118e-07
-2.37556e-05
-1.00572e-07
-8.16842e-07
-2.27779e-05
-8.85377e-08
-1.0492e-06
-2.15868e-05
-7.42546e-08
-1.26442e-06
-2.02059e-05
-5.84512e-08
-1.45215e-06
-1.86563e-05
-4.19776e-08
-1.60992e-06
-1.69531e-05
-2.58553e-08
-1.73468e-06
-1.5108e-05
-1.13744e-08
-1.82909e-06
-1.31169e-05
-2.8921e-10
-1.91679e-06
-1.09644e-05
6.1512e-09
-1.97374e-06
-8.70326e-06
-2.23367e-10
-1.9717e-06
-6.4019e-06
-2.13422e-08
-1.90396e-06
-4.13456e-06
-5.7487e-08
-1.78801e-06
-2.01438e-06
-9.50168e-08
-1.60386e-06
-2.30195e-07
-1.17052e-07
-1.42205e-06
1.56538e-06
-1.25984e-07
-1.25779e-06
3.21506e-06
-1.14512e-07
-1.10616e-06
4.77883e-06
-8.66829e-08
-9.72031e-07
6.30959e-06
-4.68626e-08
-8.65669e-07
7.80564e-06
-4.07959e-10
-7.82968e-07
9.22514e-06
4.69621e-08
-7.17628e-07
1.05144e-05
9.37924e-08
-6.47993e-07
1.15692e-05
1.37856e-07
-5.67421e-07
1.22621e-05
1.75388e-07
-4.72128e-07
1.25032e-05
1.98378e-07
-3.33241e-07
1.21324e-05
1.83967e-07
-1.21091e-07
1.02629e-05
1.00015e-07
5.02966e-06
-1.06691e-09
-1.03231e-07
-8.6475e-06
9.08318e-09
-2.55805e-07
-1.81568e-05
-1.0045e-08
-4.28179e-07
-2.24742e-05
-4.0729e-08
-6.14062e-07
-2.41616e-05
-6.5562e-08
-8.04939e-07
-2.47808e-05
-8.1841e-08
-9.9713e-07
-2.49035e-05
-9.03882e-08
-1.18399e-06
-2.47033e-05
-9.27438e-08
-1.35858e-06
-2.42332e-05
-8.9833e-08
-1.51219e-06
-2.35197e-05
-8.23586e-08
-1.63961e-06
-2.25796e-05
-7.09273e-08
-1.7417e-06
-2.14285e-05
-5.62344e-08
-1.82529e-06
-2.00833e-05
-3.90403e-08
-1.89939e-06
-1.8562e-05
-2.01804e-08
-1.97285e-06
-1.6879e-05
-6.44248e-10
-2.05474e-06
-1.50441e-05
1.7958e-08
-2.14019e-06
-1.30673e-05
3.58509e-08
-2.19766e-06
-1.09523e-05
4.52696e-08
-2.1553e-06
-8.79131e-06
4.56044e-08
-1.99684e-06
-6.59671e-06
3.62495e-08
-1.73877e-06
-4.40893e-06
1.61839e-08
-1.43423e-06
-2.30848e-06
-1.05744e-08
-1.2175e-06
-4.10612e-07
-3.64534e-08
-1.01728e-06
1.42213e-06
-5.71162e-08
-8.45168e-07
3.10574e-06
-6.29166e-08
-6.92878e-07
4.67888e-06
-5.24678e-08
-5.51754e-07
6.19748e-06
-2.91373e-08
-4.26601e-07
7.67751e-06
2.85598e-09
-3.30027e-07
9.08851e-06
3.9957e-08
-2.57348e-07
1.03623e-05
7.93841e-08
-1.97154e-07
1.1391e-05
1.17948e-07
-1.44064e-07
1.20579e-05
1.51053e-07
-9.76867e-08
1.2286e-05
1.70751e-07
-4.47373e-08
1.19225e-05
1.56759e-07
1.0933e-08
1.01166e-05
9.04412e-08
5.02335e-06
1.72466e-08
-1.33847e-07
-8.52778e-06
1.40057e-08
-2.95865e-07
-1.7978e-05
-1.68514e-08
-4.44455e-07
-2.22772e-05
-4.85454e-08
-5.7745e-07
-2.3962e-05
-6.66429e-08
-7.02826e-07
-2.45783e-05
-7.72368e-08
-8.12296e-07
-2.47113e-05
-8.27169e-08
-8.99907e-07
-2.45309e-05
-8.48043e-08
-9.65491e-07
-2.40845e-05
-8.31059e-08
-1.01283e-06
-2.33948e-05
-7.75952e-08
-1.04985e-06
-2.24741e-05
-6.84495e-08
-1.08744e-06
-2.13351e-05
-5.58324e-08
-1.13514e-06
-1.99957e-05
-3.98876e-08
-1.19687e-06
-1.84795e-05
-2.08469e-08
-1.26614e-06
-1.68106e-05
8.17693e-10
-1.32855e-06
-1.50055e-05
2.37087e-08
-1.33381e-06
-1.31121e-05
4.99481e-08
-1.21474e-06
-1.11529e-05
8.15299e-08
-9.99977e-07
-9.11996e-06
1.13816e-07
-7.173e-07
-7.01483e-06
1.35347e-07
-3.9527e-07
-4.86963e-06
1.38555e-07
-7.88763e-08
-2.74584e-06
1.20833e-07
8.87065e-08
-6.657e-07
8.73507e-08
2.21788e-07
1.24082e-06
4.80703e-08
3.22597e-07
2.98695e-06
1.78421e-08
3.84458e-07
4.61234e-06
4.54239e-09
4.27533e-07
6.14703e-06
7.24667e-09
4.63185e-07
7.61973e-06
2.20088e-08
4.87987e-07
9.0189e-06
4.46884e-08
4.9487e-07
1.02837e-05
7.16122e-08
4.80033e-07
1.13058e-05
9.99895e-08
4.37816e-07
1.19711e-05
1.28909e-07
3.61975e-07
1.22098e-05
1.51971e-07
2.6397e-07
1.18733e-05
1.47085e-07
1.40919e-07
1.01391e-05
1.00355e-07
5.12746e-06
3.68005e-08
-4.27497e-08
-8.49372e-06
8.58648e-09
-6.12811e-08
-1.79312e-05
-2.83383e-08
-3.94491e-08
-2.22365e-05
-6.25368e-08
-6.05241e-09
-2.3915e-05
-8.04482e-08
2.73487e-08
-2.45236e-05
-8.80641e-08
6.29639e-08
-2.46544e-05
-9.25464e-08
9.24293e-08
-2.44664e-05
-9.39472e-08
1.10639e-07
-2.401e-05
-9.2707e-08
1.14193e-07
-2.33096e-05
-8.8706e-08
1.00788e-07
-2.23789e-05
-8.18024e-08
7.03824e-08
-2.1233e-05
-7.17082e-08
2.66563e-08
-1.9894e-05
-5.80192e-08
-2.17904e-08
-1.83909e-05
-4.0156e-08
-6.01806e-08
-1.67547e-05
-1.75827e-08
-6.64765e-08
-1.50099e-05
1.07022e-08
-2.06875e-08
-1.31951e-05
3.71487e-08
9.51968e-08
-1.13374e-05
6.85177e-08
2.55046e-07
-9.38478e-06
1.04927e-07
4.34582e-07
-7.33329e-06
1.38877e-07
6.20632e-07
-5.22173e-06
1.65985e-07
7.96394e-07
-3.10001e-06
1.78335e-07
9.25487e-07
-9.63837e-07
1.68962e-07
9.94327e-07
1.03117e-06
1.4073e-07
1.06773e-06
2.80877e-06
1.04694e-07
1.09251e-06
4.51424e-06
7.32429e-08
1.08323e-06
6.10125e-06
5.49817e-08
1.05782e-06
7.59476e-06
5.03253e-08
1.02074e-06
8.99873e-06
5.71747e-08
9.63411e-07
1.02659e-05
7.50872e-08
8.80451e-07
1.12911e-05
9.75855e-08
7.62207e-07
1.19673e-05
1.21968e-07
6.02664e-07
1.22256e-05
1.43636e-07
4.05961e-07
1.19249e-05
1.45004e-07
1.90541e-07
1.02466e-05
1.07844e-07
5.26465e-06
5.33514e-08
1.81129e-08
-8.51285e-06
9.29231e-10
6.43196e-08
-1.79339e-05
-4.35065e-08
1.37434e-07
-2.22265e-05
-8.31243e-08
2.2739e-07
-2.39032e-05
-1.01782e-07
3.1919e-07
-2.45052e-05
-1.10263e-07
4.01418e-07
-2.46225e-05
-1.14169e-07
4.66995e-07
-2.44175e-05
-1.14535e-07
5.11375e-07
-2.39421e-05
-1.12354e-07
5.34079e-07
-2.32247e-05
-1.07604e-07
5.37385e-07
-2.22821e-05
-1.00197e-07
5.25579e-07
-2.11312e-05
-8.99957e-08
5.03885e-07
-1.97955e-05
-7.68575e-08
4.78556e-07
-1.83051e-05
-6.05377e-08
4.57114e-07
-1.66927e-05
-4.05794e-08
4.47604e-07
-1.49838e-05
-1.66173e-08
4.32763e-07
-1.31922e-05
1.19876e-08
4.17054e-07
-1.1358e-05
3.62841e-08
4.59067e-07
-9.48748e-06
6.06738e-08
5.52986e-07
-7.52089e-06
9.36576e-08
6.83239e-07
-5.48161e-06
1.29597e-07
8.19971e-07
-3.3985e-06
1.61707e-07
9.71569e-07
-1.29673e-06
1.81231e-07
1.06544e-06
7.56514e-07
1.80725e-07
1.16444e-06
2.54662e-06
1.63084e-07
1.21715e-06
4.32652e-06
1.34953e-07
1.22197e-06
5.98776e-06
1.08603e-07
1.19068e-06
7.53471e-06
9.12709e-08
1.13464e-06
8.97045e-06
8.42472e-08
1.05954e-06
1.02536e-05
8.72802e-08
9.61485e-07
1.12938e-05
9.52575e-08
8.27052e-07
1.19908e-05
1.10906e-07
6.42427e-07
1.22772e-05
1.33038e-07
4.0939e-07
1.20161e-05
1.41736e-07
1.53898e-07
1.03876e-05
1.14336e-07
5.36091e-06
5.76345e-08
2.52492e-08
-8.53897e-06
8.14324e-10
1.28996e-07
-1.79922e-05
-4.54876e-08
2.47164e-07
-2.22557e-05
-8.90567e-08
3.46311e-07
-2.38886e-05
-1.13785e-07
4.28948e-07
-2.44641e-05
-1.23738e-07
4.946e-07
-2.45612e-05
-1.26917e-07
5.47116e-07
-2.43435e-05
-1.26457e-07
5.8616e-07
-2.38577e-05
-1.23446e-07
6.1213e-07
-2.31326e-05
-1.18118e-07
6.25666e-07
-2.21851e-05
-1.10522e-07
6.26886e-07
-2.10317e-05
-1.00717e-07
6.14535e-07
-1.96943e-05
-8.88198e-08
5.86323e-07
-1.8202e-05
-7.48612e-08
5.43484e-07
-1.65912e-05
-5.85574e-08
4.97226e-07
-1.48987e-05
-3.88122e-08
4.67656e-07
-1.31487e-05
-1.39633e-08
4.46247e-07
-1.13506e-05
1.40196e-08
4.35982e-07
-9.51709e-06
3.9894e-08
4.89097e-07
-7.64424e-06
7.02517e-08
5.94716e-07
-5.69004e-06
1.02825e-07
7.33513e-07
-3.67367e-06
1.3638e-07
8.97369e-07
-1.62654e-06
1.65961e-07
1.04907e-06
4.20806e-07
1.84011e-07
1.17315e-06
2.23691e-06
1.85615e-07
1.25334e-06
4.07405e-06
1.72257e-07
1.28115e-06
5.80884e-06
1.51092e-07
1.26099e-06
7.42404e-06
1.308e-07
1.2034e-06
8.91168e-06
1.1634e-07
1.11511e-06
1.02348e-05
1.07027e-07
9.87953e-07
1.13142e-05
1.06789e-07
8.19465e-07
1.20446e-05
1.1466e-07
6.09205e-07
1.23591e-05
1.28348e-07
3.65062e-07
1.21222e-05
1.37978e-07
1.25492e-07
1.05116e-05
1.15544e-07
5.42806e-06
5.83384e-08
5.02826e-08
-8.58289e-06
-6.37507e-09
1.89172e-07
-1.80716e-05
-5.94904e-08
3.45542e-07
-2.23079e-05
-1.04142e-07
4.68683e-07
-2.38852e-05
-1.26539e-07
5.71204e-07
-2.44305e-05
-1.3608e-07
6.57362e-07
-2.4508e-05
-1.39354e-07
7.26397e-07
-2.42735e-05
-1.39078e-07
7.76683e-07
-2.37716e-05
-1.36291e-07
8.07216e-07
-2.30319e-05
-1.31229e-07
8.16657e-07
-2.20705e-05
-1.23927e-07
8.03749e-07
-2.09044e-05
-1.14371e-07
7.68271e-07
-1.95562e-05
-1.02573e-07
7.11132e-07
-1.80562e-05
-8.85699e-08
6.34674e-07
-1.64423e-05
-7.24799e-08
5.46747e-07
-1.47563e-05
-5.44529e-08
4.67324e-07
-1.3035e-05
-3.42125e-08
4.18309e-07
-1.12913e-05
-1.0225e-08
3.95739e-07
-9.5132e-06
1.87167e-08
4.23684e-07
-7.71747e-06
4.5312e-08
5.02466e-07
-5.84601e-06
7.72139e-08
6.30893e-07
-3.91274e-06
1.10673e-07
7.92437e-07
-1.93137e-06
1.4331e-07
9.61038e-07
8.20766e-08
1.7014e-07