/*--------------------------------*- C++ -*----------------------------------*\
| =========                 |                                                 |
| \\      /  F ield         | OpenFOAM: The Open Source CFD Toolbox           |
|  \\    /   O peration     | Version:  v2012                                 |
|   \\  /    A nd           | Website:  www.openfoam.com                      |
|    \\/     M anipulation  |                                                 |
\*---------------------------------------------------------------------------*/
FoamFile
{
    version     2.0;
    format      ascii;
    class       volScalarField;
    location    "900";
    object      T;
}
// * * * * * * * * * * * * * * * * * * * * * * * * * * * * * * * * * * * * * //

dimensions      [0 0 0 1 0 0 0];


internalField   nonuniform List<scalar> 
78750
(
282.792
284.059
284.471
284.569
284.727
284.94
285.165
285.381
285.566
285.713
285.842
285.956
286.057
286.146
286.227
286.298
286.362
286.419
286.471
286.517
286.558
286.595
286.628
286.658
286.683
286.706
286.719
286.73
286.743
286.758
286.773
286.789
286.801
286.935
287.93
281.109
282.151
282.638
283.158
283.752
284.331
284.843
285.266
285.613
285.917
286.184
286.421
286.632
286.819
286.983
287.127
287.249
287.389
287.496
287.578
287.644
287.695
287.732
287.759
287.773
287.773
287.766
287.733
287.683
287.61
287.503
287.353
287.197
287.249
288.057
279.428
281.303
282.77
284.064
285.067
285.792
286.279
286.643
286.932
287.168
287.369
287.544
287.692
287.816
287.914
288.003
288.051
288.039
288.028
288.019
288.019
288.019
288.022
288.028
288.035
288.042
288.042
288.025
287.987
287.921
287.817
287.656
287.524
287.631
288.46
281.453
283.441
284.976
285.911
286.449
286.813
287.099
287.313
287.489
287.654
287.819
287.995
288.144
288.242
288.271
288.21
288.099
287.986
287.88
287.805
287.779
287.781
287.797
287.838
287.9
287.964
288.017
288.049
288.047
287.999
287.906
287.796
287.788
288.042
288.996
282.173
284.007
285.269
286.047
286.538
286.887
287.174
287.447
287.723
287.996
288.242
288.4
288.491
288.494
288.364
288.145
287.937
287.776
287.67
287.608
287.58
287.581
287.623
287.706
287.815
287.921
288.005
288.053
288.065
288.035
287.968
287.94
288.053
288.443
289.66
282.373
284.223
285.512
286.274
286.729
287.059
287.345
287.613
287.862
288.087
288.275
288.419
288.511
288.53
288.48
288.351
288.182
288.018
287.873
287.752
287.664
287.62
287.621
287.666
287.746
287.847
287.95
288.034
288.076
288.079
288.072
288.133
288.334
288.815
290.214
282.38
284.232
285.52
286.278
286.73
287.06
287.349
287.615
287.857
288.068
288.249
288.4
288.519
288.613
288.683
288.731
288.725
288.63
288.476
288.296
288.122
287.978
287.875
287.823
287.825
287.87
287.939
288.012
288.079
288.128
288.188
288.333
288.598
289.153
290.642
282.224
284.09
285.402
286.191
286.66
286.992
287.27
287.516
287.735
287.933
288.112
288.276
288.423
288.553
288.663
288.75
288.814
288.845
288.834
288.765
288.636
288.46
288.284
288.137
288.039
287.998
287.999
288.033
288.088
288.162
288.281
288.494
288.817
289.438
290.969
281.961
283.796
285.12
285.978
286.512
286.884
287.179
287.433
287.659
287.866
288.055
288.227
288.384
288.524
288.648
288.757
288.849
288.924
288.976
288.999
288.993
288.938
288.821
288.67
288.511
288.369
288.27
288.219
288.212
288.242
288.36
288.602
288.966
289.639
291.189
281.954
283.78
285.099
285.964
286.51
286.888
287.187
287.444
287.676
287.891
288.093
288.283
288.463
288.628
288.774
288.898
288.997
289.068
289.113
289.13
289.128
289.107
289.047
288.954
288.827
288.679
288.542
288.439
288.378
288.378
288.465
288.716
289.112
289.841
291.416
282.202
284.015
285.321
286.175
286.715
287.092
287.392
287.654
287.895
288.123
288.342
288.553
288.75
288.929
289.084
289.211
289.307
289.37
289.394
289.392
289.373
289.328
289.251
289.152
289.032
288.892
288.754
288.635
288.551
288.531
288.601
288.851
289.27
290.041
291.646
282.578
284.399
285.699
286.517
287.026
287.386
287.678
287.937
288.178
288.408
288.625
288.827
289.01
289.171
289.306
289.412
289.489
289.536
289.554
289.547
289.515
289.459
289.382
289.287
289.167
289.03
288.894
288.775
288.691
288.674
288.761
289.024
289.467
290.291
291.932
282.714
284.526
285.808
286.61
287.115
287.478
287.773
288.033
288.27
288.492
288.699
288.89
289.064
289.218
289.347
289.45
289.524
289.567
289.581
289.569
289.531
289.473
289.401
289.314
289.207
289.083
288.961
288.86
288.8
288.814
288.95
289.237
289.709
290.593
292.276
282.861
284.663
285.922
286.695
287.18
287.533
287.825
288.086
288.327
288.553
288.766
288.966
289.149
289.31
289.444
289.547
289.614
289.644
289.64
289.609
289.555
289.487
289.411
289.326
289.228
289.12
289.017
288.937
288.907
288.958
289.133
289.443
289.944
290.885
292.597
283.081
284.889
286.149
286.906
287.375
287.719
288.008
288.268
288.51
288.739
288.955
289.156
289.337
289.493
289.619
289.711
289.764
289.778
289.754
289.698
289.621
289.534
289.445
289.353
289.256
289.16
289.075
289.021
289.025
289.117
289.326
289.657
290.187
291.184
292.921
283.177
284.987
286.246
287.008
287.486
287.838
288.132
288.393
288.634
288.861
289.073
289.268
289.44
289.586
289.704
289.789
289.836
289.844
289.811
289.747
289.662
289.569
289.476
289.384
289.294
289.21
289.145
289.117
289.152
289.278
289.512
289.863
290.425
291.469
293.227
283.28
285.086
286.331
287.078
287.548
287.896
288.189
288.453
288.697
288.925
289.136
289.326
289.495
289.639
289.755
289.84
289.887
289.893
289.859
289.789
289.699
289.602
289.508
289.419
289.337
289.267
289.22
289.216
289.278
289.43
289.687
290.058
290.648
291.73
293.505
283.366
285.178
286.428
287.172
287.638
287.984
288.279
288.543
288.787
289.013
289.22
289.408
289.575
289.718
289.834
289.919
289.967
289.974
289.94
289.868
289.771
289.665
289.562
289.469
289.392
289.332
289.302
289.317
289.402
289.576
289.851
290.241
290.854
291.963
293.751
283.392
285.206
286.46
287.213
287.688
288.04
288.337
288.6
288.841
289.064
289.27
289.458
289.626
289.773
289.895
289.987
290.046
290.068
290.05
289.992
289.898
289.783
289.663
289.556
289.47
289.41
289.387
289.415
289.516
289.706
289.997
290.403
291.035
292.163
293.961
283.446
285.255
286.505
287.253
287.725
288.077
288.374
288.639
288.881
289.106
289.314
289.505
289.675
289.823
289.947
290.044
290.112
290.148
290.149
290.11
290.031
289.919
289.791
289.67
289.569
289.503
289.48
289.515
289.626
289.83
290.135
290.555
291.201
292.342
294.147
283.538
285.347
286.598
287.348
287.819
288.17
288.467
288.733
288.978
289.204
289.413
289.602
289.77
289.916
290.037
290.132
290.2
290.239
290.245
290.216
290.149
290.048
289.924
289.798
289.688
289.611
289.584
289.62
289.739
289.955
290.273
290.708
291.366
292.515
294.327
283.606
285.414
286.667
287.422
287.899
288.255
288.556
288.824
289.07
289.297
289.505
289.693
289.861
290.006
290.126
290.222
290.29
290.33
290.339
290.316
290.257
290.165
290.049
289.926
289.813
289.731
289.699
289.734
289.857
290.082
290.414
290.863
291.535
292.694
294.511
283.682
285.489
286.735
287.48
287.954
288.312
288.615
288.885
289.132
289.36
289.569
289.759
289.928
290.074
290.196
290.293
290.364
290.408
290.423
290.407
290.357
290.275
290.168
290.05
289.939
289.854
289.819
289.852
289.978
290.211
290.555
291.017
291.7
292.867
294.689
283.766
285.575
286.821
287.563
288.033
288.389
288.692
288.963
289.212
289.442
289.653
289.843
290.012
290.157
290.277
290.373
290.443
290.487
290.505
290.494
290.452
290.378
290.279
290.168
290.06
289.977
289.942
289.978
290.109
290.35
290.707
291.182
291.874
293.05
294.877
283.839
285.647
286.893
287.637
288.11
288.469
288.774
289.048
289.3
289.53
289.741
289.93
290.096
290.239
290.357
290.451
290.521
290.566
290.587
290.581
290.545
290.48
290.39
290.285
290.182
290.102
290.07
290.108
290.245
290.496
290.865
291.352
292.054
293.237
295.068
283.905
285.711
286.953
287.694
288.166
288.526
288.835
289.112
289.365
289.597
289.807
289.996
290.162
290.304
290.422
290.517
290.588
290.636
290.661
290.662
290.637
290.582
290.502
290.405
290.307
290.23
290.199
290.238
290.379
290.638
291.019
291.516
292.226
293.416
295.251
283.983
285.788
287.026
287.762
288.233
288.594
288.904
289.182
289.437
289.67
289.882
290.072
290.238
290.38
290.497
290.591
290.661
290.709
290.736
290.742
290.724
290.68
290.611
290.524
290.434
290.36
290.329
290.368
290.511
290.777
291.168
291.675
292.393
293.589
295.427
284.068
285.875
287.114
287.847
288.317
288.682
288.995
289.277
289.536
289.773
289.989
290.182
290.348
290.489
290.603
290.691
290.756
290.8
290.824
290.828
290.812
290.774
290.712
290.635
290.554
290.486
290.458
290.497
290.642
290.913
291.314
291.832
292.557
293.757
295.599
284.162
285.97
287.206
287.936
288.407
288.773
289.09
289.377
289.641
289.883
290.103
290.296
290.462
290.6
290.709
290.795
290.856
290.896
290.916
290.918
290.901
290.864
290.808
290.738
290.666
290.606
290.584
290.63
290.779
291.058
291.469
291.996
292.73
293.939
295.784
284.219
286.029
287.264
287.992
288.464
288.832
289.154
289.444
289.707
289.943
290.152
290.338
290.502
290.645
290.766
290.859
290.928
290.973
290.998
291.003
290.99
290.958
290.907
290.843
290.777
290.726
290.713
290.768
290.925
291.212
291.634
292.169
292.91
294.126
295.973
284.238
286.054
287.288
288.011
288.482
288.851
289.17
289.456
289.714
289.947
290.155
290.34
290.503
290.647
290.771
290.874
290.956
291.016
291.055
291.073
291.072
291.052
291.012
290.957
290.898
290.852
290.844
290.905
291.069
291.364
291.793
292.335
293.082
294.303
296.153
284.249
286.06
287.29
288.014
288.484
288.852
289.171
289.457
289.715
289.947
290.155
290.34
290.504
290.648
290.773
290.88
290.968
291.039
291.091
291.124
291.139
291.135
291.112
291.072
291.023
290.984
290.98
291.042
291.209
291.508
291.944
292.493
293.242
294.464
296.316
284.264
286.073
287.304
288.029
288.5
288.869
289.189
289.476
289.735
289.969
290.178
290.364
290.529
290.672
290.796
290.902
290.991
291.065
291.123
291.166
291.193
291.203
291.197
291.175
291.142
291.113
291.114
291.177
291.346
291.648
292.091
292.646
293.399
294.62
296.474
284.335
286.142
287.373
288.099
288.571
288.942
289.263
289.552
289.813
290.049
290.26
290.446
290.607
290.746
290.864
290.963
291.046
291.114
291.17
291.213
291.245
291.264
291.27
291.263
291.247
291.232
291.24
291.307
291.474
291.777
292.224
292.786
293.543
294.762
296.617
284.404
286.213
287.448
288.177
288.654
289.031
289.357
289.649
289.914
290.154
290.368
290.555
290.717
290.854
290.967
291.061
291.136
291.197
291.246
291.284
291.312
291.332
291.342
291.344
291.34
291.339
291.359
291.434
291.605
291.911
292.363
292.933
293.694
294.913
296.768
284.47
286.28
287.51
288.237
288.715
289.094
289.424
289.722
289.992
290.236
290.453
290.643
290.808
290.947
291.063
291.157
291.231
291.289
291.334
291.368
291.394
291.412
291.423
291.428
291.432
291.442
291.475
291.561
291.741
292.052
292.511
293.09
293.857
295.075
296.931
284.543
286.353
287.58
288.301
288.776
289.156
289.488
289.787
290.058
290.301
290.517
290.707
290.872
291.013
291.131
291.229
291.306
291.367
291.414
291.449
291.476
291.495
291.508
291.517
291.526
291.543
291.587
291.684
291.873
292.192
292.66
293.246
294.018
295.239
297.095
284.586
286.4
287.628
288.348
288.826
289.208
289.543
289.842
290.112
290.353
290.568
290.757
290.922
291.064
291.185
291.286
291.368
291.433
291.483
291.522
291.552
291.575
291.593
291.607
291.622
291.648
291.7
291.807
292.005
292.333
292.809
293.402
294.178
295.401
297.258
284.614
286.43
287.656
288.376
288.855
289.24
289.575
289.876
290.145
290.387
290.601
290.79
290.956
291.101
291.226
291.331
291.418
291.488
291.544
291.588
291.623
291.65
291.673
291.694
291.717
291.75
291.812
291.929
292.137
292.474
292.959
293.558
294.338
295.562
297.419
284.637
286.452
287.676
288.395
288.874
289.259
289.596
289.896
290.166
290.407
290.62
290.809
290.976
291.123
291.252
291.363
291.456
291.534
291.596
291.647
291.687
291.721
291.75
291.778
291.808
291.851
291.922
292.048
292.265
292.613
293.106
293.712
294.495
295.72
297.579
284.655
286.47
287.692
288.411
288.891
289.278
289.615
289.915
290.185
290.424
290.636
290.824
290.99
291.137
291.267
291.382
291.481
291.565
291.635
291.693
291.741
291.782
291.819
291.855
291.894
291.945
292.025
292.159
292.386
292.741
293.24
293.852
294.638
295.864
297.723
284.683
286.497
287.72
288.439
288.921
289.309
289.648
289.95
290.22
290.46
290.672
290.857
291.02
291.164
291.292
291.405
291.505
291.592
291.667
291.732
291.787
291.835
291.88
291.924
291.972
292.033
292.123
292.266
292.5
292.862
293.369
293.987
294.776
296
297.861
284.725
286.539
287.763
288.483
288.967
289.357
289.699
290.005
290.278
290.519
290.731
290.915
291.075
291.215
291.337
291.446
291.542
291.627
291.702
291.769
291.828
291.882
291.934
291.986
292.043
292.114
292.214
292.368
292.61
292.981
293.496
294.12
294.911
296.135
297.996
284.77
286.586
287.812
288.533
289.019
289.414
289.76
290.069
290.345
290.589
290.802
290.987
291.146
291.283
291.402
291.506
291.598
291.678
291.75
291.815
291.875
291.932
291.988
292.046
292.111
292.191
292.301
292.465
292.718
293.098
293.621
294.252
295.046
296.27
298.131
284.813
286.63
287.854
288.576
289.065
289.463
289.813
290.126
290.405
290.651
290.866
291.051
291.211
291.349
291.468
291.571
291.66
291.738
291.807
291.87
291.929
291.987
292.045
292.107
292.178
292.265
292.385
292.56
292.823
293.213
293.744
294.381
295.179
296.404
298.265
284.856
286.673
287.895
288.616
289.106
289.507
289.86
290.176
290.458
290.705
290.921
291.107
291.268
291.407
291.527
291.63
291.72
291.797
291.866
291.928
291.986
292.045
292.105
292.17
292.245
292.34
292.468
292.653
292.927
293.326
293.865
294.508
295.309
296.535
298.397
284.895
286.713
287.934
288.654
289.146
289.55
289.906
290.225
290.508
290.757
290.974
291.161
291.323
291.463
291.584
291.688
291.778
291.856
291.925
291.987
292.046
292.105
292.167
292.235
292.315
292.416
292.552
292.746
293.03
293.438
293.985
294.632
295.436
296.664
298.527
284.927
286.746
287.966
288.685
289.178
289.585
289.945
290.266
290.55
290.8
291.017
291.206
291.37
291.512
291.636
291.743
291.835
291.916
291.986
292.049
292.109
292.169
292.232
292.303
292.387
292.494
292.638
292.842
293.136
293.554
294.106
294.756
295.562
296.793
298.656
284.954
286.773
287.99
288.708
289.202
289.612
289.973
290.295
290.581
290.831
291.048
291.238
291.403
291.548
291.675
291.786
291.883
291.967
292.04
292.107
292.169
292.232
292.299
292.373
292.462
292.575
292.727
292.94
293.244
293.671
294.228
294.878
295.685
296.918
298.782
284.979
286.799
288.015
288.732
289.228
289.639
290.003
290.327
290.613
290.863
291.08
291.269
291.434
291.579
291.707
291.821
291.921
292.01
292.088
292.158
292.224
292.291
292.361
292.44
292.534
292.654
292.813
293.035
293.349
293.783
294.345
294.994
295.799
297.035
298.9
285.008
286.828
288.044
288.762
289.259
289.674
290.041
290.368
290.655
290.905
291.121
291.308
291.472
291.615
291.743
291.857
291.959
292.049
292.131
292.205
292.275
292.347
292.422
292.506
292.606
292.732
292.899
293.13
293.452
293.894
294.457
295.104
295.908
297.146
299.012
285.038
286.858
288.073
288.792
289.291
289.709
290.08
290.409
290.699
290.949
291.165
291.351
291.512
291.654
291.781
291.894
291.996
292.088
292.172
292.249
292.324
292.399
292.478
292.568
292.674
292.807
292.982
293.221
293.552
294
294.564
295.208
296.009
297.247
299.114
285.068
286.889
288.103
288.822
289.323
289.745
290.119
290.452
290.744
290.995
291.21
291.395
291.554
291.695
291.82
291.932
292.035
292.128
292.213
292.293
292.37
292.449
292.533
292.628
292.741
292.881
293.064
293.312
293.651
294.104
294.667
295.307
296.106
297.345
299.212
285.098
286.92
288.135
288.854
289.358
289.784
290.163
290.499
290.793
291.046
291.26
291.443
291.601
291.738
291.861
291.972
292.073
292.166
292.253
292.334
292.414
292.496
292.584
292.684
292.803
292.95
293.142
293.398
293.745
294.201
294.764
295.399
296.194
297.433
299.3
285.134
286.956
288.17
288.89
289.397
289.826
290.21
290.551
290.848
291.101
291.315
291.497
291.652
291.788
291.908
292.017
292.117
292.209
292.295
292.377
292.459
292.544
292.636
292.74
292.865
293.019
293.217
293.481
293.835
294.295
294.857
295.487
296.279
297.517
299.384
285.166
286.989
288.203
288.923
289.432
289.867
290.255
290.6
290.899
291.154
291.368
291.549
291.703
291.837
291.955
292.062
292.161
292.252
292.338
292.421
292.504
292.591
292.686
292.795
292.924
293.085
293.291
293.562
293.922
294.385
294.945
295.571
296.359
297.596
299.463
285.199
287.023
288.236
288.957
289.469
289.908
290.301
290.65
290.952
291.208
291.422
291.602
291.755
291.887
292.004
292.11
292.207
292.297
292.382
292.464
292.548
292.637
292.735
292.847
292.982
293.148
293.361
293.639
294.005
294.471
295.028
295.65
296.435
297.671
299.537
285.232
287.057
288.269
288.99
289.505
289.947
290.345
290.698
291.003
291.26
291.474
291.654
291.806
291.937
292.053
292.158
292.255
292.345
292.43
292.513
292.597
292.688
292.787
292.903
293.042
293.214
293.433
293.718
294.089
294.558
295.112
295.729
296.511
297.746
299.611
285.262
287.088
288.299
289.021
289.537
289.984
290.385
290.742
291.049
291.307
291.521
291.701
291.852
291.983
292.099
292.203
292.3
292.39
292.475
292.559
292.645
292.737
292.839
292.958
293.101
293.278
293.504
293.796
294.172
294.642
295.194
295.806
296.584
297.819
299.683
285.293
287.119
288.33
289.052
289.571
290.021
290.427
290.786
291.095
291.354
291.568
291.747
291.898
292.028
292.143
292.247
292.343
292.433
292.519
292.604
292.691
292.784
292.889
293.012
293.159
293.341
293.573
293.871
294.252
294.723
295.272
295.88
296.655
297.89
299.752
285.323
287.15
288.36
289.084
289.605
290.058
290.468
290.83
291.14
291.4
291.614
291.792
291.942
292.072
292.186
292.29
292.385
292.476
292.562
292.647
292.735
292.83
292.937
293.063
293.214
293.401
293.638
293.942
294.327
294.8
295.346
295.95
296.723
297.957
299.818
285.352
287.18
288.39
289.114
289.638
290.095
290.508
290.873
291.184
291.444
291.658
291.836
291.985
292.114
292.228
292.331
292.427
292.517
292.604
292.69
292.779
292.875
292.984
293.112
293.266
293.457
293.7
294.009
294.398
294.872
295.416
296.016
296.787
298.021
299.882
285.381
287.21
288.42
289.146
289.672
290.132
290.548
290.915
291.228
291.488
291.702
291.879
292.028
292.156
292.269
292.372
292.467
292.558
292.645
292.732
292.821
292.919
293.029
293.158
293.314
293.509
293.755
294.069
294.462
294.937
295.479
296.077
296.847
298.081
299.941
285.411
287.24
288.451
289.177
289.705
290.169
290.588
290.957
291.272
291.532
291.746
291.922
292.071
292.198
292.31
292.412
292.507
292.598
292.686
292.773
292.864
292.962
293.073
293.203
293.36
293.557
293.806
294.122
294.518
294.994
295.535
296.131
296.901
298.135
299.994
285.44
287.27
288.481
289.208
289.739
290.206
290.628
290.999
291.314
291.575
291.788
291.964
292.112
292.239
292.351
292.452
292.547
292.638
292.726
292.814
292.905
293.005
293.117
293.249
293.407
293.605
293.855
294.173
294.571
295.047
295.588
296.182
296.951
298.186
300.046
285.471
287.301
288.512
289.241
289.775
290.245
290.67
291.043
291.358
291.619
291.831
292.007
292.154
292.28
292.391
292.492
292.586
292.677
292.765
292.854
292.947
293.048
293.162
293.294
293.454
293.653
293.905
294.224
294.623
295.099
295.638
296.231
296.999
298.236
300.094
285.502
287.333
288.544
289.275
289.811
290.285
290.713
291.087
291.403
291.663
291.875
292.05
292.196
292.321
292.432
292.532
292.626
292.716
292.804
292.894
292.988
293.091
293.206
293.341
293.502
293.703
293.956
294.276
294.674
295.15
295.687
296.278
297.046
298.283
300.141
285.534
287.366
288.577
289.309
289.848
290.326
290.757
291.133
291.45
291.709
291.921
292.094
292.239
292.364
292.473
292.573
292.667
292.757
292.845
292.936
293.031
293.135
293.253
293.389
293.553
293.754
294.008
294.329
294.728
295.202
295.736
296.325
297.092
298.33
300.188
285.565
287.398
288.61
289.343
289.885
290.366
290.8
291.179
291.496
291.755
291.965
292.138
292.282
292.406
292.516
292.615
292.709
292.799
292.888
292.979
293.076
293.182
293.302
293.44
293.606
293.81
294.065
294.387
294.784
295.256
295.786
296.372
297.139
298.378
300.236
285.596
287.429
288.641
289.376
289.921
290.406
290.843
291.223
291.54
291.799
292.009
292.18
292.324
292.447
292.557
292.656
292.749
292.84
292.929
293.022
293.121
293.229
293.35
293.492
293.66
293.866
294.123
294.445
294.842
295.311
295.837
296.419
297.185
298.426
300.283
285.626
287.461
288.673
289.409
289.957
290.445
290.886
291.267
291.585
291.844
292.052
292.223
292.366
292.488
292.597
292.696
292.789
292.879
292.97
293.063
293.163
293.273
293.397
293.541
293.712
293.92
294.179
294.502
294.898
295.363
295.885
296.465
297.23
298.471
300.328
285.656
287.492
288.704
289.442
289.992
290.484
290.927
291.311
291.629
291.887
292.095
292.265
292.407
292.529
292.637
292.736
292.829
292.919
293.01
293.104
293.205
293.316
293.442
293.588
293.761
293.972
294.233
294.557
294.951
295.413
295.931
296.508
297.272
298.514
300.371
285.686
287.522
288.735
289.475
290.028
290.523
290.969
291.354
291.673
291.931
292.138
292.307
292.448
292.569
292.677
292.775
292.868
292.958
293.049
293.144
293.245
293.358
293.485
293.632
293.808
294.021
294.284
294.608
295.001
295.461
295.975
296.549
297.312
298.554
300.411
285.716
287.553
288.767
289.507
290.063
290.561
291.01
291.397
291.717
291.975
292.182
292.35
292.49
292.61
292.717
292.815
292.907
292.997
293.088
293.183
293.285
293.398
293.526
293.675
293.852
294.067
294.331
294.656
295.048
295.505
296.015
296.587
297.349
298.592
300.448
285.746
287.584
288.798
289.54
290.098
290.599
291.051
291.439
291.76
292.018
292.225
292.393
292.532
292.652
292.758
292.855
292.947
293.037
293.128
293.223
293.324
293.437
293.566
293.715
293.893
294.109
294.374
294.699
295.091
295.545
296.053
296.622
297.383
298.626
300.482
285.777
287.616
288.83
289.573
290.134
290.637
291.091
291.481
291.803
292.062
292.269
292.436
292.575
292.694
292.8
292.896
292.988
293.078
293.168
293.263
293.365
293.477
293.606
293.755
293.933
294.149
294.415
294.741
295.131
295.583
296.088
296.655
297.416
298.658
300.515
285.807
287.647
288.861
289.606
290.168
290.674
291.129
291.521
291.844
292.104
292.312
292.48
292.62
292.739
292.844
292.94
293.031
293.12
293.21
293.304
293.405
293.517
293.645
293.794
293.972
294.189
294.455
294.78
295.17
295.62
296.122
296.687
297.446
298.688
300.544
285.838
287.678
288.893
289.638
290.202
290.71
291.166
291.558
291.883
292.144
292.354
292.523
292.663
292.783
292.888
292.984
293.074
293.162
293.252
293.345
293.446
293.557
293.685
293.833
294.011
294.228
294.494
294.819
295.207
295.655
296.155
296.718
297.475
298.717
300.573
285.868
287.709
288.924
289.671
290.236
290.744
291.2
291.593
291.918
292.181
292.392
292.563
292.705
292.825
292.93
293.026
293.116
293.204
293.293
293.386
293.487
293.598
293.725
293.874
294.051
294.268
294.534
294.858
295.245
295.691
296.188
296.748
297.504
298.746
300.6
285.899
287.741
288.956
289.704
290.27
290.778
291.234
291.626
291.951
292.215
292.428
292.601
292.744
292.865
292.971
293.067
293.158
293.246
293.335
293.428
293.529
293.64
293.767
293.915
294.093
294.309
294.575
294.898
295.284
295.727
296.221
296.778
297.533
298.775
300.628
285.93
287.773
288.989
289.737
290.304
290.812
291.267
291.658
291.982
292.246
292.46
292.635
292.779
292.902
293.009
293.106
293.197
293.286
293.376
293.47
293.57
293.682
293.809
293.957
294.135
294.351
294.617
294.939
295.323
295.764
296.254
296.809
297.562
298.803
300.656
285.964
287.807
289.023
289.772
290.34
290.848
291.302
291.691
292.014
292.277
292.491
292.666
292.812
292.936
293.045
293.143
293.236
293.326
293.416
293.51
293.612
293.724
293.851
294
294.178
294.395
294.66
294.982
295.363
295.801
296.288
296.84
297.591
298.832
300.684
286.001
287.845
289.061
289.811
290.38
290.89
291.343
291.73
292.05
292.311
292.524
292.699
292.846
292.971
293.081
293.181
293.274
293.365
293.456
293.551
293.653
293.765
293.893
294.042
294.221
294.437
294.702
295.023
295.403
295.837
296.32
296.869
297.619
298.859
300.711
286.043
287.887
289.104
289.855
290.426
290.937
291.391
291.776
292.093
292.35
292.56
292.734
292.88
293.006
293.117
293.218
293.312
293.404
293.496
293.592
293.694
293.808
293.936
294.086
294.265
294.481
294.746
295.065
295.443
295.873
296.353
296.899
297.648
298.887
300.738
286.091
287.935
289.152
289.905
290.479
290.993
291.448
291.832
292.145
292.397
292.602
292.772
292.917
293.042
293.154
293.255
293.35
293.441
293.534
293.631
293.735
293.85
293.979
294.13
294.31
294.526
294.79
295.108
295.483
295.91
296.385
296.929
297.676
298.916
300.765
286.144
287.988
289.206
289.961
290.538
291.057
291.515
291.897
292.206
292.453
292.653
292.818
292.959
293.082
293.191
293.291
293.385
293.478
293.571
293.67
293.775
293.89
294.021
294.173
294.354
294.571
294.834
295.151
295.523
295.946
296.417
296.957
297.704
298.943
300.792
286.202
288.048
289.266
290.022
290.604
291.129
291.59
291.972
292.278
292.519
292.713
292.872
293.008
293.127
293.233
293.331
293.424
293.516
293.611
293.709
293.815
293.932
294.065
294.218
294.399
294.616
294.879
295.194
295.563
295.982
296.449
296.987
297.732
298.972
300.82
286.264
288.11
289.328
290.087
290.675
291.206
291.67
292.052
292.354
292.591
292.779
292.932
293.063
293.177
293.28
293.375
293.466
293.557
293.651
293.75
293.857
293.975
294.108
294.263
294.445
294.663
294.925
295.238
295.604
296.019
296.482
297.016
297.761
299.001
300.848
286.326
288.174
289.39
290.151
290.745
291.282
291.749
292.131
292.431
292.664
292.847
292.995
293.121
293.23
293.329
293.421
293.51
293.6
293.694
293.793
293.901
294.02
294.154
294.309
294.492
294.711
294.972
295.284
295.646
296.057
296.515
297.047
297.791
299.032
300.878
286.386
288.234
289.45
290.212
290.81
291.351
291.82
292.201
292.5
292.731
292.912
293.057
293.178
293.284
293.379
293.468
293.555
293.644
293.737
293.836
293.944
294.064
294.2
294.357
294.541
294.76
295.021
295.33
295.69
296.096
296.55
297.079
297.821
299.063
300.909
286.443
288.292
289.507
290.272
290.873
291.417
291.886
292.266
292.563
292.792
292.971
293.115
293.234
293.337
293.429
293.516
293.601
293.688
293.78
293.88
293.988
294.109
294.246
294.404
294.589
294.808
295.069
295.377
295.733
296.135
296.584
297.11
297.852
299.095
300.94
286.5
288.35
289.565
290.332
290.937
291.483
291.951
292.328
292.622
292.849
293.026
293.168
293.285
293.386
293.477
293.562
293.646
293.733
293.824
293.923
294.032
294.154
294.291
294.45
294.636
294.856
295.116
295.422
295.775
296.173
296.618
297.142
297.884
299.127
300.971
286.559
288.41
289.626
290.395
291.004
291.553
292.019
292.392
292.682
292.905
293.08
293.22
293.335
293.435
293.525
293.609
293.692
293.777
293.868
293.967
294.076
294.198
294.336
294.496
294.682
294.902
295.162
295.466
295.816
296.21
296.652
297.173
297.914
299.157
301.001
286.62
288.473
289.689
290.461
291.073
291.624
292.088
292.456
292.741
292.96
293.132
293.27
293.385
293.484
293.573
293.657
293.739
293.823
293.914
294.012
294.121
294.243
294.382
294.543
294.73
294.95
295.209
295.511
295.858
296.248
296.686
297.204
297.945
299.19
301.033
286.683
288.536
289.754
290.53
291.146
291.699
292.161
292.524
292.801
293.014
293.181
293.316
293.43
293.528
293.616
293.7
293.782
293.867
293.957
294.056
294.166
294.289
294.428
294.589
294.777
294.997
295.256
295.556
295.9
296.287
296.721
297.237
297.977
299.222
301.064
286.753
288.607
289.827
290.607
291.229
291.785
292.245
292.602
292.871
293.077
293.237
293.368
293.477
293.573
293.66
293.742
293.824
293.909
294
294.099
294.209
294.333
294.473
294.635
294.823
295.043
295.301
295.6
295.942
296.325
296.755
297.269
298.009
299.253
301.095
286.829
288.684
289.904
290.689
291.317
291.876
292.334
292.685
292.947
293.144
293.298
293.423
293.528
293.621
293.706
293.788
293.869
293.954
294.045
294.144
294.255
294.379
294.52
294.682
294.871
295.092
295.349
295.646
295.985
296.365
296.792
297.304
298.043
299.289
301.129
286.909
288.764
289.985
290.774
291.409
291.971
292.427
292.771
293.025
293.215
293.362
293.48
293.581
293.67
293.753
293.833
293.914
293.999
294.089
294.189
294.3
294.424
294.566
294.73
294.919
295.14
295.397
295.693
296.029
296.405
296.83
297.34
298.078
299.324
301.165
286.994
288.85
290.07
290.863
291.504
292.069
292.522
292.86
293.108
293.29
293.43
293.543
293.639
293.724
293.805
293.883
293.963
294.046
294.137
294.236
294.347
294.471
294.613
294.776
294.966
295.187
295.443
295.737
296.071
296.445
296.867
297.376
298.114
299.361
301.2
287.08
288.936
290.156
290.951
291.596
292.162
292.611
292.944
293.185
293.362
293.497
293.605
293.697
293.78
293.858
293.935
294.014
294.098
294.188
294.288
294.399
294.523
294.665
294.828
295.017
295.237
295.492
295.785
296.116
296.487
296.907
297.414
298.154
299.402
301.241
287.17
289.025
290.245
291.042
291.69
292.255
292.7
293.027
293.261
293.432
293.561
293.665
293.753
293.833
293.909
293.985
294.063
294.147
294.239
294.34
294.452
294.578
294.721
294.885
295.074
295.294
295.547
295.838
296.166
296.534
296.95
297.455
298.195
299.444
301.282
287.265
289.12
290.338
291.137
291.786
292.35
292.789
293.109
293.337
293.501
293.626
293.725
293.809
293.886
293.96
294.033
294.11
294.193
294.285
294.387
294.501
294.629
294.774
294.94
295.13
295.35
295.602
295.891
296.217
296.582
296.996
297.499
298.239
299.488
301.325
287.366
289.22
290.438
291.237
291.887
292.448
292.881
293.193
293.413
293.571
293.69
293.785
293.866
293.94
294.011
294.083
294.158
294.24
294.331
294.433
294.548
294.677
294.823
294.99
295.181
295.401
295.653
295.94
296.264
296.626
297.038
297.54
298.281
299.532
301.37
287.474
289.328
290.545
291.344
291.992
292.55
292.977
293.281
293.492
293.642
293.754
293.844
293.921
293.993
294.062
294.132
294.206
294.287
294.378
294.479
294.594
294.723
294.87
295.037
295.229
295.449
295.701
295.987
296.308
296.668
297.078
297.579
298.318
299.569
301.405
287.588
289.441
290.656
291.454
292.1
292.653
293.073
293.369
293.572
293.714
293.82
293.905
293.978
294.046
294.113
294.182
294.255
294.336
294.426
294.528
294.643
294.772
294.919
295.087
295.279
295.499
295.751
296.036
296.356
296.715
297.123
297.624
298.365
299.617
301.453
287.702
289.554
290.769
291.564
292.207
292.755
293.168
293.455
293.65
293.785
293.884
293.963
294.032
294.097
294.161
294.228
294.3
294.381
294.472
294.574
294.69