/*--------------------------------*- C++ -*----------------------------------*\
| =========                 |                                                 |
| \\      /  F ield         | OpenFOAM: The Open Source CFD Toolbox           |
|  \\    /   O peration     | Version:  v2012                                 |
|   \\  /    A nd           | Website:  www.openfoam.com                      |
|    \\/     M anipulation  |                                                 |
\*---------------------------------------------------------------------------*/
FoamFile
{
    version     2.0;
    format      ascii;
    class       surfaceScalarField;
    location    "58";
    object      phi;
}
// * * * * * * * * * * * * * * * * * * * * * * * * * * * * * * * * * * * * * //

dimensions      [1 0 -1 0 0 0 0];
oriented        oriented;


internalField   nonuniform List<scalar> 
228225
(
-2.58103e-09
2.23651e-09
8.14468e-11
-8.41977e-09
9.25683e-09
-3.41867e-09
-1.77869e-08
1.36951e-08
-4.3272e-09
-3.05876e-08
1.74814e-08
-4.68031e-09
-4.63175e-08
2.06894e-08
-4.96081e-09
-6.43004e-08
2.32819e-08
-5.29821e-09
-8.38755e-08
2.52851e-08
-5.70858e-09
-1.04372e-07
2.66981e-08
-6.20256e-09
-1.2519e-07
2.75792e-08
-6.76007e-09
-1.45758e-07
2.79482e-08
-7.38136e-09
-1.65587e-07
2.7877e-08
-8.04809e-09
-1.84209e-07
2.73852e-08
-8.76217e-09
-2.01249e-07
2.6548e-08
-9.50804e-09
-2.16354e-07
2.53943e-08
-1.02876e-08
-2.29257e-07
2.3989e-08
-1.1086e-08
-2.39715e-07
2.23602e-08
-1.19045e-08
-2.47548e-07
2.05521e-08
-1.27185e-08
-2.52602e-07
1.85911e-08
-1.35381e-08
-2.54796e-07
1.65308e-08
-1.43333e-08
-2.54084e-07
1.43924e-08
-1.51056e-08
-2.50465e-07
1.22171e-08
-1.58382e-08
-2.43965e-07
1.00221e-08
-1.65202e-08
-2.34669e-07
7.8402e-09
-1.71344e-08
-2.22686e-07
5.68634e-09
-1.76715e-08
-2.08159e-07
3.58894e-09
-1.81156e-08
-1.91263e-07
1.56415e-09
-1.84582e-08
-1.72222e-07
-3.56344e-10
-1.86862e-08
-1.51265e-07
-2.16366e-09
-1.87928e-08
-1.2869e-07
-3.80853e-09
-1.87662e-08
-1.04839e-07
-5.25811e-09
-1.8595e-08
-8.01359e-08
-6.45643e-09
-1.82462e-08
-5.51802e-08
-7.32483e-09
-1.76299e-08
-3.10131e-08
-7.70827e-09
-1.64581e-08
-9.84168e-09
-7.35016e-09
-1.38208e-08
-4.74065e-09
-5.10155e-09
-7.33449e-09
2.47129e-08
-1.51422e-08
-2.60328e-08
4.46489e-08
-1.66937e-08
-4.87187e-08
5.38755e-08
-1.74946e-08
-7.33974e-08
6.05806e-08
-1.84201e-08
-9.86227e-08
6.51717e-08
-1.92587e-08
-1.23393e-07
6.80418e-08
-1.99876e-08
-1.46943e-07
6.9491e-08
-2.0656e-08
-1.68746e-07
6.97794e-08
-2.12784e-08
-1.88403e-07
6.91065e-08
-2.18703e-08
-2.05673e-07
6.76459e-08
-2.24286e-08
-2.20374e-07
6.55406e-08
-2.2962e-08
-2.3243e-07
6.29065e-08
-2.34652e-08
-2.4179e-07
5.98521e-08
-2.39438e-08
-2.48476e-07
5.64714e-08
-2.43907e-08
-2.52524e-07
5.28464e-08
-2.48101e-08
-2.54023e-07
4.90528e-08
-2.51947e-08
-2.53061e-07
4.51415e-08
-2.555e-08
-2.49771e-07
4.11702e-08
-2.58694e-08
-2.44273e-07
3.71877e-08
-2.6155e-08
-2.36728e-07
3.32469e-08
-2.63996e-08
-2.27292e-07
2.93848e-08
-2.66045e-08
-2.1614e-07
2.56344e-08
-2.67643e-08
-2.03441e-07
2.20224e-08
-2.68815e-08
-1.89379e-07
1.85723e-08
-2.69484e-08
-1.74129e-07
1.53031e-08
-2.69632e-08
-1.5788e-07
1.22319e-08
-2.69183e-08
-1.40801e-07
9.3733e-09
-2.68081e-08
-1.23087e-07
6.74117e-09
-2.66193e-08
-1.04908e-07
4.34919e-09
-2.63363e-08
-8.64482e-08
2.21363e-09
-2.59311e-08
-6.7886e-08
3.52876e-10
-2.53734e-08
-4.94135e-08
-1.18352e-09
-2.46125e-08
-3.12987e-08
-2.33724e-09
-2.34862e-08
-1.42259e-08
-2.89388e-09
-2.15287e-08
-1.87039e-09
-1.70964e-08
-5.04279e-09
3.87545e-08
-8.99843e-09
-1.45256e-08
6.49159e-08
-1.07843e-08
-2.53901e-08
7.63268e-08
-1.15889e-08
-3.67799e-08
8.42357e-08
-1.22637e-08
-4.81315e-08
8.93823e-08
-1.28587e-08
-5.90429e-08
9.23806e-08
-1.34285e-08
-6.92346e-08
9.36682e-08
-1.39847e-08
-7.85109e-08
9.36038e-08
-1.45501e-08
-8.67357e-08
9.2453e-08
-1.5119e-08
-9.38279e-08
9.04375e-08
-1.57012e-08
-9.97329e-08
8.77293e-08
-1.62834e-08
-1.04433e-07
8.44777e-08
-1.68701e-08
-1.07938e-07
8.08016e-08
-1.74461e-08
-1.10258e-07
7.68062e-08
-1.80136e-08
-1.11433e-07
7.25785e-08
-1.85582e-08
-1.11495e-07
6.81959e-08
-1.90813e-08
-1.10516e-07
6.37375e-08
-1.95724e-08
-1.08578e-07
5.92624e-08
-2.00328e-08
-1.05755e-07
5.48181e-08
-2.04523e-08
-1.02133e-07
5.04547e-08
-2.08304e-08
-9.77964e-08
4.62071e-08
-2.11592e-08
-9.28256e-08
4.21055e-08
-2.14407e-08
-8.73102e-08
3.81751e-08
-2.16687e-08
-8.13215e-08
3.44274e-08
-2.18447e-08
-7.49328e-08
3.08772e-08
-2.19632e-08
-6.82101e-08
2.75333e-08
-2.20239e-08
-6.12183e-08
2.44013e-08
-2.20199e-08
-5.40097e-08
2.14802e-08
-2.1946e-08
-4.66388e-08
1.87671e-08
-2.17889e-08
-3.91485e-08
1.62553e-08
-2.15327e-08
-3.15787e-08
1.39298e-08
-2.11488e-08
-2.39404e-08
1.17682e-08
-2.05881e-08
-1.62727e-08
9.73264e-09
-1.97381e-08
-8.59429e-09
7.76712e-09
-1.8341e-08
4.59912e-09
-1.50625e-08
-4.92773e-09
4.31788e-08
5.04537e-10
-9.14729e-09
7.00864e-08
-9.52719e-10
-1.2876e-08
8.19707e-08
-1.91399e-09
-1.6353e-08
9.03011e-08
-2.58885e-09
-1.96768e-08
9.58718e-08
-3.1664e-09
-2.28262e-08
9.92789e-08
-3.74887e-09
-2.57571e-08
1.00978e-07
-4.38069e-09
-2.84203e-08
1.01322e-07
-5.05357e-09
-3.07793e-08
1.0059e-07
-5.77776e-09
-3.28027e-08
9.89986e-08
-6.53888e-09
-3.44625e-08
9.67304e-08
-7.34112e-09
-3.57533e-08
9.39294e-08
-8.16086e-09
-3.66737e-08
9.072e-08
-8.99831e-09
-3.72316e-08
8.71997e-08
-9.83505e-09
-3.74399e-08
8.34563e-08
-1.06699e-08
-3.73164e-08
7.95594e-08
-1.14862e-08
-3.68908e-08
7.5589e-08
-1.22772e-08
-3.62018e-08
7.16008e-08
-1.30283e-08
-3.52861e-08
6.76422e-08
-1.37393e-08
-3.41833e-08
6.37498e-08
-1.43983e-08
-3.29277e-08
5.99561e-08
-1.50053e-08
-3.15553e-08
5.62849e-08
-1.55508e-08
-3.0102e-08
5.27557e-08
-1.60352e-08
-2.8591e-08
4.93721e-08
-1.64532e-08
-2.70498e-08
4.61398e-08
-1.68054e-08
-2.54857e-08
4.30565e-08
-1.70859e-08
-2.39022e-08
4.01111e-08
-1.72949e-08
-2.2277e-08
3.72822e-08
-1.74266e-08
-2.05692e-08
3.4537e-08
-1.74774e-08
-1.87101e-08
3.18306e-08
-1.7435e-08
-1.65817e-08
2.90863e-08
-1.72853e-08
-1.40064e-08
2.62085e-08
-1.70154e-08
-1.06878e-08
2.30529e-08
-1.66376e-08
-6.30951e-09
1.94598e-08
-1.60731e-08
1.24411e-08
-1.41503e-08
-5.8633e-09
4.30124e-08
6.03121e-09
-7.82388e-09
6.71293e-08
4.91551e-09
-7.83249e-09
7.80025e-08
3.97804e-09
-6.73983e-09
8.58583e-08
3.35122e-09
-5.0454e-09
9.13334e-08
2.84172e-09
-3.00109e-09
9.49373e-08
2.29867e-09
-7.83752e-10
9.70603e-08
1.70054e-09
1.48946e-09
9.80113e-08
1.03838e-09
3.72563e-09
9.80261e-08
3.2675e-10
5.86092e-09
9.73002e-08
-4.36974e-10
7.83946e-09
9.59837e-08
-1.23164e-09
9.63225e-09
9.42052e-08
-2.06803e-09
1.12127e-08
9.20634e-08
-2.92442e-09
1.2561e-08
8.96482e-08
-3.79676e-09
1.36544e-08
8.7029e-08
-4.66682e-09
1.44724e-08
8.42699e-08
-5.52921e-09
1.50093e-08
8.14221e-08
-6.36762e-09
1.52531e-08
7.85337e-08
-7.17917e-09
1.52069e-08
7.56399e-08
-7.95026e-09
1.48633e-08
7.27724e-08
-8.67931e-09
1.42215e-08
6.99535e-08
-9.35571e-09
1.32838e-08
6.72009e-08
-9.97902e-09
1.20591e-08
6.4523e-08
-1.05414e-08
1.0552e-08
6.19216e-08
-1.10435e-08
8.78152e-09
5.939e-08
-1.14798e-08
6.77932e-09
5.69114e-08
-1.18515e-08
4.588e-09
5.44575e-08
-1.21549e-08
2.27639e-09
5.19836e-08
-1.23919e-08
-5.22417e-11
4.94265e-08
-1.25589e-08
-2.2649e-09
4.66959e-08
-1.26541e-08
-4.1676e-09
4.36605e-08
-1.26705e-08
-5.48868e-09
4.01508e-08
-1.26226e-08
-5.77538e-09
3.59281e-08
-1.25881e-08
-4.4126e-09
3.06838e-08
-1.25859e-08
1.96734e-08
-1.16456e-08
-4.15093e-09
4.00167e-08
7.14782e-09
-4.59536e-09
6.13415e-08
6.23119e-09
-3.0835e-09
7.11129e-08
5.37791e-09
-4.21933e-10
7.83554e-08
4.84175e-09
2.86827e-09
8.36309e-08
4.41207e-09
6.48889e-09
8.73539e-08
3.96311e-09
1.0229e-08
8.98639e-08
3.45672e-09
1.39309e-08
9.14069e-08
2.90279e-09
1.74701e-08
9.21876e-08
2.29808e-09
2.07603e-08
9.23562e-08
1.65403e-09
2.37346e-08
9.20395e-08
9.70033e-10
2.63483e-08
9.13318e-08
2.59822e-10
2.85613e-08
9.03198e-08
-4.70258e-10
3.03477e-08
8.90686e-08
-1.20594e-09
3.16852e-08
8.76384e-08
-1.94677e-09
3.25602e-08
8.60731e-08
-2.67971e-09
3.29701e-08
8.44139e-08
-3.40107e-09
3.29116e-08
8.2691e-08
-4.09836e-09
3.23899e-08
8.09312e-08
-4.76922e-09
3.14114e-08
7.91535e-08
-5.40364e-09
2.99929e-08
7.7373e-08
-6.00022e-09
2.81488e-08
7.55963e-08
-6.55135e-09
2.59035e-08
7.38236e-08
-7.05691e-09
2.32913e-08
7.20464e-08
-7.51154e-09
2.03495e-08
7.02467e-08
-7.91603e-09
1.71355e-08
6.83946e-08
-8.267e-09
1.37136e-08
6.64447e-08
-8.56629e-09
1.01757e-08
6.43331e-08
-8.81263e-09
6.64463e-09
6.19681e-08
-9.00858e-09
3.26391e-09
5.92262e-08
-9.15155e-09
2.32317e-10
5.59341e-08
-9.24055e-09
-2.18601e-09
5.18636e-08
-9.29492e-09
-3.5403e-09
4.66943e-08
-9.41242e-09
-3.23672e-09
4.00242e-08
-9.64304e-09
2.5647e-08
-9.21127e-09
-2.05501e-09
3.6411e-08
5.66044e-09
-1.56906e-09
5.60229e-08
4.8333e-09
3.18639e-10
6.51158e-08
4.10905e-09
3.01287e-09
7.19961e-08
3.66443e-09
6.14429e-09
7.71715e-08
3.32832e-09
9.49168e-09
8.10229e-08
2.98335e-09
1.29043e-08
8.38433e-08
2.60881e-09
1.62547e-08
8.58559e-08
2.19993e-09
1.94489e-08
8.72294e-08
1.76426e-09
2.24081e-08
8.80984e-08
1.2989e-09
2.50709e-08
8.85634e-08
8.12085e-10
2.73914e-08
8.87085e-08
3.02968e-10
2.93332e-08
8.85964e-08
-2.17808e-10
3.08616e-08
8.82816e-08
-7.41509e-10
3.19646e-08
8.78043e-08
-1.26787e-09
3.26265e-08
8.72009e-08
-1.79063e-09
3.28441e-08
8.64978e-08
-2.30181e-09
3.2618e-08
8.57175e-08
-2.79931e-09
3.1948e-08
8.48747e-08
-3.27519e-09
3.08507e-08
8.39807e-08
-3.72852e-09
2.93369e-08
8.30396e-08
-4.15292e-09
2.74304e-08
8.20504e-08
-4.54829e-09
2.51591e-08
8.10043e-08
-4.9098e-09
2.25609e-08
7.98841e-08
-5.23819e-09
1.96765e-08
7.86622e-08
-5.53017e-09
1.65598e-08
7.72969e-08
-5.78733e-09
1.32828e-08
7.573e-08
-6.00782e-09
9.93156e-09
7.38801e-08
-6.19442e-09
6.61004e-09
7.16353e-08
-6.34655e-09
3.45756e-09
6.88439e-08
-6.46564e-09
6.43329e-10
6.52993e-08
-6.54894e-09
-1.604e-09
6.07256e-08
-6.61676e-09
-2.9024e-09
5.47446e-08
-6.75081e-09
-2.74284e-09
4.6863e-08
-6.99841e-09
2.96628e-08
-6.75844e-09
-7.55435e-10
3.34558e-08
3.71004e-09
-2.58858e-10
5.24871e-08
3.04002e-09
1.00681e-09
6.13525e-08
2.49768e-09
2.70352e-09
6.81263e-08
2.17307e-09
4.63172e-09
7.33142e-08
1.92799e-09
6.68302e-09
7.72853e-08
1.68778e-09
8.77297e-09
8.03232e-08
1.42974e-09
1.08359e-08
8.26363e-08
1.15727e-09
1.28106e-08
8.43866e-08
8.67676e-10
1.46495e-08
8.56935e-08
5.65322e-10
1.63123e-08
8.66519e-08
2.47582e-10
1.77685e-08
8.73317e-08
-7.78769e-11
1.89804e-08
8.77897e-08
-4.06699e-10
1.99328e-08
8.8068e-08
-7.38082e-10
2.0605e-08
8.8202e-08
-1.07044e-09
2.09857e-08
8.82163e-08
-1.39641e-09
2.10688e-08
8.8131e-08
-1.71589e-09
2.08503e-08
8.7959e-08
-2.02275e-09
2.03314e-08
8.77095e-08
-2.31697e-09
1.95204e-08
8.73858e-08
-2.59362e-09
1.84258e-08
8.69861e-08
-2.85329e-09
1.7067e-08
8.65024e-08
-3.09209e-09
1.54632e-08
8.59192e-08
-3.31125e-09
1.36412e-08
8.52127e-08
-3.50789e-09
1.16406e-08
8.43472e-08
-3.68383e-09
9.49989e-09
8.32738e-08
-3.8371e-09
7.27829e-09
8.19232e-08
-3.97016e-09
5.03682e-09
8.02034e-08
-4.08211e-09
2.86013e-09
7.7987e-08
-4.1759e-09
8.49286e-10
7.5106e-08
-4.24973e-09
-8.78444e-10
7.13298e-08
-4.30461e-09
-2.15615e-09
6.6355e-08
-4.35176e-09
-2.72309e-09
5.97642e-08
-4.45063e-09
-2.25152e-09
5.10132e-08
-4.62437e-09
3.18566e-08
-4.44422e-09
-4.88567e-10
3.14e-08
2.54493e-09
-4.71648e-10
5.03392e-08
2.12977e-09
-8.98086e-11
5.9164e-08
1.8067e-09
4.94332e-10
6.59294e-08
1.61285e-09
1.20021e-09
7.11433e-08
1.46473e-09
1.98643e-09
7.51829e-08
1.31529e-09
2.82609e-09
7.83269e-08
1.15762e-09
3.68577e-09
8.07864e-08
9.89286e-10
4.54132e-09
8.27174e-08
8.14379e-10
5.36416e-09
8.42393e-08
6.30948e-10
6.13334e-09
8.54403e-08
4.43231e-10
6.82555e-09
8.63889e-08
2.49896e-10
7.42509e-09
8.71351e-08
5.59227e-11
7.91163e-09
8.77181e-08
-1.36843e-10
8.27132e-09
8.81658e-08
-3.23127e-10
8.49521e-09
8.84998e-08
-5.07371e-10
8.57532e-09
8.87346e-08
-6.83935e-10
8.50777e-09
8.88808e-08
-8.53504e-10
8.28479e-09
8.89427e-08
-1.01158e-09
7.9119e-09
8.89192e-08
-1.15953e-09
7.38985e-09
8.88034e-08
-1.29427e-09
6.72553e-09
8.85831e-08
-1.41775e-09
5.93594e-09
8.82382e-08
-1.52753e-09
5.0322e-09
8.77406e-08
-1.62604e-09
4.04249e-09
8.705e-08
-1.71147e-09
2.99054e-09
8.61122e-08
-1.78668e-09
1.90994e-09
8.48532e-08
-1.85043e-09
8.46109e-10
8.31745e-08
-1.90608e-09
-1.57628e-10
8.09425e-08
-1.95286e-09
-1.03705e-09
7.79803e-08
-1.9935e-09
-1.72912e-09
7.40483e-08
-2.02615e-09
-2.1433e-09
6.88301e-08
-2.06169e-09
-2.13918e-09
6.18938e-08
-2.13421e-09
-1.53758e-09
5.26683e-08
-2.25528e-09
3.24827e-08
-2.16405e-09
-8.36711e-10
2.99954e-08
2.24066e-09
-1.43179e-09
4.8801e-08
2.1336e-09
-1.84125e-09
5.7555e-08
2.01883e-09
-2.13169e-09
6.42658e-08
1.95365e-09
-2.3235e-09
6.9443e-08
1.89213e-09
-2.42596e-09
7.34637e-08
1.82168e-09
-2.44602e-09
7.66083e-08
1.73853e-09
-2.39158e-09
7.9086e-08
1.64757e-09
-2.27706e-09
8.10539e-08
1.54858e-09
-2.11337e-09
8.26284e-08
1.44579e-09
-1.90884e-09
8.38983e-08
1.33852e-09
-1.67999e-09
8.49286e-08
1.23104e-09
-1.4352e-09
8.57694e-08
1.1226e-09
-1.1915e-09
8.64565e-08
1.01729e-09
-9.58621e-10
8.7017e-08
9.14728e-10
-7.46252e-10
8.74689e-08
8.19048e-10
-5.66494e-10
8.78255e-08
7.28923e-10
-4.26066e-10
8.80927e-08
6.4777e-10
-3.28093e-10
8.82733e-08
5.72564e-10
-2.79505e-10
8.83634e-08
5.06414e-10
-2.76642e-10
8.8355e-08
4.4706e-10
-3.24457e-10
8.82328e-08
3.96738e-10
-4.13466e-10
8.79756e-08
3.52607e-10
-5.40519e-10
8.75523e-08
3.16307e-10
-6.98616e-10
8.69217e-08
2.84527e-10
-8.71092e-10
8.60274e-08
2.58423e-10
-1.04648e-09
8.47948e-08
2.34241e-10
-1.20835e-09
8.31236e-08
2.1258e-10
-1.33739e-09
8.0881e-08
1.89221e-10
-1.40979e-09
7.78896e-08
1.64624e-10
-1.40771e-09
7.39121e-08
1.34419e-10
-1.30582e-09
6.86334e-08
9.32058e-11
-1.05494e-09
6.16274e-08
1.62243e-11
-6.12803e-10
5.23276e-08
-1.00121e-10
3.20303e-08
-1.60862e-10
-1.26898e-09
2.89107e-08
2.35499e-09
-2.32186e-09
4.73354e-08
2.51685e-09
-3.23481e-09
5.59015e-08
2.56607e-09
-4.02824e-09
6.24631e-08
2.59795e-09
-4.71028e-09
6.75187e-08
2.60457e-09
-5.2746e-09
7.14404e-08
2.58871e-09
-5.72849e-09
7.45031e-08
2.55781e-09
-6.07007e-09
7.69145e-08
2.51403e-09
-6.30859e-09
7.88278e-08
2.4631e-09
-6.44439e-09
8.03597e-08
2.40551e-09
-6.48786e-09
8.15956e-08
2.3459e-09
-6.44529e-09
8.26016e-08
2.28405e-09
-6.32411e-09
8.34249e-08
2.22409e-09
-6.13445e-09
8.41023e-08
2.16533e-09
-5.8883e-09
8.46586e-08
2.11146e-09
-5.59439e-09
8.51134e-08
2.06121e-09
-5.26505e-09
8.54771e-08
2.01765e-09
-4.90547e-09
8.57559e-08
1.97944e-09
-4.52975e-09
8.59489e-08
1.94938e-09
-4.14751e-09
8.60533e-08
1.92495e-09
-3.7575e-09
8.60587e-08
1.90813e-09
-3.3722e-09
8.59506e-08
1.8959e-09
-2.99064e-09
8.57057e-08
1.88969e-09
-2.61966e-09
8.52943e-08
1.886e-09
-2.2561e-09
8.46736e-08
1.88573e-09
-1.903e-09
8.37895e-08
1.88494e-09
-1.56097e-09
8.25673e-08
1.88404e-09
-1.22616e-09
8.09112e-08
1.87849e-09
-9.04736e-10
7.86907e-08
1.86796e-09
-5.97642e-10
7.5736e-08
1.84715e-09
-3.19313e-10
7.18175e-08
1.81464e-09
-7.88072e-11
6.66332e-08
1.76031e-09
1.0688e-10
5.97742e-08
1.66746e-09
2.1206e-10
5.06975e-08
1.52524e-09
3.094e-08
1.30236e-09
-1.46343e-09
2.80383e-08
2.33622e-09
-2.69977e-09
4.59131e-08
2.65769e-09
-3.81088e-09
5.4217e-08
2.7964e-09
-4.80045e-09
6.05704e-08
2.88228e-09
-5.66257e-09
6.5457e-08
2.92339e-09
-6.39688e-09
6.92357e-08
2.93739e-09
-6.99925e-09
7.21763e-08
2.93089e-09
-7.4752e-09
7.44789e-08
2.91137e-09
-7.82432e-09
7.62954e-08
2.88111e-09
-8.04711e-09
7.77382e-08
2.8455e-09
-8.14963e-09
7.88935e-08
2.80538e-09
-8.1388e-09
7.9824e-08
2.76514e-09
-8.01726e-09
8.0579e-08
2.72481e-09
-7.79477e-09
8.11926e-08
2.68818e-09
-7.48359e-09
8.16918e-08
2.65468e-09
-7.09062e-09
8.20936e-08
2.62752e-09
-6.63005e-09
8.24106e-08
2.60548e-09
-6.1119e-09
8.26474e-08
2.59115e-09
-5.55239e-09
8.2806e-08
2.58261e-09
-4.96013e-09
8.28806e-08
2.58176e-09
-4.35142e-09
8.28628e-08
2.58597e-09
-3.73294e-09
8.27359e-08
2.59649e-09
-3.11476e-09
8.24789e-08
2.61002e-09
-2.50889e-09
8.20601e-08
2.62721e-09
-1.92061e-09
8.14401e-08
2.64424e-09
-1.35488e-09
8.05638e-08
2.66121e-09
-8.22935e-10
7.93616e-08
2.67372e-09
-3.3135e-10
7.7739e-08
2.68121e-09
1.06358e-10
7.55739e-08
2.67839e-09
4.77231e-10
7.2702e-08
2.66355e-09
7.57768e-10
6.89079e-08
2.62973e-09
9.1741e-10
6.39024e-08
2.57073e-09
9.21557e-10
5.73022e-08
2.46715e-09
7.20036e-10
4.85922e-08
2.30757e-09
2.96789e-08
1.9812e-09
-1.28297e-09
2.74264e-08
1.89583e-09
-2.42568e-09
4.48206e-08
2.23355e-09
-3.48919e-09
5.28935e-08
2.38827e-09
-4.45934e-09
5.90612e-08
2.47783e-09
-5.31514e-09
6.37921e-08
2.52189e-09
-6.05229e-09
6.74363e-08
2.53687e-09
-6.66394e-09
7.02554e-08
2.53332e-09
-7.14888e-09
7.24472e-08
2.51496e-09
-7.49885e-09
7.41589e-08
2.4877e-09
-7.71821e-09
7.55034e-08
2.45341e-09
-7.80534e-09
7.65639e-08
2.41679e-09
-7.76594e-09
7.74055e-08
2.37872e-09
-7.60532e-09
7.80752e-08
2.34316e-09
-7.33288e-09
7.861e-08
2.31032e-09
-6.95905e-09
7.90352e-08
2.28355e-09
-6.49937e-09
7.93704e-08
2.2624e-09
-5.96322e-09
7.96266e-08
2.24953e-09
-5.37305e-09
7.98113e-08
2.24374e-09
-4.73663e-09
7.99241e-08
2.24691e-09
-4.07637e-09
7.99623e-08
2.25703e-09
-3.40263e-09
7.99149e-08
2.27521e-09
-2.73393e-09
7.97678e-08
2.29866e-09
-2.07918e-09
7.94978e-08
2.32778e-09
-1.45462e-09
7.9076e-08
2.35909e-09
-8.6875e-10
7.84611e-08
2.39241e-09
-3.31129e-10
7.7602e-08
2.42371e-09
1.51291e-10
7.64283e-08
2.45224e-09
5.65473e-10
7.48513e-08
2.47336e-09
9.03096e-10
7.27509e-08
2.48548e-09
1.1488e-09
6.9972e-08
2.48299e-09
1.28923e-09
6.63065e-08
2.46273e-09
1.29607e-09
6.14803e-08
2.41532e-09
1.14214e-09
5.51272e-08
2.32759e-09
7.94843e-10
4.67588e-08
2.18252e-09
2.86109e-08
1.86184e-09
-8.25966e-10
2.72261e-08
1.02727e-09
-1.69223e-09
4.44238e-08
1.26224e-09
-2.56789e-09
5.23971e-08
1.37192e-09
-3.41032e-09
5.84749e-08
1.42865e-09
-4.1863e-09
6.31216e-08
1.44727e-09
-4.87746e-09
6.66819e-08
1.4439e-09
-5.46245e-09
6.94177e-08
1.42403e-09
-5.93339e-09
7.15239e-08
1.39317e-09
-6.27711e-09
7.31499e-08
1.35353e-09
-6.4899e-09
7.4407e-08
1.30968e-09
-6.57234e-09
7.53817e-08
1.2632e-09
-6.52259e-09
7.6138e-08
1.21809e-09
-6.34861e-09
7.67265e-08
1.17537e-09
-6.06051e-09
7.71832e-08
1.13848e-09
-5.67061e-09
7.75372e-08
1.10786e-09
-5.19484e-09
7.78068e-08
1.08633e-09
-4.64522e-09
7.80063e-08
1.07354e-09
-4.04902e-09
7.81414e-08
1.07151e-09
-3.41749e-09
7.82149e-08
1.07899e-09
-2.77361e-09
7.82216e-08
1.09708e-09
-2.13755e-09
7.81533e-08
1.12366e-09
-1.52132e-09
7.79932e-08
1.15897e-09
-9.43885e-10
7.77202e-08
1.20007e-09
-4.1819e-10
7.73029e-08
1.24649e-09
4.57349e-11
7.67021e-08
1.29468e-09
4.41789e-10
7.58642e-08
1.34363e-09
7.58219e-10
7.47219e-08
1.38936e-09
9.95356e-10
7.31845e-08
1.43038e-09
1.14681e-09
7.11365e-08
1.46227e-09
1.21206e-09
6.84232e-08
1.4831e-09
1.18781e-09
6.48434e-08
1.48764e-09
1.06832e-09
6.01271e-08
1.47175e-09
8.52375e-10
5.39201e-08
1.42361e-09
5.32997e-10
4.57452e-08
1.33276e-09
2.80255e-08
1.11875e-09
-2.82283e-10
2.75431e-08
-3.35231e-11
-8.20135e-10
4.493e-08
2.89874e-11
-1.46167e-09
5.29789e-08
6.24415e-11
-2.14942e-09
5.90976e-08
6.41406e-11
-2.82682e-09
6.37553e-08
4.39608e-11
-3.45878e-09
6.73043e-08
9.23249e-12
-4.01407e-09
7.0009e-08
-3.52557e-11
-4.4726e-09
7.20705e-08
-8.82106e-11
-4.81612e-09
7.36399e-08
-1.46129e-10
-5.03653e-09
7.48338e-08
-2.073e-10
-5.12466e-09
7.57398e-08
-2.68063e-10
-5.08809e-09
7.64266e-08
-3.2684e-10
-4.92662e-09
7.69453e-08
-3.80168e-10
-4.65252e-09
7.73364e-08
-4.26851e-10
-4.2797e-09
7.76283e-08
-4.63915e-10
-3.82501e-09
7.78434e-08
-4.90833e-10
-3.30843e-09
7.79949e-08
-5.05456e-10
-2.75105e-09
7.80917e-08
-5.0814e-10
-2.17159e-09
7.81348e-08
-4.97634e-10
-1.59796e-09
7.81214e-08
-4.75279e-10
-1.04364e-09
7.8041e-08
-4.40825e-10
-5.3167e-10
7.78784e-08
-3.96576e-10
-7.70418e-11
7.76095e-08
-3.4316e-10
3.02959e-10
7.7204e-08
-2.83642e-10
6.07531e-10
7.66193e-08
-2.19284e-10
8.22543e-10
7.58025e-08
-1.53598e-10
9.4895e-10
7.46824e-08
-8.81437e-11
9.91522e-10
7.31692e-08
-2.64946e-11
9.54605e-10
7.11433e-08
2.97977e-11
8.52033e-10
6.84506e-08
7.74029e-11
6.92516e-10
6.48861e-08
1.15075e-10
4.99322e-10
6.01807e-08
1.39324e-10
2.97717e-10
5.39763e-08
1.46497e-10
1.16504e-10
4.57966e-08
1.30832e-10
2.80559e-08
8.48403e-11
1.90097e-10
2.83732e-08
-1.01971e-09
-5.18949e-11
4.62965e-08
-1.12402e-09
-4.87881e-10
5.45812e-08
-1.16712e-09
-1.03253e-09
6.08599e-08
-1.21797e-09
-1.61961e-09
6.56194e-08
-1.27668e-09
-2.19935e-09
6.92243e-08
-1.34058e-09
-2.73147e-09
7.19505e-08
-1.40996e-09
-3.18373e-09
7.40064e-08
-1.48336e-09
-3.53429e-09
7.55512e-08
-1.56005e-09
-3.76856e-09
7.67056e-08
-1.63723e-09
-3.87962e-09
7.75638e-08
-1.71326e-09
-3.86471e-09
7.81969e-08
-1.78485e-09
-3.73034e-09
7.86612e-08
-1.85024e-09
-3.48535e-09
7.89981e-08
-1.90635e-09
-3.14553e-09
7.92406e-08
-1.95184e-09
-2.72892e-09
7.9411e-08
-1.98428e-09
-2.25757e-09
7.95258e-08
-2.00311e-09
-1.75043e-09
7.95931e-08
-2.00683e-09
-1.23803e-09
7.96162e-08
-1.99596e-09
-7.35421e-10
7.95907e-08
-1.97006e-09
-2.71534e-10
7.95071e-08
-1.93073e-09
1.38718e-10
7.93479e-08
-1.87856e-09
4.74074e-10
7.90893e-08
-1.81606e-09
7.2591e-10
7.86973e-08
-1.74462e-09
8.84263e-10
7.81292e-08
-1.66736e-09
9.43552e-10
7.73272e-08
-1.58608e-09
9.127e-10
7.6219e-08
-1.50405e-09
7.94963e-10
7.47088e-08
-1.42292e-09
6.10518e-10
7.26743e-08
-1.34546e-09
3.79625e-10
6.99543e-08
-1.27231e-09
1.3092e-10
6.63383e-08
-1.20482e-09
-9.35012e-11
6.15479e-08
-1.14191e-09
-2.49544e-10
5.5215e-08
-1.08328e-09
-2.77211e-10
4.68489e-08
-1.02554e-09
2.8687e-08
-9.07225e-10
4.75655e-10
2.95912e-08
-1.69212e-09
4.20762e-10
4.82703e-08
-1.92128e-09
1.30796e-10
5.68931e-08
-2.02132e-09
-3.08019e-10
6.34112e-08
-2.11238e-09
-8.21913e-10
6.83326e-08
-2.1998e-09
-1.35185e-09
7.20417e-08
-2.2869e-09
-1.85356e-09
7.48264e-08
-2.37508e-09
-2.28958e-09
7.69073e-08
-2.46524e-09
-2.63288e-09
7.84512e-08
-2.55622e-09
-2.86714e-09
7.95872e-08
-2.64678e-09
-2.98451e-09
8.0414e-08
-2.73423e-09
-2.9796e-09
8.10091e-08
-2.81658e-09
-2.85845e-09
8.14311e-08
-2.89083e-09
-2.6331e-09
8.17267e-08
-2.95505e-09
-2.31427e-09
8.19297e-08
-3.00661e-09
-1.92663e-09
8.20662e-08
-3.0442e-09
-1.48763e-09
8.21528e-08
-3.066e-09
-1.0234e-09
8.22001e-08
-3.07169e-09
-5.56744e-10
8.22102e-08
-3.06051e-09
-1.10932e-10
8.21802e-08
-3.03328e-09
2.86181e-10
8.20986e-08
-2.99037e-09
6.19577e-10
8.19482e-08
-2.93365e-09
8.71294e-10
8.1702e-08
-2.86448e-09
1.02908e-09
8.13255e-08
-2.78552e-09
1.08598e-09
8.07711e-08
-2.69874e-09
1.04042e-09
7.99794e-08
-2.60717e-09
9.00145e-10
7.8872e-08
-2.51281e-09
6.77691e-10
7.73495e-08
-2.41832e-09
3.9516e-10
7.52816e-08
-2.32489e-09
8.2952e-11
7.25006e-08
-2.23364e-09
-2.20405e-10
6.87848e-08
-2.14364e-09
-4.64631e-10
6.38445e-08
-2.05291e-09
-5.8726e-10
5.72938e-08
-1.9561e-09
-5.14983e-10
4.86226e-08
-1.84547e-09
2.97777e-08
-1.60634e-09
5.36155e-10
3.10202e-08
-1.96665e-09
5.47946e-10
5.05084e-08
-2.24782e-09
3.17025e-10
5.94964e-08
-2.37316e-09
-6.60619e-11
6.62762e-08
-2.4819e-09
-5.30198e-10
7.13795e-08
-2.58271e-09
-1.01685e-09
7.52088e-08
-2.68032e-09
-1.47928e-09
7.80672e-08
-2.77787e-09
-1.88254e-09
8.01858e-08
-2.87598e-09
-2.19745e-09
8.17413e-08
-2.97449e-09
-2.40848e-09
8.28696e-08
-3.07157e-09
-2.50332e-09
8.36761e-08
-3.16536e-09
-2.48599e-09
8.42423e-08
-3.25311e-09
-2.35288e-09
8.46322e-08
-3.33255e-09
-2.11977e-09
8.48945e-08
-3.40095e-09
-1.80161e-09
8.5067e-08
-3.45639e-09
-1.41458e-09
8.51768e-08
-3.49674e-09
-9.83882e-10
8.52429e-08
-3.52091e-09
-5.31966e-10
8.52758e-08
-3.52778e-09
-8.39557e-11
8.52794e-08
-3.51736e-09
3.3693e-10
8.52493e-08
-3.48965e-09
7.07212e-10
8.51746e-08
-3.44584e-09
1.00648e-09
8.50355e-08
-3.38702e-09
1.22128e-09
8.48046e-08
-3.31535e-09
1.33387e-09
8.44435e-08
-3.23277e-09
1.34508e-09
8.39031e-08
-3.14203e-09
1.25054e-09
8.31188e-08
-3.04541e-09
1.06029e-09
8.20088e-08
-2.94568e-09
7.87521e-10
8.04668e-08
-2.84466e-09
4.57731e-10
7.83566e-08
-2.74417e-09
1.01243e-10
7.55009e-08
-2.64435e-09
-2.37095e-10
7.16679e-08
-2.54455e-09
-5.0456e-10
6.65538e-08
-2.44128e-09
-6.37896e-10
5.97549e-08
-2.3284e-09
-5.57098e-10
5.07386e-08
-2.19565e-09
3.11274e-08
-1.90721e-09
4.35704e-10
3.24501e-08
-1.86556e-09
4.04263e-10
5.26666e-08
-2.12794e-09
1.6487e-10
6.19841e-08
-2.24679e-09
-2.08931e-10
6.90012e-08
-2.35206e-09
-6.47839e-10
7.42694e-08
-2.45057e-09
-1.1009e-09
7.82088e-08
-2.54713e-09
-1.52382e-09
8.11344e-08
-2.64408e-09
-1.88501e-09
8.32884e-08
-2.74226e-09
-2.15598e-09
8.4855e-08
-2.84091e-09
-2.32665e-09
8.59773e-08
-2.93856e-09
-2.38302e-09
8.67658e-08
-3.03283e-09
-2.32689e-09
8.73073e-08
-3.12137e-09
-2.16194e-09
8.76688e-08
-3.20144e-09
-1.89838e-09
8.79028e-08
-3.27073e-09
-1.55507e-09
8.80489e-08
-3.32686e-09
-1.14586e-09
8.81369e-08
-3.36814e-09
-6.96845e-10
8.81865e-08
-3.39302e-09
-2.29989e-10
8.82098e-08
-3.40082e-09
2.29736e-10
8.82102e-08
-3.39107e-09
6.59741e-10
8.8184e-08
-3.36425e-09
1.03706e-09
8.81187e-08
-3.32105e-09
1.34189e-09
8.79943e-08
-3.26303e-09
1.55807e-09
8.77807e-08
-3.1919e-09
1.67227e-09
8.7438e-08
-3.11003e-09
1.68169e-09
8.69133e-08
-3.01975e-09
1.58544e-09
8.61393e-08
-2.9238e-09
1.39097e-09
8.50289e-08
-2.82453e-09
1.10951e-09
8.34715e-08
-2.72429e-09
7.68521e-10
8.13234e-08
-2.62455e-09
3.94949e-10
7.84001e-08
-2.52605e-09
3.12516e-11
7.44592e-08
-2.42794e-09
-2.72265e-10
6.91851e-08
-2.32762e-09
-4.54376e-10
6.21574e-08
-2.21937e-09
-4.46197e-10
5.28239e-08
-2.09527e-09
3.25097e-08
-1.82736e-09
2.25549e-10
3.37178e-08
-1.49237e-09
8.70528e-11
5.44868e-08
-1.682e-09
-2.13549e-10
6.40545e-08
-1.77068e-09
-6.07858e-10
7.1251e-08
-1.85608e-09
-1.03944e-09
7.66429e-08
-1.94074e-09
-1.46672e-09
8.06622e-08
-2.02691e-09
-1.84915e-09
8.36341e-08
-2.11589e-09
-2.16326e-09
8.58086e-08
-2.20757e-09
-2.3834e-09
8.73767e-08
-2.30093e-09
-2.49958e-09
8.84868e-08
-2.394e-09
-2.50176e-09
8.92542e-08
-2.48447e-09
-2.39585e-09
8.97691e-08
-2.5697e-09
-2.18123e-09
9.01022e-08
-2.64713e-09
-1.87324e-09
9.03085e-08
-2.71423e-09
-1.48526e-09
9.043e-08
-2.76886e-09
-1.03623e-09
9.04978e-08
-2.80913e-09
-5.50204e-10
9.05334e-08
-2.83372e-09
-4.85594e-11
9.05491e-08
-2.84172e-09
4.46226e-10
9.05492e-08
-2.83291e-09
9.06712e-10
9.05292e-08
-2.80752e-09
1.31753e-09
9.04765e-08
-2.76644e-09
1.65291e-09
9.03695e-08
-2.711e-09
1.89895e-09
9.01768e-08
-2.64308e-09
2.04593e-09
8.98563e-08
-2.56483e-09
2.08448e-09
8.93527e-08
-2.47879e-09
2.01709e-09
8.85952e-08
-2.38748e-09
1.84526e-09
8.74933e-08
-2.29356e-09
1.58475e-09
8.59316e-08
-2.19931e-09
1.25298e-09
8.37616e-08
-2.1067e-09
8.78509e-10
8.07919e-08
-2.01672e-09
4.95664e-10
7.67725e-08
-1.92947e-09
1.44149e-10
7.13781e-08
-1.84347e-09
-1.18374e-10
6.4176e-08
-1.75582e-09
-2.29199e-10
5.45999e-08
-1.66321e-09
3.37478e-08
-1.46908e-09
-2.06277e-11
3.47173e-08
-9.7877e-10
-2.93713e-10
5.58257e-08
-1.06689e-09
-6.72756e-10
6.55466e-08
-1.11242e-09
-1.10386e-09
7.28505e-08
-1.16912e-09
-1.53871e-09
7.83125e-08
-1.23329e-09
-1.9469e-09
8.23725e-08
-1.30385e-09
-2.29561e-09
8.53621e-08
-1.38032e-09
-2.56023e-09
8.75365e-08
-1.46165e-09
-2.72818e-09
8.9091e-08
-1.54616e-09
-2.78818e-09
9.01784e-08
-1.63156e-09
-2.73712e-09
9.09171e-08
-1.71529e-09
-2.57205e-09
9.14007e-08
-1.79469e-09
-2.30754e-09
9.17022e-08
-1.86714e-09
-1.94618e-09
9.18791e-08
-1.93018e-09
-1.5102e-09
9.19752e-08
-1.98164e-09
-1.0152e-09
9.2023e-08
-2.01974e-09
-4.83794e-10
9.20452e-08
-2.04312e-09
6.26681e-11
9.20547e-08
-2.05098e-09
5.98458e-10
9.20559e-08
-2.04301e-09
1.10369e-09
9.20443e-08
-2.01952e-09
1.55249e-09
9.20067e-08
-1.9813e-09
1.93303e-09
9.19205e-08
-1.92968e-09
2.2224e-09
9.1753e-08
-1.86647e-09
2.41407e-09
9.146e-08
-1.79381e-09
2.49539e-09
9.09843e-08
-1.71417e-09
2.46883e-09
9.02524e-08
-1.63014e-09
2.33531e-09
8.9171e-08
-1.54439e-09
2.10598e-09
8.76211e-08
-1.45946e-09
1.79484e-09
8.54503e-08
-1.37761e-09
1.42387e-09
8.2463e-08
-1.30052e-09
1.02332e-09
7.84037e-08
-1.2292e-09
6.22171e-10
7.29411e-08
-1.16402e-09
2.69154e-10
6.56351e-08
-1.10554e-09
1.61663e-11
5.59107e-08
-1.05691e-09
3.47288e-08
-9.65012e-10
-2.47487e-10
3.54138e-08
-4.50741e-10
-6.4297e-10
5.66575e-08
-4.33544e-10
-1.10201e-09
6.64376e-08
-4.33882e-10
-1.56922e-09
7.37787e-08
-4.6023e-10
-2.01371e-09
7.92587e-08
-5.02411e-10
-2.40425e-09
8.33206e-08
-5.55915e-10
-2.72295e-09
8.62986e-08
-6.18439e-10
-2.9509e-09
8.84509e-08
-6.87986e-10
-3.07141e-09
8.99756e-08
-7.6222e-10
-3.0828e-09
9.1028e-08
-8.3855e-10
-2.98033e-09
9.1729e-08
-9.14223e-10
-2.76653e-09
9.21745e-08
-9.86548e-10
-2.45279e-09
9.24397e-08
-1.05288e-09
-2.04617e-09
9.25838e-08
-1.11085e-09
-1.56485e-09
9.26523e-08
-1.1583e-09
-1.02677e-09
9.2679e-08
-1.19355e-09
-4.53177e-10
9.26872e-08
-1.21526e-09
1.32328e-10
9.2691e-08
-1.22269e-09
7.09695e-10
9.26945e-08
-1.21552e-09
1.2541e-09
9.26934e-08
-1.19405e-09
1.74649e-09
9.26736e-08
-1.15903e-09
2.16698e-09
9.26119e-08
-1.11178e-09
2.50001e-09
9.24741e-08
-1.05398e-09
2.73399e-09
9.22148e-08
-9.8778e-10
2.85739e-09
9.17747e-08
-9.15527e-10
2.87341e-09
9.10786e-08
-8.39862e-10
2.77715e-09
9.00304e-08
-7.63465e-10
2.57698e-09
8.85092e-08
-6.89078e-10
2.28774e-09
8.63598e-08
-6.19268e-10
1.92296e-09
8.33839e-08
-5.56361e-10
1.50568e-09
7.93235e-08
-5.02322e-10
1.06071e-09
7.38444e-08
-4.59354e-10
6.24861e-10
6.65034e-08
-4.31565e-10
2.40623e-10
5.67229e-08
-4.28707e-10
3.5413e-08
-4.42771e-10
-4.10537e-10
3.58226e-08
1.66415e-12
-8.99914e-10
5.70408e-08
1.06166e-10
-1.41493e-09
6.6806e-08
1.44551e-10
-1.90665e-09
7.41279e-08
1.44781e-10
-2.35407e-09
7.95831e-08
1.22243e-10
-2.73295e-09
8.36142e-08
8.45766e-11
-3.02541e-09
8.65563e-08
3.58826e-11
-3.22179e-09
8.8668e-08
-2.21451e-11
-3.30799e-09
9.0149e-08
-8.68369e-11
-3.28266e-09
9.11558e-08
-1.54107e-10
-3.14243e-09
9.18113e-08
-2.21628e-10
-2.89408e-09
9.22127e-08
-2.86642e-10
-2.54614e-09
9.24373e-08
-3.46649e-10
-2.10823e-09
9.25454e-08
-3.9926e-10
-1.59751e-09
9.25842e-08
-4.42504e-10
-1.03093e-09
9.25884e-08
-4.74662e-10
-4.33846e-10
9.25824e-08
-4.94572e-10
1.78601e-10
9.25804e-08
-5.01409e-10
7.81088e-10
9.25872e-08
-4.94978e-10
1.35213e-09
9.25978e-08
-4.75472e-10
1.87062e-09
9.25982e-08
-4.4369e-10
2.31914e-09
9.25638e-08
-4.00803e-10
2.68105e-09
9.24599e-08
-3.48506e-10
2.9464e-09
9.22393e-08