/*--------------------------------*- C++ -*----------------------------------*\
| =========                 |                                                 |
| \\      /  F ield         | OpenFOAM: The Open Source CFD Toolbox           |
|  \\    /   O peration     | Version:  v2012                                 |
|   \\  /    A nd           | Website:  www.openfoam.com                      |
|    \\/     M anipulation  |                                                 |
\*---------------------------------------------------------------------------*/
FoamFile
{
    version     2.0;
    format      ascii;
    class       volVectorField;
    location    "79";
    object      U;
}
// * * * * * * * * * * * * * * * * * * * * * * * * * * * * * * * * * * * * * //

dimensions      [0 1 -1 0 0 0 0];


internalField   nonuniform List<vector> 
78750
(
(-1.19187e-06 -6.47711e-05 0.000126221)
(-2.61178e-06 -9.247e-05 0.000220963)
(-8.23741e-06 -9.65272e-05 0.00026957)
(-1.72095e-05 -9.13293e-05 0.000303171)
(-2.97956e-05 -8.08279e-05 0.000325082)
(-4.54685e-05 -6.74196e-05 0.000337965)
(-6.35676e-05 -5.28485e-05 0.000343776)
(-8.33456e-05 -3.82544e-05 0.000344087)
(-0.000104094 -2.4525e-05 0.000340061)
(-0.000125244 -1.20502e-05 0.00033266)
(-0.000146192 -1.22426e-06 0.000322602)
(-0.000166423 7.84012e-06 0.000310529)
(-0.0001855 1.50288e-05 0.000296898)
(-0.000203004 2.04052e-05 0.000282158)
(-0.000218599 2.39679e-05 0.000266637)
(-0.000231985 2.58494e-05 0.000250685)
(-0.000242918 2.60925e-05 0.000234573)
(-0.000251198 2.48517e-05 0.000218607)
(-0.000256676 2.21841e-05 0.000203033)
(-0.000259243 1.82429e-05 0.000188137)
(-0.000258832 1.30979e-05 0.000174148)
(-0.000255411 6.91309e-06 0.000161323)
(-0.000248981 -2.16699e-07 0.000149861)
(-0.000239582 -8.11426e-06 0.000139962)
(-0.000227298 -1.66448e-05 0.000131745)
(-0.000212247 -2.55757e-05 0.000125294)
(-0.000194582 -3.46756e-05 0.000120569)
(-0.000174475 -4.35789e-05 0.000117428)
(-0.000152152 -5.18747e-05 0.000115563)
(-0.000127899 -5.89562e-05 0.00011445)
(-0.000101937 -6.4064e-05 0.000113231)
(-7.44097e-05 -6.61158e-05 0.000110595)
(-4.62262e-05 -6.3657e-05 0.000104628)
(-2.30133e-05 -5.47405e-05 9.2427e-05)
(-6.22911e-06 -3.15294e-05 5.96794e-05)
(-2.44357e-06 9.6395e-05 -0.000186226)
(-1.73013e-05 0.000201425 -0.000281393)
(-3.39923e-05 0.000258331 -0.00031661)
(-5.85669e-05 0.000304273 -0.000346111)
(-8.47853e-05 0.000339695 -0.000369963)
(-0.000110913 0.00036546 -0.000388482)
(-0.000136172 0.000383123 -0.000402873)
(-0.000160032 0.000393461 -0.000414553)
(-0.000181983 0.000397788 -0.000423951)
(-0.00020171 0.000396582 -0.000431724)
(-0.000218968 0.00039091 -0.000437919)
(-0.00023359 0.000381083 -0.000442949)
(-0.000245538 0.000367937 -0.000446765)
(-0.000254758 0.000351685 -0.000449672)
(-0.000261242 0.000333107 -0.000451546)
(-0.000265054 0.000312316 -0.000452647)
(-0.000266227 0.00029 -0.000452836)
(-0.000264881 0.000266239 -0.000452332)
(-0.0002611 0.000241644 -0.000450995)
(-0.000255011 0.00021628 -0.000448997)
(-0.000246785 0.000190579 -0.000446236)
(-0.000236577 0.000164603 -0.000442837)
(-0.000224535 0.000138831 -0.000438638)
(-0.000210866 0.000113314 -0.000433697)
(-0.00019574 8.84614e-05 -0.000427812)
(-0.000179368 6.4321e-05 -0.000420959)
(-0.000161918 4.12549e-05 -0.000412745)
(-0.000143609 1.93191e-05 -0.000402782)
(-0.000124643 -1.14493e-06 -0.000390275)
(-0.000105228 -2.00387e-05 -0.000374231)
(-8.5427e-05 -3.69419e-05 -0.000352991)
(-6.50069e-05 -5.14321e-05 -0.000323613)
(-4.39586e-05 -6.2181e-05 -0.000279162)
(-2.67481e-05 -6.60337e-05 -0.000211341)
(-1.46623e-05 -4.59343e-05 -7.44091e-05)
(-2.83831e-07 0.000258558 -0.000145344)
(-8.58635e-06 0.00044304 -0.000237031)
(-1.5681e-05 0.000523877 -0.000274202)
(-2.68351e-05 0.000581058 -0.000299003)
(-3.86122e-05 0.000619675 -0.000316381)
(-5.01101e-05 0.000644257 -0.000328906)
(-6.10667e-05 0.000657383 -0.000338464)
(-7.12416e-05 0.000661749 -0.000345844)
(-8.04669e-05 0.000658674 -0.00035191)
(-8.85922e-05 0.000649883 -0.000356831)
(-9.55606e-05 0.000636049 -0.00036106)
(-0.000101294 0.000618396 -0.000364507)
(-0.000105816 0.000597264 -0.000367465)
(-0.000109104 0.000573599 -0.000369761)
(-0.000111219 0.000547581 -0.000371617)
(-0.00011217 0.000519994 -0.000372846)
(-0.00011204 0.00049094 -0.000373638)
(-0.000110846 0.000461082 -0.000373824)
(-0.000108697 0.000430585 -0.000373492)
(-0.000105649 0.000399949 -0.000372534)
(-0.000101787 0.000369251 -0.000371091)
(-9.71992e-05 0.00033898 -0.000369005)
(-9.20066e-05 0.000309164 -0.000366372)
(-8.62755e-05 0.00028022 -0.000363018)
(-8.01243e-05 0.000252146 -0.000358981)
(-7.36058e-05 0.000225279 -0.000354019)
(-6.68156e-05 0.000199582 -0.000348015)
(-5.97853e-05 0.000175304 -0.000340514)
(-5.26001e-05 0.000152364 -0.000331034)
(-4.5275e-05 0.000130917 -0.000318608)
(-3.78284e-05 0.000110803 -0.00030187)
(-3.00405e-05 9.20557e-05 -0.000278177)
(-2.16482e-05 7.43267e-05 -0.000242979)
(-1.37865e-05 5.75254e-05 -0.000190894)
(-9.17506e-06 3.13458e-05 -7.58323e-05)
(-4.49895e-07 0.00034322 -1.46943e-05)
(-4.16325e-06 0.000565901 -7.4908e-05)
(-5.08829e-06 0.000664695 -0.000109455)
(-7.6163e-06 0.000734725 -0.000133811)
(-1.04183e-05 0.00078278 -0.000150019)
(-1.3331e-05 0.000813516 -0.000162165)
(-1.62293e-05 0.000830956 -0.000172112)
(-1.90709e-05 0.000837583 -0.000180997)
(-2.17299e-05 0.000835914 -0.000189123)
(-2.4171e-05 0.000827268 -0.000197003)
(-2.6311e-05 0.000813316 -0.000204602)
(-2.81448e-05 0.000794759 -0.00021219)
(-2.96231e-05 0.000772795 -0.000219582)
(-3.07725e-05 0.0007478 -0.00022694)
(-3.15688e-05 0.000720698 -0.000234029)
(-3.20552e-05 0.000691695 -0.000240964)
(-3.22307e-05 0.000661534 -0.000247512)
(-3.21441e-05 0.000630336 -0.000253763)
(-3.18114e-05 0.000598697 -0.000259511)
(-3.12792e-05 0.00056675 -0.00026479)
(-3.05609e-05 0.00053515 -0.000269316)
(-2.9733e-05 0.000503908 -0.000273161)
(-2.8807e-05 0.000473413 -0.000276143)
(-2.78378e-05 0.000443621 -0.000278298)
(-2.68343e-05 0.000414836 -0.00027941)
(-2.58263e-05 0.000386825 -0.000279529)
(-2.47905e-05 0.000359751 -0.000278372)
(-2.37288e-05 0.000333359 -0.00027579)
(-2.25691e-05 0.000307581 -0.000271315)
(-2.12643e-05 0.000281931 -0.000264462)
(-1.96485e-05 0.000255979 -0.000254311)
(-1.74221e-05 0.00022883 -0.000239922)
(-1.39864e-05 0.000199403 -0.000219664)
(-9.61195e-06 0.000166123 -0.00018887)
(-7.21319e-06 0.000101738 -0.000100654)
(-2.12268e-06 0.000369996 6.24429e-05)
(-4.57035e-06 0.000594649 3.02572e-05)
(-3.29618e-06 0.000695695 2.38386e-06)
(-1.93115e-06 0.000768965 -1.82668e-05)
(-8.14353e-08 0.000820509 -3.19943e-05)
(1.99206e-06 0.000855456 -4.2407e-05)
(4.13357e-06 0.000877112 -5.16128e-05)
(6.24732e-06 0.000888588 -6.01916e-05)
(8.27108e-06 0.00089168 -6.86793e-05)
(1.01746e-05 0.000888381 -7.70359e-05)
(1.19166e-05 0.000879668 -8.55537e-05)
(1.3482e-05 0.000866895 -9.41215e-05)
(1.48364e-05 0.000850587 -0.000102879)
(1.59817e-05 0.000831734 -0.000111621)
(1.68837e-05 0.000810613 -0.000120429)
(1.7544e-05 0.000787993 -0.00012907)
(1.79217e-05 0.000764011 -0.0001376)
(1.80256e-05 0.000739284 -0.000145788)
(1.78151e-05 0.000713872 -0.000153676)
(1.72955e-05 0.000688307 -0.000161037)
(1.64385e-05 0.000662608 -0.000167894)
(1.52713e-05 0.000637164 -0.000174052)
(1.3779e-05 0.000611889 -0.000179542)
(1.1994e-05 0.000587042 -0.000184182)
(9.91669e-06 0.000562429 -0.00018799)
(7.59766e-06 0.000538134 -0.000190787)
(5.0642e-06 0.000513788 -0.000192558)
(2.40484e-06 0.000489207 -0.000193087)
(-2.99996e-07 0.00046371 -0.000192251)
(-2.89803e-06 0.000436669 -0.000189655)
(-5.22706e-06 0.000406839 -0.000184983)
(-6.93683e-06 0.000372825 -0.000178126)
(-7.36357e-06 0.000332251 -0.000169453)
(-5.89452e-06 0.000282379 -0.000154828)
(-5.2897e-06 0.000178493 -9.25661e-05)
(-2.38394e-06 0.000374918 9.48234e-05)
(-3.87207e-06 0.000588979 7.88212e-05)
(-2.21912e-06 0.000686678 5.72268e-05)
(7.27909e-08 0.000758703 4.03508e-05)
(3.09648e-06 0.000811184 2.91205e-05)
(6.4737e-06 0.000848246 2.02267e-05)
(9.98083e-06 0.000873521 1.2189e-05)
(1.34618e-05 0.000889269 4.38453e-06)
(1.682e-05 0.000897733 -3.28147e-06)
(1.99582e-05 0.000900166 -1.11894e-05)
(2.2826e-05 0.000898016 -1.92962e-05)
(2.53677e-05 0.000891924 -2.77082e-05)
(2.75592e-05 0.000882902 -3.62566e-05)
(2.93559e-05 0.000871291 -4.49785e-05)
(3.07503e-05 0.000857846 -5.37005e-05)
(3.17084e-05 0.000842731 -6.24457e-05)
(3.22316e-05 0.000826537 -7.10179e-05)
(3.22913e-05 0.000809319 -7.94377e-05)
(3.19026e-05 0.000791545 -8.75135e-05)
(3.10423e-05 0.000773193 -9.52631e-05)
(2.9736e-05 0.000754615 -0.000102509)
(2.79791e-05 0.000735716 -0.000109271)
(2.58067e-05 0.000716737 -0.000115381)
(2.32297e-05 0.000697477 -0.000120861)
(2.03017e-05 0.000678 -0.000125559)
(1.70544e-05 0.000657911 -0.000129499)
(1.35744e-05 0.000636999 -0.000132541)
(9.93261e-06 0.000614559 -0.000134696)
(6.26626e-06 0.00058994 -0.000135784)
(2.70312e-06 0.000561892 -0.000135705)
(-5.60954e-07 0.000528989 -0.000134231)
(-3.23279e-06 0.000489006 -0.000131805)
(-4.67826e-06 0.000439124 -0.000129322)
(-4.23706e-06 0.000375371 -0.000123438)
(-4.06546e-06 0.000239136 -7.90454e-05)
(-1.8185e-06 0.000363692 9.44755e-05)
(-2.43511e-06 0.000566078 8.53111e-05)
(-8.9258e-07 0.000659279 6.85262e-05)
(1.36632e-06 0.000729353 5.51977e-05)
(4.24276e-06 0.000781586 4.62312e-05)
(7.41908e-06 0.000820223 3.91365e-05)
(1.07161e-05 0.000848135 3.2551e-05)
(1.40064e-05 0.00086787 2.61498e-05)
(1.71831e-05 0.00088097 1.9677e-05)
(2.01698e-05 0.000888993 1.31542e-05)
(2.28987e-05 0.000892758 6.45519e-06)
(2.53225e-05 0.000893324 -3.46535e-07)
(2.74018e-05 0.000891111 -7.34258e-06)
(2.91055e-05 0.000886853 -1.4408e-05)
(3.03992e-05 0.000880738 -2.15536e-05)
(3.12778e-05 0.000873311 -2.86396e-05)
(3.17163e-05 0.000864627 -3.5682e-05)
(3.17143e-05 0.000855104 -4.25283e-05)
(3.12622e-05 0.000844709 -4.91929e-05)
(3.03745e-05 0.000833753 -5.55313e-05)
(2.90443e-05 0.000822119 -6.15604e-05)
(2.73006e-05 0.000810008 -6.7147e-05)
(2.51519e-05 0.000797197 -7.23133e-05)
(2.26432e-05 0.000783735 -7.69387e-05)
(1.98033e-05 0.000769232 -8.10512e-05)
(1.66971e-05 0.000753505 -8.45427e-05)
(1.33814e-05 0.000735883 -8.74464e-05)
(9.95564e-06 0.000715794 -8.96631e-05)
(6.51747e-06 0.000692071 -9.12023e-05)
(3.20692e-06 0.000663467 -9.19029e-05)
(1.74877e-07 0.000627931 -9.17703e-05)
(-2.31375e-06 0.000583025 -9.1203e-05)
(-3.75184e-06 0.000525095 -9.13084e-05)
(-3.55899e-06 0.000449578 -8.93703e-05)
(-3.30932e-06 0.000285913 -5.80491e-05)
(-1.13076e-06 0.000349332 7.92205e-05)
(-1.25408e-06 0.000545332 7.31423e-05)
(-2.4087e-07 0.000636278 6.09313e-05)
(1.26392e-06 0.000705293 5.10672e-05)
(3.14618e-06 0.000757805 4.44091e-05)
(5.2239e-06 0.00079752 3.90433e-05)
(7.37965e-06 0.000827578 3.41227e-05)
(9.54832e-06 0.000849985 2.92985e-05)
(1.16544e-05 0.000866604 2.45232e-05)
(1.36423e-05 0.000878498 1.9657e-05)
(1.54644e-05 0.000886827 1.47335e-05)
(1.70848e-05 0.000892127 9.68375e-06)
(1.84659e-05 0.00089516 4.60289e-06)
(1.95844e-05 0.000896173 -5.59199e-07)
(2.04243e-05 0.000895697 -5.69633e-06)
(2.0961e-05 0.000893805 -1.08349e-05)
(2.11915e-05 0.000890887 -1.58589e-05)
(2.11033e-05 0.000886908 -2.07928e-05)
(2.07006e-05 0.00088215 -2.55242e-05)
(1.99787e-05 0.000876492 -3.00799e-05)
(1.89531e-05 0.000870114 -3.43533e-05)
(1.76303e-05 0.000862796 -3.83764e-05)
(1.60378e-05 0.000854589 -4.20503e-05)
(1.41929e-05 0.000845132 -4.54131e-05)
(1.21389e-05 0.000834282 -4.83737e-05)
(9.91234e-06 0.000821441 -5.09763e-05)
(7.57505e-06 0.000806143 -5.31383e-05)
(5.18534e-06 0.000787382 -5.4908e-05)
(2.83607e-06 0.000764126 -5.61909e-05)
(6.20622e-07 0.000734645 -5.69901e-05)
(-1.33878e-06 0.000696908 -5.72196e-05)
(-2.85471e-06 0.000647892 -5.73024e-05)
(-3.55471e-06 0.000583768 -5.79936e-05)
(-3.14058e-06 0.000499195 -5.74111e-05)
(-2.60606e-06 0.000315091 -3.59234e-05)
(-8.72365e-07 0.000335456 6.29281e-05)
(-9.7648e-07 0.000529624 6.09243e-05)
(-6.01046e-07 0.000619891 5.37572e-05)
(-2.3796e-08 0.000688928 4.77709e-05)
(7.6884e-07 0.000741803 4.3575e-05)
(1.68616e-06 0.000782544 4.01269e-05)
(2.67256e-06 0.000813899 3.68517e-05)
(3.68735e-06 0.000838199 3.36585e-05)
(4.69567e-06 0.000856905 3.04447e-05)
(5.66354e-06 0.000871405 2.72355e-05)
(6.5684e-06 0.000882446 2.39562e-05)
(7.3834e-06 0.000890892 2.0667e-05)
(8.07981e-06 0.000897093 1.73261e-05)
(8.64932e-06 0.00090162 1.3992e-05)
(9.07242e-06 0.000904598 1.063e-05)
(9.34445e-06 0.000906412 7.32355e-06)
(9.44765e-06 0.000907052 4.06967e-06)
(9.37871e-06 0.000906788 9.5222e-07)
(9.13504e-06 0.000905511 -2.07068e-06)
(8.72173e-06 0.000903393 -4.9149e-06)
(8.13601e-06 0.000900231 -7.6241e-06)
(7.39311e-06 0.000896089 -1.01181e-05)
(6.50144e-06 0.000890641 -1.24453e-05)
(5.48503e-06 0.000883794 -1.45307e-05)
(4.36197e-06 0.000875033 -1.6428e-05)
(3.16458e-06 0.000864007 -1.80686e-05)
(1.92623e-06 0.000849874 -1.9512e-05)
(6.93296e-07 0.000831842 -2.06969e-05)
(-4.84187e-07 0.000808489 -2.16782e-05)
(-1.54235e-06 0.000778247 -2.23749e-05)
(-2.41125e-06 0.000738653 -2.28558e-05)
(-2.97446e-06 0.000686757 -2.33384e-05)
(-3.01333e-06 0.000618223 -2.44608e-05)
(-2.40971e-06 0.000527617 -2.50029e-05)
(-1.78153e-06 0.000329982 -1.3226e-05)
(-1.04404e-06 0.000323603 5.12285e-05)
(-1.43933e-06 0.000517075 5.50355e-05)
(-1.70217e-06 0.000607147 5.3127e-05)
(-1.97225e-06 0.000676077 5.09998e-05)
(-2.08626e-06 0.000729181 4.93391e-05)
(-2.07272e-06 0.00077023 4.77181e-05)
(-1.97818e-06 0.000802256 4.60277e-05)
(-1.81635e-06 0.000827285 4.42141e-05)
(-1.61012e-06 0.000847072 4.23521e-05)
(-1.37113e-06 0.000862677 4.04039e-05)
(-1.12031e-06 0.000875147 3.84362e-05)
(-8.6424e-07 0.000885003 3.64099e-05)
(-6.19196e-07 0.000892896 3.43939e-05)
(-3.99387e-07 0.000899032 3.23828e-05)
(-2.15076e-07 0.000903836 3.04535e-05)
(-7.9639e-08 0.000907363 2.85596e-05)
(1.13979e-08 0.000909902 2.67311e-05)
(4.88115e-08 0.000911376 2.49365e-05)
(3.03232e-08 0.000911962 2.32485e-05)
(-4.48012e-08 0.000911489 2.1623e-05)
(-1.72277e-07 0.000910037 2.01246e-05)
(-3.48771e-07 0.000907331 1.87007e-05)
(-5.70295e-07 0.000903324 1.7412e-05)
(-8.27142e-07 0.00089759 1.62008e-05)
(-1.10668e-06 0.000889884 1.5122e-05)
(-1.39652e-06 0.000879528 1.4112e-05)
(-1.6784e-06 0.000865942 1.32152e-05)
(-1.93564e-06 0.000848009 1.23546e-05)
(-2.14062e-06 0.000824556 1.15619e-05)
(-2.27392e-06 0.000793688 1.07528e-05)
(-2.30653e-06 0.00075317 9.91633e-06)
(-2.19917e-06 0.000699723 8.74745e-06)
(-1.86114e-06 0.000629191 6.80802e-06)
(-1.27506e-06 0.000535813 4.499e-06)
(-8.02725e-07 0.000332494 6.56998e-06)
(-1.35194e-06 0.000312975 4.38971e-05)
(-2.08526e-06 0.000504425 5.36803e-05)
(-2.80232e-06 0.000593467 5.62122e-05)
(-3.65144e-06 0.000661729 5.73523e-05)
(-4.31974e-06 0.000714266 5.77906e-05)
(-4.84006e-06 0.000755063 5.77373e-05)
(-5.24166e-06 0.000786873 5.72854e-05)
(-5.54886e-06 0.000811966 5.65939e-05)
(-5.76636e-06 0.00083181 5.57074e-05)
(-5.90904e-06 0.000847727 5.47286e-05)
(-5.97874e-06 0.00086047 5.36538e-05)
(-5.9912e-06 0.000870831 5.25593e-05)
(-5.94853e-06 0.000879163 5.14222e-05)
(-5.86533e-06 0.00088596 5.03058e-05)
(-5.73985e-06 0.000891344 4.91759e-05)
(-5.58495e-06 0.000895618 4.81058e-05)
(-5.40589e-06 0.000898756 4.70676e-05)
(-5.20692e-06 0.000900961 4.61122e-05)
(-4.98823e-06 0.000902112 4.51955e-05)
(-4.75695e-06 0.000902316 4.43678e-05)
(-4.5125e-06 0.000901356 4.35793e-05)
(-4.25427e-06 0.00089923 4.28766e-05)
(-3.98493e-06 0.000895598 4.22037e-05)
(-3.70032e-06 0.000890308 4.16012e-05)
(-3.40133e-06 0.000882826 4.10055e-05)
(-3.08382e-06 0.000872751 4.04471e-05)
(-2.74839e-06 0.000859223 3.98482e-05)
(-2.39054e-06 0.000841406 3.92185e-05)
(-2.01441e-06 0.000817866 3.84535e-05)
(-1.62087e-06 0.000786995 3.75241e-05)
(-1.22188e-06 0.000746331 3.62535e-05)
(-8.30929e-07 0.000692889 3.44029e-05)
(-4.56522e-07 0.000622352 3.14193e-05)
(-7.13755e-08 0.000529261 2.71978e-05)
(9.14042e-08 0.000326826 2.08886e-05)
(-1.52349e-06 0.000303059 3.74825e-05)
(-2.43582e-06 0.000490372 5.08914e-05)
(-3.37466e-06 0.000577512 5.61216e-05)
(-4.47845e-06 0.000644228 5.9219e-05)
(-5.3892e-06 0.000695662 6.09773e-05)
(-6.12014e-06 0.000735503 6.18628e-05)
(-6.72075e-06 0.000766667 6.22091e-05)
(-7.20571e-06 0.000791148 6.21709e-05)
(-7.58667e-06 0.000810618 6.19102e-05)
(-7.85943e-06 0.000826132 6.14764e-05)
(-8.04472e-06 0.000838669 6.09654e-05)
(-8.13486e-06 0.000848759 6.03826e-05)
(-8.14434e-06 0.00085699 5.97959e-05)
(-8.07105e-06 0.000863595 5.91905e-05)
(-7.92652e-06 0.000868939 5.86216e-05)
(-7.70975e-06 0.000873076 5.8064e-05)
(-7.43103e-06 0.000876234 5.75655e-05)
(-7.09419e-06 0.00087835 5.7093e-05)
(-6.70952e-06 0.000879554 5.66881e-05)
(-6.27488e-06 0.000879688 5.6311e-05)
(-5.80003e-06 0.000878786 5.59971e-05)
(-5.28746e-06 0.000876591 5.57002e-05)
(-4.74151e-06 0.000873016 5.54488e-05)
(-4.16899e-06 0.000867656 5.51889e-05)
(-3.5721e-06 0.000860239 5.49393e-05)
(-2.95929e-06 0.000850124 5.46338e-05)
(-2.33588e-06 0.000836722 5.42729e-05)
(-1.71253e-06 0.000818979 5.37646e-05)
(-1.09944e-06 0.000795751 5.307e-05)
(-5.22146e-07 0.000765248 5.20416e-05)
(-4.64885e-09 0.000725334 5.05428e-05)
(4.04806e-07 0.000672905 4.82247e-05)
(6.52221e-07 0.000604032 4.4577e-05)
(7.91172e-07 0.000513259 3.90691e-05)
(6.81027e-07 0.000316405 2.76023e-05)
(-1.36014e-06 0.000294327 2.9395e-05)
(-2.23619e-06 0.000476711 4.26745e-05)
(-3.13952e-06 0.000561488 4.83873e-05)
(-4.2189e-06 0.000626443 5.19394e-05)
(-5.11701e-06 0.000676424 5.39924e-05)
(-5.85665e-06 0.000715184 5.51466e-05)
(-6.4646e-06 0.000745376 5.57156e-05)
(-6.96839e-06 0.000769133 5.5923e-05)
(-7.35826e-06 0.000787888 5.58726e-05)
(-7.64628e-06 0.000802872 5.56794e-05)
(-7.83173e-06 0.000814836 5.53791e-05)
(-7.92659e-06 0.000824505 5.50431e-05)
(-7.92086e-06 0.000832249 5.46762e-05)
(-7.83155e-06 0.000838504 5.43294e-05)
(-7.65694e-06 0.000843419 5.3993e-05)
(-7.40574e-06 0.000847259 5.37073e-05)
(-7.08127e-06 0.000850034 5.34529e-05)
(-6.69645e-06 0.000851899 5.3263e-05)
(-6.25127e-06 0.000852764 5.31108e-05)
(-5.75463e-06 0.000852692 5.30221e-05)
(-5.21463e-06 0.0008515 5.29635e-05)
(-4.63698e-06 0.00084915 5.29538e-05)
(-4.03161e-06 0.000845345 5.29524e-05)
(-3.40451e-06 0.000839905 5.29699e-05)
(-2.76398e-06 0.000832355 5.29558e-05)
(-2.11785e-06 0.000822287 5.2908e-05)
(-1.47975e-06 0.000808925 5.27587e-05)
(-8.5935e-07 0.000791466 5.2479e-05)
(-2.76911e-07 0.000768607 5.19632e-05)
(2.51844e-07 0.000738837 5.11242e-05)
(6.89996e-07 0.000699918 4.9762e-05)
(9.89808e-07 0.000649071 4.76078e-05)
(1.08637e-06 0.000582373 4.41371e-05)
(1.0657e-06 0.00049477 3.87801e-05)
(8.27167e-07 0.000305028 2.65168e-05)
(-9.10955e-07 0.000287926 1.87584e-05)
(-1.56684e-06 0.00046633 2.81775e-05)
(-2.26544e-06 0.000549275 3.24378e-05)
(-3.12718e-06 0.000612738 3.50762e-05)
(-3.88768e-06 0.000661594 3.65607e-05)
(-4.53307e-06 0.000699358 3.73359e-05)
(-5.08837e-06 0.000728777 3.7682e-05)
(-5.54761e-06 0.000751782 3.77355e-05)
(-5.91966e-06 0.00076994 3.76119e-05)
(-6.19637e-06 0.000784293 3.73656e-05)
(-6.38312e-06 0.00079575 3.7065e-05)
(-6.47391e-06 0.000804857 3.67307e-05)
(-6.48025e-06 0.000812151 3.64089e-05)
(-6.39651e-06 0.000817892 3.61037e-05)
(-6.23643e-06 0.000822405 3.58498e-05)
(-6.00082e-06 0.000825779 3.56415e-05)
(-5.69878e-06 0.000828203 3.55055e-05)
(-5.33685e-06 0.000829655 3.54281e-05)
(-4.92763e-06 0.000830227 3.54287e-05)
(-4.4736e-06 0.000829804 3.54866e-05)
(-3.9879e-06 0.000828386 3.56137e-05)
(-3.48004e-06 0.000825761 3.57826e-05)
(-2.95613e-06 0.000821814 3.59979e-05)
(-2.42728e-06 0.000816196 3.62248e-05)
(-1.8987e-06 0.000808619 3.6459e-05)
(-1.38336e-06 0.000798515 3.66564e-05)
(-8.87514e-07 0.000785305 3.67991e-05)
(-4.25645e-07 0.00076804 3.68246e-05)
(-3.29097e-09 0.000745633 3.66864e-05)
(3.60935e-07 0.000716461 3.62821e-05)
(6.50015e-07 0.000678529 3.54968e-05)
(8.23949e-07 0.000629004 3.41079e-05)
(8.50702e-07 0.000564268 3.17764e-05)
(7.9786e-07 0.000479309 2.8042e-05)
(5.96915e-07 0.000295618 1.9094e-05)
(-3.07785e-07 0.00028521 6.9078e-06)
(-6.83979e-07 0.000462237 1.01948e-05)
(-1.08243e-06 0.000544483 1.18197e-05)
(-1.65989e-06 0.000607406 1.27441e-05)
(-2.22628e-06 0.000655732 1.31014e-05)
(-2.75624e-06 0.000693063 1.31268e-05)
(-3.23148e-06 0.000722007 1.29408e-05)
(-3.65397e-06 0.000744609 1.26261e-05)
(-4.004e-06 0.000762301 1.22226e-05)
(-4.28329e-06 0.000776254 1.17795e-05)
(-4.4803e-06 0.000787245 1.13193e-05)
(-4.59735e-06 0.000795957 1.08777e-05)
(-4.63292e-06 0.000802794 1.04667e-05)
(-4.59531e-06 0.000808159 1.01143e-05)
(-4.48306e-06 0.000812241 9.82566e-06)
(-4.30627e-06 0.000815274 9.6217e-06)
(-4.07293e-06 0.00081731 9.50094e-06)
(-3.7928e-06 0.000818472 9.47764e-06)
(-3.47343e-06 0.000818714 9.54319e-06)
(-3.12806e-06 0.000818064 9.70469e-06)
(-2.76285e-06 0.000816383 9.94664e-06)
(-2.39156e-06 0.000813603 1.02692e-05)
(-2.02326e-06 0.00080947 1.06506e-05)
(-1.66193e-06 0.000803778 1.10849e-05)
(-1.31965e-06 0.000796105 1.15445e-05)
(-1.00041e-06 0.000786024 1.20175e-05)
(-7.1335e-07 0.000772831 1.24711e-05)
(-4.56836e-07 0.000755724 1.28862e-05)
(-2.41161e-07 0.000733502 1.32203e-05)
(-6.31887e-08 0.000704697 1.3441e-05)
(6.96166e-08 0.000667226 1.34841e-05)
(1.56099e-07 0.000618427 1.32772e-05)
(1.86817e-07 0.000554636 1.26824e-05)
(2.16614e-07 0.000471045 1.15387e-05)
(1.42345e-07 0.00029036 8.42338e-06)
(2.56855e-07 0.000286756 -4.04331e-06)
(1.38031e-07 0.000465426 -7.10542e-06)
(1.97118e-08 0.000548412 -8.25736e-06)
(-2.83095e-07 0.000611791 -9.16119e-06)
(-6.76895e-07 0.000660414 -9.9916e-06)
(-1.09722e-06 0.000697842 -1.07771e-05)
(-1.51637e-06 0.000726808 -1.15298e-05)
(-1.90479e-06 0.000749287 -1.22634e-05)
(-2.25135e-06 0.000766833 -1.29755e-05)
(-2.53933e-06 0.000780535 -1.36633e-05)
(-2.76518e-06 0.000791288 -1.43103e-05)
(-2.91634e-06 0.000799684 -1.4907e-05)
(-3.00025e-06 0.000806245 -1.54343e-05)
(-3.01466e-06 0.000811278 -1.5882e-05)
(-2.96824e-06 0.000815086 -1.62331e-05)
(-2.86412e-06 0.000817805 -1.64814e-05)
(-2.71181e-06 0.000819599 -1.6615e-05)
(-2.52383e-06 0.000820489 -1.66334e-05)
(-2.31103e-06 0.000820537 -1.65314e-05)
(-2.08007e-06 0.000819669 -1.63156e-05)
(-1.84627e-06 0.000817851 -1.59873e-05)
(-1.61782e-06 0.000814909 -1.55594e-05)
(-1.4042e-06 0.000810693 -1.50404e-05)
(-1.21502e-06 0.000804889 -1.44473e-05)
(-1.05222e-06 0.000797175 -1.37904e-05)
(-9.23928e-07 0.000787016 -1.30873e-05)
(-8.25228e-07 0.000773805 -1.23474e-05)
(-7.62e-07 0.000756631 -1.15832e-05)
(-7.20479e-07 0.000734386 -1.07947e-05)
(-7.00025e-07 0.000705497 -9.97862e-06)
(-6.83423e-07 0.000667963 -9.11041e-06)
(-6.48921e-07 0.000619023 -8.13999e-06)
(-5.59771e-07 0.000555077 -6.96659e-06)
(-4.09341e-07 0.000471228 -5.4496e-06)
(-3.40884e-07 0.000290042 -2.37075e-06)
(6.52223e-07 0.000292271 -1.21812e-05)
(6.88124e-07 0.000475212 -2.01702e-05)
(7.84628e-07 0.000560114 -2.35236e-05)
(6.78951e-07 0.000624893 -2.58931e-05)
(4.19126e-07 0.000674463 -2.7692e-05)
(8.11286e-08 0.00071255 -2.91422e-05)
(-2.80369e-07 0.000741896 -3.03736e-05)
(-6.42786e-07 0.000764604 -3.14598e-05)
(-9.75531e-07 0.000782201 -3.24437e-05)
(-1.26776e-06 0.000795887 -3.33426e-05)
(-1.5032e-06 0.000806512 -3.41621e-05)
(-1.68127e-06 0.000814766 -3.4897e-05)
(-1.79435e-06 0.000821114 -3.5539e-05)
(-1.84927e-06 0.000825957 -3.60764e-05)
(-1.84607e-06 0.000829531 -3.64988e-05)
(-1.79474e-06 0.00083206 -3.67959e-05)
(-1.70589e-06 0.000833639 -3.69608e-05)
(-1.5873e-06 0.00083437 -3.69884e-05)
(-1.4498e-06 0.000834241 -3.68779e-05)
(-1.30903e-06 0.000833256 -3.66312e-05)
(-1.17217e-06 0.000831305 -3.62537e-05)
(-1.05033e-06 0.000828284 -3.57538e-05)
(-9.57222e-07 0.000823963 -3.51408e-05)
(-8.90377e-07 0.000818094 -3.44262e-05)
(-8.61555e-07 0.00081027 -3.36219e-05)
(-8.687e-07 0.000800018 -3.27367e-05)
(-9.1146e-07 0.000786638 -3.17748e-05)
(-9.80549e-07 0.00076927 -3.07296e-05)
(-1.06865e-06 0.000746705 -2.95805e-05)
(-1.15398e-06 0.000717403 -2.82824e-05)
(-1.21663e-06 0.000679246 -2.67533e-05)
(-1.21269e-06 0.000629478 -2.48388e-05)
(-1.08204e-06 0.00056435 -2.22653e-05)
(-8.25842e-07 0.000478926 -1.86544e-05)
(-6.82889e-07 0.00029425 -1.07062e-05)
(8.07139e-07 0.00030056 -1.65095e-05)
(8.82623e-07 0.000489169 -2.69161e-05)
(1.07919e-06 0.000576665 -3.13716e-05)
(1.0752e-06 0.000643323 -3.44805e-05)
(8.89835e-07 0.000694252 -3.67694e-05)
(6.11931e-07 0.000733275 -3.85592e-05)
(2.96601e-07 0.000763269 -4.00383e-05)
(-2.39136e-08 0.000786369 -4.13116e-05)
(-3.29468e-07 0.000804208 -4.24416e-05)
(-5.97212e-07 0.000817982 -4.34583e-05)
(-8.18068e-07 0.000828626 -4.4375e-05)
(-9.84109e-07 0.000836809 -4.51911e-05)
(-1.09257e-06 0.00084307 -4.59014e-05)
(-1.14898e-06 0.000847774 -4.64952e-05)
(-1.1559e-06 0.000851226 -4.69632e-05)
(-1.11634e-06 0.000853606 -4.72951e-05)
(-1.04641e-06 0.00085507 -4.74846e-05)
(-9.54045e-07 0.000855672 -4.75257e-05)
(-8.49929e-07 0.000855456 -4.74183e-05)
(-7.47684e-07 0.000854373 -4.71632e-05)
(-6.57313e-07 0.000852363 -4.67669e-05)
(-5.87215e-07 0.000849265 -4.62355e-05)
(-5.48376e-07 0.000844894 -4.55809e-05)
(-5.49828e-07 0.000838939 -4.48117e-05)
(-5.87656e-07 0.00083103 -4.39393e-05)
(-6.67205e-07 0.000820623 -4.29684e-05)
(-7.8178e-07 0.000807043 -4.18996e-05)
(-9.25132e-07 0.00078935 -4.07181e-05)
(-1.08057e-06 0.00076634 -3.9393e-05)
(-1.22993e-06 0.000736377 -3.78596e-05)
(-1.34332e-06 0.000697314 -3.60088e-05)
(-1.37197e-06 0.000646268 -3.3635e-05)
(-1.23928e-06 0.000579405 -3.03831e-05)
(-9.54236e-07 0.000491603 -2.57524e-05)
(-8.16833e-07 0.000301729 -1.53847e-05)
(7.46249e-07 0.000310021 -1.70364e-05)
(7.66316e-07 0.000504409 -2.7202e-05)
(9.58753e-07 0.00059454 -3.15876e-05)
(9.5621e-07 0.000663144 -3.46603e-05)
(7.97047e-07 0.000715467 -3.69253e-05)
(5.54668e-07 0.000755494 -3.87036e-05)
(2.82147e-07 0.000786166 -4.01773e-05)
(4.66928e-09 0.000809727 -4.1452e-05)
(-2.52323e-07 0.000827836 -4.25854e-05)
(-4.73861e-07 0.000841767 -4.36094e-05)
(-6.49731e-07 0.000852458 -4.45339e-05)
(-7.75427e-07 0.000860639 -4.53603e-05)
(-8.45898e-07 0.000866838 -4.60803e-05)
(-8.66313e-07 0.000871472 -4.66857e-05)
(-8.39672e-07 0.000874825 -4.71644e-05)
(-7.75626e-07 0.000877121 -4.75082e-05)
(-6.83511e-07 0.000878491 -4.77076e-05)
(-5.73454e-07 0.000879025 -4.77599e-05)
(-4.55889e-07 0.000878738 -4.76613e-05)
(-3.42103e-07 0.000877614 -4.7416e-05)
(-2.46062e-07 0.000875555 -4.70269e-05)
(-1.72933e-07 0.000872429 -4.65038e-05)
(-1.36501e-07 0.000868008 -4.58548e-05)
(-1.37849e-07 0.000862005 -4.50925e-05)
(-1.84154e-07 0.000853999 -4.4225e-05)
(-2.74312e-07 0.00084346 -4.32605e-05)
(-4.02425e-07 0.000829655 -4.21973e-05)
(-5.61191e-07 0.000811641 -4.10249e-05)
(-7.36289e-07 0.000788141 -3.97106e-05)
(-9.08157e-07 0.000757492 -3.81956e-05)
(-1.05406e-06 0.000717448 -3.63712e-05)
(-1.12114e-06 0.000665061 -3.40445e-05)
(-1.04302e-06 0.000596342 -3.08708e-05)
(-8.0023e-07 0.00050604 -2.63649e-05)
(-7.47187e-07 0.00031067 -1.62232e-05)
(5.24007e-07 0.000318993 -1.46919e-05)
(4.34917e-07 0.000518121 -2.24818e-05)
(5.39424e-07 0.00061043 -2.58567e-05)
(4.7413e-07 0.000680631 -2.82641e-05)
(3.00405e-07 0.000734119 -3.00901e-05)
(7.66837e-08 0.000774965 -3.15667e-05)
(-1.60378e-07 0.000806211 -3.28281e-05)
(-3.83344e-07 0.000830142 -3.39475e-05)
(-5.81391e-07 0.000848484 -3.49671e-05)
(-7.39995e-07 0.000862532 -3.59033e-05)
(-8.49963e-07 0.000873272 -3.67614e-05)
(-9.0776e-07 0.000881439 -3.75352e-05)
(-9.14135e-07 0.0008876 -3.82165e-05)
(-8.71524e-07 0.000892166 -3.87921e-05)
(-7.85617e-07 0.000895454 -3.92516e-05)
(-6.63954e-07 0.000897676 -3.95835e-05)
(-5.16872e-07 0.000898989 -3.97809e-05)
(-3.54203e-07 0.00089947 -3.98375e-05)
(-1.87018e-07 0.000899152 -3.97528e-05)
(-2.76115e-08 0.000897999 -3.95274e-05)
(1.14564e-07 0.000895932 -3.91677e-05)
(2.30173e-07 0.000892793 -3.86806e-05)
(3.09561e-07 0.000888367 -3.80779e-05)
(3.45577e-07 0.000882335 -3.73699e-05)
(3.36312e-07 0.000874284 -3.65696e-05)
(2.82672e-07 0.000863645 -3.5685e-05)
(1.84161e-07 0.000849681 -3.47225e-05)
(4.70929e-08 0.000831404 -3.3676e-05)
(-1.1478e-07 0.000807517 -3.25286e-05)
(-2.88907e-07 0.000776293 -3.12368e-05)
(-4.52224e-07 0.000735444 -2.97264e-05)
(-5.70291e-07 0.000681927 -2.78543e-05)
(-5.85862e-07 0.000611668 -2.53733e-05)
(-4.52092e-07 0.00051927 -2.191e-05)
(-5.23123e-07 0.000319329 -1.41257e-05)
(2.32535e-07 0.000326207 -1.07261e-05)
(1.94304e-08 0.000528359 -1.4883e-05)
(-1.0922e-08 0.000622054 -1.66871e-05)
(-1.74632e-07 0.000693279 -1.80535e-05)
(-3.83124e-07 0.000747497 -1.91866e-05)
(-6.01807e-07 0.000788858 -2.01843e-05)
(-8.04326e-07 0.000820441 -2.11014e-05)
(-9.77764e-07 0.000844587 -2.1967e-05)
(-1.11342e-06 0.000863039 -2.27926e-05)
(-1.20192e-06 0.000877132 -2.35783e-05)
(-1.23722e-06 0.00088786 -2.43162e-05)
(-1.21997e-06 0.000895988 -2.49948e-05)
(-1.15135e-06 0.000902083 -2.55995e-05)
(-1.03481e-06 0.000906582 -2.61166e-05)
(-8.75136e-07 0.000909796 -2.65324e-05)
(-6.82757e-07 0.00091196 -2.68361e-05)
(-4.65653e-07 0.000913219 -2.70188e-05)
(-2.35712e-07 0.000913667 -2.70756e-05)
(-4.01508e-09 0.000913327 -2.7004e-05)
(2.21252e-07 0.000912175 -2.68065e-05)
(4.29044e-07 0.000910116 -2.64879e-05)
(6.07704e-07 0.000907002 -2.60573e-05)
(7.4786e-07 0.000902597 -2.55252e-05)
(8.46024e-07 0.000896589 -2.49052e-05)
(8.96746e-07 0.000888539 -2.42112e-05)
(8.97478e-07 0.00087788 -2.34574e-05)
(8.47145e-07 0.000863846 -2.26552e-05)
(7.52939e-07 0.00084544 -2.1812e-05)
(6.21527e-07 0.000821329 -2.09274e-05)
(4.6035e-07 0.000789767 -1.99887e-05)
(2.82077e-07 0.000748413 -1.89657e-05)
(1.10295e-07 0.000694187 -1.77975e-05)
(-2.0207e-08 0.00062294 -1.63742e-05)
(-2.88424e-08 0.000529206 -1.45006e-05)
(-2.30209e-07 0.000326347 -1.03369e-05)
(-6.29849e-08 0.000330942 -6.40425e-06)
(-3.84327e-07 0.000534171 -6.591e-06)
(-5.55749e-07 0.00062837 -6.66901e-06)
(-8.19356e-07 0.000699949 -6.88565e-06)
(-1.06949e-06 0.00075441 -7.24927e-06)
(-1.28534e-06 0.000795914 -7.70941e-06)
(-1.45917e-06 0.000827571 -8.23528e-06)
(-1.58725e-06 0.000851726 -8.80114e-06)
(-1.66465e-06 0.00087015 -9.38639e-06)
(-1.68706e-06 0.000884176 -9.98408e-06)
(-1.65342e-06 0.000894821 -1.0574e-05)
(-1.56504e-06 0.000902849 -1.11327e-05)