/*--------------------------------*- C++ -*----------------------------------*\
| =========                 |                                                 |
| \\      /  F ield         | OpenFOAM: The Open Source CFD Toolbox           |
|  \\    /   O peration     | Version:  v2006                                 |
|   \\  /    A nd           | Website:  www.openfoam.com                      |
|    \\/     M anipulation  |                                                 |
\*---------------------------------------------------------------------------*/
FoamFile
{
    version     2.0;
    format      ascii;
    class       volScalarField;
    location    "37";
    object      k;
}
// * * * * * * * * * * * * * * * * * * * * * * * * * * * * * * * * * * * * * //

dimensions      [0 2 -2 0 0 0 0];


internalField   nonuniform List<scalar> 
78750
(
2.81375e-05
2.19229e-05
2.19081e-05
2.12854e-05
2.02454e-05
1.90768e-05
1.79811e-05
1.70618e-05
1.63402e-05
1.57882e-05
1.53654e-05
1.50354e-05
1.47678e-05
1.45378e-05
1.43257e-05
1.41166e-05
1.38989e-05
1.36629e-05
1.34009e-05
1.31075e-05
1.27792e-05
1.2415e-05
1.2016e-05
1.15853e-05
1.11274e-05
1.06465e-05
1.01449e-05
9.61756e-06
9.04361e-06
8.36915e-06
7.47688e-06
6.21965e-06
4.59713e-06
2.96534e-06
1.76681e-06
2.7455e-06
1.88358e-05
2.99732e-05
3.57844e-05
3.81457e-05
3.89109e-05
3.93598e-05
4.00042e-05
4.08959e-05
4.19104e-05
4.29089e-05
4.37825e-05
4.44559e-05
4.48843e-05
4.50474e-05
4.49421e-05
4.45733e-05
4.39483e-05
4.30764e-05
4.19686e-05
4.0638e-05
3.91004e-05
3.73749e-05
3.54849e-05
3.34573e-05
3.13235e-05
2.91278e-05
2.69206e-05
2.47478e-05
2.26392e-05
2.04781e-05
1.79579e-05
1.48133e-05
1.14079e-05
8.68827e-06
4.84945e-06
1.05853e-05
1.5063e-05
1.86509e-05
2.24992e-05
2.7422e-05
3.33093e-05
3.9499e-05
4.53783e-05
5.05977e-05
5.50922e-05
5.88736e-05
6.19258e-05
6.42798e-05
6.59994e-05
6.71327e-05
6.77018e-05
6.77206e-05
6.71957e-05
6.61239e-05
6.44923e-05
6.22788e-05
5.94556e-05
5.60022e-05
5.19091e-05
4.71887e-05
4.18932e-05
3.61425e-05
3.01854e-05
2.45274e-05
1.99262e-05
1.68992e-05
1.51988e-05
1.42956e-05
1.44129e-05
2.08082e-06
5.59243e-06
8.49875e-06
1.11075e-05
1.41744e-05
1.85781e-05
2.47582e-05
3.2407e-05
4.07144e-05
4.8812e-05
5.60441e-05
6.20525e-05
6.68827e-05
7.07981e-05
7.3976e-05
7.65096e-05
7.84674e-05
7.98923e-05
8.0802e-05
8.11945e-05
8.10515e-05
8.03408e-05
7.89946e-05
7.68906e-05
7.38974e-05
6.98704e-05
6.46761e-05
5.82377e-05
5.06307e-05
4.2224e-05
3.38191e-05
2.65908e-05
2.14777e-05
1.86633e-05
1.7957e-05
1.70408e-06
5.47755e-06
9.11436e-06
1.29538e-05
1.74185e-05
2.28412e-05
2.91862e-05
3.60301e-05
4.27613e-05
4.89266e-05
5.4324e-05
5.89053e-05
6.26818e-05
6.5869e-05
6.86446e-05
7.10318e-05
7.30336e-05
7.46386e-05
7.58264e-05
7.65696e-05
7.68335e-05
7.65759e-05
7.57468e-05
7.42598e-05
7.19235e-05
6.84949e-05
6.37939e-05
5.77616e-05
5.06873e-05
4.32919e-05
3.61497e-05
2.99531e-05
2.54902e-05
2.31052e-05
2.29016e-05
1.04956e-06
4.51312e-06
7.85239e-06
1.12668e-05
1.50095e-05
1.93836e-05
2.45778e-05
3.04634e-05
3.67508e-05
4.31493e-05
4.94003e-05
5.52581e-05
6.04929e-05
6.50758e-05
6.91327e-05
7.2701e-05
7.57466e-05
7.82456e-05
8.01796e-05
8.15303e-05
8.22758e-05
8.23882e-05
8.18333e-05
8.05697e-05
7.84629e-05
7.52429e-05
7.06695e-05
6.45729e-05
5.70713e-05
4.90138e-05
4.14134e-05
3.48024e-05
2.97891e-05
2.66569e-05
2.54175e-05
7.12743e-07
4.22164e-06
7.64889e-06
1.11875e-05
1.51089e-05
1.97159e-05
2.50893e-05
3.10871e-05
3.7473e-05
4.39761e-05
5.0313e-05
5.61964e-05
6.1392e-05
6.59898e-05
7.01052e-05
7.37024e-05
7.67595e-05
7.92593e-05
8.1182e-05
8.25012e-05
8.31805e-05
8.31744e-05
8.24313e-05
8.08607e-05
7.82621e-05
7.43916e-05
6.91004e-05
6.2439e-05
5.49539e-05
4.79752e-05
4.19461e-05
3.68734e-05
3.2887e-05
3.00957e-05
2.87815e-05
4.29146e-07
3.64032e-06
6.83995e-06
1.02267e-05
1.40598e-05
1.85534e-05
2.37543e-05
2.96077e-05
3.59678e-05
4.26075e-05
4.92404e-05
5.55612e-05
6.13106e-05
6.64379e-05
7.10267e-05
7.51031e-05
7.86517e-05
8.16594e-05
8.41088e-05
8.59711e-05
8.72022e-05
8.77416e-05
8.75152e-05
8.64149e-05
8.42068e-05
8.05619e-05
7.51898e-05
6.80096e-05
5.95293e-05
5.13811e-05
4.47255e-05
3.95795e-05
3.56814e-05
3.27085e-05
3.08323e-05
3.39175e-07
3.64865e-06
7.1025e-06
1.0961e-05
1.54436e-05
2.06538e-05
2.6572e-05
3.30535e-05
3.9847e-05
4.66356e-05
5.30861e-05
5.89109e-05
6.40751e-05
6.8695e-05
7.28083e-05
7.64093e-05
7.94982e-05
8.20744e-05
8.41307e-05
8.56474e-05
8.65895e-05
8.69044e-05
8.6523e-05
8.53245e-05
8.30601e-05
7.94087e-05
7.40961e-05
6.70889e-05
5.9067e-05
5.18374e-05
4.60222e-05
4.15911e-05
3.81925e-05
3.54078e-05
3.3558e-05
4.25628e-07
4.2201e-06
8.29946e-06
1.29159e-05
1.8203e-05
2.41645e-05
3.0676e-05
3.75128e-05
4.44016e-05
5.10738e-05
5.73058e-05
6.29499e-05
6.80444e-05
7.26652e-05
7.68084e-05
8.04613e-05
8.36111e-05
8.62413e-05
8.83292e-05
8.98435e-05
9.07427e-05
9.09751e-05
9.04793e-05
8.91401e-05
8.67011e-05
8.28531e-05
7.73076e-05
6.99988e-05
6.15879e-05
5.40379e-05
4.81185e-05
4.37871e-05
4.05252e-05
3.77208e-05
3.57119e-05
6.16028e-07
5.22118e-06
1.0211e-05
1.57991e-05
2.20154e-05
2.87419e-05
3.57571e-05
4.27969e-05
4.96084e-05
5.59787e-05
6.17534e-05
6.69607e-05
7.17005e-05
7.59927e-05
7.98273e-05
8.31926e-05
8.60735e-05
8.84499e-05
9.02951e-05
9.15736e-05
9.2241e-05
9.22444e-05
9.15111e-05
8.9895e-05
8.71525e-05
8.30193e-05
7.72782e-05
6.99873e-05
6.20159e-05
5.51339e-05
4.97386e-05
4.57945e-05
4.28089e-05
4.01569e-05
3.82678e-05
8.6789e-07
6.47604e-06
1.24206e-05
1.88199e-05
2.56028e-05
3.26019e-05
3.96231e-05
4.64904e-05
5.30588e-05
5.92092e-05
6.48587e-05
7.00691e-05
7.48979e-05
7.93099e-05
8.32729e-05
8.67564e-05
8.97312e-05
9.21664e-05
9.40278e-05
9.52749e-05
9.58607e-05
9.57321e-05
9.48082e-05
9.29199e-05
8.98297e-05
8.52886e-05
7.91362e-05
7.1536e-05
6.35124e-05
5.68103e-05
5.16503e-05
4.7905e-05
4.50502e-05
4.24218e-05
4.04597e-05
1.11779e-06
7.33721e-06
1.37776e-05
2.05111e-05
2.75012e-05
3.46704e-05
4.1914e-05
4.90952e-05
5.60399e-05
6.25566e-05
6.85546e-05
7.4067e-05
7.9095e-05
8.35942e-05
8.75369e-05
9.09085e-05
9.37012e-05
9.59068e-05
9.75118e-05
9.84923e-05
9.88123e-05
9.8421e-05
9.72165e-05
9.50027e-05
9.1539e-05
8.65836e-05
8.00214e-05
7.21834e-05
6.44145e-05
5.81106e-05
5.33622e-05
4.99493e-05
4.73094e-05
4.47766e-05
4.28484e-05
1.40143e-06
8.19239e-06
1.52712e-05
2.27617e-05
3.06637e-05
3.88767e-05
4.71981e-05
5.53518e-05
6.3045e-05
7.0041e-05
7.63004e-05
8.18893e-05
8.68177e-05
9.10791e-05
9.46847e-05
9.76548e-05
0.000100008
0.000101758
0.000102907
0.000103443
0.000103339
0.000102541
0.000100934
9.83164e-05
9.44435e-05
8.90702e-05
8.20989e-05
7.39489e-05
6.61593e-05
5.99436e-05
5.53406e-05
5.2074e-05
4.95421e-05
4.7044e-05
4.51002e-05
1.69708e-06
9.3918e-06
1.75841e-05
2.6408e-05
3.57342e-05
4.52599e-05
5.45928e-05
6.33532e-05
7.12585e-05
7.81691e-05
8.41926e-05
8.9451e-05
9.39668e-05
9.77726e-05
0.000100907
0.000103406
0.0001053
0.000106608
0.000107334
0.00010747
0.00010699
0.000105823
0.00010383
0.000100818
9.65461e-05
9.07794e-05
8.34748e-05
7.51801e-05
6.76628e-05
6.17118e-05
5.73468e-05
5.42643e-05
5.18554e-05
4.94175e-05
4.75028e-05
2.0685e-06
1.1278e-05
2.10486e-05
3.14044e-05
4.20179e-05
5.24345e-05
6.2227e-05
7.10939e-05
7.88878e-05
8.55932e-05
9.1363e-05
9.63385e-05
0.000100566
0.000104083
0.000106924
0.000109124
0.000110708
0.000111691
0.00011208
0.000111868
0.000111026
0.000109474
0.000107087
0.000103688
9.90526e-05
9.29688e-05
8.54305e-05
7.70761e-05
6.97502e-05
6.39257e-05
5.96281e-05
5.65822e-05
5.42056e-05
5.1777e-05
4.98493e-05
2.41211e-06
1.30871e-05
2.41755e-05
3.55963e-05
4.69619e-05
5.78422e-05
6.78888e-05
7.68848e-05
8.47455e-05
9.14882e-05
9.72523e-05
0.000102179
0.000106326
0.000109725
0.000112408
0.000114405
0.000115743
0.000116439
0.000116502
0.000115927
0.000114668
0.000112656
0.000109783
0.000105893
0.000100795
9.43345e-05
8.66076e-05
7.844e-05
7.15644e-05
6.60963e-05
6.20064e-05
5.90405e-05
5.66906e-05
5.42672e-05
5.23481e-05
2.7766e-06
1.47897e-05
2.70711e-05
3.95187e-05
5.17608e-05
6.33837e-05
7.40353e-05
8.34909e-05
9.1676e-05
9.86329e-05
0.000104489
0.000109404
0.000113467
0.000116717
0.000119193
0.000120932
0.000121963
0.000122311
0.000121984
0.000120963
0.000119207
0.000116661
0.00011323
0.000108778
0.000103149
9.62554e-05
8.83043e-05
8.03104e-05
7.37402e-05
6.85202e-05
6.45577e-05
6.16117e-05
5.92493e-05
5.68084e-05
5.48831e-05
3.13562e-06
1.63734e-05
2.98809e-05
4.35409e-05
5.69121e-05
6.94813e-05
8.08194e-05
9.06929e-05
9.90819e-05
0.000106103
0.000111919
0.000116711
0.000120596
0.000123626
0.000125847
0.000127299
0.000128017
0.000128016
0.00012729
0.000125811
0.000123545
0.000120436
0.000116392
0.000111294
0.000105038
9.76377e-05
8.94803e-05
8.18443e-05
7.57591e-05
7.0958e-05
6.72383e-05
6.43552e-05
6.19774e-05
5.95087e-05
5.75649e-05
3.59475e-06
1.84018e-05
3.34838e-05
4.86276e-05
6.32356e-05
7.66775e-05
8.85086e-05
9.85776e-05
0.000106983
0.000113936
0.000119648
0.000124289
0.000127983
0.000130804
0.000132803
0.00013402
0.000134472
0.000134161
0.000133072
0.000131175
0.000128436
0.000124797
0.000120167
0.000114433
0.000107524
9.95516e-05
9.10831e-05
8.36564e-05
7.7925e-05
7.34793e-05
6.99937e-05
6.71854e-05
6.47966e-05
6.22886e-05
6.02814e-05
4.08861e-06
2.05444e-05
3.71844e-05
5.36699e-05
6.92798e-05
8.33456e-05
9.54831e-05
0.000105656
0.000114066
0.000120984
0.000126646
0.000131222
0.000134827
0.000137535
0.000139392
0.000140423
0.000140638
0.000140033
0.000138586
0.000136268
0.000133045
0.000128856
0.000123606
0.000117196
0.000109604
0.000101053
9.233e-05
8.52353e-05
7.9987e-05
7.60171e-05
7.28501e-05
7.01572e-05
6.77596e-05
6.51935e-05
6.30915e-05
4.65719e-06
2.28502e-05
4.1067e-05
5.88624e-05
7.54403e-05
9.01312e-05
0.00010262
0.000112972
0.000121472
0.000128435
0.000134113
0.000138678
0.000142241
0.000144871
0.000146607
0.000147469
0.00014746
0.000146573
0.000144774
0.000142035
0.000138322
0.000133566
0.000127666
0.000120527
0.000112166
0.000102918
9.38079e-05
8.68614e-05
8.19977e-05
7.84964e-05
7.56952e-05
7.31688e-05
7.07841e-05
6.81523e-05
6.59215e-05
5.23805e-06
2.50422e-05
4.47303e-05
6.37656e-05
8.12772e-05
9.65801e-05
0.000109416
0.000119945
0.000128535
0.000135545
0.00014124
0.000145798
0.000149326
0.000151888
0.000153519
0.000154232
0.000154026
0.000152885
0.000150762
0.000147628
0.000143442
0.000138126
0.000131571
0.000123685
0.000114528
0.000104567
9.51071e-05
8.8314e-05
8.38691e-05
8.08991e-05
7.85357e-05
7.62291e-05
7.38713e-05
7.11525e-05
6.87388e-05
5.89055e-06
2.74103e-05
4.86722e-05
6.90234e-05
8.74949e-05
0.000103389
0.00011653
0.000127201
0.000135858
0.000142906
0.000148623
0.000153186
0.000156697
0.000159215
0.000160766
0.000161359
0.000160987
0.000159625
0.000157214
0.000153723
0.000149103
0.000143259
0.000136064
0.000127416
0.0001174
0.000106604
9.66332e-05
8.97582e-05
8.55935e-05
8.31312e-05
8.12571e-05
7.92335e-05
7.69296e-05
7.41043e-05
7.14376e-05
6.55391e-06
2.97459e-05
5.25073e-05
7.40637e-05
9.3368e-05
0.000109743
0.000123119
0.000133903
0.000142631
0.000149736
0.000155503
0.000160102
0.00016363
0.000166136
0.000167642
0.000168149
0.000167647
0.000166101
0.000163449
0.000159662
0.00015468
0.00014839
0.000140645
0.000131323
0.000120516
0.000108906
9.83804e-05
9.12504e-05
8.72072e-05
8.5192e-05
8.38393e-05
8.21573e-05
7.99346e-05
7.69849e-05
7.40165e-05
7.26476e-06
3.21636e-05
5.64214e-05
7.91564e-05
9.9267e-05
0.000116113
0.000129737
0.000140663
0.000149496
0.000156693
0.00016254
0.000167202
0.000170769
0.000173286
0.000174766
0.000175208
0.000174594
0.000172881
0.000170014
0.000165964
0.000160662
0.000153983
0.00014576
0.000135851
0.00012434
0.000111949
0.000100761
9.3099e-05
8.88625e-05
8.70872e-05
8.62108e-05
8.49187e-05
8.28263e-05
7.97684e-05
7.65017e-05
7.96912e-06
3.44482e-05
6.01e-05
8.39428e-05
0.000104816
0.000122108
0.000135973
0.000147044
0.000155988
0.000163281
0.000169211
0.00017394
0.000177554
0.000180092
0.000181566
0.000181968
0.000181276
0.000179442
0.000176417
0.000172171
0.00016663
0.000159661
0.00015108
0.000140731
0.000128685
0.000115676
0.000103903
9.55615e-05
9.0817e-05
8.89802e-05
8.84401e-05
8.75423e-05
8.56283e-05
8.25081e-05
7.90202e-05
8.73584e-06
3.68788e-05
6.39863e-05
8.89617e-05
0.000110583
0.000128292
0.000142368
0.000153564
0.000162604
0.00016998
0.000175982
0.000180767
0.000184418
0.00018697
0.000188431
0.000188791
0.000188021
0.000186069
0.0001829
0.000178485
0.00017275
0.000165559
0.000156724
0.000146081
0.000133694
0.000120288
0.000108081
9.90044e-05
9.34409e-05
9.112e-05
9.06255e-05
9.00486e-05
8.83599e-05
8.52685e-05
8.16991e-05
9.52119e-06
3.92532e-05
6.77189e-05
9.37244e-05
0.000116015
0.000134096
0.000148376
0.000159705
0.000168854
0.000176325
0.000182407
0.000187255
0.000190949
0.000193519
0.000194972
0.000195292
0.000194446
0.000192386
0.000189081
0.000184506
0.000178588
0.000171195
0.00016215
0.000151306
0.000138753
0.000125247
0.000112999
0.000103465
9.7062e-05
9.39267e-05
9.30899e-05
9.26293e-05
9.11423e-05
8.81455e-05
8.46021e-05
1.03835e-05
4.17168e-05
7.15437e-05
9.85847e-05
0.000121556
0.000140031
0.000154534
0.000166015
0.000175283
0.000182851
0.000189008
0.000193906
0.000197621
0.000200184
0.000201599
0.000201848
0.000200891
0.000198692
0.000195217
0.00019044
0.000184289
0.000176636
0.000167322
0.000156241
0.000143554
0.000130128
0.000118208
0.00010867
0.000101715
9.76813e-05
9.6151e-05
9.55011e-05
9.40918e-05
9.11723e-05
8.76293e-05
1.12946e-05
4.41226e-05
7.5229e-05
0.000103253
0.000126882
0.000145748
0.000160491
0.000172145
0.000181554
0.000189236
0.000195475
0.000200421
0.000204148
0.000206686
0.00020804
0.000208188
0.000207088
0.000204712
0.000201024
0.00019599
0.00018953
0.000181514
0.000171798
0.000160329
0.000147403
0.000134124
0.000122874
0.000113922
0.000107036
0.000102422
0.000100084
9.89338e-05
9.73536e-05
9.43162e-05
9.04853e-05
1.22985e-05
4.66056e-05
7.89933e-05
0.000108011
0.000132312
0.00015159
0.000166601
0.000178461
0.000188043
0.000195866
0.000202206
0.000207206
0.000210936
0.000213426
0.000214681
0.000214683
0.000213386
0.000210776
0.000206807
0.000201433
0.000194557
0.000186037
0.00017573
0.000163633
0.000150211
0.00013693
0.000126427
0.000118485
0.000112326
0.000107707
0.000104746
0.000102922
0.000100891
9.73955e-05
9.27675e-05
1.33404e-05
4.90035e-05
8.25913e-05
0.000112558
0.000137518
0.000157222
0.000172532
0.00018464
0.00019444
0.000202447
0.000208926
0.000214011
0.000217766
0.00022022
0.000221379
0.000221224
0.000219724
0.000216868
0.000212596
0.000206842
0.000199484
0.000190352
0.000179284
0.000166311
0.000152077
0.000138514
0.000128589
0.000121852
0.000116959
0.000112981
0.000109793
0.000107286
0.000104533
0.000100167
9.41805e-05
1.44257e-05
5.14174e-05
8.6204e-05
0.000117126
0.00014275
0.000162884
0.000178504
0.000190881
0.000200928
0.000209151
0.000215803
0.000221007
0.00022482
0.000227268
0.000228356
0.000228069
0.000226395
0.000223327
0.00021879
0.000212694
0.000204882
0.000195144
0.000183276
0.000169292
0.00015396
0.000139674
0.000129764
0.000123921
0.000120507
0.000117685
0.000114726
0.000111684
0.000108103
0.000102509
9.48412e-05
1.54904e-05
5.37345e-05
8.96526e-05
0.000121468
0.000147706
0.000168237
0.000184159
0.000196812
0.000207125
0.000215595
0.000222461
0.000227835
0.000231764
0.000234272
0.000235363
0.000235021
0.000233263
0.000230085
0.000225402
0.000219103
0.000211
0.000200835
0.000188342
0.000173469
0.000156967
0.000141512
0.000130733
0.00012498
0.000122728
0.000121348
0.000119105
0.000115863
0.000111454
0.000104544
9.52864e-05
1.65438e-05
5.60493e-05
9.308e-05
0.000125749
0.000152552
0.000173438
0.000189632
0.000202545
0.00021312
0.000221842
0.000228939
0.000234512
0.000238604
0.000241233
0.000242405
0.000242104
0.000240377
0.000237227
0.000232563
0.000226264
0.000218117
0.000207831
0.000195084
0.000179716
0.00016232
0.000145499
0.000132878
0.000125801
0.000123692
0.000123572
0.000122454
0.000119498
0.000114552
0.000106579
9.62005e-05
1.75628e-05
5.82917e-05
9.63604e-05
0.000129799
0.00015709
0.000178277
0.000194705
0.000207853
0.000218668
0.000227628
0.000234952
0.000240736
0.000245017
0.000247813
0.000249127
0.000248969
0.000247398
0.000244423
0.000239953
0.000233867
0.000225947
0.00021589
0.000203342
0.000188061
0.000170423
0.000152666
0.000137851
0.000128078
0.000124385
0.000124553
0.000124601
0.000122428
0.000117465
0.000108936
9.8059e-05
1.86019e-05
6.05718e-05
9.96487e-05
0.000133806
0.00016153
0.000182967
0.00019959
0.000212934
0.000223951
0.000233111
0.000240626
0.00024659
0.000251042
0.000254003
0.000255475
0.000255497
0.000254142
0.000251429
0.000247268
0.000241541
0.000234041
0.000224475
0.000212497
0.000197837
0.000180713
0.000162928
0.000146498
0.000133539
0.000126577
0.0001253
0.000125831
0.000124663
0.000120218
0.000111729
0.000100959
1.96801e-05
6.28494e-05
0.000102867
0.000137679
0.000165784
0.000187431
0.000204216
0.000217722
0.0002289
0.000238211
0.000245863
0.00025195
0.000256518
0.000259594
0.000261193
0.000261385
0.000260252
0.000257813
0.000253983
0.000248656
0.000241646
0.000232693
0.000221501
0.00020784
0.000191857
0.000175056
0.000158252
0.000142883
0.00013203
0.000127548
0.000127123
0.000126573
0.000122887
0.000114891
0.000104629
2.08588e-05
6.52011e-05
0.000106135
0.000141582
0.000170046
0.000191877
0.000208792
0.000222418
0.000233707
0.000243111
0.000250837
0.000256982
0.000261599
0.000264725
0.000266381
0.000266676
0.000265708
0.0002635
0.000259963
0.000254994
0.000248419
0.00024001
0.000229531
0.000216857
0.000202307
0.000187202
0.000171282
0.00015505
0.000141147
0.000132759
0.000129885
0.000128985
0.000125779
0.000118311
0.000108478
2.21401e-05
6.75798e-05
0.000109396
0.000145465
0.000174264
0.000196256
0.000213278
0.00022699
0.000238333
0.000247758
0.000255473
0.000261583
0.000266152
0.000269231
0.000270863
0.000271189
0.000270321
0.000268281
0.00026497
0.000260274
0.00025402
0.000246006
0.000236073
0.000224249
0.000211089
0.00019778
0.000183489
0.000167873
0.000152563
0.000140961
0.000134951
0.000132683
0.000129243
0.000121766
0.000111635
2.35348e-05
7.00277e-05
0.000112715
0.000149394
0.000178518
0.000200668
0.000217792
0.000231557
0.000242884
0.000252242
0.000259856
0.000265838
0.000270261
0.000273191
0.00027471
0.000274986
0.000274145
0.000272211
0.000269067
0.000264575
0.000258535
0.000250745
0.000241109
0.000229839
0.000217835
0.000206136
0.000193603
0.000179374
0.000164168
0.000150793
0.000142102
0.000137853
0.000133323
0.000124897
0.000113369
2.49729e-05
7.24274e-05
0.000115955
0.000153236
0.000182688
0.00020502
0.000222295
0.00023609
0.000247308
0.000256485
0.000263903
0.000269667
0.000273855
0.000276546
0.000277867
0.00027802
0.000277157
0.000275312
0.000272351
0.000268096
0.000262286
0.000254675
0.000245191
0.000234212
0.000223016
0.000212409
0.000201272
0.000188587
0.000174386
0.000160611
0.000150224
0.000143943
0.000137658
0.000127349
0.000113525
2.64178e-05
7.48173e-05
0.000119189
0.00015706
0.000186823
0.000209344
0.000226686
0.00024046
0.000251567
0.00026051
0.000267671
0.000273148
0.00027702
0.00027938
0.000280409
0.000280356
0.000279421
0.00027767
0.000274972
0.000271106
0.000265723
0.000258477
0.000249247
0.000238506
0.000227816
0.000217624
0.000207129
0.000195554
0.000182597
0.000169341
0.000158205
0.000150157
0.000141805
0.00012906
0.00011265
2.78181e-05
7.71309e-05
0.000122309
0.000160723
0.00019075
0.00021342
0.00023078
0.000244511
0.000255503
0.000264236
0.000271108
0.00027625
0.000279737
0.000281676
0.000282305
0.000281942
0.00028086
0.000279199
0.000276872
0.00027364
0.000269058
0.00026263
0.000254105
0.000243936
0.00023368
0.000223308
0.000212518
0.000201144
0.000189001
0.000176505
0.000165245
0.000155861
0.000145513
0.000130324
0.000111685
2.9186e-05
7.94249e-05
0.000125396
0.000164324
0.00019459
0.000217358
0.000234725
0.000248417
0.000259301
0.00026783
0.000274373
0.000279123
0.000282142
0.000283548
0.000283635
0.000282797
0.000281415
0.000279755
0.000277838
0.00027547
0.000272131
0.000267154
0.000260093
0.000251272
0.000241715
0.000230932
0.000219072
0.000206781
0.00019448
0.00018235
0.00017115
0.000160846
0.000148869
0.000131612
0.000111259
3.05361e-05
8.1689e-05
0.000128406
0.000167803
0.000198307
0.000221091
0.000238435
0.000252082
0.000262863
0.000271196
0.000277421
0.000281762
0.000284259
0.00028503
0.000284415
0.00028289
0.000280968
0.000279098
0.000277502
0.000276121
0.000274423
0.000271561
0.000266852
0.000260385
0.000252141
0.000241256
0.000228069
0.000213944
0.000200249
0.000187549
0.000176132
0.000165159
0.000151992
0.000133162
0.000111493
3.19101e-05
8.39452e-05
0.000131331
0.000171107
0.000201775
0.000224559
0.00024189
0.000255512
0.000266216
0.000274384
0.000280318
0.000284257
0.000286203
0.000286254
0.000284772
0.000282305
0.000279509
0.00027707
0.000275511
0.000275047
0.000275237
0.000275077
0.000273581
0.000270422
0.000264345
0.000254129
0.000240021
0.000223761
0.000207669
0.000193231
0.000180894
0.000169177
0.000155085
0.000135024
0.000112139
3.33171e-05
8.61357e-05
0.000134081
0.000174143
0.000204925
0.000227707
0.000245048
0.000258679
0.000269351
0.000277406
0.000283107
0.000286688
0.000288093
0.000287382
0.000284901
0.00028124
0.000277189
0.000273691
0.000271678
0.00027182
0.000273933
0.000276916
0.000279422
0.000280325
0.000277238
0.000268599
0.000254401
0.00023639
0.000217527
0.000200429
0.000186271
0.000173405
0.000158338
0.000137088
0.000112778
3.4757e-05
8.82491e-05
0.000136667
0.00017696
0.00020783
0.000230615
0.000247987
0.000261661
0.00027235
0.00028036
0.000285912
0.000289216
0.000290145
0.000288693
0.000285149
0.000280102
0.000274421
0.000269296
0.000266137
0.000266276
0.000270054
0.000276403
0.000283544
0.000289043
0.000289607
0.000283366
0.000270023
0.000251095
0.000229789
0.000209696
0.000192969
0.000178376
0.000161978
0.000139257
0.000113076
3.61903e-05
9.0203e-05
0.000138987
0.00017945
0.000210382
0.000233186
0.000250624
0.000264391
0.000275168
0.000283229
0.000288757
0.000291926
0.000292521
0.000290454
0.000285913
0.000279423
0.000271854
0.000264554
0.000259411
0.000258608
0.000263372
0.000272946
0.000285056
0.000295529
0.000300266
0.0002971
0.000285478
0.00026661
0.00024365
0.000220823
0.000201213
0.000184395
0.000166163
0.000141483
0.000112896
3.75681e-05
9.19312e-05
0.000140991
0.000181604
0.00021259
0.000235445
0.000252993
0.00026691
0.000277854
0.000286076
0.000291729
0.000294943
0.00029542
0.000292972
0.000287652
0.000279858
0.000270359
0.000260501
0.000252515
0.00024951
0.000254029
0.000266137
0.000283127
0.000298797
0.000308127
0.000308611
0.000299485
0.000281653
0.000258044
0.000233175
0.000210821
0.000191501
0.000170956
0.000143778
0.000112291
3.87921e-05
9.33458e-05
0.000142629
0.00018341
0.000214449
0.000237389
0.000255091
0.000269216
0.000280405
0.000288902
0.000294845
0.00029832
0.000298959
0.000296473
0.00029076
0.00028204
0.000270865
0.000258382
0.000246914
0.000240271
0.000242662
0.000255795
0.000277009
0.000297889
0.000312155
0.000316806
0.000310877
0.000295008
0.000271827
0.000245874
0.000221301
0.000199488
0.000176295
0.000146157
0.000111396
3.97466e-05
9.4415e-05
0.000143895
0.00018483
0.000215957
0.000239022
0.000256916
0.000271294
0.000282794
0.000291661
0.00029803
0.000301957
0.000303022
0.000300861
0.000295237
0.000286189
0.000274015
0.000259491
0.000244478
0.000232955
0.000230787
0.000242304
0.000266184
0.000291955
0.000311445
0.000320765
0.000318682
0.000305631
0.000283932
0.000257979
0.000231994
0.000207987
0.000182039
0.000148654
0.00011042
4.03799e-05
9.51453e-05
0.000144796
0.000185877
0.000217125
0.000240348
0.000258467
0.000273136
0.000284998
0.000294309
0.000301222
0.000305772
0.000307523
0.000306061
0.000301044
0.000292338
0.000279973
0.000264293
0.000246508
0.00022999
0.000221123
0.000227223
0.000250718
0.000280318
0.000305219
0.000319782
0.000322232
0.000312819
0.000293601
0.000268722
0.000242249
0.000216559
0.000188
0.000151335
0.00010967
4.07009e-05
9.55821e-05
0.000145391
0.00018662
0.000218015
0.000241421
0.00025978
0.000274757
0.000287005
0.000296799
0.000304318
0.000309598
0.000312215
0.000311745
0.000307794
0.000300107
0.000288489
0.000272892
0.000253772
0.000233298
0.000217059
0.000214207
0.000232133
0.000262775
0.000292752
0.00031322
0.000321023
0.000316084
0.000300267
0.00027749
0.000251497
0.000224831
0.000194107
0.000154429
0.000109571
4.07739e-05
9.57962e-05
0.000145747
0.000187122
0.000218677
0.000242275
0.000260874
0.000276156
0.000288787
0.000299064
0.000307202
0.000313251
0.000316822
0.00031751
0.000314932
0.000308772
0.00029869
0.000284355
0.000265637
0.000243421
0.000221343
0.00020793
0.00021462
0.000240894
0.000273929
0.000300629
0.000314783
0.00031534
0.000303942
0.000284095
0.000259444
0.000232604
0.000200419
0.000158236
0.000110501
4.06968e-05
9.59032e-05
0.000145982
0.000187491
0.000219202
0.000242977
0.000261797
0.000277359
0.00029034
0.000301062
0.000309784
0.000316575
0.000321092
0.000322965
0.000321881
0.000317522
0.000309476
0.000297253
0.000280368
0.000258805
0.000234152
0.00021222
0.000204805
0.000219721
0.000250488
0.000282112
0.000303286
0.000310435
0.000304485
0.000288475
0.000266006
0.000239822
0.000206996
0.000162916
0.00011263
4.05745e-05
9.59925e-05
0.000146182
0.000187814
0.000219657
0.000243582
0.000262591
0.000278395
0.000291679
0.00030278
0.00031199
0.000319406
0.000324747
0.000327726
0.000328108
0.000325588
0.000319761
0.000310075
0.000295867
0.000276655
0.000252664
0.000226742
0.00020762
0.000207035
0.000227675
0.000259311
0.000286755
0.000301235
0.000301718
0.000290483
0.000271052
0.00024636
0.000213729
0.000168379
0.000115889
4.05224e-05
9.61749e-05
0.000146458
0.000188191
0.000220118
0.000244145
0.000263295
0.000279283
0.000292799
0.000304193
0.000313794
0.000321725
0.00032775
0.000331628
0.000333235
0.000332396
0.000328753
0.000321704
0.000310488
0.000294453
0.000273157
0.000247471
0.000222335
0.000208241
0.000213439
0.000237264
0.000266706
0.00028805
0.000295669
0.000290038
0.000274429
0.000252
0.000220352
0.000174345
0.000120087
4.06101e-05
9.64921e-05
0.000146856
0.000188642
0.000220596
0.00024467
0.000263907
0.000280021
0.000293697
0.000305293
0.00031516
0.000323452
0.000329975
0.00033455
0.000337161
0.000337711
0.000335911
0.000331256
0.000323034
0.000310466
0.000292745
0.000269823
0.000243951
0.000222309
0.000213057
0.00022307
0.000247601
0.000272403
0.000286711
0.00028728
0.000276133
0.000256593
0.000226587
0.000180526
0.00012495
4.09005e-05
9.70191e-05
0.000147419
0.000189208
0.000221116
0.000245172
0.000264438
0.000280616
0.000294381
0.000306089
0.000316105
0.000324606
0.000331425
0.000336452
0.00033977
0.000341389
0.000341125
0.000338544
0.000332959
0.000323615
0.000309732
0.000290771
0.000267419
0.000244014
0.00022572
0.000221438
0.000235014
0.000257715
0.000276184
0.000282455
0.000276076
0.000259917
0.000232141
0.000186675
0.000130071
4.14107e-05
9.77025e-05
0.000148076
0.000189807
0.0002216
0.000245577
0.000264817
0.000281004
0.000294795
0.000306538
0.000316605
0.000325176
0.000332098
0.000337328
0.00034103
0.000343329
0.000344174
0.000343265
0.000340004
0.000333658
0.000323392
0.000308558
0.000289387
0.000267978
0.000246446
0.000231978
0.000232783
0.000248063
0.00026664
0.000276923
0.000274816
0.000262039
0.000236797
0.000192341
0.000135076
4.21573e-05
9.85616e-05
0.000148858
0.000190474
0.000222079
0.000245912
0.000265073
0.000281217
0.00029498
0.000306697
0.000316732
0.000325257
0.000332113
0.000337297
0.000341049
0.000343611
0.000345086
0.000345347
0.00034395
0.000340254
0.000333435
0.000322768
0.000308212
0.000290484
0.00026985
0.000250479
0.000240875
0.000246165
0.000260713
0.000272342
0.000273297
0.000263391
0.000240558
0.000197287
0.000139688
4.31126e-05
9.95263e-05
0.00014967
0.000191099
0.000222442
0.000246073
0.000265108
0.000281169
0.000294866
0.000306519
0.000316477
0.000324879
0.000331538
0.000336471
0.000339972
0.000342387
0.000343987
0.000344856
0.000344774
0.000343278
0.000339619
0.000333042
0.000323333
0.000310039
0.000292232
0.000272078
0.000256221
0.000252203
0.000260122
0.000270214
0.000272452
0.000264443
0.000243502
0.000201306
0.000143592
4.42509e-05
0.000100573
0.0001505
0.000191679
0.000222698
0.000246077
0.000264945
0.000280889
0.000294495
0.000306066
0.000315928
0.000324165
0.000330544
0.000335069
0.000338064
0.000339956
0.000341176
0.000342049
0.000342649
0.000342805
0.000341943
0.000339329
0.000334522
0.000326009
0.000312092
0.000293454
0.000274885
0.000264131
0.000265047
0.000271532
0.000273181
0.000265805
0.00024587
0.000204272
0.000146468
4.55362e-05
0.000101658
0.000151296
0.000192157
0.000222795
0.000245877
0.000264543
0.000280343
0.000293844
0.000305333
0.000315112
0.000323188
0.000329259
0.000333293
0.000335604
0.000336668
0.000337045
0.000337301
0.000337876
0.000339021
0.000340505
0.000341706
0.000341813
0.000338267
0.000328765
0.000312989
0.000294165
0.000279244
0.000274166
0.000276104
0.000275686
0.00026773
0.000247813
0.000206202
0.000148305
4.69427e-05
0.000102727
0.00015201
0.000192504
0.000222723
0.000245479
0.000263916
0.000279554
0.000292946
0.000304372
0.000314108
0.000322068
0.000327866
0.000331404
0.000332952
0.000332983
0.000332135
0.000331183
0.000330954
0.000332261
0.000335441
0.000340178
0.000345108
0.000346664
0.00034196
0.000329918
0.000312522
0.00029563
0.000286004
0.000283278
0.000279867
0.000270391
0.000249644
0.000207426
0.000149313
4.84315e-05
0.000103713
0.000152591
0.000192685
0.000222463
0.000244871
0.000263057
0.000278517
0.000291803
0.000303195
0.00031295
0.000320876
0.000326494
0.000329624
0.000330448
0.000329384
0.000327074
0.000324423
0.000322611
0.000323096
0.000327033
0.00033471
0.000344123
0.000350772
0.000351137
0.0003435
0.000328847
0.000311852
0.000299249
0.000292201
0.000285269
0.000273561
0.000251254
0.000207861
0.000149289
4.99018e-05
0.000104536
0.000152993
0.000192677
0.000222011
0.000244063
0.000261986
0.000277259
0.000290445
0.000301839
0.000311689
0.000319697
0.000325287
0.000328186
0.00032846
0.000326409
0.000322601
0.000317959
0.000313895
0.000312495
0.000315939
0.000325514
0.000338689
0.000350109
0.000355541
0.000352684
0.000341743
0.000326308
0.000312554
0.000302084
0.000291561
0.000277094
0.000252454
0.000207092
0.000147547