/*--------------------------------*- C++ -*----------------------------------*\
| =========                 |                                                 |
| \\      /  F ield         | OpenFOAM: The Open Source CFD Toolbox           |
|  \\    /   O peration     | Version:  v2006                                 |
|   \\  /    A nd           | Website:  www.openfoam.com                      |
|    \\/     M anipulation  |                                                 |
\*---------------------------------------------------------------------------*/
FoamFile
{
    version     2.0;
    format      ascii;
    class       volScalarField;
    location    "37";
    object      nut;
}
// * * * * * * * * * * * * * * * * * * * * * * * * * * * * * * * * * * * * * //

dimensions      [0 2 -1 0 0 0 0];


internalField   nonuniform List<scalar> 
78750
(
7.93445e-08
1.59402e-06
1.59314e-06
1.54846e-06
1.4737e-06
1.38959e-06
1.31061e-06
1.24426e-06
1.19213e-06
1.15222e-06
1.12163e-06
1.09774e-06
1.07837e-06
1.06171e-06
1.04635e-06
1.03121e-06
1.01544e-06
9.98345e-07
9.79368e-07
9.58107e-07
9.34313e-07
9.07905e-07
8.78963e-07
8.47705e-07
8.14447e-07
7.79508e-07
7.4303e-07
7.04657e-07
6.62847e-07
6.13641e-07
5.48412e-07
4.56291e-07
3.37146e-07
2.1715e-07
4.94488e-09
5.27916e-09
1.4711e-06
3.3123e-06
5.52879e-06
7.21783e-06
8.91207e-06
9.00773e-06
9.14469e-06
9.33369e-06
9.54805e-06
9.75828e-06
9.94162e-06
1.00825e-05
1.01719e-05
1.02058e-05
1.01836e-05
1.01063e-05
9.97525e-06
9.79202e-06
9.55852e-06
9.27695e-06
8.95004e-06
8.58117e-06
8.17467e-06
7.73562e-06
7.27023e-06
6.78768e-06
6.29873e-06
5.81347e-06
5.33854e-06
3.61993e-06
2.02071e-06
1.48347e-06
1.91884e-06
1.6556e-08
9.32439e-09
1.58781e-06
2.48247e-06
2.38706e-06
2.51771e-06
3.12645e-06
4.27318e-06
5.96287e-06
8.21744e-06
1.09076e-05
1.22668e-05
1.30267e-05
1.36335e-05
1.40975e-05
1.41796e-05
1.37616e-05
1.33861e-05
1.3035e-05
1.26805e-05
1.23046e-05
1.18881e-05
1.14185e-05
1.08931e-05
1.03024e-05
9.60867e-06
8.75161e-06
7.64604e-06
6.21134e-06
4.51184e-06
2.92407e-06
1.86721e-06
1.41392e-06
1.64937e-06
1.79678e-06
2.74183e-08
4.0011e-09
1.36118e-06
2.05729e-06
2.67562e-06
2.9148e-06
3.45616e-06
4.38509e-06
5.5726e-06
6.90852e-06
8.41106e-06
1.0321e-05
1.29477e-05
1.46043e-05
1.53634e-05
1.59732e-05
1.64553e-05
1.68255e-05
1.70936e-05
1.72641e-05
1.73375e-05
1.73106e-05
1.71773e-05
1.565e-05
1.39777e-05
1.23345e-05
1.06706e-05
8.95737e-06
7.19055e-06
5.41158e-06
3.74954e-06
2.4605e-06
1.76853e-06
1.92176e-06
2.21434e-06
3.41305e-08
3.27671e-09
1.33329e-06
2.20313e-06
3.10836e-06
3.43148e-06
3.72779e-06
4.27924e-06
5.00725e-06
5.89135e-06
6.99251e-06
8.47632e-06
1.07167e-05
1.37765e-05
1.44032e-05
1.49443e-05
1.54062e-05
1.57909e-05
1.60978e-05
1.63239e-05
1.64649e-05
1.65148e-05
1.64657e-05
1.6308e-05
1.49021e-05
1.19656e-05
9.45881e-06
7.33092e-06
5.50265e-06
4.01006e-06
2.90135e-06
2.17752e-06
1.90815e-06
2.68167e-06
1.88293e-06
4.34783e-08
2.01818e-09
1.10051e-06
1.90244e-06
2.7118e-06
3.07022e-06
3.12174e-06
3.40617e-06
3.90415e-06
4.63686e-06
5.66865e-06
7.11879e-06
9.21361e-06
1.21778e-05
1.42492e-05
1.50406e-05
1.57289e-05
1.63106e-05
1.6784e-05
1.7148e-05
1.74008e-05
1.75397e-05
1.75601e-05
1.74559e-05
1.69496e-05
1.36785e-05
1.06158e-05
8.00089e-06
5.80511e-06
4.06596e-06
2.83503e-06
2.09951e-06
1.86668e-06
2.72808e-06
2.13387e-06
4.82238e-08
1.37052e-09
1.02991e-06
1.85356e-06
2.69256e-06
2.90444e-06
3.03648e-06
3.40512e-06
4.01648e-06
4.90828e-06
6.15424e-06
7.88925e-06
1.03626e-05
1.35217e-05
1.44278e-05
1.52283e-05
1.59201e-05
1.65023e-05
1.69745e-05
1.73354e-05
1.75817e-05
1.77081e-05
1.77065e-05
1.75675e-05
1.56226e-05
1.23062e-05
9.39523e-06
6.96965e-06
5.00401e-06
3.52446e-06
2.55465e-06
2.03372e-06
2.01252e-06
3.44178e-06
1.98147e-06
5.45606e-08
8.252e-10
8.89047e-07
1.65997e-06
2.44764e-06
2.56135e-06
2.81686e-06
3.25315e-06
3.90494e-06
4.82104e-06
6.06929e-06
7.74589e-06
9.98643e-06
1.28158e-05
1.45153e-05
1.54059e-05
1.61869e-05
1.68593e-05
1.74238e-05
1.78799e-05
1.82244e-05
1.8451e-05
1.85498e-05
1.85076e-05
1.65345e-05
1.31927e-05
1.00495e-05
7.34404e-06
5.15496e-06
3.53235e-06
2.48978e-06
1.95773e-06
1.95592e-06
3.43759e-06
2.0787e-06
5.84168e-08
6.52195e-10
8.9103e-07
1.72041e-06
2.11987e-06
2.50337e-06
2.99264e-06
3.66223e-06
4.57761e-06
5.81126e-06
7.45764e-06
9.65627e-06
1.24432e-05
1.4053e-05
1.49559e-05
1.57494e-05
1.64362e-05
1.70196e-05
1.75021e-05
1.78845e-05
1.8165e-05
1.83382e-05
1.83955e-05
1.83243e-05
1.58144e-05
1.24461e-05
9.42826e-06
6.8789e-06
4.83914e-06
3.35465e-06
2.43453e-06
1.99215e-06
2.10231e-06
4.02124e-06
1.99633e-06
6.35406e-08
8.18432e-10
8.32576e-07
1.51664e-06
2.12112e-06
2.74678e-06
3.48958e-06
4.42415e-06
5.61029e-06
7.09861e-06
8.93676e-06
1.11682e-05
1.36976e-05
1.48305e-05
1.5723e-05
1.6513e-05
1.72017e-05
1.77897e-05
1.82766e-05
1.86604e-05
1.89371e-05
1.91005e-05
1.91419e-05
1.90505e-05
1.59727e-05
1.2611e-05
9.54766e-06
6.92435e-06
4.82966e-06
3.31805e-06
2.39472e-06
1.96667e-06
2.10854e-06
4.15124e-06
2.02197e-06
6.75871e-08
1.18454e-09
7.77269e-07
1.5254e-06
2.30485e-06
3.16624e-06
4.1766e-06
5.39574e-06
6.87421e-06
8.66248e-06
1.08198e-05
1.32888e-05
1.46189e-05
1.55373e-05
1.63579e-05
1.70823e-05
1.77116e-05
1.82454e-05
1.86824e-05
1.90196e-05
1.92518e-05
1.93723e-05
1.93719e-05
1.80858e-05
1.49444e-05
1.18028e-05
8.98172e-06
6.57053e-06
4.63768e-06
3.24541e-06
2.40023e-06
2.02374e-06
2.24608e-06
4.66498e-06
1.97391e-06
7.23879e-08
1.66883e-09
7.94129e-07
1.61505e-06
2.53007e-06
3.56388e-06
4.7587e-06
6.15625e-06
7.79443e-06
9.70977e-06
1.19234e-05
1.4208e-05
1.52234e-05
1.61505e-05
1.69863e-05
1.7728e-05
1.8373e-05
1.89187e-05
1.9362e-05
1.96985e-05
1.99227e-05
2.00271e-05
2.00029e-05
1.78249e-05
1.46755e-05
1.15456e-05
8.72594e-06
6.34967e-06
4.48411e-06
3.16374e-06
2.37328e-06
2.03635e-06
2.31165e-06
4.95676e-06
1.97142e-06
7.65032e-08
2.14935e-09
7.82342e-07
1.62632e-06
2.60265e-06
3.72454e-06
5.03005e-06
6.5694e-06
8.4e-06
1.05768e-05
1.30612e-05
1.49319e-05
1.59941e-05
1.6948e-05
1.77899e-05
1.85187e-05
1.91355e-05
1.96418e-05
2.00387e-05
2.03257e-05
2.04999e-05
2.05558e-05
2.01004e-05
1.73886e-05
1.42701e-05
1.12019e-05
8.43485e-06
6.11887e-06
4.33019e-06
3.09808e-06
2.37324e-06
2.08873e-06
2.4492e-06
5.45465e-06
1.94194e-06
8.0987e-08
2.69473e-09
7.64777e-07
1.62605e-06
2.68069e-06
3.94868e-06
5.47356e-06
7.3085e-06
9.49563e-06
1.203e-05
1.47492e-05
1.64217e-05
1.74745e-05
1.83889e-05
1.91693e-05
1.98223e-05
2.03552e-05
2.07741e-05
2.10836e-05
2.12855e-05
2.13787e-05
2.1359e-05
2.0171e-05
1.74122e-05
1.42814e-05
1.11722e-05
8.36237e-06
6.02885e-06
4.25527e-06
3.06143e-06
2.37252e-06
2.12346e-06
2.55003e-06
5.82666e-06
1.93212e-06
8.52134e-08
3.26318e-09
7.94445e-07
1.72838e-06
2.9355e-06
4.44516e-06
6.29475e-06
8.51325e-06
1.10885e-05
1.39245e-05
1.67439e-05
1.79036e-05
1.88726e-05
1.96934e-05
2.03772e-05
2.0935e-05
2.13762e-05
2.17083e-05
2.19362e-05
2.20619e-05
2.20842e-05
2.18951e-05
1.96887e-05
1.69212e-05
1.39041e-05
1.09027e-05
8.17276e-06
5.89888e-06
4.17967e-06
3.0434e-06
2.3958e-06
2.18723e-06
2.69894e-06
6.28578e-06
1.9136e-06
8.97225e-08
3.97733e-09
8.75997e-07
1.92688e-06
3.31031e-06
5.04985e-06
7.1601e-06
9.62897e-06
1.23834e-05
1.52641e-05
1.79943e-05
1.92215e-05
2.0121e-05
2.08758e-05
2.1497e-05
2.19947e-05
2.23771e-05
2.26507e-05
2.28195e-05
2.28853e-05
2.28473e-05
2.13311e-05
1.90867e-05
1.64192e-05
1.35212e-05
1.06362e-05
8.00242e-06
5.80057e-06
4.13661e-06
3.0449e-06
2.42616e-06
2.24799e-06
2.83365e-06
6.65666e-06
1.90562e-06
9.4126e-08
4.638e-09
9.56769e-07
2.10146e-06
3.59585e-06
5.45503e-06
7.68831e-06
1.028e-05
1.31441e-05
1.60929e-05
1.88378e-05
2.02862e-05
2.11632e-05
2.18924e-05
2.2484e-05
2.29471e-05
2.32895e-05
2.35173e-05
2.36349e-05
2.36442e-05
2.23854e-05
2.05852e-05
1.83496e-05
1.57563e-05
1.29712e-05
1.02191e-05
7.71812e-06
5.6337e-06
4.06807e-06
3.04606e-06
2.46965e-06
2.33068e-06
3.00597e-06
7.02647e-06
1.89554e-06
9.88149e-08
5.3388e-09
1.0114e-06
2.20975e-06
3.76429e-06
5.70095e-06
8.0502e-06
1.0807e-05
1.38553e-05
1.69363e-05
1.97245e-05
2.15727e-05
2.24311e-05
2.31324e-05
2.36879e-05
2.41078e-05
2.44006e-05
2.45731e-05
2.44434e-05
2.34044e-05
2.19814e-05
2.01617e-05
1.79259e-05
1.53454e-05
1.2597e-05
9.91073e-06
7.49591e-06
5.50242e-06
4.02103e-06
3.05527e-06
2.51439e-06
2.4108e-06
3.17069e-06
7.31123e-06
1.89253e-06
1.03572e-07
6.02908e-09
1.04958e-06
2.28951e-06
3.90954e-06
5.96108e-06
8.49928e-06
1.15105e-05
1.48079e-05
1.80298e-05
2.08146e-05
2.28678e-05
2.36893e-05
2.43477e-05
2.48563e-05
2.52265e-05
2.5467e-05
2.51462e-05
2.43263e-05
2.31996e-05
2.17279e-05
1.98513e-05
1.75577e-05
1.49359e-05
1.21839e-05
9.54226e-06
7.21272e-06
5.32575e-06
3.95239e-06
3.06043e-06
2.56721e-06
2.5086e-06
3.36831e-06
7.55167e-06
1.88955e-06
1.08604e-07
6.91181e-09
1.09598e-06
2.39295e-06
4.11025e-06
6.3245e-06
9.10012e-06
1.23799e-05
1.58712e-05
1.91248e-05
2.17937e-05
2.37617e-05
2.49695e-05
2.55841e-05
2.60495e-05
2.60637e-05
2.57148e-05
2.51101e-05
2.42541e-05
2.31103e-05
2.16126e-05
1.9696e-05
1.73511e-05
1.46813e-05
1.19034e-05
9.27111e-06
6.98835e-06
5.17592e-06
3.88831e-06
3.06014e-06
2.61279e-06
2.60067e-06
3.56155e-06
7.72092e-06
1.89122e-06
1.13701e-07
7.86133e-09
1.14441e-06
2.50134e-06
4.3181e-06
6.69167e-06
9.68664e-06
1.31923e-05
1.68189e-05
2.00651e-05
2.26187e-05
2.44232e-05
2.55616e-05
2.6155e-05
2.63224e-05
2.61622e-05
2.57415e-05
2.509e-05
2.41988e-05
2.3022e-05
2.14864e-05
1.95219e-05
1.71209e-05
1.43985e-05
1.15905e-05
8.96658e-06
6.73365e-06
5.00276e-06
3.8101e-06
3.05518e-06
2.66251e-06
2.7062e-06
3.78412e-06
7.82714e-06
1.89259e-06
1.18971e-07
8.95445e-09
1.18918e-06
2.60117e-06
4.51176e-06
7.03895e-06
1.02469e-05
1.39663e-05
1.77097e-05
2.0937e-05
2.33781e-05
2.50316e-05
2.60153e-05
2.64717e-05
2.65297e-05
2.62895e-05
2.58148e-05
2.51305e-05
2.42217e-05
2.30336e-05
2.1483e-05
1.94915e-05
1.70473e-05
1.42699e-05
1.14102e-05
8.75844e-06
6.53503e-06
4.85178e-06
3.72892e-06
3.03768e-06
2.70003e-06
2.8041e-06
4.00484e-06
7.87508e-06
1.89619e-06
1.24277e-07
1.00712e-08
1.22554e-06
2.68532e-06
4.68376e-06
7.36222e-06
1.07854e-05
1.47202e-05
1.85779e-05
2.1786e-05
2.41197e-05
2.56302e-05
2.64682e-05
2.67947e-05
2.67479e-05
2.64304e-05
2.59043e-05
2.519e-05
2.42657e-05
2.30655e-05
2.14966e-05
1.94735e-05
1.69825e-05
1.4149e-05
1.12383e-05
8.55808e-06
6.34157e-06
4.703e-06
3.64449e-06
3.01589e-06
2.73696e-06
2.91002e-06
4.25106e-06
7.85569e-06
1.89806e-06
1.29555e-07
1.13256e-08
1.26127e-06
2.76969e-06
4.861e-06
7.70196e-06
1.13528e-05
1.54987e-05
1.94421e-05
2.25972e-05
2.48015e-05
2.61606e-05
2.68559e-05
2.70633e-05
2.69272e-05
2.65505e-05
2.59921e-05
2.52667e-05
2.43453e-05
2.31516e-05
2.15847e-05
1.95516e-05
1.70319e-05
1.41494e-05
1.11781e-05
8.44495e-06
6.20395e-06
4.58009e-06
3.56062e-06
2.98215e-06
2.75942e-06
3.00489e-06
4.49243e-06
7.78898e-06
1.90023e-06
1.34605e-07
1.26009e-08
1.29483e-06
2.84848e-06
5.02712e-06
8.02322e-06
1.18899e-05
1.62254e-05
2.02307e-05
2.3321e-05
2.53955e-05
2.66078e-05
2.71654e-05
2.72581e-05
2.70362e-05
2.66031e-05
2.60145e-05
2.52791e-05
2.43603e-05
2.31739e-05
2.1614e-05
1.95842e-05
1.70606e-05
1.41624e-05
1.11611e-05
8.38988e-06
6.12019e-06
4.49453e-06
3.49255e-06
2.94886e-06
2.77629e-06
3.09627e-06
4.73875e-06
7.67614e-06
1.90149e-06
1.39425e-07
1.39674e-08
1.32566e-06
2.91898e-06
5.17845e-06
8.32485e-06
1.24013e-05
1.69088e-05
2.09488e-05
2.39527e-05
2.58867e-05
2.69495e-05
2.73723e-05
2.73572e-05
2.70591e-05
2.65813e-05
2.59753e-05
2.52436e-05
2.43397e-05
2.31733e-05
2.16345e-05
1.9625e-05
1.71186e-05
1.42294e-05
1.12213e-05
8.42432e-06
6.11954e-06
4.46868e-06
3.45439e-06
2.91996e-06
2.78089e-06
3.16591e-06
4.95191e-06
7.56076e-06
1.90491e-06
1.44065e-07
1.53214e-08
1.35008e-06
2.9754e-06
5.30721e-06
8.59431e-06
1.28651e-05
1.75181e-05
2.15654e-05
2.44675e-05
2.62551e-05
2.71675e-05
2.74571e-05
2.73373e-05
2.69676e-05
2.64504e-05
2.58329e-05
2.51112e-05
2.42299e-05
2.30922e-05
2.15851e-05
1.96094e-05
1.71393e-05
1.42868e-05
1.13062e-05
8.51503e-06
6.19159e-06
4.5114e-06
3.46435e-06
2.91381e-06
2.78647e-06
3.22052e-06
5.13178e-06
7.45731e-06
1.91085e-06
1.48768e-07
1.67953e-08
1.37368e-06
3.03017e-06
5.43503e-06
8.86227e-06
1.33149e-05
1.8079e-05
2.20924e-05
2.48646e-05
2.64933e-05
2.72534e-05
2.74153e-05
2.72004e-05
2.67705e-05
2.62255e-05
2.56075e-05
2.49057e-05
2.40563e-05
2.29577e-05
2.14945e-05
1.9565e-05
1.71433e-05
1.4342e-05
1.14101e-05
8.65181e-06
6.33198e-06
4.62764e-06
3.53441e-06
2.94281e-06
2.79922e-06
3.25463e-06
5.25402e-06
7.40314e-06
1.9216e-06
1.53775e-07
1.8305e-08
1.39385e-06
3.0768e-06
5.54579e-06
9.09502e-06
1.36991e-05
1.85402e-05
2.24998e-05
2.51387e-05
2.66125e-05
2.72274e-05
2.72695e-05
2.69679e-05
2.64858e-05
2.59205e-05
2.53087e-05
2.46318e-05
2.38192e-05
2.27649e-05
2.13489e-05
1.94648e-05
1.70854e-05
1.43294e-05
1.14523e-05
8.75284e-06
6.47728e-06
4.78561e-06
3.66176e-06
3.02289e-06
2.84358e-06
3.29595e-06
5.35469e-06
7.395e-06
1.93652e-06
1.59207e-07
1.99625e-08
1.41183e-06
3.11849e-06
5.64752e-06
9.3118e-06
1.40549e-05
1.89534e-05
2.2842e-05
2.53408e-05
2.66631e-05
2.71422e-05
2.7077e-05
2.67015e-05
2.61786e-05
2.5602e-05
2.50033e-05
2.4356e-05
2.35847e-05
2.25799e-05
2.12143e-05
1.93715e-05
1.70184e-05
1.42799e-05
1.14312e-05
8.78407e-06
6.57559e-06
4.937e-06
3.8181e-06
3.14788e-06
2.92956e-06
3.36542e-06
5.46931e-06
7.4289e-06
1.95483e-06
1.64877e-07
2.17137e-08
1.42669e-06
3.15443e-06
5.73893e-06
9.50964e-06
1.43771e-05
1.9315e-05
2.3124e-05
2.54882e-05
2.66725e-05
2.70327e-05
2.68765e-05
2.64403e-05
2.58852e-05
2.53016e-05
2.47164e-05
2.40962e-05
2.33627e-05
2.2403e-05
2.10821e-05
1.92705e-05
1.69232e-05
1.41693e-05
1.13116e-05
8.69485e-06
6.56358e-06
5.01915e-06
3.95845e-06
3.29956e-06
3.06554e-06
3.4985e-06
5.67615e-06
7.45569e-06
1.9726e-06
1.70226e-07
2.36434e-08
1.44114e-06
3.1905e-06
5.83199e-06
9.71267e-06
1.47057e-05
1.96749e-05
2.33974e-05
2.56305e-05
2.66886e-05
2.69451e-05
2.67128e-05
2.62276e-05
2.56476e-05
2.50584e-05
2.44824e-05
2.3881e-05
2.31752e-05
2.22517e-05
2.09691e-05
1.91833e-05
1.68311e-05
1.40378e-05
1.11334e-05
8.50911e-06
6.43703e-06
4.99861e-06
4.03729e-06
3.44056e-06
3.23376e-06
3.70204e-06
6.01723e-06
7.42684e-06
1.98542e-06
1.74493e-07
2.56459e-08
1.45421e-06
3.22458e-06
5.9231e-06
9.9169e-06
1.50395e-05
2.00404e-05
2.36803e-05
2.57927e-05
2.67368e-05
2.69012e-05
2.66022e-05
2.60746e-05
2.54722e-05
2.48753e-05
2.42992e-05
2.37035e-05
2.3011e-05
2.21097e-05
2.08558e-05
1.90944e-05
1.67409e-05
1.39052e-05
1.09347e-05
8.27003e-06
6.22721e-06
4.8814e-06
4.03816e-06
3.54694e-06
3.41904e-06
3.98054e-06
6.52218e-06
7.30315e-06
1.9906e-06
1.77118e-07
2.77317e-08
1.46784e-06
3.26048e-06
6.02083e-06
1.01407e-05
1.54073e-05
2.04409e-05
2.3994e-05
2.59842e-05
2.68157e-05
2.68912e-05
2.65304e-05
2.5965e-05
2.53425e-05
2.47357e-05
2.41517e-05
2.35493e-05
2.2856e-05
2.19653e-05
2.07384e-05
1.90168e-05
1.66954e-05
1.38514e-05
1.08229e-05
8.09009e-06
6.02671e-06
4.72255e-06
3.97353e-06
3.60309e-06
3.59475e-06
4.3046e-06
7.13822e-06
7.12125e-06
1.99155e-06
1.7832e-07
2.9778e-08
1.48116e-06
3.29571e-06
6.11971e-06
1.03729e-05
1.57893e-05
2.08507e-05
2.43107e-05
2.6175e-05
2.68917e-05
2.68788e-05
2.64596e-05
2.58617e-05
2.52236e-05
2.46081e-05
2.40126e-05
2.3395e-05
2.26895e-05
2.17992e-05
2.05984e-05
1.89379e-05
1.67001e-05
1.39173e-05
1.08789e-05
8.07139e-06
5.9312e-06
4.59262e-06
3.87894e-06
3.60621e-06
3.73285e-06
4.62699e-06
7.76527e-06
6.94505e-06
1.99407e-06
1.79112e-07
3.18025e-08
1.49483e-06
3.33121e-06
6.22191e-06
1.06169e-05
1.61863e-05
2.12625e-05
2.46135e-05
2.63403e-05
2.69358e-05
2.68339e-05
2.63613e-05
2.57394e-05
2.5095e-05
2.44779e-05
2.38747e-05
2.32435e-05
2.25248e-05
2.16335e-05
2.04618e-05
1.88803e-05
1.67733e-05
1.41298e-05
1.11584e-05
8.30077e-06
6.03714e-06
4.57361e-06
3.80048e-06
3.55843e-06
3.79243e-06
4.86414e-06
8.25533e-06
6.83619e-06
2.00355e-06
1.80786e-07
3.37607e-08
1.50759e-06
3.36435e-06
6.32158e-06
1.0858e-05
1.65687e-05
2.16368e-05
2.48622e-05
2.64435e-05
2.69161e-05
2.67298e-05
2.62129e-05
2.5579e-05
2.49411e-05
2.43331e-05
2.37331e-05
2.30986e-05
2.23744e-05
2.14856e-05
2.03431e-05
1.8842e-05
1.6883e-05
1.44315e-05
1.16137e-05
8.77834e-06
6.39742e-06
4.74636e-06
3.81512e-06
3.50252e-06
3.76525e-06
4.95179e-06
8.51187e-06
6.81742e-06
2.02211e-06
1.84238e-07
3.57575e-08
1.52008e-06
3.3971e-06
6.42265e-06
1.11008e-05
1.69385e-05
2.19707e-05
2.50516e-05
2.64796e-05
2.68302e-05
2.65661e-05
2.60149e-05
2.53801e-05
2.4761e-05
2.41745e-05
2.35896e-05
2.29629e-05
2.22429e-05
2.13637e-05
2.02514e-05
1.88217e-05
1.69962e-05
1.47404e-05
1.21278e-05
9.40616e-06
6.97856e-06
5.14095e-06
3.98996e-06
3.5103e-06
3.69586e-06
4.8892e-06
8.52101e-06
6.88079e-06
2.0475e-06
1.89649e-07
3.78294e-08
1.53176e-06
3.42907e-06
6.52418e-06
1.13416e-05
1.72866e-05
2.22561e-05
2.51808e-05
2.64579e-05
2.66957e-05
2.63653e-05
2.57902e-05
2.5162e-05
2.45656e-05
2.40041e-05
2.34402e-05
2.28279e-05
2.21166e-05
2.12474e-05
2.01586e-05
1.87826e-05
1.70593e-05
1.49674e-05
1.25651e-05
1.00273e-05
7.66123e-06
5.71266e-06
4.34907e-06
3.6519e-06
3.67432e-06
4.76705e-06
8.37365e-06
7.00644e-06
2.07591e-06
1.96514e-07
4.00943e-08
1.54355e-06
3.46309e-06
6.63178e-06
1.15896e-05
1.76274e-05
2.25142e-05
2.52768e-05
2.64061e-05
2.65386e-05
2.61511e-05
2.55606e-05
2.49462e-05
2.43778e-05
2.38433e-05
2.32981e-05
2.26952e-05
2.1987e-05
2.11216e-05
2.00482e-05
1.87087e-05
1.70529e-05
1.50711e-05
1.28293e-05
1.04861e-05
8.27166e-06
6.33191e-06
4.83741e-06
3.94316e-06
3.77562e-06
4.71556e-06
8.24466e-06
7.1695e-06
2.10436e-06
2.03715e-07
4.25564e-08
1.55555e-06
3.49965e-06
6.74738e-06
1.18517e-05
1.79738e-05
2.27618e-05
2.5359e-05
2.63454e-05
2.63793e-05
2.59386e-05
2.53333e-05
2.473e-05
2.41844e-05
2.36711e-05
2.31387e-05
2.25383e-05
2.18255e-05
2.0957e-05
1.98914e-05
1.8576e-05
1.69614e-05
1.50433e-05
1.29055e-05
1.07205e-05
8.67738e-06
6.84346e-06
5.33783e-06
4.33166e-06
4.01676e-06
4.83171e-06
8.33155e-06
7.30995e-06
2.12835e-06
2.09613e-07
4.52361e-08
1.56895e-06
3.54157e-06
6.87642e-06
1.21369e-05
1.83379e-05
2.3015e-05
2.54432e-05
2.62853e-05
2.62183e-05
2.57219e-05
2.50989e-05
2.4503e-05
2.3973e-05
2.34714e-05
2.29398e-05
2.23271e-05
2.15946e-05
2.07118e-05
1.96495e-05
1.83577e-05
1.67782e-05
1.48999e-05
1.28212e-05
1.07446e-05
8.84786e-06
7.15827e-06
5.73821e-06
4.73104e-06
4.36197e-06
5.14976e-06
8.75733e-06
7.35607e-06
2.14284e-06
2.1283e-07
4.79992e-08
1.58286e-06
3.58582e-06
7.01217e-06
1.24367e-05
1.87156e-05
2.3278e-05
2.55335e-05
2.62248e-05
2.60481e-05
2.54889e-05
2.48417e-05
2.42454e-05
2.37207e-05
2.32172e-05
2.26693e-05
2.20251e-05
2.1256e-05
2.03501e-05
1.92954e-05
1.80442e-05
1.6521e-05
1.46923e-05
1.26565e-05
1.06467e-05
8.84508e-06
7.2856e-06
5.99908e-06
5.08329e-06
4.76648e-06
5.6544e-06
9.51814e-06
7.2847e-06
2.14681e-06
2.13073e-07
5.07751e-08
1.59772e-06
3.63288e-06
7.15691e-06
1.27567e-05
1.91093e-05
2.35342e-05
2.56062e-05
2.61447e-05
2.58543e-05
2.52283e-05
2.45522e-05
2.3948e-05
2.34172e-05
2.28958e-05
2.2311e-05
2.1613e-05
2.07889e-05
1.98533e-05
1.88186e-05
1.76423e-05
1.62259e-05
1.44955e-05
1.25245e-05
1.05597e-05
8.79553e-06
7.3138e-06
6.15239e-06
5.37477e-06
5.19623e-06
6.29798e-06
1.04735e-05
7.14379e-06
2.14519e-06
2.1138e-07
5.34653e-08
1.61258e-06
3.68045e-06
7.30607e-06
1.30861e-05
1.94986e-05
2.37685e-05
2.56502e-05
2.60341e-05
2.56351e-05
2.49442e-05
2.42379e-05
2.362e-05
2.30725e-05
2.25173e-05
2.18748e-05
2.10996e-05
2.0201e-05
1.92288e-05
1.82281e-05
1.71674e-05
1.59254e-05
1.43735e-05
1.25283e-05
1.06139e-05
8.83738e-06
7.36009e-06
6.26744e-06
5.61764e-06
5.61484e-06
6.99416e-06
1.14059e-05
7.0078e-06
2.14482e-06
2.09522e-07
5.60931e-08
1.62779e-06
3.72996e-06
7.4645e-06
1.34339e-05
1.98917e-05
2.39935e-05
2.56827e-05
2.59153e-05
2.54148e-05
2.46625e-05
2.39255e-05
2.32895e-05
2.27163e-05
2.21133e-05
2.13928e-05
2.05158e-05
1.95194e-05
1.84975e-05
1.7536e-05
1.66218e-05
1.56177e-05
1.43384e-05
1.27142e-05
1.0887e-05
9.0723e-06
7.52811e-06
6.42165e-06
5.84134e-06
5.99529e-06
7.64889e-06
1.21649e-05
6.92363e-06
2.15069e-06
2.0869e-07
5.86866e-08
1.64318e-06
3.78177e-06
7.63375e-06
1.38005e-05
2.02801e-05
2.42024e-05
2.57035e-05
2.57948e-05
2.52041e-05
2.44008e-05
2.36392e-05
2.29862e-05
2.23838e-05
2.17229e-05
2.09059e-05
1.99003e-05
1.87766e-05
1.76818e-05
1.67509e-05
1.59963e-05
1.52732e-05
1.43459e-05
1.30457e-05
1.13767e-05
9.54031e-06
7.88535e-06
6.68454e-06
6.09006e-06
6.3365e-06
8.20745e-06
1.27355e-05
6.89532e-06
2.16276e-06
2.09106e-07
6.13259e-08
1.65892e-06
3.83613e-06
7.81121e-06
1.41725e-05
2.06515e-05
2.43885e-05
2.57129e-05
2.56793e-05
2.50142e-05
2.41726e-05
2.33955e-05
2.27308e-05
2.21009e-05
2.13776e-05
2.04486e-05
1.92859e-05
1.79974e-05
1.67932e-05
1.58671e-05
1.52643e-05
1.48416e-05
1.43233e-05
1.34361e-05
1.20167e-05
1.02175e-05
8.45294e-06
7.10788e-06
6.4231e-06
6.68276e-06
8.69365e-06
1.32029e-05
6.91411e-06
2.17966e-06
2.10307e-07
6.40282e-08
1.67455e-06
3.8923e-06
7.99398e-06
1.4541e-05
2.09957e-05
2.45496e-05
2.57152e-05
2.5576e-05
2.48528e-05
2.39864e-05
2.3204e-05
2.25363e-05
2.18862e-05
2.11027e-05
2.00528e-05
1.8707e-05
1.72121e-05
1.58507e-05
1.48867e-05
1.44062e-05
1.42778e-05
1.4198e-05
1.37841e-05
1.27041e-05
1.10281e-05
9.19948e-06
7.70601e-06
6.89046e-06
7.10677e-06
9.1987e-06
1.36775e-05
6.96464e-06
2.19954e-06
2.11499e-07
6.6794e-08
1.69053e-06
3.95147e-06
8.18248e-06
1.49027e-05
2.13124e-05
2.46921e-05
2.57189e-05
2.54924e-05
2.47253e-05
2.38456e-05
2.30686e-05
2.2409e-05
2.17515e-05
2.09197e-05
1.97522e-05
1.82077e-05
1.64671e-05
1.48935e-05
1.38328e-05
1.34232e-05
1.3556e-05
1.39143e-05
1.40009e-05
1.33317e-05
1.18709e-05
1.00555e-05
8.45454e-06
7.51435e-06
7.6757e-06
9.83296e-06
1.42468e-05
7.0379e-06
2.22228e-06
2.12055e-07
6.95468e-08
1.70646e-06
4.01159e-06
8.36816e-06
1.52396e-05
2.15877e-05
2.48088e-05
2.57185e-05
2.5422e-05
2.46241e-05
2.37426e-05
2.29829e-05
2.23463e-05
2.17018e-05
2.08478e-05
1.95868e-05
1.78499e-05
1.58368e-05
1.39923e-05
1.27587e-05
1.23399e-05
1.26656e-05
1.34231e-05
1.4011e-05
1.38067e-05
1.26497e-05
1.09408e-05
9.30572e-06
8.28866e-06
8.42904e-06
1.06792e-05
1.49445e-05
7.13029e-06
2.24882e-06
2.11713e-07
7.21928e-08
1.7219e-06
4.07038e-06
8.543e-06
1.55381e-05
2.18181e-05
2.49026e-05
2.57155e-05
2.53633e-05
2.45449e-05
2.36713e-05
2.29399e-05
2.23419e-05
2.17359e-05
2.0899e-05
1.9595e-05
1.77063e-05
1.54205e-05
1.32511e-05
1.17519e-05
1.1213e-05
1.16197e-05
1.26881e-05
1.37453e-05
1.40436e-05
1.32779e-05
1.17804e-05
1.02081e-05
9.19372e-06
9.38172e-06
1.1774e-05
1.57482e-05
7.24173e-06
2.28025e-06
2.10569e-07
7.45435e-08
1.7362e-06
4.12451e-06
8.69722e-06
1.57869e-05
2.2002e-05
2.49755e-05
2.57117e-05
2.53159e-05
2.44848e-05
2.36269e-05
2.29338e-05
2.23904e-05
2.18512e-05
2.10815e-05
1.98102e-05
1.78503e-05
1.53279e-05
1.27956e-05
1.0928e-05
1.01288e-05
1.04608e-05
1.16986e-05
1.31494e-05
1.39663e-05
1.36766e-05
1.25036e-05
1.11072e-05
1.01975e-05
1.05249e-05
1.31086e-05
1.66011e-05
7.37091e-06
2.31686e-06
2.08876e-07
7.63765e-08
1.74852e-06
4.16916e-06
8.8177e-06
1.59744e-05
2.21355e-05
2.50238e-05
2.56994e-05
2.52685e-05
2.44304e-05
2.35935e-05
2.29444e-05
2.24648e-05
2.20122e-05
2.13538e-05
2.02014e-05
1.82984e-05
1.56559e-05
1.27742e-05
1.04378e-05
9.21423e-06
9.27453e-06
1.04825e-05
1.21917e-05
1.35075e-05
1.3772e-05
1.30434e-05
1.19466e-05
1.12569e-05
1.18238e-05
1.46245e-05
1.74351e-05
7.51802e-06
2.35891e-06
2.07023e-07
7.75924e-08
1.75815e-06
4.20159e-06
8.90096e-06
1.61035e-05
2.22263e-05
2.50493e-05
2.56731e-05
2.52112e-05
2.43692e-05
2.35573e-05
2.29566e-05
2.25471e-05
2.21937e-05
2.16788e-05
2.07201e-05
1.901e-05
1.64115e-05
1.32784e-05
1.04373e-05
8.63904e-06
8.20945e-06
9.13906e-06
1.08949e-05
1.26254e-05
1.35003e-05
1.33386e-05
1.26705e-05
1.23163e-05
1.32086e-05
1.62064e-05
1.81943e-05
7.68882e-06
2.40728e-06
2.05592e-07
7.82088e-08
1.76462e-06
4.22043e-06
8.94679e-06
1.61799e-05
2.22826e-05
2.50559e-05
2.56322e-05
2.51399e-05
2.42948e-05
2.35092e-05
2.2958e-05
2.26196e-05
2.23668e-05
2.2005e-05
2.1281e-05
1.98781e-05
1.75302e-05
1.43506e-05
1.10619e-05
8.58898e-06
7.47882e-06
7.85672e-06
9.36778e-06
1.13178e-05
1.27953e-05
1.33125e-05
1.32001e-05
1.32835e-05
1.45571e-05
1.7699e-05
1.88657e-05
7.89664e-06
2.4643e-06
2.05378e-07
7.83488e-08
1.76783e-06
4.22619e-06
8.96027e-06
1.62146e-05
2.23117e-05
2.50434e-05
2.55724e-05
2.50494e-05
2.42026e-05
2.3445e-05
2.29443e-05
2.26767e-05
2.25204e-05
2.23037e-05
2.18134e-05
2.07648e-05
1.8832e-05
1.58846e-05
1.23671e-05
9.23371e-06
7.30339e-06
6.90066e-06
7.85493e-06
9.69446e-06
1.16143e-05
1.28651e-05
1.3434e-05
1.40479e-05
1.57206e-05
1.89564e-05
1.94635e-05
8.14937e-06
2.53119e-06
2.07095e-07
7.82006e-08
1.7683e-06
4.2213e-06
8.94974e-06
1.62186e-05
2.23169e-05
2.50083e-05
2.54878e-05
2.49335e-05
2.40857e-05
2.33577e-05
2.29105e-05
2.27156e-05
2.26514e-05
2.25642e-05
2.22788e-05
2.15624e-05
2.0103e-05
1.76215e-05
1.42178e-05
1.06316e-05
7.8662e-06
6.53891e-06
6.68895e-06
8.0366e-06
1.00337e-05
1.18956e-05
1.32239e-05
1.44622e-05
1.65572e-05
1.98834e-05
1.99876e-05
8.43722e-06
2.60602e-06
2.11058e-07
7.79657e-08
1.76644e-06
4.20884e-06
8.92625e-06
1.62089e-05
2.23058e-05
2.49497e-05
2.53753e-05
2.47896e-05
2.39433e-05
2.32468e-05
2.28514e-05
2.27229e-05
2.27433e-05
2.27728e-05
2.26587e-05
2.22146e-05
2.11847e-05
1.92592e-05
1.62838e-05
1.26227e-05
9.2067e-06
6.94023e-06
6.15541e-06
6.72418e-06
8.34323e-06
1.04456e-05
1.24375e-05
1.43641e-05
1.69452e-05
2.04391e-05
2.04135e-05
8.73026e-06
2.68308e-06
2.17142e-07
7.78655e-08
1.76339e-06
4.1936e-06
8.90315e-06
1.62027e-05
2.22851e-05
2.4867e-05
2.52315e-05
2.4613e-05
2.37689e-05
2.31046e-05
2.27622e-05
2.27016e-05
2.28003e-05
2.2923e-05
2.29386e-05
2.27017e-05
2.20136e-05
2.05991e-05
1.82007e-05
1.48461e-05
1.11513e-05
8.10631e-06
6.3825e-06
6.04811e-06
6.96013e-06
8.80903e-06
1.11212e-05
1.36524e-05
1.67719e-05
2.0581e-05
2.07091e-05
8.99125e-06
2.75399e-06
2.24983e-07
7.80338e-08
1.75966e-06
4.17898e-06
8.88954e-06
1.62112e-05
2.226e-05
2.47598e-05
2.50531e-05
2.43985e-05
2.35568e-05
2.29246e-05
2.26335e-05
2.2636e-05
2.28055e-05
2.30092e-05
2.31235e-05
2.30232e-05
2.25628e-05
2.15435e-05
1.97132e-05
1.68952e-05
1.33387e-05
9.85208e-06
7.32536e-06
6.09371e-06
6.17139e-06
7.41558e-06
9.57072e-06
1.24142e-05
1.60454e-05
2.03303e-05
2.08681e-05
9.19694e-06
2.81382e-06
2.34069e-07
7.85913e-08
1.75663e-06
4.16897e-06
8.8951e-06
1.62474e-05
2.22381e-05
2.46313e-05
2.4841e-05
2.41462e-05
2.33064e-05
2.27062e-05
2.24644e-05
2.25243e-05
2.27542e-05
2.30202e-05
2.32005e-05
2.31846e-05
2.28644e-05
2.21053e-05
2.07167e-05
1.84818e-05
1.53751e-05
1.18611e-05
8.8083e-06
6.79101e-06
6.04078e-06
6.54306e-06
8.19348e-06
1.09224e-05
1.48356e-05
1.96989e-05
2.08974e-05
9.32753e-06
2.85939e-06
2.43632e-07
7.9571e-08
1.75411e-06
4.16374e-06
8.91886e-06
1.63076e-05
2.22144e-05
2.44775e-05
2.45919e-05
2.38532e-05
2.30149e-05
2.24464e-05
2.22523e-05
2.23642e-05
2.26446e-05
2.2954e-05
2.31671e-05
2.31812e-05
2.29201e-05
2.23109e-05
2.1238e-05
1.95072e-05
1.69612e-05
1.37688e-05
1.05514e-05
7.96582e-06
6.48318e-06
6.24954e-06
7.25936e-06
9.56599e-06
1.34277e-05
1.87804e-05
2.08317e-05
9.38021e-06
2.88737e-06
2.52976e-07
8.10045e-08
1.75292e-06
4.16577e-06
8.96614e-06
1.63989e-05
2.21949e-05
2.43042e-05
2.43119e-05
2.35256e-05
2.26888e-05
2.21525e-05
2.20045e-05
2.21637e-05
2.24839e-05
2.28168e-05
2.30294e-05
2.30215e-05
2.27438e-05
2.21828e-05
2.13049e-05
1.99763e-05
1.7995e-05
1.53106e-05
1.22433e-05
9.3775e-06
7.33288e-06
6.4491e-06
6.82409e-06
8.58438e-06
1.21358e-05
1.77637e-05
2.0725e-05
9.3714e-06
2.89955e-06
2.61575e-07
8.28387e-08
1.75282e-06
4.17372e-06
9.03167e-06
1.65094e-05
2.21687e-05
2.41059e-05
2.39997e-05
2.31647e-05
2.23308e-05
2.18283e-05
2.17261e-05
2.19294e-05
2.22812e-05
2.2621e-05
2.28033e-05
2.27253e-05
2.23614e-05
2.17583e-05
2.09678e-05
1.99333e-05
1.84615e-05
1.63635e-05
1.36674e-05
1.07835e-05
8.39245e-06
6.99832e-06
6.82038e-06
8.0448e-06
1.11692e-05
1.68385e-05
2.06259e-05
9.31277e-06
2.89705e-06
2.68841e-07
8.50243e-08
1.75397e-06
4.18786e-06
9.11474e-06
1.66357e-05
2.21336e-05
2.38846e-05
2.36601e-05
2.27775e-05
2.19489e-05
2.14825e-05
2.14273e-05
2.16735e-05
2.20519e-05
2.23867e-05
2.25148e-05
2.23246e-05
2.18114e-05
2.10845e-05
2.02867e-05
1.94476e-05
1.84096e-05
1.69e-05
1.47018e-05
1.20141e-05
9.48111e-06
7.73428e-06
7.12514e-06
7.90446e-06
1.063e-05
1.62127e-05
2.05811e-05
9.20994e-06
2.88225e-06
2.74174e-07
8.74921e-08
1.7563e-06
4.20746e-06
9.21066e-06
1.67655e-05
2.20803e-05
2.36393e-05
2.32981e-05
2.23709e-05
2.15507e-05
2.11229e-05
2.11162e-05
2.1406e-05
2.18101e-05
2.21353e-05
2.21954e-05
2.18623e-05
2.11472e-05
2.02241e-05
1.93333e-05
1.85986e-05
1.79153e-05
1.696e-05
1.53203e-05
1.29817e-05
1.04875e-05
8.54043e-06
7.62046e-06
8.06564e-06
1.04874e-05
1.59664e-05
2.05958e-05
9.0703e-06
2.85868e-06
2.77556e-07
9.01924e-08
1.75967e-06
4.23173e-06
9.3145e-06
1.68886e-05
2.20056e-05
2.33752e-05
2.29236e-05
2.19571e-05
2.11486e-05
2.07622e-05
2.08069e-05
2.11436e-05
2.15783e-05
2.18989e-05
2.18912e-05
2.14012e-05
2.0447e-05
1.92657e-05
1.82008e-05
1.74772e-05
1.70566e-05
1.65906e-05
1.55273e-05
1.36501e-05
1.13536e-05
9.35274e-06
8.24008e-06
8.45766e-06
1.06842e-05
1.60983e-05
2.06706e-05
8.91688e-06
2.83182e-06
2.79385e-07
9.30507e-08
1.76387e-06
4.2594e-06
9.41938e-06
1.69933e-05
2.19069e-05
2.30991e-05
2.25475e-05
2.15477e-05
2.07541e-05
2.0412e-05
2.0512e-05
2.09026e-05
2.13795e-05
2.17128e-05
2.16564e-05
2.10194e-05
1.98115e-05
1.83254e-05
1.70105e-05
1.61989e-05
1.59288e-05
1.58489e-05
1.53292e-05
1.39823e-05
1.20242e-05
1.01196e-05
8.93995e-06
9.03812e-06
1.11785e-05
1.6586e-05
2.0772e-05
8.73918e-06
2.79931e-06
2.79281e-07
9.58733e-08
1.76858e-06
4.2883e-06
9.51631e-06
1.70689e-05
2.17857e-05
2.28191e-05
2.2179e-05
2.11502e-05
2.03726e-05
2.00758e-05
2.0234e-05
2.0686e-05
2.12211e-05
2.15948e-05
2.1528e-05
2.07817e-05
1.93351e-05
1.75181e-05
1.58844e-05
1.48796e-05
1.46274e-05
1.47943e-05
1.4728e-05
1.39201e-05
1.24081e-05
1.07557e-05
9.66386e-06
9.79037e-06
1.19986e-05
1.74874e-05
2.0831e-05
8.50347e-06
2.75543e-06
2.75962e-07