/*--------------------------------*- C++ -*----------------------------------*\
| =========                 |                                                 |
| \\      /  F ield         | OpenFOAM: The Open Source CFD Toolbox           |
|  \\    /   O peration     | Version:  v2006                                 |
|   \\  /    A nd           | Website:  www.openfoam.com                      |
|    \\/     M anipulation  |                                                 |
\*---------------------------------------------------------------------------*/
FoamFile
{
    version     2.0;
    format      ascii;
    class       volVectorField;
    location    "37";
    object      U;
}
// * * * * * * * * * * * * * * * * * * * * * * * * * * * * * * * * * * * * * //

dimensions      [0 1 -1 0 0 0 0];


internalField   nonuniform List<vector> 
78750
(
(-0.0168216 -0.00970014 0.000493614)
(-0.0158757 -0.0179768 0.00104744)
(-0.0130345 -0.0179083 0.00104424)
(-0.0111366 -0.0171617 0.00131677)
(-0.00944757 -0.0160403 0.00172232)
(-0.00781914 -0.0148148 0.00216989)
(-0.00628902 -0.0136462 0.00260207)
(-0.00486859 -0.0126059 0.00298519)
(-0.00353466 -0.0117099 0.00330908)
(-0.00225961 -0.010941 0.00357552)
(-0.00102716 -0.010272 0.00379096)
(0.000172107 -0.00967715 0.00396353)
(0.00134008 -0.00913511 0.00410073)
(0.00247059 -0.00862823 0.00420919)
(0.00355693 -0.00814267 0.00429469)
(0.00459231 -0.00766842 0.00436211)
(0.00556929 -0.00719828 0.0044156)
(0.0064799 -0.00672694 0.00445875)
(0.0073157 -0.0062507 0.00449474)
(0.00806805 -0.00576748 0.00452637)
(0.00872835 -0.00527693 0.00455612)
(0.00928842 -0.00478044 0.00458614)
(0.00974082 -0.00428124 0.00461824)
(0.0100793 -0.0037842 0.0046537)
(0.010299 -0.00329536 0.0046931)
(0.0103962 -0.00282054 0.00473593)
(0.0103683 -0.00236185 0.00478078)
(0.0102118 -0.00191023 0.00482617)
(0.00991811 -0.00142796 0.00487183)
(0.00946516 -0.000812343 0.00492067)
(0.00878272 0.000174683 0.00497192)
(0.00770253 0.00197461 0.00497743)
(0.00595564 0.00491083 0.00473446)
(0.00348964 0.0078557 0.00381939)
(0.000864656 0.00655953 0.0018635)
(-0.000901491 0.00432304 0.0016578)
(-0.00259598 -0.00593852 0.000172883)
(-0.00529657 -0.0119462 -0.00128742)
(-0.00745091 -0.0138421 -0.00179299)
(-0.0090414 -0.0134473 -0.00140862)
(-0.0100823 -0.0122057 -0.000538773)
(-0.01061 -0.0108966 0.000460687)
(-0.010719 -0.00997504 0.00135463)
(-0.0104912 -0.00958098 0.00204236)
(-0.0099825 -0.00954792 0.00253917)
(-0.00924206 -0.00968825 0.00288509)
(-0.00831715 -0.00987067 0.00312395)
(-0.0072465 -0.0100138 0.00329328)
(-0.00606367 -0.0100679 0.00341989)
(-0.00479933 -0.0100071 0.00352116)
(-0.00348128 -0.00982488 0.00360761)
(-0.00213314 -0.0095225 0.00368577)
(-0.00077526 -0.009101 0.00376013)
(0.000572623 -0.0085626 0.00383333)
(0.00189037 -0.00791228 0.00390645)
(0.00315708 -0.00715854 0.0039791)
(0.00435063 -0.00631393 0.00404939)
(0.00544751 -0.00539535 0.00411398)
(0.00642301 -0.004424 0.00416827)
(0.007251 -0.00342342 0.00420649)
(0.00790338 -0.00241518 0.00421792)
(0.00835117 -0.00140953 0.00417927)
(0.00856216 -0.000384955 0.00406506)
(0.00848832 0.000756557 0.00386288)
(0.00808587 0.00227206 0.00361048)
(0.00729522 0.00472187 0.00341357)
(0.0059766 0.00902757 0.00338396)
(0.00408244 0.0153781 0.00341934)
(0.00202775 0.0204236 0.00302952)
(0.000270347 0.0156303 0.00165675)
(3.01195e-05 0.010713 0.00179624)
(-0.00063407 0.0163233 0.00296)
(-0.00237278 0.0171036 0.00431391)
(-0.00441642 0.0145208 0.00593224)
(-0.00642363 0.00953561 0.0072475)
(-0.00814439 0.00357779 0.00780573)
(-0.00946029 -0.00219165 0.00765017)
(-0.0103442 -0.00729427 0.00707615)
(-0.0108228 -0.0116172 0.00634498)
(-0.0109255 -0.0151168 0.00562474)
(-0.0106797 -0.0178405 0.00498869)
(-0.0101271 -0.0199146 0.00444757)
(-0.00932596 -0.0214358 0.00401336)
(-0.00833317 -0.0224558 0.0036977)
(-0.0071903 -0.0230225 0.00349862)
(-0.00593276 -0.0231968 0.00340571)
(-0.00460144 -0.0230337 0.00341016)
(-0.0032293 -0.022563 0.00350906)
(-0.00184035 -0.0217949 0.00370232)
(-0.000459063 -0.0207325 0.00399074)
(0.000889771 -0.0193751 0.00437572)
(0.00218001 -0.0177199 0.0048585)
(0.00338085 -0.0157652 0.0054386)
(0.00445911 -0.0135199 0.00610436)
(0.00537746 -0.0109922 0.00683584)
(0.00609726 -0.00818167 0.00759888)
(0.00657945 -0.00506655 0.00833462)
(0.00678686 -0.00157415 0.00894054)
(0.00668706 0.00246965 0.00923839)
(0.00624287 0.00739469 0.00896453)
(0.00542101 0.0136271 0.00790103)
(0.00421043 0.0212009 0.00618756)
(0.00271471 0.0285716 0.00439887)
(0.00125424 0.0313462 0.00291746)
(0.000155976 0.0206141 0.0014065)
(4.04931e-06 0.00669101 0.00103592)
(0.000132157 0.0100263 0.00151702)
(6.1782e-05 0.00994049 0.00191184)
(-0.000108127 0.00786107 0.00244369)
(-0.000439198 0.00466334 0.00307428)
(-0.000922766 0.000864067 0.00364568)
(-0.00151337 -0.00324607 0.00395939)
(-0.00214658 -0.00752183 0.00388124)
(-0.00272122 -0.0118669 0.00338078)
(-0.00314772 -0.0161604 0.00253612)
(-0.00337624 -0.0202183 0.00150117)
(-0.00339014 -0.0237703 0.00046199)
(-0.00320251 -0.0266214 -0.000455192)
(-0.00283589 -0.0287698 -0.00121872)
(-0.00232903 -0.0302986 -0.00183485)
(-0.00170952 -0.0312815 -0.00230919)
(-0.000997903 -0.0317765 -0.00264929)
(-0.000214997 -0.0318319 -0.00286223)
(0.000621634 -0.0314805 -0.00295104)
(0.00149724 -0.0307397 -0.00291409)
(0.00239686 -0.029611 -0.0027444)
(0.00329826 -0.0280747 -0.00242826)
(0.00419148 -0.0260831 -0.00193944)
(0.00505027 -0.0236011 -0.00124677)
(0.00582149 -0.0206253 -0.000332164)
(0.00645572 -0.0171369 0.000817429)
(0.00689271 -0.0131006 0.00220172)
(0.00706869 -0.00843976 0.00378476)
(0.00692268 -0.00298815 0.00544842)
(0.00639231 0.00359175 0.00691807)
(0.00543713 0.0118043 0.00771724)
(0.00409991 0.0217191 0.00739434)
(0.00256565 0.0312863 0.00602348)
(0.00117334 0.0349435 0.00414758)
(0.000180805 0.0228998 0.00184664)
(2.64441e-05 0.00578469 0.000945346)
(8.8329e-05 0.00977677 0.00166964)
(-5.64858e-05 0.0105304 0.0022401)
(-0.000354454 0.00917377 0.0028826)
(-0.00077898 0.0064637 0.00358959)
(-0.00127601 0.00278654 0.00417995)
(-0.00176212 -0.00158574 0.0044212)
(-0.00215862 -0.00637796 0.00420339)
(-0.00242285 -0.0113292 0.00358591)
(-0.00254296 -0.0161959 0.00272894)
(-0.00252554 -0.0207497 0.00180377)
(-0.00238789 -0.024758 0.00094371)
(-0.00215536 -0.0279632 0.000239253)
(-0.00183212 -0.0303552 -0.000310683)
(-0.00142857 -0.0320656 -0.000747522)
(-0.000968297 -0.0331894 -0.00109916)
(-0.00046024 -0.0337985 -0.00138571)
(8.6927e-05 -0.0339502 -0.00162038)
(0.000664577 -0.0336842 -0.00180891)
(0.00126441 -0.0330231 -0.00194972)
(0.00187881 -0.0319701 -0.00203395)
(0.00250053 -0.0305073 -0.00204494)
(0.00311951 -0.0285841 -0.00195592)
(0.00372938 -0.026084 -0.00172204)
(0.00432057 -0.0228296 -0.00127894)
(0.00485641 -0.0186928 -0.000567336)
(0.00527603 -0.0135927 0.000458601)
(0.00551764 -0.00736717 0.00182511)
(0.00549912 0.000218189 0.00347486)
(0.0051458 0.00937843 0.00516363)
(0.0044081 0.0200826 0.0064043)
(0.00328562 0.031443 0.00665686)
(0.00199821 0.0405275 0.00578938)
(0.000847654 0.0420711 0.00411838)
(9.18141e-05 0.0259209 0.00176498)
(9.80513e-06 0.00406937 0.000884914)
(0.000131525 0.00706711 0.00177674)
(0.000172847 0.00766976 0.00242978)
(0.000148349 0.00642863 0.0029928)
(7.30882e-05 0.00380739 0.00347119)
(-2.13111e-05 7.18967e-05 0.00376937)
(-9.68397e-05 -0.00455309 0.00377207)
(-0.000122781 -0.00975731 0.00344823)
(-8.49755e-05 -0.0151925 0.00287029)
(1.65823e-05 -0.0205217 0.00216043)
(0.000175616 -0.0254562 0.00143157)
(0.000381517 -0.0297622 0.000760015)
(0.000620256 -0.0332453 0.00019084)
(0.000889309 -0.0358746 -0.000269902)
(0.0011947 -0.0377653 -0.00064774)
(0.00153339 -0.0390292 -0.000967229)
(0.00189862 -0.0397436 -0.00124337)
(0.0022868 -0.039966 -0.00148575)
(0.00269248 -0.0397396 -0.00170023)
(0.00310867 -0.0390924 -0.00188913)
(0.00352742 -0.0380377 -0.00205087)
(0.00394029 -0.0365714 -0.00217899)
(0.00433661 -0.034669 -0.00226028)
(0.00469829 -0.0322627 -0.00226985)
(0.00501986 -0.029162 -0.00216226)
(0.00528172 -0.0251261 -0.00186535)
(0.00544271 -0.0199901 -0.00128623)
(0.00546318 -0.0134968 -0.000303728)
(0.00529466 -0.00527375 0.00116841)
(0.00487437 0.00508418 0.00302882)
(0.0041458 0.0176564 0.00481678)
(0.00310346 0.031293 0.00580297)
(0.00192084 0.0422131 0.00552575)
(0.000850913 0.0443323 0.00412133)
(0.000129484 0.027214 0.00175869)
(7.35437e-06 0.00271841 0.0010072)
(0.00014991 0.00451694 0.00221478)
(0.000280852 0.00453211 0.00303713)
(0.000392018 0.00299657 0.00358877)
(0.000482559 0.000181414 0.00391306)
(0.000563593 -0.00371915 0.00399802)
(0.000649442 -0.00842901 0.00383026)
(0.000747445 -0.0135817 0.00344867)
(0.000858918 -0.0188072 0.0029334)
(0.000981649 -0.0237889 0.00236781)
(0.00111327 -0.0282822 0.00181276)
(0.00125279 -0.0320967 0.00130595)
(0.00140028 -0.0350831 0.000872831)
(0.00156536 -0.0373121 0.000507629)
(0.00175589 -0.038918 0.000191764)
(0.00197145 -0.0399731 -8.28747e-05)
(0.00221217 -0.0405295 -0.000320379)
(0.00247596 -0.0406271 -0.000523324)
(0.00275911 -0.040292 -0.000693395)
(0.00305658 -0.0395359 -0.000831773)
(0.00336241 -0.0383558 -0.000939021)
(0.00366962 -0.0367314 -0.00101446)
(0.00396625 -0.0346167 -0.00105376)
(0.00423886 -0.0318836 -0.00104368)
(0.00448143 -0.0283096 -0.000970764)
(0.00467056 -0.0236826 -0.000816062)
(0.00477719 -0.0178013 -0.000537816)
(0.0047642 -0.0103699 -4.39811e-05)
(0.00457627 -0.0010181 0.000800175)
(0.00415827 0.0105278 0.00206653)
(0.00347471 0.0240273 0.00354311)
(0.0025264 0.0378893 0.00462783)
(0.00151087 0.0479775 0.00470425)
(0.00062753 0.0486207 0.00365949)
(6.60974e-05 0.0289835 0.00155766)
(5.31222e-06 0.00128764 0.000977937)
(0.000175823 0.0014947 0.00223177)
(0.000400829 0.000615939 0.00307172)
(0.000665804 -0.00137443 0.00358371)
(0.000950618 -0.0043908 0.00382668)
(0.00124815 -0.00832085 0.0038272)
(0.00154702 -0.0129148 0.0036108)
(0.00183751 -0.0178567 0.00322208)
(0.00211112 -0.0228305 0.00271382)
(0.00236184 -0.027564 0.00213607)
(0.00258652 -0.0318461 0.00153288)
(0.00278502 -0.0355221 0.000944476)
(0.00296329 -0.0384837 0.000407507)
(0.0031286 -0.0407408 -6.88503e-05)
(0.00329542 -0.0423792 -0.000486459)
(0.00346617 -0.0434709 -0.000848298)
(0.00364086 -0.0440667 -0.00115574)
(0.00381951 -0.0442055 -0.0014101)
(0.00400063 -0.0439147 -0.00161227)
(0.0041809 -0.0432094 -0.00176225)
(0.00435588 -0.0420901 -0.00185849)
(0.00452094 -0.0405409 -0.00189796)
(0.00466891 -0.0385215 -0.00187551)
(0.00479202 -0.0359071 -0.00177618)
(0.00488269 -0.032465 -0.00157601)
(0.0049228 -0.0279384 -0.00125173)
(0.00489148 -0.0220352 -0.000782523)
(0.00476253 -0.014349 -0.000136617)
(0.00450153 -0.00438892 0.000731137)
(0.00406113 0.00821666 0.00184463)
(0.00339731 0.0231878 0.0030822)
(0.00250141 0.0386111 0.00403938)
(0.00153768 0.0497419 0.0041893)
(0.000678206 0.0505289 0.00332763)
(9.98897e-05 0.0299707 0.00142868)
(-6.27177e-06 -3.11237e-05 0.000970447)
(0.000137809 -0.00163237 0.00222418)
(0.000365354 -0.00376099 0.0030135)
(0.000664461 -0.00660103 0.00343007)
(0.00101804 -0.010179 0.00353661)
(0.00140488 -0.0143596 0.00338229)
(0.00179959 -0.0188995 0.00302327)
(0.00217911 -0.0235157 0.00252345)
(0.00252631 -0.0279446 0.00194852)
(0.00283142 -0.0319746 0.00135932)
(0.00309073 -0.0354474 0.000807151)
(0.00330329 -0.0382442 0.000330008)
(0.0034809 -0.0403775 -6.11723e-05)
(0.00363586 -0.0419434 -0.000381143)
(0.00377938 -0.0430126 -0.000644859)
(0.003919 -0.0436298 -0.000864294)
(0.00405843 -0.0438273 -0.00105113)
(0.00419858 -0.0436272 -0.00121549)
(0.00433798 -0.0430415 -0.00136487)
(0.00447309 -0.0420711 -0.00150302)
(0.00459952 -0.0407057 -0.00162953)
(0.00471212 -0.038922 -0.00173957)
(0.00480356 -0.0366736 -0.00182283)
(0.00486532 -0.0338053 -0.00185798)
(0.00489008 -0.0300622 -0.00181718)
(0.00486012 -0.0251999 -0.00166457)
(0.00475702 -0.018919 -0.0013517)
(0.00455703 -0.0107955 -0.000817245)
(0.00422512 -0.000331984 -4.53536e-06)
(0.00372956 0.0127784 0.00108739)
(0.00304997 0.0280863 0.00231023)
(0.00218402 0.0434415 0.00328695)
(0.00130708 0.0538883 0.00354006)
(0.000552292 0.0536567 0.00287391)
(6.05559e-05 0.0313054 0.00123355)
(-8.01429e-06 -0.00104943 0.000818825)
(0.000101518 -0.00420653 0.00184985)
(0.000294662 -0.00753557 0.00244794)
(0.000567035 -0.0112409 0.0026916)
(0.000897942 -0.0153246 0.00265258)
(0.00125994 -0.0196549 0.00240298)
(0.00162618 -0.0240358 0.00201659)
(0.00197572 -0.0282685 0.00156384)
(0.00229566 -0.0321907 0.00110449)
(0.00258023 -0.0356871 0.000682203)
(0.0028288 -0.03868 0.000323143)
(0.00304619 -0.041118 3.79959e-05)
(0.00324161 -0.043034 -0.000184319)
(0.00342761 -0.0444858 -0.000357345)
(0.0036084 -0.0455018 -0.000492274)
(0.00378561 -0.0460999 -0.000600114)
(0.00395962 -0.0462931 -0.000690722)
(0.00412956 -0.0460892 -0.000772167)
(0.00429349 -0.0454907 -0.000850324)
(0.00444795 -0.0444935 -0.000928557)
(0.00458913 -0.0430847 -0.00100731)
(0.00471301 -0.0412421 -0.0010839)
(0.00480886 -0.0389224 -0.00115094)
(0.00486958 -0.0359627 -0.00119407)
(0.00488421 -0.0321011 -0.00119157)
(0.00483562 -0.0270967 -0.00111643)
(0.00470874 -0.0206055 -0.000923689)
(0.00448614 -0.0121426 -0.000549443)
(0.00414859 -0.0011418 7.09707e-05)
(0.00366605 0.0127515 0.000951703)
(0.00300997 0.0290266 0.00197339)
(0.00217718 0.0452748 0.00281803)
(0.00132998 0.0561376 0.00306454)
(0.0005857 0.0557154 0.00251439)
(7.84813e-05 0.0323032 0.00108503)
(-2.93594e-06 -0.00192757 0.000675962)
(0.000106195 -0.00642782 0.00149085)
(0.000293962 -0.0107924 0.00190513)
(0.000553173 -0.015211 0.00199519)
(0.000862083 -0.0196799 0.00184349)
(0.00119755 -0.024096 0.00153323)
(0.00153983 -0.0283255 0.00114251)
(0.00187493 -0.0322462 0.000737046)
(0.00219444 -0.0357622 0.000364444)
(0.00249325 -0.0387991 5.2539e-05)
(0.00276551 -0.0412953 -0.000187927)
(0.00301516 -0.0432679 -0.000360817)
(0.00324613 -0.044776 -0.000483296)
(0.00346203 -0.0458534 -0.000569243)
(0.00366391 -0.0465208 -0.000631726)
(0.0038526 -0.046794 -0.000682144)
(0.00402863 -0.046684 -0.000729587)
(0.00419218 -0.0461967 -0.000780616)
(0.0043425 -0.0453321 -0.000839361)
(0.00447824 -0.044082 -0.000907513)
(0.00459833 -0.0424295 -0.000984606)
(0.00469994 -0.0403448 -0.00106766)
(0.00477359 -0.0377432 -0.00114795)
(0.00481433 -0.0344343 -0.00121889)
(0.00480733 -0.0301865 -0.00126408)
(0.00473736 -0.0247674 -0.00125782)
(0.00458686 -0.0178462 -0.00115172)
(0.00433348 -0.00895642 -0.00086974)
(0.00395211 0.00244546 -0.000327444)
(0.00342937 0.0166696 0.000501919)
(0.00276265 0.0331296 0.00149143)
(0.00195338 0.0492854 0.00232029)
(0.00116788 0.0596125 0.00259577)
(0.000496608 0.0583934 0.0021567)
(5.07654e-05 0.0334645 0.000928987)
(1.52145e-06 -0.00273577 0.000486451)
(0.000113738 -0.00840506 0.00101704)
(0.000298421 -0.0136121 0.00121559)
(0.000544468 -0.0185719 0.00116063)
(0.000830717 -0.0233127 0.000945073)
(0.00113942 -0.0277856 0.000658606)
(0.00145702 -0.031923 0.00037373)
(0.00177351 -0.0356638 0.000137194)
(0.0020813 -0.0389579 -3.11494e-05)
(0.002374 -0.0417633 -0.000132547)
(0.00264607 -0.044049 -0.000179874)
(0.0028989 -0.0458537 -0.000191369)
(0.0031361 -0.0472259 -0.000183061)
(0.00335562 -0.0481841 -0.000169013)
(0.00355747 -0.0487434 -0.000159438)
(0.00374179 -0.0489163 -0.000160917)
(0.00390879 -0.0487119 -0.000176848)
(0.0040588 -0.0481345 -0.000208168)
(0.00419229 -0.0471826 -0.000254116)
(0.00430929 -0.0458469 -0.000312822)
(0.00440979 -0.0441089 -0.000381546)
(0.00449149 -0.0419352 -0.000456418)
(0.00454907 -0.0392102 -0.000529712)
(0.00457901 -0.035724 -0.000597031)
(0.00456903 -0.0312541 -0.000652485)
(0.00450611 -0.0255318 -0.000684389)
(0.00437229 -0.0181915 -0.000663282)
(0.00414387 -0.0087568 -0.000529629)
(0.00379522 0.00328783 -0.000196153)
(0.00330598 0.0181963 0.000401877)
(0.00266933 0.0352868 0.00119965)
(0.00189173 0.051857 0.00192381)
(0.00114074 0.0621553 0.00219471)
(0.000494891 0.060505 0.00184547)
(5.60797e-05 0.0344112 0.000797579)
(1.0981e-05 -0.00349554 0.000330922)
(0.000151098 -0.0101709 0.000637779)
(0.000376441 -0.016032 0.000709312)
(0.000667541 -0.0213756 0.000630657)
(0.00100133 -0.0263002 0.000487406)
(0.00135998 -0.0308186 0.000345053)
(0.00172903 -0.0349081 0.000239857)
(0.00209613 -0.0385319 0.000180732)
(0.00245056 -0.0416471 0.000158357)
(0.00278151 -0.044212 0.000156566)
(0.00308499 -0.0462309 0.000162696)
(0.00336203 -0.0477573 0.000165271)
(0.00361393 -0.0488346 0.000157635)
(0.00383866 -0.0494893 0.000134534)
(0.00403658 -0.0497446 9.40486e-05)
(0.00420832 -0.0496203 3.6582e-05)
(0.00435425 -0.049132 -3.59639e-05)
(0.00447456 -0.048289 -0.000120815)
(0.00456976 -0.0470928 -0.00021479)
(0.0046408 -0.0455364 -0.000314554)
(0.00468839 -0.0436015 -0.000416574)
(0.00471025 -0.0412426 -0.000515864)
(0.00470493 -0.038316 -0.000607623)
(0.00466754 -0.0346046 -0.000684376)
(0.00459167 -0.0298897 -0.000738762)
(0.00446902 -0.0238764 -0.000758077)
(0.0042849 -0.0161719 -0.000718148)
(0.00401746 -0.00628857 -0.000574939)
(0.00364239 0.00625224 -0.000265293)
(0.00314119 0.0216063 0.000259354)
(0.0025089 0.0389584 0.00095091)
(0.00175304 0.0554596 0.00158681)
(0.00104536 0.0652576 0.00183849)
(0.000446948 0.0628879 0.00156056)
(4.25792e-05 0.0354244 0.000675849)
(5.24131e-06 -0.00424853 0.000231782)
(0.0001274 -0.0119846 0.0004109)
(0.000340015 -0.0185816 0.000447166)
(0.000625246 -0.024411 0.000421753)
(0.00095845 -0.029629 0.00039375)
(0.00131825 -0.0342872 0.000391981)
(0.00168617 -0.0383856 0.00041934)
(0.00204692 -0.0419044 0.000463971)
(0.0023892 -0.0448233 0.000510539)
(0.0027041 -0.0471353 0.000547648)
(0.002992 -0.0488888 0.000572171)
(0.0032564 -0.0501544 0.000580288)
(0.00349874 -0.0509768 0.000571053)
(0.0037189 -0.0513867 0.000543953)
(0.00391755 -0.0514097 0.000499781)
(0.00409445 -0.0510667 0.000440007)
(0.00424878 -0.0503719 0.000366409)
(0.00437982 -0.0493338 0.000280856)
(0.00448693 -0.0479535 0.000185213)
(0.00456955 -0.0462238 8.14379e-05)
(0.00462647 -0.0441266 -2.80703e-05)
(0.00465229 -0.0415982 -0.000138327)
(0.00464564 -0.03849 -0.000248664)
(0.00459958 -0.0346027 -0.000353328)
(0.00451002 -0.0297002 -0.000445855)
(0.00437154 -0.0234565 -0.000514208)
(0.004173 -0.0154399 -0.000534833)
(0.0038968 -0.00513177 -0.00046514)
(0.00352277 0.00793966 -0.000244954)
(0.00303342 0.0238611 0.000173438)
(0.00242191 0.0416829 0.000753944)
(0.00169268 0.0583726 0.00130565)
(0.0010154 0.0679245 0.00153613)
(0.000440541 0.065014 0.00131609)
(4.36514e-05 0.0363489 0.000571556)
(7.29591e-06 -0.00483545 0.000204532)
(0.00012184 -0.0134391 0.000380931)
(0.000322243 -0.0206636 0.000470686)
(0.000589157 -0.0269131 0.000538208)
(0.000898119 -0.0323682 0.000612763)
(0.00122807 -0.0371026 0.000696357)
(0.00156205 -0.0411417 0.000777401)
(0.0018881 -0.0444982 0.000842839)
(0.00219942 -0.0471906 0.000884522)
(0.00249065 -0.0492495 0.000900399)
(0.0027658 -0.0507589 0.00089508)
(0.00302827 -0.0517929 0.000870576)
(0.003276 -0.0523882 0.000828003)
(0.00350863 -0.0525738 0.000769161)
(0.00372513 -0.052374 0.000696182)
(0.00392357 -0.051808 0.000611221)
(0.00410191 -0.0508899 0.000516341)
(0.00425829 -0.0496285 0.000413428)
(0.00439104 -0.048026 0.000304215)
(0.00449838 -0.0460767 0.000190411)
(0.0045744 -0.0437615 7.42199e-05)
(0.00461504 -0.0409879 -4.38875e-05)
(0.00461479 -0.0375991 -0.000162211)
(0.00456678 -0.0334309 -0.000276864)
(0.0044667 -0.0282445 -0.000380582)
(0.00430917 -0.0217026 -0.000460579)
(0.00408604 -0.0133537 -0.000494217)
(0.00378499 -0.00266306 -0.000444236)
(0.00339203 0.0108287 -0.000260879)
(0.00289618 0.0271404 9.35698e-05)
(0.00229361 0.0451975 0.000588198)
(0.00158809 0.0618036 0.00106285)
(0.000947053 0.0708785 0.00126727)
(0.000408015 0.0672873 0.00109312)
(3.47458e-05 0.0373098 0.000474084)
(3.25908e-06 -0.00537582 0.000206919)
(9.49457e-05 -0.0147968 0.000424546)
(0.000258471 -0.0226202 0.000577975)
(0.0004795 -0.0292754 0.000712687)
(0.000738597 -0.0349668 0.000839459)
(0.00102026 -0.0397989 0.000951759)
(0.00131279 -0.0438333 0.00104007)
(0.00160805 -0.0471205 0.00109913)
(0.00190104 -0.049713 0.00112873)
(0.0021867 -0.0516658 0.00113173)
(0.00246507 -0.0530623 0.00111378)
(0.00273711 -0.0539703 0.00108143)
(0.00299787 -0.0544265 0.00103656)
(0.00324503 -0.0544593 0.000980687)
(0.00347687 -0.0540933 0.000915081)
(0.0036915 -0.0533491 0.000840706)
(0.0038867 -0.0522427 0.000758192)
(0.00406081 -0.0507843 0.000667987)
(0.00421275 -0.0489782 0.000570439)
(0.0043377 -0.0468193 0.000466257)
(0.00443047 -0.0442579 0.000354398)
(0.00448692 -0.0411947 0.000231997)
(0.00449944 -0.0375104 0.000100133)
(0.00446324 -0.0330377 -3.86304e-05)
(0.00437279 -0.0275334 -0.000178302)
(0.00422086 -0.0206533 -0.00030593)
(0.00399853 -0.0119352 -0.000396144)
(0.00369517 -0.000833654 -0.0004068)
(0.00330057 0.0131052 -0.00028471)
(0.00280852 0.0298554 6.20295e-06)
(0.00221832 0.048234 0.000433526)
(0.0015337 0.0648746 0.00085017)
(0.000918107 0.0736032 0.00103473)
(0.000399731 0.0694226 0.000899327)
(3.43025e-05 0.0382209 0.000389592)
(6.26712e-06 -0.00580659 0.000226714)
(0.000100991 -0.0158531 0.00050838)
(0.000263411 -0.0241298 0.000728103)
(0.000481999 -0.0311068 0.000915628)
(0.000741847 -0.0370169 0.00107315)
(0.00103052 -0.0419866 0.00119472)
(0.00133669 -0.0460928 0.00127672)
(0.00165011 -0.0493967 0.00132064)
(0.00196259 -0.0519616 0.00133157)
(0.00226663 -0.0538528 0.00131554)
(0.00255926 -0.0551528 0.00127915)
(0.00284022 -0.0559309 0.00123131)
(0.0031047 -0.0562302 0.00117472)
(0.00334998 -0.0560845 0.00111123)
(0.00357494 -0.0555234 0.00104226)
(0.00377866 -0.0545721 0.000968814)
(0.00396066 -0.0532508 0.000891445)
(0.00412066 -0.0515736 0.000810331)
(0.00425512 -0.0495459 0.000725152)
(0.00436077 -0.0471386 0.000633816)
(0.00443501 -0.0442885 0.000533515)
(0.00447284 -0.0409176 0.000422791)
(0.00447035 -0.0369098 0.000300739)
(0.00442268 -0.0320925 0.000167256)
(0.00432289 -0.0262172 2.45698e-05)
(0.00416199 -0.018937 -0.000119042)
(0.00392965 -0.00979286 -0.000242704)
(0.00361564 0.00174666 -0.000306408)
(0.00321247 0.0161027 -0.000254617)
(0.00271836 0.0331941 -4.40026e-05)
(0.00213602 0.0517438 0.000304199)
(0.00147031 0.0682472 0.000660112)
(0.000879872 0.0765132 0.000825236)
(0.000383761 0.0716668 0.000725046)
(3.01796e-05 0.0391689 0.000315222)
(3.77448e-06 -0.00628246 0.000255233)
(9.87898e-05 -0.0170408 0.00060067)
(0.000267083 -0.0258689 0.000870258)
(0.000500448 -0.0332815 0.0010849)
(0.00078309 -0.0395264 0.00124617)
(0.00109886 -0.0447292 0.00135382)
(0.00143136 -0.0489636 0.00141212)
(0.0017659 -0.0522988 0.00142977)
(0.00209197 -0.0548179 0.00141679)
(0.00240289 -0.0566123 0.00138146)
(0.00269493 -0.0577731 0.00132966)
(0.00296888 -0.0583794 0.00127007)
(0.00322269 -0.0584854 0.0012061)
(0.00345385 -0.0581322 0.00113957)
(0.00366227 -0.057355 0.00107183)
(0.00384817 -0.0561837 0.00100354)
(0.0040112 -0.0546417 0.000934995)
(0.00414958 -0.0527431 0.000864741)
(0.00426182 -0.050474 0.000790886)
(0.00434683 -0.0477998 0.000710664)
(0.00440183 -0.0446786 0.000622698)
(0.00442477 -0.0410307 0.000525332)
(0.00441273 -0.0367302 0.000416486)
(0.00436033 -0.0315926 0.000294012)
(0.0042592 -0.0253584 0.000157134)
(0.0040985 -0.0176751 1.0445e-05)
(0.00386607 -0.00808757 -0.000128906)
(0.0035513 0.00391643 -0.000223775)
(0.00314745 0.0187231 -0.000219695)
(0.00265535 0.0361995 -7.0889e-05)
(0.00208115 0.0549783 0.000209735)
(0.0014316 0.0714182 0.000509709)
(0.00085979 0.0793124 0.000654178)
(0.000377866 0.0738551 0.000581285)
(2.93309e-05 0.0401041 0.000254571)
(5.24968e-06 -0.00674636 0.000287718)
(0.000113231 -0.0182253 0.000694354)
(0.000304003 -0.027638 0.00100362)
(0.000565629 -0.0355203 0.00123294)
(0.000876728 -0.0421088 0.00138786)
(0.00121546 -0.047515 0.00147608)
(0.00156171 -0.0518156 0.00151003)
(0.00190017 -0.0551051 0.00150445)
(0.00222215 -0.0575045 0.00147247)
(0.00252418 -0.0591387 0.00142309)
(0.00280425 -0.0601145 0.00136117)
(0.00306389 -0.0605197 0.00129191)
(0.00330312 -0.0604143 0.00122128)
(0.0035196 -0.0598444 0.0011511)
(0.00371324 -0.0588488 0.001083)
(0.00388337 -0.05746 0.00101695)
(0.00402901 -0.0556977 0.000951719)
(0.00414923 -0.0535633 0.000886096)
(0.00424362 -0.0510478 0.000818003)
(0.00431142 -0.0481314 0.000747495)
(0.00435259 -0.0447642 0.000673685)
(0.00436588 -0.0408563 0.000594313)
(0.00434793 -0.0362691 0.000505993)
(0.00429257 -0.0308022 0.000404098)
(0.00419075 -0.0241822 0.000283628)
(0.00403062 -0.0160506 0.000143128)
(0.00379856 -0.00596409 -6.82014e-06)
(0.00348288 0.00655011 -0.000133251)
(0.00307767 0.0218168 -0.000180403)
(0.00258656 0.0396328 -9.52813e-05)
(0.00201877 0.0585444 0.000120887)
(0.00138449 0.0748023 0.000371279)
(0.000830957 0.0822575 0.000499278)
(0.000364707 0.0761306 0.000451655)
(2.58413e-05 0.0410659 0.000199473)
(3.6752e-06 -0.00729616 0.000320451)
(0.000115473 -0.0196594 0.00077761)
(0.000314027 -0.0297789 0.00110927)
(0.000583705 -0.038193 0.00133514)
(0.000898785 -0.0451249 0.00146902)
(0.00123517 -0.0506901 0.00152841)
(0.00157332 -0.0549972 0.00153355)
(0.00190051 -0.0581911 0.00150345)
(0.00221083 -0.0604392 0.0014524)
(0.00250255 -0.0618966 0.00138922)
(0.00277511 -0.0626844 0.00131859)
(0.00302784 -0.0628911 0.00124304)
(0.00326065 -0.0625804 0.0011678)
(0.00347188 -0.0618014 0.00109526)
(0.00365994 -0.0605941 0.00102591)
(0.00382419 -0.0589854 0.000959675)
(0.0039638 -0.0569939 0.000895367)
(0.0040783 -0.0546309 0.000832134)
(0.00416761 -0.0518939 0.000770194)
(0.00423215 -0.0487594 0.000709286)
(0.00427153 -0.0451701 0.000648221)
(0.00428435 -0.041027 0.000584928)
(0.00426753 -0.0361779 0.000516185)
(0.00421537 -0.0304057 0.000436826)
(0.00411852 -0.0234182 0.000339717)
(0.00396397 -0.0148432 0.000218813)
(0.00373682 -0.00424179 7.75797e-05)
(0.00342433 0.00882186 -5.86903e-05)
(0.00302069 0.0246064 -0.000138311)
(0.00253155 0.0428278 -0.00010487)
(0.00196919 0.0619346 5.22675e-05)
(0.00134812 0.0780658 0.000254395)
(0.000809431 0.0851406 0.000364126)
(0.000355511 0.078369 0.000336286)
(2.42792e-05 0.0420126 0.000149342)
(4.98542e-06 -0.0078483 0.000345902)
(0.000123753 -0.021091 0.000837343)
(0.000329351 -0.031885 0.00117659)
(0.000603033 -0.0407735 0.00138889)
(0.00091805 -0.0479813 0.00149777)
(0.00125108 -0.0536477 0.00152979)
(0.00158438 -0.057927 0.00151087)
(0.00190714 -0.0610153 0.00146198)
(0.00221457 -0.063118 0.00139719)
(0.00250496 -0.0644088 0.00132469)
(0.00277714 -0.0650163 0.00124917)
(0.0030297 -0.0650319 0.00117337)
(0.00326107 -0.0645219 0.00109931)
(0.0034697 -0.0635366 0.00102907)
(0.00365434 -0.0621155 0.000962867)
(0.00381407 -0.0602904 0.00090072)
(0.00394846 -0.0580845 0.000842974)
(0.0040575 -0.0555099 0.000789685)
(0.0041414 -0.052563 0.000740457)
(0.00420034 -0.0492175 0.000694342)
(0.00423401 -0.0454105 0.000649748)
(0.00424145 -0.0410341 0.000604564)
(0.00422012 -0.0359222 0.00055543)
(0.00416481 -0.0298377 0.000496317)
(0.00406671 -0.022466 0.000417692)
(0.00391291 -0.0134182 0.000308844)
(0.00368751 -0.00226103 0.000166698)
(0.0033759 0.0113937 1.08084e-05)
(0.00297127 0.0277183 -0.000107959)
(0.00248062 0.0463281 -0.000127093)
(0.00191979 0.0655675 -2.44593e-05)
(0.0013096 0.0814827 0.000135644)
(0.000784242 0.0881273 0.000230793)
(0.000342908 0.0806566 0.00022275)
(2.17726e-05 0.0429697 9.93387e-05)
(4.62913e-06 -0.00846566 0.000364777)
(0.000125786 -0.0226777 0.000874837)
(0.000333456 -0.034193 0.00120697)
(0.000608936 -0.0435733 0.00139483)
(0.00092553 -0.0510603 0.00147297)
(0.00126003 -0.0568277 0.00147638)
(0.00159479 -0.0610811 0.00143495)
(0.0019192 -0.0640678 0.00136994)
(0.00222856 -0.0660285 0.00129403)
(0.00252084 -0.0671542 0.00121395)
(0.00279438 -0.0675802 0.00113342)
(0.00304732 -0.0674012 0.0010548)
(0.00327786 -0.0666862 0.000979746)
(0.00348441 -0.0654885 0.00090947)
(0.00366573 -0.063851 0.000844981)
(0.00382102 -0.0618081 0.00078701)
(0.00394987 -0.0593853 0.000735889)
(0.00405227 -0.0565968 0.000691637)
(0.00412857 -0.0534404 0.000654057)
(0.00417917 -0.0498876 0.00062257)
(0.00420417 -0.045872 0.000596191)
(0.00420309 -0.0412785 0.000573518)
(0.00417397 -0.0359275 0.000551726)
(0.0041123 -0.0295614 0.000524561)
(0.00400994 -0.0218376 0.000480244)
(0.00385433 -0.0123398 0.000402149)
(0.00362936 -0.000625827 0.000276984)
(0.00331898 0.0136547 0.000112878)
(0.00291508 0.0305844 -4.43049e-05)
(0.00242502 0.0496569 -0.000124396)
(0.00186703 0.0690892 -8.69332e-05)
(0.00126866 0.0848271 2.40623e-05)
(0.000756933 0.0910767 0.000101126)
(0.000328779 0.0829136 0.000110531)
(1.95529e-05 0.0439119 4.901e-05)
(5.79314e-06 -0.00908253 0.000375437)
(0.0001323 -0.0242394 0.000888431)
(0.000346375 -0.0364405 0.00120304)
(0.000628512 -0.0462767 0.00136421)
(0.00095099 -0.054011 0.00141738)
(0.00128951 -0.0598539 0.00140328)
(0.00162601 -0.0640629 0.00135235)
(0.00195036 -0.0669365 0.00128366)
(0.0022585 -0.0687482 0.00120725)
(0.00254869 -0.069704 0.00112795)
(0.00281921 -0.0699454 0.00104835)
(0.00306815 -0.0695698 0.00097029)
(0.00329366 -0.0686485 0.000895292)
(0.00349414 -0.0672373 0.000824751)
(0.00366833 -0.0653818 0.000759894)
(0.00381543 -0.0631195 0.000701756)
(0.00393511 -0.0604789 0.000651174)
(0.00402746 -0.0574764 0.00060881)
(0.004093 -0.0541111 0.000575201)
(0.0041323 -0.0503524 0.000550667)
(0.00414576 -0.04613 0.000535313)
(0.00413328 -0.0413211 0.000528929)
(0.00409345 -0.0357333 0.000529836)
(0.00402262 -0.0290886 0.000532337)
(0.00391364 -0.0210163 0.000523396)
(0.0037547 -0.01107 0.000481277)
(0.00352926 0.00120459 0.000382161)
(0.0032208 0.0161221 0.000220388)
(0.00282044 0.0336681 3.25004e-05)
(0.00233446 0.0531962 -0.000107264)
(0.00178336 0.0727769 -0.000139577)
(0.00120284 0.0882629 -8.35382e-05)
(0.000710933 0.0940698 -2.7962e-05)
(0.000303426 0.0851575 -2.05438e-06)
(1.52341e-05 0.0448284 -7.64027e-07)
(5.15927e-06 -0.00974519 0.000381182)
(0.000131407 -0.0259137 0.000886495)
(0.000345798 -0.0388419 0.00117954)
(0.000628595 -0.049153 0.00131849)
(0.000950873 -0.0571348 0.00135702)
(0.00128743 -0.0630421 0.00133709)
(0.00162038 -0.0671945 0.00128637)
(0.00194062 -0.0699466 0.00122049)
(0.0022449 -0.0716048 0.00114699)
(0.00253161 -0.0723883 0.00106939)
(0.00279881 -0.072443 0.000989821)