/*--------------------------------*- C++ -*----------------------------------*\
| =========                 |                                                 |
| \\      /  F ield         | OpenFOAM: The Open Source CFD Toolbox           |
|  \\    /   O peration     | Version:  v2012                                 |
|   \\  /    A nd           | Website:  www.openfoam.com                      |
|    \\/     M anipulation  |                                                 |
\*---------------------------------------------------------------------------*/
FoamFile
{
    version     2.0;
    format      ascii;
    class       volScalarField;
    location    "1400";
    object      heatTransferCoeff(T);
}
// * * * * * * * * * * * * * * * * * * * * * * * * * * * * * * * * * * * * * //

dimensions      [1 0 -3 -1 0 0 0];


internalField   uniform 0;

boundaryField
{
    floor
    {
        type            calculated;
        value           uniform 0;
    }
    ceiling
    {
        type            calculated;
        value           nonuniform List<scalar> 
400
(
-0.00281843
-0.00301668
-0.00318587
-0.00331947
-0.00343002
-0.0035205
-0.00358922
-0.00363168
-0.00364254
-0.00360893
-0.00358423
-0.00358281
-0.00356047
-0.00351432
-0.00344708
-0.00336098
-0.00325604
-0.00312796
-0.00296206
-0.00275331
-0.00301668
-0.00322788
-0.00341527
-0.00357212
-0.00371062
-0.00383211
-0.00393135
-0.00399815
-0.00402282
-0.00399069
-0.00394648
-0.00393477
-0.00389475
-0.00382302
-0.00372581
-0.00360937
-0.00347669
-0.00332474
-0.00313911
-0.00291733
-0.00318587
-0.00341527
-0.00361736
-0.00379153
-0.00395158
-0.00409867
-0.00422584
-0.00431661
-0.00435529
-0.00432385
-0.00425768
-0.00423694
-0.00417979
-0.00408401
-0.00396019
-0.00381882
-0.00366521
-0.00349637
-0.00329723
-0.00306209
-0.00331947
-0.00357212
-0.00379153
-0.00398478
-0.0041713
-0.00435112
-0.00451225
-0.00463616
-0.0047016
-0.00468839
-0.00458109
-0.00453574
-0.00445304
-0.00432908
-0.0041745
-0.00400332
-0.00382561
-0.0036388
-0.00342422
-0.00317188
-0.00343002
-0.00371062
-0.00395158
-0.0041713
-0.00439832
-0.00461954
-0.00482009
-0.00498196
-0.00508214
-0.00509919
-0.00493816
-0.00485579
-0.00473804
-0.00457912
-0.00438976
-0.00418437
-0.00397347
-0.00376237
-0.0035296
-0.00325679
-0.0035205
-0.00383211
-0.00409867
-0.00435112
-0.00461954
-0.0048836
-0.00512945
-0.00533924
-0.00549256
-0.00557091
-0.00533914
-0.00519411
-0.00502343
-0.00482007
-0.00459141
-0.00434995
-0.00410458
-0.00386625
-0.00361412
-0.00331973
-0.00358922
-0.00393135
-0.00422584
-0.00451225
-0.00482009
-0.00512945
-0.0054301
-0.00570872
-0.00596023
-0.00617571
-0.00583501
-0.00556778
-0.0053093
-0.00504512
-0.00477023
-0.00449051
-0.0042116
-0.003946
-0.00367452
-0.0033603
-0.00363168
-0.00399815
-0.00431661
-0.00463616
-0.00498196
-0.00533924
-0.00570872
-0.0060999
-0.0065417
-0.00702264
-0.00650113
-0.00600223
-0.00559378
-0.00524143
-0.00491135
-0.00459232
-0.00428234
-0.00399175
-0.00370472
-0.00337608
-0.00364254
-0.00402282
-0.00435529
-0.0047016
-0.00508214
-0.00549256
-0.00596023
-0.0065417
-0.0072921
-0.00812205
-0.0073825
-0.0065181
-0.00587249
-0.00539032
-0.00499463
-0.00463728
-0.00430061
-0.00399077
-0.00369673
-0.00336254
-0.00360893
-0.00399069
-0.00432385
-0.00468839
-0.00509919
-0.00557091
-0.00617571
-0.00702264
-0.00812205
-0.00825071
-0.00805189
-0.00704245
-0.00611398
-0.00546517
-0.00499622
-0.00460512
-0.004249
-0.00392745
-0.00363764
-0.00330736
-0.00358423
-0.00394648
-0.00425767
-0.00458109
-0.00493816
-0.00533914
-0.00583501
-0.00650112
-0.0073825
-0.00805189
-0.00756781
-0.00655586
-0.0057911
-0.00525992
-0.00485917
-0.00451289
-0.00419158
-0.00389621
-0.00361788
-0.00329802
-0.0035828
-0.00393476
-0.00423694
-0.00453574
-0.00485579
-0.00519411
-0.00556778
-0.00600223
-0.0065181
-0.00704245
-0.00655586
-0.00596723
-0.00550727
-0.00513174
-0.00479588
-0.00448178
-0.00418276
-0.0039042
-0.00362943
-0.00331377
-0.00356047
-0.00389475
-0.00417979
-0.00445304
-0.00473804
-0.00502343
-0.0053093
-0.00559378
-0.00587249
-0.00611398
-0.0057911
-0.00550727
-0.00523646
-0.0049586
-0.00467586
-0.00439623
-0.00412361
-0.0038671
-0.00360694
-0.00330497
-0.00351432
-0.00382302
-0.00408401
-0.00432908
-0.00457912
-0.00482007
-0.00504512
-0.00524143
-0.00539032
-0.00546517
-0.00525992
-0.00513174
-0.0049586
-0.00474398
-0.00450616
-0.00426139
-0.00401779
-0.00378796
-0.00355015
-0.00327065
-0.00344707
-0.00372581
-0.00396019
-0.0041745
-0.00438976
-0.00459141
-0.00477023
-0.00491135
-0.00499463
-0.00499622
-0.00485917
-0.00479588
-0.00467586
-0.00450616
-0.00430744
-0.00409656
-0.00388347
-0.00368156
-0.00346799
-0.00321498
-0.00336098
-0.00360937
-0.00381882
-0.00400332
-0.00418437
-0.00434995
-0.00449051
-0.00459232
-0.00463728
-0.00460512
-0.00451289
-0.00448178
-0.00439623
-0.00426139
-0.00409656
-0.00391884
-0.00373707
-0.00356121
-0.00336867
-0.00314143
-0.00325604
-0.00347669
-0.00366521
-0.00382561
-0.00397347
-0.00410458
-0.0042116
-0.00428234
-0.00430061
-0.004249
-0.00419158
-0.00418276
-0.00412361
-0.00401779
-0.00388347
-0.00373707
-0.00358596
-0.0034317
-0.00325588
-0.00305079
-0.00312796
-0.00332474
-0.00349637
-0.0036388
-0.00376237
-0.00386625
-0.003946
-0.00399175
-0.00399077
-0.00392745
-0.00389621
-0.0039042
-0.0038671
-0.00378796
-0.00368156
-0.00356121
-0.0034317
-0.00329187
-0.00312811
-0.00293998
-0.00296206
-0.00313911
-0.00329723
-0.00342422
-0.0035296
-0.00361412
-0.00367452
-0.00370472
-0.00369673
-0.00363764
-0.00361788
-0.00362943
-0.00360694
-0.00355015
-0.00346799
-0.00336867
-0.00325588
-0.00312811
-0.00297331
-0.00279691
-0.00275331
-0.00291733
-0.00306209
-0.00317188
-0.00325679
-0.00331973
-0.0033603
-0.00337608
-0.00336254
-0.00330736
-0.00329802
-0.00331377
-0.00330497
-0.00327065
-0.00321498
-0.00314143
-0.00305079
-0.00293998
-0.00279691
-0.00262699
)
;
    }
    fixedWalls
    {
        type            calculated;
        value           uniform 0;
    }
}


// ************************************************************************* //
