/*--------------------------------*- C++ -*----------------------------------*\
| =========                 |                                                 |
| \\      /  F ield         | OpenFOAM: The Open Source CFD Toolbox           |
|  \\    /   O peration     | Version:  v2012                                 |
|   \\  /    A nd           | Website:  www.openfoam.com                      |
|    \\/     M anipulation  |                                                 |
\*---------------------------------------------------------------------------*/
FoamFile
{
    version     2.0;
    format      ascii;
    class       surfaceScalarField;
    location    "1400";
    object      phi;
}
// * * * * * * * * * * * * * * * * * * * * * * * * * * * * * * * * * * * * * //

dimensions      [1 0 -1 0 0 0 0];
oriented        oriented;


internalField   nonuniform List<scalar> 
11200
(
0.000939373
-0.00187878
0.000939373
-0.000261703
0.000900151
0.000300864
-0.00109184
0.00071122
0.000118875
-0.00170263
0.000767711
-0.000156911
-0.00200908
0.000482634
-0.000176198
-0.00188158
-4.17168e-05
-8.58121e-05
-0.0016429
-0.000185521
-5.31659e-05
-0.00139656
-0.000239863
-6.46986e-06
-0.00112378
-0.000298813
2.60478e-05
-0.000809158
-0.000382717
6.81277e-05
-0.000477815
-0.000451255
0.000119955
-0.000154926
-0.000488897
0.000166056
0.000162156
-0.000501263
0.000184229
0.000498645
-0.000497075
0.000160631
0.000868252
-0.000587347
0.000217788
0.000620107
4.11833e-05
0.000206954
6.55443e-05
0.000382866
0.000171695
-0.000939874
0.00053016
0.000475334
-0.00156841
-0.000413162
0.00104186
-0.00329948
0.00173119
0.00265966
-0.0071981
0.00265966
0.00460793
-0.0037519
0.00270374
0.00439188
-0.00134123
0.00226844
0.00275142
0.000758969
0.00164915
0.000492519
0.00156549
0.00117601
-0.00104768
0.00099127
0.000507198
-0.00121138
0.000215069
-0.0002369
-0.00101438
-4.2691e-05
-0.000394175
-0.000687175
-0.000135559
-0.00049046
-0.000300753
-0.000257063
-0.000512068
9.28609e-05
-0.000365359
-0.000479496
0.000465803
-0.000459542
-0.000402277
0.000770874
-0.00053852
-0.000267789
0.00080152
-0.000528428
7.28655e-07
-0.000396777
0.000188956
0.000422016
-0.00262445
0.00119843
0.00107047
-0.00433476
0.00071067
0.00138254
-0.00437135
-0.00121543
0.00178219
-0.00274542
-0.00412445
0.00208537
-0.00821824
0.00217334
0.00175057
-0.0106992
0.00175057
0.00321354
-0.00722272
0.00200784
0.00378868
-0.00370754
0.00179118
0.00350439
-0.000427264
0.0014705
0.002455
0.00143087
0.001184
0.00118321
0.00138799
0.000875056
-2.06024e-05
0.000776847
0.000642034
-0.000546256
0.000398152
8.48086e-05
-0.000390112
0.000147629
-0.000439335
-2.45985e-05
2.66126e-05
-0.000649188
0.000350923
-7.26463e-05
-0.00066823
0.000555214
-0.000221491
-0.000442334
0.000222963
-0.000218379
1.21216e-05
-0.00106702
8.86243e-05
0.000672953
-0.00262855
0.000710762
0.00103974
-0.0033821
0.000751967
0.00120003
-0.00350596
-0.000524134
0.00135867
-0.00287826
-0.00338269
0.00153957
-0.00156163
-0.0070312
0.00159012
-0.0112441
0.00146423
0.000887224
-0.0124737
0.000887224
0.00135186
-0.0090983
0.00141095
0.00161456
-0.00550366
0.00153342
0.00213077
-0.00247791
0.00153444
0.00247629
-0.000345542
0.00143088
0.00218035
0.000429789
0.00125414
0.00147431
0.000431504
0.00105138
0.000684855
0.000436011
0.000751593
0.00014405
0.000381547
0.000306883
0.000125606
0.000317278
-0.000272222
0.000346963
0.000151375
-0.000445376
0.000141265
-7.93468e-05
6.35612e-05
-0.000521526
-0.000291467
0.000735899
-0.00125569
-0.000342772
0.00116558
-0.00155474
-0.000464768
0.00147458
-0.00143278
-0.00103769
0.0016677
-0.00109169
-0.00258843
0.00172321
-0.000834491
-0.00520557
0.00156568
-0.000515756
-0.00870087
0.00135094
-0.0127413
0.000981486
0.000311039
-0.0130957
0.00031104
-1.46249e-06
-0.00993289
0.00114709
-0.000306724
-0.00674254
0.00154414
-0.000277269
-0.00433476
0.0018274
6.72583e-05
-0.00267122
0.00198115
0.000318659
-0.00172689
0.00190526
0.000297957
-0.00127389
0.00172609
0.000182698
-0.000950567
0.00150183
0.000100675
-0.000750482
0.00121405
0.000235988
-0.000727384
0.000909346
0.000605415
-0.00108634
0.000868291
0.000841179
-0.00143415
0.00111904
0.000928042
-0.00174527
0.00136694
0.00099249
-0.00203608
0.00162886
0.00105859
-0.00242584
0.00189498
0.00110022
-0.00313515
0.00205582
0.000984797
-0.00444547
0.00197247
0.000653442
-0.00654664
0.00167243
0.000215456
-0.00955879
0.0012959
-0.0131971
0.000671201
-0.000121755
-0.0128522
-0.000121755
-0.000900751
-0.0101403
0.000986425
-0.00150885
-0.00760233
0.00146789
-0.0017762
-0.00582872
0.0017613
-0.00171866
-0.00465871
0.00192996
-0.00144897
-0.00393227
0.0019357
-0.00110231
-0.00345892
0.00183837
-0.000682273
-0.00309712
0.00172652
-0.000232612
-0.00281905
0.00161891
0.000238787
-0.00272244
0.00152366
0.000816237
-0.0031197
0.00145592
0.00135908
-0.00347252
0.00149553
0.00183945
-0.00377747
0.00155183
0.00223878
-0.00407251
0.00163711
0.0024905
-0.00444191
0.00176435
0.00251909
-0.00500958
0.00184584
0.00223328
-0.00594982
0.00179016
0.00159709
-0.00748331
0.00157286
0.000675124
-0.00985622
0.0012194
-0.0129315
0.000409582
-0.000457851
-0.0119365
-0.000457851
-0.00156867
-0.00979144
0.000761953
-0.00239967
-0.0079432
0.00117187
-0.00278532
-0.00679955
0.00135649
-0.00274475
-0.00610822
0.00140895
-0.00239207
-0.0056998
0.00141485
-0.00183485
-0.00540227
0.00138613
-0.00114554
-0.00512393
0.0013375
-0.000406375
-0.0048699
0.00131169
0.000306151
-0.0047323
0.00129734
0.00105604
-0.00508974
0.00122014
0.00179573
-0.00539897
0.00118676
0.00249825
-0.00562576
0.00114578
0.00308811
-0.00580764
0.00114526
0.00346283
-0.00601662
0.00119998
0.00351299
-0.00633541
0.00127567
0.00313754
-0.00687915
0.00130477
0.00229632
-0.0078626
0.0012205
0.00102439
-0.00957608
0.000991787
-0.0119463
3.91259e-05
-0.000920594
-0.0100953
-0.000920594
-0.00232582
-0.00850448
0.000118261
-0.00333244
-0.00737044
0.000433863
-0.00377306
-0.00677688
0.000417942
-0.00369155
-0.00645921
0.000269483
-0.00320201
-0.00629608
0.000106736
-0.00242496
-0.00618162
2.30543e-06
-0.00148621
-0.00604206
-2.06382e-05
-0.000527977
-0.00586181
3.36838e-05
0.000329432
-0.00571815
0.000128433
0.00124261
-0.00597674
-2.61791e-05
0.00221763
-0.00620057
-0.000173426
0.00314317
-0.00632803
-0.000223274
0.00391045
-0.00638349
-0.000191441
0.00440843
-0.00642207
-9.25295e-05
0.0045093
-0.00651845
8.21637e-05
0.00407037
-0.00675941
0.000319194
0.00306027
-0.00727391
0.000421403
0.00148287
-0.0083546
0.000355932
-0.0100584
-0.000405009
-0.00175328
-0.00658876
-0.00175328
-0.00348457
-0.00570183
-0.00107135
-0.0045629
-0.00526477
-0.00102735
-0.00496831
-0.0051792
-0.00119227
-0.00478676
-0.00522396
-0.00141679
-0.00415232
-0.00533027
-0.00160026
-0.00317047
-0.00542378
-0.0017397
-0.00195856
-0.005455
-0.00179896
-0.000692154
-0.00539135
-0.00173687
0.000397831
-0.00527962
-0.00152852
0.00158321
-0.00543878
-0.00172334
0.00282921
-0.00554179
-0.00190479
0.00397991
-0.00552914
-0.00194959
0.00491283
-0.0054281
-0.00188832
0.00551598
-0.00528637
-0.00173886
0.00567587
-0.00515196
-0.00152638
0.00526124
-0.00508414
-0.00126065
0.00415934
-0.00515069
-0.00102132
0.00228748
-0.00557111
-0.000911639
-0.00652359
-0.00124733
-0.00329438
-0.00329438
-0.00544392
-0.00355229
-0.006508
-0.00420069
-0.00682095
-0.00486626
-0.00652523
-0.00551969
-0.00572478
-0.00613072
-0.00449961
-0.00664896
-0.0029334
-0.00702122
-0.00113221
-0.00719255
0.000617985
-0.00702983
0.00231096
-0.00713176
0.00395926
-0.0071901
0.00538647
-0.00695637
0.00649469
-0.00653633
0.00721382
-0.0060055
0.00745729
-0.00539545
0.00711064
-0.00473751
0.0060055
-0.00404555
0.00374595
-0.00331158
-0.00277764
0.000300864
0.00090015
-0.000261701
-0.000185114
0.000971897
-0.000185113
-0.000535408
0.00051119
-4.20409e-05
-0.000974888
0.000500841
-0.000218262
-0.0013141
0.000369389
-0.000206383
-0.00137871
5.67795e-05
-7.80112e-05
-0.00127169
-0.000142099
-1.8108e-05
-0.00113796
-0.000190524
5.03278e-05
-0.000968089
-0.000245361
0.00010155
-0.000755645
-0.000321867
0.000177576
-0.000531744
-0.00037589
0.000271976
-0.000326379
-0.000393163
0.000353888
-0.000127103
-0.000404205
0.000389191
9.84158e-05
-0.000439339
0.000374482
0.000349542
-0.000446722
0.000413407
0.000175611
3.85277e-05
0.00034234
-0.000264408
0.00028782
0.000323887
-0.000874504
0.000446158
0.000639319
-0.00114178
4.50986e-05
0.00126417
-0.00135443
0.001944
0.00270374
-0.0037519
0.00460793
0.0042909
-0.00220249
0.0042909
0.00419535
-0.000564393
0.00343952
0.0028576
0.00109349
0.0023942
0.00117499
0.00165176
0.0015762
-0.000157896
0.00110451
0.000792342
-0.000591531
0.000172307
-0.00011768
-0.000567201
-0.000202578
-0.000406454
-0.000429176
-0.000331805
-0.000542038
-0.000272613
-0.000414877
-0.000575611
-0.000118608
-0.000499847
-0.000509528
5.22979e-05
-0.00061176
-0.000354566
0.000165844
-0.000702746
-8.27717e-05
-4.14289e-05
-0.000512239
0.000280921
-0.0011477
0.000262898
0.000818691
-0.00281718
0.00122551
0.00155303
-0.00427765
0.000895941
0.00223491
-0.00434439
-0.000790364
0.00308547
-0.00283907
-0.0031399
0.00376505
-0.00597013
0.00394997
0.00200784
-0.00722272
0.00321354
0.00349968
-0.00518616
0.00349968
0.00408316
-0.00248307
0.00312638
0.00382125
0.000316189
0.00250969
0.00294626
0.00178488
0.00192586
0.00189783
0.00162184
0.00140614
0.000922885
0.000888811
0.00090047
0.000285064
0.000276195
0.000243851
4.00146e-05
-7.19735e-05
-0.000454119
2.11681e-05
-0.000230832
-0.000814383
2.05331e-05
-0.000341399
-0.000826035
-9.68148e-05
-0.000511913
-0.000424821
-0.000659998
-0.000410736
0.000283311
-0.00177856
0.00023173
0.00104757
-0.0031301
0.00101104
0.00164314
-0.00392415
0.00119339
0.0020262
-0.0040878
2.31544e-05
0.00239511
-0.00347531
-0.0026683
0.00280503
-0.00200752
-0.00597054
0.00295298
-0.00907124
0.00255782
0.00141095
-0.0090983
0.00135186
0.00234449
-0.00705325
0.00234449
0.00289593
-0.00413515
0.00263407
0.00326557
-0.00102596
0.00250694
0.00323625
0.00103688
0.00220819
0.00273924
0.00149297
0.00188002
0.00201611
0.00117536
0.00148794
0.00125726
0.000815787
0.000970852
0.000674462
0.000557009
0.000260695
0.000321098
0.000384191
-0.000533882
4.677e-05
0.00028075
-0.000793193
-0.000541834
0.00018846
-4.8199e-05
-0.00138323
0.000300238
0.000866335
-0.00224934
0.00067633
0.00158711
-0.00277229
0.000952307
0.00205627
-0.00288192
0.000617969
0.00235275
-0.00260535
-0.00106319
0.00253298
-0.0021288
-0.00409448
0.00251531
-0.00132529
-0.00760003
0.00217692
-0.0106531
0.00123801
0.00114709
-0.00993289
-1.46235e-06
0.0015705
-0.00790006
0.0015705
0.00161148
-0.00498118
0.0023492
0.00177848
-0.00199818
0.00263262
0.00197107
0.000191771
0.00263366
0.00181316
0.00112665
0.0024295
0.00138475
0.00123342
0.00209644
0.000878757
0.00116988
0.00165373
0.000486892
0.0010809
0.00108201
0.000362632
0.000975621
0.000442175
0.000440532
0.00086694
0.000204203
0.000297514
0.000767877
0.00068265
-0.000152291
0.000746909
0.00137009
-0.000626606
0.000818523
0.00196099
-0.000939259
0.000726301
0.00243364
-0.000994413
-2.17733e-06
0.00273112
-0.00103247
-0.00177975
0.00272708
-0.00112821
-0.00475229
0.00242598
-0.000914829
-0.00824808
0.00173058
-0.0112016
0.000304867
0.000986424
-0.0101403
-0.000900751
0.00103576
-0.00799873
0.00103576
0.00069398
-0.00524522
0.00207371
0.000438986
-0.00253327
0.0025514
0.000462232
-0.000638423
0.00273691
0.000480982
0.000423913
0.00261968
0.000339655
0.000869473
0.00234365
0.000196397
0.00103344
0.00200621
0.000153723
0.0011116
0.00163089
0.000308231
0.00107452
0.00127025
0.000570731
0.000919932
0.00114042
0.000705766
0.000749404
0.00137898
0.000679621
0.000595546
0.00172934
0.000587474
0.000443194
0.00210459
0.000537667
6.37643e-05
0.00247669
0.000390069
-0.000720214
0.00271148
7.49411e-05
-0.00233202
0.00265756
-0.000423303
-0.00493521
0.00225403
-0.000628091
-0.00819852
0.00137462
-0.0110566
-0.000363458
0.000761953
-0.00979144
-0.00156867
0.000494931
-0.00746468
0.000494931
-0.000105248
-0.00507965
0.00160648
-0.000424594
-0.00298764
0.00213021
-0.000498084
-0.00149248
0.0023365
-0.000397846
-0.000555952
0.00229448
-0.000274807
-1.40169e-05
0.00214658
-0.000135297
0.000275236
0.0019562
3.68585e-05
0.000487944
0.00176319
0.000283594
0.000542385
0.00158274
0.000579566
0.000339199
0.0015049
0.000856572
4.96319e-05
0.00160953
0.0011146
-0.000241159
0.00172445
0.00132825
-0.000488341
0.00186314
0.00137551
-0.000844865
0.00206135
0.00121466
-0.00154876
0.00226507
0.000845127
-0.0028896
0.00223189
0.000195758
-0.00487395
0.00180861
-0.00028968
-0.00761077
0.000889475
-0.0103568
-0.000950325
0.00011826
-0.00850448
-0.00232582
-0.000391269
-0.00644562
-0.000391269
-0.00111927
-0.00455651
0.000638716
-0.00146265
-0.00325317
0.00102685
-0.00149869
-0.00233626
0.0011493
-0.00131011
-0.00174269
0.0011049
-0.000933502
-0.00138983
0.0010015
-0.000500114
-0.00113953
0.000960741
-8.05798e-05
-0.000912152
0.00101424
0.000321921
-0.000794268
0.00106259
0.000742487
-0.000983812
0.000876264
0.0012615
-0.00130176
0.000658944
0.00173649
-0.00151901
0.000579586
0.00212051
-0.00169525
0.000631445
0.00231087
-0.00193227
0.000804511
0.00223084
-0.00239244
0.00100587
0.00185298
-0.00322558
0.00103303
0.00113075
-0.00450101
0.000770686
0.000307446
-0.00647816
4.66253e-05
-0.00878296
-0.00167145
-0.00107135
-0.00570183
-0.00348457
-0.00218923
-0.00420988
-0.00218923
-0.00298199
-0.00324265
-0.00154845
-0.00328728
-0.00273342
-0.00140672
-0.00310923
-0.00244429
-0.00148683
-0.00264345
-0.00230785
-0.00150088
-0.00195991
-0.0022032
-0.00160987
-0.00113101
-0.0020634
-0.00170399
-0.000302204
-0.00184116
-0.00163668
0.000370179
-0.00156728
-0.00142789
0.00114941
-0.00178904
-0.00169735
0.00196322
-0.00205946
-0.00196089
0.00272935
-0.00218477
-0.00204997
0.0033909
-0.00223898
-0.00200614
0.00384794
-0.00228375
-0.00184443
0.00400595
-0.00239217
-0.00168468
0.0036718
-0.00266262
-0.00148948
0.00279467
-0.00317467
-0.00147053
0.00143245
-0.00418028
-0.00184731
-0.00578994
-0.00280791
-0.00355229
-0.00544392
-0.00565723
-0.00565723
-0.00668323
-0.00641735
-0.00697346
-0.00730945
-0.00669519
-0.00824226
-0.00595364
-0.00918012
-0.00480452
-0.0100013
-0.00328515
-0.010604
-0.00140534
-0.0109135
0.000754511
-0.010757
0.00271496
-0.0108813
0.00434643
-0.010881
0.0056664
-0.0104611
0.0066571
-0.00976602
0.00728773
-0.00891989
0.00748802
-0.00798791
0.00713762
-0.00704973
0.00603883
-0.00612145
0.00379941
-0.00525245
-0.00476818
0.000118874
0.000711221
-0.00109184
-4.20418e-05
0.000511191
-0.000535407
-0.000241835
0.000399584
-0.000241835
-0.000571368
0.000362599
-0.000251321
-0.000816657
0.000228
-0.000189103
-0.00089029
1.2972e-05
-1.73769e-05
-0.000865109
-0.000132157
8.88411e-05
-0.000841084
-0.000170895
0.000197192
-0.00077943
-0.000236131
0.000276037
-0.000694565
-0.000305324
0.000398057
-0.000610574
-0.000333002
0.000521012
-0.000535554
-0.00032827
0.000607163
-0.000435291
-0.000339987
0.000628935
-0.000274733
-0.000387631
0.000601572
-9.28167e-06
-0.000438262
0.000586232
-5.63944e-05
-3.65822e-05
0.000426006
-0.000294384
0.000222039
0.000339814
-0.000518826
0.000361098
0.00050267
-0.000506499
0.00038617
0.000865764
0.000281167
0.0011565
0.00226844
-0.00134123
0.00439188
0.00343952
-0.000564394
0.00419535
0.00333795
0.000602668
0.00333795
0.00229063
0.00153431
0.00226976
0.00101148
0.00167728
0.00140604
0.000120939
0.00100796
0.000687886
-0.000211667
9.69189e-05
-1.41585e-05
-0.000232863
-0.000301614
-0.000254542
-0.000226404
-0.000410883
-0.000373741
-0.000251931
-0.0004668
-0.000388598
-0.000283596
-0.000526669
-0.000284181
-0.000252256
-0.000636104
-7.80538e-05
-0.000156716
-0.000718877
0.000200597
-0.000263891
-0.000515392
0.000515872
-0.00104362
0.000197833
0.000962348
-0.00231696
0.00112637
0.00166346
-0.00354138
0.00118968
0.00249172
-0.00369409
-1.55684e-05
0.00361487
-0.00251184
-0.00153781
0.00450677
-0.00309714
0.00481641
0.00179118
-0.00370755
0.00378868
0.00312638
-0.00248307
0.00408316
0.00372703
-0.000598633
0.00372703
0.00349845
0.00129521
0.00297735
0.00280159
0.00204469
0.00225529
0.00194291
0.00164119
0.00163158
0.00111263
0.000827749
0.000999906
0.000589241
0.000140921
0.000324705
0.000274355
-0.000261299
-0.000288817
4.32585e-05
-0.000402627
-0.000647456
-0.000183153
-0.000506455
-0.00061983
-0.000407402
-0.000690498
-0.000146166
-0.00089723
-0.000494729
0.000549007
-0.00187124
0.000222972
0.00128323
-0.003083
0.00107038
0.00198237
-0.0038754
0.00135102
0.00259395
-0.00403726
0.000608984
0.00313768
-0.00346497
-0.00144122
0.00365839
-0.00202764
-0.00389433
0.00387216
-0.00590181
0.00333486
0.00153342
-0.00550366
0.00161456
0.00263407
-0.00413515
0.00289593
0.00340398
-0.00213845
0.00340398
0.00374868
0.000218875
0.00323857
0.00353854
0.00167288
0.00279012
0.00294288
0.00183067
0.00228619
0.00219868
0.00131612
0.00174377
0.00145397
0.000739132
0.00111735
0.000838386
0.000299923
0.000315054
0.000346427
2.41785e-05
-0.000468728
-0.000152092
-0.000137947
-0.000663179
-0.000837171
-0.000169327
0.00011572
-0.00176577
0.00019751
0.00110271
-0.00271407
0.000855226
0.00190316
-0.00339023
0.00133764
0.00246517
-0.00371116
0.00113207
0.00289264
-0.00346264
-0.000298604
0.00319206
-0.00274276
-0.0028305
0.00318471
-0.00161863
-0.00543391
0.00259237
-0.00751099
0.00122856
0.00154414
-0.00674254
-0.000306724
0.0023492
-0.00498119
0.00161148
0.00276418
-0.00296841
0.00276418
0.00305792
-0.000624866
0.00318263
0.00307095
0.00119532
0.00309819
0.00270209
0.00184686
0.00278216
0.002087
0.0016903
0.00233734
0.0014074
0.00130175
0.0017707
0.000825217
0.000936041
0.00102808
0.000471736
0.00065593
0.000163903
0.000265881
0.000511404
-0.00023929
-0.000269297
0.000552722
0.000495786
-0.00106039
0.000841983
0.00151672
-0.00178264
0.00130452
0.00223394
-0.00230141
0.00153627
0.00275378
-0.00250049
0.000986281
0.003076
-0.00242786
-0.000763658
0.00311951
-0.0021555
-0.0033918
0.00271493
-0.00143531
-0.00606778
0.00164426
-0.00837124
-0.000270197
0.00146789
-0.00760233
-0.00150885
0.00207371
-0.00524522
0.00069398
0.00216247
-0.00314591
0.00216247
0.00210071
-0.000891631
0.00287992
0.00204475
0.000879708
0.00310849
0.00181307
0.00173393
0.00296429
0.00140187
0.00181992
0.00262522
0.000932921
0.00161466
0.00216225
0.000547562
0.00137566
0.00157663
0.000376114
0.00117313
0.000924502
0.000363795
0.00105984
0.000604307
0.000158726
0.0010699
0.00106687
-0.000265384
0.00123576
0.00175968
-0.00070942
0.00150448
0.00234867
-0.00105735
0.00156113
0.00279976
-0.00131139
0.00089881
0.00305299
-0.00153932
-0.000806905
0.00292874
-0.00163965
-0.00335346
0.00231602
-0.00123565
-0.00607905
0.000981895
-0.00878443
-0.00118592
0.00117187
-0.00794319
-0.00239967
0.00160648
-0.00507966
-0.000105248
0.00152185
-0.00297665
0.00152185
0.00127845
-0.000877451
0.00235944
0.00109525
0.000703285
0.00269612
0.000973942
0.00145998
0.00268973
0.000809622
0.00163147
0.00249936
0.000604944
0.00155607
0.00221948
0.000420259
0.00144615
0.00187738
0.000331098
0.0013511
0.00149394
0.000366344
0.00125026
0.00127924
0.000329268
0.00121431
0.0015022
0.000192335
0.00126834
0.0018288
3.87039e-05
0.00137483
0.00214642
-0.000139078
0.00133222
0.00246804
-0.000403515
0.000749271
0.00267904
-0.000747615
-0.000761214
0.0025303
-0.00103704
-0.00304175
0.00178631
-0.000883276
-0.00561918
0.000275838
-0.00871916
-0.00189887
0.000433863
-0.00737044
-0.00333244
0.000638716
-0.00455651
-0.00111927
0.000376302
-0.00245182
0.000376303
0.000205995
-0.00088808
0.00120779
0.000230418
0.00014906
0.0016791
0.000252874
0.000840048
0.00170237
0.000306258
0.000990196
0.00158939
0.000357601
0.00100044
0.00146503
0.00037016
0.00106658
0.00138126
0.000313573
0.00117986
0.00129041
0.000353278
0.00100887
0.00107795
0.000475765
0.000758432
0.000992335
0.000565097
0.000711628
0.00104696
0.00063173
0.000744726
0.00119492
0.000657597
0.000675255
0.00143561
0.000670376
0.000113531
0.00162883
0.000417386
-0.000853746
0.00137855
-7.66338e-05
-0.00245267
0.000675624
-5.93666e-05
-0.00482976
-0.000760065
-0.00772942
-0.00272057
-0.00102735
-0.00526477
-0.0045629
-0.00154845
-0.00324265
-0.00298199
-0.00179812
-0.00195248
-0.00179812
-0.00175998
-0.00117245
-0.0011605
-0.00133583
-0.000608894
-0.00115302
-0.00074737
-0.000208381
-0.00104091
-0.000257258
-2.05994e-05
-0.00108919
7.57295e-05
0.000155822
-0.00119237
0.000286944
0.000394027
-0.00117534
0.000381375
0.00073349
-0.00107596
0.000563911
0.000495356
-0.00136637
0.000814119
0.000163369
-0.00161604
0.00118646
-4.32488e-05
-0.00166744
0.0016599
-0.000150112
-0.00158474
0.0021989
-0.000302426
-0.00140575
0.00252899
-0.000608942
-0.0012923
0.00249736
-0.00112944
-0.00118216
0.00212456
-0.00190925
-0.00164116
0.00130783
-0.00326124
-0.00259911
-0.00535383
-0.00387567
-0.00420069
-0.006508
-0.00641735
-0.00668323
-0.00739359
-0.00739359
-0.00758579
-0.00828971
-0.00723171
-0.00920524
-0.00642264
-0.0101976
-0.00525153
-0.011193
-0.0036709
-0.0120288
-0.0016375
-0.0125529
0.000855721
-0.0125167
0.00306434
-0.0125945
0.00478894
-0.0124423
0.006086
-0.0118014
0.00705028
-0.0108804
0.00769396
-0.00986601
0.00794998
-0.00885289
0.00768904
-0.00791825
0.00665186
-0.00699353
0.00433428
-0.00619612
-0.00578774
-0.000156911
0.000767711
-0.00170263
-0.000218263
0.000500842
-0.000974887
-0.000251321
0.000362599
-0.000571368
-0.000357501
0.000212359
-0.0003575
-0.000442241
5.87014e-05
-0.000163076
-0.00047073
-6.03425e-05
7.14227e-05
-0.000490559
-0.000148921
0.000257568
-0.000561063
-0.000162144
0.000429832
-0.000600313
-0.000241528
0.000556826
-0.00066557
-0.000299664
0.000762998
-0.000735425
-0.000297369
0.000888255
-0.000780022
-0.000266669
0.000918442
-0.000752599
-0.000271122
0.000872643
-0.000617239
-0.000326593
0.000792812
-0.000309699
-0.000431734
0.000710434
-0.000179476
-0.000227396
0.000523157
-0.000264855
0.000115269
0.00030989
-0.000306668
0.000269896
0.000274565
-0.0001899
0.000395615
0.000353393
0.000632323
0.000334341
0.00164915
0.000758969
0.00275142
0.0023942
0.00109349
0.0028576
0.00226976
0.00153431
0.00229063
0.00149462
0.00176261
0.00149462
0.000623309
0.00147378
0.000862245
0.000178888
0.000630049
0.000441905
4.45036e-05
-0.000106059
7.73584e-05
1.64915e-05
-0.000385703
-2.97297e-06
-8.0606e-05
-0.000446997
-7.11702e-05
-0.000266604
-0.000482864
-1.93892e-05
-0.000454992
-0.00050242
0.000109269
-0.000506926
-0.000583357
0.000290584
-0.00038647
-0.000672159
0.000481192
-0.000290958
-0.000573189
0.000666967
-0.000687584
1.30584e-05
0.000914186
-0.00148266
0.00079067
0.00144052
-0.00238049
0.00134885
0.002156
-0.00266875
0.0010248
0.00314825
-0.00186801
2.5269e-05
0.00407638
-0.000800606
0.00438132
0.0014705
-0.000427264
0.00350439
0.00250969
0.000316189
0.00382125
0.00297735
0.00129521
0.00349845
0.00283898
0.00203933
0.00283898
0.00234362
0.00204387
0.00218055
0.0016694
0.00138048
0.00155535
0.00105277
0.00056433
0.000946138
0.000657542
-6.98877e-05
0.000404118
0.000364349
-0.000405806
-3.68162e-05
1.65522e-05
-0.000480264
-0.000302256
-0.000336225
-0.000547198
-0.000222267
-0.000573887
-0.000714453
0.000222603
-0.000892135
-0.000582488
0.000777598
-0.00162773
7.33143e-05
0.00137234
-0.00260275
0.00092134
0.00204912
-0.0033488
0.00136345
0.00276723
-0.00348403
0.0011851
0.00343667
-0.00290762
0.000104718
0.00400207
-0.00175683
-0.00137441
0.00412106
-0.00283308
0.00361051
0.00153444
-0.00247791
0.00213077
0.00250694
-0.00102596
0.00326557
0.00323857
0.000218876
0.00374868
0.00353213
0.0014522
0.00353213
0.00332641
0.00201946
0.00302025
0.00277727
0.0017828
0.00243301
0.00209897
0.00114756
0.00183884
0.00142933
0.000518826
0.00119827
0.000848897
4.09116e-05
0.000448773
0.000308636
-0.000211193
-0.000197538
-0.000285428
-0.000335528
-0.000280781
-0.000978686
-0.000369035
0.00046357
-0.00183666
3.83528e-05
0.00133985
-0.00275088
0.000775434
0.00211528
-0.00344257
0.00134997
0.00272824
-0.00380252
0.00137693
0.00323911
-0.00358985
0.000533833
0.00363066
-0.00284564
-0.00108367
0.00362889
-0.00172387
-0.00279747
0.00289367
-0.00464205
0.00131366
0.0018274
-0.00433476
-0.00027727
0.00263262
-0.00199818
0.00177848
0.00318263
-0.000624865
0.00305792
0.00350705
0.00080337
0.00350705
0.0034552
0.0017896
0.00337989
0.00303797
0.00198877
0.00299341
0.00240133
0.00163073
0.00249082
0.00170685
0.00109788
0.00188611
0.00106476
0.000607723
0.00110337
0.000532133
0.000258319
0.000227015
-3.57846e-05
9.95482e-05
-0.000106447
-0.000831504
0.000183418
0.000739059
-0.0017051
0.000661384
0.00176729
-0.00247175
0.00129283
0.0024832
-0.00303583
0.00168708
0.00298075
-0.00326704
0.00139002
0.00329412
-0.00308807
0.000164462
0.0033099
-0.00257973
-0.00164757
0.00277049
-0.00170231
-0.00345512
0.00142449
-0.00604234
-0.000572219
0.0017613
-0.00582872
-0.0017762
0.0025514
-0.00253327
0.000438986
0.00287992
-0.00089163
0.00210071
0.00300365
0.000555926
0.00300365
0.00294267
0.00167418
0.00328489
0.00263815
0.00209958
0.00315801
0.00213501
0.00194901
0.00281008
0.0015343
0.00155318
0.00230766
0.000949508
0.0011349
0.00163426
0.000487453
0.000799696
0.000845179
0.00011198
0.000629146
0.000450182
-0.000474108
0.000733655
0.00110272
-0.00115909
0.00115066
0.00195539
-0.00174596
0.00165662
0.00257173
-0.00216416
0.0019273
0.00297775
-0.00238067
0.00152489
0.00313463
-0.00238586
0.000213987
0.00288442
-0.00216446
-0.00158684
0.00203389
-0.00148688
-0.00364633
0.000495512
-0.00708004
-0.00163509
0.00135649
-0.00679955
-0.00278532
0.00213021
-0.00298764
-0.000424594
0.00235944
-0.000877451
0.00127845
0.00228735
0.000700092
0.00228735
0.00220079
0.00165272
0.00280415
0.0020371
0.00205092
0.00290208
0.00176029
0.00197203
0.00275315
0.00137226
0.00170484
0.00245585
0.000912618
0.00144352
0.00202839
0.00045943
0.00125283
0.00149399
9.43788e-05
0.00110475
0.00116869
-0.000347563
0.00113284
0.00154495
-0.000777837
0.00136868
0.00204106
-0.00109325
0.00170221
0.00241625
-0.00129974
0.00191877
0.00268306
-0.00144405
0.00161018
0.00273806
-0.001623
0.00056242
0.00236081
-0.00155863
-0.00133058
0.00146568
-0.00103093
-0.0036514
-0.000246792
-0.00760008
-0.00240977
0.000417942
-0.00677687
-0.00377306
0.00102685
-0.00325317
-0.00146265
0.00120779
-0.000888081
0.000205995
0.001251
0.000613659
0.001251
0.00128756
0.00148225
0.00181302
0.00132921
0.00172574
0.00198591
0.00131521
0.00162899
0.00194643
0.00118922
0.00147638
0.00181948
0.000906423
0.00143742
0.00167017
0.000435684
0.00153723
0.00147675
4.86038e-05
0.00137142
0.00119836
-0.000202851
0.00116715
0.00120949
-0.000373941
0.00121299
0.00137374
-0.000437104
0.00138786
0.00157244
-0.000409355
0.00156302
0.00176361
-0.000390325
0.00141572
0.00180427
-0.000390485
0.000510956
0.00143017
-0.000418739
-0.00105698
0.000430271
-3.68768e-05
-0.0035453
-0.00124803
-0.00711842
-0.00323911
-0.00119227
-0.0051792
-0.00496831
-0.00140672
-0.00273342
-0.00328728
-0.0011605
-0.00117245
-0.00175998
-0.000817471
-7.23915e-05
-0.000817471
-0.000401644
0.000415044
-0.000501647
8.91067e-05
0.00060657
-0.000412497
0.000466182
0.000695154
-0.000532427
0.000647931
0.000834255
-0.000731992
0.000645634
0.00112895
-0.000864582
0.000413841
0.00160323
-0.000910168
0.000353418
0.00131366
-0.00124819
0.000383521
0.000868683
-0.00134768
0.000522515
0.000659596
-0.00125304
0.000790177
0.000565417
-0.00102997
0.00120015
0.000523687
-0.000776392
0.00159487
0.000387939
-0.000659241
0.00184736
-7.83017e-05
-0.000845394
0.00193049
-0.00114343
-0.00163784
0.001444
-0.00273425
-0.00292368
-0.00522215
-0.00432795
-0.00486626
-0.00682095
-0.00730945
-0.00697346
-0.00828971
-0.00758579
-0.00832591
-0.00832591
-0.00786382
-0.00925229
-0.00706703
-0.0103878
-0.00593384
-0.011631
-0.00431593
-0.0128125
-0.00204549
-0.0136944
0.000972951
-0.0139319
0.00357098
-0.0138789
0.00541409
-0.0134167
0.00669298
-0.0124207
0.007577
-0.011199
0.0081837
-0.00994903
0.00852458
-0.00880584
0.00840675
-0.00787873
0.00739048
-0.0071207
0.00490796
-0.00644786
-0.00610194
-0.000176199
0.000482635
-0.00200908
-0.000206384
0.00036939
-0.0013141
-0.000189103
0.000228
-0.000816656
-0.000163077
5.87012e-05
-0.00044224
-0.000140908
-4.43655e-05
-0.000140908
-0.000110971
-0.000127919
0.000169374
-0.000161085
-0.000119289
0.000426947
-0.00028738
-0.000159657
0.000715775
-0.000419962
-0.000248287
0.000937705
-0.000679551
-0.000297628
0.00132023
-0.000921988
-0.000264782
0.00139549
-0.00107338
-0.000208255
0.0012781
-0.00109665
-0.000200449
0.00109635
-0.000976669
-0.000253614
0.000926445
-0.000690355
-0.000360399
0.000784519
-0.000361841
-0.000414155
0.000608792
-0.000295616
-7.88192e-05
0.000322443
-0.000283996
0.000122419
0.000140494
-0.000189057
0.000229513
2.89183e-05
0.000326057
-0.000180783
0.00117601
0.00156549
0.00049252
0.0015762
0.00165176
0.00117499
0.00140604
0.00167728
0.00101148
0.000862244
0.00147378
0.000623309
0.000409086
0.000861937
0.000409087
0.000268797
0.000140483
0.000313784
0.000266666
-0.00029751
0.000257706
0.000220967
-0.000422097
0.000305165
1.58799e-05
-0.000451848
0.000337482
-0.000333839
-0.000464242
0.000496952
-0.000652213
-0.000446855
0.000609725
-0.000755074
-0.000506263
0.000691463
-0.000621891
-0.000601061
0.00074863
-0.00039894
-0.000607585
0.000797994
-0.000420318
-0.000271439
0.000846607
-0.000773666
0.000293767
0.00108597
-0.00126915
0.00103162
0.00154108
-0.00152187
0.00135709
0.00216633
-0.00115849
0.0011793
0.00276324
0.000754366
0.00279454
0.001184
0.00143087
0.002455
0.00192586
0.00178488
0.00294626
0.00225529
0.00204469
0.00280159
0.00218055
0.00204387
0.00234362
0.00181024
0.00160255
0.00181024
0.00132256
0.000889545
0.00129396
0.000927241
0.000187169
0.000856771
0.000659084
-0.000292337
0.000542512
0.000371494
-0.000489072
0.000287998
-6.79031e-05
-0.000499969
0.00017287
-0.000494645
-0.000526289
0.000283914
-0.000700379
-0.000685876
0.000607959
-0.000842172
-0.000644383
0.000962723
-0.00127223
-0.000159455
0.00135428
-0.00194942
0.000597889
0.00185698
-0.00258149
0.00119061
0.00250246
-0.00270823
0.00138884
0.00320619
-0.00225937
0.00117629
0.00373403
-0.00137238
0.000553532
0.00385985
-0.000419895
0.0034124
0.00143088
-0.00034554
0.00247629
0.00220819
0.00103688
0.00323625
0.00279012
0.00167288
0.00353854
0.00302025
0.00201946
0.00332641
0.00284954
0.00194395
0.00284954
0.00240531
0.00146415
0.00230263
0.00183626
0.000833255
0.0017618
0.00127789
0.000256279