/*--------------------------------*- C++ -*----------------------------------*\
| =========                 |                                                 |
| \\      /  F ield         | OpenFOAM: The Open Source CFD Toolbox           |
|  \\    /   O peration     | Version:  v2012                                 |
|   \\  /    A nd           | Website:  www.openfoam.com                      |
|    \\/     M anipulation  |                                                 |
\*---------------------------------------------------------------------------*/
FoamFile
{
    version     2.0;
    format      ascii;
    class       volVectorField;
    location    "1400";
    object      U;
}
// * * * * * * * * * * * * * * * * * * * * * * * * * * * * * * * * * * * * * //

dimensions      [0 1 -1 0 0 0 0];


internalField   nonuniform List<vector> 
4000
(
(0.00421755 0.00252566 0.00421755)
(0.00169958 0.0134658 0.00213016)
(-0.00308162 0.00771452 0.000574234)
(-0.00505698 0.00279057 -0.000282642)
(-0.00669777 -0.000685894 -0.000390601)
(-0.00693632 -0.00148352 -0.000300207)
(-0.00607665 -0.000617794 -0.00023109)
(-0.00525232 -0.00094872 -9.94209e-05)
(-0.00435936 -0.00121371 -3.22589e-05)
(-0.00335228 -0.00132749 3.34685e-05)
(-0.00224374 -0.00149028 0.00011769)
(-0.00111852 -0.00160723 0.000189432)
(9.31587e-05 -0.00156175 0.000191967)
(0.000947508 -0.00136923 0.000107263)
(0.00278044 -0.00194719 0.000221304)
(0.00269062 -0.00281664 0.00047882)
(0.00206617 0.000361003 0.000346812)
(-0.0017029 0.00659176 0.00121492)
(-0.00538278 0.00641308 0.00302799)
(-0.00467423 -0.00425663 0.00443591)
(0.00527875 -0.0183586 0.00527875)
(0.012773 -0.00750088 0.00598823)
(0.0164977 -0.00154142 0.0054277)
(0.0138134 0.00329378 0.00430703)
(0.00692545 0.00457236 0.00325098)
(-0.00315292 0.00133444 0.000845752)
(-0.00461184 -0.000727081 -0.000923119)
(-0.00395876 -0.000493185 -0.00133404)
(-0.00293501 -0.000557763 -0.00154507)
(-0.00172093 -0.00102416 -0.00157708)
(-0.000379563 -0.00133503 -0.00149923)
(0.00099561 -0.00150865 -0.00134176)
(0.00232751 -0.00181786 -0.00112295)
(0.00273247 -0.00249268 -0.000501701)
(0.0032838 -0.00183652 0.000332302)
(-0.00621742 0.00326721 0.00281621)
(-0.0136102 0.00287776 0.00348455)
(-0.0159644 -0.00198655 0.00417007)
(-0.0126648 -0.0101424 0.00458627)
(-0.0049216 -0.0222599 0.00449663)
(0.00305806 -0.0328302 0.00305806)
(0.00863244 -0.0208832 0.00398732)
(0.0119378 -0.00956592 0.00387575)
(0.0139668 0.00116877 0.00352975)
(0.0113302 0.00577904 0.00305374)
(0.00606119 0.0050528 0.00220839)
(0.00228355 0.00217246 0.00160297)
(-0.00239869 0.0001338 -0.000343874)
(-0.00161927 -0.000559713 -0.00153236)
(-0.00087443 -0.000931183 -0.00199553)
(0.000680188 -0.00137955 -0.00201962)
(0.00166282 -0.00193788 -0.00148255)
(0.00229506 -0.00194712 -0.000560386)
(-0.000610146 -0.000625602 0.00153618)
(-0.0073147 0.00326407 0.00274109)
(-0.0111016 0.00438163 0.00304416)
(-0.0131764 0.00114371 0.00328936)
(-0.0109418 -0.00820034 0.00341743)
(-0.00770971 -0.0204948 0.00331678)
(-0.00220255 -0.035274 0.00306169)
(0.00150476 -0.0410378 0.00150476)
(0.00424376 -0.0291015 0.00271965)
(0.00451148 -0.0164239 0.0031072)
(0.00613338 -0.00473503 0.00356508)
(0.00899569 0.00348255 0.00366709)
(0.00847677 0.00501537 0.00333806)
(0.00665517 0.00375804 0.00294988)
(0.00375802 0.0028838 0.00214865)
(0.00109945 0.00178441 0.00101637)
(-3.24298e-05 0.00120613 -0.000560994)
(0.000888928 0.00100738 -0.000930659)
(0.00149019 0.000732441 0.000405221)
(-0.000592927 0.000723097 0.00226005)
(-0.00323788 0.00133412 0.0034056)
(-0.00532058 0.00179889 0.00409866)
(-0.00584327 0.000534658 0.00439601)
(-0.00437432 -0.00518577 0.00414459)
(-0.00275739 -0.0151742 0.0033142)
(-0.00268087 -0.0279003 0.00272325)
(-0.000313926 -0.0423402 0.00218751)
(0.000504688 -0.0448861 0.000504688)
(0.00126855 -0.0334694 0.00204019)
(-0.00127015 -0.0212789 0.00266851)
(-0.00112811 -0.0118388 0.00354171)
(-0.000595902 -0.00555871 0.00442211)
(0.00101226 -0.00181412 0.00465856)
(0.00124658 -0.000427618 0.00442267)
(0.000920347 0.000638243 0.00406522)
(0.000390329 0.00131736 0.00358598)
(0.000333581 0.00136869 0.00308013)
(0.0014259 0.000271796 0.00309685)
(0.00256696 -0.00113499 0.00342539)
(0.0031102 -0.00245584 0.00357916)
(0.00333725 -0.00348906 0.00377258)
(0.0035169 -0.0048336 0.00411809)
(0.00374795 -0.00737666 0.00423752)
(0.00364355 -0.0122821 0.00379283)
(0.00346872 -0.0204559 0.00293988)
(0.000930962 -0.0319142 0.00232733)
(0.000962312 -0.0454438 0.00159781)
(-0.000305558 -0.0455532 -0.000305561)
(-0.000896054 -0.0351728 0.00139389)
(-0.00494716 -0.0252811 0.00173327)
(-0.00588659 -0.0181136 0.00213804)
(-0.00625716 -0.0133182 0.00241249)
(-0.0055726 -0.0104859 0.0025396)
(-0.00446277 -0.0086547 0.00251486)
(-0.00310716 -0.00728333 0.00251846)
(-0.00158545 -0.00628027 0.00258767)
(-4.55808e-05 -0.00604623 0.00263436)
(0.00183488 -0.0074791 0.00223167)
(0.00374125 -0.00875276 0.00193675)
(0.00556654 -0.00988766 0.00173856)
(0.00712505 -0.0109974 0.00168778)
(0.0082931 -0.0124368 0.00179043)
(0.0088688 -0.0147272 0.00193065)
(0.00843381 -0.0185801 0.00195863)
(0.00732625 -0.0247855 0.00178728)
(0.00336833 -0.0340964 0.00168337)
(0.0019607 -0.0457918 0.00102409)
(-0.00126885 -0.0434985 -0.00126885)
(-0.00266336 -0.0351854 0.000401162)
(-0.00767035 -0.0277279 0.000154766)
(-0.00929257 -0.0228544 -0.000105836)
(-0.00984843 -0.0197927 -0.000484649)
(-0.00907124 -0.0179202 -0.000847037)
(-0.00742043 -0.0166201 -0.00113639)
(-0.00519274 -0.0155201 -0.00128284)
(-0.00264461 -0.0145739 -0.00127571)
(-0.000208963 -0.0141213 -0.00113892)
(0.00239424 -0.0154948 -0.00154105)
(0.00487848 -0.0166874 -0.00179657)
(0.0074733 -0.0175996 -0.00185862)
(0.00976725 -0.0183864 -0.0017006)
(0.0115015 -0.0193242 -0.0013481)
(0.0123446 -0.0207671 -0.000891908)
(0.0118373 -0.0232094 -0.000387817)
(0.0101606 -0.0274024 6.31128e-05)
(0.00518794 -0.0343398 0.000590363)
(0.0029392 -0.0436596 0.000180661)
(-0.00275001 -0.0381067 -0.00275001)
(-0.00491856 -0.0320741 -0.00136794)
(-0.0106157 -0.0273482 -0.00214725)
(-0.0127025 -0.0247538 -0.00297865)
(-0.0132318 -0.0233708 -0.00382929)
(-0.0121433 -0.0226817 -0.00458782)
(-0.00987498 -0.0222105 -0.00521933)
(-0.00682376 -0.0216905 -0.00565041)
(-0.00342952 -0.0211276 -0.00588701)
(-0.000408097 -0.0206896 -0.0057262)
(0.002814 -0.0216825 -0.00600081)
(0.0059325 -0.0223777 -0.0060074)
(0.0093317 -0.0227801 -0.00579969)
(0.0123246 -0.0230003 -0.0053935)
(0.014586 -0.0232525 -0.00480745)
(0.0157389 -0.0237608 -0.00406911)
(0.0152538 -0.0248225 -0.00319202)
(0.0131284 -0.0270529 -0.00225292)
(0.0074355 -0.0314735 -0.00123478)
(0.00439367 -0.0380512 -0.00132928)
(-0.00533925 -0.0285094 -0.00533925)
(-0.00874618 -0.0244528 -0.00474662)
(-0.0147569 -0.0221827 -0.00583499)
(-0.0169354 -0.0214152 -0.00704862)
(-0.0171973 -0.0213095 -0.00820232)
(-0.0156872 -0.0215521 -0.00917488)
(-0.0128232 -0.0218376 -0.00995777)
(-0.00896701 -0.0219624 -0.0104927)
(-0.00459372 -0.0218183 -0.0106712)
(-0.000643615 -0.0216247 -0.0102675)
(0.00367705 -0.0220987 -0.0106465)
(0.00761243 -0.0224616 -0.0108513)
(0.0118589 -0.0224109 -0.0106327)
(0.0155223 -0.0220497 -0.0100979)
(0.018241 -0.0215716 -0.00931748)
(0.0196624 -0.0211925 -0.00833064)
(0.0193569 -0.0211847 -0.00713719)
(0.017105 -0.0218472 -0.00582093)
(0.0110704 -0.0240523 -0.00444255)
(0.00690621 -0.0283501 -0.00392031)
(-0.00956936 -0.017649 -0.00956936)
(-0.0154914 -0.0139625 -0.0108267)
(-0.0214845 -0.0121822 -0.0130677)
(-0.0235016 -0.0114934 -0.0152421)
(-0.0234018 -0.0111329 -0.0173483)
(-0.0214116 -0.0108518 -0.0192963)
(-0.0178471 -0.0104522 -0.020947)
(-0.0129842 -0.0098398 -0.022175)
(-0.00724286 -0.0089728 -0.0228138)
(-0.00120574 -0.00809184 -0.0223634)
(0.00568192 -0.00887 -0.0226145)
(0.0109116 -0.00967413 -0.0226773)
(0.0162633 -0.010265 -0.021897)
(0.0206971 -0.0106445 -0.0205794)
(0.0239148 -0.0108671 -0.0189202)
(0.0256702 -0.0110325 -0.0170056)
(0.0256281 -0.011306 -0.0149177)
(0.0234766 -0.0119302 -0.0126964)
(0.0173753 -0.0136558 -0.0102341)
(0.010952 -0.017471 -0.00806807)
(0.00213016 0.0134658 0.00169958)
(0.000230628 0.0112495 0.00023063)
(-0.00134903 0.00421987 0.000183239)
(-0.00256079 0.00059352 -0.000711331)
(-0.00417551 -0.00150792 -0.000737536)
(-0.00487442 -0.00156707 -0.000301056)
(-0.00460838 -0.000112299 -0.000178275)
(-0.00414356 -0.000221429 3.22718e-05)
(-0.00364242 -0.00051914 0.000172061)
(-0.00298523 -0.000760535 0.000366865)
(-0.00224368 -0.000894986 0.000616745)
(-0.00151743 -0.000896728 0.000847227)
(-0.000793155 -0.000842859 0.000965916)
(-0.000210895 -0.000929925 0.000919203)
(0.000971256 -0.00196606 0.00118816)
(0.00116893 -0.00281258 0.000964888)
(0.00025504 -0.00048863 0.000914486)
(-0.00218439 0.00480272 0.00221943)
(-0.00400659 0.0076494 0.00444577)
(-0.00400781 0.00361318 0.00711251)
(0.00598823 -0.00750089 0.012773)
(0.0122089 -0.00318557 0.0122089)
(0.0156796 0.000441705 0.0101968)
(0.0134363 0.00363043 0.00734817)
(0.00759169 0.00454634 0.0050196)
(0.000923711 0.00212106 0.00261794)
(-0.0022047 -0.00101718 -0.000663098)
(-0.00208198 -0.00116266 -0.00146274)
(-0.00172684 -0.00107587 -0.00191461)
(-0.00120449 -0.00137358 -0.00203798)
(-0.000702084 -0.00162949 -0.00187782)
(-0.000141386 -0.00185236 -0.0014642)
(0.000525889 -0.00221858 -0.000688719)
(0.000522862 -0.00254924 0.000510882)
(-0.00070019 -0.00115292 0.00247413)
(-0.00725599 0.00324138 0.00470152)
(-0.0135593 0.00308504 0.00643098)
(-0.0157829 -0.000748838 0.008589)
(-0.0128462 -0.00723106 0.0102845)
(-0.00591645 -0.0150497 0.0105434)
(0.00398732 -0.0208832 0.00863244)
(0.00970144 -0.0141145 0.00970144)
(0.0132618 -0.00546563 0.00873975)
(0.0147788 0.00315396 0.00711105)
(0.0123185 0.00656698 0.00552502)
(0.00821591 0.00538797 0.00406705)
(0.00490573 0.002361 0.00272684)
(0.00168046 -0.00024754 0.000831812)
(0.000214799 -0.00136836 -0.00161457)
(6.16978e-05 -0.00151576 -0.00270654)
(7.0798e-05 -0.00177634 -0.00278598)
(9.60577e-05 -0.00247244 -0.00163505)
(-0.00073805 -0.00267277 0.000631985)
(-0.00370735 -0.000529475 0.0030752)
(-0.00909202 0.00320348 0.00464949)
(-0.0127023 0.00480976 0.00559156)
(-0.0149533 0.00225153 0.00656557)
(-0.0132288 -0.00610114 0.00769845)
(-0.00961851 -0.0167416 0.00813204)
(-0.0037443 -0.0276036 0.00718045)
(0.00271964 -0.0291015 0.00424376)
(0.00699571 -0.0220777 0.00699571)
(0.0086934 -0.0121609 0.00767982)
(0.0107674 -0.00138978 0.00725033)
(0.0119528 0.00531759 0.00635763)
(0.0106149 0.00608467 0.0054465)
(0.00840743 0.00422458 0.00441491)
(0.0056967 0.00239298 0.0030348)
(0.00313068 0.000940195 0.0010081)
(0.00148639 -4.58665e-05 -0.00146764)
(0.000747972 -0.000527561 -0.00233926)
(-0.000448254 -0.000808754 -5.99491e-05)
(-0.00329526 0.000194849 0.00274906)
(-0.0065046 0.00230656 0.00475481)
(-0.00905563 0.00382538 0.00610081)
(-0.0104967 0.00324217 0.00696605)
(-0.00964444 -0.00217087 0.00759796)
(-0.00782248 -0.012409 0.0076086)
(-0.00641495 -0.0243122 0.00683765)
(-0.00234928 -0.0349519 0.00452648)
(0.00204019 -0.0334694 0.00126855)
(0.00565343 -0.0264177 0.00565343)
(0.0050995 -0.0162077 0.00763765)
(0.00554473 -0.00556125 0.00838013)
(0.0067888 0.00207679 0.00836003)
(0.00689154 0.00461208 0.00772103)
(0.00573 0.00444626 0.00680479)
(0.00395662 0.0038747 0.00565128)
(0.00219804 0.00347244 0.00418514)
(0.0012111 0.00314505 0.00261705)
(0.00137593 0.0028428 0.00226565)
(0.00150598 0.00243187 0.00356212)
(0.000486775 0.00222845 0.00503319)
(-0.0014694 0.00274311 0.0065829)
(-0.00302125 0.00295564 0.00795067)
(-0.0036482 0.0011043 0.0088733)
(-0.00339847 -0.00509905 0.00888782)
(-0.0032941 -0.01566 0.00806796)
(-0.00440046 -0.027909 0.00641639)
(-0.00147325 -0.0383516 0.00273851)
(0.00139388 -0.0351728 -0.000896055)
(0.00487431 -0.0280201 0.00487431)
(0.00249445 -0.0181319 0.00754835)
(0.0018923 -0.00815965 0.00878053)
(0.00124967 -0.000876291 0.00938735)
(0.00190066 0.00286951 0.00915777)
(0.00150333 0.00382905 0.00848479)
(0.000904863 0.00411713 0.00771247)
(0.000491969 0.00426171 0.00692333)
(0.000644682 0.00410294 0.00626082)
(0.00152835 0.0036306 0.00618443)
(0.00230201 0.00314114 0.00672416)
(0.00250766 0.00277137 0.00730742)
(0.00219499 0.00258001 0.00796773)
(0.00177396 0.00178036 0.00877444)
(0.00182246 -0.00116366 0.0092769)
(0.000753577 -0.00713476 0.00907211)
(-7.35459e-05 -0.0171147 0.00808867)
(-0.00303679 -0.0289686 0.00608209)
(-0.000706927 -0.0390568 0.00130201)
(0.000401162 -0.0351854 -0.00266336)
(0.00389986 -0.0275319 0.00389986)
(-1.81101e-05 -0.0184244 0.0066991)
(-0.000942798 -0.00988563 0.00791163)
(-0.00182426 -0.00405402 0.00845475)
(-0.00158255 -0.000500462 0.00869076)
(-0.00109472 0.00129589 0.00867805)
(-0.000724858 0.00200669 0.00844303)
(-0.000201447 0.00229448 0.0082152)
(0.000486324 0.00215096 0.00798431)
(0.00150243 0.0016426 0.00792157)
(0.00248403 0.00111418 0.00803075)
(0.00343321 0.000608523 0.00791711)
(0.00423869 -7.95731e-05 0.00782485)
(0.00477051 -0.00153293 0.00789029)
(0.00461566 -0.004312 0.00804207)
(0.00363116 -0.00949199 0.00789379)
(0.00263902 -0.0173297 0.00708834)
(-0.0016074 -0.0280068 0.005187)
(0.000304876 -0.0376595 -0.000207307)
(-0.00136794 -0.0320741 -0.00491856)
(0.00152658 -0.0244845 0.00152658)
(-0.00360522 -0.0171847 0.00396773)
(-0.00464966 -0.0113374 0.00461474)
(-0.00527097 -0.00673119 0.00459056)
(-0.00489795 -0.00344046 0.00458397)
(-0.00393012 -0.00131249 0.00449287)
(-0.00246929 0.000320896 0.00477505)
(-0.000945731 0.00178092 0.00541358)
(0.000409515 0.00244837 0.00585874)
(0.00179862 0.00132007 0.00513277)
(0.00343477 -0.000564202 0.00389335)
(0.00520844 -0.00196343 0.00322064)
(0.00673103 -0.00313839 0.00310604)
(0.00773223 -0.0045433 0.00344299)
(0.007967 -0.0069334 0.00393609)
(0.00728442 -0.0110698 0.00430037)
(0.00598856 -0.016801 0.00401179)
(0.00101639 -0.0247783 0.00267131)
(0.00209703 -0.0333877 -0.00244736)
(-0.00474662 -0.0244528 -0.00874618)
(-0.00454612 -0.0186465 -0.00454612)
(-0.00970478 -0.0144723 -0.0032258)
(-0.0111494 -0.0122595 -0.0034133)
(-0.0112837 -0.0110717 -0.00416059)
(-0.0100791 -0.010668 -0.00483303)
(-0.00803734 -0.0106227 -0.00532669)
(-0.00537898 -0.0106372 -0.00540119)
(-0.00242842 -0.0105054 -0.00486519)
(5.30306e-05 -0.0103261 -0.00370106)
(0.00276761 -0.0106395 -0.00478442)
(0.0053814 -0.0110943 -0.00587588)
(0.00815507 -0.0110574 -0.00628201)
(0.0106452 -0.01081 -0.00616131)
(0.0126228 -0.0106731 -0.00560095)
(0.0137912 -0.0109911 -0.00475494)
(0.0135994 -0.0120984 -0.00377021)
(0.0119309 -0.0143094 -0.00313891)
(0.00652198 -0.0186423 -0.00357291)
(0.00548195 -0.0249767 -0.00641995)
(-0.0108267 -0.0139625 -0.0154914)
(-0.0161837 -0.00860012 -0.0161837)
(-0.0222052 -0.00564534 -0.018736)
(-0.0240603 -0.00403696 -0.021633)
(-0.0239533 -0.00292776 -0.0245838)
(-0.0221171 -0.00199656 -0.0274175)
(-0.0188246 -0.000948044 -0.0298305)
(-0.0141966 0.000301873 -0.0315864)
(-0.0084331 0.00180517 -0.0324745)
(-0.00163837 0.00340253 -0.0319514)
(0.00684263 0.00230157 -0.0323127)
(0.0123553 0.000914276 -0.0323591)
(0.0175031 -0.000241629 -0.0311747)
(0.0215009 -0.00123258 -0.0291774)
(0.0243245 -0.00207331 -0.0266978)
(0.0258344 -0.0028769 -0.0238838)
(0.025719 -0.00390338 -0.0209228)
(0.0236374 -0.00548926 -0.0179099)
(0.0173909 -0.0085011 -0.0149744)
(0.0114321 -0.0140982 -0.0132471)
(0.000574234 0.00771453 -0.00308162)
(0.000183236 0.00421987 -0.00134903)
(-0.000410838 0.000982296 -0.000410835)
(-0.00132984 -0.00124932 -0.000698329)
(-0.00255203 -0.00242271 -0.00063623)
(-0.00311951 -0.00163178 -0.000194116)
(-0.00299502 2.11643e-05 6.95041e-05)
(-0.00292207 1.45751e-06 0.000333902)
(-0.00278585 -0.000396076 0.000543137)
(-0.00254943 -0.00064832 0.000870682)
(-0.0022913 -0.00070538 0.00125842)
(-0.00204439 -0.000607052 0.00157744)
(-0.00174998 -0.00051529 0.00171631)
(-0.00133386 -0.000758785 0.00168884)
(-0.000300027 -0.00188517 0.00176651)
(0.000145649 -0.00279098 0.00135192)
(-0.000386235 -0.0017894 0.00125626)
(-0.00153544 0.00184613 0.00218001)
(-0.00201584 0.00622504 0.00403269)
(-0.00190967 0.00904389 0.00581826)
(0.0054277 -0.00154142 0.0164977)
(0.0101968 0.000441704 0.0156796)
(0.012605 0.00263937 0.012605)
(0.0106296 0.00434628 0.00876705)
(0.00598565 0.00435065 0.00566261)
(0.0013208 0.00179006 0.00290077)
(-0.000685173 -0.00113014 -0.000127067)
(-0.000838039 -0.00131817 -0.00120959)
(-0.000748686 -0.00126361 -0.00169373)
(-0.000804473 -0.00144808 -0.00180972)
(-0.000983187 -0.00160641 -0.00152623)
(-0.000972461 -0.00181335 -0.000877689)
(-0.000653157 -0.00214358 0.000177055)
(-0.000485072 -0.00237264 0.00147686)
(-0.00121674 -0.00136013 0.00327104)
(-0.00583757 0.00272235 0.00593205)
(-0.0111255 0.00382033 0.00866072)
(-0.0133698 0.00154491 0.0120547)
(-0.0111664 -0.00267227 0.0146428)
(-0.00583974 -0.00700391 0.015398)
(0.00387575 -0.00956593 0.0119378)
(0.00873975 -0.00546563 0.0132618)
(0.0122831 0.000732094 0.0122831)
(0.0132356 0.00574356 0.00994801)
(0.0112206 0.00714091 0.00759133)
(0.00810403 0.00519183 0.00549473)
(0.0053848 0.0019618 0.0034759)
(0.00261035 -0.000673754 0.00101549)
(0.00130039 -0.00169576 -0.00133907)
(0.000547056 -0.00178816 -0.00267147)
(-0.000273331 -0.00201258 -0.00267817)
(-0.000891363 -0.0026893 -0.00111956)
(-0.00182731 -0.00273197 0.00146542)
(-0.00433387 -0.000724694 0.00419541)
(-0.00907697 0.00297678 0.00647112)
(-0.0124165 0.00499421 0.00817836)
(-0.0144262 0.00379487 0.00978117)
(-0.0133885 -0.00200794 0.0112653)
(-0.00972722 -0.00980408 0.0116394)
(-0.00414872 -0.0166451 0.00975426)
(0.0031072 -0.0164239 0.00451148)
(0.00767982 -0.0121609 0.0086934)
(0.0103174 -0.00537136 0.0103174)
(0.0127419 0.00267491 0.0100732)
(0.0130324 0.0067295 0.00883285)
(0.0114397 0.00640521 0.00736861)
(0.00905159 0.00406048 0.00572006)
(0.0063532 0.00177813 0.00369979)
(0.00382812 5.42653e-06 0.000950724)
(0.00190013 -0.000982409 -0.00194411)
(0.00044984 -0.00150222 -0.00278895)
(-0.00141832 -0.00187523 -0.000177968)
(-0.00445665 -0.000424562 0.00342947)
(-0.00799761 0.00232802 0.00612037)
(-0.0108833 0.00429653 0.00792004)
(-0.0128321 0.00415398 0.00917246)
(-0.0127981 4.24977e-05 0.00996747)
(-0.0105687 -0.00824593 0.00983705)
(-0.0080402 -0.0169814 0.00801856)
(-0.00304766 -0.0238437 0.00368577)
(0.00266851 -0.0212789 -0.00127015)
(0.00763765 -0.0162077 0.0050995)
(0.00873233 -0.00938682 0.00873233)
(0.00996207 -0.00127871 0.0101509)
(0.0109327 0.00471736 0.0100729)
(0.0103091 0.00629995 0.00916511)
(0.00848206 0.00527649 0.00780174)
(0.00608126 0.00366027 0.0060084)
(0.00371795 0.00227093 0.00360769)
(0.00203162 0.00120594 0.000743817)
(0.00132649 0.00058495 -0.000592187)
(0.000371953 0.000771458 0.00159903)
(-0.0022203 0.00192352 0.00497272)
(-0.00510495 0.0037415 0.00739198)
(-0.00742309 0.00488206 0.00918176)
(-0.00869863 0.00343032 0.0102828)
(-0.00851586 -0.00226743 0.0103415)
(-0.00774833 -0.0112607 0.00898987)
(-0.00718095 -0.0203783 0.00562561)
(-0.00226451 -0.0277428 -0.000620106)
(0.00173326 -0.0252811 -0.00494716)
(0.00754835 -0.0181319 0.00249445)
(0.00724225 -0.0110168 0.00724225)
(0.00729394 -0.00300972 0.00959359)
(0.00716595 0.00349919 0.0104233)
(0.00692418 0.00633032 0.00994052)
(0.00570963 0.00634961 0.00879739)
(0.00404223 0.00546493 0.00729009)
(0.00243136 0.00454666 0.00546551)
(0.00140468 0.00378151 0.00355415)
(0.00128095 0.00339649 0.00274373)
(0.00112116 0.00347803 0.00396614)
(-1.75442e-05 0.00417022 0.00589396)
(-0.00177707 0.00529649 0.00780454)
(-0.00328515 0.00565132 0.0094293)
(-0.00415309 0.00341358 0.0104066)
(-0.00494121 -0.0028438 0.0100643)
(-0.00526763 -0.0120511 0.00803516)
(-0.00646092 -0.0214488 0.00376567)
(-0.00121298 -0.0300826 -0.00353416)
(0.000154763 -0.0277279 -0.00767035)
(0.00669909 -0.0184244 -1.81096e-05)
(0.00516832 -0.0109457 0.00516832)
(0.00487483 -0.00350672 0.00793919)
(0.00405264 0.0019964 0.00907764)
(0.00365186 0.00495791 0.00882528)
(0.00315163 0.00546001 0.00800116)
(0.0024377 0.00485472 0.00698554)
(0.00171344 0.00407893 0.00588365)
(0.00118392 0.00344316 0.00480036)
(0.00118914 0.00304483 0.00429835)
(0.00128806 0.00301373 0.00490998)
(0.000989025 0.00349255 0.00576729)
(0.000407705 0.00429209 0.00675823)
(-0.000186946 0.00443554 0.00796197)
(-0.000887314 0.00222286 0.00898921)
(-0.00208585 -0.00315784 0.00860331)
(-0.00262915 -0.0114068 0.00620483)
(-0.00524282 -0.0208362 0.0015278)
(0.000310754 -0.0310368 -0.00581207)
(-0.00214725 -0.0273482 -0.0106157)
(0.00396773 -0.0171847 -0.00360522)
(0.00123327 -0.0095137 0.00123328)
(0.00100086 -0.00197434 0.00364551)
(0.000695842 0.0037505 0.00492101)
(0.000856096 0.00638239 0.00473184)
(0.000985885 0.00728984 0.00412554)
(0.00116268 0.0075472 0.00358784)
(0.00128341 0.00763238 0.00336969)
(0.001148 0.00758328 0.00325204)
(0.00111349 0.0072469 0.00258097)
(0.00143531 0.00700793 0.00213622)
(0.00182274 0.00681157 0.00215572)
(0.00206569 0.00659665 0.00263316)
(0.0022035 0.00594532 0.00357069)
(0.00229589 0.00378866 0.00448679)
(0.00184662 -0.00158547 0.00398336)
(0.00147414 -0.00940993 0.0021732)
(-0.00235427 -0.018466 -0.00213377)
(0.00253872 -0.0291725 -0.00847693)
(-0.00583498 -0.0221827 -0.0147569)
(-0.0032258 -0.0144723 -0.00970478)
(-0.0065018 -0.00902915 -0.0065018)
(-0.00625245 -0.00572726 -0.00529304)
(-0.00549382 -0.00356981 -0.00496223)
(-0.00340618 -0.00265123 -0.00403106)
(-0.00160102 -0.00286929 -0.00393661)
(-0.000256098 -0.00323291 -0.00425938)
(0.000745782 -0.00300407 -0.00418648)
(0.00112445 -0.00226099 -0.00390242)
(0.00161797 -0.00290978 -0.0046377)
(0.00231722 -0.00409115 -0.00541809)
(0.00339995 -0.00402592 -0.00577853)
(0.00485637 -0.00344417 -0.0058328)
(0.0065362 -0.00300012 -0.0055899)
(0.00826398 -0.003673 -0.00568954)
(0.00882151 -0.00569648 -0.00547112)
(0.00866627 -0.00898162 -0.00606312)
(0.00493817 -0.0147373 -0.00840982)
(0.00626445 -0.022733 -0.0123902)
(-0.0130677 -0.0121821 -0.0214845)
(-0.018736 -0.00564534 -0.0222052)
(-0.0248186 -0.00222238 -0.0248186)
(-0.0263344 -0.00028476 -0.027991)
(-0.0258595 0.00113184 -0.0312411)
(-0.0238105 0.00240299 -0.034535)
(-0.0204464 0.00386582 -0.0375988)
(-0.0157163 0.0055541 -0.0399169)
(-0.00961693 0.00753561 -0.0411524)
(-0.00201881 0.00967156 -0.040601)
(0.00783517 0.00830028 -0.0410985)
(0.0138246 0.00648201 -0.0410776)
(0.0190709 0.00488363 -0.0394153)
(0.0229261 0.00344038 -0.0366898)
(0.0256567 0.00222186 -0.0335266)
(0.027253 0.0011027 -0.0301872)
(0.0274449 -0.000209643 -0.0268805)
(0.0256994 -0.00212256 -0.0235918)
(0.0194512 -0.0056261 -0.0206397)
(0.0133432 -0.0122858 -0.0190572)
(-0.000282642 0.00279058 -0.00505697)
(-0.000711332 0.000593522 -0.00256079)
(-0.00069833 -0.00124932 -0.00132984)
(-0.00099488 -0.00276638 -0.000994878)
(-0.00145985 -0.00285161 -0.000612356)
(-0.00165313 -0.00106176 8.41854e-05)
(-0.00154913 0.000151288 0.000573277)
(-0.00179182 6.34299e-05 0.00104711)
(-0.00196279 -0.000395608 0.00136665)
(-0.0021842 -0.000620073 0.00189898)
(-0.00248707 -0.000587188 0.00236048)
(-0.00272467 -0.000404349 0.00261167)
(-0.00276632 -0.000286652 0.00260017)
(-0.00245882 -0.000537802 0.00242867)
(-0.00154973 -0.001536 0.00226861)
(-0.000699006 -0.00256467 0.00171935)
(-0.00058615 -0.00280802 0.00107425)
(-0.00108589 -0.000991746 0.00134278)
(-0.000942201 0.00218581 0.00220087)
(-0.000620819 0.00622151 0.00271704)
(0.00430703 0.00329378 0.0138134)
(0.00734817 0.00363043 0.0134363)
(0.00876705 0.00434628 0.0106296)
(0.00711284 0.00461085 0.00711284)
(0.00367199 0.00341691 0.004261)
(0.000813613 0.000570654 0.00201114)
(0.000212525 -0.00142395 4.67669e-05)
(0.00010842 -0.00131905 -0.000510818)
(7.82362e-06 -0.00131554 -0.000883501)
(-0.000563113 -0.00146314 -0.00087316)
(-0.00134944 -0.00148988 -0.000431572)
(-0.00178975 -0.00157665 0.000337975)
(-0.00156649 -0.00186748 0.00121124)
(-0.0010448 -0.00216824 0.00210867)
(-0.00105802 -0.00187966 0.00331763)
(-0.00340694 0.00118863 0.00564253)
(-0.00730558 0.0039123 0.0085802)
(-0.00950387 0.00346735 0.0124455)
(-0.00832958 0.00151539 0.0157133)
(-0.00480395 -0.000721145 0.0167871)
(0.00352975 0.00116877 0.0139668)
(0.00711105 0.00315396 0.0147788)
(0.00994801 0.00574356 0.0132356)
(0.0105376 0.00738049 0.0105376)
(0.00908374 0.00671828 0.00794538)
(0.00697692 0.00401069 0.00571313)
(0.00479649 0.000845513 0.00352855)
(0.00266374 -0.00133515 0.00125802)
(0.00172991 -0.00190799 -0.000614926)
(0.000730149 -0.00187656 -0.00173774)
(-0.000630834 -0.00199876 -0.00156473)
(-0.00156915 -0.00259559 0.000113808)
(-0.00226923 -0.0027951 0.0023411)
(-0.00386933 -0.00134077 0.00472648)
(-0.00766315 0.0020722 0.00726831)
(-0.010701 0.00458939 0.0095718)
(-0.0122415 0.00521579 0.0117083)
(-0.0115074 0.00291815 0.0137032)
(-0.00838105 -0.00172428 0.0141949)
(-0.00397488 -0.00625671 0.0121071)
(0.00356508 -0.00473503 0.00613338)
(0.00725033 -0.00138978 0.0107674)
(0.0100732 0.00267491 0.0127419)
(0.0120412 0.00637541 0.0120412)
(0.0121579 0.00744382 0.0103211)
(0.0107813 0.00584065 0.00838498)
(0.00858361 0.00324602 0.0063598)
(0.00614435 0.000922198 0.00411597)
(0.00381093 -0.000766933 0.00130459)
(0.00195629 -0.00138502 -0.0012452)
(0.000127182 -0.00168846 -0.00176122)
(-0.00198756 -0.00212715 0.000975957)
(-0.0047588 -0.000965956 0.00427625)
(-0.00818047 0.0018746 0.00709535)
(-0.0109906 0.00413201 0.00915481)
(-0.0129692 0.00474494 0.0108049)
(-0.0131851 0.00271371 0.0119431)
(-0.0112199 -0.00240105 0.0117528)
(-0.00829199 -0.00795897 0.00929858)
(-0.00352346 -0.0132078 0.0042689)
(0.0035417 -0.0118388 -0.00112811)
(0.00838013 -0.00556125 0.00554473)
(0.0101509 -0.00127871 0.00996208)
(0.0116697 0.0034904 0.0116697)
(0.0123169 0.00642248 0.0113653)
(0.011511 0.00650529 0.0101397)
(0.00959026 0.00487098 0.00846139)
(0.00714665 0.00284326 0.00637493)
(0.0047056 0.00108151 0.00364745)
(0.00268176 -0.000184469 0.000472029)
(0.00107972 -0.000827062 -0.000981389)
(-0.00136174 -0.000594134 0.00196767)
(-0.00439316 0.00122969 0.00566628)
(-0.00741053 0.00355146 0.0082157)
(-0.00984165 0.00514158 0.01002)
(-0.0112659 0.00448839 0.0111325)
(-0.0111754 0.000699976 0.0111913)
(-0.00982204 -0.00525861 0.00945487)
(-0.00826429 -0.0111976 0.00527409)
(-0.00277767 -0.0185565 -0.00153149)
(0.00213805 -0.0181136 -0.0058866)
(0.00878053 -0.00815965 0.0018923)
(0.00959359 -0.00300972 0.00729394)
(0.0102093 0.00201117 0.0102093)
(0.0103981 0.00586616 0.0111341)
(0.00987383 0.00718218 0.0106562)
(0.00840756 0.00646787 0.00942255)
(0.00638427 0.00498262 0.00768252)
(0.00423284 0.00348194 0.0054059)
(0.00238093 0.00230371 0.00277241)
(0.00112146 0.00175409 0.00137085)
(-0.000445259 0.00214832 0.00335427)
(-0.00281188 0.00364202 0.00626853)
(-0.00516028 0.00548804 0.00847923)
(-0.00700364 0.00648029 0.0100585)
(-0.00804183 0.00508489 0.0108264)
(-0.00830202 0.000513761 0.0101973)
(-0.00791882 -0.00596529 0.00763659)
(-0.00779148 -0.0126711 0.00256529)
(-0.00129127 -0.0232438 -0.00507571)
(-0.000105837 -0.0228544 -0.00929256)
(0.00791163 -0.00988563 -0.000942798)
(0.00793919 -0.00350672 0.00487483)
(0.00811601 0.00141577 0.00811601)
(0.00779716 0.0051535 0.00958163)
(0.00742081 0.00677099 0.00967714)
(0.00664885 0.00639381 0.0090043)
(0.00545574 0.00506699 0.00792713)
(0.00396083 0.00362699 0.00653155)
(0.00232951 0.00250768 0.0049008)
(0.000962506 0.00190633 0.00391575)
(-0.000370257 0.00220714 0.0048909)
(-0.00196148 0.00359226 0.00643647)
(-0.00330962 0.00532134 0.00777741)
(-0.00424261 0.00628832 0.00894087)
(-0.00481326 0.00493672 0.00952769)
(-0.00540578 0.000675253 0.00869133)
(-0.00539327 -0.00541396 0.00576087)
(-0.00645824 -0.0129967 3.80149e-05)
(0.000754834 -0.0263143 -0.00777081)
(-0.00297864 -0.0247538 -0.0127025)
(0.00461474 -0.0113374 -0.00464966)
(0.0036455 -0.00197434 0.00100086)
(0.00449854 0.00422674 0.00449854)
(0.00439192 0.00725875 0.00617285)
(0.00456873 0.00850665 0.00647633)
(0.00461998 0.00856221 0.00618136)
(0.0043897 0.00824161 0.00572827)
(0.00373695 0.007955 0.00529734)
(0.00238284 0.00773955 0.00478103)
(0.000750933 0.0072528 0.00398528)
(-0.000355201 0.00714075 0.00387398)
(-0.00103821 0.00732276 0.00428802)
(-0.00146378 0.00775222 0.00491821)
(-0.00153511 0.00807748 0.00572795)
(-0.00134428 0.00716015 0.00621482)
(-0.0016348 0.00389699 0.00529172)
(-0.000765238 -0.00314523 0.0020259)
(-0.00299832 -0.0128447 -0.00357828)
(0.00339521 -0.0265412 -0.0107214)
(-0.00704862 -0.0214152 -0.0169354)
(-0.00341329 -0.0122595 -0.0111494)
(-0.00529305 -0.00572727 -0.00625245)
(-0.0028174 -0.00155068 -0.0028174)
(-0.00214242 0.000778467 -0.00224103)
(-0.000490972 0.000930928 -0.00225834)
(0.00104905 1.10401e-05 -0.00272513)
(0.00198779 -0.000858829 -0.00322256)
(0.00237542 -0.000945333 -0.00338645)
(0.00184381 -0.000126799 -0.00327248)
(0.00125154 -0.000587925 -0.00436286)
(0.00121272 -0.00169945 -0.00505212)
(0.00153382 -0.00141679 -0.00494966)
(0.00222058 -0.000512906 -0.00428974)
(0.00336367 0.000525495 -0.00333703)
(0.00473617 0.000641386 -0.00263046)
(0.0055111 -0.00166016 -0.00289532)
(0.00727933 -0.00570685 -0.00563654)
(0.00493951 -0.0124277 -0.00980401)
(0.0073978 -0.0217992 -0.0146223)
(-0.0152421 -0.0114934 -0.0235016)
(-0.021633 -0.00403696 -0.0240603)
(-0.027991 -0.00028476 -0.0263344)
(-0.0291118 0.00186851 -0.0291118)
(-0.0281036 0.00348062 -0.0320558)
(-0.0259835 0.00497449 -0.0356066)
(-0.0227766 0.00674525 -0.0394203)
(-0.0181366 0.00888506 -0.0428763)
(-0.0116176 0.0114065 -0.0452144)
(-0.00276047 0.0142428 -0.0454753)
(0.00925243 0.0123924 -0.0455776)
(0.0159322 0.0100034 -0.0446433)
(0.0212774 0.00788915 -0.0418932)
(0.0249319 0.00606713 -0.0382499)
(0.0273752 0.00455935 -0.0343621)
(0.0289553 0.00327086 -0.0307119)
(0.0296242 0.00182012 -0.0276823)
(0.0282727 -0.000256254 -0.0248055)
(0.0218826 -0.00402142 -0.0222788)
(0.0152755 -0.0114963 -0.0209956)
(-0.000390602 -0.000685889 -0.00669776)
(-0.000737538 -0.00150792 -0.00417551)
(-0.000636232 -0.00242271 -0.00255203)
(-0.000612358 -0.00285162 -0.00145985)
(-0.000546632 -0.00169895 -0.00054663)
(-0.000430745 -0.000329353 0.000411964)
(-0.000309778 0.000293935 0.00119198)
(-0.000759119 3.13601e-05 0.00199084)
(-0.00110698 -0.000421797 0.00253301)
(-0.0019 -0.0006155 0.00349376)
(-0.00289094 -0.000487625 0.00389202)