/*--------------------------------*- C++ -*----------------------------------*\
| =========                 |                                                 |
| \\      /  F ield         | OpenFOAM: The Open Source CFD Toolbox           |
|  \\    /   O peration     | Version:  v2012                                 |
|   \\  /    A nd           | Website:  www.openfoam.com                      |
|    \\/     M anipulation  |                                                 |
\*---------------------------------------------------------------------------*/
FoamFile
{
    version     2.0;
    format      ascii;
    class       volVectorField;
    location    "1200/bottomAir";
    object      U;
}
// * * * * * * * * * * * * * * * * * * * * * * * * * * * * * * * * * * * * * //

dimensions      [0 1 -1 0 0 0 0];


internalField   nonuniform List<vector> 
1460
(
(0.003831232 -0.00577413 0.0005946963)
(0.01034627 -0.005015448 0.001114521)
(0.01509892 -0.002935217 0.001311453)
(0.01713607 -0.001096332 0.001251903)
(0.01716893 0.0001394707 0.001050975)
(0.0160951 0.0007504289 0.0008127297)
(0.01463906 0.0009141564 0.0005932822)
(0.01322044 0.0008598303 0.0004091726)
(0.01198352 0.0007382868 0.0002692721)
(0.0109175 0.0006106803 0.0001814286)
(0.009938478 0.0004901841 0.0001523606)
(0.008924942 0.0003786673 0.0001898544)
(0.007744852 0.0002944381 0.0002845592)
(0.006225493 0.0003086767 0.0003987978)
(0.004172878 0.0005223386 0.0003706112)
(0.001646985 0.0009948309 0.000121516)
(-0.001410724 0.001290653 -6.410937e-05)
(-0.003751734 0.001027939 7.667944e-05)
(-0.00568639 0.0008039103 9.645131e-05)
(-0.007167462 0.0006939476 0.000127629)
(-0.00844538 0.0006731159 0.0001834581)
(-0.00967508 0.0007124355 0.0002794473)
(-0.01097292 0.0007763595 0.0004171995)
(-0.01236494 0.0007895457 0.0005933058)
(-0.01371324 0.0005959664 0.0008021103)
(-0.01462608 8.221993e-07 0.001022694)
(-0.01450858 -0.00109973 0.00119056)
(-0.01262759 -0.002653897 0.001217634)
(-0.008478913 -0.004298973 0.001020488)
(-0.002974742 -0.004572198 0.0005612755)
(0.002691113 -0.01376087 -1.56856e-05)
(0.007379182 -0.0126439 0.0006233838)
(0.01066156 -0.008384605 0.001145641)
(0.01218629 -0.004458386 0.001383528)
(0.01246872 -0.001643933 0.00140319)
(0.0122694 9.091492e-05 0.001284129)
(0.01168062 0.0008986337 0.001141373)
(0.01093134 0.001120663 0.001056162)
(0.01005537 0.001116033 0.001042544)
(0.008974826 0.001108319 0.00109359)
(0.007646768 0.0011943 0.001185112)
(0.006059343 0.001381398 0.001275992)
(0.004266638 0.001626493 0.001296588)
(0.002336275 0.001943976 0.001206104)
(0.000446857 0.002429012 0.0008518818)
(-0.0009792065 0.003114601 0.0005240705)
(-0.002023108 0.003274686 0.0006257732)
(-0.003160947 0.002759447 0.0009373791)
(-0.00453683 0.002207602 0.001084785)
(-0.005885344 0.0017655 0.001124332)
(-0.007118692 0.001476084 0.001115003)
(-0.008191813 0.001300418 0.001111151)
(-0.0091168 0.001128054 0.00114661)
(-0.009930413 0.0007328616 0.001234739)
(-0.01048459 -0.0001892108 0.001369211)
(-0.0107378 -0.001868843 0.001443333)
(-0.01047165 -0.004402276 0.001370994)
(-0.009106319 -0.007749508 0.001103192)
(-0.006218549 -0.01115301 0.000608556)
(-0.002201298 -0.01138824 7.212553e-05)
(0.0008107762 -0.0178411 -0.0005505491)
(0.001148138 -0.0161485 0.0001354041)
(0.0005246453 -0.01062235 0.0009493205)
(-0.0005470305 -0.005641162 0.0015038)
(-0.001587449 -0.002568997 0.001754635)
(-0.00239739 -0.0008411588 0.001848352)
(-0.002785604 5.618621e-05 0.001843444)
(-0.003199055 0.0005247413 0.001895829)
(-0.003760426 0.0007956844 0.00204258)
(-0.004438251 0.0009238428 0.002182358)
(-0.005081715 0.0008873072 0.002241656)
(-0.005501111 0.0006895668 0.002183219)
(-0.005466374 0.0004237446 0.001971465)
(-0.004859904 0.0003126786 0.001672626)
(-0.003681282 0.0005382013 0.001287851)
(-0.002045448 0.001019144 0.001064374)
(-0.0001844163 0.001088607 0.00119995)
(0.001414688 0.0008387135 0.001534325)
(0.002358295 0.0007572005 0.001788828)
(0.002826721 0.0006831956 0.001909231)
(0.002964399 0.0005766689 0.001927095)
(0.002917395 0.0004045286 0.001882941)
(0.002776634 0.000125923 0.001840677)
(0.002612723 -0.0003639141 0.001843242)
(0.002177985 -0.001281228 0.001805953)
(0.00141083 -0.002930203 0.001664964)
(0.0004250625 -0.005695942 0.001394779)
(-0.0005674486 -0.009875505 0.0008634209)
(-0.001056126 -0.01428397 0.0001339315)
(-0.0007588047 -0.01491633 -0.0004045223)
(-0.001751587 -0.01516042 -0.001275539)
(-0.006186382 -0.01262534 -0.0006362115)
(-0.01046105 -0.008246494 0.0001940657)
(-0.01343146 -0.005366942 0.0007279999)
(-0.01527718 -0.003906037 0.001003456)
(-0.01639212 -0.003308602 0.001134917)
(-0.01703001 -0.003202598 0.001156151)
(-0.01729379 -0.003396029 0.001065251)
(-0.01718071 -0.003850672 0.0008535955)
(-0.0166473 -0.004527739 0.0005107176)
(-0.01563093 -0.005351958 2.969692e-05)
(-0.01405843 -0.006198684 -0.0005741478)
(-0.011816 -0.00687138 -0.00125809)
(-0.008886625 -0.007073757 -0.0018463)
(-0.005342649 -0.006746519 -0.00241651)
(-0.001027838 -0.006434113 -0.002625001)
(0.003433029 -0.006827975 -0.002169333)
(0.006843503 -0.006960332 -0.001605167)
(0.009602166 -0.006519033 -0.0009119781)
(0.01160777 -0.005813341 -0.0002876003)
(0.01300285 -0.005062159 0.000206308)
(0.0138762 -0.004400011 0.0005599305)
(0.01429799 -0.003912575 0.0007776245)
(0.01431527 -0.003637988 0.0008808087)
(0.01391789 -0.003659691 0.0008832425)
(0.01300593 -0.00415575 0.0007847364)
(0.01137154 -0.005419611 0.0005496386)
(0.008735413 -0.007848181 8.305979e-05)
(0.005092979 -0.01135918 -0.0006254554)
(0.001300374 -0.01283085 -0.00107755)
(-0.004699757 -0.007177933 -0.002202647)
(-0.01153902 -0.005353243 -0.001979718)
(-0.01643135 -0.003585407 -0.001523616)
(-0.01925311 -0.002691263 -0.00134795)
(-0.02095064 -0.00234566 -0.001416244)
(-0.0219681 -0.002292256 -0.001667505)
(-0.02252538 -0.002396882 -0.002093605)
(-0.02267395 -0.00258313 -0.002703432)
(-0.02239061 -0.002808512 -0.003512523)
(-0.02160623 -0.003035073 -0.004536853)
(-0.02020284 -0.003214618 -0.00577388)
(-0.01801614 -0.00328701 -0.007182705)
(-0.0148404 -0.0031834 -0.008643197)
(-0.01076404 -0.002836485 -0.009782242)
(-0.006060595 -0.002098702 -0.01096145)
(0.0004064276 -0.001527465 -0.0114692)
(0.006013887 -0.002294892 -0.01035051)
(0.01054402 -0.002822771 -0.009313508)
(0.01424509 -0.003133473 -0.00778424)
(0.01677841 -0.003208738 -0.006291915)
(0.01840358 -0.003117151 -0.004986528)
(0.01933563 -0.002932748 -0.003904299)
(0.01972493 -0.002717443 -0.003041054)
(0.01966386 -0.002521894 -0.002377064)
(0.01918737 -0.002398704 -0.001896378)
(0.01824739 -0.00241781 -0.001587949)
(0.01665281 -0.002691069 -0.001456675)
(0.01403413 -0.003421953 -0.001552079)
(0.009671217 -0.004826816 -0.001887894)
(0.003727085 -0.006025611 -0.001935342)
(0.004278963 -0.005868115 0.001368261)
(0.01141984 -0.004525615 0.00194753)
(0.01675923 -0.002267814 0.002118911)
(0.0194006 -0.0005056919 0.00198523)
(0.02009892 0.0005941559 0.001700624)
(0.01965177 0.001080066 0.001395667)
(0.01874591 0.001160145 0.001118801)
(0.01774339 0.00104311 0.00089107)
(0.01679315 0.0008497535 0.0007320502)
(0.01591181 0.0006246264 0.0006722783)
(0.01504371 0.0003687764 0.0007534193)
(0.0140622 7.28393e-05 0.001047009)
(0.01276995 -0.000232184 0.001607248)
(0.01075955 -0.0003709479 0.002488428)
(0.007553703 -0.0001247417 0.003249268)
(0.002810377 0.000766799 0.003345198)
(-0.003651602 0.001190493 0.002399809)
(-0.007216112 0.000707526 0.001809871)
(-0.009765203 0.0005413671 0.001229909)
(-0.01141423 0.0005710108 0.0009218247)
(-0.01270583 0.0006759363 0.0008217997)
(-0.01383843 0.0008062076 0.0008774007)
(-0.01493111 0.0009309611 0.00104539)
(-0.01599116 0.0009905828 0.001293123)
(-0.01688484 0.0008652723 0.001595716)
(-0.01727478 0.0003678049 0.001919217)
(-0.01659719 -0.0006618936 0.00218985)
(-0.01418288 -0.002216308 0.002281289)
(-0.009477059 -0.004079236 0.00207344)
(-0.003385475 -0.004806221 0.001483813)
(0.002726946 -0.01418694 0.0007067868)
(0.007902717 -0.01202307 0.001659384)
(0.01193076 -0.007348384 0.002300241)
(0.01436715 -0.003589485 0.002508576)
(0.01568264 -0.001047838 0.002437524)
(0.01631713 0.0004294138 0.002233878)
(0.01639703 0.001018551 0.002092522)
(0.01625376 0.001079368 0.002068542)
(0.01586778 0.0009379576 0.002175351)
(0.01513733 0.0007757751 0.002422363)
(0.01395342 0.0006824988 0.002791877)
(0.01218864 0.0006899522 0.003251998)
(0.009798991 0.00082523 0.003653502)
(0.006648606 0.00132114 0.00402246)
(0.002925663 0.00248996 0.003720459)
(-0.001274457 0.004226941 0.002879594)
(-0.004658359 0.003893069 0.002795626)
(-0.007221582 0.002575713 0.003080793)
(-0.009499112 0.001825814 0.003032272)
(-0.01123268 0.001426544 0.002813453)
(-0.0125054 0.001258177 0.002583335)
(-0.0133764 0.001211013 0.002417444)
(-0.01392777 0.001166155 0.002352928)
(-0.01422442 0.0009142154 0.00239538)
(-0.01425458 0.0001506554 0.002539457)
(-0.01364184 -0.00135429 0.002702405)
(-0.01245877 -0.003725124 0.002683417)
(-0.0102762 -0.007063434 0.002377137)
(-0.006728464 -0.01095722 0.001699851)
(-0.002308661 -0.01202776 0.0008410104)
(0.000222892 -0.0185389 -5.718773e-05)
(0.0003128611 -0.01547094 0.001252517)
(0.0001118233 -0.009168293 0.002507856)
(4.789676e-05 -0.004357285 0.003317941)
(9.888389e-05 -0.001324891 0.003748286)
(0.0004671776 0.0003537899 0.003874858)
(0.001053418 0.001186401 0.003928055)
(0.001034914 0.001626927 0.004241032)
(0.0007726558 0.00196822 0.00477702)
(0.0002052091 0.002322858 0.005433899)
(-0.0005981708 0.002640663 0.006066477)
(-0.001589551 0.002798664 0.006458099)
(-0.002477396 0.002881338 0.006221532)
(-0.00306523 0.003319256 0.005549086)
(-0.003168657 0.004286021 0.004289352)
(-0.002914795 0.005223599 0.003471515)
(-0.002320658 0.004609179 0.004034832)
(-0.00168789 0.003545793 0.004991772)
(-0.001574351 0.003092289 0.00541478)
(-0.001615616 0.002736591 0.005252607)
(-0.001631728 0.002369755 0.004884562)
(-0.001554878 0.001991791 0.004475606)
(-0.001359549 0.001581868 0.004139162)
(-0.0008900675 0.001026105 0.003952225)
(-0.0002166241 7.341589e-05 0.003904758)
(-1.825036e-05 -0.00167748 0.003674994)
(-1.867333e-05 -0.00451469 0.003166453)
(-0.0001736375 -0.008770308 0.002301054)
(-0.0003566087 -0.01403248 0.00108405)
(-0.000356207 -0.01580851 6.242444e-06)
(-0.003221199 -0.01553665 -0.0009608855)
(-0.008834763 -0.01159831 0.0003587926)
(-0.01338437 -0.006776137 0.001633483)
(-0.01597072 -0.003904218 0.002514108)
(-0.01727174 -0.002476326 0.003069104)
(-0.01776693 -0.001852545 0.003425273)
(-0.01780652 -0.001609855 0.00362555)
(-0.01748676 -0.001577422 0.003709646)
(-0.0169995 -0.001758459 0.003654674)
(-0.0162889 -0.002069572 0.003374925)
(-0.01528484 -0.002400353 0.002778403)
(-0.01386756 -0.002563991 0.001786534)
(-0.01166451 -0.002158382 0.0003209397)
(-0.008851343 -0.0009152465 -0.001172684)
(-0.00557864 0.001248703 -0.003079571)
(-0.002059697 0.002498009 -0.003681769)
(0.00209549 0.0002532933 -0.002018824)
(0.005574313 -0.001889389 -0.0003373394)
(0.008470302 -0.002787959 0.0009285414)
(0.01059172 -0.00289326 0.001751168)
(0.01220162 -0.00265539 0.002299274)
(0.01342579 -0.002358902 0.002626152)
(0.01435977 -0.002160323 0.002779914)
(0.01492879 -0.002104846 0.002811852)
(0.01514125 -0.002241213 0.002709811)
(0.01483703 -0.002785722 0.002434929)
(0.01371691 -0.004087913 0.001952528)
(0.01140127 -0.00663402 0.00115851)
(0.007418431 -0.01070887 1.918257e-05)
(0.002474523 -0.0134298 -0.0009804561)
(-0.00689547 -0.007155977 -0.002375668)
(-0.01521466 -0.004527115 -0.002204859)
(-0.02078222 -0.002573529 -0.002086002)
(-0.02368388 -0.001612265 -0.00227005)
(-0.02526468 -0.001146272 -0.002719221)
(-0.02607218 -0.0009098709 -0.003414205)
(-0.02639528 -0.000750586 -0.004382619)
(-0.02632084 -0.0005692908 -0.005664353)
(-0.02585943 -0.0003081891 -0.007310685)
(-0.02495359 7.348139e-05 -0.009374683)
(-0.02347265 0.0006251662 -0.01187691)
(-0.02120326 0.001376156 -0.01476154)
(-0.01768063 0.002312757 -0.01771513)
(-0.01318299 0.003406934 -0.01948017)
(-0.007705775 0.005102339 -0.02142064)
(0.0009370842 0.006355049 -0.02215669)
(0.008233768 0.004619934 -0.02064303)
(0.01365239 0.003258876 -0.01917792)
(0.01771189 0.00195512 -0.01609643)
(0.02027346 0.000926691 -0.01305264)
(0.02190086 0.0001904291 -0.01042053)
(0.02288024 -0.0003050711 -0.008247079)
(0.02337342 -0.0006231198 -0.006496182)
(0.02345466 -0.0008353112 -0.005105951)
(0.02313682 -0.001014546 -0.004031554)
(0.02234135 -0.001256215 -0.003237452)
(0.02080913 -0.001690287 -0.002694709)
(0.01806152 -0.002542497 -0.002416023)
(0.01299831 -0.004196906 -0.002419041)
(0.00558603 -0.006159602 -0.00236277)
(0.004262043 -0.005267105 0.0008661501)
(0.01143639 -0.003830033 0.001144233)
(0.01677131 -0.00168729 0.001140597)
(0.01949631 -9.824731e-05 0.001002495)
(0.0203479 0.0008172642 0.0008282408)
(0.02015925 0.001172333 0.0006886457)
(0.01954911 0.001181293 0.0006093295)
(0.01884226 0.001022466 0.0006162417)
(0.01818813 0.0007846502 0.0007467179)
(0.0176319 0.0004883193 0.001075399)
(0.01717555 0.0001091629 0.00172977)
(0.01671871 -0.0003360385 0.002965018)
(0.01606585 -0.0006978632 0.005072174)
(0.01437359 -0.0003302007 0.007947057)
(0.01053186 0.0008502867 0.01036415)
(0.002942039 0.002664734 0.01116045)
(-0.006569635 0.001918263 0.008576769)
(-0.01029777 0.000276358 0.005815419)
(-0.01249572 7.234901e-06 0.003454024)
(-0.01359236 0.0001998048 0.002105041)
(-0.01443119 0.0004627351 0.001392263)
(-0.01518754 0.0006937663 0.001063576)
(-0.0159412 0.0008831423 0.0009757622)
(-0.01667569 0.001001642 0.001047326)
(-0.01726647 0.0009664095 0.001229316)
(-0.01742464 0.0006195011 0.001476828)
(-0.0166136 -0.0002181304 0.001732247)
(-0.01415516 -0.00160039 0.001893275)
(-0.009484996 -0.003361669 0.001853537)
(-0.003369331 -0.004224463 0.001416932)
(0.002805843 -0.01330961 0.0008489894)
(0.008313327 -0.01097578 0.001361977)
(0.01269124 -0.006422789 0.001643425)
(0.01549424 -0.002902005 0.001731416)
(0.01720055 -0.000620847 0.001691665)
(0.018102 0.0005767689 0.001649506)
(0.01852889 0.0009704729 0.001707068)
(0.01874969 0.0009108031 0.001893129)
(0.01875585 0.0006580997 0.002235382)
(0.01845315 0.0003694018 0.002777712)
(0.01773305 0.0001440311 0.003547729)
(0.01636902 0.0001456567 0.004583118)
(0.01443182 0.0007559857 0.005693174)
(0.01141748 0.003008428 0.006627369)
(0.006827077 0.006787225 0.006278877)
(-0.0004409663 0.01033442 0.005446401)
(-0.007085189 0.007359092 0.00530279)
(-0.01048923 0.003012416 0.005144747)
(-0.01308706 0.001338672 0.004396384)
(-0.01471355 0.0008339165 0.003609322)
(-0.01568379 0.0007848344 0.002973023)
(-0.01619876 0.0008798387 0.002508634)
(-0.01638473 0.0009739863 0.002217989)
(-0.01632271 0.000895386 0.002078337)
(-0.01600824 0.0004010417 0.002066832)
(-0.01516374 -0.0007897846 0.002139228)
(-0.01359301 -0.002889517 0.002149778)
(-0.01104027 -0.006004064 0.001987779)
(-0.007149624 -0.00980736 0.001627138)
(-0.002391521 -0.01112152 0.001058727)
(0.0003818689 -0.01786145 0.0008759284)
(0.001041587 -0.01460145 0.001633769)
(0.001519989 -0.008364368 0.002436094)
(0.00213776 -0.003774718 0.003100439)
(0.002785014 -0.0009279828 0.003523062)
(0.003795146 0.0006275933 0.003718534)
(0.004393097 0.00132651 0.003988697)
(0.004722838 0.001629668 0.004524609)
(0.004798015 0.001900809 0.00527491)
(0.004565122 0.002281552 0.006201724)
(0.004051956 0.002815804 0.007148776)
(0.003012333 0.003587671 0.007808831)
(0.002203458 0.005100465 0.006895769)
(0.001612377 0.008236729 0.004702582)
(0.000439655 0.01272342 0.001406904)
(-0.002175165 0.01553837 0.0001633364)
(-0.004133602 0.01162419 0.00217337)
(-0.004409329 0.006523611 0.004791385)
(-0.005003153 0.004100654 0.006001804)
(-0.005441481 0.003044313 0.005882968)
(-0.005481336 0.002507815 0.005353756)
(-0.005295793 0.002145354 0.004748046)
(-0.00491258 0.001848522 0.00422409)
(-0.004357955 0.001455837 0.003869762)
(-0.003619683 0.0006384235 0.00372464)
(-0.002703139 -0.0009811508 0.003495175)
(-0.002086169 -0.003682108 0.002987675)
(-0.001542299 -0.007786842 0.002251231)
(-0.001069327 -0.01304412 0.001420533)
(-0.0005073781 -0.01510167 0.0007405385)
(-0.002975715 -0.01534238 0.0007329567)
(-0.007996706 -0.01122241 0.001449358)
(-0.01192815 -0.006177635 0.002328324)
(-0.01391078 -0.003161753 0.003077036)
(-0.01465018 -0.001631549 0.003604888)
(-0.01460656 -0.0008857337 0.003951815)
(-0.01403189 -0.0004908833 0.004160611)
(-0.01344485 -0.000320027 0.00422144)
(-0.01284723 -0.0002502205 0.004037905)
(-0.01220951 -0.0001014557 0.003425459)
(-0.0114775 0.0004414152 0.002100308)
(-0.01056472 0.001841325 -0.0002643746)
(-0.008630496 0.004691084 -0.003974072)
(-0.00631186 0.008536496 -0.006668006)
(-0.003663379 0.01351164 -0.009642922)
(-0.001136885 0.01629867 -0.010505)
(0.001744174 0.01164069 -0.008209675)
(0.004898441 0.006031878 -0.005513814)
(0.006780914 0.00214753 -0.002063866)
(0.007867914 0.0001366442 0.0002283852)
(0.008843854 -0.0005765105 0.001693265)
(0.009728888 -0.0007354541 0.002526871)
(0.01061617 -0.000755109 0.002916858)
(0.01148875 -0.000846497 0.003031164)
(0.01224446 -0.001150916 0.00297831)
(0.01244026 -0.001820608 0.002746522)
(0.01185861 -0.003231252 0.002302533)
(0.01011475 -0.005937555 0.001633156)
(0.006700354 -0.01025314 0.0008440081)
(0.002280985 -0.01322645 0.0003008992)
(-0.006917556 -0.007119648 -0.000358454)
(-0.01524306 -0.004184212 -0.0008491911)
(-0.02078941 -0.002016096 -0.001352509)
(-0.02368918 -0.0009045809 -0.001980572)
(-0.02532765 -0.0002905202 -0.002776078)
(-0.02628077 0.0001290179 -0.003783653)
(-0.02685085 0.0005353915 -0.005070115)
(-0.0271338 0.0010223 -0.006694639)
(-0.02715581 0.001644616 -0.008747284)
(-0.0268522 0.002491769 -0.01133797)
(-0.02601394 0.003656039 -0.01454407)
(-0.02420915 0.005183801 -0.01836297)
(-0.02015992 0.00703919 -0.0221521)
(-0.01540275 0.008987026 -0.02291701)
(-0.009269171 0.01245663 -0.02552576)
(0.001823877 0.01497216 -0.02653796)
(0.01088172 0.01129513 -0.02463842)
(0.01731231 0.008518288 -0.02396654)
(0.021959 0.006089585 -0.02012416)
(0.02402804 0.004226497 -0.01623024)
(0.02490369 0.002834755 -0.01289701)
(0.02515811 0.001816381 -0.01015812)
(0.02502895 0.001060417 -0.007927234)
(0.02460686 0.0004846557 -0.006111835)
(0.02392048 3.055455e-05 -0.004672138)
(0.02287343 -0.0004083504 -0.003552083)
(0.02119264 -0.0009994995 -0.002680638)
(0.01836249 -0.002008924 -0.002009978)
(0.01322727 -0.003878345 -0.001491894)
(0.005704275 -0.006154049 -0.0009120655)
(0.004251828 -0.005440063 -4.601829e-05)
(0.01142395 -0.004115547 -4.19445e-05)
(0.0167993 -0.002007412 -7.754855e-05)
(0.0195943 -0.0004129398 -9.622966e-05)
(0.02054682 0.00055631 -8.112882e-05)
(0.0204797 0.0009728958 -1.271463e-05)
(0.02002741 0.001030355 9.47619e-05)
(0.01954833 0.0008992719 0.0002506494)
(0.01925325 0.000656412 0.0004868132)
(0.01929329 0.0003043788 0.0008736138)
(0.01987368 -0.0001785554 0.001522819)
(0.02107843 -0.0005305118 0.002692387)
(0.02213301 0.0005590128 0.004158142)
(0.01998847 0.005628183 0.006183192)
(0.01404716 0.01167134 0.009133186)
(8.008085e-05 0.01569966 0.010676)
(-0.01265815 0.009431321 0.007969284)
(-0.01660913 0.001617841 0.006404647)
(-0.01722987 -0.0003212396 0.004057297)
(-0.01652767 -0.0001996671 0.002362214)
(-0.01623059 0.0002189474 0.001450672)
(-0.01629286 0.0005504372 0.0009611299)
(-0.01660289 0.0007856539 0.0007261808)
(-0.0170336 0.0009252878 0.000642469)
(-0.01740936 0.0009124072 0.0006547792)
(-0.0174267 0.0006034977 0.0007242517)
(-0.01654654 -0.0001815225 0.0008227717)
(-0.01406304 -0.001504351 0.0008997386)
(-0.009417074 -0.00321163 0.0009031568)
(-0.003323873 -0.004062721 0.0006978698)
(0.002892378 -0.01348784 0.0004942436)
(0.008537662 -0.01133317 0.0007552049)
(0.01300681 -0.006864615 0.0008729772)
(0.01590358 -0.003365972 0.0009315542)
(0.01768607 -0.001107642 0.0009722134)
(0.01885534 0.0001021658 0.001040108)
(0.0195555 0.0005464626 0.001185829)
(0.02011981 0.0005316694 0.001395524)
(0.0205864 0.000284325 0.001688098)
(0.02089921 -4.608605e-05 0.002068583)
(0.02100616 -0.0002791065 0.002414641)
(0.02057592 0.0004481876 0.002625652)
(0.01917419 0.005343721 0.00120367)
(0.01527225 0.01660377 0.00346726)
(0.009638529 0.02814849 0.005832762)
(-8.51498e-05 0.03422931 0.006962946)
(-0.009005127 0.0236073 0.004754628)
(-0.01380616 0.007825095 0.002798636)
(-0.01682718 0.001666451 0.003481651)
(-0.01793464 0.0003613044 0.002973914)
(-0.01827556 0.0003360707 0.00247105)
(-0.01825874 0.0005179244 0.002015862)
(-0.01801294 0.0006703665 0.001694111)
(-0.01760549 0.0006429402 0.001493191)
(-0.01701039 0.0002350317 0.001393708)
(-0.01595577 -0.0008326511 0.001368639)
(-0.01423204 -0.002820609 0.001338238)
(-0.01151345 -0.005851849 0.001244538)
(-0.007452224 -0.009571476 0.001063422)
(-0.002473607 -0.01085865 0.000728492)
(0.000637577 -0.01800683 0.0009043071)
(0.001764331 -0.01495403 0.001403313)
(0.002616782 -0.008839849 0.001876318)
(0.003538223 -0.004262597 0.0023131)
(0.004504559 -0.001424965 0.002627564)
(0.005631526 0.0001462232 0.002894482)
(0.006604389 0.0009157913 0.003249274)
(0.007442652 0.001298958 0.003759736)
(0.008154823 0.001641629 0.004416286)
(0.008648045 0.002157591 0.00518107)
(0.008902891 0.003157751 0.00571752)
(0.008122043 0.005702777 0.005371236)
(0.007571284 0.0135212 0.001058882)
(0.006097499 0.02631514 0.001918463)
(0.004143481 0.03979374 0.002979537)
(0.0001560997 0.04668154 0.00372168)
(-0.003390557 0.03443184 0.002248124)
(-0.005422399 0.01596603 0.0009480644)
(-0.007788609 0.006817186 0.004426265)
(-0.008922036 0.003709874 0.004840416)
(-0.008884096 0.00258293 0.004526664)
(-0.008409554 0.002035907 0.003969275)
(-0.007694894 0.001669019 0.003470405)
(-0.006849992 0.001258625 0.003091711)
(-0.005916398 0.0004766595 0.002846952)
(-0.004752679 -0.001064412 0.002597622)
(-0.003749339 -0.003705958 0.002226556)
(-0.002786697 -0.007759592 0.001729587)
(-0.001840683 -0.01291561 0.001215967)
(-0.0007388378 -0.01491197 0.0007632828)
(-0.002500439 -0.01566925 0.001135255)
(-0.006826639 -0.01176667 0.001652376)
(-0.01020602 -0.006569837 0.002263078)
(-0.01169523 -0.003278399 0.002829798)
(-0.01197207 -0.001487232 0.003235052)
(-0.01151795 -0.0005517772 0.003498465)
(-0.01067706 -6.345281e-05 0.003650524)
(-0.009823192 0.0001959086 0.003742944)
(-0.00906914 0.0004612582 0.003597438)
(-0.008543041 0.001101442 0.002972191)
(-0.008382308 0.002886149 0.001473924)
(-0.008918867 0.007067587 -0.001156689)
(-0.006787879 0.01584272 -0.005395369)
(-0.005199659 0.02586467 -0.002499341)
(-0.002231445 0.03774133 -0.002235537)
(0.001310976 0.04413977 -0.001709561)
(0.004761092 0.03298816 -0.002509955)
(0.007251021 0.01850621 -0.005899094)
(0.008186819 0.008277087 -0.00241582)
(0.007179472 0.003297138 -0.0001321882)
(0.006913471 0.001141066 0.001370883)
(0.007153275 0.0003775525 0.00216149)
(0.007757678 0.0001040883 0.002512583)
(0.008540197 -0.0001227654 0.002639769)
(0.009406262 -0.0005786042 0.002653044)
(0.009955968 -0.001450579 0.002476439)
(0.009796828 -0.003094119 0.002133766)
(0.008529355 -0.006037615 0.001623013)
(0.005650586 -0.01049777 0.001071625)
(0.001887649 -0.01334846 0.0006912213)
(-0.0066136 -0.007326052 0.000602165)
(-0.01477529 -0.00428634 0.000172043)
(-0.02033427 -0.001895008 -0.0003665944)
(-0.02329191 -0.000559099 -0.0009674436)
(-0.02501631 0.0002765409 -0.001676433)
(-0.02611463 0.0009197197 -0.002534855)
(-0.02690806 0.001548643 -0.003591839)
(-0.02766506 0.002328317 -0.004980317)
(-0.02840906 0.003391219 -0.006793418)
(-0.02908137 0.004897489 -0.009152215)
(-0.02940537 0.007051693 -0.0121839)
(-0.02826881 0.01007819 -0.01569886)
(-0.02185456 0.01434393 -0.01791327)
(-0.0171987 0.01787253 -0.01282219)
(-0.01084333 0.02519826 -0.01333378)
(0.003190622 0.03011655 -0.01318357)
(0.01403168 0.02226717 -0.01341197)
(0.02128858 0.01635297 -0.01889401)
(0.0278486 0.01114411 -0.01694249)
(0.02899449 0.007699921 -0.01355902)
(0.02846272 0.005318696 -0.0104986)
(0.0274954 0.003652147 -0.008028481)
(0.02645216 0.002461627 -0.006072342)
(0.02541984 0.00157911 -0.004539553)
(0.02437505 0.0008773758 -0.003360293)
(0.02305199 0.0002054087 -0.002413627)
(0.02118333 -0.0005969845 -0.001657186)
(0.01821518 -0.001807359 -0.001044442)
(0.0129941 -0.003873636 -0.000524204)
(0.005537119 -0.006274003 -2.694903e-05)
(0.004212763 -0.005891111 -0.0001523746)
(0.01133921 -0.004782566 -0.0001946049)
(0.01675791 -0.002696518 -0.0002228944)
(0.01961318 -0.001037736 -0.0002260495)
(0.02062211 3.908544e-05 -0.0002047732)
(0.0206166 0.0006012771 -0.0001639993)
(0.02019986 0.0007742568 -0.000111876)
(0.01976374 0.0007016641 -5.314243e-05)
(0.01954945 0.0004513073 1.663753e-05)
(0.01972843 2.171585e-05 0.0001144824)
(0.02058697 -0.0004379875 0.0002522191)
(0.02114768 0.001220512 0.000562237)
(0.01635248 0.01442842 0.0008219246)
(-0.01504154 0.01442358 0.002737492)
(-0.01949752 0.001387597 0.001816844)
(-0.01848028 -0.0004694202 0.0009713175)
(-0.01733455 -7.716393e-05 0.0005580043)
(-0.01692725 0.0003545608 0.000336348)
(-0.01695506 0.0006357126 0.0002270473)
(-0.01721252 0.0007735568 0.0001786176)
(-0.0174731 0.0007331747 0.0001673205)
(-0.01740955 0.0003828404 0.0001789013)
(-0.01647806 -0.0004318696 0.0002040961)
(-0.01396175 -0.001755851 0.0002306989)
(-0.009317455 -0.003423061 0.0002441545)
(-0.003274657 -0.004161148 0.0001960405)
(0.002870101 -0.01399141 0.0001735147)
(0.008453116 -0.01216633 0.0002464769)
(0.01286533 -0.00779062 0.000264021)
(0.01571198 -0.004255342 0.0002730393)
(0.01747518 -0.001907493 0.0002837448)
(0.01867721 -0.0005830116 0.0003196973)
(0.01959801 -1.071856e-05 0.0003763144)
(0.02031089 8.588051e-05 0.0004417698)
(0.02087796 -8.332162e-05 0.0005070325)
(0.02105078 -0.0002854631 0.0005311066)
(0.02058215 0.0002903295 0.0003384538)
(0.0167505 0.006642238 -0.0001702522)
(0.01164482 0.03298196 -0.00136721)
(-0.01063893 0.03326767 0.0006156634)
(-0.01537802 0.007420217 0.001078091)
(-0.01884119 0.0007923245 0.0009980986)
(-0.01930656 3.098896e-05 0.0009095499)
(-0.01919914 0.0001580602 0.0007528809)
(-0.01874144 0.0003108993 0.0006252955)
(-0.0181276 0.0002662278 0.0005377759)
(-0.01733345 -0.000158139 0.0004887306)
(-0.01612044 -0.001222893 0.0004692842)
(-0.01434896 -0.003199192 0.0004531192)
(-0.01158909 -0.006199778 0.0004265889)
(-0.00749571 -0.009823385 0.0003798883)
(-0.002478797 -0.01093089 0.0002745037)
(0.000743927 -0.01834177 0.0004218482)
(0.002025769 -0.01562963 0.0005990618)
(0.002998588 -0.009665741 0.0007573498)
(0.00400528 -0.005087515 0.0009244357)
(0.005085892 -0.002209171 0.001061913)
(0.006331744 -0.0005774356 0.001196655)
(0.007551366 0.0003549474 0.001391913)
(0.00880818 0.0009468728 0.001641743)
(0.01004391 0.0015324 0.001930405)
(0.01096442 0.002542236 0.002194241)
(0.01138491 0.00526005 0.002057447)
(0.00794336 0.01511461 0.0009121939)
(0.006767929 0.04666166 -0.00211115)
(-0.006089676 0.0471634 -0.000501518)
(-0.007466454 0.0159856 0.001478041)
(-0.01114544 0.005873251 0.002005405)
(-0.01110394 0.003060303 0.002018023)
(-0.01041384 0.002036333 0.001771237)
(-0.009350046 0.001462017 0.001527038)
(-0.008205988 0.000911051 0.001327975)
(-0.007059472 2.74159e-05 0.001176329)
(-0.005752198 -0.001513755 0.001032936)
(-0.004551735 -0.004103386 0.0008694052)
(-0.003391664 -0.008103845 0.0006759671)
(-0.00221567 -0.01312323 0.0005006323)
(-0.000857594 -0.01492175 0.0003463185)
(-0.002190681 -0.01597504 0.0005882852)
(-0.006079316 -0.01239138 0.0007853935)
(-0.009075736 -0.007199842 0.001029744)
(-0.01019327 -0.003730406 0.00129086)
(-0.01006409 -0.001706765 0.001495136)
(-0.009263668 -0.0005701994 0.001632551)
(-0.008093368 4.369633e-05 0.001739164)
(-0.006740495 0.0004241123 0.001822647)
(-0.005538182 0.000974265 0.001783895)
(-0.004803606 0.00248463 0.001482903)
(-0.004737226 0.007064509 0.0006439208)
(-0.006944884 0.01889398 -0.0008468333)
(0.0001725652 0.04648504 -0.003758091)
(0.0003451847 0.04687232 -0.002678965)
(0.007156377 0.0197435 -0.0005590829)
(0.004746366 0.007808846 0.0003979567)
(0.004220521 0.002935096 0.000965171)
(0.004406906 0.001252239 0.001201638)
(0.005209642 0.0006467636 0.001269406)
(0.006255474 0.0002634916 0.001258352)
(0.007423502 -0.0003127741 0.001210586)
(0.008161674 -0.00138227 0.001111087)
(0.00835991 -0.003240656 0.0009417635)
(0.007442244 -0.006345908 0.0007142262)
(0.00493904 -0.01082283 0.0005043909)
(0.001611954 -0.01345679 0.0003734866)
(-0.006265818 -0.007502245 0.0004368782)
(-0.01416841 -0.004442125 0.0002502907)
(-0.01961236 -0.001870527 -2.725524e-07)
(-0.02249823 -0.0003230504 -0.0002741068)
(-0.02414519 0.0007287317 -0.0005950022)
(-0.02514165 0.001584937 -0.0009836968)
(-0.02593322 0.002476405 -0.001473559)
(-0.02682285 0.003663601 -0.002122152)
(-0.02788732 0.005400306 -0.002985895)
(-0.02907257 0.008032761 -0.004128835)
(-0.0296563 0.01219861 -0.005631398)
(-0.02677757 0.01925673 -0.007395784)
(-0.01230419 0.0324514 -0.008616377)
(0.01258954 0.03276529 -0.008043958)
(0.02699711 0.01966999 -0.007303976)
(0.02997193 0.0125654 -0.005856276)
(0.02920944 0.008328855 -0.004514742)
(0.02766643 0.005611496 -0.003427986)
(0.02619502 0.003782765 -0.002559824)
(0.0249084 0.002503004 -0.001874942)
(0.02375252 0.001554974 -0.001342858)
(0.02246387 0.0006966875 -0.0009255362)
(0.02061437 -0.0002979446 -0.0005897324)
(0.01767568 -0.00169159 -0.0003139494)
(0.01252622 -0.003914102 -7.129873e-05)
(0.00527003 -0.006355003 0.0001438676)
(0.004212676 -0.005879379 0.0002019944)
(0.01133865 -0.004767982 0.0002540459)
(0.01675498 -0.0026829 0.00028561)
(0.01960773 -0.001026403 0.0002879498)
(0.02061469 4.745581e-05 0.0002624871)
(0.02060809 0.0006062497 0.0002153074)
(0.02019176 0.0007766044 0.0001562)
(0.01975683 0.0007021904 9.119841e-05)
(0.01954405 0.0004505292 1.621607e-05)
(0.01972503 1.974989e-05 -8.544411e-05)
(0.02058637 -0.0004408308 -0.0002249371)
(0.02115043 0.00121906 -0.0005336646)
(0.01635502 0.01443456 -0.0007917781)
(-0.01505146 0.01445505 -0.002641931)
(-0.01950873 0.001400327 -0.001711676)
(-0.0184852 -0.0004647153 -0.0008683619)
(-0.01733291 -7.343138e-05 -0.0004541772)
(-0.01692145 0.000358198 -0.0002290127)
(-0.01694619 0.0006394733 -0.0001148402)
(-0.01720183 0.0007778437 -6.131387e-05)