/*--------------------------------*- C++ -*----------------------------------*\
| =========                 |                                                 |
| \\      /  F ield         | OpenFOAM: The Open Source CFD Toolbox           |
|  \\    /   O peration     | Version:  v2006                                 |
|   \\  /    A nd           | Website:  www.openfoam.com                      |
|    \\/     M anipulation  |                                                 |
\*---------------------------------------------------------------------------*/
FoamFile
{
    version     2.0;
    format      ascii;
    class       surfaceScalarField;
    location    "74";
    object      phi;
}
// * * * * * * * * * * * * * * * * * * * * * * * * * * * * * * * * * * * * * //

dimensions      [1 0 -1 0 0 0 0];
oriented        oriented;


internalField   nonuniform List<scalar> 
228225
(
1.5488e-06
-2.51694e-07
3.38463e-09
1.88385e-06
-3.94883e-07
5.93464e-08
2.30745e-06
-5.27894e-07
1.03994e-07
2.81096e-06
-6.42707e-07
1.38725e-07
3.39034e-06
-7.44586e-07
1.64709e-07
4.03915e-06
-8.32926e-07
1.83621e-07
4.74685e-06
-9.05336e-07
1.97135e-07
5.49985e-06
-9.60083e-07
2.06603e-07
6.28245e-06
-9.96088e-07
2.13035e-07
7.07773e-06
-1.01286e-06
2.17151e-07
7.86846e-06
-1.01058e-06
2.19437e-07
8.63793e-06
-9.90055e-07
2.20206e-07
9.37076e-06
-9.52821e-07
2.19635e-07
1.00524e-05
-8.99837e-07
2.17862e-07
1.06688e-05
-8.3168e-07
2.14945e-07
1.12071e-05
-7.4944e-07
2.10922e-07
1.16554e-05
-6.54383e-07
2.05822e-07
1.20033e-05
-5.47851e-07
1.99673e-07
1.22419e-05
-4.31303e-07
1.92522e-07
1.23637e-05
-3.06358e-07
1.84424e-07
1.23631e-05
-1.74946e-07
1.75455e-07
1.2238e-05
-4.06731e-08
1.65715e-07
1.19794e-05
1.03251e-07
1.55335e-07
1.15863e-05
2.48607e-07
1.44527e-07
1.10621e-05
3.90639e-07
1.3359e-07
1.04126e-05
5.26721e-07
1.22914e-07
9.64633e-06
6.5354e-07
1.12969e-07
8.77357e-06
7.68808e-07
1.04213e-07
7.80498e-06
8.71847e-07
9.70776e-08
6.74597e-06
9.67437e-07
9.19643e-08
5.58291e-06
1.07475e-06
8.87827e-08
4.26533e-06
1.23232e-06
8.58168e-08
2.73547e-06
1.45258e-06
7.78475e-08
1.09894e-06
1.58007e-06
5.68812e-08
1.07966e-06
1.94143e-08
1.46952e-07
-4.13113e-07
1.47123e-08
5.54647e-07
-8.74603e-07
7.16124e-08
1.16508e-06
-1.2521e-06
1.14039e-07
1.93532e-06
-1.55751e-06
1.44352e-07
2.81973e-06
-1.7952e-06
1.66049e-07
3.77545e-06
-1.97057e-06
1.81815e-07
4.76601e-06
-2.08964e-06
1.93594e-07
5.76132e-06
-2.15833e-06
2.02718e-07
6.73682e-06
-2.18186e-06
2.10044e-07
7.67236e-06
-2.16474e-06
2.16096e-07
8.55133e-06
-2.11097e-06
2.21167e-07
9.36007e-06
-2.02441e-06
2.25358e-07
1.0088e-05
-1.90951e-06
2.28472e-07
1.07271e-05
-1.76971e-06
2.30446e-07
1.12703e-05
-1.60655e-06
2.31419e-07
1.17109e-05
-1.42185e-06
2.31412e-07
1.20435e-05
-1.21771e-06
2.30406e-07
1.22633e-05
-9.96338e-07
2.28364e-07
1.23666e-05
-7.60124e-07
2.25233e-07
1.23509e-05
-5.11882e-07
2.20905e-07
1.22148e-05
-2.54444e-07
2.15263e-07
1.19592e-05
6.46225e-09
2.08176e-07
1.15818e-05
2.80956e-07
1.99511e-07
1.10872e-05
5.53769e-07
1.89179e-07
1.04767e-05
8.23958e-07
1.77138e-07
9.75416e-06
1.08574e-06
1.63439e-07
8.92582e-06
1.3335e-06
1.48425e-07
7.99834e-06
1.56359e-06
1.3283e-07
6.97627e-06
1.77658e-06
1.17563e-07
5.85674e-06
1.98369e-06
1.03577e-07
4.62658e-06
2.21363e-06
9.16261e-08
3.27991e-06
2.49799e-06
8.13282e-08
1.88135e-06
2.78185e-06
6.94861e-08
6.35652e-07
2.77559e-06
5.01383e-08
1.69671e-06
1.8284e-08
1.26775e-07
-5.70397e-07
3.07404e-08
5.63571e-07
-1.39849e-06
8.70346e-08
1.23362e-06
-2.04459e-06
1.22547e-07
2.05655e-06
-2.52515e-06
1.4487e-07
2.9594e-06
-2.85713e-06
1.59184e-07
3.88752e-06
-3.06747e-06
1.68875e-07
4.80521e-06
-3.18326e-06
1.76003e-07
5.68988e-06
-3.22464e-06
1.8172e-07
6.52674e-06
-3.20528e-06
1.86632e-07
7.30562e-06
-3.1346e-06
1.91046e-07
8.01877e-06
-3.01915e-06
1.95094e-07
8.65988e-06
-2.86426e-06
1.98791e-07
9.22317e-06
-2.67487e-06
2.02131e-07
9.70327e-06
-2.45497e-06
2.05195e-07
1.00958e-05
-2.2071e-06
2.08099e-07
1.03969e-05
-1.93385e-06
2.1087e-07
1.06038e-05
-1.63806e-06
2.13501e-07
1.07142e-05
-1.32269e-06
2.15945e-07
1.07268e-05
-9.90799e-07
2.18063e-07
1.0641e-05
-6.457e-07
2.19598e-07
1.0457e-05
-2.90708e-07
2.20253e-07
1.01731e-05
7.05092e-08
2.1977e-07
9.79131e-06
4.44926e-07
2.17818e-07
9.31154e-06
8.19616e-07
2.13892e-07
8.73627e-06
1.19176e-06
2.07443e-07
8.06963e-06
1.5544e-06
1.97989e-07
7.31797e-06
1.89993e-06
1.85287e-07
6.48857e-06
2.22364e-06
1.69472e-07
5.58516e-06
2.52906e-06
1.51109e-07
4.60414e-06
2.83384e-06
1.31092e-07
3.5397e-06
3.16786e-06
1.10419e-07
2.41295e-06
3.53488e-06
8.99714e-08
1.31679e-06
3.80816e-06
6.97776e-08
4.10386e-07
3.63431e-06
4.73318e-08
2.08902e-06
1.74298e-08
1.78858e-07
-7.82848e-07
3.40602e-08
6.4336e-07
-1.94521e-06
8.17956e-08
1.29414e-06
-2.80382e-06
1.08532e-07
2.03815e-06
-3.39318e-06
1.24255e-07
2.80305e-06
-3.75631e-06
1.34349e-07
3.54887e-06
-3.95485e-06
1.41514e-07
4.2591e-06
-4.04045e-06
1.46944e-07
4.92778e-06
-4.04442e-06
1.51109e-07
5.55206e-06
-3.98371e-06
1.54173e-07
6.12946e-06
-3.86826e-06
1.56275e-07
6.65758e-06
-3.70495e-06
1.57665e-07
7.13331e-06
-3.49862e-06
1.5861e-07
7.55172e-06
-3.25263e-06
1.59323e-07
7.90704e-06
-2.97033e-06
1.60029e-07
8.19389e-06
-2.65498e-06
1.61016e-07
8.40759e-06
-2.31011e-06
1.62566e-07
8.54459e-06
-1.93995e-06
1.64895e-07
8.60275e-06
-1.549e-06
1.68144e-07
8.5812e-06
-1.14163e-06
1.72375e-07
8.47967e-06
-7.21687e-07
1.77524e-07
8.29781e-06
-2.92211e-07
1.83376e-07
8.03428e-06
1.44521e-07
1.89547e-07
7.69757e-06
5.8621e-07
1.95458e-07
7.28723e-06
1.02975e-06
2.00246e-07
6.80608e-06
1.47013e-06
2.02835e-07
6.25807e-06
1.90042e-06
2.02061e-07
5.64772e-06
2.31344e-06
1.96934e-07
4.97811e-06
2.70644e-06
1.86926e-07
4.24797e-06
3.08726e-06
1.72086e-07
3.45172e-06
3.47741e-06
1.52831e-07
2.59084e-06
3.89904e-06
1.29811e-07
1.70374e-06
4.31755e-06
1.04413e-07
8.80821e-07
4.55202e-06
7.88068e-08
2.46718e-07
4.2153e-06
5.25692e-08
2.31497e-06
1.99442e-08
1.53754e-07
-9.6634e-07
2.9806e-08
5.43632e-07
-2.40197e-06
6.70361e-08
1.0723e-06
-3.42028e-06
8.78305e-08
1.65726e-06
-4.07898e-06
1.00894e-07
2.24534e-06
-4.45398e-06
1.09662e-07
2.81487e-06
-4.63959e-06
1.15273e-07
3.36124e-06
-4.7048e-06
1.18015e-07
3.88426e-06
-4.68553e-06
1.18124e-07
4.38235e-06
-4.59775e-06
1.15971e-07
4.85278e-06
-4.45077e-06
1.12105e-07
5.29183e-06
-4.25109e-06
1.07115e-07
5.69355e-06
-4.00187e-06
1.01562e-07
6.05007e-06
-3.70517e-06
9.60431e-08
6.35234e-06
-3.36369e-06
9.11174e-08
6.59192e-06
-2.98186e-06
8.73309e-08
6.76244e-06
-2.56579e-06
8.51864e-08
6.86029e-06
-2.12289e-06
8.51e-08
6.88486e-06
-1.66092e-06
8.73829e-08
6.83815e-06
-1.18712e-06
9.22211e-08
6.72419e-06
-7.07323e-07
9.96246e-08
6.54806e-06
-2.25507e-07
1.09449e-07
6.31527e-06
2.56022e-07
1.21331e-07
6.03084e-06
7.36044e-07
1.34633e-07
5.69877e-06
1.21349e-06
1.48379e-07
5.32161e-06
1.68614e-06
1.61212e-07
4.90027e-06
2.15037e-06
1.71469e-07
4.43344e-06
2.60292e-06
1.7744e-07
3.91665e-06
3.04561e-06
1.77734e-07
3.342e-06
3.49054e-06
1.7148e-07
2.70227e-06
3.95899e-06
1.58232e-07
2.00537e-06
4.45781e-06
1.38138e-07
1.29805e-06
4.91184e-06
1.12867e-07
6.56208e-07
5.10785e-06
8.56054e-08
1.7777e-07
4.63626e-06
5.68073e-08
2.4706e-06
2.11796e-08
1.39725e-07
-1.12983e-06
2.38622e-08
4.67604e-07
-2.78435e-06
5.47652e-08
8.96353e-07
-3.92313e-06
7.39998e-08
1.3633e-06
-4.63312e-06
8.71441e-08
1.83211e-06
-5.0185e-06
9.57986e-08
2.29032e-06
-5.19807e-06
1.00393e-07
2.73598e-06
-5.25159e-06
1.01189e-07
3.16843e-06
-5.21662e-06
9.86573e-08
3.58578e-06
-5.10842e-06
9.33288e-08
3.98544e-06
-4.9362e-06
8.57903e-08
4.36191e-06
-4.70407e-06
7.65618e-08
4.70675e-06
-4.41285e-06
6.61922e-08
5.01042e-06
-4.06408e-06
5.53023e-08
5.26368e-06
-3.66148e-06
4.45676e-08
5.45891e-06
-3.21173e-06
3.46818e-08
5.59115e-06
-2.72433e-06
2.63331e-08
5.65856e-06
-2.21045e-06
2.01923e-08
5.66225e-06
-1.68145e-06
1.68915e-08
5.60581e-06
-1.14758e-06
1.69528e-08
5.4947e-06
-6.16876e-07
2.07152e-08
5.33545e-06
-9.45141e-08
2.83176e-08
5.13535e-06
4.16473e-07
3.96982e-08
4.90084e-06
9.16091e-07
5.45184e-08
4.63684e-06
1.40549e-06
7.20524e-08
4.34545e-06
1.8865e-06
9.10844e-08
4.02487e-06
2.36114e-06
1.09864e-07
3.66871e-06
2.83284e-06
1.26307e-07
3.26615e-06
3.30994e-06
1.38304e-07
2.80422e-06
3.80864e-06
1.43894e-07
2.27486e-06
4.34705e-06
1.41343e-07
1.68986e-06
4.91319e-06
1.29552e-07
1.09683e-06
5.39534e-06
1.0928e-07
5.5843e-07
5.56203e-06
8.37445e-08
1.56739e-07
4.98273e-06
5.4498e-08
2.60749e-06
1.8845e-08
1.07658e-07
-1.2571e-06
1.96367e-08
3.6574e-07
-3.08883e-06
4.65103e-08
7.09344e-07
-4.33153e-06
6.49046e-08
1.09023e-06
-5.09219e-06
7.8255e-08
1.47963e-06
-5.49508e-06
8.72059e-08
1.86639e-06
-5.6768e-06
9.19958e-08
2.24715e-06
-5.72529e-06
9.29795e-08
2.61991e-06
-5.68002e-06
9.06841e-08
2.98278e-06
-5.55697e-06
8.57123e-08
3.3317e-06
-5.36359e-06
7.84993e-08
3.66e-06
-5.10168e-06
6.93352e-08
3.96011e-06
-4.77148e-06
5.8554e-08
4.22393e-06
-4.3745e-06
4.66198e-08
4.44395e-06
-3.91563e-06
3.41686e-08
4.61423e-06
-3.40387e-06
2.18786e-08
4.73119e-06
-2.85159e-06
1.03364e-08
4.794e-06
-2.27305e-06
-1.58825e-10
4.80286e-06
-1.68256e-06
-7.71673e-09
4.76142e-06
-1.09287e-06
-1.3223e-08
4.67427e-06
-5.14125e-07
-1.55538e-08
4.54651e-06
4.73789e-08
-1.40833e-08
4.38561e-06
5.85806e-07
-8.37561e-09
4.19707e-06
1.10303e-06
1.64513e-09
3.98527e-06
1.60123e-06
1.61162e-08
3.75183e-06
2.08582e-06
3.4177e-08
3.49398e-06
2.5644e-06
5.46565e-08
3.20367e-06
3.04756e-06
7.56514e-08
2.8681e-06
3.55077e-06
9.47815e-08
2.4731e-06
4.09437e-06
1.09297e-07
2.01142e-06
4.6925e-06
1.1622e-07
1.49666e-06
5.31482e-06
1.13005e-07
9.73728e-07
5.81891e-06
9.90485e-08
4.97318e-07
5.96089e-06
7.69971e-08
1.42218e-07
5.28773e-06
4.93204e-08
2.73257e-06
1.60799e-08
9.03169e-08
-1.36444e-06
1.69267e-08
3.07539e-07
-3.34878e-06
4.2889e-08
6.00718e-07
-4.68693e-06
6.24343e-08
9.30931e-07
-5.49954e-06
7.71983e-08
1.27329e-06
-5.92471e-06
8.72574e-08
1.61688e-06
-6.11321e-06
9.27937e-08
1.95767e-06
-6.16033e-06
9.42697e-08
2.2932e-06
-6.10782e-06
9.23208e-08
2.62075e-06
-5.97208e-06
8.76254e-08
2.93563e-06
-5.75903e-06
8.06221e-08
3.23202e-06
-5.46961e-06
7.15769e-08
3.50329e-06
-5.10346e-06
6.07315e-08
3.74269e-06
-4.66236e-06
4.84994e-08
3.94421e-06
-4.15251e-06
3.53973e-08
4.10324e-06
-3.58484e-06
2.19905e-08
4.21679e-06
-2.97394e-06
8.8608e-09
4.28346e-06
-2.33631e-06
-3.35804e-09
4.30385e-06
-1.68858e-06
-1.4321e-08
4.28037e-06
-1.0458e-06
-2.35378e-08
4.21683e-06
-4.20196e-07
-3.03382e-08
4.1189e-06
1.79384e-07
-3.40336e-08
3.99076e-06
7.47946e-07
-3.39653e-08
3.83855e-06
1.28489e-06
-2.95955e-08
3.66609e-06
1.79434e-06
-2.05991e-08
3.47399e-06
2.28482e-06
-6.85834e-09
3.2583e-06
2.76895e-06
1.11709e-08
3.00976e-06
3.2638e-06
3.23414e-08
2.71447e-06
3.79139e-06
5.46863e-08
2.35777e-06
4.37591e-06
7.51569e-08
1.93273e-06
5.02766e-06
8.98125e-08
1.45285e-06
5.69987e-06
9.46414e-08
9.59395e-07
6.22458e-06
8.74073e-08
5.02071e-07
6.3479e-06
6.97206e-08
1.50865e-07
5.59355e-06
4.45662e-08
2.86826e-06
1.40863e-08
8.133e-08
-1.46153e-06
1.58701e-08
2.79764e-07
-3.58838e-06
4.12125e-08
5.50539e-07
-5.01831e-06
6.06668e-08
8.57957e-07
-5.88226e-06
7.53802e-08
1.17816e-06
-6.33041e-06
8.5556e-08
1.49998e-06
-6.52657e-06
9.15887e-08
1.81882e-06
-6.57316e-06
9.4031e-08
2.13166e-06
-6.5141e-06
9.34782e-08
2.43525e-06
-6.36607e-06
9.04455e-08
2.72543e-06
-6.13446e-06
8.52957e-08
2.99719e-06
-5.81953e-06
7.81942e-08
3.24511e-06
-5.42059e-06
6.92477e-08
3.46392e-06
-4.93983e-06
5.86943e-08
3.6491e-06
-4.38449e-06
4.68444e-08
3.79715e-06
-3.76692e-06
3.40779e-08
3.90559e-06
-3.1032e-06
2.08786e-08
3.97292e-06
-2.4114e-06
7.81316e-09
3.99893e-06
-1.70978e-06
-4.7496e-09
3.9849e-06
-1.0152e-06
-1.65069e-08
3.93332e-06
-3.41813e-07
-2.67508e-08
3.84809e-06
2.99476e-07
-3.47973e-08
3.73421e-06
9.01764e-07
-3.989e-08
3.59688e-06
1.46356e-06
-4.12887e-08
3.44008e-06
1.98958e-06
-3.83758e-08
3.26488e-06
2.49073e-06
-3.06535e-08
3.06769e-06
2.9839e-06
-1.77206e-08
2.8389e-06
3.4919e-06
7.26819e-10
2.56584e-06
4.04275e-06
2.17103e-08
2.2334e-06
4.66403e-06
4.42915e-08
1.83464e-06
5.36263e-06
6.3702e-08
1.38217e-06
6.07733e-06
7.47803e-08
9.14235e-07
6.61839e-06
7.37037e-08
4.78167e-07
6.72258e-06
6.07396e-08
1.43409e-07
5.88855e-06
3.88889e-08
2.99868e-06
1.18623e-08
7.47027e-08
-1.55189e-06
1.58149e-08
2.58996e-07
-3.81456e-06
4.18055e-08
5.12614e-07
-5.33403e-06
6.21167e-08
8.01804e-07
-6.24892e-06
7.75621e-08
1.10366e-06
-6.72045e-06
8.82756e-08
1.4073e-06
-6.9248e-06
9.46559e-08
1.70809e-06
-6.97131e-06
9.73789e-08
2.00296e-06
-6.90618e-06
9.722e-08
2.28851e-06
-6.74644e-06
9.48229e-08
2.56065e-06
-6.49717e-06
9.05947e-08
2.81467e-06
-6.15822e-06
8.47096e-08
3.04577e-06
-5.72889e-06
7.72604e-08
3.24957e-06
-5.21197e-06
6.83904e-08
3.42258e-06
-4.61573e-06
5.82732e-08
3.56225e-06
-3.95367e-06
4.71243e-08
3.66691e-06
-3.24304e-06
3.52198e-08
3.73556e-06
-2.50293e-06
2.29159e-08
3.76785e-06
-1.75265e-06
1.06357e-08
3.76415e-06
-1.01022e-06
-1.23027e-09
3.72661e-06
-2.91179e-07
-1.30338e-08
3.65765e-06
3.91897e-07
-2.34058e-08
3.56091e-06
1.03036e-06
-3.18072e-08
3.44039e-06
1.62159e-06
-3.74614e-08
3.29924e-06
2.17037e-06
-3.95943e-08
3.13828e-06
2.68921e-06
-3.74913e-08
2.95433e-06
3.19824e-06
-3.03742e-08
2.73901e-06
3.72484e-06
-1.7609e-08
2.47874e-06
4.30191e-06
1.10856e-09
2.16096e-06
4.95979e-06
2.19632e-08
1.77859e-06
5.70199e-06
4.28903e-08
1.3436e-06
6.45427e-06
5.77746e-08
8.91857e-07
7.00816e-06
6.1499e-08
4.68412e-07
7.09243e-06
5.29019e-08
1.41358e-07
6.1802e-06
3.44963e-08
3.12834e-06
1.05322e-08
7.57361e-08
-1.64312e-06
1.55781e-08
2.59894e-07
-4.03991e-06
4.12802e-08
5.10086e-07
-5.64546e-06
6.12963e-08
7.92283e-07
-6.60749e-06
7.64275e-08
1.08432e-06
-7.09944e-06
8.70014e-08
1.37618e-06
-7.31015e-06
9.35305e-08
1.66367e-06
-7.35543e-06
9.66797e-08
1.94385e-06
-7.28348e-06
9.71648e-08
2.2135e-06
-7.11164e-06
9.5583e-08
2.46877e-06
-6.84472e-06
9.23279e-08
2.70538e-06
-6.48237e-06
8.75846e-08
2.91912e-06
-6.02404e-06
8.14505e-08
3.10636e-06
-5.4732e-06
7.40427e-08
3.2643e-06
-4.8391e-06
6.54709e-08
3.39111e-06
-4.13629e-06
5.58586e-08
3.48565e-06
-3.3829e-06
4.5372e-08
3.54737e-06
-2.59884e-06
3.42448e-08
3.57615e-06
-1.80415e-06
2.2775e-08
3.57236e-06
-1.01763e-06
1.12636e-08
3.53667e-06
-2.55849e-07
4.16386e-10
3.47256e-06
4.67255e-07
-1.11768e-08
3.38244e-06
1.14161e-06
-2.10713e-08
3.26952e-06
1.76363e-06
-2.90648e-08
3.13627e-06
2.33808e-06
-3.44193e-08
2.98321e-06
2.87871e-06
-3.63881e-08
2.80736e-06
3.40818e-06
-3.40551e-08
2.60111e-06
3.95749e-06
-2.63789e-08
2.35233e-06
4.56333e-06
-1.26729e-08
2.04801e-06
5.25788e-06
6.16485e-09
1.68304e-06
6.04078e-06
2.60262e-08
1.26889e-06
6.82562e-06
4.24841e-08
8.39473e-07
7.38754e-06
4.95263e-08
4.37707e-07
7.44877e-06
4.46932e-08
1.30338e-07
6.4569e-06
2.9719e-08
3.24847e-06
9.00607e-09
7.34815e-08
-1.73264e-06
1.61275e-08
2.52487e-07
-4.2613e-06
4.25028e-08
4.94761e-07
-5.9506e-06
6.28936e-08
7.66299e-07
-6.95723e-06
7.81872e-08
1.04584e-06
-7.46778e-06
8.88115e-08
1.32421e-06
-7.68383e-06
9.5351e-08
1.59759e-06
-7.72733e-06
9.85647e-08
1.86318e-06
-7.64827e-06
9.92584e-08
2.1178e-06
-7.46428e-06
9.8074e-08
2.35776e-06
-7.18006e-06
9.54214e-08
2.57909e-06
-6.79517e-06
9.14983e-08
2.77812e-06
-6.30944e-06
8.64024e-08
2.95184e-06
-5.72711e-06
8.02216e-08
3.09819e-06
-5.05842e-06
7.3012e-08
3.21591e-06
-4.31878e-06
6.48197e-08
3.30437e-06
-3.52701e-06
5.57111e-08
3.3633e-06
-2.70352e-06
4.58076e-08
3.39269e-06
-1.86878e-06
3.52988e-08
3.39279e-06
-1.04207e-06
2.44026e-08
3.36426e-06
-2.40658e-07
1.33985e-08
3.3083e-06
5.20491e-07
2.77931e-09
3.22762e-06
1.23018e-06
-7.84311e-09
3.12439e-06
1.88406e-06
-1.71419e-08
3.00021e-06
2.48683e-06
-2.4508e-08
2.85506e-06
3.05319e-06
-2.92938e-08
2.68603e-06
3.60784e-06
-3.06066e-08
2.48625e-06
4.18456e-06
-2.72816e-08
2.245e-06
4.82278e-06
-1.8226e-08
1.95047e-06
5.55533e-06
-3.01898e-09
1.59919e-06
6.37741e-06
1.44483e-08
1.20307e-06
7.19083e-06
3.05609e-08
7.94157e-07
7.75655e-06
3.93449e-08
4.12545e-07
7.79226e-06
3.73486e-08
1.22197e-07
6.72087e-06
2.53933e-08
3.36176e-06
7.66566e-09
7.51639e-08
-1.82379e-06
1.6045e-08
2.53852e-07
-4.48193e-06
4.20137e-08
4.91819e-07
-6.25041e-06
6.19005e-08
7.55079e-07
-7.29715e-06
7.6717e-08
1.02344e-06
-7.82313e-06
8.70387e-08
1.28886e-06
-8.04272e-06
9.34991e-08
1.54816e-06
-8.08342e-06
9.68331e-08
1.79879e-06
-7.99667e-06
9.78108e-08
2.03779e-06
-7.80029e-06
9.70502e-08
2.26169e-06
-7.49887e-06
9.49572e-08
2.46689e-06
-7.09207e-06
9.17448e-08
2.65019e-06
-6.58022e-06
8.75265e-08
2.80917e-06
-5.96843e-06
8.23865e-08
2.9423e-06
-5.26786e-06
7.63651e-08
3.04882e-06
-4.49471e-06
6.94726e-08
3.12844e-06
-3.6683e-06
6.17166e-08
3.1812e-06
-2.80935e-06
5.31366e-08
3.20723e-06
-1.93858e-06
4.38285e-08
3.20685e-06
-1.07556e-06
3.39296e-08
3.18058e-06
-2.37974e-07
2.36483e-08
3.12945e-06
5.58392e-07
1.32968e-08
3.05483e-06
1.30149e-06
3.3722e-09
2.95873e-06
1.9865e-06
-6.29505e-09
2.84207e-06
2.61825e-06
-1.4708e-08
2.70419e-06
3.21231e-06
-2.11912e-08
2.54197e-06
3.79504e-06
-2.49605e-08
2.34898e-06
4.40244e-06
-2.48878e-08
2.11571e-06
5.07572e-06
-1.97181e-08
1.8324e-06
5.84725e-06
-8.72273e-09
1.49625e-06
6.70698e-06
6.36888e-09
1.12067e-06
7.5451e-06
2.0932e-08
7.35892e-07
8.11048e-06
3.02679e-08
3.79042e-07
8.11802e-06
3.02891e-08
1.10812e-07
6.9671e-06
2.09845e-08
3.4651e-06
6.21156e-09
7.32271e-08
-1.91357e-06
1.65681e-08
2.47209e-07
-4.69876e-06
4.29151e-08
4.77708e-07
-6.5436e-06
6.28031e-08
7.30752e-07
-7.62755e-06
7.74382e-08
9.87045e-07
-8.16693e-06
8.75525e-08
1.23941e-06
-8.38893e-06
9.38742e-08
1.48504e-06
-8.42622e-06
9.71949e-08
1.72155e-06
-8.33146e-06
9.83132e-08
1.94611e-06
-8.12266e-06
9.78495e-08
2.15549e-06
-7.8044e-06
9.62069e-08
2.34648e-06
-7.37661e-06
9.36011e-08
2.51643e-06
-6.84026e-06
9.01432e-08
2.66352e-06
-6.20136e-06
8.5902e-08
2.78677e-06
-5.47195e-06
8.08931e-08
2.88581e-06
-4.6688e-06
7.50912e-08
2.96064e-06
-3.81153e-06
6.84557e-08
3.01133e-06
-2.92095e-06
6.09664e-08
3.03794e-06
-2.01778e-06
5.26533e-08
3.04053e-06
-1.12168e-06
4.35986e-08
3.01931e-06
-2.50641e-07
3.39631e-08
2.97479e-06
5.78972e-07
2.40062e-08
2.90791e-06
1.35437e-06
1.40671e-08
2.8195e-06
2.07035e-06
4.6192e-09
2.71007e-06
2.73196e-06
-4.22879e-09
2.57869e-06
3.35563e-06
-1.18997e-08
2.422e-06
3.96916e-06
-1.74056e-08
2.23398e-06
4.61025e-06
-1.9795e-08
2.00637e-06
5.3211e-06
-1.78245e-08
1.73137e-06
6.13265e-06
-1.05314e-08
1.40759e-06
7.02878e-06
1.73721e-09
1.05003e-06
7.88829e-06
1.39607e-08
6.86978e-07
8.45001e-06
2.29094e-08
3.52244e-07
8.42776e-06
2.41685e-08
1.02503e-07
7.19874e-06
1.70507e-08
3.56137e-06
4.94753e-09
7.35822e-08
-2.00365e-06
1.65848e-08
2.44644e-07
-4.91221e-06
4.24519e-08
4.68027e-07
-6.82861e-06
6.16824e-08
7.10539e-07
-7.94571e-06
7.57076e-08
9.54203e-07
-8.49595e-06
8.54073e-08
1.19284e-06
-8.71907e-06
9.15412e-08
1.42411e-06
-8.75232e-06
9.48763e-08
1.64583e-06
-8.64932e-06
9.61803e-08
1.85535e-06
-8.42819e-06
9.60489e-08
2.04972e-06
-8.0936e-06
9.48762e-08
2.22611e-06
-7.64585e-06
9.28842e-08
2.38236e-06
-7.08665e-06
9.01892e-08
2.51715e-06
-6.42296e-06
8.68565e-08
2.62997e-06
-5.66761e-06
8.28902e-08
2.72083e-06
-4.83785e-06
7.82399e-08
2.78997e-06
-3.95344e-06
7.28242e-08
2.83756e-06
-3.03504e-06
6.6564e-08
2.86361e-06
-2.10319e-06
5.94181e-08
2.86801e-06
-1.17741e-06
5.13996e-08
2.85064e-06
-2.75808e-07
4.26079e-08
2.81162e-06
5.84805e-07
3.32499e-08
2.75139e-06
1.39105e-06
2.36197e-08
2.67035e-06
2.13737e-06
1.40805e-08
2.56819e-06
2.82907e-06
5.10018e-09
2.44342e-06
3.48344e-06
-3.01041e-09
2.2928e-06
4.12959e-06
-9.79381e-09
2.11052e-06
4.8065e-06
-1.39907e-08
1.88938e-06
5.5567e-06
-1.45186e-08
1.62342e-06
6.4088e-06
-1.03363e-08
1.3132e-06
7.33991e-06
-1.17221e-09
9.74514e-07
8.21771e-06
8.83195e-09
6.34148e-07
8.7729e-06
1.68313e-08
3.22779e-07
8.71953e-06
1.87482e-08
9.30313e-08
7.41399e-06
1.34311e-08
3.64932e-06
3.77687e-09
7.12878e-08
-2.09181e-06
1.69827e-08
2.36835e-07
-5.12061e-06
4.28864e-08
4.52076e-07
-7.10563e-06
6.18005e-08
6.8427e-07
-8.25327e-06
7.54038e-08
9.1633e-07
-8.8127e-06
8.47444e-08
1.14272e-06
-9.03606e-06
9.06626e-08
1.36135e-06
-9.06484e-06
9.39503e-08
1.57015e-06
-8.95344e-06
9.53713e-08
1.76662e-06
-8.72012e-06
9.55059e-08
1.94806e-06
-8.36973e-06
9.47384e-08
2.11206e-06
-7.90309e-06
9.32898e-08
2.25693e-06
-7.32274e-06
9.12731e-08
2.38187e-06
-6.63658e-06
8.87407e-08
2.48681e-06
-5.85817e-06
8.56826e-08
2.5721e-06
-5.0051e-06
8.20291e-08
2.63814e-06
-4.09708e-06
7.76698e-08
2.68511e-06
-3.15443e-06
7.24844e-08
2.71288e-06
-2.19727e-06
6.63783e-08
2.72098e-06
-1.24476e-06
5.93062e-08
2.70887e-06
-3.14937e-07
5.13078e-08
2.6761e-06
5.75106e-07
4.25339e-08
2.62254e-06
1.41143e-06
3.32379e-08
2.5481e-06
2.18813e-06
2.37486e-08
2.45214e-06
2.91065e-06
1.44499e-08
2.33275e-06
3.59704e-06
5.82383e-09
2.18634e-06
4.27758e-06
-1.54294e-09
2.00791e-06
4.99221e-06
-7.2958e-09
1.79124e-06
5.7832e-06
-9.89251e-09
1.53216e-06
6.67611e-06
-8.39082e-09
1.23345e-06
7.64077e-06
-2.43e-09
9.11121e-07
8.5341e-06
5.48997e-09
5.906e-07
9.08057e-06
1.21952e-08
2.99436e-07
8.99551e-06
1.43097e-08
8.60788e-08
7.61586e-06
1.04065e-08
3.73124e-06
2.84651e-09
7.06457e-08
-2.17939e-06
1.70118e-08
2.32116e-07
-5.32435e-06
4.23266e-08
4.39576e-07
-7.37349e-06
6.04505e-08
6.61214e-07
-8.54819e-06
7.33356e-08
8.81179e-07
-9.11479e-06
8.21813e-08
1.09477e-06
-9.33745e-06
8.78492e-08
1.30024e-06
-9.36136e-06
9.1101e-08
1.4957e-06
-9.24151e-06
9.26637e-08
1.67883e-06
-8.99629e-06
9.30889e-08
1.84719e-06
-8.6308e-06
9.2748e-08
1.99872e-06
-8.14643e-06
9.18639e-08
2.13212e-06
-7.54664e-06
9.05518e-08
2.247e-06
-6.84026e-06
8.88589e-08
2.34367e-06
-6.04155e-06
8.67641e-08
2.4228e-06
-5.16835e-06
8.41802e-08
2.48502e-06
-4.24021e-06
8.09702e-08
2.53063e-06
-3.27695e-06
7.69718e-08
2.55942e-06
-2.29803e-06
7.20336e-08
2.57071e-06
-1.32203e-06
6.60455e-08
2.56352e-06
-3.66661e-07
5.89801e-08
2.53686e-06
5.50903e-07
5.09265e-08
2.48997e-06
1.41629e-06
4.20961e-08
2.42221e-06
2.22315e-06
3.27978e-08
2.33249e-06
2.97702e-06
2.33997e-08
2.21872e-06
3.69653e-06
1.43242e-08
2.07733e-06
4.41287e-06
6.11616e-09
1.90321e-06
5.16666e-06
-3.43851e-10
1.69168e-06
5.99942e-06
-4.77924e-09
1.44009e-06
6.93308e-06
-5.54852e-09
1.15309e-06
7.92978e-06
-2.31562e-09
8.47227e-07
8.83611e-06
3.36891e-09
5.46371e-07
9.3721e-06
8.64215e-09
2.75314e-07
9.25504e-06
1.06454e-08
7.85904e-08
7.80365e-06
7.84462e-09
3.80644e-06
2.07739e-09
6.81535e-08
-2.26473e-06
1.72455e-08
2.24003e-07
-5.52236e-06
4.22617e-08
4.23528e-07
-7.63274e-06
5.97984e-08
6.3552e-07
-8.83221e-06
7.20789e-08
8.44954e-07
-9.40465e-06
8.04638e-08
1.04763e-06
-9.62596e-06
8.58678e-08
1.24198e-06
-9.64471e-06
8.90479e-08
1.42621e-06
-9.51639e-06
9.07063e-08
1.59813e-06
-9.25952e-06
9.13686e-08
1.75554e-06
-8.87954e-06
9.13927e-08
1.89669e-06
-8.37851e-06
9.09986e-08
2.02066e-06
-7.76085e-06
9.02994e-08
2.12743e-06
-7.03631e-06
8.93359e-08
2.21766e-06
-6.21979e-06
8.808e-08
2.29228e-06
-5.32935e-06
8.64353e-08
2.35213e-06
-4.38425e-06
8.42484e-08
2.39759e-06
-3.40367e-06
8.13307e-08
2.42835e-06
-2.40621e-06
7.74887e-08
2.44347e-06
-1.40963e-06
7.25564e-08
2.44153e-06
-4.31083e-07
6.6438e-08
2.42092e-06
5.12436e-07
5.91518e-08
2.38022e-06
1.4062e-06
5.08532e-08
2.31824e-06
2.24338e-06
4.18205e-08
2.23352e-06
3.02939e-06
3.24117e-08
2.1238e-06
3.78325e-06
2.30365e-08
1.98567e-06
4.53683e-06
1.41813e-08
1.81475e-06
5.33107e-06
6.49293e-09
1.60687e-06
6.20632e-06
9.11087e-10
1.36121e-06
7.1804e-06
-1.83343e-09
1.08411e-06
8.2076e-06
-1.01987e-09
7.9272e-07
9.12464e-06
2.38107e-09
5.0914e-07
9.64882e-06
6.17474e-09
2.5557e-07
9.49989e-06
7.83503e-09
7.2777e-08
7.9795e-06
5.8499e-09
3.87638e-06
1.52781e-09
6.72072e-08
-2.34907e-06
1.71997e-08
2.18804e-07
-5.71536e-06
4.14643e-08
4.1102e-07
-7.88297e-06
5.80781e-08
6.13561e-07
-9.10425e-06
6.95503e-08
8.12435e-07
-9.68087e-06
7.73868e-08
1.00408e-06
-9.90006e-06
8.25077e-08
1.18716e-06
-9.91336e-06
8.56256e-08
1.36003e-06
-9.7766e-06
8.73963e-08
1.52068e-06
-9.50843e-06
8.8312e-08
1.66711e-06
-9.11462e-06
8.87148e-08
1.79784e-06
-8.598e-06
8.88231e-08
1.91222e-06
-7.96393e-06
8.87507e-08
2.01055e-06
-7.22311e-06
8.85346e-08
2.09378e-06
-6.3911e-06
8.81417e-08
2.16315e-06
-5.48613e-06
8.7467e-08
2.21977e-06
-4.52715e-06
8.63425e-08
2.26419e-06
-3.53258e-06
8.45543e-08
2.29614e-06
-2.51997e-06
8.18697e-08
2.31452e-06
-1.50601e-06
7.8069e-08
2.31751e-06
-5.06997e-07
7.29899e-08
2.30291e-06
4.60529e-07
6.65787e-08
2.26859e-06
1.38166e-06
5.89279e-08
2.2127e-06
2.24905e-06
5.02778e-08
2.13336e-06
3.06781e-06
4.09742e-08
2.02811e-06
3.85711e-06
3.14257e-08
1.89367e-06
4.64918e-06
2.21049e-08
1.72617e-06
5.48493e-06
1.36068e-08
1.52256e-06
6.40313e-06
6.70746e-09
1.28336e-06
7.41713e-06
2.28611e-09
1.01644e-06
8.47326e-06
9.37587e-10
7.39319e-07
9.399e-06
2.27226e-09
4.7247e-07
9.91039e-06
4.59427e-09
2.3585e-07
9.72986e-06
5.75808e-09
6.67507e-08
8.14316e-06
4.35157e-09
3.94068e-06
1.15635e-09
6.48533e-08
-2.4311e-06
1.72495e-08
2.1119e-07
-5.90254e-06
4.09051e-08
3.96226e-07
-8.12464e-06
5.67059e-08
5.90304e-07
-9.36569e-06
6.74363e-08
7.80116e-07
-9.94536e-06
7.47448e-08
9.62457e-07
-1.01619e-05
7.95721e-08
1.13612e-06
-1.01696e-05
8.26002e-08
1.29955e-06
-1.00244e-05
8.44447e-08
1.45084e-06
-9.74523e-06
8.55662e-08
1.58818e-06
-9.33819e-06
8.62899e-08
1.71028e-06
-8.80687e-06
8.68302e-08
1.81676e-06
-8.15764e-06
8.72997e-08
1.90814e-06
-7.40216e-06
8.77325e-08
1.98565e-06
-6.55663e-06
8.80943e-08
2.05079e-06
-5.63948e-06
8.82791e-08
2.10488e-06
-4.66929e-06
8.81137e-08
2.14866e-06
-3.66366e-06
8.73705e-08
2.18191e-06
-2.63894e-06
8.57886e-08
2.2034e-06
-1.61054e-06
8.31021e-08
2.21098e-06
-5.93589e-07
7.90844e-08
2.20185e-06
3.96125e-07
7.36039e-08
2.1732e-06
1.34371e-06
6.66776e-08
2.12258e-06
2.24126e-06
5.84929e-08
2.04766e-06
3.09342e-06
4.93722e-08
1.94589e-06
3.91922e-06
3.97202e-08
1.81417e-06
4.75093e-06
3.00054e-08
1.64923e-06
5.62906e-06
2.07969e-08
1.44902e-06
6.59044e-06
1.28176e-08
1.21538e-06
7.64369e-06
6.90022e-09
9.57437e-07
8.72718e-06
3.70349e-09
6.93019e-07
9.65979e-06
3.13941e-09
4.41043e-07
1.01577e-05
3.98102e-09
2.19329e-07
9.94617e-06
4.52903e-09
6.19092e-08
8.29603e-06
3.48537e-09
4.00025e-06
1.07196e-09
6.37502e-08
-2.51185e-06
1.70757e-08
2.06144e-07
-6.08466e-06
3.9792e-08
3.84821e-07
-8.35781e-06
5.45481e-08
5.70925e-07
-9.61614e-06
6.44023e-08
7.51962e-07
-1.01975e-05
7.11283e-08
9.25193e-07
-1.04107e-05
7.56511e-08
1.08961e-06
-1.04125e-05
7.85946e-08
1.24378e-06
-1.02591e-05
8.05212e-08
1.38592e-06
-9.96917e-06
8.18549e-08
1.51434e-06
-9.54944e-06
8.29026e-08
1.62789e-06
-9.00423e-06
8.38751e-08
1.72635e-06
-8.34092e-06
8.48854e-08
1.81048e-06
-7.57219e-06
8.59653e-08
1.88174e-06
-6.7149e-06
8.70799e-08
1.94192e-06
-5.78771e-06
8.81222e-08
1.99263e-06
-4.80885e-06
8.8915e-08
2.03486e-06
-3.79504e-06
8.92204e-08
2.06858e-06
-2.76134e-06
8.87555e-08
2.09252e-06
-1.72164e-06
8.72161e-08
2.10427e-06
-6.89586e-07
8.43175e-08
2.10048e-06
3.20129e-07
7.9852e-08
2.07762e-06
1.29289e-06
7.37559e-08
2.03252e-06
2.22027e-06
6.61524e-08
1.96239e-06
3.10628e-06
5.7329e-08
1.86448e-06
3.9695e-06
4.76813e-08
1.73589e-06
4.84187e-06
3.76775e-08
1.57392e-06
5.76313e-06
2.78753e-08
1.37749e-06
6.76782e-06
1.89648e-08
1.14967e-06
7.85958e-06
1.17453e-08
9.00682e-07
8.96895e-06
6.91053e-09
6.48538e-07
9.90686e-06
4.58367e-09
4.10716e-07
1.03909e-05
3.96336e-09
2.03228e-07
1.0149e-05
3.77332e-09
5.70823e-08
8.43828e-06
2.86059e-09
4.05507e-06
1.0215e-09
6.16824e-08
-2.59039e-06
1.69379e-08
1.99501e-07
-6.26119e-06
3.87812e-08
3.72049e-07
-8.58285e-06
5.2554e-08
5.51091e-07
-9.8567e-06
6.15723e-08
7.2465e-07
-1.04387e-05
6.77262e-08
8.90209e-07
-1.06482e-05
7.19301e-08
1.04692e-06
-1.06439e-05
7.47587e-08
1.19346e-06
-1.04823e-05
7.67259e-08
1.32811e-06
-1.0182e-05
7.8221e-08
1.4492e-06
-9.75e-06
7.95324e-08
1.5557e-06
-9.19154e-06
8.08664e-08
1.64753e-06
-8.51502e-06
8.23362e-08
1.72559e-06
-7.73416e-06
8.39735e-08
1.79155e-06
-6.86654e-06
8.57456e-08
1.8474e-06
-5.93104e-06
8.75498e-08
1.89502e-06
-4.9456e-06
8.92129e-08
1.93562e-06
-3.92606e-06
9.04951e-08
1.96938e-06
-2.88613e-06
9.11006e-08
1.99512e-06
-1.83799e-06
9.06949e-08
2.01025e-06
-7.93579e-07
8.89392e-08
2.011e-06
2.3391e-07
8.55484e-08
1.99314e-06
1.23044e-06
8.03695e-08
1.95286e-06
2.18717e-06
7.34477e-08
1.88686e-06
3.10733e-06
6.50227e-08
1.79219e-06
4.00874e-06
5.54732e-08
1.66615e-06
4.92267e-06
4.52684e-08
1.50664e-06
5.88767e-06
3.49651e-08
1.31351e-06
6.93564e-06
2.52387e-08
1.09096e-06
8.0651e-06
1.68713e-08
8.50121e-07
9.19891e-06
1.05883e-08
6.09089e-07
1.01408e-05
6.66601e-09
3.84067e-07
1.06106e-05
4.62065e-09
1.89285e-07
1.03394e-05
3.59356e-09
5.30114e-08
8.5709e-06
2.63123e-09
4.10575e-06
1.12061e-09
6.05488e-08
-2.66749e-06
1.6628e-08
1.94818e-07
-6.43275e-06
3.73628e-08
3.6199e-07
-8.79995e-06
4.99924e-08
5.34575e-07
-1.00873e-05
5.80885e-08
7.01181e-07
-1.06689e-05
6.36431e-08
8.59674e-07
-1.08741e-05
6.75296e-08
1.00925e-06
-1.08637e-05
7.02492e-08
1.14859e-06
-1.06938e-05
7.22583e-08
1.2761e-06
-1.03833e-05
7.39105e-08
1.39014e-06
-9.93945e-06
7.54759e-08
1.48976e-06
-9.36824e-06
7.71572e-08
1.57497e-06
-8.67924e-06
7.90679e-08
1.64683e-06
-7.88719e-06
8.12392e-08
1.70718e-06
-7.01046e-06
8.36401e-08
1.75822e-06
-6.06819e-06
8.61721e-08
1.80209e-06
-5.07806e-06
8.86672e-08
1.84029e-06
-4.05509e-06
9.08891e-08
1.87327e-06
-3.01158e-06
9.25374e-08
1.90002e-06
-1.95793e-06
9.32577e-08
1.91792e-06
-9.04075e-07
9.26682e-08
1.92285e-06
1.38639e-07
9.0413e-08
1.90997e-06
1.15715e-06
8.62476e-08
1.87472e-06
2.14236e-06
8.01283e-08
1.81321e-06
3.09667e-06
7.22324e-08
1.72223e-06
4.03686e-06
6.29105e-08
1.59921e-06
4.99309e-06
5.26288e-08
1.4426e-06
6.00233e-06
4.19482e-08
1.25311e-06
7.09352e-06
3.15422e-08
1.03597e-06
8.2599e-06
2.21895e-08
8.03087e-07
9.41687e-06
1.46483e-08
5.72563e-07
1.03615e-05
9.31506e-09
3.59548e-07
1.08171e-05
5.94369e-09
1.76518e-07
1.05176e-05
4.02877e-09
4.92598e-08
8.69434e-06
2.84197e-09
4.15245e-06
1.38608e-09
5.87253e-08
-2.74246e-06
1.63235e-08
1.89028e-07
-6.59894e-06
3.59665e-08
3.5103e-07
-9.00935e-06