/*--------------------------------*- C++ -*----------------------------------*\
| =========                 |                                                 |
| \\      /  F ield         | OpenFOAM: The Open Source CFD Toolbox           |
|  \\    /   O peration     | Version:  v2006                                 |
|   \\  /    A nd           | Website:  www.openfoam.com                      |
|    \\/     M anipulation  |                                                 |
\*---------------------------------------------------------------------------*/
FoamFile
{
    version     2.0;
    format      ascii;
    class       volScalarField;
    location    "74";
    object      T;
}
// * * * * * * * * * * * * * * * * * * * * * * * * * * * * * * * * * * * * * //

dimensions      [0 0 0 1 0 0 0];


internalField   nonuniform List<scalar> 
78750
(
300.036
300.11
300.186
300.257
300.324
300.384
300.438
300.486
300.53
300.57
300.605
300.638
300.667
300.694
300.718
300.739
300.758
300.776
300.791
300.804
300.814
300.823
300.829
300.832
300.833
300.83
300.824
300.814
300.801
300.792
300.809
300.909
301.188
301.733
302.525
300.056
300.161
300.256
300.342
300.419
300.49
300.554
300.613
300.667
300.716
300.761
300.801
300.837
300.87
300.899
300.926
300.949
300.97
300.987
301.002
301.014
301.022
301.027
301.028
301.024
301.015
301.001
300.983
300.964
300.955
300.986
301.113
301.419
301.965
302.748
300.068
300.199
300.32
300.43
300.529
300.615
300.692
300.759
300.818
300.87
300.916
300.957
300.992
301.023
301.051
301.074
301.093
301.109
301.122
301.131
301.137
301.14
301.14
301.136
301.128
301.115
301.098
301.078
301.063
301.067
301.124
301.291
301.627
302.185
302.981
300.084
300.246
300.396
300.53
300.644
300.74
300.821
300.89
300.951
301.004
301.05
301.092
301.128
301.159
301.186
301.208
301.226
301.24
301.25
301.256
301.258
301.256
301.25
301.239
301.224
301.204
301.181
301.16
301.149
301.169
301.255
301.459
301.82
302.388
303.197
300.095
300.28
300.448
300.594
300.715
300.813
300.893
300.962
301.022
301.076
301.123
301.164
301.201
301.232
301.259
301.281
301.299
301.312
301.32
301.324
301.325
301.321
301.313
301.301
301.285
301.265
301.245
301.23
301.232
301.275
301.394
301.632
302.016
302.598
303.417
300.105
300.307
300.491
300.649
300.776
300.877
300.96
301.031
301.094
301.149
301.198
301.241
301.279
301.311
301.338
301.359
301.374
301.383
301.386
301.385
301.38
301.371
301.36
301.345
301.328
301.31
301.294
301.288
301.305
301.369
301.516
301.782
302.185
302.78
303.606
300.112
300.329
300.524
300.69
300.822
300.925
301.009
301.082
301.146
301.203
301.254
301.3
301.34
301.374
301.402
301.422
301.436
301.443
301.443
301.438
301.429
301.416
301.4
301.383
301.365
301.349
301.339
301.344
301.377
301.464
301.639
301.929
302.349
302.96
303.792
300.118
300.346
300.551
300.724
300.86
300.966
301.053
301.128
301.194
301.254
301.308
301.356
301.398
301.434
301.462
301.481
301.494
301.498
301.495
301.487
301.474
301.457
301.438
301.419
301.4
301.386
301.381
301.394
301.441
301.547
301.744
302.054
302.491
303.115
303.952
300.123
300.36
300.574
300.753
300.894
301.003
301.093
301.17
301.239
301.301
301.358
301.408
301.453
301.49
301.519
301.539
301.551
301.554
301.55
301.538
301.521
301.501
301.478
301.456
301.437
301.423
301.422
301.444
301.503
301.627
301.844
302.173
302.625
303.263
304.104
300.128
300.374
300.595
300.781
300.926
301.038
301.13
301.21
301.281
301.345
301.404
301.457
301.503
301.541
301.571
301.592
301.604
301.606
301.601
301.587
301.568
301.545
301.52
301.495
301.475
301.462
301.464
301.491
301.562
301.7
301.935
302.279
302.746
303.395
304.241
300.132
300.386
300.614
300.806
300.955
301.07
301.165
301.247
301.321
301.388
301.449
301.504
301.552
301.592
301.623
301.645
301.656
301.658
301.651
301.636
301.615
301.589
301.562
301.536
301.514
301.502
301.507
301.54
301.62
301.773
302.023
302.382
302.86
303.521
304.37
300.137
300.399
300.634
300.831
300.984
301.102
301.199
301.283
301.359
301.429
301.492
301.549
301.599
301.64
301.672
301.694
301.706
301.707
301.699
301.683
301.661
301.633
301.604
301.577
301.554
301.543
301.55
301.589
301.678
301.842
302.107
302.478
302.968
303.638
304.491
300.141
300.41
300.652
300.854
301.011
301.132
301.231
301.318
301.396
301.468
301.533
301.592
301.644
301.687
301.719
301.742
301.754
301.755
301.746
301.729
301.705
301.676
301.646
301.617
301.595
301.584
301.595
301.639
301.736
301.913
302.19
302.571
303.071
303.75
304.606
300.145
300.423
300.671
300.878
301.039
301.162
301.263
301.352
301.432
301.506
301.574
301.634
301.687
301.731
301.765
301.788
301.8
301.801
301.792
301.774
301.749
301.719
301.687
301.658
301.636
301.627
301.64
301.689
301.795
301.982
302.271
302.662
303.17
303.857
304.716
300.149
300.434
300.688
300.9
301.064
301.19
301.293
301.384
301.467
301.543
301.612
301.675
301.729
301.774
301.809
301.833
301.845
301.846
301.836
301.817
301.791
301.76
301.728
301.699
301.677
301.669
301.686
301.741
301.855
302.052
302.352
302.75
303.266
303.96
304.821
300.153
300.445
300.706
300.923
301.089
301.217
301.323
301.416
301.501
301.578
301.65
301.714
301.77
301.816
301.852
301.876
301.888
301.889
301.879
301.86
301.833
301.802
301.769
301.739
301.718
301.712
301.733
301.793
301.915
302.122
302.431
302.837
303.359
304.059
304.922
300.156
300.456
300.723
300.944
301.113
301.244
301.352
301.447
301.533
301.613
301.686
301.752
301.809
301.857
301.893
301.918
301.931
301.932
301.922
301.902
301.875
301.842
301.809
301.78
301.759
301.756
301.78
301.846
301.976
302.192
302.51
302.922
303.449
304.155
305.019
300.16
300.467
300.74
300.965
301.137
301.27
301.379
301.476
301.565
301.646
301.721
301.789
301.847
301.896
301.933
301.959
301.972
301.973
301.963
301.944
301.916
301.883
301.85
301.821
301.801
301.8
301.827
301.899
302.037
302.261
302.587
303.004
303.536
304.247
305.112
300.164
300.477
300.756
300.985
301.16
301.295
301.406
301.505
301.596
301.679
301.756
301.825
301.885
301.934
301.972
301.999
302.013
302.014
302.005
301.985
301.957
301.924
301.891
301.862
301.843
301.844
301.875
301.953
302.098
302.33
302.664
303.085
303.621
304.336
305.202
300.168
300.488
300.772
301.006
301.183
301.319
301.433
301.533
301.626
301.711
301.789
301.86
301.921
301.971
302.011
302.038
302.052
302.055
302.046
302.026
301.998
301.965
301.932
301.903
301.886
301.889
301.924
302.007
302.159
302.399
302.739
303.164
303.704
304.422
305.288
300.171
300.498
300.788
301.025
301.205
301.343
301.458
301.561
301.655
301.742
301.822
301.894
301.956
302.008
302.048
302.076
302.091
302.095
302.086
302.067
302.039
302.006
301.973
301.945
301.928
301.934
301.973
302.061
302.219
302.467
302.813
303.241
303.783
304.504
305.371
300.175
300.508
300.804
301.045
301.226
301.366
301.484
301.588
301.684
301.772
301.854
301.927
301.991
302.043
302.085
302.113
302.13
302.134
302.126
302.107
302.08
302.047
302.014
301.987
301.972
301.979
302.021
302.115
302.28
302.534
302.885
303.316
303.861
304.584
305.45
300.178
300.518
300.819
301.063
301.248
301.389
301.508
301.614
301.712
301.802
301.885
301.96
302.024
302.078
302.121
302.15
302.168
302.172
302.165
302.147
302.121
302.089
302.056
302.029
302.015
302.025
302.07
302.169
302.339
302.6
302.956
303.389
303.935
304.66
305.526
300.182
300.528
300.834
301.082
301.268
301.412
301.533
301.64
301.74
301.831
301.916
301.992
302.058
302.113
302.156
302.187
302.205
302.211
302.204
302.187
302.162
302.13
302.098
302.071
302.059
302.07
302.119
302.222
302.399
302.665
303.025
303.46
304.007
304.734
305.599
300.185
300.538
300.849
301.101
301.289
301.434
301.556
301.666
301.767
301.86
301.946
302.023
302.09
302.146
302.19
302.222
302.241
302.248
302.243
302.227
302.202
302.172
302.14
302.114
302.103
302.116
302.168
302.276
302.457
302.728
303.092
303.529
304.077
304.804
305.669
300.189
300.548
300.864
301.119
301.309
301.456
301.58
301.691
301.794
301.889
301.976
302.054
302.123
302.18
302.225
302.257
302.277
302.285
302.281
302.267
302.243
302.213
302.183
302.158
302.147
302.162
302.217
302.329
302.515
302.791
303.157
303.595
304.144
304.872
305.736
300.192
300.557
300.878
301.136
301.329
301.478
301.603
301.716
301.82
301.917
302.006
302.085
302.154
302.212
302.258
302.292
302.313
302.322
302.319
302.306
302.283
302.255
302.225
302.201
302.192
302.209
302.266
302.381
302.572
302.852
303.221
303.659
304.209
304.937
305.801
300.195
300.567
300.892
301.154
301.349
301.499
301.626
301.741
301.847
301.945
302.035
302.116
302.186
302.245
302.292
302.326
302.348
302.358
302.357
302.345
302.324
302.296
302.268
302.245
302.236
302.255
302.315
302.433
302.628
302.912
303.284
303.722
304.271
305.001
305.864
300.199
300.576
300.907
301.171
301.368
301.52
301.649
301.765
301.873
301.972
302.064
302.146
302.217
302.277
302.325
302.36
302.383
302.394
302.394
302.384
302.364
302.338
302.31
302.288
302.281
302.302
302.364
302.485
302.684
302.971
303.345
303.783
304.332
305.062
305.925
300.202
300.585
300.921
301.189
301.387
301.541
301.671
301.789
301.899
302
302.093
302.176
302.248
302.309
302.357
302.393
302.418
302.43
302.431
302.422
302.404
302.379
302.353
302.332
302.326
302.348
302.413
302.537
302.739
303.029
303.404
303.843
304.392
305.121
305.984
300.205
300.594
300.935
301.206
301.406
301.561
301.694
301.814
301.924
302.027
302.121
302.206
302.279
302.341
302.39
302.427
302.452
302.465
302.467
302.46
302.443
302.42
302.396
302.376
302.372
302.395
302.461
302.588
302.793
303.087
303.463
303.901
304.45
305.179
306.042
300.208
300.603
300.948
301.223
301.425
301.582
301.716
301.838
301.95
302.054
302.15
302.235
302.31
302.372
302.422
302.46
302.486
302.5
302.504
302.497
302.482
302.461
302.438
302.42
302.417
302.442
302.51
302.639
302.847
303.143
303.52
303.958
304.506
305.236
306.098
300.212
300.612
300.962
301.239
301.444
301.603
301.738
301.861
301.975
302.081
302.178
302.265
302.34
302.403
302.454
302.493
302.519
302.535
302.54
302.535
302.521
302.502
302.48
302.464
302.462
302.489
302.559
302.691
302.901
303.199
303.577
304.014
304.562
305.291
306.153
300.215
300.621
300.976
301.256
301.463
301.623
301.76
301.885
302.001
302.108
302.207
302.295
302.371
302.435
302.486
302.525
302.553
302.569
302.575
302.572
302.56
302.542
302.523
302.508
302.508
302.535
302.607
302.741
302.954
303.254
303.633
304.069
304.616
305.346
306.207
300.218
300.63
300.989
301.273
301.481
301.643
301.783
301.909
302.027
302.136
302.235
302.324
302.401
302.466
302.518
302.558
302.586
302.603
302.61
302.608
302.598
302.582
302.565
302.551
302.553
302.582
302.656
302.792
303.007
303.309
303.688
304.124
304.67
305.399
306.26
300.221
300.639
301.003
301.289
301.5
301.664
301.805
301.933
302.052
302.163
302.264
302.354
302.432
302.497
302.55
302.591
302.619
302.637
302.646
302.645
302.636
302.622
302.606
302.595
302.598
302.629
302.705
302.843
303.06
303.364
303.743
304.177
304.723
305.452
306.313
300.224
300.648
301.016
301.306
301.518
301.684
301.827
301.957
302.078
302.19
302.292
302.384
302.463
302.529
302.582
302.623
302.653
302.671
302.681
302.681
302.674
302.662
302.648
302.638
302.643
302.676
302.753
302.893
303.112
303.417
303.796
304.23
304.775
305.503
306.364
300.227
300.657
301.03
301.322
301.537
301.704
301.849
301.981
302.103
302.217
302.321
302.413
302.493
302.56
302.614
302.656
302.686
302.705
302.715
302.717
302.712
302.701
302.689
302.681
302.688
302.722
302.801
302.943
303.164
303.471
303.85
304.283
304.826
305.554
306.415
300.23
300.665
301.043
301.339
301.555
301.724
301.871
302.005
302.129
302.245
302.35
302.443
302.524
302.592
302.646
302.688
302.719
302.739
302.75
302.753
302.749
302.74
302.73
302.724
302.733
302.769
302.849
302.993
303.215
303.523
303.902
304.334
304.877
305.605
306.465
300.233
300.674
301.057
301.356
301.574
301.745
301.893
302.029
302.155
302.272
302.379
302.473
302.555
302.623
302.678
302.721
302.752
302.773
302.785
302.789
302.786
302.779
302.77
302.767
302.777
302.815
302.897
303.042
303.266
303.575
303.955
304.385
304.927
305.654
306.514
300.237
300.683
301.07
301.372
301.592
301.765
301.915
302.053
302.181
302.3
302.408
302.503
302.586
302.655
302.71
302.753
302.785
302.806
302.819
302.824
302.823
302.817
302.811
302.809
302.821
302.861
302.945
303.092
303.317
303.627
304.006
304.436
304.976
305.703
306.563
300.24
300.692
301.084
301.389
301.611
301.785
301.937
302.077
302.207
302.328
302.437
302.534
302.617
302.686
302.742
302.786
302.818
302.84
302.854
302.86
302.86
302.856
302.851
302.851
302.865
302.907
302.993
303.141
303.368
303.679
304.057
304.486
305.025
305.752
306.612
300.243
300.701
301.097
301.405
301.629
301.806
301.96
302.101
302.233
302.355
302.466
302.564
302.648
302.718
302.774
302.818
302.851
302.874
302.888
302.895
302.896
302.894
302.891
302.893
302.91
302.953
303.04
303.19
303.418
303.73
304.108
304.535
305.074
305.8
306.661
300.246
300.71
301.111
301.422
301.648
301.826
301.982
302.126
302.26
302.384
302.496
302.595
302.679
302.75
302.806
302.851
302.884
302.907
302.922
302.93
302.933
302.932
302.931
302.935
302.953
302.999
303.088
303.239
303.468
303.781
304.159
304.585
305.122
305.849
306.709
300.249
300.719
301.124
301.438
301.667
301.847
302.005
302.15
302.286
302.412
302.525
302.625
302.711
302.782
302.839
302.883
302.917
302.941
302.956
302.965
302.969
302.97
302.971
302.977
302.997
303.045
303.136
303.288
303.519
303.832
304.209
304.634
305.171
305.897
306.758
300.252
300.728
301.138
301.455
301.685
301.867
302.027
302.175
302.313
302.44
302.555
302.656
302.742
302.814
302.871
302.916
302.95
302.974
302.99
303
303.006
303.008
303.01
303.019
303.041
303.091
303.184
303.338
303.57
303.883
304.26
304.684
305.219
305.946
306.808
300.255
300.737
301.152
301.472
301.704
301.888
302.05
302.2
302.34
302.469
302.585
302.687
302.774
302.846
302.903
302.948
302.983
303.007
303.025
303.035
303.042
303.046
303.05
303.061
303.085
303.137
303.232
303.388
303.621
303.935
304.311
304.734
305.268
305.995
306.858
300.259
300.746
301.165
301.488
301.723
301.909
302.073
302.225
302.367
302.498
302.616
302.718
302.806
302.878
302.936
302.981
303.016
303.041
303.059
303.07
303.078
303.083
303.09
303.102
303.13
303.184
303.281
303.439
303.673
303.987
304.363
304.784
305.318
306.045
306.908
300.262
300.755
301.179
301.505
301.742
301.93
302.096
302.25
302.394
302.527
302.646
302.75
302.838
302.91
302.968
303.014
303.049
303.074
303.093
303.105
303.114
303.121
303.129
303.144
303.174
303.231
303.33
303.49
303.725
304.04
304.415
304.835
305.368
306.096
306.959
300.265
300.764
301.193
301.522
301.761
301.951
302.119
302.276
302.422
302.556
302.677
302.781
302.87
302.942
303.001
303.046
303.081
303.108
303.127
303.14
303.15
303.158
303.168
303.186
303.218
303.277
303.379
303.541
303.779
304.094
304.468
304.887
305.419
306.147
307.011
300.268
300.773
301.207
301.539
301.78
301.972
302.143
302.301
302.45
302.586
302.707
302.813
302.902
302.975
303.033
303.079
303.114
303.141
303.16
303.175
303.186
303.196
303.208
303.227
303.262
303.325
303.429
303.594
303.832
304.148
304.522
304.939
305.471
306.199
307.064
300.271
300.782
301.221
301.556
301.799
301.993
302.166
302.327
302.478
302.616
302.738
302.845
302.934
303.007
303.066
303.112
303.147
303.174
303.194
303.209
303.221
303.233
303.247
303.269
303.307
303.372
303.48
303.646
303.887
304.203
304.576
304.992
305.523
306.251
307.117
300.275
300.791
301.235
301.573
301.818
302.015
302.19
302.353
302.506
302.646
302.77
302.877
302.966
303.04
303.099
303.145
303.18
303.207
303.228
303.244
303.257
303.27
303.286
303.31
303.351
303.419
303.53
303.7
303.942
304.259
304.63
305.045
305.575
306.304
307.17
300.278
300.8
301.249
301.59
301.838
302.036
302.214
302.38
302.535
302.676
302.801
302.909
302.999
303.072
303.131
303.177
303.213
303.24
303.262
303.278
303.293
303.307
303.325
303.352
303.395
303.467
303.581
303.753
303.997
304.315
304.686
305.099
305.628
306.357
307.223
300.281
300.81
301.263
301.607
301.857
302.058
302.238
302.407
302.564
302.707
302.833
302.941
303.032
303.105
303.164
303.21
303.246
303.274
303.295
303.313
303.328
303.344
303.364
303.393
303.439
303.514
303.631
303.807
304.053
304.371
304.741
305.153
305.682
306.41
307.277
300.284
300.819
301.278
301.625
301.877
302.08
302.263
302.434
302.593
302.738
302.865
302.974
303.064
303.138
303.197
303.243
303.279
303.307
303.329
303.347
303.364
303.381
303.403
303.434
303.484
303.561
303.682
303.86
304.109
304.428
304.796
305.207
305.735
306.463
307.33
300.288
300.829
301.292
301.643
301.897
302.102
302.288
302.461
302.622
302.769
302.897
303.007
303.097
303.171
303.229
303.275
303.311
303.34
303.362
303.381
303.399
303.418
303.441
303.475
303.528
303.609
303.733
303.914
304.165
304.485
304.852
305.261
305.788
306.516
307.383
300.291
300.838
301.307
301.661
301.917
302.125
302.313
302.489
302.652
302.8
302.93
303.04
303.13
303.204
303.262
303.308
303.344
303.373
303.396
303.415
303.434
303.454
303.48
303.516
303.572
303.656
303.783
303.968
304.221
304.541
304.908
305.315
305.842
306.57
307.436
300.295
300.848
301.322
301.679
301.938
302.148
302.339
302.517
302.683
302.832
302.963
303.073
303.164
303.237
303.295
303.341
303.377
303.406
303.429
303.45
303.469
303.491
303.518
303.557
303.615
303.703
303.834
304.022
304.277
304.598
304.963
305.369
305.895
306.622
307.489
300.298
300.858
301.337
301.697
301.959
302.171
302.365
302.546
302.714
302.865
302.996
303.106
303.197
303.27
303.328
303.373
303.409
303.438
303.462
303.484
303.504
303.527
303.557
303.598
303.659
303.75
303.884
304.075
304.333
304.654
305.018
305.423
305.948
306.675
307.541
300.302
300.868
301.352
301.716
301.98
302.195
302.391
302.575
302.745
302.898
303.03
303.14
303.231
303.303
303.361
303.406
303.442
303.471
303.496
303.517
303.539
303.564
303.595
303.639
303.703
303.797
303.934
304.128
304.388
304.71
305.073
305.476
306
306.727
307.593
300.305
300.878
301.368
301.735
302.001
302.219
302.418
302.605
302.777
302.931
303.064
303.174
303.264
303.336
303.394
303.439
303.475
303.504
303.529
303.551
303.574
303.6
303.633
303.679
303.746
303.843
303.984
304.182
304.443
304.766
305.127
305.529
306.052
306.778
307.644
300.309
300.889
301.384
301.754
302.023
302.244
302.446
302.635
302.81
302.965
303.098
303.209
303.298
303.37
303.427
303.472
303.507
303.537
303.562
303.585
303.609
303.636
303.671
303.72
303.789
303.89
304.034
304.234
304.498
304.821
305.181
305.581
306.104
306.829
307.695
300.312
300.899
301.4
301.774
302.045
302.269
302.474
302.666
302.843
302.999
303.133
303.243
303.333
303.404
303.46
303.504
303.54
303.569
303.595
303.619
303.644
303.672
303.709
303.76
303.832
303.936
304.084
304.287
304.553
304.875
305.234
305.633
306.155
306.88
307.745
300.316
300.91
301.416
301.794
302.068
302.295
302.503
302.698
302.877
303.034
303.168
303.279
303.367
303.438
303.493
303.537
303.573
303.602
303.628
303.652
303.678
303.708
303.747
303.8
303.875
303.982
304.133
304.339
304.607
304.929
305.287
305.685
306.205
306.929
307.794
300.32
300.921
301.433
301.814
302.091
302.321
302.532
302.73
302.911
303.07
303.204
303.314
303.402
303.472
303.527
303.57
303.606
303.635
303.661
303.686
303.713
303.744
303.785
303.84
303.918
304.028
304.182
304.391
304.66
304.983
305.339
305.735
306.255
306.979
307.842
300.324
300.933
301.45
301.835
302.115
302.347
302.562
302.763
302.946
303.106
303.24
303.35
303.437
303.506
303.56
303.603
303.638
303.668
303.694
303.72
303.747
303.78
303.822
303.879
303.96
304.073
304.23
304.442
304.713
305.036
305.39
305.785
306.304
307.027
307.89
300.328
300.944
301.467
301.856
302.139
302.374
302.592
302.797
302.982
303.143
303.277
303.386
303.473
303.541
303.594
303.637
303.671
303.701
303.727
303.753
303.782
303.815
303.859
303.919
304.002
304.118
304.278
304.492
304.765
305.088
305.441
305.835
306.353
307.074
307.937
300.332
300.956
301.485
301.877
302.163
302.402
302.624
302.831
303.018
303.18
303.314
303.423
303.508
303.575
303.628
303.67
303.704
303.733
303.76
303.787
303.816
303.851
303.896
303.958
304.044
304.163
304.326
304.542
304.816
305.139
305.49
305.883
306.4
307.121
307.983
300.336
300.967
301.503
301.898
302.188
302.43
302.655
302.866
303.055
303.218
303.352
303.459
303.544
303.61
303.662
303.704
303.737
303.766
303.793
303.82
303.85
303.886
303.933
303.997
304.085
304.207
304.373
304.592
304.867
305.19
305.539
305.931
306.447
307.167
308.028
300.34
300.979
301.521
301.92
302.213
302.459
302.688
302.901
303.092
303.256
303.39
303.497
303.58
303.645
303.696
303.737
303.77
303.799
303.826
303.854
303.884
303.922
303.97
304.036
304.126
304.251
304.419
304.641
304.917
305.239
305.587
305.977
306.493
307.211
308.071
300.345
300.991
301.539
301.942
302.238
302.488
302.72
302.937
303.13
303.294
303.428
303.534
303.617
303.681
303.731
303.771
303.804
303.832
303.859
303.887
303.919
303.957
304.007
304.074
304.167
304.294
304.465
304.689
304.966
305.288
305.635
306.023
306.537
307.255
308.114
300.349
301.004
301.558
301.965
302.264
302.517
302.754
302.974
303.169
303.334
303.467
303.572
303.653
303.716
303.765
303.805
303.837
303.866
303.893
303.921
303.953
303.992
304.043
304.113
304.208
304.337
304.511
304.736
305.014
305.335
305.68
306.067
306.581
307.298
308.156
300.353
301.016
301.576
301.988
302.29
302.547
302.788
303.012
303.208
303.373
303.506
303.61
303.69
303.752
303.8
303.839
303.871
303.899
303.926
303.954
303.987
304.027
304.08
304.151
304.248
304.379
304.555
304.783
305.062
305.382
305.726
306.111
306.624
307.339
308.197
300.358
301.029
301.595
302.011
302.317
302.578
302.823
303.05
303.248
303.413
303.545
303.648
303.727
303.788
303.835
303.873
303.904
303.932
303.959
303.988
304.021
304.062
304.116
304.189
304.287
304.421
304.599
304.828
305.108
305.427
305.769
306.154
306.665
307.38
308.236
300.362
301.041
301.615
302.034
302.344
302.61
302.859
303.089
303.289
303.454
303.585
303.687
303.764
303.824
303.87
303.907
303.938
303.966
303.993
304.022
304.055
304.097
304.152
304.226
304.327
304.463
304.643
304.873
305.154
305.472
305.812
306.195
306.706
307.42
308.275
300.367
301.054
301.634
302.058
302.372
302.642
302.896
303.129
303.331
303.496
303.626
303.726
303.802
303.86
303.905
303.942
303.972
304
304.027
304.056
304.09
304.132
304.189
304.264
304.366
304.504
304.686
304.917
305.198
305.515
305.854
306.236
306.745
307.458
308.312
300.371
301.067
301.654
302.083
302.4
302.675
302.934
303.17
303.373
303.538
303.667
303.765
303.84
303.897
303.941
303.976
304.006
304.033
304.06
304.09
304.124
304.168
304.225
304.302
304.405
304.545
304.728
304.961
305.242
305.558
305.895
306.276
306.784
307.496
308.35
300.376
301.08
301.674
302.107
302.429
302.709
302.972
303.212
303.416
303.581
303.708
303.805
303.879
303.934
303.977
304.011
304.041
304.067
304.094
304.124
304.159
304.203
304.261
304.339
304.444
304.585
304.77
305.004
305.284
305.599
305.935
306.314
306.822
307.532
308.386
300.38
301.094
301.695
302.133
302.459
302.744
303.012
303.254
303.46
303.624
303.75
303.846
303.917
303.971
304.013
304.047
304.075
304.102
304.129
304.158
304.193
304.238
304.297
304.376
304.483
304.626
304.812
305.046
305.327
305.641
305.974
306.352
306.859
307.569
308.422
300.385
301.108
301.716
302.158
302.489
302.779
303.052
303.298
303.504
303.667
303.793
303.886
303.956
304.009
304.049
304.082
304.11
304.136
304.163
304.193
304.228
304.274
304.333
304.414
304.522
304.665
304.853
305.088
305.368
305.68
306.013
306.389
306.895
307.604
308.457
300.39
301.122
301.737
302.185
302.52
302.815
303.093
303.342
303.549
303.712
303.835
303.927
303.996
304.047
304.086
304.118
304.145
304.171
304.198
304.227
304.263
304.309
304.37
304.451
304.561
304.706
304.894
305.13
305.409
305.72
306.051
306.426
306.932
307.64
308.492
300.395
301.136
301.759
302.212
302.552
302.853
303.136
303.387
303.594
303.756
303.878
303.969
304.035
304.085
304.123
304.154
304.181
304.206
304.232
304.262
304.299
304.345
304.407
304.489
304.599
304.745
304.935
305.17
305.449
305.759
306.088
306.462
306.966
307.674
308.526
300.4
301.15
301.781
302.239
302.584
302.891
303.179
303.433
303.641
303.802
303.922
304.01
304.075
304.123
304.16
304.19
304.216
304.241
304.267
304.298
304.334
304.381
304.444
304.527
304.638
304.786
304.975
305.212
305.49
305.798
306.125
306.498
307.002
307.709
308.561
300.405
301.165
301.804
302.268
302.618
302.931
303.224
303.481
303.688
303.848
303.966
304.052
304.115
304.162
304.197
304.226
304.252
304.277
304.303
304.333
304.37
304.418
304.48
304.565
304.677
304.825
305.016
305.252
305.529
305.836
306.161
306.533
307.036
307.743
308.595
300.41
301.18
301.828
302.297
302.654
302.973
303.271
303.53
303.737
303.895
304.011
304.095
304.156
304.201
304.235
304.263
304.288
304.312
304.338
304.369
304.406
304.454
304.518
304.603
304.717
304.866
305.057
305.293
305.57
305.874
306.198
306.569
307.071
307.778
308.629
300.416
301.196
301.853
302.328
302.691
303.017
303.32
303.581
303.788
303.944
304.057
304.139
304.197
304.24
304.273
304.3
304.324
304.348
304.374
304.404
304.442
304.491
304.555
304.641
304.756
304.906
305.097
305.333
305.609
305.912
306.234
306.603
307.106
307.812
308.663
300.422
301.213
301.878
302.361
302.729
303.063
303.371
303.634
303.84
303.994
304.104
304.183
304.239
304.28
304.312
304.338
304.361
304.385
304.41
304.441
304.479
304.528
304.593
304.68
304.796
304.947
305.139
305.374
305.649
305.95
306.27
306.639
307.141
307.847
308.699
300.428
301.23
301.905
302.394
302.77
303.11
303.424
303.688
303.894
304.045
304.152
304.228
304.281
304.321
304.351
304.376
304.398
304.421
304.447
304.477
304.516
304.565
304.631
304.719
304.835
304.987
305.18
305.415
305.688
305.988
306.306
306.674
307.175
307.881
308.733
300.434
301.248
301.933
302.429
302.811
303.16
303.479
303.744
303.948
304.097
304.201
304.274
304.325
304.362
304.39
304.414
304.436
304.458
304.484
304.514
304.553
304.603
304.67
304.759
304.876
305.029
305.222
305.457
305.729
306.026
306.343
306.71
307.211
307.917
308.769
300.44
301.267
301.962
302.465
302.855
303.211
303.535
303.802
304.004
304.15
304.251
304.32
304.368
304.403
304.43
304.453
304.474
304.496
304.521
304.552
304.591
304.641
304.709
304.799
304.917
305.07
305.263
305.498
305.768
306.064
306.379
306.745
307.246
307.951
308.804
300.447
301.286
301.992
302.502
302.9
303.264
303.593
303.861
304.062
304.204
304.301
304.367
304.413
304.445
304.47
304.492
304.512
304.534
304.559
304.589
304.629
304.68
304.749
304.839
304.958
305.112
305.306
305.54
305.81
306.103
306.417
306.782
307.282
307.988
308.84
300.454
301.306
302.022
302.541
302.946
303.319
303.653
303.922
304.12
304.258
304.352
304.415
304.457
304.488
304.511
304.531
304.551
304.572
304.597
304.627
304.667
304.719
304.788
304.88
305
305.154
305.348
305.581
305.849
306.141
306.453
306.817
307.317
308.023
308.876
300.461
301.327
302.054
302.58
302.995
303.376
303.714
303.983
304.179
304.314
304.404
304.463
304.503
304.531
304.553
304.572
304.59
304.611
304.635
304.666
304.706
304.759
304.829
304.921
305.042
305.198
305.392
305.625
305.891
306.182
306.492
306.855
307.355
308.06
308.913
300.469
301.348
302.087
302.622
303.044
303.434
303.777
304.047
304.24
304.371
304.457
304.512
304.549
304.575
304.595
304.612
304.63
304.65
304.674
304.705
304.745
304.798
304.869
304.962
305.084
305.24
305.434
305.667
305.932
306.22
306.529
306.891
307.391
308.096
308.949
300.476
301.37
302.121
302.664
303.096
303.494
303.842
304.111
304.302
304.428
304.51
304.562
304.595
304.619
304.637
304.653
304.67
304.69
304.714
304.745
304.785
304.839
304.911
305.005
305.128
305.285
305.479
305.711
305.975
306.261
306.569
306.93
307.429
308.135
308.988
300.484
301.393
302.155
302.708
303.149
303.555
303.907
304.176
304.364
304.487
304.564
304.612
304.642
304.663
304.68
304.695
304.711
304.73
304.753
304.784
304.825
304.88
304.952
305.047
305.171
305.328
305.522
305.753
306.016
306.3
306.606
306.966
307.466
308.171
309.024
300.493
301.417
302.191
302.753
303.203
303.618
303.974
304.243
304.427
304.546
304.618
304.662
304.69
304.709
304.723
304.737
304.752
304.77
304.794
304.825
304.866
304.921
304.995
305.091
305.215
305.373
305.568
305.799
306.059
306.342
306.647
307.007
307.505
308.211
309.064
300.501
301.441
302.228
302.8
303.259
303.682
304.042
304.31
304.491
304.605
304.674
304.714
304.738
304.754
304.767
304.779
304.793
304.811
304.834
304.865
304.907
304.963
305.037
305.134
305.259
305.417
305.612
305.841
306.101
306.381
306.684
307.043
307.542
308.247
309.101
300.51
301.466
302.266
302.848
303.316
303.749
304.112
304.379
304.557
304.666
304.73
304.766
304.787
304.801
304.812
304.823
304.836
304.853
304.876
304.907
304.949
305.005
305.08
305.178
305.305
305.464
305.659
305.888
306.146
306.425
306.726
307.085
307.583
308.288
309.142
300.519
301.492
302.306
302.898
303.376
303.817
304.185
304.451
304.624
304.728
304.786
304.818
304.836
304.847
304.856
304.866
304.878
304.895
304.917
304.948
304.991
305.047
305.123
305.222
305.349
305.509
305.703
305.931
306.187
306.464
306.764
307.122
307.621
308.326
309.179
300.528
301.519
302.347
302.95
303.438
303.888
304.259
304.524
304.693
304.791
304.844
304.872
304.886
304.895
304.902
304.91
304.921
304.937
304.96
304.991
305.034
305.091
305.168
305.268
305.396
305.556
305.751
305.978
306.233
306.509
306.807
307.165
307.663
308.368
309.222
300.538
301.547
302.389
303.003
303.502
303.961
304.335
304.599
304.763
304.856
304.904
304.926
304.937
304.943
304.948
304.955
304.965
304.98
305.002
305.033
305.076
305.134
305.211
305.312
305.441
305.601
305.796
306.022
306.275
306.549
306.846
307.203
307.701
308.405
309.259
300.549
301.576
302.433
303.057
303.566
304.034
304.412
304.675
304.835
304.922
304.964
304.982
304.989
304.992
304.995
305
305.009
305.024
305.046
305.077
305.12
305.179
305.258
305.359
305.489
305.65
305.845
306.07
306.322
306.594
306.89
307.246
307.745
308.449
309.303
300.559
301.606
302.476
303.112
303.631
304.107
304.49
304.752
304.908
304.989
305.025
305.038
305.042
305.042
305.042
305.046
305.054
305.067
305.089
305.12
305.163
305.223
305.302
305.404
305.534
305.696
305.89
306.114
306.364
306.635
306.929
307.285
307.783
308.487
309.341
300.57
301.636
302.521
303.167
303.696
304.181
304.568
304.829
304.981
305.057
305.088
305.096
305.095
305.092
305.091
305.092
305.099
305.112
305.133
305.164
305.209