/*--------------------------------*- C++ -*----------------------------------*\
| =========                 |                                                 |
| \\      /  F ield         | OpenFOAM: The Open Source CFD Toolbox           |
|  \\    /   O peration     | Version:  v2006                                 |
|   \\  /    A nd           | Website:  www.openfoam.com                      |
|    \\/     M anipulation  |                                                 |
\*---------------------------------------------------------------------------*/
FoamFile
{
    version     2.0;
    format      ascii;
    class       volVectorField;
    location    "74";
    object      U;
}
// * * * * * * * * * * * * * * * * * * * * * * * * * * * * * * * * * * * * * //

dimensions      [0 1 -1 0 0 0 0];


internalField   nonuniform List<vector> 
78750
(
(0.00170525 -0.00109454 0.000483405)
(0.00298109 -0.0011954 0.00247239)
(0.00378841 -0.00178173 0.00382289)
(0.00418342 -0.00239407 0.00476347)
(0.00504748 -0.00298858 0.00539188)
(0.00608103 -0.00356137 0.00578591)
(0.00721341 -0.00409097 0.00601362)
(0.00842489 -0.00455385 0.0061272)
(0.00969754 -0.00493032 0.00616388)
(0.0110055 -0.00520635 0.00614896)
(0.0123202 -0.00537396 0.00609887)
(0.0136139 -0.00543097 0.00602361)
(0.0148601 -0.00537862 0.00592857)
(0.0160328 -0.00521279 0.00581856)
(0.0171098 -0.00493802 0.00569573)
(0.0180689 -0.00456207 0.00556157)
(0.0188892 -0.00409424 0.00541738)
(0.0195525 -0.00354448 0.00526458)
(0.0200426 -0.0029233 0.00510491)
(0.0203458 -0.00224168 0.00494063)
(0.0204513 -0.0015111 0.00477464)
(0.020352 -0.000743619 0.00461043)
(0.0200399 4.73477e-05 0.00445225)
(0.0195071 0.00084627 0.00430542)
(0.018753 0.00163668 0.00417619)
(0.0177847 0.00239975 0.0040717)
(0.0166136 0.00311117 0.00399901)
(0.0152562 0.00374519 0.00396525)
(0.0137326 0.0042834 0.00397701)
(0.0120612 0.00473516 0.00403687)
(0.0102427 0.00520476 0.0041271)
(0.00821377 0.00598345 0.00415544)
(0.00583057 0.00735506 0.00386802)
(0.00314602 0.00852589 0.00288918)
(0.000754449 0.00609332 0.00108401)
(5.88491e-05 -0.00350432 0.000757913)
(0.000494777 -0.00638176 0.00242628)
(0.00136351 -0.00889605 0.0035118)
(0.00251612 -0.011088 0.00420482)
(0.00389156 -0.012991 0.00464452)
(0.00542052 -0.014576 0.00492316)
(0.00703694 -0.0158129 0.00510027)
(0.00868466 -0.0166887 0.00521332)
(0.0103187 -0.0172047 0.00528514)
(0.0119024 -0.0173716 0.00532902)
(0.0134067 -0.0172062 0.0053519)
(0.0148111 -0.0167313 0.00535472)
(0.0160827 -0.0159848 0.00532672)
(0.0172094 -0.0149991 0.00526669)
(0.0181905 -0.0137835 0.00518452)
(0.0190082 -0.0123523 0.00508334)
(0.0196508 -0.0107234 0.0049648)
(0.0201105 -0.00891622 0.00483026)
(0.0203806 -0.00695164 0.00468077)
(0.0204561 -0.00485185 0.00451719)
(0.0203334 -0.00264037 0.00434078)
(0.0200115 -0.000343061 0.00415336)
(0.0194904 0.00200894 0.00395786)
(0.0187708 0.00437824 0.00375891)
(0.0178556 0.0067187 0.003563)
(0.016754 0.00896988 0.00337666)
(0.0154762 0.0110806 0.00321324)
(0.0140243 0.0130265 0.00309693)
(0.0124104 0.0148106 0.00305068)
(0.0106476 0.0165235 0.00308852)
(0.00872047 0.0184538 0.00320371)
(0.00657708 0.0210588 0.00331575)
(0.00426186 0.0241564 0.00318342)
(0.00200906 0.0250475 0.00246128)
(0.000243689 0.0160682 0.00097)
(1.34381e-06 -0.005489 0.000960617)
(0.000477405 -0.0127426 0.00252066)
(0.0014196 -0.0184709 0.00345988)
(0.00267672 -0.0229476 0.00401171)
(0.00411983 -0.0262752 0.00433534)
(0.00564434 -0.0285809 0.00452846)
(0.00717744 -0.0300101 0.00464845)
(0.00867235 -0.0306959 0.00472689)
(0.010099 -0.0307474 0.00478002)
(0.0114375 -0.0302502 0.00481617)
(0.0126744 -0.0292746 0.00483795)
(0.0137969 -0.0278834 0.0048438)
(0.0147933 -0.0261342 0.0048317)
(0.0156577 -0.0240687 0.00480496)
(0.0163826 -0.0217105 0.00476913)
(0.0169589 -0.0190878 0.00472596)
(0.0173812 -0.0162294 0.00467672)
(0.0176456 -0.0131655 0.00462215)
(0.0177491 -0.0099287 0.00456148)
(0.01769 -0.00655899 0.00449101)
(0.0174687 -0.00309358 0.00440741)
(0.0170835 0.000451979 0.00431298)
(0.016535 0.00406261 0.00420941)
(0.0158242 0.00770304 0.00409198)
(0.0149522 0.0113192 0.00395461)
(0.0139241 0.0148393 0.00379367)
(0.0127495 0.0181865 0.00361324)
(0.0114407 0.0213042 0.00342785)
(0.010011 0.0242056 0.00326137)
(0.00846446 0.0270501 0.00314108)
(0.00677715 0.0301849 0.00307862)
(0.00491686 0.0338592 0.00301851)
(0.00305433 0.0370568 0.0027801)
(0.00135047 0.0360952 0.00210167)
(0.000131034 0.0213573 0.000820653)
(4.43924e-05 -0.00750097 0.000940929)
(0.000605547 -0.018646 0.00221678)
(0.00155502 -0.0271466 0.00289704)
(0.00273634 -0.0332456 0.00325592)
(0.00399979 -0.0372195 0.00345114)
(0.00525194 -0.0395377 0.00356187)
(0.00645486 -0.0406519 0.00362646)
(0.00759603 -0.0408714 0.00366307)
(0.00866562 -0.0403873 0.00367717)
(0.00965956 -0.0393205 0.00367064)
(0.0105765 -0.0377436 0.00364761)
(0.0114099 -0.0357087 0.00361078)
(0.0121518 -0.0332675 0.00355861)
(0.0127936 -0.0304686 0.0034902)
(0.0133271 -0.0273458 0.00340986)
(0.013744 -0.0239275 0.00332443)
(0.0140365 -0.0202471 0.0032412)
(0.0141999 -0.0163393 0.00316831)
(0.0142318 -0.0122382 0.00311443)
(0.0141313 -0.00797559 0.00308786)
(0.0138978 -0.0035794 0.0030951)
(0.0135308 0.000925832 0.00313972)
(0.0130349 0.00551129 0.00321978)
(0.0124166 0.0101345 0.00332315)
(0.0116792 0.0147323 0.00342735)
(0.0108269 0.0192184 0.00350331)
(0.00986685 0.0235007 0.00352503)
(0.00880815 0.0275293 0.00348127)
(0.00765651 0.0313666 0.00338159)
(0.00640491 0.0352443 0.00325057)
(0.00502737 0.039486 0.00310569)
(0.00352125 0.0439505 0.00291572)
(0.0021013 0.0468632 0.00257348)
(0.000865378 0.0440635 0.00189856)
(4.48999e-05 0.0247408 0.000737733)
(3.45818e-05 -0.00972764 0.000811246)
(0.000521677 -0.0242281 0.00180288)
(0.00130369 -0.0347084 0.00231331)
(0.00224918 -0.0416563 0.00259259)
(0.00323025 -0.0457336 0.0027556)
(0.00418558 -0.0478261 0.00285174)
(0.00510322 -0.0486228 0.00290524)
(0.00598463 -0.0485065 0.00292973)
(0.00683168 -0.0476617 0.00292894)
(0.00763865 -0.0461852 0.0029043)
(0.00839247 -0.0441566 0.00285551)
(0.00908805 -0.0416338 0.00278146)
(0.0097182 -0.0386408 0.00268526)
(0.0102674 -0.0352019 0.00257061)
(0.0107196 -0.0313544 0.00244245)
(0.0110621 -0.027148 0.00230808)
(0.0112864 -0.0226427 0.0021768)
(0.011389 -0.0179036 0.00205989)
(0.011371 -0.0129936 0.00197027)
(0.0112376 -0.00796598 0.00192212)
(0.0109968 -0.00286038 0.00193004)
(0.0106576 0.00229642 0.00200681)
(0.0102289 0.00748328 0.00215938)
(0.00971841 0.0126719 0.00238301)
(0.00913143 0.0178153 0.00265562)
(0.00847071 0.0228459 0.00293703)
(0.0077364 0.0276967 0.00317784)
(0.00692577 0.0323574 0.0033362)
(0.00603075 0.0369414 0.00339152)
(0.00503416 0.0416977 0.0033437)
(0.0039132 0.046803 0.00319715)
(0.00269942 0.0516531 0.00293861)
(0.00158444 0.0540436 0.00252324)
(0.00063252 0.0495448 0.00182831)
(3.00664e-05 0.0267918 0.000703705)
(4.14143e-05 -0.0116397 0.000614617)
(0.000460083 -0.0288408 0.00136213)
(0.00110134 -0.040858 0.00176775)
(0.00186361 -0.0484799 0.00200398)
(0.00264724 -0.0527077 0.0021393)
(0.00341038 -0.0547355 0.00220673)
(0.00414933 -0.0553985 0.00222625)
(0.0048749 -0.0551062 0.00221128)
(0.00558585 -0.0540249 0.00216674)
(0.0062627 -0.0522639 0.0020961)
(0.00690361 -0.0498882 0.00199939)
(0.00750399 -0.0469088 0.0018775)
(0.00804489 -0.0433452 0.00173203)
(0.00850973 -0.0392331 0.00156637)
(0.00888433 -0.0346332 0.00138576)
(0.00915797 -0.0296318 0.00119771)
(0.00932476 -0.0243328 0.00101236)
(0.00938404 -0.018844 0.00084247)
(0.00933984 -0.0132633 0.000703395)
(0.00919986 -0.00766737 0.0006128)
(0.00897431 -0.0021055 0.000589804)
(0.00867494 0.00339867 0.000652991)
(0.00831352 0.00884017 0.000816671)
(0.00789988 0.0142218 0.00108522)
(0.00744018 0.0195415 0.00144624)
(0.00693489 0.024787 0.00186559)
(0.00637774 0.029954 0.00229053)
(0.00575561 0.0350942 0.00266278)
(0.00504936 0.0403663 0.00293329)
(0.00423532 0.0459993 0.00306642)
(0.00329378 0.0519794 0.00303464)
(0.0022762 0.0572675 0.00281765)
(0.00134597 0.0593719 0.00240126)
(0.000546235 0.0536293 0.00170881)
(3.63936e-05 0.0283611 0.000629195)
(2.89712e-05 -0.0131994 0.000489423)
(0.000355116 -0.0324923 0.00111535)
(0.000863573 -0.0456617 0.00149857)
(0.00148282 -0.0537772 0.00174915)
(0.0021291 -0.0581168 0.00190408)
(0.00276666 -0.0601008 0.00198863)
(0.00339494 -0.0606555 0.00202342)
(0.00402057 -0.0602032 0.00202121)
(0.00463291 -0.058917 0.00199099)
(0.00522126 -0.0568912 0.00193366)
(0.00578409 -0.0541497 0.00184801)
(0.00630737 -0.0506994 0.00173513)
(0.00677759 -0.0465557 0.00159588)
(0.00718146 -0.0417649 0.00143133)
(0.0075074 -0.0364148 0.00124334)
(0.00774727 -0.0306294 0.0010354)
(0.00789728 -0.0245529 0.000813657)
(0.00795695 -0.0183303 0.000588159)
(0.00792944 -0.0120911 0.000373968)
(0.00782158 -0.00593785 0.000191199)
(0.00764187 6.06952e-05 6.41261e-05)
(0.00740074 0.00586958 1.87689e-05)
(0.00710942 0.0114852 7.87068e-05)
(0.00677686 0.0169318 0.000259495)
(0.00640835 0.022253 0.000562073)
(0.00600339 0.0275059 0.000966849)
(0.00555356 0.032772 0.00143251)
(0.00504227 0.0381864 0.00190185)
(0.0044467 0.0439541 0.0023107)
(0.00374173 0.0502557 0.0025929)
(0.00291077 0.0568576 0.00268544)
(0.0020188 0.0623494 0.00254766)
(0.00120046 0.0641045 0.00217499)
(0.000490881 0.0572071 0.00152376)
(3.58797e-05 0.0298003 0.000538231)
(2.41697e-05 -0.0144946 0.000388324)
(0.000294632 -0.0356221 0.000936562)
(0.000725734 -0.0499317 0.00130883)
(0.00126129 -0.0586707 0.00156339)
(0.00182684 -0.0632823 0.00172011)
(0.00238955 -0.0653556 0.00180336)
(0.00295147 -0.0659065 0.00183595)
(0.00351173 -0.0653862 0.0018305)
(0.00406198 -0.0639753 0.00179627)
(0.00459548 -0.0617434 0.00173454)
(0.0051036 -0.0587061 0.00164798)
(0.00557629 -0.0548619 0.00153843)
(0.00600214 -0.0502286 0.00140712)
(0.00637006 -0.0448678 0.0012549)
(0.00667091 -0.0388913 0.00108244)
(0.00689824 -0.03245 0.000890539)
(0.00704836 -0.0257157 0.000681287)
(0.00712069 -0.0188613 0.000459644)
(0.00711755 -0.012041 0.000235119)
(0.00704423 -0.00537802 2.30706e-05)
(0.00690865 0.00104152 -0.000155024)
(0.00671938 0.00717174 -0.00027295)
(0.0064855 0.013009 -0.000303032)
(0.0062156 0.0185919 -0.000221371)
(0.00591408 0.0239975 -1.40507e-05)
(0.00557874 0.0293376 0.00031667)
(0.00519906 0.0347665 0.000748072)
(0.00475622 0.0404944 0.00123608)
(0.00422566 0.046773 0.00171619)
(0.00358182 0.0537452 0.00210465)
(0.00280863 0.0609914 0.00230849)
(0.00197506 0.0667903 0.0022599)
(0.00119922 0.0683743 0.0019515)
(0.000508532 0.0605751 0.00135971)
(4.73342e-05 0.0312606 0.000468158)
(2.06727e-05 -0.0155627 0.000343805)
(0.000264504 -0.0382253 0.000867842)
(0.000661471 -0.0535077 0.00124608)
(0.00116027 -0.0627805 0.00150966)
(0.00168886 -0.0676227 0.00167161)
(0.00221512 -0.0697651 0.00175733)
(0.00274075 -0.0702978 0.00179157)
(0.00326408 -0.0696929 0.00178863)
(0.00377608 -0.0681327 0.00175571)
(0.00426928 -0.0656787 0.00169739)
(0.00473661 -0.0623361 0.0016165)
(0.0051695 -0.0580974 0.00151462)
(0.00555864 -0.0529842 0.00139228)
(0.00589549 -0.0470713 0.00124919)
(0.00617323 -0.040489 0.00108454)
(0.00638694 -0.0334098 0.000897656)
(0.00653336 -0.0260284 0.000689084)
(0.00661099 -0.0185412 0.000461728)
(0.00662066 -0.0111285 0.000222453)
(0.00656532 -0.00393884 -1.65456e-05)
(0.00645035 0.00291725 -0.000236903)
(0.00628334 0.00937404 -0.000414555)
(0.00607327 0.0154222 -0.000522042)
(0.00582851 0.0211145 -0.000532459)
(0.00555393 0.0265631 -0.000424251)
(0.00524793 0.031936 -0.000186525)
(0.00490011 0.0374589 0.000175659)
(0.00449211 0.0434128 0.000635363)
(0.00399982 0.0500887 0.00113659)
(0.00339717 0.0575867 0.0015894)
(0.00266767 0.0653137 0.00188031)
(0.00188307 0.0712898 0.00191636)
(0.00114649 0.0726482 0.00168179)
(0.00048459 0.0639409 0.0011676)
(4.24589e-05 0.0327579 0.000390678)
(1.74707e-05 -0.0166384 0.000327816)
(0.000242537 -0.040914 0.00084951)
(0.000613667 -0.0572589 0.00123387)
(0.00108315 -0.0671404 0.00150074)
(0.00158142 -0.0722657 0.00166302)
(0.00207742 -0.0745122 0.00174848)
(0.00257306 -0.0750536 0.00178329)
(0.0030666 -0.0743899 0.00178248)
(0.00354886 -0.0727081 0.00175394)
(0.00401237 -0.070066 0.00170254)
(0.0044502 -0.0664637 0.00163154)
(0.00485442 -0.0618927 0.00154296)
(0.00521697 -0.0563795 0.00143743)
(0.00553093 -0.050009 0.00131418)
(0.00579124 -0.0429241 0.00117126)
(0.00599453 -0.0353092 0.00100634)
(0.0061387 -0.0273706 0.00081766)
(0.00622254 -0.0193176 0.000605302)
(0.00624617 -0.0113449 0.000372621)
(0.00621136 -0.00361832 0.000127901)
(0.0061219 0.00372975 -0.000114391)
(0.00598297 0.0106118 -0.000333345)
(0.00580127 0.0170034 -0.000503016)
(0.00558344 0.0229566 -0.000595463)
(0.00533359 0.0286014 -0.00058457)
(0.00505034 0.0341449 -0.00045013)
(0.00472443 0.0398689 -0.000182712)
(0.00433801 0.0461166 0.000208144)
(0.00386813 0.0532167 0.00068091)
(0.00329068 0.061238 0.00114983)
(0.00258899 0.0694413 0.00149159)
(0.00183571 0.0756202 0.00159314)
(0.00112285 0.0767991 0.00142774)
(0.000475655 0.0672444 0.000993909)
(4.2791e-05 0.0342347 0.000326808)
(1.89876e-05 -0.0175801 0.000314797)
(0.000244801 -0.0432516 0.000828038)
(0.000613692 -0.0605107 0.00120953)
(0.00107473 -0.07091 0.00147193)
(0.00155875 -0.0762712 0.00162867)
(0.00203662 -0.0785978 0.0017092)
(0.00251142 -0.0791321 0.00174012)
(0.00298179 -0.0783967 0.00173663)
(0.0034388 -0.0765814 0.00170691)
(0.00387528 -0.0737402 0.00165627)
(0.00428479 -0.0698693 0.00158837)
(0.00466018 -0.0649609 0.00150548)
(0.00499444 -0.0590492 0.00140822)
(0.00528193 -0.0522318 0.00129556)
(0.00551885 -0.0446653 0.00116526)
(0.00570288 -0.0365474 0.0010146)
(0.00583277 -0.0280959 0.000841361)
(0.00590792 -0.019531 0.000644747)
(0.00592848 -0.0110584 0.000426318)
(0.00589531 -0.00285747 0.000191334)
(0.00581155 0.0049238 -4.96833e-05)
(0.00568224 0.012181 -0.000280284)
(0.00551254 0.0188805 -0.000478449)
(0.00530767 0.0250765 -0.000618432)
(0.00507094 0.0309169 -0.000673489)
(0.00480086 0.0366413 -0.000618713)
(0.00448906 0.0425771 -0.00043501)
(0.00411926 0.049115 -0.000117893)
(0.0036696 0.0566085 0.00030622)
(0.00311721 0.0650851 0.000761945)
(0.00244705 0.0736659 0.00112584)
(0.00173311 0.0799509 0.00127337)
(0.00105576 0.0808862 0.00116872)
(0.000440554 0.0704453 0.000815161)
(3.64548e-05 0.0356457 0.000260448)
(1.74674e-05 -0.0186301 0.000326474)
(0.000238116 -0.0458625 0.000857626)
(0.000596378 -0.0641219 0.00124695)
(0.00104158 -0.0750591 0.00150862)
(0.00150594 -0.0806466 0.00166139)
(0.0019622 -0.0830411 0.00173873)
(0.00241427 -0.0835604 0.0017685)
(0.00286098 -0.0827494 0.00176619)
(0.00329353 -0.0808021 0.00174024)
(0.00370496 -0.0777712 0.00169619)
(0.00408914 -0.0736516 0.00163788)
(0.00443956 -0.0684383 0.00156752)
(0.00475022 -0.0621725 0.00148526)
(0.00501669 -0.0549613 0.00138912)
(0.00523628 -0.0469703 0.00127556)
(0.00540761 -0.0384043 0.00114038)
(0.00553006 -0.0294875 0.000980092)
(0.00560341 -0.0204456 0.000793012)
(0.00562786 -0.0114913 0.000580197)
(0.00560393 -0.00281368 0.000346171)
(0.00553322 0.00542481 9.98724e-05)
(0.0054188 0.0131051 -0.000144455)
(0.00526509 0.0201812 -0.000367548)
(0.00507594 0.0267047 -0.000546281)
(0.0048533 0.0328334 -0.000655346)
(0.00459529 0.0388315 -0.000668759)
(0.00429421 0.0450614 -0.00056248)
(0.00393553 0.0519513 -0.000322485)
(0.00349955 0.0598712 3.79508e-05)
(0.00296587 0.0688064 0.000456419)
(0.00232199 0.0777477 0.000816201)
(0.00164293 0.0841226 0.000988945)
(0.000998432 0.0848091 0.000932497)
(0.000412645 0.0734963 0.000652323)
(3.35186e-05 0.0369704 0.000201797)
(1.95866e-05 -0.0195771 0.000323981)
(0.000242175 -0.0481705 0.000847925)
(0.00059692 -0.0672806 0.00122682)
(0.00103124 -0.078667 0.0014764)
(0.00147883 -0.0844413 0.00161886)
(0.00191498 -0.0868882 0.00168905)
(0.00234478 -0.0873857 0.00171433)
(0.0027675 -0.0864957 0.00170988)
(0.00317477 -0.0844142 0.00168424)
(0.00356001 -0.081192 0.00164329)
(0.00391751 -0.0768237 0.00159135)
(0.00424142 -0.0713095 0.00153101)
(0.00452664 -0.0647006 0.00146253)
(0.00476974 -0.0571163 0.00138371)
(0.00496895 -0.0487328 0.00129026)
(0.00512357 -0.039763 0.00117681)
(0.00523351 -0.0304362 0.00103824)
(0.00529892 -0.0209823 0.000871182)
(0.00532018 -0.0116177 0.000675172)
(0.00529784 -0.00253716 0.000453534)
(0.00523307 0.00608804 0.000213896)
(0.00512794 0.0141288 -3.12914e-05)
(0.00498543 0.0215345 -0.0002648)
(0.00480858 0.0283586 -0.000465777)
(0.00459828 0.0347699 -0.000610697)
(0.0043519 0.0410534 -0.0006739)
(0.00406182 0.0475987 -0.00062921)
(0.0037149 0.0548581 -0.000456919)
(0.00329401 0.0632017 -0.00016044)
(0.00278126 0.0725601 0.000210418)
(0.00216707 0.081794 0.000549629)
(0.00152787 0.0881851 0.000731765)
(0.000922938 0.0885718 0.000712221)
(0.000375142 0.076369 0.000498361)
(2.83131e-05 0.038194 0.000146156)
(1.8325e-05 -0.0206184 0.000340186)
(0.000236537 -0.0507051 0.000881821)
(0.000581284 -0.0707266 0.0012643)
(0.00100039 -0.0825645 0.00150848)
(0.00142892 -0.0885045 0.00164342)
(0.0018442 -0.0909849 0.00170804)
(0.0022521 -0.0914477 0.00173053)
(0.00265192 -0.0904704 0.00172612)
(0.00303558 -0.0882516 0.00170349)
(0.00339684 -0.0848419 0.00166873)
(0.00373047 -0.0802382 0.00162634)
(0.00403136 -0.0744464 0.00157887)
(0.00429545 -0.067527 0.00152623)
(0.00452033 -0.0596077 0.00146546)
(0.00470505 -0.0508712 0.00139122)
(0.00484947 -0.041534 0.00129681)
(0.00495375 -0.0318274 0.00117563)
(0.00501799 -0.0219828 0.00102287)
(0.00504228 -0.0122195 0.000836925)
(0.00502672 -0.00273681 0.000620527)
(0.00497182 0.00628547 0.000381085)
(0.00487877 0.0147087 0.000130614)
(0.00474929 0.0224765 -0.00011486)
(0.00458497 0.0296433 -0.000336184)
(0.00438606 0.0363868 -0.000511691)
(0.00414955 0.0430089 -0.000617078)
(0.00386789 0.0499215 -0.000626118)
(0.00352924 0.057593 -0.00051632)
(0.00311907 0.0663851 -0.000284186)
(0.00262249 0.0761674 3.17115e-05)
(0.00203361 0.0856735 0.000337852)
(0.0014298 0.0920588 0.000516245)
(0.000860597 0.0921374 0.000522689)
(0.000346264 0.0790652 0.000365886)
(2.58013e-05 0.0393263 0.000100197)
(1.96883e-05 -0.0215744 0.000342971)
(0.000236465 -0.0529825 0.000877472)
(0.000572935 -0.0737831 0.00124459)
(0.000976685 -0.0859952 0.00147191)
(0.00138531 -0.0920687 0.00159381)
(0.00177876 -0.0945718 0.0016502)
(0.00216363 -0.0949967 0.0016682)
(0.00253939 -0.0939323 0.00166249)
(0.00289836 -0.0915784 0.00164177)
(0.00323473 -0.0879856 0.00161247)
(0.00354375 -0.0831541 0.00157954)
(0.00382102 -0.0770979 0.00154596)
(0.00406336 -0.0698886 0.0015118)
(0.00426924 -0.0616645 0.00147389)
(0.00443842 -0.052615 0.00142614)
(0.00457129 -0.0429595 0.00136046)
(0.00466826 -0.0329295 0.0012683)
(0.00472952 -0.0227553 0.00114239)
(0.00475493 -0.0126553 0.000978746)
(0.00474418 -0.00283096 0.000778116)
(0.00469718 0.00653299 0.000546852)
(0.0046144 0.0152914 0.000296745)
(0.00449676 0.023385 4.38406e-05)
(0.00434475 0.0308724 -0.000193011)
(0.00415746 0.0379414 -0.000392831)
(0.00393138 0.0449093 -0.000532275)
(0.00365923 0.0522041 -0.00058581)
(0.00333015 0.0603013 -0.00053006)
(0.00293197 0.0695408 -0.000357213)
(0.00245307 0.0797203 -9.67136e-05)
(0.00189133 0.0894479 0.000170479)
(0.00132425 0.0957772 0.00033674)
(0.000792616 0.0955181 0.000360622)
(0.000314379 0.0815829 0.000252264)
(2.2182e-05 0.0403683 6.18913e-05)
(1.83886e-05 -0.0225875 0.000357396)
(0.000229429 -0.0553956 0.000901624)
(0.000554608 -0.0770098 0.00126436)
(0.000942487 -0.0895934 0.00148076)
(0.00133237 -0.0957835 0.00159214)
(0.00170607 -0.0982956 0.00164135)
(0.00207061 -0.0986739 0.00165557)
(0.00242533 -0.0975177 0.00164923)
(0.00276281 -0.0950286 0.00163106)
(0.00307762 -0.091259 0.00160771)
(0.00336554 -0.0862139 0.00158435)
(0.00362294 -0.0799158 0.00156405)
(0.0038475 -0.0724459 0.00154683)
(0.00403853 -0.06395 0.00152924)
(0.00419646 -0.0546212 0.00150469)
(0.00432209 -0.044679 0.00146425)
(0.00441601 -0.0343523 0.00139805)
(0.00447825 -0.0238681 0.00129704)
(0.0045083 -0.0134431 0.00115502)
(0.00450518 -0.0032796 0.000970585)
(0.0044679 0.00643285 0.000748338)
(0.00439603 0.0155419 0.000499209)
(0.00428956 0.0239838 0.000239153)
(0.0041483 0.0318188 -1.28345e-05)
(0.00397064 0.0392441 -0.000235898)
(0.00375243 0.0465908 -0.00040721)
(0.00348664 0.0543003 -0.000501858)
(0.00316386 0.0628491 -0.000496334)
(0.00277424 0.0725486 -0.000380016)
(0.00230959 0.0831195 -0.000174924)
(0.00177133 0.0930481 4.9775e-05)
(0.00123624 0.0993053 0.000197977)
(0.00073739 0.0987073 0.000232017)
(0.000289966 0.0839383 0.000162989)
(2.04329e-05 0.0413332 3.4114e-05)
(1.90176e-05 -0.0235321 0.000361415)
(0.000226567 -0.0576036 0.000895693)
(0.000541915 -0.0799252 0.00123868)
(0.000913856 -0.0928173 0.00143493)
(0.00128429 -0.0990978 0.00153157)
(0.00163741 -0.10161 0.00157179)
(0.00198073 -0.101939 0.00158128)
(0.0023136 -0.100691 0.00157375)
(0.00262898 -0.0980705 0.00155787)
(0.00292187 -0.0941302 0.00154057)
(0.00318852 -0.0888819 0.00152741)
(0.0034259 -0.0823582 0.00152184)
(0.00363245 -0.0746514 0.00152406)
(0.00380814 -0.0659156 0.00153063)
(0.003954 -0.0563482 0.00153453)
(0.00407129 -0.0461676 0.00152596)
(0.00416089 -0.0355979 0.00149352)
(0.0042229 -0.0248598 0.001426)
(0.00425655 -0.0141646 0.00131457)
(0.00426033 -0.0037118 0.00115498)
(0.00423242 0.00630725 0.000949501)
(0.00417137 0.0157351 0.000707696)
(0.00407616 0.0245044 0.000445361)
(0.00394575 0.0326771 0.00018205)
(0.00377799 0.0404583 -6.08163e-05)
(0.00356851 0.048191 -0.000260316)
(0.00331016 0.0563257 -0.000391866)
(0.00299464 0.0653331 -0.00043188)
(0.0026146 0.0754871 -0.000367773)
(0.00216493 0.0864253 -0.000215505)
(0.0016506 0.0965158 -3.35297e-05)
(0.00114714 0.102669 9.36699e-05)
(0.000680835 0.10172 0.000132511)
(0.00026451 0.0861375 9.46385e-05)
(1.79488e-05 0.0422243 1.46613e-05)
(1.76986e-05 -0.0245055 0.00037143)
(0.000218917 -0.0598776 0.00090513)
(0.000523028 -0.0829197 0.00123551)
(0.000879862 -0.0961131 0.00141602)
(0.00123306 -0.102471 0.00149995)
(0.00156847 -0.104974 0.00153193)
(0.00189383 -0.105248 0.00153692)
(0.00220829 -0.103908 0.00152809)
(0.00250509 -0.101158 0.00151409)
(0.00277958 -0.0970554 0.00150196)
(0.00302843 -0.0916182 0.00149749)
(0.00324925 -0.0848892 0.00150431)
(0.00344111 -0.0769703 0.00152281)
(0.00360461 -0.0680224 0.00154965)
(0.00374128 -0.058245 0.00157785)
(0.00385282 -0.0478539 0.00159732)
(0.00394031 -0.0370669 0.00159589)
(0.00400388 -0.0260968 0.00156082)
(0.00404247 -0.0151476 0.00148093)
(0.00405399 -0.00441454 0.00134905)
(0.00403568 0.00591092 0.00116435)
(0.00398502 0.0156664 0.000934111)
(0.00389992 0.024779 0.000673117)
(0.00377854 0.0333102 0.000401132)
(0.00361827 0.0414709 0.000140317)
(0.00341474 0.0496134 -8.58268e-05)
(0.00316143 0.0581944 -0.00025257)
(0.00285102 0.067675 -0.000336105)
(0.0024781 0.0782869 -0.000322009)
(0.00204069 0.089582 -0.000220902)
(0.0015472 0.0998154 -8.14873e-05)
(0.00107148 0.105855 2.27858e-05)
(0.000633682 0.104558 6.1994e-05)
(0.000244196 0.0881943 4.75175e-05)
(1.66183e-05 0.0430502 3.84762e-06)
(1.80119e-05 -0.0254249 0.000373512)
(0.00021514 -0.061992 0.00089236)
(0.000509652 -0.0856725 0.00119932)
(0.000851945 -0.0991181 0.00135781)
(0.00118798 -0.105532 0.00142629)
(0.00150557 -0.108018 0.00144892)
(0.00181272 -0.108236 0.00144885)
(0.00210854 -0.106804 0.00143844)
(0.00238659 -0.103928 0.00142619)
(0.00264259 -0.0996687 0.00141933)
(0.00287361 -0.0940531 0.00142391)
(0.00307772 -0.0871342 0.00144389)
(0.00325449 -0.0790249 0.00147993)
(0.00340507 -0.069894 0.00152888)
(0.00353148 -0.059943 0.00158379)
(0.00363589 -0.0493845 0.00163425)
(0.00371978 -0.0384285 0.00166733)
(0.00378347 -0.0272767 0.00166885)
(0.00382584 -0.0161222 0.00162539)
(0.00384434 -0.00515218 0.00152682)
(0.00383537 0.00544553 0.00136906)
(0.00379526 0.0155057 0.00115656)
(0.00372074 0.02495 0.00090258)
(0.00360901 0.0338381 0.000626726)
(0.00345692 0.0423837 0.000351892)
(0.00326 0.0509452 0.000102444)
(0.00301227 0.059981 -9.63124e-05)
(0.0027077 0.0699371 -0.000220016)
(0.00234286 0.0809981 -0.000252512)
(0.00191845 0.0926274 -0.00019962)
(0.00144598 0.102973 -0.000101181)
(0.000997182 0.10888 -2.03937e-05)
(0.000586933 0.107233 1.58445e-05)
(0.000223713 0.090115 1.78848e-05)
(1.48577e-05 0.0438139 -4.92861e-07)
(1.68608e-05 -0.026355 0.000378043)
(0.000207823 -0.0641275 0.000886503)
(0.000492005 -0.0884448 0.00117434)
(0.000820859 -0.102131 0.00131395)
(0.00114193 -0.108589 0.00136858)
(0.00144439 -0.11105 0.00138242)
(0.0017363 -0.111209 0.00137731)
(0.00201659 -0.109685 0.0013649)
(0.00227906 -0.106687 0.00135352)
(0.00251974 -0.102279 0.00135047)
(0.002736 -0.0964968 0.00136197)
(0.0029263 -0.0894038 0.00139221)
(0.00309065 -0.0811231 0.00144222)
(0.00323062 -0.0718302 0.00150924)
(0.00334868 -0.0617285 0.0015867)
(0.00344739 -0.0510269 0.00166443)
(0.00352859 -0.0399266 0.00172925)
(0.00359282 -0.0286174 0.00176607)
(0.00363892 -0.0172796 0.00175959)
(0.00366397 -0.00608962 0.00169677)
(0.00366359 0.00477108 0.00156993)
(0.00363301 0.015136 0.00137999)
(0.00356779 0.0249204 0.00113778)
(0.00346422 0.0341797 0.000862129)
(0.00331867 0.043128 0.000576387)
(0.00312673 0.0521264 0.000305947)
(0.00288304 0.0616315 7.7103e-05)
(0.00258286 0.0720706 -8.47719e-05)
(0.0022247 0.0835776 -0.000161563)
(0.00181164 0.0955281 -0.000154558)
(0.00135798 0.10597 -9.55034e-05)
(0.00093307 0.111739 -3.83849e-05)
(0.000547167 0.109749 -7.94892e-06)
(0.000206917 0.0919087 4.30395e-06)
(1.38639e-05 0.0445203 1.16023e-06)
(1.69463e-05 -0.0272421 0.000376468)
(0.000203753 -0.066138 0.0008647)
(0.000479399 -0.0910295 0.00112659)
(0.000795846 -0.104918 0.00124369)
(0.00110256 -0.111404 0.00128304)
(0.00139027 -0.113835 0.00128757)
(0.00166723 -0.113932 0.00127715)
(0.00193227 -0.112317 0.00126254)
(0.0021795 -0.109199 0.00125185)
(0.00240517 -0.104649 0.00125242)
(0.00260688 -0.0987094 0.00127066)
(0.00278335 -0.0914551 0.00131105)
(0.00293494 -0.0830207 0.00137498)
(0.00306361 -0.0735894 0.00146009)
(0.00317227 -0.0633669 0.0015602)
(0.00326394 -0.052558 0.00166537)
(0.00334097 -0.0413543 0.00176236)
(0.00340425 -0.0299313 0.00183544)
(0.00345279 -0.0184533 0.00186777)
(0.00348349 -0.00708217 0.00184373)
(0.00349125 0.00401104 0.00175212)
(0.0034702 0.0146612 0.00159001)
(0.00341464 0.0247775 0.0013652)
(0.00331978 0.0344093 0.00109506)
(0.00318142 0.0437673 0.000802987)
(0.00299511 0.0532114 0.000515329)
(0.00275615 0.063192 0.000259603)
(0.00246105 0.0741133 6.25568e-05)
(0.00211015 0.0860555 -5.54814e-05)
(0.00170869 0.0983067 -9.14109e-05)
(0.0012735 0.108821 -6.95428e-05)
(0.000871356 0.114442 -3.56576e-05)
(0.00050861 0.112115 -1.31435e-05)
(0.000190451 0.0935821 3.88754e-06)
(1.26409e-05 0.045173 7.36903e-06)
(1.60241e-05 -0.0281285 0.000375351)
(0.000197287 -0.0681418 0.000845119)
(0.000464042 -0.093597 0.00108365)
(0.000769167 -0.107675 0.00118048)
(0.00106345 -0.114177 0.00120581)
(0.00133869 -0.116571 0.00120147)
(0.00160316 -0.116603 0.00118564)
(0.00185558 -0.114898 0.00116829)
(0.00209028 -0.111664 0.00115725)
(0.00230366 -0.106977 0.00115984)
(0.00249342 -0.100888 0.00118259)
(0.00265848 -0.0934827 0.00123027)
(0.00279946 -0.0849072 0.00130469)
(0.00291862 -0.0753521 0.00140408)
(0.0030192 -0.0650258 0.00152288)
(0.00310462 -0.0541296 0.00165177)
(0.00317763 -0.0428453 0.00177789)
(0.00323953 -0.0313339 0.00188527)
(0.00328959 -0.0197422 0.00195598)
(0.00332467 -0.00821424 0.00197206)
(0.0033392 0.00309312 0.00191872)
(0.00332637 0.0140192 0.00178876)
(0.00327924 0.0244678 0.00158625)
(0.00319197 0.0344801 0.00132635)
(0.00305973 0.0442605 0.00103204)
(0.00287807 0.0541636 0.000730459)
(0.00264294 0.0646296 0.000450538)
(0.00235212 0.0760359 0.000220772)
(0.00200765 0.0884073 6.40042e-05)
(0.00161675 0.100945 -1.23154e-05)
(0.00119843 0.11152 -2.56207e-05)
(0.000816812 0.116992 -1.44901e-05)
(0.000474839 0.114335 -1.82126e-06)
(0.000176429 0.0951419 1.50025e-05)
(1.18563e-05 0.0457757 1.74362e-05)
(1.60036e-05 -0.0289801 0.00036968)
(0.000193249 -0.0700464 0.000814561)
(0.000452576 -0.0960174 0.00102579)
(0.000747473 -0.110256 0.00110063)
(0.00103026 -0.116762 0.00111153)
(0.00129398 -0.119112 0.00109831)
(0.00154693 -0.119078 0.00107699)
(0.00178758 -0.117285 0.00105665)
(0.0020104 -0.113939 0.00104491)
(0.002212 -0.109119 0.00104906)
(0.00239016 -0.102887 0.00107576)
(0.00254397 -0.0953404 0.00113004)
(0.00267426 -0.0866369 0.00121407)
(0.00278355 -0.0769755 0.00132657)
(0.0028754 -0.0665674 0.00146258)
(0.00295362 -0.0556107 0.00161346)
(0.00302141 -0.0442776 0.0017669)
(0.00308057 -0.0327135 0.00190715)
(0.00313077 -0.0210455 0.00201567)
(0.00316904 -0.00939675 0.00207272)
(0.00318953 0.00209426 0.00206026)
(0.00318458 0.0132753 0.00196669)
(0.00314606 0.024046 0.00179176)
(0.00306691 0.0344384 0.00154764)
(0.00294151 0.0446471 0.00125621)
(0.00276528 0.0550167 0.000945096)
(0.00253473 0.0659726 0.000644657)
(0.00224887 0.0778616 0.000385385)
(0.00191128 0.0906512 0.000192918)
(0.00153092 0.103459 7.90869e-05)
(0.00112882 0.114076 3.28926e-05)
(0.000766472 0.119394 2.20045e-05)
(0.000443815 0.116419 2.31679e-05)
(0.00016364 0.0965971 3.5331e-05)
(1.11134e-05 0.0463328 3.02908e-05)
(1.52774e-05 -0.0298236 0.000363583)
(0.000187507 -0.0719261 0.000783925)
(0.00043919 -0.0983974 0.000969245)
(0.000724762 -0.112783 0.00102357)
(0.00099775 -0.119283 0.00102098)
(0.00125215 -0.121588 0.00099924)
(0.00149604 -0.121486 0.000972311)
(0.00172736 -0.119601 0.000948419)
(0.00194059 -0.116144 0.000934964)
(0.00213252 -0.111195 0.000939251)
(0.0023011 -0.104823 0.000968033)
(0.00244555 -0.0971413 0.00102655)
(0.00256684 -0.0883172 0.00111734)
(0.00266763 -0.0785587 0.00123971)
(0.0027517 -0.0680804 0.00138944)
(0.00282314 -0.0570781 0.00155872)
(0.00288554 -0.0457151 0.00173608)
(0.00294117 -0.0341219 0.00190633)
(0.00299019 -0.022405 0.00205081)
(0.00302998 -0.0106644 0.00214846)
(0.00305472 0.000983858 0.00217836)
(0.00305617 0.0124005 0.00212447)
(0.00302516 0.0234841 0.00198165)
(0.00295342 0.0342567 0.00175835)
(0.00283446 0.0449001 0.00147463)
(0.00266345 0.055745 0.00115818)
(0.00243736 0.0671973 0.000840753)
(0.00215629 0.0795694 0.00055502)
(0.00182523 0.0927704 0.000329659)
(0.00145468 0.105836 0.000180933)
(0.00106739 0.116486 0.000103906)