/*--------------------------------*- C++ -*----------------------------------*\
| =========                 |                                                 |
| \\      /  F ield         | OpenFOAM: The Open Source CFD Toolbox           |
|  \\    /   O peration     | Version:  v2012                                 |
|   \\  /    A nd           | Website:  www.openfoam.com                      |
|    \\/     M anipulation  |                                                 |
\*---------------------------------------------------------------------------*/
FoamFile
{
    version     2.0;
    format      ascii;
    class       surfaceScalarField;
    location    "40";
    object      phi;
}
// * * * * * * * * * * * * * * * * * * * * * * * * * * * * * * * * * * * * * //

dimensions      [1 0 -1 0 0 0 0];
oriented        oriented;


internalField   nonuniform List<scalar> 
22800
(
-2.7219e-10
-2.72339e-10
-2.72266e-10
-1.52575e-10
-5.94973e-11
-5.98429e-11
-6.15534e-11
-4.60192e-11
-4.57307e-11
-3.50263e-11
-1.31388e-11
-1.29534e-11
-1.77502e-11
-8.28761e-12
-8.24323e-12
-1.08579e-11
-3.31862e-12
-3.28099e-12
-6.9309e-12
-1.7744e-12
-2.14712e-12
-4.93738e-12
-1.20466e-12
-9.63717e-13
-3.6122e-12
-6.15299e-13
-5.98842e-13
-2.57294e-12
-1.50663e-13
-1.41628e-13
-1.98321e-12
7.73579e-14
1.43016e-13
-1.64142e-12
-2.9045e-13
-5.84698e-14
-1.23461e-12
-2.47284e-13
-1.24065e-13
-1.12754e-12
-3.87047e-14
1.38733e-13
-1.01235e-12
-2.75759e-13
6.07205e-14
-7.4982e-13
1.31274e-13
-2.59018e-13
-8.50365e-13
-1.10969e-13
-5.31315e-13
-1.66785e-13
-1.11109e-13
-6.54628e-14
2.5025e-13
-2.44681e-14
-1.49553e-13
2.38698e-13
1.49025e-13
-5.94057e-11
-1.52996e-10
-5.95407e-11
-4.62947e-11
-4.63287e-11
-2.66795e-11
-3.14023e-11
-3.76902e-11
-2.25759e-11
-2.19785e-11
-1.34694e-11
-9.6687e-12
-1.49707e-11
-9.33713e-12
-5.89325e-12
-1.04675e-11
-4.28448e-12
-2.77401e-12
-7.99422e-12
-3.0093e-12
-2.31885e-12
-5.54152e-12
-1.78025e-12
-1.10974e-12
-4.12731e-12
-1.2906e-12
-9.82659e-13
-2.93355e-12
-6.49707e-13
-6.17847e-13
-2.74625e-12
-7.72973e-13
-3.79128e-13
-2.06033e-12
-6.30136e-13
-1.10605e-13
-1.68265e-12
-5.85479e-13
-1.04028e-13
-1.77264e-12
-4.88048e-13
-4.6337e-13
-7.15376e-13
6.50337e-14
4.81394e-14
-1.11091e-12
-4.61535e-13
-5.98808e-15
-2.80933e-13
1.34457e-13
1.45241e-13
-2.19669e-13
-6.83617e-13
-4.75529e-13
2.05792e-13
-1.59863e-13
5.54875e-14
9.58808e-14
-8.87591e-14
-4.57985e-11
-6.11959e-11
-4.53975e-11
-3.79212e-11
-3.12899e-11
-2.21284e-11
-2.8229e-11
-2.7955e-11
-1.91225e-11
-2.01203e-11
-1.26944e-11
-8.45654e-12
-1.41218e-11
-9.7804e-12
-5.80971e-12
-1.00005e-11
-4.77233e-12
-2.93452e-12
-7.52376e-12
-3.47976e-12
-1.97821e-12
-5.65047e-12
-2.24316e-12
-8.21465e-13
-4.00249e-12
-1.51504e-12
-4.65168e-13
-3.47731e-12
-1.60259e-12
-8.66534e-13
-2.7247e-12
-8.89349e-13
-5.12234e-13
-2.31945e-12
-1.16371e-12
-1.21002e-13
-1.63085e-12
-5.66575e-13
-1.7232e-13
-1.09068e-12
-4.83177e-13
-5.18847e-13
-9.77571e-13
-5.49734e-14
-1.88441e-13
-1.00819e-12
-2.32012e-13
1.23938e-13
-4.72388e-13
2.4929e-13
8.22988e-14
-8.3903e-14
4.92059e-15
2.57681e-13
-3.25525e-14
2.53473e-13
2.02067e-13
1.33977e-13
1.37553e-13
-1.32803e-11
-3.49074e-11
-1.33763e-11
-1.34343e-11
-2.25381e-11
-9.11244e-12
-1.27691e-11
-1.96705e-11
-8.09915e-12
-1.09857e-11
-1.11827e-11
-4.48123e-12
-8.82913e-12
-8.49345e-12
-3.43628e-12
-7.31438e-12
-5.05579e-12
-2.08297e-12
-5.70442e-12
-3.88105e-12
-1.42886e-12
-4.57141e-12
-2.64338e-12
-9.9329e-13
-3.74499e-12
-1.83686e-12
-3.24712e-13
-2.73546e-12
-1.40881e-12
-3.1014e-13
-2.33433e-12
-1.13826e-12
-2.49966e-13
-1.62822e-12
-7.33419e-13
-3.49429e-13
-1.57889e-12
-3.76317e-13
-2.26225e-13
-8.67352e-13
-3.04207e-13
-2.82019e-13
-1.16722e-12
-4.83175e-13
-7.32297e-13
-5.85832e-13
-2.15528e-14
-4.43178e-14
4.17042e-14
7.07651e-14
-2.30874e-13
5.06985e-14
-2.71625e-13
1.01932e-13
-1.7928e-13
-3.22835e-13
-1.52584e-13
-5.75835e-13
6.25116e-13
-8.6229e-12
-1.76578e-11
-8.78403e-12
-8.75332e-12
-1.4876e-11
-5.78363e-12
-9.79032e-12
-1.37383e-11
-6.0237e-12
-8.30165e-12
-8.73588e-12
-3.02465e-12
-6.72376e-12
-7.07495e-12
-1.94073e-12
-5.89518e-12
-5.39141e-12
-1.46853e-12
-4.58769e-12
-3.57506e-12
-1.08428e-12
-3.86428e-12
-2.45119e-12
-4.7971e-13
-3.01214e-12
-1.96945e-12
-6.12023e-13
-2.29907e-12
-1.42173e-12
-3.82942e-13
-2.17166e-12
-1.15444e-12
-4.87895e-14
-1.71934e-12
-1.28236e-12
-3.76069e-13
-1.79176e-12
-5.79126e-13
-5.48025e-13
-1.17976e-12
-7.68853e-13
-9.7186e-14
-1.2829e-12
-8.36678e-13
1.13134e-13
-9.2589e-13
-1.47887e-13
1.68565e-13
-3.73587e-13
-2.76778e-13
-1.64013e-14
-6.88682e-13
-1.81211e-13
1.45495e-13
8.19637e-15
-8.03833e-14
3.36518e-13
-4.75239e-13
7.61663e-14
-3.00449e-12
-1.08518e-11
-3.263e-12
-4.1857e-12
-1.07373e-11
-3.19704e-12
-5.72385e-12
-1.02708e-11
-3.29794e-12
-5.78107e-12
-7.17568e-12
-2.38752e-12
-5.119e-12
-5.72589e-12
-1.30493e-12
-4.14382e-12
-4.77598e-12
-4.04927e-13
-3.63322e-12
-3.82076e-12
-3.09922e-13
-3.143e-12
-2.64276e-12
-7.10048e-13
-2.58938e-12
-2.4989e-12
-5.7174e-13
-2.29085e-12
-1.90566e-12
-1.44117e-13
-2.21082e-12
-1.23322e-12
-3.2795e-13
-1.52377e-12
-8.27743e-13
-3.45825e-13
-1.59159e-12
-5.80591e-13
-3.62974e-13
-1.05717e-12
-7.14393e-13
-3.5394e-14
-9.87347e-13
-5.16613e-13
2.01053e-13
-7.66141e-13
-4.67884e-13
-6.0138e-13
-2.73746e-13
-3.80469e-13
-1.67174e-13
-8.37295e-13
-6.33855e-13
-3.20449e-13
1.36089e-13
-3.21828e-13
3.46855e-13
-6.25967e-13
-1.15197e-13
-1.76977e-12
-6.67191e-12
-1.91647e-12
-3.0649e-12
-7.84342e-12
-1.99877e-12
-3.58466e-12
-7.2e-12
-1.90066e-12
-3.71804e-12
-5.55526e-12
-1.53106e-12
-3.518e-12
-4.79004e-12
-1.24026e-12
-3.12988e-12
-4.02257e-12
-8.83933e-13
-2.56826e-12
-3.08959e-12
-6.92626e-13
-2.59475e-12
-2.14631e-12
-2.81618e-13
-2.1271e-12
-1.70165e-12
-4.47601e-13
-1.68231e-12
-1.2908e-12
1.7441e-14
-1.73185e-12
-1.10141e-12
6.68016e-14
-1.44953e-12
-1.02263e-12
-4.37315e-13
-1.46067e-12
-9.1239e-13
-5.84082e-13
-3.59783e-13
-2.88137e-13
-3.43536e-14
-6.94261e-13
-7.50095e-13
-1.79778e-13
-7.80278e-13
-6.32233e-14
2.56289e-13
-8.13802e-13
-6.30306e-13
-2.61375e-14
-7.9157e-13
-7.88257e-13
-2.65437e-13
-1.34813e-13
-6.74343e-13
-3.95461e-13
-5.36018e-13
-6.42266e-14
-9.62419e-13
-5.0134e-12
-7.76231e-13
-1.68538e-12
-5.64391e-12
-1.16483e-12
-2.66483e-12
-5.7834e-12
-1.14033e-12
-2.68966e-12
-4.45152e-12
-7.38637e-13
-2.8746e-12
-4.18014e-12
-1.11942e-12
-2.21324e-12
-3.0342e-12
-6.97348e-13
-2.26902e-12
-2.73708e-12
-7.04563e-13
-1.48697e-12
-1.86639e-12
-6.91409e-13
-1.78654e-12
-2.16908e-12
-5.57354e-13
-1.63955e-12
-1.36924e-12
-3.12426e-13
-1.72398e-12
-1.36734e-12
-5.14545e-13
-1.66581e-12
-1.1851e-12
-2.46555e-13
-7.37215e-13
-3.45824e-13
-1.6532e-13
-1.12217e-12
-7.21538e-13
-5.158e-13
-6.07611e-13
-8.15875e-13
-3.25644e-13
-7.65489e-13
-7.00015e-13
-2.11255e-13
-7.51338e-14
-9.24599e-14
-1.01081e-13
1.53069e-13
-4.59562e-14
2.18137e-14
-4.08248e-13
-7.09149e-13
-4.54962e-13
-5.465e-13
-2.0229e-13
-3.59486e-13
-3.18879e-12
-5.83485e-13
-1.56362e-12
-4.26484e-12
-5.55651e-13
-1.39836e-12
-3.89067e-12
-6.83201e-13
-2.16924e-12
-3.44255e-12
-6.06468e-13
-1.64003e-12
-2.94658e-12
-5.58512e-13
-2.03929e-12
-2.57368e-12
-2.65035e-13
-1.57044e-12
-2.10613e-12
-4.98414e-13
-1.52686e-12
-1.9277e-12
-2.94197e-13
-9.8371e-13
-1.80616e-12
-6.48742e-15
-1.18736e-12
-1.14889e-12
-2.23194e-13
-1.15487e-12
-1.20622e-12
2.2071e-13
-6.85432e-13
-1.27726e-12
-3.04136e-13
-1.0455e-12
-9.22339e-13
-4.50788e-13
-3.98408e-13
-6.64639e-13
2.8421e-13
-3.73632e-13
-7.22028e-13
1.49676e-13
-4.91507e-14
-6.20622e-13
9.72299e-14
-4.13741e-13
-2.63247e-13
-3.23735e-13
-2.58367e-13
-3.91157e-13
-2.86636e-13
-1.29635e-14
-1.02473e-13
2.00106e-13
3.82184e-14
1.479e-13
-2.89536e-13
-2.73249e-12
-6.1967e-13
-4.5799e-13
-3.26532e-12
-2.04708e-13
-1.06496e-12
-2.89651e-12
-3.74644e-13
-1.78955e-12
-3.09952e-12
-3.57326e-13
-1.08234e-12
-2.54263e-12
-2.56273e-13
-1.56193e-12
-2.75956e-12
-4.88779e-13
-1.50548e-12
-2.02588e-12
-1.2164e-13
-1.42209e-12
-1.78047e-12
-4.65496e-13
-8.3891e-13
-1.33631e-12
5.13095e-14
-1.33021e-12
-1.61039e-12
-2.00992e-13
-1.11995e-12
-9.86491e-13
-5.79061e-14
-9.48251e-13
-8.34614e-13
1.92712e-13
-1.05299e-12
-4.47103e-13
-9.64102e-14
-6.75858e-13
-5.00248e-13
1.77043e-13
-7.18993e-13
-2.87768e-13
-7.51407e-14
-1.99884e-13
-6.3443e-13
-1.86326e-13
-2.01587e-14
-1.87369e-13
-1.94332e-13
-3.03187e-13
-5.53145e-13
-2.37524e-13
8.99669e-14
-3.28722e-13
-1.34593e-13
-7.33191e-14
-1.16748e-13
4.78813e-14
-2.13788e-12
-2.74807e-14
-3.80283e-13
-2.86106e-12
-6.40253e-13
-9.05418e-13
-2.60641e-12
8.37909e-14
-1.13973e-12
-2.30114e-12
-3.50329e-13
-1.15325e-12
-2.49847e-12
-4.64753e-13
-1.30762e-12
-2.03608e-12
-5.28154e-13
-1.51982e-12
-1.78467e-12
-3.23143e-13
-1.30623e-12
-2.03138e-12
9.04381e-14
-1.28836e-12
-1.50864e-12
-1.06449e-13
-6.77175e-13
-1.3039e-12
-8.95499e-15
-1.01326e-12
-1.25719e-12
-3.84525e-13
-7.26254e-13
-5.78882e-13
-5.9535e-14
-1.35565e-12
-8.86072e-13
-1.97419e-13
-7.19874e-13
-4.30636e-13
-1.99745e-13
-8.11062e-13
1.50672e-13
-1.33879e-13
-4.55269e-13
-1.48714e-13
1.74879e-13
-5.33243e-14
-1.7351e-13
-3.55211e-13
-5.0995e-13
-5.48349e-13
4.5396e-14
1.72644e-13
-5.82511e-15
1.96612e-13
-1.23242e-13
-1.59421e-13
-6.29873e-14
-1.60183e-12
1.43074e-13
-1.27092e-13
-2.3257e-12
5.45219e-14
-4.72825e-13
-2.18574e-12
-1.98696e-13
-1.04073e-12
-2.21744e-12
-3.40878e-13
-9.50802e-13
-2.17004e-12
-3.01296e-13
-1.08189e-12
-1.53165e-12
-3.83935e-13
-1.08759e-12
-1.24632e-12
-6.57881e-14
-9.25853e-13
-1.50707e-12
-1.86816e-13
-9.76962e-13
-1.26422e-12
1.53959e-13
-5.38747e-13
-6.84814e-13
1.61575e-13
-5.47947e-13
-5.16312e-13
-2.77868e-13
-1.08952e-12
-1.07799e-12
-8.79129e-14
-9.56234e-13
-5.12549e-13
1.13497e-13
-4.1375e-13
-4.99827e-13
-1.29941e-13
-7.8276e-13
-1.47884e-13
-3.11673e-13
-4.5209e-13
-4.22521e-13
-1.03143e-13
-3.09855e-13
-4.16536e-13
-2.9746e-13
-2.49278e-13
-3.81466e-13
-2.20381e-13
-1.05132e-13
-7.26943e-13
1.42458e-13
-3.71196e-13
-1.8665e-13
9.30546e-14
-1.32026e-12
9.06602e-14
-1.67393e-13
-1.65536e-12
-1.59028e-13
-5.74272e-13
-1.32519e-12
-1.87387e-13
-7.45554e-13
-1.79975e-12
-8.47704e-14
-3.64133e-13
-1.56832e-12
-2.24332e-13
-6.95478e-13
-1.41174e-12
-2.38592e-13
-1.19025e-12
-7.8988e-13
-3.83197e-14
-9.62955e-13
-6.3038e-13
-1.88196e-13
-8.51024e-13
-9.67971e-13
-1.43685e-13
-9.88579e-13
-1.04443e-12
1.73163e-13
-1.37278e-12
-1.29873e-12
-5.13157e-13
-7.31584e-13
-3.679e-13
-2.75109e-13
-7.91719e-13
-2.18318e-13
9.58317e-14
-3.58904e-13
-1.79304e-13
4.07033e-13
-5.38385e-13
-1.83258e-14
-2.56536e-13
-4.82328e-13
-4.12291e-13
-1.90253e-13
2.1415e-13
-2.40486e-14
3.47074e-13
-4.03938e-13
-4.62299e-13
-2.34866e-13
1.19195e-13
1.34837e-13
3.56088e-14
-1.12192e-13
1.32455e-13
1.47097e-13
-6.86003e-13
-2.64856e-13
-4.04683e-13
-1.28299e-12
2.01756e-14
-2.78716e-13
-1.50667e-12
-5.1174e-14
-4.76149e-13
-1.32714e-12
-1.44171e-14
-4.38283e-13
-1.4057e-12
4.41284e-15
-5.63628e-13
-1.35519e-12
-3.58596e-13
-1.05963e-12
-1.35445e-12
-2.54063e-13
-1.16589e-12
-9.22334e-13
-1.89261e-13
-7.76906e-13
-6.0862e-13
-9.66213e-14
-1.14967e-12
-9.12651e-13
-2.90876e-13
-6.22703e-13
-6.64428e-13
3.81242e-13
-6.2718e-13
-3.43847e-13
-2.15979e-13
-1.01639e-12
-4.18264e-13
-4.16374e-13
-4.11868e-13
-3.08206e-13
-2.23017e-13
-1.072e-12
-6.45043e-13
-3.57311e-13
-6.26881e-13
-6.68983e-13
9.81171e-15
-2.03884e-13
-9.30115e-14
5.15869e-13
-4.06531e-14
-2.34896e-13
-8.37484e-15
1.24585e-13
-2.12144e-13
-3.2806e-13
-7.7294e-14
-1.7748e-13
4.57975e-14
-5.12467e-13
4.75141e-14
-2.55749e-13
-1.0992e-12
-9.14469e-13
8.73621e-14
-1.07104e-12
3.34839e-13
-5.62123e-14
-7.55078e-13
2.58443e-13
1.38744e-14
-7.14776e-13
-3.78078e-13
-4.53399e-13
-1.12052e-12
1.3088e-13
-5.19365e-13
-2.99256e-13
3.29211e-13
-5.93939e-13
-4.7625e-13
-3.94387e-13
-3.93985e-13
-6.79438e-13
8.32296e-15
-9.49089e-13
-7.13272e-13
1.94564e-13
-6.78338e-13
-1.43759e-13
3.12808e-14
-8.58565e-13
2.01481e-13
9.02422e-14
-6.23477e-13
1.03807e-13
1.1916e-13
-7.25487e-13
-4.34673e-13
-2.09886e-13
-5.61145e-13
-4.45177e-13
-1.78554e-13
-4.36083e-13
-2.11614e-13
4.73668e-14
-1.71214e-13
-5.22001e-13
-3.16031e-14
-2.80096e-13
-6.00855e-13
3.53147e-14
1.8004e-13
-5.35023e-14
7.35185e-14
-4.50959e-13
-5.03437e-13
-3.24573e-13
-4.54634e-13
-4.84354e-13
-4.16286e-13
-5.9151e-13
2.60822e-14
7.33739e-14
-2.7877e-13
-2.68883e-13
-2.05889e-13
-1.17763e-12
-3.83659e-13
-5.43241e-13
-7.5916e-13
2.76091e-15
-2.25429e-13
-5.05344e-13
6.7377e-13
-5.29755e-13
-4.24159e-13
6.25741e-14
-6.74464e-13
-2.4454e-13
-2.58051e-14
-5.59197e-13
-4.76968e-14
2.67395e-13
-4.60442e-13
-4.70479e-13
-2.01706e-15
-6.05135e-13
-5.73642e-13
-3.54409e-13
-4.57791e-13
-2.60813e-13
7.74571e-15
-2.69107e-13
-3.26102e-13
-3.75106e-14
-5.46131e-13
-2.94062e-13
-1.9472e-13
-2.98732e-13
-1.85358e-13
-2.37988e-13
-4.85615e-13
-6.21584e-13
6.15574e-14
3.71478e-13
-9.81027e-15
-1.76166e-14
2.49936e-13
-4.53839e-13
-5.11071e-14
-1.91916e-13
-4.74801e-13
-1.92463e-13
2.84066e-14
2.01219e-13
-8.71624e-14
-7.33171e-13
-2.22153e-13
1.36804e-14
-6.9526e-13
-2.56706e-13
-3.92499e-13
-6.64624e-13
-1.19245e-13
-3.29879e-13
-9.84051e-13
-2.78653e-13
-1.75257e-13
-7.44988e-13
7.15641e-14
-1.95065e-13
-6.71214e-13
1.07428e-13
-2.56172e-13
-8.32434e-13
-2.65604e-13
-5.23738e-13
-4.56786e-14
-1.9987e-14
-5.87895e-13
-3.00062e-13
1.52643e-13
-2.7694e-13
-3.75562e-13
3.09805e-13
-1.62922e-13
-4.63542e-13
8.79166e-15
-6.26961e-13
-8.27796e-13
-9.16116e-14
-4.65496e-13
-4.20383e-13
5.25778e-13
-8.39524e-13
-2.28297e-13
3.04864e-14
-8.18279e-13
-1.73504e-13
2.17587e-13
1.1143e-13
2.00315e-13
-4.70449e-14
-3.72776e-13
-6.68581e-13
9.82022e-15
-7.85682e-14
2.51831e-14
5.34278e-14
7.32486e-14
-1.59785e-13
-1.36371e-13
4.42184e-13
-1.72475e-13
1.60132e-14
1.05645e-13
-6.59896e-15
-1.62139e-14
-4.35641e-13
-1.25063e-13
-3.41348e-13
-1.47886e-13
-3.15803e-13
9.72818e-14
-2.84696e-13
-2.12115e-13
8.75948e-14
-3.99614e-13
5.75993e-14
-3.40278e-13
-5.59216e-13
-2.72551e-13
1.75133e-13
-9.44159e-14
-1.15295e-13
-4.17783e-13
-1.92149e-13
3.85729e-14
-9.41374e-13
6.1626e-14
-1.79591e-13
-7.83171e-13
-1.1739e-13
9.20352e-14
-4.79943e-13
1.51824e-13
-9.50978e-14
-3.03606e-13
-1.2373e-13
1.11492e-13
-2.42689e-13
-2.08712e-13
2.72332e-13
-5.39953e-13
4.71261e-13
1.28742e-13
-4.86484e-13
9.36055e-14
-4.52808e-13
-6.56743e-13
-2.57313e-13
-4.7321e-13
1.20372e-13
-1.73973e-13
-1.93349e-13
-4.29188e-13
-4.07801e-13
-2.95611e-13
2.75653e-13
1.90016e-13
5.64603e-13
3.60537e-13
-1.70327e-13
-3.95289e-13
-7.78189e-14
1.89014e-13
-1.04542e-13
7.25637e-14
4.27565e-14
-3.53234e-13
-4.67126e-13
-2.02221e-13
1.32141e-13
-2.62668e-13
-1.48529e-13
-6.26532e-14
-2.97377e-13
7.67879e-14
-1.3169e-15
-2.64613e-13
1.50421e-13
-2.42691e-13
-9.15028e-14
4.2491e-14
-1.23263e-13
-2.8999e-14
-1.69516e-13
-5.14694e-13
-1.69907e-13
1.13421e-13
1.73939e-14
-1.85604e-13
2.37697e-14
-5.14095e-13
-5.61484e-13
-5.4403e-13
-4.4942e-13
-3.56473e-13
-1.93696e-13
-1.1907e-13
2.3946e-13
4.2256e-13
-4.36084e-13
4.77977e-14
-3.40282e-14
-6.95532e-13
-2.22893e-13
9.72829e-16
-3.86432e-13
-5.74088e-14
7.34249e-14
-4.51438e-13
-3.47471e-13
7.81343e-14
-2.3452e-13
-9.85427e-14
-2.37471e-13
2.02065e-13
3.63335e-14
9.77208e-14
-1.73503e-13
-5.60299e-15
-1.21594e-13
2.50254e-13
-3.74514e-13
6.52353e-14
-4.22887e-13
-4.42028e-14
-2.67108e-13
-9.68605e-14
-1.94953e-13
2.01222e-13
-1.75372e-13
-2.72814e-13
-1.78016e-13
-6.46181e-14
-5.64724e-13
-4.33363e-13
-3.12163e-13
-3.54404e-13
-2.04104e-13
-2.27181e-13
-6.06286e-13
-4.78305e-13
-1.66206e-13
1.3979e-13
-8.2227e-13
-3.59103e-13
-6.75657e-13
1.14612e-13
-3.13299e-13
1.27831e-13
-6.61058e-13
1.74541e-13
-1.49386e-13
4.71352e-14
-4.07424e-13
1.31278e-13
-1.71557e-13
-1.8484e-13
-2.91213e-13
-5.96074e-11
-5.95698e-11
-1.52611e-10
-4.60521e-11
-2.64884e-11
-4.64196e-11
-3.14023e-11
-2.29994e-11
-3.77583e-11
-2.18899e-11
-9.4248e-12
-1.31008e-11
-1.5054e-11
-5.95067e-12
-9.3097e-12
-1.10312e-11
-3.15705e-12
-4.40296e-12
-7.87131e-12
-2.22605e-12
-2.73712e-12
-5.71687e-12
-1.25111e-12
-2.1646e-12
-4.13976e-12
-1.20879e-12
-1.29259e-12
-3.16789e-12
-4.67627e-13
-1.1416e-12
-2.86057e-12
-4.60995e-13
-8.89552e-13
-2.11465e-12
-2.43589e-13
-3.78893e-13
-1.39689e-12
-4.57834e-13
-5.76099e-13
-1.4725e-12
2.05738e-18
-6.13404e-13
-9.30512e-13
1.01616e-13
9.51719e-15
-6.06675e-13
3.72979e-13
4.04e-14
-6.42742e-13
-1.13044e-13
-3.7318e-13
-8.41676e-13
-5.30645e-13
7.38884e-14
1.89228e-13
-1.27994e-13
-8.34316e-14
-7.3302e-14
-2.79784e-14
-2.68264e-11
-4.62384e-11
-4.62775e-11
-2.64666e-11
-2.60883e-11
-2.60852e-11
-2.53822e-11
-2.34315e-11
-2.33586e-11
-1.98627e-11
-1.14947e-11
-1.12765e-11
-1.60507e-11
-8.14663e-12
-8.42953e-12
-1.26112e-11
-4.8968e-12
-4.85025e-12
-9.49298e-12
-3.70252e-12
-3.17868e-12
-7.47348e-12
-2.1619e-12
-1.85822e-12
-5.60579e-12
-1.21412e-12
-1.34652e-12
-4.67011e-12
-1.17384e-12
-9.05118e-13
-3.61927e-12
-7.27123e-13
-9.08711e-13
-3.13164e-12
-6.51919e-13
-6.24841e-13
-2.6729e-12
-3.76831e-13
-5.11299e-13
-1.83725e-12
-7.9672e-14
-3.52176e-13
-1.01506e-12
-3.72947e-13
-3.87388e-13
-1.14729e-12
-4.50193e-13
-3.72234e-13
-1.0527e-12
-2.8148e-13
-3.69079e-13
-2.64998e-13
7.07288e-14
-5.97265e-14
-1.8896e-13
-1.85099e-13
-1.20735e-13
-4.94101e-14
-1.78354e-13
-2.28037e-11
-3.12499e-11
-3.76246e-11
-2.37425e-11
-2.50251e-11
-2.35306e-11
-2.27205e-11
-2.29487e-11
-2.03244e-11
-1.80597e-11
-1.34394e-11
-1.04817e-11
-1.46596e-11
-9.78793e-12
-8.02749e-12
-1.13445e-11
-6.27218e-12
-4.30595e-12
-8.69691e-12
-4.37842e-12
-2.72285e-12
-6.90814e-12
-3.21197e-12
-1.87907e-12
-6.1011e-12
-2.11426e-12
-1.55461e-12
-4.36239e-12
-1.67667e-12
-5.88646e-13
-3.48871e-12
-1.13118e-12
-6.92361e-13
-2.96603e-12
-1.26603e-12
-3.63905e-13
-2.60279e-12
-2.94897e-13
-3.49717e-13
-1.8212e-12
-1.08419e-13
-2.21112e-13
-1.57065e-12
-7.51511e-13
2.287e-13
-1.33354e-12
-2.38059e-13
-1.64096e-13
-9.36079e-13
-4.81369e-13
-2.01868e-14
-6.18426e-13
-2.29987e-13
-8.30244e-14
3.53909e-13
-7.03299e-14
1.13951e-13
-1.29312e-13
-2.00675e-13
-9.12352e-12
-2.175e-11
-1.3284e-11
-1.14715e-11
-1.95735e-11
-1.11595e-11
-1.32559e-11
-1.89172e-11
-1.0163e-11
-1.21572e-11
-1.21425e-11
-6.37914e-12
-1.06852e-11
-8.77179e-12
-5.15529e-12
-8.87302e-12
-6.16499e-12
-2.75513e-12
-7.66536e-12
-4.99971e-12
-2.4192e-12
-6.1041e-12
-3.30413e-12
-2.02227e-12
-5.3937e-12
-2.69781e-12
-1.35841e-12
-4.01531e-12
-1.81645e-12
-2.74558e-13
-3.3526e-12
-1.32313e-12
9.85598e-14
-2.34849e-12
-1.04073e-12
-5.06049e-13
-2.27087e-12
-7.3052e-13
-6.67484e-13
-1.63351e-12
-5.70907e-13
-2.43511e-13
-9.17976e-13
-3.84522e-13
1.08611e-13
-1.41458e-12
-2.5623e-13
-3.426e-13
-4.83737e-13
-3.9312e-13
-6.20816e-14
-3.55845e-13
-5.42956e-13
-1.55812e-13
-1.07238e-13
-3.96924e-13
-2.91157e-13
-6.94125e-13
-1.13973e-14
-5.47084e-12
-1.45944e-11
-9.37336e-12
-8.96386e-12
-1.62492e-11
-8.8018e-12
-9.97305e-12
-1.50386e-11
-7.61021e-12
-9.67561e-12
-1.12727e-11
-5.02901e-12
-8.71628e-12
-8.3965e-12
-3.73757e-12
-7.43469e-12
-6.13292e-12
-2.15633e-12
-5.7947e-12
-4.55117e-12
-1.7569e-12
-5.19094e-12
-3.45798e-12
-1.22731e-12
-4.55649e-12
-2.82122e-12
-9.78105e-13
-3.60099e-12
-1.77048e-12
-7.70411e-13
-2.9852e-12
-1.95152e-12
-6.54196e-13
-2.81412e-12
-1.86159e-12
-7.60307e-13
-2.03193e-12
-7.40234e-13
-6.48328e-13
-1.46108e-12
-5.72614e-13
-4.59822e-13
-1.67644e-12
-6.93195e-13
-4.35306e-13
-1.18182e-12
-6.10239e-13
-1.36985e-13
-6.89463e-13
-7.20154e-13
-1.19011e-13
-7.62456e-13
-8.19128e-13
-2.39518e-13
-2.32238e-13
7.999e-14
-3.03191e-14
-2.88426e-13
1.47398e-14
-2.78567e-12
-1.04131e-11
-4.52964e-12
-4.90431e-12
-1.26857e-11
-5.05679e-12
-6.43199e-12
-1.16929e-11
-4.45953e-12
-6.38734e-12
-9.43002e-12
-3.33056e-12
-6.48423e-12
-7.6051e-12
-2.93023e-12
-6.14178e-12
-6.22495e-12
-1.77354e-12
-5.28907e-12
-4.78711e-12
-1.28675e-12
-4.66964e-12
-3.07231e-12
-1.22424e-12
-3.56423e-12
-2.52436e-12
-5.94843e-13
-3.53708e-12
-2.15683e-12
-9.36755e-13
-3.05916e-12
-1.57773e-12
-5.33854e-13
-2.06435e-12
-1.26716e-12
-4.34711e-13
-1.60196e-12
-1.09985e-12
-3.60243e-13
-1.38623e-12
-8.35555e-13
-2.25334e-13
-2.01942e-12
-9.32562e-13
-5.28121e-13
-7.46319e-13
-7.81115e-14
-2.92595e-14
-4.88716e-13
-5.79367e-13
2.53025e-13
-5.13509e-13
-4.91118e-13
2.0488e-13
-8.35625e-13
-6.43046e-13
-9.07345e-14
-2.63603e-13
3.68289e-13
-2.17329e-12
-7.4338e-12
-3.32914e-12
-2.95246e-12
-9.8268e-12
-2.73376e-12
-4.49917e-12
-9.53409e-12
-3.39043e-12
-4.48252e-12
-7.40582e-12
-2.54833e-12
-4.51334e-12
-6.32e-12
-2.1207e-12
-4.87389e-12
-5.63291e-12
-2.18846e-12
-3.77407e-12
-4.36986e-12
-1.27529e-12
-3.74633e-12
-3.48606e-12
-1.44114e-12
-3.19965e-12
-2.5197e-12
-1.14831e-12
-2.72677e-12
-1.79933e-12
-4.50607e-13
-2.53432e-12
-1.61376e-12
-1.67446e-13
-2.02041e-12
-1.19746e-12
-3.8809e-13
-1.45142e-12
-1.23292e-12
-2.09408e-13
-9.5981e-13
-7.24152e-13
1.34787e-13
-1.01091e-12
-8.81244e-13
1.25101e-13
-1.17103e-12
-8.24645e-13
2.21947e-13
-6.97837e-13
-4.82465e-13
2.61769e-13
-7.81588e-13
-4.7921e-13
3.2124e-13
-4.61005e-13
-7.5527e-13
1.87192e-13
-3.42377e-13
2.68534e-14
-1.3645e-12
-5.87753e-12
-1.91543e-12
-2.13725e-12
-7.54769e-12
-1.98456e-12
-2.90394e-12
-7.30163e-12
-2.04125e-12
-3.5573e-12
-6.29747e-12
-2.1563e-12
-3.39189e-12
-5.47116e-12
-1.58763e-12
-3.39734e-12
-4.3346e-12
-1.01145e-12
-3.37517e-12
-3.58887e-12
-5.34888e-13
-2.57439e-12
-2.4357e-12
-4.12546e-13
-2.73994e-12
-2.32541e-12
-8.50038e-13
-2.67343e-12
-1.91685e-12
-4.53256e-13
-2.05709e-12
-1.27781e-12
6.82213e-14
-2.18802e-12
-1.63018e-12
5.38553e-14
-1.41537e-12
-1.10975e-12
7.79003e-14
-1.28549e-12
-4.70587e-13
1.62364e-15
-9.1611e-13
-7.97317e-13
-7.49994e-14
-6.38709e-13
-7.33092e-13
2.36669e-13
-5.19605e-13
-2.76553e-13
-3.1369e-13
-6.89571e-13
-7.04485e-13
4.53158e-14
1.95959e-13
5.5921e-14
2.41899e-13
5.69602e-14
2.42127e-13
-7.07726e-13
-4.44477e-12
-1.09899e-12
-1.64325e-12
-5.94679e-12
-1.66507e-12
-2.23989e-12
-5.50921e-12
-1.52839e-12
-2.79146e-12
-4.87422e-12
-1.03071e-12
-2.4332e-12
-4.3804e-12
-7.88497e-13
-3.01575e-12
-3.99216e-12
-1.04278e-12
-3.07193e-12
-2.73363e-12
-3.26807e-13
-2.68899e-12
-2.52334e-12
-5.14889e-13
-2.34047e-12
-2.04703e-12
-6.05033e-13
-1.60289e-12
-1.79675e-12
-5.41943e-13
-2.04492e-12
-1.74975e-12
-7.53707e-13
-1.57545e-12
-1.40399e-12
1.49676e-14
-1.0087e-12
-1.11416e-12
2.15963e-14
-1.52478e-12
-9.85457e-13
-1.09693e-13
-8.73036e-13
-5.45211e-13
5.24839e-13
-7.23192e-13
-8.24168e-13
2.65895e-13
-4.79463e-13
-5.9394e-13
4.02726e-15
5.84601e-14
-6.65883e-13
-3.90421e-13
-1.9506e-13
-5.73526e-13
1.4002e-13
1.17329e-13
3.0223e-13
-2.07189e-13
-3.18724e-12
-8.08351e-13
-9.08226e-13
-5.0113e-12
-1.2026e-12
-1.54362e-12
-4.39269e-12
-1.0752e-12
-2.19505e-12
-4.12944e-12
-6.86302e-13
-2.54067e-12
-3.97012e-12
-7.50271e-13
-2.2374e-12
-3.00888e-12
-5.6192e-13
-2.56506e-12
-2.97612e-12
-9.94228e-13
-1.50795e-12
-2.43148e-12
-6.51237e-13
-1.84746e-12
-2.17497e-12
-4.18206e-13
-1.33207e-12
-1.83476e-12
-4.82704e-14
-1.65545e-12
-1.24975e-12
-4.54474e-13
-1.43004e-12
-1.31209e-12
-5.0649e-14
-1.28751e-12
-1.21145e-12
-6.00935e-14
-1.57559e-12
-1.14623e-12
1.93617e-14
-1.11214e-12
-1.04435e-12
-3.10113e-13
-8.41786e-13
-1.02994e-12
9.95956e-14
-9.37051e-14
-5.55115e-13
3.62171e-13
-4.55119e-13
-6.86151e-13
-3.21873e-13
3.73768e-14
-3.9781e-13
-3.04212e-13
-2.74535e-13
1.54582e-13
-5.3227e-13
-2.55042e-12
-3.23834e-13
-5.03633e-13
-3.37069e-12
-7.6542e-13
-1.42904e-12
-3.59892e-12
-4.29563e-13
-1.88863e-12
-3.38895e-12
-8.50558e-13
-1.78535e-12
-2.8695e-12
-2.89036e-13
-1.89402e-12
-2.46744e-12
-7.49302e-13
-1.82694e-12
-2.32371e-12
-5.12314e-13
-1.66308e-12
-2.31633e-12
8.37244e-15
-1.7444e-12
-1.7205e-12
-6.71047e-13
-1.42428e-12
-1.49623e-12
3.22971e-13
-1.3681e-12
-1.3325e-12
-1.8578e-13
-1.54206e-12
-1.23338e-12
-2.03132e-13
-1.51413e-12
-1.11245e-12
2.16913e-13
-1.18384e-12
-7.00231e-13
8.44137e-15
-8.33703e-13
-6.95934e-13
-2.92965e-13
-5.20194e-13
-8.04473e-13
-1.93019e-13
-2.23794e-13
-8.60199e-13
-2.39979e-13
-5.26883e-13
-7.56948e-13
-4.79517e-13
-1.64291e-13
-3.79711e-13
3.78484e-13
-1.99981e-13
2.41749e-13
-3.16166e-13
-2.21337e-12
-4.33285e-13
-6.30862e-13
-3.17958e-12
-6.64106e-13
-7.73742e-13
-2.71069e-12
-5.09717e-13
-7.92349e-13
-2.67376e-12
-3.40469e-13
-1.26422e-12
-2.76454e-12
-7.25752e-13
-1.29868e-12
-2.28979e-12
-9.28208e-13
-1.19487e-12
-1.63969e-12
-9.34259e-13
-1.20694e-12
-1.93022e-12
-4.08289e-13
-1.52073e-12
-1.52222e-12
-1.164e-13
-1.49187e-12
-1.35807e-12
-3.97999e-13
-1.06708e-12
-9.73719e-13
2.96415e-13
-1.53672e-12
-1.21809e-12
-7.8428e-15
-1.11431e-12
-6.81128e-13
6.48213e-14
-8.96703e-13
-5.78152e-13
9.79468e-14
-8.51746e-13
-7.58044e-13
-4.2529e-13
-4.72037e-13
-7.46666e-13
2.65679e-13
-3.4311e-13
-6.59601e-13
-3.55975e-13
-4.64139e-15
-3.81526e-13
-2.68808e-13
-1.47709e-13
-8.63446e-13
8.38093e-14
1.34709e-13
1.0103e-13
-4.01632e-13
-1.90696e-12
-7.59359e-13
-4.51092e-13
-2.23051e-12
-2.98208e-13
-9.44141e-13
-2.12485e-12
-1.35018e-13
-9.91283e-13
-2.11372e-12
-1.65097e-13
-1.19186e-12
-2.19393e-12
-4.10384e-13
-9.66469e-13
-1.66437e-12
-2.61442e-13
-1.29447e-12
-1.59878e-12
-5.32741e-13
-1.05437e-12
-1.22297e-12
-3.0333e-13
-9.67587e-13
-1.52162e-12
-4.54814e-13
-1.3438e-12
-1.5277e-12
-3.27075e-13
-1.17904e-12
-1.06983e-12
9.29434e-14
-8.89374e-13
-9.04493e-13
-6.39489e-14
-9.56504e-13
-4.09508e-13
7.8373e-14
-1.00073e-12
-7.88004e-13
-3.14166e-13
-9.41565e-13
-6.85731e-13
-2.87584e-13
-7.51543e-13
-6.5092e-13
3.47958e-13
-6.84449e-13
-4.82047e-13
-5.22225e-13
-3.8523e-13
-3.72851e-13
-3.99178e-14
1.10113e-13
-3.99465e-13
-1.96722e-13
1.88123e-13
-2.52698e-13
-1.91411e-13
-1.4069e-12
-3.18281e-13
-3.64214e-13
-2.2848e-12
2.38731e-13
-7.22915e-13
-1.43508e-12
-5.47976e-13
-6.94614e-13
-1.76008e-12
-3.84495e-13
-7.20332e-13
-1.88471e-12
-3.91785e-13
-8.659e-13
-1.86046e-12
-2.54812e-13
-8.88566e-13
-1.07815e-12
-1.52542e-13
-8.97405e-13
-1.20855e-12
-4.42141e-13
-7.22407e-13
-1.32416e-12
-1.44754e-13
-7.13829e-13
-1.0032e-12
-3.40332e-13
-8.71595e-13
-1.01844e-12
1.13952e-13
-5.90552e-13
-8.2803e-13
2.00511e-13
-8.05973e-13
-4.90973e-13
-3.4181e-13
-4.31604e-13
-4.07912e-13
-3.97329e-14
-4.62313e-13
-6.49028e-13
-1.72904e-13
-5.95752e-14
-4.02309e-13
1.0774e-13
-7.5721e-13
-1.01679e-12
-4.22166e-15
-1.66507e-13
-5.66809e-13
3.90097e-14
3.26359e-13
-4.14011e-13
-9.9005e-14
1.67983e-17
2.26702e-14
-5.74788e-13
-1.37103e-12
-2.23692e-13
9.8933e-14
-1.06665e-12
-3.76443e-13
-4.25898e-13
-1.87271e-12
-4.69903e-13
-5.10153e-13
-1.79314e-12
-2.08489e-13
-2.63389e-13
-1.18299e-12
-1.54853e-13
-4.90139e-13
-7.70818e-13
4.4425e-13
-1.05801e-12
-1.0944e-12
-2.99252e-13
-9.14259e-13
-5.03825e-13
1.43632e-13
-8.30773e-13
-8.03196e-13
-2.28391e-13
-1.18643e-12
-1.029e-12
-4.51042e-13
-9.6969e-13
-4.6125e-13
-3.00299e-13
-1.10478e-12
-6.55959e-13
2.5753e-13
-6.2383e-13
3.43398e-14
5.40011e-14
-8.6516e-13
-4.28096e-13
-2.86696e-13
-8.35411e-13
-1.13113e-12
-3.98718e-13
-5.12451e-13
-4.65057e-13
-4.2303e-13
-9.0422e-14
-8.10211e-13
-1.49899e-13
-1.98926e-13
-7.82642e-13
1.77712e-14
-4.58044e-13
-7.25412e-13
8.10811e-14
2.15103e-13
2.78047e-13
2.55335e-13
-8.03134e-13
8.68535e-14
-7.44124e-13
-1.4703e-12
4.60866e-14
-9.50135e-14
-7.25238e-13
2.76111e-14
-3.41322e-13
-1.32504e-12
5.31125e-14
-4.10093e-13
-8.34271e-13
-1.41488e-13
-1.12175e-12
-1.02617e-12
-4.59908e-13
-5.90124e-13
-5.9019e-13
2.64075e-13
-7.39579e-13
-7.39432e-13
8.05873e-14
-9.69881e-13
-8.36992e-13
-4.42657e-13
-5.61636e-13
-1.88412e-13
-3.47966e-14
-8.68214e-13
-7.53429e-13
-4.82834e-13
-7.14048e-13
-7.13939e-13
-3.42922e-13
-7.22946e-13
-3.61075e-13
2.19917e-13
-1.03721e-12
-4.87409e-13
-3.03668e-13
-7.07936e-14
-2.36479e-13
-5.38332e-14
-3.82857e-13
-7.18435e-13
-2.18532e-13
-6.8807e-14
-4.27713e-13
-1.46695e-13
-1.57758e-13
-6.01402e-13
1.50538e-15
1.31521e-14
-4.37654e-13
-3.26717e-14
-3.15612e-13
-5.13128e-13
7.91477e-15
-9.41067e-13
-2.42657e-13
7.68731e-14
-8.89528e-13
1.5022e-13
-2.8648e-13
-1.0524e-12
7.92929e-14
-1.56402e-13
-4.98582e-13
3.56233e-14
-8.54989e-13
-4.12735e-13
-4.01796e-13
-9.46463e-13
-4.70969e-13
-5.55205e-13
-5.98073e-13
-6.05713e-13
-1.34122e-13
-3.68936e-13
-1.80777e-13
-6.99306e-14
-4.00361e-13
-9.36859e-13
-6.93719e-14
-1.20117e-12
-1.10673e-12
-6.41405e-13
-5.06656e-13
-4.1268e-13
-2.89132e-13
-5.72658e-13
-8.41325e-13
1.39114e-13
-4.57209e-13
-2.93809e-13
1.51904e-13
-2.67119e-13
-6.71864e-13
1.33609e-13
-4.86157e-13
-7.22517e-13
-1.52294e-13
6.81909e-14
-4.61917e-13
-1.23736e-13
-5.73708e-13
-5.53643e-13
-2.59231e-14
-1.47632e-13
9.67042e-14
4.5912e-13
-2.14077e-13
1.87637e-13
2.99106e-14
-2.40372e-13
-3.77677e-13
4.56359e-14
-2.04959e-13
1.45637e-13
-1.40491e-13
-3.42479e-13
1.61513e-13
1.485e-14
-2.23544e-13
-3.38808e-14
-2.88871e-13
-3.68927e-13
-2.33379e-13
-7.56298e-13
-4.5241e-13
-3.3129e-13
-4.23666e-13
3.29525e-14
-3.13274e-13
9.3765e-14
-1.78349e-13
-3.34973e-13
-3.94046e-13
-4.19884e-13
-3.75541e-14
-6.58422e-13
-3.56577e-13
-6.28553e-14
-6.34656e-13
-8.95974e-13
-1.55817e-13
-5.97798e-13
-8.01145e-13
-6.37348e-13
-3.17288e-13
-7.71896e-13
-3.44684e-14
-1.00052e-12
-2.60991e-13
-1.55396e-13
-5.9607e-13
-7.16638e-15
1.08688e-13
-4.8251e-13
1.36912e-13
1.97892e-14
-2.38951e-13
-3.11534e-13
-1.15551e-13
-3.41667e-13
-4.79779e-14
5.90541e-14
-1.73368e-13
-4.67494e-14
-8.63512e-14
-3.03321e-13
3.06718e-13
-1.01886e-14
2.70453e-13
-2.36533e-13
1.21939e-13
-1.07205e-13
-4.17417e-13
-2.32269e-13
-4.63177e-13
-6.03134e-13
-4.68931e-13
-4.80745e-13
-4.05263e-13
-4.09301e-13
-6.0105e-13
-3.86163e-13
-2.56859e-13
1.15175e-13
-2.92993e-13
-4.34812e-13
-3.10942e-13
-2.88549e-13
-6.37711e-13
-2.75244e-13
-1.38188e-13
-3.02016e-13
1.06998e-13
-2.45402e-13
-6.77823e-13
-3.93023e-13
-4.21487e-13
-5.56599e-13
-4.20556e-13
6.05687e-15
-1.35397e-13
-2.75191e-13
2.19897e-13
1.32579e-13
-2.97419e-13
-9.70227e-15
-5.67116e-13
-8.91899e-13
-2.26884e-13
-4.47187e-13
-2.24909e-13
-4.29499e-13
-4.9686e-13
-4.3579e-13
-1.0667e-13
-2.22754e-13
-1.77314e-13
-8.69858e-14
-3.67003e-13
-1.14286e-13
3.40364e-13
-3.00985e-13
1.92618e-13
-3.79473e-13
-8.46919e-14
1.76569e-13
2.31567e-13
-1.12915e-13
-2.05001e-13
-2.68995e-13
-2.97689e-15
-5.04936e-13