/*--------------------------------*- C++ -*----------------------------------*\
| =========                 |                                                 |
| \\      /  F ield         | OpenFOAM: The Open Source CFD Toolbox           |
|  \\    /   O peration     | Version:  v2012                                 |
|   \\  /    A nd           | Website:  www.openfoam.com                      |
|    \\/     M anipulation  |                                                 |
\*---------------------------------------------------------------------------*/
FoamFile
{
    version     2.0;
    format      ascii;
    class       volVectorField;
    location    "40";
    object      U;
}
// * * * * * * * * * * * * * * * * * * * * * * * * * * * * * * * * * * * * * //

dimensions      [0 1 -1 0 0 0 0];


internalField   nonuniform List<vector> 
8000
(
(-8.31026e-08 -8.31625e-08 -8.31187e-08)
(-9.08892e-08 -1.65103e-08 -1.6572e-08)
(-2.12288e-08 -1.16609e-08 -1.15722e-08)
(-1.85978e-08 -3.26003e-09 -3.23266e-09)
(-6.66625e-09 -1.92218e-09 -1.92092e-09)
(-5.11064e-09 -7.40351e-10 -7.31962e-10)
(-2.62591e-09 -3.60305e-10 -4.25266e-10)
(-2.01744e-09 -1.93082e-10 -1.13692e-10)
(-1.40632e-09 -8.33189e-11 -1.12644e-10)
(-1.02611e-09 8.44528e-12 9.7449e-12)
(-7.67485e-10 -2.46789e-11 6.08335e-11)
(-6.15726e-10 -1.34318e-11 -1.21246e-11)
(-4.63739e-10 -1.98622e-11 3.54851e-11)
(-3.85259e-10 -1.16691e-11 1.76098e-11)
(-3.60614e-10 -1.82323e-12 3.4805e-11)
(-3.05093e-10 6.32807e-11 -3.13099e-11)
(-2.64558e-10 3.27004e-11 -8.89115e-11)
(-1.68954e-10 -2.77169e-11 -4.52224e-11)
(5.2764e-11 4.45558e-11 -5.09211e-11)
(5.704e-11 5.50767e-12 3.88471e-11)
(-1.64806e-08 -9.09955e-08 -1.65291e-08)
(-2.2681e-08 -2.27165e-08 -7.02562e-09)
(-1.03629e-08 -1.80461e-08 -5.66164e-09)
(-1.03127e-08 -5.42675e-09 -2.27293e-09)
(-5.36713e-09 -3.55365e-09 -1.30956e-09)
(-4.53082e-09 -1.44941e-09 -5.80606e-10)
(-2.96532e-09 -8.98221e-10 -4.46132e-10)
(-2.30641e-09 -5.44304e-10 -1.8465e-10)
(-1.58235e-09 -3.41092e-10 -1.91919e-10)
(-1.18297e-09 -1.33068e-10 -9.96138e-11)
(-9.70195e-10 -8.80155e-11 -2.26242e-11)
(-8.00527e-10 -1.69941e-10 -2.09661e-11)
(-6.36042e-10 -1.48884e-10 6.8901e-12)
(-5.66296e-10 -9.41275e-11 -1.17634e-10)
(-4.11398e-10 -5.08829e-11 -1.01743e-11)
(-2.92195e-10 -7.47121e-11 -2.48359e-11)
(-2.59281e-10 -9.16963e-12 8.78263e-13)
(-5.61736e-11 -1.37288e-10 -4.36144e-11)
(4.10165e-11 -5.15945e-11 1.37715e-11)
(-1.4131e-11 6.07736e-11 -4.4557e-11)
(-1.16038e-08 -2.12471e-08 -1.15195e-08)
(-1.80279e-08 -1.03158e-08 -5.55766e-09)
(-9.31883e-09 -9.19642e-09 -4.61599e-09)
(-9.23983e-09 -4.08922e-09 -1.94049e-09)
(-5.09398e-09 -3.09693e-09 -1.19841e-09)
(-4.26391e-09 -1.52858e-09 -6.15125e-10)
(-2.82489e-09 -1.10244e-09 -3.89092e-10)
(-2.24667e-09 -7.03257e-10 -1.49517e-10)
(-1.61076e-09 -4.82812e-10 2.7675e-12)
(-1.25975e-09 -3.88172e-10 -1.67985e-10)
(-1.05728e-09 -2.68575e-10 -6.85047e-11)
(-8.39695e-10 -3.0294e-10 1.83696e-11)
(-6.85671e-10 -1.90221e-10 -1.7662e-11)
(-4.50308e-10 -1.37508e-10 -8.79183e-11)
(-3.29291e-10 7.72952e-12 -3.38939e-11)
(-3.10379e-10 -1.24968e-10 3.99437e-11)
(-2.38088e-10 7.40286e-11 -2.01569e-11)
(-9.64739e-11 -7.82772e-11 6.04941e-11)
(5.54374e-12 1.01529e-11 6.56636e-11)
(-5.42125e-12 8.27795e-11 4.64756e-11)
(-3.30377e-09 -1.85516e-08 -3.28732e-09)
(-5.40905e-09 -1.03997e-08 -2.19268e-09)
(-4.09035e-09 -9.09543e-09 -1.87562e-09)
(-4.4885e-09 -4.47517e-09 -9.42943e-10)
(-3.14632e-09 -3.39785e-09 -7.07305e-10)
(-2.87204e-09 -1.78611e-09 -3.51549e-10)
(-2.14212e-09 -1.348e-09 -2.61573e-10)
(-1.76444e-09 -8.81272e-10 -1.51997e-10)
(-1.39382e-09 -5.84818e-10 -5.19126e-11)
(-1.1164e-09 -5.26838e-10 -3.39416e-12)
(-8.63813e-10 -3.58048e-10 1.42022e-11)
(-6.27899e-10 -3.10751e-10 -6.15574e-11)
(-5.34071e-10 -1.59729e-10 3.01449e-11)
(-4.41123e-10 -1.32441e-10 -8.08885e-11)
(-3.24223e-10 -4.84589e-11 -1.97351e-10)
(-2.79946e-10 1.20529e-11 6.62028e-12)
(-8.10058e-11 5.66768e-11 -7.17013e-11)
(4.70571e-11 -5.37129e-11 3.99976e-11)
(-2.02996e-11 -4.05948e-12 -1.86611e-11)
(-2.7824e-11 -7.5939e-11 1.20764e-10)
(-1.98522e-09 -6.58552e-09 -2.0093e-09)
(-3.5209e-09 -5.49615e-09 -1.3172e-09)
(-2.9756e-09 -4.99284e-09 -1.27454e-09)
(-3.36662e-09 -3.20272e-09 -6.69163e-10)
(-2.43714e-09 -2.5273e-09 -3.07587e-10)
(-2.22465e-09 -1.71658e-09 -2.43691e-10)
(-1.74351e-09 -1.21803e-09 -1.67906e-10)
(-1.44038e-09 -8.72053e-10 -6.20624e-11)
(-1.19285e-09 -6.56146e-10 -4.4207e-11)
(-8.6758e-10 -4.95063e-10 -4.56277e-11)
(-7.52989e-10 -4.20163e-10 -2.23753e-11)
(-6.68473e-10 -3.59468e-10 -2.78426e-11)
(-5.77414e-10 -2.00523e-10 -4.88221e-11)
(-5.32695e-10 -1.5414e-10 4.12643e-11)
(-3.49245e-10 -2.39695e-10 4.59014e-11)
(-4.01524e-10 -7.37097e-11 3.16168e-11)
(-2.08332e-10 -6.87169e-11 -2.09594e-13)
(-1.1224e-10 -4.74791e-11 4.29462e-11)
(-1.37807e-10 -4.1944e-11 4.73178e-11)
(3.05933e-11 -1.72324e-10 6.68514e-11)
(-6.61702e-10 -5.08756e-09 -7.17154e-10)
(-1.36646e-09 -4.52551e-09 -6.72856e-10)
(-1.68033e-09 -4.24426e-09 -6.62317e-10)
(-2.10439e-09 -2.83392e-09 -4.41426e-10)
(-1.83638e-09 -2.24435e-09 -2.41534e-10)
(-1.63163e-09 -1.83679e-09 -5.66924e-11)
(-1.31034e-09 -1.31313e-09 -9.42111e-12)
(-1.16534e-09 -8.90156e-10 -5.51491e-11)
(-9.54567e-10 -7.83213e-10 -3.65192e-11)
(-8.30718e-10 -5.73723e-10 -3.90966e-11)
(-7.73231e-10 -3.58081e-10 -2.95185e-11)
(-6.48641e-10 -3.40666e-10 -4.63369e-11)
(-5.2615e-10 -1.21453e-10 -7.68633e-11)
(-4.24192e-10 -2.36936e-10 1.45099e-11)
(-3.4915e-10 -2.22866e-10 3.51431e-11)
(-3.23659e-10 -5.69413e-11 -5.53201e-11)
(-1.24008e-10 -7.05151e-11 5.83255e-12)
(-1.83016e-10 -1.15017e-10 -1.83868e-11)
(-1.34377e-10 -3.27198e-11 4.88776e-11)
(6.42522e-11 -1.44041e-10 -4.31891e-12)
(-3.74408e-10 -2.59434e-09 -4.08301e-10)
(-9.23629e-10 -2.96739e-09 -3.68981e-10)
(-1.12808e-09 -2.80666e-09 -3.57764e-10)
(-1.31758e-09 -2.06557e-09 -2.57643e-10)
(-1.22362e-09 -1.76395e-09 -2.20274e-10)
(-1.17179e-09 -1.50598e-09 -1.69227e-10)
(-9.4333e-10 -1.22353e-09 -7.89407e-11)
(-8.98803e-10 -8.10089e-10 -4.18508e-12)
(-8.21645e-10 -7.38953e-10 9.02891e-12)
(-5.88329e-10 -5.61791e-10 2.78002e-11)
(-6.09023e-10 -3.78072e-10 -3.11513e-11)
(-5.60773e-10 -2.95358e-10 -4.59912e-11)
(-4.76657e-10 -2.69814e-10 -1.02123e-10)
(-3.22343e-10 -1.265e-10 -1.55969e-11)
(-1.27394e-10 -2.07459e-10 -4.7773e-11)
(-2.16247e-10 -6.90939e-11 4.68547e-11)
(-2.60505e-10 -1.71758e-10 1.12454e-11)
(-2.90951e-10 -2.60162e-10 -6.84971e-11)
(-1.17301e-10 -1.80662e-10 -1.17451e-10)
(2.82286e-11 -1.73009e-10 -3.02032e-11)
(-1.96199e-10 -1.98823e-09 -1.77369e-10)
(-4.6222e-10 -2.31152e-09 -1.74067e-10)
(-7.36245e-10 -2.21378e-09 -1.79844e-10)
(-9.8029e-10 -1.71666e-09 -1.01173e-10)
(-9.56168e-10 -1.56309e-09 -1.87358e-10)
(-8.79001e-10 -1.17487e-09 -1.1317e-10)
(-7.31912e-10 -9.53051e-10 -1.51796e-10)
(-6.72672e-10 -6.68341e-10 -8.27738e-11)
(-5.31475e-10 -6.40757e-10 -3.33052e-11)
(-5.83063e-10 -4.28053e-10 1.52106e-11)
(-5.70064e-10 -4.46188e-10 -3.54039e-11)
(-5.92229e-10 -3.84702e-10 -7.63238e-11)
(-4.05654e-10 -2.24698e-10 -3.89117e-11)
(-2.32274e-10 -1.10231e-10 -1.47358e-10)
(-3.66433e-10 -2.19165e-10 -1.21727e-10)
(-2.27066e-10 -1.07344e-10 1.14156e-12)
(-8.54967e-11 -1.25464e-10 -4.03744e-11)
(2.41868e-11 -8.04613e-11 -2.04227e-11)
(-3.9242e-11 -2.64312e-10 -5.23851e-11)
(-1.01335e-10 -2.07971e-10 -7.62178e-11)
(-8.3876e-11 -1.32757e-09 -6.34706e-11)
(-3.33806e-10 -1.61056e-09 -3.36966e-11)
(-4.94164e-10 -1.62152e-09 -1.01385e-10)
(-6.43506e-10 -1.32023e-09 -8.78694e-11)
(-6.53983e-10 -1.1741e-09 -6.94014e-11)
(-6.25184e-10 -9.53057e-10 -4.24393e-11)
(-6.38128e-10 -8.30264e-10 -5.96509e-11)
(-5.36276e-10 -6.60651e-10 -8.37675e-12)
(-3.86312e-10 -6.84685e-10 3.76297e-11)
(-3.7473e-10 -4.15082e-10 -1.15809e-11)
(-3.99082e-10 -4.00997e-10 4.15985e-11)
(-2.88127e-10 -4.29302e-10 -6.04184e-11)
(-2.68152e-10 -1.94737e-10 -6.08013e-11)
(-2.53526e-10 -2.4897e-10 -5.34109e-12)
(-8.29834e-11 -2.58322e-10 3.42783e-12)
(-6.61404e-11 -1.97487e-10 -1.06235e-11)
(-6.53633e-11 -5.11155e-11 -9.51402e-11)
(-1.01532e-10 -6.15598e-11 -5.99595e-11)
(-6.60211e-11 -1.29076e-10 1.59365e-11)
(3.14533e-11 -7.59864e-11 1.6775e-11)
(-6.2082e-11 -9.88601e-10 -5.90411e-11)
(-6.06712e-11 -1.28048e-09 1.62039e-11)
(-2.60981e-10 -1.12216e-09 -5.90445e-11)
(-5.48482e-10 -1.14062e-09 -7.56022e-11)
(-4.50047e-10 -9.13572e-10 -2.12485e-11)
(-4.70371e-10 -9.30899e-10 -6.57815e-11)
(-5.07001e-10 -7.27755e-10 3.84496e-11)
(-4.73413e-10 -6.16879e-10 -7.36566e-11)
(-3.80565e-10 -5.47165e-10 4.21075e-11)
(-4.01788e-10 -4.52714e-10 -2.47904e-11)
(-3.89644e-10 -3.6068e-10 4.46254e-11)
(-3.2775e-10 -3.39123e-10 6.02307e-12)
(-3.59633e-10 -2.44547e-10 -1.07749e-11)
(-2.70943e-10 -1.60655e-10 2.49599e-11)
(-2.21169e-10 -1.88764e-10 4.00744e-13)
(-1.33112e-10 -2.42969e-10 -4.5019e-11)
(-2.20592e-11 -4.71569e-11 1.88843e-11)
(-2.10292e-11 -1.62233e-10 -4.95528e-11)
(-4.07377e-11 -1.74029e-11 -4.13176e-11)
(-9.90874e-12 2.33267e-11 9.38292e-12)
(3.05446e-12 -8.28762e-10 -2.37627e-11)
(-3.24601e-11 -1.02199e-09 -6.71434e-11)
(-2.34106e-10 -9.17625e-10 4.66723e-11)
(-3.59405e-10 -8.96931e-10 -5.57108e-11)
(-3.64571e-10 -8.73304e-10 -9.97089e-12)
(-4.28372e-10 -8.27267e-10 -6.85723e-11)
(-4.9634e-10 -6.37465e-10 -7.85623e-11)
(-4.88322e-10 -6.41178e-10 1.2117e-11)
(-4.33986e-10 -4.5511e-10 3.12547e-11)
(-3.57414e-10 -5.06213e-10 -1.80405e-11)
(-2.69861e-10 -3.55912e-10 -3.40965e-11)
(-2.56347e-10 -2.4294e-10 3.94566e-11)
(-3.35536e-10 -2.19431e-10 -1.38971e-11)
(-3.63649e-10 -1.92695e-10 -4.79487e-11)
(-2.24589e-10 3.77934e-11 -5.04187e-11)
(-1.88707e-10 -1.05324e-10 4.44206e-11)
(-9.44512e-11 -2.42655e-11 -9.38681e-11)
(-3.62079e-11 -1.26202e-10 8.8109e-12)
(-4.06591e-11 -7.72775e-11 6.20853e-11)
(-4.94923e-12 -2.97813e-11 -3.20169e-11)
(3.19645e-11 -6.18895e-10 5.4885e-11)
(-1.66771e-11 -8.91044e-10 1.16766e-11)
(-7.86594e-11 -8.23662e-10 2.15482e-11)
(-2.31864e-10 -7.37798e-10 -3.04519e-11)
(-3.98711e-10 -7.90372e-10 -1.57997e-11)
(-3.05882e-10 -5.7294e-10 -1.52208e-11)
(-3.13349e-10 -5.16652e-10 -1.93897e-11)
(-3.60333e-10 -6.72072e-10 -1.38078e-11)
(-3.18134e-10 -5.08315e-10 9.89574e-11)
(-2.64035e-10 -3.53168e-10 7.75164e-11)
(-1.58849e-10 -3.34619e-10 -3.27416e-12)
(-2.41744e-10 -2.22957e-10 -5.79006e-12)
(-3.6652e-10 -2.25736e-10 6.72506e-11)
(-2.23395e-10 -1.38656e-10 -4.07873e-12)
(-2.04358e-10 5.58489e-11 -2.31587e-11)
(-1.90941e-10 -7.31154e-11 8.03906e-12)
(-1.10212e-10 -1.36805e-10 -6.95731e-11)
(-1.36673e-10 -1.33064e-10 -5.37357e-11)
(-2.85582e-11 -1.21367e-10 7.89621e-11)
(9.18028e-12 -5.04497e-11 2.22908e-11)
(6.67218e-11 -4.83931e-10 5.18568e-11)
(1.21859e-11 -6.78468e-10 -4.82279e-11)
(-1.31457e-10 -5.82075e-10 -7.48374e-11)
(-2.14169e-10 -7.11764e-10 3.93625e-11)
(-2.06725e-10 -6.40852e-10 -1.97579e-11)
(-1.60374e-10 -4.93961e-10 -4.20921e-12)
(-2.89134e-10 -3.77242e-10 3.23407e-12)
(-3.94987e-10 -3.09346e-10 -3.04515e-11)
(-2.95999e-10 -3.49563e-10 1.80024e-11)
(-3.06646e-10 -2.62664e-10 7.74228e-11)
(-4.37541e-10 -2.60107e-10 -6.38078e-11)
(-3.16385e-10 -2.24226e-10 -6.35468e-11)
(-2.30214e-10 -8.67829e-11 9.50253e-12)
(-2.21971e-10 -8.28729e-11 1.33748e-10)
(-1.34458e-10 -4.47232e-11 -5.04015e-11)
(-1.27722e-10 -1.42997e-10 -3.46715e-11)
(-6.11558e-11 -4.91643e-11 4.4664e-11)
(7.35991e-12 -1.31017e-10 -4.20309e-11)
(-2.12345e-11 -1.0318e-10 3.45251e-11)
(-2.86559e-11 -1.00338e-10 3.43103e-11)
(5.68762e-11 -3.26707e-10 5.78169e-12)
(-4.47325e-11 -4.55061e-10 -2.31578e-11)
(-1.17875e-10 -4.55134e-10 8.15721e-12)
(-9.40077e-11 -5.31183e-10 3.23016e-12)
(-1.57121e-10 -5.12843e-10 1.60035e-11)
(-1.6527e-10 -4.84313e-10 -3.91527e-11)
(-2.73251e-10 -3.09817e-10 -2.51402e-11)
(-3.70005e-10 -2.45032e-10 -2.29432e-12)
(-3.38744e-10 -2.53217e-10 -1.93109e-11)
(-3.24403e-10 -3.35211e-10 1.93374e-11)
(-3.00763e-10 -3.35434e-10 1.12093e-10)
(-2.15468e-10 -9.15254e-11 -1.72727e-11)
(-2.40365e-10 -1.33862e-10 -2.75131e-11)
(-2.78006e-10 -7.82474e-11 -2.35279e-11)
(-2.70321e-10 -1.23678e-10 -5.33566e-11)
(-2.33506e-10 -1.9588e-10 3.86826e-11)
(-1.56047e-10 -1.82297e-11 5.91482e-11)
(-4.86202e-11 -9.68451e-11 -3.09761e-11)
(4.75858e-11 1.32312e-12 -5.53401e-11)
(8.65156e-12 -2.49902e-11 -3.31685e-11)
(-1.47399e-11 -2.05934e-10 7.75299e-11)
(-4.76115e-11 -4.20322e-10 -1.73869e-10)
(1.2604e-12 -4.42826e-10 8.48847e-11)
(1.78601e-13 -2.96066e-10 5.56133e-11)
(9.1347e-12 -3.46809e-10 -5.69096e-11)
(-2.76117e-11 -3.88097e-10 -3.38072e-13)
(-2.17628e-10 -1.90551e-10 7.82156e-11)
(-2.07985e-10 -2.68495e-10 -7.27802e-11)
(-1.04884e-10 -2.35495e-10 -1.64808e-11)
(-2.33977e-10 -2.9505e-10 8.41319e-11)
(-2.63982e-10 -1.624e-10 8.80685e-11)
(-2.13513e-10 7.36191e-12 1.8085e-11)
(-2.77513e-10 -1.85224e-11 7.9093e-11)
(-2.56477e-10 -1.24693e-10 -4.92673e-11)
(-1.32933e-10 -1.37645e-10 -2.57797e-11)
(-1.79581e-10 -1.43809e-10 2.09006e-11)
(-1.12585e-10 -1.19582e-10 -2.33712e-11)
(-2.40662e-11 -1.71686e-10 2.41658e-11)
(-2.80726e-11 -2.23447e-11 -1.43573e-11)
(3.12117e-11 -5.29148e-11 -1.11914e-10)
(-6.29725e-11 -1.45778e-10 -7.662e-11)
(-1.10987e-10 -2.7678e-10 -4.87255e-13)
(-6.99722e-11 -2.286e-10 -1.43846e-11)
(-1.47378e-11 -3.38154e-10 -7.45953e-11)
(-1.14e-10 -2.07588e-10 3.93176e-11)
(-9.97808e-11 -2.98475e-10 1.41047e-10)
(-1.55677e-10 -1.42907e-10 2.62123e-11)
(-2.11594e-10 -3.73333e-11 2.52076e-11)
(-1.64177e-10 -8.43365e-11 5.46238e-11)
(-2.03227e-10 -1.69902e-10 1.32085e-11)
(-1.51001e-10 -8.65476e-11 -4.92169e-11)
(-1.69136e-10 2.36286e-11 2.27186e-11)
(-1.25528e-10 -2.63089e-12 4.37758e-11)
(-8.34042e-11 -1.11695e-10 -3.82281e-11)
(-1.45084e-10 -8.98292e-11 -2.75578e-11)
(-1.51256e-10 -1.25577e-10 4.93807e-11)
(3.30183e-12 -5.14976e-11 -9.34619e-12)
(1.13961e-10 -1.53659e-10 -2.53315e-11)
(9.81598e-12 -7.86408e-11 -4.99448e-11)
(-6.34981e-11 -1.00513e-10 2.79683e-11)
(-2.53362e-11 -1.52923e-10 3.17465e-12)
(2.4265e-11 -2.13186e-10 -3.28675e-12)
(-1.0179e-10 -1.30506e-10 2.79067e-11)
(-5.91044e-11 -3.93454e-10 1.65199e-11)
(-1.08753e-10 -2.7393e-10 7.10192e-11)
(-5.49906e-11 -1.14651e-10 8.62288e-11)
(4.63674e-11 -2.1301e-10 -1.76302e-11)
(-1.66608e-10 -4.31669e-11 3.61246e-11)
(-2.05008e-10 7.50661e-13 4.20159e-11)
(-1.54823e-10 -1.24825e-10 8.54653e-11)
(-3.55106e-11 -1.63708e-10 5.03189e-11)
(-1.28263e-10 -1.778e-10 -1.54565e-11)
(-1.36189e-10 -1.04125e-10 1.12463e-10)
(-2.24462e-10 -6.13473e-11 -6.75431e-12)
(-3.30072e-10 -3.58284e-11 7.56646e-11)
(-8.96586e-11 -7.27007e-11 2.71499e-11)
(-2.10595e-11 -1.10022e-10 2.11665e-12)
(-9.82214e-11 -4.73171e-11 5.20092e-11)
(9.77363e-12 -1.39074e-10 -2.26338e-12)
(3.20882e-11 7.12188e-11 -4.10366e-11)
(2.40993e-11 -1.27285e-10 6.00524e-11)
(6.39266e-12 -2.17035e-10 -2.19958e-11)
(-4.80495e-11 -1.11558e-10 -2.61272e-11)
(-5.03066e-11 -1.84269e-10 -1.40467e-11)
(5.16365e-11 -1.86421e-10 6.50754e-11)
(-1.10309e-11 -1.80168e-10 -7.75111e-11)
(-6.07264e-11 -1.62751e-10 3.49821e-11)
(2.99024e-11 -4.34988e-11 1.67946e-11)
(-2.42609e-10 -3.11273e-11 -2.45977e-11)
(-3.21531e-10 -8.46654e-11 6.82403e-11)
(-2.38988e-10 -4.73419e-11 -1.2457e-10)
(-8.49836e-11 -1.88768e-10 -7.00706e-12)
(-2.47004e-11 -8.02457e-11 1.31601e-11)
(-1.69948e-10 2.17068e-11 1.47881e-11)
(-1.60359e-10 -4.26792e-11 -8.8417e-11)
(-2.2452e-10 2.33072e-11 -1.08772e-10)
(-4.08653e-11 -1.43983e-10 -2.61936e-11)
(-6.49106e-11 -8.56299e-11 -8.46103e-11)
(-5.22848e-11 3.5487e-11 1.50432e-10)
(9.42158e-11 1.52538e-10 -3.24753e-11)
(-3.15962e-11 3.34618e-12 7.86753e-11)
(-7.38787e-11 -4.019e-11 4.70996e-11)
(-1.18536e-10 -7.79785e-11 -3.00948e-11)
(2.2961e-11 -7.02022e-11 5.03118e-12)
(6.09594e-12 -7.74908e-11 -4.63993e-12)
(-1.98345e-11 -1.54141e-10 6.24325e-11)
(1.8753e-11 -2.22664e-11 4.88205e-11)
(-1.07278e-10 -3.74727e-11 -8.98105e-12)
(-5.49119e-11 -2.79915e-11 6.3976e-11)
(-6.42385e-11 -3.89939e-11 -1.32603e-11)
(-1.0159e-10 -6.90636e-11 -1.17216e-10)
(-1.04915e-10 -5.10362e-11 -1.73042e-11)
(-7.67121e-11 5.3248e-12 8.674e-11)
(-1.27483e-10 1.0664e-10 3.36866e-11)
(-1.52659e-10 -3.71208e-11 8.9145e-12)
(-1.49095e-10 -2.43337e-11 3.76783e-11)
(-1.61432e-10 -6.77664e-11 6.16618e-11)
(-8.98422e-11 -8.12309e-11 -2.57203e-11)
(1.39341e-13 6.53754e-11 7.72477e-12)
(4.10036e-11 1.86407e-11 3.78177e-12)
(-2.37314e-11 1.58042e-11 4.8404e-11)
(-6.94604e-11 5.15489e-11 3.58544e-11)
(-9.9778e-11 -6.70405e-11 9.15999e-12)
(-1.26833e-10 -2.77593e-12 3.79389e-12)
(-5.96061e-11 -7.35149e-11 6.06918e-11)
(-6.53287e-11 3.107e-11 -4.94105e-11)
(-4.48901e-11 2.78765e-11 -2.97623e-11)
(-7.72673e-11 -1.38407e-11 -8.67471e-11)
(-1.47067e-10 3.3909e-12 -8.23263e-11)
(-5.31908e-11 -5.02828e-11 -5.662e-11)
(-1.25012e-10 -1.01646e-10 -1.00475e-10)
(-1.48711e-10 -8.07775e-11 4.01186e-11)
(-1.41762e-10 2.93374e-11 -6.1454e-11)
(-2.37211e-10 -6.14004e-13 6.49957e-11)
(-1.5559e-10 8.14687e-12 5.85672e-11)
(-1.17911e-10 -5.35026e-11 7.74417e-11)
(-1.25541e-10 -1.46463e-11 3.16101e-11)
(-1.27916e-10 -3.17809e-11 2.0411e-11)
(-8.40827e-11 -5.48912e-11 -8.50412e-11)
(1.56701e-11 -5.96876e-11 -5.6405e-11)
(-1.65133e-08 -1.65461e-08 -9.09094e-08)
(-2.27009e-08 -6.94297e-09 -2.28148e-08)
(-1.03233e-08 -5.72531e-09 -1.79884e-08)
(-1.02663e-08 -2.23327e-09 -5.29694e-09)
(-5.36089e-09 -1.3231e-09 -3.5508e-09)
(-4.65998e-09 -6.75774e-10 -1.46225e-09)
(-3.04198e-09 -3.85565e-10 -9.35457e-10)
(-2.3153e-09 -1.85244e-10 -5.87993e-10)
(-1.61687e-09 -2.14175e-10 -3.38562e-10)
(-1.20922e-09 -1.55856e-11 -2.26608e-10)
(-1.04807e-09 -6.22688e-11 -1.15126e-10)
(-8.21299e-10 -2.29615e-11 -6.70011e-11)
(-5.95541e-10 -7.09644e-11 -1.10869e-10)
(-4.71685e-10 -3.41416e-11 -4.91815e-11)
(-3.90642e-10 1.63514e-11 2.01186e-11)
(-2.76692e-10 6.55855e-11 -2.94116e-11)
(-1.75821e-10 -3.51803e-11 -1.39162e-10)
(-2.69207e-10 -4.94331e-11 -3.64993e-12)
(-1.06345e-10 -3.85267e-11 -2.94609e-12)
(7.04174e-11 -3.95718e-11 4.36638e-11)
(-7.04494e-09 -2.27148e-08 -2.27396e-08)
(-1.07788e-08 -1.06544e-08 -1.06984e-08)
(-8.10111e-09 -9.34783e-09 -9.24787e-09)
(-8.572e-09 -3.97915e-09 -4.03892e-09)
(-5.63588e-09 -2.65536e-09 -2.7071e-09)
(-5.0801e-09 -1.48113e-09 -1.39402e-09)
(-3.65487e-09 -1.08688e-09 -9.91814e-10)
(-2.87968e-09 -6.09055e-10 -5.38191e-10)
(-2.16772e-09 -4.2245e-10 -3.92656e-10)
(-1.76147e-09 -2.63352e-10 -2.71444e-10)
(-1.40869e-09 -1.74554e-10 -1.97699e-10)
(-1.1104e-09 -1.36511e-10 -8.41878e-11)
(-1.01865e-09 -1.74429e-10 -6.60613e-11)
(-7.71056e-10 1.46396e-11 -9.96854e-11)
(-4.46813e-10 -3.21692e-11 -5.77673e-11)
(-3.68581e-10 -9.32765e-13 -2.68271e-11)
(-3.56209e-10 -6.49858e-11 2.07749e-11)
(-1.68638e-10 -7.34418e-11 -7.79157e-11)
(-8.03175e-11 -4.45713e-11 -4.95023e-12)
(-5.99361e-11 2.12773e-11 -3.12207e-11)
(-5.69508e-09 -1.03341e-08 -1.79078e-08)
(-9.38997e-09 -7.98909e-09 -9.1912e-09)
(-7.41697e-09 -7.39448e-09 -7.94663e-09)
(-7.63478e-09 -4.18731e-09 -3.61448e-09)
(-5.19992e-09 -3.0855e-09 -2.66474e-09)
(-4.58233e-09 -1.92198e-09 -1.32305e-09)
(-3.29692e-09 -1.45064e-09 -8.31116e-10)
(-2.66735e-09 -9.62264e-10 -4.60996e-10)
(-2.19201e-09 -5.68203e-10 -3.0247e-10)
(-1.78168e-09 -5.32623e-10 -2.43031e-10)
(-1.33993e-09 -2.81942e-10 -2.12631e-10)
(-1.06509e-09 -3.32791e-10 -7.6237e-11)
(-9.372e-10 -1.03348e-10 -6.92663e-11)
(-7.66218e-10 2.64028e-12 -1.26254e-10)
(-5.53617e-10 -1.69205e-10 3.13548e-11)
(-5.05829e-10 -1.3136e-10 6.09754e-12)
(-3.89261e-10 -8.91635e-11 1.64032e-11)
(-2.38626e-10 -2.25996e-11 2.60949e-11)
(-2.97034e-11 1.50763e-11 6.93113e-11)
(1.06782e-10 -3.56799e-11 -2.54953e-11)
(-2.18444e-09 -1.02325e-08 -5.4564e-09)
(-3.93788e-09 -8.43994e-09 -3.85134e-09)
(-4.14091e-09 -7.83224e-09 -3.45526e-09)
(-4.71617e-09 -4.74262e-09 -1.97314e-09)
(-3.77646e-09 -3.3955e-09 -1.57344e-09)
(-3.41693e-09 -2.25619e-09 -8.72012e-10)
(-2.78263e-09 -1.64428e-09 -6.63768e-10)
(-2.38107e-09 -1.17729e-09 -5.3842e-10)
(-1.94181e-09 -8.61664e-10 -2.68227e-10)
(-1.59767e-09 -6.22167e-10 -5.82974e-11)
(-1.25868e-09 -4.36967e-10 -4.50588e-13)
(-9.58835e-10 -3.93754e-10 -1.35072e-10)
(-7.81998e-10 -1.40704e-10 -1.26874e-10)
(-6.7608e-10 -1.30357e-10 -7.54483e-11)
(-3.8616e-10 -1.96079e-10 -8.25995e-11)
(-3.96865e-10 -8.82241e-11 -9.46769e-11)
(-3.5205e-10 -1.30995e-10 -6.10245e-11)
(-8.38233e-11 -1.31574e-10 -9.19836e-12)
(-7.69571e-11 -1.10173e-10 -4.07828e-11)
(-2.69921e-11 -1.39699e-10 1.3267e-10)
(-1.23812e-09 -5.23613e-09 -3.67783e-09)
(-2.71996e-09 -5.64922e-09 -2.77105e-09)
(-3.23959e-09 -5.46421e-09 -2.60959e-09)
(-3.61876e-09 -3.88166e-09 -1.46142e-09)
(-3.08609e-09 -2.83419e-09 -1.03964e-09)
(-2.82103e-09 -2.07006e-09 -6.18732e-10)
(-2.22637e-09 -1.64149e-09 -4.84864e-10)
(-1.88383e-09 -1.1434e-09 -2.48712e-10)
(-1.62894e-09 -9.23409e-10 -2.50805e-10)
(-1.41189e-09 -6.14285e-10 -1.54992e-10)
(-1.11411e-09 -5.81704e-10 -7.97134e-11)
(-9.85709e-10 -4.98039e-10 -2.05577e-10)
(-8.33604e-10 -2.6207e-10 -2.26354e-10)
(-5.79995e-10 -2.07693e-10 -9.71006e-11)
(-4.93914e-10 -2.4158e-10 -4.46583e-11)
(-5.2366e-10 -1.01863e-10 3.52963e-11)
(-2.96586e-10 -1.99877e-10 1.18291e-12)
(-2.48149e-10 -2.51191e-10 9.75691e-12)
(-1.7008e-10 -2.23576e-11 7.88246e-11)
(6.23874e-11 -8.30761e-11 2.45373e-11)
(-5.79247e-10 -4.4688e-09 -1.46526e-09)
(-1.40469e-09 -5.08746e-09 -1.53652e-09)
(-1.95534e-09 -4.68974e-09 -1.41789e-09)
(-2.32972e-09 -3.64017e-09 -1.02377e-09)
(-2.20184e-09 -2.85036e-09 -7.70504e-10)
(-2.21216e-09 -2.19595e-09 -3.82065e-10)
(-1.94386e-09 -1.62347e-09 -2.444e-10)
(-1.71252e-09 -1.13003e-09 -3.2246e-10)
(-1.4063e-09 -9.34463e-10 -1.83021e-10)
(-1.21019e-09 -6.85262e-10 -1.59709e-10)
(-1.13194e-09 -5.99142e-10 -9.80094e-11)
(-8.77619e-10 -5.45398e-10 -1.22833e-10)
(-6.06509e-10 -2.65525e-10 -9.14232e-11)
(-4.81202e-10 -2.14201e-10 -5.15588e-11)
(-6.14446e-10 -2.292e-10 -4.52216e-11)
(-4.7768e-10 -6.33479e-11 -9.75666e-11)
(-1.3352e-10 -1.84749e-10 -9.34062e-13)
(-1.85802e-10 -1.7586e-10 -2.59796e-11)
(-2.79812e-10 -7.9271e-11 4.57769e-11)
(-1.11777e-10 -1.32473e-10 7.1545e-11)
(-4.16174e-10 -2.84595e-09 -1.00105e-09)
(-9.35031e-10 -3.71624e-09 -8.56739e-10)
(-1.28467e-09 -3.48633e-09 -9.6676e-10)
(-1.60516e-09 -2.82441e-09 -6.99622e-10)
(-1.53898e-09 -2.33663e-09 -6.07773e-10)
(-1.63819e-09 -2.02332e-09 -5.27727e-10)
(-1.49129e-09 -1.55964e-09 -3.26799e-10)
(-1.30069e-09 -1.12514e-09 -2.67225e-10)
(-1.1803e-09 -8.98376e-10 -2.28415e-10)
(-1.02393e-09 -6.71522e-10 -4.30759e-11)
(-8.91379e-10 -5.44497e-10 3.15039e-11)
(-7.63448e-10 -4.16395e-10 -1.53051e-10)
(-6.14677e-10 -4.13755e-10 -1.32186e-10)
(-3.6941e-10 -2.60702e-10 3.56763e-11)
(-3.10245e-10 -2.83275e-10 -7.33182e-12)
(-4.16245e-10 -1.68215e-10 7.91615e-11)
(-2.52852e-10 -1.8663e-10 3.90808e-11)
(-2.51409e-10 -1.68704e-10 4.08555e-11)
(-2.36351e-10 -2.27062e-10 -3.96007e-11)
(-3.08824e-11 -1.32028e-10 3.48884e-11)
(-2.34916e-10 -2.26905e-09 -4.85495e-10)
(-5.97065e-10 -3.00276e-09 -5.58133e-10)
(-9.01069e-10 -2.90805e-09 -5.25069e-10)
(-1.16621e-09 -2.33978e-09 -5.2642e-10)
(-1.16696e-09 -2.00693e-09 -5.01699e-10)
(-1.17972e-09 -1.68448e-09 -3.16326e-10)
(-1.16073e-09 -1.39922e-09 -2.08463e-10)
(-1.06379e-09 -1.02465e-09 -1.62005e-10)
(-8.80756e-10 -8.07257e-10 -2.47382e-10)
(-9.18548e-10 -6.26922e-10 -1.12582e-10)
(-8.11429e-10 -4.69009e-10 -6.08813e-11)
(-7.33683e-10 -4.52408e-10 4.65106e-12)
(-6.07033e-10 -4.1853e-10 1.07328e-11)
(-4.56587e-10 -2.20036e-10 -9.67617e-11)
(-3.77279e-10 -2.99063e-10 -2.95696e-11)
(-2.51665e-10 -2.49023e-10 2.12733e-11)
(-2.2143e-10 -9.56866e-11 -3.87408e-11)
(-1.38182e-10 -1.76141e-10 3.3447e-11)
(-6.19383e-11 -7.66793e-11 1.39799e-11)
(9.06193e-12 -2.41393e-11 2.83393e-12)
(-1.18968e-10 -1.71479e-09 -2.58913e-10)
(-3.94288e-10 -2.23789e-09 -3.24168e-10)
(-6.82223e-10 -2.13604e-09 -3.85107e-10)
(-8.86326e-10 -1.90825e-09 -2.32656e-10)
(-9.04892e-10 -1.68361e-09 -2.30174e-10)
(-9.17274e-10 -1.46584e-09 -2.04433e-10)
(-1.05232e-09 -1.05601e-09 -1.55694e-10)
(-1.05234e-09 -8.19879e-10 -1.24769e-10)
(-8.51905e-10 -7.18601e-10 -8.59122e-11)
(-6.59414e-10 -6.38392e-10 -1.24316e-10)
(-5.94692e-10 -5.46091e-10 -6.62363e-11)
(-5.9679e-10 -5.31868e-10 -2.87898e-11)
(-4.61831e-10 -3.85027e-10 -5.35022e-11)
(-4.27925e-10 -2.39133e-10 5.09353e-11)
(-3.88805e-10 -1.71945e-10 1.4721e-10)
(-2.84988e-10 -2.76842e-10 9.2381e-11)
(-1.96125e-10 -8.59348e-11 -1.58985e-11)
(-6.29899e-11 -2.38167e-10 -1.10329e-10)
(-2.66465e-12 -1.12779e-10 5.86892e-11)
(-1.79327e-11 6.23678e-11 6.3954e-11)
(-3.40807e-11 -1.26997e-09 -2.54997e-10)
(-1.49517e-10 -1.84574e-09 -2.10989e-10)
(-4.26512e-10 -1.67731e-09 -2.16127e-10)
(-6.44437e-10 -1.51651e-09 -1.42792e-10)
(-8.20477e-10 -1.42803e-09 -1.70153e-10)
(-8.5787e-10 -1.16724e-09 -1.56469e-10)
(-8.30236e-10 -9.76834e-10 -1.70992e-10)
(-7.08702e-10 -8.33776e-10 -1.49767e-10)
(-5.56128e-10 -7.58988e-10 -3.31576e-11)
(-5.20357e-10 -6.27044e-10 -5.86487e-12)
(-5.01769e-10 -5.10977e-10 -8.84009e-11)
(-5.48514e-10 -4.8292e-10 7.74608e-11)
(-4.57252e-10 -3.93974e-10 -1.63765e-11)
(-4.73701e-10 -3.74777e-10 2.74489e-11)
(-4.87339e-10 -2.94454e-10 -8.20375e-11)
(-3.31001e-10 -3.12956e-10 -3.40827e-11)
(-1.29726e-10 -2.30238e-10 3.34426e-11)
(-1.02189e-10 -2.41333e-10 -9.86735e-11)
(-3.45933e-11 -1.14493e-10 -9.72549e-11)
(3.09867e-11 -2.2335e-11 1.06811e-11)
(-8.38013e-11 -9.85417e-10 -4.0686e-11)
(-1.41951e-10 -1.44684e-09 -2.3112e-10)
(-3.33533e-10 -1.3814e-09 -1.84288e-11)
(-5.76089e-10 -1.26834e-09 -1.84997e-10)
(-6.2659e-10 -1.16666e-09 -1.27971e-10)
(-6.27709e-10 -9.13007e-10 -2.24085e-10)
(-6.50114e-10 -9.06967e-10 -9.17963e-11)
(-5.91548e-10 -8.46232e-10 1.67698e-11)
(-5.67588e-10 -6.86073e-10 -1.44477e-10)
(-5.41746e-10 -5.42547e-10 6.06541e-11)
(-4.65869e-10 -4.09184e-10 -1.02999e-10)
(-5.02125e-10 -4.29201e-10 -2.51142e-11)
(-4.92386e-10 -3.83583e-10 2.47008e-11)
(-5.12156e-10 -2.96869e-10 -2.21449e-11)
(-3.08171e-10 -3.22593e-10 -4.28747e-11)
(-1.43721e-10 -2.73507e-10 2.98581e-11)
(-1.25479e-10 -2.27037e-10 -1.17482e-10)
(-1.12551e-10 -2.19274e-10 -3.91002e-11)
(-1.17707e-10 -1.11337e-10 8.21154e-11)
(-4.99819e-11 -1.07749e-10 2.3195e-11)
(-2.43627e-11 -8.01311e-10 -3.29766e-11)
(-1.63341e-10 -1.09676e-09 -7.55482e-11)
(-2.27129e-10 -1.02464e-09 -1.03408e-10)
(-2.44963e-10 -1.04546e-09 -8.12459e-11)
(-3.72433e-10 -9.62831e-10 -1.87347e-10)
(-4.41098e-10 -8.32391e-10 -2.21057e-10)
(-3.9765e-10 -6.7766e-10 -1.33586e-10)
(-4.06014e-10 -7.51456e-10 -9.87408e-11)
(-4.67817e-10 -4.98295e-10 -1.75398e-11)
(-4.84619e-10 -4.76759e-10 -2.51512e-11)
(-4.60283e-10 -4.04529e-10 1.79806e-12)
(-4.26549e-10 -4.23825e-10 1.22363e-11)
(-4.15366e-10 -3.01871e-10 5.17191e-11)
(-3.81637e-10 -2.08412e-10 1.11609e-11)
(-2.84736e-10 -2.02162e-10 -1.41958e-10)
(-2.09435e-10 -2.52106e-10 3.67602e-11)
(-1.40496e-10 -2.57651e-10 -1.01903e-10)
(-2.86498e-11 -1.81348e-10 -7.8816e-11)
(-1.35391e-11 -2.29537e-10 3.31079e-11)
(-4.05168e-11 6.89379e-12 -2.09173e-11)
(-5.34731e-11 -6.76011e-10 -1.08667e-10)
(-1.50537e-10 -8.94166e-10 -9.30615e-11)
(-2.12865e-10 -8.32924e-10 -5.65336e-11)
(-3.12304e-10 -8.11898e-10 -3.88662e-11)
(-4.0504e-10 -8.4423e-10 -8.38538e-11)
(-3.72666e-10 -6.37327e-10 -6.85488e-11)
(-3.50814e-10 -5.26718e-10 -5.87849e-11)
(-3.97093e-10 -5.24692e-10 -9.02624e-11)
(-3.67272e-10 -5.49718e-10 -1.0685e-10)
(-3.79897e-10 -5.31588e-10 -2.12656e-11)
(-4.43335e-10 -3.50385e-10 -6.40397e-11)
(-3.36363e-10 -3.37168e-10 -4.59442e-11)
(-2.83832e-10 -1.6839e-10 3.67554e-11)
(-3.56852e-10 -2.55088e-10 2.13256e-11)
(-3.12572e-10 -2.27933e-10 -7.32186e-11)
(-2.79278e-10 -2.58708e-10 4.88099e-11)
(-2.81438e-10 -2.0038e-10 -1.53491e-11)
(-1.67592e-10 -1.29446e-10 -4.18386e-11)
(-1.58669e-11 -2.00098e-10 -3.75141e-11)
(1.34148e-11 6.60426e-11 -1.16796e-11)
(-3.67964e-11 -5.42145e-10 -9.97646e-11)
(-7.30914e-11 -7.65464e-10 7.2605e-11)
(-1.47937e-10 -5.88377e-10 -8.22806e-11)
(-2.5279e-10 -6.30978e-10 -5.77588e-11)
(-2.31587e-10 -6.64841e-10 -4.9045e-11)
(-2.73938e-10 -6.23879e-10 -1.07869e-10)
(-2.88888e-10 -4.45816e-10 -6.29056e-11)
(-2.95694e-10 -3.91813e-10 -1.19521e-10)
(-2.70837e-10 -4.8861e-10 -4.69923e-11)
(-2.19684e-10 -3.97821e-10 -1.31176e-10)
(-2.87212e-10 -3.48539e-10 7.48078e-11)
(-2.36166e-10 -3.05197e-10 -3.34181e-11)
(-2.42709e-10 -1.53154e-10 -1.80258e-10)
(-1.89797e-10 -2.12717e-10 -3.8934e-11)
(-1.16129e-10 -2.26381e-10 -7.20334e-11)
(-5.46812e-11 -1.81972e-10 4.26119e-11)
(-1.93221e-10 -2.37934e-10 9.98154e-11)
(-1.77011e-10 -1.32834e-10 3.49809e-11)
(9.20061e-11 -1.35763e-10 -8.83035e-11)
(3.31139e-11 2.10021e-11 -2.67771e-11)
(-1.74366e-10 -4.93322e-10 -3.25434e-11)
(-4.30562e-11 -5.72911e-10 -2.33346e-10)
(-6.80645e-11 -5.26875e-10 -6.967e-12)
(-1.53656e-10 -5.99678e-10 1.77991e-11)
(-5.25881e-11 -5.50955e-10 -1.26776e-10)
(-1.58034e-10 -4.5595e-10 8.396e-11)
(-2.52057e-10 -3.86504e-10 3.57318e-11)
(-3.33096e-10 -2.73365e-10 -2.22683e-11)
(-3.11577e-10 -3.30519e-10 -1.68148e-11)
(-3.33258e-10 -3.30507e-10 2.98301e-12)
(-3.63934e-10 -2.50269e-10 -6.42332e-11)
(-3.50917e-10 -2.55103e-10 4.98565e-11)
(-2.35941e-10 -5.98594e-11 6.19249e-11)
(-2.46181e-10 -1.29342e-10 -9.83463e-11)
(-2.44665e-10 -3.15123e-10 -6.74916e-11)
(-2.22073e-10 -1.0781e-10 -5.66588e-11)
(-8.95653e-11 -3.09739e-10 -9.85385e-12)
(8.01276e-12 -2.42426e-10 6.78077e-14)
(-1.38131e-10 -2.16406e-10 4.8851e-11)
(-1.12842e-10 3.75198e-11 -2.02328e-11)
(6.13702e-11 -3.26407e-10 -7.86216e-11)
(-6.19078e-11 -4.24197e-10 1.83853e-11)
(-1.26901e-10 -4.45259e-10 -2.82389e-11)
(-7.09437e-11 -5.58589e-10 -7.52222e-11)
(-1.3423e-10 -3.04312e-10 -2.09472e-11)
(-2.57886e-10 -2.89611e-10 5.9947e-11)
(-2.7e-10 -2.39786e-10 6.54858e-11)
(-2.38543e-10 -2.02968e-10 4.20702e-12)
(-3.07736e-10 -2.90853e-10 -1.81035e-11)
(-2.15818e-10 -2.31321e-10 1.31507e-11)
(-2.43596e-10 -1.83211e-10 -1.25723e-10)
(-2.95714e-10 -2.0999e-10 -5.64103e-11)
(-2.35088e-10 -3.03994e-11 -3.21308e-12)
(-2.84415e-10 -1.1084e-10 -8.83524e-11)
(-1.68042e-10 -2.28501e-10 -3.04344e-11)
(-8.17845e-11 -1.93674e-10 -1.93824e-11)
(-6.10506e-11 -1.88922e-10 -5.48382e-11)
(-1.52639e-11 -2.44397e-10 2.72119e-11)
(-4.22435e-11 -1.72003e-10 -9.38777e-12)
(-1.54811e-11 -3.01876e-11 -6.93001e-12)
(-2.63106e-11 -2.63774e-10 -5.81028e-11)
(7.07488e-11 -3.86705e-10 -5.07268e-13)
(-3.30217e-11 -3.00165e-10 -1.73447e-11)