/*--------------------------------*- C++ -*----------------------------------*\
| =========                 |                                                 |
| \\      /  F ield         | OpenFOAM: The Open Source CFD Toolbox           |
|  \\    /   O peration     | Version:  v2006                                 |
|   \\  /    A nd           | Website:  www.openfoam.com                      |
|    \\/     M anipulation  |                                                 |
\*---------------------------------------------------------------------------*/
FoamFile
{
    version     2.0;
    format      ascii;
    class       volScalarField;
    location    "33";
    object      alphat;
}
// * * * * * * * * * * * * * * * * * * * * * * * * * * * * * * * * * * * * * //

dimensions      [1 -1 -1 0 0 0 0];


internalField   nonuniform List<scalar> 
78750
(
9.76494e-08
3.97652e-06
4.14212e-06
4.08944e-06
3.92108e-06
3.70203e-06
3.47839e-06
3.26889e-06
3.07719e-06
2.90508e-06
2.7535e-06
2.62214e-06
2.50995e-06
2.41537e-06
2.33649e-06
2.27129e-06
2.21762e-06
2.17329e-06
2.13613e-06
2.10395e-06
2.07457e-06
2.04575e-06
2.01514e-06
1.98033e-06
1.93868e-06
1.88731e-06
1.8235e-06
1.74068e-06
1.6342e-06
1.49666e-06
1.31747e-06
1.08562e-06
8.00061e-07
4.93496e-07
8.08919e-09
1.96094e-08
3.43058e-06
6.76525e-06
1.13861e-05
1.47438e-05
1.62876e-05
1.79958e-05
2.02655e-05
1.96197e-05
1.90023e-05
1.84937e-05
1.80669e-05
1.77072e-05
1.74059e-05
1.7152e-05
1.69385e-05
1.67593e-05
1.66037e-05
1.6466e-05
1.63357e-05
1.62025e-05
1.60561e-05
1.58883e-05
1.56912e-05
1.54549e-05
1.51647e-05
1.47953e-05
1.43061e-05
1.36496e-05
1.15393e-05
7.20813e-06
4.65812e-06
3.81482e-06
3.64477e-06
2.22422e-08
2.60391e-08
3.33389e-06
7.13293e-06
7.38665e-06
6.39349e-06
5.53106e-06
5.11133e-06
5.19762e-06
5.77173e-06
5.70745e-06
5.29417e-06
5.00226e-06
4.81153e-06
4.70453e-06
4.66494e-06
4.67837e-06
4.73367e-06
4.82395e-06
4.94688e-06
5.1046e-06
5.30335e-06
5.55292e-06
5.86585e-06
6.25607e-06
6.6486e-06
6.70998e-06
6.677e-06
6.51965e-06
6.12104e-06
5.44461e-06
4.69144e-06
4.29977e-06
5.2522e-06
3.30974e-06
3.10754e-08
1.29949e-08
3.21436e-06
7.5677e-06
8.46642e-06
6.86484e-06
5.38607e-06
4.39639e-06
3.74466e-06
3.34367e-06
3.13779e-06
3.17427e-06
3.46918e-06
3.7903e-06
3.99233e-06
4.28672e-06
4.59578e-06
4.85715e-06
5.02693e-06
5.076e-06
4.98648e-06
4.74973e-06
4.36651e-06
3.85065e-06
3.24035e-06
2.54914e-06
1.86693e-06
1.39788e-06
1.26948e-06
1.40503e-06
1.65661e-06
1.92559e-06
2.29734e-06
3.5696e-06
3.01091e-06
3.7071e-08
9.69673e-09
2.07334e-06
5.49421e-06
6.26976e-06
5.2448e-06
3.6037e-06
2.52144e-06
1.87294e-06
1.6335e-06
1.84293e-06
2.53559e-06
3.64455e-06
5.05621e-06
6.70061e-06
8.49854e-06
1.02636e-05
1.10428e-05
1.15488e-05
1.18378e-05
1.19127e-05
1.1771e-05
1.14038e-05
1.029e-05
8.60849e-06
6.75931e-06
4.89265e-06
3.18448e-06
1.86874e-06
1.16342e-06
1.04386e-06
1.30976e-06
1.92824e-06
3.88994e-06
2.30396e-06
4.59268e-08
6.34287e-09
1.70331e-06
3.88533e-06
4.40083e-06
3.04301e-06
2.07298e-06
1.59826e-06
1.52931e-06
1.87822e-06
2.66981e-06
3.90352e-06
5.58248e-06
7.74686e-06
1.03681e-05
1.17707e-05
1.25438e-05
1.31456e-05
1.35928e-05
1.38969e-05
1.40626e-05
1.40867e-05
1.39574e-05
1.36537e-05
1.31447e-05
1.09523e-05
8.10535e-06
5.48215e-06
3.33566e-06
1.86581e-06
1.1221e-06
9.75448e-07
1.31978e-06
2.84442e-06
2.15163e-06
5.08375e-08
4.96606e-09
1.3628e-06
2.96749e-06
3.40129e-06
2.31625e-06
1.70337e-06
1.51845e-06
1.71433e-06
2.29418e-06
3.26582e-06
4.63763e-06
6.42731e-06
8.66384e-06
1.12408e-05
1.24101e-05
1.30815e-05
1.35982e-05
1.39672e-05
1.41936e-05
1.42794e-05
1.4223e-05
1.40184e-05
1.3655e-05
1.19091e-05
9.44305e-06
7.05189e-06
4.89971e-06
3.13461e-06
1.89968e-06
1.23177e-06
1.05743e-06
1.38827e-06
3.20212e-06
1.92415e-06
5.75805e-08
3.76848e-09
1.23115e-06
2.33414e-06
2.48828e-06
1.71674e-06
1.45211e-06
1.53703e-06
1.95453e-06
2.7222e-06
3.86512e-06
5.39993e-06
7.32022e-06
9.58282e-06
1.20675e-05
1.42815e-05
1.50368e-05
1.56246e-05
1.60447e-05
1.62988e-05
1.63892e-05
1.63172e-05
1.60813e-05
1.44576e-05
1.21361e-05
9.70427e-06
7.31755e-06
5.12099e-06
3.29285e-06
1.98642e-06
1.25006e-06
1.01011e-06
1.26697e-06
2.973e-06
1.90306e-06
6.2299e-08
3.03121e-09
1.16462e-06
2.01243e-06
2.04191e-06
1.60249e-06
1.55385e-06
1.8084e-06
2.37109e-06
3.27106e-06
4.52765e-06
6.13467e-06
8.0691e-06
1.03015e-05
1.2769e-05
1.5265e-05
1.65147e-05
1.71276e-05
1.75162e-05
1.76831e-05
1.76361e-05
1.73869e-05
1.55688e-05
1.3142e-05
1.07241e-05
8.47364e-06
6.42813e-06
4.61038e-06
3.08961e-06
1.97339e-06
1.3243e-06
1.10555e-06
1.3857e-06
3.36742e-06
1.83769e-06
6.80486e-08
2.23718e-09
1.07569e-06
1.73382e-06
1.69202e-06
1.4822e-06
1.56889e-06
1.91812e-06
2.55271e-06
3.50542e-06
4.79262e-06
6.411e-06
8.34969e-06
1.05909e-05
1.30751e-05
1.56431e-05
1.80143e-05
1.98512e-05
2.08833e-05
2.09663e-05
2.0073e-05
1.82926e-05
1.58566e-05
1.31128e-05
1.04056e-05
7.9658e-06
5.88303e-06
4.16274e-06
2.8038e-06
1.8322e-06
1.27413e-06
1.09843e-06
1.39427e-06
3.44911e-06
1.85093e-06
7.29626e-08
1.61544e-09
8.88252e-07
1.51126e-06
1.48898e-06
1.49279e-06
1.74475e-06
2.2587e-06
3.07185e-06
4.21222e-06
5.68659e-06
7.49327e-06
9.63797e-06
1.21211e-05
1.48855e-05
1.7752e-05
2.04109e-05
2.25074e-05
2.37548e-05
2.39761e-05
2.30883e-05
2.11013e-05
1.81875e-05
1.47486e-05
1.13127e-05
8.29291e-06
5.85865e-06
4.00087e-06
2.64922e-06
1.74645e-06
1.25867e-06
1.1323e-06
1.48361e-06
3.80915e-06
1.8322e-06
7.86481e-08
1.25465e-09
8.25913e-07
1.48513e-06
1.47402e-06
1.67945e-06
2.11777e-06
2.81541e-06
3.79679e-06
5.07272e-06
6.65189e-06
8.55911e-06
1.08352e-05
1.35014e-05
1.64884e-05
1.95746e-05
2.24139e-05
2.4661e-05
2.60723e-05
2.65007e-05
2.58428e-05
2.40172e-05
2.10347e-05
1.71698e-05
1.30292e-05
9.27354e-06
6.26758e-06
4.0654e-06
2.57291e-06
1.65994e-06
1.21282e-06
1.12968e-06
1.52455e-06
4.03199e-06
1.84372e-06
8.34335e-08
1.03727e-09
8.46616e-07
1.48701e-06
1.61852e-06
1.94512e-06
2.49322e-06
3.28192e-06
4.32737e-06
5.64829e-06
7.28369e-06
9.3073e-06
1.18156e-05
1.48675e-05
1.83768e-05
2.20362e-05
2.53965e-05
2.80636e-05
2.97997e-05
3.04807e-05
3.00046e-05
2.82357e-05
2.50673e-05
2.06467e-05
1.56356e-05
1.0963e-05
7.2174e-06
4.50698e-06
2.71201e-06
1.66324e-06
1.19286e-06
1.13827e-06
1.59833e-06
4.40523e-06
1.83733e-06
8.74969e-08
8.00186e-10
8.81477e-07
1.50081e-06
1.73838e-06
2.12967e-06
2.71342e-06
3.50786e-06
4.53356e-06
5.83106e-06
7.48049e-06
9.6085e-06
1.23618e-05
1.58217e-05
1.98621e-05
2.40668e-05
2.78787e-05
3.08669e-05
3.1841e-05
3.24207e-05
3.27699e-05
3.17456e-05
2.85939e-05
2.39231e-05
1.8311e-05
1.28444e-05
8.38763e-06
5.16881e-06
3.04331e-06
1.79591e-06
1.23233e-06
1.15665e-06
1.6469e-06
4.6613e-06
1.84818e-06
9.01862e-08
6.37901e-10
8.98064e-07
1.47661e-06
1.8066e-06
2.22395e-06
2.78754e-06
3.5278e-06
4.48602e-06
5.73502e-06
7.38961e-06
9.60242e-06
1.25306e-05
1.62404e-05
2.0551e-05
2.49687e-05
2.88564e-05
3.04463e-05
3.13291e-05
3.20005e-05
3.24521e-05
3.26653e-05
2.97602e-05
2.5338e-05
1.98632e-05
1.42536e-05
9.44019e-06
5.8484e-06
3.43839e-06
1.99956e-06
1.32769e-06
1.21048e-06
1.72293e-06
4.95771e-06
1.85657e-06
9.24609e-08
7.546e-10
8.31846e-07
1.36956e-06
1.77884e-06
2.20903e-06
2.74591e-06
3.45335e-06
4.40589e-06
5.7011e-06
7.4594e-06
9.81314e-06
1.2869e-05
1.66137e-05
2.07854e-05
2.48824e-05
2.83918e-05
3.09366e-05
3.18051e-05
3.24491e-05
3.28698e-05
3.1582e-05
2.89864e-05
2.51261e-05
2.02403e-05
1.50075e-05
1.02571e-05
6.51147e-06
3.89343e-06
2.27725e-06
1.48253e-06
1.2975e-06
1.79988e-06
5.16658e-06
1.87993e-06
9.48143e-08
1.03482e-09
6.53987e-07
1.21403e-06
1.69965e-06
2.20097e-06
2.82234e-06
3.65724e-06
4.79523e-06
6.32564e-06
8.3372e-06
1.09078e-05
1.40654e-05
1.77114e-05
2.15654e-05
2.52381e-05
2.83837e-05
3.07827e-05
3.23214e-05
3.29323e-05
3.25519e-05
3.11062e-05
2.85086e-05
2.47591e-05
2.0141e-05
1.52428e-05
1.07154e-05
7.01028e-06
4.30674e-06
2.57028e-06
1.67489e-06
1.42236e-06
1.909e-06
5.40858e-06
1.90604e-06
9.83376e-08
1.35186e-09
6.03173e-07
1.20975e-06
1.85263e-06
2.5793e-06
3.47647e-06
4.62387e-06
6.08782e-06
7.92966e-06
1.02071e-05
1.29502e-05
1.61138e-05
1.95434e-05
2.30116e-05
2.62843e-05
2.91518e-05
3.14365e-05
3.2979e-05
3.36239e-05
3.32177e-05
3.16188e-05
2.87266e-05
2.46509e-05
1.9875e-05
1.50759e-05
1.07793e-05
7.25699e-06
4.61058e-06
2.84076e-06
1.88506e-06
1.57598e-06
2.04446e-06
5.68451e-06
1.94162e-06
1.02855e-07
1.66451e-09
7.06258e-07
1.46223e-06
2.33688e-06
3.33855e-06
4.50384e-06
5.87903e-06
7.51674e-06
9.46894e-06
1.17622e-05
1.43734e-05
1.72374e-05
2.02812e-05
2.34186e-05
2.651e-05
2.93538e-05
3.17158e-05
3.30147e-05
3.36876e-05
3.36756e-05
3.19147e-05
2.86823e-05
2.41966e-05
1.91617e-05
1.43885e-05
1.03301e-05
7.09121e-06
4.6528e-06
2.98476e-06
2.05822e-06
1.74125e-06
2.22981e-06
6.12257e-06
1.96975e-06
1.0792e-07
2.14194e-09
9.02688e-07
1.84013e-06
2.8714e-06
3.97844e-06
5.18553e-06
6.54162e-06
8.09595e-06
9.87597e-06
1.18917e-05
1.41713e-05
1.67678e-05
1.96932e-05
2.28422e-05
2.59943e-05
2.88896e-05
3.12951e-05
3.29709e-05
3.37887e-05
3.35579e-05
3.18916e-05
2.86199e-05
2.39159e-05
1.86342e-05
1.37707e-05
9.80998e-06
6.77299e-06
4.53997e-06
3.022e-06
2.17695e-06
1.89449e-06
2.44124e-06
6.65259e-06
1.99488e-06
1.12821e-07
2.71966e-09
1.02349e-06
2.04584e-06
3.07497e-06
4.09685e-06
5.15669e-06
6.31117e-06
7.61267e-06
9.12657e-06
1.09567e-05
1.32244e-05
1.59856e-05
1.91492e-05
2.24788e-05
2.56949e-05
2.85762e-05
3.09715e-05
3.27508e-05
3.37463e-05
3.37108e-05
3.23076e-05
2.91571e-05
2.42747e-05
1.86067e-05
1.34283e-05
9.36335e-06
6.39704e-06
4.31914e-06
2.96361e-06
2.23381e-06
2.02752e-06
2.68619e-06
7.25272e-06
2.00479e-06
1.17207e-07
3.34596e-09
9.73793e-07
1.9517e-06
2.9018e-06
3.80745e-06
4.73291e-06
5.76697e-06
7.01645e-06
8.60963e-06
1.06734e-05
1.32749e-05
1.63531e-05
1.97033e-05
2.30553e-05
2.61825e-05
2.89418e-05
3.12418e-05
3.29899e-05
3.40445e-05
3.41732e-05
3.30266e-05
3.01255e-05
2.52547e-05
1.92484e-05
1.36153e-05
9.23925e-06
6.16336e-06
4.12139e-06
2.87299e-06
2.24813e-06
2.13455e-06
2.93805e-06
7.74004e-06
2.00634e-06
1.20491e-07
3.84168e-09
8.40617e-07
1.71621e-06
2.61691e-06
3.52267e-06
4.51075e-06
5.69725e-06
7.20622e-06
9.14574e-06
1.15745e-05
1.44635e-05
1.76793e-05
2.1016e-05
2.42611e-05
2.72452e-05
2.98525e-05
3.19994e-05
3.36008e-05
3.45337e-05
3.46019e-05
3.34989e-05
3.07672e-05
2.60909e-05
2.00617e-05
1.41367e-05
9.41729e-06
6.11924e-06
4.0042e-06
2.79021e-06
2.23949e-06
2.21826e-06
3.18333e-06
7.9931e-06
1.99865e-06
1.22887e-07
4.17033e-09
7.52192e-07
1.57723e-06
2.53399e-06
3.61485e-06
4.88594e-06
6.44084e-06
8.36081e-06
1.06881e-05
1.34066e-05
1.64328e-05
1.96262e-05
2.28184e-05
2.58495e-05
2.85911e-05
3.09489e-05
3.28476e-05
3.42049e-05
3.49068e-05
3.47869e-05
3.35849e-05
3.09207e-05
2.65303e-05
2.08167e-05
1.49331e-05
9.97932e-06
6.39031e-06
4.07638e-06
2.78072e-06
2.22927e-06
2.26097e-06
3.34808e-06
8.02763e-06
1.99759e-06
1.2495e-07
4.37818e-09
7.62489e-07
1.64329e-06
2.76097e-06
4.11276e-06
5.72682e-06
7.6407e-06
9.87705e-06
1.24296e-05
1.5254e-05
1.82628e-05
2.13323e-05
2.43245e-05
2.71142e-05
2.96023e-05
3.17117e-05
3.33707e-05
3.44916e-05
3.49538e-05
3.45986e-05
3.31941e-05
3.04506e-05
2.62612e-05
2.10233e-05
1.55656e-05
1.07074e-05
6.93579e-06
4.37276e-06
2.89684e-06
2.25562e-06
2.2701e-06
3.39687e-06
7.9844e-06
2.0097e-06
1.27618e-07
4.72125e-09
8.64973e-07
1.86958e-06
3.15536e-06
4.71146e-06
6.53679e-06
8.63978e-06
1.1029e-05
1.36944e-05
1.65825e-05
1.95867e-05
2.25676e-05
2.5391e-05
2.79533e-05
3.01827e-05
3.20236e-05
3.34167e-05
3.428e-05
3.44964e-05
3.39158e-05
3.23297e-05
2.95189e-05
2.55027e-05
2.0732e-05
1.5865e-05
1.14168e-05
7.70392e-06
4.94306e-06
3.21713e-06
2.38938e-06
2.29041e-06
3.3315e-06
8.0199e-06
2.05582e-06
1.31641e-07
5.28244e-09
9.88291e-07
2.09258e-06
3.46058e-06
5.08829e-06
6.98749e-06
9.18418e-06
1.16971e-05
1.44997e-05
1.74929e-05
2.0524e-05
2.34355e-05
2.6105e-05
2.84537e-05
3.04337e-05
3.20097e-05
3.31376e-05
3.37501e-05
3.37448e-05
3.29858e-05
3.12799e-05
2.84347e-05
2.45171e-05
2.00305e-05
1.5637e-05
1.17163e-05
8.35868e-06
5.64064e-06
3.73754e-06
2.68743e-06
2.40881e-06
3.28686e-06
8.16215e-06
2.14168e-06
1.37946e-07
6.04351e-09
1.05627e-06
2.19688e-06
3.59014e-06
5.25889e-06
7.24413e-06
9.58774e-06
1.22923e-05
1.52804e-05
1.8395e-05
2.14492e-05
2.4286e-05
2.68042e-05
2.89526e-05
3.07093e-05
3.20603e-05
3.29775e-05
3.34072e-05
3.32588e-05
3.24064e-05
3.06611e-05
2.78218e-05
2.39378e-05
1.95223e-05
1.5295e-05
1.16868e-05
8.71449e-06
6.2514e-06
4.35547e-06
3.14119e-06
2.6752e-06
3.38062e-06
8.43322e-06
2.28039e-06
1.47355e-07
6.94434e-09
1.07157e-06
2.23177e-06
3.68565e-06
5.47568e-06
7.64628e-06
1.02185e-05
1.31478e-05
1.62992e-05
1.9477e-05
2.24944e-05
2.52229e-05
2.75978e-05
2.95977e-05
3.1219e-05
3.24545e-05
3.32741e-05
3.36163e-05
3.3381e-05
3.24254e-05
3.05378e-05
2.75094e-05
2.34211e-05
1.88671e-05
1.46536e-05
1.12407e-05
8.60829e-06
6.5192e-06
4.85003e-06
3.63085e-06
3.05846e-06
3.68514e-06
8.97067e-06
2.43041e-06
1.59274e-07
8.07404e-09
1.09337e-06
2.30919e-06
3.8828e-06
5.84977e-06
8.22993e-06
1.10077e-05
1.40944e-05
1.73188e-05
2.04796e-05
2.3415e-05
2.60337e-05
2.83031e-05
3.02212e-05
3.17915e-05
3.30037e-05
3.38163e-05
3.41482e-05
3.3871e-05
3.27976e-05
3.06558e-05
2.7205e-05
2.26154e-05
1.76959e-05
1.34044e-05
1.01876e-05
7.935e-06
6.31428e-06
5.03887e-06
4.01025e-06
3.48532e-06
4.2313e-06
9.95366e-06
2.50241e-06
1.69387e-07
9.39059e-09
1.13696e-06
2.42703e-06
4.11227e-06
6.20924e-06
8.72295e-06
1.16259e-05
1.48095e-05
1.8081e-05
2.12324e-05
2.41152e-05
2.66613e-05
2.88593e-05
3.07215e-05
3.22575e-05
3.34566e-05
3.4271e-05
3.46027e-05
3.42922e-05
3.30979e-05
3.0665e-05
2.67006e-05
2.1485e-05
1.61049e-05
1.16934e-05
8.66722e-06
6.82301e-06
5.73888e-06
4.95954e-06
4.28113e-06
3.99282e-06
5.14027e-06
1.07298e-05
2.46277e-06
1.72995e-07
1.07072e-08
1.17499e-06
2.51771e-06
4.26792e-06
6.44357e-06
9.07037e-06
1.21315e-05
1.54912e-05
1.89035e-05
2.21221e-05
2.49968e-05
2.74804e-05
2.95857e-05
3.1343e-05
3.27732e-05
3.38704e-05
3.45859e-05
3.48134e-05
3.43756e-05
3.30067e-05
3.03301e-05
2.60475e-05
2.04733e-05
1.47904e-05
1.02401e-05
7.28012e-06
5.7025e-06
5.06273e-06
4.77449e-06
4.53746e-06
4.65501e-06
6.48462e-06
1.01239e-05
2.36907e-06
1.70014e-07
1.1825e-08
1.20401e-06
2.5856e-06
4.39485e-06
6.67802e-06
9.49543e-06
1.28243e-05
1.64578e-05
2.00567e-05
2.33316e-05
2.61491e-05
2.85004e-05
3.04299e-05
3.19869e-05
3.32017e-05
3.407e-05
3.45409e-05
3.45043e-05
3.37892e-05
3.2175e-05
2.9396e-05
2.52541e-05
1.99338e-05
1.43089e-05
9.58291e-06
6.43949e-06
4.83946e-06
4.39646e-06
4.4941e-06
4.73545e-06
5.37535e-06
7.99464e-06
8.95257e-06
2.28385e-06
1.65925e-07
1.277e-08
1.24224e-06
2.66744e-06
4.5489e-06
6.97305e-06
1.00287e-05
1.36606e-05
1.75578e-05
2.12822e-05
2.45275e-05
2.72014e-05
2.93395e-05
3.10149e-05
3.22928e-05
3.32102e-05
3.37651e-05
3.39071e-05
3.3532e-05
3.2497e-05
3.06755e-05
2.79873e-05
2.44052e-05
1.99553e-05
1.49148e-05
1.01004e-05
6.47927e-06
4.43892e-06
3.78721e-06
3.99886e-06
4.64858e-06
5.83561e-06
9.06614e-06
8.26196e-06
2.24648e-06
1.6626e-07
1.35954e-08
1.28404e-06
2.74601e-06
4.69436e-06
7.26325e-06
1.0565e-05
1.44936e-05
1.8615e-05
2.24009e-05
2.55527e-05
2.80305e-05
2.99143e-05
3.13047e-05
3.22825e-05
3.28928e-05
3.31375e-05
3.29697e-05
3.22932e-05
3.09899e-05
2.90133e-05
2.6438e-05
2.3417e-05
1.99979e-05
1.60555e-05
1.16774e-05
7.62227e-06
4.81199e-06
3.51382e-06
3.3832e-06
4.09694e-06
5.68057e-06
9.35103e-06
8.08917e-06
2.26725e-06
1.73942e-07
1.45204e-08
1.32137e-06
2.81385e-06
4.83708e-06
7.57723e-06
1.11589e-05
1.53939e-05
1.97016e-05
2.34856e-05
2.64929e-05
2.87524e-05
3.03887e-05
3.15252e-05
3.2251e-05
3.26117e-05
3.2606e-05
3.21845e-05
3.12531e-05
2.97109e-05
2.75645e-05
2.49946e-05
2.22944e-05
1.96371e-05
1.68626e-05
1.35708e-05
9.74718e-06
6.25735e-06
4.02635e-06
3.13188e-06
3.37064e-06
4.78677e-06
8.51079e-06
8.16863e-06
2.30901e-06
1.89848e-07
1.57936e-08
1.35301e-06
2.88049e-06
5.0039e-06
7.95527e-06
1.18442e-05
1.6355e-05
2.07578e-05
2.44521e-05
2.72783e-05
2.93372e-05
3.07844e-05
3.17496e-05
3.23158e-05
3.25156e-05
3.23322e-05
3.16997e-05
3.05091e-05
2.86657e-05
2.6233e-05
2.3512e-05
2.09279e-05
1.87424e-05
1.68507e-05
1.47736e-05
1.19584e-05
8.53147e-06
5.50589e-06
3.66784e-06
3.12636e-06
3.89583e-06
6.98396e-06
8.41143e-06
2.33966e-06
2.11447e-07
1.76499e-08
1.3807e-06
2.95599e-06
5.21263e-06
8.41597e-06
1.2623e-05
1.73474e-05
2.17461e-05
2.52952e-05
2.79512e-05
2.98687e-05
3.12118e-05
3.20991e-05
3.25938e-05
3.27048e-05
3.23873e-05
3.15413e-05
3.00214e-05
2.77256e-05
2.48005e-05
2.17343e-05
1.91236e-05
1.7281e-05
1.60913e-05
1.50607e-05
1.3457e-05
1.07905e-05
7.54216e-06
4.90673e-06
3.55456e-06
3.62169e-06
5.95821e-06
8.75579e-06
2.3566e-06
2.31497e-07
2.01622e-08
1.40817e-06
3.0494e-06
5.47498e-06
8.96601e-06
1.34837e-05
1.83535e-05
2.26876e-05
2.60922e-05
2.86272e-05
3.04744e-05
3.17893e-05
3.26693e-05
3.31517e-05
3.32141e-05
3.2771e-05
3.1667e-05
2.96945e-05
2.67393e-05
2.31009e-05
1.95569e-05
1.68886e-05
1.53913e-05
1.48726e-05
1.47947e-05
1.4332e-05
1.26074e-05
9.58203e-06
6.47175e-06
4.44781e-06
3.94578e-06
5.85185e-06
9.04781e-06
2.35612e-06
2.41483e-07
2.32452e-08
1.43973e-06
3.1648e-06
5.78552e-06
9.57902e-06
1.43783e-05
1.93324e-05
2.35761e-05
2.6858e-05
2.9311e-05
3.11264e-05
3.24463e-05
3.3347e-05
3.38397e-05
3.38682e-05
3.32971e-05
3.1895e-05
2.93648e-05
2.55992e-05
2.11455e-05
1.71393e-05
1.44771e-05
1.33567e-05
1.34967e-05
1.43199e-05
1.48745e-05
1.39833e-05
1.13154e-05
8.03173e-06
5.5848e-06
4.73391e-06
6.64772e-06
9.08588e-06
2.34194e-06
2.376e-07
2.65246e-08
1.47441e-06
3.29114e-06
6.10891e-06
1.01857e-05
1.52169e-05
2.02118e-05
2.43658e-05
2.755e-05
2.99447e-05
3.17416e-05
3.30699e-05
3.39902e-05
3.44944e-05
3.44979e-05
3.38202e-05
3.21551e-05
2.91107e-05
2.45887e-05
1.93944e-05
1.49752e-05
1.22731e-05
1.13918e-05
1.20176e-05
1.35747e-05
1.49608e-05
1.4773e-05
1.25428e-05
9.38933e-06
6.85853e-06
5.98289e-06
8.41895e-06
8.73076e-06
2.32411e-06
2.22623e-07
2.95278e-08
1.50994e-06
3.41522e-06
6.41174e-06
1.07346e-05
1.59545e-05
2.09752e-05
2.50561e-05
2.81613e-05
3.05026e-05
3.22727e-05
3.35946e-05
3.45203e-05
3.50317e-05
3.50307e-05
3.4315e-05
3.25396e-05
2.92456e-05
2.42718e-05
1.84944e-05
1.35742e-05
1.05695e-05
9.58321e-06
1.03333e-05
1.23136e-05
1.43495e-05
1.48836e-05
1.33023e-05
1.061e-05
8.34654e-06
7.81467e-06
1.11738e-05
8.3333e-06
2.33157e-06
2.04174e-07
3.18501e-08
1.54335e-06
3.52448e-06
6.66547e-06
1.11877e-05
1.6567e-05
2.16188e-05
2.56452e-05
2.8678e-05
3.09568e-05
3.26811e-05
3.39747e-05
3.4888e-05
3.54014e-05
3.54192e-05
3.4748e-05
3.30589e-05
2.98874e-05
2.49433e-05
1.8868e-05
1.3323e-05
9.6354e-06
8.08909e-06
8.48133e-06
1.04456e-05
1.29399e-05
1.43478e-05
1.37389e-05
1.18387e-05
1.0158e-05
1.02792e-05
1.43157e-05
8.30786e-06
2.39639e-06
1.89989e-07
3.33705e-08
1.57233e-06
3.61038e-06
6.85561e-06
1.15345e-05
1.70582e-05
2.2156e-05
2.61478e-05
2.91188e-05
3.13372e-05
3.30154e-05
3.42831e-05
3.51937e-05
3.57317e-05
3.58115e-05
3.52662e-05
3.38205e-05
3.10686e-05
2.66218e-05
2.06742e-05
1.45351e-05
9.83506e-06
7.28433e-06
6.81339e-06
8.19624e-06
1.07393e-05
1.30513e-05
1.37495e-05
1.298e-05
1.21579e-05
1.30701e-05
1.69701e-05
8.71416e-06
2.52567e-06
1.83351e-07
3.41435e-08
1.59475e-06
3.66864e-06
6.98096e-06
1.17841e-05
1.74492e-05
2.26115e-05
2.6587e-05
2.95091e-05
3.16783e-05
3.33248e-05
3.45875e-05
3.55251e-05
3.61263e-05
3.63146e-05
3.59465e-05
3.48013e-05
3.2564e-05
2.88728e-05
2.3577e-05
1.73078e-05
1.15739e-05
7.66698e-06
5.92085e-06
6.18719e-06
8.08693e-06
1.0788e-05
1.28635e-05
1.35766e-05
1.3878e-05
1.55579e-05
1.88391e-05
9.36395e-06
2.69288e-06
1.83803e-07
3.44125e-08
1.61213e-06
3.70552e-06
7.06135e-06
1.19729e-05
1.77773e-05
2.30052e-05
2.69665e-05
2.98448e-05
3.19763e-05
3.36112e-05
3.48975e-05
3.5896e-05
3.65975e-05
3.6931e-05
3.67661e-05
3.59157e-05
3.41422e-05
3.11733e-05
2.67805e-05
2.10614e-05
1.48688e-05
9.62641e-06
6.32776e-06
5.13765e-06
5.82026e-06
7.95883e-06
1.07129e-05
1.29443e-05
1.46236e-05
1.70938e-05
1.9921e-05
1.00089e-05
2.85664e-06
1.89735e-07
3.44309e-08
1.62454e-06
3.72429e-06
7.10853e-06
1.21181e-05
1.80567e-05
2.33458e-05
2.72893e-05
3.01255e-05
3.22276e-05
3.38642e-05
3.51918e-05
3.62756e-05
3.71078e-05
3.7617e-05
3.76699e-05
3.70914e-05
3.56866e-05
3.3253e-05
2.963e-05
2.47748e-05
1.89625e-05
1.30595e-05
8.30469e-06
5.49427e-06
4.70132e-06
5.60852e-06
7.8732e-06
1.08195e-05
1.38168e-05
1.72764e-05
2.02585e-05
1.04681e-05
2.98146e-06
1.99454e-07
3.44346e-08
1.63138e-06
3.72768e-06
7.13325e-06
1.22391e-05
1.83063e-05
2.36391e-05
2.75463e-05
3.03283e-05
3.23966e-05
3.40381e-05
3.5416e-05
3.65948e-05
3.7563e-05
3.82457e-05
3.85139e-05
3.8197e-05
3.7104e-05
3.50415e-05
3.19161e-05
2.77636e-05
2.27147e-05
1.70774e-05
1.15995e-05
7.3487e-06
4.99997e-06
4.48006e-06
5.55292e-06
7.99002e-06
1.14905e-05
1.59654e-05
1.99026e-05
1.06937e-05
3.05653e-06
2.12054e-07
3.46367e-08
1.63366e-06
3.72212e-06
7.15263e-06
1.23615e-05
1.85439e-05
2.3881e-05
2.77141e-05
3.04167e-05
3.24375e-05
3.40787e-05
3.55065e-05
3.6783e-05
3.78908e-05
3.87483e-05
3.92195e-05
3.91268e-05
3.82641e-05
3.6437e-05
3.35884e-05
2.98401e-05
2.54213e-05
2.04975e-05
1.52613e-05
1.03228e-05
6.64292e-06
4.70538e-06
4.44714e-06
5.73637e-06
8.59698e-06
1.33686e-05
1.88547e-05
1.0734e-05
3.08272e-06
2.2702e-07
3.52077e-08
1.63159e-06
3.7115e-06
7.17541e-06
1.24945e-05
1.87675e-05
2.40598e-05
2.77769e-05
3.03725e-05
3.23301e-05
3.3963e-05
3.54371e-05
3.68079e-05
3.80494e-05
3.90705e-05
3.97253e-05
3.98253e-05
3.91387e-05
3.74379e-05
3.46585e-05
3.1019e-05
2.69251e-05
2.26534e-05
1.81708e-05
1.35003e-05
9.20576e-06
6.09617e-06
4.56966e-06
4.64405e-06
6.37536e-06
1.04094e-05
1.71186e-05
1.07113e-05
3.07436e-06
2.43326e-07
3.63236e-08
1.62718e-06
3.70298e-06
7.21602e-06
1.2655e-05
1.89886e-05
2.41796e-05
2.77362e-05
3.01977e-05
3.20778e-05
3.36963e-05
3.52146e-05
3.66784e-05
3.80498e-05
3.92241e-05
4.00395e-05
4.02881e-05
3.97032e-05
3.80154e-05
3.5151e-05
3.14108e-05
2.73691e-05
2.3472e-05
1.97424e-05
1.59046e-05
1.18913e-05
8.21069e-06
5.64388e-06
4.60664e-06
5.22577e-06
8.11848e-06
1.49639e-05
1.06845e-05
3.03833e-06
2.59583e-07
3.81546e-08
1.62231e-06
3.70196e-06
7.27988e-06
1.28411e-05
1.91921e-05
2.42241e-05
2.75837e-05
2.98934e-05
3.16894e-05
3.32934e-05
3.4859e-05
3.64198e-05
3.79224e-05
3.92445e-05
4.02019e-05
4.0557e-05
3.99961e-05
3.81958e-05
3.50738e-05
3.10355e-05
2.68508e-05
2.31399e-05
2.00082e-05
1.70946e-05
1.39286e-05
1.04307e-05
7.29318e-06
5.35239e-06
5.01075e-06
6.84267e-06
1.3006e-05
1.06916e-05
2.98917e-06
2.74898e-07
4.07874e-08
1.61921e-06
3.71254e-06
7.36947e-06
1.3046e-05
1.93643e-05
2.41915e-05
2.73369e-05
2.94934e-05
3.12111e-05
3.28105e-05
3.44369e-05
3.61103e-05
3.77601e-05
3.92415e-05
4.03405e-05
4.07768e-05
4.01716e-05
3.81282e-05
3.45595e-05
3.0024e-05
2.55348e-05
2.18756e-05
1.92032e-05
1.71375e-05
1.49944e-05
1.22123e-05
9.089e-06
6.60111e-06
5.51806e-06
6.53095e-06
1.18735e-05
1.08356e-05
2.95653e-06
2.88621e-07
4.41736e-08
1.61972e-06
3.73657e-06
7.47981e-06
1.32516e-05
1.949e-05
2.40923e-05
2.70308e-05
2.9048e-05
3.07018e-05
3.23126e-05
3.40209e-05
3.58356e-05
3.76682e-05
3.93482e-05
4.06246e-05
4.11589e-05
4.04796e-05
3.80796e-05
3.3863e-05
2.86123e-05
2.36599e-05
1.99447e-05
1.76189e-05
1.62604e-05
1.50617e-05
1.31896e-05
1.05394e-05
7.95442e-06
6.45848e-06
7.00159e-06
1.19875e-05
1.09002e-05
2.92737e-06
2.96299e-07
4.80182e-08
1.624e-06
3.77102e-06
7.59828e-06
1.34393e-05
1.95688e-05
2.39501e-05
2.66962e-05
2.85817e-05
3.01724e-05
3.17957e-05
3.35935e-05
3.55683e-05
3.76161e-05
3.95406e-05
4.10506e-05
4.17383e-05
4.10097e-05
3.81978e-05
3.31803e-05
2.70371e-05
2.14953e-05
1.76281e-05
1.55294e-05
1.47045e-05
1.42426e-05
1.31884e-05
1.12095e-05
8.95415e-06
7.51407e-06
8.14936e-06
1.37048e-05
1.03488e-05
2.85423e-06
2.90555e-07
5.1774e-08
1.63115e-06
3.80957e-06
7.70768e-06
1.35934e-05
1.96107e-05
2.37854e-05
2.63393e-05
2.80737e-05
2.95699e-05
3.117e-05
3.30231e-05
3.51295e-05
3.73742e-05
3.95411e-05
4.1306e-05
4.22017e-05
4.15155e-05
3.84003e-05
3.26574e-05
2.56358e-05
1.94591e-05
1.53293e-05
1.32855e-05
1.27765e-05
1.28267e-05
1.24454e-05
1.12024e-05
9.59083e-06
8.67966e-06
1.00467e-05
1.67207e-05
9.34402e-06
2.73978e-06
2.72133e-07
5.4785e-08
1.6386e-06
3.84198e-06
7.78787e-06
1.37014e-05
1.96249e-05
2.36106e-05
2.59601e-05
2.75064e-05
2.88564e-05
3.03716e-05
3.221e-05
3.43713e-05
3.6734e-05
3.90725e-05
4.105e-05
4.21806e-05
4.17027e-05
3.86469e-05
3.26391e-05
2.50282e-05
1.82087e-05
1.36098e-05
1.13262e-05
1.08198e-05
1.11515e-05
1.1356e-05
1.09032e-05
1.01266e-05
1.00771e-05
1.25669e-05
1.91313e-05
8.47302e-06
2.63207e-06
2.50431e-07
5.66735e-08
1.64457e-06
3.86203e-06
7.83327e-06
1.37709e-05
1.96327e-05
2.34508e-05
2.55869e-05
2.69179e-05
2.80826e-05
2.94621e-05
3.12208e-05
3.3358e-05
3.57505e-05
3.81738e-05
4.03028e-05
4.16828e-05
4.15988e-05
3.90774e-05
3.35037e-05
2.58086e-05
1.83659e-05
1.29957e-05
1.00707e-05
9.15947e-06
9.45026e-06
1.00841e-05
1.04113e-05
1.05367e-05
1.1468e-05
1.50125e-05
1.97388e-05
7.95886e-06
2.56912e-06
2.34026e-07
5.7518e-08
1.64829e-06
3.86964e-06
7.85123e-06
1.38201e-05
1.96538e-05
2.33265e-05
2.52571e-05
2.63727e-05
2.7346e-05
2.85741e-05
3.02251e-05
3.22986e-05
3.46741e-05
3.71374e-05
3.93907e-05
4.10357e-05
4.14545e-05
3.97685e-05
3.51991e-05
2.80425e-05
2.0207e-05
1.3854e-05
9.8959e-06
8.15485e-06
7.96276e-06
8.64653e-06
9.56103e-06
1.05359e-05
1.23728e-05
1.65896e-05
1.9504e-05
7.77346e-06
2.5573e-06
2.2585e-07
5.7654e-08
1.65031e-06
3.86825e-06
7.85321e-06
1.38631e-05
1.96954e-05
2.32451e-05
2.499e-05
2.5913e-05
2.67167e-05
2.78082e-05
2.93568e-05
3.13642e-05
3.37163e-05
3.62142e-05
3.8593e-05
4.05068e-05
4.14336e-05
4.06251e-05
3.72842e-05
3.11924e-05
2.34984e-05
1.62882e-05
1.10764e-05
8.17324e-06
7.09208e-06
7.30332e-06
8.31626e-06
9.85495e-06
1.23987e-05
1.70432e-05
1.92417e-05
7.82489e-06
2.58757e-06
2.24913e-07
5.74359e-08
1.65101e-06
3.86078e-06
7.84525e-06
1.38979e-05
1.97375e-05
2.31816e-05
2.47682e-05
2.55326e-05
2.62009e-05
2.71846e-05
2.86526e-05
3.06098e-05
3.29512e-05
3.54944e-05
3.80047e-05
4.01756e-05
4.15533e-05
4.14968e-05
3.92784e-05
3.44532e-05
2.74896e-05
1.99609e-05
1.36328e-05
9.4203e-06
7.19242e-06
6.53485e-06
7.07387e-06
8.60559e-06
1.14511e-05
1.64483e-05
1.91052e-05
8.02356e-06
2.64389e-06
2.2886e-07
5.71968e-08
1.65115e-06
3.85093e-06
7.83509e-06
1.39268e-05
1.9766e-05
2.3111e-05
2.45609e-05
2.51971e-05
2.57615e-05
2.66654e-05
2.80752e-05
2.99991e-05
3.23418e-05
3.49371e-05
3.75768e-05
3.99806e-05
4.17356e-05
4.22681e-05
4.09246e-05
3.72209e-05
3.12786e-05
2.40798e-05
1.71683e-05
1.18157e-05
8.36912e-06
6.65272e-06
6.37088e-06
7.36788e-06
9.94715e-06
1.50399e-05
1.90167e-05
8.30024e-06
2.70885e-06
2.35171e-07
5.71254e-08
1.64998e-06
3.83827e-06
7.82105e-06
1.39428e-05
1.97681e-05
2.30125e-05
2.43391e-05
2.48696e-05
2.53553e-05
2.62019e-05
2.75709e-05
2.94727e-05
3.18212e-05
3.44654e-05
3.72196e-05
3.98196e-05
4.18709e-05
4.28342e-05
4.21085e-05
3.92366e-05
3.42269e-05
2.77365e-05
2.09051e-05
1.49249e-05
1.04532e-05
7.6705e-06
6.45016e-06
6.66125e-06
8.56783e-06
1.32928e-05
1.88712e-05
8.62598e-06
2.77187e-06
2.42088e-07
5.73549e-08
1.64782e-06
3.82471e-06
7.80825e-06
1.3955e-05
1.97493e-05
2.28829e-05
2.40906e-05
2.45289e-05
2.49534e-05
2.57601e-05
2.71018e-05
2.89883e-05
3.1341e-05
3.40233e-05
3.68688e-05
3.96207e-05
4.18877e-05
4.31388e-05
4.28007e-05
4.04623e-05
3.61434e-05
3.03821e-05
2.40473e-05
1.80529e-05
1.30179e-05
9.37615e-06
7.26517e-06
6.65657e-06
7.76964e-06
1.17824e-05
1.86238e-05
9.01274e-06
2.83119e-06
2.48659e-07
5.79384e-08
1.64455e-06
3.81046e-06
7.79511e-06
1.3958e-05
1.96988e-05
2.27073e-05
2.37931e-05
2.4146e-05
2.45234e-05
2.53077e-05
2.66381e-05
2.85184e-05
3.08754e-05
3.35899e-05
3.65049e-05
3.93644e-05
4.17712e-05
4.31853e-05
4.30392e-05
4.09648e-05
3.70516e-05
3.18582e-05
2.6135e-05
2.0525e-05
1.54604e-05
1.13729e-05
8.59013e-06
7.27054e-06
7.66927e-06
1.09373e-05
1.84097e-05
9.47714e-06
2.89082e-06
2.54246e-07
5.88782e-08
1.64064e-06
3.79596e-06
7.77971e-06
1.39424e-05
1.96025e-05
2.24654e-05
2.34185e-05
2.36857e-05
2.40261e-05
2.48053e-05
2.61441e-05
2.80353e-05
3.04056e-05
3.31502e-05
3.61176e-05
3.90486e-05
4.15322e-05
4.30083e-05
4.29009e-05
4.08795e-05
3.71245e-05
3.22803e-05
2.7086e-05
2.2013e-05
1.72862e-05
1.319e-05
1.00862e-05
8.28216e-06
8.15411e-06
1.08781e-05
1.85401e-05
9.99426e-06
2.95411e-06
2.58296e-07
6.00908e-08
1.63619e-06
3.78055e-06
7.75744e-06
1.38995e-05
1.9451e-05
2.21456e-05
2.29501e-05
2.31253e-05
2.3433e-05
2.42196e-05
2.55832e-05
2.75012e-05
2.98961e-05
3.26737e-05
3.56831e-05
3.86568e-05
4.11661e-05
4.26257e-05
4.24469e-05
4.03343e-05
3.65638e-05
3.18854e-05
2.70727e-05
2.25105e-05
1.82859e-05
1.45049e-05
1.14325e-05
9.44096e-06
9.04516e-06
1.15372e-05
1.92756e-05
1.04821e-05
3.01901e-06
2.60459e-07
6.14701e-08
1.63172e-06
3.76469e-06
7.72827e-06
1.38328e-05
1.92532e-05
2.17565e-05
2.23917e-05
2.24631e-05
2.27365e-05
2.35361e-05
2.49344e-05
2.68901e-05
2.9319e-05
3.21324e-05
3.51739e-05
3.81646e-05
4.06587e-05
4.20497e-05
4.17419e-05
3.94754e-05
3.56113e-05
3.09912e-05
2.64253e-05
2.22653e-05
1.85385e-05
1.52234e-05
1.24481e-05
1.05559e-05
1.01745e-05
1.27674e-05
2.05826e-05
1.08621e-05
3.08172e-06
2.6111e-07
6.28839e-08
1.62733e-06
3.74766e-06
7.69116e-06
1.37438e-05
1.90137e-05
2.13019e-05
2.17459e-05
2.17e-05
2.19345e-05
2.27484e-05
2.41845e-05
2.61822e-05
2.8656e-05
3.15073e-05
3.4568e-05
3.75491e-05
3.99948e-05
4.12921e-05
4.08535e-05
3.84553e-05
3.4516e-05
2.99287e-05
2.55153e-05
2.16318e-05
1.83094e-05
1.54667e-05
1.31193e-05
1.15403e-05
1.1424e-05
1.43918e-05
2.21489e-05
1.11253e-05
3.14182e-06
2.61349e-07
6.42554e-08
1.62327e-06
3.73002e-06
7.64852e-06
1.36383e-05
1.874e-05
2.07921e-05
2.10264e-05
2.08518e-05
2.10416e-05
2.18679e-05
2.33444e-05
2.53894e-05
2.79117e-05
3.07985e-05
3.3868e-05
3.68218e-05
3.92029e-05
4.04103e-05
3.98857e-05
3.74401e-05
3.35105e-05
2.89849e-05
2.4661e-05
2.09298e-05
1.78758e-05
1.54204e-05
1.35154e-05
1.23643e-05
1.26899e-05
1.61841e-05
2.36015e-05
1.13125e-05
3.20112e-06
2.62501e-07
6.55667e-08
1.62004e-06