/*--------------------------------*- C++ -*----------------------------------*\
| =========                 |                                                 |
| \\      /  F ield         | OpenFOAM: The Open Source CFD Toolbox           |
|  \\    /   O peration     | Version:  v2006                                 |
|   \\  /    A nd           | Website:  www.openfoam.com                      |
|    \\/     M anipulation  |                                                 |
\*---------------------------------------------------------------------------*/
FoamFile
{
    version     2.0;
    format      ascii;
    class       volScalarField;
    location    "33";
    object      k;
}
// * * * * * * * * * * * * * * * * * * * * * * * * * * * * * * * * * * * * * //

dimensions      [0 2 -2 0 0 0 0];


internalField   nonuniform List<scalar> 
78750
(
2.89277e-05
4.6226e-05
4.81743e-05
4.75349e-05
4.55225e-05
4.29144e-05
4.02603e-05
3.77815e-05
3.55193e-05
3.34933e-05
3.17127e-05
3.01724e-05
2.8859e-05
2.77531e-05
2.68319e-05
2.60711e-05
2.54452e-05
2.49284e-05
2.44954e-05
2.41205e-05
2.37783e-05
2.34426e-05
2.30864e-05
2.26816e-05
2.21975e-05
2.16009e-05
2.08606e-05
1.99011e-05
1.86692e-05
1.70816e-05
1.50203e-05
1.23656e-05
9.11297e-06
5.632e-06
2.41649e-06
8.52479e-06
5.37612e-05
8.01891e-05
9.06311e-05
9.14107e-05
8.78628e-05
8.32303e-05
7.90828e-05
7.57694e-05
7.30789e-05
7.08785e-05
6.90426e-05
6.75032e-05
6.6219e-05
6.51398e-05
6.42355e-05
6.34782e-05
6.28219e-05
6.22418e-05
6.16934e-05
6.11339e-05
6.052e-05
5.98179e-05
5.89952e-05
5.80123e-05
5.68093e-05
5.52858e-05
5.32804e-05
5.06119e-05
4.70199e-05
4.20213e-05
3.52185e-05
2.7035e-05
1.84548e-05
9.76623e-06
1.13213e-05
3.09787e-05
4.17795e-05
4.4304e-05
4.10646e-05
3.51983e-05
2.94599e-05
2.50928e-05
2.21354e-05
2.0053e-05
1.85495e-05
1.74928e-05
1.6805e-05
1.64203e-05
1.62787e-05
1.63281e-05
1.65283e-05
1.68548e-05
1.72996e-05
1.78711e-05
1.85927e-05
1.95015e-05
2.06451e-05
2.20779e-05
2.38548e-05
2.60339e-05
2.86524e-05
3.16468e-05
3.46148e-05
3.68355e-05
3.73209e-05
3.51265e-05
3.01272e-05
2.28541e-05
1.36929e-05
5.64999e-06
1.89872e-05
2.70042e-05
3.03729e-05
3.03977e-05
2.81482e-05
2.47114e-05
2.10448e-05
1.79281e-05
1.54482e-05
1.37855e-05
1.30468e-05
1.31516e-05
1.38734e-05
1.49284e-05
1.60405e-05
1.6985e-05
1.76008e-05
1.77798e-05
1.74562e-05
1.66009e-05
1.52214e-05
1.33756e-05
1.12084e-05
8.99921e-06
7.21456e-06
6.53772e-06
7.71642e-06
1.11454e-05
1.64404e-05
2.21251e-05
2.59035e-05
2.60109e-05
2.24522e-05
1.63615e-05
4.2162e-06
1.3304e-05
1.93414e-05
2.21724e-05
2.2257e-05
2.00915e-05
1.65773e-05
1.31081e-05
1.11198e-05
1.14832e-05
1.42475e-05
1.87422e-05
2.39984e-05
2.91784e-05
3.37579e-05
3.74992e-05
4.03609e-05
4.23615e-05
4.35103e-05
4.38097e-05
4.3247e-05
4.17915e-05
3.93811e-05
3.59208e-05
3.13481e-05
2.57513e-05
1.96114e-05
1.41175e-05
1.11875e-05
1.24552e-05
1.74062e-05
2.29375e-05
2.55059e-05
2.42422e-05
2.03152e-05
2.75794e-06
9.2166e-06
1.35322e-05
1.53713e-05
1.50584e-05
1.33482e-05
1.16269e-05
1.13798e-05
1.34184e-05
1.7635e-05
2.322e-05
2.91721e-05
3.47124e-05
3.94178e-05
4.32531e-05
4.63436e-05
4.87717e-05
5.05892e-05
5.18319e-05
5.25121e-05
5.26131e-05
5.20861e-05
5.08483e-05
4.8783e-05
4.56769e-05
4.1194e-05
3.51039e-05
2.76639e-05
2.02479e-05
1.55066e-05
1.55474e-05
1.93925e-05
2.31123e-05
2.40564e-05
2.25157e-05
2.15934e-06
6.95383e-06
1.02741e-05
1.1804e-05
1.18519e-05
1.12509e-05
1.1318e-05
1.31481e-05
1.69586e-05
2.21784e-05
2.79333e-05
3.34818e-05
3.83841e-05
4.24693e-05
4.58107e-05
4.85143e-05
5.06117e-05
5.21194e-05
5.30494e-05
5.34045e-05
5.31761e-05
5.23413e-05
5.08611e-05
4.86476e-05
4.5529e-05
4.13199e-05
3.5916e-05
2.95081e-05
2.30569e-05
1.85209e-05
1.76955e-05
2.04725e-05
2.39525e-05
2.56577e-05
2.55439e-05
1.63864e-06
5.36496e-06
8.04859e-06
9.50635e-06
1.01291e-05
1.08223e-05
1.26912e-05
1.63106e-05
2.14752e-05
2.75264e-05
3.37675e-05
3.96923e-05
4.50114e-05
4.95905e-05
5.34071e-05
5.65248e-05
5.89734e-05
6.07363e-05
6.18098e-05
6.21965e-05
6.18985e-05
6.09122e-05
5.91994e-05
5.66425e-05
5.30697e-05
4.82849e-05
4.21297e-05
3.47327e-05
2.70232e-05
2.11058e-05
1.89865e-05
2.09111e-05
2.43712e-05
2.6743e-05
2.76678e-05
1.31809e-06
4.46109e-06
6.92599e-06
8.6677e-06
1.00842e-05
1.19282e-05
1.49206e-05
1.92958e-05
2.4817e-05
3.10272e-05
3.74699e-05
4.37701e-05
4.96313e-05
5.48232e-05
5.91879e-05
6.26827e-05
6.5281e-05
6.69416e-05
6.76615e-05
6.74677e-05
6.6412e-05
6.45471e-05
6.18886e-05
5.84359e-05
5.41906e-05
4.91052e-05
4.30857e-05
3.6184e-05
2.91197e-05
2.37041e-05
2.15317e-05
2.29989e-05
2.61362e-05
2.86839e-05
3.02594e-05
9.72843e-07
3.68099e-06
5.9574e-06
7.84719e-06
9.7402e-06
1.22749e-05
1.59993e-05
2.11604e-05
2.77016e-05
3.53394e-05
4.36533e-05
5.21515e-05
6.03255e-05
6.77118e-05
7.39557e-05
7.88464e-05
8.23023e-05
8.43194e-05
8.49141e-05
8.4106e-05
8.19133e-05
7.83591e-05
7.35022e-05
6.74854e-05
6.05643e-05
5.30519e-05
4.52215e-05
3.73381e-05
3.00479e-05
2.48827e-05
2.30193e-05
2.45703e-05
2.77189e-05
3.04422e-05
3.2477e-05
7.02497e-07
3.03619e-06
5.18603e-06
7.32114e-06
9.89261e-06
1.34845e-05
1.85801e-05
2.54299e-05
3.39896e-05
4.39346e-05
5.47268e-05
6.57015e-05
7.61701e-05
8.55333e-05
9.33711e-05
9.94647e-05
0.000103747
0.000106224
0.000106911
0.000105796
0.000102829
9.79255e-05
9.10219e-05
8.21965e-05
7.183e-05
6.06559e-05
4.95924e-05
3.94912e-05
3.12313e-05
2.61027e-05
2.46057e-05
2.64118e-05
2.96529e-05
3.25531e-05
3.50451e-05
5.45616e-07
2.82224e-06
5.16851e-06
7.92698e-06
1.16167e-05
1.67476e-05
2.37063e-05
3.26524e-05
4.34521e-05
5.56668e-05
6.86036e-05
8.14346e-05
9.33676e-05
0.000103806
0.000112425
0.000119135
0.000123971
0.000126985
0.000128185
0.000127504
0.000124788
0.000119782
0.000112152
0.000101614
8.82539e-05
7.29103e-05
5.72644e-05
4.33501e-05
3.29006e-05
2.71992e-05
2.59628e-05
2.81052e-05
3.15216e-05
3.45629e-05
3.72126e-05
4.5109e-07
2.89369e-06
5.57459e-06
8.95172e-06
1.35536e-05
1.98346e-05
2.81101e-05
3.84485e-05
5.0579e-05
6.38843e-05
7.75121e-05
9.05753e-05
0.000102359
0.000112451
0.000120745
0.000127334
0.000132373
0.000135968
0.000138131
0.000138766
0.000137653
0.000134422
0.000128504
0.000119158
0.000105752
8.84374e-05
6.88794e-05
5.02442e-05
3.60494e-05
2.86613e-05
2.7283e-05
2.97948e-05
3.34546e-05
3.65776e-05
3.90627e-05
3.47994e-07
3.0138e-06
6.01867e-06
9.87897e-06
1.50956e-05
2.2039e-05
3.08829e-05
4.15206e-05
5.35409e-05
6.62936e-05
7.90246e-05
9.103e-05
0.000101789
0.00011104
0.000118771
0.000125119
0.000130254
0.000134302
0.00013728
0.000139082
0.000139529
0.000138306
0.000134859
0.000128311
0.000117527
0.000101691
8.14463e-05
5.98536e-05
4.18124e-05
3.16565e-05
2.91668e-05
3.15529e-05
3.52752e-05
3.83072e-05
4.02976e-05
2.77421e-07
3.07109e-06
6.25193e-06
1.02863e-05
1.55619e-05
2.23123e-05
3.0606e-05
4.03507e-05
5.13039e-05
6.30704e-05
7.51081e-05
8.67924e-05
9.75504e-05
0.000107007
0.000115039
0.000121708
0.000127207
0.000131676
0.00013511
0.000137438
0.000138547
0.000138256
0.00013616
0.000131524
0.000123211
0.000109918
9.11889e-05
6.90037e-05
4.84545e-05
3.56501e-05
3.1609e-05
3.34985e-05
3.70889e-05
3.98958e-05
4.13457e-05
3.28178e-07
3.18819e-06
6.42683e-06
1.03876e-05
1.53602e-05
2.15857e-05
2.92789e-05
3.86002e-05
4.95335e-05
6.17419e-05
7.45454e-05
8.70886e-05
9.86114e-05
0.000108656
0.000117101
0.000124039
0.000129638
0.000134062
0.000137376
0.00013956
0.000140571
0.00014028
0.000138392
0.000134362
0.000127275
0.000115883
9.91506e-05
7.78458e-05
5.61634e-05
4.10298e-05
3.49541e-05
3.57642e-05
3.88999e-05
4.13588e-05
4.24243e-05
4.50055e-07
3.2335e-06
6.40658e-06
1.0306e-05
1.53341e-05
2.19525e-05
3.05848e-05
4.14024e-05
5.41018e-05
6.78746e-05
8.16498e-05
9.44628e-05
0.000105718
0.000115231
0.000123097
0.000129515
0.000134672
0.000138695
0.00014165
0.000143538
0.000144294
0.000143771
0.000141704
0.000137635
0.000130826
0.000120253
0.000104905
8.48789e-05
6.32864e-05
4.68656e-05
3.8953e-05
3.84121e-05
4.0868e-05
4.29839e-05
4.40237e-05
5.87945e-07
3.66538e-06
7.39181e-06
1.23318e-05
1.90923e-05
2.81613e-05
3.96262e-05
5.2967e-05
6.71366e-05
8.09361e-05
9.3446e-05
0.000104245
0.000113349
0.000121003
0.000127477
0.000132972
0.000137596
0.000141375
0.000144277
0.000146221
0.00014708
0.00014667
0.000144699
0.000140708
0.000134033
0.000123839
0.000109336
9.04933e-05
6.96652e-05
5.29151e-05
4.35937e-05
4.158e-05
4.31612e-05
4.49192e-05
4.60663e-05
7.23932e-07
4.79283e-06
9.95564e-06
1.69615e-05
2.62447e-05
3.77014e-05
5.05865e-05
6.37442e-05
7.60861e-05
8.69978e-05
9.64245e-05
0.000104661
0.000112064
0.000118871
0.000125162
0.000130909
0.000136021
0.000140392
0.000143899
0.000146398
0.000147735
0.000147716
0.000146024
0.000142183
0.000135546
0.00012541
0.000111256
9.33027e-05
7.37033e-05
5.78081e-05
4.81064e-05
4.50508e-05
4.5811e-05
4.72068e-05
4.83575e-05
9.31592e-07
6.58729e-06
1.34843e-05
2.2152e-05
3.24537e-05
4.36577e-05
5.47651e-05
6.49965e-05
7.41204e-05
8.24131e-05
9.03431e-05
9.82501e-05
0.000106208
0.000114077
0.000121622
0.00012861
0.000134843
0.000140162
0.000144427
0.000147511
0.000149268
0.000149515
0.000147946
0.000144075
0.000137252
0.00012685
0.000112586
9.50189e-05
7.64863e-05
6.1751e-05
5.2314e-05
4.86786e-05
4.87519e-05
4.97211e-05
5.05795e-05
1.18288e-06
7.96798e-06
1.5534e-05
2.39814e-05
3.29005e-05
4.16913e-05
4.99635e-05
5.77779e-05
6.55683e-05
7.3818e-05
8.275e-05
9.22272e-05
0.000101873
0.000111269
0.000120082
0.000128085
0.000135119
0.00014106
0.000145796
0.000149214
0.000151177
0.000151507
0.000149894
0.000145823
0.000138598
0.000127621
0.000112836
9.52608e-05
7.77185e-05
6.43483e-05
5.57571e-05
5.21095e-05
5.17591e-05
5.22819e-05
5.25785e-05
1.45529e-06
8.35328e-06
1.54467e-05
2.26421e-05
2.97665e-05
3.67917e-05
4.39729e-05
5.17675e-05
6.0573e-05
7.0471e-05
8.116e-05
9.21073e-05
0.000102785
0.000112819
0.000121996
0.000130201
0.000137356
0.000143384
0.000148192
0.000151668
0.000153662
0.000153984
0.000152307
0.000148079
0.000140523
0.000128963
0.000113447
9.5435e-05
7.84302e-05
6.61761e-05
5.85849e-05
5.52466e-05
5.46362e-05
5.46321e-05
5.40914e-05
1.67092e-06
7.96878e-06
1.42543e-05
2.05403e-05
2.70298e-05
3.4108e-05
4.22183e-05
5.16468e-05
6.2339e-05
7.38815e-05
8.5669e-05
9.71327e-05
0.000107882
0.000117716
0.000126559
0.000134386
0.000141176
0.000146883
0.000151426
0.000154691
0.000156513
0.00015668
0.000154847
0.000150444
0.000142636
0.00013064
0.000114444
9.57856e-05
7.88898e-05
6.74124e-05
6.07802e-05
5.79285e-05
5.71725e-05
5.6615e-05
5.5213e-05
1.81387e-06
7.75128e-06
1.39286e-05
2.06122e-05
2.82091e-05
3.71002e-05
4.74315e-05
5.89922e-05
7.12622e-05
8.3602e-05
9.54603e-05
0.000106486
0.000116525
0.000125549
0.000133591
0.000140684
0.000146834
0.000152005
0.000156114
0.00015904
0.000160611
0.000160596
0.000158634
0.00015414
0.000146264
0.000134122
0.00011749
9.80143e-05
8.0373e-05
6.87425e-05
6.25786e-05
6.01526e-05
5.93126e-05
5.82582e-05
5.61864e-05
1.9043e-06
8.27665e-06
1.5389e-05
2.36783e-05
3.34175e-05
4.45853e-05
5.68148e-05
6.95051e-05
8.20265e-05
9.38966e-05
0.000104849
0.000114803
0.000123791
0.000131885
0.00013915
0.000145617
0.000151274
0.000156065
0.000159893
0.000162629
0.000164114
0.000164117
0.000162281
0.000158017
0.000150484
0.000138756
0.000122341
0.000102441
8.36444e-05
7.0826e-05
6.42332e-05
6.19383e-05
6.11003e-05
5.9779e-05
5.74261e-05
2.05354e-06
9.80187e-06
1.86523e-05
2.8954e-05
4.05894e-05
5.30969e-05
6.58577e-05
7.83025e-05
9.00446e-05
0.000100905
0.000110864
0.000119984
0.000128349
0.000136019
0.000143013
0.000149313
0.000154861
0.000159568
0.000163326
0.000166012
0.000167495
0.000167592
0.000165987
0.000162158
0.000155342
0.000144645
0.000129349
0.000109959
9.0236e-05
7.53673e-05
6.69754e-05
6.39398e-05
6.29363e-05
6.15396e-05
5.92597e-05
2.29767e-06
1.17853e-05
2.22656e-05
3.38433e-05
4.61525e-05
5.86763e-05
7.0961e-05
8.27141e-05
9.3798e-05
0.000104185
0.000113902
0.000122989
0.000131469
0.000139334
0.000146547
0.000153048
0.000158747
0.000163543
0.000167324
0.000169971
0.000171387
0.000171434
0.000169851
0.000166226
0.00015996
0.000150306
0.000136578
0.000118787
9.9533e-05
8.30579e-05
7.20499e-05
6.71442e-05
6.54654e-05
6.40033e-05
6.21004e-05
2.62875e-06
1.3535e-05
2.50524e-05
3.71796e-05
4.9636e-05
6.21217e-05
7.43984e-05
8.62869e-05
9.76569e-05
0.000108423
0.000118538
0.000127983
0.000136747
0.000144811
0.000152145
0.000158698
0.000164393
0.000169136
0.000172821
0.000175332
0.00017659
0.000176478
0.00017476
0.000171077
0.000164968
0.000155946
0.000143559
0.00012769
0.000110151
9.34273e-05
8.02108e-05
7.27624e-05
6.97045e-05
6.78536e-05
6.63127e-05
3.02062e-06
1.49068e-05
2.72209e-05
4.00338e-05
5.31916e-05
6.64567e-05
7.95459e-05
9.21763e-05
0.000104124
0.000115261
0.000125548
0.000135003
0.000143656
0.000151529
0.000158623
0.000164907
0.000170312
0.000174748
0.000178104
0.000180274
0.000181184
0.000180729
0.000178693
0.000174743
0.00016852
0.000159756
0.000148323
0.000134398
0.000119346
0.000103751
8.97432e-05
8.03397e-05
7.58146e-05
7.32987e-05
7.1641e-05
3.51207e-06
1.64763e-05
2.99327e-05
4.39668e-05
5.83268e-05
7.26194e-05
8.64322e-05
9.94415e-05
0.000111473
0.000122495
0.000132563
0.000141758
0.000150144
0.000157753
0.000164578
0.000170572
0.000175647
0.000179687
0.000182553
0.000184132
0.00018434
0.000183067
0.000180108
0.000175183
0.000168142
0.000159196
0.000148809
0.000137474
0.000125524
0.000111965
9.8282e-05
8.79394e-05
8.24166e-05
7.90741e-05
7.61721e-05
4.08482e-06
1.83064e-05
3.30051e-05
4.81511e-05
6.33525e-05
7.81555e-05
9.21851e-05
0.000105216
0.000117182
0.000128128
0.000138145
0.000147316
0.00015569
0.000163273
0.000170034
0.000175903
0.000180766
0.000184474
0.000186838
0.000187705
0.000186934
0.000184343
0.000179648
0.000172582
0.000163319
0.000153022
0.000143483
0.000135927
0.000128321
0.000117805
0.000105259
9.45632e-05
8.82082e-05
8.35295e-05
7.78218e-05
4.65761e-06
1.99462e-05
3.56155e-05
5.15744e-05
6.74398e-05
8.28002e-05
9.73057e-05
0.000110734
0.000123016
0.000134198
0.000144374
0.00015363
0.000162019
0.000169557
0.00017622
0.000181942
0.000186607
0.000190042
0.000192006
0.000192281
0.000190618
0.000186677
0.000179972
0.000170095
0.000157437
0.000144329
0.000134754
0.000131255
0.000128664
0.000121941
0.000111125
0.000100314
9.26466e-05
8.57965e-05
7.65506e-05
5.14394e-06
2.13166e-05
3.79379e-05
5.49094e-05
7.18041e-05
8.81032e-05
0.000103337
0.000117227
0.000129726
0.000140946
0.00015104
0.000160141
0.000168336
0.000175664
0.00018212
0.000187654
0.000192162
0.000195467
0.000197303
0.0001974
0.000195405
0.000190782
0.000182799
0.000170712
0.000154626
0.000137373
0.000125426
0.00012401
0.000126241
0.000124022
0.000115595
0.00010494
9.5737e-05
8.65586e-05
7.48082e-05
5.55507e-06
2.28319e-05
4.06751e-05
5.88967e-05
7.68991e-05
9.40008e-05
0.000109672
0.000123696
0.000136146
0.000147232
0.000157163
0.000166093
0.000174115
0.000181271
0.000187566
0.000192969
0.000197409
0.000200743
0.000202727
0.000203125
0.000201561
0.000197392
0.00018969
0.000177302
0.000159494
0.000137973
0.000119887
0.000114854
0.000119394
0.000122507
0.000117936
0.000108356
9.81967e-05
8.74686e-05
7.50532e-05
5.91425e-06
2.45058e-05
4.36543e-05
6.30561e-05
8.19781e-05
9.96704e-05
0.000115638
0.000129767
0.000142234
0.0001533
0.000163189
0.000172046
0.000179956
0.000186962
0.000193082
0.000198314
0.000202636
0.000205968
0.000208142
0.000209048
0.000208411
0.000205628
0.000199694
0.000189216
0.000172672
0.000149725
0.000124919
0.000109685
0.000108925
0.000115321
0.000116675
0.00011047
0.000100991
9.00292e-05
7.85974e-05
6.31671e-06
2.64118e-05
4.69652e-05
6.75874e-05
8.74505e-05
0.000105764
0.000122077
0.000136376
0.000148919
0.000160005
0.000169859
0.000178619
0.00018636
0.000193125
0.000198942
0.000203839
0.000207843
0.00021095
0.000213112
0.000214382
0.000214684
0.000213634
0.00021036
0.000203405
0.000190819
0.000170883
0.000144495
0.000119247
0.000104822
0.00010524
0.000110187
0.000109296
0.000103009
9.40345e-05
8.58521e-05
6.87072e-06
2.86266e-05
5.06791e-05
7.25542e-05
9.33286e-05
0.000112191
0.000128777
0.000143201
0.000155803
0.000166907
0.000176723
0.000185365
0.000192888
0.000199321
0.000204692
0.000209043
0.000212445
0.000214968
0.000216711
0.000217921
0.000218796
0.000219304
0.000218843
0.000216
0.000208641
0.000194498
0.000172508
0.000144604
0.0001179
0.00010385
0.000103427
0.000105212
0.000103026
9.82674e-05
9.56787e-05
7.67842e-06
3.11804e-05
5.47658e-05
7.78657e-05
9.9474e-05
0.000118805
0.000135629
0.000150199
0.000162919
0.000174105
0.000183934
0.000192481
0.000199764
0.000205783
0.000210545
0.00021409
0.000216507
0.00021793
0.000218599
0.00021898
0.000219649
0.000221131
0.000223317
0.000224898
0.000223377
0.000215977
0.000200633
0.00017587
0.000144453
0.000117303
0.000104864
0.000103303
0.000103297
0.00010253
0.000104795
8.77162e-06
3.3963e-05
5.90147e-05
8.32508e-05
0.0001056
0.000125347
0.000142421
0.000157193
0.000170101
0.000181435
0.000191328
0.000199806
0.000206843
0.000212396
0.000216432
0.000218962
0.000220059
0.000219901
0.000218819
0.000217496
0.000216998
0.000218688
0.000223264
0.000229587
0.000234593
0.000234664
0.000226244
0.00020626
0.000174909
0.000140179
0.000115943
0.000107055
0.000105946
0.000106536
0.000109325
1.01132e-05
3.68259e-05
6.32013e-05
8.8449e-05
0.000111446
0.000131565
0.000148892
0.000163903
0.000177046
0.000188577
0.000198581
0.000207032
0.00021385
0.000218937
0.000222207
0.000223612
0.000223175
0.000221041
0.000217593
0.000213687
0.000210998
0.000212085
0.00021889
0.00023049
0.000242856
0.000250719
0.000248782
0.000233389
0.000203729
0.000165588
0.000132834
0.000116194
0.000111389
0.000109714
0.000107527
1.15403e-05
3.94653e-05
6.69405e-05
9.30325e-05
0.000116572
0.000137032
0.000154644
0.000169959
0.000183424
0.000195255
0.000205487
0.000214048
0.000220801
0.000225584
0.00022824
0.000228643
0.000226717
0.000222486
0.000216262
0.000208957
0.000202812
0.000201863
0.000209923
0.000226697
0.000246821
0.000262191
0.000266105
0.000254841
0.000227446
0.000188642
0.000151231
0.000128349
0.000118284
0.000111273
0.000100683
1.28473e-05
4.16952e-05
7.00669e-05
9.68676e-05
0.000120895
0.000141713
0.00015967
0.000175372
0.000189259
0.000201517
0.000212144
0.00022102
0.000227963
0.000232755
0.000235166
0.000234978
0.000231998
0.000226063
0.00021724
0.000206208
0.000195361
0.000189943
0.000196335
0.000216321
0.000243544
0.000266056
0.000275682
0.000268747
0.000244557
0.000207355
0.000168579
0.00014144
0.000125364
0.00011143
9.22854e-05
1.38581e-05
4.34076e-05
7.2499e-05
9.98896e-05
0.000124359
0.000145546
0.000163884
0.000180023
0.0001944
0.000207178
0.000218325
0.000227696
0.000235078
0.000240217
0.000242835
0.000242637
0.000239315
0.000232543
0.000222104
0.000208196
0.00019245
0.000179976
0.000179594
0.000197773
0.000229852
0.000259628
0.000275983
0.000274741
0.000255508
0.000222138
0.000184521
0.000154823
0.000132966
0.000111969
8.58549e-05
1.45199e-05
4.464e-05
7.43112e-05
0.000102194
0.000127075
0.000148648
0.000167409
0.000184043
0.000198987
0.000212389
0.000224201
0.000234261
0.000242346
0.000248189
0.000251495
0.00025193
0.000249115
0.000242594
0.000231927
0.000216798
0.000197643
0.000177787
0.000165994
0.000173816
0.000204399
0.000240703
0.000265781
0.000272646
0.000260681
0.000233322
0.000198938
0.000168232
0.000141782
0.000114544
8.28703e-05
1.48565e-05
4.54611e-05
7.56155e-05
0.000103939
0.000129233
0.000151218
0.000170432
0.000187591
0.000203139
0.000217218
0.000229768
0.000240625
0.000249565
0.000256332
0.000260642
0.000262169
0.000260527
0.000255221
0.000245739
0.000231481
0.00021192
0.00018791
0.000164887
0.000155347
0.00017233
0.000208966
0.000243443
0.000261204
0.00025904
0.000239759
0.000210479
0.000180545
0.000151319
0.00011928
8.31141e-05
1.49737e-05
4.60895e-05
7.67094e-05
0.00010545
0.000131136
0.000153509
0.000173154
0.000190822
0.000206971
0.000221735
0.00023505
0.000246741
0.000256589
0.000264362
0.000269802
0.000272615
0.00027245
0.00026889
0.000261441
0.000249451
0.000232034
0.000208508
0.000180301
0.000155102
0.000148809
0.000171428
0.000209102
0.000238716
0.000248777
0.00023956
0.000217154
0.000189979
0.000160167
0.000125273
8.58468e-05
1.49818e-05
4.6646e-05
7.7699e-05
0.000106804
0.00013283
0.000155552
0.000175597
0.000193757
0.000210494
0.000225933
0.000239999
0.000252523
0.000263296
0.000272098
0.000278686
0.000282794
0.000284145
0.000282443
0.000277271
0.000268044
0.000253881
0.000233671
0.000206699
0.000175146
0.000149048
0.000146078
0.000170622
0.000205678
0.000228807
0.000231566
0.000217749
0.000195265
0.000166972
0.000131349
9.02982e-05
1.49836e-05
4.72229e-05
7.8687e-05
0.000108118
0.000134428
0.000157424
0.000177802
0.000196394
0.000213671
0.000229746
0.000244532
0.000257844
0.000269466
0.000279183
0.000286794
0.0002921
0.000294877
0.000294931
0.00029193
0.000285423
0.000274647
0.00025853
0.000235825
0.000205984
0.000172318
0.000147485
0.000146272
0.000170315
0.000200169
0.00021558
0.000212044
0.000196172
0.000171471
0.00013705
9.60525e-05
1.50716e-05
4.79236e-05
7.97865e-05
0.000109493
0.000135994
0.000159171
0.000179797
0.000198745
0.000216491
0.000233135
0.000248571
0.000262598
0.000274989
0.000285526
0.000294014
0.000300271
0.000304172
0.000305648
0.00030451
0.000300431
0.000292727
0.000280509
0.000262592
0.00023772
0.000205859
0.000172328
0.000149048
0.000149219
0.000170936
0.000193333
0.000200475
0.000192658
0.000173329
0.000141988
0.000102873
1.53203e-05
4.87899e-05
8.10167e-05
0.000110915
0.000137506
0.000160759
0.000181539
0.000200766
0.000218913
0.000236062
0.000252081
0.00026674
0.000279788
0.000290997
0.000300173
0.000307157
0.000311902
0.000314412
0.000314591
0.000312255
0.000307006
0.000298173
0.00028475
0.000265328
0.000238963
0.000206952
0.000174469
0.000153022
0.000154513
0.000172179
0.000185827
0.000185752
0.000172727
0.000146022
0.000110296
1.58061e-05
4.98813e-05
8.24137e-05
0.000112422
0.000138992
0.000162202
0.000183031
0.000202444
0.000220912
0.000238496
0.000255027
0.000270235
0.000283832
0.000295559
0.00030521
0.000312634
0.000317849
0.000320935
0.000321904
0.000320723
0.000317188
0.000310868
0.000301044
0.000286686
0.000266679
0.000240648
0.000209011
0.000177047
0.000158252
0.000160815
0.000172908
0.000177822
0.000170501
0.000148954
0.000117694
1.66032e-05
5.11998e-05
8.39529e-05
0.000113974
0.000140405
0.000163458
0.000184234
0.000203745
0.00022246
0.000240414
0.000257395
0.000273081
0.000287126
0.000299223
0.00030914
0.000316715
0.000322003
0.000325148
0.00032626
0.000325458
0.000322774
0.000318121
0.000311196
0.000301309
0.000287439
0.000268629
0.000242722
0.000209978
0.000179104
0.000164098
0.000166511
0.00017148
0.000167832
0.000151018
0.000124656
1.77494e-05
5.27129e-05
8.55929e-05
0.000115544
0.000141741
0.000164544
0.000185183
0.000204717
0.000223612
0.000241879
0.00025926
0.000275363
0.000289769
0.000302104
0.000312084
0.000319522
0.000324481
0.000327142
0.000327693
0.000326383
0.00032348
0.000319331
0.000314275
0.00030827
0.000300584
0.000289374
0.000270869
0.000242777
0.000208761
0.000181091
0.000170299
0.00016999
0.0001668
0.000153326
0.000130883
1.92236e-05
5.4342e-05
8.72623e-05
0.000117086
0.000142988
0.000165482
0.000185925
0.000205422
0.000224444
0.000242982
0.000260727
0.000277214
0.000291933
0.000304423
0.000314324
0.000321397
0.000325681
0.00032736
0.00032665
0.000323873
0.000319494
0.00031436
0.000309734
0.000306636
0.00030483
0.000301236
0.000290709
0.000269439
0.000237979
0.000204953
0.000183407
0.000175262
0.000169347
0.00015631
0.000134391
2.08975e-05
5.59188e-05
8.8813e-05
0.00011849
0.000144086
0.000166253
0.000186469
0.000205885
0.000224988
0.000243757
0.000261842
0.000278703
0.000293737
0.000306379
0.000316174
0.000322804
0.000326244
0.000326634
0.000324151
0.000319088
0.000311991
0.000304198
0.000298184
0.0002966
0.000299962
0.000303427
0.000300299
0.000285766
0.000259003
0.000226152
0.000199551
0.000184825
0.000174231
0.000157849
0.000131866
2.25328e-05
5.72699e-05
9.01223e-05
0.000119682
0.000145015
0.000166882
0.000186868
0.000206176
0.000225316
0.000244271
0.000262668
0.000279909
0.000295309
0.000308203
0.000318031
0.00032437
0.000327102
0.00032627
0.000321937
0.000314248
0.00030364
0.000291737
0.000282305
0.000280253
0.000287371
0.00029677
0.000299983
0.000291374
0.000269754
0.000240123
0.000213071
0.000194313
0.000178244
0.000155602
0.000123616
2.38439e-05
5.82486e-05
9.11054e-05
0.000120614
0.000145764
0.000167398
0.000187179
0.000206373
0.000225516
0.000244611
0.000263285
0.000280917
0.000296768
0.000310101
0.000320259
0.000326715
0.000329237
0.000327737
0.000322114
0.000312284
0.000298353
0.000281735
0.000266885
0.000261162
0.000268833
0.00028222
0.000290958
0.000288136
0.000272251
0.0002476
0.000222174
0.000201025
0.000179797
0.000150555
0.000113857
2.46663e-05
5.88603e-05
9.17938e-05
0.000121324
0.000146386
0.000167879
0.000187526
0.00020662
0.000225748
0.000244941
0.00026385
0.000281866
0.000298239
0.000312196
0.000323025
0.000330114
0.000333141
0.000331883
0.000326078
0.000315423
0.000299601
0.000279242
0.000258138
0.000244838
0.000247444
0.000261056
0.000274308
0.000277718
0.000268318
0.000249341
0.000226615
0.000204391
0.000179386
0.000145597
0.00010646
2.50342e-05
5.92044e-05
9.22768e-05
0.000121883
0.000146932
0.000168358
0.000187931
0.000206978
0.000226102
0.000245376
0.000264494
0.000282878
0.000299804
0.000314505
0.000326249
0.000334395
0.000338571
0.000338451
0.000333659
0.000323763
0.000308163
0.000286579
0.000260974
0.000238488
0.00023004
0.000237135
0.000251477
0.000260889
0.000258717
0.000245973
0.000226841
0.000205119
0.000178465
0.000142646
0.000102761
2.50936e-05
5.94235e-05
9.26738e-05
0.000122378
0.000147455
0.000168866
0.000188414
0.000207449
0.000226597
0.000245964
0.000265279
0.000284014
0.000301486
0.000316961
0.000329719
0.00033915
0.000344859
0.000346467
0.000343542
0.000335616
0.000321957
0.000301813
0.000275414
0.00024677
0.000225827
0.000219558
0.000227454
0.000239254
0.000243941
0.00023807
0.000223656
0.000204189
0.00017812
0.00014223
0.000102322
2.49988e-05
5.96144e-05
9.30373e-05
0.000122812
0.000147903
0.000169303
0.000188841
0.000207893
0.000227098
0.000246575
0.000266087
0.000285153
0.000303139
0.000319352
0.000333105
0.000343845
0.000351185
0.000354731
0.000354032
0.000348642
0.000337902
0.000320879
0.000296951
0.000267428
0.000238644
0.000218085
0.000212126
0.000218369
0.000226029
0.000226467
0.000217708
0.0002021
0.000178529
0.000143886
0.000104083
2.48949e-05
5.98724e-05
9.34348e-05
0.000123221
0.000148276
0.000169635
0.000189165
0.000208247
0.000227517
0.000247105
0.0002668
0.000286162
0.000304602
0.000321471
0.000336115
0.000348061
0.000356943
0.000362372
0.0003639
0.000361114
0.000353458
0.000340162
0.000320241
0.000293701
0.000263621
0.000234434
0.000213813
0.000207227
0.000210575
0.000213824
0.000210203
0.000199141
0.00017924
0.000146633
0.000106909
2.4864e-05
6.01886e-05
9.38177e-05
0.000123541
0.000148504
0.000169794
0.000189299
0.000208402
0.000227735
0.000247427
0.000267284
0.000286891
0.0003057
0.0003231
0.000338473
0.000351429
0.000361637
0.000368723
0.000372264
0.000371887
0.000367113
0.000357297
0.000341682
0.000319767
0.000292772
0.000261939
0.000232262
0.000211781
0.000204326
0.000204472
0.000203336
0.000196078
0.000179891
0.000149609
0.000110006
2.49642e-05
6.05779e-05
9.42012e-05
0.000123796
0.000148593
0.000169753
0.000189194
0.000208297
0.000227685
0.000247478
0.000267479
0.000287286
0.000306373
0.000324163
0.000340076
0.000353803
0.000365041
0.000373444
0.00037863
0.000380288
0.000378028
0.000371333
0.000359595
0.000342426
0.000320286
0.0002923
0.000260366
0.000230706
0.000210975
0.000202724
0.000199817
0.000194193
0.00018066
0.000152433
0.000112946
2.52185e-05
6.10154e-05
9.45507e-05
0.000123921
0.00014846
0.000169408
0.000188717
0.000207775
0.000227197
0.000247092
0.000267241
0.000287229
0.00030653
0.00032458
0.000340878
0.000355145
0.000367097
0.000376421
0.000382791
0.000385978
0.000385698
0.000381582
0.000373218
0.000360399
0.000343039
0.000319699
0.000290125
0.000257436
0.000228869
0.000210624
0.000201976
0.00019505
0.00018228
0.000155188
0.000115444
2.5628e-05
6.14903e-05
9.48527e-05
0.000123914
0.000148093
0.000168719
0.000187793
0.000206726
0.000226139
0.000246124
0.000266437
0.000286623
0.000306131
0.000324381
0.000340944
0.000355553
0.000367932
0.0003778
0.000384887
0.000389049
0.000390124
0.000387908
0.000382219
0.000373099
0.000360114
0.000341533
0.000316105
0.000284797
0.000252392
0.000226249
0.000210298
0.000199646
0.000185552
0.000158127
0.000117258
2.61562e-05
6.19649e-05
9.50915e-05
0.000123776
0.000147496
0.000167682
0.000186402
0.000205103
0.000224428
0.000244466
0.000264936
0.000285336
0.000305065
0.000323506
0.000340288
0.000355129
0.000367743
0.000377866
0.000385275
0.000389914
0.000391738
0.000390719
0.000386941
0.000380714
0.000371375
0.000357125
0.000336215
0.00030821
0.000275822
0.000245388
0.000223143
0.000207734
0.000190686
0.000161314
0.000118236
2.67571e-05
6.24367e-05
9.5305e-05
0.000123568
0.000146746
0.000166379
0.000184617
0.000202965
0.000222104
0.000242132
0.000262736
0.000283356
0.000303329
0.000321993
0.000339011
0.000354058
0.00036682
0.000377033
0.000384513
0.000389269
0.000391364
0.000390943
0.00038837
0.000384191
0.000377609
0.000366891
0.0003501
0.000325994
0.000295684
0.00026403
0.000237741
0.000217948
0.000197198
0.000164646
0.000118551
2.7373e-05
6.2895e-05
9.55052e-05
0.000123316
0.000145878
0.00016485
0.00018248
0.000200342
0.000219182
0.000239122
0.000259825
0.000280661
0.000300891
0.000319883
0.000337225
0.00035253
0.000365451
0.000375723
0.000383184
0.000387891
0.000389992
0.000389784
0.000387901
0.000384992
0.000380241
0.000372121
0.000358716
0.000338339
0.00031099
0.000280129
0.000251962
0.000228846
0.000204412
0.000168104
0.0001187
2.79706e-05
6.33578e-05
9.57364e-05
0.00012309
0.000144989
0.000163215
0.000180115
0.000197351
0.000215752
0.000235498
0.000256246
0.000277309
0.000297854
0.000317253
0.000335017
0.000350688
0.000363878
0.000374314
0.000381837
0.000386538
0.00038862
0.000388502
0.000387033
0.000384742
0.000380922
0.0003744
0.000363489
0.000346334
0.000322174
0.000293323
0.000264792
0.000239484
0.000211849
0.000171823
0.000119276
2.85419e-05